   2   2   1   0
  0.1722702E+02  0.3253969E-09  0.3253969E-09  0.3253969E-09  0.5000000E-15
   1.0000000000000000E-004
  CAR 
 unknown system                          
     13.08929873    -27.56864609  301      5.36510811      1.00000000
    -27.569  0.0000E+00  0.0000E+00  0.0000E+00  0.0000E+00
    -27.433  0.0000E+00  0.0000E+00  0.0000E+00  0.0000E+00
    -27.298  0.0000E+00  0.0000E+00  0.0000E+00  0.0000E+00
    -27.162  0.0000E+00  0.0000E+00  0.0000E+00  0.0000E+00
    -27.027  0.0000E+00  0.0000E+00  0.0000E+00  0.0000E+00
    -26.891  0.0000E+00  0.0000E+00  0.0000E+00  0.0000E+00
    -26.755  0.0000E+00  0.0000E+00  0.0000E+00  0.0000E+00
    -26.620  0.0000E+00  0.0000E+00  0.0000E+00  0.0000E+00
    -26.484  0.0000E+00  0.0000E+00  0.0000E+00  0.0000E+00
    -26.349  0.0000E+00  0.0000E+00  0.0000E+00  0.0000E+00
    -26.213  0.0000E+00  0.0000E+00  0.0000E+00  0.0000E+00
    -26.078  0.0000E+00  0.0000E+00  0.0000E+00  0.0000E+00
    -25.942  0.0000E+00  0.0000E+00  0.0000E+00  0.0000E+00
    -25.807  0.0000E+00  0.0000E+00  0.0000E+00  0.0000E+00
    -25.671  0.1023E+01  0.1030E+01  0.2310E-01  0.2351E-01
    -25.536  0.3848E+01  0.3858E+01  0.3112E+00  0.3126E+00
    -25.400  0.5186E+01  0.5178E+01  0.1030E+01  0.1032E+01
    -25.265  0.2849E+01  0.2843E+01  0.1530E+01  0.1531E+01
    -25.129  0.2739E+01  0.2738E+01  0.1867E+01  0.1868E+01
    -24.994  0.3128E+01  0.3134E+01  0.2222E+01  0.2223E+01
    -24.858  0.4017E+01  0.4014E+01  0.2713E+01  0.2714E+01
    -24.723  0.4204E+01  0.4211E+01  0.3207E+01  0.3208E+01
    -24.587  0.4817E+01  0.4811E+01  0.3938E+01  0.3939E+01
    -24.452  0.6244E+01  0.6257E+01  0.4397E+01  0.4399E+01
    -24.316  0.6835E+01  0.6836E+01  0.5335E+01  0.5337E+01
    -24.180  0.2797E+01  0.2797E+01  0.6000E+01  0.6000E+01
    -24.045  0.0000E+00  0.0000E+00  0.6000E+01  0.6000E+01
    -23.909  0.0000E+00  0.0000E+00  0.6000E+01  0.6000E+01
    -23.774  0.0000E+00  0.0000E+00  0.6000E+01  0.6000E+01
    -23.638  0.0000E+00  0.0000E+00  0.6000E+01  0.6000E+01
    -23.503  0.0000E+00  0.0000E+00  0.6000E+01  0.6000E+01
    -23.367  0.0000E+00  0.0000E+00  0.6000E+01  0.6000E+01
    -23.232  0.0000E+00  0.0000E+00  0.6000E+01  0.6000E+01
    -23.096  0.0000E+00  0.0000E+00  0.6000E+01  0.6000E+01
    -22.961  0.0000E+00  0.0000E+00  0.6000E+01  0.6000E+01
    -22.825  0.0000E+00  0.0000E+00  0.6000E+01  0.6000E+01
    -22.690  0.0000E+00  0.0000E+00  0.6000E+01  0.6000E+01
    -22.554  0.0000E+00  0.0000E+00  0.6000E+01  0.6000E+01
    -22.419  0.0000E+00  0.0000E+00  0.6000E+01  0.6000E+01
    -22.283  0.0000E+00  0.0000E+00  0.6000E+01  0.6000E+01
    -22.148  0.0000E+00  0.0000E+00  0.6000E+01  0.6000E+01
    -22.012  0.0000E+00  0.0000E+00  0.6000E+01  0.6000E+01
    -21.877  0.0000E+00  0.0000E+00  0.6000E+01  0.6000E+01
    -21.741  0.0000E+00  0.0000E+00  0.6000E+01  0.6000E+01
    -21.605  0.0000E+00  0.0000E+00  0.6000E+01  0.6000E+01
    -21.470  0.0000E+00  0.0000E+00  0.6000E+01  0.6000E+01
    -21.334  0.0000E+00  0.0000E+00  0.6000E+01  0.6000E+01
    -21.199  0.0000E+00  0.0000E+00  0.6000E+01  0.6000E+01
    -21.063  0.0000E+00  0.0000E+00  0.6000E+01  0.6000E+01
    -20.928  0.0000E+00  0.0000E+00  0.6000E+01  0.6000E+01
    -20.792  0.0000E+00  0.0000E+00  0.6000E+01  0.6000E+01
    -20.657  0.0000E+00  0.0000E+00  0.6000E+01  0.6000E+01
    -20.521  0.0000E+00  0.0000E+00  0.6000E+01  0.6000E+01
    -20.386  0.0000E+00  0.0000E+00  0.6000E+01  0.6000E+01
    -20.250  0.0000E+00  0.0000E+00  0.6000E+01  0.6000E+01
    -20.115  0.0000E+00  0.0000E+00  0.6000E+01  0.6000E+01
    -19.979  0.0000E+00  0.0000E+00  0.6000E+01  0.6000E+01
    -19.844  0.0000E+00  0.0000E+00  0.6000E+01  0.6000E+01
    -19.708  0.0000E+00  0.0000E+00  0.6000E+01  0.6000E+01
    -19.573  0.0000E+00  0.0000E+00  0.6000E+01  0.6000E+01
    -19.437  0.0000E+00  0.0000E+00  0.6000E+01  0.6000E+01
    -19.302  0.0000E+00  0.0000E+00  0.6000E+01  0.6000E+01
    -19.166  0.0000E+00  0.0000E+00  0.6000E+01  0.6000E+01
    -19.030  0.0000E+00  0.0000E+00  0.6000E+01  0.6000E+01
    -18.895  0.0000E+00  0.0000E+00  0.6000E+01  0.6000E+01
    -18.759  0.0000E+00  0.0000E+00  0.6000E+01  0.6000E+01
    -18.624  0.0000E+00  0.0000E+00  0.6000E+01  0.6000E+01
    -18.488  0.0000E+00  0.0000E+00  0.6000E+01  0.6000E+01
    -18.353  0.0000E+00  0.0000E+00  0.6000E+01  0.6000E+01
    -18.217  0.0000E+00  0.0000E+00  0.6000E+01  0.6000E+01
    -18.082  0.0000E+00  0.0000E+00  0.6000E+01  0.6000E+01
    -17.946  0.0000E+00  0.0000E+00  0.6000E+01  0.6000E+01
    -17.811  0.0000E+00  0.0000E+00  0.6000E+01  0.6000E+01
    -17.675  0.0000E+00  0.0000E+00  0.6000E+01  0.6000E+01
    -17.540  0.0000E+00  0.0000E+00  0.6000E+01  0.6000E+01
    -17.404  0.0000E+00  0.0000E+00  0.6000E+01  0.6000E+01
    -17.269  0.0000E+00  0.0000E+00  0.6000E+01  0.6000E+01
    -17.133  0.0000E+00  0.0000E+00  0.6000E+01  0.6000E+01
    -16.998  0.0000E+00  0.0000E+00  0.6000E+01  0.6000E+01
    -16.862  0.0000E+00  0.0000E+00  0.6000E+01  0.6000E+01
    -16.727  0.0000E+00  0.0000E+00  0.6000E+01  0.6000E+01
    -16.591  0.0000E+00  0.0000E+00  0.6000E+01  0.6000E+01
    -16.455  0.0000E+00  0.0000E+00  0.6000E+01  0.6000E+01
    -16.320  0.0000E+00  0.0000E+00  0.6000E+01  0.6000E+01
    -16.184  0.0000E+00  0.0000E+00  0.6000E+01  0.6000E+01
    -16.049  0.0000E+00  0.0000E+00  0.6000E+01  0.6000E+01
    -15.913  0.0000E+00  0.0000E+00  0.6000E+01  0.6000E+01
    -15.778  0.0000E+00  0.0000E+00  0.6000E+01  0.6000E+01
    -15.642  0.0000E+00  0.0000E+00  0.6000E+01  0.6000E+01
    -15.507  0.0000E+00  0.0000E+00  0.6000E+01  0.6000E+01
    -15.371  0.0000E+00  0.0000E+00  0.6000E+01  0.6000E+01
    -15.236  0.0000E+00  0.0000E+00  0.6000E+01  0.6000E+01
    -15.100  0.0000E+00  0.0000E+00  0.6000E+01  0.6000E+01
    -14.965  0.0000E+00  0.0000E+00  0.6000E+01  0.6000E+01
    -14.829  0.0000E+00  0.0000E+00  0.6000E+01  0.6000E+01
    -14.694  0.0000E+00  0.0000E+00  0.6000E+01  0.6000E+01
    -14.558  0.0000E+00  0.0000E+00  0.6000E+01  0.6000E+01
    -14.423  0.0000E+00  0.0000E+00  0.6000E+01  0.6000E+01
    -14.287  0.0000E+00  0.0000E+00  0.6000E+01  0.6000E+01
    -14.152  0.0000E+00  0.0000E+00  0.6000E+01  0.6000E+01
    -14.016  0.0000E+00  0.0000E+00  0.6000E+01  0.6000E+01
    -13.880  0.0000E+00  0.0000E+00  0.6000E+01  0.6000E+01
    -13.745  0.0000E+00  0.0000E+00  0.6000E+01  0.6000E+01
    -13.609  0.0000E+00  0.0000E+00  0.6000E+01  0.6000E+01
    -13.474  0.0000E+00  0.0000E+00  0.6000E+01  0.6000E+01
    -13.338  0.0000E+00  0.0000E+00  0.6000E+01  0.6000E+01
    -13.203  0.0000E+00  0.0000E+00  0.6000E+01  0.6000E+01
    -13.067  0.0000E+00  0.0000E+00  0.6000E+01  0.6000E+01
    -12.932  0.0000E+00  0.0000E+00  0.6000E+01  0.6000E+01
    -12.796  0.0000E+00  0.0000E+00  0.6000E+01  0.6000E+01
    -12.661  0.0000E+00  0.0000E+00  0.6000E+01  0.6000E+01
    -12.525  0.0000E+00  0.0000E+00  0.6000E+01  0.6000E+01
    -12.390  0.0000E+00  0.0000E+00  0.6000E+01  0.6000E+01
    -12.254  0.0000E+00  0.0000E+00  0.6000E+01  0.6000E+01
    -12.119  0.0000E+00  0.0000E+00  0.6000E+01  0.6000E+01
    -11.983  0.0000E+00  0.0000E+00  0.6000E+01  0.6000E+01
    -11.848  0.0000E+00  0.0000E+00  0.6000E+01  0.6000E+01
    -11.712  0.0000E+00  0.0000E+00  0.6000E+01  0.6000E+01
    -11.577  0.0000E+00  0.0000E+00  0.6000E+01  0.6000E+01
    -11.441  0.0000E+00  0.0000E+00  0.6000E+01  0.6000E+01
    -11.305  0.0000E+00  0.0000E+00  0.6000E+01  0.6000E+01
    -11.170  0.0000E+00  0.0000E+00  0.6000E+01  0.6000E+01
    -11.034  0.0000E+00  0.0000E+00  0.6000E+01  0.6000E+01
    -10.899  0.0000E+00  0.0000E+00  0.6000E+01  0.6000E+01
    -10.763  0.0000E+00  0.0000E+00  0.6000E+01  0.6000E+01
    -10.628  0.0000E+00  0.0000E+00  0.6000E+01  0.6000E+01
    -10.492  0.0000E+00  0.0000E+00  0.6000E+01  0.6000E+01
    -10.357  0.0000E+00  0.0000E+00  0.6000E+01  0.6000E+01
    -10.221  0.0000E+00  0.0000E+00  0.6000E+01  0.6000E+01
    -10.086  0.0000E+00  0.0000E+00  0.6000E+01  0.6000E+01
     -9.950  0.0000E+00  0.0000E+00  0.6000E+01  0.6000E+01
     -9.815  0.0000E+00  0.0000E+00  0.6000E+01  0.6000E+01
     -9.679  0.0000E+00  0.0000E+00  0.6000E+01  0.6000E+01
     -9.544  0.0000E+00  0.0000E+00  0.6000E+01  0.6000E+01
     -9.408  0.0000E+00  0.0000E+00  0.6000E+01  0.6000E+01
     -9.273  0.0000E+00  0.0000E+00  0.6000E+01  0.6000E+01
     -9.137  0.0000E+00  0.0000E+00  0.6000E+01  0.6000E+01
     -9.002  0.0000E+00  0.0000E+00  0.6000E+01  0.6000E+01
     -8.866  0.0000E+00  0.0000E+00  0.6000E+01  0.6000E+01
     -8.730  0.0000E+00  0.0000E+00  0.6000E+01  0.6000E+01
     -8.595  0.0000E+00  0.0000E+00  0.6000E+01  0.6000E+01
     -8.459  0.0000E+00  0.0000E+00  0.6000E+01  0.6000E+01
     -8.324  0.0000E+00  0.0000E+00  0.6000E+01  0.6000E+01
     -8.188  0.0000E+00  0.0000E+00  0.6000E+01  0.6000E+01
     -8.053  0.0000E+00  0.0000E+00  0.6000E+01  0.6000E+01
     -7.917  0.0000E+00  0.0000E+00  0.6000E+01  0.6000E+01
     -7.782  0.0000E+00  0.0000E+00  0.6000E+01  0.6000E+01
     -7.646  0.0000E+00  0.0000E+00  0.6000E+01  0.6000E+01
     -7.511  0.0000E+00  0.0000E+00  0.6000E+01  0.6000E+01
     -7.375  0.0000E+00  0.0000E+00  0.6000E+01  0.6000E+01
     -7.240  0.0000E+00  0.0000E+00  0.6000E+01  0.6000E+01
     -7.104  0.0000E+00  0.0000E+00  0.6000E+01  0.6000E+01
     -6.969  0.0000E+00  0.0000E+00  0.6000E+01  0.6000E+01
     -6.833  0.0000E+00  0.0000E+00  0.6000E+01  0.6000E+01
     -6.698  0.0000E+00  0.0000E+00  0.6000E+01  0.6000E+01
     -6.562  0.0000E+00  0.0000E+00  0.6000E+01  0.6000E+01
     -6.427  0.0000E+00  0.0000E+00  0.6000E+01  0.6000E+01
     -6.291  0.0000E+00  0.0000E+00  0.6000E+01  0.6000E+01
     -6.155  0.0000E+00  0.0000E+00  0.6000E+01  0.6000E+01
     -6.020  0.0000E+00  0.0000E+00  0.6000E+01  0.6000E+01
     -5.884  0.0000E+00  0.0000E+00  0.6000E+01  0.6000E+01
     -5.749  0.0000E+00  0.0000E+00  0.6000E+01  0.6000E+01
     -5.613  0.0000E+00  0.0000E+00  0.6000E+01  0.6000E+01
     -5.478  0.0000E+00  0.0000E+00  0.6000E+01  0.6000E+01
     -5.342  0.0000E+00  0.0000E+00  0.6000E+01  0.6000E+01
     -5.207  0.0000E+00  0.0000E+00  0.6000E+01  0.6000E+01
     -5.071  0.0000E+00  0.0000E+00  0.6000E+01  0.6000E+01
     -4.936  0.0000E+00  0.0000E+00  0.6000E+01  0.6000E+01
     -4.800  0.0000E+00  0.0000E+00  0.6000E+01  0.6000E+01
     -4.665  0.0000E+00  0.0000E+00  0.6000E+01  0.6000E+01
     -4.529  0.0000E+00  0.0000E+00  0.6000E+01  0.6000E+01
     -4.394  0.0000E+00  0.0000E+00  0.6000E+01  0.6000E+01
     -4.258  0.0000E+00  0.0000E+00  0.6000E+01  0.6000E+01
     -4.123  0.0000E+00  0.0000E+00  0.6000E+01  0.6000E+01
     -3.987  0.0000E+00  0.0000E+00  0.6000E+01  0.6000E+01
     -3.852  0.0000E+00  0.0000E+00  0.6000E+01  0.6000E+01
     -3.716  0.0000E+00  0.0000E+00  0.6000E+01  0.6000E+01
     -3.580  0.0000E+00  0.0000E+00  0.6000E+01  0.6000E+01
     -3.445  0.0000E+00  0.0000E+00  0.6000E+01  0.6000E+01
     -3.309  0.0000E+00  0.0000E+00  0.6000E+01  0.6000E+01
     -3.174  0.0000E+00  0.0000E+00  0.6000E+01  0.6000E+01
     -3.038  0.0000E+00  0.0000E+00  0.6000E+01  0.6000E+01
     -2.903  0.0000E+00  0.0000E+00  0.6000E+01  0.6000E+01
     -2.767  0.0000E+00  0.0000E+00  0.6000E+01  0.6000E+01
     -2.632  0.0000E+00  0.0000E+00  0.6000E+01  0.6000E+01
     -2.496  0.0000E+00  0.0000E+00  0.6000E+01  0.6000E+01
     -2.361  0.0000E+00  0.0000E+00  0.6000E+01  0.6000E+01
     -2.225  0.0000E+00  0.0000E+00  0.6000E+01  0.6000E+01
     -2.090  0.0000E+00  0.0000E+00  0.6000E+01  0.6000E+01
     -1.954  0.0000E+00  0.0000E+00  0.6000E+01  0.6000E+01
     -1.819  0.0000E+00  0.0000E+00  0.6000E+01  0.6000E+01
     -1.683  0.0000E+00  0.0000E+00  0.6000E+01  0.6000E+01
     -1.548  0.0000E+00  0.0000E+00  0.6000E+01  0.6000E+01
     -1.412  0.0000E+00  0.0000E+00  0.6000E+01  0.6000E+01
     -1.277  0.0000E+00  0.0000E+00  0.6000E+01  0.6000E+01
     -1.141  0.0000E+00  0.0000E+00  0.6000E+01  0.6000E+01
     -1.005  0.0000E+00  0.0000E+00  0.6000E+01  0.6000E+01
     -0.870  0.0000E+00  0.0000E+00  0.6000E+01  0.6000E+01
     -0.734  0.0000E+00  0.0000E+00  0.6000E+01  0.6000E+01
     -0.599  0.8426E-03  0.8988E-03  0.6000E+01  0.6000E+01
     -0.463  0.6571E-02  0.6726E-02  0.6000E+01  0.6000E+01
     -0.328  0.1771E-01  0.1797E-01  0.6002E+01  0.6002E+01
     -0.192  0.3473E-01  0.3508E-01  0.6006E+01  0.6006E+01
     -0.057  0.5067E-01  0.5090E-01  0.6011E+01  0.6012E+01
      0.079  0.6049E-01  0.6061E-01  0.6019E+01  0.6019E+01
      0.214  0.6471E-01  0.6477E-01  0.6028E+01  0.6028E+01
      0.350  0.7045E-01  0.7059E-01  0.6037E+01  0.6037E+01
      0.485  0.7990E-01  0.8010E-01  0.6047E+01  0.6047E+01
      0.621  0.9250E-01  0.9273E-01  0.6058E+01  0.6059E+01
      0.756  0.1061E+00  0.1064E+00  0.6072E+01  0.6072E+01
      0.892  0.1205E+00  0.1208E+00  0.6087E+01  0.6088E+01
      1.027  0.1347E+00  0.1349E+00  0.6105E+01  0.6105E+01
      1.163  0.1474E+00  0.1480E+00  0.6124E+01  0.6124E+01
      1.298  0.1834E+00  0.1840E+00  0.6146E+01  0.6146E+01
      1.434  0.2320E+00  0.2330E+00  0.6174E+01  0.6174E+01
      1.570  0.4138E+00  0.4169E+00  0.6216E+01  0.6216E+01
      1.705  0.7200E+00  0.7236E+00  0.6294E+01  0.6295E+01
      1.841  0.9900E+00  0.9926E+00  0.6410E+01  0.6412E+01
      1.976  0.1154E+01  0.1155E+01  0.6557E+01  0.6559E+01
      2.112  0.1211E+01  0.1212E+01  0.6716E+01  0.6719E+01
      2.247  0.1492E+01  0.1498E+01  0.6890E+01  0.6893E+01
      2.383  0.1387E+01  0.1375E+01  0.7112E+01  0.7114E+01
      2.518  0.1378E+01  0.1379E+01  0.7286E+01  0.7288E+01
      2.654  0.1440E+01  0.1440E+01  0.7478E+01  0.7480E+01
      2.789  0.1497E+01  0.1502E+01  0.7674E+01  0.7676E+01
      2.925  0.1484E+01  0.1474E+01  0.7881E+01  0.7883E+01
      3.060  0.9232E+00  0.9181E+00  0.8037E+01  0.8038E+01
      3.196  0.4770E+00  0.4757E+00  0.8116E+01  0.8116E+01
      3.331  0.4095E+00  0.4090E+00  0.8175E+01  0.8176E+01
      3.467  0.4348E+00  0.4364E+00  0.8231E+01  0.8232E+01
      3.602  0.1782E+01  0.1793E+01  0.8334E+01  0.8336E+01
      3.738  0.2238E+01  0.2249E+01  0.8553E+01  0.8556E+01
      3.873  0.2683E+01  0.2677E+01  0.8881E+01  0.8885E+01
      4.009  0.2060E+01  0.2050E+01  0.9220E+01  0.9223E+01
      4.145  0.8719E+00  0.8710E+00  0.9399E+01  0.9400E+01
      4.280  0.8009E+00  0.8011E+00  0.9511E+01  0.9512E+01
      4.416  0.8152E+00  0.8154E+00  0.9621E+01  0.9622E+01
      4.551  0.8694E+00  0.8706E+00  0.9737E+01  0.9739E+01
      4.687  0.1052E+01  0.1054E+01  0.9866E+01  0.9867E+01
      4.822  0.1296E+01  0.1298E+01  0.1002E+02  0.1002E+02
      4.958  0.1376E+01  0.1379E+01  0.1020E+02  0.1021E+02
      5.093  0.2560E+01  0.2566E+01  0.1043E+02  0.1044E+02
      5.229  0.1892E+01  0.1887E+01  0.1076E+02  0.1077E+02
      5.364  0.1495E+01  0.1483E+01  0.1100E+02  0.1100E+02
      5.500  0.1285E+01  0.1285E+01  0.1118E+02  0.1119E+02
      5.635  0.1159E+01  0.1156E+01  0.1135E+02  0.1136E+02
      5.771  0.7280E+00  0.7266E+00  0.1148E+02  0.1148E+02
      5.906  0.6183E+00  0.6171E+00  0.1157E+02  0.1157E+02
      6.042  0.5186E+00  0.5180E+00  0.1165E+02  0.1165E+02
      6.177  0.4800E+00  0.4794E+00  0.1172E+02  0.1172E+02
      6.313  0.4396E+00  0.4390E+00  0.1178E+02  0.1178E+02
      6.449  0.4246E+00  0.4240E+00  0.1183E+02  0.1184E+02
      6.584  0.3847E+00  0.3841E+00  0.1189E+02  0.1189E+02
      6.720  0.3266E+00  0.3259E+00  0.1194E+02  0.1194E+02
      6.855  0.2731E+00  0.2757E+00  0.1198E+02  0.1198E+02
      6.991  0.4387E+00  0.4386E+00  0.1203E+02  0.1203E+02
      7.126  0.5268E+00  0.5273E+00  0.1210E+02  0.1210E+02
      7.262  0.6340E+00  0.6346E+00  0.1218E+02  0.1218E+02
      7.397  0.7459E+00  0.7466E+00  0.1227E+02  0.1227E+02
      7.533  0.8584E+00  0.8588E+00  0.1238E+02  0.1238E+02
      7.668  0.9429E+00  0.9434E+00  0.1250E+02  0.1250E+02
      7.804  0.1046E+01  0.1046E+01  0.1264E+02  0.1264E+02
      7.939  0.1145E+01  0.1145E+01  0.1278E+02  0.1279E+02
      8.075  0.1195E+01  0.1194E+01  0.1294E+02  0.1295E+02
      8.210  0.1257E+01  0.1257E+01  0.1311E+02  0.1311E+02
      8.346  0.1629E+01  0.1629E+01  0.1331E+02  0.1331E+02
      8.481  0.1533E+01  0.1531E+01  0.1354E+02  0.1354E+02
      8.617  0.1344E+01  0.1344E+01  0.1373E+02  0.1373E+02
      8.752  0.1236E+01  0.1234E+01  0.1390E+02  0.1390E+02
      8.888  0.1320E+01  0.1318E+01  0.1408E+02  0.1408E+02
      9.024  0.9702E+00  0.9699E+00  0.1421E+02  0.1422E+02
      9.159  0.1117E+01  0.1117E+01  0.1435E+02  0.1435E+02
      9.295  0.1399E+01  0.1398E+01  0.1453E+02  0.1453E+02
      9.430  0.2271E+01  0.2271E+01  0.1474E+02  0.1474E+02
      9.566  0.3163E+01  0.3156E+01  0.1522E+02  0.1522E+02
      9.701  0.1730E+01  0.1729E+01  0.1548E+02  0.1548E+02
      9.837  0.1176E+01  0.1255E+01  0.1564E+02  0.1564E+02
      9.972  0.8865E+00  0.8895E+00  0.1578E+02  0.1578E+02
     10.108  0.6448E+00  0.6462E+00  0.1589E+02  0.1589E+02
     10.243  0.3001E+00  0.2995E+00  0.1595E+02  0.1595E+02
     10.379  0.1654E+00  0.1648E+00  0.1598E+02  0.1598E+02
     10.514  0.6356E-01  0.6303E-01  0.1600E+02  0.1600E+02
     10.650  0.5931E-02  0.5914E-02  0.1600E+02  0.1600E+02
     10.785  0.3524E-02  0.3512E-02  0.1600E+02  0.1600E+02
     10.921  0.1740E-02  0.1732E-02  0.1600E+02  0.1600E+02
     11.056  0.5792E-03  0.5748E-03  0.1600E+02  0.1600E+02
     11.192  0.4118E-04  0.4010E-04  0.1600E+02  0.1600E+02
     11.327  0.0000E+00  0.0000E+00  0.1600E+02  0.1600E+02
     11.463  0.0000E+00  0.0000E+00  0.1600E+02  0.1600E+02
     11.599  0.0000E+00  0.0000E+00  0.1600E+02  0.1600E+02
     11.734  0.0000E+00  0.0000E+00  0.1600E+02  0.1600E+02
     11.870  0.0000E+00  0.0000E+00  0.1600E+02  0.1600E+02
     12.005  0.0000E+00  0.0000E+00  0.1600E+02  0.1600E+02
     12.141  0.0000E+00  0.0000E+00  0.1600E+02  0.1600E+02
     12.276  0.0000E+00  0.0000E+00  0.1600E+02  0.1600E+02
     12.412  0.0000E+00  0.0000E+00  0.1600E+02  0.1600E+02
     12.547  0.0000E+00  0.0000E+00  0.1600E+02  0.1600E+02
     12.683  0.0000E+00  0.0000E+00  0.1600E+02  0.1600E+02
     12.818  0.0000E+00  0.0000E+00  0.1600E+02  0.1600E+02
     12.954  0.0000E+00  0.0000E+00  0.1600E+02  0.1600E+02
     13.089  0.0000E+00  0.0000E+00  0.1600E+02  0.1600E+02
     13.08929873    -27.56864609  301      5.36510811      1.00000000
    -27.569  0.0000E+00  0.0000E+00  0.0000E+00  0.0000E+00  0.0000E+00  0.0000E+00  0.0000E+00  0.0000E+00  0.0000E+00  0.0000E+00  0.0000E+00  0.0000E+00  0.0000E+00  0.0000E+00  0.0000E+00  0.0000E+00  0.0000E+00  0.0000E+00
    -27.433  0.0000E+00  0.0000E+00  0.0000E+00  0.0000E+00  0.0000E+00  0.0000E+00  0.0000E+00  0.0000E+00  0.0000E+00  0.0000E+00  0.0000E+00  0.0000E+00  0.0000E+00  0.0000E+00  0.0000E+00  0.0000E+00  0.0000E+00  0.0000E+00
    -27.298  0.0000E+00  0.0000E+00  0.0000E+00  0.0000E+00  0.0000E+00  0.0000E+00  0.0000E+00  0.0000E+00  0.0000E+00  0.0000E+00  0.0000E+00  0.0000E+00  0.0000E+00  0.0000E+00  0.0000E+00  0.0000E+00  0.0000E+00  0.0000E+00
    -27.162  0.0000E+00  0.0000E+00  0.0000E+00  0.0000E+00  0.0000E+00  0.0000E+00  0.0000E+00  0.0000E+00  0.0000E+00  0.0000E+00  0.0000E+00  0.0000E+00  0.0000E+00  0.0000E+00  0.0000E+00  0.0000E+00  0.0000E+00  0.0000E+00
    -27.027  0.0000E+00  0.0000E+00  0.0000E+00  0.0000E+00  0.0000E+00  0.0000E+00  0.0000E+00  0.0000E+00  0.0000E+00  0.0000E+00  0.0000E+00  0.0000E+00  0.0000E+00  0.0000E+00  0.0000E+00  0.0000E+00  0.0000E+00  0.0000E+00
    -26.891  0.0000E+00  0.0000E+00  0.0000E+00  0.0000E+00  0.0000E+00  0.0000E+00  0.0000E+00  0.0000E+00  0.0000E+00  0.0000E+00  0.0000E+00  0.0000E+00  0.0000E+00  0.0000E+00  0.0000E+00  0.0000E+00  0.0000E+00  0.0000E+00
    -26.755  0.0000E+00  0.0000E+00  0.0000E+00  0.0000E+00  0.0000E+00  0.0000E+00  0.0000E+00  0.0000E+00  0.0000E+00  0.0000E+00  0.0000E+00  0.0000E+00  0.0000E+00  0.0000E+00  0.0000E+00  0.0000E+00  0.0000E+00  0.0000E+00
    -26.620  0.0000E+00  0.0000E+00  0.0000E+00  0.0000E+00  0.0000E+00  0.0000E+00  0.0000E+00  0.0000E+00  0.0000E+00  0.0000E+00  0.0000E+00  0.0000E+00  0.0000E+00  0.0000E+00  0.0000E+00  0.0000E+00  0.0000E+00  0.0000E+00
    -26.484  0.0000E+00  0.0000E+00  0.0000E+00  0.0000E+00  0.0000E+00  0.0000E+00  0.0000E+00  0.0000E+00  0.0000E+00  0.0000E+00  0.0000E+00  0.0000E+00  0.0000E+00  0.0000E+00  0.0000E+00  0.0000E+00  0.0000E+00  0.0000E+00
    -26.349  0.0000E+00  0.0000E+00  0.0000E+00  0.0000E+00  0.0000E+00  0.0000E+00  0.0000E+00  0.0000E+00  0.0000E+00  0.0000E+00  0.0000E+00  0.0000E+00  0.0000E+00  0.0000E+00  0.0000E+00  0.0000E+00  0.0000E+00  0.0000E+00
    -26.213  0.0000E+00  0.0000E+00  0.0000E+00  0.0000E+00  0.0000E+00  0.0000E+00  0.0000E+00  0.0000E+00  0.0000E+00  0.0000E+00  0.0000E+00  0.0000E+00  0.0000E+00  0.0000E+00  0.0000E+00  0.0000E+00  0.0000E+00  0.0000E+00
    -26.078  0.0000E+00  0.0000E+00  0.0000E+00  0.0000E+00  0.0000E+00  0.0000E+00  0.0000E+00  0.0000E+00  0.0000E+00  0.0000E+00  0.0000E+00  0.0000E+00  0.0000E+00  0.0000E+00  0.0000E+00  0.0000E+00  0.0000E+00  0.0000E+00
    -25.942  0.0000E+00  0.0000E+00  0.0000E+00  0.0000E+00  0.0000E+00  0.0000E+00  0.0000E+00  0.0000E+00  0.0000E+00  0.0000E+00  0.0000E+00  0.0000E+00  0.0000E+00  0.0000E+00  0.0000E+00  0.0000E+00  0.0000E+00  0.0000E+00
    -25.807  0.0000E+00  0.0000E+00  0.0000E+00  0.0000E+00  0.0000E+00  0.0000E+00  0.0000E+00  0.0000E+00  0.0000E+00  0.0000E+00  0.0000E+00  0.0000E+00  0.0000E+00  0.0000E+00  0.0000E+00  0.0000E+00  0.0000E+00  0.0000E+00
    -25.671  0.1368E-03  0.1383E-03  0.1661E+00  0.1673E+00  0.1661E+00  0.1673E+00  0.1661E+00  0.1673E+00  0.6657E-04  0.6734E-04  0.6657E-04  0.6734E-04  0.3758E-04  0.3820E-04  0.6657E-04  0.6734E-04  0.3758E-04  0.3820E-04
    -25.536  0.1261E-02  0.1265E-02  0.6259E+00  0.6274E+00  0.6259E+00  0.6274E+00  0.6259E+00  0.6274E+00  0.4555E-03  0.4581E-03  0.4555E-03  0.4581E-03  0.2812E-03  0.2847E-03  0.4555E-03  0.4581E-03  0.2812E-03  0.2847E-03
    -25.400  0.2492E-02  0.2489E-02  0.8451E+00  0.8438E+00  0.8451E+00  0.8438E+00  0.8451E+00  0.8438E+00  0.8253E-03  0.8246E-03  0.8253E-03  0.8246E-03  0.4352E-03  0.4391E-03  0.8253E-03  0.8246E-03  0.4352E-03  0.4391E-03
    -25.265  0.1965E-02  0.1962E-02  0.4653E+00  0.4644E+00  0.4653E+00  0.4644E+00  0.4653E+00  0.4644E+00  0.3302E-03  0.3302E-03  0.3302E-03  0.3302E-03  0.2453E-03  0.2459E-03  0.3302E-03  0.3302E-03  0.2453E-03  0.2459E-03
    -25.129  0.1415E-02  0.1412E-02  0.4491E+00  0.4490E+00  0.4491E+00  0.4490E+00  0.4491E+00  0.4490E+00  0.6235E-03  0.6238E-03  0.6235E-03  0.6238E-03  0.1004E-03  0.1008E-03  0.6235E-03  0.6238E-03  0.1004E-03  0.1008E-03
    -24.994  0.1064E-02  0.1065E-02  0.5137E+00  0.5147E+00  0.5137E+00  0.5147E+00  0.5137E+00  0.5147E+00  0.1174E-02  0.1178E-02  0.1174E-02  0.1178E-02  0.1523E-03  0.1535E-03  0.1174E-02  0.1178E-02  0.1523E-03  0.1535E-03
    -24.858  0.6441E-03  0.6415E-03  0.6620E+00  0.6615E+00  0.6620E+00  0.6615E+00  0.6620E+00  0.6615E+00  0.1329E-02  0.1329E-02  0.1329E-02  0.1329E-02  0.1211E-03  0.1216E-03  0.1329E-02  0.1329E-02  0.1211E-03  0.1216E-03
    -24.723  0.1386E-02  0.1391E-02  0.6931E+00  0.6943E+00  0.6931E+00  0.6943E+00  0.6931E+00  0.6943E+00  0.1483E-02  0.1488E-02  0.1483E-02  0.1488E-02  0.8277E-04  0.8322E-04  0.1483E-02  0.1488E-02  0.8277E-04  0.8322E-04
    -24.587  0.1118E-02  0.1116E-02  0.7964E+00  0.7955E+00  0.7964E+00  0.7955E+00  0.7964E+00  0.7955E+00  0.1283E-02  0.1284E-02  0.1283E-02  0.1284E-02  0.6609E-04  0.6619E-04  0.1283E-02  0.1284E-02  0.6609E-04  0.6619E-04
    -24.452  0.8302E-03  0.8315E-03  0.1034E+01  0.1037E+01  0.1034E+01  0.1037E+01  0.1034E+01  0.1037E+01  0.1495E-02  0.1499E-02  0.1495E-02  0.1499E-02  0.4762E-04  0.4756E-04  0.1495E-02  0.1499E-02  0.4762E-04  0.4756E-04
    -24.316  0.7724E-03  0.7717E-03  0.1135E+01  0.1135E+01  0.1135E+01  0.1135E+01  0.1135E+01  0.1135E+01  0.7910E-03  0.7895E-03  0.7910E-03  0.7895E-03  0.3194E-04  0.3156E-04  0.7910E-03  0.7895E-03  0.3194E-04  0.3156E-04
    -24.180  0.1229E-03  0.1229E-03  0.4648E+00  0.4648E+00  0.4648E+00  0.4648E+00  0.4648E+00  0.4648E+00  0.1861E-03  0.1855E-03  0.1861E-03  0.1855E-03  0.5963E-05  0.5851E-05  0.1861E-03  0.1855E-03  0.5963E-05  0.5851E-05
    -24.045  0.0000E+00  0.0000E+00  0.0000E+00  0.0000E+00  0.0000E+00  0.0000E+00  0.0000E+00  0.0000E+00  0.0000E+00  0.0000E+00  0.0000E+00  0.0000E+00  0.0000E+00  0.0000E+00  0.0000E+00  0.0000E+00  0.0000E+00  0.0000E+00
    -23.909  0.0000E+00  0.0000E+00  0.0000E+00  0.0000E+00  0.0000E+00  0.0000E+00  0.0000E+00  0.0000E+00  0.0000E+00  0.0000E+00  0.0000E+00  0.0000E+00  0.0000E+00  0.0000E+00  0.0000E+00  0.0000E+00  0.0000E+00  0.0000E+00
    -23.774  0.0000E+00  0.0000E+00  0.0000E+00  0.0000E+00  0.0000E+00  0.0000E+00  0.0000E+00  0.0000E+00  0.0000E+00  0.0000E+00  0.0000E+00  0.0000E+00  0.0000E+00  0.0000E+00  0.0000E+00  0.0000E+00  0.0000E+00  0.0000E+00
    -23.638  0.0000E+00  0.0000E+00  0.0000E+00  0.0000E+00  0.0000E+00  0.0000E+00  0.0000E+00  0.0000E+00  0.0000E+00  0.0000E+00  0.0000E+00  0.0000E+00  0.0000E+00  0.0000E+00  0.0000E+00  0.0000E+00  0.0000E+00  0.0000E+00
    -23.503  0.0000E+00  0.0000E+00  0.0000E+00  0.0000E+00  0.0000E+00  0.0000E+00  0.0000E+00  0.0000E+00  0.0000E+00  0.0000E+00  0.0000E+00  0.0000E+00  0.0000E+00  0.0000E+00  0.0000E+00  0.0000E+00  0.0000E+00  0.0000E+00
    -23.367  0.0000E+00  0.0000E+00  0.0000E+00  0.0000E+00  0.0000E+00  0.0000E+00  0.0000E+00  0.0000E+00  0.0000E+00  0.0000E+00  0.0000E+00  0.0000E+00  0.0000E+00  0.0000E+00  0.0000E+00  0.0000E+00  0.0000E+00  0.0000E+00
    -23.232  0.0000E+00  0.0000E+00  0.0000E+00  0.0000E+00  0.0000E+00  0.0000E+00  0.0000E+00  0.0000E+00  0.0000E+00  0.0000E+00  0.0000E+00  0.0000E+00  0.0000E+00  0.0000E+00  0.0000E+00  0.0000E+00  0.0000E+00  0.0000E+00
    -23.096  0.0000E+00  0.0000E+00  0.0000E+00  0.0000E+00  0.0000E+00  0.0000E+00  0.0000E+00  0.0000E+00  0.0000E+00  0.0000E+00  0.0000E+00  0.0000E+00  0.0000E+00  0.0000E+00  0.0000E+00  0.0000E+00  0.0000E+00  0.0000E+00
    -22.961  0.0000E+00  0.0000E+00  0.0000E+00  0.0000E+00  0.0000E+00  0.0000E+00  0.0000E+00  0.0000E+00  0.0000E+00  0.0000E+00  0.0000E+00  0.0000E+00  0.0000E+00  0.0000E+00  0.0000E+00  0.0000E+00  0.0000E+00  0.0000E+00
    -22.825  0.0000E+00  0.0000E+00  0.0000E+00  0.0000E+00  0.0000E+00  0.0000E+00  0.0000E+00  0.0000E+00  0.0000E+00  0.0000E+00  0.0000E+00  0.0000E+00  0.0000E+00  0.0000E+00  0.0000E+00  0.0000E+00  0.0000E+00  0.0000E+00
    -22.690  0.0000E+00  0.0000E+00  0.0000E+00  0.0000E+00  0.0000E+00  0.0000E+00  0.0000E+00  0.0000E+00  0.0000E+00  0.0000E+00  0.0000E+00  0.0000E+00  0.0000E+00  0.0000E+00  0.0000E+00  0.0000E+00  0.0000E+00  0.0000E+00
    -22.554  0.0000E+00  0.0000E+00  0.0000E+00  0.0000E+00  0.0000E+00  0.0000E+00  0.0000E+00  0.0000E+00  0.0000E+00  0.0000E+00  0.0000E+00  0.0000E+00  0.0000E+00  0.0000E+00  0.0000E+00  0.0000E+00  0.0000E+00  0.0000E+00
    -22.419  0.0000E+00  0.0000E+00  0.0000E+00  0.0000E+00  0.0000E+00  0.0000E+00  0.0000E+00  0.0000E+00  0.0000E+00  0.0000E+00  0.0000E+00  0.0000E+00  0.0000E+00  0.0000E+00  0.0000E+00  0.0000E+00  0.0000E+00  0.0000E+00
    -22.283  0.0000E+00  0.0000E+00  0.0000E+00  0.0000E+00  0.0000E+00  0.0000E+00  0.0000E+00  0.0000E+00  0.0000E+00  0.0000E+00  0.0000E+00  0.0000E+00  0.0000E+00  0.0000E+00  0.0000E+00  0.0000E+00  0.0000E+00  0.0000E+00
    -22.148  0.0000E+00  0.0000E+00  0.0000E+00  0.0000E+00  0.0000E+00  0.0000E+00  0.0000E+00  0.0000E+00  0.0000E+00  0.0000E+00  0.0000E+00  0.0000E+00  0.0000E+00  0.0000E+00  0.0000E+00  0.0000E+00  0.0000E+00  0.0000E+00
    -22.012  0.0000E+00  0.0000E+00  0.0000E+00  0.0000E+00  0.0000E+00  0.0000E+00  0.0000E+00  0.0000E+00  0.0000E+00  0.0000E+00  0.0000E+00  0.0000E+00  0.0000E+00  0.0000E+00  0.0000E+00  0.0000E+00  0.0000E+00  0.0000E+00
    -21.877  0.0000E+00  0.0000E+00  0.0000E+00  0.0000E+00  0.0000E+00  0.0000E+00  0.0000E+00  0.0000E+00  0.0000E+00  0.0000E+00  0.0000E+00  0.0000E+00  0.0000E+00  0.0000E+00  0.0000E+00  0.0000E+00  0.0000E+00  0.0000E+00
    -21.741  0.0000E+00  0.0000E+00  0.0000E+00  0.0000E+00  0.0000E+00  0.0000E+00  0.0000E+00  0.0000E+00  0.0000E+00  0.0000E+00  0.0000E+00  0.0000E+00  0.0000E+00  0.0000E+00  0.0000E+00  0.0000E+00  0.0000E+00  0.0000E+00
    -21.605  0.0000E+00  0.0000E+00  0.0000E+00  0.0000E+00  0.0000E+00  0.0000E+00  0.0000E+00  0.0000E+00  0.0000E+00  0.0000E+00  0.0000E+00  0.0000E+00  0.0000E+00  0.0000E+00  0.0000E+00  0.0000E+00  0.0000E+00  0.0000E+00
    -21.470  0.0000E+00  0.0000E+00  0.0000E+00  0.0000E+00  0.0000E+00  0.0000E+00  0.0000E+00  0.0000E+00  0.0000E+00  0.0000E+00  0.0000E+00  0.0000E+00  0.0000E+00  0.0000E+00  0.0000E+00  0.0000E+00  0.0000E+00  0.0000E+00
    -21.334  0.0000E+00  0.0000E+00  0.0000E+00  0.0000E+00  0.0000E+00  0.0000E+00  0.0000E+00  0.0000E+00  0.0000E+00  0.0000E+00  0.0000E+00  0.0000E+00  0.0000E+00  0.0000E+00  0.0000E+00  0.0000E+00  0.0000E+00  0.0000E+00
    -21.199  0.0000E+00  0.0000E+00  0.0000E+00  0.0000E+00  0.0000E+00  0.0000E+00  0.0000E+00  0.0000E+00  0.0000E+00  0.0000E+00  0.0000E+00  0.0000E+00  0.0000E+00  0.0000E+00  0.0000E+00  0.0000E+00  0.0000E+00  0.0000E+00
    -21.063  0.0000E+00  0.0000E+00  0.0000E+00  0.0000E+00  0.0000E+00  0.0000E+00  0.0000E+00  0.0000E+00  0.0000E+00  0.0000E+00  0.0000E+00  0.0000E+00  0.0000E+00  0.0000E+00  0.0000E+00  0.0000E+00  0.0000E+00  0.0000E+00
    -20.928  0.0000E+00  0.0000E+00  0.0000E+00  0.0000E+00  0.0000E+00  0.0000E+00  0.0000E+00  0.0000E+00  0.0000E+00  0.0000E+00  0.0000E+00  0.0000E+00  0.0000E+00  0.0000E+00  0.0000E+00  0.0000E+00  0.0000E+00  0.0000E+00
    -20.792  0.0000E+00  0.0000E+00  0.0000E+00  0.0000E+00  0.0000E+00  0.0000E+00  0.0000E+00  0.0000E+00  0.0000E+00  0.0000E+00  0.0000E+00  0.0000E+00  0.0000E+00  0.0000E+00  0.0000E+00  0.0000E+00  0.0000E+00  0.0000E+00