   2   2   1   0
  0.1997601E+02  0.3418584E-09  0.3418584E-09  0.3418584E-09  0.5000000E-15
   1.0000000000000000E-004
  CAR 
 unknown system                          
     10.88345333    -28.61107050  301      4.18905086      1.00000000
    -28.611  0.0000E+00  0.0000E+00  0.0000E+00  0.0000E+00
    -28.479  0.0000E+00  0.0000E+00  0.0000E+00  0.0000E+00
    -28.348  0.0000E+00  0.0000E+00  0.0000E+00  0.0000E+00
    -28.216  0.0000E+00  0.0000E+00  0.0000E+00  0.0000E+00
    -28.084  0.0000E+00  0.0000E+00  0.0000E+00  0.0000E+00
    -27.953  0.0000E+00  0.0000E+00  0.0000E+00  0.0000E+00
    -27.821  0.0000E+00  0.0000E+00  0.0000E+00  0.0000E+00
    -27.690  0.0000E+00  0.0000E+00  0.0000E+00  0.0000E+00
    -27.558  0.0000E+00  0.0000E+00  0.0000E+00  0.0000E+00
    -27.426  0.0000E+00  0.0000E+00  0.0000E+00  0.0000E+00
    -27.295  0.0000E+00  0.0000E+00  0.0000E+00  0.0000E+00
    -27.163  0.0000E+00  0.0000E+00  0.0000E+00  0.0000E+00
    -27.031  0.0000E+00  0.0000E+00  0.0000E+00  0.0000E+00
    -26.900  0.0000E+00  0.0000E+00  0.0000E+00  0.0000E+00
    -26.768  0.2291E+01  0.2317E+01  0.5473E-01  0.5600E-01
    -26.636  0.1612E+02  0.1479E+02  0.8493E+00  0.8576E+00
    -26.505  0.5012E+01  0.5036E+01  0.1617E+01  0.1619E+01
    -26.373  0.5125E+01  0.5164E+01  0.2168E+01  0.2171E+01
    -26.241  0.4287E+01  0.4272E+01  0.2920E+01  0.2921E+01
    -26.110  0.8514E+01  0.8489E+01  0.3926E+01  0.3929E+01
    -25.978  0.1208E+02  0.1210E+02  0.4897E+01  0.4903E+01
    -25.846  0.4119E+01  0.4119E+01  0.6000E+01  0.6000E+01
    -25.715  0.0000E+00  0.0000E+00  0.6000E+01  0.6000E+01
    -25.583  0.0000E+00  0.0000E+00  0.6000E+01  0.6000E+01
    -25.452  0.0000E+00  0.0000E+00  0.6000E+01  0.6000E+01
    -25.320  0.0000E+00  0.0000E+00  0.6000E+01  0.6000E+01
    -25.188  0.0000E+00  0.0000E+00  0.6000E+01  0.6000E+01
    -25.057  0.0000E+00  0.0000E+00  0.6000E+01  0.6000E+01
    -24.925  0.0000E+00  0.0000E+00  0.6000E+01  0.6000E+01
    -24.793  0.0000E+00  0.0000E+00  0.6000E+01  0.6000E+01
    -24.662  0.0000E+00  0.0000E+00  0.6000E+01  0.6000E+01
    -24.530  0.0000E+00  0.0000E+00  0.6000E+01  0.6000E+01
    -24.398  0.0000E+00  0.0000E+00  0.6000E+01  0.6000E+01
    -24.267  0.0000E+00  0.0000E+00  0.6000E+01  0.6000E+01
    -24.135  0.0000E+00  0.0000E+00  0.6000E+01  0.6000E+01
    -24.003  0.0000E+00  0.0000E+00  0.6000E+01  0.6000E+01
    -23.872  0.0000E+00  0.0000E+00  0.6000E+01  0.6000E+01
    -23.740  0.0000E+00  0.0000E+00  0.6000E+01  0.6000E+01
    -23.608  0.0000E+00  0.0000E+00  0.6000E+01  0.6000E+01
    -23.477  0.0000E+00  0.0000E+00  0.6000E+01  0.6000E+01
    -23.345  0.0000E+00  0.0000E+00  0.6000E+01  0.6000E+01
    -23.213  0.0000E+00  0.0000E+00  0.6000E+01  0.6000E+01
    -23.082  0.0000E+00  0.0000E+00  0.6000E+01  0.6000E+01
    -22.950  0.0000E+00  0.0000E+00  0.6000E+01  0.6000E+01
    -22.819  0.0000E+00  0.0000E+00  0.6000E+01  0.6000E+01
    -22.687  0.0000E+00  0.0000E+00  0.6000E+01  0.6000E+01
    -22.555  0.0000E+00  0.0000E+00  0.6000E+01  0.6000E+01
    -22.424  0.0000E+00  0.0000E+00  0.6000E+01  0.6000E+01
    -22.292  0.0000E+00  0.0000E+00  0.6000E+01  0.6000E+01
    -22.160  0.0000E+00  0.0000E+00  0.6000E+01  0.6000E+01
    -22.029  0.0000E+00  0.0000E+00  0.6000E+01  0.6000E+01
    -21.897  0.0000E+00  0.0000E+00  0.6000E+01  0.6000E+01
    -21.765  0.0000E+00  0.0000E+00  0.6000E+01  0.6000E+01
    -21.634  0.0000E+00  0.0000E+00  0.6000E+01  0.6000E+01
    -21.502  0.0000E+00  0.0000E+00  0.6000E+01  0.6000E+01
    -21.370  0.0000E+00  0.0000E+00  0.6000E+01  0.6000E+01
    -21.239  0.0000E+00  0.0000E+00  0.6000E+01  0.6000E+01
    -21.107  0.0000E+00  0.0000E+00  0.6000E+01  0.6000E+01
    -20.975  0.0000E+00  0.0000E+00  0.6000E+01  0.6000E+01
    -20.844  0.0000E+00  0.0000E+00  0.6000E+01  0.6000E+01
    -20.712  0.0000E+00  0.0000E+00  0.6000E+01  0.6000E+01
    -20.581  0.0000E+00  0.0000E+00  0.6000E+01  0.6000E+01
    -20.449  0.0000E+00  0.0000E+00  0.6000E+01  0.6000E+01
    -20.317  0.0000E+00  0.0000E+00  0.6000E+01  0.6000E+01
    -20.186  0.0000E+00  0.0000E+00  0.6000E+01  0.6000E+01
    -20.054  0.0000E+00  0.0000E+00  0.6000E+01  0.6000E+01
    -19.922  0.0000E+00  0.0000E+00  0.6000E+01  0.6000E+01
    -19.791  0.0000E+00  0.0000E+00  0.6000E+01  0.6000E+01
    -19.659  0.0000E+00  0.0000E+00  0.6000E+01  0.6000E+01
    -19.527  0.0000E+00  0.0000E+00  0.6000E+01  0.6000E+01
    -19.396  0.0000E+00  0.0000E+00  0.6000E+01  0.6000E+01
    -19.264  0.0000E+00  0.0000E+00  0.6000E+01  0.6000E+01
    -19.132  0.0000E+00  0.0000E+00  0.6000E+01  0.6000E+01
    -19.001  0.0000E+00  0.0000E+00  0.6000E+01  0.6000E+01
    -18.869  0.0000E+00  0.0000E+00  0.6000E+01  0.6000E+01
    -18.737  0.0000E+00  0.0000E+00  0.6000E+01  0.6000E+01
    -18.606  0.0000E+00  0.0000E+00  0.6000E+01  0.6000E+01
    -18.474  0.0000E+00  0.0000E+00  0.6000E+01  0.6000E+01
    -18.342  0.0000E+00  0.0000E+00  0.6000E+01  0.6000E+01
    -18.211  0.0000E+00  0.0000E+00  0.6000E+01  0.6000E+01
    -18.079  0.0000E+00  0.0000E+00  0.6000E+01  0.6000E+01
    -17.948  0.0000E+00  0.0000E+00  0.6000E+01  0.6000E+01
    -17.816  0.0000E+00  0.0000E+00  0.6000E+01  0.6000E+01
    -17.684  0.0000E+00  0.0000E+00  0.6000E+01  0.6000E+01
    -17.553  0.0000E+00  0.0000E+00  0.6000E+01  0.6000E+01
    -17.421  0.0000E+00  0.0000E+00  0.6000E+01  0.6000E+01
    -17.289  0.0000E+00  0.0000E+00  0.6000E+01  0.6000E+01
    -17.158  0.0000E+00  0.0000E+00  0.6000E+01  0.6000E+01
    -17.026  0.0000E+00  0.0000E+00  0.6000E+01  0.6000E+01
    -16.894  0.0000E+00  0.0000E+00  0.6000E+01  0.6000E+01
    -16.763  0.0000E+00  0.0000E+00  0.6000E+01  0.6000E+01
    -16.631  0.0000E+00  0.0000E+00  0.6000E+01  0.6000E+01
    -16.499  0.0000E+00  0.0000E+00  0.6000E+01  0.6000E+01
    -16.368  0.0000E+00  0.0000E+00  0.6000E+01  0.6000E+01
    -16.236  0.0000E+00  0.0000E+00  0.6000E+01  0.6000E+01
    -16.104  0.0000E+00  0.0000E+00  0.6000E+01  0.6000E+01
    -15.973  0.0000E+00  0.0000E+00  0.6000E+01  0.6000E+01
    -15.841  0.0000E+00  0.0000E+00  0.6000E+01  0.6000E+01
    -15.710  0.0000E+00  0.0000E+00  0.6000E+01  0.6000E+01
    -15.578  0.0000E+00  0.0000E+00  0.6000E+01  0.6000E+01
    -15.446  0.0000E+00  0.0000E+00  0.6000E+01  0.6000E+01
    -15.315  0.0000E+00  0.0000E+00  0.6000E+01  0.6000E+01
    -15.183  0.0000E+00  0.0000E+00  0.6000E+01  0.6000E+01
    -15.051  0.0000E+00  0.0000E+00  0.6000E+01  0.6000E+01
    -14.920  0.0000E+00  0.0000E+00  0.6000E+01  0.6000E+01
    -14.788  0.0000E+00  0.0000E+00  0.6000E+01  0.6000E+01
    -14.656  0.0000E+00  0.0000E+00  0.6000E+01  0.6000E+01
    -14.525  0.0000E+00  0.0000E+00  0.6000E+01  0.6000E+01
    -14.393  0.0000E+00  0.0000E+00  0.6000E+01  0.6000E+01
    -14.261  0.0000E+00  0.0000E+00  0.6000E+01  0.6000E+01
    -14.130  0.0000E+00  0.0000E+00  0.6000E+01  0.6000E+01
    -13.998  0.0000E+00  0.0000E+00  0.6000E+01  0.6000E+01
    -13.866  0.0000E+00  0.0000E+00  0.6000E+01  0.6000E+01
    -13.735  0.0000E+00  0.0000E+00  0.6000E+01  0.6000E+01
    -13.603  0.0000E+00  0.0000E+00  0.6000E+01  0.6000E+01
    -13.472  0.0000E+00  0.0000E+00  0.6000E+01  0.6000E+01
    -13.340  0.0000E+00  0.0000E+00  0.6000E+01  0.6000E+01
    -13.208  0.0000E+00  0.0000E+00  0.6000E+01  0.6000E+01
    -13.077  0.0000E+00  0.0000E+00  0.6000E+01  0.6000E+01
    -12.945  0.0000E+00  0.0000E+00  0.6000E+01  0.6000E+01
    -12.813  0.0000E+00  0.0000E+00  0.6000E+01  0.6000E+01
    -12.682  0.0000E+00  0.0000E+00  0.6000E+01  0.6000E+01
    -12.550  0.0000E+00  0.0000E+00  0.6000E+01  0.6000E+01
    -12.418  0.0000E+00  0.0000E+00  0.6000E+01  0.6000E+01
    -12.287  0.0000E+00  0.0000E+00  0.6000E+01  0.6000E+01
    -12.155  0.0000E+00  0.0000E+00  0.6000E+01  0.6000E+01
    -12.023  0.0000E+00  0.0000E+00  0.6000E+01  0.6000E+01
    -11.892  0.0000E+00  0.0000E+00  0.6000E+01  0.6000E+01
    -11.760  0.0000E+00  0.0000E+00  0.6000E+01  0.6000E+01
    -11.628  0.0000E+00  0.0000E+00  0.6000E+01  0.6000E+01
    -11.497  0.0000E+00  0.0000E+00  0.6000E+01  0.6000E+01
    -11.365  0.0000E+00  0.0000E+00  0.6000E+01  0.6000E+01
    -11.233  0.0000E+00  0.0000E+00  0.6000E+01  0.6000E+01
    -11.102  0.0000E+00  0.0000E+00  0.6000E+01  0.6000E+01
    -10.970  0.0000E+00  0.0000E+00  0.6000E+01  0.6000E+01
    -10.839  0.0000E+00  0.0000E+00  0.6000E+01  0.6000E+01
    -10.707  0.0000E+00  0.0000E+00  0.6000E+01  0.6000E+01
    -10.575  0.0000E+00  0.0000E+00  0.6000E+01  0.6000E+01
    -10.444  0.0000E+00  0.0000E+00  0.6000E+01  0.6000E+01
    -10.312  0.0000E+00  0.0000E+00  0.6000E+01  0.6000E+01
    -10.180  0.0000E+00  0.0000E+00  0.6000E+01  0.6000E+01
    -10.049  0.0000E+00  0.0000E+00  0.6000E+01  0.6000E+01
     -9.917  0.0000E+00  0.0000E+00  0.6000E+01  0.6000E+01
     -9.785  0.0000E+00  0.0000E+00  0.6000E+01  0.6000E+01
     -9.654  0.0000E+00  0.0000E+00  0.6000E+01  0.6000E+01
     -9.522  0.0000E+00  0.0000E+00  0.6000E+01  0.6000E+01
     -9.390  0.0000E+00  0.0000E+00  0.6000E+01  0.6000E+01
     -9.259  0.0000E+00  0.0000E+00  0.6000E+01  0.6000E+01
     -9.127  0.0000E+00  0.0000E+00  0.6000E+01  0.6000E+01
     -8.995  0.0000E+00  0.0000E+00  0.6000E+01  0.6000E+01
     -8.864  0.0000E+00  0.0000E+00  0.6000E+01  0.6000E+01
     -8.732  0.0000E+00  0.0000E+00  0.6000E+01  0.6000E+01
     -8.601  0.0000E+00  0.0000E+00  0.6000E+01  0.6000E+01
     -8.469  0.0000E+00  0.0000E+00  0.6000E+01  0.6000E+01
     -8.337  0.0000E+00  0.0000E+00  0.6000E+01  0.6000E+01
     -8.206  0.0000E+00  0.0000E+00  0.6000E+01  0.6000E+01
     -8.074  0.0000E+00  0.0000E+00  0.6000E+01  0.6000E+01
     -7.942  0.0000E+00  0.0000E+00  0.6000E+01  0.6000E+01
     -7.811  0.0000E+00  0.0000E+00  0.6000E+01  0.6000E+01
     -7.679  0.0000E+00  0.0000E+00  0.6000E+01  0.6000E+01
     -7.547  0.0000E+00  0.0000E+00  0.6000E+01  0.6000E+01
     -7.416  0.0000E+00  0.0000E+00  0.6000E+01  0.6000E+01
     -7.284  0.0000E+00  0.0000E+00  0.6000E+01  0.6000E+01
     -7.152  0.0000E+00  0.0000E+00  0.6000E+01  0.6000E+01
     -7.021  0.0000E+00  0.0000E+00  0.6000E+01  0.6000E+01
     -6.889  0.0000E+00  0.0000E+00  0.6000E+01  0.6000E+01
     -6.757  0.0000E+00  0.0000E+00  0.6000E+01  0.6000E+01
     -6.626  0.0000E+00  0.0000E+00  0.6000E+01  0.6000E+01
     -6.494  0.0000E+00  0.0000E+00  0.6000E+01  0.6000E+01
     -6.362  0.0000E+00  0.0000E+00  0.6000E+01  0.6000E+01
     -6.231  0.0000E+00  0.0000E+00  0.6000E+01  0.6000E+01
     -6.099  0.0000E+00  0.0000E+00  0.6000E+01  0.6000E+01
     -5.968  0.0000E+00  0.0000E+00  0.6000E+01  0.6000E+01
     -5.836  0.0000E+00  0.0000E+00  0.6000E+01  0.6000E+01
     -5.704  0.0000E+00  0.0000E+00  0.6000E+01  0.6000E+01
     -5.573  0.0000E+00  0.0000E+00  0.6000E+01  0.6000E+01
     -5.441  0.0000E+00  0.0000E+00  0.6000E+01  0.6000E+01
     -5.309  0.0000E+00  0.0000E+00  0.6000E+01  0.6000E+01
     -5.178  0.0000E+00  0.0000E+00  0.6000E+01  0.6000E+01
     -5.046  0.0000E+00  0.0000E+00  0.6000E+01  0.6000E+01
     -4.914  0.0000E+00  0.0000E+00  0.6000E+01  0.6000E+01
     -4.783  0.0000E+00  0.0000E+00  0.6000E+01  0.6000E+01
     -4.651  0.0000E+00  0.0000E+00  0.6000E+01  0.6000E+01
     -4.519  0.0000E+00  0.0000E+00  0.6000E+01  0.6000E+01
     -4.388  0.0000E+00  0.0000E+00  0.6000E+01  0.6000E+01
     -4.256  0.0000E+00  0.0000E+00  0.6000E+01  0.6000E+01
     -4.124  0.0000E+00  0.0000E+00  0.6000E+01  0.6000E+01
     -3.993  0.0000E+00  0.0000E+00  0.6000E+01  0.6000E+01
     -3.861  0.0000E+00  0.0000E+00  0.6000E+01  0.6000E+01
     -3.730  0.0000E+00  0.0000E+00  0.6000E+01  0.6000E+01
     -3.598  0.0000E+00  0.0000E+00  0.6000E+01  0.6000E+01
     -3.466  0.0000E+00  0.0000E+00  0.6000E+01  0.6000E+01
     -3.335  0.0000E+00  0.0000E+00  0.6000E+01  0.6000E+01
     -3.203  0.0000E+00  0.0000E+00  0.6000E+01  0.6000E+01
     -3.071  0.0000E+00  0.0000E+00  0.6000E+01  0.6000E+01
     -2.940  0.0000E+00  0.0000E+00  0.6000E+01  0.6000E+01
     -2.808  0.0000E+00  0.0000E+00  0.6000E+01  0.6000E+01
     -2.676  0.0000E+00  0.0000E+00  0.6000E+01  0.6000E+01
     -2.545  0.0000E+00  0.0000E+00  0.6000E+01  0.6000E+01
     -2.413  0.0000E+00  0.0000E+00  0.6000E+01  0.6000E+01
     -2.281  0.0000E+00  0.0000E+00  0.6000E+01  0.6000E+01
     -2.150  0.0000E+00  0.0000E+00  0.6000E+01  0.6000E+01
     -2.018  0.0000E+00  0.0000E+00  0.6000E+01  0.6000E+01
     -1.886  0.0000E+00  0.0000E+00  0.6000E+01  0.6000E+01
     -1.755  0.0000E+00  0.0000E+00  0.6000E+01  0.6000E+01
     -1.623  0.0000E+00  0.0000E+00  0.6000E+01  0.6000E+01
     -1.491  0.3156E-03  0.3558E-03  0.6000E+01  0.6000E+01
     -1.360  0.6781E-02  0.6962E-02  0.6000E+01  0.6000E+01
     -1.228  0.2159E-01  0.2191E-01  0.6002E+01  0.6002E+01
     -1.097  0.4438E-01  0.4475E-01  0.6006E+01  0.6007E+01
     -0.965  0.6245E-01  0.6268E-01  0.6014E+01  0.6014E+01
     -0.833  0.7148E-01  0.7156E-01  0.6022E+01  0.6023E+01
     -0.702  0.7567E-01  0.7577E-01  0.6032E+01  0.6032E+01
     -0.570  0.8424E-01  0.8442E-01  0.6043E+01  0.6043E+01
     -0.438  0.9723E-01  0.9746E-01  0.6055E+01  0.6055E+01
     -0.307  0.1119E+00  0.1121E+00  0.6068E+01  0.6069E+01
     -0.175  0.1274E+00  0.1277E+00  0.6084E+01  0.6084E+01
     -0.043  0.1421E+00  0.1423E+00  0.6102E+01  0.6102E+01
      0.088  0.1525E+00  0.1528E+00  0.6121E+01  0.6122E+01
      0.220  0.1764E+00  0.1768E+00  0.6143E+01  0.6143E+01
      0.352  0.2029E+00  0.2033E+00  0.6168E+01  0.6168E+01
      0.483  0.2271E+00  0.2274E+00  0.6196E+01  0.6197E+01
      0.615  0.2518E+00  0.2522E+00  0.6228E+01  0.6228E+01
      0.747  0.2961E+00  0.2970E+00  0.6263E+01  0.6264E+01
      0.878  0.3734E+00  0.3747E+00  0.6307E+01  0.6308E+01
      1.010  0.6606E+00  0.6644E+00  0.6376E+01  0.6377E+01
      1.141  0.1075E+01  0.1080E+01  0.6492E+01  0.6494E+01
      1.273  0.1390E+01  0.1386E+01  0.6676E+01  0.6679E+01
      1.405  0.9057E+00  0.9070E+00  0.6834E+01  0.6835E+01
      1.536  0.9744E+00  0.9763E+00  0.6953E+01  0.6954E+01
      1.668  0.1144E+01  0.1146E+01  0.7092E+01  0.7094E+01
      1.800  0.1476E+01  0.1480E+01  0.7260E+01  0.7262E+01
      1.931  0.2017E+01  0.2023E+01  0.7491E+01  0.7494E+01
      2.063  0.1942E+01  0.1931E+01  0.7772E+01  0.7775E+01
      2.195  0.1053E+01  0.1050E+01  0.7984E+01  0.7985E+01
      2.326  0.5819E+00  0.5800E+00  0.8073E+01  0.8074E+01
      2.458  0.4677E+00  0.4666E+00  0.8142E+01  0.8142E+01
      2.590  0.4097E+00  0.4098E+00  0.8201E+01  0.8202E+01
      2.721  0.4210E+00  0.4215E+00  0.8254E+01  0.8255E+01
      2.853  0.2220E+01  0.2234E+01  0.8403E+01  0.8406E+01
      2.985  0.3276E+01  0.3281E+01  0.8776E+01  0.8780E+01
      3.116  0.2541E+01  0.2396E+01  0.9177E+01  0.9181E+01
      3.248  0.1013E+01  0.1004E+01  0.9385E+01  0.9387E+01
      3.379  0.9658E+00  0.9665E+00  0.9515E+01  0.9517E+01
      3.511  0.1274E+01  0.1276E+01  0.9667E+01  0.9669E+01
      3.643  0.1361E+01  0.1365E+01  0.9838E+01  0.9840E+01
      3.774  0.1638E+01  0.1641E+01  0.1004E+02  0.1004E+02
      3.906  0.2192E+01  0.2198E+01  0.1029E+02  0.1029E+02
      4.038  0.3286E+01  0.3257E+01  0.1067E+02  0.1068E+02
      4.169  0.1765E+01  0.1760E+01  0.1096E+02  0.1097E+02
      4.301  0.1586E+01  0.1585E+01  0.1118E+02  0.1118E+02
      4.433  0.1400E+01  0.1396E+01  0.1138E+02  0.1138E+02
      4.564  0.8096E+00  0.8073E+00  0.1153E+02  0.1153E+02
      4.696  0.6898E+00  0.6881E+00  0.1163E+02  0.1163E+02
      4.828  0.5390E+00  0.5383E+00  0.1171E+02  0.1171E+02
      4.959  0.5189E+00  0.5181E+00  0.1178E+02  0.1178E+02
      5.091  0.4686E+00  0.4678E+00  0.1185E+02  0.1185E+02
      5.223  0.4080E+00  0.4072E+00  0.1190E+02  0.1190E+02
      5.354  0.3042E+00  0.3035E+00  0.1195E+02  0.1195E+02
      5.486  0.2128E+00  0.2155E+00  0.1199E+02  0.1199E+02
      5.618  0.4422E+00  0.4441E+00  0.1203E+02  0.1203E+02
      5.749  0.5425E+00  0.5440E+00  0.1209E+02  0.1209E+02
      5.881  0.7304E+00  0.7318E+00  0.1218E+02  0.1218E+02
      6.012  0.9115E+00  0.9130E+00  0.1228E+02  0.1228E+02
      6.144  0.1085E+01  0.1086E+01  0.1241E+02  0.1242E+02
      6.276  0.1232E+01  0.1233E+01  0.1257E+02  0.1257E+02
      6.407  0.1402E+01  0.1404E+01  0.1274E+02  0.1274E+02
      6.539  0.1517E+01  0.1516E+01  0.1293E+02  0.1294E+02
      6.671  0.1711E+01  0.1719E+01  0.1313E+02  0.1314E+02
      6.802  0.2103E+01  0.2101E+01  0.1339E+02  0.1339E+02
      6.934  0.1720E+01  0.1716E+01  0.1364E+02  0.1364E+02
      7.066  0.1564E+01  0.1563E+01  0.1386E+02  0.1386E+02
      7.197  0.1520E+01  0.1518E+01  0.1407E+02  0.1407E+02
      7.329  0.1227E+01  0.1227E+01  0.1424E+02  0.1424E+02
      7.461  0.1463E+01  0.1466E+01  0.1441E+02  0.1441E+02
      7.592  0.2033E+01  0.2037E+01  0.1464E+02  0.1464E+02
      7.724  0.6518E+01  0.6376E+01  0.1514E+02  0.1515E+02
      7.856  0.2071E+01  0.2073E+01  0.1550E+02  0.1551E+02
      7.987  0.1368E+01  0.1356E+01  0.1570E+02  0.1571E+02
      8.119  0.1019E+01  0.1007E+01  0.1586E+02  0.1586E+02
      8.250  0.4399E+00  0.4380E+00  0.1595E+02  0.1595E+02
      8.382  0.1862E+00  0.1851E+00  0.1599E+02  0.1599E+02
      8.514  0.1075E-01  0.1071E-01  0.1600E+02  0.1600E+02
      8.645  0.6389E-02  0.6359E-02  0.1600E+02  0.1600E+02
      8.777  0.3155E-02  0.3135E-02  0.1600E+02  0.1600E+02
      8.909  0.1050E-02  0.1039E-02  0.1600E+02  0.1600E+02
      9.040  0.7466E-04  0.7188E-04  0.1600E+02  0.1600E+02
      9.172  0.0000E+00  0.0000E+00  0.1600E+02  0.1600E+02
      9.304  0.0000E+00  0.0000E+00  0.1600E+02  0.1600E+02
      9.435  0.0000E+00  0.0000E+00  0.1600E+02  0.1600E+02
      9.567  0.0000E+00  0.0000E+00  0.1600E+02  0.1600E+02
      9.699  0.0000E+00  0.0000E+00  0.1600E+02  0.1600E+02
      9.830  0.0000E+00  0.0000E+00  0.1600E+02  0.1600E+02
      9.962  0.0000E+00  0.0000E+00  0.1600E+02  0.1600E+02
     10.094  0.0000E+00  0.0000E+00  0.1600E+02  0.1600E+02
     10.225  0.0000E+00  0.0000E+00  0.1600E+02  0.1600E+02
     10.357  0.0000E+00  0.0000E+00  0.1600E+02  0.1600E+02
     10.489  0.0000E+00  0.0000E+00  0.1600E+02  0.1600E+02
     10.620  0.0000E+00  0.0000E+00  0.1600E+02  0.1600E+02
     10.752  0.0000E+00  0.0000E+00  0.1600E+02  0.1600E+02
     10.883  0.0000E+00  0.0000E+00  0.1600E+02  0.1600E+02
     10.88345333    -28.61107050  301      4.18905086      1.00000000
    -28.611  0.0000E+00  0.0000E+00  0.0000E+00  0.0000E+00  0.0000E+00  0.0000E+00  0.0000E+00  0.0000E+00  0.0000E+00  0.0000E+00  0.0000E+00  0.0000E+00  0.0000E+00  0.0000E+00  0.0000E+00  0.0000E+00  0.0000E+00  0.0000E+00
    -28.479  0.0000E+00  0.0000E+00  0.0000E+00  0.0000E+00  0.0000E+00  0.0000E+00  0.0000E+00  0.0000E+00  0.0000E+00  0.0000E+00  0.0000E+00  0.0000E+00  0.0000E+00  0.0000E+00  0.0000E+00  0.0000E+00  0.0000E+00  0.0000E+00
    -28.348  0.0000E+00  0.0000E+00  0.0000E+00  0.0000E+00  0.0000E+00  0.0000E+00  0.0000E+00  0.0000E+00  0.0000E+00  0.0000E+00  0.0000E+00  0.0000E+00  0.0000E+00  0.0000E+00  0.0000E+00  0.0000E+00  0.0000E+00  0.0000E+00
    -28.216  0.0000E+00  0.0000E+00  0.0000E+00  0.0000E+00  0.0000E+00  0.0000E+00  0.0000E+00  0.0000E+00  0.0000E+00  0.0000E+00  0.0000E+00  0.0000E+00  0.0000E+00  0.0000E+00  0.0000E+00  0.0000E+00  0.0000E+00  0.0000E+00
    -28.084  0.0000E+00  0.0000E+00  0.0000E+00  0.0000E+00  0.0000E+00  0.0000E+00  0.0000E+00  0.0000E+00  0.0000E+00  0.0000E+00  0.0000E+00  0.0000E+00  0.0000E+00  0.0000E+00  0.0000E+00  0.0000E+00  0.0000E+00  0.0000E+00
    -27.953  0.0000E+00  0.0000E+00  0.0000E+00  0.0000E+00  0.0000E+00  0.0000E+00  0.0000E+00  0.0000E+00  0.0000E+00  0.0000E+00  0.0000E+00  0.0000E+00  0.0000E+00  0.0000E+00  0.0000E+00  0.0000E+00  0.0000E+00  0.0000E+00
    -27.821  0.0000E+00  0.0000E+00  0.0000E+00  0.0000E+00  0.0000E+00  0.0000E+00  0.0000E+00  0.0000E+00  0.0000E+00  0.0000E+00  0.0000E+00  0.0000E+00  0.0000E+00  0.0000E+00  0.0000E+00  0.0000E+00  0.0000E+00  0.0000E+00
    -27.690  0.0000E+00  0.0000E+00  0.0000E+00  0.0000E+00  0.0000E+00  0.0000E+00  0.0000E+00  0.0000E+00  0.0000E+00  0.0000E+00  0.0000E+00  0.0000E+00  0.0000E+00  0.0000E+00  0.0000E+00  0.0000E+00  0.0000E+00  0.0000E+00
    -27.558  0.0000E+00  0.0000E+00  0.0000E+00  0.0000E+00  0.0000E+00  0.0000E+00  0.0000E+00  0.0000E+00  0.0000E+00  0.0000E+00  0.0000E+00  0.0000E+00  0.0000E+00  0.0000E+00  0.0000E+00  0.0000E+00  0.0000E+00  0.0000E+00
    -27.426  0.0000E+00  0.0000E+00  0.0000E+00  0.0000E+00  0.0000E+00  0.0000E+00  0.0000E+00  0.0000E+00  0.0000E+00  0.0000E+00  0.0000E+00  0.0000E+00  0.0000E+00  0.0000E+00  0.0000E+00  0.0000E+00  0.0000E+00  0.0000E+00
    -27.295  0.0000E+00  0.0000E+00  0.0000E+00  0.0000E+00  0.0000E+00  0.0000E+00  0.0000E+00  0.0000E+00  0.0000E+00  0.0000E+00  0.0000E+00  0.0000E+00  0.0000E+00  0.0000E+00  0.0000E+00  0.0000E+00  0.0000E+00  0.0000E+00
    -27.163  0.0000E+00  0.0000E+00  0.0000E+00  0.0000E+00  0.0000E+00  0.0000E+00  0.0000E+00  0.0000E+00  0.0000E+00  0.0000E+00  0.0000E+00  0.0000E+00  0.0000E+00  0.0000E+00  0.0000E+00  0.0000E+00  0.0000E+00  0.0000E+00
    -27.031  0.0000E+00  0.0000E+00  0.0000E+00  0.0000E+00  0.0000E+00  0.0000E+00  0.0000E+00  0.0000E+00  0.0000E+00  0.0000E+00  0.0000E+00  0.0000E+00  0.0000E+00  0.0000E+00  0.0000E+00  0.0000E+00  0.0000E+00  0.0000E+00
    -26.900  0.0000E+00  0.0000E+00  0.0000E+00  0.0000E+00  0.0000E+00  0.0000E+00  0.0000E+00  0.0000E+00  0.0000E+00  0.0000E+00  0.0000E+00  0.0000E+00  0.0000E+00  0.0000E+00  0.0000E+00  0.0000E+00  0.0000E+00  0.0000E+00
    -26.768  0.1613E-03  0.1647E-03  0.3725E+00  0.3769E+00  0.3725E+00  0.3769E+00  0.3725E+00  0.3769E+00  0.6992E-04  0.7227E-04  0.6992E-04  0.7227E-04  0.3303E-04  0.3399E-04  0.6992E-04  0.7227E-04  0.3303E-04  0.3399E-04
    -26.636  0.2050E-02  0.1906E-02  0.2630E+01  0.2413E+01  0.2630E+01  0.2413E+01  0.2630E+01  0.2413E+01  0.1557E-02  0.1416E-02  0.1557E-02  0.1416E-02  0.3480E-03  0.3311E-03  0.1557E-02  0.1416E-02  0.3480E-03  0.3311E-03
    -26.505  0.1221E-02  0.1222E-02  0.8205E+00  0.8244E+00  0.8205E+00  0.8244E+00  0.8205E+00  0.8244E+00  0.2640E-03  0.2669E-03  0.2640E-03  0.2669E-03  0.1224E-03  0.1236E-03  0.2640E-03  0.2669E-03  0.1224E-03  0.1236E-03
    -26.373  0.7608E-03  0.7621E-03  0.8419E+00  0.8484E+00  0.8419E+00  0.8484E+00  0.8419E+00  0.8484E+00  0.6805E-03  0.6903E-03  0.6805E-03  0.6903E-03  0.7470E-04  0.7575E-04  0.6805E-03  0.6903E-03  0.7470E-04  0.7575E-04
    -26.241  0.3046E-03  0.3107E-03  0.7071E+00  0.7045E+00  0.7071E+00  0.7045E+00  0.7071E+00  0.7045E+00  0.4696E-03  0.4674E-03  0.4696E-03  0.4674E-03  0.3246E-04  0.3238E-04  0.4696E-03  0.4674E-03  0.3246E-04  0.3238E-04
    -26.110  0.7244E-03  0.7194E-03  0.1407E+01  0.1403E+01  0.1407E+01  0.1403E+01  0.1407E+01  0.1403E+01  0.1013E-02  0.1014E-02  0.1013E-02  0.1014E-02  0.4292E-04  0.4246E-04  0.1013E-02  0.1014E-02  0.4292E-04  0.4246E-04
    -25.978  0.7040E-03  0.7080E-03  0.2002E+01  0.2005E+01  0.2002E+01  0.2005E+01  0.2002E+01  0.2005E+01  0.7540E-03  0.7467E-03  0.7540E-03  0.7467E-03  0.2904E-04  0.2845E-04  0.7540E-03  0.7467E-03  0.2904E-04  0.2845E-04
    -25.846  0.1099E-03  0.1099E-03  0.6839E+00  0.6839E+00  0.6839E+00  0.6839E+00  0.6839E+00  0.6839E+00  0.1121E-03  0.1117E-03  0.1121E-03  0.1117E-03  0.3568E-05  0.3480E-05  0.1121E-03  0.1117E-03  0.3568E-05  0.3480E-05
    -25.715  0.0000E+00  0.0000E+00  0.0000E+00  0.0000E+00  0.0000E+00  0.0000E+00  0.0000E+00  0.0000E+00  0.0000E+00  0.0000E+00  0.0000E+00  0.0000E+00  0.0000E+00  0.0000E+00  0.0000E+00  0.0000E+00  0.0000E+00  0.0000E+00
    -25.583  0.0000E+00  0.0000E+00  0.0000E+00  0.0000E+00  0.0000E+00  0.0000E+00  0.0000E+00  0.0000E+00  0.0000E+00  0.0000E+00  0.0000E+00  0.0000E+00  0.0000E+00  0.0000E+00  0.0000E+00  0.0000E+00  0.0000E+00  0.0000E+00
    -25.452  0.0000E+00  0.0000E+00  0.0000E+00  0.0000E+00  0.0000E+00  0.0000E+00  0.0000E+00  0.0000E+00  0.0000E+00  0.0000E+00  0.0000E+00  0.0000E+00  0.0000E+00  0.0000E+00  0.0000E+00  0.0000E+00  0.0000E+00  0.0000E+00
    -25.320  0.0000E+00  0.0000E+00  0.0000E+00  0.0000E+00  0.0000E+00  0.0000E+00  0.0000E+00  0.0000E+00  0.0000E+00  0.0000E+00  0.0000E+00  0.0000E+00  0.0000E+00  0.0000E+00  0.0000E+00  0.0000E+00  0.0000E+00  0.0000E+00
    -25.188  0.0000E+00  0.0000E+00  0.0000E+00  0.0000E+00  0.0000E+00  0.0000E+00  0.0000E+00  0.0000E+00  0.0000E+00  0.0000E+00  0.0000E+00  0.0000E+00  0.0000E+00  0.0000E+00  0.0000E+00  0.0000E+00  0.0000E+00  0.0000E+00
    -25.057  0.0000E+00  0.0000E+00  0.0000E+00  0.0000E+00  0.0000E+00  0.0000E+00  0.0000E+00  0.0000E+00  0.0000E+00  0.0000E+00  0.0000E+00  0.0000E+00  0.0000E+00  0.0000E+00  0.0000E+00  0.0000E+00  0.0000E+00  0.0000E+00
    -24.925  0.0000E+00  0.0000E+00  0.0000E+00  0.0000E+00  0.0000E+00  0.0000E+00  0.0000E+00  0.0000E+00  0.0000E+00  0.0000E+00  0.0000E+00  0.0000E+00  0.0000E+00  0.0000E+00  0.0000E+00  0.0000E+00  0.0000E+00  0.0000E+00
    -24.793  0.0000E+00  0.0000E+00  0.0000E+00  0.0000E+00  0.0000E+00  0.0000E+00  0.0000E+00  0.0000E+00  0.0000E+00  0.0000E+00  0.0000E+00  0.0000E+00  0.0000E+00  0.0000E+00  0.0000E+00  0.0000E+00  0.0000E+00  0.0000E+00
    -24.662  0.0000E+00  0.0000E+00  0.0000E+00  0.0000E+00  0.0000E+00  0.0000E+00  0.0000E+00  0.0000E+00  0.0000E+00  0.0000E+00  0.0000E+00  0.0000E+00  0.0000E+00  0.0000E+00  0.0000E+00  0.0000E+00  0.0000E+00  0.0000E+00
    -24.530  0.0000E+00  0.0000E+00  0.0000E+00  0.0000E+00  0.0000E+00  0.0000E+00  0.0000E+00  0.0000E+00  0.0000E+00  0.0000E+00  0.0000E+00  0.0000E+00  0.0000E+00  0.0000E+00  0.0000E+00  0.0000E+00  0.0000E+00  0.0000E+00
    -24.398  0.0000E+00  0.0000E+00  0.0000E+00  0.0000E+00  0.0000E+00  0.0000E+00  0.0000E+00  0.0000E+00  0.0000E+00  0.0000E+00  0.0000E+00  0.0000E+00  0.0000E+00  0.0000E+00  0.0000E+00  0.0000E+00  0.0000E+00  0.0000E+00
    -24.267  0.0000E+00  0.0000E+00  0.0000E+00  0.0000E+00  0.0000E+00  0.0000E+00  0.0000E+00  0.0000E+00  0.0000E+00  0.0000E+00  0.0000E+00  0.0000E+00  0.0000E+00  0.0000E+00  0.0000E+00  0.0000E+00  0.0000E+00  0.0000E+00
    -24.135  0.0000E+00  0.0000E+00  0.0000E+00  0.0000E+00  0.0000E+00  0.0000E+00  0.0000E+00  0.0000E+00  0.0000E+00  0.0000E+00  0.0000E+00  0.0000E+00  0.0000E+00  0.0000E+00  0.0000E+00  0.0000E+00  0.0000E+00  0.0000E+00
    -24.003  0.0000E+00  0.0000E+00  0.0000E+00  0.0000E+00  0.0000E+00  0.0000E+00  0.0000E+00  0.0000E+00  0.0000E+00  0.0000E+00  0.0000E+00  0.0000E+00  0.0000E+00  0.0000E+00  0.0000E+00  0.0000E+00  0.0000E+00  0.0000E+00
    -23.872  0.0000E+00  0.0000E+00  0.0000E+00  0.0000E+00  0.0000E+00  0.0000E+00  0.0000E+00  0.0000E+00  0.0000E+00  0.0000E+00  0.0000E+00  0.0000E+00  0.0000E+00  0.0000E+00  0.0000E+00  0.0000E+00  0.0000E+00  0.0000E+00
    -23.740  0.0000E+00  0.0000E+00  0.0000E+00  0.0000E+00  0.0000E+00  0.0000E+00  0.0000E+00  0.0000E+00  0.0000E+00  0.0000E+00  0.0000E+00  0.0000E+00  0.0000E+00  0.0000E+00  0.0000E+00  0.0000E+00  0.0000E+00  0.0000E+00
    -23.608  0.0000E+00  0.0000E+00  0.0000E+00  0.0000E+00  0.0000E+00  0.0000E+00  0.0000E+00  0.0000E+00  0.0000E+00  0.0000E+00  0.0000E+00  0.0000E+00  0.0000E+00  0.0000E+00  0.0000E+00  0.0000E+00  0.0000E+00  0.0000E+00
    -23.477  0.0000E+00  0.0000E+00  0.0000E+00  0.0000E+00  0.0000E+00  0.0000E+00  0.0000E+00  0.0000E+00  0.0000E+00  0.0000E+00  0.0000E+00  0.0000E+00  0.0000E+00  0.0000E+00  0.0000E+00  0.0000E+00  0.0000E+00  0.0000E+00
    -23.345  0.0000E+00  0.0000E+00  0.0000E+00  0.0000E+00  0.0000E+00  0.0000E+00  0.0000E+00  0.0000E+00  0.0000E+00  0.0000E+00  0.0000E+00  0.0000E+00  0.0000E+00  0.0000E+00  0.0000E+00  0.0000E+00  0.0000E+00  0.0000E+00
    -23.213  0.0000E+00  0.0000E+00  0.0000E+00  0.0000E+00  0.0000E+00  0.0000E+00  0.0000E+00  0.0000E+00  0.0000E+00  0.0000E+00  0.0000E+00  0.0000E+00  0.0000E+00  0.0000E+00  0.0000E+00  0.0000E+00  0.0000E+00  0.0000E+00
    -23.082  0.0000E+00  0.0000E+00  0.0000E+00  0.0000E+00  0.0000E+00  0.0000E+00  0.0000E+00  0.0000E+00  0.0000E+00  0.0000E+00  0.0000E+00  0.0000E+00  0.0000E+00  0.0000E+00  0.0000E+00  0.0000E+00  0.0000E+00  0.0000E+00
    -22.950  0.0000E+00  0.0000E+00  0.0000E+00  0.0000E+00  0.0000E+00  0.0000E+00  0.0000E+00  0.0000E+00  0.0000E+00  0.0000E+00  0.0000E+00  0.0000E+00  0.0000E+00  0.0000E+00  0.0000E+00  0.0000E+00  0.0000E+00  0.0000E+00
    -22.819  0.0000E+00  0.0000E+00  0.0000E+00  0.0000E+00  0.0000E+00  0.0000E+00  0.0000E+00  0.0000E+00  0.0000E+00  0.0000E+00  0.0000E+00  0.0000E+00  0.0000E+00  0.0000E+00  0.0000E+00  0.0000E+00  0.0000E+00  0.0000E+00
    -22.687  0.0000E+00  0.0000E+00  0.0000E+00  0.0000E+00  0.0000E+00  0.0000E+00  0.0000E+00  0.0000E+00  0.0000E+00  0.0000E+00  0.0000E+00  0.0000E+00  0.0000E+00  0.0000E+00  0.0000E+00  0.0000E+00  0.0000E+00  0.0000E+00
    -22.555  0.0000E+00  0.0000E+00  0.0000E+00  0.0000E+00  0.0000E+00  0.0000E+00  0.0000E+00  0.0000E+00  0.0000E+00  0.0000E+00  0.0000E+00  0.0000E+00  0.0000E+00  0.0000E+00  0.0000E+00  0.0000E+00  0.0000E+00  0.0000E+00
    -22.424  0.0000E+00  0.0000E+00  0.0000E+00  0.0000E+00  0.0000E+00  0.0000E+00  0.0000E+00  0.0000E+00  0.0000E+00  0.0000E+00  0.0000E+00  0.0000E+00  0.0000E+00  0.0000E+00  0.0000E+00  0.0000E+00  0.0000E+00  0.0000E+00
    -22.292  0.0000E+00  0.0000E+00  0.0000E+00  0.0000E+00  0.0000E+00  0.0000E+00  0.0000E+00  0.0000E+00  0.0000E+00  0.0000E+00  0.0000E+00  0.0000E+00  0.0000E+00  0.0000E+00  0.0000E+00  0.0000E+00  0.0000E+00  0.0000E+00
    -22.160  0.0000E+00  0.0000E+00  0.0000E+00  0.0000E+00  0.0000E+00  0.0000E+00  0.0000E+00  0.0000E+00  0.0000E+00  0.0000E+00  0.0000E+00  0.0000E+00  0.0000E+00  0.0000E+00  0.0000E+00  0.0000E+00  0.0000E+00  0.0000E+00
    -22.029  0.0000E+00  0.0000E+00  0.0000E+00  0.0000E+00  0.0000E+00  0.0000E+00  0.0000E+00  0.0000E+00  0.0000E+00  0.0000E+00  0.0000E+00  0.0000E+00  0.0000E+00  0.0000E+00  0.0000E+00  0.0000E+00  0.0000E+00  0.0000E+00