   4   4   1   0
  0.2172868E+02  0.4428614E-09  0.4430092E-09  0.4430092E-09  0.5000000E-15
  1.000000000000000E-004
  CAR 
 unknown system                          
     14.31224923    -31.08965215  301      5.14533001      1.00000000
    -31.090  0.0000E+00  0.0000E+00  0.0000E+00  0.0000E+00
    -30.938  0.0000E+00  0.0000E+00  0.0000E+00  0.0000E+00
    -30.787  0.0000E+00  0.0000E+00  0.0000E+00  0.0000E+00
    -30.636  0.0000E+00  0.0000E+00  0.0000E+00  0.0000E+00
    -30.484  0.0000E+00  0.0000E+00  0.0000E+00  0.0000E+00
    -30.333  0.0000E+00  0.0000E+00  0.0000E+00  0.0000E+00
    -30.182  0.0000E+00  0.0000E+00  0.0000E+00  0.0000E+00
    -30.030  0.0000E+00  0.0000E+00  0.0000E+00  0.0000E+00
    -29.879  0.0000E+00  0.0000E+00  0.0000E+00  0.0000E+00
    -29.728  0.0000E+00  0.0000E+00  0.0000E+00  0.0000E+00
    -29.576  0.3427E-06  0.1333E-05  0.5186E-07  0.2017E-06
    -29.425  0.1945E-02  0.1973E-02  0.2944E-03  0.2988E-03
    -29.274  0.3796E-01  0.3852E-01  0.6040E-02  0.6128E-02
    -29.122  0.6959E+00  0.7050E+00  0.1114E+00  0.1128E+00
    -28.971  0.4026E+01  0.4036E+01  0.7207E+00  0.7237E+00
    -28.820  0.1723E+01  0.1706E+01  0.9816E+00  0.9818E+00
    -28.668  0.1159E+00  0.1142E+00  0.9991E+00  0.9991E+00
    -28.517  0.0000E+00  0.0000E+00  0.1000E+01  0.1000E+01
    -28.366  0.0000E+00  0.0000E+00  0.1000E+01  0.1000E+01
    -28.214  0.0000E+00  0.0000E+00  0.1000E+01  0.1000E+01
    -28.063  0.0000E+00  0.0000E+00  0.1000E+01  0.1000E+01
    -27.912  0.0000E+00  0.0000E+00  0.1000E+01  0.1000E+01
    -27.760  0.0000E+00  0.0000E+00  0.1000E+01  0.1000E+01
    -27.609  0.0000E+00  0.0000E+00  0.1000E+01  0.1000E+01
    -27.458  0.0000E+00  0.0000E+00  0.1000E+01  0.1000E+01
    -27.306  0.0000E+00  0.0000E+00  0.1000E+01  0.1000E+01
    -27.155  0.0000E+00  0.0000E+00  0.1000E+01  0.1000E+01
    -27.003  0.0000E+00  0.0000E+00  0.1000E+01  0.1000E+01
    -26.852  0.0000E+00  0.0000E+00  0.1000E+01  0.1000E+01
    -26.701  0.0000E+00  0.0000E+00  0.1000E+01  0.1000E+01
    -26.549  0.0000E+00  0.0000E+00  0.1000E+01  0.1000E+01
    -26.398  0.0000E+00  0.0000E+00  0.1000E+01  0.1000E+01
    -26.247  0.0000E+00  0.0000E+00  0.1000E+01  0.1000E+01
    -26.095  0.0000E+00  0.0000E+00  0.1000E+01  0.1000E+01
    -25.944  0.0000E+00  0.0000E+00  0.1000E+01  0.1000E+01
    -25.793  0.0000E+00  0.0000E+00  0.1000E+01  0.1000E+01
    -25.641  0.0000E+00  0.0000E+00  0.1000E+01  0.1000E+01
    -25.490  0.0000E+00  0.0000E+00  0.1000E+01  0.1000E+01
    -25.339  0.0000E+00  0.0000E+00  0.1000E+01  0.1000E+01
    -25.187  0.0000E+00  0.0000E+00  0.1000E+01  0.1000E+01
    -25.036  0.0000E+00  0.0000E+00  0.1000E+01  0.1000E+01
    -24.885  0.0000E+00  0.0000E+00  0.1000E+01  0.1000E+01
    -24.733  0.0000E+00  0.0000E+00  0.1000E+01  0.1000E+01
    -24.582  0.0000E+00  0.0000E+00  0.1000E+01  0.1000E+01
    -24.431  0.0000E+00  0.0000E+00  0.1000E+01  0.1000E+01
    -24.279  0.0000E+00  0.0000E+00  0.1000E+01  0.1000E+01
    -24.128  0.0000E+00  0.0000E+00  0.1000E+01  0.1000E+01
    -23.977  0.0000E+00  0.0000E+00  0.1000E+01  0.1000E+01
    -23.825  0.0000E+00  0.0000E+00  0.1000E+01  0.1000E+01
    -23.674  0.0000E+00  0.0000E+00  0.1000E+01  0.1000E+01
    -23.523  0.0000E+00  0.0000E+00  0.1000E+01  0.1000E+01
    -23.371  0.0000E+00  0.0000E+00  0.1000E+01  0.1000E+01
    -23.220  0.0000E+00  0.0000E+00  0.1000E+01  0.1000E+01
    -23.069  0.0000E+00  0.0000E+00  0.1000E+01  0.1000E+01
    -22.917  0.0000E+00  0.0000E+00  0.1000E+01  0.1000E+01
    -22.766  0.0000E+00  0.0000E+00  0.1000E+01  0.1000E+01
    -22.615  0.0000E+00  0.0000E+00  0.1000E+01  0.1000E+01
    -22.463  0.0000E+00  0.0000E+00  0.1000E+01  0.1000E+01
    -22.312  0.0000E+00  0.0000E+00  0.1000E+01  0.1000E+01
    -22.161  0.0000E+00  0.0000E+00  0.1000E+01  0.1000E+01
    -22.009  0.0000E+00  0.0000E+00  0.1000E+01  0.1000E+01
    -21.858  0.0000E+00  0.0000E+00  0.1000E+01  0.1000E+01
    -21.707  0.0000E+00  0.0000E+00  0.1000E+01  0.1000E+01
    -21.555  0.0000E+00  0.0000E+00  0.1000E+01  0.1000E+01
    -21.404  0.0000E+00  0.0000E+00  0.1000E+01  0.1000E+01
    -21.253  0.0000E+00  0.0000E+00  0.1000E+01  0.1000E+01
    -21.101  0.0000E+00  0.0000E+00  0.1000E+01  0.1000E+01
    -20.950  0.0000E+00  0.0000E+00  0.1000E+01  0.1000E+01
    -20.799  0.0000E+00  0.0000E+00  0.1000E+01  0.1000E+01
    -20.647  0.0000E+00  0.0000E+00  0.1000E+01  0.1000E+01
    -20.496  0.0000E+00  0.0000E+00  0.1000E+01  0.1000E+01
    -20.345  0.0000E+00  0.0000E+00  0.1000E+01  0.1000E+01
    -20.193  0.0000E+00  0.0000E+00  0.1000E+01  0.1000E+01
    -20.042  0.0000E+00  0.0000E+00  0.1000E+01  0.1000E+01
    -19.891  0.0000E+00  0.0000E+00  0.1000E+01  0.1000E+01
    -19.739  0.0000E+00  0.0000E+00  0.1000E+01  0.1000E+01
    -19.588  0.0000E+00  0.0000E+00  0.1000E+01  0.1000E+01
    -19.436  0.0000E+00  0.0000E+00  0.1000E+01  0.1000E+01
    -19.285  0.0000E+00  0.0000E+00  0.1000E+01  0.1000E+01
    -19.134  0.0000E+00  0.0000E+00  0.1000E+01  0.1000E+01
    -18.982  0.0000E+00  0.0000E+00  0.1000E+01  0.1000E+01
    -18.831  0.0000E+00  0.0000E+00  0.1000E+01  0.1000E+01
    -18.680  0.0000E+00  0.0000E+00  0.1000E+01  0.1000E+01
    -18.528  0.0000E+00  0.0000E+00  0.1000E+01  0.1000E+01
    -18.377  0.0000E+00  0.0000E+00  0.1000E+01  0.1000E+01
    -18.226  0.0000E+00  0.0000E+00  0.1000E+01  0.1000E+01
    -18.074  0.0000E+00  0.0000E+00  0.1000E+01  0.1000E+01
    -17.923  0.0000E+00  0.0000E+00  0.1000E+01  0.1000E+01
    -17.772  0.0000E+00  0.0000E+00  0.1000E+01  0.1000E+01
    -17.620  0.0000E+00  0.0000E+00  0.1000E+01  0.1000E+01
    -17.469  0.0000E+00  0.0000E+00  0.1000E+01  0.1000E+01
    -17.318  0.0000E+00  0.0000E+00  0.1000E+01  0.1000E+01
    -17.166  0.0000E+00  0.0000E+00  0.1000E+01  0.1000E+01
    -17.015  0.0000E+00  0.0000E+00  0.1000E+01  0.1000E+01
    -16.864  0.0000E+00  0.0000E+00  0.1000E+01  0.1000E+01
    -16.712  0.0000E+00  0.0000E+00  0.1000E+01  0.1000E+01
    -16.561  0.0000E+00  0.0000E+00  0.1000E+01  0.1000E+01
    -16.410  0.0000E+00  0.0000E+00  0.1000E+01  0.1000E+01
    -16.258  0.0000E+00  0.0000E+00  0.1000E+01  0.1000E+01
    -16.107  0.0000E+00  0.0000E+00  0.1000E+01  0.1000E+01
    -15.956  0.0000E+00  0.0000E+00  0.1000E+01  0.1000E+01
    -15.804  0.0000E+00  0.0000E+00  0.1000E+01  0.1000E+01
    -15.653  0.0000E+00  0.0000E+00  0.1000E+01  0.1000E+01
    -15.502  0.0000E+00  0.0000E+00  0.1000E+01  0.1000E+01
    -15.350  0.0000E+00  0.0000E+00  0.1000E+01  0.1000E+01
    -15.199  0.0000E+00  0.0000E+00  0.1000E+01  0.1000E+01
    -15.048  0.0000E+00  0.0000E+00  0.1000E+01  0.1000E+01
    -14.896  0.0000E+00  0.0000E+00  0.1000E+01  0.1000E+01
    -14.745  0.0000E+00  0.0000E+00  0.1000E+01  0.1000E+01
    -14.594  0.0000E+00  0.0000E+00  0.1000E+01  0.1000E+01
    -14.442  0.0000E+00  0.0000E+00  0.1000E+01  0.1000E+01
    -14.291  0.0000E+00  0.0000E+00  0.1000E+01  0.1000E+01
    -14.140  0.0000E+00  0.0000E+00  0.1000E+01  0.1000E+01
    -13.988  0.0000E+00  0.0000E+00  0.1000E+01  0.1000E+01
    -13.837  0.0000E+00  0.0000E+00  0.1000E+01  0.1000E+01
    -13.686  0.0000E+00  0.0000E+00  0.1000E+01  0.1000E+01
    -13.534  0.0000E+00  0.0000E+00  0.1000E+01  0.1000E+01
    -13.383  0.0000E+00  0.0000E+00  0.1000E+01  0.1000E+01
    -13.232  0.0000E+00  0.0000E+00  0.1000E+01  0.1000E+01
    -13.080  0.0000E+00  0.0000E+00  0.1000E+01  0.1000E+01
    -12.929  0.0000E+00  0.0000E+00  0.1000E+01  0.1000E+01
    -12.778  0.0000E+00  0.0000E+00  0.1000E+01  0.1000E+01
    -12.626  0.0000E+00  0.0000E+00  0.1000E+01  0.1000E+01
    -12.475  0.0000E+00  0.0000E+00  0.1000E+01  0.1000E+01
    -12.324  0.0000E+00  0.0000E+00  0.1000E+01  0.1000E+01
    -12.172  0.0000E+00  0.0000E+00  0.1000E+01  0.1000E+01
    -12.021  0.0000E+00  0.0000E+00  0.1000E+01  0.1000E+01
    -11.870  0.2216E-03  0.2233E-03  0.1000E+01  0.1000E+01
    -11.718  0.5858E-02  0.5904E-02  0.1001E+01  0.1001E+01
    -11.567  0.1179E+00  0.1188E+00  0.1019E+01  0.1019E+01
    -11.415  0.1965E+01  0.1978E+01  0.1316E+01  0.1318E+01
    -11.264  0.9590E+01  0.9605E+01  0.2768E+01  0.2772E+01
    -11.113  0.7223E+01  0.7201E+01  0.3861E+01  0.3862E+01
    -10.961  0.8627E+00  0.8568E+00  0.3993E+01  0.3993E+01
    -10.810  0.5906E-02  0.5392E-02  0.4000E+01  0.4000E+01
    -10.659  0.0000E+00  0.0000E+00  0.4000E+01  0.4000E+01
    -10.507  0.0000E+00  0.0000E+00  0.4000E+01  0.4000E+01
    -10.356  0.0000E+00  0.0000E+00  0.4000E+01  0.4000E+01
    -10.205  0.0000E+00  0.0000E+00  0.4000E+01  0.4000E+01
    -10.053  0.0000E+00  0.0000E+00  0.4000E+01  0.4000E+01
     -9.902  0.0000E+00  0.0000E+00  0.4000E+01  0.4000E+01
     -9.751  0.0000E+00  0.0000E+00  0.4000E+01  0.4000E+01
     -9.599  0.0000E+00  0.0000E+00  0.4000E+01  0.4000E+01
     -9.448  0.0000E+00  0.0000E+00  0.4000E+01  0.4000E+01
     -9.297  0.0000E+00  0.0000E+00  0.4000E+01  0.4000E+01
     -9.145  0.0000E+00  0.0000E+00  0.4000E+01  0.4000E+01
     -8.994  0.0000E+00  0.0000E+00  0.4000E+01  0.4000E+01
     -8.843  0.0000E+00  0.0000E+00  0.4000E+01  0.4000E+01
     -8.691  0.0000E+00  0.0000E+00  0.4000E+01  0.4000E+01
     -8.540  0.0000E+00  0.0000E+00  0.4000E+01  0.4000E+01
     -8.389  0.0000E+00  0.0000E+00  0.4000E+01  0.4000E+01
     -8.237  0.0000E+00  0.0000E+00  0.4000E+01  0.4000E+01
     -8.086  0.0000E+00  0.0000E+00  0.4000E+01  0.4000E+01
     -7.935  0.0000E+00  0.0000E+00  0.4000E+01  0.4000E+01
     -7.783  0.0000E+00  0.0000E+00  0.4000E+01  0.4000E+01
     -7.632  0.0000E+00  0.0000E+00  0.4000E+01  0.4000E+01
     -7.481  0.0000E+00  0.0000E+00  0.4000E+01  0.4000E+01
     -7.329  0.0000E+00  0.0000E+00  0.4000E+01  0.4000E+01
     -7.178  0.0000E+00  0.0000E+00  0.4000E+01  0.4000E+01
     -7.027  0.0000E+00  0.0000E+00  0.4000E+01  0.4000E+01
     -6.875  0.0000E+00  0.0000E+00  0.4000E+01  0.4000E+01
     -6.724  0.0000E+00  0.0000E+00  0.4000E+01  0.4000E+01
     -6.573  0.0000E+00  0.0000E+00  0.4000E+01  0.4000E+01
     -6.421  0.0000E+00  0.0000E+00  0.4000E+01  0.4000E+01
     -6.270  0.0000E+00  0.0000E+00  0.4000E+01  0.4000E+01
     -6.119  0.0000E+00  0.0000E+00  0.4000E+01  0.4000E+01
     -5.967  0.0000E+00  0.0000E+00  0.4000E+01  0.4000E+01
     -5.816  0.0000E+00  0.0000E+00  0.4000E+01  0.4000E+01
     -5.665  0.0000E+00  0.0000E+00  0.4000E+01  0.4000E+01
     -5.513  0.0000E+00  0.0000E+00  0.4000E+01  0.4000E+01
     -5.362  0.0000E+00  0.0000E+00  0.4000E+01  0.4000E+01
     -5.211  0.0000E+00  0.0000E+00  0.4000E+01  0.4000E+01
     -5.059  0.0000E+00  0.0000E+00  0.4000E+01  0.4000E+01
     -4.908  0.0000E+00  0.0000E+00  0.4000E+01  0.4000E+01
     -4.757  0.0000E+00  0.0000E+00  0.4000E+01  0.4000E+01
     -4.605  0.0000E+00  0.0000E+00  0.4000E+01  0.4000E+01
     -4.454  0.0000E+00  0.0000E+00  0.4000E+01  0.4000E+01
     -4.303  0.0000E+00  0.0000E+00  0.4000E+01  0.4000E+01
     -4.151  0.0000E+00  0.0000E+00  0.4000E+01  0.4000E+01
     -4.000  0.0000E+00  0.0000E+00  0.4000E+01  0.4000E+01
     -3.849  0.0000E+00  0.0000E+00  0.4000E+01  0.4000E+01
     -3.697  0.9131E-07  0.9325E-07  0.4000E+01  0.4000E+01
     -3.546  0.8913E-05  0.9102E-05  0.4000E+01  0.4000E+01
     -3.394  0.1855E-03  0.1894E-03  0.4000E+01  0.4000E+01
     -3.243  0.3499E-02  0.3567E-02  0.4001E+01  0.4001E+01
     -3.092  0.3324E-01  0.3360E-01  0.4006E+01  0.4006E+01
     -2.940  0.8862E-01  0.8901E-01  0.4019E+01  0.4019E+01
     -2.789  0.1325E+00  0.1326E+00  0.4039E+01  0.4039E+01
     -2.638  0.1720E+00  0.1724E+00  0.4065E+01  0.4065E+01
     -2.486  0.2013E+00  0.2014E+00  0.4096E+01  0.4096E+01
     -2.335  0.2159E+00  0.2161E+00  0.4128E+01  0.4129E+01
     -2.184  0.2852E+00  0.2855E+00  0.4172E+01  0.4172E+01
     -2.032  0.2728E+00  0.2725E+00  0.4213E+01  0.4213E+01
     -1.881  0.3256E+00  0.3264E+00  0.4262E+01  0.4263E+01
     -1.730  0.3838E+00  0.3837E+00  0.4321E+01  0.4321E+01
     -1.578  0.3829E+00  0.3833E+00  0.4379E+01  0.4379E+01
     -1.427  0.4654E+00  0.4657E+00  0.4449E+01  0.4450E+01
     -1.276  0.5532E+00  0.5537E+00  0.4533E+01  0.4533E+01
     -1.124  0.5462E+00  0.5456E+00  0.4616E+01  0.4616E+01
     -0.973  0.5153E+00  0.5157E+00  0.4694E+01  0.4694E+01
     -0.822  0.4665E+00  0.4659E+00  0.4765E+01  0.4765E+01
     -0.670  0.4897E+00  0.4902E+00  0.4839E+01  0.4839E+01
     -0.519  0.4707E+00  0.4707E+00  0.4910E+01  0.4911E+01
     -0.368  0.4399E+00  0.4389E+00  0.4977E+01  0.4977E+01
     -0.216  0.3455E+00  0.3459E+00  0.5029E+01  0.5030E+01
     -0.065  0.3697E+00  0.3697E+00  0.5086E+01  0.5086E+01
      0.086  0.4556E+00  0.4564E+00  0.5155E+01  0.5155E+01
      0.238  0.5009E+00  0.5006E+00  0.5231E+01  0.5231E+01
      0.389  0.4800E+00  0.4800E+00  0.5304E+01  0.5304E+01
      0.540  0.5914E+00  0.5927E+00  0.5393E+01  0.5394E+01
      0.692  0.8296E+00  0.8305E+00  0.5519E+01  0.5520E+01
      0.843  0.1156E+01  0.1157E+01  0.5694E+01  0.5695E+01
      0.994  0.1083E+01  0.1082E+01  0.5858E+01  0.5859E+01
      1.146  0.9729E+00  0.9726E+00  0.6006E+01  0.6007E+01
      1.297  0.6760E+00  0.6747E+00  0.6109E+01  0.6109E+01
      1.448  0.7889E+00  0.7903E+00  0.6228E+01  0.6229E+01
      1.600  0.7911E+00  0.7897E+00  0.6348E+01  0.6349E+01
      1.751  0.4653E+00  0.4646E+00  0.6419E+01  0.6419E+01
      1.902  0.4973E+00  0.4974E+00  0.6494E+01  0.6495E+01
      2.054  0.5816E+00  0.5821E+00  0.6582E+01  0.6583E+01
      2.205  0.5107E+00  0.5099E+00  0.6660E+01  0.6660E+01
      2.356  0.4591E+00  0.4599E+00  0.6729E+01  0.6730E+01
      2.508  0.4675E+00  0.4674E+00  0.6800E+01  0.6801E+01
      2.659  0.5872E+00  0.5886E+00  0.6889E+01  0.6890E+01
      2.810  0.7620E+00  0.7625E+00  0.7005E+01  0.7006E+01
      2.962  0.7123E+00  0.7126E+00  0.7113E+01  0.7114E+01
      3.113  0.7864E+00  0.7868E+00  0.7232E+01  0.7233E+01
      3.264  0.6734E+00  0.6730E+00  0.7334E+01  0.7335E+01
      3.416  0.7393E+00  0.7403E+00  0.7446E+01  0.7447E+01
      3.567  0.8661E+00  0.8673E+00  0.7578E+01  0.7579E+01
      3.718  0.9653E+00  0.9659E+00  0.7724E+01  0.7725E+01
      3.870  0.1137E+01  0.1140E+01  0.7896E+01  0.7898E+01
      4.021  0.1374E+01  0.1374E+01  0.8105E+01  0.8106E+01
      4.172  0.1468E+01  0.1470E+01  0.8327E+01  0.8329E+01
      4.324  0.1791E+01  0.1790E+01  0.8599E+01  0.8601E+01
      4.475  0.1559E+01  0.1559E+01  0.8835E+01  0.8837E+01
      4.627  0.1375E+01  0.1369E+01  0.9044E+01  0.9045E+01
      4.778  0.8490E+00  0.8490E+00  0.9173E+01  0.9174E+01
      4.929  0.1001E+01  0.1003E+01  0.9325E+01  0.9326E+01
      5.081  0.8604E+00  0.8579E+00  0.9455E+01  0.9456E+01
      5.232  0.5976E+00  0.5957E+00  0.9546E+01  0.9547E+01
      5.383  0.5882E+00  0.5899E+00  0.9635E+01  0.9636E+01
      5.535  0.8555E+00  0.8573E+00  0.9765E+01  0.9766E+01
      5.686  0.1007E+01  0.1006E+01  0.9918E+01  0.9919E+01
      5.837  0.9826E+00  0.9820E+00  0.1007E+02  0.1007E+02
      5.989  0.8048E+00  0.8034E+00  0.1019E+02  0.1019E+02
      6.140  0.8316E+00  0.8336E+00  0.1031E+02  0.1032E+02
      6.291  0.1084E+01  0.1084E+01  0.1048E+02  0.1048E+02
      6.443  0.9052E+00  0.9032E+00  0.1062E+02  0.1062E+02
      6.594  0.7942E+00  0.7953E+00  0.1074E+02  0.1074E+02
      6.745  0.1071E+01  0.1073E+01  0.1090E+02  0.1090E+02
      6.897  0.9599E+00  0.9583E+00  0.1104E+02  0.1105E+02
      7.048  0.8572E+00  0.8567E+00  0.1117E+02  0.1118E+02
      7.199  0.8405E+00  0.8413E+00  0.1130E+02  0.1130E+02
      7.351  0.1076E+01  0.1078E+01  0.1147E+02  0.1147E+02
      7.502  0.1004E+01  0.1002E+01  0.1162E+02  0.1162E+02
      7.653  0.9865E+00  0.9873E+00  0.1177E+02  0.1177E+02
      7.805  0.9559E+00  0.9546E+00  0.1191E+02  0.1191E+02
      7.956  0.7118E+00  0.7113E+00  0.1202E+02  0.1202E+02
      8.107  0.8825E+00  0.8842E+00  0.1215E+02  0.1215E+02
      8.259  0.9224E+00  0.9216E+00  0.1229E+02  0.1229E+02
      8.410  0.1039E+01  0.1042E+01  0.1245E+02  0.1245E+02
      8.561  0.1290E+01  0.1291E+01  0.1265E+02  0.1265E+02
      8.713  0.1266E+01  0.1266E+01  0.1284E+02  0.1284E+02
      8.864  0.1367E+01  0.1368E+01  0.1305E+02  0.1305E+02
      9.015  0.1460E+01  0.1463E+01  0.1327E+02  0.1327E+02
      9.167  0.1661E+01  0.1659E+01  0.1352E+02  0.1352E+02
      9.318  0.1632E+01  0.1631E+01  0.1377E+02  0.1377E+02
      9.469  0.1432E+01  0.1428E+01  0.1398E+02  0.1399E+02
      9.621  0.1301E+01  0.1303E+01  0.1418E+02  0.1418E+02
      9.772  0.1400E+01  0.1396E+01  0.1439E+02  0.1439E+02
      9.923  0.1266E+01  0.1266E+01  0.1459E+02  0.1459E+02
     10.075  0.1457E+01  0.1453E+01  0.1481E+02  0.1481E+02
     10.226  0.1431E+01  0.1409E+01  0.1502E+02  0.1502E+02
     10.377  0.1486E+01  0.1458E+01  0.1525E+02  0.1524E+02
     10.529  0.1391E+01  0.1429E+01  0.1546E+02  0.1546E+02
     10.680  0.1401E+01  0.1475E+01  0.1567E+02  0.1568E+02
     10.831  0.8887E+00  0.8578E+00  0.1581E+02  0.1581E+02
     10.983  0.3502E+00  0.3204E+00  0.1586E+02  0.1586E+02
     11.134  0.2021E+00  0.1978E+00  0.1589E+02  0.1589E+02
     11.285  0.1612E+00  0.1530E+00  0.1592E+02  0.1591E+02
     11.437  0.1383E+00  0.1267E+00  0.1594E+02  0.1593E+02
     11.588  0.9187E-01  0.1122E+00  0.1595E+02  0.1595E+02
     11.739  0.6996E-01  0.7175E-01  0.1596E+02  0.1596E+02
     11.891  0.1285E+00  0.1275E+00  0.1598E+02  0.1598E+02
     12.042  0.7135E-01  0.7208E-01  0.1599E+02  0.1599E+02
     12.193  0.2089E-01  0.2236E-01  0.1600E+02  0.1600E+02
     12.345  0.2683E-01  0.2606E-01  0.1600E+02  0.1600E+02
     12.496  0.4154E-02  0.3462E-02  0.1600E+02  0.1600E+02
     12.648  0.1605E-03  0.0000E+00  0.1600E+02  0.1600E+02
     12.799  0.0000E+00  0.0000E+00  0.1600E+02  0.1600E+02
     12.950  0.0000E+00  0.0000E+00  0.1600E+02  0.1600E+02
     13.102  0.0000E+00  0.0000E+00  0.1600E+02  0.1600E+02
     13.253  0.0000E+00  0.0000E+00  0.1600E+02  0.1600E+02
     13.404  0.0000E+00  0.0000E+00  0.1600E+02  0.1600E+02
     13.556  0.0000E+00  0.0000E+00  0.1600E+02  0.1600E+02
     13.707  0.0000E+00  0.0000E+00  0.1600E+02  0.1600E+02
     13.858  0.0000E+00  0.0000E+00  0.1600E+02  0.1600E+02
     14.010  0.0000E+00  0.0000E+00  0.1600E+02  0.1600E+02
     14.161  0.0000E+00  0.0000E+00  0.1600E+02  0.1600E+02
     14.312  0.0000E+00  0.0000E+00  0.1600E+02  0.1600E+02
     14.31224923    -31.08965215  301      5.14533001      1.00000000
    -31.090  0.0000E+00  0.0000E+00  0.0000E+00  0.0000E+00  0.0000E+00  0.0000E+00  0.0000E+00  0.0000E+00  0.0000E+00  0.0000E+00  0.0000E+00  0.0000E+00  0.0000E+00  0.0000E+00  0.0000E+00  0.0000E+00  0.0000E+00  0.0000E+00
    -30.938  0.0000E+00  0.0000E+00  0.0000E+00  0.0000E+00  0.0000E+00  0.0000E+00  0.0000E+00  0.0000E+00  0.0000E+00  0.0000E+00  0.0000E+00  0.0000E+00  0.0000E+00  0.0000E+00  0.0000E+00  0.0000E+00  0.0000E+00  0.0000E+00
    -30.787  0.0000E+00  0.0000E+00  0.0000E+00  0.0000E+00  0.0000E+00  0.0000E+00  0.0000E+00  0.0000E+00  0.0000E+00  0.0000E+00  0.0000E+00  0.0000E+00  0.0000E+00  0.0000E+00  0.0000E+00  0.0000E+00  0.0000E+00  0.0000E+00
    -30.636  0.0000E+00  0.0000E+00  0.0000E+00  0.0000E+00  0.0000E+00  0.0000E+00  0.0000E+00  0.0000E+00  0.0000E+00  0.0000E+00  0.0000E+00  0.0000E+00  0.0000E+00  0.0000E+00  0.0000E+00  0.0000E+00  0.0000E+00  0.0000E+00
    -30.484  0.0000E+00  0.0000E+00  0.0000E+00  0.0000E+00  0.0000E+00  0.0000E+00  0.0000E+00  0.0000E+00  0.0000E+00  0.0000E+00  0.0000E+00  0.0000E+00  0.0000E+00  0.0000E+00  0.0000E+00  0.0000E+00  0.0000E+00  0.0000E+00
    -30.333  0.0000E+00  0.0000E+00  0.0000E+00  0.0000E+00  0.0000E+00  0.0000E+00  0.0000E+00  0.0000E+00  0.0000E+00  0.0000E+00  0.0000E+00  0.0000E+00  0.0000E+00  0.0000E+00  0.0000E+00  0.0000E+00  0.0000E+00  0.0000E+00
    -30.182  0.0000E+00  0.0000E+00  0.0000E+00  0.0000E+00  0.0000E+00  0.0000E+00  0.0000E+00  0.0000E+00  0.0000E+00  0.0000E+00  0.0000E+00  0.0000E+00  0.0000E+00  0.0000E+00  0.0000E+00  0.0000E+00  0.0000E+00  0.0000E+00
    -30.030  0.0000E+00  0.0000E+00  0.0000E+00  0.0000E+00  0.0000E+00  0.0000E+00  0.0000E+00  0.0000E+00  0.0000E+00  0.0000E+00  0.0000E+00  0.0000E+00  0.0000E+00  0.0000E+00  0.0000E+00  0.0000E+00  0.0000E+00  0.0000E+00
    -29.879  0.0000E+00  0.0000E+00  0.0000E+00  0.0000E+00  0.0000E+00  0.0000E+00  0.0000E+00  0.0000E+00  0.0000E+00  0.0000E+00  0.0000E+00  0.0000E+00  0.0000E+00  0.0000E+00  0.0000E+00  0.0000E+00  0.0000E+00  0.0000E+00
    -29.728  0.0000E+00  0.0000E+00  0.0000E+00  0.0000E+00  0.0000E+00  0.0000E+00  0.0000E+00  0.0000E+00  0.0000E+00  0.0000E+00  0.0000E+00  0.0000E+00  0.0000E+00  0.0000E+00  0.0000E+00  0.0000E+00  0.0000E+00  0.0000E+00
    -29.576  0.3343E-06  0.1301E-05  0.1387E-14  0.1224E-13  0.1387E-14  0.1224E-13  0.1397E-14  0.1233E-13  0.3198E-22  0.2374E-17  0.3190E-22  0.2371E-17  0.4338E-16  0.1512E-15  0.3198E-22  0.2374E-17  0.5629E-16  0.1407E-15
    -29.425  0.1899E-02  0.1926E-02  0.5999E-10  0.6143E-10  0.5999E-10  0.6143E-10  0.6053E-10  0.6193E-10  0.3699E-13  0.4127E-13  0.3502E-13  0.4130E-13  0.3044E-10  0.3072E-10  0.3699E-13  0.4127E-13  0.3077E-10  0.3105E-10
    -29.274  0.3707E-01  0.3761E-01  0.1170E-08  0.1199E-08  0.1170E-08  0.1199E-08  0.1181E-08  0.1208E-08  0.7219E-12  0.8052E-12  0.6834E-12  0.8058E-12  0.5940E-09  0.5993E-09  0.7219E-12  0.8052E-12  0.6003E-09  0.6058E-09
    -29.122  0.6795E+00  0.6883E+00  0.2146E-07  0.2194E-07  0.2146E-07  0.2194E-07  0.2165E-07  0.2212E-07  0.1325E-10  0.1476E-10  0.1254E-10  0.1477E-10  0.1090E-07  0.1097E-07  0.1325E-10  0.1476E-10  0.1100E-07  0.1109E-07
    -28.971  0.3931E+01  0.3941E+01  0.1240E-06  0.1255E-06  0.1240E-06  0.1255E-06  0.1252E-06  0.1265E-06  0.7720E-10  0.8521E-10  0.7304E-10  0.8527E-10  0.6317E-07  0.6295E-07  0.7720E-10  0.8521E-10  0.6358E-07  0.6337E-07
    -28.820  0.1683E+01  0.1666E+01  0.5302E-07  0.5297E-07  0.5302E-07  0.5297E-07  0.5350E-07  0.5340E-07  0.3330E-10  0.3634E-10  0.3149E-10  0.3637E-10  0.2708E-07  0.2663E-07  0.3330E-10  0.3634E-10  0.2713E-07  0.2669E-07
    -28.668  0.1132E+00  0.1115E+00  0.3563E-08  0.3546E-08  0.3563E-08  0.3546E-08  0.3595E-08  0.3574E-08  0.2244E-11  0.2440E-11  0.2122E-11  0.2442E-11  0.1821E-08  0.1784E-08  0.2244E-11  0.2440E-11  0.1822E-08  0.1785E-08
    -28.517  0.0000E+00  0.0000E+00  0.0000E+00  0.0000E+00  0.0000E+00  0.0000E+00  0.0000E+00  0.0000E+00  0.0000E+00  0.0000E+00  0.0000E+00  0.0000E+00  0.0000E+00  0.0000E+00  0.0000E+00  0.0000E+00  0.0000E+00  0.0000E+00
    -28.366  0.0000E+00  0.0000E+00  0.0000E+00  0.0000E+00  0.0000E+00  0.0000E+00  0.0000E+00  0.0000E+00  0.0000E+00  0.0000E+00  0.0000E+00  0.0000E+00  0.0000E+00  0.0000E+00  0.0000E+00  0.0000E+00  0.0000E+00  0.0000E+00
    -28.214  0.0000E+00  0.0000E+00  0.0000E+00  0.0000E+00  0.0000E+00  0.0000E+00  0.0000E+00  0.0000E+00  0.0000E+00  0.0000E+00  0.0000E+00  0.0000E+00  0.0000E+00  0.0000E+00  0.0000E+00  0.0000E+00  0.0000E+00  0.0000E+00
    -28.063  0.0000E+00  0.0000E+00  0.0000E+00  0.0000E+00  0.0000E+00  0.0000E+00  0.0000E+00  0.0000E+00  0.0000E+00  0.0000E+00  0.0000E+00  0.0000E+00  0.0000E+00  0.0000E+00  0.0000E+00  0.0000E+00  0.0000E+00  0.0000E+00
    -27.912  0.0000E+00  0.0000E+00  0.0000E+00  0.0000E+00  0.0000E+00  0.0000E+00  0.0000E+00  0.0000E+00  0.0000E+00  0.0000E+00  0.0000E+00  0.0000E+00  0.0000E+00  0.0000E+00  0.0000E+00  0.0000E+00  0.0000E+00  0.0000E+00
    -27.760  0.0000E+00  0.0000E+00  0.0000E+00  0.0000E+00  0.0000E+00  0.0000E+00  0.0000E+00  0.0000E+00  0.0000E+00  0.0000E+00  0.0000E+00  0.0000E+00  0.0000E+00  0.0000E+00  0.0000E+00  0.0000E+00  0.0000E+00  0.0000E+00
    -27.609  0.0000E+00  0.0000E+00  0.0000E+00  0.0000E+00  0.0000E+00  0.0000E+00  0.0000E+00  0.0000E+00  0.0000E+00  0.0000E+00  0.0000E+00  0.0000E+00  0.0000E+00  0.0000E+00  0.0000E+00  0.0000E+00  0.0000E+00  0.0000E+00
    -27.458  0.0000E+00  0.0000E+00  0.0000E+00  0.0000E+00  0.0000E+00  0.0000E+00  0.0000E+00  0.0000E+00  0.0000E+00  0.0000E+00  0.0000E+00  0.0000E+00  0.0000E+00  0.0000E+00  0.0000E+00  0.0000E+00  0.0000E+00  0.0000E+00
    -27.306  0.0000E+00  0.0000E+00  0.0000E+00  0.0000E+00  0.0000E+00  0.0000E+00  0.0000E+00  0.0000E+00  0.0000E+00  0.0000E+00  0.0000E+00  0.0000E+00  0.0000E+00  0.0000E+00  0.0000E+00  0.0000E+00  0.0000E+00  0.0000E+00
    -27.155  0.0000E+00  0.0000E+00  0.0000E+00  0.0000E+00  0.0000E+00  0.0000E+00  0.0000E+00  0.0000E+00  0.0000E+00  0.0000E+00  0.0000E+00  0.0000E+00  0.0000E+00  0.0000E+00  0.0000E+00  0.0000E+00  0.0000E+00  0.0000E+00
    -27.003  0.0000E+00  0.0000E+00  0.0000E+00  0.0000E+00  0.0000E+00  0.0000E+00  0.0000E+00  0.0000E+00  0.0000E+00  0.0000E+00  0.0000E+00  0.0000E+00  0.0000E+00  0.0000E+00  0.0000E+00  0.0000E+00  0.0000E+00  0.0000E+00
    -26.852  0.0000E+00  0.0000E+00  0.0000E+00  0.0000E+00  0.0000E+00  0.0000E+00  0.0000E+00  0.0000E+00  0.0000E+00  0.0000E+00  0.0000E+00  0.0000E+00  0.0000E+00  0.0000E+00  0.0000E+00  0.0000E+00  0.0000E+00  0.0000E+00
    -26.701  0.0000E+00  0.0000E+00  0.0000E+00  0.0000E+00  0.0000E+00  0.0000E+00  0.0000E+00  0.0000E+00  0.0000E+00  0.0000E+00  0.0000E+00  0.0000E+00  0.0000E+00  0.0000E+00  0.0000E+00  0.0000E+00  0.0000E+00  0.0000E+00
    -26.549  0.0000E+00  0.0000E+00  0.0000E+00  0.0000E+00  0.0000E+00  0.0000E+00  0.0000E+00  0.0000E+00  0.0000E+00  0.0000E+00  0.0000E+00  0.0000E+00  0.0000E+00  0.0000E+00  0.0000E+00  0.0000E+00  0.0000E+00  0.0000E+00
    -26.398  0.0000E+00  0.0000E+00  0.0000E+00  0.0000E+00  0.0000E+00  0.0000E+00  0.0000E+00  0.0000E+00  0.0000E+00  0.0000E+00  0.0000E+00  0.0000E+00  0.0000E+00  0.0000E+00  0.0000E+00  0.0000E+00  0.0000E+00  0.0000E+00
    -26.247  0.0000E+00  0.0000E+00  0.0000E+00  0.0000E+00  0.0000E+00  0.0000E+00  0.0000E+00  0.0000E+00  0.0000E+00  0.0000E+00  0.0000E+00  0.0000E+00  0.0000E+00  0.0000E+00  0.0000E+00  0.0000E+00  0.0000E+00  0.0000E+00
    -26.095  0.0000E+00  0.0000E+00  0.0000E+00  0.0000E+00  0.0000E+00  0.0000E+00  0.0000E+00  0.0000E+00  0.0000E+00  0.0000E+00  0.0000E+00  0.0000E+00  0.0000E+00  0.0000E+00  0.0000E+00  0.0000E+00  0.0000E+00  0.0000E+00
    -25.944  0.0000E+00  0.0000E+00  0.0000E+00  0.0000E+00  0.0000E+00  0.0000E+00  0.0000E+00  0.0000E+00  0.0000E+00  0.0000E+00  0.0000E+00  0.0000E+00  0.0000E+00  0.0000E+00  0.0000E+00  0.0000E+00  0.0000E+00  0.0000E+00
    -25.793  0.0000E+00  0.0000E+00  0.0000E+00  0.0000E+00  0.0000E+00  0.0000E+00  0.0000E+00  0.0000E+00  0.0000E+00  0.0000E+00  0.0000E+00  0.0000E+00  0.0000E+00  0.0000E+00  0.0000E+00  0.0000E+00  0.0000E+00  0.0000E+00
    -25.641  0.0000E+00  0.0000E+00  0.0000E+00  0.0000E+00  0.0000E+00  0.0000E+00  0.0000E+00  0.0000E+00  0.0000E+00  0.0000E+00  0.0000E+00  0.0000E+00  0.0000E+00  0.0000E+00  0.0000E+00  0.0000E+00  0.0000E+00  0.0000E+00
    -25.490  0.0000E+00  0.0000E+00  0.0000E+00  0.0000E+00  0.0000E+00  0.0000E+00  0.0000E+00  0.0000E+00  0.0000E+00  0.0000E+00  0.0000E+00  0.0000E+00  0.0000E+00  0.0000E+00  0.0000E+00  0.0000E+00  0.0000E+00  0.0000E+00
    -25.339  0.0000E+00  0.0000E+00  0.0000E+00  0.0000E+00  0.0000E+00  0.0000E+00  0.0000E+00  0.0000E+00  0.0000E+00  0.0000E+00  0.0000E+00  0.0000E+00  0.0000E+00  0.0000E+00  0.0000E+00  0.0000E+00  0.0000E+00  0.0000E+00
    -25.187  0.0000E+00  0.0000E+00  0.0000E+00  0.0000E+00  0.0000E+00  0.0000E+00  0.0000E+00  0.0000E+00  0.0000E+00  0.0000E+00  0.0000E+00  0.0000E+00  0.0000E+00  0.0000E+00  0.0000E+00  0.0000E+00  0.0000E+00  0.0000E+00
    -25.036  0.0000E+00  0.0000E+00  0.0000E+00  0.0000E+00  0.0000E+00  0.0000E+00  0.0000E+00  0.0000E+00  0.0000E+00  0.0000E+00  0.0000E+00  0.0000E+00  0.0000E+00  0.0000E+00  0.0000E+00  0.0000E+00  0.0000E+00  0.0000E+00
    -24.885  0.0000E+00  0.0000E+00  0.0000E+00  0.0000E+00  0.0000E+00  0.0000E+00  0.0000E+00  0.0000E+00  0.0000E+00  0.0000E+00  0.0000E+00  0.0000E+00  0.0000E+00  0.0000E+00  0.0000E+00  0.0000E+00  0.0000E+00  0.0000E+00
    -24.733  0.0000E+00  0.0000E+00  0.0000E+00  0.0000E+00  0.0000E+00  0.0000E+00  0.0000E+00  0.0000E+00  0.0000E+00  0.0000E+00  0.0000E+00  0.0000E+00  0.0000E+00  0.0000E+00  0.0000E+00  0.0000E+00  0.0000E+00  0.0000E+00
    -24.582  0.0000E+00  0.0000E+00  0.0000E+00  0.0000E+00  0.0000E+00  0.0000E+00  0.0000E+00  0.0000E+00  0.0000E+00  0.0000E+00  0.0000E+00  0.0000E+00  0.0000E+00  0.0000E+00  0.0000E+00  0.0000E+00  0.0000E+00  0.0000E+00
    -24.431  0.0000E+00  0.0000E+00  0.0000E+00  0.0000E+00  0.0000E+00  0.0000E+00  0.0000E+00  0.0000E+00  0.0000E+00  0.0000E+00  0.0000E+00  0.0000E+00  0.0000E+00  0.0000E+00  0.0000E+00  0.0000E+00  0.0000E+00  0.0000E+00
    -24.279  0.0000E+00  0.0000E+00  0.0000E+00  0.0000E+00  0.0000E+00  0.0000E+00  0.0000E+00  0.0000E+00  0.0000E+00  0.0000E+00  0.0000E+00  0.0000E+00  0.0000E+00  0.0000E+00  0.0000E+00  0.0000E+00  0.0000E+00  0.0000E+00
    -24.128  0.0000E+00  0.0000E+00  0.0000E+00  0.0000E+00  0.0000E+00  0.0000E+00  0.0000E+00  0.0000E+00  0.0000E+00  0.0000E+00  0.0000E+00  0.0000E+00  0.0000E+00  0.0000E+00  0.0000E+00  0.0000E+00  0.0000E+00  0.0000E+00
    -23.977  0.0000E+00  0.0000E+00  0.0000E+00  0.0000E+00  0.0000E+00  0.0000E+00  0.0000E+00  0.0000E+00  0.0000E+00  0.0000E+00  0.0000E+00  0.0000E+00  0.0000E+00  0.0000E+00  0.0000E+00  0.0000E+00  0.0000E+00  0.0000E+00
    -23.825  0.0000E+00  0.0000E+00  0.0000E+00  0.0000E+00  0.0000E+00  0.0000E+00  0.0000E+00  0.0000E+00  0.0000E+00  0.0000E+00  0.0000E+00  0.0000E+00  0.0000E+00  0.0000E+00  0.0000E+00  0.0000E+00  0.0000E+00  0.0000E+00
    -23.674  0.0000E+00  0.0000E+00  0.0000E+00  0.0000E+00  0.0000E+00  0.0000E+00  0.0000E+00  0.0000E+00  0.0000E+00  0.0000E+00  0.0000E+00  0.0000E+00  0.0000E+00  0.0000E+00  0.0000E+00  0.0000E+00  0.0000E+00  0.0000E+00
    -23.523  0.0000E+00  0.0000E+00  0.0000E+00  0.0000E+00  0.0000E+00  0.0000E+00  0.0000E+00  0.0000E+00  0.0000E+00  0.0000E+00  0.0000E+00  0.0000E+00  0.0000E+00  0.0000E+00  0.0000E+00  0.0000E+00  0.0000E+00  0.0000E+00