   4   4   1   0
  0.1743778E+02  0.4115480E-09  0.4116854E-09  0.4116854E-09  0.5000000E-15
  1.000000000000000E-004
  CAR 
 unknown system                          
     17.24742976    -28.86223505  301      6.86814171      1.00000000
    -28.862  0.0000E+00  0.0000E+00  0.0000E+00  0.0000E+00
    -28.709  0.0000E+00  0.0000E+00  0.0000E+00  0.0000E+00
    -28.555  0.0000E+00  0.0000E+00  0.0000E+00  0.0000E+00
    -28.401  0.0000E+00  0.0000E+00  0.0000E+00  0.0000E+00
    -28.247  0.0000E+00  0.0000E+00  0.0000E+00  0.0000E+00
    -28.094  0.0000E+00  0.0000E+00  0.0000E+00  0.0000E+00
    -27.940  0.0000E+00  0.0000E+00  0.0000E+00  0.0000E+00
    -27.786  0.0000E+00  0.0000E+00  0.0000E+00  0.0000E+00
    -27.633  0.0000E+00  0.0000E+00  0.0000E+00  0.0000E+00
    -27.479  0.0000E+00  0.0000E+00  0.0000E+00  0.0000E+00
    -27.325  0.0000E+00  0.0000E+00  0.0000E+00  0.0000E+00
    -27.172  0.1288E-02  0.1302E-02  0.1980E-03  0.2002E-03
    -27.018  0.2645E-01  0.2675E-01  0.4263E-02  0.4311E-02
    -26.864  0.5225E+00  0.5279E+00  0.8458E-01  0.8544E-01
    -26.710  0.3763E+01  0.3773E+01  0.6629E+00  0.6653E+00
    -26.557  0.2043E+01  0.2028E+01  0.9768E+00  0.9771E+00
    -26.403  0.1436E+00  0.1421E+00  0.9989E+00  0.9989E+00
    -26.249  0.0000E+00  0.0000E+00  0.1000E+01  0.1000E+01
    -26.096  0.0000E+00  0.0000E+00  0.1000E+01  0.1000E+01
    -25.942  0.0000E+00  0.0000E+00  0.1000E+01  0.1000E+01
    -25.788  0.0000E+00  0.0000E+00  0.1000E+01  0.1000E+01
    -25.635  0.0000E+00  0.0000E+00  0.1000E+01  0.1000E+01
    -25.481  0.0000E+00  0.0000E+00  0.1000E+01  0.1000E+01
    -25.327  0.0000E+00  0.0000E+00  0.1000E+01  0.1000E+01
    -25.173  0.0000E+00  0.0000E+00  0.1000E+01  0.1000E+01
    -25.020  0.0000E+00  0.0000E+00  0.1000E+01  0.1000E+01
    -24.866  0.0000E+00  0.0000E+00  0.1000E+01  0.1000E+01
    -24.712  0.0000E+00  0.0000E+00  0.1000E+01  0.1000E+01
    -24.559  0.0000E+00  0.0000E+00  0.1000E+01  0.1000E+01
    -24.405  0.0000E+00  0.0000E+00  0.1000E+01  0.1000E+01
    -24.251  0.0000E+00  0.0000E+00  0.1000E+01  0.1000E+01
    -24.098  0.0000E+00  0.0000E+00  0.1000E+01  0.1000E+01
    -23.944  0.0000E+00  0.0000E+00  0.1000E+01  0.1000E+01
    -23.790  0.0000E+00  0.0000E+00  0.1000E+01  0.1000E+01
    -23.636  0.0000E+00  0.0000E+00  0.1000E+01  0.1000E+01
    -23.483  0.0000E+00  0.0000E+00  0.1000E+01  0.1000E+01
    -23.329  0.0000E+00  0.0000E+00  0.1000E+01  0.1000E+01
    -23.175  0.0000E+00  0.0000E+00  0.1000E+01  0.1000E+01
    -23.022  0.0000E+00  0.0000E+00  0.1000E+01  0.1000E+01
    -22.868  0.0000E+00  0.0000E+00  0.1000E+01  0.1000E+01
    -22.714  0.0000E+00  0.0000E+00  0.1000E+01  0.1000E+01
    -22.561  0.0000E+00  0.0000E+00  0.1000E+01  0.1000E+01
    -22.407  0.0000E+00  0.0000E+00  0.1000E+01  0.1000E+01
    -22.253  0.0000E+00  0.0000E+00  0.1000E+01  0.1000E+01
    -22.099  0.0000E+00  0.0000E+00  0.1000E+01  0.1000E+01
    -21.946  0.0000E+00  0.0000E+00  0.1000E+01  0.1000E+01
    -21.792  0.0000E+00  0.0000E+00  0.1000E+01  0.1000E+01
    -21.638  0.0000E+00  0.0000E+00  0.1000E+01  0.1000E+01
    -21.485  0.0000E+00  0.0000E+00  0.1000E+01  0.1000E+01
    -21.331  0.0000E+00  0.0000E+00  0.1000E+01  0.1000E+01
    -21.177  0.0000E+00  0.0000E+00  0.1000E+01  0.1000E+01
    -21.024  0.0000E+00  0.0000E+00  0.1000E+01  0.1000E+01
    -20.870  0.0000E+00  0.0000E+00  0.1000E+01  0.1000E+01
    -20.716  0.0000E+00  0.0000E+00  0.1000E+01  0.1000E+01
    -20.562  0.0000E+00  0.0000E+00  0.1000E+01  0.1000E+01
    -20.409  0.0000E+00  0.0000E+00  0.1000E+01  0.1000E+01
    -20.255  0.0000E+00  0.0000E+00  0.1000E+01  0.1000E+01
    -20.101  0.0000E+00  0.0000E+00  0.1000E+01  0.1000E+01
    -19.948  0.0000E+00  0.0000E+00  0.1000E+01  0.1000E+01
    -19.794  0.0000E+00  0.0000E+00  0.1000E+01  0.1000E+01
    -19.640  0.0000E+00  0.0000E+00  0.1000E+01  0.1000E+01
    -19.487  0.0000E+00  0.0000E+00  0.1000E+01  0.1000E+01
    -19.333  0.0000E+00  0.0000E+00  0.1000E+01  0.1000E+01
    -19.179  0.0000E+00  0.0000E+00  0.1000E+01  0.1000E+01
    -19.026  0.0000E+00  0.0000E+00  0.1000E+01  0.1000E+01
    -18.872  0.0000E+00  0.0000E+00  0.1000E+01  0.1000E+01
    -18.718  0.0000E+00  0.0000E+00  0.1000E+01  0.1000E+01
    -18.564  0.0000E+00  0.0000E+00  0.1000E+01  0.1000E+01
    -18.411  0.0000E+00  0.0000E+00  0.1000E+01  0.1000E+01
    -18.257  0.0000E+00  0.0000E+00  0.1000E+01  0.1000E+01
    -18.103  0.0000E+00  0.0000E+00  0.1000E+01  0.1000E+01
    -17.950  0.0000E+00  0.0000E+00  0.1000E+01  0.1000E+01
    -17.796  0.0000E+00  0.0000E+00  0.1000E+01  0.1000E+01
    -17.642  0.0000E+00  0.0000E+00  0.1000E+01  0.1000E+01
    -17.489  0.0000E+00  0.0000E+00  0.1000E+01  0.1000E+01
    -17.335  0.0000E+00  0.0000E+00  0.1000E+01  0.1000E+01
    -17.181  0.0000E+00  0.0000E+00  0.1000E+01  0.1000E+01
    -17.027  0.0000E+00  0.0000E+00  0.1000E+01  0.1000E+01
    -16.874  0.0000E+00  0.0000E+00  0.1000E+01  0.1000E+01
    -16.720  0.0000E+00  0.0000E+00  0.1000E+01  0.1000E+01
    -16.566  0.0000E+00  0.0000E+00  0.1000E+01  0.1000E+01
    -16.413  0.0000E+00  0.0000E+00  0.1000E+01  0.1000E+01
    -16.259  0.0000E+00  0.0000E+00  0.1000E+01  0.1000E+01
    -16.105  0.0000E+00  0.0000E+00  0.1000E+01  0.1000E+01
    -15.952  0.0000E+00  0.0000E+00  0.1000E+01  0.1000E+01
    -15.798  0.0000E+00  0.0000E+00  0.1000E+01  0.1000E+01
    -15.644  0.0000E+00  0.0000E+00  0.1000E+01  0.1000E+01
    -15.490  0.0000E+00  0.0000E+00  0.1000E+01  0.1000E+01
    -15.337  0.0000E+00  0.0000E+00  0.1000E+01  0.1000E+01
    -15.183  0.0000E+00  0.0000E+00  0.1000E+01  0.1000E+01
    -15.029  0.0000E+00  0.0000E+00  0.1000E+01  0.1000E+01
    -14.876  0.0000E+00  0.0000E+00  0.1000E+01  0.1000E+01
    -14.722  0.0000E+00  0.0000E+00  0.1000E+01  0.1000E+01
    -14.568  0.0000E+00  0.0000E+00  0.1000E+01  0.1000E+01
    -14.415  0.0000E+00  0.0000E+00  0.1000E+01  0.1000E+01
    -14.261  0.0000E+00  0.0000E+00  0.1000E+01  0.1000E+01
    -14.107  0.0000E+00  0.0000E+00  0.1000E+01  0.1000E+01
    -13.953  0.0000E+00  0.0000E+00  0.1000E+01  0.1000E+01
    -13.800  0.0000E+00  0.0000E+00  0.1000E+01  0.1000E+01
    -13.646  0.0000E+00  0.0000E+00  0.1000E+01  0.1000E+01
    -13.492  0.0000E+00  0.0000E+00  0.1000E+01  0.1000E+01
    -13.339  0.0000E+00  0.0000E+00  0.1000E+01  0.1000E+01
    -13.185  0.0000E+00  0.0000E+00  0.1000E+01  0.1000E+01
    -13.031  0.0000E+00  0.0000E+00  0.1000E+01  0.1000E+01
    -12.878  0.0000E+00  0.0000E+00  0.1000E+01  0.1000E+01
    -12.724  0.0000E+00  0.0000E+00  0.1000E+01  0.1000E+01
    -12.570  0.0000E+00  0.0000E+00  0.1000E+01  0.1000E+01
    -12.416  0.0000E+00  0.0000E+00  0.1000E+01  0.1000E+01
    -12.263  0.0000E+00  0.0000E+00  0.1000E+01  0.1000E+01
    -12.109  0.0000E+00  0.0000E+00  0.1000E+01  0.1000E+01
    -11.955  0.0000E+00  0.0000E+00  0.1000E+01  0.1000E+01
    -11.802  0.0000E+00  0.0000E+00  0.1000E+01  0.1000E+01
    -11.648  0.0000E+00  0.0000E+00  0.1000E+01  0.1000E+01
    -11.494  0.0000E+00  0.0000E+00  0.1000E+01  0.1000E+01
    -11.341  0.0000E+00  0.0000E+00  0.1000E+01  0.1000E+01
    -11.187  0.0000E+00  0.0000E+00  0.1000E+01  0.1000E+01
    -11.033  0.0000E+00  0.0000E+00  0.1000E+01  0.1000E+01
    -10.879  0.0000E+00  0.0000E+00  0.1000E+01  0.1000E+01
    -10.726  0.0000E+00  0.0000E+00  0.1000E+01  0.1000E+01
    -10.572  0.0000E+00  0.0000E+00  0.1000E+01  0.1000E+01
    -10.418  0.0000E+00  0.0000E+00  0.1000E+01  0.1000E+01
    -10.265  0.0000E+00  0.0000E+00  0.1000E+01  0.1000E+01
    -10.111  0.0000E+00  0.0000E+00  0.1000E+01  0.1000E+01
     -9.957  0.1266E-03  0.1279E-03  0.1000E+01  0.1000E+01
     -9.804  0.3462E-02  0.3497E-02  0.1001E+01  0.1001E+01
     -9.650  0.7319E-01  0.7390E-01  0.1012E+01  0.1012E+01
     -9.496  0.1150E+01  0.1158E+01  0.1189E+01  0.1190E+01
     -9.342  0.5126E+01  0.5137E+01  0.1976E+01  0.1980E+01
     -9.189  0.6342E+01  0.6341E+01  0.2951E+01  0.2954E+01
     -9.035  0.5497E+01  0.5486E+01  0.3797E+01  0.3799E+01
     -8.881  0.1229E+01  0.1219E+01  0.3988E+01  0.3988E+01
     -8.728  0.5809E-01  0.5676E-01  0.4000E+01  0.4000E+01
     -8.574  0.0000E+00  0.0000E+00  0.4000E+01  0.4000E+01
     -8.420  0.0000E+00  0.0000E+00  0.4000E+01  0.4000E+01
     -8.267  0.0000E+00  0.0000E+00  0.4000E+01  0.4000E+01
     -8.113  0.0000E+00  0.0000E+00  0.4000E+01  0.4000E+01
     -7.959  0.0000E+00  0.0000E+00  0.4000E+01  0.4000E+01
     -7.805  0.0000E+00  0.0000E+00  0.4000E+01  0.4000E+01
     -7.652  0.0000E+00  0.0000E+00  0.4000E+01  0.4000E+01
     -7.498  0.0000E+00  0.0000E+00  0.4000E+01  0.4000E+01
     -7.344  0.0000E+00  0.0000E+00  0.4000E+01  0.4000E+01
     -7.191  0.0000E+00  0.0000E+00  0.4000E+01  0.4000E+01
     -7.037  0.0000E+00  0.0000E+00  0.4000E+01  0.4000E+01
     -6.883  0.0000E+00  0.0000E+00  0.4000E+01  0.4000E+01
     -6.730  0.0000E+00  0.0000E+00  0.4000E+01  0.4000E+01
     -6.576  0.0000E+00  0.0000E+00  0.4000E+01  0.4000E+01
     -6.422  0.0000E+00  0.0000E+00  0.4000E+01  0.4000E+01
     -6.268  0.0000E+00  0.0000E+00  0.4000E+01  0.4000E+01
     -6.115  0.0000E+00  0.0000E+00  0.4000E+01  0.4000E+01
     -5.961  0.0000E+00  0.0000E+00  0.4000E+01  0.4000E+01
     -5.807  0.0000E+00  0.0000E+00  0.4000E+01  0.4000E+01
     -5.654  0.0000E+00  0.0000E+00  0.4000E+01  0.4000E+01
     -5.500  0.0000E+00  0.0000E+00  0.4000E+01  0.4000E+01
     -5.346  0.0000E+00  0.0000E+00  0.4000E+01  0.4000E+01
     -5.193  0.0000E+00  0.0000E+00  0.4000E+01  0.4000E+01
     -5.039  0.0000E+00  0.0000E+00  0.4000E+01  0.4000E+01
     -4.885  0.0000E+00  0.0000E+00  0.4000E+01  0.4000E+01
     -4.732  0.0000E+00  0.0000E+00  0.4000E+01  0.4000E+01
     -4.578  0.0000E+00  0.0000E+00  0.4000E+01  0.4000E+01
     -4.424  0.0000E+00  0.0000E+00  0.4000E+01  0.4000E+01
     -4.270  0.0000E+00  0.0000E+00  0.4000E+01  0.4000E+01
     -4.117  0.0000E+00  0.0000E+00  0.4000E+01  0.4000E+01
     -3.963  0.0000E+00  0.0000E+00  0.4000E+01  0.4000E+01
     -3.809  0.0000E+00  0.0000E+00  0.4000E+01  0.4000E+01
     -3.656  0.0000E+00  0.0000E+00  0.4000E+01  0.4000E+01
     -3.502  0.0000E+00  0.0000E+00  0.4000E+01  0.4000E+01
     -3.348  0.0000E+00  0.0000E+00  0.4000E+01  0.4000E+01
     -3.195  0.0000E+00  0.0000E+00  0.4000E+01  0.4000E+01
     -3.041  0.0000E+00  0.0000E+00  0.4000E+01  0.4000E+01
     -2.887  0.0000E+00  0.0000E+00  0.4000E+01  0.4000E+01
     -2.733  0.2593E-05  0.2635E-05  0.4000E+01  0.4000E+01
     -2.580  0.5580E-04  0.5672E-04  0.4000E+01  0.4000E+01
     -2.426  0.1155E-02  0.1173E-02  0.4000E+01  0.4000E+01
     -2.272  0.1452E-01  0.1467E-01  0.4002E+01  0.4002E+01
     -2.119  0.5094E-01  0.5110E-01  0.4010E+01  0.4010E+01
     -1.965  0.8486E-01  0.8511E-01  0.4023E+01  0.4023E+01
     -1.811  0.1034E+00  0.1033E+00  0.4039E+01  0.4039E+01
     -1.658  0.1338E+00  0.1341E+00  0.4060E+01  0.4060E+01
     -1.504  0.1547E+00  0.1547E+00  0.4084E+01  0.4084E+01
     -1.350  0.1722E+00  0.1722E+00  0.4110E+01  0.4110E+01
     -1.196  0.1849E+00  0.1853E+00  0.4139E+01  0.4139E+01
     -1.043  0.2461E+00  0.2461E+00  0.4176E+01  0.4177E+01
     -0.889  0.2249E+00  0.2246E+00  0.4211E+01  0.4211E+01
     -0.735  0.2526E+00  0.2532E+00  0.4250E+01  0.4250E+01
     -0.582  0.3321E+00  0.3322E+00  0.4301E+01  0.4301E+01
     -0.428  0.3289E+00  0.3288E+00  0.4352E+01  0.4352E+01
     -0.274  0.3680E+00  0.3680E+00  0.4408E+01  0.4409E+01
     -0.121  0.4159E+00  0.4166E+00  0.4472E+01  0.4473E+01
      0.033  0.6014E+00  0.6017E+00  0.4565E+01  0.4565E+01
      0.187  0.6058E+00  0.6059E+00  0.4658E+01  0.4659E+01
      0.341  0.6371E+00  0.6370E+00  0.4756E+01  0.4757E+01
      0.494  0.5248E+00  0.5244E+00  0.4837E+01  0.4838E+01
      0.648  0.3667E+00  0.3662E+00  0.4894E+01  0.4894E+01
      0.802  0.3491E+00  0.3491E+00  0.4948E+01  0.4948E+01
      0.955  0.2897E+00  0.2898E+00  0.4993E+01  0.4993E+01
      1.109  0.2329E+00  0.2324E+00  0.5029E+01  0.5029E+01
      1.263  0.2558E+00  0.2563E+00  0.5068E+01  0.5068E+01
      1.416  0.2869E+00  0.2871E+00  0.5112E+01  0.5112E+01
      1.570  0.3432E+00  0.3435E+00  0.5165E+01  0.5165E+01
      1.724  0.4075E+00  0.4078E+00  0.5228E+01  0.5228E+01
      1.878  0.3790E+00  0.3783E+00  0.5286E+01  0.5286E+01
      2.031  0.3842E+00  0.3852E+00  0.5345E+01  0.5346E+01
      2.185  0.6502E+00  0.6519E+00  0.5445E+01  0.5446E+01
      2.339  0.8890E+00  0.8896E+00  0.5582E+01  0.5583E+01
      2.492  0.9966E+00  0.9968E+00  0.5735E+01  0.5736E+01
      2.646  0.9417E+00  0.9407E+00  0.5880E+01  0.5881E+01
      2.800  0.7314E+00  0.7306E+00  0.5993E+01  0.5994E+01
      2.953  0.7325E+00  0.7332E+00  0.6106E+01  0.6107E+01
      3.107  0.8432E+00  0.8437E+00  0.6236E+01  0.6237E+01
      3.261  0.6925E+00  0.6910E+00  0.6343E+01  0.6343E+01
      3.415  0.5430E+00  0.5427E+00  0.6426E+01  0.6427E+01
      3.568  0.4896E+00  0.4891E+00  0.6502E+01  0.6502E+01
      3.722  0.5383E+00  0.5399E+00  0.6585E+01  0.6586E+01
      3.876  0.6205E+00  0.6201E+00  0.6681E+01  0.6681E+01
      4.029  0.5427E+00  0.5422E+00  0.6764E+01  0.6764E+01
      4.183  0.5134E+00  0.5144E+00  0.6843E+01  0.6844E+01
      4.337  0.6291E+00  0.6292E+00  0.6940E+01  0.6941E+01
      4.490  0.7737E+00  0.7754E+00  0.7059E+01  0.7060E+01
      4.644  0.8198E+00  0.8184E+00  0.7186E+01  0.7186E+01
      4.798  0.6069E+00  0.6063E+00  0.7279E+01  0.7280E+01
      4.952  0.5836E+00  0.5847E+00  0.7369E+01  0.7370E+01
      5.105  0.7579E+00  0.7585E+00  0.7486E+01  0.7487E+01
      5.259  0.8244E+00  0.8247E+00  0.7613E+01  0.7614E+01
      5.413  0.9818E+00  0.9837E+00  0.7764E+01  0.7765E+01
      5.566  0.1219E+01  0.1220E+01  0.7951E+01  0.7953E+01
      5.720  0.1368E+01  0.1369E+01  0.8162E+01  0.8163E+01
      5.874  0.1789E+01  0.1792E+01  0.8437E+01  0.8439E+01
      6.027  0.1995E+01  0.1993E+01  0.8744E+01  0.8746E+01
      6.181  0.1334E+01  0.1329E+01  0.8950E+01  0.8951E+01
      6.335  0.9940E+00  0.9933E+00  0.9103E+01  0.9104E+01
      6.489  0.7895E+00  0.7877E+00  0.9225E+01  0.9226E+01
      6.642  0.7699E+00  0.7716E+00  0.9344E+01  0.9345E+01
      6.796  0.7605E+00  0.7585E+00  0.9461E+01  0.9462E+01
      6.950  0.5180E+00  0.5176E+00  0.9541E+01  0.9541E+01
      7.103  0.6135E+00  0.6144E+00  0.9635E+01  0.9636E+01
      7.257  0.6165E+00  0.6164E+00  0.9730E+01  0.9731E+01
      7.411  0.7172E+00  0.7180E+00  0.9841E+01  0.9841E+01
      7.564  0.5878E+00  0.5851E+00  0.9931E+01  0.9932E+01
      7.718  0.5057E+00  0.5065E+00  0.1001E+02  0.1001E+02
      7.872  0.6607E+00  0.6615E+00  0.1011E+02  0.1011E+02
      8.025  0.6579E+00  0.6564E+00  0.1021E+02  0.1021E+02
      8.179  0.5413E+00  0.5415E+00  0.1030E+02  0.1030E+02
      8.333  0.7652E+00  0.7673E+00  0.1041E+02  0.1041E+02
      8.487  0.8046E+00  0.8028E+00  0.1054E+02  0.1054E+02
      8.640  0.7248E+00  0.7266E+00  0.1065E+02  0.1065E+02
      8.794  0.1016E+01  0.1017E+01  0.1081E+02  0.1081E+02
      8.948  0.1100E+01  0.1100E+01  0.1097E+02  0.1098E+02
      9.101  0.9376E+00  0.9361E+00  0.1112E+02  0.1112E+02
      9.255  0.8009E+00  0.8007E+00  0.1124E+02  0.1124E+02
      9.409  0.8636E+00  0.8645E+00  0.1138E+02  0.1138E+02
      9.562  0.1090E+01  0.1090E+01  0.1154E+02  0.1154E+02
      9.716  0.7929E+00  0.7911E+00  0.1167E+02  0.1167E+02
      9.870  0.6736E+00  0.6730E+00  0.1177E+02  0.1177E+02
     10.024  0.7407E+00  0.7419E+00  0.1188E+02  0.1188E+02
     10.177  0.7895E+00  0.7891E+00  0.1201E+02  0.1201E+02
     10.331  0.8070E+00  0.8076E+00  0.1213E+02  0.1213E+02
     10.485  0.7194E+00  0.7188E+00  0.1224E+02  0.1224E+02
     10.638  0.8819E+00  0.8832E+00  0.1238E+02  0.1238E+02
     10.792  0.9134E+00  0.9138E+00  0.1252E+02  0.1252E+02
     10.946  0.1137E+01  0.1138E+01  0.1269E+02  0.1269E+02
     11.099  0.1226E+01  0.1226E+01  0.1288E+02  0.1288E+02
     11.253  0.1186E+01  0.1186E+01  0.1306E+02  0.1306E+02
     11.407  0.1304E+01  0.1305E+01  0.1326E+02  0.1327E+02
     11.561  0.1350E+01  0.1350E+01  0.1347E+02  0.1347E+02
     11.714  0.1222E+01  0.1222E+01  0.1366E+02  0.1366E+02
     11.868  0.1150E+01  0.1149E+01  0.1384E+02  0.1384E+02
     12.022  0.1465E+01  0.1466E+01  0.1406E+02  0.1406E+02
     12.175  0.1239E+01  0.1240E+01  0.1425E+02  0.1426E+02
     12.329  0.1265E+01  0.1263E+01  0.1445E+02  0.1445E+02
     12.483  0.1069E+01  0.1068E+01  0.1461E+02  0.1462E+02
     12.636  0.1061E+01  0.1064E+01  0.1478E+02  0.1478E+02
     12.790  0.1142E+01  0.1139E+01  0.1495E+02  0.1495E+02
     12.944  0.1384E+01  0.1371E+01  0.1517E+02  0.1517E+02
     13.098  0.1052E+01  0.1037E+01  0.1533E+02  0.1532E+02
     13.251  0.1138E+01  0.1163E+01  0.1550E+02  0.1550E+02
     13.405  0.1176E+01  0.1172E+01  0.1569E+02  0.1568E+02
     13.559  0.6337E+00  0.6357E+00  0.1578E+02  0.1578E+02
     13.712  0.3558E+00  0.3590E+00  0.1584E+02  0.1584E+02
     13.866  0.1905E+00  0.1869E+00  0.1587E+02  0.1587E+02
     14.020  0.2138E+00  0.2160E+00  0.1590E+02  0.1590E+02
     14.173  0.1933E+00  0.1925E+00  0.1593E+02  0.1593E+02
     14.327  0.6578E-01  0.6617E-01  0.1594E+02  0.1594E+02
     14.481  0.4755E-01  0.4537E-01  0.1595E+02  0.1595E+02
     14.635  0.8021E-01  0.7224E-01  0.1596E+02  0.1596E+02
     14.788  0.1238E+00  0.1239E+00  0.1598E+02  0.1598E+02
     14.942  0.7359E-01  0.8228E-01  0.1599E+02  0.1599E+02
     15.096  0.2528E-01  0.2589E-01  0.1599E+02  0.1599E+02
     15.249  0.2921E-01  0.2990E-01  0.1600E+02  0.1600E+02
     15.403  0.4627E-02  0.4991E-02  0.1600E+02  0.1600E+02
     15.557  0.0000E+00  0.0000E+00  0.1600E+02  0.1600E+02
     15.710  0.0000E+00  0.0000E+00  0.1600E+02  0.1600E+02
     15.864  0.0000E+00  0.0000E+00  0.1600E+02  0.1600E+02
     16.018  0.0000E+00  0.0000E+00  0.1600E+02  0.1600E+02
     16.172  0.0000E+00  0.0000E+00  0.1600E+02  0.1600E+02
     16.325  0.0000E+00  0.0000E+00  0.1600E+02  0.1600E+02
     16.479  0.0000E+00  0.0000E+00  0.1600E+02  0.1600E+02
     16.633  0.0000E+00  0.0000E+00  0.1600E+02  0.1600E+02
     16.786  0.0000E+00  0.0000E+00  0.1600E+02  0.1600E+02
     16.940  0.0000E+00  0.0000E+00  0.1600E+02  0.1600E+02
     17.094  0.0000E+00  0.0000E+00  0.1600E+02  0.1600E+02
     17.247  0.0000E+00  0.0000E+00  0.1600E+02  0.1600E+02
     17.24742976    -28.86223505  301      6.86814171      1.00000000
    -28.862  0.0000E+00  0.0000E+00  0.0000E+00  0.0000E+00  0.0000E+00  0.0000E+00  0.0000E+00  0.0000E+00  0.0000E+00  0.0000E+00  0.0000E+00  0.0000E+00  0.0000E+00  0.0000E+00  0.0000E+00  0.0000E+00  0.0000E+00  0.0000E+00
    -28.709  0.0000E+00  0.0000E+00  0.0000E+00  0.0000E+00  0.0000E+00  0.0000E+00  0.0000E+00  0.0000E+00  0.0000E+00  0.0000E+00  0.0000E+00  0.0000E+00  0.0000E+00  0.0000E+00  0.0000E+00  0.0000E+00  0.0000E+00  0.0000E+00
    -28.555  0.0000E+00  0.0000E+00  0.0000E+00  0.0000E+00  0.0000E+00  0.0000E+00  0.0000E+00  0.0000E+00  0.0000E+00  0.0000E+00  0.0000E+00  0.0000E+00  0.0000E+00  0.0000E+00  0.0000E+00  0.0000E+00  0.0000E+00  0.0000E+00
    -28.401  0.0000E+00  0.0000E+00  0.0000E+00  0.0000E+00  0.0000E+00  0.0000E+00  0.0000E+00  0.0000E+00  0.0000E+00  0.0000E+00  0.0000E+00  0.0000E+00  0.0000E+00  0.0000E+00  0.0000E+00  0.0000E+00  0.0000E+00  0.0000E+00
    -28.247  0.0000E+00  0.0000E+00  0.0000E+00  0.0000E+00  0.0000E+00  0.0000E+00  0.0000E+00  0.0000E+00  0.0000E+00  0.0000E+00  0.0000E+00  0.0000E+00  0.0000E+00  0.0000E+00  0.0000E+00  0.0000E+00  0.0000E+00  0.0000E+00
    -28.094  0.0000E+00  0.0000E+00  0.0000E+00  0.0000E+00  0.0000E+00  0.0000E+00  0.0000E+00  0.0000E+00  0.0000E+00  0.0000E+00  0.0000E+00  0.0000E+00  0.0000E+00  0.0000E+00  0.0000E+00  0.0000E+00  0.0000E+00  0.0000E+00
    -27.940  0.0000E+00  0.0000E+00  0.0000E+00  0.0000E+00  0.0000E+00  0.0000E+00  0.0000E+00  0.0000E+00  0.0000E+00  0.0000E+00  0.0000E+00  0.0000E+00  0.0000E+00  0.0000E+00  0.0000E+00  0.0000E+00  0.0000E+00  0.0000E+00
    -27.786  0.0000E+00  0.0000E+00  0.0000E+00  0.0000E+00  0.0000E+00  0.0000E+00  0.0000E+00  0.0000E+00  0.0000E+00  0.0000E+00  0.0000E+00  0.0000E+00  0.0000E+00  0.0000E+00  0.0000E+00  0.0000E+00  0.0000E+00  0.0000E+00
    -27.633  0.0000E+00  0.0000E+00  0.0000E+00  0.0000E+00  0.0000E+00  0.0000E+00  0.0000E+00  0.0000E+00  0.0000E+00  0.0000E+00  0.0000E+00  0.0000E+00  0.0000E+00  0.0000E+00  0.0000E+00  0.0000E+00  0.0000E+00  0.0000E+00
    -27.479  0.0000E+00  0.0000E+00  0.0000E+00  0.0000E+00  0.0000E+00  0.0000E+00  0.0000E+00  0.0000E+00  0.0000E+00  0.0000E+00  0.0000E+00  0.0000E+00  0.0000E+00  0.0000E+00  0.0000E+00  0.0000E+00  0.0000E+00  0.0000E+00
    -27.325  0.0000E+00  0.0000E+00  0.0000E+00  0.0000E+00  0.0000E+00  0.0000E+00  0.0000E+00  0.0000E+00  0.0000E+00  0.0000E+00  0.0000E+00  0.0000E+00  0.0000E+00  0.0000E+00  0.0000E+00  0.0000E+00  0.0000E+00  0.0000E+00
    -27.172  0.1254E-02  0.1268E-02  0.3709E-09  0.3752E-09  0.3709E-09  0.3752E-09  0.3737E-09  0.3781E-09  0.1413E-12  0.2003E-12  0.1383E-12  0.2002E-12  0.1907E-09  0.1909E-09  0.1413E-12  0.2003E-12  0.1955E-09  0.1957E-09
    -27.018  0.2575E-01  0.2604E-01  0.7618E-08  0.7706E-08  0.7618E-08  0.7706E-08  0.7676E-08  0.7764E-08  0.2901E-11  0.4114E-11  0.2841E-11  0.4113E-11  0.3918E-08  0.3920E-08  0.2901E-11  0.4114E-11  0.4015E-08  0.4020E-08
    -26.864  0.5088E+00  0.5140E+00  0.1505E-06  0.1521E-06  0.1505E-06  0.1521E-06  0.1516E-06  0.1532E-06  0.5730E-10  0.8133E-10  0.5611E-10  0.8130E-10  0.7757E-07  0.7755E-07  0.5730E-10  0.8133E-10  0.7939E-07  0.7942E-07
    -26.710  0.3664E+01  0.3674E+01  0.1080E-05  0.1084E-05  0.1080E-05  0.1084E-05  0.1089E-05  0.1092E-05  0.4101E-09  0.5859E-09  0.4013E-09  0.5858E-09  0.5653E-06  0.5606E-06  0.4101E-09  0.5859E-09  0.5727E-06  0.5682E-06
    -26.557  0.1989E+01  0.1975E+01  0.5820E-06  0.5781E-06  0.5820E-06  0.5781E-06  0.5865E-06  0.5825E-06  0.2189E-09  0.3158E-09  0.2140E-09  0.3158E-09  0.3082E-06  0.3023E-06  0.2189E-09  0.3158E-09  0.3079E-06  0.3022E-06
    -26.403  0.1399E+00  0.1384E+00  0.4075E-07  0.4032E-07  0.4075E-07  0.4032E-07  0.4106E-07  0.4063E-07  0.1524E-10  0.2208E-10  0.1490E-10  0.2208E-10  0.2161E-07  0.2111E-07  0.1524E-10  0.2208E-10  0.2148E-07  0.2099E-07
    -26.249  0.0000E+00  0.0000E+00  0.0000E+00  0.0000E+00  0.0000E+00  0.0000E+00  0.0000E+00  0.0000E+00  0.0000E+00  0.0000E+00  0.0000E+00  0.0000E+00  0.0000E+00  0.0000E+00  0.0000E+00  0.0000E+00  0.0000E+00  0.0000E+00
    -26.096  0.0000E+00  0.0000E+00  0.0000E+00  0.0000E+00  0.0000E+00  0.0000E+00  0.0000E+00  0.0000E+00  0.0000E+00  0.0000E+00  0.0000E+00  0.0000E+00  0.0000E+00  0.0000E+00  0.0000E+00  0.0000E+00  0.0000E+00  0.0000E+00
    -25.942  0.0000E+00  0.0000E+00  0.0000E+00  0.0000E+00  0.0000E+00  0.0000E+00  0.0000E+00  0.0000E+00  0.0000E+00  0.0000E+00  0.0000E+00  0.0000E+00  0.0000E+00  0.0000E+00  0.0000E+00  0.0000E+00  0.0000E+00  0.0000E+00
    -25.788  0.0000E+00  0.0000E+00  0.0000E+00  0.0000E+00  0.0000E+00  0.0000E+00  0.0000E+00  0.0000E+00  0.0000E+00  0.0000E+00  0.0000E+00  0.0000E+00  0.0000E+00  0.0000E+00  0.0000E+00  0.0000E+00  0.0000E+00  0.0000E+00
    -25.635  0.0000E+00  0.0000E+00  0.0000E+00  0.0000E+00  0.0000E+00  0.0000E+00  0.0000E+00  0.0000E+00  0.0000E+00  0.0000E+00  0.0000E+00  0.0000E+00  0.0000E+00  0.0000E+00  0.0000E+00  0.0000E+00  0.0000E+00  0.0000E+00
    -25.481  0.0000E+00  0.0000E+00  0.0000E+00  0.0000E+00  0.0000E+00  0.0000E+00  0.0000E+00  0.0000E+00  0.0000E+00  0.0000E+00  0.0000E+00  0.0000E+00  0.0000E+00  0.0000E+00  0.0000E+00  0.0000E+00  0.0000E+00  0.0000E+00
    -25.327  0.0000E+00  0.0000E+00  0.0000E+00  0.0000E+00  0.0000E+00  0.0000E+00  0.0000E+00  0.0000E+00  0.0000E+00  0.0000E+00  0.0000E+00  0.0000E+00  0.0000E+00  0.0000E+00  0.0000E+00  0.0000E+00  0.0000E+00  0.0000E+00
    -25.173  0.0000E+00  0.0000E+00  0.0000E+00  0.0000E+00  0.0000E+00  0.0000E+00  0.0000E+00  0.0000E+00  0.0000E+00  0.0000E+00  0.0000E+00  0.0000E+00  0.0000E+00  0.0000E+00  0.0000E+00  0.0000E+00  0.0000E+00  0.0000E+00
    -25.020  0.0000E+00  0.0000E+00  0.0000E+00  0.0000E+00  0.0000E+00  0.0000E+00  0.0000E+00  0.0000E+00  0.0000E+00  0.0000E+00  0.0000E+00  0.0000E+00  0.0000E+00  0.0000E+00  0.0000E+00  0.0000E+00  0.0000E+00  0.0000E+00
    -24.866  0.0000E+00  0.0000E+00  0.0000E+00  0.0000E+00  0.0000E+00  0.0000E+00  0.0000E+00  0.0000E+00  0.0000E+00  0.0000E+00  0.0000E+00  0.0000E+00  0.0000E+00  0.0000E+00  0.0000E+00  0.0000E+00  0.0000E+00  0.0000E+00
    -24.712  0.0000E+00  0.0000E+00  0.0000E+00  0.0000E+00  0.0000E+00  0.0000E+00  0.0000E+00  0.0000E+00  0.0000E+00  0.0000E+00  0.0000E+00  0.0000E+00  0.0000E+00  0.0000E+00  0.0000E+00  0.0000E+00  0.0000E+00  0.0000E+00
    -24.559  0.0000E+00  0.0000E+00  0.0000E+00  0.0000E+00  0.0000E+00  0.0000E+00  0.0000E+00  0.0000E+00  0.0000E+00  0.0000E+00  0.0000E+00  0.0000E+00  0.0000E+00  0.0000E+00  0.0000E+00  0.0000E+00  0.0000E+00  0.0000E+00
    -24.405  0.0000E+00  0.0000E+00  0.0000E+00  0.0000E+00  0.0000E+00  0.0000E+00  0.0000E+00  0.0000E+00  0.0000E+00  0.0000E+00  0.0000E+00  0.0000E+00  0.0000E+00  0.0000E+00  0.0000E+00  0.0000E+00  0.0000E+00  0.0000E+00
    -24.251  0.0000E+00  0.0000E+00  0.0000E+00  0.0000E+00  0.0000E+00  0.0000E+00  0.0000E+00  0.0000E+00  0.0000E+00  0.0000E+00  0.0000E+00  0.0000E+00  0.0000E+00  0.0000E+00  0.0000E+00  0.0000E+00  0.0000E+00  0.0000E+00
    -24.098  0.0000E+00  0.0000E+00  0.0000E+00  0.0000E+00  0.0000E+00  0.0000E+00  0.0000E+00  0.0000E+00  0.0000E+00  0.0000E+00  0.0000E+00  0.0000E+00  0.0000E+00  0.0000E+00  0.0000E+00  0.0000E+00  0.0000E+00  0.0000E+00
    -23.944  0.0000E+00  0.0000E+00  0.0000E+00  0.0000E+00  0.0000E+00  0.0000E+00  0.0000E+00  0.0000E+00  0.0000E+00  0.0000E+00  0.0000E+00  0.0000E+00  0.0000E+00  0.0000E+00  0.0000E+00  0.0000E+00  0.0000E+00  0.0000E+00
    -23.790  0.0000E+00  0.0000E+00  0.0000E+00  0.0000E+00  0.0000E+00  0.0000E+00  0.0000E+00  0.0000E+00  0.0000E+00  0.0000E+00  0.0000E+00  0.0000E+00  0.0000E+00  0.0000E+00  0.0000E+00  0.0000E+00  0.0000E+00  0.0000E+00
    -23.636  0.0000E+00  0.0000E+00  0.0000E+00  0.0000E+00  0.0000E+00  0.0000E+00  0.0000E+00  0.0000E+00  0.0000E+00  0.0000E+00  0.0000E+00  0.0000E+00  0.0000E+00  0.0000E+00  0.0000E+00  0.0000E+00  0.0000E+00  0.0000E+00
    -23.483  0.0000E+00  0.0000E+00  0.0000E+00  0.0000E+00  0.0000E+00  0.0000E+00  0.0000E+00  0.0000E+00  0.0000E+00  0.0000E+00  0.0000E+00  0.0000E+00  0.0000E+00  0.0000E+00  0.0000E+00  0.0000E+00  0.0000E+00  0.0000E+00
    -23.329  0.0000E+00  0.0000E+00  0.0000E+00  0.0000E+00  0.0000E+00  0.0000E+00  0.0000E+00  0.0000E+00  0.0000E+00  0.0000E+00  0.0000E+00  0.0000E+00  0.0000E+00  0.0000E+00  0.0000E+00  0.0000E+00  0.0000E+00  0.0000E+00
    -23.175  0.0000E+00  0.0000E+00  0.0000E+00  0.0000E+00  0.0000E+00  0.0000E+00  0.0000E+00  0.0000E+00  0.0000E+00  0.0000E+00  0.0000E+00  0.0000E+00  0.0000E+00  0.0000E+00  0.0000E+00  0.0000E+00  0.0000E+00  0.0000E+00
    -23.022  0.0000E+00  0.0000E+00  0.0000E+00  0.0000E+00  0.0000E+00  0.0000E+00  0.0000E+00  0.0000E+00  0.0000E+00  0.0000E+00  0.0000E+00  0.0000E+00  0.0000E+00  0.0000E+00  0.0000E+00  0.0000E+00  0.0000E+00  0.0000E+00
    -22.868  0.0000E+00  0.0000E+00  0.0000E+00  0.0000E+00  0.0000E+00  0.0000E+00  0.0000E+00  0.0000E+00  0.0000E+00  0.0000E+00  0.0000E+00  0.0000E+00  0.0000E+00  0.0000E+00  0.0000E+00  0.0000E+00  0.0000E+00  0.0000E+00
    -22.714  0.0000E+00  0.0000E+00  0.0000E+00  0.0000E+00  0.0000E+00  0.0000E+00  0.0000E+00  0.0000E+00  0.0000E+00  0.0000E+00  0.0000E+00  0.0000E+00  0.0000E+00  0.0000E+00  0.0000E+00  0.0000E+00  0.0000E+00  0.0000E+00
    -22.561  0.0000E+00  0.0000E+00  0.0000E+00  0.0000E+00  0.0000E+00  0.0000E+00  0.0000E+00  0.0000E+00  0.0000E+00  0.0000E+00  0.0000E+00  0.0000E+00  0.0000E+00  0.0000E+00  0.0000E+00  0.0000E+00  0.0000E+00  0.0000E+00
    -22.407  0.0000E+00  0.0000E+00  0.0000E+00  0.0000E+00  0.0000E+00  0.0000E+00  0.0000E+00  0.0000E+00  0.0000E+00  0.0000E+00  0.0000E+00  0.0000E+00  0.0000E+00  0.0000E+00  0.0000E+00  0.0000E+00  0.0000E+00  0.0000E+00
    -22.253  0.0000E+00  0.0000E+00  0.0000E+00  0.0000E+00  0.0000E+00  0.0000E+00  0.0000E+00  0.0000E+00  0.0000E+00  0.0000E+00  0.0000E+00  0.0000E+00  0.0000E+00  0.0000E+00  0.0000E+00  0.0000E+00  0.0000E+00  0.0000E+00
    -22.099  0.0000E+00  0.0000E+00  0.0000E+00  0.0000E+00  0.0000E+00  0.0000E+00  0.0000E+00  0.0000E+00  0.0000E+00  0.0000E+00  0.0000E+00  0.0000E+00  0.0000E+00  0.0000E+00  0.0000E+00  0.0000E+00  0.0000E+00  0.0000E+00
    -21.946  0.0000E+00  0.0000E+00  0.0000E+00  0.0000E+00  0.0000E+00  0.0000E+00  0.0000E+00  0.0000E+00  0.0000E+00  0.0000E+00  0.0000E+00  0.0000E+00  0.0000E+00  0.0000E+00  0.0000E+00  0.0000E+00  0.0000E+00  0.0000E+00
    -21.792  0.0000E+00  0.0000E+00  0.0000E+00  0.0000E+00  0.0000E+00  0.0000E+00  0.0000E+00  0.0000E+00  0.0000E+00  0.0000E+00  0.0000E+00  0.0000E+00  0.0000E+00  0.0000E+00  0.0000E+00  0.0000E+00  0.0000E+00  0.0000E+00
    -21.638  0.0000E+00  0.0000E+00  0.0000E+00  0.0000E+00  0.0000E+00  0.0000E+00  0.0000E+00  0.0000E+00  0.0000E+00  0.0000E+00  0.0000E+00  0.0000E+00  0.0000E+00  0.0000E+00  0.0000E+00  0.0000E+00  0.0000E+00  0.0000E+00
    -21.485  0.0000E+00  0.0000E+00  0.0000E+00  0.0000E+00  0.0000E+00  0.0000E+00  0.0000E+00  0.0000E+00  0.0000E+00  0.0000E+00  0.0000E+00  0.0000E+00  0.0000E+00  0.0000E+00  0.0000E+00  0.0000E+00  0.0000E+00  0.0000E+00
    -21.331  0.0000E+00  0.0000E+00  0.0000E+00  0.0000E+00  0.0000E+00  0.0000E+00  0.0000E+00  0.0000E+00  0.0000E+00  0.0000E+00  0.0000E+00  0.0000E+00  0.0000E+00  0.0000E+00  0.0000E+00  0.0000E+00  0.0000E+00  0.0000E+00
    -21.177  0.0000E+00  0.0000E+00  0.0000E+00  0.0000E+00  0.0000E+00  0.0000E+00  0.0000E+00  0.0000E+00  0.0000E+00  0.0000E+00  0.0000E+00  0.0000E+00  0.0000E+00  0.0000E+00  0.0000E+00  0.0000E+00  0.0000E+00  0.0000E+00