   4   4   1   0
  0.1919988E+02  0.4249680E-09  0.4251099E-09  0.4251099E-09  0.5000000E-15
  1.000000000000000E-004
  CAR 
 unknown system                          
     15.90741109    -29.84477241  301      6.07695732      1.00000000
    -29.845  0.0000E+00  0.0000E+00  0.0000E+00  0.0000E+00
    -29.692  0.0000E+00  0.0000E+00  0.0000E+00  0.0000E+00
    -29.540  0.0000E+00  0.0000E+00  0.0000E+00  0.0000E+00
    -29.387  0.0000E+00  0.0000E+00  0.0000E+00  0.0000E+00
    -29.235  0.0000E+00  0.0000E+00  0.0000E+00  0.0000E+00
    -29.082  0.0000E+00  0.0000E+00  0.0000E+00  0.0000E+00
    -28.930  0.0000E+00  0.0000E+00  0.0000E+00  0.0000E+00
    -28.777  0.0000E+00  0.0000E+00  0.0000E+00  0.0000E+00
    -28.625  0.0000E+00  0.0000E+00  0.0000E+00  0.0000E+00
    -28.472  0.0000E+00  0.0000E+00  0.0000E+00  0.0000E+00
    -28.320  0.0000E+00  0.0000E+00  0.0000E+00  0.0000E+00
    -28.167  0.1609E-02  0.1631E-02  0.2454E-03  0.2487E-03
    -28.015  0.3221E-01  0.3264E-01  0.5158E-02  0.5227E-02
    -27.862  0.6126E+00  0.6200E+00  0.9859E-01  0.9978E-01
    -27.710  0.3921E+01  0.3931E+01  0.6965E+00  0.6993E+00
    -27.557  0.1857E+01  0.1840E+01  0.9797E+00  0.9800E+00
    -27.405  0.1265E+00  0.1249E+00  0.9990E+00  0.9990E+00
    -27.252  0.0000E+00  0.0000E+00  0.1000E+01  0.1000E+01
    -27.100  0.0000E+00  0.0000E+00  0.1000E+01  0.1000E+01
    -26.947  0.0000E+00  0.0000E+00  0.1000E+01  0.1000E+01
    -26.795  0.0000E+00  0.0000E+00  0.1000E+01  0.1000E+01
    -26.642  0.0000E+00  0.0000E+00  0.1000E+01  0.1000E+01
    -26.490  0.0000E+00  0.0000E+00  0.1000E+01  0.1000E+01
    -26.337  0.0000E+00  0.0000E+00  0.1000E+01  0.1000E+01
    -26.185  0.0000E+00  0.0000E+00  0.1000E+01  0.1000E+01
    -26.032  0.0000E+00  0.0000E+00  0.1000E+01  0.1000E+01
    -25.880  0.0000E+00  0.0000E+00  0.1000E+01  0.1000E+01
    -25.727  0.0000E+00  0.0000E+00  0.1000E+01  0.1000E+01
    -25.575  0.0000E+00  0.0000E+00  0.1000E+01  0.1000E+01
    -25.422  0.0000E+00  0.0000E+00  0.1000E+01  0.1000E+01
    -25.270  0.0000E+00  0.0000E+00  0.1000E+01  0.1000E+01
    -25.117  0.0000E+00  0.0000E+00  0.1000E+01  0.1000E+01
    -24.965  0.0000E+00  0.0000E+00  0.1000E+01  0.1000E+01
    -24.812  0.0000E+00  0.0000E+00  0.1000E+01  0.1000E+01
    -24.660  0.0000E+00  0.0000E+00  0.1000E+01  0.1000E+01
    -24.507  0.0000E+00  0.0000E+00  0.1000E+01  0.1000E+01
    -24.355  0.0000E+00  0.0000E+00  0.1000E+01  0.1000E+01
    -24.202  0.0000E+00  0.0000E+00  0.1000E+01  0.1000E+01
    -24.049  0.0000E+00  0.0000E+00  0.1000E+01  0.1000E+01
    -23.897  0.0000E+00  0.0000E+00  0.1000E+01  0.1000E+01
    -23.744  0.0000E+00  0.0000E+00  0.1000E+01  0.1000E+01
    -23.592  0.0000E+00  0.0000E+00  0.1000E+01  0.1000E+01
    -23.439  0.0000E+00  0.0000E+00  0.1000E+01  0.1000E+01
    -23.287  0.0000E+00  0.0000E+00  0.1000E+01  0.1000E+01
    -23.134  0.0000E+00  0.0000E+00  0.1000E+01  0.1000E+01
    -22.982  0.0000E+00  0.0000E+00  0.1000E+01  0.1000E+01
    -22.829  0.0000E+00  0.0000E+00  0.1000E+01  0.1000E+01
    -22.677  0.0000E+00  0.0000E+00  0.1000E+01  0.1000E+01
    -22.524  0.0000E+00  0.0000E+00  0.1000E+01  0.1000E+01
    -22.372  0.0000E+00  0.0000E+00  0.1000E+01  0.1000E+01
    -22.219  0.0000E+00  0.0000E+00  0.1000E+01  0.1000E+01
    -22.067  0.0000E+00  0.0000E+00  0.1000E+01  0.1000E+01
    -21.914  0.0000E+00  0.0000E+00  0.1000E+01  0.1000E+01
    -21.762  0.0000E+00  0.0000E+00  0.1000E+01  0.1000E+01
    -21.609  0.0000E+00  0.0000E+00  0.1000E+01  0.1000E+01
    -21.457  0.0000E+00  0.0000E+00  0.1000E+01  0.1000E+01
    -21.304  0.0000E+00  0.0000E+00  0.1000E+01  0.1000E+01
    -21.152  0.0000E+00  0.0000E+00  0.1000E+01  0.1000E+01
    -20.999  0.0000E+00  0.0000E+00  0.1000E+01  0.1000E+01
    -20.847  0.0000E+00  0.0000E+00  0.1000E+01  0.1000E+01
    -20.694  0.0000E+00  0.0000E+00  0.1000E+01  0.1000E+01
    -20.542  0.0000E+00  0.0000E+00  0.1000E+01  0.1000E+01
    -20.389  0.0000E+00  0.0000E+00  0.1000E+01  0.1000E+01
    -20.237  0.0000E+00  0.0000E+00  0.1000E+01  0.1000E+01
    -20.084  0.0000E+00  0.0000E+00  0.1000E+01  0.1000E+01
    -19.932  0.0000E+00  0.0000E+00  0.1000E+01  0.1000E+01
    -19.779  0.0000E+00  0.0000E+00  0.1000E+01  0.1000E+01
    -19.627  0.0000E+00  0.0000E+00  0.1000E+01  0.1000E+01
    -19.474  0.0000E+00  0.0000E+00  0.1000E+01  0.1000E+01
    -19.322  0.0000E+00  0.0000E+00  0.1000E+01  0.1000E+01
    -19.169  0.0000E+00  0.0000E+00  0.1000E+01  0.1000E+01
    -19.017  0.0000E+00  0.0000E+00  0.1000E+01  0.1000E+01
    -18.864  0.0000E+00  0.0000E+00  0.1000E+01  0.1000E+01
    -18.712  0.0000E+00  0.0000E+00  0.1000E+01  0.1000E+01
    -18.559  0.0000E+00  0.0000E+00  0.1000E+01  0.1000E+01
    -18.407  0.0000E+00  0.0000E+00  0.1000E+01  0.1000E+01
    -18.254  0.0000E+00  0.0000E+00  0.1000E+01  0.1000E+01
    -18.102  0.0000E+00  0.0000E+00  0.1000E+01  0.1000E+01
    -17.949  0.0000E+00  0.0000E+00  0.1000E+01  0.1000E+01
    -17.797  0.0000E+00  0.0000E+00  0.1000E+01  0.1000E+01
    -17.644  0.0000E+00  0.0000E+00  0.1000E+01  0.1000E+01
    -17.492  0.0000E+00  0.0000E+00  0.1000E+01  0.1000E+01
    -17.339  0.0000E+00  0.0000E+00  0.1000E+01  0.1000E+01
    -17.187  0.0000E+00  0.0000E+00  0.1000E+01  0.1000E+01
    -17.034  0.0000E+00  0.0000E+00  0.1000E+01  0.1000E+01
    -16.882  0.0000E+00  0.0000E+00  0.1000E+01  0.1000E+01
    -16.729  0.0000E+00  0.0000E+00  0.1000E+01  0.1000E+01
    -16.577  0.0000E+00  0.0000E+00  0.1000E+01  0.1000E+01
    -16.424  0.0000E+00  0.0000E+00  0.1000E+01  0.1000E+01
    -16.272  0.0000E+00  0.0000E+00  0.1000E+01  0.1000E+01
    -16.119  0.0000E+00  0.0000E+00  0.1000E+01  0.1000E+01
    -15.967  0.0000E+00  0.0000E+00  0.1000E+01  0.1000E+01
    -15.814  0.0000E+00  0.0000E+00  0.1000E+01  0.1000E+01
    -15.662  0.0000E+00  0.0000E+00  0.1000E+01  0.1000E+01
    -15.509  0.0000E+00  0.0000E+00  0.1000E+01  0.1000E+01
    -15.357  0.0000E+00  0.0000E+00  0.1000E+01  0.1000E+01
    -15.204  0.0000E+00  0.0000E+00  0.1000E+01  0.1000E+01
    -15.052  0.0000E+00  0.0000E+00  0.1000E+01  0.1000E+01
    -14.899  0.0000E+00  0.0000E+00  0.1000E+01  0.1000E+01
    -14.747  0.0000E+00  0.0000E+00  0.1000E+01  0.1000E+01
    -14.594  0.0000E+00  0.0000E+00  0.1000E+01  0.1000E+01
    -14.442  0.0000E+00  0.0000E+00  0.1000E+01  0.1000E+01
    -14.289  0.0000E+00  0.0000E+00  0.1000E+01  0.1000E+01
    -14.137  0.0000E+00  0.0000E+00  0.1000E+01  0.1000E+01
    -13.984  0.0000E+00  0.0000E+00  0.1000E+01  0.1000E+01
    -13.832  0.0000E+00  0.0000E+00  0.1000E+01  0.1000E+01
    -13.679  0.0000E+00  0.0000E+00  0.1000E+01  0.1000E+01
    -13.526  0.0000E+00  0.0000E+00  0.1000E+01  0.1000E+01
    -13.374  0.0000E+00  0.0000E+00  0.1000E+01  0.1000E+01
    -13.221  0.0000E+00  0.0000E+00  0.1000E+01  0.1000E+01
    -13.069  0.0000E+00  0.0000E+00  0.1000E+01  0.1000E+01
    -12.916  0.0000E+00  0.0000E+00  0.1000E+01  0.1000E+01
    -12.764  0.0000E+00  0.0000E+00  0.1000E+01  0.1000E+01
    -12.611  0.0000E+00  0.0000E+00  0.1000E+01  0.1000E+01
    -12.459  0.0000E+00  0.0000E+00  0.1000E+01  0.1000E+01
    -12.306  0.0000E+00  0.0000E+00  0.1000E+01  0.1000E+01
    -12.154  0.0000E+00  0.0000E+00  0.1000E+01  0.1000E+01
    -12.001  0.0000E+00  0.0000E+00  0.1000E+01  0.1000E+01
    -11.849  0.0000E+00  0.0000E+00  0.1000E+01  0.1000E+01
    -11.696  0.0000E+00  0.0000E+00  0.1000E+01  0.1000E+01
    -11.544  0.0000E+00  0.0000E+00  0.1000E+01  0.1000E+01
    -11.391  0.0000E+00  0.0000E+00  0.1000E+01  0.1000E+01
    -11.239  0.0000E+00  0.0000E+00  0.1000E+01  0.1000E+01
    -11.086  0.0000E+00  0.0000E+00  0.1000E+01  0.1000E+01
    -10.934  0.0000E+00  0.0000E+00  0.1000E+01  0.1000E+01
    -10.781  0.1657E-03  0.1673E-03  0.1000E+01  0.1000E+01
    -10.629  0.4378E-02  0.4419E-02  0.1001E+01  0.1001E+01
    -10.476  0.9100E-01  0.9181E-01  0.1015E+01  0.1015E+01
    -10.324  0.1481E+01  0.1491E+01  0.1240E+01  0.1242E+01
    -10.171  0.6880E+01  0.6894E+01  0.2290E+01  0.2294E+01
    -10.019  0.8122E+01  0.8114E+01  0.3528E+01  0.3531E+01
     -9.866  0.2859E+01  0.2842E+01  0.3966E+01  0.3966E+01
     -9.714  0.1973E+00  0.1952E+00  0.3998E+01  0.3998E+01
     -9.561  0.0000E+00  0.0000E+00  0.4000E+01  0.4000E+01
     -9.409  0.0000E+00  0.0000E+00  0.4000E+01  0.4000E+01
     -9.256  0.0000E+00  0.0000E+00  0.4000E+01  0.4000E+01
     -9.104  0.0000E+00  0.0000E+00  0.4000E+01  0.4000E+01
     -8.951  0.0000E+00  0.0000E+00  0.4000E+01  0.4000E+01
     -8.799  0.0000E+00  0.0000E+00  0.4000E+01  0.4000E+01
     -8.646  0.0000E+00  0.0000E+00  0.4000E+01  0.4000E+01
     -8.494  0.0000E+00  0.0000E+00  0.4000E+01  0.4000E+01
     -8.341  0.0000E+00  0.0000E+00  0.4000E+01  0.4000E+01
     -8.189  0.0000E+00  0.0000E+00  0.4000E+01  0.4000E+01
     -8.036  0.0000E+00  0.0000E+00  0.4000E+01  0.4000E+01
     -7.884  0.0000E+00  0.0000E+00  0.4000E+01  0.4000E+01
     -7.731  0.0000E+00  0.0000E+00  0.4000E+01  0.4000E+01
     -7.579  0.0000E+00  0.0000E+00  0.4000E+01  0.4000E+01
     -7.426  0.0000E+00  0.0000E+00  0.4000E+01  0.4000E+01
     -7.274  0.0000E+00  0.0000E+00  0.4000E+01  0.4000E+01
     -7.121  0.0000E+00  0.0000E+00  0.4000E+01  0.4000E+01
     -6.969  0.0000E+00  0.0000E+00  0.4000E+01  0.4000E+01
     -6.816  0.0000E+00  0.0000E+00  0.4000E+01  0.4000E+01
     -6.664  0.0000E+00  0.0000E+00  0.4000E+01  0.4000E+01
     -6.511  0.0000E+00  0.0000E+00  0.4000E+01  0.4000E+01
     -6.359  0.0000E+00  0.0000E+00  0.4000E+01  0.4000E+01
     -6.206  0.0000E+00  0.0000E+00  0.4000E+01  0.4000E+01
     -6.054  0.0000E+00  0.0000E+00  0.4000E+01  0.4000E+01
     -5.901  0.0000E+00  0.0000E+00  0.4000E+01  0.4000E+01
     -5.749  0.0000E+00  0.0000E+00  0.4000E+01  0.4000E+01
     -5.596  0.0000E+00  0.0000E+00  0.4000E+01  0.4000E+01
     -5.444  0.0000E+00  0.0000E+00  0.4000E+01  0.4000E+01
     -5.291  0.0000E+00  0.0000E+00  0.4000E+01  0.4000E+01
     -5.139  0.0000E+00  0.0000E+00  0.4000E+01  0.4000E+01
     -4.986  0.0000E+00  0.0000E+00  0.4000E+01  0.4000E+01
     -4.834  0.0000E+00  0.0000E+00  0.4000E+01  0.4000E+01
     -4.681  0.0000E+00  0.0000E+00  0.4000E+01  0.4000E+01
     -4.529  0.0000E+00  0.0000E+00  0.4000E+01  0.4000E+01
     -4.376  0.0000E+00  0.0000E+00  0.4000E+01  0.4000E+01
     -4.224  0.0000E+00  0.0000E+00  0.4000E+01  0.4000E+01
     -4.071  0.0000E+00  0.0000E+00  0.4000E+01  0.4000E+01
     -3.919  0.0000E+00  0.0000E+00  0.4000E+01  0.4000E+01
     -3.766  0.0000E+00  0.0000E+00  0.4000E+01  0.4000E+01
     -3.614  0.0000E+00  0.0000E+00  0.4000E+01  0.4000E+01
     -3.461  0.0000E+00  0.0000E+00  0.4000E+01  0.4000E+01
     -3.309  0.0000E+00  0.0000E+00  0.4000E+01  0.4000E+01
     -3.156  0.2407E-05  0.2449E-05  0.4000E+01  0.4000E+01
     -3.003  0.5156E-04  0.5246E-04  0.4000E+01  0.4000E+01
     -2.851  0.1066E-02  0.1084E-02  0.4000E+01  0.4000E+01
     -2.698  0.1448E-01  0.1465E-01  0.4002E+01  0.4002E+01
     -2.546  0.5653E-01  0.5675E-01  0.4011E+01  0.4011E+01
     -2.393  0.1007E+00  0.1009E+00  0.4026E+01  0.4026E+01
     -2.241  0.1170E+00  0.1171E+00  0.4044E+01  0.4044E+01
     -2.088  0.1641E+00  0.1643E+00  0.4069E+01  0.4069E+01
     -1.936  0.1785E+00  0.1787E+00  0.4097E+01  0.4097E+01
     -1.783  0.1849E+00  0.1850E+00  0.4125E+01  0.4125E+01
     -1.631  0.2541E+00  0.2543E+00  0.4164E+01  0.4164E+01
     -1.478  0.2565E+00  0.2562E+00  0.4203E+01  0.4203E+01
     -1.326  0.2496E+00  0.2501E+00  0.4241E+01  0.4241E+01
     -1.173  0.3496E+00  0.3498E+00  0.4294E+01  0.4295E+01
     -1.021  0.3442E+00  0.3441E+00  0.4347E+01  0.4347E+01
     -0.868  0.3854E+00  0.3857E+00  0.4406E+01  0.4406E+01
     -0.716  0.4436E+00  0.4442E+00  0.4474E+01  0.4474E+01
     -0.563  0.5822E+00  0.5824E+00  0.4563E+01  0.4563E+01
     -0.411  0.5370E+00  0.5368E+00  0.4645E+01  0.4645E+01
     -0.258  0.5581E+00  0.5580E+00  0.4730E+01  0.4730E+01
     -0.106  0.4946E+00  0.4946E+00  0.4806E+01  0.4806E+01
      0.047  0.4684E+00  0.4679E+00  0.4877E+01  0.4877E+01
      0.199  0.4034E+00  0.4035E+00  0.4939E+01  0.4939E+01
      0.352  0.3310E+00  0.3306E+00  0.4990E+01  0.4990E+01
      0.504  0.2812E+00  0.2812E+00  0.5033E+01  0.5033E+01
      0.657  0.3078E+00  0.3082E+00  0.5080E+01  0.5080E+01
      0.809  0.3636E+00  0.3637E+00  0.5135E+01  0.5136E+01
      0.962  0.4172E+00  0.4179E+00  0.5199E+01  0.5199E+01
      1.114  0.4544E+00  0.4539E+00  0.5268E+01  0.5269E+01
      1.267  0.3807E+00  0.3810E+00  0.5326E+01  0.5327E+01
      1.419  0.6284E+00  0.6299E+00  0.5422E+01  0.5423E+01
      1.572  0.8192E+00  0.8196E+00  0.5547E+01  0.5548E+01
      1.724  0.1070E+01  0.1071E+01  0.5711E+01  0.5712E+01
      1.877  0.1055E+01  0.1054E+01  0.5872E+01  0.5872E+01
      2.029  0.8826E+00  0.8816E+00  0.6007E+01  0.6007E+01
      2.182  0.6848E+00  0.6845E+00  0.6111E+01  0.6112E+01
      2.334  0.7839E+00  0.7845E+00  0.6231E+01  0.6232E+01
      2.487  0.7331E+00  0.7325E+00  0.6343E+01  0.6344E+01
      2.639  0.5310E+00  0.5300E+00  0.6425E+01  0.6425E+01
      2.792  0.4746E+00  0.4744E+00  0.6497E+01  0.6498E+01
      2.944  0.5126E+00  0.5136E+00  0.6576E+01  0.6576E+01
      3.097  0.5827E+00  0.5826E+00  0.6665E+01  0.6665E+01
      3.249  0.5283E+00  0.5279E+00  0.6745E+01  0.6746E+01
      3.402  0.4795E+00  0.4801E+00  0.6819E+01  0.6819E+01
      3.554  0.6394E+00  0.6403E+00  0.6916E+01  0.6917E+01
      3.707  0.6951E+00  0.6957E+00  0.7022E+01  0.7023E+01
      3.859  0.8434E+00  0.8436E+00  0.7151E+01  0.7152E+01
      4.012  0.6952E+00  0.6943E+00  0.7258E+01  0.7258E+01
      4.164  0.6081E+00  0.6088E+00  0.7351E+01  0.7351E+01
      4.317  0.7225E+00  0.7232E+00  0.7461E+01  0.7462E+01
      4.469  0.8420E+00  0.8427E+00  0.7590E+01  0.7591E+01
      4.622  0.9911E+00  0.9921E+00  0.7741E+01  0.7742E+01
      4.774  0.1081E+01  0.1082E+01  0.7906E+01  0.7908E+01
      4.927  0.1382E+01  0.1383E+01  0.8117E+01  0.8119E+01
      5.079  0.1641E+01  0.1643E+01  0.8368E+01  0.8370E+01
      5.232  0.1920E+01  0.1920E+01  0.8661E+01  0.8663E+01
      5.384  0.1594E+01  0.1590E+01  0.8905E+01  0.8906E+01
      5.537  0.1101E+01  0.1098E+01  0.9073E+01  0.9074E+01
      5.689  0.8044E+00  0.8028E+00  0.9197E+01  0.9197E+01
      5.842  0.8458E+00  0.8476E+00  0.9326E+01  0.9327E+01
      5.994  0.8210E+00  0.8190E+00  0.9452E+01  0.9452E+01
      6.147  0.5370E+00  0.5358E+00  0.9534E+01  0.9534E+01
      6.299  0.5600E+00  0.5611E+00  0.9620E+01  0.9620E+01
      6.452  0.6690E+00  0.6695E+00  0.9722E+01  0.9723E+01
      6.604  0.7758E+00  0.7761E+00  0.9840E+01  0.9841E+01
      6.757  0.7067E+00  0.7057E+00  0.9948E+01  0.9949E+01
      6.909  0.7232E+00  0.7230E+00  0.1006E+02  0.1006E+02
      7.062  0.7452E+00  0.7462E+00  0.1017E+02  0.1017E+02
      7.214  0.7609E+00  0.7596E+00  0.1029E+02  0.1029E+02
      7.367  0.8515E+00  0.8531E+00  0.1042E+02  0.1042E+02
      7.520  0.8298E+00  0.8287E+00  0.1055E+02  0.1055E+02
      7.672  0.7816E+00  0.7817E+00  0.1067E+02  0.1067E+02
      7.825  0.9820E+00  0.9841E+00  0.1082E+02  0.1082E+02
      7.977  0.1088E+01  0.1088E+01  0.1098E+02  0.1098E+02
      8.130  0.9162E+00  0.9151E+00  0.1112E+02  0.1112E+02
      8.282  0.7684E+00  0.7678E+00  0.1124E+02  0.1124E+02
      8.435  0.8970E+00  0.8991E+00  0.1138E+02  0.1138E+02
      8.587  0.1178E+01  0.1176E+01  0.1156E+02  0.1156E+02
      8.740  0.8069E+00  0.8060E+00  0.1168E+02  0.1168E+02
      8.892  0.7870E+00  0.7865E+00  0.1180E+02  0.1180E+02
      9.045  0.8114E+00  0.8121E+00  0.1192E+02  0.1192E+02
      9.197  0.7900E+00  0.7883E+00  0.1204E+02  0.1204E+02
      9.350  0.7190E+00  0.7201E+00  0.1215E+02  0.1215E+02
      9.502  0.8566E+00  0.8572E+00  0.1229E+02  0.1229E+02
      9.655  0.9701E+00  0.9707E+00  0.1243E+02  0.1243E+02
      9.807  0.1115E+01  0.1117E+01  0.1260E+02  0.1260E+02
      9.960  0.1247E+01  0.1247E+01  0.1279E+02  0.1280E+02
     10.112  0.1381E+01  0.1382E+01  0.1300E+02  0.1301E+02
     10.265  0.1290E+01  0.1291E+01  0.1320E+02  0.1320E+02
     10.417  0.1356E+01  0.1357E+01  0.1341E+02  0.1341E+02
     10.570  0.1475E+01  0.1475E+01  0.1363E+02  0.1364E+02
     10.722  0.1433E+01  0.1429E+01  0.1385E+02  0.1385E+02
     10.875  0.1320E+01  0.1321E+01  0.1406E+02  0.1406E+02
     11.027  0.1337E+01  0.1336E+01  0.1426E+02  0.1426E+02
     11.180  0.1276E+01  0.1277E+01  0.1445E+02  0.1446E+02
     11.332  0.1095E+01  0.1095E+01  0.1462E+02  0.1462E+02
     11.485  0.1188E+01  0.1189E+01  0.1480E+02  0.1480E+02
     11.637  0.1378E+01  0.1380E+01  0.1501E+02  0.1502E+02
     11.790  0.1373E+01  0.1337E+01  0.1522E+02  0.1522E+02
     11.942  0.1138E+01  0.1123E+01  0.1540E+02  0.1539E+02
     12.095  0.1326E+01  0.1326E+01  0.1560E+02  0.1559E+02
     12.247  0.1084E+01  0.1086E+01  0.1577E+02  0.1576E+02
     12.400  0.4962E+00  0.5314E+00  0.1584E+02  0.1584E+02
     12.552  0.1181E+00  0.1282E+00  0.1586E+02  0.1586E+02
     12.705  0.1933E+00  0.1952E+00  0.1589E+02  0.1589E+02
     12.857  0.2470E+00  0.2498E+00  0.1593E+02  0.1593E+02
     13.010  0.7854E-01  0.7068E-01  0.1594E+02  0.1594E+02
     13.162  0.1989E-01  0.1777E-01  0.1594E+02  0.1594E+02
     13.315  0.1023E+00  0.1045E+00  0.1596E+02  0.1596E+02
     13.467  0.1130E+00  0.1190E+00  0.1598E+02  0.1598E+02
     13.620  0.9130E-01  0.8583E-01  0.1599E+02  0.1599E+02
     13.772  0.2464E-01  0.2179E-01  0.1599E+02  0.1599E+02
     13.925  0.2986E-01  0.2970E-01  0.1600E+02  0.1600E+02
     14.077  0.5412E-02  0.5429E-02  0.1600E+02  0.1600E+02
     14.230  0.0000E+00  0.0000E+00  0.1600E+02  0.1600E+02
     14.382  0.0000E+00  0.0000E+00  0.1600E+02  0.1600E+02
     14.535  0.0000E+00  0.0000E+00  0.1600E+02  0.1600E+02
     14.687  0.0000E+00  0.0000E+00  0.1600E+02  0.1600E+02
     14.840  0.0000E+00  0.0000E+00  0.1600E+02  0.1600E+02
     14.992  0.0000E+00  0.0000E+00  0.1600E+02  0.1600E+02
     15.145  0.0000E+00  0.0000E+00  0.1600E+02  0.1600E+02
     15.297  0.0000E+00  0.0000E+00  0.1600E+02  0.1600E+02
     15.450  0.0000E+00  0.0000E+00  0.1600E+02  0.1600E+02
     15.602  0.0000E+00  0.0000E+00  0.1600E+02  0.1600E+02
     15.755  0.0000E+00  0.0000E+00  0.1600E+02  0.1600E+02
     15.907  0.0000E+00  0.0000E+00  0.1600E+02  0.1600E+02
     15.90741109    -29.84477241  301      6.07695732      1.00000000
    -29.845  0.0000E+00  0.0000E+00  0.0000E+00  0.0000E+00  0.0000E+00  0.0000E+00  0.0000E+00  0.0000E+00  0.0000E+00  0.0000E+00  0.0000E+00  0.0000E+00  0.0000E+00  0.0000E+00  0.0000E+00  0.0000E+00  0.0000E+00  0.0000E+00
    -29.692  0.0000E+00  0.0000E+00  0.0000E+00  0.0000E+00  0.0000E+00  0.0000E+00  0.0000E+00  0.0000E+00  0.0000E+00  0.0000E+00  0.0000E+00  0.0000E+00  0.0000E+00  0.0000E+00  0.0000E+00  0.0000E+00  0.0000E+00  0.0000E+00
    -29.540  0.0000E+00  0.0000E+00  0.0000E+00  0.0000E+00  0.0000E+00  0.0000E+00  0.0000E+00  0.0000E+00  0.0000E+00  0.0000E+00  0.0000E+00  0.0000E+00  0.0000E+00  0.0000E+00  0.0000E+00  0.0000E+00  0.0000E+00  0.0000E+00
    -29.387  0.0000E+00  0.0000E+00  0.0000E+00  0.0000E+00  0.0000E+00  0.0000E+00  0.0000E+00  0.0000E+00  0.0000E+00  0.0000E+00  0.0000E+00  0.0000E+00  0.0000E+00  0.0000E+00  0.0000E+00  0.0000E+00  0.0000E+00  0.0000E+00
    -29.235  0.0000E+00  0.0000E+00  0.0000E+00  0.0000E+00  0.0000E+00  0.0000E+00  0.0000E+00  0.0000E+00  0.0000E+00  0.0000E+00  0.0000E+00  0.0000E+00  0.0000E+00  0.0000E+00  0.0000E+00  0.0000E+00  0.0000E+00  0.0000E+00
    -29.082  0.0000E+00  0.0000E+00  0.0000E+00  0.0000E+00  0.0000E+00  0.0000E+00  0.0000E+00  0.0000E+00  0.0000E+00  0.0000E+00  0.0000E+00  0.0000E+00  0.0000E+00  0.0000E+00  0.0000E+00  0.0000E+00  0.0000E+00  0.0000E+00
    -28.930  0.0000E+00  0.0000E+00  0.0000E+00  0.0000E+00  0.0000E+00  0.0000E+00  0.0000E+00  0.0000E+00  0.0000E+00  0.0000E+00  0.0000E+00  0.0000E+00  0.0000E+00  0.0000E+00  0.0000E+00  0.0000E+00  0.0000E+00  0.0000E+00
    -28.777  0.0000E+00  0.0000E+00  0.0000E+00  0.0000E+00  0.0000E+00  0.0000E+00  0.0000E+00  0.0000E+00  0.0000E+00  0.0000E+00  0.0000E+00  0.0000E+00  0.0000E+00  0.0000E+00  0.0000E+00  0.0000E+00  0.0000E+00  0.0000E+00
    -28.625  0.0000E+00  0.0000E+00  0.0000E+00  0.0000E+00  0.0000E+00  0.0000E+00  0.0000E+00  0.0000E+00  0.0000E+00  0.0000E+00  0.0000E+00  0.0000E+00  0.0000E+00  0.0000E+00  0.0000E+00  0.0000E+00  0.0000E+00  0.0000E+00
    -28.472  0.0000E+00  0.0000E+00  0.0000E+00  0.0000E+00  0.0000E+00  0.0000E+00  0.0000E+00  0.0000E+00  0.0000E+00  0.0000E+00  0.0000E+00  0.0000E+00  0.0000E+00  0.0000E+00  0.0000E+00  0.0000E+00  0.0000E+00  0.0000E+00
    -28.320  0.0000E+00  0.0000E+00  0.0000E+00  0.0000E+00  0.0000E+00  0.0000E+00  0.0000E+00  0.0000E+00  0.0000E+00  0.0000E+00  0.0000E+00  0.0000E+00  0.0000E+00  0.0000E+00  0.0000E+00  0.0000E+00  0.0000E+00  0.0000E+00
    -28.167  0.1569E-02  0.1590E-02  0.1763E-09  0.1793E-09  0.1763E-09  0.1793E-09  0.1777E-09  0.1807E-09  0.5186E-13  0.9852E-13  0.5116E-13  0.9839E-13  0.9371E-10  0.9322E-10  0.5186E-13  0.9852E-13  0.9533E-10  0.9485E-10
    -28.015  0.3140E-01  0.3183E-01  0.3528E-08  0.3588E-08  0.3528E-08  0.3588E-08  0.3556E-08  0.3616E-08  0.1038E-11  0.1972E-11  0.1024E-11  0.1969E-11  0.1876E-08  0.1866E-08  0.1038E-11  0.1972E-11  0.1908E-08  0.1898E-08
    -27.862  0.5974E+00  0.6045E+00  0.6710E-07  0.6815E-07  0.6710E-07  0.6815E-07  0.6763E-07  0.6868E-07  0.1975E-10  0.3753E-10  0.1949E-10  0.3748E-10  0.3572E-07  0.3548E-07  0.1975E-10  0.3753E-10  0.3630E-07  0.3606E-07
    -27.710  0.3823E+01  0.3833E+01  0.4284E-06  0.4311E-06  0.4284E-06  0.4311E-06  0.4318E-06  0.4345E-06  0.1267E-09  0.2407E-09  0.1250E-09  0.2406E-09  0.2299E-06  0.2261E-06  0.1267E-09  0.2407E-09  0.2321E-06  0.2283E-06
    -27.557  0.1811E+01  0.1795E+01  0.2020E-06  0.2009E-06  0.2020E-06  0.2009E-06  0.2036E-06  0.2025E-06  0.6006E-10  0.1140E-09  0.5921E-10  0.1140E-09  0.1092E-06  0.1061E-06  0.6006E-10  0.1140E-09  0.1093E-06  0.1062E-06
    -27.405  0.1234E+00  0.1218E+00  0.1374E-07  0.1361E-07  0.1374E-07  0.1361E-07  0.1384E-07  0.1372E-07  0.4090E-11  0.7755E-11  0.4032E-11  0.7764E-11  0.7436E-08  0.7191E-08  0.4090E-11  0.7755E-11  0.7421E-08  0.7179E-08
    -27.252  0.0000E+00  0.0000E+00  0.0000E+00  0.0000E+00  0.0000E+00  0.0000E+00  0.0000E+00  0.0000E+00  0.0000E+00  0.0000E+00  0.0000E+00  0.0000E+00  0.0000E+00  0.0000E+00  0.0000E+00  0.0000E+00  0.0000E+00  0.0000E+00
    -27.100  0.0000E+00  0.0000E+00  0.0000E+00  0.0000E+00  0.0000E+00  0.0000E+00  0.0000E+00  0.0000E+00  0.0000E+00  0.0000E+00  0.0000E+00  0.0000E+00  0.0000E+00  0.0000E+00  0.0000E+00  0.0000E+00  0.0000E+00  0.0000E+00
    -26.947  0.0000E+00  0.0000E+00  0.0000E+00  0.0000E+00  0.0000E+00  0.0000E+00  0.0000E+00  0.0000E+00  0.0000E+00  0.0000E+00  0.0000E+00  0.0000E+00  0.0000E+00  0.0000E+00  0.0000E+00  0.0000E+00  0.0000E+00  0.0000E+00
    -26.795  0.0000E+00  0.0000E+00  0.0000E+00  0.0000E+00  0.0000E+00  0.0000E+00  0.0000E+00  0.0000E+00  0.0000E+00  0.0000E+00  0.0000E+00  0.0000E+00  0.0000E+00  0.0000E+00  0.0000E+00  0.0000E+00  0.0000E+00  0.0000E+00
    -26.642  0.0000E+00  0.0000E+00  0.0000E+00  0.0000E+00  0.0000E+00  0.0000E+00  0.0000E+00  0.0000E+00  0.0000E+00  0.0000E+00  0.0000E+00  0.0000E+00  0.0000E+00  0.0000E+00  0.0000E+00  0.0000E+00  0.0000E+00  0.0000E+00
    -26.490  0.0000E+00  0.0000E+00  0.0000E+00  0.0000E+00  0.0000E+00  0.0000E+00  0.0000E+00  0.0000E+00  0.0000E+00  0.0000E+00  0.0000E+00  0.0000E+00  0.0000E+00  0.0000E+00  0.0000E+00  0.0000E+00  0.0000E+00  0.0000E+00
    -26.337  0.0000E+00  0.0000E+00  0.0000E+00  0.0000E+00  0.0000E+00  0.0000E+00  0.0000E+00  0.0000E+00  0.0000E+00  0.0000E+00  0.0000E+00  0.0000E+00  0.0000E+00  0.0000E+00  0.0000E+00  0.0000E+00  0.0000E+00  0.0000E+00
    -26.185  0.0000E+00  0.0000E+00  0.0000E+00  0.0000E+00  0.0000E+00  0.0000E+00  0.0000E+00  0.0000E+00  0.0000E+00  0.0000E+00  0.0000E+00  0.0000E+00  0.0000E+00  0.0000E+00  0.0000E+00  0.0000E+00  0.0000E+00  0.0000E+00
    -26.032  0.0000E+00  0.0000E+00  0.0000E+00  0.0000E+00  0.0000E+00  0.0000E+00  0.0000E+00  0.0000E+00  0.0000E+00  0.0000E+00  0.0000E+00  0.0000E+00  0.0000E+00  0.0000E+00  0.0000E+00  0.0000E+00  0.0000E+00  0.0000E+00
    -25.880  0.0000E+00  0.0000E+00  0.0000E+00  0.0000E+00  0.0000E+00  0.0000E+00  0.0000E+00  0.0000E+00  0.0000E+00  0.0000E+00  0.0000E+00  0.0000E+00  0.0000E+00  0.0000E+00  0.0000E+00  0.0000E+00  0.0000E+00  0.0000E+00
    -25.727  0.0000E+00  0.0000E+00  0.0000E+00  0.0000E+00  0.0000E+00  0.0000E+00  0.0000E+00  0.0000E+00  0.0000E+00  0.0000E+00  0.0000E+00  0.0000E+00  0.0000E+00  0.0000E+00  0.0000E+00  0.0000E+00  0.0000E+00  0.0000E+00
    -25.575  0.0000E+00  0.0000E+00  0.0000E+00  0.0000E+00  0.0000E+00  0.0000E+00  0.0000E+00  0.0000E+00  0.0000E+00  0.0000E+00  0.0000E+00  0.0000E+00  0.0000E+00  0.0000E+00  0.0000E+00  0.0000E+00  0.0000E+00  0.0000E+00
    -25.422  0.0000E+00  0.0000E+00  0.0000E+00  0.0000E+00  0.0000E+00  0.0000E+00  0.0000E+00  0.0000E+00  0.0000E+00  0.0000E+00  0.0000E+00  0.0000E+00  0.0000E+00  0.0000E+00  0.0000E+00  0.0000E+00  0.0000E+00  0.0000E+00
    -25.270  0.0000E+00  0.0000E+00  0.0000E+00  0.0000E+00  0.0000E+00  0.0000E+00  0.0000E+00  0.0000E+00  0.0000E+00  0.0000E+00  0.0000E+00  0.0000E+00  0.0000E+00  0.0000E+00  0.0000E+00  0.0000E+00  0.0000E+00  0.0000E+00
    -25.117  0.0000E+00  0.0000E+00  0.0000E+00  0.0000E+00  0.0000E+00  0.0000E+00  0.0000E+00  0.0000E+00  0.0000E+00  0.0000E+00  0.0000E+00  0.0000E+00  0.0000E+00  0.0000E+00  0.0000E+00  0.0000E+00  0.0000E+00  0.0000E+00
    -24.965  0.0000E+00  0.0000E+00  0.0000E+00  0.0000E+00  0.0000E+00  0.0000E+00  0.0000E+00  0.0000E+00  0.0000E+00  0.0000E+00  0.0000E+00  0.0000E+00  0.0000E+00  0.0000E+00  0.0000E+00  0.0000E+00  0.0000E+00  0.0000E+00
    -24.812  0.0000E+00  0.0000E+00  0.0000E+00  0.0000E+00  0.0000E+00  0.0000E+00  0.0000E+00  0.0000E+00  0.0000E+00  0.0000E+00  0.0000E+00  0.0000E+00  0.0000E+00  0.0000E+00  0.0000E+00  0.0000E+00  0.0000E+00  0.0000E+00
    -24.660  0.0000E+00  0.0000E+00  0.0000E+00  0.0000E+00  0.0000E+00  0.0000E+00  0.0000E+00  0.0000E+00  0.0000E+00  0.0000E+00  0.0000E+00  0.0000E+00  0.0000E+00  0.0000E+00  0.0000E+00  0.0000E+00  0.0000E+00  0.0000E+00
    -24.507  0.0000E+00  0.0000E+00  0.0000E+00  0.0000E+00  0.0000E+00  0.0000E+00  0.0000E+00  0.0000E+00  0.0000E+00  0.0000E+00  0.0000E+00  0.0000E+00  0.0000E+00  0.0000E+00  0.0000E+00  0.0000E+00  0.0000E+00  0.0000E+00
    -24.355  0.0000E+00  0.0000E+00  0.0000E+00  0.0000E+00  0.0000E+00  0.0000E+00  0.0000E+00  0.0000E+00  0.0000E+00  0.0000E+00  0.0000E+00  0.0000E+00  0.0000E+00  0.0000E+00  0.0000E+00  0.0000E+00  0.0000E+00  0.0000E+00
    -24.202  0.0000E+00  0.0000E+00  0.0000E+00  0.0000E+00  0.0000E+00  0.0000E+00  0.0000E+00  0.0000E+00  0.0000E+00  0.0000E+00  0.0000E+00  0.0000E+00  0.0000E+00  0.0000E+00  0.0000E+00  0.0000E+00  0.0000E+00  0.0000E+00
    -24.049  0.0000E+00  0.0000E+00  0.0000E+00  0.0000E+00  0.0000E+00  0.0000E+00  0.0000E+00  0.0000E+00  0.0000E+00  0.0000E+00  0.0000E+00  0.0000E+00  0.0000E+00  0.0000E+00  0.0000E+00  0.0000E+00  0.0000E+00  0.0000E+00
    -23.897  0.0000E+00  0.0000E+00  0.0000E+00  0.0000E+00  0.0000E+00  0.0000E+00  0.0000E+00  0.0000E+00  0.0000E+00  0.0000E+00  0.0000E+00  0.0000E+00  0.0000E+00  0.0000E+00  0.0000E+00  0.0000E+00  0.0000E+00  0.0000E+00
    -23.744  0.0000E+00  0.0000E+00  0.0000E+00  0.0000E+00  0.0000E+00  0.0000E+00  0.0000E+00  0.0000E+00  0.0000E+00  0.0000E+00  0.0000E+00  0.0000E+00  0.0000E+00  0.0000E+00  0.0000E+00  0.0000E+00  0.0000E+00  0.0000E+00
    -23.592  0.0000E+00  0.0000E+00  0.0000E+00  0.0000E+00  0.0000E+00  0.0000E+00  0.0000E+00  0.0000E+00  0.0000E+00  0.0000E+00  0.0000E+00  0.0000E+00  0.0000E+00  0.0000E+00  0.0000E+00  0.0000E+00  0.0000E+00  0.0000E+00
    -23.439  0.0000E+00  0.0000E+00  0.0000E+00  0.0000E+00  0.0000E+00  0.0000E+00  0.0000E+00  0.0000E+00  0.0000E+00  0.0000E+00  0.0000E+00  0.0000E+00  0.0000E+00  0.0000E+00  0.0000E+00  0.0000E+00  0.0000E+00  0.0000E+00
    -23.287  0.0000E+00  0.0000E+00  0.0000E+00  0.0000E+00  0.0000E+00  0.0000E+00  0.0000E+00  0.0000E+00  0.0000E+00  0.0000E+00  0.0000E+00  0.0000E+00  0.0000E+00  0.0000E+00  0.0000E+00  0.0000E+00  0.0000E+00  0.0000E+00
    -23.134  0.0000E+00  0.0000E+00  0.0000E+00  0.0000E+00  0.0000E+00  0.0000E+00  0.0000E+00  0.0000E+00  0.0000E+00  0.0000E+00  0.0000E+00  0.0000E+00  0.0000E+00  0.0000E+00  0.0000E+00  0.0000E+00  0.0000E+00  0.0000E+00
    -22.982  0.0000E+00  0.0000E+00  0.0000E+00  0.0000E+00  0.0000E+00  0.0000E+00  0.0000E+00  0.0000E+00  0.0000E+00  0.0000E+00  0.0000E+00  0.0000E+00  0.0000E+00  0.0000E+00  0.0000E+00  0.0000E+00  0.0000E+00  0.0000E+00
    -22.829  0.0000E+00  0.0000E+00  0.0000E+00  0.0000E+00  0.0000E+00  0.0000E+00  0.0000E+00  0.0000E+00  0.0000E+00  0.0000E+00  0.0000E+00  0.0000E+00  0.0000E+00  0.0000E+00  0.0000E+00  0.0000E+00  0.0000E+00  0.0000E+00
    -22.677  0.0000E+00  0.0000E+00  0.0000E+00  0.0000E+00  0.0000E+00  0.0000E+00  0.0000E+00  0.0000E+00  0.0000E+00  0.0000E+00  0.0000E+00  0.0000E+00  0.0000E+00  0.0000E+00  0.0000E+00  0.0000E+00  0.0000E+00  0.0000E+00
    -22.524  0.0000E+00  0.0000E+00  0.0000E+00  0.0000E+00  0.0000E+00  0.0000E+00  0.0000E+00  0.0000E+00  0.0000E+00  0.0000E+00  0.0000E+00  0.0000E+00  0.0000E+00  0.0000E+00  0.0000E+00  0.0000E+00  0.0000E+00  0.0000E+00
    -22.372  0.0000E+00  0.0000E+00  0.0000E+00  0.0000E+00  0.0000E+00  0.0000E+00  0.0000E+00  0.0000E+00  0.0000E+00  0.0000E+00  0.0000E+00  0.0000E+00  0.0000E+00  0.0000E+00  0.0000E+00  0.0000E+00  0.0000E+00  0.0000E+00
    -22.219  0.0000E+00  0.0000E+00  0.0000E+00  0.0000E+00  0.0000E+00  0.0000E+00  0.0000E+00  0.0000E+00  0.0000E+00  0.0000E+00  0.0000E+00  0.0000E+00  0.0000E+00  0.0000E+00  0.0000E+00  0.0000E+00  0.0000E+00  0.0000E+00