   4   4   1   0
  0.2592362E+02  0.4697015E-09  0.4698583E-09  0.4698583E-09  0.5000000E-15
  1.000000000000000E-004
  CAR 
 unknown system                          
     12.20428120    -32.81960278  301      3.94300182      1.00000000
    -32.820  0.0000E+00  0.0000E+00  0.0000E+00  0.0000E+00
    -32.670  0.0000E+00  0.0000E+00  0.0000E+00  0.0000E+00
    -32.519  0.0000E+00  0.0000E+00  0.0000E+00  0.0000E+00
    -32.369  0.0000E+00  0.0000E+00  0.0000E+00  0.0000E+00
    -32.219  0.0000E+00  0.0000E+00  0.0000E+00  0.0000E+00
    -32.069  0.0000E+00  0.0000E+00  0.0000E+00  0.0000E+00
    -31.919  0.0000E+00  0.0000E+00  0.0000E+00  0.0000E+00
    -31.769  0.0000E+00  0.0000E+00  0.0000E+00  0.0000E+00
    -31.619  0.0000E+00  0.0000E+00  0.0000E+00  0.0000E+00
    -31.469  0.0000E+00  0.0000E+00  0.0000E+00  0.0000E+00
    -31.319  0.9972E-04  0.1107E-03  0.1497E-04  0.1661E-04
    -31.169  0.2188E-02  0.2204E-02  0.3433E-03  0.3475E-03
    -31.019  0.4343E-01  0.4395E-01  0.6861E-02  0.6944E-02
    -30.869  0.7673E+00  0.7754E+00  0.1220E+00  0.1233E+00
    -30.718  0.4094E+01  0.4101E+01  0.7365E+00  0.7388E+00
    -30.568  0.1639E+01  0.1625E+01  0.9825E+00  0.9827E+00
    -30.418  0.1106E+00  0.1092E+00  0.9991E+00  0.9991E+00
    -30.268  0.0000E+00  0.0000E+00  0.1000E+01  0.1000E+01
    -30.118  0.0000E+00  0.0000E+00  0.1000E+01  0.1000E+01
    -29.968  0.0000E+00  0.0000E+00  0.1000E+01  0.1000E+01
    -29.818  0.0000E+00  0.0000E+00  0.1000E+01  0.1000E+01
    -29.668  0.0000E+00  0.0000E+00  0.1000E+01  0.1000E+01
    -29.518  0.0000E+00  0.0000E+00  0.1000E+01  0.1000E+01
    -29.368  0.0000E+00  0.0000E+00  0.1000E+01  0.1000E+01
    -29.218  0.0000E+00  0.0000E+00  0.1000E+01  0.1000E+01
    -29.068  0.0000E+00  0.0000E+00  0.1000E+01  0.1000E+01
    -28.918  0.0000E+00  0.0000E+00  0.1000E+01  0.1000E+01
    -28.767  0.0000E+00  0.0000E+00  0.1000E+01  0.1000E+01
    -28.617  0.0000E+00  0.0000E+00  0.1000E+01  0.1000E+01
    -28.467  0.0000E+00  0.0000E+00  0.1000E+01  0.1000E+01
    -28.317  0.0000E+00  0.0000E+00  0.1000E+01  0.1000E+01
    -28.167  0.0000E+00  0.0000E+00  0.1000E+01  0.1000E+01
    -28.017  0.0000E+00  0.0000E+00  0.1000E+01  0.1000E+01
    -27.867  0.0000E+00  0.0000E+00  0.1000E+01  0.1000E+01
    -27.717  0.0000E+00  0.0000E+00  0.1000E+01  0.1000E+01
    -27.567  0.0000E+00  0.0000E+00  0.1000E+01  0.1000E+01
    -27.417  0.0000E+00  0.0000E+00  0.1000E+01  0.1000E+01
    -27.267  0.0000E+00  0.0000E+00  0.1000E+01  0.1000E+01
    -27.117  0.0000E+00  0.0000E+00  0.1000E+01  0.1000E+01
    -26.966  0.0000E+00  0.0000E+00  0.1000E+01  0.1000E+01
    -26.816  0.0000E+00  0.0000E+00  0.1000E+01  0.1000E+01
    -26.666  0.0000E+00  0.0000E+00  0.1000E+01  0.1000E+01
    -26.516  0.0000E+00  0.0000E+00  0.1000E+01  0.1000E+01
    -26.366  0.0000E+00  0.0000E+00  0.1000E+01  0.1000E+01
    -26.216  0.0000E+00  0.0000E+00  0.1000E+01  0.1000E+01
    -26.066  0.0000E+00  0.0000E+00  0.1000E+01  0.1000E+01
    -25.916  0.0000E+00  0.0000E+00  0.1000E+01  0.1000E+01
    -25.766  0.0000E+00  0.0000E+00  0.1000E+01  0.1000E+01
    -25.616  0.0000E+00  0.0000E+00  0.1000E+01  0.1000E+01
    -25.466  0.0000E+00  0.0000E+00  0.1000E+01  0.1000E+01
    -25.316  0.0000E+00  0.0000E+00  0.1000E+01  0.1000E+01
    -25.166  0.0000E+00  0.0000E+00  0.1000E+01  0.1000E+01
    -25.015  0.0000E+00  0.0000E+00  0.1000E+01  0.1000E+01
    -24.865  0.0000E+00  0.0000E+00  0.1000E+01  0.1000E+01
    -24.715  0.0000E+00  0.0000E+00  0.1000E+01  0.1000E+01
    -24.565  0.0000E+00  0.0000E+00  0.1000E+01  0.1000E+01
    -24.415  0.0000E+00  0.0000E+00  0.1000E+01  0.1000E+01
    -24.265  0.0000E+00  0.0000E+00  0.1000E+01  0.1000E+01
    -24.115  0.0000E+00  0.0000E+00  0.1000E+01  0.1000E+01
    -23.965  0.0000E+00  0.0000E+00  0.1000E+01  0.1000E+01
    -23.815  0.0000E+00  0.0000E+00  0.1000E+01  0.1000E+01
    -23.665  0.0000E+00  0.0000E+00  0.1000E+01  0.1000E+01
    -23.515  0.0000E+00  0.0000E+00  0.1000E+01  0.1000E+01
    -23.365  0.0000E+00  0.0000E+00  0.1000E+01  0.1000E+01
    -23.215  0.0000E+00  0.0000E+00  0.1000E+01  0.1000E+01
    -23.064  0.0000E+00  0.0000E+00  0.1000E+01  0.1000E+01
    -22.914  0.0000E+00  0.0000E+00  0.1000E+01  0.1000E+01
    -22.764  0.0000E+00  0.0000E+00  0.1000E+01  0.1000E+01
    -22.614  0.0000E+00  0.0000E+00  0.1000E+01  0.1000E+01
    -22.464  0.0000E+00  0.0000E+00  0.1000E+01  0.1000E+01
    -22.314  0.0000E+00  0.0000E+00  0.1000E+01  0.1000E+01
    -22.164  0.0000E+00  0.0000E+00  0.1000E+01  0.1000E+01
    -22.014  0.0000E+00  0.0000E+00  0.1000E+01  0.1000E+01
    -21.864  0.0000E+00  0.0000E+00  0.1000E+01  0.1000E+01
    -21.714  0.0000E+00  0.0000E+00  0.1000E+01  0.1000E+01
    -21.564  0.0000E+00  0.0000E+00  0.1000E+01  0.1000E+01
    -21.414  0.0000E+00  0.0000E+00  0.1000E+01  0.1000E+01
    -21.263  0.0000E+00  0.0000E+00  0.1000E+01  0.1000E+01
    -21.113  0.0000E+00  0.0000E+00  0.1000E+01  0.1000E+01
    -20.963  0.0000E+00  0.0000E+00  0.1000E+01  0.1000E+01
    -20.813  0.0000E+00  0.0000E+00  0.1000E+01  0.1000E+01
    -20.663  0.0000E+00  0.0000E+00  0.1000E+01  0.1000E+01
    -20.513  0.0000E+00  0.0000E+00  0.1000E+01  0.1000E+01
    -20.363  0.0000E+00  0.0000E+00  0.1000E+01  0.1000E+01
    -20.213  0.0000E+00  0.0000E+00  0.1000E+01  0.1000E+01
    -20.063  0.0000E+00  0.0000E+00  0.1000E+01  0.1000E+01
    -19.913  0.0000E+00  0.0000E+00  0.1000E+01  0.1000E+01
    -19.763  0.0000E+00  0.0000E+00  0.1000E+01  0.1000E+01
    -19.613  0.0000E+00  0.0000E+00  0.1000E+01  0.1000E+01
    -19.463  0.0000E+00  0.0000E+00  0.1000E+01  0.1000E+01
    -19.312  0.0000E+00  0.0000E+00  0.1000E+01  0.1000E+01
    -19.162  0.0000E+00  0.0000E+00  0.1000E+01  0.1000E+01
    -19.012  0.0000E+00  0.0000E+00  0.1000E+01  0.1000E+01
    -18.862  0.0000E+00  0.0000E+00  0.1000E+01  0.1000E+01
    -18.712  0.0000E+00  0.0000E+00  0.1000E+01  0.1000E+01
    -18.562  0.0000E+00  0.0000E+00  0.1000E+01  0.1000E+01
    -18.412  0.0000E+00  0.0000E+00  0.1000E+01  0.1000E+01
    -18.262  0.0000E+00  0.0000E+00  0.1000E+01  0.1000E+01
    -18.112  0.0000E+00  0.0000E+00  0.1000E+01  0.1000E+01
    -17.962  0.0000E+00  0.0000E+00  0.1000E+01  0.1000E+01
    -17.812  0.0000E+00  0.0000E+00  0.1000E+01  0.1000E+01
    -17.662  0.0000E+00  0.0000E+00  0.1000E+01  0.1000E+01
    -17.511  0.0000E+00  0.0000E+00  0.1000E+01  0.1000E+01
    -17.361  0.0000E+00  0.0000E+00  0.1000E+01  0.1000E+01
    -17.211  0.0000E+00  0.0000E+00  0.1000E+01  0.1000E+01
    -17.061  0.0000E+00  0.0000E+00  0.1000E+01  0.1000E+01
    -16.911  0.0000E+00  0.0000E+00  0.1000E+01  0.1000E+01
    -16.761  0.0000E+00  0.0000E+00  0.1000E+01  0.1000E+01
    -16.611  0.0000E+00  0.0000E+00  0.1000E+01  0.1000E+01
    -16.461  0.0000E+00  0.0000E+00  0.1000E+01  0.1000E+01
    -16.311  0.0000E+00  0.0000E+00  0.1000E+01  0.1000E+01
    -16.161  0.0000E+00  0.0000E+00  0.1000E+01  0.1000E+01
    -16.011  0.0000E+00  0.0000E+00  0.1000E+01  0.1000E+01
    -15.861  0.0000E+00  0.0000E+00  0.1000E+01  0.1000E+01
    -15.711  0.0000E+00  0.0000E+00  0.1000E+01  0.1000E+01
    -15.560  0.0000E+00  0.0000E+00  0.1000E+01  0.1000E+01
    -15.410  0.0000E+00  0.0000E+00  0.1000E+01  0.1000E+01
    -15.260  0.0000E+00  0.0000E+00  0.1000E+01  0.1000E+01
    -15.110  0.0000E+00  0.0000E+00  0.1000E+01  0.1000E+01
    -14.960  0.0000E+00  0.0000E+00  0.1000E+01  0.1000E+01
    -14.810  0.0000E+00  0.0000E+00  0.1000E+01  0.1000E+01
    -14.660  0.0000E+00  0.0000E+00  0.1000E+01  0.1000E+01
    -14.510  0.0000E+00  0.0000E+00  0.1000E+01  0.1000E+01
    -14.360  0.0000E+00  0.0000E+00  0.1000E+01  0.1000E+01
    -14.210  0.0000E+00  0.0000E+00  0.1000E+01  0.1000E+01
    -14.060  0.0000E+00  0.0000E+00  0.1000E+01  0.1000E+01
    -13.910  0.0000E+00  0.0000E+00  0.1000E+01  0.1000E+01
    -13.759  0.0000E+00  0.0000E+00  0.1000E+01  0.1000E+01
    -13.609  0.0000E+00  0.0000E+00  0.1000E+01  0.1000E+01
    -13.459  0.2158E-03  0.2167E-03  0.1000E+01  0.1000E+01
    -13.309  0.6442E-02  0.6469E-02  0.1001E+01  0.1001E+01
    -13.159  0.1262E+00  0.1268E+00  0.1020E+01  0.1020E+01
    -13.009  0.2185E+01  0.2193E+01  0.1348E+01  0.1349E+01
    -12.859  0.1160E+02  0.1160E+02  0.3088E+01  0.3091E+01
    -12.709  0.5622E+01  0.5607E+01  0.3932E+01  0.3932E+01
    -12.559  0.4297E+00  0.4281E+00  0.3997E+01  0.3997E+01
    -12.409  0.0000E+00  0.0000E+00  0.4000E+01  0.4000E+01
    -12.259  0.0000E+00  0.0000E+00  0.4000E+01  0.4000E+01
    -12.109  0.0000E+00  0.0000E+00  0.4000E+01  0.4000E+01
    -11.959  0.0000E+00  0.0000E+00  0.4000E+01  0.4000E+01
    -11.808  0.0000E+00  0.0000E+00  0.4000E+01  0.4000E+01
    -11.658  0.0000E+00  0.0000E+00  0.4000E+01  0.4000E+01
    -11.508  0.0000E+00  0.0000E+00  0.4000E+01  0.4000E+01
    -11.358  0.0000E+00  0.0000E+00  0.4000E+01  0.4000E+01
    -11.208  0.0000E+00  0.0000E+00  0.4000E+01  0.4000E+01
    -11.058  0.0000E+00  0.0000E+00  0.4000E+01  0.4000E+01
    -10.908  0.0000E+00  0.0000E+00  0.4000E+01  0.4000E+01
    -10.758  0.0000E+00  0.0000E+00  0.4000E+01  0.4000E+01
    -10.608  0.0000E+00  0.0000E+00  0.4000E+01  0.4000E+01
    -10.458  0.0000E+00  0.0000E+00  0.4000E+01  0.4000E+01
    -10.308  0.0000E+00  0.0000E+00  0.4000E+01  0.4000E+01
    -10.158  0.0000E+00  0.0000E+00  0.4000E+01  0.4000E+01
    -10.008  0.0000E+00  0.0000E+00  0.4000E+01  0.4000E+01
     -9.857  0.0000E+00  0.0000E+00  0.4000E+01  0.4000E+01
     -9.707  0.0000E+00  0.0000E+00  0.4000E+01  0.4000E+01
     -9.557  0.0000E+00  0.0000E+00  0.4000E+01  0.4000E+01
     -9.407  0.0000E+00  0.0000E+00  0.4000E+01  0.4000E+01
     -9.257  0.0000E+00  0.0000E+00  0.4000E+01  0.4000E+01
     -9.107  0.0000E+00  0.0000E+00  0.4000E+01  0.4000E+01
     -8.957  0.0000E+00  0.0000E+00  0.4000E+01  0.4000E+01
     -8.807  0.0000E+00  0.0000E+00  0.4000E+01  0.4000E+01
     -8.657  0.0000E+00  0.0000E+00  0.4000E+01  0.4000E+01
     -8.507  0.0000E+00  0.0000E+00  0.4000E+01  0.4000E+01
     -8.357  0.0000E+00  0.0000E+00  0.4000E+01  0.4000E+01
     -8.207  0.0000E+00  0.0000E+00  0.4000E+01  0.4000E+01
     -8.056  0.0000E+00  0.0000E+00  0.4000E+01  0.4000E+01
     -7.906  0.0000E+00  0.0000E+00  0.4000E+01  0.4000E+01
     -7.756  0.0000E+00  0.0000E+00  0.4000E+01  0.4000E+01
     -7.606  0.0000E+00  0.0000E+00  0.4000E+01  0.4000E+01
     -7.456  0.0000E+00  0.0000E+00  0.4000E+01  0.4000E+01
     -7.306  0.0000E+00  0.0000E+00  0.4000E+01  0.4000E+01
     -7.156  0.0000E+00  0.0000E+00  0.4000E+01  0.4000E+01
     -7.006  0.0000E+00  0.0000E+00  0.4000E+01  0.4000E+01
     -6.856  0.0000E+00  0.0000E+00  0.4000E+01  0.4000E+01
     -6.706  0.0000E+00  0.0000E+00  0.4000E+01  0.4000E+01
     -6.556  0.0000E+00  0.0000E+00  0.4000E+01  0.4000E+01
     -6.406  0.0000E+00  0.0000E+00  0.4000E+01  0.4000E+01
     -6.256  0.0000E+00  0.0000E+00  0.4000E+01  0.4000E+01
     -6.105  0.0000E+00  0.0000E+00  0.4000E+01  0.4000E+01
     -5.955  0.0000E+00  0.0000E+00  0.4000E+01  0.4000E+01
     -5.805  0.0000E+00  0.0000E+00  0.4000E+01  0.4000E+01
     -5.655  0.0000E+00  0.0000E+00  0.4000E+01  0.4000E+01
     -5.505  0.0000E+00  0.0000E+00  0.4000E+01  0.4000E+01
     -5.355  0.0000E+00  0.0000E+00  0.4000E+01  0.4000E+01
     -5.205  0.0000E+00  0.0000E+00  0.4000E+01  0.4000E+01
     -5.055  0.0000E+00  0.0000E+00  0.4000E+01  0.4000E+01
     -4.905  0.0000E+00  0.0000E+00  0.4000E+01  0.4000E+01
     -4.755  0.0000E+00  0.0000E+00  0.4000E+01  0.4000E+01
     -4.605  0.0000E+00  0.0000E+00  0.4000E+01  0.4000E+01
     -4.455  0.0000E+00  0.0000E+00  0.4000E+01  0.4000E+01
     -4.304  0.0000E+00  0.0000E+00  0.4000E+01  0.4000E+01
     -4.154  0.7147E-06  0.7339E-06  0.4000E+01  0.4000E+01
     -4.004  0.2657E-04  0.2728E-04  0.4000E+01  0.4000E+01
     -3.854  0.5282E-03  0.5422E-03  0.4000E+01  0.4000E+01
     -3.704  0.9052E-02  0.9259E-02  0.4001E+01  0.4001E+01
     -3.554  0.6151E-01  0.6217E-01  0.4011E+01  0.4011E+01
     -3.404  0.1369E+00  0.1375E+00  0.4031E+01  0.4031E+01
     -3.254  0.1872E+00  0.1877E+00  0.4059E+01  0.4060E+01
     -3.104  0.2364E+00  0.2366E+00  0.4095E+01  0.4095E+01
     -2.954  0.2658E+00  0.2663E+00  0.4135E+01  0.4135E+01
     -2.804  0.3329E+00  0.3331E+00  0.4185E+01  0.4185E+01
     -2.654  0.3267E+00  0.3271E+00  0.4234E+01  0.4234E+01
     -2.504  0.4270E+00  0.4275E+00  0.4298E+01  0.4299E+01
     -2.353  0.4296E+00  0.4299E+00  0.4363E+01  0.4363E+01
     -2.203  0.5330E+00  0.5336E+00  0.4443E+01  0.4444E+01
     -2.053  0.5793E+00  0.5798E+00  0.4530E+01  0.4531E+01
     -1.903  0.5733E+00  0.5723E+00  0.4616E+01  0.4617E+01
     -1.753  0.5183E+00  0.5187E+00  0.4694E+01  0.4695E+01
     -1.603  0.4625E+00  0.4616E+00  0.4764E+01  0.4764E+01
     -1.453  0.5055E+00  0.5063E+00  0.4840E+01  0.4841E+01
     -1.303  0.5278E+00  0.5283E+00  0.4919E+01  0.4920E+01
     -1.153  0.4991E+00  0.4980E+00  0.4994E+01  0.4995E+01
     -1.003  0.4821E+00  0.4827E+00  0.5067E+01  0.5067E+01
     -0.853  0.5369E+00  0.5379E+00  0.5148E+01  0.5149E+01
     -0.703  0.6303E+00  0.6298E+00  0.5242E+01  0.5243E+01
     -0.552  0.6573E+00  0.6583E+00  0.5341E+01  0.5342E+01
     -0.402  0.8613E+00  0.8633E+00  0.5471E+01  0.5472E+01
     -0.252  0.1179E+01  0.1180E+01  0.5648E+01  0.5649E+01
     -0.102  0.1155E+01  0.1154E+01  0.5822E+01  0.5823E+01
      0.048  0.1082E+01  0.1081E+01  0.5985E+01  0.5985E+01
      0.198  0.6837E+00  0.6814E+00  0.6088E+01  0.6088E+01
      0.348  0.8653E+00  0.8686E+00  0.6218E+01  0.6219E+01
      0.498  0.8975E+00  0.8943E+00  0.6353E+01  0.6353E+01
      0.648  0.4143E+00  0.4133E+00  0.6415E+01  0.6415E+01
      0.798  0.5917E+00  0.5930E+00  0.6504E+01  0.6505E+01
      0.948  0.6542E+00  0.6537E+00  0.6602E+01  0.6603E+01
      1.098  0.4717E+00  0.4705E+00  0.6673E+01  0.6674E+01
      1.248  0.4001E+00  0.4003E+00  0.6734E+01  0.6734E+01
      1.399  0.4494E+00  0.4502E+00  0.6801E+01  0.6802E+01
      1.549  0.5003E+00  0.5013E+00  0.6876E+01  0.6877E+01
      1.699  0.6470E+00  0.6491E+00  0.6973E+01  0.6974E+01
      1.849  0.6955E+00  0.6953E+00  0.7078E+01  0.7079E+01
      1.999  0.6434E+00  0.6459E+00  0.7175E+01  0.7176E+01
      2.149  0.8537E+00  0.8530E+00  0.7303E+01  0.7304E+01
      2.299  0.8106E+00  0.8118E+00  0.7425E+01  0.7426E+01
      2.449  0.8662E+00  0.8667E+00  0.7555E+01  0.7557E+01
      2.599  0.9677E+00  0.9691E+00  0.7701E+01  0.7702E+01
      2.749  0.1147E+01  0.1150E+01  0.7873E+01  0.7875E+01
      2.899  0.1396E+01  0.1396E+01  0.8083E+01  0.8085E+01
      3.049  0.1362E+01  0.1363E+01  0.8288E+01  0.8290E+01
      3.200  0.1680E+01  0.1681E+01  0.8540E+01  0.8543E+01
      3.350  0.1598E+01  0.1596E+01  0.8780E+01  0.8783E+01
      3.500  0.1461E+01  0.1457E+01  0.9000E+01  0.9002E+01
      3.650  0.1070E+01  0.1069E+01  0.9161E+01  0.9163E+01
      3.800  0.1232E+01  0.1232E+01  0.9347E+01  0.9348E+01
      3.950  0.1055E+01  0.1051E+01  0.9505E+01  0.9507E+01
      4.100  0.7614E+00  0.7606E+00  0.9620E+01  0.9621E+01
      4.250  0.9582E+00  0.9608E+00  0.9764E+01  0.9766E+01
      4.400  0.1277E+01  0.1279E+01  0.9956E+01  0.9958E+01
      4.550  0.1200E+01  0.1196E+01  0.1014E+02  0.1014E+02
      4.700  0.9728E+00  0.9713E+00  0.1028E+02  0.1028E+02
      4.850  0.9149E+00  0.9170E+00  0.1042E+02  0.1042E+02
      5.000  0.1202E+01  0.1203E+01  0.1060E+02  0.1060E+02
      5.151  0.1109E+01  0.1108E+01  0.1077E+02  0.1077E+02
      5.301  0.1005E+01  0.1004E+01  0.1092E+02  0.1092E+02
      5.451  0.8636E+00  0.8628E+00  0.1105E+02  0.1105E+02
      5.601  0.8647E+00  0.8649E+00  0.1118E+02  0.1118E+02
      5.751  0.9265E+00  0.9284E+00  0.1132E+02  0.1132E+02
      5.901  0.1208E+01  0.1208E+01  0.1150E+02  0.1150E+02
      6.051  0.1100E+01  0.1099E+01  0.1167E+02  0.1167E+02
      6.201  0.1125E+01  0.1126E+01  0.1184E+02  0.1184E+02
      6.351  0.1067E+01  0.1065E+01  0.1200E+02  0.1200E+02
      6.501  0.1068E+01  0.1069E+01  0.1216E+02  0.1216E+02
      6.651  0.1135E+01  0.1135E+01  0.1233E+02  0.1233E+02
      6.801  0.1197E+01  0.1198E+01  0.1251E+02  0.1251E+02
      6.951  0.1176E+01  0.1177E+01  0.1268E+02  0.1269E+02
      7.102  0.1536E+01  0.1539E+01  0.1292E+02  0.1292E+02
      7.252  0.1347E+01  0.1346E+01  0.1312E+02  0.1312E+02
      7.402  0.1617E+01  0.1622E+01  0.1336E+02  0.1336E+02
      7.552  0.1861E+01  0.1859E+01  0.1364E+02  0.1364E+02
      7.702  0.1488E+01  0.1480E+01  0.1386E+02  0.1387E+02
      7.852  0.1414E+01  0.1415E+01  0.1408E+02  0.1408E+02
      8.002  0.1756E+01  0.1758E+01  0.1434E+02  0.1434E+02
      8.152  0.1641E+01  0.1642E+01  0.1459E+02  0.1459E+02
      8.302  0.1850E+01  0.1832E+01  0.1487E+02  0.1486E+02
      8.452  0.1694E+01  0.1662E+01  0.1512E+02  0.1511E+02
      8.602  0.1972E+01  0.1982E+01  0.1542E+02  0.1541E+02
      8.752  0.1345E+01  0.1319E+01  0.1562E+02  0.1561E+02
      8.903  0.9878E+00  0.9059E+00  0.1577E+02  0.1575E+02
      9.053  0.5335E+00  0.6197E+00  0.1585E+02  0.1584E+02
      9.203  0.3250E+00  0.3740E+00  0.1590E+02  0.1590E+02
      9.353  0.2351E+00  0.2509E+00  0.1593E+02  0.1594E+02
      9.503  0.1493E+00  0.1384E+00  0.1596E+02  0.1596E+02
      9.653  0.8574E-01  0.8448E-01  0.1597E+02  0.1597E+02
      9.803  0.1315E+00  0.1178E+00  0.1599E+02  0.1599E+02
      9.953  0.2822E-01  0.3565E-01  0.1599E+02  0.1599E+02
     10.103  0.2138E-01  0.2527E-01  0.1600E+02  0.1600E+02
     10.253  0.2128E-01  0.2125E-01  0.1600E+02  0.1600E+02
     10.403  0.3380E-02  0.3067E-02  0.1600E+02  0.1600E+02
     10.553  0.1684E-03  0.0000E+00  0.1600E+02  0.1600E+02
     10.703  0.0000E+00  0.0000E+00  0.1600E+02  0.1600E+02
     10.854  0.0000E+00  0.0000E+00  0.1600E+02  0.1600E+02
     11.004  0.0000E+00  0.0000E+00  0.1600E+02  0.1600E+02
     11.154  0.0000E+00  0.0000E+00  0.1600E+02  0.1600E+02
     11.304  0.0000E+00  0.0000E+00  0.1600E+02  0.1600E+02
     11.454  0.0000E+00  0.0000E+00  0.1600E+02  0.1600E+02
     11.604  0.0000E+00  0.0000E+00  0.1600E+02  0.1600E+02
     11.754  0.0000E+00  0.0000E+00  0.1600E+02  0.1600E+02
     11.904  0.0000E+00  0.0000E+00  0.1600E+02  0.1600E+02
     12.054  0.0000E+00  0.0000E+00  0.1600E+02  0.1600E+02
     12.204  0.0000E+00  0.0000E+00  0.1600E+02  0.1600E+02
     12.20428120    -32.81960278  301      3.94300182      1.00000000
    -32.820  0.0000E+00  0.0000E+00  0.0000E+00  0.0000E+00  0.0000E+00  0.0000E+00  0.0000E+00  0.0000E+00  0.0000E+00  0.0000E+00  0.0000E+00  0.0000E+00  0.0000E+00  0.0000E+00  0.0000E+00  0.0000E+00  0.0000E+00  0.0000E+00
    -32.670  0.0000E+00  0.0000E+00  0.0000E+00  0.0000E+00  0.0000E+00  0.0000E+00  0.0000E+00  0.0000E+00  0.0000E+00  0.0000E+00  0.0000E+00  0.0000E+00  0.0000E+00  0.0000E+00  0.0000E+00  0.0000E+00  0.0000E+00  0.0000E+00
    -32.519  0.0000E+00  0.0000E+00  0.0000E+00  0.0000E+00  0.0000E+00  0.0000E+00  0.0000E+00  0.0000E+00  0.0000E+00  0.0000E+00  0.0000E+00  0.0000E+00  0.0000E+00  0.0000E+00  0.0000E+00  0.0000E+00  0.0000E+00  0.0000E+00
    -32.369  0.0000E+00  0.0000E+00  0.0000E+00  0.0000E+00  0.0000E+00  0.0000E+00  0.0000E+00  0.0000E+00  0.0000E+00  0.0000E+00  0.0000E+00  0.0000E+00  0.0000E+00  0.0000E+00  0.0000E+00  0.0000E+00  0.0000E+00  0.0000E+00
    -32.219  0.0000E+00  0.0000E+00  0.0000E+00  0.0000E+00  0.0000E+00  0.0000E+00  0.0000E+00  0.0000E+00  0.0000E+00  0.0000E+00  0.0000E+00  0.0000E+00  0.0000E+00  0.0000E+00  0.0000E+00  0.0000E+00  0.0000E+00  0.0000E+00
    -32.069  0.0000E+00  0.0000E+00  0.0000E+00  0.0000E+00  0.0000E+00  0.0000E+00  0.0000E+00  0.0000E+00  0.0000E+00  0.0000E+00  0.0000E+00  0.0000E+00  0.0000E+00  0.0000E+00  0.0000E+00  0.0000E+00  0.0000E+00  0.0000E+00
    -31.919  0.0000E+00  0.0000E+00  0.0000E+00  0.0000E+00  0.0000E+00  0.0000E+00  0.0000E+00  0.0000E+00  0.0000E+00  0.0000E+00  0.0000E+00  0.0000E+00  0.0000E+00  0.0000E+00  0.0000E+00  0.0000E+00  0.0000E+00  0.0000E+00
    -31.769  0.0000E+00  0.0000E+00  0.0000E+00  0.0000E+00  0.0000E+00  0.0000E+00  0.0000E+00  0.0000E+00  0.0000E+00  0.0000E+00  0.0000E+00  0.0000E+00  0.0000E+00  0.0000E+00  0.0000E+00  0.0000E+00  0.0000E+00  0.0000E+00
    -31.619  0.0000E+00  0.0000E+00  0.0000E+00  0.0000E+00  0.0000E+00  0.0000E+00  0.0000E+00  0.0000E+00  0.0000E+00  0.0000E+00  0.0000E+00  0.0000E+00  0.0000E+00  0.0000E+00  0.0000E+00  0.0000E+00  0.0000E+00  0.0000E+00
    -31.469  0.0000E+00  0.0000E+00  0.0000E+00  0.0000E+00  0.0000E+00  0.0000E+00  0.0000E+00  0.0000E+00  0.0000E+00  0.0000E+00  0.0000E+00  0.0000E+00  0.0000E+00  0.0000E+00  0.0000E+00  0.0000E+00  0.0000E+00  0.0000E+00
    -31.319  0.9750E-04  0.1082E-03  0.4233E-12  0.4803E-12  0.4233E-12  0.4803E-12  0.4272E-12  0.4848E-12  0.1495E-14  0.9536E-15  0.1457E-14  0.9142E-15  0.2267E-12  0.2425E-12  0.1495E-14  0.9536E-15  0.2294E-12  0.2442E-12
    -31.169  0.2139E-02  0.2155E-02  0.9134E-11  0.9376E-11  0.9134E-11  0.9376E-11  0.9216E-11  0.9464E-11  0.3025E-13  0.1828E-13  0.2952E-13  0.1753E-13  0.4498E-11  0.4654E-11  0.3025E-13  0.1828E-13  0.4529E-11  0.4682E-11
    -31.019  0.4246E-01  0.4298E-01  0.1815E-09  0.1871E-09  0.1815E-09  0.1871E-09  0.1831E-09  0.1889E-09  0.6027E-12  0.3651E-12  0.5881E-12  0.3502E-12  0.8970E-10  0.9296E-10  0.6027E-12  0.3651E-12  0.9033E-10  0.9351E-10
    -30.869  0.7503E+00  0.7582E+00  0.3206E-08  0.3301E-08  0.3206E-08  0.3301E-08  0.3235E-08  0.3332E-08  0.1065E-10  0.6443E-11  0.1039E-10  0.6180E-11  0.1585E-08  0.1640E-08  0.1065E-10  0.6443E-11  0.1596E-08  0.1649E-08
    -30.718  0.4003E+01  0.4010E+01  0.1710E-07  0.1745E-07  0.1710E-07  0.1745E-07  0.1726E-07  0.1762E-07  0.5676E-10  0.3414E-10  0.5542E-10  0.3275E-10  0.8461E-08  0.8678E-08  0.5676E-10  0.3414E-10  0.8507E-08  0.8715E-08
    -30.568  0.1603E+01  0.1589E+01  0.6845E-08  0.6912E-08  0.6845E-08  0.6912E-08  0.6907E-08  0.6977E-08  0.2270E-10  0.1355E-10  0.2217E-10  0.1300E-10  0.3388E-08  0.3439E-08  0.2270E-10  0.1355E-10  0.3401E-08  0.3448E-08
    -30.418  0.1081E+00  0.1068E+00  0.4616E-09  0.4646E-09  0.4616E-09  0.4646E-09  0.4658E-09  0.4690E-09  0.1531E-11  0.9115E-12  0.1495E-11  0.8744E-12  0.2285E-09  0.2312E-09  0.1531E-11  0.9115E-12  0.2293E-09  0.2317E-09
    -30.268  0.0000E+00  0.0000E+00  0.0000E+00  0.0000E+00  0.0000E+00  0.0000E+00  0.0000E+00  0.0000E+00  0.0000E+00  0.0000E+00  0.0000E+00  0.0000E+00  0.0000E+00  0.0000E+00  0.0000E+00  0.0000E+00  0.0000E+00  0.0000E+00
    -30.118  0.0000E+00  0.0000E+00  0.0000E+00  0.0000E+00  0.0000E+00  0.0000E+00  0.0000E+00  0.0000E+00  0.0000E+00  0.0000E+00  0.0000E+00  0.0000E+00  0.0000E+00  0.0000E+00  0.0000E+00  0.0000E+00  0.0000E+00  0.0000E+00
    -29.968  0.0000E+00  0.0000E+00  0.0000E+00  0.0000E+00  0.0000E+00  0.0000E+00  0.0000E+00  0.0000E+00  0.0000E+00  0.0000E+00  0.0000E+00  0.0000E+00  0.0000E+00  0.0000E+00  0.0000E+00  0.0000E+00  0.0000E+00  0.0000E+00
    -29.818  0.0000E+00  0.0000E+00  0.0000E+00  0.0000E+00  0.0000E+00  0.0000E+00  0.0000E+00  0.0000E+00  0.0000E+00  0.0000E+00  0.0000E+00  0.0000E+00  0.0000E+00  0.0000E+00  0.0000E+00  0.0000E+00  0.0000E+00  0.0000E+00
    -29.668  0.0000E+00  0.0000E+00  0.0000E+00  0.0000E+00  0.0000E+00  0.0000E+00  0.0000E+00  0.0000E+00  0.0000E+00  0.0000E+00  0.0000E+00  0.0000E+00  0.0000E+00  0.0000E+00  0.0000E+00  0.0000E+00  0.0000E+00  0.0000E+00
    -29.518  0.0000E+00  0.0000E+00  0.0000E+00  0.0000E+00  0.0000E+00  0.0000E+00  0.0000E+00  0.0000E+00  0.0000E+00  0.0000E+00  0.0000E+00  0.0000E+00  0.0000E+00  0.0000E+00  0.0000E+00  0.0000E+00  0.0000E+00  0.0000E+00
    -29.368  0.0000E+00  0.0000E+00  0.0000E+00  0.0000E+00  0.0000E+00  0.0000E+00  0.0000E+00  0.0000E+00  0.0000E+00  0.0000E+00  0.0000E+00  0.0000E+00  0.0000E+00  0.0000E+00  0.0000E+00  0.0000E+00  0.0000E+00  0.0000E+00
    -29.218  0.0000E+00  0.0000E+00  0.0000E+00  0.0000E+00  0.0000E+00  0.0000E+00  0.0000E+00  0.0000E+00  0.0000E+00  0.0000E+00  0.0000E+00  0.0000E+00  0.0000E+00  0.0000E+00  0.0000E+00  0.0000E+00  0.0000E+00  0.0000E+00
    -29.068  0.0000E+00  0.0000E+00  0.0000E+00  0.0000E+00  0.0000E+00  0.0000E+00  0.0000E+00  0.0000E+00  0.0000E+00  0.0000E+00  0.0000E+00  0.0000E+00  0.0000E+00  0.0000E+00  0.0000E+00  0.0000E+00  0.0000E+00  0.0000E+00
    -28.918  0.0000E+00  0.0000E+00  0.0000E+00  0.0000E+00  0.0000E+00  0.0000E+00  0.0000E+00  0.0000E+00  0.0000E+00  0.0000E+00  0.0000E+00  0.0000E+00  0.0000E+00  0.0000E+00  0.0000E+00  0.0000E+00  0.0000E+00  0.0000E+00
    -28.767  0.0000E+00  0.0000E+00  0.0000E+00  0.0000E+00  0.0000E+00  0.0000E+00  0.0000E+00  0.0000E+00  0.0000E+00  0.0000E+00  0.0000E+00  0.0000E+00  0.0000E+00  0.0000E+00  0.0000E+00  0.0000E+00  0.0000E+00  0.0000E+00
    -28.617  0.0000E+00  0.0000E+00  0.0000E+00  0.0000E+00  0.0000E+00  0.0000E+00  0.0000E+00  0.0000E+00  0.0000E+00  0.0000E+00  0.0000E+00  0.0000E+00  0.0000E+00  0.0000E+00  0.0000E+00  0.0000E+00  0.0000E+00  0.0000E+00
    -28.467  0.0000E+00  0.0000E+00  0.0000E+00  0.0000E+00  0.0000E+00  0.0000E+00  0.0000E+00  0.0000E+00  0.0000E+00  0.0000E+00  0.0000E+00  0.0000E+00  0.0000E+00  0.0000E+00  0.0000E+00  0.0000E+00  0.0000E+00  0.0000E+00
    -28.317  0.0000E+00  0.0000E+00  0.0000E+00  0.0000E+00  0.0000E+00  0.0000E+00  0.0000E+00  0.0000E+00  0.0000E+00  0.0000E+00  0.0000E+00  0.0000E+00  0.0000E+00  0.0000E+00  0.0000E+00  0.0000E+00  0.0000E+00  0.0000E+00
    -28.167  0.0000E+00  0.0000E+00  0.0000E+00  0.0000E+00  0.0000E+00  0.0000E+00  0.0000E+00  0.0000E+00  0.0000E+00  0.0000E+00  0.0000E+00  0.0000E+00  0.0000E+00  0.0000E+00  0.0000E+00  0.0000E+00  0.0000E+00  0.0000E+00
    -28.017  0.0000E+00  0.0000E+00  0.0000E+00  0.0000E+00  0.0000E+00  0.0000E+00  0.0000E+00  0.0000E+00  0.0000E+00  0.0000E+00  0.0000E+00  0.0000E+00  0.0000E+00  0.0000E+00  0.0000E+00  0.0000E+00  0.0000E+00  0.0000E+00
    -27.867  0.0000E+00  0.0000E+00  0.0000E+00  0.0000E+00  0.0000E+00  0.0000E+00  0.0000E+00  0.0000E+00  0.0000E+00  0.0000E+00  0.0000E+00  0.0000E+00  0.0000E+00  0.0000E+00  0.0000E+00  0.0000E+00  0.0000E+00  0.0000E+00
    -27.717  0.0000E+00  0.0000E+00  0.0000E+00  0.0000E+00  0.0000E+00  0.0000E+00  0.0000E+00  0.0000E+00  0.0000E+00  0.0000E+00  0.0000E+00  0.0000E+00  0.0000E+00  0.0000E+00  0.0000E+00  0.0000E+00  0.0000E+00  0.0000E+00
    -27.567  0.0000E+00  0.0000E+00  0.0000E+00  0.0000E+00  0.0000E+00  0.0000E+00  0.0000E+00  0.0000E+00  0.0000E+00  0.0000E+00  0.0000E+00  0.0000E+00  0.0000E+00  0.0000E+00  0.0000E+00  0.0000E+00  0.0000E+00  0.0000E+00
    -27.417  0.0000E+00  0.0000E+00  0.0000E+00  0.0000E+00  0.0000E+00  0.0000E+00  0.0000E+00  0.0000E+00  0.0000E+00  0.0000E+00  0.0000E+00  0.0000E+00  0.0000E+00  0.0000E+00  0.0000E+00  0.0000E+00  0.0000E+00  0.0000E+00
    -27.267  0.0000E+00  0.0000E+00  0.0000E+00  0.0000E+00  0.0000E+00  0.0000E+00  0.0000E+00  0.0000E+00  0.0000E+00  0.0000E+00  0.0000E+00  0.0000E+00  0.0000E+00  0.0000E+00  0.0000E+00  0.0000E+00  0.0000E+00  0.0000E+00
    -27.117  0.0000E+00  0.0000E+00  0.0000E+00  0.0000E+00  0.0000E+00  0.0000E+00  0.0000E+00  0.0000E+00  0.0000E+00  0.0000E+00  0.0000E+00  0.0000E+00  0.0000E+00  0.0000E+00  0.0000E+00  0.0000E+00  0.0000E+00  0.0000E+00
    -26.966  0.0000E+00  0.0000E+00  0.0000E+00  0.0000E+00  0.0000E+00  0.0000E+00  0.0000E+00  0.0000E+00  0.0000E+00  0.0000E+00  0.0000E+00  0.0000E+00  0.0000E+00  0.0000E+00  0.0000E+00  0.0000E+00  0.0000E+00  0.0000E+00
    -26.816  0.0000E+00  0.0000E+00  0.0000E+00  0.0000E+00  0.0000E+00  0.0000E+00  0.0000E+00  0.0000E+00  0.0000E+00  0.0000E+00  0.0000E+00  0.0000E+00  0.0000E+00  0.0000E+00  0.0000E+00  0.0000E+00  0.0000E+00  0.0000E+00
    -26.666  0.0000E+00  0.0000E+00  0.0000E+00  0.0000E+00  0.0000E+00  0.0000E+00  0.0000E+00  0.0000E+00  0.0000E+00  0.0000E+00  0.0000E+00  0.0000E+00  0.0000E+00  0.0000E+00  0.0000E+00  0.0000E+00  0.0000E+00  0.0000E+00
    -26.516  0.0000E+00  0.0000E+00  0.0000E+00  0.0000E+00  0.0000E+00  0.0000E+00  0.0000E+00  0.0000E+00  0.0000E+00  0.0000E+00  0.0000E+00  0.0000E+00  0.0000E+00  0.0000E+00  0.0000E+00  0.0000E+00  0.0000E+00  0.0000E+00
    -26.366  0.0000E+00  0.0000E+00  0.0000E+00  0.0000E+00  0.0000E+00  0.0000E+00  0.0000E+00  0.0000E+00  0.0000E+00  0.0000E+00  0.0000E+00  0.0000E+00  0.0000E+00  0.0000E+00  0.0000E+00  0.0000E+00  0.0000E+00  0.0000E+00
    -26.216  0.0000E+00  0.0000E+00  0.0000E+00  0.0000E+00  0.0000E+00  0.0000E+00  0.0000E+00  0.0000E+00  0.0000E+00  0.0000E+00  0.0000E+00  0.0000E+00  0.0000E+00  0.0000E+00  0.0000E+00  0.0000E+00  0.0000E+00  0.0000E+00
    -26.066  0.0000E+00  0.0000E+00  0.0000E+00  0.0000E+00  0.0000E+00  0.0000E+00  0.0000E+00  0.0000E+00  0.0000E+00  0.0000E+00  0.0000E+00  0.0000E+00  0.0000E+00  0.0000E+00  0.0000E+00  0.0000E+00  0.0000E+00  0.0000E+00
    -25.916  0.0000E+00  0.0000E+00  0.0000E+00  0.0000E+00  0.0000E+00  0.0000E+00  0.0000E+00  0.0000E+00  0.0000E+00  0.0000E+00  0.0000E+00  0.0000E+00  0.0000E+00  0.0000E+00  0.0000E+00  0.0000E+00  0.0000E+00  0.0000E+00
    -25.766  0.0000E+00  0.0000E+00  0.0000E+00  0.0000E+00  0.0000E+00  0.0000E+00  0.0000E+00  0.0000E+00  0.0000E+00  0.0000E+00  0.0000E+00  0.0000E+00  0.0000E+00  0.0000E+00  0.0000E+00  0.0000E+00  0.0000E+00  0.0000E+00
    -25.616  0.0000E+00  0.0000E+00  0.0000E+00  0.0000E+00  0.0000E+00  0.0000E+00  0.0000E+00  0.0000E+00  0.0000E+00  0.0000E+00  0.0000E+00  0.0000E+00  0.0000E+00  0.0000E+00  0.0000E+00  0.0000E+00  0.0000E+00  0.0000E+00
    -25.466  0.0000E+00  0.0000E+00  0.0000E+00  0.0000E+00  0.0000E+00  0.0000E+00  0.0000E+00  0.0000E+00  0.0000E+00  0.0000E+00  0.0000E+00  0.0000E+00  0.0000E+00  0.0000E+00  0.0000E+00  0.0000E+00  0.0000E+00  0.0000E+00
    -25.316  0.0000E+00  0.0000E+00  0.0000E+00  0.0000E+00  0.0000E+00  0.0000E+00  0.0000E+00  0.0000E+00  0.0000E+00  0.0000E+00  0.0000E+00  0.0000E+00  0.0000E+00  0.0000E+00  0.0000E+00  0.0000E+00  0.0000E+00  0.0000E+00