   4   4   1   0
  0.2307236E+02  0.4518081E-09  0.4519589E-09  0.4519589E-09  0.5000000E-15
  1.000000000000000E-004
  CAR 
 unknown system                          
     13.54950804    -31.68260172  301      4.72459908      1.00000000
    -31.683  0.0000E+00  0.0000E+00  0.0000E+00  0.0000E+00
    -31.532  0.0000E+00  0.0000E+00  0.0000E+00  0.0000E+00
    -31.381  0.0000E+00  0.0000E+00  0.0000E+00  0.0000E+00
    -31.230  0.0000E+00  0.0000E+00  0.0000E+00  0.0000E+00
    -31.080  0.0000E+00  0.0000E+00  0.0000E+00  0.0000E+00
    -30.929  0.0000E+00  0.0000E+00  0.0000E+00  0.0000E+00
    -30.778  0.0000E+00  0.0000E+00  0.0000E+00  0.0000E+00
    -30.627  0.0000E+00  0.0000E+00  0.0000E+00  0.0000E+00
    -30.476  0.0000E+00  0.0000E+00  0.0000E+00  0.0000E+00
    -30.326  0.0000E+00  0.0000E+00  0.0000E+00  0.0000E+00
    -30.175  0.7394E-05  0.1418E-04  0.1115E-05  0.2138E-05
    -30.024  0.2083E-02  0.2105E-02  0.3152E-03  0.3196E-03
    -29.873  0.4029E-01  0.4085E-01  0.6390E-02  0.6479E-02
    -29.723  0.7267E+00  0.7356E+00  0.1160E+00  0.1174E+00
    -29.572  0.4058E+01  0.4066E+01  0.7277E+00  0.7305E+00
    -29.421  0.1686E+01  0.1670E+01  0.9820E+00  0.9822E+00
    -29.270  0.1135E+00  0.1120E+00  0.9991E+00  0.9991E+00
    -29.119  0.0000E+00  0.0000E+00  0.1000E+01  0.1000E+01
    -28.969  0.0000E+00  0.0000E+00  0.1000E+01  0.1000E+01
    -28.818  0.0000E+00  0.0000E+00  0.1000E+01  0.1000E+01
    -28.667  0.0000E+00  0.0000E+00  0.1000E+01  0.1000E+01
    -28.516  0.0000E+00  0.0000E+00  0.1000E+01  0.1000E+01
    -28.366  0.0000E+00  0.0000E+00  0.1000E+01  0.1000E+01
    -28.215  0.0000E+00  0.0000E+00  0.1000E+01  0.1000E+01
    -28.064  0.0000E+00  0.0000E+00  0.1000E+01  0.1000E+01
    -27.913  0.0000E+00  0.0000E+00  0.1000E+01  0.1000E+01
    -27.762  0.0000E+00  0.0000E+00  0.1000E+01  0.1000E+01
    -27.612  0.0000E+00  0.0000E+00  0.1000E+01  0.1000E+01
    -27.461  0.0000E+00  0.0000E+00  0.1000E+01  0.1000E+01
    -27.310  0.0000E+00  0.0000E+00  0.1000E+01  0.1000E+01
    -27.159  0.0000E+00  0.0000E+00  0.1000E+01  0.1000E+01
    -27.009  0.0000E+00  0.0000E+00  0.1000E+01  0.1000E+01
    -26.858  0.0000E+00  0.0000E+00  0.1000E+01  0.1000E+01
    -26.707  0.0000E+00  0.0000E+00  0.1000E+01  0.1000E+01
    -26.556  0.0000E+00  0.0000E+00  0.1000E+01  0.1000E+01
    -26.406  0.0000E+00  0.0000E+00  0.1000E+01  0.1000E+01
    -26.255  0.0000E+00  0.0000E+00  0.1000E+01  0.1000E+01
    -26.104  0.0000E+00  0.0000E+00  0.1000E+01  0.1000E+01
    -25.953  0.0000E+00  0.0000E+00  0.1000E+01  0.1000E+01
    -25.802  0.0000E+00  0.0000E+00  0.1000E+01  0.1000E+01
    -25.652  0.0000E+00  0.0000E+00  0.1000E+01  0.1000E+01
    -25.501  0.0000E+00  0.0000E+00  0.1000E+01  0.1000E+01
    -25.350  0.0000E+00  0.0000E+00  0.1000E+01  0.1000E+01
    -25.199  0.0000E+00  0.0000E+00  0.1000E+01  0.1000E+01
    -25.049  0.0000E+00  0.0000E+00  0.1000E+01  0.1000E+01
    -24.898  0.0000E+00  0.0000E+00  0.1000E+01  0.1000E+01
    -24.747  0.0000E+00  0.0000E+00  0.1000E+01  0.1000E+01
    -24.596  0.0000E+00  0.0000E+00  0.1000E+01  0.1000E+01
    -24.445  0.0000E+00  0.0000E+00  0.1000E+01  0.1000E+01
    -24.295  0.0000E+00  0.0000E+00  0.1000E+01  0.1000E+01
    -24.144  0.0000E+00  0.0000E+00  0.1000E+01  0.1000E+01
    -23.993  0.0000E+00  0.0000E+00  0.1000E+01  0.1000E+01
    -23.842  0.0000E+00  0.0000E+00  0.1000E+01  0.1000E+01
    -23.692  0.0000E+00  0.0000E+00  0.1000E+01  0.1000E+01
    -23.541  0.0000E+00  0.0000E+00  0.1000E+01  0.1000E+01
    -23.390  0.0000E+00  0.0000E+00  0.1000E+01  0.1000E+01
    -23.239  0.0000E+00  0.0000E+00  0.1000E+01  0.1000E+01
    -23.089  0.0000E+00  0.0000E+00  0.1000E+01  0.1000E+01
    -22.938  0.0000E+00  0.0000E+00  0.1000E+01  0.1000E+01
    -22.787  0.0000E+00  0.0000E+00  0.1000E+01  0.1000E+01
    -22.636  0.0000E+00  0.0000E+00  0.1000E+01  0.1000E+01
    -22.485  0.0000E+00  0.0000E+00  0.1000E+01  0.1000E+01
    -22.335  0.0000E+00  0.0000E+00  0.1000E+01  0.1000E+01
    -22.184  0.0000E+00  0.0000E+00  0.1000E+01  0.1000E+01
    -22.033  0.0000E+00  0.0000E+00  0.1000E+01  0.1000E+01
    -21.882  0.0000E+00  0.0000E+00  0.1000E+01  0.1000E+01
    -21.732  0.0000E+00  0.0000E+00  0.1000E+01  0.1000E+01
    -21.581  0.0000E+00  0.0000E+00  0.1000E+01  0.1000E+01
    -21.430  0.0000E+00  0.0000E+00  0.1000E+01  0.1000E+01
    -21.279  0.0000E+00  0.0000E+00  0.1000E+01  0.1000E+01
    -21.128  0.0000E+00  0.0000E+00  0.1000E+01  0.1000E+01
    -20.978  0.0000E+00  0.0000E+00  0.1000E+01  0.1000E+01
    -20.827  0.0000E+00  0.0000E+00  0.1000E+01  0.1000E+01
    -20.676  0.0000E+00  0.0000E+00  0.1000E+01  0.1000E+01
    -20.525  0.0000E+00  0.0000E+00  0.1000E+01  0.1000E+01
    -20.375  0.0000E+00  0.0000E+00  0.1000E+01  0.1000E+01
    -20.224  0.0000E+00  0.0000E+00  0.1000E+01  0.1000E+01
    -20.073  0.0000E+00  0.0000E+00  0.1000E+01  0.1000E+01
    -19.922  0.0000E+00  0.0000E+00  0.1000E+01  0.1000E+01
    -19.771  0.0000E+00  0.0000E+00  0.1000E+01  0.1000E+01
    -19.621  0.0000E+00  0.0000E+00  0.1000E+01  0.1000E+01
    -19.470  0.0000E+00  0.0000E+00  0.1000E+01  0.1000E+01
    -19.319  0.0000E+00  0.0000E+00  0.1000E+01  0.1000E+01
    -19.168  0.0000E+00  0.0000E+00  0.1000E+01  0.1000E+01
    -19.018  0.0000E+00  0.0000E+00  0.1000E+01  0.1000E+01
    -18.867  0.0000E+00  0.0000E+00  0.1000E+01  0.1000E+01
    -18.716  0.0000E+00  0.0000E+00  0.1000E+01  0.1000E+01
    -18.565  0.0000E+00  0.0000E+00  0.1000E+01  0.1000E+01
    -18.415  0.0000E+00  0.0000E+00  0.1000E+01  0.1000E+01
    -18.264  0.0000E+00  0.0000E+00  0.1000E+01  0.1000E+01
    -18.113  0.0000E+00  0.0000E+00  0.1000E+01  0.1000E+01
    -17.962  0.0000E+00  0.0000E+00  0.1000E+01  0.1000E+01
    -17.811  0.0000E+00  0.0000E+00  0.1000E+01  0.1000E+01
    -17.661  0.0000E+00  0.0000E+00  0.1000E+01  0.1000E+01
    -17.510  0.0000E+00  0.0000E+00  0.1000E+01  0.1000E+01
    -17.359  0.0000E+00  0.0000E+00  0.1000E+01  0.1000E+01
    -17.208  0.0000E+00  0.0000E+00  0.1000E+01  0.1000E+01
    -17.058  0.0000E+00  0.0000E+00  0.1000E+01  0.1000E+01
    -16.907  0.0000E+00  0.0000E+00  0.1000E+01  0.1000E+01
    -16.756  0.0000E+00  0.0000E+00  0.1000E+01  0.1000E+01
    -16.605  0.0000E+00  0.0000E+00  0.1000E+01  0.1000E+01
    -16.454  0.0000E+00  0.0000E+00  0.1000E+01  0.1000E+01
    -16.304  0.0000E+00  0.0000E+00  0.1000E+01  0.1000E+01
    -16.153  0.0000E+00  0.0000E+00  0.1000E+01  0.1000E+01
    -16.002  0.0000E+00  0.0000E+00  0.1000E+01  0.1000E+01
    -15.851  0.0000E+00  0.0000E+00  0.1000E+01  0.1000E+01
    -15.701  0.0000E+00  0.0000E+00  0.1000E+01  0.1000E+01
    -15.550  0.0000E+00  0.0000E+00  0.1000E+01  0.1000E+01
    -15.399  0.0000E+00  0.0000E+00  0.1000E+01  0.1000E+01
    -15.248  0.0000E+00  0.0000E+00  0.1000E+01  0.1000E+01
    -15.097  0.0000E+00  0.0000E+00  0.1000E+01  0.1000E+01
    -14.947  0.0000E+00  0.0000E+00  0.1000E+01  0.1000E+01
    -14.796  0.0000E+00  0.0000E+00  0.1000E+01  0.1000E+01
    -14.645  0.0000E+00  0.0000E+00  0.1000E+01  0.1000E+01
    -14.494  0.0000E+00  0.0000E+00  0.1000E+01  0.1000E+01
    -14.344  0.0000E+00  0.0000E+00  0.1000E+01  0.1000E+01
    -14.193  0.0000E+00  0.0000E+00  0.1000E+01  0.1000E+01
    -14.042  0.0000E+00  0.0000E+00  0.1000E+01  0.1000E+01
    -13.891  0.0000E+00  0.0000E+00  0.1000E+01  0.1000E+01
    -13.741  0.0000E+00  0.0000E+00  0.1000E+01  0.1000E+01
    -13.590  0.0000E+00  0.0000E+00  0.1000E+01  0.1000E+01
    -13.439  0.0000E+00  0.0000E+00  0.1000E+01  0.1000E+01
    -13.288  0.0000E+00  0.0000E+00  0.1000E+01  0.1000E+01
    -13.137  0.0000E+00  0.0000E+00  0.1000E+01  0.1000E+01
    -12.987  0.0000E+00  0.0000E+00  0.1000E+01  0.1000E+01
    -12.836  0.0000E+00  0.0000E+00  0.1000E+01  0.1000E+01
    -12.685  0.0000E+00  0.0000E+00  0.1000E+01  0.1000E+01
    -12.534  0.0000E+00  0.0000E+00  0.1000E+01  0.1000E+01
    -12.384  0.4226E-03  0.4270E-03  0.1000E+01  0.1000E+01
    -12.233  0.9913E-02  0.9976E-02  0.1002E+01  0.1002E+01
    -12.082  0.1971E+00  0.1984E+00  0.1031E+01  0.1031E+01
    -11.931  0.3041E+01  0.3056E+01  0.1490E+01  0.1492E+01
    -11.780  0.1129E+02  0.1130E+02  0.3193E+01  0.3196E+01
    -11.630  0.4945E+01  0.4925E+01  0.3938E+01  0.3939E+01
    -11.479  0.3658E+00  0.3631E+00  0.3997E+01  0.3997E+01
    -11.328  0.0000E+00  0.0000E+00  0.4000E+01  0.4000E+01
    -11.177  0.0000E+00  0.0000E+00  0.4000E+01  0.4000E+01
    -11.027  0.0000E+00  0.0000E+00  0.4000E+01  0.4000E+01
    -10.876  0.0000E+00  0.0000E+00  0.4000E+01  0.4000E+01
    -10.725  0.0000E+00  0.0000E+00  0.4000E+01  0.4000E+01
    -10.574  0.0000E+00  0.0000E+00  0.4000E+01  0.4000E+01
    -10.424  0.0000E+00  0.0000E+00  0.4000E+01  0.4000E+01
    -10.273  0.0000E+00  0.0000E+00  0.4000E+01  0.4000E+01
    -10.122  0.0000E+00  0.0000E+00  0.4000E+01  0.4000E+01
     -9.971  0.0000E+00  0.0000E+00  0.4000E+01  0.4000E+01
     -9.820  0.0000E+00  0.0000E+00  0.4000E+01  0.4000E+01
     -9.670  0.0000E+00  0.0000E+00  0.4000E+01  0.4000E+01
     -9.519  0.0000E+00  0.0000E+00  0.4000E+01  0.4000E+01
     -9.368  0.0000E+00  0.0000E+00  0.4000E+01  0.4000E+01
     -9.217  0.0000E+00  0.0000E+00  0.4000E+01  0.4000E+01
     -9.067  0.0000E+00  0.0000E+00  0.4000E+01  0.4000E+01
     -8.916  0.0000E+00  0.0000E+00  0.4000E+01  0.4000E+01
     -8.765  0.0000E+00  0.0000E+00  0.4000E+01  0.4000E+01
     -8.614  0.0000E+00  0.0000E+00  0.4000E+01  0.4000E+01
     -8.463  0.0000E+00  0.0000E+00  0.4000E+01  0.4000E+01
     -8.313  0.0000E+00  0.0000E+00  0.4000E+01  0.4000E+01
     -8.162  0.0000E+00  0.0000E+00  0.4000E+01  0.4000E+01
     -8.011  0.0000E+00  0.0000E+00  0.4000E+01  0.4000E+01
     -7.860  0.0000E+00  0.0000E+00  0.4000E+01  0.4000E+01
     -7.710  0.0000E+00  0.0000E+00  0.4000E+01  0.4000E+01
     -7.559  0.0000E+00  0.0000E+00  0.4000E+01  0.4000E+01
     -7.408  0.0000E+00  0.0000E+00  0.4000E+01  0.4000E+01
     -7.257  0.0000E+00  0.0000E+00  0.4000E+01  0.4000E+01
     -7.106  0.0000E+00  0.0000E+00  0.4000E+01  0.4000E+01
     -6.956  0.0000E+00  0.0000E+00  0.4000E+01  0.4000E+01
     -6.805  0.0000E+00  0.0000E+00  0.4000E+01  0.4000E+01
     -6.654  0.0000E+00  0.0000E+00  0.4000E+01  0.4000E+01
     -6.503  0.0000E+00  0.0000E+00  0.4000E+01  0.4000E+01
     -6.353  0.0000E+00  0.0000E+00  0.4000E+01  0.4000E+01
     -6.202  0.0000E+00  0.0000E+00  0.4000E+01  0.4000E+01
     -6.051  0.0000E+00  0.0000E+00  0.4000E+01  0.4000E+01
     -5.900  0.0000E+00  0.0000E+00  0.4000E+01  0.4000E+01
     -5.750  0.0000E+00  0.0000E+00  0.4000E+01  0.4000E+01
     -5.599  0.0000E+00  0.0000E+00  0.4000E+01  0.4000E+01
     -5.448  0.0000E+00  0.0000E+00  0.4000E+01  0.4000E+01
     -5.297  0.0000E+00  0.0000E+00  0.4000E+01  0.4000E+01
     -5.146  0.0000E+00  0.0000E+00  0.4000E+01  0.4000E+01
     -4.996  0.0000E+00  0.0000E+00  0.4000E+01  0.4000E+01
     -4.845  0.0000E+00  0.0000E+00  0.4000E+01  0.4000E+01
     -4.694  0.0000E+00  0.0000E+00  0.4000E+01  0.4000E+01
     -4.543  0.0000E+00  0.0000E+00  0.4000E+01  0.4000E+01
     -4.393  0.0000E+00  0.0000E+00  0.4000E+01  0.4000E+01
     -4.242  0.0000E+00  0.0000E+00  0.4000E+01  0.4000E+01
     -4.091  0.0000E+00  0.0000E+00  0.4000E+01  0.4000E+01
     -3.940  0.0000E+00  0.0000E+00  0.4000E+01  0.4000E+01
     -3.789  0.2835E-05  0.2904E-05  0.4000E+01  0.4000E+01
     -3.639  0.6314E-04  0.6467E-04  0.4000E+01  0.4000E+01
     -3.488  0.1260E-02  0.1290E-02  0.4000E+01  0.4000E+01
     -3.337  0.1764E-01  0.1794E-01  0.4003E+01  0.4003E+01
     -3.186  0.7389E-01  0.7438E-01  0.4014E+01  0.4014E+01
     -3.036  0.1325E+00  0.1328E+00  0.4034E+01  0.4034E+01
     -2.885  0.1693E+00  0.1697E+00  0.4060E+01  0.4060E+01
     -2.734  0.2106E+00  0.2108E+00  0.4091E+01  0.4092E+01
     -2.583  0.2280E+00  0.2282E+00  0.4126E+01  0.4126E+01
     -2.433  0.2957E+00  0.2961E+00  0.4170E+01  0.4171E+01
     -2.282  0.2883E+00  0.2881E+00  0.4214E+01  0.4214E+01
     -2.131  0.3486E+00  0.3496E+00  0.4267E+01  0.4267E+01
     -1.980  0.3988E+00  0.3979E+00  0.4327E+01  0.4327E+01
     -1.829  0.4142E+00  0.4149E+00  0.4389E+01  0.4390E+01
     -1.679  0.5013E+00  0.5015E+00  0.4465E+01  0.4466E+01
     -1.528  0.5752E+00  0.5757E+00  0.4552E+01  0.4552E+01
     -1.377  0.5250E+00  0.5242E+00  0.4631E+01  0.4632E+01
     -1.226  0.5209E+00  0.5205E+00  0.4710E+01  0.4710E+01
     -1.076  0.4423E+00  0.4420E+00  0.4777E+01  0.4777E+01
     -0.925  0.5022E+00  0.5026E+00  0.4852E+01  0.4853E+01
     -0.774  0.4969E+00  0.4973E+00  0.4927E+01  0.4928E+01
     -0.623  0.4215E+00  0.4201E+00  0.4991E+01  0.4992E+01
     -0.472  0.4091E+00  0.4097E+00  0.5053E+01  0.5053E+01
     -0.322  0.4171E+00  0.4176E+00  0.5116E+01  0.5117E+01
     -0.171  0.5544E+00  0.5548E+00  0.5200E+01  0.5200E+01
     -0.020  0.5035E+00  0.5033E+00  0.5276E+01  0.5276E+01
      0.131  0.5956E+00  0.5964E+00  0.5366E+01  0.5366E+01
      0.281  0.8051E+00  0.8067E+00  0.5487E+01  0.5488E+01
      0.432  0.1128E+01  0.1130E+01  0.5658E+01  0.5659E+01
      0.583  0.1146E+01  0.1144E+01  0.5831E+01  0.5832E+01
      0.734  0.1001E+01  0.1000E+01  0.5982E+01  0.5983E+01
      0.885  0.7237E+00  0.7217E+00  0.6091E+01  0.6092E+01
      1.035  0.7685E+00  0.7706E+00  0.6207E+01  0.6208E+01
      1.186  0.8621E+00  0.8604E+00  0.6338E+01  0.6338E+01
      1.337  0.4662E+00  0.4648E+00  0.6408E+01  0.6409E+01
      1.488  0.5097E+00  0.5103E+00  0.6485E+01  0.6486E+01
      1.638  0.5889E+00  0.5895E+00  0.6574E+01  0.6575E+01
      1.789  0.5347E+00  0.5335E+00  0.6655E+01  0.6655E+01
      1.940  0.4162E+00  0.4165E+00  0.6718E+01  0.6718E+01
      2.091  0.4491E+00  0.4498E+00  0.6786E+01  0.6786E+01
      2.241  0.5449E+00  0.5458E+00  0.6868E+01  0.6869E+01
      2.392  0.7388E+00  0.7412E+00  0.6979E+01  0.6981E+01
      2.543  0.7091E+00  0.7075E+00  0.7087E+01  0.7087E+01
      2.694  0.7373E+00  0.7396E+00  0.7198E+01  0.7199E+01
      2.845  0.7518E+00  0.7505E+00  0.7312E+01  0.7312E+01
      2.995  0.7457E+00  0.7463E+00  0.7424E+01  0.7425E+01
      3.146  0.8498E+00  0.8508E+00  0.7553E+01  0.7554E+01
      3.297  0.9590E+00  0.9597E+00  0.7697E+01  0.7699E+01
      3.448  0.1117E+01  0.1120E+01  0.7866E+01  0.7868E+01
      3.598  0.1349E+01  0.1350E+01  0.8070E+01  0.8072E+01
      3.749  0.1388E+01  0.1390E+01  0.8280E+01  0.8282E+01
      3.900  0.1739E+01  0.1740E+01  0.8542E+01  0.8545E+01
      4.051  0.1551E+01  0.1549E+01  0.8777E+01  0.8779E+01
      4.202  0.1514E+01  0.1511E+01  0.9005E+01  0.9007E+01
      4.352  0.9148E+00  0.9128E+00  0.9144E+01  0.9145E+01
      4.503  0.1074E+01  0.1076E+01  0.9307E+01  0.9308E+01
      4.654  0.9331E+00  0.9304E+00  0.9448E+01  0.9449E+01
      4.805  0.6648E+00  0.6626E+00  0.9548E+01  0.9549E+01
      4.955  0.6626E+00  0.6646E+00  0.9648E+01  0.9649E+01
      5.106  0.9475E+00  0.9502E+00  0.9792E+01  0.9793E+01
      5.257  0.1138E+01  0.1137E+01  0.9963E+01  0.9965E+01
      5.408  0.1048E+01  0.1047E+01  0.1012E+02  0.1012E+02
      5.559  0.7614E+00  0.7599E+00  0.1024E+02  0.1024E+02
      5.709  0.1017E+01  0.1020E+01  0.1039E+02  0.1039E+02
      5.860  0.1093E+01  0.1091E+01  0.1056E+02  0.1056E+02
      6.011  0.8352E+00  0.8347E+00  0.1068E+02  0.1068E+02
      6.162  0.9998E+00  0.1001E+01  0.1083E+02  0.1083E+02
      6.312  0.1008E+01  0.1008E+01  0.1099E+02  0.1099E+02
      6.463  0.8968E+00  0.8960E+00  0.1112E+02  0.1112E+02
      6.614  0.8014E+00  0.8019E+00  0.1124E+02  0.1124E+02
      6.765  0.1008E+01  0.1010E+01  0.1139E+02  0.1140E+02
      6.915  0.1082E+01  0.1081E+01  0.1156E+02  0.1156E+02
      7.066  0.1059E+01  0.1058E+01  0.1172E+02  0.1172E+02
      7.217  0.1034E+01  0.1033E+01  0.1187E+02  0.1188E+02
      7.368  0.8098E+00  0.8083E+00  0.1200E+02  0.1200E+02
      7.519  0.8764E+00  0.8782E+00  0.1213E+02  0.1213E+02
      7.669  0.1047E+01  0.1047E+01  0.1229E+02  0.1229E+02
      7.820  0.1025E+01  0.1026E+01  0.1244E+02  0.1244E+02
      7.971  0.1270E+01  0.1272E+01  0.1263E+02  0.1264E+02
      8.122  0.1264E+01  0.1264E+01  0.1282E+02  0.1283E+02
      8.272  0.1449E+01  0.1450E+01  0.1304E+02  0.1305E+02
      8.423  0.1447E+01  0.1449E+01  0.1326E+02  0.1326E+02
      8.574  0.1776E+01  0.1777E+01  0.1353E+02  0.1353E+02
      8.725  0.1678E+01  0.1676E+01  0.1378E+02  0.1379E+02
      8.876  0.1387E+01  0.1380E+01  0.1399E+02  0.1399E+02
      9.026  0.1372E+01  0.1377E+01  0.1420E+02  0.1420E+02
      9.177  0.1442E+01  0.1442E+01  0.1442E+02  0.1442E+02
      9.328  0.1434E+01  0.1434E+01  0.1464E+02  0.1464E+02
      9.479  0.1586E+01  0.1576E+01  0.1488E+02  0.1488E+02
      9.629  0.1475E+01  0.1449E+01  0.1510E+02  0.1509E+02
      9.780  0.1661E+01  0.1631E+01  0.1535E+02  0.1534E+02
      9.931  0.1482E+01  0.1492E+01  0.1557E+02  0.1557E+02
     10.082  0.1188E+01  0.1150E+01  0.1575E+02  0.1574E+02
     10.232  0.5269E+00  0.5753E+00  0.1583E+02  0.1583E+02
     10.383  0.3297E+00  0.3621E+00  0.1588E+02  0.1588E+02
     10.534  0.1884E+00  0.1923E+00  0.1591E+02  0.1591E+02
     10.685  0.1325E+00  0.1416E+00  0.1593E+02  0.1593E+02
     10.836  0.1374E+00  0.1278E+00  0.1595E+02  0.1595E+02
     10.986  0.6683E-01  0.6699E-01  0.1596E+02  0.1596E+02
     11.137  0.1178E+00  0.1161E+00  0.1598E+02  0.1598E+02
     11.288  0.7789E-01  0.7990E-01  0.1599E+02  0.1599E+02
     11.439  0.2373E-01  0.2778E-01  0.1600E+02  0.1600E+02
     11.589  0.2718E-01  0.2444E-01  0.1600E+02  0.1600E+02
     11.740  0.4281E-02  0.2753E-02  0.1600E+02  0.1600E+02
     11.891  0.1640E-03  0.0000E+00  0.1600E+02  0.1600E+02
     12.042  0.0000E+00  0.0000E+00  0.1600E+02  0.1600E+02
     12.193  0.0000E+00  0.0000E+00  0.1600E+02  0.1600E+02
     12.343  0.0000E+00  0.0000E+00  0.1600E+02  0.1600E+02
     12.494  0.0000E+00  0.0000E+00  0.1600E+02  0.1600E+02
     12.645  0.0000E+00  0.0000E+00  0.1600E+02  0.1600E+02
     12.796  0.0000E+00  0.0000E+00  0.1600E+02  0.1600E+02
     12.946  0.0000E+00  0.0000E+00  0.1600E+02  0.1600E+02
     13.097  0.0000E+00  0.0000E+00  0.1600E+02  0.1600E+02
     13.248  0.0000E+00  0.0000E+00  0.1600E+02  0.1600E+02
     13.399  0.0000E+00  0.0000E+00  0.1600E+02  0.1600E+02
     13.550  0.0000E+00  0.0000E+00  0.1600E+02  0.1600E+02
     13.54950804    -31.68260172  301      4.72459908      1.00000000
    -31.683  0.0000E+00  0.0000E+00  0.0000E+00  0.0000E+00  0.0000E+00  0.0000E+00  0.0000E+00  0.0000E+00  0.0000E+00  0.0000E+00  0.0000E+00  0.0000E+00  0.0000E+00  0.0000E+00  0.0000E+00  0.0000E+00  0.0000E+00  0.0000E+00
    -31.532  0.0000E+00  0.0000E+00  0.0000E+00  0.0000E+00  0.0000E+00  0.0000E+00  0.0000E+00  0.0000E+00  0.0000E+00  0.0000E+00  0.0000E+00  0.0000E+00  0.0000E+00  0.0000E+00  0.0000E+00  0.0000E+00  0.0000E+00  0.0000E+00
    -31.381  0.0000E+00  0.0000E+00  0.0000E+00  0.0000E+00  0.0000E+00  0.0000E+00  0.0000E+00  0.0000E+00  0.0000E+00  0.0000E+00  0.0000E+00  0.0000E+00  0.0000E+00  0.0000E+00  0.0000E+00  0.0000E+00  0.0000E+00  0.0000E+00
    -31.230  0.0000E+00  0.0000E+00  0.0000E+00  0.0000E+00  0.0000E+00  0.0000E+00  0.0000E+00  0.0000E+00  0.0000E+00  0.0000E+00  0.0000E+00  0.0000E+00  0.0000E+00  0.0000E+00  0.0000E+00  0.0000E+00  0.0000E+00  0.0000E+00
    -31.080  0.0000E+00  0.0000E+00  0.0000E+00  0.0000E+00  0.0000E+00  0.0000E+00  0.0000E+00  0.0000E+00  0.0000E+00  0.0000E+00  0.0000E+00  0.0000E+00  0.0000E+00  0.0000E+00  0.0000E+00  0.0000E+00  0.0000E+00  0.0000E+00
    -30.929  0.0000E+00  0.0000E+00  0.0000E+00  0.0000E+00  0.0000E+00  0.0000E+00  0.0000E+00  0.0000E+00  0.0000E+00  0.0000E+00  0.0000E+00  0.0000E+00  0.0000E+00  0.0000E+00  0.0000E+00  0.0000E+00  0.0000E+00  0.0000E+00
    -30.778  0.0000E+00  0.0000E+00  0.0000E+00  0.0000E+00  0.0000E+00  0.0000E+00  0.0000E+00  0.0000E+00  0.0000E+00  0.0000E+00  0.0000E+00  0.0000E+00  0.0000E+00  0.0000E+00  0.0000E+00  0.0000E+00  0.0000E+00  0.0000E+00
    -30.627  0.0000E+00  0.0000E+00  0.0000E+00  0.0000E+00  0.0000E+00  0.0000E+00  0.0000E+00  0.0000E+00  0.0000E+00  0.0000E+00  0.0000E+00  0.0000E+00  0.0000E+00  0.0000E+00  0.0000E+00  0.0000E+00  0.0000E+00  0.0000E+00
    -30.476  0.0000E+00  0.0000E+00  0.0000E+00  0.0000E+00  0.0000E+00  0.0000E+00  0.0000E+00  0.0000E+00  0.0000E+00  0.0000E+00  0.0000E+00  0.0000E+00  0.0000E+00  0.0000E+00  0.0000E+00  0.0000E+00  0.0000E+00  0.0000E+00
    -30.326  0.0000E+00  0.0000E+00  0.0000E+00  0.0000E+00  0.0000E+00  0.0000E+00  0.0000E+00  0.0000E+00  0.0000E+00  0.0000E+00  0.0000E+00  0.0000E+00  0.0000E+00  0.0000E+00  0.0000E+00  0.0000E+00  0.0000E+00  0.0000E+00
    -30.175  0.7220E-05  0.1385E-04  0.8357E-13  0.2004E-12  0.8357E-13  0.2004E-12  0.8428E-13  0.2022E-12  0.6106E-16  0.1716E-15  0.5804E-16  0.1701E-15  0.9568E-14  0.3703E-13  0.6106E-16  0.1716E-15  0.1115E-13  0.4373E-13
    -30.024  0.2035E-02  0.2057E-02  0.3372E-10  0.3456E-10  0.3372E-10  0.3456E-10  0.3401E-10  0.3486E-10  0.4152E-13  0.4131E-13  0.4146E-13  0.4056E-13  0.1652E-10  0.1690E-10  0.4152E-13  0.4131E-13  0.1666E-10  0.1705E-10
    -29.873  0.3936E-01  0.3991E-01  0.6515E-09  0.6699E-09  0.6515E-09  0.6699E-09  0.6572E-09  0.6758E-09  0.8015E-12  0.7995E-12  0.8003E-12  0.7851E-12  0.3185E-09  0.3265E-09  0.8015E-12  0.7995E-12  0.3213E-09  0.3295E-09
    -29.723  0.7099E+00  0.7186E+00  0.1175E-07  0.1206E-07  0.1175E-07  0.1206E-07  0.1185E-07  0.1217E-07  0.1446E-10  0.1441E-10  0.1444E-10  0.1415E-10  0.5746E-08  0.5880E-08  0.1446E-10  0.1441E-10  0.5793E-08  0.5933E-08
    -29.572  0.3964E+01  0.3972E+01  0.6559E-07  0.6666E-07  0.6559E-07  0.6666E-07  0.6617E-07  0.6725E-07  0.8092E-10  0.7998E-10  0.8084E-10  0.7850E-10  0.3212E-07  0.3253E-07  0.8092E-10  0.7998E-10  0.3230E-07  0.3274E-07
    -29.421  0.1647E+01  0.1631E+01  0.2724E-07  0.2735E-07  0.2724E-07  0.2735E-07  0.2748E-07  0.2759E-07  0.3370E-10  0.3299E-10  0.3369E-10  0.3236E-10  0.1336E-07  0.1337E-07  0.3370E-10  0.3299E-10  0.1339E-07  0.1341E-07
    -29.270  0.1109E+00  0.1094E+00  0.1834E-08  0.1834E-08  0.1834E-08  0.1834E-08  0.1850E-08  0.1850E-08  0.2270E-11  0.2216E-11  0.2270E-11  0.2173E-11  0.8994E-09  0.8965E-09  0.2270E-11  0.2216E-11  0.9006E-09  0.8984E-09
    -29.119  0.0000E+00  0.0000E+00  0.0000E+00  0.0000E+00  0.0000E+00  0.0000E+00  0.0000E+00  0.0000E+00  0.0000E+00  0.0000E+00  0.0000E+00  0.0000E+00  0.0000E+00  0.0000E+00  0.0000E+00  0.0000E+00  0.0000E+00  0.0000E+00
    -28.969  0.0000E+00  0.0000E+00  0.0000E+00  0.0000E+00  0.0000E+00  0.0000E+00  0.0000E+00  0.0000E+00  0.0000E+00  0.0000E+00  0.0000E+00  0.0000E+00  0.0000E+00  0.0000E+00  0.0000E+00  0.0000E+00  0.0000E+00  0.0000E+00
    -28.818  0.0000E+00  0.0000E+00  0.0000E+00  0.0000E+00  0.0000E+00  0.0000E+00  0.0000E+00  0.0000E+00  0.0000E+00  0.0000E+00  0.0000E+00  0.0000E+00  0.0000E+00  0.0000E+00  0.0000E+00  0.0000E+00  0.0000E+00  0.0000E+00
    -28.667  0.0000E+00  0.0000E+00  0.0000E+00  0.0000E+00  0.0000E+00  0.0000E+00  0.0000E+00  0.0000E+00  0.0000E+00  0.0000E+00  0.0000E+00  0.0000E+00  0.0000E+00  0.0000E+00  0.0000E+00  0.0000E+00  0.0000E+00  0.0000E+00
    -28.516  0.0000E+00  0.0000E+00  0.0000E+00  0.0000E+00  0.0000E+00  0.0000E+00  0.0000E+00  0.0000E+00  0.0000E+00  0.0000E+00  0.0000E+00  0.0000E+00  0.0000E+00  0.0000E+00  0.0000E+00  0.0000E+00  0.0000E+00  0.0000E+00
    -28.366  0.0000E+00  0.0000E+00  0.0000E+00  0.0000E+00  0.0000E+00  0.0000E+00  0.0000E+00  0.0000E+00  0.0000E+00  0.0000E+00  0.0000E+00  0.0000E+00  0.0000E+00  0.0000E+00  0.0000E+00  0.0000E+00  0.0000E+00  0.0000E+00
    -28.215  0.0000E+00  0.0000E+00  0.0000E+00  0.0000E+00  0.0000E+00  0.0000E+00  0.0000E+00  0.0000E+00  0.0000E+00  0.0000E+00  0.0000E+00  0.0000E+00  0.0000E+00  0.0000E+00  0.0000E+00  0.0000E+00  0.0000E+00  0.0000E+00
    -28.064  0.0000E+00  0.0000E+00  0.0000E+00  0.0000E+00  0.0000E+00  0.0000E+00  0.0000E+00  0.0000E+00  0.0000E+00  0.0000E+00  0.0000E+00  0.0000E+00  0.0000E+00  0.0000E+00  0.0000E+00  0.0000E+00  0.0000E+00  0.0000E+00
    -27.913  0.0000E+00  0.0000E+00  0.0000E+00  0.0000E+00  0.0000E+00  0.0000E+00  0.0000E+00  0.0000E+00  0.0000E+00  0.0000E+00  0.0000E+00  0.0000E+00  0.0000E+00  0.0000E+00  0.0000E+00  0.0000E+00  0.0000E+00  0.0000E+00
    -27.762  0.0000E+00  0.0000E+00  0.0000E+00  0.0000E+00  0.0000E+00  0.0000E+00  0.0000E+00  0.0000E+00  0.0000E+00  0.0000E+00  0.0000E+00  0.0000E+00  0.0000E+00  0.0000E+00  0.0000E+00  0.0000E+00  0.0000E+00  0.0000E+00
    -27.612  0.0000E+00  0.0000E+00  0.0000E+00  0.0000E+00  0.0000E+00  0.0000E+00  0.0000E+00  0.0000E+00  0.0000E+00  0.0000E+00  0.0000E+00  0.0000E+00  0.0000E+00  0.0000E+00  0.0000E+00  0.0000E+00  0.0000E+00  0.0000E+00
    -27.461  0.0000E+00  0.0000E+00  0.0000E+00  0.0000E+00  0.0000E+00  0.0000E+00  0.0000E+00  0.0000E+00  0.0000E+00  0.0000E+00  0.0000E+00  0.0000E+00  0.0000E+00  0.0000E+00  0.0000E+00  0.0000E+00  0.0000E+00  0.0000E+00
    -27.310  0.0000E+00  0.0000E+00  0.0000E+00  0.0000E+00  0.0000E+00  0.0000E+00  0.0000E+00  0.0000E+00  0.0000E+00  0.0000E+00  0.0000E+00  0.0000E+00  0.0000E+00  0.0000E+00  0.0000E+00  0.0000E+00  0.0000E+00  0.0000E+00
    -27.159  0.0000E+00  0.0000E+00  0.0000E+00  0.0000E+00  0.0000E+00  0.0000E+00  0.0000E+00  0.0000E+00  0.0000E+00  0.0000E+00  0.0000E+00  0.0000E+00  0.0000E+00  0.0000E+00  0.0000E+00  0.0000E+00  0.0000E+00  0.0000E+00
    -27.009  0.0000E+00  0.0000E+00  0.0000E+00  0.0000E+00  0.0000E+00  0.0000E+00  0.0000E+00  0.0000E+00  0.0000E+00  0.0000E+00  0.0000E+00  0.0000E+00  0.0000E+00  0.0000E+00  0.0000E+00  0.0000E+00  0.0000E+00  0.0000E+00
    -26.858  0.0000E+00  0.0000E+00  0.0000E+00  0.0000E+00  0.0000E+00  0.0000E+00  0.0000E+00  0.0000E+00  0.0000E+00  0.0000E+00  0.0000E+00  0.0000E+00  0.0000E+00  0.0000E+00  0.0000E+00  0.0000E+00  0.0000E+00  0.0000E+00
    -26.707  0.0000E+00  0.0000E+00  0.0000E+00  0.0000E+00  0.0000E+00  0.0000E+00  0.0000E+00  0.0000E+00  0.0000E+00  0.0000E+00  0.0000E+00  0.0000E+00  0.0000E+00  0.0000E+00  0.0000E+00  0.0000E+00  0.0000E+00  0.0000E+00
    -26.556  0.0000E+00  0.0000E+00  0.0000E+00  0.0000E+00  0.0000E+00  0.0000E+00  0.0000E+00  0.0000E+00  0.0000E+00  0.0000E+00  0.0000E+00  0.0000E+00  0.0000E+00  0.0000E+00  0.0000E+00  0.0000E+00  0.0000E+00  0.0000E+00
    -26.406  0.0000E+00  0.0000E+00  0.0000E+00  0.0000E+00  0.0000E+00  0.0000E+00  0.0000E+00  0.0000E+00  0.0000E+00  0.0000E+00  0.0000E+00  0.0000E+00  0.0000E+00  0.0000E+00  0.0000E+00  0.0000E+00  0.0000E+00  0.0000E+00
    -26.255  0.0000E+00  0.0000E+00  0.0000E+00  0.0000E+00  0.0000E+00  0.0000E+00  0.0000E+00  0.0000E+00  0.0000E+00  0.0000E+00  0.0000E+00  0.0000E+00  0.0000E+00  0.0000E+00  0.0000E+00  0.0000E+00  0.0000E+00  0.0000E+00
    -26.104  0.0000E+00  0.0000E+00  0.0000E+00  0.0000E+00  0.0000E+00  0.0000E+00  0.0000E+00  0.0000E+00  0.0000E+00  0.0000E+00  0.0000E+00  0.0000E+00  0.0000E+00  0.0000E+00  0.0000E+00  0.0000E+00  0.0000E+00  0.0000E+00
    -25.953  0.0000E+00  0.0000E+00  0.0000E+00  0.0000E+00  0.0000E+00  0.0000E+00  0.0000E+00  0.0000E+00  0.0000E+00  0.0000E+00  0.0000E+00  0.0000E+00  0.0000E+00  0.0000E+00  0.0000E+00  0.0000E+00  0.0000E+00  0.0000E+00
    -25.802  0.0000E+00  0.0000E+00  0.0000E+00  0.0000E+00  0.0000E+00  0.0000E+00  0.0000E+00  0.0000E+00  0.0000E+00  0.0000E+00  0.0000E+00  0.0000E+00  0.0000E+00  0.0000E+00  0.0000E+00  0.0000E+00  0.0000E+00  0.0000E+00
    -25.652  0.0000E+00  0.0000E+00  0.0000E+00  0.0000E+00  0.0000E+00  0.0000E+00  0.0000E+00  0.0000E+00  0.0000E+00  0.0000E+00  0.0000E+00  0.0000E+00  0.0000E+00  0.0000E+00  0.0000E+00  0.0000E+00  0.0000E+00  0.0000E+00
    -25.501  0.0000E+00  0.0000E+00  0.0000E+00  0.0000E+00  0.0000E+00  0.0000E+00  0.0000E+00  0.0000E+00  0.0000E+00  0.0000E+00  0.0000E+00  0.0000E+00  0.0000E+00  0.0000E+00  0.0000E+00  0.0000E+00  0.0000E+00  0.0000E+00
    -25.350  0.0000E+00  0.0000E+00  0.0000E+00  0.0000E+00  0.0000E+00  0.0000E+00  0.0000E+00  0.0000E+00  0.0000E+00  0.0000E+00  0.0000E+00  0.0000E+00  0.0000E+00  0.0000E+00  0.0000E+00  0.0000E+00  0.0000E+00  0.0000E+00
    -25.199  0.0000E+00  0.0000E+00  0.0000E+00  0.0000E+00  0.0000E+00  0.0000E+00  0.0000E+00  0.0000E+00  0.0000E+00  0.0000E+00  0.0000E+00  0.0000E+00  0.0000E+00  0.0000E+00  0.0000E+00  0.0000E+00  0.0000E+00  0.0000E+00
    -25.049  0.0000E+00  0.0000E+00  0.0000E+00  0.0000E+00  0.0000E+00  0.0000E+00  0.0000E+00  0.0000E+00  0.0000E+00  0.0000E+00  0.0000E+00  0.0000E+00  0.0000E+00  0.0000E+00  0.0000E+00  0.0000E+00  0.0000E+00  0.0000E+00
    -24.898  0.0000E+00  0.0000E+00  0.0000E+00  0.0000E+00  0.0000E+00  0.0000E+00  0.0000E+00  0.0000E+00  0.0000E+00  0.0000E+00  0.0000E+00  0.0000E+00  0.0000E+00  0.0000E+00  0.0000E+00  0.0000E+00  0.0000E+00  0.0000E+00
    -24.747  0.0000E+00  0.0000E+00  0.0000E+00  0.0000E+00  0.0000E+00  0.0000E+00  0.0000E+00  0.0000E+00  0.0000E+00  0.0000E+00  0.0000E+00  0.0000E+00  0.0000E+00  0.0000E+00  0.0000E+00  0.0000E+00  0.0000E+00  0.0000E+00
    -24.596  0.0000E+00  0.0000E+00  0.0000E+00  0.0000E+00  0.0000E+00  0.0000E+00  0.0000E+00  0.0000E+00  0.0000E+00  0.0000E+00  0.0000E+00  0.0000E+00  0.0000E+00  0.0000E+00  0.0000E+00  0.0000E+00  0.0000E+00  0.0000E+00
    -24.445  0.0000E+00  0.0000E+00  0.0000E+00  0.0000E+00  0.0000E+00  0.0000E+00  0.0000E+00  0.0000E+00  0.0000E+00  0.0000E+00  0.0000E+00  0.0000E+00  0.0000E+00  0.0000E+00  0.0000E+00  0.0000E+00  0.0000E+00  0.0000E+00
    -24.295  0.0000E+00  0.0000E+00  0.0000E+00  0.0000E+00  0.0000E+00  0.0000E+00  0.0000E+00  0.0000E+00  0.0000E+00  0.0000E+00  0.0000E+00  0.0000E+00  0.0000E+00  0.0000E+00  0.0000E+00  0.0000E+00  0.0000E+00  0.0000E+00
    -24.144  0.0000E+00  0.0000E+00  0.0000E+00  0.0000E+00  0.0000E+00  0.0000E+00  0.0000E+00  0.0000E+00  0.0000E+00  0.0000E+00  0.0000E+00  0.0000E+00  0.0000E+00  0.0000E+00  0.0000E+00  0.0000E+00  0.0000E+00  0.0000E+00