   4   4   1   0
  0.2376448E+02  0.4562814E-09  0.4564338E-09  0.4564338E-09  0.5000000E-15
  1.000000000000000E-004
  CAR 
 unknown system                          
     13.17823468    -31.97307586  301      4.52053770      1.00000000
    -31.973  0.0000E+00  0.0000E+00  0.0000E+00  0.0000E+00
    -31.823  0.0000E+00  0.0000E+00  0.0000E+00  0.0000E+00
    -31.672  0.0000E+00  0.0000E+00  0.0000E+00  0.0000E+00
    -31.522  0.0000E+00  0.0000E+00  0.0000E+00  0.0000E+00
    -31.371  0.0000E+00  0.0000E+00  0.0000E+00  0.0000E+00
    -31.221  0.0000E+00  0.0000E+00  0.0000E+00  0.0000E+00
    -31.070  0.0000E+00  0.0000E+00  0.0000E+00  0.0000E+00
    -30.920  0.0000E+00  0.0000E+00  0.0000E+00  0.0000E+00
    -30.769  0.0000E+00  0.0000E+00  0.0000E+00  0.0000E+00
    -30.619  0.0000E+00  0.0000E+00  0.0000E+00  0.0000E+00
    -30.468  0.1808E-04  0.3271E-04  0.2721E-05  0.4924E-05
    -30.318  0.2138E-02  0.2153E-02  0.3246E-03  0.3290E-03
    -30.167  0.4132E-01  0.4188E-01  0.6544E-02  0.6632E-02
    -30.017  0.7397E+00  0.7485E+00  0.1179E+00  0.1193E+00
    -29.866  0.4070E+01  0.4078E+01  0.7304E+00  0.7331E+00
    -29.716  0.1672E+01  0.1656E+01  0.9821E+00  0.9824E+00
    -29.565  0.1128E+00  0.1113E+00  0.9991E+00  0.9991E+00
    -29.415  0.0000E+00  0.0000E+00  0.1000E+01  0.1000E+01
    -29.264  0.0000E+00  0.0000E+00  0.1000E+01  0.1000E+01
    -29.113  0.0000E+00  0.0000E+00  0.1000E+01  0.1000E+01
    -28.963  0.0000E+00  0.0000E+00  0.1000E+01  0.1000E+01
    -28.812  0.0000E+00  0.0000E+00  0.1000E+01  0.1000E+01
    -28.662  0.0000E+00  0.0000E+00  0.1000E+01  0.1000E+01
    -28.511  0.0000E+00  0.0000E+00  0.1000E+01  0.1000E+01
    -28.361  0.0000E+00  0.0000E+00  0.1000E+01  0.1000E+01
    -28.210  0.0000E+00  0.0000E+00  0.1000E+01  0.1000E+01
    -28.060  0.0000E+00  0.0000E+00  0.1000E+01  0.1000E+01
    -27.909  0.0000E+00  0.0000E+00  0.1000E+01  0.1000E+01
    -27.759  0.0000E+00  0.0000E+00  0.1000E+01  0.1000E+01
    -27.608  0.0000E+00  0.0000E+00  0.1000E+01  0.1000E+01
    -27.458  0.0000E+00  0.0000E+00  0.1000E+01  0.1000E+01
    -27.307  0.0000E+00  0.0000E+00  0.1000E+01  0.1000E+01
    -27.157  0.0000E+00  0.0000E+00  0.1000E+01  0.1000E+01
    -27.006  0.0000E+00  0.0000E+00  0.1000E+01  0.1000E+01
    -26.856  0.0000E+00  0.0000E+00  0.1000E+01  0.1000E+01
    -26.705  0.0000E+00  0.0000E+00  0.1000E+01  0.1000E+01
    -26.555  0.0000E+00  0.0000E+00  0.1000E+01  0.1000E+01
    -26.404  0.0000E+00  0.0000E+00  0.1000E+01  0.1000E+01
    -26.254  0.0000E+00  0.0000E+00  0.1000E+01  0.1000E+01
    -26.103  0.0000E+00  0.0000E+00  0.1000E+01  0.1000E+01
    -25.953  0.0000E+00  0.0000E+00  0.1000E+01  0.1000E+01
    -25.802  0.0000E+00  0.0000E+00  0.1000E+01  0.1000E+01
    -25.652  0.0000E+00  0.0000E+00  0.1000E+01  0.1000E+01
    -25.501  0.0000E+00  0.0000E+00  0.1000E+01  0.1000E+01
    -25.351  0.0000E+00  0.0000E+00  0.1000E+01  0.1000E+01
    -25.200  0.0000E+00  0.0000E+00  0.1000E+01  0.1000E+01
    -25.050  0.0000E+00  0.0000E+00  0.1000E+01  0.1000E+01
    -24.899  0.0000E+00  0.0000E+00  0.1000E+01  0.1000E+01
    -24.749  0.0000E+00  0.0000E+00  0.1000E+01  0.1000E+01
    -24.598  0.0000E+00  0.0000E+00  0.1000E+01  0.1000E+01
    -24.448  0.0000E+00  0.0000E+00  0.1000E+01  0.1000E+01
    -24.297  0.0000E+00  0.0000E+00  0.1000E+01  0.1000E+01
    -24.147  0.0000E+00  0.0000E+00  0.1000E+01  0.1000E+01
    -23.996  0.0000E+00  0.0000E+00  0.1000E+01  0.1000E+01
    -23.846  0.0000E+00  0.0000E+00  0.1000E+01  0.1000E+01
    -23.695  0.0000E+00  0.0000E+00  0.1000E+01  0.1000E+01
    -23.545  0.0000E+00  0.0000E+00  0.1000E+01  0.1000E+01
    -23.394  0.0000E+00  0.0000E+00  0.1000E+01  0.1000E+01
    -23.244  0.0000E+00  0.0000E+00  0.1000E+01  0.1000E+01
    -23.093  0.0000E+00  0.0000E+00  0.1000E+01  0.1000E+01
    -22.943  0.0000E+00  0.0000E+00  0.1000E+01  0.1000E+01
    -22.792  0.0000E+00  0.0000E+00  0.1000E+01  0.1000E+01
    -22.642  0.0000E+00  0.0000E+00  0.1000E+01  0.1000E+01
    -22.491  0.0000E+00  0.0000E+00  0.1000E+01  0.1000E+01
    -22.341  0.0000E+00  0.0000E+00  0.1000E+01  0.1000E+01
    -22.190  0.0000E+00  0.0000E+00  0.1000E+01  0.1000E+01
    -22.040  0.0000E+00  0.0000E+00  0.1000E+01  0.1000E+01
    -21.889  0.0000E+00  0.0000E+00  0.1000E+01  0.1000E+01
    -21.739  0.0000E+00  0.0000E+00  0.1000E+01  0.1000E+01
    -21.588  0.0000E+00  0.0000E+00  0.1000E+01  0.1000E+01
    -21.438  0.0000E+00  0.0000E+00  0.1000E+01  0.1000E+01
    -21.287  0.0000E+00  0.0000E+00  0.1000E+01  0.1000E+01
    -21.137  0.0000E+00  0.0000E+00  0.1000E+01  0.1000E+01
    -20.986  0.0000E+00  0.0000E+00  0.1000E+01  0.1000E+01
    -20.836  0.0000E+00  0.0000E+00  0.1000E+01  0.1000E+01
    -20.685  0.0000E+00  0.0000E+00  0.1000E+01  0.1000E+01
    -20.535  0.0000E+00  0.0000E+00  0.1000E+01  0.1000E+01
    -20.384  0.0000E+00  0.0000E+00  0.1000E+01  0.1000E+01
    -20.234  0.0000E+00  0.0000E+00  0.1000E+01  0.1000E+01
    -20.083  0.0000E+00  0.0000E+00  0.1000E+01  0.1000E+01
    -19.933  0.0000E+00  0.0000E+00  0.1000E+01  0.1000E+01
    -19.782  0.0000E+00  0.0000E+00  0.1000E+01  0.1000E+01
    -19.632  0.0000E+00  0.0000E+00  0.1000E+01  0.1000E+01
    -19.481  0.0000E+00  0.0000E+00  0.1000E+01  0.1000E+01
    -19.331  0.0000E+00  0.0000E+00  0.1000E+01  0.1000E+01
    -19.180  0.0000E+00  0.0000E+00  0.1000E+01  0.1000E+01
    -19.030  0.0000E+00  0.0000E+00  0.1000E+01  0.1000E+01
    -18.879  0.0000E+00  0.0000E+00  0.1000E+01  0.1000E+01
    -18.729  0.0000E+00  0.0000E+00  0.1000E+01  0.1000E+01
    -18.578  0.0000E+00  0.0000E+00  0.1000E+01  0.1000E+01
    -18.428  0.0000E+00  0.0000E+00  0.1000E+01  0.1000E+01
    -18.277  0.0000E+00  0.0000E+00  0.1000E+01  0.1000E+01
    -18.127  0.0000E+00  0.0000E+00  0.1000E+01  0.1000E+01
    -17.976  0.0000E+00  0.0000E+00  0.1000E+01  0.1000E+01
    -17.826  0.0000E+00  0.0000E+00  0.1000E+01  0.1000E+01
    -17.675  0.0000E+00  0.0000E+00  0.1000E+01  0.1000E+01
    -17.525  0.0000E+00  0.0000E+00  0.1000E+01  0.1000E+01
    -17.374  0.0000E+00  0.0000E+00  0.1000E+01  0.1000E+01
    -17.224  0.0000E+00  0.0000E+00  0.1000E+01  0.1000E+01
    -17.073  0.0000E+00  0.0000E+00  0.1000E+01  0.1000E+01
    -16.923  0.0000E+00  0.0000E+00  0.1000E+01  0.1000E+01
    -16.772  0.0000E+00  0.0000E+00  0.1000E+01  0.1000E+01
    -16.622  0.0000E+00  0.0000E+00  0.1000E+01  0.1000E+01
    -16.471  0.0000E+00  0.0000E+00  0.1000E+01  0.1000E+01
    -16.321  0.0000E+00  0.0000E+00  0.1000E+01  0.1000E+01
    -16.170  0.0000E+00  0.0000E+00  0.1000E+01  0.1000E+01
    -16.020  0.0000E+00  0.0000E+00  0.1000E+01  0.1000E+01
    -15.869  0.0000E+00  0.0000E+00  0.1000E+01  0.1000E+01
    -15.719  0.0000E+00  0.0000E+00  0.1000E+01  0.1000E+01
    -15.568  0.0000E+00  0.0000E+00  0.1000E+01  0.1000E+01
    -15.418  0.0000E+00  0.0000E+00  0.1000E+01  0.1000E+01
    -15.267  0.0000E+00  0.0000E+00  0.1000E+01  0.1000E+01
    -15.117  0.0000E+00  0.0000E+00  0.1000E+01  0.1000E+01
    -14.966  0.0000E+00  0.0000E+00  0.1000E+01  0.1000E+01
    -14.816  0.0000E+00  0.0000E+00  0.1000E+01  0.1000E+01
    -14.665  0.0000E+00  0.0000E+00  0.1000E+01  0.1000E+01
    -14.515  0.0000E+00  0.0000E+00  0.1000E+01  0.1000E+01
    -14.364  0.0000E+00  0.0000E+00  0.1000E+01  0.1000E+01
    -14.214  0.0000E+00  0.0000E+00  0.1000E+01  0.1000E+01
    -14.063  0.0000E+00  0.0000E+00  0.1000E+01  0.1000E+01
    -13.913  0.0000E+00  0.0000E+00  0.1000E+01  0.1000E+01
    -13.762  0.0000E+00  0.0000E+00  0.1000E+01  0.1000E+01
    -13.612  0.0000E+00  0.0000E+00  0.1000E+01  0.1000E+01
    -13.461  0.0000E+00  0.0000E+00  0.1000E+01  0.1000E+01
    -13.311  0.0000E+00  0.0000E+00  0.1000E+01  0.1000E+01
    -13.160  0.0000E+00  0.0000E+00  0.1000E+01  0.1000E+01
    -13.010  0.0000E+00  0.0000E+00  0.1000E+01  0.1000E+01
    -12.859  0.0000E+00  0.0000E+00  0.1000E+01  0.1000E+01
    -12.709  0.4011E-04  0.4036E-04  0.1000E+01  0.1000E+01
    -12.558  0.3257E-02  0.3277E-02  0.1000E+01  0.1000E+01
    -12.408  0.6329E-01  0.6368E-01  0.1010E+01  0.1010E+01
    -12.257  0.1169E+01  0.1175E+01  0.1186E+01  0.1187E+01
    -12.106  0.9017E+01  0.9037E+01  0.2543E+01  0.2547E+01
    -11.956  0.8591E+01  0.8570E+01  0.3836E+01  0.3837E+01
    -11.805  0.1032E+01  0.1026E+01  0.3991E+01  0.3991E+01
    -11.655  0.2934E-02  0.2762E-02  0.4000E+01  0.4000E+01
    -11.504  0.0000E+00  0.0000E+00  0.4000E+01  0.4000E+01
    -11.354  0.0000E+00  0.0000E+00  0.4000E+01  0.4000E+01
    -11.203  0.0000E+00  0.0000E+00  0.4000E+01  0.4000E+01
    -11.053  0.0000E+00  0.0000E+00  0.4000E+01  0.4000E+01
    -10.902  0.0000E+00  0.0000E+00  0.4000E+01  0.4000E+01
    -10.752  0.0000E+00  0.0000E+00  0.4000E+01  0.4000E+01
    -10.601  0.0000E+00  0.0000E+00  0.4000E+01  0.4000E+01
    -10.451  0.0000E+00  0.0000E+00  0.4000E+01  0.4000E+01
    -10.300  0.0000E+00  0.0000E+00  0.4000E+01  0.4000E+01
    -10.150  0.0000E+00  0.0000E+00  0.4000E+01  0.4000E+01
     -9.999  0.0000E+00  0.0000E+00  0.4000E+01  0.4000E+01
     -9.849  0.0000E+00  0.0000E+00  0.4000E+01  0.4000E+01
     -9.698  0.0000E+00  0.0000E+00  0.4000E+01  0.4000E+01
     -9.548  0.0000E+00  0.0000E+00  0.4000E+01  0.4000E+01
     -9.397  0.0000E+00  0.0000E+00  0.4000E+01  0.4000E+01
     -9.247  0.0000E+00  0.0000E+00  0.4000E+01  0.4000E+01
     -9.096  0.0000E+00  0.0000E+00  0.4000E+01  0.4000E+01
     -8.946  0.0000E+00  0.0000E+00  0.4000E+01  0.4000E+01
     -8.795  0.0000E+00  0.0000E+00  0.4000E+01  0.4000E+01
     -8.645  0.0000E+00  0.0000E+00  0.4000E+01  0.4000E+01
     -8.494  0.0000E+00  0.0000E+00  0.4000E+01  0.4000E+01
     -8.344  0.0000E+00  0.0000E+00  0.4000E+01  0.4000E+01
     -8.193  0.0000E+00  0.0000E+00  0.4000E+01  0.4000E+01
     -8.043  0.0000E+00  0.0000E+00  0.4000E+01  0.4000E+01
     -7.892  0.0000E+00  0.0000E+00  0.4000E+01  0.4000E+01
     -7.742  0.0000E+00  0.0000E+00  0.4000E+01  0.4000E+01
     -7.591  0.0000E+00  0.0000E+00  0.4000E+01  0.4000E+01
     -7.441  0.0000E+00  0.0000E+00  0.4000E+01  0.4000E+01
     -7.290  0.0000E+00  0.0000E+00  0.4000E+01  0.4000E+01
     -7.140  0.0000E+00  0.0000E+00  0.4000E+01  0.4000E+01
     -6.989  0.0000E+00  0.0000E+00  0.4000E+01  0.4000E+01
     -6.839  0.0000E+00  0.0000E+00  0.4000E+01  0.4000E+01
     -6.688  0.0000E+00  0.0000E+00  0.4000E+01  0.4000E+01
     -6.538  0.0000E+00  0.0000E+00  0.4000E+01  0.4000E+01
     -6.387  0.0000E+00  0.0000E+00  0.4000E+01  0.4000E+01
     -6.237  0.0000E+00  0.0000E+00  0.4000E+01  0.4000E+01
     -6.086  0.0000E+00  0.0000E+00  0.4000E+01  0.4000E+01
     -5.936  0.0000E+00  0.0000E+00  0.4000E+01  0.4000E+01
     -5.785  0.0000E+00  0.0000E+00  0.4000E+01  0.4000E+01
     -5.635  0.0000E+00  0.0000E+00  0.4000E+01  0.4000E+01
     -5.484  0.0000E+00  0.0000E+00  0.4000E+01  0.4000E+01
     -5.334  0.0000E+00  0.0000E+00  0.4000E+01  0.4000E+01
     -5.183  0.0000E+00  0.0000E+00  0.4000E+01  0.4000E+01
     -5.033  0.0000E+00  0.0000E+00  0.4000E+01  0.4000E+01
     -4.882  0.0000E+00  0.0000E+00  0.4000E+01  0.4000E+01
     -4.732  0.0000E+00  0.0000E+00  0.4000E+01  0.4000E+01
     -4.581  0.0000E+00  0.0000E+00  0.4000E+01  0.4000E+01
     -4.431  0.0000E+00  0.0000E+00  0.4000E+01  0.4000E+01
     -4.280  0.0000E+00  0.0000E+00  0.4000E+01  0.4000E+01
     -4.130  0.0000E+00  0.0000E+00  0.4000E+01  0.4000E+01
     -3.979  0.7190E-07  0.7371E-07  0.4000E+01  0.4000E+01
     -3.829  0.7886E-05  0.8083E-05  0.4000E+01  0.4000E+01
     -3.678  0.1649E-03  0.1691E-03  0.4000E+01  0.4000E+01
     -3.528  0.3127E-02  0.3200E-02  0.4000E+01  0.4001E+01
     -3.377  0.3280E-01  0.3326E-01  0.4005E+01  0.4006E+01
     -3.227  0.9767E-01  0.9822E-01  0.4020E+01  0.4020E+01
     -3.076  0.1475E+00  0.1477E+00  0.4042E+01  0.4043E+01
     -2.926  0.1971E+00  0.1975E+00  0.4072E+01  0.4072E+01
     -2.775  0.2250E+00  0.2251E+00  0.4106E+01  0.4106E+01
     -2.625  0.2598E+00  0.2604E+00  0.4145E+01  0.4145E+01
     -2.474  0.3128E+00  0.3127E+00  0.4192E+01  0.4193E+01
     -2.324  0.3026E+00  0.3031E+00  0.4238E+01  0.4238E+01
     -2.173  0.4040E+00  0.4043E+00  0.4299E+01  0.4299E+01
     -2.023  0.3972E+00  0.3973E+00  0.4359E+01  0.4359E+01
     -1.872  0.4866E+00  0.4872E+00  0.4432E+01  0.4433E+01
     -1.722  0.5459E+00  0.5465E+00  0.4514E+01  0.4515E+01
     -1.571  0.5761E+00  0.5755E+00  0.4601E+01  0.4602E+01
     -1.421  0.4995E+00  0.4998E+00  0.4677E+01  0.4677E+01
     -1.270  0.4855E+00  0.4846E+00  0.4750E+01  0.4750E+01
     -1.120  0.4718E+00  0.4727E+00  0.4821E+01  0.4822E+01
     -0.969  0.4967E+00  0.4968E+00  0.4896E+01  0.4897E+01
     -0.819  0.5038E+00  0.5030E+00  0.4972E+01  0.4972E+01
     -0.668  0.3931E+00  0.3936E+00  0.5031E+01  0.5032E+01
     -0.518  0.4383E+00  0.4382E+00  0.5097E+01  0.5098E+01
     -0.367  0.5427E+00  0.5439E+00  0.5179E+01  0.5180E+01
     -0.217  0.5339E+00  0.5332E+00  0.5260E+01  0.5260E+01
     -0.066  0.5982E+00  0.5991E+00  0.5350E+01  0.5350E+01
      0.084  0.7847E+00  0.7863E+00  0.5468E+01  0.5469E+01
      0.235  0.1112E+01  0.1113E+01  0.5635E+01  0.5637E+01
      0.385  0.1173E+01  0.1171E+01  0.5812E+01  0.5813E+01
      0.536  0.1021E+01  0.1021E+01  0.5966E+01  0.5967E+01
      0.686  0.7590E+00  0.7566E+00  0.6081E+01  0.6081E+01
      0.837  0.7458E+00  0.7481E+00  0.6193E+01  0.6194E+01
      0.987  0.9048E+00  0.9032E+00  0.6330E+01  0.6330E+01
      1.138  0.4825E+00  0.4806E+00  0.6402E+01  0.6403E+01
      1.288  0.5073E+00  0.5082E+00  0.6479E+01  0.6480E+01
      1.439  0.5985E+00  0.5989E+00  0.6570E+01  0.6570E+01
      1.589  0.5424E+00  0.5413E+00  0.6651E+01  0.6652E+01
      1.740  0.4130E+00  0.4130E+00  0.6714E+01  0.6714E+01
      1.890  0.4302E+00  0.4310E+00  0.6779E+01  0.6779E+01
      2.041  0.5282E+00  0.5290E+00  0.6858E+01  0.6859E+01
      2.191  0.6959E+00  0.6987E+00  0.6963E+01  0.6964E+01
      2.342  0.7395E+00  0.7378E+00  0.7074E+01  0.7075E+01
      2.492  0.6782E+00  0.6808E+00  0.7177E+01  0.7178E+01
      2.643  0.7992E+00  0.7981E+00  0.7297E+01  0.7298E+01
      2.793  0.7482E+00  0.7494E+00  0.7410E+01  0.7411E+01
      2.944  0.8445E+00  0.8453E+00  0.7538E+01  0.7539E+01
      3.094  0.9525E+00  0.9534E+00  0.7681E+01  0.7683E+01
      3.245  0.1093E+01  0.1096E+01  0.7846E+01  0.7848E+01
      3.395  0.1345E+01  0.1346E+01  0.8049E+01  0.8051E+01
      3.546  0.1361E+01  0.1362E+01  0.8254E+01  0.8256E+01
      3.696  0.1695E+01  0.1698E+01  0.8509E+01  0.8512E+01
      3.847  0.1584E+01  0.1581E+01  0.8748E+01  0.8750E+01
      3.997  0.1532E+01  0.1530E+01  0.8979E+01  0.8981E+01
      4.148  0.9856E+00  0.9818E+00  0.9128E+01  0.9129E+01
      4.298  0.1099E+01  0.1101E+01  0.9294E+01  0.9296E+01
      4.449  0.9834E+00  0.9808E+00  0.9442E+01  0.9444E+01
      4.599  0.7189E+00  0.7163E+00  0.9551E+01  0.9552E+01
      4.750  0.6856E+00  0.6876E+00  0.9654E+01  0.9655E+01
      4.900  0.1011E+01  0.1014E+01  0.9807E+01  0.9808E+01
      5.051  0.1183E+01  0.1182E+01  0.9985E+01  0.9986E+01
      5.202  0.1053E+01  0.1051E+01  0.1014E+02  0.1014E+02
      5.352  0.7978E+00  0.7973E+00  0.1026E+02  0.1027E+02
      5.503  0.1058E+01  0.1060E+01  0.1042E+02  0.1043E+02
      5.653  0.1059E+01  0.1057E+01  0.1058E+02  0.1058E+02
      5.804  0.9219E+00  0.9224E+00  0.1072E+02  0.1072E+02
      5.954  0.1018E+01  0.1019E+01  0.1088E+02  0.1088E+02
      6.105  0.9541E+00  0.9532E+00  0.1102E+02  0.1102E+02
      6.255  0.8680E+00  0.8672E+00  0.1115E+02  0.1115E+02
      6.406  0.8366E+00  0.8382E+00  0.1128E+02  0.1128E+02
      6.556  0.1076E+01  0.1077E+01  0.1144E+02  0.1144E+02
      6.707  0.1096E+01  0.1096E+01  0.1160E+02  0.1161E+02
      6.857  0.1066E+01  0.1066E+01  0.1177E+02  0.1177E+02
      7.008  0.1022E+01  0.1021E+01  0.1192E+02  0.1192E+02
      7.158  0.8136E+00  0.8137E+00  0.1204E+02  0.1204E+02
      7.309  0.9999E+00  0.1001E+01  0.1219E+02  0.1219E+02
      7.459  0.1094E+01  0.1094E+01  0.1236E+02  0.1236E+02
      7.610  0.1113E+01  0.1115E+01  0.1253E+02  0.1253E+02
      7.760  0.1248E+01  0.1249E+01  0.1271E+02  0.1272E+02
      7.911  0.1410E+01  0.1412E+01  0.1293E+02  0.1293E+02
      8.061  0.1441E+01  0.1441E+01  0.1314E+02  0.1315E+02
      8.212  0.1572E+01  0.1576E+01  0.1338E+02  0.1338E+02
      8.362  0.1856E+01  0.1854E+01  0.1366E+02  0.1366E+02
      8.513  0.1527E+01  0.1524E+01  0.1389E+02  0.1389E+02
      8.663  0.1289E+01  0.1289E+01  0.1409E+02  0.1409E+02
      8.814  0.1567E+01  0.1567E+01  0.1432E+02  0.1432E+02
      8.964  0.1420E+01  0.1419E+01  0.1454E+02  0.1454E+02
      9.115  0.1631E+01  0.1626E+01  0.1478E+02  0.1478E+02
      9.265  0.1530E+01  0.1516E+01  0.1501E+02  0.1501E+02
      9.416  0.1683E+01  0.1654E+01  0.1527E+02  0.1526E+02
      9.566  0.1615E+01  0.1619E+01  0.1551E+02  0.1551E+02
      9.717  0.1296E+01  0.1255E+01  0.1571E+02  0.1569E+02
      9.867  0.7021E+00  0.7071E+00  0.1581E+02  0.1580E+02
     10.018  0.3947E+00  0.4441E+00  0.1587E+02  0.1587E+02
     10.168  0.2236E+00  0.2437E+00  0.1591E+02  0.1591E+02
     10.319  0.1502E+00  0.1516E+00  0.1593E+02  0.1593E+02
     10.469  0.1478E+00  0.1481E+00  0.1595E+02  0.1595E+02
     10.620  0.7221E-01  0.7093E-01  0.1596E+02  0.1596E+02
     10.770  0.1329E+00  0.1253E+00  0.1598E+02  0.1598E+02
     10.921  0.6377E-01  0.7223E-01  0.1599E+02  0.1599E+02
     11.071  0.1931E-01  0.2238E-01  0.1600E+02  0.1600E+02
     11.222  0.2768E-01  0.2679E-01  0.1600E+02  0.1600E+02
     11.372  0.4444E-02  0.3677E-02  0.1600E+02  0.1600E+02
     11.523  0.1657E-03  0.0000E+00  0.1600E+02  0.1600E+02
     11.673  0.0000E+00  0.0000E+00  0.1600E+02  0.1600E+02
     11.824  0.0000E+00  0.0000E+00  0.1600E+02  0.1600E+02
     11.974  0.0000E+00  0.0000E+00  0.1600E+02  0.1600E+02
     12.125  0.0000E+00  0.0000E+00  0.1600E+02  0.1600E+02
     12.275  0.0000E+00  0.0000E+00  0.1600E+02  0.1600E+02
     12.426  0.0000E+00  0.0000E+00  0.1600E+02  0.1600E+02
     12.576  0.0000E+00  0.0000E+00  0.1600E+02  0.1600E+02
     12.727  0.0000E+00  0.0000E+00  0.1600E+02  0.1600E+02
     12.877  0.0000E+00  0.0000E+00  0.1600E+02  0.1600E+02
     13.028  0.0000E+00  0.0000E+00  0.1600E+02  0.1600E+02
     13.178  0.0000E+00  0.0000E+00  0.1600E+02  0.1600E+02
     13.17823468    -31.97307586  301      4.52053770      1.00000000
    -31.973  0.0000E+00  0.0000E+00  0.0000E+00  0.0000E+00  0.0000E+00  0.0000E+00  0.0000E+00  0.0000E+00  0.0000E+00  0.0000E+00  0.0000E+00  0.0000E+00  0.0000E+00  0.0000E+00  0.0000E+00  0.0000E+00  0.0000E+00  0.0000E+00
    -31.823  0.0000E+00  0.0000E+00  0.0000E+00  0.0000E+00  0.0000E+00  0.0000E+00  0.0000E+00  0.0000E+00  0.0000E+00  0.0000E+00  0.0000E+00  0.0000E+00  0.0000E+00  0.0000E+00  0.0000E+00  0.0000E+00  0.0000E+00  0.0000E+00
    -31.672  0.0000E+00  0.0000E+00  0.0000E+00  0.0000E+00  0.0000E+00  0.0000E+00  0.0000E+00  0.0000E+00  0.0000E+00  0.0000E+00  0.0000E+00  0.0000E+00  0.0000E+00  0.0000E+00  0.0000E+00  0.0000E+00  0.0000E+00  0.0000E+00
    -31.522  0.0000E+00  0.0000E+00  0.0000E+00  0.0000E+00  0.0000E+00  0.0000E+00  0.0000E+00  0.0000E+00  0.0000E+00  0.0000E+00  0.0000E+00  0.0000E+00  0.0000E+00  0.0000E+00  0.0000E+00  0.0000E+00  0.0000E+00  0.0000E+00
    -31.371  0.0000E+00  0.0000E+00  0.0000E+00  0.0000E+00  0.0000E+00  0.0000E+00  0.0000E+00  0.0000E+00  0.0000E+00  0.0000E+00  0.0000E+00  0.0000E+00  0.0000E+00  0.0000E+00  0.0000E+00  0.0000E+00  0.0000E+00  0.0000E+00
    -31.221  0.0000E+00  0.0000E+00  0.0000E+00  0.0000E+00  0.0000E+00  0.0000E+00  0.0000E+00  0.0000E+00  0.0000E+00  0.0000E+00  0.0000E+00  0.0000E+00  0.0000E+00  0.0000E+00  0.0000E+00  0.0000E+00  0.0000E+00  0.0000E+00
    -31.070  0.0000E+00  0.0000E+00  0.0000E+00  0.0000E+00  0.0000E+00  0.0000E+00  0.0000E+00  0.0000E+00  0.0000E+00  0.0000E+00  0.0000E+00  0.0000E+00  0.0000E+00  0.0000E+00  0.0000E+00  0.0000E+00  0.0000E+00  0.0000E+00
    -30.920  0.0000E+00  0.0000E+00  0.0000E+00  0.0000E+00  0.0000E+00  0.0000E+00  0.0000E+00  0.0000E+00  0.0000E+00  0.0000E+00  0.0000E+00  0.0000E+00  0.0000E+00  0.0000E+00  0.0000E+00  0.0000E+00  0.0000E+00  0.0000E+00
    -30.769  0.0000E+00  0.0000E+00  0.0000E+00  0.0000E+00  0.0000E+00  0.0000E+00  0.0000E+00  0.0000E+00  0.0000E+00  0.0000E+00  0.0000E+00  0.0000E+00  0.0000E+00  0.0000E+00  0.0000E+00  0.0000E+00  0.0000E+00  0.0000E+00
    -30.619  0.0000E+00  0.0000E+00  0.0000E+00  0.0000E+00  0.0000E+00  0.0000E+00  0.0000E+00  0.0000E+00  0.0000E+00  0.0000E+00  0.0000E+00  0.0000E+00  0.0000E+00  0.0000E+00  0.0000E+00  0.0000E+00  0.0000E+00  0.0000E+00
    -30.468  0.1766E-04  0.3196E-04  0.1986E-12  0.3668E-12  0.1986E-12  0.3668E-12  0.1928E-12  0.3701E-12  0.3617E-15  0.3956E-15  0.3401E-15  0.3881E-15  0.4293E-13  0.1438E-12  0.3617E-15  0.3956E-15  0.5185E-13  0.1713E-12
    -30.318  0.2090E-02  0.2104E-02  0.2479E-10  0.2542E-10  0.2479E-10  0.2542E-10  0.2503E-10  0.2565E-10  0.4161E-13  0.3579E-13  0.4058E-13  0.3571E-13  0.1208E-10  0.1240E-10  0.4161E-13  0.3579E-13  0.1215E-10  0.1248E-10
    -30.167  0.4038E-01  0.4092E-01  0.4789E-09  0.4940E-09  0.4789E-09  0.4940E-09  0.4833E-09  0.4987E-09  0.8043E-12  0.6934E-12  0.7841E-12  0.6916E-12  0.2323E-09  0.2404E-09  0.8043E-12  0.6934E-12  0.2339E-09  0.2424E-09
    -30.017  0.7228E+00  0.7314E+00  0.8572E-08  0.8829E-08  0.8572E-08  0.8829E-08  0.8651E-08  0.8912E-08  0.1440E-10  0.1240E-10  0.1404E-10  0.1237E-10  0.4159E-08  0.4298E-08  0.1440E-10  0.1240E-10  0.4186E-08  0.4331E-08
    -29.866  0.3977E+01  0.3985E+01  0.4715E-07  0.4809E-07  0.4715E-07  0.4809E-07  0.4758E-07  0.4853E-07  0.7919E-10  0.6767E-10  0.7724E-10  0.6750E-10  0.2290E-07  0.2343E-07  0.7919E-10  0.6767E-10  0.2300E-07  0.2356E-07
    -29.716  0.1634E+01  0.1619E+01  0.1937E-07  0.1952E-07  0.1937E-07  0.1952E-07  0.1954E-07  0.1970E-07  0.3252E-10  0.2754E-10  0.3174E-10  0.2748E-10  0.9416E-08  0.9520E-08  0.3252E-10  0.2754E-10  0.9430E-08  0.9545E-08
    -29.565  0.1102E+00  0.1088E+00  0.1306E-08  0.1311E-08  0.1306E-08  0.1311E-08  0.1318E-08  0.1324E-08  0.2192E-11  0.1852E-11  0.2140E-11  0.1847E-11  0.6350E-09  0.6397E-09  0.2192E-11  0.1852E-11  0.6354E-09  0.6408E-09
    -29.415  0.0000E+00  0.0000E+00  0.0000E+00  0.0000E+00  0.0000E+00  0.0000E+00  0.0000E+00  0.0000E+00  0.0000E+00  0.0000E+00  0.0000E+00  0.0000E+00  0.0000E+00  0.0000E+00  0.0000E+00  0.0000E+00  0.0000E+00  0.0000E+00
    -29.264  0.0000E+00  0.0000E+00  0.0000E+00  0.0000E+00  0.0000E+00  0.0000E+00  0.0000E+00  0.0000E+00  0.0000E+00  0.0000E+00  0.0000E+00  0.0000E+00  0.0000E+00  0.0000E+00  0.0000E+00  0.0000E+00  0.0000E+00  0.0000E+00
    -29.113  0.0000E+00  0.0000E+00  0.0000E+00  0.0000E+00  0.0000E+00  0.0000E+00  0.0000E+00  0.0000E+00  0.0000E+00  0.0000E+00  0.0000E+00  0.0000E+00  0.0000E+00  0.0000E+00  0.0000E+00  0.0000E+00  0.0000E+00  0.0000E+00
    -28.963  0.0000E+00  0.0000E+00  0.0000E+00  0.0000E+00  0.0000E+00  0.0000E+00  0.0000E+00  0.0000E+00  0.0000E+00  0.0000E+00  0.0000E+00  0.0000E+00  0.0000E+00  0.0000E+00  0.0000E+00  0.0000E+00  0.0000E+00  0.0000E+00
    -28.812  0.0000E+00  0.0000E+00  0.0000E+00  0.0000E+00  0.0000E+00  0.0000E+00  0.0000E+00  0.0000E+00  0.0000E+00  0.0000E+00  0.0000E+00  0.0000E+00  0.0000E+00  0.0000E+00  0.0000E+00  0.0000E+00  0.0000E+00  0.0000E+00
    -28.662  0.0000E+00  0.0000E+00  0.0000E+00  0.0000E+00  0.0000E+00  0.0000E+00  0.0000E+00  0.0000E+00  0.0000E+00  0.0000E+00  0.0000E+00  0.0000E+00  0.0000E+00  0.0000E+00  0.0000E+00  0.0000E+00  0.0000E+00  0.0000E+00
    -28.511  0.0000E+00  0.0000E+00  0.0000E+00  0.0000E+00  0.0000E+00  0.0000E+00  0.0000E+00  0.0000E+00  0.0000E+00  0.0000E+00  0.0000E+00  0.0000E+00  0.0000E+00  0.0000E+00  0.0000E+00  0.0000E+00  0.0000E+00  0.0000E+00
    -28.361  0.0000E+00  0.0000E+00  0.0000E+00  0.0000E+00  0.0000E+00  0.0000E+00  0.0000E+00  0.0000E+00  0.0000E+00  0.0000E+00  0.0000E+00  0.0000E+00  0.0000E+00  0.0000E+00  0.0000E+00  0.0000E+00  0.0000E+00  0.0000E+00
    -28.210  0.0000E+00  0.0000E+00  0.0000E+00  0.0000E+00  0.0000E+00  0.0000E+00  0.0000E+00  0.0000E+00  0.0000E+00  0.0000E+00  0.0000E+00  0.0000E+00  0.0000E+00  0.0000E+00  0.0000E+00  0.0000E+00  0.0000E+00  0.0000E+00
    -28.060  0.0000E+00  0.0000E+00  0.0000E+00  0.0000E+00  0.0000E+00  0.0000E+00  0.0000E+00  0.0000E+00  0.0000E+00  0.0000E+00  0.0000E+00  0.0000E+00  0.0000E+00  0.0000E+00  0.0000E+00  0.0000E+00  0.0000E+00  0.0000E+00
    -27.909  0.0000E+00  0.0000E+00  0.0000E+00  0.0000E+00  0.0000E+00  0.0000E+00  0.0000E+00  0.0000E+00  0.0000E+00  0.0000E+00  0.0000E+00  0.0000E+00  0.0000E+00  0.0000E+00  0.0000E+00  0.0000E+00  0.0000E+00  0.0000E+00
    -27.759  0.0000E+00  0.0000E+00  0.0000E+00  0.0000E+00  0.0000E+00  0.0000E+00  0.0000E+00  0.0000E+00  0.0000E+00  0.0000E+00  0.0000E+00  0.0000E+00  0.0000E+00  0.0000E+00  0.0000E+00  0.0000E+00  0.0000E+00  0.0000E+00
    -27.608  0.0000E+00  0.0000E+00  0.0000E+00  0.0000E+00  0.0000E+00  0.0000E+00  0.0000E+00  0.0000E+00  0.0000E+00  0.0000E+00  0.0000E+00  0.0000E+00  0.0000E+00  0.0000E+00  0.0000E+00  0.0000E+00  0.0000E+00  0.0000E+00
    -27.458  0.0000E+00  0.0000E+00  0.0000E+00  0.0000E+00  0.0000E+00  0.0000E+00  0.0000E+00  0.0000E+00  0.0000E+00  0.0000E+00  0.0000E+00  0.0000E+00  0.0000E+00  0.0000E+00  0.0000E+00  0.0000E+00  0.0000E+00  0.0000E+00
    -27.307  0.0000E+00  0.0000E+00  0.0000E+00  0.0000E+00  0.0000E+00  0.0000E+00  0.0000E+00  0.0000E+00  0.0000E+00  0.0000E+00  0.0000E+00  0.0000E+00  0.0000E+00  0.0000E+00  0.0000E+00  0.0000E+00  0.0000E+00  0.0000E+00
    -27.157  0.0000E+00  0.0000E+00  0.0000E+00  0.0000E+00  0.0000E+00  0.0000E+00  0.0000E+00  0.0000E+00  0.0000E+00  0.0000E+00  0.0000E+00  0.0000E+00  0.0000E+00  0.0000E+00  0.0000E+00  0.0000E+00  0.0000E+00  0.0000E+00
    -27.006  0.0000E+00  0.0000E+00  0.0000E+00  0.0000E+00  0.0000E+00  0.0000E+00  0.0000E+00  0.0000E+00  0.0000E+00  0.0000E+00  0.0000E+00  0.0000E+00  0.0000E+00  0.0000E+00  0.0000E+00  0.0000E+00  0.0000E+00  0.0000E+00
    -26.856  0.0000E+00  0.0000E+00  0.0000E+00  0.0000E+00  0.0000E+00  0.0000E+00  0.0000E+00  0.0000E+00  0.0000E+00  0.0000E+00  0.0000E+00  0.0000E+00  0.0000E+00  0.0000E+00  0.0000E+00  0.0000E+00  0.0000E+00  0.0000E+00
    -26.705  0.0000E+00  0.0000E+00  0.0000E+00  0.0000E+00  0.0000E+00  0.0000E+00  0.0000E+00  0.0000E+00  0.0000E+00  0.0000E+00  0.0000E+00  0.0000E+00  0.0000E+00  0.0000E+00  0.0000E+00  0.0000E+00  0.0000E+00  0.0000E+00
    -26.555  0.0000E+00  0.0000E+00  0.0000E+00  0.0000E+00  0.0000E+00  0.0000E+00  0.0000E+00  0.0000E+00  0.0000E+00  0.0000E+00  0.0000E+00  0.0000E+00  0.0000E+00  0.0000E+00  0.0000E+00  0.0000E+00  0.0000E+00  0.0000E+00
    -26.404  0.0000E+00  0.0000E+00  0.0000E+00  0.0000E+00  0.0000E+00  0.0000E+00  0.0000E+00  0.0000E+00  0.0000E+00  0.0000E+00  0.0000E+00  0.0000E+00  0.0000E+00  0.0000E+00  0.0000E+00  0.0000E+00  0.0000E+00  0.0000E+00
    -26.254  0.0000E+00  0.0000E+00  0.0000E+00  0.0000E+00  0.0000E+00  0.0000E+00  0.0000E+00  0.0000E+00  0.0000E+00  0.0000E+00  0.0000E+00  0.0000E+00  0.0000E+00  0.0000E+00  0.0000E+00  0.0000E+00  0.0000E+00  0.0000E+00
    -26.103  0.0000E+00  0.0000E+00  0.0000E+00  0.0000E+00  0.0000E+00  0.0000E+00  0.0000E+00  0.0000E+00  0.0000E+00  0.0000E+00  0.0000E+00  0.0000E+00  0.0000E+00  0.0000E+00  0.0000E+00  0.0000E+00  0.0000E+00  0.0000E+00
    -25.953  0.0000E+00  0.0000E+00  0.0000E+00  0.0000E+00  0.0000E+00  0.0000E+00  0.0000E+00  0.0000E+00  0.0000E+00  0.0000E+00  0.0000E+00  0.0000E+00  0.0000E+00  0.0000E+00  0.0000E+00  0.0000E+00  0.0000E+00  0.0000E+00
    -25.802  0.0000E+00  0.0000E+00  0.0000E+00  0.0000E+00  0.0000E+00  0.0000E+00  0.0000E+00  0.0000E+00  0.0000E+00  0.0000E+00  0.0000E+00  0.0000E+00  0.0000E+00  0.0000E+00  0.0000E+00  0.0000E+00  0.0000E+00  0.0000E+00
    -25.652  0.0000E+00  0.0000E+00  0.0000E+00  0.0000E+00  0.0000E+00  0.0000E+00  0.0000E+00  0.0000E+00  0.0000E+00  0.0000E+00  0.0000E+00  0.0000E+00  0.0000E+00  0.0000E+00  0.0000E+00  0.0000E+00  0.0000E+00  0.0000E+00
    -25.501  0.0000E+00  0.0000E+00  0.0000E+00  0.0000E+00  0.0000E+00  0.0000E+00  0.0000E+00  0.0000E+00  0.0000E+00  0.0000E+00  0.0000E+00  0.0000E+00  0.0000E+00  0.0000E+00  0.0000E+00  0.0000E+00  0.0000E+00  0.0000E+00
    -25.351  0.0000E+00  0.0000E+00  0.0000E+00  0.0000E+00  0.0000E+00  0.0000E+00  0.0000E+00  0.0000E+00  0.0000E+00  0.0000E+00  0.0000E+00  0.0000E+00  0.0000E+00  0.0000E+00  0.0000E+00  0.0000E+00  0.0000E+00  0.0000E+00
    -25.200  0.0000E+00  0.0000E+00  0.0000E+00  0.0000E+00  0.0000E+00  0.0000E+00  0.0000E+00  0.0000E+00  0.0000E+00  0.0000E+00  0.0000E+00  0.0000E+00  0.0000E+00  0.0000E+00  0.0000E+00  0.0000E+00  0.0000E+00  0.0000E+00
    -25.050  0.0000E+00  0.0000E+00  0.0000E+00  0.0000E+00  0.0000E+00  0.0000E+00  0.0000E+00  0.0000E+00  0.0000E+00  0.0000E+00  0.0000E+00  0.0000E+00  0.0000E+00  0.0000E+00  0.0000E+00  0.0000E+00  0.0000E+00  0.0000E+00
    -24.899  0.0000E+00  0.0000E+00  0.0000E+00  0.0000E+00  0.0000E+00  0.0000E+00  0.0000E+00  0.0000E+00  0.0000E+00  0.0000E+00  0.0000E+00  0.0000E+00  0.0000E+00  0.0000E+00  0.0000E+00  0.0000E+00  0.0000E+00  0.0000E+00
    -24.749  0.0000E+00  0.0000E+00  0.0000E+00  0.0000E+00  0.0000E+00  0.0000E+00  0.0000E+00  0.0000E+00  0.0000E+00  0.0000E+00  0.0000E+00  0.0000E+00  0.0000E+00  0.0000E+00  0.0000E+00  0.0000E+00  0.0000E+00  0.0000E+00
    -24.598  0.0000E+00  0.0000E+00  0.0000E+00  0.0000E+00  0.0000E+00  0.0000E+00  0.0000E+00  0.0000E+00  0.0000E+00  0.0000E+00  0.0000E+00  0.0000E+00  0.0000E+00  0.0000E+00  0.0000E+00  0.0000E+00  0.0000E+00  0.0000E+00
    -24.448  0.0000E+00  0.0000E+00  0.0000E+00  0.0000E+00  0.0000E+00  0.0000E+00  0.0000E+00  0.0000E+00  0.0000E+00  0.0000E+00  0.0000E+00  0.0000E+00  0.0000E+00  0.0000E+00  0.0000E+00  0.0000E+00  0.0000E+00  0.0000E+00