   4   4   1   0
  0.2820974E+02  0.4831215E-09  0.4832828E-09  0.4832828E-09  0.5000000E-15
  1.000000000000000E-004
  CAR 
 unknown system                          
     11.14953717    -33.61405292  301      3.42111880      1.00000000
    -33.614  0.0000E+00  0.0000E+00  0.0000E+00  0.0000E+00
    -33.465  0.0000E+00  0.0000E+00  0.0000E+00  0.0000E+00
    -33.316  0.0000E+00  0.0000E+00  0.0000E+00  0.0000E+00
    -33.166  0.0000E+00  0.0000E+00  0.0000E+00  0.0000E+00
    -33.017  0.0000E+00  0.0000E+00  0.0000E+00  0.0000E+00
    -32.868  0.0000E+00  0.0000E+00  0.0000E+00  0.0000E+00
    -32.719  0.0000E+00  0.0000E+00  0.0000E+00  0.0000E+00
    -32.570  0.0000E+00  0.0000E+00  0.0000E+00  0.0000E+00
    -32.420  0.0000E+00  0.0000E+00  0.0000E+00  0.0000E+00
    -32.271  0.0000E+00  0.0000E+00  0.0000E+00  0.0000E+00
    -32.122  0.1245E-03  0.1258E-03  0.1858E-04  0.1877E-04
    -31.973  0.2336E-02  0.2361E-02  0.3671E-03  0.3710E-03
    -31.824  0.4585E-01  0.4634E-01  0.7209E-02  0.7285E-02
    -31.674  0.7931E+00  0.8003E+00  0.1255E+00  0.1267E+00
    -31.525  0.4114E+01  0.4120E+01  0.7395E+00  0.7415E+00
    -31.376  0.1629E+01  0.1616E+01  0.9825E+00  0.9827E+00
    -31.227  0.1113E+00  0.1102E+00  0.9991E+00  0.9991E+00
    -31.077  0.0000E+00  0.0000E+00  0.1000E+01  0.1000E+01
    -30.928  0.0000E+00  0.0000E+00  0.1000E+01  0.1000E+01
    -30.779  0.0000E+00  0.0000E+00  0.1000E+01  0.1000E+01
    -30.630  0.0000E+00  0.0000E+00  0.1000E+01  0.1000E+01
    -30.481  0.0000E+00  0.0000E+00  0.1000E+01  0.1000E+01
    -30.331  0.0000E+00  0.0000E+00  0.1000E+01  0.1000E+01
    -30.182  0.0000E+00  0.0000E+00  0.1000E+01  0.1000E+01
    -30.033  0.0000E+00  0.0000E+00  0.1000E+01  0.1000E+01
    -29.884  0.0000E+00  0.0000E+00  0.1000E+01  0.1000E+01
    -29.735  0.0000E+00  0.0000E+00  0.1000E+01  0.1000E+01
    -29.585  0.0000E+00  0.0000E+00  0.1000E+01  0.1000E+01
    -29.436  0.0000E+00  0.0000E+00  0.1000E+01  0.1000E+01
    -29.287  0.0000E+00  0.0000E+00  0.1000E+01  0.1000E+01
    -29.138  0.0000E+00  0.0000E+00  0.1000E+01  0.1000E+01
    -28.988  0.0000E+00  0.0000E+00  0.1000E+01  0.1000E+01
    -28.839  0.0000E+00  0.0000E+00  0.1000E+01  0.1000E+01
    -28.690  0.0000E+00  0.0000E+00  0.1000E+01  0.1000E+01
    -28.541  0.0000E+00  0.0000E+00  0.1000E+01  0.1000E+01
    -28.392  0.0000E+00  0.0000E+00  0.1000E+01  0.1000E+01
    -28.242  0.0000E+00  0.0000E+00  0.1000E+01  0.1000E+01
    -28.093  0.0000E+00  0.0000E+00  0.1000E+01  0.1000E+01
    -27.944  0.0000E+00  0.0000E+00  0.1000E+01  0.1000E+01
    -27.795  0.0000E+00  0.0000E+00  0.1000E+01  0.1000E+01
    -27.646  0.0000E+00  0.0000E+00  0.1000E+01  0.1000E+01
    -27.496  0.0000E+00  0.0000E+00  0.1000E+01  0.1000E+01
    -27.347  0.0000E+00  0.0000E+00  0.1000E+01  0.1000E+01
    -27.198  0.0000E+00  0.0000E+00  0.1000E+01  0.1000E+01
    -27.049  0.0000E+00  0.0000E+00  0.1000E+01  0.1000E+01
    -26.900  0.0000E+00  0.0000E+00  0.1000E+01  0.1000E+01
    -26.750  0.0000E+00  0.0000E+00  0.1000E+01  0.1000E+01
    -26.601  0.0000E+00  0.0000E+00  0.1000E+01  0.1000E+01
    -26.452  0.0000E+00  0.0000E+00  0.1000E+01  0.1000E+01
    -26.303  0.0000E+00  0.0000E+00  0.1000E+01  0.1000E+01
    -26.153  0.0000E+00  0.0000E+00  0.1000E+01  0.1000E+01
    -26.004  0.0000E+00  0.0000E+00  0.1000E+01  0.1000E+01
    -25.855  0.0000E+00  0.0000E+00  0.1000E+01  0.1000E+01
    -25.706  0.0000E+00  0.0000E+00  0.1000E+01  0.1000E+01
    -25.557  0.0000E+00  0.0000E+00  0.1000E+01  0.1000E+01
    -25.407  0.0000E+00  0.0000E+00  0.1000E+01  0.1000E+01
    -25.258  0.0000E+00  0.0000E+00  0.1000E+01  0.1000E+01
    -25.109  0.0000E+00  0.0000E+00  0.1000E+01  0.1000E+01
    -24.960  0.0000E+00  0.0000E+00  0.1000E+01  0.1000E+01
    -24.811  0.0000E+00  0.0000E+00  0.1000E+01  0.1000E+01
    -24.661  0.0000E+00  0.0000E+00  0.1000E+01  0.1000E+01
    -24.512  0.0000E+00  0.0000E+00  0.1000E+01  0.1000E+01
    -24.363  0.0000E+00  0.0000E+00  0.1000E+01  0.1000E+01
    -24.214  0.0000E+00  0.0000E+00  0.1000E+01  0.1000E+01
    -24.064  0.0000E+00  0.0000E+00  0.1000E+01  0.1000E+01
    -23.915  0.0000E+00  0.0000E+00  0.1000E+01  0.1000E+01
    -23.766  0.0000E+00  0.0000E+00  0.1000E+01  0.1000E+01
    -23.617  0.0000E+00  0.0000E+00  0.1000E+01  0.1000E+01
    -23.468  0.0000E+00  0.0000E+00  0.1000E+01  0.1000E+01
    -23.318  0.0000E+00  0.0000E+00  0.1000E+01  0.1000E+01
    -23.169  0.0000E+00  0.0000E+00  0.1000E+01  0.1000E+01
    -23.020  0.0000E+00  0.0000E+00  0.1000E+01  0.1000E+01
    -22.871  0.0000E+00  0.0000E+00  0.1000E+01  0.1000E+01
    -22.722  0.0000E+00  0.0000E+00  0.1000E+01  0.1000E+01
    -22.572  0.0000E+00  0.0000E+00  0.1000E+01  0.1000E+01
    -22.423  0.0000E+00  0.0000E+00  0.1000E+01  0.1000E+01
    -22.274  0.0000E+00  0.0000E+00  0.1000E+01  0.1000E+01
    -22.125  0.0000E+00  0.0000E+00  0.1000E+01  0.1000E+01
    -21.976  0.0000E+00  0.0000E+00  0.1000E+01  0.1000E+01
    -21.826  0.0000E+00  0.0000E+00  0.1000E+01  0.1000E+01
    -21.677  0.0000E+00  0.0000E+00  0.1000E+01  0.1000E+01
    -21.528  0.0000E+00  0.0000E+00  0.1000E+01  0.1000E+01
    -21.379  0.0000E+00  0.0000E+00  0.1000E+01  0.1000E+01
    -21.229  0.0000E+00  0.0000E+00  0.1000E+01  0.1000E+01
    -21.080  0.0000E+00  0.0000E+00  0.1000E+01  0.1000E+01
    -20.931  0.0000E+00  0.0000E+00  0.1000E+01  0.1000E+01
    -20.782  0.0000E+00  0.0000E+00  0.1000E+01  0.1000E+01
    -20.633  0.0000E+00  0.0000E+00  0.1000E+01  0.1000E+01
    -20.483  0.0000E+00  0.0000E+00  0.1000E+01  0.1000E+01
    -20.334  0.0000E+00  0.0000E+00  0.1000E+01  0.1000E+01
    -20.185  0.0000E+00  0.0000E+00  0.1000E+01  0.1000E+01
    -20.036  0.0000E+00  0.0000E+00  0.1000E+01  0.1000E+01
    -19.887  0.0000E+00  0.0000E+00  0.1000E+01  0.1000E+01
    -19.737  0.0000E+00  0.0000E+00  0.1000E+01  0.1000E+01
    -19.588  0.0000E+00  0.0000E+00  0.1000E+01  0.1000E+01
    -19.439  0.0000E+00  0.0000E+00  0.1000E+01  0.1000E+01
    -19.290  0.0000E+00  0.0000E+00  0.1000E+01  0.1000E+01
    -19.140  0.0000E+00  0.0000E+00  0.1000E+01  0.1000E+01
    -18.991  0.0000E+00  0.0000E+00  0.1000E+01  0.1000E+01
    -18.842  0.0000E+00  0.0000E+00  0.1000E+01  0.1000E+01
    -18.693  0.0000E+00  0.0000E+00  0.1000E+01  0.1000E+01
    -18.544  0.0000E+00  0.0000E+00  0.1000E+01  0.1000E+01
    -18.394  0.0000E+00  0.0000E+00  0.1000E+01  0.1000E+01
    -18.245  0.0000E+00  0.0000E+00  0.1000E+01  0.1000E+01
    -18.096  0.0000E+00  0.0000E+00  0.1000E+01  0.1000E+01
    -17.947  0.0000E+00  0.0000E+00  0.1000E+01  0.1000E+01
    -17.798  0.0000E+00  0.0000E+00  0.1000E+01  0.1000E+01
    -17.648  0.0000E+00  0.0000E+00  0.1000E+01  0.1000E+01
    -17.499  0.0000E+00  0.0000E+00  0.1000E+01  0.1000E+01
    -17.350  0.0000E+00  0.0000E+00  0.1000E+01  0.1000E+01
    -17.201  0.0000E+00  0.0000E+00  0.1000E+01  0.1000E+01
    -17.052  0.0000E+00  0.0000E+00  0.1000E+01  0.1000E+01
    -16.902  0.0000E+00  0.0000E+00  0.1000E+01  0.1000E+01
    -16.753  0.0000E+00  0.0000E+00  0.1000E+01  0.1000E+01
    -16.604  0.0000E+00  0.0000E+00  0.1000E+01  0.1000E+01
    -16.455  0.0000E+00  0.0000E+00  0.1000E+01  0.1000E+01
    -16.305  0.0000E+00  0.0000E+00  0.1000E+01  0.1000E+01
    -16.156  0.0000E+00  0.0000E+00  0.1000E+01  0.1000E+01
    -16.007  0.0000E+00  0.0000E+00  0.1000E+01  0.1000E+01
    -15.858  0.0000E+00  0.0000E+00  0.1000E+01  0.1000E+01
    -15.709  0.0000E+00  0.0000E+00  0.1000E+01  0.1000E+01
    -15.559  0.0000E+00  0.0000E+00  0.1000E+01  0.1000E+01
    -15.410  0.0000E+00  0.0000E+00  0.1000E+01  0.1000E+01
    -15.261  0.0000E+00  0.0000E+00  0.1000E+01  0.1000E+01
    -15.112  0.0000E+00  0.0000E+00  0.1000E+01  0.1000E+01
    -14.963  0.0000E+00  0.0000E+00  0.1000E+01  0.1000E+01
    -14.813  0.0000E+00  0.0000E+00  0.1000E+01  0.1000E+01
    -14.664  0.0000E+00  0.0000E+00  0.1000E+01  0.1000E+01
    -14.515  0.0000E+00  0.0000E+00  0.1000E+01  0.1000E+01
    -14.366  0.0000E+00  0.0000E+00  0.1000E+01  0.1000E+01
    -14.216  0.1780E-03  0.1783E-03  0.1000E+01  0.1000E+01
    -14.067  0.6097E-02  0.6108E-02  0.1001E+01  0.1001E+01
    -13.918  0.1170E+00  0.1172E+00  0.1018E+01  0.1018E+01
    -13.769  0.2040E+01  0.2044E+01  0.1323E+01  0.1323E+01
    -13.620  0.1172E+02  0.1173E+02  0.3072E+01  0.3073E+01
    -13.470  0.5759E+01  0.5752E+01  0.3931E+01  0.3932E+01
    -13.321  0.4353E+00  0.4346E+00  0.3996E+01  0.3996E+01
    -13.172  0.0000E+00  0.0000E+00  0.4000E+01  0.4000E+01
    -13.023  0.0000E+00  0.0000E+00  0.4000E+01  0.4000E+01
    -12.874  0.0000E+00  0.0000E+00  0.4000E+01  0.4000E+01
    -12.724  0.0000E+00  0.0000E+00  0.4000E+01  0.4000E+01
    -12.575  0.0000E+00  0.0000E+00  0.4000E+01  0.4000E+01
    -12.426  0.0000E+00  0.0000E+00  0.4000E+01  0.4000E+01
    -12.277  0.0000E+00  0.0000E+00  0.4000E+01  0.4000E+01
    -12.128  0.0000E+00  0.0000E+00  0.4000E+01  0.4000E+01
    -11.978  0.0000E+00  0.0000E+00  0.4000E+01  0.4000E+01
    -11.829  0.0000E+00  0.0000E+00  0.4000E+01  0.4000E+01
    -11.680  0.0000E+00  0.0000E+00  0.4000E+01  0.4000E+01
    -11.531  0.0000E+00  0.0000E+00  0.4000E+01  0.4000E+01
    -11.381  0.0000E+00  0.0000E+00  0.4000E+01  0.4000E+01
    -11.232  0.0000E+00  0.0000E+00  0.4000E+01  0.4000E+01
    -11.083  0.0000E+00  0.0000E+00  0.4000E+01  0.4000E+01
    -10.934  0.0000E+00  0.0000E+00  0.4000E+01  0.4000E+01
    -10.785  0.0000E+00  0.0000E+00  0.4000E+01  0.4000E+01
    -10.635  0.0000E+00  0.0000E+00  0.4000E+01  0.4000E+01
    -10.486  0.0000E+00  0.0000E+00  0.4000E+01  0.4000E+01
    -10.337  0.0000E+00  0.0000E+00  0.4000E+01  0.4000E+01
    -10.188  0.0000E+00  0.0000E+00  0.4000E+01  0.4000E+01
    -10.039  0.0000E+00  0.0000E+00  0.4000E+01  0.4000E+01
     -9.889  0.0000E+00  0.0000E+00  0.4000E+01  0.4000E+01
     -9.740  0.0000E+00  0.0000E+00  0.4000E+01  0.4000E+01
     -9.591  0.0000E+00  0.0000E+00  0.4000E+01  0.4000E+01
     -9.442  0.0000E+00  0.0000E+00  0.4000E+01  0.4000E+01
     -9.293  0.0000E+00  0.0000E+00  0.4000E+01  0.4000E+01
     -9.143  0.0000E+00  0.0000E+00  0.4000E+01  0.4000E+01
     -8.994  0.0000E+00  0.0000E+00  0.4000E+01  0.4000E+01
     -8.845  0.0000E+00  0.0000E+00  0.4000E+01  0.4000E+01
     -8.696  0.0000E+00  0.0000E+00  0.4000E+01  0.4000E+01
     -8.546  0.0000E+00  0.0000E+00  0.4000E+01  0.4000E+01
     -8.397  0.0000E+00  0.0000E+00  0.4000E+01  0.4000E+01
     -8.248  0.0000E+00  0.0000E+00  0.4000E+01  0.4000E+01
     -8.099  0.0000E+00  0.0000E+00  0.4000E+01  0.4000E+01
     -7.950  0.0000E+00  0.0000E+00  0.4000E+01  0.4000E+01
     -7.800  0.0000E+00  0.0000E+00  0.4000E+01  0.4000E+01
     -7.651  0.0000E+00  0.0000E+00  0.4000E+01  0.4000E+01
     -7.502  0.0000E+00  0.0000E+00  0.4000E+01  0.4000E+01
     -7.353  0.0000E+00  0.0000E+00  0.4000E+01  0.4000E+01
     -7.204  0.0000E+00  0.0000E+00  0.4000E+01  0.4000E+01
     -7.054  0.0000E+00  0.0000E+00  0.4000E+01  0.4000E+01
     -6.905  0.0000E+00  0.0000E+00  0.4000E+01  0.4000E+01
     -6.756  0.0000E+00  0.0000E+00  0.4000E+01  0.4000E+01
     -6.607  0.0000E+00  0.0000E+00  0.4000E+01  0.4000E+01
     -6.457  0.0000E+00  0.0000E+00  0.4000E+01  0.4000E+01
     -6.308  0.0000E+00  0.0000E+00  0.4000E+01  0.4000E+01
     -6.159  0.0000E+00  0.0000E+00  0.4000E+01  0.4000E+01
     -6.010  0.0000E+00  0.0000E+00  0.4000E+01  0.4000E+01
     -5.861  0.0000E+00  0.0000E+00  0.4000E+01  0.4000E+01
     -5.711  0.0000E+00  0.0000E+00  0.4000E+01  0.4000E+01
     -5.562  0.0000E+00  0.0000E+00  0.4000E+01  0.4000E+01
     -5.413  0.0000E+00  0.0000E+00  0.4000E+01  0.4000E+01
     -5.264  0.0000E+00  0.0000E+00  0.4000E+01  0.4000E+01
     -5.115  0.0000E+00  0.0000E+00  0.4000E+01  0.4000E+01
     -4.965  0.0000E+00  0.0000E+00  0.4000E+01  0.4000E+01
     -4.816  0.0000E+00  0.0000E+00  0.4000E+01  0.4000E+01
     -4.667  0.0000E+00  0.0000E+00  0.4000E+01  0.4000E+01
     -4.518  0.0000E+00  0.0000E+00  0.4000E+01  0.4000E+01
     -4.369  0.5013E-06  0.5128E-06  0.4000E+01  0.4000E+01
     -4.219  0.1846E-04  0.1888E-04  0.4000E+01  0.4000E+01
     -4.070  0.3887E-03  0.3975E-03  0.4000E+01  0.4000E+01
     -3.921  0.6902E-02  0.7043E-02  0.4001E+01  0.4001E+01
     -3.772  0.5683E-01  0.5744E-01  0.4010E+01  0.4010E+01
     -3.622  0.1432E+00  0.1438E+00  0.4031E+01  0.4031E+01
     -3.473  0.2053E+00  0.2058E+00  0.4062E+01  0.4062E+01
     -3.324  0.2584E+00  0.2586E+00  0.4100E+01  0.4100E+01
     -3.175  0.3021E+00  0.3026E+00  0.4145E+01  0.4146E+01
     -3.026  0.3565E+00  0.3564E+00  0.4199E+01  0.4199E+01
     -2.876  0.3856E+00  0.3864E+00  0.4256E+01  0.4257E+01
     -2.727  0.4642E+00  0.4641E+00  0.4326E+01  0.4326E+01
     -2.578  0.5086E+00  0.5095E+00  0.4402E+01  0.4402E+01
     -2.429  0.5938E+00  0.5939E+00  0.4490E+01  0.4491E+01
     -2.280  0.6269E+00  0.6268E+00  0.4584E+01  0.4585E+01
     -2.130  0.5311E+00  0.5308E+00  0.4663E+01  0.4664E+01
     -1.981  0.5248E+00  0.5238E+00  0.4742E+01  0.4742E+01
     -1.832  0.4806E+00  0.4814E+00  0.4814E+01  0.4814E+01
     -1.683  0.5456E+00  0.5458E+00  0.4895E+01  0.4896E+01
     -1.533  0.5691E+00  0.5686E+00  0.4980E+01  0.4981E+01
     -1.384  0.5291E+00  0.5295E+00  0.5060E+01  0.5060E+01
     -1.235  0.6123E+00  0.6130E+00  0.5151E+01  0.5152E+01
     -1.086  0.6991E+00  0.6990E+00  0.5256E+01  0.5256E+01
     -0.937  0.7901E+00  0.7906E+00  0.5374E+01  0.5374E+01
     -0.787  0.1068E+01  0.1070E+01  0.5533E+01  0.5534E+01
     -0.638  0.1236E+01  0.1234E+01  0.5718E+01  0.5719E+01
     -0.489  0.1155E+01  0.1155E+01  0.5890E+01  0.5891E+01
     -0.340  0.1000E+01  0.9971E+00  0.6040E+01  0.6041E+01
     -0.191  0.6418E+00  0.6433E+00  0.6136E+01  0.6137E+01
     -0.041  0.1092E+01  0.1092E+01  0.6300E+01  0.6300E+01
      0.108  0.6172E+00  0.6140E+00  0.6392E+01  0.6392E+01
      0.257  0.4908E+00  0.4924E+00  0.6465E+01  0.6466E+01
      0.406  0.7268E+00  0.7265E+00  0.6574E+01  0.6575E+01
      0.555  0.5665E+00  0.5652E+00  0.6659E+01  0.6659E+01
      0.705  0.4123E+00  0.4122E+00  0.6720E+01  0.6721E+01
      0.854  0.4319E+00  0.4316E+00  0.6785E+01  0.6785E+01
      1.003  0.4648E+00  0.4656E+00  0.6855E+01  0.6855E+01
      1.152  0.5074E+00  0.5073E+00  0.6930E+01  0.6931E+01
      1.302  0.4895E+00  0.4918E+00  0.7004E+01  0.7004E+01
      1.451  0.6768E+00  0.6776E+00  0.7105E+01  0.7106E+01
      1.600  0.7265E+00  0.7288E+00  0.7213E+01  0.7214E+01
      1.749  0.8542E+00  0.8538E+00  0.7341E+01  0.7342E+01
      1.898  0.8678E+00  0.8686E+00  0.7471E+01  0.7472E+01
      2.048  0.8964E+00  0.8972E+00  0.7605E+01  0.7606E+01
      2.197  0.1032E+01  0.1033E+01  0.7759E+01  0.7761E+01
      2.346  0.1304E+01  0.1307E+01  0.7954E+01  0.7956E+01
      2.495  0.1414E+01  0.1412E+01  0.8165E+01  0.8167E+01
      2.644  0.1443E+01  0.1447E+01  0.8381E+01  0.8383E+01
      2.794  0.1715E+01  0.1715E+01  0.8637E+01  0.8639E+01
      2.943  0.1603E+01  0.1602E+01  0.8877E+01  0.8879E+01
      3.092  0.1338E+01  0.1334E+01  0.9077E+01  0.9078E+01
      3.241  0.1265E+01  0.1267E+01  0.9266E+01  0.9268E+01
      3.391  0.1323E+01  0.1321E+01  0.9464E+01  0.9466E+01
      3.540  0.9863E+00  0.9832E+00  0.9612E+01  0.9613E+01
      3.689  0.9338E+00  0.9364E+00  0.9751E+01  0.9753E+01
      3.838  0.1378E+01  0.1380E+01  0.9957E+01  0.9959E+01
      3.987  0.1342E+01  0.1338E+01  0.1016E+02  0.1016E+02
      4.137  0.9757E+00  0.9744E+00  0.1030E+02  0.1030E+02
      4.286  0.9910E+00  0.9930E+00  0.1045E+02  0.1045E+02
      4.435  0.1365E+01  0.1365E+01  0.1066E+02  0.1066E+02
      4.584  0.1177E+01  0.1175E+01  0.1083E+02  0.1083E+02
      4.733  0.9330E+00  0.9317E+00  0.1097E+02  0.1097E+02
      4.883  0.8200E+00  0.8204E+00  0.1109E+02  0.1110E+02
      5.032  0.9519E+00  0.9522E+00  0.1124E+02  0.1124E+02
      5.181  0.1105E+01  0.1108E+01  0.1140E+02  0.1140E+02
      5.330  0.1260E+01  0.1257E+01  0.1159E+02  0.1159E+02
      5.479  0.1105E+01  0.1107E+01  0.1176E+02  0.1176E+02
      5.629  0.1323E+01  0.1322E+01  0.1195E+02  0.1195E+02
      5.778  0.1205E+01  0.1206E+01  0.1213E+02  0.1213E+02
      5.927  0.1182E+01  0.1181E+01  0.1231E+02  0.1231E+02
      6.076  0.1268E+01  0.1270E+01  0.1250E+02  0.1250E+02
      6.226  0.1306E+01  0.1306E+01  0.1270E+02  0.1270E+02
      6.375  0.1455E+01  0.1457E+01  0.1291E+02  0.1291E+02
      6.524  0.1404E+01  0.1403E+01  0.1312E+02  0.1312E+02
      6.673  0.1639E+01  0.1642E+01  0.1337E+02  0.1337E+02
      6.822  0.1653E+01  0.1651E+01  0.1361E+02  0.1362E+02
      6.972  0.1547E+01  0.1544E+01  0.1385E+02  0.1385E+02
      7.121  0.1560E+01  0.1564E+01  0.1408E+02  0.1408E+02
      7.270  0.2024E+01  0.2017E+01  0.1438E+02  0.1438E+02
      7.419  0.1889E+01  0.1891E+01  0.1466E+02  0.1466E+02
      7.568  0.2022E+01  0.1995E+01  0.1497E+02  0.1496E+02
      7.718  0.2042E+01  0.2005E+01  0.1527E+02  0.1526E+02
      7.867  0.1704E+01  0.1732E+01  0.1553E+02  0.1552E+02
      8.016  0.1158E+01  0.1167E+01  0.1570E+02  0.1570E+02
      8.165  0.7797E+00  0.7737E+00  0.1582E+02  0.1581E+02
      8.315  0.4141E+00  0.4199E+00  0.1588E+02  0.1588E+02
      8.464  0.3432E+00  0.3623E+00  0.1593E+02  0.1593E+02
      8.613  0.1849E+00  0.1881E+00  0.1596E+02  0.1596E+02
      8.762  0.1358E+00  0.1382E+00  0.1598E+02  0.1598E+02
      8.911  0.8737E-01  0.8484E-01  0.1599E+02  0.1599E+02
      9.061  0.2082E-01  0.2067E-01  0.1599E+02  0.1599E+02
      9.210  0.2924E-01  0.2906E-01  0.1600E+02  0.1600E+02
      9.359  0.5201E-02  0.4981E-02  0.1600E+02  0.1600E+02
      9.508  0.1741E-03  0.1596E-03  0.1600E+02  0.1600E+02
      9.657  0.0000E+00  0.0000E+00  0.1600E+02  0.1600E+02
      9.807  0.0000E+00  0.0000E+00  0.1600E+02  0.1600E+02
      9.956  0.0000E+00  0.0000E+00  0.1600E+02  0.1600E+02
     10.105  0.0000E+00  0.0000E+00  0.1600E+02  0.1600E+02
     10.254  0.0000E+00  0.0000E+00  0.1600E+02  0.1600E+02
     10.403  0.0000E+00  0.0000E+00  0.1600E+02  0.1600E+02
     10.553  0.0000E+00  0.0000E+00  0.1600E+02  0.1600E+02
     10.702  0.0000E+00  0.0000E+00  0.1600E+02  0.1600E+02
     10.851  0.0000E+00  0.0000E+00  0.1600E+02  0.1600E+02
     11.000  0.0000E+00  0.0000E+00  0.1600E+02  0.1600E+02
     11.150  0.0000E+00  0.0000E+00  0.1600E+02  0.1600E+02
     11.14953717    -33.61405292  301      3.42111880      1.00000000
    -33.614  0.0000E+00  0.0000E+00  0.0000E+00  0.0000E+00  0.0000E+00  0.0000E+00  0.0000E+00  0.0000E+00  0.0000E+00  0.0000E+00  0.0000E+00  0.0000E+00  0.0000E+00  0.0000E+00  0.0000E+00  0.0000E+00  0.0000E+00  0.0000E+00
    -33.465  0.0000E+00  0.0000E+00  0.0000E+00  0.0000E+00  0.0000E+00  0.0000E+00  0.0000E+00  0.0000E+00  0.0000E+00  0.0000E+00  0.0000E+00  0.0000E+00  0.0000E+00  0.0000E+00  0.0000E+00  0.0000E+00  0.0000E+00  0.0000E+00
    -33.316  0.0000E+00  0.0000E+00  0.0000E+00  0.0000E+00  0.0000E+00  0.0000E+00  0.0000E+00  0.0000E+00  0.0000E+00  0.0000E+00  0.0000E+00  0.0000E+00  0.0000E+00  0.0000E+00  0.0000E+00  0.0000E+00  0.0000E+00  0.0000E+00
    -33.166  0.0000E+00  0.0000E+00  0.0000E+00  0.0000E+00  0.0000E+00  0.0000E+00  0.0000E+00  0.0000E+00  0.0000E+00  0.0000E+00  0.0000E+00  0.0000E+00  0.0000E+00  0.0000E+00  0.0000E+00  0.0000E+00  0.0000E+00  0.0000E+00
    -33.017  0.0000E+00  0.0000E+00  0.0000E+00  0.0000E+00  0.0000E+00  0.0000E+00  0.0000E+00  0.0000E+00  0.0000E+00  0.0000E+00  0.0000E+00  0.0000E+00  0.0000E+00  0.0000E+00  0.0000E+00  0.0000E+00  0.0000E+00  0.0000E+00
    -32.868  0.0000E+00  0.0000E+00  0.0000E+00  0.0000E+00  0.0000E+00  0.0000E+00  0.0000E+00  0.0000E+00  0.0000E+00  0.0000E+00  0.0000E+00  0.0000E+00  0.0000E+00  0.0000E+00  0.0000E+00  0.0000E+00  0.0000E+00  0.0000E+00
    -32.719  0.0000E+00  0.0000E+00  0.0000E+00  0.0000E+00  0.0000E+00  0.0000E+00  0.0000E+00  0.0000E+00  0.0000E+00  0.0000E+00  0.0000E+00  0.0000E+00  0.0000E+00  0.0000E+00  0.0000E+00  0.0000E+00  0.0000E+00  0.0000E+00
    -32.570  0.0000E+00  0.0000E+00  0.0000E+00  0.0000E+00  0.0000E+00  0.0000E+00  0.0000E+00  0.0000E+00  0.0000E+00  0.0000E+00  0.0000E+00  0.0000E+00  0.0000E+00  0.0000E+00  0.0000E+00  0.0000E+00  0.0000E+00  0.0000E+00
    -32.420  0.0000E+00  0.0000E+00  0.0000E+00  0.0000E+00  0.0000E+00  0.0000E+00  0.0000E+00  0.0000E+00  0.0000E+00  0.0000E+00  0.0000E+00  0.0000E+00  0.0000E+00  0.0000E+00  0.0000E+00  0.0000E+00  0.0000E+00  0.0000E+00
    -32.271  0.0000E+00  0.0000E+00  0.0000E+00  0.0000E+00  0.0000E+00  0.0000E+00  0.0000E+00  0.0000E+00  0.0000E+00  0.0000E+00  0.0000E+00  0.0000E+00  0.0000E+00  0.0000E+00  0.0000E+00  0.0000E+00  0.0000E+00  0.0000E+00
    -32.122  0.1218E-03  0.1231E-03  0.1954E-12  0.1999E-12  0.1954E-12  0.1999E-12  0.1980E-12  0.2020E-12  0.1867E-14  0.9947E-15  0.1775E-14  0.9164E-15  0.8429E-13  0.9397E-13  0.1867E-14  0.9947E-15  0.8531E-13  0.9472E-13
    -31.973  0.2285E-02  0.2309E-02  0.3667E-11  0.3752E-11  0.3667E-11  0.3752E-11  0.3716E-11  0.3791E-11  0.3504E-13  0.1866E-13  0.3331E-13  0.1719E-13  0.1582E-11  0.1763E-11  0.3504E-13  0.1866E-13  0.1601E-11  0.1777E-11
    -31.824  0.4486E-01  0.4533E-01  0.7198E-10  0.7364E-10  0.7198E-10  0.7364E-10  0.7294E-10  0.7440E-10  0.6878E-12  0.3663E-12  0.6539E-12  0.3375E-12  0.3105E-10  0.3461E-10  0.6878E-12  0.3663E-12  0.3142E-10  0.3489E-10
    -31.674  0.7759E+00  0.7829E+00  0.1245E-08  0.1272E-08  0.1245E-08  0.1272E-08  0.1262E-08  0.1285E-08  0.1189E-10  0.6328E-11  0.1131E-10  0.5830E-11  0.5370E-09  0.5978E-09  0.1189E-10  0.6328E-11  0.5433E-09  0.6025E-09
    -31.525  0.4025E+01  0.4031E+01  0.6461E-08  0.6549E-08  0.6461E-08  0.6549E-08  0.6547E-08  0.6616E-08  0.6159E-10  0.3259E-10  0.5855E-10  0.3002E-10  0.2786E-08  0.3077E-08  0.6159E-10  0.3259E-10  0.2816E-08  0.3099E-08
    -31.376  0.1593E+01  0.1581E+01  0.2558E-08  0.2569E-08  0.2558E-08  0.2569E-08  0.2593E-08  0.2596E-08  0.2433E-10  0.1279E-10  0.2313E-10  0.1178E-10  0.1102E-08  0.1207E-08  0.2433E-10  0.1279E-10  0.1113E-08  0.1214E-08
    -31.227  0.1089E+00  0.1078E+00  0.1749E-09  0.1751E-09  0.1749E-09  0.1751E-09  0.1772E-09  0.1769E-09  0.1661E-11  0.8719E-12  0.1580E-11  0.8029E-12  0.7534E-10  0.8226E-10  0.1661E-11  0.8719E-12  0.7606E-10  0.8272E-10
    -31.077  0.0000E+00  0.0000E+00  0.0000E+00  0.0000E+00  0.0000E+00  0.0000E+00  0.0000E+00  0.0000E+00  0.0000E+00  0.0000E+00  0.0000E+00  0.0000E+00  0.0000E+00  0.0000E+00  0.0000E+00  0.0000E+00  0.0000E+00  0.0000E+00
    -30.928  0.0000E+00  0.0000E+00  0.0000E+00  0.0000E+00  0.0000E+00  0.0000E+00  0.0000E+00  0.0000E+00  0.0000E+00  0.0000E+00  0.0000E+00  0.0000E+00  0.0000E+00  0.0000E+00  0.0000E+00  0.0000E+00  0.0000E+00  0.0000E+00
    -30.779  0.0000E+00  0.0000E+00  0.0000E+00  0.0000E+00  0.0000E+00  0.0000E+00  0.0000E+00  0.0000E+00  0.0000E+00  0.0000E+00  0.0000E+00  0.0000E+00  0.0000E+00  0.0000E+00  0.0000E+00  0.0000E+00  0.0000E+00  0.0000E+00
    -30.630  0.0000E+00  0.0000E+00  0.0000E+00  0.0000E+00  0.0000E+00  0.0000E+00  0.0000E+00  0.0000E+00  0.0000E+00  0.0000E+00  0.0000E+00  0.0000E+00  0.0000E+00  0.0000E+00  0.0000E+00  0.0000E+00  0.0000E+00  0.0000E+00
    -30.481  0.0000E+00  0.0000E+00  0.0000E+00  0.0000E+00  0.0000E+00  0.0000E+00  0.0000E+00  0.0000E+00  0.0000E+00  0.0000E+00  0.0000E+00  0.0000E+00  0.0000E+00  0.0000E+00  0.0000E+00  0.0000E+00  0.0000E+00  0.0000E+00
    -30.331  0.0000E+00  0.0000E+00  0.0000E+00  0.0000E+00  0.0000E+00  0.0000E+00  0.0000E+00  0.0000E+00  0.0000E+00  0.0000E+00  0.0000E+00  0.0000E+00  0.0000E+00  0.0000E+00  0.0000E+00  0.0000E+00  0.0000E+00  0.0000E+00
    -30.182  0.0000E+00  0.0000E+00  0.0000E+00  0.0000E+00  0.0000E+00  0.0000E+00  0.0000E+00  0.0000E+00  0.0000E+00  0.0000E+00  0.0000E+00  0.0000E+00  0.0000E+00  0.0000E+00  0.0000E+00  0.0000E+00  0.0000E+00  0.0000E+00
    -30.033  0.0000E+00  0.0000E+00  0.0000E+00  0.0000E+00  0.0000E+00  0.0000E+00  0.0000E+00  0.0000E+00  0.0000E+00  0.0000E+00  0.0000E+00  0.0000E+00  0.0000E+00  0.0000E+00  0.0000E+00  0.0000E+00  0.0000E+00  0.0000E+00
    -29.884  0.0000E+00  0.0000E+00  0.0000E+00  0.0000E+00  0.0000E+00  0.0000E+00  0.0000E+00  0.0000E+00  0.0000E+00  0.0000E+00  0.0000E+00  0.0000E+00  0.0000E+00  0.0000E+00  0.0000E+00  0.0000E+00  0.0000E+00  0.0000E+00
    -29.735  0.0000E+00  0.0000E+00  0.0000E+00  0.0000E+00  0.0000E+00  0.0000E+00  0.0000E+00  0.0000E+00  0.0000E+00  0.0000E+00  0.0000E+00  0.0000E+00  0.0000E+00  0.0000E+00  0.0000E+00  0.0000E+00  0.0000E+00  0.0000E+00
    -29.585  0.0000E+00  0.0000E+00  0.0000E+00  0.0000E+00  0.0000E+00  0.0000E+00  0.0000E+00  0.0000E+00  0.0000E+00  0.0000E+00  0.0000E+00  0.0000E+00  0.0000E+00  0.0000E+00  0.0000E+00  0.0000E+00  0.0000E+00  0.0000E+00
    -29.436  0.0000E+00  0.0000E+00  0.0000E+00  0.0000E+00  0.0000E+00  0.0000E+00  0.0000E+00  0.0000E+00  0.0000E+00  0.0000E+00  0.0000E+00  0.0000E+00  0.0000E+00  0.0000E+00  0.0000E+00  0.0000E+00  0.0000E+00  0.0000E+00
    -29.287  0.0000E+00  0.0000E+00  0.0000E+00  0.0000E+00  0.0000E+00  0.0000E+00  0.0000E+00  0.0000E+00  0.0000E+00  0.0000E+00  0.0000E+00  0.0000E+00  0.0000E+00  0.0000E+00  0.0000E+00  0.0000E+00  0.0000E+00  0.0000E+00
    -29.138  0.0000E+00  0.0000E+00  0.0000E+00  0.0000E+00  0.0000E+00  0.0000E+00  0.0000E+00  0.0000E+00  0.0000E+00  0.0000E+00  0.0000E+00  0.0000E+00  0.0000E+00  0.0000E+00  0.0000E+00  0.0000E+00  0.0000E+00  0.0000E+00
    -28.988  0.0000E+00  0.0000E+00  0.0000E+00  0.0000E+00  0.0000E+00  0.0000E+00  0.0000E+00  0.0000E+00  0.0000E+00  0.0000E+00  0.0000E+00  0.0000E+00  0.0000E+00  0.0000E+00  0.0000E+00  0.0000E+00  0.0000E+00  0.0000E+00
    -28.839  0.0000E+00  0.0000E+00  0.0000E+00  0.0000E+00  0.0000E+00  0.0000E+00  0.0000E+00  0.0000E+00  0.0000E+00  0.0000E+00  0.0000E+00  0.0000E+00  0.0000E+00  0.0000E+00  0.0000E+00  0.0000E+00  0.0000E+00  0.0000E+00
    -28.690  0.0000E+00  0.0000E+00  0.0000E+00  0.0000E+00  0.0000E+00  0.0000E+00  0.0000E+00  0.0000E+00  0.0000E+00  0.0000E+00  0.0000E+00  0.0000E+00  0.0000E+00  0.0000E+00  0.0000E+00  0.0000E+00  0.0000E+00  0.0000E+00
    -28.541  0.0000E+00  0.0000E+00  0.0000E+00  0.0000E+00  0.0000E+00  0.0000E+00  0.0000E+00  0.0000E+00  0.0000E+00  0.0000E+00  0.0000E+00  0.0000E+00  0.0000E+00  0.0000E+00  0.0000E+00  0.0000E+00  0.0000E+00  0.0000E+00
    -28.392  0.0000E+00  0.0000E+00  0.0000E+00  0.0000E+00  0.0000E+00  0.0000E+00  0.0000E+00  0.0000E+00  0.0000E+00  0.0000E+00  0.0000E+00  0.0000E+00  0.0000E+00  0.0000E+00  0.0000E+00  0.0000E+00  0.0000E+00  0.0000E+00
    -28.242  0.0000E+00  0.0000E+00  0.0000E+00  0.0000E+00  0.0000E+00  0.0000E+00  0.0000E+00  0.0000E+00  0.0000E+00  0.0000E+00  0.0000E+00  0.0000E+00  0.0000E+00  0.0000E+00  0.0000E+00  0.0000E+00  0.0000E+00  0.0000E+00
    -28.093  0.0000E+00  0.0000E+00  0.0000E+00  0.0000E+00  0.0000E+00  0.0000E+00  0.0000E+00  0.0000E+00  0.0000E+00  0.0000E+00  0.0000E+00  0.0000E+00  0.0000E+00  0.0000E+00  0.0000E+00  0.0000E+00  0.0000E+00  0.0000E+00
    -27.944  0.0000E+00  0.0000E+00  0.0000E+00  0.0000E+00  0.0000E+00  0.0000E+00  0.0000E+00  0.0000E+00  0.0000E+00  0.0000E+00  0.0000E+00  0.0000E+00  0.0000E+00  0.0000E+00  0.0000E+00  0.0000E+00  0.0000E+00  0.0000E+00
    -27.795  0.0000E+00  0.0000E+00  0.0000E+00  0.0000E+00  0.0000E+00  0.0000E+00  0.0000E+00  0.0000E+00  0.0000E+00  0.0000E+00  0.0000E+00  0.0000E+00  0.0000E+00  0.0000E+00  0.0000E+00  0.0000E+00  0.0000E+00  0.0000E+00
    -27.646  0.0000E+00  0.0000E+00  0.0000E+00  0.0000E+00  0.0000E+00  0.0000E+00  0.0000E+00  0.0000E+00  0.0000E+00  0.0000E+00  0.0000E+00  0.0000E+00  0.0000E+00  0.0000E+00  0.0000E+00  0.0000E+00  0.0000E+00  0.0000E+00
    -27.496  0.0000E+00  0.0000E+00  0.0000E+00  0.0000E+00  0.0000E+00  0.0000E+00  0.0000E+00  0.0000E+00  0.0000E+00  0.0000E+00  0.0000E+00  0.0000E+00  0.0000E+00  0.0000E+00  0.0000E+00  0.0000E+00  0.0000E+00  0.0000E+00
    -27.347  0.0000E+00  0.0000E+00  0.0000E+00  0.0000E+00  0.0000E+00  0.0000E+00  0.0000E+00  0.0000E+00  0.0000E+00  0.0000E+00  0.0000E+00  0.0000E+00  0.0000E+00  0.0000E+00  0.0000E+00  0.0000E+00  0.0000E+00  0.0000E+00
    -27.198  0.0000E+00  0.0000E+00  0.0000E+00  0.0000E+00  0.0000E+00  0.0000E+00  0.0000E+00  0.0000E+00  0.0000E+00  0.0000E+00  0.0000E+00  0.0000E+00  0.0000E+00  0.0000E+00  0.0000E+00  0.0000E+00  0.0000E+00  0.0000E+00
    -27.049  0.0000E+00  0.0000E+00  0.0000E+00  0.0000E+00  0.0000E+00  0.0000E+00  0.0000E+00  0.0000E+00  0.0000E+00  0.0000E+00  0.0000E+00  0.0000E+00  0.0000E+00  0.0000E+00  0.0000E+00  0.0000E+00  0.0000E+00  0.0000E+00
    -26.900  0.0000E+00  0.0000E+00  0.0000E+00  0.0000E+00  0.0000E+00  0.0000E+00  0.0000E+00  0.0000E+00  0.0000E+00  0.0000E+00  0.0000E+00  0.0000E+00  0.0000E+00  0.0000E+00  0.0000E+00  0.0000E+00  0.0000E+00  0.0000E+00
    -26.750  0.0000E+00  0.0000E+00  0.0000E+00  0.0000E+00  0.0000E+00  0.0000E+00  0.0000E+00  0.0000E+00  0.0000E+00  0.0000E+00  0.0000E+00  0.0000E+00  0.0000E+00  0.0000E+00  0.0000E+00  0.0000E+00  0.0000E+00  0.0000E+00
    -26.601  0.0000E+00  0.0000E+00  0.0000E+00  0.0000E+00  0.0000E+00  0.0000E+00  0.0000E+00  0.0000E+00  0.0000E+00  0.0000E+00  0.0000E+00  0.0000E+00  0.0000E+00  0.0000E+00  0.0000E+00  0.0000E+00  0.0000E+00  0.0000E+00
    -26.452  0.0000E+00  0.0000E+00  0.0000E+00  0.0000E+00  0.0000E+00  0.0000E+00  0.0000E+00  0.0000E+00  0.0000E+00  0.0000E+00  0.0000E+00  0.0000E+00  0.0000E+00  0.0000E+00  0.0000E+00  0.0000E+00  0.0000E+00  0.0000E+00
    -26.303  0.0000E+00  0.0000E+00  0.0000E+00  0.0000E+00  0.0000E+00  0.0000E+00  0.0000E+00  0.0000E+00  0.0000E+00  0.0000E+00  0.0000E+00  0.0000E+00  0.0000E+00  0.0000E+00  0.0000E+00  0.0000E+00  0.0000E+00  0.0000E+00
    -26.153  0.0000E+00  0.0000E+00  0.0000E+00  0.0000E+00  0.0000E+00  0.0000E+00  0.0000E+00  0.0000E+00  0.0000E+00  0.0000E+00  0.0000E+00  0.0000E+00  0.0000E+00  0.0000E+00  0.0000E+00  0.0000E+00  0.0000E+00  0.0000E+00