   4   4   1   0
  0.2043822E+02  0.4339147E-09  0.4340596E-09  0.4340596E-09  0.5000000E-15
  1.000000000000000E-004
  CAR 
 unknown system                          
     15.09417505    -30.47639582  301      5.59589395      1.00000000
    -30.476  0.0000E+00  0.0000E+00  0.0000E+00  0.0000E+00
    -30.324  0.0000E+00  0.0000E+00  0.0000E+00  0.0000E+00
    -30.173  0.0000E+00  0.0000E+00  0.0000E+00  0.0000E+00
    -30.021  0.0000E+00  0.0000E+00  0.0000E+00  0.0000E+00
    -29.869  0.0000E+00  0.0000E+00  0.0000E+00  0.0000E+00
    -29.717  0.0000E+00  0.0000E+00  0.0000E+00  0.0000E+00
    -29.565  0.0000E+00  0.0000E+00  0.0000E+00  0.0000E+00
    -29.413  0.0000E+00  0.0000E+00  0.0000E+00  0.0000E+00
    -29.261  0.0000E+00  0.0000E+00  0.0000E+00  0.0000E+00
    -29.109  0.0000E+00  0.0000E+00  0.0000E+00  0.0000E+00
    -28.957  0.0000E+00  0.0000E+00  0.0000E+00  0.0000E+00
    -28.805  0.1790E-02  0.1814E-02  0.2719E-03  0.2755E-03
    -28.654  0.3535E-01  0.3582E-01  0.5642E-02  0.5716E-02
    -28.502  0.6593E+00  0.6671E+00  0.1058E+00  0.1071E+00
    -28.350  0.3984E+01  0.3994E+01  0.7110E+00  0.7137E+00
    -28.198  0.1777E+01  0.1760E+01  0.9809E+00  0.9811E+00
    -28.046  0.1198E+00  0.1183E+00  0.9991E+00  0.9991E+00
    -27.894  0.0000E+00  0.0000E+00  0.1000E+01  0.1000E+01
    -27.742  0.0000E+00  0.0000E+00  0.1000E+01  0.1000E+01
    -27.590  0.0000E+00  0.0000E+00  0.1000E+01  0.1000E+01
    -27.438  0.0000E+00  0.0000E+00  0.1000E+01  0.1000E+01
    -27.286  0.0000E+00  0.0000E+00  0.1000E+01  0.1000E+01
    -27.135  0.0000E+00  0.0000E+00  0.1000E+01  0.1000E+01
    -26.983  0.0000E+00  0.0000E+00  0.1000E+01  0.1000E+01
    -26.831  0.0000E+00  0.0000E+00  0.1000E+01  0.1000E+01
    -26.679  0.0000E+00  0.0000E+00  0.1000E+01  0.1000E+01
    -26.527  0.0000E+00  0.0000E+00  0.1000E+01  0.1000E+01
    -26.375  0.0000E+00  0.0000E+00  0.1000E+01  0.1000E+01
    -26.223  0.0000E+00  0.0000E+00  0.1000E+01  0.1000E+01
    -26.071  0.0000E+00  0.0000E+00  0.1000E+01  0.1000E+01
    -25.919  0.0000E+00  0.0000E+00  0.1000E+01  0.1000E+01
    -25.767  0.0000E+00  0.0000E+00  0.1000E+01  0.1000E+01
    -25.616  0.0000E+00  0.0000E+00  0.1000E+01  0.1000E+01
    -25.464  0.0000E+00  0.0000E+00  0.1000E+01  0.1000E+01
    -25.312  0.0000E+00  0.0000E+00  0.1000E+01  0.1000E+01
    -25.160  0.0000E+00  0.0000E+00  0.1000E+01  0.1000E+01
    -25.008  0.0000E+00  0.0000E+00  0.1000E+01  0.1000E+01
    -24.856  0.0000E+00  0.0000E+00  0.1000E+01  0.1000E+01
    -24.704  0.0000E+00  0.0000E+00  0.1000E+01  0.1000E+01
    -24.552  0.0000E+00  0.0000E+00  0.1000E+01  0.1000E+01
    -24.400  0.0000E+00  0.0000E+00  0.1000E+01  0.1000E+01
    -24.248  0.0000E+00  0.0000E+00  0.1000E+01  0.1000E+01
    -24.097  0.0000E+00  0.0000E+00  0.1000E+01  0.1000E+01
    -23.945  0.0000E+00  0.0000E+00  0.1000E+01  0.1000E+01
    -23.793  0.0000E+00  0.0000E+00  0.1000E+01  0.1000E+01
    -23.641  0.0000E+00  0.0000E+00  0.1000E+01  0.1000E+01
    -23.489  0.0000E+00  0.0000E+00  0.1000E+01  0.1000E+01
    -23.337  0.0000E+00  0.0000E+00  0.1000E+01  0.1000E+01
    -23.185  0.0000E+00  0.0000E+00  0.1000E+01  0.1000E+01
    -23.033  0.0000E+00  0.0000E+00  0.1000E+01  0.1000E+01
    -22.881  0.0000E+00  0.0000E+00  0.1000E+01  0.1000E+01
    -22.729  0.0000E+00  0.0000E+00  0.1000E+01  0.1000E+01
    -22.577  0.0000E+00  0.0000E+00  0.1000E+01  0.1000E+01
    -22.426  0.0000E+00  0.0000E+00  0.1000E+01  0.1000E+01
    -22.274  0.0000E+00  0.0000E+00  0.1000E+01  0.1000E+01
    -22.122  0.0000E+00  0.0000E+00  0.1000E+01  0.1000E+01
    -21.970  0.0000E+00  0.0000E+00  0.1000E+01  0.1000E+01
    -21.818  0.0000E+00  0.0000E+00  0.1000E+01  0.1000E+01
    -21.666  0.0000E+00  0.0000E+00  0.1000E+01  0.1000E+01
    -21.514  0.0000E+00  0.0000E+00  0.1000E+01  0.1000E+01
    -21.362  0.0000E+00  0.0000E+00  0.1000E+01  0.1000E+01
    -21.210  0.0000E+00  0.0000E+00  0.1000E+01  0.1000E+01
    -21.058  0.0000E+00  0.0000E+00  0.1000E+01  0.1000E+01
    -20.907  0.0000E+00  0.0000E+00  0.1000E+01  0.1000E+01
    -20.755  0.0000E+00  0.0000E+00  0.1000E+01  0.1000E+01
    -20.603  0.0000E+00  0.0000E+00  0.1000E+01  0.1000E+01
    -20.451  0.0000E+00  0.0000E+00  0.1000E+01  0.1000E+01
    -20.299  0.0000E+00  0.0000E+00  0.1000E+01  0.1000E+01
    -20.147  0.0000E+00  0.0000E+00  0.1000E+01  0.1000E+01
    -19.995  0.0000E+00  0.0000E+00  0.1000E+01  0.1000E+01
    -19.843  0.0000E+00  0.0000E+00  0.1000E+01  0.1000E+01
    -19.691  0.0000E+00  0.0000E+00  0.1000E+01  0.1000E+01
    -19.539  0.0000E+00  0.0000E+00  0.1000E+01  0.1000E+01
    -19.388  0.0000E+00  0.0000E+00  0.1000E+01  0.1000E+01
    -19.236  0.0000E+00  0.0000E+00  0.1000E+01  0.1000E+01
    -19.084  0.0000E+00  0.0000E+00  0.1000E+01  0.1000E+01
    -18.932  0.0000E+00  0.0000E+00  0.1000E+01  0.1000E+01
    -18.780  0.0000E+00  0.0000E+00  0.1000E+01  0.1000E+01
    -18.628  0.0000E+00  0.0000E+00  0.1000E+01  0.1000E+01
    -18.476  0.0000E+00  0.0000E+00  0.1000E+01  0.1000E+01
    -18.324  0.0000E+00  0.0000E+00  0.1000E+01  0.1000E+01
    -18.172  0.0000E+00  0.0000E+00  0.1000E+01  0.1000E+01
    -18.020  0.0000E+00  0.0000E+00  0.1000E+01  0.1000E+01
    -17.869  0.0000E+00  0.0000E+00  0.1000E+01  0.1000E+01
    -17.717  0.0000E+00  0.0000E+00  0.1000E+01  0.1000E+01
    -17.565  0.0000E+00  0.0000E+00  0.1000E+01  0.1000E+01
    -17.413  0.0000E+00  0.0000E+00  0.1000E+01  0.1000E+01
    -17.261  0.0000E+00  0.0000E+00  0.1000E+01  0.1000E+01
    -17.109  0.0000E+00  0.0000E+00  0.1000E+01  0.1000E+01
    -16.957  0.0000E+00  0.0000E+00  0.1000E+01  0.1000E+01
    -16.805  0.0000E+00  0.0000E+00  0.1000E+01  0.1000E+01
    -16.653  0.0000E+00  0.0000E+00  0.1000E+01  0.1000E+01
    -16.501  0.0000E+00  0.0000E+00  0.1000E+01  0.1000E+01
    -16.350  0.0000E+00  0.0000E+00  0.1000E+01  0.1000E+01
    -16.198  0.0000E+00  0.0000E+00  0.1000E+01  0.1000E+01
    -16.046  0.0000E+00  0.0000E+00  0.1000E+01  0.1000E+01
    -15.894  0.0000E+00  0.0000E+00  0.1000E+01  0.1000E+01
    -15.742  0.0000E+00  0.0000E+00  0.1000E+01  0.1000E+01
    -15.590  0.0000E+00  0.0000E+00  0.1000E+01  0.1000E+01
    -15.438  0.0000E+00  0.0000E+00  0.1000E+01  0.1000E+01
    -15.286  0.0000E+00  0.0000E+00  0.1000E+01  0.1000E+01
    -15.134  0.0000E+00  0.0000E+00  0.1000E+01  0.1000E+01
    -14.982  0.0000E+00  0.0000E+00  0.1000E+01  0.1000E+01
    -14.830  0.0000E+00  0.0000E+00  0.1000E+01  0.1000E+01
    -14.679  0.0000E+00  0.0000E+00  0.1000E+01  0.1000E+01
    -14.527  0.0000E+00  0.0000E+00  0.1000E+01  0.1000E+01
    -14.375  0.0000E+00  0.0000E+00  0.1000E+01  0.1000E+01
    -14.223  0.0000E+00  0.0000E+00  0.1000E+01  0.1000E+01
    -14.071  0.0000E+00  0.0000E+00  0.1000E+01  0.1000E+01
    -13.919  0.0000E+00  0.0000E+00  0.1000E+01  0.1000E+01
    -13.767  0.0000E+00  0.0000E+00  0.1000E+01  0.1000E+01
    -13.615  0.0000E+00  0.0000E+00  0.1000E+01  0.1000E+01
    -13.463  0.0000E+00  0.0000E+00  0.1000E+01  0.1000E+01
    -13.311  0.0000E+00  0.0000E+00  0.1000E+01  0.1000E+01
    -13.160  0.0000E+00  0.0000E+00  0.1000E+01  0.1000E+01
    -13.008  0.0000E+00  0.0000E+00  0.1000E+01  0.1000E+01
    -12.856  0.0000E+00  0.0000E+00  0.1000E+01  0.1000E+01
    -12.704  0.0000E+00  0.0000E+00  0.1000E+01  0.1000E+01
    -12.552  0.0000E+00  0.0000E+00  0.1000E+01  0.1000E+01
    -12.400  0.0000E+00  0.0000E+00  0.1000E+01  0.1000E+01
    -12.248  0.0000E+00  0.0000E+00  0.1000E+01  0.1000E+01
    -12.096  0.0000E+00  0.0000E+00  0.1000E+01  0.1000E+01
    -11.944  0.0000E+00  0.0000E+00  0.1000E+01  0.1000E+01
    -11.792  0.0000E+00  0.0000E+00  0.1000E+01  0.1000E+01
    -11.641  0.0000E+00  0.0000E+00  0.1000E+01  0.1000E+01
    -11.489  0.0000E+00  0.0000E+00  0.1000E+01  0.1000E+01
    -11.337  0.1500E-03  0.1524E-03  0.1000E+01  0.1000E+01
    -11.185  0.4241E-02  0.4273E-02  0.1001E+01  0.1001E+01
    -11.033  0.8680E-01  0.8747E-01  0.1014E+01  0.1014E+01
    -10.881  0.1482E+01  0.1492E+01  0.1239E+01  0.1241E+01
    -10.729  0.7880E+01  0.7896E+01  0.2436E+01  0.2440E+01
    -10.577  0.8417E+01  0.8403E+01  0.3715E+01  0.3716E+01
    -10.425  0.1762E+01  0.1751E+01  0.3983E+01  0.3983E+01
    -10.273  0.8296E-01  0.8189E-01  0.3999E+01  0.3999E+01
    -10.122  0.0000E+00  0.0000E+00  0.4000E+01  0.4000E+01
     -9.970  0.0000E+00  0.0000E+00  0.4000E+01  0.4000E+01
     -9.818  0.0000E+00  0.0000E+00  0.4000E+01  0.4000E+01
     -9.666  0.0000E+00  0.0000E+00  0.4000E+01  0.4000E+01
     -9.514  0.0000E+00  0.0000E+00  0.4000E+01  0.4000E+01
     -9.362  0.0000E+00  0.0000E+00  0.4000E+01  0.4000E+01
     -9.210  0.0000E+00  0.0000E+00  0.4000E+01  0.4000E+01
     -9.058  0.0000E+00  0.0000E+00  0.4000E+01  0.4000E+01
     -8.906  0.0000E+00  0.0000E+00  0.4000E+01  0.4000E+01
     -8.754  0.0000E+00  0.0000E+00  0.4000E+01  0.4000E+01
     -8.603  0.0000E+00  0.0000E+00  0.4000E+01  0.4000E+01
     -8.451  0.0000E+00  0.0000E+00  0.4000E+01  0.4000E+01
     -8.299  0.0000E+00  0.0000E+00  0.4000E+01  0.4000E+01
     -8.147  0.0000E+00  0.0000E+00  0.4000E+01  0.4000E+01
     -7.995  0.0000E+00  0.0000E+00  0.4000E+01  0.4000E+01
     -7.843  0.0000E+00  0.0000E+00  0.4000E+01  0.4000E+01
     -7.691  0.0000E+00  0.0000E+00  0.4000E+01  0.4000E+01
     -7.539  0.0000E+00  0.0000E+00  0.4000E+01  0.4000E+01
     -7.387  0.0000E+00  0.0000E+00  0.4000E+01  0.4000E+01
     -7.235  0.0000E+00  0.0000E+00  0.4000E+01  0.4000E+01
     -7.084  0.0000E+00  0.0000E+00  0.4000E+01  0.4000E+01
     -6.932  0.0000E+00  0.0000E+00  0.4000E+01  0.4000E+01
     -6.780  0.0000E+00  0.0000E+00  0.4000E+01  0.4000E+01
     -6.628  0.0000E+00  0.0000E+00  0.4000E+01  0.4000E+01
     -6.476  0.0000E+00  0.0000E+00  0.4000E+01  0.4000E+01
     -6.324  0.0000E+00  0.0000E+00  0.4000E+01  0.4000E+01
     -6.172  0.0000E+00  0.0000E+00  0.4000E+01  0.4000E+01
     -6.020  0.0000E+00  0.0000E+00  0.4000E+01  0.4000E+01
     -5.868  0.0000E+00  0.0000E+00  0.4000E+01  0.4000E+01
     -5.716  0.0000E+00  0.0000E+00  0.4000E+01  0.4000E+01
     -5.564  0.0000E+00  0.0000E+00  0.4000E+01  0.4000E+01
     -5.413  0.0000E+00  0.0000E+00  0.4000E+01  0.4000E+01
     -5.261  0.0000E+00  0.0000E+00  0.4000E+01  0.4000E+01
     -5.109  0.0000E+00  0.0000E+00  0.4000E+01  0.4000E+01
     -4.957  0.0000E+00  0.0000E+00  0.4000E+01  0.4000E+01
     -4.805  0.0000E+00  0.0000E+00  0.4000E+01  0.4000E+01
     -4.653  0.0000E+00  0.0000E+00  0.4000E+01  0.4000E+01
     -4.501  0.0000E+00  0.0000E+00  0.4000E+01  0.4000E+01
     -4.349  0.0000E+00  0.0000E+00  0.4000E+01  0.4000E+01
     -4.197  0.0000E+00  0.0000E+00  0.4000E+01  0.4000E+01
     -4.045  0.0000E+00  0.0000E+00  0.4000E+01  0.4000E+01
     -3.894  0.0000E+00  0.0000E+00  0.4000E+01  0.4000E+01
     -3.742  0.0000E+00  0.0000E+00  0.4000E+01  0.4000E+01
     -3.590  0.0000E+00  0.0000E+00  0.4000E+01  0.4000E+01
     -3.438  0.7315E-06  0.7453E-06  0.4000E+01  0.4000E+01
     -3.286  0.2252E-04  0.2294E-04  0.4000E+01  0.4000E+01
     -3.134  0.4672E-03  0.4759E-03  0.4000E+01  0.4000E+01
     -2.982  0.7835E-02  0.7955E-02  0.4001E+01  0.4001E+01
     -2.830  0.4739E-01  0.4770E-01  0.4008E+01  0.4009E+01
     -2.678  0.9676E-01  0.9709E-01  0.4023E+01  0.4023E+01
     -2.526  0.1260E+00  0.1261E+00  0.4042E+01  0.4042E+01
     -2.375  0.1699E+00  0.1702E+00  0.4068E+01  0.4068E+01
     -2.223  0.1903E+00  0.1904E+00  0.4097E+01  0.4097E+01
     -2.071  0.2012E+00  0.2013E+00  0.4128E+01  0.4128E+01
     -1.919  0.2712E+00  0.2715E+00  0.4169E+01  0.4169E+01
     -1.767  0.2623E+00  0.2620E+00  0.4209E+01  0.4209E+01
     -1.615  0.2908E+00  0.2915E+00  0.4253E+01  0.4253E+01
     -1.463  0.3701E+00  0.3701E+00  0.4309E+01  0.4310E+01
     -1.311  0.3563E+00  0.3564E+00  0.4364E+01  0.4364E+01
     -1.159  0.4238E+00  0.4240E+00  0.4428E+01  0.4429E+01
     -1.007  0.5112E+00  0.5120E+00  0.4506E+01  0.4506E+01
     -0.856  0.5734E+00  0.5731E+00  0.4593E+01  0.4594E+01
     -0.704  0.5128E+00  0.5130E+00  0.4671E+01  0.4672E+01
     -0.552  0.5119E+00  0.5114E+00  0.4749E+01  0.4750E+01
     -0.400  0.4801E+00  0.4805E+00  0.4822E+01  0.4823E+01
     -0.248  0.4624E+00  0.4620E+00  0.4893E+01  0.4893E+01
     -0.096  0.4358E+00  0.4356E+00  0.4959E+01  0.4959E+01
      0.056  0.3140E+00  0.3137E+00  0.5007E+01  0.5007E+01
      0.208  0.3342E+00  0.3343E+00  0.5058E+01  0.5058E+01
      0.360  0.3724E+00  0.3729E+00  0.5115E+01  0.5115E+01
      0.512  0.4355E+00  0.4359E+00  0.5181E+01  0.5181E+01
      0.663  0.4779E+00  0.4778E+00  0.5254E+01  0.5254E+01
      0.815  0.4283E+00  0.4282E+00  0.5319E+01  0.5319E+01
      0.967  0.6131E+00  0.6147E+00  0.5412E+01  0.5413E+01
      1.119  0.8214E+00  0.8220E+00  0.5537E+01  0.5538E+01
      1.271  0.1138E+01  0.1139E+01  0.5710E+01  0.5711E+01
      1.423  0.1056E+01  0.1055E+01  0.5870E+01  0.5871E+01
      1.575  0.9391E+00  0.9385E+00  0.6013E+01  0.6014E+01
      1.727  0.6677E+00  0.6670E+00  0.6115E+01  0.6116E+01
      1.879  0.7841E+00  0.7850E+00  0.6234E+01  0.6235E+01
      2.031  0.7542E+00  0.7534E+00  0.6349E+01  0.6350E+01
      2.183  0.4893E+00  0.4885E+00  0.6424E+01  0.6424E+01
      2.334  0.4887E+00  0.4887E+00  0.6498E+01  0.6499E+01
      2.486  0.5477E+00  0.5485E+00  0.6582E+01  0.6582E+01
      2.638  0.5279E+00  0.5276E+00  0.6662E+01  0.6662E+01
      2.790  0.5132E+00  0.5134E+00  0.6740E+01  0.6740E+01
      2.942  0.4654E+00  0.4660E+00  0.6811E+01  0.6811E+01
      3.094  0.6253E+00  0.6266E+00  0.6906E+01  0.6907E+01
      3.246  0.7224E+00  0.7224E+00  0.7016E+01  0.7017E+01
      3.398  0.7841E+00  0.7849E+00  0.7135E+01  0.7136E+01
      3.550  0.7507E+00  0.7500E+00  0.7249E+01  0.7250E+01
      3.702  0.6342E+00  0.6346E+00  0.7346E+01  0.7347E+01
      3.853  0.7277E+00  0.7285E+00  0.7457E+01  0.7458E+01
      4.005  0.8632E+00  0.8642E+00  0.7588E+01  0.7589E+01
      4.157  0.9777E+00  0.9783E+00  0.7737E+01  0.7738E+01
      4.309  0.1107E+01  0.1109E+01  0.7906E+01  0.7907E+01
      4.461  0.1400E+01  0.1401E+01  0.8119E+01  0.8120E+01
      4.613  0.1549E+01  0.1551E+01  0.8354E+01  0.8356E+01
      4.765  0.1832E+01  0.1831E+01  0.8633E+01  0.8635E+01
      4.917  0.1616E+01  0.1616E+01  0.8879E+01  0.8881E+01
      5.069  0.1205E+01  0.1200E+01  0.9063E+01  0.9064E+01
      5.221  0.8266E+00  0.8260E+00  0.9189E+01  0.9189E+01
      5.372  0.9248E+00  0.9261E+00  0.9330E+01  0.9331E+01
      5.524  0.8213E+00  0.8190E+00  0.9455E+01  0.9455E+01
      5.676  0.5668E+00  0.5653E+00  0.9541E+01  0.9541E+01
      5.828  0.5626E+00  0.5639E+00  0.9627E+01  0.9627E+01
      5.980  0.7192E+00  0.7203E+00  0.9736E+01  0.9737E+01
      6.132  0.9055E+00  0.9050E+00  0.9874E+01  0.9875E+01
      6.284  0.8365E+00  0.8364E+00  0.1000E+02  0.1000E+02
      6.436  0.7958E+00  0.7943E+00  0.1012E+02  0.1012E+02
      6.588  0.8106E+00  0.8118E+00  0.1025E+02  0.1025E+02
      6.740  0.8704E+00  0.8705E+00  0.1038E+02  0.1038E+02
      6.891  0.9600E+00  0.9597E+00  0.1052E+02  0.1052E+02
      7.043  0.8195E+00  0.8186E+00  0.1065E+02  0.1065E+02
      7.195  0.8319E+00  0.8338E+00  0.1078E+02  0.1078E+02
      7.347  0.1134E+01  0.1134E+01  0.1095E+02  0.1095E+02
      7.499  0.9167E+00  0.9158E+00  0.1109E+02  0.1109E+02
      7.651  0.8227E+00  0.8221E+00  0.1121E+02  0.1121E+02
      7.803  0.8471E+00  0.8480E+00  0.1134E+02  0.1134E+02
      7.955  0.1185E+01  0.1186E+01  0.1152E+02  0.1152E+02
      8.107  0.8532E+00  0.8514E+00  0.1165E+02  0.1165E+02
      8.259  0.9115E+00  0.9116E+00  0.1179E+02  0.1179E+02
      8.410  0.8843E+00  0.8836E+00  0.1193E+02  0.1193E+02
      8.562  0.7187E+00  0.7186E+00  0.1204E+02  0.1204E+02
      8.714  0.8066E+00  0.8070E+00  0.1216E+02  0.1216E+02
      8.866  0.8733E+00  0.8735E+00  0.1229E+02  0.1229E+02
      9.018  0.1005E+01  0.1006E+01  0.1244E+02  0.1244E+02
      9.170  0.1252E+01  0.1252E+01  0.1263E+02  0.1264E+02
      9.322  0.1254E+01  0.1255E+01  0.1283E+02  0.1283E+02
      9.474  0.1371E+01  0.1371E+01  0.1303E+02  0.1303E+02
      9.626  0.1350E+01  0.1352E+01  0.1324E+02  0.1324E+02
      9.778  0.1512E+01  0.1512E+01  0.1347E+02  0.1347E+02
      9.930  0.1617E+01  0.1616E+01  0.1372E+02  0.1372E+02
     10.081  0.1430E+01  0.1427E+01  0.1393E+02  0.1393E+02
     10.233  0.1278E+01  0.1279E+01  0.1413E+02  0.1413E+02
     10.385  0.1400E+01  0.1399E+01  0.1434E+02  0.1434E+02
     10.537  0.1192E+01  0.1191E+01  0.1452E+02  0.1452E+02
     10.689  0.1254E+01  0.1251E+01  0.1471E+02  0.1471E+02
     10.841  0.1352E+01  0.1346E+01  0.1492E+02  0.1492E+02
     10.993  0.1475E+01  0.1457E+01  0.1514E+02  0.1514E+02
     11.145  0.1250E+01  0.1229E+01  0.1533E+02  0.1533E+02
     11.297  0.1344E+01  0.1345E+01  0.1554E+02  0.1553E+02
     11.449  0.1300E+01  0.1328E+01  0.1574E+02  0.1573E+02
     11.600  0.6688E+00  0.6835E+00  0.1584E+02  0.1584E+02
     11.752  0.1553E+00  0.1548E+00  0.1586E+02  0.1586E+02
     11.904  0.1967E+00  0.1924E+00  0.1589E+02  0.1589E+02
     12.056  0.1944E+00  0.1815E+00  0.1592E+02  0.1592E+02
     12.208  0.1019E+00  0.1086E+00  0.1594E+02  0.1594E+02
     12.360  0.5101E-01  0.6123E-01  0.1595E+02  0.1595E+02
     12.512  0.9410E-01  0.8806E-01  0.1596E+02  0.1596E+02
     12.664  0.1336E+00  0.1296E+00  0.1598E+02  0.1598E+02
     12.816  0.7299E-01  0.8045E-01  0.1599E+02  0.1599E+02
     12.968  0.1988E-01  0.2315E-01  0.1599E+02  0.1600E+02
     13.119  0.2815E-01  0.2651E-01  0.1600E+02  0.1600E+02
     13.271  0.4533E-02  0.3400E-02  0.1600E+02  0.1600E+02
     13.423  0.0000E+00  0.0000E+00  0.1600E+02  0.1600E+02
     13.575  0.0000E+00  0.0000E+00  0.1600E+02  0.1600E+02
     13.727  0.0000E+00  0.0000E+00  0.1600E+02  0.1600E+02
     13.879  0.0000E+00  0.0000E+00  0.1600E+02  0.1600E+02
     14.031  0.0000E+00  0.0000E+00  0.1600E+02  0.1600E+02
     14.183  0.0000E+00  0.0000E+00  0.1600E+02  0.1600E+02
     14.335  0.0000E+00  0.0000E+00  0.1600E+02  0.1600E+02
     14.487  0.0000E+00  0.0000E+00  0.1600E+02  0.1600E+02
     14.638  0.0000E+00  0.0000E+00  0.1600E+02  0.1600E+02
     14.790  0.0000E+00  0.0000E+00  0.1600E+02  0.1600E+02
     14.942  0.0000E+00  0.0000E+00  0.1600E+02  0.1600E+02
     15.094  0.0000E+00  0.0000E+00  0.1600E+02  0.1600E+02
     15.09417505    -30.47639582  301      5.59589395      1.00000000
    -30.476  0.0000E+00  0.0000E+00  0.0000E+00  0.0000E+00  0.0000E+00  0.0000E+00  0.0000E+00  0.0000E+00  0.0000E+00  0.0000E+00  0.0000E+00  0.0000E+00  0.0000E+00  0.0000E+00  0.0000E+00  0.0000E+00  0.0000E+00  0.0000E+00
    -30.324  0.0000E+00  0.0000E+00  0.0000E+00  0.0000E+00  0.0000E+00  0.0000E+00  0.0000E+00  0.0000E+00  0.0000E+00  0.0000E+00  0.0000E+00  0.0000E+00  0.0000E+00  0.0000E+00  0.0000E+00  0.0000E+00  0.0000E+00  0.0000E+00
    -30.173  0.0000E+00  0.0000E+00  0.0000E+00  0.0000E+00  0.0000E+00  0.0000E+00  0.0000E+00  0.0000E+00  0.0000E+00  0.0000E+00  0.0000E+00  0.0000E+00  0.0000E+00  0.0000E+00  0.0000E+00  0.0000E+00  0.0000E+00  0.0000E+00
    -30.021  0.0000E+00  0.0000E+00  0.0000E+00  0.0000E+00  0.0000E+00  0.0000E+00  0.0000E+00  0.0000E+00  0.0000E+00  0.0000E+00  0.0000E+00  0.0000E+00  0.0000E+00  0.0000E+00  0.0000E+00  0.0000E+00  0.0000E+00  0.0000E+00
    -29.869  0.0000E+00  0.0000E+00  0.0000E+00  0.0000E+00  0.0000E+00  0.0000E+00  0.0000E+00  0.0000E+00  0.0000E+00  0.0000E+00  0.0000E+00  0.0000E+00  0.0000E+00  0.0000E+00  0.0000E+00  0.0000E+00  0.0000E+00  0.0000E+00
    -29.717  0.0000E+00  0.0000E+00  0.0000E+00  0.0000E+00  0.0000E+00  0.0000E+00  0.0000E+00  0.0000E+00  0.0000E+00  0.0000E+00  0.0000E+00  0.0000E+00  0.0000E+00  0.0000E+00  0.0000E+00  0.0000E+00  0.0000E+00  0.0000E+00
    -29.565  0.0000E+00  0.0000E+00  0.0000E+00  0.0000E+00  0.0000E+00  0.0000E+00  0.0000E+00  0.0000E+00  0.0000E+00  0.0000E+00  0.0000E+00  0.0000E+00  0.0000E+00  0.0000E+00  0.0000E+00  0.0000E+00  0.0000E+00  0.0000E+00
    -29.413  0.0000E+00  0.0000E+00  0.0000E+00  0.0000E+00  0.0000E+00  0.0000E+00  0.0000E+00  0.0000E+00  0.0000E+00  0.0000E+00  0.0000E+00  0.0000E+00  0.0000E+00  0.0000E+00  0.0000E+00  0.0000E+00  0.0000E+00  0.0000E+00
    -29.261  0.0000E+00  0.0000E+00  0.0000E+00  0.0000E+00  0.0000E+00  0.0000E+00  0.0000E+00  0.0000E+00  0.0000E+00  0.0000E+00  0.0000E+00  0.0000E+00  0.0000E+00  0.0000E+00  0.0000E+00  0.0000E+00  0.0000E+00  0.0000E+00
    -29.109  0.0000E+00  0.0000E+00  0.0000E+00  0.0000E+00  0.0000E+00  0.0000E+00  0.0000E+00  0.0000E+00  0.0000E+00  0.0000E+00  0.0000E+00  0.0000E+00  0.0000E+00  0.0000E+00  0.0000E+00  0.0000E+00  0.0000E+00  0.0000E+00
    -28.957  0.0000E+00  0.0000E+00  0.0000E+00  0.0000E+00  0.0000E+00  0.0000E+00  0.0000E+00  0.0000E+00  0.0000E+00  0.0000E+00  0.0000E+00  0.0000E+00  0.0000E+00  0.0000E+00  0.0000E+00  0.0000E+00  0.0000E+00  0.0000E+00
    -28.805  0.1746E-02  0.1770E-02  0.1036E-09  0.1059E-09  0.1036E-09  0.1059E-09  0.1044E-09  0.1067E-09  0.2863E-13  0.5727E-13  0.2818E-13  0.5667E-13  0.5510E-10  0.5452E-10  0.2863E-13  0.5727E-13  0.5583E-10  0.5523E-10
    -28.654  0.3449E-01  0.3495E-01  0.2046E-08  0.2091E-08  0.2046E-08  0.2091E-08  0.2062E-08  0.2107E-08  0.5654E-12  0.1131E-11  0.5566E-12  0.1119E-11  0.1088E-08  0.1077E-08  0.5654E-12  0.1131E-11  0.1103E-08  0.1091E-08
    -28.502  0.6433E+00  0.6509E+00  0.3814E-07  0.3894E-07  0.3814E-07  0.3894E-07  0.3845E-07  0.3924E-07  0.1055E-10  0.2109E-10  0.1038E-10  0.2086E-10  0.2031E-07  0.2007E-07  0.1055E-10  0.2109E-10  0.2057E-07  0.2031E-07
    -28.350  0.3888E+01  0.3897E+01  0.2301E-06  0.2327E-06  0.2301E-06  0.2327E-06  0.2319E-06  0.2345E-06  0.6375E-10  0.1270E-09  0.6271E-10  0.1255E-09  0.1232E-06  0.1205E-06  0.6375E-10  0.1270E-09  0.1241E-06  0.1214E-06
    -28.198  0.1734E+01  0.1718E+01  0.1023E-06  0.1023E-06  0.1023E-06  0.1023E-06  0.1031E-06  0.1031E-06  0.2841E-10  0.5630E-10  0.2793E-10  0.5559E-10  0.5507E-07  0.5321E-07  0.2841E-10  0.5630E-10  0.5513E-07  0.5326E-07
    -28.046  0.1169E+00  0.1154E+00  0.6890E-08  0.6866E-08  0.6890E-08  0.6866E-08  0.6946E-08  0.6919E-08  0.1916E-11  0.3789E-11  0.1882E-11  0.3740E-11  0.3715E-08  0.3575E-08  0.1916E-11  0.3789E-11  0.3712E-08  0.3571E-08
    -27.894  0.0000E+00  0.0000E+00  0.0000E+00  0.0000E+00  0.0000E+00  0.0000E+00  0.0000E+00  0.0000E+00  0.0000E+00  0.0000E+00  0.0000E+00  0.0000E+00  0.0000E+00  0.0000E+00  0.0000E+00  0.0000E+00  0.0000E+00  0.0000E+00
    -27.742  0.0000E+00  0.0000E+00  0.0000E+00  0.0000E+00  0.0000E+00  0.0000E+00  0.0000E+00  0.0000E+00  0.0000E+00  0.0000E+00  0.0000E+00  0.0000E+00  0.0000E+00  0.0000E+00  0.0000E+00  0.0000E+00  0.0000E+00  0.0000E+00
    -27.590  0.0000E+00  0.0000E+00  0.0000E+00  0.0000E+00  0.0000E+00  0.0000E+00  0.0000E+00  0.0000E+00  0.0000E+00  0.0000E+00  0.0000E+00  0.0000E+00  0.0000E+00  0.0000E+00  0.0000E+00  0.0000E+00  0.0000E+00  0.0000E+00
    -27.438  0.0000E+00  0.0000E+00  0.0000E+00  0.0000E+00  0.0000E+00  0.0000E+00  0.0000E+00  0.0000E+00  0.0000E+00  0.0000E+00  0.0000E+00  0.0000E+00  0.0000E+00  0.0000E+00  0.0000E+00  0.0000E+00  0.0000E+00  0.0000E+00
    -27.286  0.0000E+00  0.0000E+00  0.0000E+00  0.0000E+00  0.0000E+00  0.0000E+00  0.0000E+00  0.0000E+00  0.0000E+00  0.0000E+00  0.0000E+00  0.0000E+00  0.0000E+00  0.0000E+00  0.0000E+00  0.0000E+00  0.0000E+00  0.0000E+00
    -27.135  0.0000E+00  0.0000E+00  0.0000E+00  0.0000E+00  0.0000E+00  0.0000E+00  0.0000E+00  0.0000E+00  0.0000E+00  0.0000E+00  0.0000E+00  0.0000E+00  0.0000E+00  0.0000E+00  0.0000E+00  0.0000E+00  0.0000E+00  0.0000E+00
    -26.983  0.0000E+00  0.0000E+00  0.0000E+00  0.0000E+00  0.0000E+00  0.0000E+00  0.0000E+00  0.0000E+00  0.0000E+00  0.0000E+00  0.0000E+00  0.0000E+00  0.0000E+00  0.0000E+00  0.0000E+00  0.0000E+00  0.0000E+00  0.0000E+00
    -26.831  0.0000E+00  0.0000E+00  0.0000E+00  0.0000E+00  0.0000E+00  0.0000E+00  0.0000E+00  0.0000E+00  0.0000E+00  0.0000E+00  0.0000E+00  0.0000E+00  0.0000E+00  0.0000E+00  0.0000E+00  0.0000E+00  0.0000E+00  0.0000E+00
    -26.679  0.0000E+00  0.0000E+00  0.0000E+00  0.0000E+00  0.0000E+00  0.0000E+00  0.0000E+00  0.0000E+00  0.0000E+00  0.0000E+00  0.0000E+00  0.0000E+00  0.0000E+00  0.0000E+00  0.0000E+00  0.0000E+00  0.0000E+00  0.0000E+00
    -26.527  0.0000E+00  0.0000E+00  0.0000E+00  0.0000E+00  0.0000E+00  0.0000E+00  0.0000E+00  0.0000E+00  0.0000E+00  0.0000E+00  0.0000E+00  0.0000E+00  0.0000E+00  0.0000E+00  0.0000E+00  0.0000E+00  0.0000E+00  0.0000E+00
    -26.375  0.0000E+00  0.0000E+00  0.0000E+00  0.0000E+00  0.0000E+00  0.0000E+00  0.0000E+00  0.0000E+00  0.0000E+00  0.0000E+00  0.0000E+00  0.0000E+00  0.0000E+00  0.0000E+00  0.0000E+00  0.0000E+00  0.0000E+00  0.0000E+00
    -26.223  0.0000E+00  0.0000E+00  0.0000E+00  0.0000E+00  0.0000E+00  0.0000E+00  0.0000E+00  0.0000E+00  0.0000E+00  0.0000E+00  0.0000E+00  0.0000E+00  0.0000E+00  0.0000E+00  0.0000E+00  0.0000E+00  0.0000E+00  0.0000E+00
    -26.071  0.0000E+00  0.0000E+00  0.0000E+00  0.0000E+00  0.0000E+00  0.0000E+00  0.0000E+00  0.0000E+00  0.0000E+00  0.0000E+00  0.0000E+00  0.0000E+00  0.0000E+00  0.0000E+00  0.0000E+00  0.0000E+00  0.0000E+00  0.0000E+00
    -25.919  0.0000E+00  0.0000E+00  0.0000E+00  0.0000E+00  0.0000E+00  0.0000E+00  0.0000E+00  0.0000E+00  0.0000E+00  0.0000E+00  0.0000E+00  0.0000E+00  0.0000E+00  0.0000E+00  0.0000E+00  0.0000E+00  0.0000E+00  0.0000E+00
    -25.767  0.0000E+00  0.0000E+00  0.0000E+00  0.0000E+00  0.0000E+00  0.0000E+00  0.0000E+00  0.0000E+00  0.0000E+00  0.0000E+00  0.0000E+00  0.0000E+00  0.0000E+00  0.0000E+00  0.0000E+00  0.0000E+00  0.0000E+00  0.0000E+00
    -25.616  0.0000E+00  0.0000E+00  0.0000E+00  0.0000E+00  0.0000E+00  0.0000E+00  0.0000E+00  0.0000E+00  0.0000E+00  0.0000E+00  0.0000E+00  0.0000E+00  0.0000E+00  0.0000E+00  0.0000E+00  0.0000E+00  0.0000E+00  0.0000E+00
    -25.464  0.0000E+00  0.0000E+00  0.0000E+00  0.0000E+00  0.0000E+00  0.0000E+00  0.0000E+00  0.0000E+00  0.0000E+00  0.0000E+00  0.0000E+00  0.0000E+00  0.0000E+00  0.0000E+00  0.0000E+00  0.0000E+00  0.0000E+00  0.0000E+00
    -25.312  0.0000E+00  0.0000E+00  0.0000E+00  0.0000E+00  0.0000E+00  0.0000E+00  0.0000E+00  0.0000E+00  0.0000E+00  0.0000E+00  0.0000E+00  0.0000E+00  0.0000E+00  0.0000E+00  0.0000E+00  0.0000E+00  0.0000E+00  0.0000E+00
    -25.160  0.0000E+00  0.0000E+00  0.0000E+00  0.0000E+00  0.0000E+00  0.0000E+00  0.0000E+00  0.0000E+00  0.0000E+00  0.0000E+00  0.0000E+00  0.0000E+00  0.0000E+00  0.0000E+00  0.0000E+00  0.0000E+00  0.0000E+00  0.0000E+00
    -25.008  0.0000E+00  0.0000E+00  0.0000E+00  0.0000E+00  0.0000E+00  0.0000E+00  0.0000E+00  0.0000E+00  0.0000E+00  0.0000E+00  0.0000E+00  0.0000E+00  0.0000E+00  0.0000E+00  0.0000E+00  0.0000E+00  0.0000E+00  0.0000E+00
    -24.856  0.0000E+00  0.0000E+00  0.0000E+00  0.0000E+00  0.0000E+00  0.0000E+00  0.0000E+00  0.0000E+00  0.0000E+00  0.0000E+00  0.0000E+00  0.0000E+00  0.0000E+00  0.0000E+00  0.0000E+00  0.0000E+00  0.0000E+00  0.0000E+00
    -24.704  0.0000E+00  0.0000E+00  0.0000E+00  0.0000E+00  0.0000E+00  0.0000E+00  0.0000E+00  0.0000E+00  0.0000E+00  0.0000E+00  0.0000E+00  0.0000E+00  0.0000E+00  0.0000E+00  0.0000E+00  0.0000E+00  0.0000E+00  0.0000E+00
    -24.552  0.0000E+00  0.0000E+00  0.0000E+00  0.0000E+00  0.0000E+00  0.0000E+00  0.0000E+00  0.0000E+00  0.0000E+00  0.0000E+00  0.0000E+00  0.0000E+00  0.0000E+00  0.0000E+00  0.0000E+00  0.0000E+00  0.0000E+00  0.0000E+00
    -24.400  0.0000E+00  0.0000E+00  0.0000E+00  0.0000E+00  0.0000E+00  0.0000E+00  0.0000E+00  0.0000E+00  0.0000E+00  0.0000E+00  0.0000E+00  0.0000E+00  0.0000E+00  0.0000E+00  0.0000E+00  0.0000E+00  0.0000E+00  0.0000E+00
    -24.248  0.0000E+00  0.0000E+00  0.0000E+00  0.0000E+00  0.0000E+00  0.0000E+00  0.0000E+00  0.0000E+00  0.0000E+00  0.0000E+00  0.0000E+00  0.0000E+00  0.0000E+00  0.0000E+00  0.0000E+00  0.0000E+00  0.0000E+00  0.0000E+00
    -24.097  0.0000E+00  0.0000E+00  0.0000E+00  0.0000E+00  0.0000E+00  0.0000E+00  0.0000E+00  0.0000E+00  0.0000E+00  0.0000E+00  0.0000E+00  0.0000E+00  0.0000E+00  0.0000E+00  0.0000E+00  0.0000E+00  0.0000E+00  0.0000E+00
    -23.945  0.0000E+00  0.0000E+00  0.0000E+00  0.0000E+00  0.0000E+00  0.0000E+00  0.0000E+00  0.0000E+00  0.0000E+00  0.0000E+00  0.0000E+00  0.0000E+00  0.0000E+00  0.0000E+00  0.0000E+00  0.0000E+00  0.0000E+00  0.0000E+00
    -23.793  0.0000E+00  0.0000E+00  0.0000E+00  0.0000E+00  0.0000E+00  0.0000E+00  0.0000E+00  0.0000E+00  0.0000E+00  0.0000E+00  0.0000E+00  0.0000E+00  0.0000E+00  0.0000E+00  0.0000E+00  0.0000E+00  0.0000E+00  0.0000E+00
    -23.641  0.0000E+00  0.0000E+00  0.0000E+00  0.0000E+00  0.0000E+00  0.0000E+00  0.0000E+00  0.0000E+00  0.0000E+00  0.0000E+00  0.0000E+00  0.0000E+00  0.0000E+00  0.0000E+00  0.0000E+00  0.0000E+00  0.0000E+00  0.0000E+00
    -23.489  0.0000E+00  0.0000E+00  0.0000E+00  0.0000E+00  0.0000E+00  0.0000E+00  0.0000E+00  0.0000E+00  0.0000E+00  0.0000E+00  0.0000E+00  0.0000E+00  0.0000E+00  0.0000E+00  0.0000E+00  0.0000E+00  0.0000E+00  0.0000E+00
    -23.337  0.0000E+00  0.0000E+00  0.0000E+00  0.0000E+00  0.0000E+00  0.0000E+00  0.0000E+00  0.0000E+00  0.0000E+00  0.0000E+00  0.0000E+00  0.0000E+00  0.0000E+00  0.0000E+00  0.0000E+00  0.0000E+00  0.0000E+00  0.0000E+00
    -23.185  0.0000E+00  0.0000E+00  0.0000E+00  0.0000E+00  0.0000E+00  0.0000E+00  0.0000E+00  0.0000E+00  0.0000E+00  0.0000E+00  0.0000E+00  0.0000E+00  0.0000E+00  0.0000E+00  0.0000E+00  0.0000E+00  0.0000E+00  0.0000E+00
    -23.033  0.0000E+00  0.0000E+00  0.0000E+00  0.0000E+00  0.0000E+00  0.0000E+00  0.0000E+00  0.0000E+00  0.0000E+00  0.0000E+00  0.0000E+00  0.0000E+00  0.0000E+00  0.0000E+00  0.0000E+00  0.0000E+00  0.0000E+00  0.0000E+00
    -22.881  0.0000E+00  0.0000E+00  0.0000E+00  0.0000E+00  0.0000E+00  0.0000E+00  0.0000E+00  0.0000E+00  0.0000E+00  0.0000E+00  0.0000E+00  0.0000E+00  0.0000E+00  0.0000E+00  0.0000E+00  0.0000E+00  0.0000E+00  0.0000E+00