   4   4   1   0
  0.2239380E+02  0.4473347E-09  0.4474841E-09  0.4474841E-09  0.5000000E-15
  1.000000000000000E-004
  CAR 
 unknown system                          
     13.94090368    -31.38896275  301      4.93214077      1.00000000
    -31.389  0.0000E+00  0.0000E+00  0.0000E+00  0.0000E+00
    -31.238  0.0000E+00  0.0000E+00  0.0000E+00  0.0000E+00
    -31.087  0.0000E+00  0.0000E+00  0.0000E+00  0.0000E+00
    -30.936  0.0000E+00  0.0000E+00  0.0000E+00  0.0000E+00
    -30.785  0.0000E+00  0.0000E+00  0.0000E+00  0.0000E+00
    -30.633  0.0000E+00  0.0000E+00  0.0000E+00  0.0000E+00
    -30.482  0.0000E+00  0.0000E+00  0.0000E+00  0.0000E+00
    -30.331  0.0000E+00  0.0000E+00  0.0000E+00  0.0000E+00
    -30.180  0.0000E+00  0.0000E+00  0.0000E+00  0.0000E+00
    -30.029  0.0000E+00  0.0000E+00  0.0000E+00  0.0000E+00
    -29.878  0.1637E-05  0.4044E-05  0.2474E-06  0.6111E-06
    -29.727  0.2013E-02  0.2039E-02  0.3044E-03  0.3087E-03
    -29.576  0.3910E-01  0.3966E-01  0.6212E-02  0.6301E-02
    -29.425  0.7116E+00  0.7205E+00  0.1137E+00  0.1152E+00
    -29.274  0.4043E+01  0.4052E+01  0.7246E+00  0.7274E+00
    -29.122  0.1702E+01  0.1685E+01  0.9818E+00  0.9821E+00
    -28.971  0.1144E+00  0.1128E+00  0.9991E+00  0.9991E+00
    -28.820  0.0000E+00  0.0000E+00  0.1000E+01  0.1000E+01
    -28.669  0.0000E+00  0.0000E+00  0.1000E+01  0.1000E+01
    -28.518  0.0000E+00  0.0000E+00  0.1000E+01  0.1000E+01
    -28.367  0.0000E+00  0.0000E+00  0.1000E+01  0.1000E+01
    -28.216  0.0000E+00  0.0000E+00  0.1000E+01  0.1000E+01
    -28.065  0.0000E+00  0.0000E+00  0.1000E+01  0.1000E+01
    -27.914  0.0000E+00  0.0000E+00  0.1000E+01  0.1000E+01
    -27.763  0.0000E+00  0.0000E+00  0.1000E+01  0.1000E+01
    -27.611  0.0000E+00  0.0000E+00  0.1000E+01  0.1000E+01
    -27.460  0.0000E+00  0.0000E+00  0.1000E+01  0.1000E+01
    -27.309  0.0000E+00  0.0000E+00  0.1000E+01  0.1000E+01
    -27.158  0.0000E+00  0.0000E+00  0.1000E+01  0.1000E+01
    -27.007  0.0000E+00  0.0000E+00  0.1000E+01  0.1000E+01
    -26.856  0.0000E+00  0.0000E+00  0.1000E+01  0.1000E+01
    -26.705  0.0000E+00  0.0000E+00  0.1000E+01  0.1000E+01
    -26.554  0.0000E+00  0.0000E+00  0.1000E+01  0.1000E+01
    -26.403  0.0000E+00  0.0000E+00  0.1000E+01  0.1000E+01
    -26.252  0.0000E+00  0.0000E+00  0.1000E+01  0.1000E+01
    -26.100  0.0000E+00  0.0000E+00  0.1000E+01  0.1000E+01
    -25.949  0.0000E+00  0.0000E+00  0.1000E+01  0.1000E+01
    -25.798  0.0000E+00  0.0000E+00  0.1000E+01  0.1000E+01
    -25.647  0.0000E+00  0.0000E+00  0.1000E+01  0.1000E+01
    -25.496  0.0000E+00  0.0000E+00  0.1000E+01  0.1000E+01
    -25.345  0.0000E+00  0.0000E+00  0.1000E+01  0.1000E+01
    -25.194  0.0000E+00  0.0000E+00  0.1000E+01  0.1000E+01
    -25.043  0.0000E+00  0.0000E+00  0.1000E+01  0.1000E+01
    -24.892  0.0000E+00  0.0000E+00  0.1000E+01  0.1000E+01
    -24.741  0.0000E+00  0.0000E+00  0.1000E+01  0.1000E+01
    -24.589  0.0000E+00  0.0000E+00  0.1000E+01  0.1000E+01
    -24.438  0.0000E+00  0.0000E+00  0.1000E+01  0.1000E+01
    -24.287  0.0000E+00  0.0000E+00  0.1000E+01  0.1000E+01
    -24.136  0.0000E+00  0.0000E+00  0.1000E+01  0.1000E+01
    -23.985  0.0000E+00  0.0000E+00  0.1000E+01  0.1000E+01
    -23.834  0.0000E+00  0.0000E+00  0.1000E+01  0.1000E+01
    -23.683  0.0000E+00  0.0000E+00  0.1000E+01  0.1000E+01
    -23.532  0.0000E+00  0.0000E+00  0.1000E+01  0.1000E+01
    -23.381  0.0000E+00  0.0000E+00  0.1000E+01  0.1000E+01
    -23.230  0.0000E+00  0.0000E+00  0.1000E+01  0.1000E+01
    -23.078  0.0000E+00  0.0000E+00  0.1000E+01  0.1000E+01
    -22.927  0.0000E+00  0.0000E+00  0.1000E+01  0.1000E+01
    -22.776  0.0000E+00  0.0000E+00  0.1000E+01  0.1000E+01
    -22.625  0.0000E+00  0.0000E+00  0.1000E+01  0.1000E+01
    -22.474  0.0000E+00  0.0000E+00  0.1000E+01  0.1000E+01
    -22.323  0.0000E+00  0.0000E+00  0.1000E+01  0.1000E+01
    -22.172  0.0000E+00  0.0000E+00  0.1000E+01  0.1000E+01
    -22.021  0.0000E+00  0.0000E+00  0.1000E+01  0.1000E+01
    -21.870  0.0000E+00  0.0000E+00  0.1000E+01  0.1000E+01
    -21.719  0.0000E+00  0.0000E+00  0.1000E+01  0.1000E+01
    -21.567  0.0000E+00  0.0000E+00  0.1000E+01  0.1000E+01
    -21.416  0.0000E+00  0.0000E+00  0.1000E+01  0.1000E+01
    -21.265  0.0000E+00  0.0000E+00  0.1000E+01  0.1000E+01
    -21.114  0.0000E+00  0.0000E+00  0.1000E+01  0.1000E+01
    -20.963  0.0000E+00  0.0000E+00  0.1000E+01  0.1000E+01
    -20.812  0.0000E+00  0.0000E+00  0.1000E+01  0.1000E+01
    -20.661  0.0000E+00  0.0000E+00  0.1000E+01  0.1000E+01
    -20.510  0.0000E+00  0.0000E+00  0.1000E+01  0.1000E+01
    -20.359  0.0000E+00  0.0000E+00  0.1000E+01  0.1000E+01
    -20.208  0.0000E+00  0.0000E+00  0.1000E+01  0.1000E+01
    -20.056  0.0000E+00  0.0000E+00  0.1000E+01  0.1000E+01
    -19.905  0.0000E+00  0.0000E+00  0.1000E+01  0.1000E+01
    -19.754  0.0000E+00  0.0000E+00  0.1000E+01  0.1000E+01
    -19.603  0.0000E+00  0.0000E+00  0.1000E+01  0.1000E+01
    -19.452  0.0000E+00  0.0000E+00  0.1000E+01  0.1000E+01
    -19.301  0.0000E+00  0.0000E+00  0.1000E+01  0.1000E+01
    -19.150  0.0000E+00  0.0000E+00  0.1000E+01  0.1000E+01
    -18.999  0.0000E+00  0.0000E+00  0.1000E+01  0.1000E+01
    -18.848  0.0000E+00  0.0000E+00  0.1000E+01  0.1000E+01
    -18.697  0.0000E+00  0.0000E+00  0.1000E+01  0.1000E+01
    -18.546  0.0000E+00  0.0000E+00  0.1000E+01  0.1000E+01
    -18.394  0.0000E+00  0.0000E+00  0.1000E+01  0.1000E+01
    -18.243  0.0000E+00  0.0000E+00  0.1000E+01  0.1000E+01
    -18.092  0.0000E+00  0.0000E+00  0.1000E+01  0.1000E+01
    -17.941  0.0000E+00  0.0000E+00  0.1000E+01  0.1000E+01
    -17.790  0.0000E+00  0.0000E+00  0.1000E+01  0.1000E+01
    -17.639  0.0000E+00  0.0000E+00  0.1000E+01  0.1000E+01
    -17.488  0.0000E+00  0.0000E+00  0.1000E+01  0.1000E+01
    -17.337  0.0000E+00  0.0000E+00  0.1000E+01  0.1000E+01
    -17.186  0.0000E+00  0.0000E+00  0.1000E+01  0.1000E+01
    -17.035  0.0000E+00  0.0000E+00  0.1000E+01  0.1000E+01
    -16.883  0.0000E+00  0.0000E+00  0.1000E+01  0.1000E+01
    -16.732  0.0000E+00  0.0000E+00  0.1000E+01  0.1000E+01
    -16.581  0.0000E+00  0.0000E+00  0.1000E+01  0.1000E+01
    -16.430  0.0000E+00  0.0000E+00  0.1000E+01  0.1000E+01
    -16.279  0.0000E+00  0.0000E+00  0.1000E+01  0.1000E+01
    -16.128  0.0000E+00  0.0000E+00  0.1000E+01  0.1000E+01
    -15.977  0.0000E+00  0.0000E+00  0.1000E+01  0.1000E+01
    -15.826  0.0000E+00  0.0000E+00  0.1000E+01  0.1000E+01
    -15.675  0.0000E+00  0.0000E+00  0.1000E+01  0.1000E+01
    -15.524  0.0000E+00  0.0000E+00  0.1000E+01  0.1000E+01
    -15.372  0.0000E+00  0.0000E+00  0.1000E+01  0.1000E+01
    -15.221  0.0000E+00  0.0000E+00  0.1000E+01  0.1000E+01
    -15.070  0.0000E+00  0.0000E+00  0.1000E+01  0.1000E+01
    -14.919  0.0000E+00  0.0000E+00  0.1000E+01  0.1000E+01
    -14.768  0.0000E+00  0.0000E+00  0.1000E+01  0.1000E+01
    -14.617  0.0000E+00  0.0000E+00  0.1000E+01  0.1000E+01
    -14.466  0.0000E+00  0.0000E+00  0.1000E+01  0.1000E+01
    -14.315  0.0000E+00  0.0000E+00  0.1000E+01  0.1000E+01
    -14.164  0.0000E+00  0.0000E+00  0.1000E+01  0.1000E+01
    -14.013  0.0000E+00  0.0000E+00  0.1000E+01  0.1000E+01
    -13.861  0.0000E+00  0.0000E+00  0.1000E+01  0.1000E+01
    -13.710  0.0000E+00  0.0000E+00  0.1000E+01  0.1000E+01
    -13.559  0.0000E+00  0.0000E+00  0.1000E+01  0.1000E+01
    -13.408  0.0000E+00  0.0000E+00  0.1000E+01  0.1000E+01
    -13.257  0.0000E+00  0.0000E+00  0.1000E+01  0.1000E+01
    -13.106  0.0000E+00  0.0000E+00  0.1000E+01  0.1000E+01
    -12.955  0.0000E+00  0.0000E+00  0.1000E+01  0.1000E+01
    -12.804  0.0000E+00  0.0000E+00  0.1000E+01  0.1000E+01
    -12.653  0.0000E+00  0.0000E+00  0.1000E+01  0.1000E+01
    -12.502  0.0000E+00  0.0000E+00  0.1000E+01  0.1000E+01
    -12.350  0.0000E+00  0.0000E+00  0.1000E+01  0.1000E+01
    -12.199  0.4106E-05  0.4136E-05  0.1000E+01  0.1000E+01
    -12.048  0.1868E-02  0.1883E-02  0.1000E+01  0.1000E+01
    -11.897  0.3672E-01  0.3698E-01  0.1006E+01  0.1006E+01
    -11.746  0.7049E+00  0.7096E+00  0.1112E+01  0.1113E+01
    -11.595  0.6722E+01  0.6744E+01  0.2128E+01  0.2132E+01
    -11.444  0.1019E+02  0.1018E+02  0.3668E+01  0.3670E+01
    -11.293  0.2068E+01  0.2057E+01  0.3981E+01  0.3981E+01
    -11.142  0.9024E-01  0.8965E-01  0.3999E+01  0.3999E+01
    -10.991  0.0000E+00  0.0000E+00  0.4000E+01  0.4000E+01
    -10.839  0.0000E+00  0.0000E+00  0.4000E+01  0.4000E+01
    -10.688  0.0000E+00  0.0000E+00  0.4000E+01  0.4000E+01
    -10.537  0.0000E+00  0.0000E+00  0.4000E+01  0.4000E+01
    -10.386  0.0000E+00  0.0000E+00  0.4000E+01  0.4000E+01
    -10.235  0.0000E+00  0.0000E+00  0.4000E+01  0.4000E+01
    -10.084  0.0000E+00  0.0000E+00  0.4000E+01  0.4000E+01
     -9.933  0.0000E+00  0.0000E+00  0.4000E+01  0.4000E+01
     -9.782  0.0000E+00  0.0000E+00  0.4000E+01  0.4000E+01
     -9.631  0.0000E+00  0.0000E+00  0.4000E+01  0.4000E+01
     -9.480  0.0000E+00  0.0000E+00  0.4000E+01  0.4000E+01
     -9.328  0.0000E+00  0.0000E+00  0.4000E+01  0.4000E+01
     -9.177  0.0000E+00  0.0000E+00  0.4000E+01  0.4000E+01
     -9.026  0.0000E+00  0.0000E+00  0.4000E+01  0.4000E+01
     -8.875  0.0000E+00  0.0000E+00  0.4000E+01  0.4000E+01
     -8.724  0.0000E+00  0.0000E+00  0.4000E+01  0.4000E+01
     -8.573  0.0000E+00  0.0000E+00  0.4000E+01  0.4000E+01
     -8.422  0.0000E+00  0.0000E+00  0.4000E+01  0.4000E+01
     -8.271  0.0000E+00  0.0000E+00  0.4000E+01  0.4000E+01
     -8.120  0.0000E+00  0.0000E+00  0.4000E+01  0.4000E+01
     -7.969  0.0000E+00  0.0000E+00  0.4000E+01  0.4000E+01
     -7.817  0.0000E+00  0.0000E+00  0.4000E+01  0.4000E+01
     -7.666  0.0000E+00  0.0000E+00  0.4000E+01  0.4000E+01
     -7.515  0.0000E+00  0.0000E+00  0.4000E+01  0.4000E+01
     -7.364  0.0000E+00  0.0000E+00  0.4000E+01  0.4000E+01
     -7.213  0.0000E+00  0.0000E+00  0.4000E+01  0.4000E+01
     -7.062  0.0000E+00  0.0000E+00  0.4000E+01  0.4000E+01
     -6.911  0.0000E+00  0.0000E+00  0.4000E+01  0.4000E+01
     -6.760  0.0000E+00  0.0000E+00  0.4000E+01  0.4000E+01
     -6.609  0.0000E+00  0.0000E+00  0.4000E+01  0.4000E+01
     -6.458  0.0000E+00  0.0000E+00  0.4000E+01  0.4000E+01
     -6.306  0.0000E+00  0.0000E+00  0.4000E+01  0.4000E+01
     -6.155  0.0000E+00  0.0000E+00  0.4000E+01  0.4000E+01
     -6.004  0.0000E+00  0.0000E+00  0.4000E+01  0.4000E+01
     -5.853  0.0000E+00  0.0000E+00  0.4000E+01  0.4000E+01
     -5.702  0.0000E+00  0.0000E+00  0.4000E+01  0.4000E+01
     -5.551  0.0000E+00  0.0000E+00  0.4000E+01  0.4000E+01
     -5.400  0.0000E+00  0.0000E+00  0.4000E+01  0.4000E+01
     -5.249  0.0000E+00  0.0000E+00  0.4000E+01  0.4000E+01
     -5.098  0.0000E+00  0.0000E+00  0.4000E+01  0.4000E+01
     -4.947  0.0000E+00  0.0000E+00  0.4000E+01  0.4000E+01
     -4.795  0.0000E+00  0.0000E+00  0.4000E+01  0.4000E+01
     -4.644  0.0000E+00  0.0000E+00  0.4000E+01  0.4000E+01
     -4.493  0.0000E+00  0.0000E+00  0.4000E+01  0.4000E+01
     -4.342  0.0000E+00  0.0000E+00  0.4000E+01  0.4000E+01
     -4.191  0.0000E+00  0.0000E+00  0.4000E+01  0.4000E+01
     -4.040  0.0000E+00  0.0000E+00  0.4000E+01  0.4000E+01
     -3.889  0.0000E+00  0.0000E+00  0.4000E+01  0.4000E+01
     -3.738  0.8547E-06  0.8743E-06  0.4000E+01  0.4000E+01
     -3.587  0.2779E-04  0.2843E-04  0.4000E+01  0.4000E+01
     -3.436  0.5742E-03  0.5872E-03  0.4000E+01  0.4000E+01
     -3.284  0.9471E-02  0.9647E-02  0.4002E+01  0.4002E+01
     -3.133  0.5568E-01  0.5612E-01  0.4010E+01  0.4010E+01
     -2.982  0.1152E+00  0.1156E+00  0.4027E+01  0.4028E+01
     -2.831  0.1473E+00  0.1476E+00  0.4050E+01  0.4050E+01
     -2.680  0.1972E+00  0.1973E+00  0.4079E+01  0.4080E+01
     -2.529  0.2154E+00  0.2154E+00  0.4112E+01  0.4112E+01
     -2.378  0.2576E+00  0.2582E+00  0.4151E+01  0.4151E+01
     -2.227  0.2969E+00  0.2966E+00  0.4196E+01  0.4196E+01
     -2.076  0.2868E+00  0.2873E+00  0.4239E+01  0.4240E+01
     -1.925  0.3885E+00  0.3887E+00  0.4298E+01  0.4298E+01
     -1.773  0.3786E+00  0.3786E+00  0.4355E+01  0.4356E+01
     -1.622  0.4546E+00  0.4551E+00  0.4424E+01  0.4425E+01
     -1.471  0.5222E+00  0.5228E+00  0.4503E+01  0.4504E+01
     -1.320  0.5779E+00  0.5772E+00  0.4591E+01  0.4591E+01
     -1.169  0.4968E+00  0.4962E+00  0.4666E+01  0.4667E+01
     -1.018  0.5022E+00  0.5016E+00  0.4742E+01  0.4743E+01
     -0.867  0.4598E+00  0.4604E+00  0.4812E+01  0.4812E+01
     -0.716  0.4896E+00  0.4895E+00  0.4886E+01  0.4887E+01
     -0.565  0.4901E+00  0.4898E+00  0.4960E+01  0.4961E+01
     -0.414  0.3492E+00  0.3491E+00  0.5013E+01  0.5014E+01
     -0.262  0.4019E+00  0.4018E+00  0.5074E+01  0.5074E+01
     -0.111  0.4416E+00  0.4425E+00  0.5141E+01  0.5141E+01
      0.040  0.5300E+00  0.5297E+00  0.5221E+01  0.5221E+01
      0.191  0.4931E+00  0.4932E+00  0.5296E+01  0.5296E+01
      0.342  0.6001E+00  0.6012E+00  0.5387E+01  0.5387E+01
      0.493  0.8375E+00  0.8386E+00  0.5513E+01  0.5514E+01
      0.644  0.1162E+01  0.1163E+01  0.5689E+01  0.5690E+01
      0.795  0.1096E+01  0.1094E+01  0.5855E+01  0.5856E+01
      0.946  0.9820E+00  0.9817E+00  0.6004E+01  0.6005E+01
      1.097  0.6758E+00  0.6744E+00  0.6106E+01  0.6107E+01
      1.249  0.8014E+00  0.8030E+00  0.6228E+01  0.6229E+01
      1.400  0.8051E+00  0.8033E+00  0.6350E+01  0.6350E+01
      1.551  0.4505E+00  0.4497E+00  0.6418E+01  0.6418E+01
      1.702  0.5090E+00  0.5092E+00  0.6495E+01  0.6496E+01
      1.853  0.5934E+00  0.5941E+00  0.6585E+01  0.6585E+01
      2.004  0.5082E+00  0.5071E+00  0.6662E+01  0.6662E+01
      2.155  0.4344E+00  0.4351E+00  0.6728E+01  0.6728E+01
      2.306  0.4674E+00  0.4679E+00  0.6798E+01  0.6799E+01
      2.457  0.5713E+00  0.5726E+00  0.6885E+01  0.6886E+01
      2.608  0.7722E+00  0.7733E+00  0.7002E+01  0.7003E+01
      2.760  0.6903E+00  0.6900E+00  0.7106E+01  0.7107E+01
      2.911  0.7821E+00  0.7832E+00  0.7224E+01  0.7225E+01
      3.062  0.7014E+00  0.7005E+00  0.7331E+01  0.7332E+01
      3.213  0.7513E+00  0.7525E+00  0.7444E+01  0.7445E+01
      3.364  0.8666E+00  0.8678E+00  0.7576E+01  0.7577E+01
      3.515  0.9658E+00  0.9665E+00  0.7722E+01  0.7723E+01
      3.666  0.1153E+01  0.1156E+01  0.7896E+01  0.7898E+01
      3.817  0.1363E+01  0.1363E+01  0.8102E+01  0.8104E+01
      3.968  0.1445E+01  0.1448E+01  0.8321E+01  0.8323E+01
      4.119  0.1769E+01  0.1768E+01  0.8589E+01  0.8591E+01
      4.271  0.1541E+01  0.1541E+01  0.8823E+01  0.8825E+01
      4.422  0.1418E+01  0.1413E+01  0.9037E+01  0.9039E+01
      4.573  0.8683E+00  0.8684E+00  0.9169E+01  0.9170E+01
      4.724  0.1047E+01  0.1048E+01  0.9328E+01  0.9329E+01
      4.875  0.8736E+00  0.8710E+00  0.9460E+01  0.9461E+01
      5.026  0.6040E+00  0.6020E+00  0.9552E+01  0.9552E+01
      5.177  0.6537E+00  0.6558E+00  0.9651E+01  0.9652E+01
      5.328  0.9059E+00  0.9081E+00  0.9788E+01  0.9789E+01
      5.479  0.1088E+01  0.1087E+01  0.9952E+01  0.9954E+01
      5.630  0.1009E+01  0.1008E+01  0.1011E+02  0.1011E+02
      5.782  0.7618E+00  0.7603E+00  0.1022E+02  0.1022E+02
      5.933  0.9455E+00  0.9485E+00  0.1036E+02  0.1037E+02
      6.084  0.1119E+01  0.1118E+01  0.1053E+02  0.1053E+02
      6.235  0.8068E+00  0.8057E+00  0.1066E+02  0.1066E+02
      6.386  0.9324E+00  0.9341E+00  0.1080E+02  0.1080E+02
      6.537  0.1061E+01  0.1061E+01  0.1096E+02  0.1096E+02
      6.688  0.9023E+00  0.9017E+00  0.1109E+02  0.1110E+02
      6.839  0.8198E+00  0.8196E+00  0.1122E+02  0.1122E+02
      6.990  0.9262E+00  0.9278E+00  0.1136E+02  0.1136E+02
      7.141  0.1109E+01  0.1109E+01  0.1153E+02  0.1153E+02
      7.293  0.9908E+00  0.9902E+00  0.1168E+02  0.1168E+02
      7.444  0.1043E+01  0.1043E+01  0.1183E+02  0.1184E+02
      7.595  0.8568E+00  0.8548E+00  0.1196E+02  0.1197E+02
      7.746  0.7629E+00  0.7643E+00  0.1208E+02  0.1208E+02
      7.897  0.9952E+00  0.9953E+00  0.1223E+02  0.1223E+02
      8.048  0.9633E+00  0.9641E+00  0.1238E+02  0.1238E+02
      8.199  0.1199E+01  0.1201E+01  0.1256E+02  0.1256E+02
      8.350  0.1297E+01  0.1298E+01  0.1275E+02  0.1276E+02
      8.501  0.1302E+01  0.1303E+01  0.1295E+02  0.1295E+02
      8.652  0.1447E+01  0.1449E+01  0.1317E+02  0.1317E+02
      8.804  0.1632E+01  0.1635E+01  0.1342E+02  0.1342E+02
      8.955  0.1696E+01  0.1694E+01  0.1367E+02  0.1368E+02
      9.106  0.1576E+01  0.1573E+01  0.1391E+02  0.1391E+02
      9.257  0.1224E+01  0.1224E+01  0.1410E+02  0.1410E+02
      9.408  0.1504E+01  0.1503E+01  0.1433E+02  0.1433E+02
      9.559  0.1296E+01  0.1296E+01  0.1452E+02  0.1452E+02
      9.710  0.1477E+01  0.1470E+01  0.1475E+02  0.1475E+02
      9.861  0.1482E+01  0.1446E+01  0.1497E+02  0.1496E+02
     10.012  0.1528E+01  0.1504E+01  0.1520E+02  0.1519E+02
     10.163  0.1496E+01  0.1528E+01  0.1543E+02  0.1542E+02
     10.315  0.1462E+01  0.1445E+01  0.1565E+02  0.1564E+02
     10.466  0.9669E+00  0.9595E+00  0.1580E+02  0.1579E+02
     10.617  0.3910E+00  0.4276E+00  0.1586E+02  0.1585E+02
     10.768  0.2284E+00  0.2429E+00  0.1589E+02  0.1589E+02
     10.919  0.1558E+00  0.1625E+00  0.1591E+02  0.1592E+02
     11.070  0.1405E+00  0.1365E+00  0.1594E+02  0.1594E+02
     11.221  0.1140E+00  0.1091E+00  0.1595E+02  0.1595E+02
     11.372  0.6971E-01  0.7455E-01  0.1596E+02  0.1596E+02
     11.523  0.1384E+00  0.1398E+00  0.1598E+02  0.1598E+02
     11.674  0.5116E-01  0.4968E-01  0.1599E+02  0.1599E+02
     11.826  0.2007E-01  0.2203E-01  0.1600E+02  0.1600E+02
     11.977  0.2567E-01  0.2436E-01  0.1600E+02  0.1600E+02
     12.128  0.3913E-02  0.2936E-02  0.1600E+02  0.1600E+02
     12.279  0.1620E-03  0.0000E+00  0.1600E+02  0.1600E+02
     12.430  0.0000E+00  0.0000E+00  0.1600E+02  0.1600E+02
     12.581  0.0000E+00  0.0000E+00  0.1600E+02  0.1600E+02
     12.732  0.0000E+00  0.0000E+00  0.1600E+02  0.1600E+02
     12.883  0.0000E+00  0.0000E+00  0.1600E+02  0.1600E+02
     13.034  0.0000E+00  0.0000E+00  0.1600E+02  0.1600E+02
     13.185  0.0000E+00  0.0000E+00  0.1600E+02  0.1600E+02
     13.337  0.0000E+00  0.0000E+00  0.1600E+02  0.1600E+02
     13.488  0.0000E+00  0.0000E+00  0.1600E+02  0.1600E+02
     13.639  0.0000E+00  0.0000E+00  0.1600E+02  0.1600E+02
     13.790  0.0000E+00  0.0000E+00  0.1600E+02  0.1600E+02
     13.941  0.0000E+00  0.0000E+00  0.1600E+02  0.1600E+02
     13.94090368    -31.38896275  301      4.93214077      1.00000000
    -31.389  0.0000E+00  0.0000E+00  0.0000E+00  0.0000E+00  0.0000E+00  0.0000E+00  0.0000E+00  0.0000E+00  0.0000E+00  0.0000E+00  0.0000E+00  0.0000E+00  0.0000E+00  0.0000E+00  0.0000E+00  0.0000E+00  0.0000E+00  0.0000E+00
    -31.238  0.0000E+00  0.0000E+00  0.0000E+00  0.0000E+00  0.0000E+00  0.0000E+00  0.0000E+00  0.0000E+00  0.0000E+00  0.0000E+00  0.0000E+00  0.0000E+00  0.0000E+00  0.0000E+00  0.0000E+00  0.0000E+00  0.0000E+00  0.0000E+00
    -31.087  0.0000E+00  0.0000E+00  0.0000E+00  0.0000E+00  0.0000E+00  0.0000E+00  0.0000E+00  0.0000E+00  0.0000E+00  0.0000E+00  0.0000E+00  0.0000E+00  0.0000E+00  0.0000E+00  0.0000E+00  0.0000E+00  0.0000E+00  0.0000E+00
    -30.936  0.0000E+00  0.0000E+00  0.0000E+00  0.0000E+00  0.0000E+00  0.0000E+00  0.0000E+00  0.0000E+00  0.0000E+00  0.0000E+00  0.0000E+00  0.0000E+00  0.0000E+00  0.0000E+00  0.0000E+00  0.0000E+00  0.0000E+00  0.0000E+00
    -30.785  0.0000E+00  0.0000E+00  0.0000E+00  0.0000E+00  0.0000E+00  0.0000E+00  0.0000E+00  0.0000E+00  0.0000E+00  0.0000E+00  0.0000E+00  0.0000E+00  0.0000E+00  0.0000E+00  0.0000E+00  0.0000E+00  0.0000E+00  0.0000E+00
    -30.633  0.0000E+00  0.0000E+00  0.0000E+00  0.0000E+00  0.0000E+00  0.0000E+00  0.0000E+00  0.0000E+00  0.0000E+00  0.0000E+00  0.0000E+00  0.0000E+00  0.0000E+00  0.0000E+00  0.0000E+00  0.0000E+00  0.0000E+00  0.0000E+00
    -30.482  0.0000E+00  0.0000E+00  0.0000E+00  0.0000E+00  0.0000E+00  0.0000E+00  0.0000E+00  0.0000E+00  0.0000E+00  0.0000E+00  0.0000E+00  0.0000E+00  0.0000E+00  0.0000E+00  0.0000E+00  0.0000E+00  0.0000E+00  0.0000E+00
    -30.331  0.0000E+00  0.0000E+00  0.0000E+00  0.0000E+00  0.0000E+00  0.0000E+00  0.0000E+00  0.0000E+00  0.0000E+00  0.0000E+00  0.0000E+00  0.0000E+00  0.0000E+00  0.0000E+00  0.0000E+00  0.0000E+00  0.0000E+00  0.0000E+00
    -30.180  0.0000E+00  0.0000E+00  0.0000E+00  0.0000E+00  0.0000E+00  0.0000E+00  0.0000E+00  0.0000E+00  0.0000E+00  0.0000E+00  0.0000E+00  0.0000E+00  0.0000E+00  0.0000E+00  0.0000E+00  0.0000E+00  0.0000E+00  0.0000E+00
    -30.029  0.0000E+00  0.0000E+00  0.0000E+00  0.0000E+00  0.0000E+00  0.0000E+00  0.0000E+00  0.0000E+00  0.0000E+00  0.0000E+00  0.0000E+00  0.0000E+00  0.0000E+00  0.0000E+00  0.0000E+00  0.0000E+00  0.0000E+00  0.0000E+00
    -29.878  0.1598E-05  0.3948E-05  0.1242E-13  0.4819E-13  0.1242E-13  0.4819E-13  0.1251E-13  0.4860E-13  0.1268E-17  0.1048E-16  0.1531E-17  0.1043E-16  0.4835E-15  0.2614E-14  0.1268E-17  0.1048E-16  0.5910E-15  0.3173E-14
    -29.727  0.1966E-02  0.1992E-02  0.4509E-10  0.4621E-10  0.4509E-10  0.4621E-10  0.4544E-10  0.4661E-10  0.3624E-13  0.4226E-13  0.3855E-13  0.4279E-13  0.2242E-10  0.2278E-10  0.3624E-13  0.4226E-13  0.2261E-10  0.2301E-10
    -29.576  0.3819E-01  0.3873E-01  0.8754E-09  0.8979E-09  0.8754E-09  0.8979E-09  0.8823E-09  0.9057E-09  0.7035E-12  0.8205E-12  0.7483E-12  0.8308E-12  0.4353E-09  0.4423E-09  0.7035E-12  0.8205E-12  0.4389E-09  0.4466E-09
    -29.425  0.6950E+00  0.7037E+00  0.1593E-07  0.1631E-07  0.1593E-07  0.1631E-07  0.1606E-07  0.1645E-07  0.1281E-10  0.1492E-10  0.1363E-10  0.1511E-10  0.7924E-08  0.8038E-08  0.1281E-10  0.1492E-10  0.7986E-08  0.8112E-08
    -29.274  0.3949E+01  0.3958E+01  0.9047E-07  0.9170E-07  0.9047E-07  0.9170E-07  0.9119E-07  0.9249E-07  0.7320E-10  0.8454E-10  0.7785E-10  0.8565E-10  0.4509E-07  0.4527E-07  0.7320E-10  0.8454E-10  0.4530E-07  0.4554E-07
    -29.122  0.1663E+01  0.1646E+01  0.3806E-07  0.3810E-07  0.3806E-07  0.3810E-07  0.3836E-07  0.3843E-07  0.3100E-10  0.3543E-10  0.3296E-10  0.3592E-10  0.1901E-07  0.1884E-07  0.3100E-10  0.3543E-10  0.1902E-07  0.1888E-07
    -28.971  0.1117E+00  0.1102E+00  0.2556E-08  0.2549E-08  0.2556E-08  0.2549E-08  0.2577E-08  0.2571E-08  0.2086E-11  0.2377E-11  0.2218E-11  0.2410E-11  0.1277E-08  0.1261E-08  0.2086E-11  0.2377E-11  0.1277E-08  0.1262E-08
    -28.820  0.0000E+00  0.0000E+00  0.0000E+00  0.0000E+00  0.0000E+00  0.0000E+00  0.0000E+00  0.0000E+00  0.0000E+00  0.0000E+00  0.0000E+00  0.0000E+00  0.0000E+00  0.0000E+00  0.0000E+00  0.0000E+00  0.0000E+00  0.0000E+00
    -28.669  0.0000E+00  0.0000E+00  0.0000E+00  0.0000E+00  0.0000E+00  0.0000E+00  0.0000E+00  0.0000E+00  0.0000E+00  0.0000E+00  0.0000E+00  0.0000E+00  0.0000E+00  0.0000E+00  0.0000E+00  0.0000E+00  0.0000E+00  0.0000E+00
    -28.518  0.0000E+00  0.0000E+00  0.0000E+00  0.0000E+00  0.0000E+00  0.0000E+00  0.0000E+00  0.0000E+00  0.0000E+00  0.0000E+00  0.0000E+00  0.0000E+00  0.0000E+00  0.0000E+00  0.0000E+00  0.0000E+00  0.0000E+00  0.0000E+00
    -28.367  0.0000E+00  0.0000E+00  0.0000E+00  0.0000E+00  0.0000E+00  0.0000E+00  0.0000E+00  0.0000E+00  0.0000E+00  0.0000E+00  0.0000E+00  0.0000E+00  0.0000E+00  0.0000E+00  0.0000E+00  0.0000E+00  0.0000E+00  0.0000E+00
    -28.216  0.0000E+00  0.0000E+00  0.0000E+00  0.0000E+00  0.0000E+00  0.0000E+00  0.0000E+00  0.0000E+00  0.0000E+00  0.0000E+00  0.0000E+00  0.0000E+00  0.0000E+00  0.0000E+00  0.0000E+00  0.0000E+00  0.0000E+00  0.0000E+00
    -28.065  0.0000E+00  0.0000E+00  0.0000E+00  0.0000E+00  0.0000E+00  0.0000E+00  0.0000E+00  0.0000E+00  0.0000E+00  0.0000E+00  0.0000E+00  0.0000E+00  0.0000E+00  0.0000E+00  0.0000E+00  0.0000E+00  0.0000E+00  0.0000E+00
    -27.914  0.0000E+00  0.0000E+00  0.0000E+00  0.0000E+00  0.0000E+00  0.0000E+00  0.0000E+00  0.0000E+00  0.0000E+00  0.0000E+00  0.0000E+00  0.0000E+00  0.0000E+00  0.0000E+00  0.0000E+00  0.0000E+00  0.0000E+00  0.0000E+00
    -27.763  0.0000E+00  0.0000E+00  0.0000E+00  0.0000E+00  0.0000E+00  0.0000E+00  0.0000E+00  0.0000E+00  0.0000E+00  0.0000E+00  0.0000E+00  0.0000E+00  0.0000E+00  0.0000E+00  0.0000E+00  0.0000E+00  0.0000E+00  0.0000E+00
    -27.611  0.0000E+00  0.0000E+00  0.0000E+00  0.0000E+00  0.0000E+00  0.0000E+00  0.0000E+00  0.0000E+00  0.0000E+00  0.0000E+00  0.0000E+00  0.0000E+00  0.0000E+00  0.0000E+00  0.0000E+00  0.0000E+00  0.0000E+00  0.0000E+00
    -27.460  0.0000E+00  0.0000E+00  0.0000E+00  0.0000E+00  0.0000E+00  0.0000E+00  0.0000E+00  0.0000E+00  0.0000E+00  0.0000E+00  0.0000E+00  0.0000E+00  0.0000E+00  0.0000E+00  0.0000E+00  0.0000E+00  0.0000E+00  0.0000E+00
    -27.309  0.0000E+00  0.0000E+00  0.0000E+00  0.0000E+00  0.0000E+00  0.0000E+00  0.0000E+00  0.0000E+00  0.0000E+00  0.0000E+00  0.0000E+00  0.0000E+00  0.0000E+00  0.0000E+00  0.0000E+00  0.0000E+00  0.0000E+00  0.0000E+00
    -27.158  0.0000E+00  0.0000E+00  0.0000E+00  0.0000E+00  0.0000E+00  0.0000E+00  0.0000E+00  0.0000E+00  0.0000E+00  0.0000E+00  0.0000E+00  0.0000E+00  0.0000E+00  0.0000E+00  0.0000E+00  0.0000E+00  0.0000E+00  0.0000E+00
    -27.007  0.0000E+00  0.0000E+00  0.0000E+00  0.0000E+00  0.0000E+00  0.0000E+00  0.0000E+00  0.0000E+00  0.0000E+00  0.0000E+00  0.0000E+00  0.0000E+00  0.0000E+00  0.0000E+00  0.0000E+00  0.0000E+00  0.0000E+00  0.0000E+00
    -26.856  0.0000E+00  0.0000E+00  0.0000E+00  0.0000E+00  0.0000E+00  0.0000E+00  0.0000E+00  0.0000E+00  0.0000E+00  0.0000E+00  0.0000E+00  0.0000E+00  0.0000E+00  0.0000E+00  0.0000E+00  0.0000E+00  0.0000E+00  0.0000E+00
    -26.705  0.0000E+00  0.0000E+00  0.0000E+00  0.0000E+00  0.0000E+00  0.0000E+00  0.0000E+00  0.0000E+00  0.0000E+00  0.0000E+00  0.0000E+00  0.0000E+00  0.0000E+00  0.0000E+00  0.0000E+00  0.0000E+00  0.0000E+00  0.0000E+00
    -26.554  0.0000E+00  0.0000E+00  0.0000E+00  0.0000E+00  0.0000E+00  0.0000E+00  0.0000E+00  0.0000E+00  0.0000E+00  0.0000E+00  0.0000E+00  0.0000E+00  0.0000E+00  0.0000E+00  0.0000E+00  0.0000E+00  0.0000E+00  0.0000E+00
    -26.403  0.0000E+00  0.0000E+00  0.0000E+00  0.0000E+00  0.0000E+00  0.0000E+00  0.0000E+00  0.0000E+00  0.0000E+00  0.0000E+00  0.0000E+00  0.0000E+00  0.0000E+00  0.0000E+00  0.0000E+00  0.0000E+00  0.0000E+00  0.0000E+00
    -26.252  0.0000E+00  0.0000E+00  0.0000E+00  0.0000E+00  0.0000E+00  0.0000E+00  0.0000E+00  0.0000E+00  0.0000E+00  0.0000E+00  0.0000E+00  0.0000E+00  0.0000E+00  0.0000E+00  0.0000E+00  0.0000E+00  0.0000E+00  0.0000E+00
    -26.100  0.0000E+00  0.0000E+00  0.0000E+00  0.0000E+00  0.0000E+00  0.0000E+00  0.0000E+00  0.0000E+00  0.0000E+00  0.0000E+00  0.0000E+00  0.0000E+00  0.0000E+00  0.0000E+00  0.0000E+00  0.0000E+00  0.0000E+00  0.0000E+00
    -25.949  0.0000E+00  0.0000E+00  0.0000E+00  0.0000E+00  0.0000E+00  0.0000E+00  0.0000E+00  0.0000E+00  0.0000E+00  0.0000E+00  0.0000E+00  0.0000E+00  0.0000E+00  0.0000E+00  0.0000E+00  0.0000E+00  0.0000E+00  0.0000E+00
    -25.798  0.0000E+00  0.0000E+00  0.0000E+00  0.0000E+00  0.0000E+00  0.0000E+00  0.0000E+00  0.0000E+00  0.0000E+00  0.0000E+00  0.0000E+00  0.0000E+00  0.0000E+00  0.0000E+00  0.0000E+00  0.0000E+00  0.0000E+00  0.0000E+00
    -25.647  0.0000E+00  0.0000E+00  0.0000E+00  0.0000E+00  0.0000E+00  0.0000E+00  0.0000E+00  0.0000E+00  0.0000E+00  0.0000E+00  0.0000E+00  0.0000E+00  0.0000E+00  0.0000E+00  0.0000E+00  0.0000E+00  0.0000E+00  0.0000E+00
    -25.496  0.0000E+00  0.0000E+00  0.0000E+00  0.0000E+00  0.0000E+00  0.0000E+00  0.0000E+00  0.0000E+00  0.0000E+00  0.0000E+00  0.0000E+00  0.0000E+00  0.0000E+00  0.0000E+00  0.0000E+00  0.0000E+00  0.0000E+00  0.0000E+00
    -25.345  0.0000E+00  0.0000E+00  0.0000E+00  0.0000E+00  0.0000E+00  0.0000E+00  0.0000E+00  0.0000E+00  0.0000E+00  0.0000E+00  0.0000E+00  0.0000E+00  0.0000E+00  0.0000E+00  0.0000E+00  0.0000E+00  0.0000E+00  0.0000E+00
    -25.194  0.0000E+00  0.0000E+00  0.0000E+00  0.0000E+00  0.0000E+00  0.0000E+00  0.0000E+00  0.0000E+00  0.0000E+00  0.0000E+00  0.0000E+00  0.0000E+00  0.0000E+00  0.0000E+00  0.0000E+00  0.0000E+00  0.0000E+00  0.0000E+00
    -25.043  0.0000E+00  0.0000E+00  0.0000E+00  0.0000E+00  0.0000E+00  0.0000E+00  0.0000E+00  0.0000E+00  0.0000E+00  0.0000E+00  0.0000E+00  0.0000E+00  0.0000E+00  0.0000E+00  0.0000E+00  0.0000E+00  0.0000E+00  0.0000E+00
    -24.892  0.0000E+00  0.0000E+00  0.0000E+00  0.0000E+00  0.0000E+00  0.0000E+00  0.0000E+00  0.0000E+00  0.0000E+00  0.0000E+00  0.0000E+00  0.0000E+00  0.0000E+00  0.0000E+00  0.0000E+00  0.0000E+00  0.0000E+00  0.0000E+00
    -24.741  0.0000E+00  0.0000E+00  0.0000E+00  0.0000E+00  0.0000E+00  0.0000E+00  0.0000E+00  0.0000E+00  0.0000E+00  0.0000E+00  0.0000E+00  0.0000E+00  0.0000E+00  0.0000E+00  0.0000E+00  0.0000E+00  0.0000E+00  0.0000E+00
    -24.589  0.0000E+00  0.0000E+00  0.0000E+00  0.0000E+00  0.0000E+00  0.0000E+00  0.0000E+00  0.0000E+00  0.0000E+00  0.0000E+00  0.0000E+00  0.0000E+00  0.0000E+00  0.0000E+00  0.0000E+00  0.0000E+00  0.0000E+00  0.0000E+00
    -24.438  0.0000E+00  0.0000E+00  0.0000E+00  0.0000E+00  0.0000E+00  0.0000E+00  0.0000E+00  0.0000E+00  0.0000E+00  0.0000E+00  0.0000E+00  0.0000E+00  0.0000E+00  0.0000E+00  0.0000E+00  0.0000E+00  0.0000E+00  0.0000E+00
    -24.287  0.0000E+00  0.0000E+00  0.0000E+00  0.0000E+00  0.0000E+00  0.0000E+00  0.0000E+00  0.0000E+00  0.0000E+00  0.0000E+00  0.0000E+00  0.0000E+00  0.0000E+00  0.0000E+00  0.0000E+00  0.0000E+00  0.0000E+00  0.0000E+00
    -24.136  0.0000E+00  0.0000E+00  0.0000E+00  0.0000E+00  0.0000E+00  0.0000E+00  0.0000E+00  0.0000E+00  0.0000E+00  0.0000E+00  0.0000E+00  0.0000E+00  0.0000E+00  0.0000E+00  0.0000E+00  0.0000E+00  0.0000E+00  0.0000E+00
    -23.985  0.0000E+00  0.0000E+00  0.0000E+00  0.0000E+00  0.0000E+00  0.0000E+00  0.0000E+00  0.0000E+00  0.0000E+00  0.0000E+00  0.0000E+00  0.0000E+00  0.0000E+00  0.0000E+00  0.0000E+00  0.0000E+00  0.0000E+00  0.0000E+00
    -23.834  0.0000E+00  0.0000E+00  0.0000E+00  0.0000E+00  0.0000E+00  0.0000E+00  0.0000E+00  0.0000E+00  0.0000E+00  0.0000E+00  0.0000E+00  0.0000E+00  0.0000E+00  0.0000E+00  0.0000E+00  0.0000E+00  0.0000E+00  0.0000E+00