   4   4   1   0
  0.1801261E+02  0.4160213E-09  0.4161602E-09  0.4161602E-09  0.5000000E-15
  1.000000000000000E-004
  CAR 
 unknown system                          
     16.78688517    -29.19468793  301      6.59469185      1.00000000
    -29.195  0.0000E+00  0.0000E+00  0.0000E+00  0.0000E+00
    -29.041  0.0000E+00  0.0000E+00  0.0000E+00  0.0000E+00
    -28.888  0.0000E+00  0.0000E+00  0.0000E+00  0.0000E+00
    -28.735  0.0000E+00  0.0000E+00  0.0000E+00  0.0000E+00
    -28.582  0.0000E+00  0.0000E+00  0.0000E+00  0.0000E+00
    -28.428  0.0000E+00  0.0000E+00  0.0000E+00  0.0000E+00
    -28.275  0.0000E+00  0.0000E+00  0.0000E+00  0.0000E+00
    -28.122  0.0000E+00  0.0000E+00  0.0000E+00  0.0000E+00
    -27.969  0.0000E+00  0.0000E+00  0.0000E+00  0.0000E+00
    -27.815  0.0000E+00  0.0000E+00  0.0000E+00  0.0000E+00
    -27.662  0.0000E+00  0.0000E+00  0.0000E+00  0.0000E+00
    -27.509  0.1401E-02  0.1417E-02  0.2147E-03  0.2172E-03
    -27.355  0.2850E-01  0.2884E-01  0.4583E-02  0.4637E-02
    -27.202  0.5555E+00  0.5614E+00  0.8972E-01  0.9069E-01
    -27.049  0.3827E+01  0.3837E+01  0.6762E+00  0.6788E+00
    -26.896  0.1969E+01  0.1954E+01  0.9780E+00  0.9783E+00
    -26.742  0.1365E+00  0.1350E+00  0.9990E+00  0.9990E+00
    -26.589  0.0000E+00  0.0000E+00  0.1000E+01  0.1000E+01
    -26.436  0.0000E+00  0.0000E+00  0.1000E+01  0.1000E+01
    -26.283  0.0000E+00  0.0000E+00  0.1000E+01  0.1000E+01
    -26.129  0.0000E+00  0.0000E+00  0.1000E+01  0.1000E+01
    -25.976  0.0000E+00  0.0000E+00  0.1000E+01  0.1000E+01
    -25.823  0.0000E+00  0.0000E+00  0.1000E+01  0.1000E+01
    -25.669  0.0000E+00  0.0000E+00  0.1000E+01  0.1000E+01
    -25.516  0.0000E+00  0.0000E+00  0.1000E+01  0.1000E+01
    -25.363  0.0000E+00  0.0000E+00  0.1000E+01  0.1000E+01
    -25.210  0.0000E+00  0.0000E+00  0.1000E+01  0.1000E+01
    -25.056  0.0000E+00  0.0000E+00  0.1000E+01  0.1000E+01
    -24.903  0.0000E+00  0.0000E+00  0.1000E+01  0.1000E+01
    -24.750  0.0000E+00  0.0000E+00  0.1000E+01  0.1000E+01
    -24.597  0.0000E+00  0.0000E+00  0.1000E+01  0.1000E+01
    -24.443  0.0000E+00  0.0000E+00  0.1000E+01  0.1000E+01
    -24.290  0.0000E+00  0.0000E+00  0.1000E+01  0.1000E+01
    -24.137  0.0000E+00  0.0000E+00  0.1000E+01  0.1000E+01
    -23.983  0.0000E+00  0.0000E+00  0.1000E+01  0.1000E+01
    -23.830  0.0000E+00  0.0000E+00  0.1000E+01  0.1000E+01
    -23.677  0.0000E+00  0.0000E+00  0.1000E+01  0.1000E+01
    -23.524  0.0000E+00  0.0000E+00  0.1000E+01  0.1000E+01
    -23.370  0.0000E+00  0.0000E+00  0.1000E+01  0.1000E+01
    -23.217  0.0000E+00  0.0000E+00  0.1000E+01  0.1000E+01
    -23.064  0.0000E+00  0.0000E+00  0.1000E+01  0.1000E+01
    -22.911  0.0000E+00  0.0000E+00  0.1000E+01  0.1000E+01
    -22.757  0.0000E+00  0.0000E+00  0.1000E+01  0.1000E+01
    -22.604  0.0000E+00  0.0000E+00  0.1000E+01  0.1000E+01
    -22.451  0.0000E+00  0.0000E+00  0.1000E+01  0.1000E+01
    -22.297  0.0000E+00  0.0000E+00  0.1000E+01  0.1000E+01
    -22.144  0.0000E+00  0.0000E+00  0.1000E+01  0.1000E+01
    -21.991  0.0000E+00  0.0000E+00  0.1000E+01  0.1000E+01
    -21.838  0.0000E+00  0.0000E+00  0.1000E+01  0.1000E+01
    -21.684  0.0000E+00  0.0000E+00  0.1000E+01  0.1000E+01
    -21.531  0.0000E+00  0.0000E+00  0.1000E+01  0.1000E+01
    -21.378  0.0000E+00  0.0000E+00  0.1000E+01  0.1000E+01
    -21.225  0.0000E+00  0.0000E+00  0.1000E+01  0.1000E+01
    -21.071  0.0000E+00  0.0000E+00  0.1000E+01  0.1000E+01
    -20.918  0.0000E+00  0.0000E+00  0.1000E+01  0.1000E+01
    -20.765  0.0000E+00  0.0000E+00  0.1000E+01  0.1000E+01
    -20.611  0.0000E+00  0.0000E+00  0.1000E+01  0.1000E+01
    -20.458  0.0000E+00  0.0000E+00  0.1000E+01  0.1000E+01
    -20.305  0.0000E+00  0.0000E+00  0.1000E+01  0.1000E+01
    -20.152  0.0000E+00  0.0000E+00  0.1000E+01  0.1000E+01
    -19.998  0.0000E+00  0.0000E+00  0.1000E+01  0.1000E+01
    -19.845  0.0000E+00  0.0000E+00  0.1000E+01  0.1000E+01
    -19.692  0.0000E+00  0.0000E+00  0.1000E+01  0.1000E+01
    -19.539  0.0000E+00  0.0000E+00  0.1000E+01  0.1000E+01
    -19.385  0.0000E+00  0.0000E+00  0.1000E+01  0.1000E+01
    -19.232  0.0000E+00  0.0000E+00  0.1000E+01  0.1000E+01
    -19.079  0.0000E+00  0.0000E+00  0.1000E+01  0.1000E+01
    -18.925  0.0000E+00  0.0000E+00  0.1000E+01  0.1000E+01
    -18.772  0.0000E+00  0.0000E+00  0.1000E+01  0.1000E+01
    -18.619  0.0000E+00  0.0000E+00  0.1000E+01  0.1000E+01
    -18.466  0.0000E+00  0.0000E+00  0.1000E+01  0.1000E+01
    -18.312  0.0000E+00  0.0000E+00  0.1000E+01  0.1000E+01
    -18.159  0.0000E+00  0.0000E+00  0.1000E+01  0.1000E+01
    -18.006  0.0000E+00  0.0000E+00  0.1000E+01  0.1000E+01
    -17.853  0.0000E+00  0.0000E+00  0.1000E+01  0.1000E+01
    -17.699  0.0000E+00  0.0000E+00  0.1000E+01  0.1000E+01
    -17.546  0.0000E+00  0.0000E+00  0.1000E+01  0.1000E+01
    -17.393  0.0000E+00  0.0000E+00  0.1000E+01  0.1000E+01
    -17.239  0.0000E+00  0.0000E+00  0.1000E+01  0.1000E+01
    -17.086  0.0000E+00  0.0000E+00  0.1000E+01  0.1000E+01
    -16.933  0.0000E+00  0.0000E+00  0.1000E+01  0.1000E+01
    -16.780  0.0000E+00  0.0000E+00  0.1000E+01  0.1000E+01
    -16.626  0.0000E+00  0.0000E+00  0.1000E+01  0.1000E+01
    -16.473  0.0000E+00  0.0000E+00  0.1000E+01  0.1000E+01
    -16.320  0.0000E+00  0.0000E+00  0.1000E+01  0.1000E+01
    -16.167  0.0000E+00  0.0000E+00  0.1000E+01  0.1000E+01
    -16.013  0.0000E+00  0.0000E+00  0.1000E+01  0.1000E+01
    -15.860  0.0000E+00  0.0000E+00  0.1000E+01  0.1000E+01
    -15.707  0.0000E+00  0.0000E+00  0.1000E+01  0.1000E+01
    -15.553  0.0000E+00  0.0000E+00  0.1000E+01  0.1000E+01
    -15.400  0.0000E+00  0.0000E+00  0.1000E+01  0.1000E+01
    -15.247  0.0000E+00  0.0000E+00  0.1000E+01  0.1000E+01
    -15.094  0.0000E+00  0.0000E+00  0.1000E+01  0.1000E+01
    -14.940  0.0000E+00  0.0000E+00  0.1000E+01  0.1000E+01
    -14.787  0.0000E+00  0.0000E+00  0.1000E+01  0.1000E+01
    -14.634  0.0000E+00  0.0000E+00  0.1000E+01  0.1000E+01
    -14.481  0.0000E+00  0.0000E+00  0.1000E+01  0.1000E+01
    -14.327  0.0000E+00  0.0000E+00  0.1000E+01  0.1000E+01
    -14.174  0.0000E+00  0.0000E+00  0.1000E+01  0.1000E+01
    -14.021  0.0000E+00  0.0000E+00  0.1000E+01  0.1000E+01
    -13.867  0.0000E+00  0.0000E+00  0.1000E+01  0.1000E+01
    -13.714  0.0000E+00  0.0000E+00  0.1000E+01  0.1000E+01
    -13.561  0.0000E+00  0.0000E+00  0.1000E+01  0.1000E+01
    -13.408  0.0000E+00  0.0000E+00  0.1000E+01  0.1000E+01
    -13.254  0.0000E+00  0.0000E+00  0.1000E+01  0.1000E+01
    -13.101  0.0000E+00  0.0000E+00  0.1000E+01  0.1000E+01
    -12.948  0.0000E+00  0.0000E+00  0.1000E+01  0.1000E+01
    -12.795  0.0000E+00  0.0000E+00  0.1000E+01  0.1000E+01
    -12.641  0.0000E+00  0.0000E+00  0.1000E+01  0.1000E+01
    -12.488  0.0000E+00  0.0000E+00  0.1000E+01  0.1000E+01
    -12.335  0.0000E+00  0.0000E+00  0.1000E+01  0.1000E+01
    -12.182  0.0000E+00  0.0000E+00  0.1000E+01  0.1000E+01
    -12.028  0.0000E+00  0.0000E+00  0.1000E+01  0.1000E+01
    -11.875  0.0000E+00  0.0000E+00  0.1000E+01  0.1000E+01
    -11.722  0.0000E+00  0.0000E+00  0.1000E+01  0.1000E+01
    -11.568  0.0000E+00  0.0000E+00  0.1000E+01  0.1000E+01
    -11.415  0.0000E+00  0.0000E+00  0.1000E+01  0.1000E+01
    -11.262  0.0000E+00  0.0000E+00  0.1000E+01  0.1000E+01
    -11.109  0.0000E+00  0.0000E+00  0.1000E+01  0.1000E+01
    -10.955  0.0000E+00  0.0000E+00  0.1000E+01  0.1000E+01
    -10.802  0.0000E+00  0.0000E+00  0.1000E+01  0.1000E+01
    -10.649  0.0000E+00  0.0000E+00  0.1000E+01  0.1000E+01
    -10.496  0.0000E+00  0.0000E+00  0.1000E+01  0.1000E+01
    -10.342  0.0000E+00  0.0000E+00  0.1000E+01  0.1000E+01
    -10.189  0.4014E-03  0.4052E-03  0.1000E+01  0.1000E+01
    -10.036  0.8897E-02  0.8981E-02  0.1001E+01  0.1001E+01
     -9.882  0.1828E+00  0.1845E+00  0.1029E+01  0.1030E+01
     -9.729  0.2280E+01  0.2293E+01  0.1379E+01  0.1381E+01
     -9.576  0.6534E+01  0.6540E+01  0.2380E+01  0.2384E+01
     -9.423  0.6946E+01  0.6943E+01  0.3445E+01  0.3448E+01
     -9.269  0.3290E+01  0.3275E+01  0.3952E+01  0.3952E+01
     -9.116  0.2878E+00  0.2848E+00  0.3998E+01  0.3998E+01
     -8.963  0.0000E+00  0.0000E+00  0.4000E+01  0.4000E+01
     -8.810  0.0000E+00  0.0000E+00  0.4000E+01  0.4000E+01
     -8.656  0.0000E+00  0.0000E+00  0.4000E+01  0.4000E+01
     -8.503  0.0000E+00  0.0000E+00  0.4000E+01  0.4000E+01
     -8.350  0.0000E+00  0.0000E+00  0.4000E+01  0.4000E+01
     -8.196  0.0000E+00  0.0000E+00  0.4000E+01  0.4000E+01
     -8.043  0.0000E+00  0.0000E+00  0.4000E+01  0.4000E+01
     -7.890  0.0000E+00  0.0000E+00  0.4000E+01  0.4000E+01
     -7.737  0.0000E+00  0.0000E+00  0.4000E+01  0.4000E+01
     -7.583  0.0000E+00  0.0000E+00  0.4000E+01  0.4000E+01
     -7.430  0.0000E+00  0.0000E+00  0.4000E+01  0.4000E+01
     -7.277  0.0000E+00  0.0000E+00  0.4000E+01  0.4000E+01
     -7.124  0.0000E+00  0.0000E+00  0.4000E+01  0.4000E+01
     -6.970  0.0000E+00  0.0000E+00  0.4000E+01  0.4000E+01
     -6.817  0.0000E+00  0.0000E+00  0.4000E+01  0.4000E+01
     -6.664  0.0000E+00  0.0000E+00  0.4000E+01  0.4000E+01
     -6.510  0.0000E+00  0.0000E+00  0.4000E+01  0.4000E+01
     -6.357  0.0000E+00  0.0000E+00  0.4000E+01  0.4000E+01
     -6.204  0.0000E+00  0.0000E+00  0.4000E+01  0.4000E+01
     -6.051  0.0000E+00  0.0000E+00  0.4000E+01  0.4000E+01
     -5.897  0.0000E+00  0.0000E+00  0.4000E+01  0.4000E+01
     -5.744  0.0000E+00  0.0000E+00  0.4000E+01  0.4000E+01
     -5.591  0.0000E+00  0.0000E+00  0.4000E+01  0.4000E+01
     -5.438  0.0000E+00  0.0000E+00  0.4000E+01  0.4000E+01
     -5.284  0.0000E+00  0.0000E+00  0.4000E+01  0.4000E+01
     -5.131  0.0000E+00  0.0000E+00  0.4000E+01  0.4000E+01
     -4.978  0.0000E+00  0.0000E+00  0.4000E+01  0.4000E+01
     -4.824  0.0000E+00  0.0000E+00  0.4000E+01  0.4000E+01
     -4.671  0.0000E+00  0.0000E+00  0.4000E+01  0.4000E+01
     -4.518  0.0000E+00  0.0000E+00  0.4000E+01  0.4000E+01
     -4.365  0.0000E+00  0.0000E+00  0.4000E+01  0.4000E+01
     -4.211  0.0000E+00  0.0000E+00  0.4000E+01  0.4000E+01
     -4.058  0.0000E+00  0.0000E+00  0.4000E+01  0.4000E+01
     -3.905  0.0000E+00  0.0000E+00  0.4000E+01  0.4000E+01
     -3.752  0.0000E+00  0.0000E+00  0.4000E+01  0.4000E+01
     -3.598  0.0000E+00  0.0000E+00  0.4000E+01  0.4000E+01
     -3.445  0.0000E+00  0.0000E+00  0.4000E+01  0.4000E+01
     -3.292  0.0000E+00  0.0000E+00  0.4000E+01  0.4000E+01
     -3.138  0.0000E+00  0.0000E+00  0.4000E+01  0.4000E+01
     -2.985  0.9877E-07  0.1004E-06  0.4000E+01  0.4000E+01
     -2.832  0.6928E-05  0.7044E-05  0.4000E+01  0.4000E+01
     -2.679  0.1517E-03  0.1542E-03  0.4000E+01  0.4000E+01
     -2.525  0.2901E-02  0.2945E-02  0.4000E+01  0.4000E+01
     -2.372  0.2622E-01  0.2644E-01  0.4004E+01  0.4005E+01
     -2.219  0.6319E-01  0.6335E-01  0.4014E+01  0.4014E+01
     -2.066  0.1048E+00  0.1050E+00  0.4030E+01  0.4030E+01
     -1.912  0.1088E+00  0.1090E+00  0.4047E+01  0.4047E+01
     -1.759  0.1589E+00  0.1590E+00  0.4071E+01  0.4071E+01
     -1.606  0.1679E+00  0.1680E+00  0.4097E+01  0.4097E+01
     -1.452  0.1709E+00  0.1709E+00  0.4123E+01  0.4123E+01
     -1.299  0.2389E+00  0.2392E+00  0.4160E+01  0.4160E+01
     -1.146  0.2485E+00  0.2484E+00  0.4198E+01  0.4198E+01
     -0.993  0.2205E+00  0.2207E+00  0.4232E+01  0.4232E+01
     -0.839  0.3250E+00  0.3253E+00  0.4282E+01  0.4282E+01
     -0.686  0.3388E+00  0.3387E+00  0.4334E+01  0.4334E+01
     -0.533  0.3560E+00  0.3563E+00  0.4389E+01  0.4389E+01
     -0.380  0.3867E+00  0.3869E+00  0.4448E+01  0.4448E+01
     -0.226  0.5592E+00  0.5599E+00  0.4534E+01  0.4534E+01
     -0.073  0.5806E+00  0.5804E+00  0.4623E+01  0.4623E+01
      0.080  0.6009E+00  0.6011E+00  0.4715E+01  0.4716E+01
      0.234  0.5500E+00  0.5497E+00  0.4800E+01  0.4800E+01
      0.387  0.4635E+00  0.4629E+00  0.4871E+01  0.4871E+01
      0.540  0.3612E+00  0.3615E+00  0.4927E+01  0.4927E+01
      0.693  0.3213E+00  0.3211E+00  0.4976E+01  0.4976E+01
      0.847  0.2743E+00  0.2738E+00  0.5018E+01  0.5018E+01
      1.000  0.2494E+00  0.2499E+00  0.5056E+01  0.5057E+01
      1.153  0.3054E+00  0.3055E+00  0.5103E+01  0.5104E+01
      1.306  0.3331E+00  0.3334E+00  0.5154E+01  0.5155E+01
      1.460  0.4268E+00  0.4272E+00  0.5220E+01  0.5220E+01
      1.613  0.3966E+00  0.3960E+00  0.5281E+01  0.5281E+01
      1.766  0.3782E+00  0.3791E+00  0.5339E+01  0.5339E+01
      1.920  0.6465E+00  0.6481E+00  0.5438E+01  0.5439E+01
      2.073  0.8574E+00  0.8579E+00  0.5570E+01  0.5570E+01
      2.226  0.1017E+01  0.1017E+01  0.5726E+01  0.5726E+01
      2.379  0.9997E+00  0.9988E+00  0.5879E+01  0.5880E+01
      2.533  0.7866E+00  0.7857E+00  0.6000E+01  0.6001E+01
      2.686  0.7124E+00  0.7128E+00  0.6110E+01  0.6110E+01
      2.839  0.8162E+00  0.8166E+00  0.6235E+01  0.6236E+01
      2.992  0.7092E+00  0.7081E+00  0.6344E+01  0.6345E+01
      3.146  0.5394E+00  0.5388E+00  0.6427E+01  0.6427E+01
      3.299  0.4780E+00  0.4776E+00  0.6501E+01  0.6501E+01
      3.452  0.5202E+00  0.5216E+00  0.6581E+01  0.6581E+01
      3.606  0.6205E+00  0.6201E+00  0.6676E+01  0.6676E+01
      3.759  0.5333E+00  0.5329E+00  0.6758E+01  0.6758E+01
      3.912  0.4995E+00  0.5003E+00  0.6834E+01  0.6835E+01
      4.065  0.6390E+00  0.6393E+00  0.6933E+01  0.6933E+01
      4.219  0.7329E+00  0.7344E+00  0.7045E+01  0.7046E+01
      4.372  0.8468E+00  0.8460E+00  0.7175E+01  0.7176E+01
      4.525  0.6305E+00  0.6297E+00  0.7272E+01  0.7273E+01
      4.678  0.5912E+00  0.5922E+00  0.7363E+01  0.7364E+01
      4.832  0.7440E+00  0.7446E+00  0.7477E+01  0.7478E+01
      4.985  0.8293E+00  0.8296E+00  0.7604E+01  0.7605E+01
      5.138  0.9892E+00  0.9908E+00  0.7756E+01  0.7757E+01
      5.291  0.1155E+01  0.1156E+01  0.7934E+01  0.7935E+01
      5.445  0.1353E+01  0.1354E+01  0.8141E+01  0.8142E+01
      5.598  0.1755E+01  0.1759E+01  0.8410E+01  0.8412E+01
      5.751  0.2022E+01  0.2021E+01  0.8721E+01  0.8723E+01
      5.905  0.1406E+01  0.1401E+01  0.8937E+01  0.8938E+01
      6.058  0.1029E+01  0.1028E+01  0.9095E+01  0.9096E+01
      6.211  0.7816E+00  0.7799E+00  0.9216E+01  0.9216E+01
      6.364  0.7908E+00  0.7926E+00  0.9337E+01  0.9338E+01
      6.518  0.7873E+00  0.7853E+00  0.9458E+01  0.9459E+01
      6.671  0.5131E+00  0.5124E+00  0.9537E+01  0.9538E+01
      6.824  0.5949E+00  0.5957E+00  0.9629E+01  0.9629E+01
      6.977  0.6347E+00  0.6347E+00  0.9726E+01  0.9727E+01
      7.131  0.7269E+00  0.7276E+00  0.9838E+01  0.9838E+01
      7.284  0.6117E+00  0.6100E+00  0.9932E+01  0.9932E+01
      7.437  0.5851E+00  0.5857E+00  0.1002E+02  0.1002E+02
      7.591  0.6689E+00  0.6697E+00  0.1012E+02  0.1012E+02
      7.744  0.7239E+00  0.7224E+00  0.1024E+02  0.1024E+02
      7.897  0.5920E+00  0.5928E+00  0.1033E+02  0.1033E+02
      8.050  0.8891E+00  0.8902E+00  0.1046E+02  0.1046E+02
      8.204  0.7177E+00  0.7162E+00  0.1057E+02  0.1057E+02
      8.357  0.8445E+00  0.8464E+00  0.1070E+02  0.1070E+02
      8.510  0.1053E+01  0.1054E+01  0.1086E+02  0.1087E+02
      8.663  0.1086E+01  0.1085E+01  0.1103E+02  0.1103E+02
      8.817  0.8473E+00  0.8463E+00  0.1116E+02  0.1116E+02
      8.970  0.7777E+00  0.7781E+00  0.1128E+02  0.1128E+02
      9.123  0.9842E+00  0.9859E+00  0.1143E+02  0.1143E+02
      9.277  0.1046E+01  0.1045E+01  0.1159E+02  0.1159E+02
      9.430  0.7686E+00  0.7676E+00  0.1171E+02  0.1171E+02
      9.583  0.6621E+00  0.6620E+00  0.1181E+02  0.1181E+02
      9.736  0.8247E+00  0.8254E+00  0.1194E+02  0.1194E+02
      9.890  0.7732E+00  0.7727E+00  0.1206E+02  0.1206E+02
     10.043  0.7639E+00  0.7644E+00  0.1218E+02  0.1218E+02
     10.196  0.7798E+00  0.7808E+00  0.1230E+02  0.1230E+02
     10.349  0.9537E+00  0.9535E+00  0.1244E+02  0.1244E+02
     10.503  0.1037E+01  0.1038E+01  0.1260E+02  0.1260E+02
     10.656  0.1206E+01  0.1207E+01  0.1279E+02  0.1279E+02
     10.809  0.1281E+01  0.1280E+01  0.1298E+02  0.1298E+02
     10.963  0.1296E+01  0.1296E+01  0.1318E+02  0.1318E+02
     11.116  0.1305E+01  0.1306E+01  0.1338E+02  0.1338E+02
     11.269  0.1328E+01  0.1327E+01  0.1359E+02  0.1359E+02
     11.422  0.1271E+01  0.1269E+01  0.1378E+02  0.1378E+02
     11.576  0.1353E+01  0.1355E+01  0.1399E+02  0.1399E+02
     11.729  0.1336E+01  0.1333E+01  0.1419E+02  0.1419E+02
     11.882  0.1284E+01  0.1285E+01  0.1439E+02  0.1439E+02
     12.035  0.1128E+01  0.1128E+01  0.1456E+02  0.1457E+02
     12.189  0.1050E+01  0.1050E+01  0.1473E+02  0.1473E+02
     12.342  0.1157E+01  0.1163E+01  0.1490E+02  0.1491E+02
     12.495  0.1424E+01  0.1417E+01  0.1512E+02  0.1512E+02
     12.649  0.1079E+01  0.1103E+01  0.1529E+02  0.1529E+02
     12.802  0.1168E+01  0.1165E+01  0.1547E+02  0.1547E+02
     12.955  0.1271E+01  0.1257E+01  0.1566E+02  0.1566E+02
     13.108  0.7618E+00  0.7523E+00  0.1578E+02  0.1578E+02
     13.262  0.3924E+00  0.3828E+00  0.1584E+02  0.1584E+02
     13.415  0.1561E+00  0.1610E+00  0.1586E+02  0.1586E+02
     13.568  0.2195E+00  0.2134E+00  0.1590E+02  0.1590E+02
     13.721  0.2083E+00  0.2260E+00  0.1593E+02  0.1593E+02
     13.875  0.6228E-01  0.5474E-01  0.1594E+02  0.1594E+02
     14.028  0.3691E-01  0.3370E-01  0.1595E+02  0.1595E+02
     14.181  0.9797E-01  0.9498E-01  0.1596E+02  0.1596E+02
     14.335  0.1159E+00  0.1229E+00  0.1598E+02  0.1598E+02
     14.488  0.8096E-01  0.7863E-01  0.1599E+02  0.1599E+02
     14.641  0.2241E-01  0.2226E-01  0.1599E+02  0.1599E+02
     14.794  0.2941E-01  0.2939E-01  0.1600E+02  0.1600E+02
     14.948  0.5140E-02  0.5125E-02  0.1600E+02  0.1600E+02
     15.101  0.0000E+00  0.0000E+00  0.1600E+02  0.1600E+02
     15.254  0.0000E+00  0.0000E+00  0.1600E+02  0.1600E+02
     15.407  0.0000E+00  0.0000E+00  0.1600E+02  0.1600E+02
     15.561  0.0000E+00  0.0000E+00  0.1600E+02  0.1600E+02
     15.714  0.0000E+00  0.0000E+00  0.1600E+02  0.1600E+02
     15.867  0.0000E+00  0.0000E+00  0.1600E+02  0.1600E+02
     16.021  0.0000E+00  0.0000E+00  0.1600E+02  0.1600E+02
     16.174  0.0000E+00  0.0000E+00  0.1600E+02  0.1600E+02
     16.327  0.0000E+00  0.0000E+00  0.1600E+02  0.1600E+02
     16.480  0.0000E+00  0.0000E+00  0.1600E+02  0.1600E+02
     16.634  0.0000E+00  0.0000E+00  0.1600E+02  0.1600E+02
     16.787  0.0000E+00  0.0000E+00  0.1600E+02  0.1600E+02
     16.78688517    -29.19468793  301      6.59469185      1.00000000
    -29.195  0.0000E+00  0.0000E+00  0.0000E+00  0.0000E+00  0.0000E+00  0.0000E+00  0.0000E+00  0.0000E+00  0.0000E+00  0.0000E+00  0.0000E+00  0.0000E+00  0.0000E+00  0.0000E+00  0.0000E+00  0.0000E+00  0.0000E+00  0.0000E+00
    -29.041  0.0000E+00  0.0000E+00  0.0000E+00  0.0000E+00  0.0000E+00  0.0000E+00  0.0000E+00  0.0000E+00  0.0000E+00  0.0000E+00  0.0000E+00  0.0000E+00  0.0000E+00  0.0000E+00  0.0000E+00  0.0000E+00  0.0000E+00  0.0000E+00
    -28.888  0.0000E+00  0.0000E+00  0.0000E+00  0.0000E+00  0.0000E+00  0.0000E+00  0.0000E+00  0.0000E+00  0.0000E+00  0.0000E+00  0.0000E+00  0.0000E+00  0.0000E+00  0.0000E+00  0.0000E+00  0.0000E+00  0.0000E+00  0.0000E+00
    -28.735  0.0000E+00  0.0000E+00  0.0000E+00  0.0000E+00  0.0000E+00  0.0000E+00  0.0000E+00  0.0000E+00  0.0000E+00  0.0000E+00  0.0000E+00  0.0000E+00  0.0000E+00  0.0000E+00  0.0000E+00  0.0000E+00  0.0000E+00  0.0000E+00
    -28.582  0.0000E+00  0.0000E+00  0.0000E+00  0.0000E+00  0.0000E+00  0.0000E+00  0.0000E+00  0.0000E+00  0.0000E+00  0.0000E+00  0.0000E+00  0.0000E+00  0.0000E+00  0.0000E+00  0.0000E+00  0.0000E+00  0.0000E+00  0.0000E+00
    -28.428  0.0000E+00  0.0000E+00  0.0000E+00  0.0000E+00  0.0000E+00  0.0000E+00  0.0000E+00  0.0000E+00  0.0000E+00  0.0000E+00  0.0000E+00  0.0000E+00  0.0000E+00  0.0000E+00  0.0000E+00  0.0000E+00  0.0000E+00  0.0000E+00
    -28.275  0.0000E+00  0.0000E+00  0.0000E+00  0.0000E+00  0.0000E+00  0.0000E+00  0.0000E+00  0.0000E+00  0.0000E+00  0.0000E+00  0.0000E+00  0.0000E+00  0.0000E+00  0.0000E+00  0.0000E+00  0.0000E+00  0.0000E+00  0.0000E+00
    -28.122  0.0000E+00  0.0000E+00  0.0000E+00  0.0000E+00  0.0000E+00  0.0000E+00  0.0000E+00  0.0000E+00  0.0000E+00  0.0000E+00  0.0000E+00  0.0000E+00  0.0000E+00  0.0000E+00  0.0000E+00  0.0000E+00  0.0000E+00  0.0000E+00
    -27.969  0.0000E+00  0.0000E+00  0.0000E+00  0.0000E+00  0.0000E+00  0.0000E+00  0.0000E+00  0.0000E+00  0.0000E+00  0.0000E+00  0.0000E+00  0.0000E+00  0.0000E+00  0.0000E+00  0.0000E+00  0.0000E+00  0.0000E+00  0.0000E+00
    -27.815  0.0000E+00  0.0000E+00  0.0000E+00  0.0000E+00  0.0000E+00  0.0000E+00  0.0000E+00  0.0000E+00  0.0000E+00  0.0000E+00  0.0000E+00  0.0000E+00  0.0000E+00  0.0000E+00  0.0000E+00  0.0000E+00  0.0000E+00  0.0000E+00
    -27.662  0.0000E+00  0.0000E+00  0.0000E+00  0.0000E+00  0.0000E+00  0.0000E+00  0.0000E+00  0.0000E+00  0.0000E+00  0.0000E+00  0.0000E+00  0.0000E+00  0.0000E+00  0.0000E+00  0.0000E+00  0.0000E+00  0.0000E+00  0.0000E+00
    -27.509  0.1365E-02  0.1381E-02  0.2919E-09  0.2958E-09  0.2919E-09  0.2958E-09  0.2941E-09  0.2981E-09  0.1006E-12  0.1656E-12  0.1040E-12  0.1653E-12  0.1523E-09  0.1520E-09  0.1006E-12  0.1656E-12  0.1557E-09  0.1556E-09
    -27.355  0.2777E-01  0.2809E-01  0.5940E-08  0.6019E-08  0.5940E-08  0.6019E-08  0.5985E-08  0.6066E-08  0.2046E-11  0.3371E-11  0.2115E-11  0.3364E-11  0.3099E-08  0.3094E-08  0.2046E-11  0.3371E-11  0.3169E-08  0.3165E-08
    -27.202  0.5411E+00  0.5469E+00  0.1158E-06  0.1172E-06  0.1158E-06  0.1172E-06  0.1166E-06  0.1181E-06  0.3989E-10  0.6577E-10  0.4123E-10  0.6565E-10  0.6051E-07  0.6034E-07  0.3989E-10  0.6577E-10  0.6181E-07  0.6166E-07
    -27.049  0.3728E+01  0.3738E+01  0.7954E-06  0.7987E-06  0.7954E-06  0.7987E-06  0.8013E-06  0.8049E-06  0.2743E-09  0.4559E-09  0.2836E-09  0.4552E-09  0.4208E-06  0.4160E-06  0.2743E-09  0.4559E-09  0.4261E-06  0.4213E-06
    -26.896  0.1919E+01  0.1904E+01  0.4067E-06  0.4042E-06  0.4067E-06  0.4042E-06  0.4098E-06  0.4073E-06  0.1401E-09  0.2353E-09  0.1450E-09  0.2351E-09  0.2174E-06  0.2124E-06  0.1401E-09  0.2353E-09  0.2175E-06  0.2126E-06
    -26.742  0.1330E+00  0.1315E+00  0.2811E-07  0.2782E-07  0.2811E-07  0.2782E-07  0.2832E-07  0.2804E-07  0.9678E-11  0.1630E-10  0.1001E-10  0.1629E-10  0.1504E-07  0.1464E-07  0.9678E-11  0.1630E-10  0.1499E-07  0.1459E-07
    -26.589  0.0000E+00  0.0000E+00  0.0000E+00  0.0000E+00  0.0000E+00  0.0000E+00  0.0000E+00  0.0000E+00  0.0000E+00  0.0000E+00  0.0000E+00  0.0000E+00  0.0000E+00  0.0000E+00  0.0000E+00  0.0000E+00  0.0000E+00  0.0000E+00
    -26.436  0.0000E+00  0.0000E+00  0.0000E+00  0.0000E+00  0.0000E+00  0.0000E+00  0.0000E+00  0.0000E+00  0.0000E+00  0.0000E+00  0.0000E+00  0.0000E+00  0.0000E+00  0.0000E+00  0.0000E+00  0.0000E+00  0.0000E+00  0.0000E+00
    -26.283  0.0000E+00  0.0000E+00  0.0000E+00  0.0000E+00  0.0000E+00  0.0000E+00  0.0000E+00  0.0000E+00  0.0000E+00  0.0000E+00  0.0000E+00  0.0000E+00  0.0000E+00  0.0000E+00  0.0000E+00  0.0000E+00  0.0000E+00  0.0000E+00
    -26.129  0.0000E+00  0.0000E+00  0.0000E+00  0.0000E+00  0.0000E+00  0.0000E+00  0.0000E+00  0.0000E+00  0.0000E+00  0.0000E+00  0.0000E+00  0.0000E+00  0.0000E+00  0.0000E+00  0.0000E+00  0.0000E+00  0.0000E+00  0.0000E+00
    -25.976  0.0000E+00  0.0000E+00  0.0000E+00  0.0000E+00  0.0000E+00  0.0000E+00  0.0000E+00  0.0000E+00  0.0000E+00  0.0000E+00  0.0000E+00  0.0000E+00  0.0000E+00  0.0000E+00  0.0000E+00  0.0000E+00  0.0000E+00  0.0000E+00
    -25.823  0.0000E+00  0.0000E+00  0.0000E+00  0.0000E+00  0.0000E+00  0.0000E+00  0.0000E+00  0.0000E+00  0.0000E+00  0.0000E+00  0.0000E+00  0.0000E+00  0.0000E+00  0.0000E+00  0.0000E+00  0.0000E+00  0.0000E+00  0.0000E+00
    -25.669  0.0000E+00  0.0000E+00  0.0000E+00  0.0000E+00  0.0000E+00  0.0000E+00  0.0000E+00  0.0000E+00  0.0000E+00  0.0000E+00  0.0000E+00  0.0000E+00  0.0000E+00  0.0000E+00  0.0000E+00  0.0000E+00  0.0000E+00  0.0000E+00
    -25.516  0.0000E+00  0.0000E+00  0.0000E+00  0.0000E+00  0.0000E+00  0.0000E+00  0.0000E+00  0.0000E+00  0.0000E+00  0.0000E+00  0.0000E+00  0.0000E+00  0.0000E+00  0.0000E+00  0.0000E+00  0.0000E+00  0.0000E+00  0.0000E+00
    -25.363  0.0000E+00  0.0000E+00  0.0000E+00  0.0000E+00  0.0000E+00  0.0000E+00  0.0000E+00  0.0000E+00  0.0000E+00  0.0000E+00  0.0000E+00  0.0000E+00  0.0000E+00  0.0000E+00  0.0000E+00  0.0000E+00  0.0000E+00  0.0000E+00
    -25.210  0.0000E+00  0.0000E+00  0.0000E+00  0.0000E+00  0.0000E+00  0.0000E+00  0.0000E+00  0.0000E+00  0.0000E+00  0.0000E+00  0.0000E+00  0.0000E+00  0.0000E+00  0.0000E+00  0.0000E+00  0.0000E+00  0.0000E+00  0.0000E+00
    -25.056  0.0000E+00  0.0000E+00  0.0000E+00  0.0000E+00  0.0000E+00  0.0000E+00  0.0000E+00  0.0000E+00  0.0000E+00  0.0000E+00  0.0000E+00  0.0000E+00  0.0000E+00  0.0000E+00  0.0000E+00  0.0000E+00  0.0000E+00  0.0000E+00
    -24.903  0.0000E+00  0.0000E+00  0.0000E+00  0.0000E+00  0.0000E+00  0.0000E+00  0.0000E+00  0.0000E+00  0.0000E+00  0.0000E+00  0.0000E+00  0.0000E+00  0.0000E+00  0.0000E+00  0.0000E+00  0.0000E+00  0.0000E+00  0.0000E+00
    -24.750  0.0000E+00  0.0000E+00  0.0000E+00  0.0000E+00  0.0000E+00  0.0000E+00  0.0000E+00  0.0000E+00  0.0000E+00  0.0000E+00  0.0000E+00  0.0000E+00  0.0000E+00  0.0000E+00  0.0000E+00  0.0000E+00  0.0000E+00  0.0000E+00
    -24.597  0.0000E+00  0.0000E+00  0.0000E+00  0.0000E+00  0.0000E+00  0.0000E+00  0.0000E+00  0.0000E+00  0.0000E+00  0.0000E+00  0.0000E+00  0.0000E+00  0.0000E+00  0.0000E+00  0.0000E+00  0.0000E+00  0.0000E+00  0.0000E+00
    -24.443  0.0000E+00  0.0000E+00  0.0000E+00  0.0000E+00  0.0000E+00  0.0000E+00  0.0000E+00  0.0000E+00  0.0000E+00  0.0000E+00  0.0000E+00  0.0000E+00  0.0000E+00  0.0000E+00  0.0000E+00  0.0000E+00  0.0000E+00  0.0000E+00
    -24.290  0.0000E+00  0.0000E+00  0.0000E+00  0.0000E+00  0.0000E+00  0.0000E+00  0.0000E+00  0.0000E+00  0.0000E+00  0.0000E+00  0.0000E+00  0.0000E+00  0.0000E+00  0.0000E+00  0.0000E+00  0.0000E+00  0.0000E+00  0.0000E+00
    -24.137  0.0000E+00  0.0000E+00  0.0000E+00  0.0000E+00  0.0000E+00  0.0000E+00  0.0000E+00  0.0000E+00  0.0000E+00  0.0000E+00  0.0000E+00  0.0000E+00  0.0000E+00  0.0000E+00  0.0000E+00  0.0000E+00  0.0000E+00  0.0000E+00
    -23.983  0.0000E+00  0.0000E+00  0.0000E+00  0.0000E+00  0.0000E+00  0.0000E+00  0.0000E+00  0.0000E+00  0.0000E+00  0.0000E+00  0.0000E+00  0.0000E+00  0.0000E+00  0.0000E+00  0.0000E+00  0.0000E+00  0.0000E+00  0.0000E+00
    -23.830  0.0000E+00  0.0000E+00  0.0000E+00  0.0000E+00  0.0000E+00  0.0000E+00  0.0000E+00  0.0000E+00  0.0000E+00  0.0000E+00  0.0000E+00  0.0000E+00  0.0000E+00  0.0000E+00  0.0000E+00  0.0000E+00  0.0000E+00  0.0000E+00
    -23.677  0.0000E+00  0.0000E+00  0.0000E+00  0.0000E+00  0.0000E+00  0.0000E+00  0.0000E+00  0.0000E+00  0.0000E+00  0.0000E+00  0.0000E+00  0.0000E+00  0.0000E+00  0.0000E+00  0.0000E+00  0.0000E+00  0.0000E+00  0.0000E+00
    -23.524  0.0000E+00  0.0000E+00  0.0000E+00  0.0000E+00  0.0000E+00  0.0000E+00  0.0000E+00  0.0000E+00  0.0000E+00  0.0000E+00  0.0000E+00  0.0000E+00  0.0000E+00  0.0000E+00  0.0000E+00  0.0000E+00  0.0000E+00  0.0000E+00
    -23.370  0.0000E+00  0.0000E+00  0.0000E+00  0.0000E+00  0.0000E+00  0.0000E+00  0.0000E+00  0.0000E+00  0.0000E+00  0.0000E+00  0.0000E+00  0.0000E+00  0.0000E+00  0.0000E+00  0.0000E+00  0.0000E+00  0.0000E+00  0.0000E+00
    -23.217  0.0000E+00  0.0000E+00  0.0000E+00  0.0000E+00  0.0000E+00  0.0000E+00  0.0000E+00  0.0000E+00  0.0000E+00  0.0000E+00  0.0000E+00  0.0000E+00  0.0000E+00  0.0000E+00  0.0000E+00  0.0000E+00  0.0000E+00  0.0000E+00
    -23.064  0.0000E+00  0.0000E+00  0.0000E+00  0.0000E+00  0.0000E+00  0.0000E+00  0.0000E+00  0.0000E+00  0.0000E+00  0.0000E+00  0.0000E+00  0.0000E+00  0.0000E+00  0.0000E+00  0.0000E+00  0.0000E+00  0.0000E+00  0.0000E+00
    -22.911  0.0000E+00  0.0000E+00  0.0000E+00  0.0000E+00  0.0000E+00  0.0000E+00  0.0000E+00  0.0000E+00  0.0000E+00  0.0000E+00  0.0000E+00  0.0000E+00  0.0000E+00  0.0000E+00  0.0000E+00  0.0000E+00  0.0000E+00  0.0000E+00
    -22.757  0.0000E+00  0.0000E+00  0.0000E+00  0.0000E+00  0.0000E+00  0.0000E+00  0.0000E+00  0.0000E+00  0.0000E+00  0.0000E+00  0.0000E+00  0.0000E+00  0.0000E+00  0.0000E+00  0.0000E+00  0.0000E+00  0.0000E+00  0.0000E+00
    -22.604  0.0000E+00  0.0000E+00  0.0000E+00  0.0000E+00  0.0000E+00  0.0000E+00  0.0000E+00  0.0000E+00  0.0000E+00  0.0000E+00  0.0000E+00  0.0000E+00  0.0000E+00  0.0000E+00  0.0000E+00  0.0000E+00  0.0000E+00  0.0000E+00
    -22.451  0.0000E+00  0.0000E+00  0.0000E+00  0.0000E+00  0.0000E+00  0.0000E+00  0.0000E+00  0.0000E+00  0.0000E+00  0.0000E+00  0.0000E+00  0.0000E+00  0.0000E+00  0.0000E+00  0.0000E+00  0.0000E+00  0.0000E+00  0.0000E+00
    -22.297  0.0000E+00  0.0000E+00  0.0000E+00  0.0000E+00  0.0000E+00  0.0000E+00  0.0000E+00  0.0000E+00  0.0000E+00  0.0000E+00  0.0000E+00  0.0000E+00  0.0000E+00  0.0000E+00  0.0000E+00  0.0000E+00  0.0000E+00  0.0000E+00
    -22.144  0.0000E+00  0.0000E+00  0.0000E+00  0.0000E+00  0.0000E+00  0.0000E+00  0.0000E+00  0.0000E+00  0.0000E+00  0.0000E+00  0.0000E+00  0.0000E+00  0.0000E+00  0.0000E+00  0.0000E+00  0.0000E+00  0.0000E+00  0.0000E+00
    -21.991  0.0000E+00  0.0000E+00  0.0000E+00  0.0000E+00  0.0000E+00  0.0000E+00  0.0000E+00  0.0000E+00  0.0000E+00  0.0000E+00  0.0000E+00  0.0000E+00  0.0000E+00  0.0000E+00  0.0000E+00  0.0000E+00  0.0000E+00  0.0000E+00
    -21.838  0.0000E+00  0.0000E+00  0.0000E+00  0.0000E+00  0.0000E+00  0.0000E+00  0.0000E+00  0.0000E+00  0.0000E+00  0.0000E+00  0.0000E+00  0.0000E+00  0.0000E+00  0.0000E+00  0.0000E+00  0.0000E+00  0.0000E+00  0.0000E+00
    -21.684  0.0000E+00  0.0000E+00  0.0000E+00  0.0000E+00  0.0000E+00  0.0000E+00  0.0000E+00  0.0000E+00  0.0000E+00  0.0000E+00  0.0000E+00  0.0000E+00  0.0000E+00  0.0000E+00  0.0000E+00  0.0000E+00  0.0000E+00  0.0000E+00
    -21.531  0.0000E+00  0.0000E+00  0.0000E+00  0.0000E+00  0.0000E+00  0.0000E+00  0.0000E+00  0.0000E+00  0.0000E+00  0.0000E+00  0.0000E+00  0.0000E+00  0.0000E+00  0.0000E+00  0.0000E+00  0.0000E+00  0.0000E+00  0.0000E+00