   4   4   1   0
  0.2667137E+02  0.4741748E-09  0.4743331E-09  0.4743331E-09  0.5000000E-15
  1.000000000000000E-004
  CAR 
 unknown system                          
     11.80644310    -33.08783561  301      3.76273362      1.00000000
    -33.088  0.0000E+00  0.0000E+00  0.0000E+00  0.0000E+00
    -32.938  0.0000E+00  0.0000E+00  0.0000E+00  0.0000E+00
    -32.789  0.0000E+00  0.0000E+00  0.0000E+00  0.0000E+00
    -32.639  0.0000E+00  0.0000E+00  0.0000E+00  0.0000E+00
    -32.489  0.0000E+00  0.0000E+00  0.0000E+00  0.0000E+00
    -32.340  0.0000E+00  0.0000E+00  0.0000E+00  0.0000E+00
    -32.190  0.0000E+00  0.0000E+00  0.0000E+00  0.0000E+00
    -32.040  0.0000E+00  0.0000E+00  0.0000E+00  0.0000E+00
    -31.891  0.0000E+00  0.0000E+00  0.0000E+00  0.0000E+00
    -31.741  0.0000E+00  0.0000E+00  0.0000E+00  0.0000E+00
    -31.591  0.1187E-03  0.1201E-03  0.1777E-04  0.1797E-04
    -31.442  0.2249E-02  0.2274E-02  0.3543E-03  0.3582E-03
    -31.292  0.4453E-01  0.4503E-01  0.7018E-02  0.7096E-02
    -31.142  0.7787E+00  0.7862E+00  0.1235E+00  0.1248E+00
    -30.993  0.4103E+01  0.4110E+01  0.7376E+00  0.7397E+00
    -30.843  0.1636E+01  0.1623E+01  0.9825E+00  0.9827E+00
    -30.693  0.1111E+00  0.1099E+00  0.9991E+00  0.9991E+00
    -30.544  0.0000E+00  0.0000E+00  0.1000E+01  0.1000E+01
    -30.394  0.0000E+00  0.0000E+00  0.1000E+01  0.1000E+01
    -30.245  0.0000E+00  0.0000E+00  0.1000E+01  0.1000E+01
    -30.095  0.0000E+00  0.0000E+00  0.1000E+01  0.1000E+01
    -29.945  0.0000E+00  0.0000E+00  0.1000E+01  0.1000E+01
    -29.796  0.0000E+00  0.0000E+00  0.1000E+01  0.1000E+01
    -29.646  0.0000E+00  0.0000E+00  0.1000E+01  0.1000E+01
    -29.496  0.0000E+00  0.0000E+00  0.1000E+01  0.1000E+01
    -29.347  0.0000E+00  0.0000E+00  0.1000E+01  0.1000E+01
    -29.197  0.0000E+00  0.0000E+00  0.1000E+01  0.1000E+01
    -29.047  0.0000E+00  0.0000E+00  0.1000E+01  0.1000E+01
    -28.898  0.0000E+00  0.0000E+00  0.1000E+01  0.1000E+01
    -28.748  0.0000E+00  0.0000E+00  0.1000E+01  0.1000E+01
    -28.598  0.0000E+00  0.0000E+00  0.1000E+01  0.1000E+01
    -28.449  0.0000E+00  0.0000E+00  0.1000E+01  0.1000E+01
    -28.299  0.0000E+00  0.0000E+00  0.1000E+01  0.1000E+01
    -28.149  0.0000E+00  0.0000E+00  0.1000E+01  0.1000E+01
    -28.000  0.0000E+00  0.0000E+00  0.1000E+01  0.1000E+01
    -27.850  0.0000E+00  0.0000E+00  0.1000E+01  0.1000E+01
    -27.701  0.0000E+00  0.0000E+00  0.1000E+01  0.1000E+01
    -27.551  0.0000E+00  0.0000E+00  0.1000E+01  0.1000E+01
    -27.401  0.0000E+00  0.0000E+00  0.1000E+01  0.1000E+01
    -27.252  0.0000E+00  0.0000E+00  0.1000E+01  0.1000E+01
    -27.102  0.0000E+00  0.0000E+00  0.1000E+01  0.1000E+01
    -26.952  0.0000E+00  0.0000E+00  0.1000E+01  0.1000E+01
    -26.803  0.0000E+00  0.0000E+00  0.1000E+01  0.1000E+01
    -26.653  0.0000E+00  0.0000E+00  0.1000E+01  0.1000E+01
    -26.503  0.0000E+00  0.0000E+00  0.1000E+01  0.1000E+01
    -26.354  0.0000E+00  0.0000E+00  0.1000E+01  0.1000E+01
    -26.204  0.0000E+00  0.0000E+00  0.1000E+01  0.1000E+01
    -26.054  0.0000E+00  0.0000E+00  0.1000E+01  0.1000E+01
    -25.905  0.0000E+00  0.0000E+00  0.1000E+01  0.1000E+01
    -25.755  0.0000E+00  0.0000E+00  0.1000E+01  0.1000E+01
    -25.605  0.0000E+00  0.0000E+00  0.1000E+01  0.1000E+01
    -25.456  0.0000E+00  0.0000E+00  0.1000E+01  0.1000E+01
    -25.306  0.0000E+00  0.0000E+00  0.1000E+01  0.1000E+01
    -25.157  0.0000E+00  0.0000E+00  0.1000E+01  0.1000E+01
    -25.007  0.0000E+00  0.0000E+00  0.1000E+01  0.1000E+01
    -24.857  0.0000E+00  0.0000E+00  0.1000E+01  0.1000E+01
    -24.708  0.0000E+00  0.0000E+00  0.1000E+01  0.1000E+01
    -24.558  0.0000E+00  0.0000E+00  0.1000E+01  0.1000E+01
    -24.408  0.0000E+00  0.0000E+00  0.1000E+01  0.1000E+01
    -24.259  0.0000E+00  0.0000E+00  0.1000E+01  0.1000E+01
    -24.109  0.0000E+00  0.0000E+00  0.1000E+01  0.1000E+01
    -23.959  0.0000E+00  0.0000E+00  0.1000E+01  0.1000E+01
    -23.810  0.0000E+00  0.0000E+00  0.1000E+01  0.1000E+01
    -23.660  0.0000E+00  0.0000E+00  0.1000E+01  0.1000E+01
    -23.510  0.0000E+00  0.0000E+00  0.1000E+01  0.1000E+01
    -23.361  0.0000E+00  0.0000E+00  0.1000E+01  0.1000E+01
    -23.211  0.0000E+00  0.0000E+00  0.1000E+01  0.1000E+01
    -23.061  0.0000E+00  0.0000E+00  0.1000E+01  0.1000E+01
    -22.912  0.0000E+00  0.0000E+00  0.1000E+01  0.1000E+01
    -22.762  0.0000E+00  0.0000E+00  0.1000E+01  0.1000E+01
    -22.613  0.0000E+00  0.0000E+00  0.1000E+01  0.1000E+01
    -22.463  0.0000E+00  0.0000E+00  0.1000E+01  0.1000E+01
    -22.313  0.0000E+00  0.0000E+00  0.1000E+01  0.1000E+01
    -22.164  0.0000E+00  0.0000E+00  0.1000E+01  0.1000E+01
    -22.014  0.0000E+00  0.0000E+00  0.1000E+01  0.1000E+01
    -21.864  0.0000E+00  0.0000E+00  0.1000E+01  0.1000E+01
    -21.715  0.0000E+00  0.0000E+00  0.1000E+01  0.1000E+01
    -21.565  0.0000E+00  0.0000E+00  0.1000E+01  0.1000E+01
    -21.415  0.0000E+00  0.0000E+00  0.1000E+01  0.1000E+01
    -21.266  0.0000E+00  0.0000E+00  0.1000E+01  0.1000E+01
    -21.116  0.0000E+00  0.0000E+00  0.1000E+01  0.1000E+01
    -20.966  0.0000E+00  0.0000E+00  0.1000E+01  0.1000E+01
    -20.817  0.0000E+00  0.0000E+00  0.1000E+01  0.1000E+01
    -20.667  0.0000E+00  0.0000E+00  0.1000E+01  0.1000E+01
    -20.517  0.0000E+00  0.0000E+00  0.1000E+01  0.1000E+01
    -20.368  0.0000E+00  0.0000E+00  0.1000E+01  0.1000E+01
    -20.218  0.0000E+00  0.0000E+00  0.1000E+01  0.1000E+01
    -20.068  0.0000E+00  0.0000E+00  0.1000E+01  0.1000E+01
    -19.919  0.0000E+00  0.0000E+00  0.1000E+01  0.1000E+01
    -19.769  0.0000E+00  0.0000E+00  0.1000E+01  0.1000E+01
    -19.620  0.0000E+00  0.0000E+00  0.1000E+01  0.1000E+01
    -19.470  0.0000E+00  0.0000E+00  0.1000E+01  0.1000E+01
    -19.320  0.0000E+00  0.0000E+00  0.1000E+01  0.1000E+01
    -19.171  0.0000E+00  0.0000E+00  0.1000E+01  0.1000E+01
    -19.021  0.0000E+00  0.0000E+00  0.1000E+01  0.1000E+01
    -18.871  0.0000E+00  0.0000E+00  0.1000E+01  0.1000E+01
    -18.722  0.0000E+00  0.0000E+00  0.1000E+01  0.1000E+01
    -18.572  0.0000E+00  0.0000E+00  0.1000E+01  0.1000E+01
    -18.422  0.0000E+00  0.0000E+00  0.1000E+01  0.1000E+01
    -18.273  0.0000E+00  0.0000E+00  0.1000E+01  0.1000E+01
    -18.123  0.0000E+00  0.0000E+00  0.1000E+01  0.1000E+01
    -17.973  0.0000E+00  0.0000E+00  0.1000E+01  0.1000E+01
    -17.824  0.0000E+00  0.0000E+00  0.1000E+01  0.1000E+01
    -17.674  0.0000E+00  0.0000E+00  0.1000E+01  0.1000E+01
    -17.524  0.0000E+00  0.0000E+00  0.1000E+01  0.1000E+01
    -17.375  0.0000E+00  0.0000E+00  0.1000E+01  0.1000E+01
    -17.225  0.0000E+00  0.0000E+00  0.1000E+01  0.1000E+01
    -17.076  0.0000E+00  0.0000E+00  0.1000E+01  0.1000E+01
    -16.926  0.0000E+00  0.0000E+00  0.1000E+01  0.1000E+01
    -16.776  0.0000E+00  0.0000E+00  0.1000E+01  0.1000E+01
    -16.627  0.0000E+00  0.0000E+00  0.1000E+01  0.1000E+01
    -16.477  0.0000E+00  0.0000E+00  0.1000E+01  0.1000E+01
    -16.327  0.0000E+00  0.0000E+00  0.1000E+01  0.1000E+01
    -16.178  0.0000E+00  0.0000E+00  0.1000E+01  0.1000E+01
    -16.028  0.0000E+00  0.0000E+00  0.1000E+01  0.1000E+01
    -15.878  0.0000E+00  0.0000E+00  0.1000E+01  0.1000E+01
    -15.729  0.0000E+00  0.0000E+00  0.1000E+01  0.1000E+01
    -15.579  0.0000E+00  0.0000E+00  0.1000E+01  0.1000E+01
    -15.429  0.0000E+00  0.0000E+00  0.1000E+01  0.1000E+01
    -15.280  0.0000E+00  0.0000E+00  0.1000E+01  0.1000E+01
    -15.130  0.0000E+00  0.0000E+00  0.1000E+01  0.1000E+01
    -14.980  0.0000E+00  0.0000E+00  0.1000E+01  0.1000E+01
    -14.831  0.0000E+00  0.0000E+00  0.1000E+01  0.1000E+01
    -14.681  0.0000E+00  0.0000E+00  0.1000E+01  0.1000E+01
    -14.532  0.0000E+00  0.0000E+00  0.1000E+01  0.1000E+01
    -14.382  0.0000E+00  0.0000E+00  0.1000E+01  0.1000E+01
    -14.232  0.0000E+00  0.0000E+00  0.1000E+01  0.1000E+01
    -14.083  0.0000E+00  0.0000E+00  0.1000E+01  0.1000E+01
    -13.933  0.0000E+00  0.0000E+00  0.1000E+01  0.1000E+01
    -13.783  0.0000E+00  0.0000E+00  0.1000E+01  0.1000E+01
    -13.634  0.1686E-02  0.1691E-02  0.1000E+01  0.1000E+01
    -13.484  0.3187E-01  0.3197E-01  0.1005E+01  0.1005E+01
    -13.334  0.6117E+00  0.6134E+00  0.1097E+01  0.1097E+01
    -13.185  0.7035E+01  0.7046E+01  0.2149E+01  0.2151E+01
    -13.035  0.1073E+02  0.1072E+02  0.3754E+01  0.3755E+01
    -12.885  0.1552E+01  0.1547E+01  0.3986E+01  0.3986E+01
    -12.736  0.2751E-01  0.2744E-01  0.4000E+01  0.4000E+01
    -12.586  0.0000E+00  0.0000E+00  0.4000E+01  0.4000E+01
    -12.436  0.0000E+00  0.0000E+00  0.4000E+01  0.4000E+01
    -12.287  0.0000E+00  0.0000E+00  0.4000E+01  0.4000E+01
    -12.137  0.0000E+00  0.0000E+00  0.4000E+01  0.4000E+01
    -11.988  0.0000E+00  0.0000E+00  0.4000E+01  0.4000E+01
    -11.838  0.0000E+00  0.0000E+00  0.4000E+01  0.4000E+01
    -11.688  0.0000E+00  0.0000E+00  0.4000E+01  0.4000E+01
    -11.539  0.0000E+00  0.0000E+00  0.4000E+01  0.4000E+01
    -11.389  0.0000E+00  0.0000E+00  0.4000E+01  0.4000E+01
    -11.239  0.0000E+00  0.0000E+00  0.4000E+01  0.4000E+01
    -11.090  0.0000E+00  0.0000E+00  0.4000E+01  0.4000E+01
    -10.940  0.0000E+00  0.0000E+00  0.4000E+01  0.4000E+01
    -10.790  0.0000E+00  0.0000E+00  0.4000E+01  0.4000E+01
    -10.641  0.0000E+00  0.0000E+00  0.4000E+01  0.4000E+01
    -10.491  0.0000E+00  0.0000E+00  0.4000E+01  0.4000E+01
    -10.341  0.0000E+00  0.0000E+00  0.4000E+01  0.4000E+01
    -10.192  0.0000E+00  0.0000E+00  0.4000E+01  0.4000E+01
    -10.042  0.0000E+00  0.0000E+00  0.4000E+01  0.4000E+01
     -9.892  0.0000E+00  0.0000E+00  0.4000E+01  0.4000E+01
     -9.743  0.0000E+00  0.0000E+00  0.4000E+01  0.4000E+01
     -9.593  0.0000E+00  0.0000E+00  0.4000E+01  0.4000E+01
     -9.444  0.0000E+00  0.0000E+00  0.4000E+01  0.4000E+01
     -9.294  0.0000E+00  0.0000E+00  0.4000E+01  0.4000E+01
     -9.144  0.0000E+00  0.0000E+00  0.4000E+01  0.4000E+01
     -8.995  0.0000E+00  0.0000E+00  0.4000E+01  0.4000E+01
     -8.845  0.0000E+00  0.0000E+00  0.4000E+01  0.4000E+01
     -8.695  0.0000E+00  0.0000E+00  0.4000E+01  0.4000E+01
     -8.546  0.0000E+00  0.0000E+00  0.4000E+01  0.4000E+01
     -8.396  0.0000E+00  0.0000E+00  0.4000E+01  0.4000E+01
     -8.246  0.0000E+00  0.0000E+00  0.4000E+01  0.4000E+01
     -8.097  0.0000E+00  0.0000E+00  0.4000E+01  0.4000E+01
     -7.947  0.0000E+00  0.0000E+00  0.4000E+01  0.4000E+01
     -7.797  0.0000E+00  0.0000E+00  0.4000E+01  0.4000E+01
     -7.648  0.0000E+00  0.0000E+00  0.4000E+01  0.4000E+01
     -7.498  0.0000E+00  0.0000E+00  0.4000E+01  0.4000E+01
     -7.348  0.0000E+00  0.0000E+00  0.4000E+01  0.4000E+01
     -7.199  0.0000E+00  0.0000E+00  0.4000E+01  0.4000E+01
     -7.049  0.0000E+00  0.0000E+00  0.4000E+01  0.4000E+01
     -6.900  0.0000E+00  0.0000E+00  0.4000E+01  0.4000E+01
     -6.750  0.0000E+00  0.0000E+00  0.4000E+01  0.4000E+01
     -6.600  0.0000E+00  0.0000E+00  0.4000E+01  0.4000E+01
     -6.451  0.0000E+00  0.0000E+00  0.4000E+01  0.4000E+01
     -6.301  0.0000E+00  0.0000E+00  0.4000E+01  0.4000E+01
     -6.151  0.0000E+00  0.0000E+00  0.4000E+01  0.4000E+01
     -6.002  0.0000E+00  0.0000E+00  0.4000E+01  0.4000E+01
     -5.852  0.0000E+00  0.0000E+00  0.4000E+01  0.4000E+01
     -5.702  0.0000E+00  0.0000E+00  0.4000E+01  0.4000E+01
     -5.553  0.0000E+00  0.0000E+00  0.4000E+01  0.4000E+01
     -5.403  0.0000E+00  0.0000E+00  0.4000E+01  0.4000E+01
     -5.253  0.0000E+00  0.0000E+00  0.4000E+01  0.4000E+01
     -5.104  0.0000E+00  0.0000E+00  0.4000E+01  0.4000E+01
     -4.954  0.0000E+00  0.0000E+00  0.4000E+01  0.4000E+01
     -4.804  0.0000E+00  0.0000E+00  0.4000E+01  0.4000E+01
     -4.655  0.0000E+00  0.0000E+00  0.4000E+01  0.4000E+01
     -4.505  0.0000E+00  0.0000E+00  0.4000E+01  0.4000E+01
     -4.355  0.0000E+00  0.0000E+00  0.4000E+01  0.4000E+01
     -4.206  0.1636E-05  0.1678E-05  0.4000E+01  0.4000E+01
     -4.056  0.3763E-04  0.3860E-04  0.4000E+01  0.4000E+01
     -3.907  0.7545E-03  0.7736E-03  0.4000E+01  0.4000E+01
     -3.757  0.1222E-01  0.1248E-01  0.4002E+01  0.4002E+01
     -3.607  0.7226E-01  0.7294E-01  0.4013E+01  0.4013E+01
     -3.458  0.1485E+00  0.1489E+00  0.4035E+01  0.4035E+01
     -3.308  0.2032E+00  0.2037E+00  0.4065E+01  0.4066E+01
     -3.158  0.2477E+00  0.2479E+00  0.4102E+01  0.4103E+01
     -3.009  0.2884E+00  0.2890E+00  0.4146E+01  0.4146E+01
     -2.859  0.3412E+00  0.3411E+00  0.4197E+01  0.4197E+01
     -2.709  0.3576E+00  0.3584E+00  0.4250E+01  0.4251E+01
     -2.560  0.4451E+00  0.4451E+00  0.4317E+01  0.4318E+01
     -2.410  0.4632E+00  0.4639E+00  0.4386E+01  0.4387E+01
     -2.260  0.5639E+00  0.5641E+00  0.4471E+01  0.4472E+01
     -2.111  0.6074E+00  0.6077E+00  0.4562E+01  0.4563E+01
     -1.961  0.5354E+00  0.5346E+00  0.4642E+01  0.4643E+01
     -1.811  0.5322E+00  0.5321E+00  0.4722E+01  0.4723E+01
     -1.662  0.4474E+00  0.4476E+00  0.4789E+01  0.4790E+01
     -1.512  0.5297E+00  0.5299E+00  0.4869E+01  0.4869E+01
     -1.363  0.5566E+00  0.5568E+00  0.4952E+01  0.4953E+01
     -1.213  0.4754E+00  0.4752E+00  0.5024E+01  0.5024E+01
     -1.063  0.5268E+00  0.5271E+00  0.5103E+01  0.5103E+01
     -0.914  0.6310E+00  0.6318E+00  0.5197E+01  0.5198E+01
     -0.764  0.6379E+00  0.6380E+00  0.5293E+01  0.5293E+01
     -0.614  0.7880E+00  0.7892E+00  0.5411E+01  0.5412E+01
     -0.465  0.1098E+01  0.1100E+01  0.5575E+01  0.5576E+01
     -0.315  0.1202E+01  0.1201E+01  0.5755E+01  0.5756E+01
     -0.165  0.1122E+01  0.1122E+01  0.5924E+01  0.5925E+01
     -0.016  0.8791E+00  0.8756E+00  0.6056E+01  0.6056E+01
      0.134  0.6881E+00  0.6909E+00  0.6159E+01  0.6160E+01
      0.284  0.1038E+01  0.1037E+01  0.6315E+01  0.6315E+01
      0.433  0.5402E+00  0.5372E+00  0.6396E+01  0.6396E+01
      0.583  0.5041E+00  0.5061E+00  0.6471E+01  0.6472E+01
      0.733  0.6816E+00  0.6814E+00  0.6574E+01  0.6574E+01
      0.882  0.5486E+00  0.5471E+00  0.6656E+01  0.6656E+01
      1.032  0.4011E+00  0.4009E+00  0.6716E+01  0.6716E+01
      1.181  0.4237E+00  0.4243E+00  0.6780E+01  0.6780E+01
      1.331  0.4768E+00  0.4773E+00  0.6851E+01  0.6852E+01
      1.481  0.5649E+00  0.5662E+00  0.6936E+01  0.6936E+01
      1.630  0.6488E+00  0.6509E+00  0.7033E+01  0.7034E+01
      1.780  0.6311E+00  0.6303E+00  0.7128E+01  0.7128E+01
      1.930  0.8090E+00  0.8118E+00  0.7249E+01  0.7250E+01
      2.079  0.8198E+00  0.8192E+00  0.7372E+01  0.7373E+01
      2.229  0.8651E+00  0.8656E+00  0.7501E+01  0.7503E+01
      2.379  0.9132E+00  0.9148E+00  0.7638E+01  0.7640E+01
      2.528  0.1046E+01  0.1047E+01  0.7795E+01  0.7797E+01
      2.678  0.1356E+01  0.1358E+01  0.7998E+01  0.8000E+01
      2.828  0.1355E+01  0.1354E+01  0.8201E+01  0.8203E+01
      2.977  0.1546E+01  0.1550E+01  0.8433E+01  0.8435E+01
      3.127  0.1683E+01  0.1682E+01  0.8685E+01  0.8687E+01
      3.277  0.1538E+01  0.1536E+01  0.8916E+01  0.8918E+01
      3.426  0.1219E+01  0.1216E+01  0.9099E+01  0.9100E+01
      3.576  0.1206E+01  0.1209E+01  0.9280E+01  0.9281E+01
      3.725  0.1213E+01  0.1210E+01  0.9462E+01  0.9463E+01
      3.875  0.8714E+00  0.8681E+00  0.9592E+01  0.9593E+01
      4.025  0.8910E+00  0.8936E+00  0.9726E+01  0.9727E+01
      4.174  0.1229E+01  0.1233E+01  0.9910E+01  0.9912E+01
      4.324  0.1321E+01  0.1317E+01  0.1011E+02  0.1011E+02
      4.474  0.1034E+01  0.1032E+01  0.1026E+02  0.1026E+02
      4.623  0.8799E+00  0.8810E+00  0.1040E+02  0.1040E+02
      4.773  0.1205E+01  0.1208E+01  0.1058E+02  0.1058E+02
      4.923  0.1202E+01  0.1199E+01  0.1076E+02  0.1076E+02
      5.072  0.1012E+01  0.1012E+01  0.1091E+02  0.1091E+02
      5.222  0.8536E+00  0.8523E+00  0.1104E+02  0.1104E+02
      5.372  0.8748E+00  0.8755E+00  0.1117E+02  0.1117E+02
      5.521  0.9247E+00  0.9256E+00  0.1131E+02  0.1131E+02
      5.671  0.1242E+01  0.1243E+01  0.1149E+02  0.1149E+02
      5.821  0.1095E+01  0.1094E+01  0.1166E+02  0.1166E+02
      5.970  0.1159E+01  0.1160E+01  0.1183E+02  0.1183E+02
      6.120  0.1135E+01  0.1134E+01  0.1200E+02  0.1200E+02
      6.269  0.1123E+01  0.1124E+01  0.1217E+02  0.1217E+02
      6.419  0.1139E+01  0.1139E+01  0.1234E+02  0.1234E+02
      6.569  0.1245E+01  0.1247E+01  0.1253E+02  0.1253E+02
      6.718  0.1219E+01  0.1221E+01  0.1271E+02  0.1271E+02
      6.868  0.1529E+01  0.1531E+01  0.1294E+02  0.1294E+02
      7.018  0.1341E+01  0.1340E+01  0.1314E+02  0.1314E+02
      7.167  0.1699E+01  0.1702E+01  0.1339E+02  0.1340E+02
      7.317  0.1762E+01  0.1759E+01  0.1366E+02  0.1366E+02
      7.467  0.1482E+01  0.1473E+01  0.1388E+02  0.1388E+02
      7.616  0.1490E+01  0.1496E+01  0.1410E+02  0.1411E+02
      7.766  0.1841E+01  0.1838E+01  0.1438E+02  0.1438E+02
      7.916  0.1737E+01  0.1738E+01  0.1464E+02  0.1464E+02
      8.065  0.1871E+01  0.1842E+01  0.1492E+02  0.1492E+02
      8.215  0.1880E+01  0.1831E+01  0.1520E+02  0.1519E+02
      8.365  0.1865E+01  0.1882E+01  0.1548E+02  0.1547E+02
      8.514  0.1206E+01  0.1230E+01  0.1566E+02  0.1566E+02
      8.664  0.8311E+00  0.8316E+00  0.1579E+02  0.1578E+02
      8.813  0.4697E+00  0.5157E+00  0.1586E+02  0.1586E+02
      8.963  0.3474E+00  0.3050E+00  0.1591E+02  0.1591E+02
      9.113  0.2392E+00  0.2547E+00  0.1595E+02  0.1595E+02
      9.262  0.9779E-01  0.1065E+00  0.1596E+02  0.1596E+02
      9.412  0.1403E+00  0.1407E+00  0.1598E+02  0.1598E+02
      9.562  0.5726E-01  0.5783E-01  0.1599E+02  0.1599E+02
      9.711  0.1904E-01  0.1974E-01  0.1600E+02  0.1600E+02
      9.861  0.2755E-01  0.2721E-01  0.1600E+02  0.1600E+02
     10.011  0.4453E-02  0.4091E-02  0.1600E+02  0.1600E+02
     10.160  0.1712E-03  0.0000E+00  0.1600E+02  0.1600E+02
     10.310  0.0000E+00  0.0000E+00  0.1600E+02  0.1600E+02
     10.460  0.0000E+00  0.0000E+00  0.1600E+02  0.1600E+02
     10.609  0.0000E+00  0.0000E+00  0.1600E+02  0.1600E+02
     10.759  0.0000E+00  0.0000E+00  0.1600E+02  0.1600E+02
     10.909  0.0000E+00  0.0000E+00  0.1600E+02  0.1600E+02
     11.058  0.0000E+00  0.0000E+00  0.1600E+02  0.1600E+02
     11.208  0.0000E+00  0.0000E+00  0.1600E+02  0.1600E+02
     11.358  0.0000E+00  0.0000E+00  0.1600E+02  0.1600E+02
     11.507  0.0000E+00  0.0000E+00  0.1600E+02  0.1600E+02
     11.657  0.0000E+00  0.0000E+00  0.1600E+02  0.1600E+02
     11.806  0.0000E+00  0.0000E+00  0.1600E+02  0.1600E+02
     11.80644310    -33.08783561  301      3.76273362      1.00000000
    -33.088  0.0000E+00  0.0000E+00  0.0000E+00  0.0000E+00  0.0000E+00  0.0000E+00  0.0000E+00  0.0000E+00  0.0000E+00  0.0000E+00  0.0000E+00  0.0000E+00  0.0000E+00  0.0000E+00  0.0000E+00  0.0000E+00  0.0000E+00  0.0000E+00
    -32.938  0.0000E+00  0.0000E+00  0.0000E+00  0.0000E+00  0.0000E+00  0.0000E+00  0.0000E+00  0.0000E+00  0.0000E+00  0.0000E+00  0.0000E+00  0.0000E+00  0.0000E+00  0.0000E+00  0.0000E+00  0.0000E+00  0.0000E+00  0.0000E+00
    -32.789  0.0000E+00  0.0000E+00  0.0000E+00  0.0000E+00  0.0000E+00  0.0000E+00  0.0000E+00  0.0000E+00  0.0000E+00  0.0000E+00  0.0000E+00  0.0000E+00  0.0000E+00  0.0000E+00  0.0000E+00  0.0000E+00  0.0000E+00  0.0000E+00
    -32.639  0.0000E+00  0.0000E+00  0.0000E+00  0.0000E+00  0.0000E+00  0.0000E+00  0.0000E+00  0.0000E+00  0.0000E+00  0.0000E+00  0.0000E+00  0.0000E+00  0.0000E+00  0.0000E+00  0.0000E+00  0.0000E+00  0.0000E+00  0.0000E+00
    -32.489  0.0000E+00  0.0000E+00  0.0000E+00  0.0000E+00  0.0000E+00  0.0000E+00  0.0000E+00  0.0000E+00  0.0000E+00  0.0000E+00  0.0000E+00  0.0000E+00  0.0000E+00  0.0000E+00  0.0000E+00  0.0000E+00  0.0000E+00  0.0000E+00
    -32.340  0.0000E+00  0.0000E+00  0.0000E+00  0.0000E+00  0.0000E+00  0.0000E+00  0.0000E+00  0.0000E+00  0.0000E+00  0.0000E+00  0.0000E+00  0.0000E+00  0.0000E+00  0.0000E+00  0.0000E+00  0.0000E+00  0.0000E+00  0.0000E+00
    -32.190  0.0000E+00  0.0000E+00  0.0000E+00  0.0000E+00  0.0000E+00  0.0000E+00  0.0000E+00  0.0000E+00  0.0000E+00  0.0000E+00  0.0000E+00  0.0000E+00  0.0000E+00  0.0000E+00  0.0000E+00  0.0000E+00  0.0000E+00  0.0000E+00
    -32.040  0.0000E+00  0.0000E+00  0.0000E+00  0.0000E+00  0.0000E+00  0.0000E+00  0.0000E+00  0.0000E+00  0.0000E+00  0.0000E+00  0.0000E+00  0.0000E+00  0.0000E+00  0.0000E+00  0.0000E+00  0.0000E+00  0.0000E+00  0.0000E+00
    -31.891  0.0000E+00  0.0000E+00  0.0000E+00  0.0000E+00  0.0000E+00  0.0000E+00  0.0000E+00  0.0000E+00  0.0000E+00  0.0000E+00  0.0000E+00  0.0000E+00  0.0000E+00  0.0000E+00  0.0000E+00  0.0000E+00  0.0000E+00  0.0000E+00
    -31.741  0.0000E+00  0.0000E+00  0.0000E+00  0.0000E+00  0.0000E+00  0.0000E+00  0.0000E+00  0.0000E+00  0.0000E+00  0.0000E+00  0.0000E+00  0.0000E+00  0.0000E+00  0.0000E+00  0.0000E+00  0.0000E+00  0.0000E+00  0.0000E+00
    -31.591  0.1161E-03  0.1174E-03  0.3550E-12  0.3627E-12  0.3550E-12  0.3627E-12  0.3580E-12  0.3670E-12  0.1641E-14  0.8484E-15  0.1694E-14  0.8908E-15  0.1742E-12  0.1802E-12  0.1641E-14  0.8484E-15  0.1752E-12  0.1809E-12
    -31.442  0.2199E-02  0.2224E-02  0.6723E-11  0.6870E-11  0.6723E-11  0.6870E-11  0.6780E-11  0.6950E-11  0.3107E-13  0.1607E-13  0.3207E-13  0.1687E-13  0.3299E-11  0.3412E-11  0.3107E-13  0.1607E-13  0.3319E-11  0.3425E-11
    -31.292  0.4355E-01  0.4403E-01  0.1332E-09  0.1360E-09  0.1332E-09  0.1360E-09  0.1343E-09  0.1376E-09  0.6153E-12  0.3182E-12  0.6352E-12  0.3341E-12  0.6534E-10  0.6757E-10  0.6153E-12  0.3182E-12  0.6573E-10  0.6783E-10
    -31.142  0.7615E+00  0.7689E+00  0.2328E-08  0.2375E-08  0.2328E-08  0.2375E-08  0.2348E-08  0.2403E-08  0.1076E-10  0.5557E-11  0.1110E-10  0.5834E-11  0.1143E-08  0.1180E-08  0.1076E-10  0.5557E-11  0.1149E-08  0.1184E-08
    -30.993  0.4013E+01  0.4019E+01  0.1227E-07  0.1241E-07  0.1227E-07  0.1241E-07  0.1237E-07  0.1256E-07  0.5661E-10  0.2906E-10  0.5844E-10  0.3051E-10  0.6022E-08  0.6169E-08  0.5661E-10  0.2906E-10  0.6049E-08  0.6184E-08
    -30.843  0.1600E+01  0.1588E+01  0.4893E-08  0.4903E-08  0.4893E-08  0.4903E-08  0.4933E-08  0.4960E-08  0.2254E-10  0.1149E-10  0.2327E-10  0.1206E-10  0.2402E-08  0.2437E-08  0.2254E-10  0.1149E-10  0.2409E-08  0.2440E-08
    -30.693  0.1087E+00  0.1075E+00  0.3323E-09  0.3320E-09  0.3323E-09  0.3320E-09  0.3351E-09  0.3359E-09  0.1530E-11  0.7781E-12  0.1580E-11  0.8168E-12  0.1632E-09  0.1651E-09  0.1530E-11  0.7781E-12  0.1636E-09  0.1652E-09
    -30.544  0.0000E+00  0.0000E+00  0.0000E+00  0.0000E+00  0.0000E+00  0.0000E+00  0.0000E+00  0.0000E+00  0.0000E+00  0.0000E+00  0.0000E+00  0.0000E+00  0.0000E+00  0.0000E+00  0.0000E+00  0.0000E+00  0.0000E+00  0.0000E+00
    -30.394  0.0000E+00  0.0000E+00  0.0000E+00  0.0000E+00  0.0000E+00  0.0000E+00  0.0000E+00  0.0000E+00  0.0000E+00  0.0000E+00  0.0000E+00  0.0000E+00  0.0000E+00  0.0000E+00  0.0000E+00  0.0000E+00  0.0000E+00  0.0000E+00
    -30.245  0.0000E+00  0.0000E+00  0.0000E+00  0.0000E+00  0.0000E+00  0.0000E+00  0.0000E+00  0.0000E+00  0.0000E+00  0.0000E+00  0.0000E+00  0.0000E+00  0.0000E+00  0.0000E+00  0.0000E+00  0.0000E+00  0.0000E+00  0.0000E+00
    -30.095  0.0000E+00  0.0000E+00  0.0000E+00  0.0000E+00  0.0000E+00  0.0000E+00  0.0000E+00  0.0000E+00  0.0000E+00  0.0000E+00  0.0000E+00  0.0000E+00  0.0000E+00  0.0000E+00  0.0000E+00  0.0000E+00  0.0000E+00  0.0000E+00
    -29.945  0.0000E+00  0.0000E+00  0.0000E+00  0.0000E+00  0.0000E+00  0.0000E+00  0.0000E+00  0.0000E+00  0.0000E+00  0.0000E+00  0.0000E+00  0.0000E+00  0.0000E+00  0.0000E+00  0.0000E+00  0.0000E+00  0.0000E+00  0.0000E+00
    -29.796  0.0000E+00  0.0000E+00  0.0000E+00  0.0000E+00  0.0000E+00  0.0000E+00  0.0000E+00  0.0000E+00  0.0000E+00  0.0000E+00  0.0000E+00  0.0000E+00  0.0000E+00  0.0000E+00  0.0000E+00  0.0000E+00  0.0000E+00  0.0000E+00
    -29.646  0.0000E+00  0.0000E+00  0.0000E+00  0.0000E+00  0.0000E+00  0.0000E+00  0.0000E+00  0.0000E+00  0.0000E+00  0.0000E+00  0.0000E+00  0.0000E+00  0.0000E+00  0.0000E+00  0.0000E+00  0.0000E+00  0.0000E+00  0.0000E+00
    -29.496  0.0000E+00  0.0000E+00  0.0000E+00  0.0000E+00  0.0000E+00  0.0000E+00  0.0000E+00  0.0000E+00  0.0000E+00  0.0000E+00  0.0000E+00  0.0000E+00  0.0000E+00  0.0000E+00  0.0000E+00  0.0000E+00  0.0000E+00  0.0000E+00
    -29.347  0.0000E+00  0.0000E+00  0.0000E+00  0.0000E+00  0.0000E+00  0.0000E+00  0.0000E+00  0.0000E+00  0.0000E+00  0.0000E+00  0.0000E+00  0.0000E+00  0.0000E+00  0.0000E+00  0.0000E+00  0.0000E+00  0.0000E+00  0.0000E+00
    -29.197  0.0000E+00  0.0000E+00  0.0000E+00  0.0000E+00  0.0000E+00  0.0000E+00  0.0000E+00  0.0000E+00  0.0000E+00  0.0000E+00  0.0000E+00  0.0000E+00  0.0000E+00  0.0000E+00  0.0000E+00  0.0000E+00  0.0000E+00  0.0000E+00
    -29.047  0.0000E+00  0.0000E+00  0.0000E+00  0.0000E+00  0.0000E+00  0.0000E+00  0.0000E+00  0.0000E+00  0.0000E+00  0.0000E+00  0.0000E+00  0.0000E+00  0.0000E+00  0.0000E+00  0.0000E+00  0.0000E+00  0.0000E+00  0.0000E+00
    -28.898  0.0000E+00  0.0000E+00  0.0000E+00  0.0000E+00  0.0000E+00  0.0000E+00  0.0000E+00  0.0000E+00  0.0000E+00  0.0000E+00  0.0000E+00  0.0000E+00  0.0000E+00  0.0000E+00  0.0000E+00  0.0000E+00  0.0000E+00  0.0000E+00
    -28.748  0.0000E+00  0.0000E+00  0.0000E+00  0.0000E+00  0.0000E+00  0.0000E+00  0.0000E+00  0.0000E+00  0.0000E+00  0.0000E+00  0.0000E+00  0.0000E+00  0.0000E+00  0.0000E+00  0.0000E+00  0.0000E+00  0.0000E+00  0.0000E+00
    -28.598  0.0000E+00  0.0000E+00  0.0000E+00  0.0000E+00  0.0000E+00  0.0000E+00  0.0000E+00  0.0000E+00  0.0000E+00  0.0000E+00  0.0000E+00  0.0000E+00  0.0000E+00  0.0000E+00  0.0000E+00  0.0000E+00  0.0000E+00  0.0000E+00
    -28.449  0.0000E+00  0.0000E+00  0.0000E+00  0.0000E+00  0.0000E+00  0.0000E+00  0.0000E+00  0.0000E+00  0.0000E+00  0.0000E+00  0.0000E+00  0.0000E+00  0.0000E+00  0.0000E+00  0.0000E+00  0.0000E+00  0.0000E+00  0.0000E+00
    -28.299  0.0000E+00  0.0000E+00  0.0000E+00  0.0000E+00  0.0000E+00  0.0000E+00  0.0000E+00  0.0000E+00  0.0000E+00  0.0000E+00  0.0000E+00  0.0000E+00  0.0000E+00  0.0000E+00  0.0000E+00  0.0000E+00  0.0000E+00  0.0000E+00
    -28.149  0.0000E+00  0.0000E+00  0.0000E+00  0.0000E+00  0.0000E+00  0.0000E+00  0.0000E+00  0.0000E+00  0.0000E+00  0.0000E+00  0.0000E+00  0.0000E+00  0.0000E+00  0.0000E+00  0.0000E+00  0.0000E+00  0.0000E+00  0.0000E+00
    -28.000  0.0000E+00  0.0000E+00  0.0000E+00  0.0000E+00  0.0000E+00  0.0000E+00  0.0000E+00  0.0000E+00  0.0000E+00  0.0000E+00  0.0000E+00  0.0000E+00  0.0000E+00  0.0000E+00  0.0000E+00  0.0000E+00  0.0000E+00  0.0000E+00
    -27.850  0.0000E+00  0.0000E+00  0.0000E+00  0.0000E+00  0.0000E+00  0.0000E+00  0.0000E+00  0.0000E+00  0.0000E+00  0.0000E+00  0.0000E+00  0.0000E+00  0.0000E+00  0.0000E+00  0.0000E+00  0.0000E+00  0.0000E+00  0.0000E+00
    -27.701  0.0000E+00  0.0000E+00  0.0000E+00  0.0000E+00  0.0000E+00  0.0000E+00  0.0000E+00  0.0000E+00  0.0000E+00  0.0000E+00  0.0000E+00  0.0000E+00  0.0000E+00  0.0000E+00  0.0000E+00  0.0000E+00  0.0000E+00  0.0000E+00
    -27.551  0.0000E+00  0.0000E+00  0.0000E+00  0.0000E+00  0.0000E+00  0.0000E+00  0.0000E+00  0.0000E+00  0.0000E+00  0.0000E+00  0.0000E+00  0.0000E+00  0.0000E+00  0.0000E+00  0.0000E+00  0.0000E+00  0.0000E+00  0.0000E+00
    -27.401  0.0000E+00  0.0000E+00  0.0000E+00  0.0000E+00  0.0000E+00  0.0000E+00  0.0000E+00  0.0000E+00  0.0000E+00  0.0000E+00  0.0000E+00  0.0000E+00  0.0000E+00  0.0000E+00  0.0000E+00  0.0000E+00  0.0000E+00  0.0000E+00
    -27.252  0.0000E+00  0.0000E+00  0.0000E+00  0.0000E+00  0.0000E+00  0.0000E+00  0.0000E+00  0.0000E+00  0.0000E+00  0.0000E+00  0.0000E+00  0.0000E+00  0.0000E+00  0.0000E+00  0.0000E+00  0.0000E+00  0.0000E+00  0.0000E+00
    -27.102  0.0000E+00  0.0000E+00  0.0000E+00  0.0000E+00  0.0000E+00  0.0000E+00  0.0000E+00  0.0000E+00  0.0000E+00  0.0000E+00  0.0000E+00  0.0000E+00  0.0000E+00  0.0000E+00  0.0000E+00  0.0000E+00  0.0000E+00  0.0000E+00
    -26.952  0.0000E+00  0.0000E+00  0.0000E+00  0.0000E+00  0.0000E+00  0.0000E+00  0.0000E+00  0.0000E+00  0.0000E+00  0.0000E+00  0.0000E+00  0.0000E+00  0.0000E+00  0.0000E+00  0.0000E+00  0.0000E+00  0.0000E+00  0.0000E+00
    -26.803  0.0000E+00  0.0000E+00  0.0000E+00  0.0000E+00  0.0000E+00  0.0000E+00  0.0000E+00  0.0000E+00  0.0000E+00  0.0000E+00  0.0000E+00  0.0000E+00  0.0000E+00  0.0000E+00  0.0000E+00  0.0000E+00  0.0000E+00  0.0000E+00
    -26.653  0.0000E+00  0.0000E+00  0.0000E+00  0.0000E+00  0.0000E+00  0.0000E+00  0.0000E+00  0.0000E+00  0.0000E+00  0.0000E+00  0.0000E+00  0.0000E+00  0.0000E+00  0.0000E+00  0.0000E+00  0.0000E+00  0.0000E+00  0.0000E+00
    -26.503  0.0000E+00  0.0000E+00  0.0000E+00  0.0000E+00  0.0000E+00  0.0000E+00  0.0000E+00  0.0000E+00  0.0000E+00  0.0000E+00  0.0000E+00  0.0000E+00  0.0000E+00  0.0000E+00  0.0000E+00  0.0000E+00  0.0000E+00  0.0000E+00
    -26.354  0.0000E+00  0.0000E+00  0.0000E+00  0.0000E+00  0.0000E+00  0.0000E+00  0.0000E+00  0.0000E+00  0.0000E+00  0.0000E+00  0.0000E+00  0.0000E+00  0.0000E+00  0.0000E+00  0.0000E+00  0.0000E+00  0.0000E+00  0.0000E+00
    -26.204  0.0000E+00  0.0000E+00  0.0000E+00  0.0000E+00  0.0000E+00  0.0000E+00  0.0000E+00  0.0000E+00  0.0000E+00  0.0000E+00  0.0000E+00  0.0000E+00  0.0000E+00  0.0000E+00  0.0000E+00  0.0000E+00  0.0000E+00  0.0000E+00
    -26.054  0.0000E+00  0.0000E+00  0.0000E+00  0.0000E+00  0.0000E+00  0.0000E+00  0.0000E+00  0.0000E+00  0.0000E+00  0.0000E+00  0.0000E+00  0.0000E+00  0.0000E+00  0.0000E+00  0.0000E+00  0.0000E+00  0.0000E+00  0.0000E+00
    -25.905  0.0000E+00  0.0000E+00  0.0000E+00  0.0000E+00  0.0000E+00  0.0000E+00  0.0000E+00  0.0000E+00  0.0000E+00  0.0000E+00  0.0000E+00  0.0000E+00  0.0000E+00  0.0000E+00  0.0000E+00  0.0000E+00  0.0000E+00  0.0000E+00
    -25.755  0.0000E+00  0.0000E+00  0.0000E+00  0.0000E+00  0.0000E+00  0.0000E+00  0.0000E+00  0.0000E+00  0.0000E+00  0.0000E+00  0.0000E+00  0.0000E+00  0.0000E+00  0.0000E+00  0.0000E+00  0.0000E+00  0.0000E+00  0.0000E+00
    -25.605  0.0000E+00  0.0000E+00  0.0000E+00  0.0000E+00  0.0000E+00  0.0000E+00  0.0000E+00  0.0000E+00  0.0000E+00  0.0000E+00  0.0000E+00  0.0000E+00  0.0000E+00  0.0000E+00  0.0000E+00  0.0000E+00  0.0000E+00  0.0000E+00