   4   4   1   0
  0.1632508E+02  0.4026013E-09  0.4027357E-09  0.4027357E-09  0.5000000E-15
  1.000000000000000E-004
  CAR 
 unknown system                          
     18.20818707    -28.18191137  301      7.44599949      1.00000000
    -28.182  0.0000E+00  0.0000E+00  0.0000E+00  0.0000E+00
    -28.027  0.0000E+00  0.0000E+00  0.0000E+00  0.0000E+00
    -27.873  0.0000E+00  0.0000E+00  0.0000E+00  0.0000E+00
    -27.718  0.0000E+00  0.0000E+00  0.0000E+00  0.0000E+00
    -27.563  0.0000E+00  0.0000E+00  0.0000E+00  0.0000E+00
    -27.409  0.0000E+00  0.0000E+00  0.0000E+00  0.0000E+00
    -27.254  0.0000E+00  0.0000E+00  0.0000E+00  0.0000E+00
    -27.099  0.0000E+00  0.0000E+00  0.0000E+00  0.0000E+00
    -26.945  0.0000E+00  0.0000E+00  0.0000E+00  0.0000E+00
    -26.790  0.0000E+00  0.0000E+00  0.0000E+00  0.0000E+00
    -26.636  0.0000E+00  0.0000E+00  0.0000E+00  0.0000E+00
    -26.481  0.1053E-02  0.1063E-02  0.1628E-03  0.1643E-03
    -26.326  0.2207E-01  0.2227E-01  0.3575E-02  0.3608E-02
    -26.172  0.4491E+00  0.4528E+00  0.7301E-01  0.7363E-01
    -26.017  0.3587E+01  0.3597E+01  0.6277E+00  0.6298E+00
    -25.862  0.2235E+01  0.2223E+01  0.9733E+00  0.9736E+00
    -25.708  0.1644E+00  0.1630E+00  0.9988E+00  0.9988E+00
    -25.553  0.0000E+00  0.0000E+00  0.1000E+01  0.1000E+01
    -25.399  0.0000E+00  0.0000E+00  0.1000E+01  0.1000E+01
    -25.244  0.0000E+00  0.0000E+00  0.1000E+01  0.1000E+01
    -25.089  0.0000E+00  0.0000E+00  0.1000E+01  0.1000E+01
    -24.935  0.0000E+00  0.0000E+00  0.1000E+01  0.1000E+01
    -24.780  0.0000E+00  0.0000E+00  0.1000E+01  0.1000E+01
    -24.625  0.0000E+00  0.0000E+00  0.1000E+01  0.1000E+01
    -24.471  0.0000E+00  0.0000E+00  0.1000E+01  0.1000E+01
    -24.316  0.0000E+00  0.0000E+00  0.1000E+01  0.1000E+01
    -24.161  0.0000E+00  0.0000E+00  0.1000E+01  0.1000E+01
    -24.007  0.0000E+00  0.0000E+00  0.1000E+01  0.1000E+01
    -23.852  0.0000E+00  0.0000E+00  0.1000E+01  0.1000E+01
    -23.698  0.0000E+00  0.0000E+00  0.1000E+01  0.1000E+01
    -23.543  0.0000E+00  0.0000E+00  0.1000E+01  0.1000E+01
    -23.388  0.0000E+00  0.0000E+00  0.1000E+01  0.1000E+01
    -23.234  0.0000E+00  0.0000E+00  0.1000E+01  0.1000E+01
    -23.079  0.0000E+00  0.0000E+00  0.1000E+01  0.1000E+01
    -22.924  0.0000E+00  0.0000E+00  0.1000E+01  0.1000E+01
    -22.770  0.0000E+00  0.0000E+00  0.1000E+01  0.1000E+01
    -22.615  0.0000E+00  0.0000E+00  0.1000E+01  0.1000E+01
    -22.460  0.0000E+00  0.0000E+00  0.1000E+01  0.1000E+01
    -22.306  0.0000E+00  0.0000E+00  0.1000E+01  0.1000E+01
    -22.151  0.0000E+00  0.0000E+00  0.1000E+01  0.1000E+01
    -21.997  0.0000E+00  0.0000E+00  0.1000E+01  0.1000E+01
    -21.842  0.0000E+00  0.0000E+00  0.1000E+01  0.1000E+01
    -21.687  0.0000E+00  0.0000E+00  0.1000E+01  0.1000E+01
    -21.533  0.0000E+00  0.0000E+00  0.1000E+01  0.1000E+01
    -21.378  0.0000E+00  0.0000E+00  0.1000E+01  0.1000E+01
    -21.223  0.0000E+00  0.0000E+00  0.1000E+01  0.1000E+01
    -21.069  0.0000E+00  0.0000E+00  0.1000E+01  0.1000E+01
    -20.914  0.0000E+00  0.0000E+00  0.1000E+01  0.1000E+01
    -20.759  0.0000E+00  0.0000E+00  0.1000E+01  0.1000E+01
    -20.605  0.0000E+00  0.0000E+00  0.1000E+01  0.1000E+01
    -20.450  0.0000E+00  0.0000E+00  0.1000E+01  0.1000E+01
    -20.296  0.0000E+00  0.0000E+00  0.1000E+01  0.1000E+01
    -20.141  0.0000E+00  0.0000E+00  0.1000E+01  0.1000E+01
    -19.986  0.0000E+00  0.0000E+00  0.1000E+01  0.1000E+01
    -19.832  0.0000E+00  0.0000E+00  0.1000E+01  0.1000E+01
    -19.677  0.0000E+00  0.0000E+00  0.1000E+01  0.1000E+01
    -19.522  0.0000E+00  0.0000E+00  0.1000E+01  0.1000E+01
    -19.368  0.0000E+00  0.0000E+00  0.1000E+01  0.1000E+01
    -19.213  0.0000E+00  0.0000E+00  0.1000E+01  0.1000E+01
    -19.059  0.0000E+00  0.0000E+00  0.1000E+01  0.1000E+01
    -18.904  0.0000E+00  0.0000E+00  0.1000E+01  0.1000E+01
    -18.749  0.0000E+00  0.0000E+00  0.1000E+01  0.1000E+01
    -18.595  0.0000E+00  0.0000E+00  0.1000E+01  0.1000E+01
    -18.440  0.0000E+00  0.0000E+00  0.1000E+01  0.1000E+01
    -18.285  0.0000E+00  0.0000E+00  0.1000E+01  0.1000E+01
    -18.131  0.0000E+00  0.0000E+00  0.1000E+01  0.1000E+01
    -17.976  0.0000E+00  0.0000E+00  0.1000E+01  0.1000E+01
    -17.821  0.0000E+00  0.0000E+00  0.1000E+01  0.1000E+01
    -17.667  0.0000E+00  0.0000E+00  0.1000E+01  0.1000E+01
    -17.512  0.0000E+00  0.0000E+00  0.1000E+01  0.1000E+01
    -17.358  0.0000E+00  0.0000E+00  0.1000E+01  0.1000E+01
    -17.203  0.0000E+00  0.0000E+00  0.1000E+01  0.1000E+01
    -17.048  0.0000E+00  0.0000E+00  0.1000E+01  0.1000E+01
    -16.894  0.0000E+00  0.0000E+00  0.1000E+01  0.1000E+01
    -16.739  0.0000E+00  0.0000E+00  0.1000E+01  0.1000E+01
    -16.584  0.0000E+00  0.0000E+00  0.1000E+01  0.1000E+01
    -16.430  0.0000E+00  0.0000E+00  0.1000E+01  0.1000E+01
    -16.275  0.0000E+00  0.0000E+00  0.1000E+01  0.1000E+01
    -16.120  0.0000E+00  0.0000E+00  0.1000E+01  0.1000E+01
    -15.966  0.0000E+00  0.0000E+00  0.1000E+01  0.1000E+01
    -15.811  0.0000E+00  0.0000E+00  0.1000E+01  0.1000E+01
    -15.657  0.0000E+00  0.0000E+00  0.1000E+01  0.1000E+01
    -15.502  0.0000E+00  0.0000E+00  0.1000E+01  0.1000E+01
    -15.347  0.0000E+00  0.0000E+00  0.1000E+01  0.1000E+01
    -15.193  0.0000E+00  0.0000E+00  0.1000E+01  0.1000E+01
    -15.038  0.0000E+00  0.0000E+00  0.1000E+01  0.1000E+01
    -14.883  0.0000E+00  0.0000E+00  0.1000E+01  0.1000E+01
    -14.729  0.0000E+00  0.0000E+00  0.1000E+01  0.1000E+01
    -14.574  0.0000E+00  0.0000E+00  0.1000E+01  0.1000E+01
    -14.420  0.0000E+00  0.0000E+00  0.1000E+01  0.1000E+01
    -14.265  0.0000E+00  0.0000E+00  0.1000E+01  0.1000E+01
    -14.110  0.0000E+00  0.0000E+00  0.1000E+01  0.1000E+01
    -13.956  0.0000E+00  0.0000E+00  0.1000E+01  0.1000E+01
    -13.801  0.0000E+00  0.0000E+00  0.1000E+01  0.1000E+01
    -13.646  0.0000E+00  0.0000E+00  0.1000E+01  0.1000E+01
    -13.492  0.0000E+00  0.0000E+00  0.1000E+01  0.1000E+01
    -13.337  0.0000E+00  0.0000E+00  0.1000E+01  0.1000E+01
    -13.182  0.0000E+00  0.0000E+00  0.1000E+01  0.1000E+01
    -13.028  0.0000E+00  0.0000E+00  0.1000E+01  0.1000E+01
    -12.873  0.0000E+00  0.0000E+00  0.1000E+01  0.1000E+01
    -12.719  0.0000E+00  0.0000E+00  0.1000E+01  0.1000E+01
    -12.564  0.0000E+00  0.0000E+00  0.1000E+01  0.1000E+01
    -12.409  0.0000E+00  0.0000E+00  0.1000E+01  0.1000E+01
    -12.255  0.0000E+00  0.0000E+00  0.1000E+01  0.1000E+01
    -12.100  0.0000E+00  0.0000E+00  0.1000E+01  0.1000E+01
    -11.945  0.0000E+00  0.0000E+00  0.1000E+01  0.1000E+01
    -11.791  0.0000E+00  0.0000E+00  0.1000E+01  0.1000E+01
    -11.636  0.0000E+00  0.0000E+00  0.1000E+01  0.1000E+01
    -11.481  0.0000E+00  0.0000E+00  0.1000E+01  0.1000E+01
    -11.327  0.0000E+00  0.0000E+00  0.1000E+01  0.1000E+01
    -11.172  0.0000E+00  0.0000E+00  0.1000E+01  0.1000E+01
    -11.018  0.0000E+00  0.0000E+00  0.1000E+01  0.1000E+01
    -10.863  0.0000E+00  0.0000E+00  0.1000E+01  0.1000E+01
    -10.708  0.0000E+00  0.0000E+00  0.1000E+01  0.1000E+01
    -10.554  0.0000E+00  0.0000E+00  0.1000E+01  0.1000E+01
    -10.399  0.0000E+00  0.0000E+00  0.1000E+01  0.1000E+01
    -10.244  0.0000E+00  0.0000E+00  0.1000E+01  0.1000E+01
    -10.090  0.0000E+00  0.0000E+00  0.1000E+01  0.1000E+01
     -9.935  0.0000E+00  0.0000E+00  0.1000E+01  0.1000E+01
     -9.781  0.0000E+00  0.0000E+00  0.1000E+01  0.1000E+01
     -9.626  0.0000E+00  0.0000E+00  0.1000E+01  0.1000E+01
     -9.471  0.1469E-04  0.1702E-04  0.1000E+01  0.1000E+01
     -9.317  0.8189E-03  0.8266E-03  0.1000E+01  0.1000E+01
     -9.162  0.1788E-01  0.1809E-01  0.1003E+01  0.1003E+01
     -9.007  0.3419E+00  0.3453E+00  0.1056E+01  0.1056E+01
     -8.853  0.2706E+01  0.2719E+01  0.1474E+01  0.1477E+01
     -8.698  0.5193E+01  0.5195E+01  0.2277E+01  0.2280E+01
     -8.543  0.5016E+01  0.5016E+01  0.3053E+01  0.3056E+01
     -8.389  0.4806E+01  0.4798E+01  0.3799E+01  0.3800E+01
     -8.234  0.1214E+01  0.1204E+01  0.3988E+01  0.3988E+01
     -8.080  0.6179E-01  0.6117E-01  0.4000E+01  0.4000E+01
     -7.925  0.0000E+00  0.0000E+00  0.4000E+01  0.4000E+01
     -7.770  0.0000E+00  0.0000E+00  0.4000E+01  0.4000E+01
     -7.616  0.0000E+00  0.0000E+00  0.4000E+01  0.4000E+01
     -7.461  0.0000E+00  0.0000E+00  0.4000E+01  0.4000E+01
     -7.306  0.0000E+00  0.0000E+00  0.4000E+01  0.4000E+01
     -7.152  0.0000E+00  0.0000E+00  0.4000E+01  0.4000E+01
     -6.997  0.0000E+00  0.0000E+00  0.4000E+01  0.4000E+01
     -6.842  0.0000E+00  0.0000E+00  0.4000E+01  0.4000E+01
     -6.688  0.0000E+00  0.0000E+00  0.4000E+01  0.4000E+01
     -6.533  0.0000E+00  0.0000E+00  0.4000E+01  0.4000E+01
     -6.379  0.0000E+00  0.0000E+00  0.4000E+01  0.4000E+01
     -6.224  0.0000E+00  0.0000E+00  0.4000E+01  0.4000E+01
     -6.069  0.0000E+00  0.0000E+00  0.4000E+01  0.4000E+01
     -5.915  0.0000E+00  0.0000E+00  0.4000E+01  0.4000E+01
     -5.760  0.0000E+00  0.0000E+00  0.4000E+01  0.4000E+01
     -5.605  0.0000E+00  0.0000E+00  0.4000E+01  0.4000E+01
     -5.451  0.0000E+00  0.0000E+00  0.4000E+01  0.4000E+01
     -5.296  0.0000E+00  0.0000E+00  0.4000E+01  0.4000E+01
     -5.141  0.0000E+00  0.0000E+00  0.4000E+01  0.4000E+01
     -4.987  0.0000E+00  0.0000E+00  0.4000E+01  0.4000E+01
     -4.832  0.0000E+00  0.0000E+00  0.4000E+01  0.4000E+01
     -4.678  0.0000E+00  0.0000E+00  0.4000E+01  0.4000E+01
     -4.523  0.0000E+00  0.0000E+00  0.4000E+01  0.4000E+01
     -4.368  0.0000E+00  0.0000E+00  0.4000E+01  0.4000E+01
     -4.214  0.0000E+00  0.0000E+00  0.4000E+01  0.4000E+01
     -4.059  0.0000E+00  0.0000E+00  0.4000E+01  0.4000E+01
     -3.904  0.0000E+00  0.0000E+00  0.4000E+01  0.4000E+01
     -3.750  0.0000E+00  0.0000E+00  0.4000E+01  0.4000E+01
     -3.595  0.0000E+00  0.0000E+00  0.4000E+01  0.4000E+01
     -3.441  0.0000E+00  0.0000E+00  0.4000E+01  0.4000E+01
     -3.286  0.0000E+00  0.0000E+00  0.4000E+01  0.4000E+01
     -3.131  0.0000E+00  0.0000E+00  0.4000E+01  0.4000E+01
     -2.977  0.0000E+00  0.0000E+00  0.4000E+01  0.4000E+01
     -2.822  0.0000E+00  0.0000E+00  0.4000E+01  0.4000E+01
     -2.667  0.0000E+00  0.0000E+00  0.4000E+01  0.4000E+01
     -2.513  0.1145E-06  0.1164E-06  0.4000E+01  0.4000E+01
     -2.358  0.6876E-05  0.6989E-05  0.4000E+01  0.4000E+01
     -2.203  0.1508E-03  0.1532E-03  0.4000E+01  0.4000E+01
     -2.049  0.2872E-02  0.2913E-02  0.4000E+01  0.4000E+01
     -1.894  0.2399E-01  0.2417E-01  0.4004E+01  0.4004E+01
     -1.740  0.5382E-01  0.5392E-01  0.4013E+01  0.4013E+01
     -1.585  0.8792E-01  0.8816E-01  0.4026E+01  0.4026E+01
     -1.430  0.9204E-01  0.9195E-01  0.4040E+01  0.4040E+01
     -1.276  0.1289E+00  0.1292E+00  0.4060E+01  0.4060E+01
     -1.121  0.1433E+00  0.1433E+00  0.4083E+01  0.4083E+01
     -0.966  0.1634E+00  0.1634E+00  0.4108E+01  0.4108E+01
     -0.812  0.1608E+00  0.1611E+00  0.4133E+01  0.4133E+01
     -0.657  0.2325E+00  0.2326E+00  0.4169E+01  0.4169E+01
     -0.502  0.2261E+00  0.2259E+00  0.4204E+01  0.4204E+01
     -0.348  0.2077E+00  0.2081E+00  0.4236E+01  0.4236E+01
     -0.193  0.3094E+00  0.3096E+00  0.4284E+01  0.4284E+01
     -0.039  0.3260E+00  0.3260E+00  0.4334E+01  0.4335E+01
      0.116  0.3476E+00  0.3479E+00  0.4388E+01  0.4388E+01
      0.271  0.3536E+00  0.3537E+00  0.4443E+01  0.4443E+01
      0.425  0.5555E+00  0.5564E+00  0.4529E+01  0.4529E+01
      0.580  0.6801E+00  0.6803E+00  0.4634E+01  0.4635E+01
      0.735  0.7500E+00  0.7500E+00  0.4750E+01  0.4751E+01
      0.889  0.5513E+00  0.5504E+00  0.4836E+01  0.4836E+01
      1.044  0.3508E+00  0.3501E+00  0.4891E+01  0.4891E+01
      1.198  0.3102E+00  0.3105E+00  0.4939E+01  0.4939E+01
      1.353  0.2561E+00  0.2560E+00  0.4979E+01  0.4979E+01
      1.508  0.2620E+00  0.2617E+00  0.5019E+01  0.5019E+01
      1.662  0.1793E+00  0.1794E+00  0.5047E+01  0.5047E+01
      1.817  0.2365E+00  0.2367E+00  0.5084E+01  0.5084E+01
      1.972  0.2933E+00  0.2939E+00  0.5129E+01  0.5129E+01
      2.126  0.3159E+00  0.3158E+00  0.5178E+01  0.5178E+01
      2.281  0.3915E+00  0.3922E+00  0.5239E+01  0.5239E+01
      2.436  0.3593E+00  0.3586E+00  0.5294E+01  0.5295E+01
      2.590  0.3827E+00  0.3836E+00  0.5354E+01  0.5354E+01
      2.745  0.6543E+00  0.6567E+00  0.5455E+01  0.5456E+01
      2.899  0.9750E+00  0.9760E+00  0.5606E+01  0.5607E+01
      3.054  0.9584E+00  0.9571E+00  0.5754E+01  0.5755E+01
      3.209  0.8069E+00  0.8060E+00  0.5879E+01  0.5880E+01
      3.363  0.5962E+00  0.5958E+00  0.5972E+01  0.5972E+01
      3.518  0.7526E+00  0.7538E+00  0.6088E+01  0.6089E+01
      3.673  0.9129E+00  0.9132E+00  0.6230E+01  0.6230E+01
      3.827  0.6707E+00  0.6687E+00  0.6333E+01  0.6334E+01
      3.982  0.5504E+00  0.5510E+00  0.6419E+01  0.6419E+01
      4.137  0.5467E+00  0.5456E+00  0.6504E+01  0.6504E+01
      4.291  0.5624E+00  0.5637E+00  0.6591E+01  0.6591E+01
      4.446  0.6307E+00  0.6303E+00  0.6688E+01  0.6689E+01
      4.600  0.5531E+00  0.5524E+00  0.6774E+01  0.6774E+01
      4.755  0.5524E+00  0.5535E+00  0.6860E+01  0.6860E+01
      4.910  0.6156E+00  0.6160E+00  0.6955E+01  0.6956E+01
      5.064  0.8531E+00  0.8547E+00  0.7087E+01  0.7088E+01
      5.219  0.7360E+00  0.7340E+00  0.7201E+01  0.7202E+01
      5.374  0.5842E+00  0.5838E+00  0.7292E+01  0.7292E+01
      5.528  0.5682E+00  0.5694E+00  0.7380E+01  0.7381E+01
      5.683  0.7723E+00  0.7722E+00  0.7500E+01  0.7500E+01
      5.837  0.8159E+00  0.8163E+00  0.7626E+01  0.7627E+01
      5.992  0.1004E+01  0.1006E+01  0.7781E+01  0.7782E+01
      6.147  0.1332E+01  0.1334E+01  0.7987E+01  0.7989E+01
      6.301  0.1566E+01  0.1567E+01  0.8230E+01  0.8231E+01
      6.456  0.1739E+01  0.1740E+01  0.8499E+01  0.8501E+01
      6.611  0.1657E+01  0.1656E+01  0.8756E+01  0.8758E+01
      6.765  0.1309E+01  0.1306E+01  0.8959E+01  0.8960E+01
      6.920  0.9623E+00  0.9609E+00  0.9108E+01  0.9109E+01
      7.075  0.8354E+00  0.8335E+00  0.9238E+01  0.9239E+01
      7.229  0.7423E+00  0.7433E+00  0.9353E+01  0.9354E+01
      7.384  0.7123E+00  0.7111E+00  0.9464E+01  0.9465E+01
      7.538  0.5649E+00  0.5647E+00  0.9551E+01  0.9552E+01
      7.693  0.6338E+00  0.6341E+00  0.9650E+01  0.9650E+01
      7.848  0.5817E+00  0.5814E+00  0.9740E+01  0.9740E+01
      8.002  0.7000E+00  0.7005E+00  0.9848E+01  0.9849E+01
      8.157  0.5675E+00  0.5649E+00  0.9936E+01  0.9937E+01
      8.312  0.4026E+00  0.4028E+00  0.9998E+01  0.9999E+01
      8.466  0.5851E+00  0.5870E+00  0.1009E+02  0.1009E+02
      8.621  0.6312E+00  0.6293E+00  0.1019E+02  0.1019E+02
      8.776  0.4196E+00  0.4183E+00  0.1025E+02  0.1025E+02
      8.930  0.4997E+00  0.5013E+00  0.1033E+02  0.1033E+02
      9.085  0.8526E+00  0.8542E+00  0.1046E+02  0.1046E+02
      9.239  0.6577E+00  0.6556E+00  0.1056E+02  0.1056E+02
      9.394  0.8038E+00  0.8063E+00  0.1069E+02  0.1069E+02
      9.549  0.1078E+01  0.1079E+01  0.1085E+02  0.1086E+02
      9.703  0.1006E+01  0.1005E+01  0.1101E+02  0.1101E+02
      9.858  0.9231E+00  0.9230E+00  0.1115E+02  0.1115E+02
     10.013  0.8731E+00  0.8722E+00  0.1129E+02  0.1129E+02
     10.167  0.9069E+00  0.9087E+00  0.1143E+02  0.1143E+02
     10.322  0.9711E+00  0.9689E+00  0.1158E+02  0.1158E+02
     10.477  0.6051E+00  0.6038E+00  0.1167E+02  0.1167E+02
     10.631  0.7053E+00  0.7064E+00  0.1178E+02  0.1178E+02
     10.786  0.7344E+00  0.7345E+00  0.1190E+02  0.1190E+02
     10.940  0.7901E+00  0.7907E+00  0.1202E+02  0.1202E+02
     11.095  0.8475E+00  0.8477E+00  0.1215E+02  0.1215E+02
     11.250  0.7543E+00  0.7532E+00  0.1227E+02  0.1227E+02
     11.404  0.6951E+00  0.6966E+00  0.1238E+02  0.1238E+02
     11.559  0.9531E+00  0.9528E+00  0.1252E+02  0.1252E+02
     11.714  0.1092E+01  0.1094E+01  0.1269E+02  0.1269E+02
     11.868  0.1138E+01  0.1137E+01  0.1287E+02  0.1287E+02
     12.023  0.1021E+01  0.1022E+01  0.1303E+02  0.1303E+02
     12.177  0.1233E+01  0.1234E+01  0.1322E+02  0.1322E+02
     12.332  0.1411E+01  0.1411E+01  0.1344E+02  0.1344E+02
     12.487  0.1106E+01  0.1104E+01  0.1361E+02  0.1361E+02
     12.641  0.1087E+01  0.1087E+01  0.1378E+02  0.1378E+02
     12.796  0.1276E+01  0.1277E+01  0.1397E+02  0.1398E+02
     12.951  0.1307E+01  0.1305E+01  0.1418E+02  0.1418E+02
     13.105  0.1222E+01  0.1220E+01  0.1437E+02  0.1437E+02
     13.260  0.1129E+01  0.1130E+01  0.1454E+02  0.1454E+02
     13.415  0.1045E+01  0.1044E+01  0.1470E+02  0.1470E+02
     13.569  0.1071E+01  0.1069E+01  0.1487E+02  0.1487E+02
     13.724  0.1093E+01  0.1093E+01  0.1504E+02  0.1504E+02
     13.878  0.1238E+01  0.1233E+01  0.1523E+02  0.1523E+02
     14.033  0.1005E+01  0.1014E+01  0.1539E+02  0.1539E+02
     14.188  0.1051E+01  0.1042E+01  0.1555E+02  0.1555E+02
     14.342  0.9554E+00  0.9553E+00  0.1570E+02  0.1570E+02
     14.497  0.5639E+00  0.5658E+00  0.1579E+02  0.1579E+02
     14.652  0.3131E+00  0.3175E+00  0.1583E+02  0.1583E+02
     14.806  0.2500E+00  0.2471E+00  0.1587E+02  0.1587E+02
     14.961  0.1737E+00  0.1733E+00  0.1590E+02  0.1590E+02
     15.116  0.1673E+00  0.1694E+00  0.1593E+02  0.1593E+02
     15.270  0.1009E+00  0.1037E+00  0.1594E+02  0.1594E+02
     15.425  0.7431E-01  0.6752E-01  0.1595E+02  0.1595E+02
     15.579  0.5121E-01  0.4627E-01  0.1596E+02  0.1596E+02
     15.734  0.1147E+00  0.1175E+00  0.1598E+02  0.1598E+02
     15.889  0.7402E-01  0.7778E-01  0.1599E+02  0.1599E+02
     16.043  0.2836E-01  0.2862E-01  0.1599E+02  0.1600E+02
     16.198  0.2813E-01  0.2766E-01  0.1600E+02  0.1600E+02
     16.353  0.4132E-02  0.4004E-02  0.1600E+02  0.1600E+02
     16.507  0.0000E+00  0.0000E+00  0.1600E+02  0.1600E+02
     16.662  0.0000E+00  0.0000E+00  0.1600E+02  0.1600E+02
     16.816  0.0000E+00  0.0000E+00  0.1600E+02  0.1600E+02
     16.971  0.0000E+00  0.0000E+00  0.1600E+02  0.1600E+02
     17.126  0.0000E+00  0.0000E+00  0.1600E+02  0.1600E+02
     17.280  0.0000E+00  0.0000E+00  0.1600E+02  0.1600E+02
     17.435  0.0000E+00  0.0000E+00  0.1600E+02  0.1600E+02
     17.590  0.0000E+00  0.0000E+00  0.1600E+02  0.1600E+02
     17.744  0.0000E+00  0.0000E+00  0.1600E+02  0.1600E+02
     17.899  0.0000E+00  0.0000E+00  0.1600E+02  0.1600E+02
     18.054  0.0000E+00  0.0000E+00  0.1600E+02  0.1600E+02
     18.208  0.0000E+00  0.0000E+00  0.1600E+02  0.1600E+02
     18.20818707    -28.18191137  301      7.44599949      1.00000000
    -28.182  0.0000E+00  0.0000E+00  0.0000E+00  0.0000E+00  0.0000E+00  0.0000E+00  0.0000E+00  0.0000E+00  0.0000E+00  0.0000E+00  0.0000E+00  0.0000E+00  0.0000E+00  0.0000E+00  0.0000E+00  0.0000E+00  0.0000E+00  0.0000E+00
    -28.027  0.0000E+00  0.0000E+00  0.0000E+00  0.0000E+00  0.0000E+00  0.0000E+00  0.0000E+00  0.0000E+00  0.0000E+00  0.0000E+00  0.0000E+00  0.0000E+00  0.0000E+00  0.0000E+00  0.0000E+00  0.0000E+00  0.0000E+00  0.0000E+00
    -27.873  0.0000E+00  0.0000E+00  0.0000E+00  0.0000E+00  0.0000E+00  0.0000E+00  0.0000E+00  0.0000E+00  0.0000E+00  0.0000E+00  0.0000E+00  0.0000E+00  0.0000E+00  0.0000E+00  0.0000E+00  0.0000E+00  0.0000E+00  0.0000E+00
    -27.718  0.0000E+00  0.0000E+00  0.0000E+00  0.0000E+00  0.0000E+00  0.0000E+00  0.0000E+00  0.0000E+00  0.0000E+00  0.0000E+00  0.0000E+00  0.0000E+00  0.0000E+00  0.0000E+00  0.0000E+00  0.0000E+00  0.0000E+00  0.0000E+00
    -27.563  0.0000E+00  0.0000E+00  0.0000E+00  0.0000E+00  0.0000E+00  0.0000E+00  0.0000E+00  0.0000E+00  0.0000E+00  0.0000E+00  0.0000E+00  0.0000E+00  0.0000E+00  0.0000E+00  0.0000E+00  0.0000E+00  0.0000E+00  0.0000E+00
    -27.409  0.0000E+00  0.0000E+00  0.0000E+00  0.0000E+00  0.0000E+00  0.0000E+00  0.0000E+00  0.0000E+00  0.0000E+00  0.0000E+00  0.0000E+00  0.0000E+00  0.0000E+00  0.0000E+00  0.0000E+00  0.0000E+00  0.0000E+00  0.0000E+00
    -27.254  0.0000E+00  0.0000E+00  0.0000E+00  0.0000E+00  0.0000E+00  0.0000E+00  0.0000E+00  0.0000E+00  0.0000E+00  0.0000E+00  0.0000E+00  0.0000E+00  0.0000E+00  0.0000E+00  0.0000E+00  0.0000E+00  0.0000E+00  0.0000E+00
    -27.099  0.0000E+00  0.0000E+00  0.0000E+00  0.0000E+00  0.0000E+00  0.0000E+00  0.0000E+00  0.0000E+00  0.0000E+00  0.0000E+00  0.0000E+00  0.0000E+00  0.0000E+00  0.0000E+00  0.0000E+00  0.0000E+00  0.0000E+00  0.0000E+00
    -26.945  0.0000E+00  0.0000E+00  0.0000E+00  0.0000E+00  0.0000E+00  0.0000E+00  0.0000E+00  0.0000E+00  0.0000E+00  0.0000E+00  0.0000E+00  0.0000E+00  0.0000E+00  0.0000E+00  0.0000E+00  0.0000E+00  0.0000E+00  0.0000E+00
    -26.790  0.0000E+00  0.0000E+00  0.0000E+00  0.0000E+00  0.0000E+00  0.0000E+00  0.0000E+00  0.0000E+00  0.0000E+00  0.0000E+00  0.0000E+00  0.0000E+00  0.0000E+00  0.0000E+00  0.0000E+00  0.0000E+00  0.0000E+00  0.0000E+00
    -26.636  0.0000E+00  0.0000E+00  0.0000E+00  0.0000E+00  0.0000E+00  0.0000E+00  0.0000E+00  0.0000E+00  0.0000E+00  0.0000E+00  0.0000E+00  0.0000E+00  0.0000E+00  0.0000E+00  0.0000E+00  0.0000E+00  0.0000E+00  0.0000E+00
    -26.481  0.1024E-02  0.1033E-02  0.5766E-09  0.5816E-09  0.5766E-09  0.5816E-09  0.5807E-09  0.5858E-09  0.2486E-12  0.2880E-12  0.2463E-12  0.2871E-12  0.2888E-09  0.2898E-09  0.2486E-12  0.2880E-12  0.2978E-09  0.2989E-09
    -26.326  0.2146E-01  0.2166E-01  0.1208E-07  0.1219E-07  0.1208E-07  0.1219E-07  0.1217E-07  0.1228E-07  0.5210E-11  0.6036E-11  0.5161E-11  0.6017E-11  0.6054E-08  0.6075E-08  0.5210E-11  0.6036E-11  0.6243E-08  0.6265E-08
    -26.172  0.4367E+00  0.4404E+00  0.2459E-06  0.2479E-06  0.2459E-06  0.2479E-06  0.2477E-06  0.2497E-06  0.1062E-09  0.1229E-09  0.1052E-09  0.1225E-09  0.1236E-06  0.1240E-06  0.1062E-09  0.1229E-09  0.1273E-06  0.1277E-06
    -26.017  0.3489E+01  0.3498E+01  0.1957E-05  0.1962E-05  0.1957E-05  0.1962E-05  0.1972E-05  0.1976E-05  0.8553E-09  0.9803E-09  0.8472E-09  0.9775E-09  0.1007E-05  0.1004E-05  0.8553E-09  0.9803E-09  0.1023E-05  0.1020E-05
    -25.862  0.2175E+01  0.2163E+01  0.1204E-05  0.1198E-05  0.1204E-05  0.1198E-05  0.1213E-05  0.1206E-05  0.5309E-09  0.5996E-09  0.5259E-09  0.5981E-09  0.6305E-06  0.6232E-06  0.5309E-09  0.5996E-09  0.6284E-06  0.6214E-06
    -25.708  0.1600E+00  0.1586E+00  0.8789E-07  0.8709E-07  0.8789E-07  0.8709E-07  0.8853E-07  0.8773E-07  0.3876E-10  0.4350E-10  0.3840E-10  0.4340E-10  0.4607E-07  0.4538E-07  0.3876E-10  0.4350E-10  0.4556E-07  0.4489E-07
    -25.553  0.0000E+00  0.0000E+00  0.0000E+00  0.0000E+00  0.0000E+00  0.0000E+00  0.0000E+00  0.0000E+00  0.0000E+00  0.0000E+00  0.0000E+00  0.0000E+00  0.0000E+00  0.0000E+00  0.0000E+00  0.0000E+00  0.0000E+00  0.0000E+00
    -25.399  0.0000E+00  0.0000E+00  0.0000E+00  0.0000E+00  0.0000E+00  0.0000E+00  0.0000E+00  0.0000E+00  0.0000E+00  0.0000E+00  0.0000E+00  0.0000E+00  0.0000E+00  0.0000E+00  0.0000E+00  0.0000E+00  0.0000E+00  0.0000E+00
    -25.244  0.0000E+00  0.0000E+00  0.0000E+00  0.0000E+00  0.0000E+00  0.0000E+00  0.0000E+00  0.0000E+00  0.0000E+00  0.0000E+00  0.0000E+00  0.0000E+00  0.0000E+00  0.0000E+00  0.0000E+00  0.0000E+00  0.0000E+00  0.0000E+00
    -25.089  0.0000E+00  0.0000E+00  0.0000E+00  0.0000E+00  0.0000E+00  0.0000E+00  0.0000E+00  0.0000E+00  0.0000E+00  0.0000E+00  0.0000E+00  0.0000E+00  0.0000E+00  0.0000E+00  0.0000E+00  0.0000E+00  0.0000E+00  0.0000E+00
    -24.935  0.0000E+00  0.0000E+00  0.0000E+00  0.0000E+00  0.0000E+00  0.0000E+00  0.0000E+00  0.0000E+00  0.0000E+00  0.0000E+00  0.0000E+00  0.0000E+00  0.0000E+00  0.0000E+00  0.0000E+00  0.0000E+00  0.0000E+00  0.0000E+00
    -24.780  0.0000E+00  0.0000E+00  0.0000E+00  0.0000E+00  0.0000E+00  0.0000E+00  0.0000E+00  0.0000E+00  0.0000E+00  0.0000E+00  0.0000E+00  0.0000E+00  0.0000E+00  0.0000E+00  0.0000E+00  0.0000E+00  0.0000E+00  0.0000E+00
    -24.625  0.0000E+00  0.0000E+00  0.0000E+00  0.0000E+00  0.0000E+00  0.0000E+00  0.0000E+00  0.0000E+00  0.0000E+00  0.0000E+00  0.0000E+00  0.0000E+00  0.0000E+00  0.0000E+00  0.0000E+00  0.0000E+00  0.0000E+00  0.0000E+00
    -24.471  0.0000E+00  0.0000E+00  0.0000E+00  0.0000E+00  0.0000E+00  0.0000E+00  0.0000E+00  0.0000E+00  0.0000E+00  0.0000E+00  0.0000E+00  0.0000E+00  0.0000E+00  0.0000E+00  0.0000E+00  0.0000E+00  0.0000E+00  0.0000E+00
    -24.316  0.0000E+00  0.0000E+00  0.0000E+00  0.0000E+00  0.0000E+00  0.0000E+00  0.0000E+00  0.0000E+00  0.0000E+00  0.0000E+00  0.0000E+00  0.0000E+00  0.0000E+00  0.0000E+00  0.0000E+00  0.0000E+00  0.0000E+00  0.0000E+00
    -24.161  0.0000E+00  0.0000E+00  0.0000E+00  0.0000E+00  0.0000E+00  0.0000E+00  0.0000E+00  0.0000E+00  0.0000E+00  0.0000E+00  0.0000E+00  0.0000E+00  0.0000E+00  0.0000E+00  0.0000E+00  0.0000E+00  0.0000E+00  0.0000E+00
    -24.007  0.0000E+00  0.0000E+00  0.0000E+00  0.0000E+00  0.0000E+00  0.0000E+00  0.0000E+00  0.0000E+00  0.0000E+00  0.0000E+00  0.0000E+00  0.0000E+00  0.0000E+00  0.0000E+00  0.0000E+00  0.0000E+00  0.0000E+00  0.0000E+00
    -23.852  0.0000E+00  0.0000E+00  0.0000E+00  0.0000E+00  0.0000E+00  0.0000E+00  0.0000E+00  0.0000E+00  0.0000E+00  0.0000E+00  0.0000E+00  0.0000E+00  0.0000E+00  0.0000E+00  0.0000E+00  0.0000E+00  0.0000E+00  0.0000E+00
    -23.698  0.0000E+00  0.0000E+00  0.0000E+00  0.0000E+00  0.0000E+00  0.0000E+00  0.0000E+00  0.0000E+00  0.0000E+00  0.0000E+00  0.0000E+00  0.0000E+00  0.0000E+00  0.0000E+00  0.0000E+00  0.0000E+00  0.0000E+00  0.0000E+00
    -23.543  0.0000E+00  0.0000E+00  0.0000E+00  0.0000E+00  0.0000E+00  0.0000E+00  0.0000E+00  0.0000E+00  0.0000E+00  0.0000E+00  0.0000E+00  0.0000E+00  0.0000E+00  0.0000E+00  0.0000E+00  0.0000E+00  0.0000E+00  0.0000E+00
    -23.388  0.0000E+00  0.0000E+00  0.0000E+00  0.0000E+00  0.0000E+00  0.0000E+00  0.0000E+00  0.0000E+00  0.0000E+00  0.0000E+00  0.0000E+00  0.0000E+00  0.0000E+00  0.0000E+00  0.0000E+00  0.0000E+00  0.0000E+00  0.0000E+00
    -23.234  0.0000E+00  0.0000E+00  0.0000E+00  0.0000E+00  0.0000E+00  0.0000E+00  0.0000E+00  0.0000E+00  0.0000E+00  0.0000E+00  0.0000E+00  0.0000E+00  0.0000E+00  0.0000E+00  0.0000E+00  0.0000E+00  0.0000E+00  0.0000E+00
    -23.079  0.0000E+00  0.0000E+00  0.0000E+00  0.0000E+00  0.0000E+00  0.0000E+00  0.0000E+00  0.0000E+00  0.0000E+00  0.0000E+00  0.0000E+00  0.0000E+00  0.0000E+00  0.0000E+00  0.0000E+00  0.0000E+00  0.0000E+00  0.0000E+00
    -22.924  0.0000E+00  0.0000E+00  0.0000E+00  0.0000E+00  0.0000E+00  0.0000E+00  0.0000E+00  0.0000E+00  0.0000E+00  0.0000E+00  0.0000E+00  0.0000E+00  0.0000E+00  0.0000E+00  0.0000E+00  0.0000E+00  0.0000E+00  0.0000E+00
    -22.770  0.0000E+00  0.0000E+00  0.0000E+00  0.0000E+00  0.0000E+00  0.0000E+00  0.0000E+00  0.0000E+00  0.0000E+00  0.0000E+00  0.0000E+00  0.0000E+00  0.0000E+00  0.0000E+00  0.0000E+00  0.0000E+00  0.0000E+00  0.0000E+00
    -22.615  0.0000E+00  0.0000E+00  0.0000E+00  0.0000E+00  0.0000E+00  0.0000E+00  0.0000E+00  0.0000E+00  0.0000E+00  0.0000E+00  0.0000E+00  0.0000E+00  0.0000E+00  0.0000E+00  0.0000E+00  0.0000E+00  0.0000E+00  0.0000E+00
    -22.460  0.0000E+00  0.0000E+00  0.0000E+00  0.0000E+00  0.0000E+00  0.0000E+00  0.0000E+00  0.0000E+00  0.0000E+00  0.0000E+00  0.0000E+00  0.0000E+00  0.0000E+00  0.0000E+00  0.0000E+00  0.0000E+00  0.0000E+00  0.0000E+00
    -22.306  0.0000E+00  0.0000E+00  0.0000E+00  0.0000E+00  0.0000E+00  0.0000E+00  0.0000E+00  0.0000E+00  0.0000E+00  0.0000E+00  0.0000E+00  0.0000E+00  0.0000E+00  0.0000E+00  0.0000E+00  0.0000E+00  0.0000E+00  0.0000E+00
    -22.151  0.0000E+00  0.0000E+00  0.0000E+00  0.0000E+00  0.0000E+00  0.0000E+00  0.0000E+00  0.0000E+00  0.0000E+00  0.0000E+00  0.0000E+00  0.0000E+00  0.0000E+00  0.0000E+00  0.0000E+00  0.0000E+00  0.0000E+00  0.0000E+00
    -21.997  0.0000E+00  0.0000E+00  0.0000E+00  0.0000E+00  0.0000E+00  0.0000E+00  0.0000E+00  0.0000E+00  0.0000E+00  0.0000E+00  0.0000E+00  0.0000E+00  0.0000E+00  0.0000E+00  0.0000E+00  0.0000E+00  0.0000E+00  0.0000E+00
    -21.842  0.0000E+00  0.0000E+00  0.0000E+00  0.0000E+00  0.0000E+00  0.0000E+00  0.0000E+00  0.0000E+00  0.0000E+00  0.0000E+00  0.0000E+00  0.0000E+00  0.0000E+00  0.0000E+00  0.0000E+00  0.0000E+00  0.0000E+00  0.0000E+00
    -21.687  0.0000E+00  0.0000E+00  0.0000E+00  0.0000E+00  0.0000E+00  0.0000E+00  0.0000E+00  0.0000E+00  0.0000E+00  0.0000E+00  0.0000E+00  0.0000E+00  0.0000E+00  0.0000E+00  0.0000E+00  0.0000E+00  0.0000E+00  0.0000E+00
    -21.533  0.0000E+00  0.0000E+00  0.0000E+00  0.0000E+00  0.0000E+00  0.0000E+00  0.0000E+00  0.0000E+00  0.0000E+00  0.0000E+00  0.0000E+00  0.0000E+00  0.0000E+00  0.0000E+00  0.0000E+00  0.0000E+00  0.0000E+00  0.0000E+00
    -21.378  0.0000E+00  0.0000E+00  0.0000E+00  0.0000E+00  0.0000E+00  0.0000E+00  0.0000E+00  0.0000E+00  0.0000E+00  0.0000E+00  0.0000E+00  0.0000E+00  0.0000E+00  0.0000E+00  0.0000E+00  0.0000E+00  0.0000E+00  0.0000E+00
    -21.223  0.0000E+00  0.0000E+00  0.0000E+00  0.0000E+00  0.0000E+00  0.0000E+00  0.0000E+00  0.0000E+00  0.0000E+00  0.0000E+00  0.0000E+00  0.0000E+00  0.0000E+00  0.0000E+00  0.0000E+00  0.0000E+00  0.0000E+00  0.0000E+00
    -21.069  0.0000E+00  0.0000E+00  0.0000E+00  0.0000E+00  0.0000E+00  0.0000E+00  0.0000E+00  0.0000E+00  0.0000E+00  0.0000E+00  0.0000E+00  0.0000E+00  0.0000E+00  0.0000E+00  0.0000E+00  0.0000E+00  0.0000E+00  0.0000E+00
    -20.914  0.0000E+00  0.0000E+00  0.0000E+00  0.0000E+00  0.0000E+00  0.0000E+00  0.0000E+00  0.0000E+00  0.0000E+00  0.0000E+00  0.0000E+00  0.0000E+00  0.0000E+00  0.0000E+00  0.0000E+00  0.0000E+00  0.0000E+00  0.0000E+00
    -20.759  0.0000E+00  0.0000E+00  0.0000E+00  0.0000E+00  0.0000E+00  0.0000E+00  0.0000E+00  0.0000E+00  0.0000E+00  0.0000E+00  0.0000E+00  0.0000E+00  0.0000E+00  0.0000E+00  0.0000E+00  0.0000E+00  0.0000E+00  0.0000E+00
    -20.605  0.0000E+00  0.0000E+00  0.0000E+00  0.0000E+00  0.0000E+00  0.0000E+00  0.0000E+00  0.0000E+00  0.0000E+00  0.0000E+00  0.0000E+00  0.0000E+00  0.0000E+00  0.0000E+00  0.0000E+00  0.0000E+00  0.0000E+00  0.0000E+00
    -20.450  0.0000E+00  0.0000E+00  0.0000E+00  0.0000E+00  0.0000E+00  0.0000E+00  0.0000E+00  0.0000E+00  0.0000E+00  0.0000E+00  0.0000E+00  0.0000E+00  0.0000E+00  0.0000E+00  0.0000E+00  0.0000E+00  0.0000E+00  0.0000E+00