   4   4   1   0
  0.2172019E+02  0.4428037E-09  0.4429515E-09  0.4429515E-09  0.5000000E-15
  1.000000000000000E-004
  CAR 
 unknown system                          
     13.92654644     -5.22107941  301      3.97562416      1.00000000
     -5.221  0.0000E+00  0.0000E+00  0.0000E+00  0.0000E+00
     -5.157  0.0000E+00  0.0000E+00  0.0000E+00  0.0000E+00
     -5.093  0.0000E+00  0.0000E+00  0.0000E+00  0.0000E+00
     -5.030  0.0000E+00  0.0000E+00  0.0000E+00  0.0000E+00
     -4.966  0.0000E+00  0.0000E+00  0.0000E+00  0.0000E+00
     -4.902  0.0000E+00  0.0000E+00  0.0000E+00  0.0000E+00
     -4.838  0.0000E+00  0.0000E+00  0.0000E+00  0.0000E+00
     -4.774  0.1493E-05  0.1426E-05  0.9528E-07  0.9099E-07
     -4.710  0.3051E-04  0.2913E-04  0.2042E-05  0.1950E-05
     -4.647  0.1002E-03  0.9566E-04  0.8436E-05  0.8056E-05
     -4.583  0.3682E-03  0.3516E-03  0.3193E-04  0.3050E-04
     -4.519  0.1321E-02  0.1262E-02  0.1162E-03  0.1111E-03
     -4.455  0.4527E-02  0.4333E-02  0.4052E-03  0.3876E-03
     -4.391  0.1444E-01  0.1388E-01  0.1327E-02  0.1274E-02
     -4.328  0.3780E-01  0.3668E-01  0.3739E-02  0.3615E-02
     -4.264  0.7351E-01  0.7215E-01  0.8431E-02  0.8220E-02
     -4.200  0.1103E+00  0.1090E+00  0.1547E-01  0.1518E-01
     -4.136  0.1462E+00  0.1451E+00  0.2481E-01  0.2444E-01
     -4.072  0.1680E+00  0.1675E+00  0.3553E-01  0.3513E-01
     -4.008  0.1866E+00  0.1856E+00  0.4744E-01  0.4697E-01
     -3.945  0.2205E+00  0.2194E+00  0.6151E-01  0.6098E-01
     -3.881  0.2365E+00  0.2362E+00  0.7661E-01  0.7606E-01
     -3.817  0.2471E+00  0.2465E+00  0.9239E-01  0.9180E-01
     -3.753  0.2615E+00  0.2611E+00  0.1091E+00  0.1085E+00
     -3.689  0.2742E+00  0.2733E+00  0.1266E+00  0.1259E+00
     -3.625  0.3123E+00  0.3109E+00  0.1465E+00  0.1458E+00
     -3.562  0.3336E+00  0.3334E+00  0.1678E+00  0.1671E+00
     -3.498  0.3310E+00  0.3314E+00  0.1890E+00  0.1882E+00
     -3.434  0.3194E+00  0.3195E+00  0.2094E+00  0.2086E+00
     -3.370  0.3490E+00  0.3468E+00  0.2317E+00  0.2308E+00
     -3.306  0.4114E+00  0.4097E+00  0.2579E+00  0.2569E+00
     -3.242  0.4272E+00  0.4272E+00  0.2852E+00  0.2842E+00
     -3.179  0.4292E+00  0.4292E+00  0.3126E+00  0.3116E+00
     -3.115  0.4235E+00  0.4236E+00  0.3397E+00  0.3387E+00
     -3.051  0.4632E+00  0.4602E+00  0.3693E+00  0.3681E+00
     -2.987  0.5444E+00  0.5423E+00  0.4040E+00  0.4027E+00
     -2.923  0.5517E+00  0.5527E+00  0.4392E+00  0.4380E+00
     -2.860  0.5001E+00  0.5026E+00  0.4712E+00  0.4701E+00
     -2.796  0.4355E+00  0.4371E+00  0.4990E+00  0.4980E+00
     -2.732  0.4540E+00  0.4513E+00  0.5280E+00  0.5268E+00
     -2.668  0.5236E+00  0.5226E+00  0.5614E+00  0.5602E+00
     -2.604  0.4837E+00  0.4867E+00  0.5923E+00  0.5913E+00
     -2.540  0.4014E+00  0.4041E+00  0.6179E+00  0.6171E+00
     -2.477  0.3378E+00  0.3393E+00  0.6395E+00  0.6388E+00
     -2.413  0.3571E+00  0.3541E+00  0.6623E+00  0.6614E+00
     -2.349  0.4489E+00  0.4466E+00  0.6910E+00  0.6899E+00
     -2.285  0.4312E+00  0.4342E+00  0.7186E+00  0.7177E+00
     -2.221  0.3332E+00  0.3367E+00  0.7399E+00  0.7392E+00
     -2.157  0.2495E+00  0.2517E+00  0.7558E+00  0.7553E+00
     -2.094  0.2488E+00  0.2465E+00  0.7717E+00  0.7710E+00
     -2.030  0.3516E+00  0.3478E+00  0.7941E+00  0.7932E+00
     -1.966  0.3841E+00  0.3857E+00  0.8187E+00  0.8179E+00
     -1.902  0.3102E+00  0.3127E+00  0.8385E+00  0.8378E+00
     -1.838  0.2923E+00  0.2916E+00  0.8572E+00  0.8565E+00
     -1.775  0.3420E+00  0.3394E+00  0.8790E+00  0.8782E+00
     -1.711  0.4313E+00  0.4278E+00  0.9066E+00  0.9055E+00
     -1.647  0.4970E+00  0.4961E+00  0.9383E+00  0.9371E+00
     -1.583  0.4714E+00  0.4733E+00  0.9684E+00  0.9674E+00
     -1.519  0.4304E+00  0.4313E+00  0.9959E+00  0.9949E+00
     -1.455  0.4297E+00  0.4289E+00  0.1023E+01  0.1022E+01
     -1.392  0.4867E+00  0.4832E+00  0.1054E+01  0.1053E+01
     -1.328  0.5903E+00  0.5871E+00  0.1092E+01  0.1091E+01
     -1.264  0.6373E+00  0.6368E+00  0.1133E+01  0.1131E+01
     -1.200  0.6275E+00  0.6285E+00  0.1173E+01  0.1171E+01
     -1.136  0.5969E+00  0.5975E+00  0.1211E+01  0.1210E+01
     -1.072  0.6250E+00  0.6223E+00  0.1251E+01  0.1249E+01
     -1.009  0.7091E+00  0.7062E+00  0.1296E+01  0.1294E+01
     -0.945  0.7554E+00  0.7552E+00  0.1344E+01  0.1343E+01
     -0.881  0.7157E+00  0.7182E+00  0.1390E+01  0.1389E+01
     -0.817  0.6842E+00  0.6833E+00  0.1434E+01  0.1432E+01
     -0.753  0.7531E+00  0.7502E+00  0.1482E+01  0.1480E+01
     -0.689  0.7708E+00  0.7724E+00  0.1531E+01  0.1529E+01
     -0.626  0.7122E+00  0.7135E+00  0.1577E+01  0.1575E+01
     -0.562  0.7067E+00  0.7063E+00  0.1622E+01  0.1620E+01
     -0.498  0.7102E+00  0.7103E+00  0.1667E+01  0.1665E+01
     -0.434  0.7007E+00  0.7017E+00  0.1712E+01  0.1710E+01
     -0.370  0.6401E+00  0.6430E+00  0.1753E+01  0.1751E+01
     -0.307  0.5853E+00  0.5857E+00  0.1790E+01  0.1789E+01
     -0.243  0.6037E+00  0.6022E+00  0.1829E+01  0.1827E+01
     -0.179  0.6366E+00  0.6361E+00  0.1869E+01  0.1868E+01
     -0.115  0.6118E+00  0.6141E+00  0.1908E+01  0.1907E+01
     -0.051  0.5265E+00  0.5300E+00  0.1942E+01  0.1941E+01
      0.013  0.4711E+00  0.4710E+00  0.1972E+01  0.1971E+01
      0.076  0.5554E+00  0.5502E+00  0.2008E+01  0.2006E+01
      0.140  0.6860E+00  0.6826E+00  0.2051E+01  0.2050E+01
      0.204  0.7216E+00  0.7215E+00  0.2098E+01  0.2096E+01
      0.268  0.7259E+00  0.7256E+00  0.2144E+01  0.2142E+01
      0.332  0.7150E+00  0.7163E+00  0.2190E+01  0.2188E+01
      0.396  0.6588E+00  0.6610E+00  0.2232E+01  0.2230E+01
      0.459  0.6071E+00  0.6087E+00  0.2270E+01  0.2269E+01
      0.523  0.5510E+00  0.5538E+00  0.2306E+01  0.2304E+01
      0.587  0.4529E+00  0.4568E+00  0.2335E+01  0.2334E+01
      0.651  0.3906E+00  0.3908E+00  0.2359E+01  0.2359E+01
      0.715  0.4785E+00  0.4723E+00  0.2390E+01  0.2389E+01
      0.779  0.6660E+00  0.6604E+00  0.2433E+01  0.2431E+01
      0.842  0.6955E+00  0.6989E+00  0.2477E+01  0.2476E+01
      0.906  0.5322E+00  0.5392E+00  0.2511E+01  0.2510E+01
      0.970  0.3844E+00  0.3875E+00  0.2536E+01  0.2535E+01
      1.034  0.3786E+00  0.3767E+00  0.2560E+01  0.2559E+01
      1.098  0.4388E+00  0.4370E+00  0.2588E+01  0.2587E+01
      1.161  0.4799E+00  0.4784E+00  0.2618E+01  0.2617E+01
      1.225  0.5703E+00  0.5652E+00  0.2655E+01  0.2653E+01
      1.289  0.7501E+00  0.7437E+00  0.2703E+01  0.2701E+01
      1.353  0.8363E+00  0.8370E+00  0.2756E+01  0.2754E+01
      1.417  0.7296E+00  0.7353E+00  0.2803E+01  0.2801E+01
      1.481  0.6321E+00  0.6330E+00  0.2843E+01  0.2842E+01
      1.544  0.7307E+00  0.7252E+00  0.2890E+01  0.2888E+01
      1.608  0.8659E+00  0.8639E+00  0.2945E+01  0.2943E+01
      1.672  0.8198E+00  0.8241E+00  0.2997E+01  0.2996E+01
      1.736  0.6983E+00  0.7009E+00  0.3042E+01  0.3041E+01
      1.800  0.7059E+00  0.7031E+00  0.3087E+01  0.3085E+01
      1.864  0.7949E+00  0.7926E+00  0.3138E+01  0.3136E+01
      1.927  0.8207E+00  0.8201E+00  0.3190E+01  0.3188E+01
      1.991  0.8763E+00  0.8730E+00  0.3246E+01  0.3244E+01
      2.055  0.9927E+00  0.9884E+00  0.3310E+01  0.3307E+01
      2.119  0.1106E+01  0.1103E+01  0.3380E+01  0.3378E+01
      2.183  0.1092E+01  0.1096E+01  0.3450E+01  0.3448E+01
      2.246  0.8731E+00  0.8825E+00  0.3506E+01  0.3504E+01
      2.310  0.6606E+00  0.6648E+00  0.3548E+01  0.3547E+01
      2.374  0.6670E+00  0.6636E+00  0.3590E+01  0.3589E+01
      2.438  0.7819E+00  0.7793E+00  0.3640E+01  0.3639E+01
      2.502  0.7962E+00  0.7974E+00  0.3691E+01  0.3690E+01
      2.566  0.7929E+00  0.7915E+00  0.3742E+01  0.3740E+01
      2.629  0.9169E+00  0.9107E+00  0.3801E+01  0.3798E+01
      2.693  0.1110E+01  0.1103E+01  0.3871E+01  0.3869E+01
      2.757  0.1207E+01  0.1207E+01  0.3948E+01  0.3946E+01
      2.821  0.1067E+01  0.1074E+01  0.4017E+01  0.4014E+01
      2.885  0.8794E+00  0.8833E+00  0.4073E+01  0.4071E+01
      2.949  0.8117E+00  0.8135E+00  0.4125E+01  0.4123E+01
      3.012  0.7627E+00  0.7639E+00  0.4173E+01  0.4172E+01
      3.076  0.7895E+00  0.7871E+00  0.4224E+01  0.4222E+01
      3.140  0.8644E+00  0.8632E+00  0.4279E+01  0.4277E+01
      3.204  0.8745E+00  0.8745E+00  0.4335E+01  0.4333E+01
      3.268  0.8749E+00  0.8748E+00  0.4391E+01  0.4389E+01
      3.332  0.8700E+00  0.8698E+00  0.4446E+01  0.4444E+01
      3.395  0.8849E+00  0.8840E+00  0.4503E+01  0.4501E+01
      3.459  0.9097E+00  0.9083E+00  0.4561E+01  0.4559E+01
      3.523  0.9396E+00  0.9398E+00  0.4621E+01  0.4619E+01
      3.587  0.8704E+00  0.8747E+00  0.4676E+01  0.4675E+01
      3.651  0.7598E+00  0.7611E+00  0.4725E+01  0.4723E+01
      3.714  0.7948E+00  0.7914E+00  0.4776E+01  0.4774E+01
      3.778  0.8815E+00  0.8795E+00  0.4832E+01  0.4830E+01
      3.842  0.9040E+00  0.9049E+00  0.4890E+01  0.4888E+01
      3.906  0.8634E+00  0.8651E+00  0.4945E+01  0.4943E+01
      3.970  0.8049E+00  0.8062E+00  0.4996E+01  0.4995E+01
      4.034  0.7750E+00  0.7750E+00  0.5046E+01  0.5044E+01
      4.097  0.7764E+00  0.7764E+00  0.5095E+01  0.5094E+01
      4.161  0.7977E+00  0.7968E+00  0.5146E+01  0.5145E+01
      4.225  0.8239E+00  0.8229E+00  0.5199E+01  0.5197E+01
      4.289  0.8123E+00  0.8131E+00  0.5251E+01  0.5249E+01
      4.353  0.7535E+00  0.7555E+00  0.5299E+01  0.5297E+01
      4.417  0.7747E+00  0.7709E+00  0.5348E+01  0.5347E+01
      4.480  0.9849E+00  0.9750E+00  0.5411E+01  0.5409E+01
      4.544  0.1195E+01  0.1192E+01  0.5488E+01  0.5485E+01
      4.608  0.1064E+01  0.1074E+01  0.5556E+01  0.5553E+01
      4.672  0.7881E+00  0.7954E+00  0.5606E+01  0.5604E+01
      4.736  0.6924E+00  0.6923E+00  0.5650E+01  0.5649E+01
      4.800  0.7524E+00  0.7486E+00  0.5698E+01  0.5696E+01
      4.863  0.8806E+00  0.8763E+00  0.5754E+01  0.5752E+01
      4.927  0.1003E+01  0.9999E+00  0.5819E+01  0.5816E+01
      4.991  0.1045E+01  0.1045E+01  0.5885E+01  0.5883E+01
      5.055  0.9833E+00  0.9862E+00  0.5948E+01  0.5946E+01
      5.119  0.8988E+00  0.9005E+00  0.6005E+01  0.6003E+01
      5.182  0.9118E+00  0.9099E+00  0.6064E+01  0.6061E+01
      5.246  0.1008E+01  0.1005E+01  0.6128E+01  0.6126E+01
      5.310  0.1058E+01  0.1058E+01  0.6196E+01  0.6193E+01
      5.374  0.9952E+00  0.9979E+00  0.6259E+01  0.6257E+01
      5.438  0.9386E+00  0.9394E+00  0.6319E+01  0.6317E+01
      5.502  0.9560E+00  0.9539E+00  0.6380E+01  0.6378E+01
      5.565  0.1014E+01  0.1012E+01  0.6445E+01  0.6443E+01
      5.629  0.1022E+01  0.1024E+01  0.6510E+01  0.6508E+01
      5.693  0.9483E+00  0.9510E+00  0.6571E+01  0.6569E+01
      5.757  0.9399E+00  0.9377E+00  0.6631E+01  0.6629E+01
      5.821  0.1026E+01  0.1022E+01  0.6696E+01  0.6694E+01
      5.885  0.1060E+01  0.1060E+01  0.6764E+01  0.6761E+01
      5.948  0.1018E+01  0.1021E+01  0.6829E+01  0.6827E+01
      6.012  0.9727E+00  0.9744E+00  0.6891E+01  0.6889E+01
      6.076  0.9665E+00  0.9666E+00  0.6953E+01  0.6951E+01
      6.140  0.9309E+00  0.9336E+00  0.7012E+01  0.7010E+01
      6.204  0.8553E+00  0.8559E+00  0.7067E+01  0.7065E+01
      6.267  0.9116E+00  0.9065E+00  0.7125E+01  0.7123E+01
      6.331  0.1049E+01  0.1044E+01  0.7192E+01  0.7190E+01
      6.395  0.1146E+01  0.1143E+01  0.7265E+01  0.7263E+01
      6.459  0.1140E+01  0.1142E+01  0.7338E+01  0.7336E+01
      6.523  0.1028E+01  0.1034E+01  0.7404E+01  0.7402E+01
      6.587  0.8887E+00  0.8925E+00  0.7461E+01  0.7459E+01
      6.650  0.8581E+00  0.8567E+00  0.7516E+01  0.7513E+01
      6.714  0.8870E+00  0.8850E+00  0.7572E+01  0.7570E+01
      6.778  0.9661E+00  0.9607E+00  0.7634E+01  0.7631E+01
      6.842  0.1192E+01  0.1182E+01  0.7710E+01  0.7707E+01
      6.906  0.1428E+01  0.1422E+01  0.7801E+01  0.7797E+01
      6.970  0.1433E+01  0.1439E+01  0.7893E+01  0.7889E+01
      7.033  0.1142E+01  0.1155E+01  0.7966E+01  0.7963E+01
      7.097  0.9002E+00  0.9046E+00  0.8023E+01  0.8021E+01
      7.161  0.8924E+00  0.8884E+00  0.8080E+01  0.8078E+01
      7.225  0.1042E+01  0.1035E+01  0.8147E+01  0.8144E+01
      7.289  0.1150E+01  0.1149E+01  0.8220E+01  0.8217E+01
      7.353  0.1143E+01  0.1143E+01  0.8293E+01  0.8290E+01
      7.416  0.1177E+01  0.1176E+01  0.8368E+01  0.8365E+01
      7.480  0.1135E+01  0.1137E+01  0.8441E+01  0.8438E+01
      7.544  0.1102E+01  0.1102E+01  0.8511E+01  0.8508E+01
      7.608  0.1105E+01  0.1105E+01  0.8582E+01  0.8579E+01
      7.672  0.1169E+01  0.1165E+01  0.8656E+01  0.8653E+01
      7.735  0.1272E+01  0.1267E+01  0.8738E+01  0.8734E+01
      7.799  0.1334E+01  0.1332E+01  0.8823E+01  0.8819E+01
      7.863  0.1331E+01  0.1333E+01  0.8908E+01  0.8904E+01
      7.927  0.1270E+01  0.1272E+01  0.8989E+01  0.8986E+01
      7.991  0.1238E+01  0.1239E+01  0.9068E+01  0.9065E+01
      8.055  0.1218E+01  0.1220E+01  0.9146E+01  0.9143E+01
      8.118  0.1146E+01  0.1150E+01  0.9219E+01  0.9216E+01
      8.182  0.1048E+01  0.1050E+01  0.9286E+01  0.9283E+01
      8.246  0.1014E+01  0.1013E+01  0.9351E+01  0.9348E+01
      8.310  0.1060E+01  0.1057E+01  0.9418E+01  0.9415E+01
      8.374  0.1175E+01  0.1170E+01  0.9493E+01  0.9490E+01
      8.438  0.1339E+01  0.1334E+01  0.9579E+01  0.9575E+01
      8.501  0.1384E+01  0.1386E+01  0.9667E+01  0.9664E+01
      8.565  0.1262E+01  0.1268E+01  0.9748E+01  0.9745E+01
      8.629  0.1156E+01  0.1158E+01  0.9822E+01  0.9819E+01
      8.693  0.1150E+01  0.1150E+01  0.9895E+01  0.9892E+01
      8.757  0.1160E+01  0.1158E+01  0.9969E+01  0.9966E+01
      8.821  0.1246E+01  0.1238E+01  0.1005E+02  0.1005E+02
      8.884  0.1394E+01  0.1391E+01  0.1014E+02  0.1013E+02
      8.948  0.1333E+01  0.1341E+01  0.1022E+02  0.1022E+02
      9.012  0.1119E+01  0.1127E+01  0.1029E+02  0.1029E+02
      9.076  0.1026E+01  0.1027E+01  0.1036E+02  0.1036E+02
      9.140  0.1065E+01  0.1062E+01  0.1043E+02  0.1043E+02
      9.203  0.1116E+01  0.1112E+01  0.1050E+02  0.1050E+02
      9.267  0.1153E+01  0.1150E+01  0.1057E+02  0.1057E+02
      9.331  0.1203E+01  0.1197E+01  0.1065E+02  0.1065E+02
      9.395  0.1280E+01  0.1272E+01  0.1073E+02  0.1073E+02
      9.459  0.1291E+01  0.1290E+01  0.1081E+02  0.1081E+02
      9.523  0.1164E+01  0.1177E+01  0.1089E+02  0.1088E+02
      9.586  0.1006E+01  0.1020E+01  0.1095E+02  0.1095E+02
      9.650  0.8480E+00  0.8654E+00  0.1101E+02  0.1101E+02
      9.714  0.7165E+00  0.7214E+00  0.1105E+02  0.1105E+02
      9.778  0.7909E+00  0.7779E+00  0.1110E+02  0.1110E+02
      9.842  0.9629E+00  0.9492E+00  0.1116E+02  0.1116E+02
      9.906  0.1049E+01  0.1040E+01  0.1123E+02  0.1123E+02
      9.969  0.1027E+01  0.1028E+01  0.1130E+02  0.1129E+02
     10.033  0.9096E+00  0.9270E+00  0.1136E+02  0.1135E+02
     10.097  0.7212E+00  0.7353E+00  0.1140E+02  0.1140E+02
     10.161  0.5381E+00  0.5427E+00  0.1144E+02  0.1143E+02
     10.225  0.3942E+00  0.3969E+00  0.1146E+02  0.1146E+02
     10.288  0.2913E+00  0.2940E+00  0.1148E+02  0.1148E+02
     10.352  0.2438E+00  0.2441E+00  0.1150E+02  0.1149E+02
     10.416  0.2933E+00  0.2908E+00  0.1151E+02  0.1151E+02
     10.480  0.4037E+00  0.4019E+00  0.1154E+02  0.1154E+02
     10.544  0.4764E+00  0.4770E+00  0.1157E+02  0.1157E+02
     10.608  0.4249E+00  0.4284E+00  0.1160E+02  0.1160E+02
     10.671  0.3257E+00  0.3313E+00  0.1162E+02  0.1162E+02
     10.735  0.3264E+00  0.3360E+00  0.1164E+02  0.1164E+02
     10.799  0.3948E+00  0.4123E+00  0.1166E+02  0.1167E+02
     10.863  0.3969E+00  0.4008E+00  0.1169E+02  0.1169E+02
     10.927  0.3572E+00  0.3392E+00  0.1171E+02  0.1171E+02
     10.991  0.3350E+00  0.3218E+00  0.1173E+02  0.1173E+02
     11.054  0.2979E+00  0.2933E+00  0.1175E+02  0.1175E+02
     11.118  0.3161E+00  0.3116E+00  0.1177E+02  0.1177E+02
     11.182  0.3724E+00  0.3690E+00  0.1180E+02  0.1180E+02
     11.246  0.3716E+00  0.3739E+00  0.1182E+02  0.1182E+02
     11.310  0.2535E+00  0.2608E+00  0.1184E+02  0.1184E+02
     11.374  0.1135E+00  0.1185E+00  0.1184E+02  0.1184E+02
     11.437  0.4513E-01  0.4665E-01  0.1185E+02  0.1185E+02
     11.501  0.3865E-01  0.3746E-01  0.1185E+02  0.1185E+02
     11.565  0.8898E-01  0.8420E-01  0.1185E+02  0.1185E+02
     11.629  0.2022E+00  0.1953E+00  0.1187E+02  0.1187E+02
     11.693  0.2741E+00  0.2763E+00  0.1189E+02  0.1188E+02
     11.756  0.1959E+00  0.2098E+00  0.1190E+02  0.1190E+02
     11.820  0.9856E-01  0.1222E+00  0.1190E+02  0.1191E+02
     11.884  0.6997E-01  0.1084E+00  0.1191E+02  0.1191E+02
     11.948  0.8674E-01  0.1159E+00  0.1191E+02  0.1192E+02
     12.012  0.1007E+00  0.8771E-01  0.1192E+02  0.1193E+02
     12.076  0.1100E+00  0.7246E-01  0.1193E+02  0.1193E+02
     12.139  0.1296E+00  0.1003E+00  0.1194E+02  0.1194E+02
     12.203  0.1226E+00  0.1111E+00  0.1194E+02  0.1194E+02
     12.267  0.8804E-01  0.8486E-01  0.1195E+02  0.1195E+02
     12.331  0.9610E-01  0.9316E-01  0.1196E+02  0.1196E+02
     12.395  0.1490E+00  0.1461E+00  0.1197E+02  0.1196E+02
     12.459  0.1646E+00  0.1651E+00  0.1198E+02  0.1198E+02
     12.522  0.1135E+00  0.1160E+00  0.1198E+02  0.1198E+02
     12.586  0.6821E-01  0.6936E-01  0.1199E+02  0.1199E+02
     12.650  0.4796E-01  0.4894E-01  0.1199E+02  0.1199E+02
     12.714  0.2687E-01  0.2801E-01  0.1199E+02  0.1199E+02
     12.778  0.1372E-01  0.1413E-01  0.1199E+02  0.1199E+02
     12.842  0.1430E-01  0.1417E-01  0.1199E+02  0.1199E+02
     12.905  0.2014E-01  0.2004E-01  0.1200E+02  0.1200E+02
     12.969  0.1992E-01  0.2013E-01  0.1200E+02  0.1200E+02
     13.033  0.1972E-01  0.1978E-01  0.1200E+02  0.1200E+02
     13.097  0.1939E-01  0.1955E-01  0.1200E+02  0.1200E+02
     13.161  0.1160E-01  0.1185E-01  0.1200E+02  0.1200E+02
     13.224  0.4420E-02  0.4551E-02  0.1200E+02  0.1200E+02
     13.288  0.1318E-02  0.1361E-02  0.1200E+02  0.1200E+02
     13.352  0.3791E-03  0.3917E-03  0.1200E+02  0.1200E+02
     13.416  0.1067E-03  0.1103E-03  0.1200E+02  0.1200E+02
     13.480  0.0000E+00  0.0000E+00  0.1200E+02  0.1200E+02
     13.544  0.0000E+00  0.0000E+00  0.1200E+02  0.1200E+02
     13.607  0.0000E+00  0.0000E+00  0.1200E+02  0.1200E+02
     13.671  0.0000E+00  0.0000E+00  0.1200E+02  0.1200E+02
     13.735  0.0000E+00  0.0000E+00  0.1200E+02  0.1200E+02
     13.799  0.0000E+00  0.0000E+00  0.1200E+02  0.1200E+02
     13.863  0.0000E+00  0.0000E+00  0.1200E+02  0.1200E+02
     13.927  0.0000E+00  0.0000E+00  0.1200E+02  0.1200E+02
     13.92654644     -5.22107941  301      3.97562416      1.00000000
     -5.221  0.0000E+00  0.0000E+00  0.0000E+00  0.0000E+00  0.0000E+00  0.0000E+00  0.0000E+00  0.0000E+00  0.0000E+00  0.0000E+00  0.0000E+00  0.0000E+00  0.0000E+00  0.0000E+00  0.0000E+00  0.0000E+00  0.0000E+00  0.0000E+00
     -5.157  0.0000E+00  0.0000E+00  0.0000E+00  0.0000E+00  0.0000E+00  0.0000E+00  0.0000E+00  0.0000E+00  0.0000E+00  0.0000E+00  0.0000E+00  0.0000E+00  0.0000E+00  0.0000E+00  0.0000E+00  0.0000E+00  0.0000E+00  0.0000E+00
     -5.093  0.0000E+00  0.0000E+00  0.0000E+00  0.0000E+00  0.0000E+00  0.0000E+00  0.0000E+00  0.0000E+00  0.0000E+00  0.0000E+00  0.0000E+00  0.0000E+00  0.0000E+00  0.0000E+00  0.0000E+00  0.0000E+00  0.0000E+00  0.0000E+00
     -5.030  0.0000E+00  0.0000E+00  0.0000E+00  0.0000E+00  0.0000E+00  0.0000E+00  0.0000E+00  0.0000E+00  0.0000E+00  0.0000E+00  0.0000E+00  0.0000E+00  0.0000E+00  0.0000E+00  0.0000E+00  0.0000E+00  0.0000E+00  0.0000E+00
     -4.966  0.0000E+00  0.0000E+00  0.0000E+00  0.0000E+00  0.0000E+00  0.0000E+00  0.0000E+00  0.0000E+00  0.0000E+00  0.0000E+00  0.0000E+00  0.0000E+00  0.0000E+00  0.0000E+00  0.0000E+00  0.0000E+00  0.0000E+00  0.0000E+00
     -4.902  0.0000E+00  0.0000E+00  0.0000E+00  0.0000E+00  0.0000E+00  0.0000E+00  0.0000E+00  0.0000E+00  0.0000E+00  0.0000E+00  0.0000E+00  0.0000E+00  0.0000E+00  0.0000E+00  0.0000E+00  0.0000E+00  0.0000E+00  0.0000E+00
     -4.838  0.0000E+00  0.0000E+00  0.0000E+00  0.0000E+00  0.0000E+00  0.0000E+00  0.0000E+00  0.0000E+00  0.0000E+00  0.0000E+00  0.0000E+00  0.0000E+00  0.0000E+00  0.0000E+00  0.0000E+00  0.0000E+00  0.0000E+00  0.0000E+00
     -4.774  0.2178E-07  0.2080E-07  0.7129E-22  0.1679E-21  0.7129E-22  0.1679E-21  0.2554E-22  0.8523E-21  0.0000E+00  0.0000E+00  0.0000E+00  0.0000E+00  0.0000E+00  0.0000E+00  0.0000E+00  0.0000E+00  0.0000E+00  0.0000E+00
     -4.710  0.4368E-06  0.4171E-06  0.2450E-08  0.2339E-08  0.2450E-08  0.2339E-08  0.2449E-08  0.2339E-08  0.0000E+00  0.0000E+00  0.0000E+00  0.0000E+00  0.0000E+00  0.0000E+00  0.0000E+00  0.0000E+00  0.0000E+00  0.0000E+00
     -4.647  0.1428E-05  0.1363E-05  0.9889E-08  0.9444E-08  0.9889E-08  0.9444E-08  0.9885E-08  0.9440E-08  0.0000E+00  0.0000E+00  0.0000E+00  0.0000E+00  0.0000E+00  0.0000E+00  0.0000E+00  0.0000E+00  0.0000E+00  0.0000E+00
     -4.583  0.5233E-05  0.4997E-05  0.4056E-07  0.3873E-07  0.4056E-07  0.3873E-07  0.4053E-07  0.3871E-07  0.0000E+00  0.0000E+00  0.0000E+00  0.0000E+00  0.0000E+00  0.0000E+00  0.0000E+00  0.0000E+00  0.0000E+00  0.0000E+00
     -4.519  0.1875E-04  0.1792E-04  0.1521E-06  0.1453E-06  0.1521E-06  0.1453E-06  0.1520E-06  0.1452E-06  0.0000E+00  0.0000E+00  0.0000E+00  0.0000E+00  0.0000E+00  0.0000E+00  0.0000E+00  0.0000E+00  0.0000E+00  0.0000E+00
     -4.455  0.6425E-04  0.6149E-04  0.5262E-06  0.5031E-06  0.5262E-06  0.5031E-06  0.5259E-06  0.5028E-06  0.0000E+00  0.0000E+00  0.0000E+00  0.0000E+00  0.0000E+00  0.0000E+00  0.0000E+00  0.0000E+00  0.0000E+00  0.0000E+00
     -4.391  0.2045E-03  0.1966E-03  0.1813E-05  0.1737E-05  0.1813E-05  0.1737E-05  0.1811E-05  0.1736E-05  0.0000E+00  0.0000E+00  0.0000E+00  0.0000E+00  0.0000E+00  0.0000E+00  0.0000E+00  0.0000E+00  0.0000E+00  0.0000E+00
     -4.328  0.5328E-03  0.5172E-03  0.5429E-05  0.5234E-05  0.5429E-05  0.5234E-05  0.5425E-05  0.5230E-05  0.0000E+00  0.0000E+00  0.0000E+00  0.0000E+00  0.0000E+00  0.0000E+00  0.0000E+00  0.0000E+00  0.0000E+00  0.0000E+00
     -4.264  0.1026E-02  0.1008E-02  0.1339E-04  0.1301E-04  0.1339E-04  0.1301E-04  0.1338E-04  0.1300E-04  0.0000E+00  0.0000E+00  0.0000E+00  0.0000E+00  0.0000E+00  0.0000E+00  0.0000E+00  0.0000E+00  0.0000E+00  0.0000E+00
     -4.200  0.1516E-02  0.1499E-02  0.2720E-04  0.2658E-04  0.2720E-04  0.2658E-04  0.2718E-04  0.2656E-04  0.0000E+00  0.0000E+00  0.0000E+00  0.0000E+00  0.0000E+00  0.0000E+00  0.0000E+00  0.0000E+00  0.0000E+00  0.0000E+00
     -4.136  0.1971E-02  0.1957E-02  0.4685E-04  0.4608E-04  0.4685E-04  0.4608E-04  0.4682E-04  0.4605E-04  0.0000E+00  0.0000E+00  0.0000E+00  0.0000E+00  0.0000E+00  0.0000E+00  0.0000E+00  0.0000E+00  0.0000E+00  0.0000E+00
     -4.072  0.2217E-02  0.2213E-02  0.6696E-04  0.6624E-04  0.6696E-04  0.6624E-04  0.6691E-04  0.6619E-04  0.0000E+00  0.0000E+00  0.0000E+00  0.0000E+00  0.0000E+00  0.0000E+00  0.0000E+00  0.0000E+00  0.0000E+00  0.0000E+00
     -4.008  0.2394E-02  0.2383E-02  0.9368E-04  0.9245E-04  0.9368E-04  0.9245E-04  0.9358E-04  0.9234E-04  0.0000E+00  0.0000E+00  0.0000E+00  0.0000E+00  0.0000E+00  0.0000E+00  0.0000E+00  0.0000E+00  0.0000E+00  0.0000E+00
     -3.945  0.2754E-02  0.2742E-02  0.1312E-03  0.1299E-03  0.1312E-03  0.1299E-03  0.1311E-03  0.1298E-03  0.0000E+00  0.0000E+00  0.0000E+00  0.0000E+00  0.0000E+00  0.0000E+00  0.0000E+00  0.0000E+00  0.0000E+00  0.0000E+00
     -3.881  0.2881E-02  0.2880E-02  0.1603E-03  0.1594E-03  0.1603E-03  0.1594E-03  0.1602E-03  0.1593E-03  0.0000E+00  0.0000E+00  0.0000E+00  0.0000E+00  0.0000E+00  0.0000E+00  0.0000E+00  0.0000E+00  0.0000E+00  0.0000E+00
     -3.817  0.2924E-02  0.2919E-02  0.1906E-03  0.1893E-03  0.1906E-03  0.1893E-03  0.1905E-03  0.1892E-03  0.0000E+00  0.0000E+00  0.0000E+00  0.0000E+00  0.0000E+00  0.0000E+00  0.0000E+00  0.0000E+00  0.0000E+00  0.0000E+00
     -3.753  0.2995E-02  0.2994E-02  0.2271E-03  0.2259E-03  0.2271E-03  0.2259E-03  0.2268E-03  0.2256E-03  0.0000E+00  0.0000E+00  0.0000E+00  0.0000E+00  0.0000E+00  0.0000E+00  0.0000E+00  0.0000E+00  0.0000E+00  0.0000E+00
     -3.689  0.3014E-02  0.3006E-02  0.2703E-03  0.2682E-03  0.2703E-03  0.2682E-03  0.2699E-03  0.2678E-03  0.0000E+00  0.0000E+00  0.0000E+00  0.0000E+00  0.0000E+00  0.0000E+00  0.0000E+00  0.0000E+00  0.0000E+00  0.0000E+00
     -3.625  0.3308E-02  0.3295E-02  0.3388E-03  0.3364E-03  0.3388E-03  0.3364E-03  0.3385E-03  0.3361E-03  0.0000E+00  0.0000E+00  0.0000E+00  0.0000E+00  0.0000E+00  0.0000E+00  0.0000E+00  0.0000E+00  0.0000E+00  0.0000E+00
     -3.562  0.3433E-02  0.3431E-02  0.3871E-03  0.3859E-03  0.3871E-03  0.3859E-03  0.3869E-03  0.3857E-03  0.0000E+00  0.0000E+00  0.0000E+00  0.0000E+00  0.0000E+00  0.0000E+00  0.0000E+00  0.0000E+00  0.0000E+00  0.0000E+00
     -3.498  0.3290E-02  0.3297E-02  0.4119E-03  0.4113E-03  0.4119E-03  0.4113E-03  0.4117E-03  0.4111E-03  0.0000E+00  0.0000E+00  0.0000E+00  0.0000E+00  0.0000E+00  0.0000E+00  0.0000E+00  0.0000E+00  0.0000E+00  0.0000E+00
     -3.434  0.3019E-02  0.3025E-02  0.4332E-03  0.4317E-03  0.4332E-03  0.4317E-03  0.4325E-03  0.4311E-03  0.0000E+00  0.0000E+00  0.0000E+00  0.0000E+00  0.0000E+00  0.0000E+00  0.0000E+00  0.0000E+00  0.0000E+00  0.0000E+00
     -3.370  0.3065E-02  0.3053E-02  0.5258E-03  0.5207E-03  0.5258E-03  0.5207E-03  0.5243E-03  0.5192E-03  0.0000E+00  0.0000E+00  0.0000E+00  0.0000E+00  0.0000E+00  0.0000E+00  0.0000E+00  0.0000E+00  0.0000E+00  0.0000E+00
     -3.306  0.3410E-02  0.3401E-02  0.6636E-03  0.6597E-03  0.6636E-03  0.6597E-03  0.6626E-03  0.6587E-03  0.0000E+00  0.0000E+00  0.0000E+00  0.0000E+00  0.0000E+00  0.0000E+00  0.0000E+00  0.0000E+00  0.0000E+00  0.0000E+00
     -3.242  0.3373E-02  0.3380E-02  0.7247E-03  0.7233E-03  0.7247E-03  0.7233E-03  0.7242E-03  0.7227E-03  0.0000E+00  0.0000E+00  0.0000E+00  0.0000E+00  0.0000E+00  0.0000E+00  0.0000E+00  0.0000E+00  0.0000E+00  0.0000E+00
     -3.179  0.3163E-02  0.3175E-02  0.7741E-03  0.7722E-03  0.7741E-03  0.7722E-03  0.7730E-03  0.7711E-03  0.0000E+00  0.0000E+00  0.0000E+00  0.0000E+00  0.0000E+00  0.0000E+00  0.0000E+00  0.0000E+00  0.0000E+00  0.0000E+00
     -3.115  0.2797E-02  0.2815E-02  0.8281E-03  0.8252E-03  0.8281E-03  0.8252E-03  0.8260E-03  0.8232E-03  0.0000E+00  0.0000E+00  0.0000E+00  0.0000E+00  0.0000E+00  0.0000E+00  0.0000E+00  0.0000E+00  0.0000E+00  0.0000E+00
     -3.051  0.2634E-02  0.2632E-02  0.9881E-03  0.9793E-03  0.9881E-03  0.9793E-03  0.9848E-03  0.9761E-03  0.0000E+00  0.0000E+00  0.0000E+00  0.0000E+00  0.0000E+00  0.0000E+00  0.0000E+00  0.0000E+00  0.0000E+00  0.0000E+00
     -2.987  0.2867E-02  0.2866E-02  0.1203E-02  0.1197E-02  0.1203E-02  0.1197E-02  0.1202E-02  0.1196E-02  0.0000E+00  0.0000E+00  0.0000E+00  0.0000E+00  0.0000E+00  0.0000E+00  0.0000E+00  0.0000E+00  0.0000E+00  0.0000E+00
     -2.923  0.2717E-02  0.2734E-02  0.1251E-02  0.1252E-02  0.1251E-02  0.1252E-02  0.1251E-02  0.1252E-02  0.0000E+00  0.0000E+00  0.0000E+00  0.0000E+00  0.0000E+00  0.0000E+00  0.0000E+00  0.0000E+00  0.0000E+00  0.0000E+00
     -2.860  0.2244E-02  0.2264E-02  0.1171E-02  0.1176E-02  0.1171E-02  0.1176E-02  0.1173E-02  0.1177E-02  0.0000E+00  0.0000E+00  0.0000E+00  0.0000E+00  0.0000E+00  0.0000E+00  0.0000E+00  0.0000E+00  0.0000E+00  0.0000E+00
     -2.796  0.1831E-02  0.1844E-02  0.1038E-02  0.1041E-02  0.1038E-02  0.1041E-02  0.1040E-02  0.1043E-02  0.0000E+00  0.0000E+00  0.0000E+00  0.0000E+00  0.0000E+00  0.0000E+00  0.0000E+00  0.0000E+00  0.0000E+00  0.0000E+00
     -2.732  0.1793E-02  0.1787E-02  0.1098E-02  0.1091E-02  0.1098E-02  0.1091E-02  0.1096E-02  0.1089E-02  0.0000E+00  0.0000E+00  0.0000E+00  0.0000E+00  0.0000E+00  0.0000E+00  0.0000E+00  0.0000E+00  0.0000E+00  0.0000E+00
     -2.668  0.2026E-02  0.2025E-02  0.1268E-02  0.1265E-02  0.1268E-02  0.1265E-02  0.1268E-02  0.1265E-02  0.0000E+00  0.0000E+00  0.0000E+00  0.0000E+00  0.0000E+00  0.0000E+00  0.0000E+00  0.0000E+00  0.0000E+00  0.0000E+00
     -2.604  0.1835E-02  0.1852E-02  0.1173E-02  0.1180E-02  0.1173E-02  0.1180E-02  0.1175E-02  0.1182E-02  0.0000E+00  0.0000E+00  0.0000E+00  0.0000E+00  0.0000E+00  0.0000E+00  0.0000E+00  0.0000E+00  0.0000E+00  0.0000E+00
     -2.540  0.1419E-02  0.1437E-02  0.9849E-03  0.9907E-03  0.9849E-03  0.9907E-03  0.9866E-03  0.9924E-03  0.0000E+00  0.0000E+00  0.0000E+00  0.0000E+00  0.0000E+00  0.0000E+00  0.0000E+00  0.0000E+00  0.0000E+00  0.0000E+00
     -2.477  0.1059E-02  0.1071E-02  0.8437E-03  0.8469E-03  0.8437E-03  0.8469E-03  0.8448E-03  0.8480E-03  0.0000E+00  0.0000E+00  0.0000E+00  0.0000E+00  0.0000E+00  0.0000E+00  0.0000E+00  0.0000E+00  0.0000E+00  0.0000E+00
     -2.413  0.1024E-02  0.1020E-02  0.8982E-03  0.8906E-03  0.8982E-03  0.8906E-03  0.8967E-03  0.8892E-03  0.0000E+00  0.0000E+00  0.0000E+00  0.0000E+00  0.0000E+00  0.0000E+00  0.0000E+00  0.0000E+00  0.0000E+00  0.0000E+00
     -2.349  0.1269E-02  0.1266E-02  0.1125E-02  0.1119E-02  0.1125E-02  0.1119E-02  0.1124E-02  0.1118E-02  0.0000E+00  0.0000E+00  0.0000E+00  0.0000E+00  0.0000E+00  0.0000E+00  0.0000E+00  0.0000E+00  0.0000E+00  0.0000E+00
     -2.285  0.1175E-02  0.1189E-02  0.1082E-02  0.1089E-02  0.1082E-02  0.1089E-02  0.1084E-02  0.1091E-02  0.0000E+00  0.0000E+00  0.0000E+00  0.0000E+00  0.0000E+00  0.0000E+00  0.0000E+00  0.0000E+00  0.0000E+00  0.0000E+00
     -2.221  0.8323E-03  0.8459E-03  0.8402E-03  0.8490E-03  0.8402E-03  0.8490E-03  0.8428E-03  0.8516E-03  0.0000E+00  0.0000E+00  0.0000E+00  0.0000E+00  0.0000E+00  0.0000E+00  0.0000E+00  0.0000E+00  0.0000E+00  0.0000E+00
     -2.157  0.5956E-03  0.6029E-03  0.6262E-03  0.6318E-03  0.6262E-03  0.6318E-03  0.6283E-03  0.6340E-03  0.0000E+00  0.0000E+00  0.0000E+00  0.0000E+00  0.0000E+00  0.0000E+00  0.0000E+00  0.0000E+00  0.0000E+00  0.0000E+00
     -2.094  0.5673E-03  0.5651E-03  0.6171E-03  0.6113E-03  0.6171E-03  0.6113E-03  0.6159E-03  0.6102E-03  0.0000E+00  0.0000E+00  0.0000E+00  0.0000E+00  0.0000E+00  0.0000E+00  0.0000E+00  0.0000E+00  0.0000E+00  0.0000E+00
     -2.030  0.7472E-03  0.7419E-03  0.8673E-03  0.8577E-03  0.8673E-03  0.8577E-03  0.8647E-03  0.8550E-03  0.0000E+00  0.0000E+00  0.0000E+00  0.0000E+00  0.0000E+00  0.0000E+00  0.0000E+00  0.0000E+00  0.0000E+00  0.0000E+00