   4   4   1   0
  0.1999111E+02  0.4307272E-09  0.4308710E-09  0.4308710E-09  0.5000000E-15
  1.000000000000000E-004
  CAR 
 unknown system                          
     15.33523882     -5.09793018  301      4.59376206      1.00000000
     -5.098  0.0000E+00  0.0000E+00  0.0000E+00  0.0000E+00
     -5.030  0.0000E+00  0.0000E+00  0.0000E+00  0.0000E+00
     -4.962  0.0000E+00  0.0000E+00  0.0000E+00  0.0000E+00
     -4.894  0.0000E+00  0.0000E+00  0.0000E+00  0.0000E+00
     -4.825  0.0000E+00  0.0000E+00  0.0000E+00  0.0000E+00
     -4.757  0.0000E+00  0.0000E+00  0.0000E+00  0.0000E+00
     -4.689  0.0000E+00  0.0000E+00  0.0000E+00  0.0000E+00
     -4.621  0.7922E-06  0.7795E-06  0.5396E-07  0.5309E-07
     -4.553  0.1011E-04  0.9950E-05  0.7427E-06  0.7308E-06
     -4.485  0.6449E-04  0.6346E-04  0.5135E-05  0.5053E-05
     -4.417  0.2426E-03  0.2387E-03  0.2166E-04  0.2131E-04
     -4.349  0.9392E-03  0.9243E-03  0.8563E-04  0.8427E-04
     -4.281  0.3528E-02  0.3474E-02  0.3259E-03  0.3209E-03
     -4.212  0.1227E-01  0.1210E-01  0.1162E-02  0.1145E-02
     -4.144  0.3460E-01  0.3424E-01  0.3518E-02  0.3477E-02
     -4.076  0.6967E-01  0.6923E-01  0.8264E-02  0.8193E-02
     -4.008  0.1050E+00  0.1046E+00  0.1542E-01  0.1532E-01
     -3.940  0.1403E+00  0.1399E+00  0.2497E-01  0.2484E-01
     -3.872  0.1595E+00  0.1594E+00  0.3583E-01  0.3570E-01
     -3.804  0.1766E+00  0.1763E+00  0.4786E-01  0.4770E-01
     -3.736  0.2115E+00  0.2111E+00  0.6227E-01  0.6209E-01
     -3.668  0.2243E+00  0.2242E+00  0.7755E-01  0.7736E-01
     -3.599  0.2346E+00  0.2343E+00  0.9353E-01  0.9333E-01
     -3.531  0.2476E+00  0.2475E+00  0.1104E+00  0.1102E+00
     -3.463  0.2598E+00  0.2594E+00  0.1281E+00  0.1279E+00
     -3.395  0.3002E+00  0.2997E+00  0.1485E+00  0.1483E+00
     -3.327  0.3176E+00  0.3175E+00  0.1702E+00  0.1699E+00
     -3.259  0.3120E+00  0.3122E+00  0.1914E+00  0.1912E+00
     -3.191  0.2980E+00  0.2979E+00  0.2118E+00  0.2115E+00
     -3.123  0.3359E+00  0.3350E+00  0.2346E+00  0.2343E+00
     -3.055  0.3978E+00  0.3974E+00  0.2617E+00  0.2614E+00
     -2.987  0.4038E+00  0.4038E+00  0.2893E+00  0.2889E+00
     -2.918  0.4058E+00  0.4058E+00  0.3169E+00  0.3166E+00
     -2.850  0.3953E+00  0.3952E+00  0.3439E+00  0.3435E+00
     -2.782  0.4496E+00  0.4483E+00  0.3745E+00  0.3741E+00
     -2.714  0.5282E+00  0.5277E+00  0.4105E+00  0.4100E+00
     -2.646  0.5184E+00  0.5189E+00  0.4458E+00  0.4454E+00
     -2.578  0.4599E+00  0.4608E+00  0.4771E+00  0.4768E+00
     -2.510  0.3972E+00  0.3975E+00  0.5042E+00  0.5039E+00
     -2.442  0.4432E+00  0.4419E+00  0.5344E+00  0.5340E+00
     -2.374  0.5059E+00  0.5060E+00  0.5689E+00  0.5685E+00
     -2.305  0.4397E+00  0.4408E+00  0.5989E+00  0.5986E+00
     -2.237  0.3613E+00  0.3622E+00  0.6235E+00  0.6232E+00
     -2.169  0.3040E+00  0.3042E+00  0.6443E+00  0.6440E+00
     -2.101  0.3556E+00  0.3542E+00  0.6685E+00  0.6681E+00
     -2.033  0.4440E+00  0.4437E+00  0.6988E+00  0.6984E+00
     -1.965  0.3889E+00  0.3902E+00  0.7253E+00  0.7250E+00
     -1.897  0.2887E+00  0.2899E+00  0.7449E+00  0.7447E+00
     -1.829  0.2148E+00  0.2153E+00  0.7596E+00  0.7594E+00
     -1.761  0.2506E+00  0.2492E+00  0.7767E+00  0.7764E+00
     -1.692  0.3653E+00  0.3643E+00  0.8016E+00  0.8012E+00
     -1.624  0.3521E+00  0.3532E+00  0.8256E+00  0.8253E+00
     -1.556  0.2777E+00  0.2782E+00  0.8445E+00  0.8443E+00
     -1.488  0.2886E+00  0.2882E+00  0.8642E+00  0.8639E+00
     -1.420  0.3494E+00  0.3484E+00  0.8880E+00  0.8877E+00
     -1.352  0.4414E+00  0.4404E+00  0.9181E+00  0.9177E+00
     -1.284  0.4765E+00  0.4767E+00  0.9506E+00  0.9502E+00
     -1.216  0.4273E+00  0.4280E+00  0.9797E+00  0.9793E+00
     -1.148  0.3976E+00  0.3977E+00  0.1007E+01  0.1006E+01
     -1.079  0.4084E+00  0.4079E+00  0.1035E+01  0.1034E+01
     -1.011  0.4957E+00  0.4942E+00  0.1068E+01  0.1068E+01
     -0.943  0.5899E+00  0.5893E+00  0.1109E+01  0.1108E+01
     -0.875  0.6044E+00  0.6046E+00  0.1150E+01  0.1149E+01
     -0.807  0.5705E+00  0.5710E+00  0.1189E+01  0.1188E+01
     -0.739  0.5400E+00  0.5398E+00  0.1225E+01  0.1225E+01
     -0.671  0.6018E+00  0.6006E+00  0.1266E+01  0.1266E+01
     -0.603  0.6802E+00  0.6793E+00  0.1313E+01  0.1312E+01
     -0.535  0.7029E+00  0.7031E+00  0.1361E+01  0.1360E+01
     -0.466  0.6392E+00  0.6400E+00  0.1404E+01  0.1404E+01
     -0.398  0.6458E+00  0.6447E+00  0.1448E+01  0.1448E+01
     -0.330  0.7475E+00  0.7467E+00  0.1499E+01  0.1499E+01
     -0.262  0.7175E+00  0.7187E+00  0.1548E+01  0.1548E+01
     -0.194  0.6558E+00  0.6559E+00  0.1593E+01  0.1592E+01
     -0.126  0.6582E+00  0.6582E+00  0.1638E+01  0.1637E+01
     -0.058  0.6557E+00  0.6556E+00  0.1682E+01  0.1682E+01
      0.010  0.6422E+00  0.6428E+00  0.1726E+01  0.1726E+01
      0.078  0.5664E+00  0.5672E+00  0.1765E+01  0.1764E+01
      0.147  0.5538E+00  0.5534E+00  0.1803E+01  0.1802E+01
      0.215  0.5862E+00  0.5858E+00  0.1842E+01  0.1842E+01
      0.283  0.5931E+00  0.5932E+00  0.1883E+01  0.1882E+01
      0.351  0.5542E+00  0.5553E+00  0.1921E+01  0.1920E+01
      0.419  0.4622E+00  0.4633E+00  0.1952E+01  0.1952E+01
      0.487  0.4615E+00  0.4604E+00  0.1984E+01  0.1983E+01
      0.555  0.5816E+00  0.5799E+00  0.2023E+01  0.2023E+01
      0.623  0.6704E+00  0.6699E+00  0.2069E+01  0.2068E+01
      0.691  0.7041E+00  0.7039E+00  0.2117E+01  0.2116E+01
      0.760  0.6869E+00  0.6876E+00  0.2164E+01  0.2163E+01
      0.828  0.6204E+00  0.6210E+00  0.2206E+01  0.2206E+01
      0.896  0.5661E+00  0.5668E+00  0.2245E+01  0.2244E+01
      0.964  0.5200E+00  0.5204E+00  0.2280E+01  0.2280E+01
      1.032  0.4988E+00  0.4992E+00  0.2314E+01  0.2314E+01
      1.100  0.4461E+00  0.4471E+00  0.2345E+01  0.2344E+01
      1.168  0.4432E+00  0.4428E+00  0.2375E+01  0.2374E+01
      1.236  0.5697E+00  0.5678E+00  0.2414E+01  0.2413E+01
      1.304  0.6648E+00  0.6645E+00  0.2459E+01  0.2458E+01
      1.373  0.5895E+00  0.5913E+00  0.2499E+01  0.2499E+01
      1.441  0.4443E+00  0.4460E+00  0.2529E+01  0.2529E+01
      1.509  0.4104E+00  0.4102E+00  0.2557E+01  0.2557E+01
      1.577  0.5005E+00  0.4996E+00  0.2591E+01  0.2591E+01
      1.645  0.5737E+00  0.5734E+00  0.2631E+01  0.2630E+01
      1.713  0.6062E+00  0.6058E+00  0.2672E+01  0.2671E+01
      1.781  0.6993E+00  0.6979E+00  0.2720E+01  0.2719E+01
      1.849  0.7947E+00  0.7943E+00  0.2774E+01  0.2773E+01
      1.917  0.8355E+00  0.8353E+00  0.2831E+01  0.2830E+01
      1.986  0.8846E+00  0.8849E+00  0.2891E+01  0.2890E+01
      2.054  0.8604E+00  0.8613E+00  0.2950E+01  0.2949E+01
      2.122  0.7414E+00  0.7429E+00  0.3000E+01  0.3000E+01
      2.190  0.6047E+00  0.6053E+00  0.3041E+01  0.3041E+01
      2.258  0.6199E+00  0.6192E+00  0.3084E+01  0.3083E+01
      2.326  0.6970E+00  0.6961E+00  0.3131E+01  0.3131E+01
      2.394  0.7981E+00  0.7971E+00  0.3185E+01  0.3185E+01
      2.462  0.8924E+00  0.8920E+00  0.3246E+01  0.3246E+01
      2.530  0.9500E+00  0.9498E+00  0.3311E+01  0.3310E+01
      2.599  0.9535E+00  0.9534E+00  0.3376E+01  0.3375E+01
      2.667  0.9148E+00  0.9143E+00  0.3438E+01  0.3438E+01
      2.735  0.8581E+00  0.8591E+00  0.3497E+01  0.3496E+01
      2.803  0.7400E+00  0.7416E+00  0.3547E+01  0.3547E+01
      2.871  0.7662E+00  0.7658E+00  0.3599E+01  0.3599E+01
      2.939  0.8345E+00  0.8348E+00  0.3656E+01  0.3656E+01
      3.007  0.7576E+00  0.7589E+00  0.3708E+01  0.3708E+01
      3.075  0.7248E+00  0.7246E+00  0.3757E+01  0.3757E+01
      3.143  0.8284E+00  0.8268E+00  0.3814E+01  0.3813E+01
      3.212  0.9937E+00  0.9916E+00  0.3882E+01  0.3881E+01
      3.280  0.1102E+01  0.1101E+01  0.3957E+01  0.3956E+01
      3.348  0.9229E+00  0.9253E+00  0.4020E+01  0.4019E+01
      3.416  0.7486E+00  0.7492E+00  0.4071E+01  0.4070E+01
      3.484  0.7626E+00  0.7623E+00  0.4123E+01  0.4122E+01
      3.552  0.7879E+00  0.7875E+00  0.4176E+01  0.4176E+01
      3.620  0.8481E+00  0.8477E+00  0.4234E+01  0.4234E+01
      3.688  0.8234E+00  0.8240E+00  0.4290E+01  0.4290E+01
      3.756  0.7570E+00  0.7572E+00  0.4342E+01  0.4341E+01
      3.825  0.7791E+00  0.7787E+00  0.4395E+01  0.4394E+01
      3.893  0.8137E+00  0.8134E+00  0.4450E+01  0.4450E+01
      3.961  0.8157E+00  0.8150E+00  0.4506E+01  0.4505E+01
      4.029  0.8521E+00  0.8519E+00  0.4564E+01  0.4564E+01
      4.097  0.8497E+00  0.8505E+00  0.4622E+01  0.4621E+01
      4.165  0.7531E+00  0.7534E+00  0.4673E+01  0.4673E+01
      4.233  0.7055E+00  0.7046E+00  0.4721E+01  0.4721E+01
      4.301  0.7769E+00  0.7764E+00  0.4774E+01  0.4774E+01
      4.369  0.8517E+00  0.8517E+00  0.4832E+01  0.4832E+01
      4.438  0.8798E+00  0.8803E+00  0.4892E+01  0.4892E+01
      4.506  0.7656E+00  0.7668E+00  0.4945E+01  0.4944E+01
      4.574  0.6325E+00  0.6324E+00  0.4988E+01  0.4987E+01
      4.642  0.6543E+00  0.6529E+00  0.5032E+01  0.5032E+01
      4.710  0.7622E+00  0.7606E+00  0.5084E+01  0.5084E+01
      4.778  0.8386E+00  0.8388E+00  0.5141E+01  0.5141E+01
      4.846  0.7745E+00  0.7758E+00  0.5194E+01  0.5194E+01
      4.914  0.6973E+00  0.6971E+00  0.5242E+01  0.5241E+01
      4.982  0.7062E+00  0.7056E+00  0.5290E+01  0.5289E+01
      5.051  0.7555E+00  0.7553E+00  0.5341E+01  0.5341E+01
      5.119  0.8790E+00  0.8776E+00  0.5401E+01  0.5400E+01
      5.187  0.1013E+01  0.1011E+01  0.5470E+01  0.5469E+01
      5.255  0.9123E+00  0.9127E+00  0.5532E+01  0.5532E+01
      5.323  0.7492E+00  0.7487E+00  0.5584E+01  0.5583E+01
      5.391  0.7574E+00  0.7570E+00  0.5635E+01  0.5634E+01
      5.459  0.8005E+00  0.8020E+00  0.5690E+01  0.5689E+01
      5.527  0.8765E+00  0.8758E+00  0.5749E+01  0.5749E+01
      5.595  0.9869E+00  0.9843E+00  0.5817E+01  0.5816E+01
      5.664  0.9978E+00  0.9976E+00  0.5885E+01  0.5884E+01
      5.732  0.8924E+00  0.8941E+00  0.5946E+01  0.5945E+01
      5.800  0.8245E+00  0.8254E+00  0.6002E+01  0.6001E+01
      5.868  0.8786E+00  0.8768E+00  0.6062E+01  0.6061E+01
      5.936  0.9795E+00  0.9775E+00  0.6128E+01  0.6127E+01
      6.004  0.1056E+01  0.1056E+01  0.6200E+01  0.6199E+01
      6.072  0.1039E+01  0.1041E+01  0.6271E+01  0.6270E+01
      6.140  0.9433E+00  0.9444E+00  0.6335E+01  0.6335E+01
      6.208  0.8855E+00  0.8850E+00  0.6396E+01  0.6395E+01
      6.277  0.9218E+00  0.9203E+00  0.6459E+01  0.6458E+01
      6.345  0.9972E+00  0.9964E+00  0.6527E+01  0.6525E+01
      6.413  0.9767E+00  0.9786E+00  0.6593E+01  0.6592E+01
      6.481  0.8669E+00  0.8683E+00  0.6652E+01  0.6651E+01
      6.549  0.8612E+00  0.8582E+00  0.6711E+01  0.6710E+01
      6.617  0.1073E+01  0.1070E+01  0.6784E+01  0.6783E+01
      6.685  0.1178E+01  0.1181E+01  0.6864E+01  0.6863E+01
      6.753  0.9882E+00  0.9928E+00  0.6932E+01  0.6931E+01
      6.821  0.7880E+00  0.7893E+00  0.6985E+01  0.6985E+01
      6.890  0.7370E+00  0.7343E+00  0.7036E+01  0.7035E+01
      6.958  0.8622E+00  0.8584E+00  0.7094E+01  0.7093E+01
      7.026  0.1067E+01  0.1065E+01  0.7167E+01  0.7166E+01
      7.094  0.1155E+01  0.1156E+01  0.7246E+01  0.7245E+01
      7.162  0.1058E+01  0.1061E+01  0.7318E+01  0.7317E+01
      7.230  0.9009E+00  0.9028E+00  0.7379E+01  0.7378E+01
      7.298  0.8194E+00  0.8181E+00  0.7435E+01  0.7434E+01
      7.366  0.8607E+00  0.8593E+00  0.7494E+01  0.7493E+01
      7.434  0.8524E+00  0.8528E+00  0.7552E+01  0.7551E+01
      7.503  0.8677E+00  0.8668E+00  0.7611E+01  0.7610E+01
      7.571  0.1031E+01  0.1028E+01  0.7681E+01  0.7680E+01
      7.639  0.1219E+01  0.1216E+01  0.7764E+01  0.7763E+01
      7.707  0.1297E+01  0.1296E+01  0.7853E+01  0.7851E+01
      7.775  0.1194E+01  0.1196E+01  0.7934E+01  0.7933E+01
      7.843  0.9896E+00  0.9913E+00  0.8002E+01  0.8000E+01
      7.911  0.9374E+00  0.9373E+00  0.8065E+01  0.8064E+01
      7.979  0.9632E+00  0.9641E+00  0.8131E+01  0.8130E+01
      8.047  0.1004E+01  0.1002E+01  0.8200E+01  0.8198E+01
      8.116  0.1112E+01  0.1110E+01  0.8275E+01  0.8274E+01
      8.184  0.1116E+01  0.1116E+01  0.8351E+01  0.8350E+01
      8.252  0.1045E+01  0.1047E+01  0.8423E+01  0.8421E+01
      8.320  0.9330E+00  0.9352E+00  0.8486E+01  0.8485E+01
      8.388  0.8775E+00  0.8778E+00  0.8546E+01  0.8545E+01
      8.456  0.9672E+00  0.9638E+00  0.8612E+01  0.8611E+01
      8.524  0.1192E+01  0.1185E+01  0.8693E+01  0.8691E+01
      8.592  0.1327E+01  0.1325E+01  0.8784E+01  0.8782E+01
      8.660  0.1274E+01  0.1274E+01  0.8870E+01  0.8869E+01
      8.729  0.1220E+01  0.1220E+01  0.8954E+01  0.8952E+01
      8.797  0.1173E+01  0.1176E+01  0.9034E+01  0.9032E+01
      8.865  0.1106E+01  0.1108E+01  0.9109E+01  0.9107E+01
      8.933  0.1096E+01  0.1096E+01  0.9184E+01  0.9182E+01
      9.001  0.1054E+01  0.1055E+01  0.9256E+01  0.9254E+01
      9.069  0.1026E+01  0.1026E+01  0.9325E+01  0.9324E+01
      9.137  0.1044E+01  0.1044E+01  0.9397E+01  0.9395E+01
      9.205  0.1103E+01  0.1101E+01  0.9472E+01  0.9470E+01
      9.273  0.1164E+01  0.1162E+01  0.9551E+01  0.9549E+01
      9.342  0.1228E+01  0.1228E+01  0.9635E+01  0.9633E+01
      9.410  0.1239E+01  0.1242E+01  0.9719E+01  0.9718E+01
      9.478  0.1106E+01  0.1109E+01  0.9795E+01  0.9793E+01
      9.546  0.1024E+01  0.1023E+01  0.9864E+01  0.9863E+01
      9.614  0.1059E+01  0.1057E+01  0.9937E+01  0.9935E+01
      9.682  0.1220E+01  0.1216E+01  0.1002E+02  0.1002E+02
      9.750  0.1358E+01  0.1358E+01  0.1011E+02  0.1011E+02
      9.818  0.1269E+01  0.1272E+01  0.1020E+02  0.1020E+02
      9.886  0.1125E+01  0.1127E+01  0.1028E+02  0.1027E+02
      9.955  0.1030E+01  0.1032E+01  0.1035E+02  0.1034E+02
     10.023  0.9384E+00  0.9413E+00  0.1041E+02  0.1041E+02
     10.091  0.8891E+00  0.8931E+00  0.1047E+02  0.1047E+02
     10.159  0.9326E+00  0.9385E+00  0.1053E+02  0.1053E+02
     10.227  0.1103E+01  0.1107E+01  0.1061E+02  0.1061E+02
     10.295  0.1282E+01  0.1274E+01  0.1070E+02  0.1070E+02
     10.363  0.1317E+01  0.1312E+01  0.1079E+02  0.1078E+02
     10.431  0.1159E+01  0.1164E+01  0.1087E+02  0.1086E+02
     10.499  0.9003E+00  0.9049E+00  0.1093E+02  0.1093E+02
     10.567  0.7798E+00  0.7813E+00  0.1098E+02  0.1098E+02
     10.636  0.7743E+00  0.7725E+00  0.1103E+02  0.1103E+02
     10.704  0.8213E+00  0.8146E+00  0.1109E+02  0.1109E+02
     10.772  0.9405E+00  0.9305E+00  0.1115E+02  0.1115E+02
     10.840  0.1030E+01  0.1027E+01  0.1122E+02  0.1122E+02
     10.908  0.8744E+00  0.8803E+00  0.1128E+02  0.1128E+02
     10.976  0.6771E+00  0.6823E+00  0.1133E+02  0.1133E+02
     11.044  0.6108E+00  0.6178E+00  0.1137E+02  0.1137E+02
     11.112  0.5826E+00  0.5916E+00  0.1141E+02  0.1141E+02
     11.180  0.5193E+00  0.5200E+00  0.1145E+02  0.1145E+02
     11.249  0.3910E+00  0.3874E+00  0.1147E+02  0.1147E+02
     11.317  0.3020E+00  0.2998E+00  0.1149E+02  0.1149E+02
     11.385  0.2823E+00  0.2805E+00  0.1151E+02  0.1151E+02
     11.453  0.3383E+00  0.3361E+00  0.1153E+02  0.1153E+02
     11.521  0.4114E+00  0.4113E+00  0.1156E+02  0.1156E+02
     11.589  0.3934E+00  0.3962E+00  0.1159E+02  0.1159E+02
     11.657  0.3011E+00  0.3025E+00  0.1161E+02  0.1161E+02
     11.725  0.3003E+00  0.2984E+00  0.1163E+02  0.1163E+02
     11.793  0.3525E+00  0.3510E+00  0.1165E+02  0.1165E+02
     11.862  0.3258E+00  0.3248E+00  0.1168E+02  0.1168E+02
     11.930  0.3081E+00  0.3068E+00  0.1170E+02  0.1170E+02
     11.998  0.3374E+00  0.3393E+00  0.1172E+02  0.1172E+02
     12.066  0.3245E+00  0.3270E+00  0.1174E+02  0.1174E+02
     12.134  0.2984E+00  0.2986E+00  0.1176E+02  0.1176E+02
     12.202  0.3212E+00  0.3208E+00  0.1179E+02  0.1178E+02
     12.270  0.3262E+00  0.3261E+00  0.1181E+02  0.1181E+02
     12.338  0.2831E+00  0.2845E+00  0.1183E+02  0.1183E+02
     12.406  0.1835E+00  0.1866E+00  0.1184E+02  0.1184E+02
     12.475  0.8143E-01  0.8417E-01  0.1184E+02  0.1184E+02
     12.543  0.3373E-01  0.3609E-01  0.1185E+02  0.1185E+02
     12.611  0.3900E-01  0.4325E-01  0.1185E+02  0.1185E+02
     12.679  0.9759E-01  0.1018E+00  0.1186E+02  0.1186E+02
     12.747  0.1974E+00  0.1925E+00  0.1187E+02  0.1187E+02
     12.815  0.2424E+00  0.2364E+00  0.1189E+02  0.1189E+02
     12.883  0.1736E+00  0.1736E+00  0.1190E+02  0.1190E+02
     12.951  0.9434E-01  0.9756E-01  0.1190E+02  0.1191E+02
     13.019  0.7590E-01  0.8344E-01  0.1191E+02  0.1191E+02
     13.088  0.9055E-01  0.1002E+00  0.1192E+02  0.1192E+02
     13.156  0.9407E-01  0.8989E-01  0.1192E+02  0.1192E+02
     13.224  0.8924E-01  0.7778E-01  0.1193E+02  0.1193E+02
     13.292  0.1049E+00  0.9854E-01  0.1194E+02  0.1194E+02
     13.360  0.1182E+00  0.1171E+00  0.1194E+02  0.1194E+02
     13.428  0.9188E-01  0.9329E-01  0.1195E+02  0.1195E+02
     13.496  0.6878E-01  0.6981E-01  0.1195E+02  0.1195E+02
     13.564  0.9788E-01  0.9935E-01  0.1196E+02  0.1196E+02
     13.632  0.1421E+00  0.1447E+00  0.1197E+02  0.1197E+02
     13.701  0.1248E+00  0.1243E+00  0.1198E+02  0.1198E+02
     13.769  0.6759E-01  0.6540E-01  0.1198E+02  0.1198E+02
     13.837  0.4143E-01  0.3992E-01  0.1199E+02  0.1199E+02
     13.905  0.4041E-01  0.4010E-01  0.1199E+02  0.1199E+02
     13.973  0.2732E-01  0.2820E-01  0.1199E+02  0.1199E+02
     14.041  0.1199E-01  0.1344E-01  0.1199E+02  0.1199E+02
     14.109  0.9058E-02  0.1199E-01  0.1199E+02  0.1199E+02
     14.177  0.1542E-01  0.1791E-01  0.1199E+02  0.1199E+02
     14.245  0.1884E-01  0.1647E-01  0.1200E+02  0.1200E+02
     14.314  0.1499E-01  0.1165E-01  0.1200E+02  0.1200E+02
     14.382  0.1680E-01  0.1501E-01  0.1200E+02  0.1200E+02
     14.450  0.1810E-01  0.1793E-01  0.1200E+02  0.1200E+02
     14.518  0.1023E-01  0.1076E-01  0.1200E+02  0.1200E+02
     14.586  0.3512E-02  0.3761E-02  0.1200E+02  0.1200E+02
     14.654  0.9646E-03  0.1059E-02  0.1200E+02  0.1200E+02
     14.722  0.2528E-03  0.2783E-03  0.1200E+02  0.1200E+02
     14.790  0.6512E-04  0.7173E-04  0.1200E+02  0.1200E+02
     14.858  0.0000E+00  0.0000E+00  0.1200E+02  0.1200E+02
     14.927  0.0000E+00  0.0000E+00  0.1200E+02  0.1200E+02
     14.995  0.0000E+00  0.0000E+00  0.1200E+02  0.1200E+02
     15.063  0.0000E+00  0.0000E+00  0.1200E+02  0.1200E+02
     15.131  0.0000E+00  0.0000E+00  0.1200E+02  0.1200E+02
     15.199  0.0000E+00  0.0000E+00  0.1200E+02  0.1200E+02
     15.267  0.0000E+00  0.0000E+00  0.1200E+02  0.1200E+02
     15.335  0.0000E+00  0.0000E+00  0.1200E+02  0.1200E+02
     15.33523882     -5.09793018  301      4.59376206      1.00000000
     -5.098  0.0000E+00  0.0000E+00  0.0000E+00  0.0000E+00  0.0000E+00  0.0000E+00  0.0000E+00  0.0000E+00  0.0000E+00  0.0000E+00  0.0000E+00  0.0000E+00  0.0000E+00  0.0000E+00  0.0000E+00  0.0000E+00  0.0000E+00  0.0000E+00
     -5.030  0.0000E+00  0.0000E+00  0.0000E+00  0.0000E+00  0.0000E+00  0.0000E+00  0.0000E+00  0.0000E+00  0.0000E+00  0.0000E+00  0.0000E+00  0.0000E+00  0.0000E+00  0.0000E+00  0.0000E+00  0.0000E+00  0.0000E+00  0.0000E+00
     -4.962  0.0000E+00  0.0000E+00  0.0000E+00  0.0000E+00  0.0000E+00  0.0000E+00  0.0000E+00  0.0000E+00  0.0000E+00  0.0000E+00  0.0000E+00  0.0000E+00  0.0000E+00  0.0000E+00  0.0000E+00  0.0000E+00  0.0000E+00  0.0000E+00
     -4.894  0.0000E+00  0.0000E+00  0.0000E+00  0.0000E+00  0.0000E+00  0.0000E+00  0.0000E+00  0.0000E+00  0.0000E+00  0.0000E+00  0.0000E+00  0.0000E+00  0.0000E+00  0.0000E+00  0.0000E+00  0.0000E+00  0.0000E+00  0.0000E+00
     -4.825  0.0000E+00  0.0000E+00  0.0000E+00  0.0000E+00  0.0000E+00  0.0000E+00  0.0000E+00  0.0000E+00  0.0000E+00  0.0000E+00  0.0000E+00  0.0000E+00  0.0000E+00  0.0000E+00  0.0000E+00  0.0000E+00  0.0000E+00  0.0000E+00
     -4.757  0.0000E+00  0.0000E+00  0.0000E+00  0.0000E+00  0.0000E+00  0.0000E+00  0.0000E+00  0.0000E+00  0.0000E+00  0.0000E+00  0.0000E+00  0.0000E+00  0.0000E+00  0.0000E+00  0.0000E+00  0.0000E+00  0.0000E+00  0.0000E+00
     -4.689  0.0000E+00  0.0000E+00  0.0000E+00  0.0000E+00  0.0000E+00  0.0000E+00  0.0000E+00  0.0000E+00  0.0000E+00  0.0000E+00  0.0000E+00  0.0000E+00  0.0000E+00  0.0000E+00  0.0000E+00  0.0000E+00  0.0000E+00  0.0000E+00
     -4.621  0.1324E-07  0.1303E-07  0.7677E-25  0.6243E-22  0.7677E-25  0.6243E-22  0.9896E-25  0.4384E-23  0.0000E+00  0.0000E+00  0.0000E+00  0.0000E+00  0.0000E+00  0.0000E+00  0.0000E+00  0.0000E+00  0.0000E+00  0.0000E+00
     -4.553  0.1672E-06  0.1644E-06  0.5760E-09  0.5666E-09  0.5760E-09  0.5666E-09  0.5756E-09  0.5663E-09  0.0000E+00  0.0000E+00  0.0000E+00  0.0000E+00  0.0000E+00  0.0000E+00  0.0000E+00  0.0000E+00  0.0000E+00  0.0000E+00
     -4.485  0.1055E-05  0.1038E-05  0.6973E-08  0.6861E-08  0.6973E-08  0.6861E-08  0.6972E-08  0.6860E-08  0.0000E+00  0.0000E+00  0.0000E+00  0.0000E+00  0.0000E+00  0.0000E+00  0.0000E+00  0.0000E+00  0.0000E+00  0.0000E+00
     -4.417  0.3955E-05  0.3891E-05  0.3014E-07  0.2966E-07  0.3014E-07  0.2966E-07  0.3012E-07  0.2964E-07  0.0000E+00  0.0000E+00  0.0000E+00  0.0000E+00  0.0000E+00  0.0000E+00  0.0000E+00  0.0000E+00  0.0000E+00  0.0000E+00
     -4.349  0.1530E-04  0.1506E-04  0.1197E-06  0.1178E-06  0.1197E-06  0.1178E-06  0.1196E-06  0.1177E-06  0.0000E+00  0.0000E+00  0.0000E+00  0.0000E+00  0.0000E+00  0.0000E+00  0.0000E+00  0.0000E+00  0.0000E+00  0.0000E+00
     -4.281  0.5746E-04  0.5657E-04  0.4540E-06  0.4468E-06  0.4540E-06  0.4468E-06  0.4537E-06  0.4465E-06  0.0000E+00  0.0000E+00  0.0000E+00  0.0000E+00  0.0000E+00  0.0000E+00  0.0000E+00  0.0000E+00  0.0000E+00  0.0000E+00
     -4.212  0.1995E-03  0.1967E-03  0.1688E-05  0.1663E-05  0.1688E-05  0.1663E-05  0.1687E-05  0.1662E-05  0.0000E+00  0.0000E+00  0.0000E+00  0.0000E+00  0.0000E+00  0.0000E+00  0.0000E+00  0.0000E+00  0.0000E+00  0.0000E+00
     -4.144  0.5601E-03  0.5542E-03  0.5518E-05  0.5447E-05  0.5518E-05  0.5447E-05  0.5514E-05  0.5443E-05  0.0000E+00  0.0000E+00  0.0000E+00  0.0000E+00  0.0000E+00  0.0000E+00  0.0000E+00  0.0000E+00  0.0000E+00  0.0000E+00
     -4.076  0.1117E-02  0.1110E-02  0.1427E-04  0.1413E-04  0.1427E-04  0.1413E-04  0.1426E-04  0.1412E-04  0.0000E+00  0.0000E+00  0.0000E+00  0.0000E+00  0.0000E+00  0.0000E+00  0.0000E+00  0.0000E+00  0.0000E+00  0.0000E+00
     -4.008  0.1656E-02  0.1649E-02  0.2977E-04  0.2954E-04  0.2977E-04  0.2954E-04  0.2975E-04  0.2952E-04  0.0000E+00  0.0000E+00  0.0000E+00  0.0000E+00  0.0000E+00  0.0000E+00  0.0000E+00  0.0000E+00  0.0000E+00  0.0000E+00
     -3.940  0.2168E-02  0.2163E-02  0.5228E-04  0.5200E-04  0.5228E-04  0.5200E-04  0.5225E-04  0.5197E-04  0.0000E+00  0.0000E+00  0.0000E+00  0.0000E+00  0.0000E+00  0.0000E+00  0.0000E+00  0.0000E+00  0.0000E+00  0.0000E+00
     -3.872  0.2415E-02  0.2413E-02  0.7417E-04  0.7390E-04  0.7417E-04  0.7390E-04  0.7412E-04  0.7385E-04  0.0000E+00  0.0000E+00  0.0000E+00  0.0000E+00  0.0000E+00  0.0000E+00  0.0000E+00  0.0000E+00  0.0000E+00  0.0000E+00
     -3.804  0.2596E-02  0.2591E-02  0.1044E-03  0.1039E-03  0.1044E-03  0.1039E-03  0.1043E-03  0.1038E-03  0.0000E+00  0.0000E+00  0.0000E+00  0.0000E+00  0.0000E+00  0.0000E+00  0.0000E+00  0.0000E+00  0.0000E+00  0.0000E+00
     -3.736  0.3026E-02  0.3021E-02  0.1480E-03  0.1476E-03  0.1480E-03  0.1476E-03  0.1479E-03  0.1474E-03  0.0000E+00  0.0000E+00  0.0000E+00  0.0000E+00  0.0000E+00  0.0000E+00  0.0000E+00  0.0000E+00  0.0000E+00  0.0000E+00
     -3.668  0.3129E-02  0.3129E-02  0.1788E-03  0.1785E-03  0.1788E-03  0.1785E-03  0.1788E-03  0.1785E-03  0.0000E+00  0.0000E+00  0.0000E+00  0.0000E+00  0.0000E+00  0.0000E+00  0.0000E+00  0.0000E+00  0.0000E+00  0.0000E+00
     -3.599  0.3178E-02  0.3176E-02  0.2132E-03  0.2127E-03  0.2132E-03  0.2127E-03  0.2131E-03  0.2125E-03  0.0000E+00  0.0000E+00  0.0000E+00  0.0000E+00  0.0000E+00  0.0000E+00  0.0000E+00  0.0000E+00  0.0000E+00  0.0000E+00
     -3.531  0.3246E-02  0.3247E-02  0.2534E-03  0.2529E-03  0.2534E-03  0.2529E-03  0.2531E-03  0.2526E-03  0.0000E+00  0.0000E+00  0.0000E+00  0.0000E+00  0.0000E+00  0.0000E+00  0.0000E+00  0.0000E+00  0.0000E+00  0.0000E+00
     -3.463  0.3263E-02  0.3259E-02  0.3030E-03  0.3021E-03  0.3030E-03  0.3021E-03  0.3025E-03  0.3016E-03  0.0000E+00  0.0000E+00  0.0000E+00  0.0000E+00  0.0000E+00  0.0000E+00  0.0000E+00  0.0000E+00  0.0000E+00  0.0000E+00
     -3.395  0.3639E-02  0.3633E-02  0.3840E-03  0.3831E-03  0.3840E-03  0.3831E-03  0.3837E-03  0.3828E-03  0.0000E+00  0.0000E+00  0.0000E+00  0.0000E+00  0.0000E+00  0.0000E+00  0.0000E+00  0.0000E+00  0.0000E+00  0.0000E+00
     -3.327  0.3741E-02  0.3740E-02  0.4340E-03  0.4336E-03  0.4340E-03  0.4336E-03  0.4338E-03  0.4334E-03  0.0000E+00  0.0000E+00  0.0000E+00  0.0000E+00  0.0000E+00  0.0000E+00  0.0000E+00  0.0000E+00  0.0000E+00  0.0000E+00
     -3.259  0.3549E-02  0.3552E-02  0.4574E-03  0.4572E-03  0.4574E-03  0.4572E-03  0.4572E-03  0.4571E-03  0.0000E+00  0.0000E+00  0.0000E+00  0.0000E+00  0.0000E+00  0.0000E+00  0.0000E+00  0.0000E+00  0.0000E+00  0.0000E+00
     -3.191  0.3215E-02  0.3218E-02  0.4779E-03  0.4772E-03  0.4779E-03  0.4772E-03  0.4771E-03  0.4764E-03  0.0000E+00  0.0000E+00  0.0000E+00  0.0000E+00  0.0000E+00  0.0000E+00  0.0000E+00  0.0000E+00  0.0000E+00  0.0000E+00
     -3.123  0.3358E-02  0.3352E-02  0.5999E-03  0.5977E-03  0.5999E-03  0.5977E-03  0.5981E-03  0.5959E-03  0.0000E+00  0.0000E+00  0.0000E+00  0.0000E+00  0.0000E+00  0.0000E+00  0.0000E+00  0.0000E+00  0.0000E+00  0.0000E+00
     -3.055  0.3769E-02  0.3767E-02  0.7567E-03  0.7555E-03  0.7567E-03  0.7555E-03  0.7558E-03  0.7545E-03  0.0000E+00  0.0000E+00  0.0000E+00  0.0000E+00  0.0000E+00  0.0000E+00  0.0000E+00  0.0000E+00  0.0000E+00  0.0000E+00
     -2.987  0.3643E-02  0.3646E-02  0.8078E-03  0.8072E-03  0.8078E-03  0.8072E-03  0.8072E-03  0.8067E-03  0.0000E+00  0.0000E+00  0.0000E+00  0.0000E+00  0.0000E+00  0.0000E+00  0.0000E+00  0.0000E+00  0.0000E+00  0.0000E+00
     -2.918  0.3410E-02  0.3416E-02  0.8645E-03  0.8636E-03  0.8645E-03  0.8636E-03  0.8633E-03  0.8624E-03  0.0000E+00  0.0000E+00  0.0000E+00  0.0000E+00  0.0000E+00  0.0000E+00  0.0000E+00  0.0000E+00  0.0000E+00  0.0000E+00
     -2.850  0.2940E-02  0.2948E-02  0.9190E-03  0.9174E-03  0.9190E-03  0.9174E-03  0.9164E-03  0.9149E-03  0.0000E+00  0.0000E+00  0.0000E+00  0.0000E+00  0.0000E+00  0.0000E+00  0.0000E+00  0.0000E+00  0.0000E+00  0.0000E+00
     -2.782  0.2876E-02  0.2874E-02  0.1138E-02  0.1134E-02  0.1138E-02  0.1134E-02  0.1134E-02  0.1130E-02  0.0000E+00  0.0000E+00  0.0000E+00  0.0000E+00  0.0000E+00  0.0000E+00  0.0000E+00  0.0000E+00  0.0000E+00  0.0000E+00
     -2.714  0.3179E-02  0.3181E-02  0.1374E-02  0.1372E-02  0.1374E-02  0.1372E-02  0.1373E-02  0.1371E-02  0.0000E+00  0.0000E+00  0.0000E+00  0.0000E+00  0.0000E+00  0.0000E+00  0.0000E+00  0.0000E+00  0.0000E+00  0.0000E+00
     -2.646  0.2890E-02  0.2900E-02  0.1388E-02  0.1389E-02  0.1388E-02  0.1389E-02  0.1389E-02  0.1389E-02  0.0000E+00  0.0000E+00  0.0000E+00  0.0000E+00  0.0000E+00  0.0000E+00  0.0000E+00  0.0000E+00  0.0000E+00  0.0000E+00
     -2.578  0.2334E-02  0.2343E-02  0.1271E-02  0.1273E-02  0.1271E-02  0.1273E-02  0.1273E-02  0.1275E-02  0.0000E+00  0.0000E+00  0.0000E+00  0.0000E+00  0.0000E+00  0.0000E+00  0.0000E+00  0.0000E+00  0.0000E+00  0.0000E+00
     -2.510  0.1896E-02  0.1901E-02  0.1115E-02  0.1116E-02  0.1115E-02  0.1116E-02  0.1116E-02  0.1117E-02  0.0000E+00  0.0000E+00  0.0000E+00  0.0000E+00  0.0000E+00  0.0000E+00  0.0000E+00  0.0000E+00  0.0000E+00  0.0000E+00
     -2.442  0.1998E-02  0.1996E-02  0.1260E-02  0.1256E-02  0.1260E-02  0.1256E-02  0.1258E-02  0.1254E-02  0.0000E+00  0.0000E+00  0.0000E+00  0.0000E+00  0.0000E+00  0.0000E+00  0.0000E+00  0.0000E+00  0.0000E+00  0.0000E+00
     -2.374  0.2256E-02  0.2260E-02  0.1437E-02  0.1437E-02  0.1437E-02  0.1437E-02  0.1438E-02  0.1438E-02  0.0000E+00  0.0000E+00  0.0000E+00  0.0000E+00  0.0000E+00  0.0000E+00  0.0000E+00  0.0000E+00  0.0000E+00  0.0000E+00
     -2.305  0.1912E-02  0.1921E-02  0.1253E-02  0.1255E-02  0.1253E-02  0.1255E-02  0.1256E-02  0.1258E-02  0.0000E+00  0.0000E+00  0.0000E+00  0.0000E+00  0.0000E+00  0.0000E+00  0.0000E+00  0.0000E+00  0.0000E+00  0.0000E+00
     -2.237  0.1439E-02  0.1447E-02  0.1045E-02  0.1047E-02  0.1045E-02  0.1047E-02  0.1047E-02  0.1049E-02  0.0000E+00  0.0000E+00  0.0000E+00  0.0000E+00  0.0000E+00  0.0000E+00  0.0000E+00  0.0000E+00  0.0000E+00  0.0000E+00
     -2.169  0.1063E-02  0.1067E-02  0.8957E-03  0.8961E-03  0.8957E-03  0.8961E-03  0.8966E-03  0.8970E-03  0.0000E+00  0.0000E+00  0.0000E+00  0.0000E+00  0.0000E+00  0.0000E+00  0.0000E+00  0.0000E+00  0.0000E+00  0.0000E+00
     -2.101  0.1165E-02  0.1164E-02  0.1051E-02  0.1046E-02  0.1051E-02  0.1046E-02  0.1048E-02  0.1044E-02  0.0000E+00  0.0000E+00  0.0000E+00  0.0000E+00  0.0000E+00  0.0000E+00  0.0000E+00  0.0000E+00  0.0000E+00  0.0000E+00
     -2.033  0.1452E-02  0.1455E-02  0.1306E-02  0.1304E-02  0.1306E-02  0.1304E-02  0.1305E-02  0.1304E-02  0.0000E+00  0.0000E+00  0.0000E+00  0.0000E+00  0.0000E+00  0.0000E+00  0.0000E+00  0.0000E+00  0.0000E+00  0.0000E+00
     -1.965  0.1203E-02  0.1211E-02  0.1148E-02  0.1151E-02  0.1148E-02  0.1151E-02  0.1150E-02  0.1154E-02  0.0000E+00  0.0000E+00  0.0000E+00  0.0000E+00  0.0000E+00  0.0000E+00  0.0000E+00  0.0000E+00  0.0000E+00  0.0000E+00
     -1.897  0.8135E-03  0.8196E-03  0.8565E-03  0.8597E-03  0.8565E-03  0.8597E-03  0.8596E-03  0.8628E-03  0.0000E+00  0.0000E+00  0.0000E+00  0.0000E+00  0.0000E+00  0.0000E+00  0.0000E+00  0.0000E+00  0.0000E+00  0.0000E+00
     -1.829  0.5909E-03  0.5939E-03  0.6316E-03  0.6328E-03  0.6316E-03  0.6328E-03  0.6333E-03  0.6346E-03  0.0000E+00  0.0000E+00  0.0000E+00  0.0000E+00  0.0000E+00  0.0000E+00  0.0000E+00  0.0000E+00  0.0000E+00  0.0000E+00
     -1.761  0.6480E-03  0.6468E-03  0.7289E-03  0.7247E-03  0.7289E-03  0.7247E-03  0.7263E-03  0.7221E-03  0.0000E+00  0.0000E+00  0.0000E+00  0.0000E+00  0.0000E+00  0.0000E+00  0.0000E+00  0.0000E+00  0.0000E+00  0.0000E+00
     -1.692  0.8877E-03  0.8874E-03  0.1057E-02  0.1054E-02  0.1057E-02  0.1054E-02  0.1055E-02  0.1052E-02  0.0000E+00  0.0000E+00  0.0000E+00  0.0000E+00  0.0000E+00  0.0000E+00  0.0000E+00  0.0000E+00  0.0000E+00  0.0000E+00