   4   4   1   0
  0.1835632E+02  0.4186508E-09  0.4187905E-09  0.4187905E-09  0.5000000E-15
  1.000000000000000E-004
  CAR 
 unknown system                          
     16.86633593     -4.95069659  301      5.26724910      1.00000000
     -4.951  0.0000E+00  0.0000E+00  0.0000E+00  0.0000E+00
     -4.878  0.0000E+00  0.0000E+00  0.0000E+00  0.0000E+00
     -4.805  0.0000E+00  0.0000E+00  0.0000E+00  0.0000E+00
     -4.733  0.0000E+00  0.0000E+00  0.0000E+00  0.0000E+00
     -4.660  0.0000E+00  0.0000E+00  0.0000E+00  0.0000E+00
     -4.587  0.0000E+00  0.0000E+00  0.0000E+00  0.0000E+00
     -4.514  0.0000E+00  0.0000E+00  0.0000E+00  0.0000E+00
     -4.442  0.0000E+00  0.0000E+00  0.0000E+00  0.0000E+00
     -4.369  0.5842E-05  0.5861E-05  0.4248E-06  0.4262E-06
     -4.296  0.3330E-04  0.3341E-04  0.2847E-05  0.2856E-05
     -4.223  0.1493E-03  0.1498E-03  0.1370E-04  0.1375E-04
     -4.151  0.6606E-03  0.6627E-03  0.6174E-04  0.6194E-04
     -4.078  0.2699E-02  0.2707E-02  0.2580E-03  0.2588E-03
     -4.005  0.1035E-01  0.1038E-01  0.1011E-02  0.1014E-02
     -3.933  0.3158E-01  0.3164E-01  0.3307E-02  0.3315E-02
     -3.860  0.6603E-01  0.6611E-01  0.8109E-02  0.8122E-02
     -3.787  0.9986E-01  0.9993E-01  0.1537E-01  0.1539E-01
     -3.714  0.1346E+00  0.1346E+00  0.2516E-01  0.2518E-01
     -3.642  0.1512E+00  0.1512E+00  0.3615E-01  0.3618E-01
     -3.569  0.1672E+00  0.1672E+00  0.4831E-01  0.4834E-01
     -3.496  0.2030E+00  0.2030E+00  0.6307E-01  0.6310E-01
     -3.424  0.2123E+00  0.2123E+00  0.7852E-01  0.7855E-01
     -3.351  0.2228E+00  0.2229E+00  0.9473E-01  0.9476E-01
     -3.278  0.2341E+00  0.2341E+00  0.1118E+00  0.1118E+00
     -3.205  0.2465E+00  0.2466E+00  0.1297E+00  0.1297E+00
     -3.133  0.2888E+00  0.2888E+00  0.1507E+00  0.1508E+00
     -3.060  0.3018E+00  0.3018E+00  0.1727E+00  0.1727E+00
     -2.987  0.2933E+00  0.2932E+00  0.1940E+00  0.1941E+00
     -2.914  0.2779E+00  0.2779E+00  0.2143E+00  0.2143E+00
     -2.842  0.3259E+00  0.3261E+00  0.2380E+00  0.2380E+00
     -2.769  0.3837E+00  0.3837E+00  0.2659E+00  0.2659E+00
     -2.696  0.3810E+00  0.3809E+00  0.2936E+00  0.2936E+00
     -2.624  0.3835E+00  0.3835E+00  0.3215E+00  0.3215E+00
     -2.551  0.3691E+00  0.3691E+00  0.3484E+00  0.3484E+00
     -2.478  0.4418E+00  0.4419E+00  0.3805E+00  0.3806E+00
     -2.405  0.5100E+00  0.5100E+00  0.4176E+00  0.4177E+00
     -2.333  0.4842E+00  0.4841E+00  0.4528E+00  0.4529E+00
     -2.260  0.4187E+00  0.4185E+00  0.4833E+00  0.4833E+00
     -2.187  0.3652E+00  0.3652E+00  0.5099E+00  0.5099E+00
     -2.114  0.4411E+00  0.4413E+00  0.5420E+00  0.5420E+00
     -2.042  0.4810E+00  0.4810E+00  0.5770E+00  0.5770E+00
     -1.969  0.3946E+00  0.3945E+00  0.6057E+00  0.6057E+00
     -1.896  0.3223E+00  0.3222E+00  0.6292E+00  0.6292E+00
     -1.824  0.2776E+00  0.2777E+00  0.6494E+00  0.6494E+00
     -1.751  0.3661E+00  0.3662E+00  0.6760E+00  0.6760E+00
     -1.678  0.4291E+00  0.4291E+00  0.7072E+00  0.7073E+00
     -1.605  0.3405E+00  0.3404E+00  0.7320E+00  0.7321E+00
     -1.533  0.2449E+00  0.2448E+00  0.7499E+00  0.7499E+00
     -1.460  0.1889E+00  0.1889E+00  0.7636E+00  0.7636E+00
     -1.387  0.2692E+00  0.2694E+00  0.7832E+00  0.7832E+00
     -1.315  0.3710E+00  0.3710E+00  0.8102E+00  0.8103E+00
     -1.242  0.3067E+00  0.3066E+00  0.8325E+00  0.8326E+00
     -1.169  0.2569E+00  0.2570E+00  0.8512E+00  0.8513E+00
     -1.096  0.2906E+00  0.2907E+00  0.8724E+00  0.8724E+00
     -1.024  0.3614E+00  0.3615E+00  0.8987E+00  0.8987E+00
     -0.951  0.4485E+00  0.4486E+00  0.9313E+00  0.9314E+00
     -0.878  0.4398E+00  0.4397E+00  0.9633E+00  0.9634E+00
     -0.805  0.3863E+00  0.3863E+00  0.9914E+00  0.9915E+00
     -0.733  0.3689E+00  0.3689E+00  0.1018E+01  0.1018E+01
     -0.660  0.4036E+00  0.4037E+00  0.1048E+01  0.1048E+01
     -0.587  0.5173E+00  0.5174E+00  0.1085E+01  0.1085E+01
     -0.515  0.5760E+00  0.5760E+00  0.1127E+01  0.1127E+01
     -0.442  0.5613E+00  0.5612E+00  0.1168E+01  0.1168E+01
     -0.369  0.5047E+00  0.5044E+00  0.1205E+01  0.1205E+01
     -0.296  0.5078E+00  0.5078E+00  0.1242E+01  0.1242E+01
     -0.224  0.5938E+00  0.5938E+00  0.1285E+01  0.1285E+01
     -0.151  0.6538E+00  0.6538E+00  0.1333E+01  0.1333E+01
     -0.078  0.6376E+00  0.6374E+00  0.1379E+01  0.1379E+01
     -0.006  0.5704E+00  0.5703E+00  0.1420E+01  0.1420E+01
      0.067  0.6480E+00  0.6481E+00  0.1468E+01  0.1468E+01
      0.140  0.7377E+00  0.7378E+00  0.1521E+01  0.1521E+01
      0.213  0.6422E+00  0.6422E+00  0.1568E+01  0.1568E+01
      0.285  0.6121E+00  0.6121E+00  0.1613E+01  0.1613E+01
      0.358  0.6068E+00  0.6067E+00  0.1657E+01  0.1657E+01
      0.431  0.6117E+00  0.6116E+00  0.1701E+01  0.1701E+01
      0.504  0.5731E+00  0.5730E+00  0.1743E+01  0.1743E+01
      0.576  0.5138E+00  0.5139E+00  0.1780E+01  0.1780E+01
      0.649  0.5499E+00  0.5500E+00  0.1820E+01  0.1820E+01
      0.722  0.5576E+00  0.5576E+00  0.1861E+01  0.1861E+01
      0.794  0.5451E+00  0.5450E+00  0.1901E+01  0.1901E+01
      0.867  0.4903E+00  0.4903E+00  0.1936E+01  0.1936E+01
      0.940  0.4176E+00  0.4177E+00  0.1967E+01  0.1967E+01
      1.013  0.4918E+00  0.4919E+00  0.2002E+01  0.2002E+01
      1.085  0.6180E+00  0.6181E+00  0.2047E+01  0.2047E+01
      1.158  0.6658E+00  0.6659E+00  0.2096E+01  0.2096E+01
      1.231  0.6827E+00  0.6827E+00  0.2146E+01  0.2146E+01
      1.304  0.5845E+00  0.5844E+00  0.2188E+01  0.2188E+01
      1.376  0.5101E+00  0.5099E+00  0.2225E+01  0.2225E+01
      1.449  0.4915E+00  0.4913E+00  0.2261E+01  0.2261E+01
      1.522  0.4595E+00  0.4595E+00  0.2294E+01  0.2294E+01
      1.594  0.4601E+00  0.4602E+00  0.2328E+01  0.2328E+01
      1.667  0.5034E+00  0.5038E+00  0.2365E+01  0.2365E+01
      1.740  0.5464E+00  0.5467E+00  0.2404E+01  0.2404E+01
      1.813  0.6035E+00  0.6035E+00  0.2448E+01  0.2448E+01
      1.885  0.6042E+00  0.6043E+00  0.2492E+01  0.2492E+01
      1.958  0.5082E+00  0.5084E+00  0.2529E+01  0.2529E+01
      2.031  0.4999E+00  0.5003E+00  0.2566E+01  0.2566E+01
      2.103  0.5390E+00  0.5392E+00  0.2605E+01  0.2605E+01
      2.176  0.5763E+00  0.5765E+00  0.2647E+01  0.2647E+01
      2.249  0.6394E+00  0.6399E+00  0.2693E+01  0.2693E+01
      2.322  0.7471E+00  0.7481E+00  0.2748E+01  0.2748E+01
      2.394  0.8842E+00  0.8848E+00  0.2812E+01  0.2812E+01
      2.467  0.8854E+00  0.8853E+00  0.2876E+01  0.2877E+01
      2.540  0.8359E+00  0.8352E+00  0.2937E+01  0.2937E+01
      2.613  0.7185E+00  0.7176E+00  0.2990E+01  0.2990E+01
      2.685  0.6214E+00  0.6215E+00  0.3035E+01  0.3035E+01
      2.758  0.6159E+00  0.6164E+00  0.3080E+01  0.3080E+01
      2.831  0.6482E+00  0.6488E+00  0.3127E+01  0.3127E+01
      2.903  0.7157E+00  0.7161E+00  0.3179E+01  0.3179E+01
      2.976  0.8531E+00  0.8535E+00  0.3241E+01  0.3241E+01
      3.049  0.9614E+00  0.9614E+00  0.3311E+01  0.3311E+01
      3.122  0.8313E+00  0.8302E+00  0.3371E+01  0.3372E+01
      3.194  0.6627E+00  0.6618E+00  0.3420E+01  0.3420E+01
      3.267  0.6937E+00  0.6941E+00  0.3470E+01  0.3470E+01
      3.340  0.8585E+00  0.8597E+00  0.3533E+01  0.3533E+01
      3.412  0.9347E+00  0.9352E+00  0.3601E+01  0.3601E+01
      3.485  0.8422E+00  0.8418E+00  0.3662E+01  0.3662E+01
      3.558  0.7423E+00  0.7426E+00  0.3716E+01  0.3716E+01
      3.631  0.7337E+00  0.7339E+00  0.3769E+01  0.3770E+01
      3.703  0.7456E+00  0.7454E+00  0.3824E+01  0.3824E+01
      3.776  0.7811E+00  0.7811E+00  0.3880E+01  0.3881E+01
      3.849  0.8831E+00  0.8828E+00  0.3945E+01  0.3945E+01
      3.922  0.8952E+00  0.8947E+00  0.4010E+01  0.4010E+01
      3.994  0.7769E+00  0.7772E+00  0.4066E+01  0.4067E+01
      4.067  0.7840E+00  0.7843E+00  0.4123E+01  0.4124E+01
      4.140  0.7910E+00  0.7913E+00  0.4181E+01  0.4181E+01
      4.212  0.7456E+00  0.7449E+00  0.4235E+01  0.4236E+01
      4.285  0.6951E+00  0.6946E+00  0.4286E+01  0.4286E+01
      4.358  0.7131E+00  0.7131E+00  0.4338E+01  0.4338E+01
      4.431  0.7351E+00  0.7353E+00  0.4391E+01  0.4392E+01
      4.503  0.7467E+00  0.7462E+00  0.4446E+01  0.4446E+01
      4.576  0.7269E+00  0.7266E+00  0.4499E+01  0.4499E+01
      4.649  0.7829E+00  0.7835E+00  0.4556E+01  0.4556E+01
      4.722  0.7866E+00  0.7864E+00  0.4613E+01  0.4613E+01
      4.794  0.7007E+00  0.6999E+00  0.4664E+01  0.4664E+01
      4.867  0.6435E+00  0.6433E+00  0.4711E+01  0.4711E+01
      4.940  0.7383E+00  0.7388E+00  0.4764E+01  0.4765E+01
      5.012  0.8817E+00  0.8827E+00  0.4829E+01  0.4829E+01
      5.085  0.8762E+00  0.8763E+00  0.4892E+01  0.4893E+01
      5.158  0.6677E+00  0.6662E+00  0.4941E+01  0.4941E+01
      5.231  0.5308E+00  0.5299E+00  0.4980E+01  0.4980E+01
      5.303  0.5759E+00  0.5759E+00  0.5021E+01  0.5022E+01
      5.376  0.6707E+00  0.6713E+00  0.5070E+01  0.5070E+01
      5.449  0.7610E+00  0.7609E+00  0.5126E+01  0.5126E+01
      5.521  0.7870E+00  0.7857E+00  0.5183E+01  0.5183E+01
      5.594  0.7424E+00  0.7425E+00  0.5237E+01  0.5237E+01
      5.667  0.6883E+00  0.6896E+00  0.5287E+01  0.5287E+01
      5.740  0.7515E+00  0.7527E+00  0.5342E+01  0.5342E+01
      5.812  0.8763E+00  0.8765E+00  0.5406E+01  0.5406E+01
      5.885  0.8589E+00  0.8578E+00  0.5468E+01  0.5468E+01
      5.958  0.6257E+00  0.6238E+00  0.5514E+01  0.5514E+01
      6.031  0.5309E+00  0.5295E+00  0.5552E+01  0.5552E+01
      6.103  0.6596E+00  0.6588E+00  0.5600E+01  0.5600E+01
      6.176  0.8981E+00  0.8980E+00  0.5666E+01  0.5665E+01
      6.249  0.1057E+01  0.1057E+01  0.5743E+01  0.5742E+01
      6.321  0.9954E+00  0.9956E+00  0.5815E+01  0.5815E+01
      6.394  0.7393E+00  0.7390E+00  0.5869E+01  0.5869E+01
      6.467  0.7510E+00  0.7497E+00  0.5923E+01  0.5923E+01
      6.540  0.9202E+00  0.9192E+00  0.5990E+01  0.5990E+01
      6.612  0.9296E+00  0.9300E+00  0.6058E+01  0.6058E+01
      6.685  0.8753E+00  0.8765E+00  0.6122E+01  0.6122E+01
      6.758  0.9341E+00  0.9338E+00  0.6190E+01  0.6189E+01
      6.831  0.9874E+00  0.9869E+00  0.6262E+01  0.6261E+01
      6.903  0.1005E+01  0.1005E+01  0.6335E+01  0.6334E+01
      6.976  0.1004E+01  0.1005E+01  0.6408E+01  0.6408E+01
      7.049  0.9368E+00  0.9373E+00  0.6476E+01  0.6476E+01
      7.121  0.8226E+00  0.8224E+00  0.6536E+01  0.6536E+01
      7.194  0.8323E+00  0.8315E+00  0.6596E+01  0.6596E+01
      7.267  0.9316E+00  0.9313E+00  0.6664E+01  0.6664E+01
      7.340  0.9140E+00  0.9160E+00  0.6731E+01  0.6731E+01
      7.412  0.9416E+00  0.9417E+00  0.6799E+01  0.6799E+01
      7.485  0.1075E+01  0.1072E+01  0.6877E+01  0.6877E+01
      7.558  0.1089E+01  0.1089E+01  0.6957E+01  0.6956E+01
      7.630  0.8382E+00  0.8399E+00  0.7018E+01  0.7018E+01
      7.703  0.6379E+00  0.6381E+00  0.7064E+01  0.7064E+01
      7.776  0.7676E+00  0.7670E+00  0.7120E+01  0.7120E+01
      7.849  0.1068E+01  0.1067E+01  0.7198E+01  0.7197E+01
      7.921  0.1133E+01  0.1134E+01  0.7280E+01  0.7280E+01
      7.994  0.9516E+00  0.9525E+00  0.7349E+01  0.7349E+01
      8.067  0.8199E+00  0.8199E+00  0.7409E+01  0.7409E+01
      8.140  0.8415E+00  0.8408E+00  0.7470E+01  0.7470E+01
      8.212  0.8276E+00  0.8273E+00  0.7531E+01  0.7530E+01
      8.285  0.7636E+00  0.7639E+00  0.7586E+01  0.7586E+01
      8.358  0.8324E+00  0.8316E+00  0.7647E+01  0.7647E+01
      8.430  0.9989E+00  0.9980E+00  0.7719E+01  0.7719E+01
      8.503  0.1105E+01  0.1105E+01  0.7800E+01  0.7800E+01
      8.576  0.1066E+01  0.1064E+01  0.7877E+01  0.7877E+01
      8.649  0.1024E+01  0.1022E+01  0.7952E+01  0.7951E+01
      8.721  0.1114E+01  0.1114E+01  0.8033E+01  0.8032E+01
      8.794  0.1189E+01  0.1191E+01  0.8119E+01  0.8119E+01
      8.867  0.1018E+01  0.1019E+01  0.8194E+01  0.8193E+01
      8.939  0.8851E+00  0.8842E+00  0.8258E+01  0.8258E+01
      9.012  0.9267E+00  0.9266E+00  0.8325E+01  0.8325E+01
      9.085  0.9233E+00  0.9245E+00  0.8393E+01  0.8392E+01
      9.158  0.8650E+00  0.8658E+00  0.8456E+01  0.8455E+01
      9.230  0.8446E+00  0.8455E+00  0.8517E+01  0.8517E+01
      9.303  0.8821E+00  0.8815E+00  0.8581E+01  0.8581E+01
      9.376  0.9513E+00  0.9483E+00  0.8651E+01  0.8650E+01
      9.449  0.1054E+01  0.1051E+01  0.8727E+01  0.8727E+01
      9.521  0.1132E+01  0.1131E+01  0.8810E+01  0.8809E+01
      9.594  0.1127E+01  0.1127E+01  0.8892E+01  0.8891E+01
      9.667  0.1105E+01  0.1105E+01  0.8972E+01  0.8971E+01
      9.739  0.1012E+01  0.1012E+01  0.9046E+01  0.9045E+01
      9.812  0.9469E+00  0.9463E+00  0.9115E+01  0.9114E+01
      9.885  0.1069E+01  0.1067E+01  0.9192E+01  0.9192E+01
      9.958  0.1163E+01  0.1164E+01  0.9277E+01  0.9276E+01
     10.030  0.1089E+01  0.1090E+01  0.9356E+01  0.9356E+01
     10.103  0.1045E+01  0.1045E+01  0.9432E+01  0.9432E+01
     10.176  0.1060E+01  0.1061E+01  0.9510E+01  0.9509E+01
     10.249  0.1054E+01  0.1053E+01  0.9586E+01  0.9585E+01
     10.321  0.1050E+01  0.1048E+01  0.9663E+01  0.9662E+01
     10.394  0.1067E+01  0.1066E+01  0.9740E+01  0.9739E+01
     10.467  0.1066E+01  0.1068E+01  0.9818E+01  0.9817E+01
     10.539  0.1158E+01  0.1158E+01  0.9902E+01  0.9901E+01
     10.612  0.1176E+01  0.1177E+01  0.9988E+01  0.9987E+01
     10.685  0.1132E+01  0.1132E+01  0.1007E+02  0.1007E+02
     10.758  0.1072E+01  0.1072E+01  0.1015E+02  0.1015E+02
     10.830  0.9838E+00  0.9839E+00  0.1022E+02  0.1022E+02
     10.903  0.1015E+01  0.1014E+01  0.1029E+02  0.1029E+02
     10.976  0.9826E+00  0.9829E+00  0.1037E+02  0.1036E+02
     11.048  0.8931E+00  0.8949E+00  0.1043E+02  0.1043E+02
     11.121  0.8030E+00  0.8028E+00  0.1049E+02  0.1049E+02
     11.194  0.9062E+00  0.9006E+00  0.1055E+02  0.1055E+02
     11.267  0.1161E+01  0.1154E+01  0.1064E+02  0.1064E+02
     11.339  0.1288E+01  0.1282E+01  0.1073E+02  0.1073E+02
     11.412  0.1241E+01  0.1239E+01  0.1082E+02  0.1082E+02
     11.485  0.1007E+01  0.1016E+01  0.1090E+02  0.1089E+02
     11.558  0.7437E+00  0.7474E+00  0.1095E+02  0.1095E+02
     11.630  0.7212E+00  0.7218E+00  0.1100E+02  0.1100E+02
     11.703  0.8488E+00  0.8538E+00  0.1106E+02  0.1106E+02
     11.776  0.9323E+00  0.9347E+00  0.1113E+02  0.1113E+02
     11.848  0.8766E+00  0.8781E+00  0.1120E+02  0.1120E+02
     11.921  0.7475E+00  0.7486E+00  0.1125E+02  0.1125E+02
     11.994  0.6429E+00  0.6457E+00  0.1130E+02  0.1130E+02
     12.067  0.5645E+00  0.5671E+00  0.1134E+02  0.1134E+02
     12.139  0.5195E+00  0.5182E+00  0.1138E+02  0.1138E+02
     12.212  0.5082E+00  0.5049E+00  0.1141E+02  0.1141E+02
     12.285  0.5131E+00  0.5128E+00  0.1145E+02  0.1145E+02
     12.357  0.4302E+00  0.4319E+00  0.1148E+02  0.1148E+02
     12.430  0.3561E+00  0.3570E+00  0.1151E+02  0.1151E+02
     12.503  0.3099E+00  0.3114E+00  0.1153E+02  0.1153E+02
     12.576  0.2792E+00  0.2801E+00  0.1155E+02  0.1155E+02
     12.648  0.3095E+00  0.3096E+00  0.1157E+02  0.1157E+02
     12.721  0.3277E+00  0.3292E+00  0.1160E+02  0.1160E+02
     12.794  0.3121E+00  0.3136E+00  0.1162E+02  0.1162E+02
     12.867  0.3031E+00  0.3022E+00  0.1164E+02  0.1164E+02
     12.939  0.2686E+00  0.2685E+00  0.1166E+02  0.1166E+02
     13.012  0.2227E+00  0.2246E+00  0.1168E+02  0.1168E+02
     13.085  0.2907E+00  0.2955E+00  0.1170E+02  0.1170E+02
     13.157  0.4348E+00  0.4378E+00  0.1173E+02  0.1173E+02
     13.230  0.3727E+00  0.3678E+00  0.1176E+02  0.1176E+02
     13.303  0.2273E+00  0.2230E+00  0.1177E+02  0.1177E+02
     13.376  0.2148E+00  0.2128E+00  0.1179E+02  0.1179E+02
     13.448  0.2275E+00  0.2269E+00  0.1181E+02  0.1181E+02
     13.521  0.2024E+00  0.2019E+00  0.1182E+02  0.1182E+02
     13.594  0.1821E+00  0.1821E+00  0.1183E+02  0.1183E+02
     13.667  0.1387E+00  0.1402E+00  0.1184E+02  0.1184E+02
     13.739  0.1002E+00  0.1017E+00  0.1185E+02  0.1185E+02
     13.812  0.7440E-01  0.7433E-01  0.1186E+02  0.1186E+02
     13.885  0.8120E-01  0.8021E-01  0.1186E+02  0.1186E+02
     13.957  0.1454E+00  0.1443E+00  0.1187E+02  0.1187E+02
     14.030  0.1769E+00  0.1768E+00  0.1189E+02  0.1189E+02
     14.103  0.1488E+00  0.1490E+00  0.1190E+02  0.1190E+02
     14.176  0.1291E+00  0.1290E+00  0.1191E+02  0.1191E+02
     14.248  0.1354E+00  0.1352E+00  0.1192E+02  0.1192E+02
     14.321  0.1138E+00  0.1147E+00  0.1193E+02  0.1193E+02
     14.394  0.6028E-01  0.6110E-01  0.1193E+02  0.1193E+02
     14.466  0.4004E-01  0.4008E-01  0.1193E+02  0.1193E+02
     14.539  0.6100E-01  0.6064E-01  0.1194E+02  0.1194E+02
     14.612  0.8205E-01  0.8205E-01  0.1194E+02  0.1194E+02
     14.685  0.7891E-01  0.7939E-01  0.1195E+02  0.1195E+02
     14.757  0.6024E-01  0.6146E-01  0.1195E+02  0.1195E+02
     14.830  0.7332E-01  0.7692E-01  0.1196E+02  0.1196E+02
     14.903  0.1204E+00  0.1309E+00  0.1197E+02  0.1197E+02
     14.976  0.1253E+00  0.1342E+00  0.1198E+02  0.1198E+02
     15.048  0.8061E-01  0.7207E-01  0.1198E+02  0.1198E+02
     15.121  0.3714E-01  0.2695E-01  0.1198E+02  0.1199E+02
     15.194  0.2451E-01  0.2028E-01  0.1199E+02  0.1199E+02
     15.266  0.3449E-01  0.3313E-01  0.1199E+02  0.1199E+02
     15.339  0.3148E-01  0.3160E-01  0.1199E+02  0.1199E+02
     15.412  0.1639E-01  0.1664E-01  0.1199E+02  0.1199E+02
     15.485  0.1427E-01  0.1425E-01  0.1199E+02  0.1199E+02
     15.557  0.1836E-01  0.1837E-01  0.1200E+02  0.1200E+02
     15.630  0.1232E-01  0.1246E-01  0.1200E+02  0.1200E+02
     15.703  0.5354E-02  0.5365E-02  0.1200E+02  0.1200E+02
     15.775  0.5811E-02  0.5589E-02  0.1200E+02  0.1200E+02
     15.848  0.1316E-01  0.1277E-01  0.1200E+02  0.1200E+02
     15.921  0.1724E-01  0.1736E-01  0.1200E+02  0.1200E+02
     15.994  0.9575E-02  0.9970E-02  0.1200E+02  0.1200E+02
     16.066  0.3007E-02  0.3182E-02  0.1200E+02  0.1200E+02
     16.139  0.7595E-03  0.8078E-03  0.1200E+02  0.1200E+02
     16.212  0.1808E-03  0.1925E-03  0.1200E+02  0.1200E+02
     16.285  0.0000E+00  0.0000E+00  0.1200E+02  0.1200E+02
     16.357  0.0000E+00  0.0000E+00  0.1200E+02  0.1200E+02
     16.430  0.0000E+00  0.0000E+00  0.1200E+02  0.1200E+02
     16.503  0.0000E+00  0.0000E+00  0.1200E+02  0.1200E+02
     16.575  0.0000E+00  0.0000E+00  0.1200E+02  0.1200E+02
     16.648  0.0000E+00  0.0000E+00  0.1200E+02  0.1200E+02
     16.721  0.0000E+00  0.0000E+00  0.1200E+02  0.1200E+02
     16.794  0.0000E+00  0.0000E+00  0.1200E+02  0.1200E+02
     16.866  0.0000E+00  0.0000E+00  0.1200E+02  0.1200E+02
     16.86633593     -4.95069659  301      5.26724910      1.00000000
     -4.951  0.0000E+00  0.0000E+00  0.0000E+00  0.0000E+00  0.0000E+00  0.0000E+00  0.0000E+00  0.0000E+00  0.0000E+00  0.0000E+00  0.0000E+00  0.0000E+00  0.0000E+00  0.0000E+00  0.0000E+00  0.0000E+00  0.0000E+00  0.0000E+00
     -4.878  0.0000E+00  0.0000E+00  0.0000E+00  0.0000E+00  0.0000E+00  0.0000E+00  0.0000E+00  0.0000E+00  0.0000E+00  0.0000E+00  0.0000E+00  0.0000E+00  0.0000E+00  0.0000E+00  0.0000E+00  0.0000E+00  0.0000E+00  0.0000E+00
     -4.805  0.0000E+00  0.0000E+00  0.0000E+00  0.0000E+00  0.0000E+00  0.0000E+00  0.0000E+00  0.0000E+00  0.0000E+00  0.0000E+00  0.0000E+00  0.0000E+00  0.0000E+00  0.0000E+00  0.0000E+00  0.0000E+00  0.0000E+00  0.0000E+00
     -4.733  0.0000E+00  0.0000E+00  0.0000E+00  0.0000E+00  0.0000E+00  0.0000E+00  0.0000E+00  0.0000E+00  0.0000E+00  0.0000E+00  0.0000E+00  0.0000E+00  0.0000E+00  0.0000E+00  0.0000E+00  0.0000E+00  0.0000E+00  0.0000E+00
     -4.660  0.0000E+00  0.0000E+00  0.0000E+00  0.0000E+00  0.0000E+00  0.0000E+00  0.0000E+00  0.0000E+00  0.0000E+00  0.0000E+00  0.0000E+00  0.0000E+00  0.0000E+00  0.0000E+00  0.0000E+00  0.0000E+00  0.0000E+00  0.0000E+00
     -4.587  0.0000E+00  0.0000E+00  0.0000E+00  0.0000E+00  0.0000E+00  0.0000E+00  0.0000E+00  0.0000E+00  0.0000E+00  0.0000E+00  0.0000E+00  0.0000E+00  0.0000E+00  0.0000E+00  0.0000E+00  0.0000E+00  0.0000E+00  0.0000E+00
     -4.514  0.0000E+00  0.0000E+00  0.0000E+00  0.0000E+00  0.0000E+00  0.0000E+00  0.0000E+00  0.0000E+00  0.0000E+00  0.0000E+00  0.0000E+00  0.0000E+00  0.0000E+00  0.0000E+00  0.0000E+00  0.0000E+00  0.0000E+00  0.0000E+00
     -4.442  0.0000E+00  0.0000E+00  0.0000E+00  0.0000E+00  0.0000E+00  0.0000E+00  0.0000E+00  0.0000E+00  0.0000E+00  0.0000E+00  0.0000E+00  0.0000E+00  0.0000E+00  0.0000E+00  0.0000E+00  0.0000E+00  0.0000E+00  0.0000E+00
     -4.369  0.1112E-06  0.1116E-06  0.3580E-09  0.3591E-09  0.3580E-09  0.3591E-09  0.3578E-09  0.3589E-09  0.0000E+00  0.0000E+00  0.0000E+00  0.0000E+00  0.0000E+00  0.0000E+00  0.0000E+00  0.0000E+00  0.0000E+00  0.0000E+00
     -4.296  0.6290E-06  0.6310E-06  0.3603E-08  0.3614E-08  0.3603E-08  0.3614E-08  0.3601E-08  0.3612E-08  0.0000E+00  0.0000E+00  0.0000E+00  0.0000E+00  0.0000E+00  0.0000E+00  0.0000E+00  0.0000E+00  0.0000E+00  0.0000E+00
     -4.223  0.2811E-05  0.2819E-05  0.1884E-07  0.1889E-07  0.1884E-07  0.1889E-07  0.1883E-07  0.1888E-07  0.0000E+00  0.0000E+00  0.0000E+00  0.0000E+00  0.0000E+00  0.0000E+00  0.0000E+00  0.0000E+00  0.0000E+00  0.0000E+00
     -4.151  0.1240E-04  0.1244E-04  0.9593E-07  0.9622E-07  0.9593E-07  0.9622E-07  0.9586E-07  0.9615E-07  0.0000E+00  0.0000E+00  0.0000E+00  0.0000E+00  0.0000E+00  0.0000E+00  0.0000E+00  0.0000E+00  0.0000E+00  0.0000E+00
     -4.078  0.5067E-04  0.5082E-04  0.3838E-06  0.3850E-06  0.3838E-06  0.3850E-06  0.3836E-06  0.3847E-06  0.0000E+00  0.0000E+00  0.0000E+00  0.0000E+00  0.0000E+00  0.0000E+00  0.0000E+00  0.0000E+00  0.0000E+00  0.0000E+00
     -4.005  0.1940E-03  0.1945E-03  0.1582E-05  0.1586E-05  0.1582E-05  0.1586E-05  0.1581E-05  0.1585E-05  0.0000E+00  0.0000E+00  0.0000E+00  0.0000E+00  0.0000E+00  0.0000E+00  0.0000E+00  0.0000E+00  0.0000E+00  0.0000E+00
     -3.933  0.5893E-03  0.5904E-03  0.5612E-05  0.5626E-05  0.5612E-05  0.5626E-05  0.5609E-05  0.5622E-05  0.0000E+00  0.0000E+00  0.0000E+00  0.0000E+00  0.0000E+00  0.0000E+00  0.0000E+00  0.0000E+00  0.0000E+00  0.0000E+00
     -3.860  0.1220E-02  0.1222E-02  0.1530E-04  0.1533E-04  0.1530E-04  0.1533E-04  0.1529E-04  0.1531E-04  0.0000E+00  0.0000E+00  0.0000E+00  0.0000E+00  0.0000E+00  0.0000E+00  0.0000E+00  0.0000E+00  0.0000E+00  0.0000E+00
     -3.787  0.1814E-02  0.1815E-02  0.3279E-04  0.3284E-04  0.3279E-04  0.3284E-04  0.3277E-04  0.3281E-04  0.0000E+00  0.0000E+00  0.0000E+00  0.0000E+00  0.0000E+00  0.0000E+00  0.0000E+00  0.0000E+00  0.0000E+00  0.0000E+00
     -3.714  0.2395E-02  0.2396E-02  0.5881E-04  0.5885E-04  0.5881E-04  0.5885E-04  0.5877E-04  0.5882E-04  0.0000E+00  0.0000E+00  0.0000E+00  0.0000E+00  0.0000E+00  0.0000E+00  0.0000E+00  0.0000E+00  0.0000E+00  0.0000E+00
     -3.642  0.2636E-02  0.2636E-02  0.8255E-04  0.8258E-04  0.8255E-04  0.8258E-04  0.8250E-04  0.8253E-04  0.0000E+00  0.0000E+00  0.0000E+00  0.0000E+00  0.0000E+00  0.0000E+00  0.0000E+00  0.0000E+00  0.0000E+00  0.0000E+00
     -3.569  0.2826E-02  0.2826E-02  0.1171E-03  0.1171E-03  0.1171E-03  0.1171E-03  0.1169E-03  0.1170E-03  0.0000E+00  0.0000E+00  0.0000E+00  0.0000E+00  0.0000E+00  0.0000E+00  0.0000E+00  0.0000E+00  0.0000E+00  0.0000E+00
     -3.496  0.3340E-02  0.3340E-02  0.1681E-03  0.1682E-03  0.1681E-03  0.1682E-03  0.1680E-03  0.1680E-03  0.0000E+00  0.0000E+00  0.0000E+00  0.0000E+00  0.0000E+00  0.0000E+00  0.0000E+00  0.0000E+00  0.0000E+00  0.0000E+00
     -3.424  0.3407E-02  0.3407E-02  0.2005E-03  0.2005E-03  0.2005E-03  0.2005E-03  0.2004E-03  0.2004E-03  0.0000E+00  0.0000E+00  0.0000E+00  0.0000E+00  0.0000E+00  0.0000E+00  0.0000E+00  0.0000E+00  0.0000E+00  0.0000E+00
     -3.351  0.3470E-02  0.3471E-02  0.2402E-03  0.2402E-03  0.2402E-03  0.2402E-03  0.2400E-03  0.2400E-03  0.0000E+00  0.0000E+00  0.0000E+00  0.0000E+00  0.0000E+00  0.0000E+00  0.0000E+00  0.0000E+00  0.0000E+00  0.0000E+00
     -3.278  0.3529E-02  0.3528E-02  0.2841E-03  0.2841E-03  0.2841E-03  0.2841E-03  0.2838E-03  0.2837E-03  0.0000E+00  0.0000E+00  0.0000E+00  0.0000E+00  0.0000E+00  0.0000E+00  0.0000E+00  0.0000E+00  0.0000E+00  0.0000E+00
     -3.205  0.3551E-02  0.3551E-02  0.3423E-03  0.3424E-03  0.3423E-03  0.3424E-03  0.3417E-03  0.3418E-03  0.0000E+00  0.0000E+00  0.0000E+00  0.0000E+00  0.0000E+00  0.0000E+00  0.0000E+00  0.0000E+00  0.0000E+00  0.0000E+00
     -3.133  0.4021E-02  0.4020E-02  0.4378E-03  0.4379E-03  0.4378E-03  0.4379E-03  0.4376E-03  0.4376E-03  0.0000E+00  0.0000E+00  0.0000E+00  0.0000E+00  0.0000E+00  0.0000E+00  0.0000E+00  0.0000E+00  0.0000E+00  0.0000E+00
     -3.060  0.4084E-02  0.4083E-02  0.4887E-03  0.4887E-03  0.4887E-03  0.4887E-03  0.4886E-03  0.4886E-03  0.0000E+00  0.0000E+00  0.0000E+00  0.0000E+00  0.0000E+00  0.0000E+00  0.0000E+00  0.0000E+00  0.0000E+00  0.0000E+00
     -2.987  0.3830E-02  0.3829E-02  0.5095E-03  0.5094E-03  0.5095E-03  0.5094E-03  0.5094E-03  0.5093E-03  0.0000E+00  0.0000E+00  0.0000E+00  0.0000E+00  0.0000E+00  0.0000E+00  0.0000E+00  0.0000E+00  0.0000E+00  0.0000E+00
     -2.914  0.3430E-02  0.3430E-02  0.5310E-03  0.5310E-03  0.5310E-03  0.5310E-03  0.5299E-03  0.5299E-03  0.0000E+00  0.0000E+00  0.0000E+00  0.0000E+00  0.0000E+00  0.0000E+00  0.0000E+00  0.0000E+00  0.0000E+00  0.0000E+00
     -2.842  0.3718E-02  0.3721E-02  0.6940E-03  0.6942E-03  0.6940E-03  0.6942E-03  0.6918E-03  0.6920E-03  0.0000E+00  0.0000E+00  0.0000E+00  0.0000E+00  0.0000E+00  0.0000E+00  0.0000E+00  0.0000E+00  0.0000E+00  0.0000E+00
     -2.769  0.4167E-02  0.4168E-02  0.8649E-03  0.8648E-03  0.8649E-03  0.8648E-03  0.8642E-03  0.8641E-03  0.0000E+00  0.0000E+00  0.0000E+00  0.0000E+00  0.0000E+00  0.0000E+00  0.0000E+00  0.0000E+00  0.0000E+00  0.0000E+00
     -2.696  0.3934E-02  0.3935E-02  0.9040E-03  0.9037E-03  0.9040E-03  0.9037E-03  0.9034E-03  0.9031E-03  0.0000E+00  0.0000E+00  0.0000E+00  0.0000E+00  0.0000E+00  0.0000E+00  0.0000E+00  0.0000E+00  0.0000E+00  0.0000E+00
     -2.624  0.3679E-02  0.3681E-02  0.9704E-03  0.9701E-03  0.9704E-03  0.9701E-03  0.9690E-03  0.9688E-03  0.0000E+00  0.0000E+00  0.0000E+00  0.0000E+00  0.0000E+00  0.0000E+00  0.0000E+00  0.0000E+00  0.0000E+00  0.0000E+00
     -2.551  0.3081E-02  0.3082E-02  0.1029E-02  0.1029E-02  0.1029E-02  0.1029E-02  0.1025E-02  0.1025E-02  0.0000E+00  0.0000E+00  0.0000E+00  0.0000E+00  0.0000E+00  0.0000E+00  0.0000E+00  0.0000E+00  0.0000E+00  0.0000E+00
     -2.478  0.3194E-02  0.3198E-02  0.1331E-02  0.1331E-02  0.1331E-02  0.1331E-02  0.1327E-02  0.1327E-02  0.0000E+00  0.0000E+00  0.0000E+00  0.0000E+00  0.0000E+00  0.0000E+00  0.0000E+00  0.0000E+00  0.0000E+00  0.0000E+00
     -2.405  0.3518E-02  0.3522E-02  0.1567E-02  0.1567E-02  0.1567E-02  0.1567E-02  0.1567E-02  0.1566E-02  0.0000E+00  0.0000E+00  0.0000E+00  0.0000E+00  0.0000E+00  0.0000E+00  0.0000E+00  0.0000E+00  0.0000E+00  0.0000E+00
     -2.333  0.3049E-02  0.3051E-02  0.1541E-02  0.1540E-02  0.1541E-02  0.1540E-02  0.1541E-02  0.1540E-02  0.0000E+00  0.0000E+00  0.0000E+00  0.0000E+00  0.0000E+00  0.0000E+00  0.0000E+00  0.0000E+00  0.0000E+00  0.0000E+00
     -2.260  0.2415E-02  0.2416E-02  0.1370E-02  0.1369E-02  0.1370E-02  0.1369E-02  0.1374E-02  0.1373E-02  0.0000E+00  0.0000E+00  0.0000E+00  0.0000E+00  0.0000E+00  0.0000E+00  0.0000E+00  0.0000E+00  0.0000E+00  0.0000E+00
     -2.187  0.1983E-02  0.1985E-02  0.1213E-02  0.1213E-02  0.1213E-02  0.1213E-02  0.1214E-02  0.1213E-02  0.0000E+00  0.0000E+00  0.0000E+00  0.0000E+00  0.0000E+00  0.0000E+00  0.0000E+00  0.0000E+00  0.0000E+00  0.0000E+00
     -2.114  0.2284E-02  0.2288E-02  0.1480E-02  0.1480E-02  0.1480E-02  0.1480E-02  0.1477E-02  0.1477E-02  0.0000E+00  0.0000E+00  0.0000E+00  0.0000E+00  0.0000E+00  0.0000E+00  0.0000E+00  0.0000E+00  0.0000E+00  0.0000E+00
     -2.042  0.2479E-02  0.2482E-02  0.1610E-02  0.1609E-02  0.1610E-02  0.1609E-02  0.1613E-02  0.1612E-02  0.0000E+00  0.0000E+00  0.0000E+00  0.0000E+00  0.0000E+00  0.0000E+00  0.0000E+00  0.0000E+00  0.0000E+00  0.0000E+00
     -1.969  0.1965E-02  0.1967E-02  0.1328E-02  0.1327E-02  0.1328E-02  0.1327E-02  0.1331E-02  0.1330E-02  0.0000E+00  0.0000E+00  0.0000E+00  0.0000E+00  0.0000E+00  0.0000E+00  0.0000E+00  0.0000E+00  0.0000E+00  0.0000E+00
     -1.896  0.1437E-02  0.1438E-02  0.1106E-02  0.1105E-02  0.1106E-02  0.1105E-02  0.1108E-02  0.1107E-02  0.0000E+00  0.0000E+00  0.0000E+00  0.0000E+00  0.0000E+00  0.0000E+00  0.0000E+00  0.0000E+00  0.0000E+00  0.0000E+00
     -1.824  0.1086E-02  0.1088E-02  0.9684E-03  0.9680E-03  0.9684E-03  0.9680E-03  0.9685E-03  0.9681E-03  0.0000E+00  0.0000E+00  0.0000E+00  0.0000E+00  0.0000E+00  0.0000E+00  0.0000E+00  0.0000E+00  0.0000E+00  0.0000E+00
     -1.751  0.1386E-02  0.1390E-02  0.1274E-02  0.1274E-02  0.1274E-02  0.1274E-02  0.1270E-02  0.1270E-02  0.0000E+00  0.0000E+00  0.0000E+00  0.0000E+00  0.0000E+00  0.0000E+00  0.0000E+00  0.0000E+00  0.0000E+00  0.0000E+00
     -1.678  0.1622E-02  0.1625E-02  0.1487E-02  0.1486E-02  0.1487E-02  0.1486E-02  0.1488E-02  0.1488E-02  0.0000E+00  0.0000E+00  0.0000E+00  0.0000E+00  0.0000E+00  0.0000E+00  0.0000E+00  0.0000E+00  0.0000E+00  0.0000E+00
     -1.605  0.1182E-02  0.1184E-02  0.1189E-02  0.1187E-02  0.1189E-02  0.1187E-02  0.1192E-02  0.1191E-02  0.0000E+00  0.0000E+00  0.0000E+00  0.0000E+00  0.0000E+00  0.0000E+00  0.0000E+00  0.0000E+00  0.0000E+00  0.0000E+00
     -1.533  0.7844E-03  0.7858E-03  0.8568E-03  0.8559E-03  0.8568E-03  0.8559E-03  0.8605E-03  0.8596E-03  0.0000E+00  0.0000E+00  0.0000E+00  0.0000E+00  0.0000E+00  0.0000E+00  0.0000E+00  0.0000E+00  0.0000E+00  0.0000E+00
     -1.460  0.5996E-03  0.6009E-03  0.6524E-03  0.6520E-03  0.6524E-03  0.6520E-03  0.6531E-03  0.6527E-03  0.0000E+00  0.0000E+00  0.0000E+00  0.0000E+00  0.0000E+00  0.0000E+00  0.0000E+00  0.0000E+00  0.0000E+00  0.0000E+00
     -1.387  0.7847E-03  0.7868E-03  0.9223E-03  0.9223E-03  0.9223E-03  0.9223E-03  0.9179E-03  0.9180E-03  0.0000E+00  0.0000E+00  0.0000E+00  0.0000E+00  0.0000E+00  0.0000E+00  0.0000E+00  0.0000E+00  0.0000E+00  0.0000E+00
     -1.315  0.1043E-02  0.1045E-02  0.1263E-02  0.1262E-02  0.1263E-02  0.1262E-02  0.1262E-02  0.1261E-02  0.0000E+00  0.0000E+00  0.0000E+00  0.0000E+00  0.0000E+00  0.0000E+00  0.0000E+00  0.0000E+00  0.0000E+00  0.0000E+00