   4   4   1   0
  0.1731754E+02  0.4105998E-09  0.4107369E-09  0.4107369E-09  0.5000000E-15
  1.000000000000000E-004
  CAR 
 unknown system                          
     17.94102210     -4.83615519  301      5.75259785      1.00000000
     -4.836  0.0000E+00  0.0000E+00  0.0000E+00  0.0000E+00
     -4.760  0.0000E+00  0.0000E+00  0.0000E+00  0.0000E+00
     -4.684  0.0000E+00  0.0000E+00  0.0000E+00  0.0000E+00
     -4.608  0.0000E+00  0.0000E+00  0.0000E+00  0.0000E+00
     -4.532  0.0000E+00  0.0000E+00  0.0000E+00  0.0000E+00
     -4.457  0.0000E+00  0.0000E+00  0.0000E+00  0.0000E+00
     -4.381  0.0000E+00  0.0000E+00  0.0000E+00  0.0000E+00
     -4.305  0.0000E+00  0.0000E+00  0.0000E+00  0.0000E+00
     -4.229  0.1132E-05  0.3819E-05  0.8597E-07  0.2900E-06
     -4.153  0.2530E-04  0.2303E-04  0.2007E-05  0.2039E-05
     -4.077  0.1082E-03  0.1099E-03  0.1022E-04  0.1038E-04
     -4.001  0.4995E-03  0.5072E-03  0.4815E-04  0.4890E-04
     -3.925  0.2236E-02  0.2269E-02  0.2179E-03  0.2212E-03
     -3.849  0.9133E-02  0.9257E-02  0.9113E-03  0.9240E-03
     -3.773  0.2951E-01  0.2981E-01  0.3152E-02  0.3187E-02
     -3.697  0.6353E-01  0.6388E-01  0.7975E-02  0.8037E-02
     -3.621  0.9624E-01  0.9657E-01  0.1528E-01  0.1537E-01
     -3.545  0.1307E+00  0.1310E+00  0.2521E-01  0.2532E-01
     -3.470  0.1458E+00  0.1458E+00  0.3627E-01  0.3639E-01
     -3.394  0.1608E+00  0.1612E+00  0.4849E-01  0.4862E-01
     -3.318  0.1973E+00  0.1976E+00  0.6347E-01  0.6363E-01
     -3.242  0.2044E+00  0.2044E+00  0.7900E-01  0.7915E-01
     -3.166  0.2154E+00  0.2156E+00  0.9535E-01  0.9552E-01
     -3.090  0.2255E+00  0.2255E+00  0.1125E+00  0.1127E+00
     -3.014  0.2378E+00  0.2382E+00  0.1305E+00  0.1307E+00
     -2.938  0.2812E+00  0.2815E+00  0.1519E+00  0.1521E+00
     -2.862  0.2917E+00  0.2916E+00  0.1741E+00  0.1743E+00
     -2.786  0.2812E+00  0.2810E+00  0.1954E+00  0.1956E+00
     -2.710  0.2655E+00  0.2656E+00  0.2156E+00  0.2158E+00
     -2.634  0.3196E+00  0.3204E+00  0.2399E+00  0.2402E+00
     -2.558  0.3734E+00  0.3735E+00  0.2683E+00  0.2685E+00
     -2.483  0.3663E+00  0.3663E+00  0.2961E+00  0.2964E+00
     -2.407  0.3687E+00  0.3685E+00  0.3241E+00  0.3244E+00
     -2.331  0.3533E+00  0.3536E+00  0.3509E+00  0.3512E+00
     -2.255  0.4368E+00  0.4379E+00  0.3841E+00  0.3845E+00
     -2.179  0.4956E+00  0.4956E+00  0.4218E+00  0.4222E+00
     -2.103  0.4622E+00  0.4617E+00  0.4569E+00  0.4572E+00
     -2.027  0.3922E+00  0.3914E+00  0.4867E+00  0.4870E+00
     -1.951  0.3481E+00  0.3484E+00  0.5132E+00  0.5134E+00
     -1.875  0.4402E+00  0.4412E+00  0.5466E+00  0.5470E+00
     -1.799  0.4602E+00  0.4595E+00  0.5816E+00  0.5819E+00
     -1.723  0.3679E+00  0.3672E+00  0.6096E+00  0.6098E+00
     -1.647  0.2985E+00  0.2978E+00  0.6323E+00  0.6325E+00
     -1.571  0.2654E+00  0.2658E+00  0.6524E+00  0.6526E+00
     -1.496  0.3736E+00  0.3748E+00  0.6808E+00  0.6811E+00
     -1.420  0.4123E+00  0.4117E+00  0.7121E+00  0.7124E+00
     -1.344  0.3112E+00  0.3102E+00  0.7358E+00  0.7360E+00
     -1.268  0.2191E+00  0.2183E+00  0.7524E+00  0.7526E+00
     -1.192  0.1785E+00  0.1789E+00  0.7660E+00  0.7662E+00
     -1.116  0.2847E+00  0.2861E+00  0.7876E+00  0.7879E+00
     -1.040  0.3646E+00  0.3644E+00  0.8154E+00  0.8156E+00
     -0.964  0.2769E+00  0.2761E+00  0.8364E+00  0.8366E+00
     -0.888  0.2503E+00  0.2505E+00  0.8554E+00  0.8556E+00
     -0.812  0.2908E+00  0.2913E+00  0.8775E+00  0.8777E+00
     -0.736  0.3689E+00  0.3699E+00  0.9055E+00  0.9058E+00
     -0.660  0.4451E+00  0.4453E+00  0.9394E+00  0.9397E+00
     -0.584  0.4114E+00  0.4108E+00  0.9706E+00  0.9709E+00
     -0.508  0.3639E+00  0.3636E+00  0.9983E+00  0.9985E+00
     -0.433  0.3525E+00  0.3526E+00  0.1025E+01  0.1025E+01
     -0.357  0.4094E+00  0.4104E+00  0.1056E+01  0.1056E+01
     -0.281  0.5251E+00  0.5258E+00  0.1096E+01  0.1096E+01
     -0.205  0.5589E+00  0.5588E+00  0.1139E+01  0.1139E+01
     -0.129  0.5270E+00  0.5264E+00  0.1179E+01  0.1179E+01
     -0.053  0.4655E+00  0.4651E+00  0.1214E+01  0.1214E+01
      0.023  0.5000E+00  0.5007E+00  0.1252E+01  0.1252E+01
      0.099  0.5870E+00  0.5876E+00  0.1296E+01  0.1297E+01
      0.175  0.6327E+00  0.6327E+00  0.1345E+01  0.1345E+01
      0.251  0.5883E+00  0.5874E+00  0.1389E+01  0.1390E+01
      0.327  0.5403E+00  0.5405E+00  0.1430E+01  0.1431E+01
      0.403  0.6627E+00  0.6641E+00  0.1481E+01  0.1481E+01
      0.479  0.7110E+00  0.7104E+00  0.1535E+01  0.1535E+01
      0.554  0.5968E+00  0.5963E+00  0.1580E+01  0.1580E+01
      0.630  0.5861E+00  0.5860E+00  0.1625E+01  0.1625E+01
      0.706  0.5746E+00  0.5745E+00  0.1668E+01  0.1669E+01
      0.782  0.5844E+00  0.5842E+00  0.1713E+01  0.1713E+01
      0.858  0.5289E+00  0.5283E+00  0.1753E+01  0.1753E+01
      0.934  0.5005E+00  0.5009E+00  0.1791E+01  0.1791E+01
      1.010  0.5470E+00  0.5473E+00  0.1832E+01  0.1833E+01
      1.086  0.5289E+00  0.5287E+00  0.1873E+01  0.1873E+01
      1.162  0.5148E+00  0.5145E+00  0.1912E+01  0.1912E+01
      1.238  0.4499E+00  0.4492E+00  0.1946E+01  0.1946E+01
      1.314  0.4124E+00  0.4128E+00  0.1977E+01  0.1978E+01
      1.390  0.5182E+00  0.5195E+00  0.2017E+01  0.2017E+01
      1.466  0.6363E+00  0.6369E+00  0.2065E+01  0.2065E+01
      1.541  0.6567E+00  0.6569E+00  0.2115E+01  0.2115E+01
      1.617  0.6420E+00  0.6411E+00  0.2164E+01  0.2164E+01
      1.693  0.5078E+00  0.5068E+00  0.2202E+01  0.2203E+01
      1.769  0.4597E+00  0.4595E+00  0.2237E+01  0.2237E+01
      1.845  0.4481E+00  0.4480E+00  0.2271E+01  0.2272E+01
      1.921  0.4435E+00  0.4435E+00  0.2305E+01  0.2305E+01
      1.997  0.4711E+00  0.4719E+00  0.2341E+01  0.2341E+01
      2.073  0.5455E+00  0.5461E+00  0.2382E+01  0.2383E+01
      2.149  0.5799E+00  0.5804E+00  0.2426E+01  0.2427E+01
      2.225  0.6297E+00  0.6303E+00  0.2474E+01  0.2475E+01
      2.301  0.5996E+00  0.5991E+00  0.2520E+01  0.2520E+01
      2.377  0.5037E+00  0.5034E+00  0.2558E+01  0.2558E+01
      2.453  0.5159E+00  0.5163E+00  0.2597E+01  0.2598E+01
      2.528  0.5555E+00  0.5560E+00  0.2639E+01  0.2640E+01
      2.604  0.6344E+00  0.6360E+00  0.2688E+01  0.2688E+01
      2.680  0.7668E+00  0.7690E+00  0.2746E+01  0.2747E+01
      2.756  0.9162E+00  0.9177E+00  0.2815E+01  0.2816E+01
      2.832  0.9006E+00  0.8993E+00  0.2884E+01  0.2885E+01
      2.908  0.7375E+00  0.7350E+00  0.2940E+01  0.2940E+01
      2.984  0.6048E+00  0.6035E+00  0.2986E+01  0.2986E+01
      3.060  0.6105E+00  0.6112E+00  0.3032E+01  0.3033E+01
      3.136  0.6783E+00  0.6797E+00  0.3084E+01  0.3084E+01
      3.212  0.7083E+00  0.7089E+00  0.3138E+01  0.3138E+01
      3.288  0.6838E+00  0.6838E+00  0.3190E+01  0.3190E+01
      3.364  0.7977E+00  0.7996E+00  0.3250E+01  0.3251E+01
      3.440  0.9073E+00  0.9068E+00  0.3319E+01  0.3320E+01
      3.515  0.7393E+00  0.7361E+00  0.3375E+01  0.3376E+01
      3.591  0.5624E+00  0.5616E+00  0.3418E+01  0.3419E+01
      3.667  0.6595E+00  0.6625E+00  0.3468E+01  0.3469E+01
      3.743  0.9022E+00  0.9051E+00  0.3537E+01  0.3538E+01
      3.819  0.9596E+00  0.9581E+00  0.3610E+01  0.3610E+01
      3.895  0.7951E+00  0.7938E+00  0.3670E+01  0.3671E+01
      3.971  0.7709E+00  0.7717E+00  0.3729E+01  0.3729E+01
      4.047  0.7497E+00  0.7487E+00  0.3786E+01  0.3786E+01
      4.123  0.6963E+00  0.6958E+00  0.3838E+01  0.3839E+01
      4.199  0.6671E+00  0.6667E+00  0.3889E+01  0.3890E+01
      4.275  0.7287E+00  0.7296E+00  0.3945E+01  0.3945E+01
      4.351  0.8523E+00  0.8531E+00  0.4009E+01  0.4010E+01
      4.427  0.8360E+00  0.8360E+00  0.4073E+01  0.4074E+01
      4.502  0.8133E+00  0.8137E+00  0.4135E+01  0.4135E+01
      4.578  0.7890E+00  0.7881E+00  0.4195E+01  0.4195E+01
      4.654  0.6545E+00  0.6526E+00  0.4244E+01  0.4245E+01
      4.730  0.6134E+00  0.6140E+00  0.4291E+01  0.4292E+01
      4.806  0.7018E+00  0.7027E+00  0.4344E+01  0.4345E+01
      4.882  0.7045E+00  0.7039E+00  0.4398E+01  0.4398E+01
      4.958  0.6558E+00  0.6548E+00  0.4448E+01  0.4448E+01
      5.034  0.6763E+00  0.6770E+00  0.4499E+01  0.4500E+01
      5.110  0.7617E+00  0.7624E+00  0.4557E+01  0.4558E+01
      5.186  0.7531E+00  0.7525E+00  0.4614E+01  0.4615E+01
      5.262  0.6681E+00  0.6670E+00  0.4665E+01  0.4665E+01
      5.338  0.6136E+00  0.6134E+00  0.4712E+01  0.4712E+01
      5.414  0.7533E+00  0.7558E+00  0.4769E+01  0.4769E+01
      5.489  0.8892E+00  0.8904E+00  0.4836E+01  0.4837E+01
      5.565  0.8345E+00  0.8324E+00  0.4900E+01  0.4900E+01
      5.641  0.6039E+00  0.6010E+00  0.4946E+01  0.4946E+01
      5.717  0.4756E+00  0.4747E+00  0.4982E+01  0.4982E+01
      5.793  0.5420E+00  0.5427E+00  0.5023E+01  0.5023E+01
      5.869  0.6681E+00  0.6697E+00  0.5074E+01  0.5074E+01
      5.945  0.7314E+00  0.7314E+00  0.5129E+01  0.5130E+01
      6.021  0.7134E+00  0.7124E+00  0.5183E+01  0.5184E+01
      6.097  0.7198E+00  0.7198E+00  0.5238E+01  0.5239E+01
      6.173  0.7763E+00  0.7782E+00  0.5297E+01  0.5298E+01
      6.249  0.8340E+00  0.8354E+00  0.5360E+01  0.5361E+01
      6.325  0.8557E+00  0.8550E+00  0.5425E+01  0.5426E+01
      6.401  0.7268E+00  0.7240E+00  0.5481E+01  0.5481E+01
      6.477  0.5083E+00  0.5063E+00  0.5519E+01  0.5520E+01
      6.552  0.4648E+00  0.4651E+00  0.5555E+01  0.5555E+01
      6.628  0.5904E+00  0.5921E+00  0.5600E+01  0.5600E+01
      6.704  0.8529E+00  0.8536E+00  0.5664E+01  0.5665E+01
      6.780  0.1083E+01  0.1082E+01  0.5747E+01  0.5747E+01
      6.856  0.9293E+00  0.9262E+00  0.5817E+01  0.5817E+01
      6.932  0.7213E+00  0.7214E+00  0.5872E+01  0.5872E+01
      7.008  0.7636E+00  0.7652E+00  0.5930E+01  0.5930E+01
      7.084  0.8125E+00  0.8112E+00  0.5992E+01  0.5992E+01
      7.160  0.8343E+00  0.8324E+00  0.6055E+01  0.6055E+01
      7.236  0.8798E+00  0.8809E+00  0.6122E+01  0.6122E+01
      7.312  0.9289E+00  0.9299E+00  0.6193E+01  0.6193E+01
      7.388  0.9739E+00  0.9738E+00  0.6267E+01  0.6267E+01
      7.464  0.1054E+01  0.1054E+01  0.6347E+01  0.6347E+01
      7.539  0.1025E+01  0.1026E+01  0.6425E+01  0.6425E+01
      7.615  0.8652E+00  0.8640E+00  0.6490E+01  0.6490E+01
      7.691  0.7453E+00  0.7445E+00  0.6547E+01  0.6547E+01
      7.767  0.8123E+00  0.8130E+00  0.6609E+01  0.6609E+01
      7.843  0.8918E+00  0.8927E+00  0.6676E+01  0.6677E+01
      7.919  0.9558E+00  0.9570E+00  0.6749E+01  0.6749E+01
      7.995  0.1013E+01  0.1013E+01  0.6826E+01  0.6826E+01
      8.071  0.1001E+01  0.9992E+00  0.6902E+01  0.6902E+01
      8.147  0.9811E+00  0.9790E+00  0.6977E+01  0.6977E+01
      8.223  0.8424E+00  0.8424E+00  0.7041E+01  0.7041E+01
      8.299  0.6914E+00  0.6934E+00  0.7093E+01  0.7093E+01
      8.375  0.7882E+00  0.7904E+00  0.7153E+01  0.7154E+01
      8.451  0.9448E+00  0.9442E+00  0.7225E+01  0.7225E+01
      8.526  0.1009E+01  0.1008E+01  0.7302E+01  0.7302E+01
      8.602  0.9522E+00  0.9519E+00  0.7374E+01  0.7374E+01
      8.678  0.8820E+00  0.8825E+00  0.7441E+01  0.7441E+01
      8.754  0.8210E+00  0.8210E+00  0.7503E+01  0.7504E+01
      8.830  0.7974E+00  0.7968E+00  0.7564E+01  0.7564E+01
      8.906  0.7657E+00  0.7648E+00  0.7622E+01  0.7622E+01
      8.982  0.7227E+00  0.7232E+00  0.7677E+01  0.7677E+01
      9.058  0.8926E+00  0.8932E+00  0.7745E+01  0.7745E+01
      9.134  0.1046E+01  0.1044E+01  0.7824E+01  0.7824E+01
      9.210  0.1026E+01  0.1025E+01  0.7902E+01  0.7902E+01
      9.286  0.1060E+01  0.1060E+01  0.7983E+01  0.7983E+01
      9.362  0.1223E+01  0.1223E+01  0.8076E+01  0.8076E+01
      9.438  0.1203E+01  0.1201E+01  0.8167E+01  0.8167E+01
      9.513  0.9548E+00  0.9532E+00  0.8240E+01  0.8240E+01
      9.589  0.7717E+00  0.7730E+00  0.8298E+01  0.8298E+01
      9.665  0.7678E+00  0.7694E+00  0.8357E+01  0.8357E+01
      9.741  0.8045E+00  0.8045E+00  0.8418E+01  0.8418E+01
      9.817  0.8410E+00  0.8409E+00  0.8482E+01  0.8482E+01
      9.893  0.9359E+00  0.9369E+00  0.8553E+01  0.8553E+01
      9.969  0.9257E+00  0.9250E+00  0.8623E+01  0.8623E+01
     10.045  0.8580E+00  0.8556E+00  0.8688E+01  0.8688E+01
     10.121  0.9189E+00  0.9170E+00  0.8758E+01  0.8758E+01
     10.197  0.9934E+00  0.9930E+00  0.8834E+01  0.8833E+01
     10.273  0.1022E+01  0.1024E+01  0.8911E+01  0.8911E+01
     10.349  0.9537E+00  0.9530E+00  0.8984E+01  0.8984E+01
     10.425  0.8627E+00  0.8611E+00  0.9049E+01  0.9049E+01
     10.500  0.9761E+00  0.9756E+00  0.9123E+01  0.9123E+01
     10.576  0.1080E+01  0.1079E+01  0.9205E+01  0.9205E+01
     10.652  0.1085E+01  0.1083E+01  0.9288E+01  0.9288E+01
     10.728  0.1093E+01  0.1091E+01  0.9371E+01  0.9370E+01
     10.804  0.1123E+01  0.1124E+01  0.9456E+01  0.9456E+01
     10.880  0.1116E+01  0.1117E+01  0.9541E+01  0.9541E+01
     10.956  0.9662E+00  0.9685E+00  0.9614E+01  0.9614E+01
     11.032  0.8518E+00  0.8513E+00  0.9679E+01  0.9679E+01
     11.108  0.9274E+00  0.9241E+00  0.9750E+01  0.9749E+01
     11.184  0.1258E+01  0.1258E+01  0.9845E+01  0.9845E+01
     11.260  0.1272E+01  0.1276E+01  0.9942E+01  0.9942E+01
     11.336  0.1053E+01  0.1053E+01  0.1002E+02  0.1002E+02
     11.412  0.9559E+00  0.9533E+00  0.1009E+02  0.1009E+02
     11.487  0.8978E+00  0.8962E+00  0.1016E+02  0.1016E+02
     11.563  0.8653E+00  0.8662E+00  0.1023E+02  0.1023E+02
     11.639  0.1004E+01  0.1005E+01  0.1030E+02  0.1030E+02
     11.715  0.1008E+01  0.1008E+01  0.1038E+02  0.1038E+02
     11.791  0.8066E+00  0.8062E+00  0.1044E+02  0.1044E+02
     11.867  0.7153E+00  0.7147E+00  0.1050E+02  0.1050E+02
     11.943  0.8542E+00  0.8510E+00  0.1056E+02  0.1056E+02
     12.019  0.1177E+01  0.1181E+01  0.1065E+02  0.1065E+02
     12.095  0.1339E+01  0.1358E+01  0.1075E+02  0.1075E+02
     12.171  0.1208E+01  0.1220E+01  0.1084E+02  0.1085E+02
     12.247  0.9806E+00  0.9717E+00  0.1092E+02  0.1092E+02
     12.323  0.8533E+00  0.8369E+00  0.1098E+02  0.1098E+02
     12.399  0.7771E+00  0.7675E+00  0.1104E+02  0.1104E+02
     12.474  0.7130E+00  0.7160E+00  0.1110E+02  0.1110E+02
     12.550  0.7241E+00  0.7379E+00  0.1115E+02  0.1115E+02
     12.626  0.7176E+00  0.7104E+00  0.1121E+02  0.1121E+02
     12.702  0.6359E+00  0.6152E+00  0.1126E+02  0.1125E+02
     12.778  0.6589E+00  0.6489E+00  0.1131E+02  0.1130E+02
     12.854  0.6152E+00  0.6310E+00  0.1135E+02  0.1135E+02
     12.930  0.4595E+00  0.4786E+00  0.1139E+02  0.1139E+02
     13.006  0.3662E+00  0.3940E+00  0.1142E+02  0.1142E+02
     13.082  0.4483E+00  0.4793E+00  0.1145E+02  0.1145E+02
     13.158  0.5186E+00  0.5093E+00  0.1149E+02  0.1149E+02
     13.234  0.3780E+00  0.3472E+00  0.1152E+02  0.1152E+02
     13.310  0.2576E+00  0.2404E+00  0.1154E+02  0.1154E+02
     13.386  0.2608E+00  0.2545E+00  0.1156E+02  0.1156E+02
     13.462  0.3430E+00  0.3387E+00  0.1158E+02  0.1158E+02
     13.537  0.3575E+00  0.3547E+00  0.1161E+02  0.1161E+02
     13.613  0.2530E+00  0.2555E+00  0.1163E+02  0.1163E+02
     13.689  0.2351E+00  0.2374E+00  0.1165E+02  0.1165E+02
     13.765  0.2433E+00  0.2443E+00  0.1167E+02  0.1167E+02
     13.841  0.2543E+00  0.2549E+00  0.1168E+02  0.1168E+02
     13.917  0.3520E+00  0.3535E+00  0.1171E+02  0.1171E+02
     13.993  0.3936E+00  0.3954E+00  0.1174E+02  0.1174E+02
     14.069  0.2722E+00  0.2712E+00  0.1176E+02  0.1176E+02
     14.145  0.1793E+00  0.1778E+00  0.1178E+02  0.1178E+02
     14.221  0.2035E+00  0.2027E+00  0.1179E+02  0.1179E+02
     14.297  0.2137E+00  0.2136E+00  0.1181E+02  0.1181E+02
     14.373  0.1779E+00  0.1777E+00  0.1182E+02  0.1182E+02
     14.449  0.1839E+00  0.1831E+00  0.1183E+02  0.1183E+02
     14.524  0.1676E+00  0.1672E+00  0.1185E+02  0.1185E+02
     14.600  0.1007E+00  0.1017E+00  0.1186E+02  0.1186E+02
     14.676  0.5909E-01  0.5993E-01  0.1186E+02  0.1186E+02
     14.752  0.8671E-01  0.8666E-01  0.1187E+02  0.1187E+02
     14.828  0.1415E+00  0.1410E+00  0.1188E+02  0.1188E+02
     14.904  0.1569E+00  0.1567E+00  0.1189E+02  0.1189E+02
     14.980  0.1627E+00  0.1623E+00  0.1190E+02  0.1190E+02
     15.056  0.1817E+00  0.1822E+00  0.1192E+02  0.1192E+02
     15.132  0.1298E+00  0.1306E+00  0.1193E+02  0.1193E+02
     15.208  0.5607E-01  0.5633E-01  0.1193E+02  0.1193E+02
     15.284  0.2030E-01  0.2031E-01  0.1193E+02  0.1193E+02
     15.360  0.2352E-01  0.2338E-01  0.1193E+02  0.1193E+02
     15.436  0.5543E-01  0.5523E-01  0.1194E+02  0.1194E+02
     15.511  0.8227E-01  0.8233E-01  0.1194E+02  0.1194E+02
     15.587  0.7709E-01  0.7734E-01  0.1195E+02  0.1195E+02
     15.663  0.5250E-01  0.5304E-01  0.1195E+02  0.1195E+02
     15.739  0.6161E-01  0.6376E-01  0.1196E+02  0.1196E+02
     15.815  0.9945E-01  0.1087E+00  0.1197E+02  0.1197E+02
     15.891  0.9410E-01  0.1176E+00  0.1197E+02  0.1198E+02
     15.967  0.6815E-01  0.8391E-01  0.1198E+02  0.1198E+02
     16.043  0.5811E-01  0.3909E-01  0.1198E+02  0.1198E+02
     16.119  0.3830E-01  0.1658E-01  0.1198E+02  0.1199E+02
     16.195  0.2984E-01  0.2160E-01  0.1199E+02  0.1199E+02
     16.271  0.3752E-01  0.3545E-01  0.1199E+02  0.1199E+02
     16.347  0.2715E-01  0.2688E-01  0.1199E+02  0.1199E+02
     16.423  0.1681E-01  0.1695E-01  0.1199E+02  0.1199E+02
     16.498  0.1895E-01  0.1899E-01  0.1199E+02  0.1199E+02
     16.574  0.1343E-01  0.1347E-01  0.1200E+02  0.1200E+02
     16.650  0.4776E-02  0.4781E-02  0.1200E+02  0.1200E+02
     16.726  0.2175E-02  0.2134E-02  0.1200E+02  0.1200E+02
     16.802  0.4500E-02  0.4337E-02  0.1200E+02  0.1200E+02
     16.878  0.1244E-01  0.1215E-01  0.1200E+02  0.1200E+02
     16.954  0.1714E-01  0.1722E-01  0.1200E+02  0.1200E+02
     17.030  0.9248E-02  0.9529E-02  0.1200E+02  0.1200E+02
     17.106  0.2715E-02  0.2830E-02  0.1200E+02  0.1200E+02
     17.182  0.6395E-03  0.6688E-03  0.1200E+02  0.1200E+02
     17.258  0.1424E-03  0.1491E-03  0.1200E+02  0.1200E+02
     17.334  0.0000E+00  0.0000E+00  0.1200E+02  0.1200E+02
     17.410  0.0000E+00  0.0000E+00  0.1200E+02  0.1200E+02
     17.485  0.0000E+00  0.0000E+00  0.1200E+02  0.1200E+02
     17.561  0.0000E+00  0.0000E+00  0.1200E+02  0.1200E+02
     17.637  0.0000E+00  0.0000E+00  0.1200E+02  0.1200E+02
     17.713  0.0000E+00  0.0000E+00  0.1200E+02  0.1200E+02
     17.789  0.0000E+00  0.0000E+00  0.1200E+02  0.1200E+02
     17.865  0.0000E+00  0.0000E+00  0.1200E+02  0.1200E+02
     17.941  0.0000E+00  0.0000E+00  0.1200E+02  0.1200E+02
     17.94102210     -4.83615519  301      5.75259785      1.00000000
     -4.836  0.0000E+00  0.0000E+00  0.0000E+00  0.0000E+00  0.0000E+00  0.0000E+00  0.0000E+00  0.0000E+00  0.0000E+00  0.0000E+00  0.0000E+00  0.0000E+00  0.0000E+00  0.0000E+00  0.0000E+00  0.0000E+00  0.0000E+00  0.0000E+00
     -4.760  0.0000E+00  0.0000E+00  0.0000E+00  0.0000E+00  0.0000E+00  0.0000E+00  0.0000E+00  0.0000E+00  0.0000E+00  0.0000E+00  0.0000E+00  0.0000E+00  0.0000E+00  0.0000E+00  0.0000E+00  0.0000E+00  0.0000E+00  0.0000E+00
     -4.684  0.0000E+00  0.0000E+00  0.0000E+00  0.0000E+00  0.0000E+00  0.0000E+00  0.0000E+00  0.0000E+00  0.0000E+00  0.0000E+00  0.0000E+00  0.0000E+00  0.0000E+00  0.0000E+00  0.0000E+00  0.0000E+00  0.0000E+00  0.0000E+00
     -4.608  0.0000E+00  0.0000E+00  0.0000E+00  0.0000E+00  0.0000E+00  0.0000E+00  0.0000E+00  0.0000E+00  0.0000E+00  0.0000E+00  0.0000E+00  0.0000E+00  0.0000E+00  0.0000E+00  0.0000E+00  0.0000E+00  0.0000E+00  0.0000E+00
     -4.532  0.0000E+00  0.0000E+00  0.0000E+00  0.0000E+00  0.0000E+00  0.0000E+00  0.0000E+00  0.0000E+00  0.0000E+00  0.0000E+00  0.0000E+00  0.0000E+00  0.0000E+00  0.0000E+00  0.0000E+00  0.0000E+00  0.0000E+00  0.0000E+00
     -4.457  0.0000E+00  0.0000E+00  0.0000E+00  0.0000E+00  0.0000E+00  0.0000E+00  0.0000E+00  0.0000E+00  0.0000E+00  0.0000E+00  0.0000E+00  0.0000E+00  0.0000E+00  0.0000E+00  0.0000E+00  0.0000E+00  0.0000E+00  0.0000E+00
     -4.381  0.0000E+00  0.0000E+00  0.0000E+00  0.0000E+00  0.0000E+00  0.0000E+00  0.0000E+00  0.0000E+00  0.0000E+00  0.0000E+00  0.0000E+00  0.0000E+00  0.0000E+00  0.0000E+00  0.0000E+00  0.0000E+00  0.0000E+00  0.0000E+00
     -4.305  0.0000E+00  0.0000E+00  0.0000E+00  0.0000E+00  0.0000E+00  0.0000E+00  0.0000E+00  0.0000E+00  0.0000E+00  0.0000E+00  0.0000E+00  0.0000E+00  0.0000E+00  0.0000E+00  0.0000E+00  0.0000E+00  0.0000E+00  0.0000E+00
     -4.229  0.2401E-07  0.8015E-07  0.4394E-24  0.2593E-09  0.4394E-24  0.2593E-09  0.1060E-23  0.2591E-09  0.0000E+00  0.0000E+00  0.0000E+00  0.0000E+00  0.0000E+00  0.0000E+00  0.0000E+00  0.0000E+00  0.0000E+00  0.0000E+00
     -4.153  0.5271E-06  0.4795E-06  0.2948E-08  0.2734E-08  0.2948E-08  0.2734E-08  0.2947E-08  0.2733E-08  0.0000E+00  0.0000E+00  0.0000E+00  0.0000E+00  0.0000E+00  0.0000E+00  0.0000E+00  0.0000E+00  0.0000E+00  0.0000E+00
     -4.077  0.2247E-05  0.2282E-05  0.1488E-07  0.1511E-07  0.1488E-07  0.1511E-07  0.1488E-07  0.1510E-07  0.0000E+00  0.0000E+00  0.0000E+00  0.0000E+00  0.0000E+00  0.0000E+00  0.0000E+00  0.0000E+00  0.0000E+00  0.0000E+00
     -4.001  0.1035E-04  0.1051E-04  0.7431E-07  0.7545E-07  0.7431E-07  0.7545E-07  0.7426E-07  0.7539E-07  0.0000E+00  0.0000E+00  0.0000E+00  0.0000E+00  0.0000E+00  0.0000E+00  0.0000E+00  0.0000E+00  0.0000E+00  0.0000E+00
     -3.925  0.4629E-04  0.4698E-04  0.3467E-06  0.3519E-06  0.3467E-06  0.3519E-06  0.3465E-06  0.3517E-06  0.0000E+00  0.0000E+00  0.0000E+00  0.0000E+00  0.0000E+00  0.0000E+00  0.0000E+00  0.0000E+00  0.0000E+00  0.0000E+00
     -3.849  0.1888E-03  0.1914E-03  0.1500E-05  0.1521E-05  0.1500E-05  0.1521E-05  0.1499E-05  0.1520E-05  0.0000E+00  0.0000E+00  0.0000E+00  0.0000E+00  0.0000E+00  0.0000E+00  0.0000E+00  0.0000E+00  0.0000E+00  0.0000E+00
     -3.773  0.6076E-03  0.6136E-03  0.5649E-05  0.5717E-05  0.5649E-05  0.5717E-05  0.5645E-05  0.5713E-05  0.0000E+00  0.0000E+00  0.0000E+00  0.0000E+00  0.0000E+00  0.0000E+00  0.0000E+00  0.0000E+00  0.0000E+00  0.0000E+00
     -3.697  0.1295E-02  0.1302E-02  0.1603E-04  0.1617E-04  0.1603E-04  0.1617E-04  0.1602E-04  0.1616E-04  0.0000E+00  0.0000E+00  0.0000E+00  0.0000E+00  0.0000E+00  0.0000E+00  0.0000E+00  0.0000E+00  0.0000E+00  0.0000E+00
     -3.621  0.1928E-02  0.1934E-02  0.3492E-04  0.3516E-04  0.3492E-04  0.3516E-04  0.3489E-04  0.3513E-04  0.0000E+00  0.0000E+00  0.0000E+00  0.0000E+00  0.0000E+00  0.0000E+00  0.0000E+00  0.0000E+00  0.0000E+00  0.0000E+00
     -3.545  0.2564E-02  0.2570E-02  0.6371E-04  0.6399E-04  0.6371E-04  0.6399E-04  0.6367E-04  0.6395E-04  0.0000E+00  0.0000E+00  0.0000E+00  0.0000E+00  0.0000E+00  0.0000E+00  0.0000E+00  0.0000E+00  0.0000E+00  0.0000E+00
     -3.470  0.2801E-02  0.2801E-02  0.8877E-04  0.8898E-04  0.8877E-04  0.8898E-04  0.8872E-04  0.8893E-04  0.0000E+00  0.0000E+00  0.0000E+00  0.0000E+00  0.0000E+00  0.0000E+00  0.0000E+00  0.0000E+00  0.0000E+00  0.0000E+00
     -3.394  0.2995E-02  0.2999E-02  0.1264E-03  0.1269E-03  0.1264E-03  0.1269E-03  0.1262E-03  0.1268E-03  0.0000E+00  0.0000E+00  0.0000E+00  0.0000E+00  0.0000E+00  0.0000E+00  0.0000E+00  0.0000E+00  0.0000E+00  0.0000E+00
     -3.318  0.3577E-02  0.3580E-02  0.1834E-03  0.1838E-03  0.1834E-03  0.1838E-03  0.1832E-03  0.1836E-03  0.0000E+00  0.0000E+00  0.0000E+00  0.0000E+00  0.0000E+00  0.0000E+00  0.0000E+00  0.0000E+00  0.0000E+00  0.0000E+00
     -3.242  0.3613E-02  0.3611E-02  0.2165E-03  0.2168E-03  0.2165E-03  0.2168E-03  0.2165E-03  0.2167E-03  0.0000E+00  0.0000E+00  0.0000E+00  0.0000E+00  0.0000E+00  0.0000E+00  0.0000E+00  0.0000E+00  0.0000E+00  0.0000E+00
     -3.166  0.3693E-02  0.3695E-02  0.2606E-03  0.2611E-03  0.2606E-03  0.2611E-03  0.2604E-03  0.2609E-03  0.0000E+00  0.0000E+00  0.0000E+00  0.0000E+00  0.0000E+00  0.0000E+00  0.0000E+00  0.0000E+00  0.0000E+00  0.0000E+00
     -3.090  0.3742E-02  0.3739E-02  0.3072E-03  0.3074E-03  0.3072E-03  0.3074E-03  0.3068E-03  0.3070E-03  0.0000E+00  0.0000E+00  0.0000E+00  0.0000E+00  0.0000E+00  0.0000E+00  0.0000E+00  0.0000E+00  0.0000E+00  0.0000E+00
     -3.014  0.3767E-02  0.3770E-02  0.3719E-03  0.3729E-03  0.3719E-03  0.3729E-03  0.3713E-03  0.3722E-03  0.0000E+00  0.0000E+00  0.0000E+00  0.0000E+00  0.0000E+00  0.0000E+00  0.0000E+00  0.0000E+00  0.0000E+00  0.0000E+00
     -2.938  0.4309E-02  0.4312E-02  0.4787E-03  0.4794E-03  0.4787E-03  0.4794E-03  0.4784E-03  0.4791E-03  0.0000E+00  0.0000E+00  0.0000E+00  0.0000E+00  0.0000E+00  0.0000E+00  0.0000E+00  0.0000E+00  0.0000E+00  0.0000E+00
     -2.862  0.4342E-02  0.4340E-02  0.5302E-03  0.5304E-03  0.5302E-03  0.5304E-03  0.5300E-03  0.5303E-03  0.0000E+00  0.0000E+00  0.0000E+00  0.0000E+00  0.0000E+00  0.0000E+00  0.0000E+00  0.0000E+00  0.0000E+00  0.0000E+00
     -2.786  0.4040E-02  0.4035E-02  0.5487E-03  0.5485E-03  0.5487E-03  0.5485E-03  0.5485E-03  0.5484E-03  0.0000E+00  0.0000E+00  0.0000E+00  0.0000E+00  0.0000E+00  0.0000E+00  0.0000E+00  0.0000E+00  0.0000E+00  0.0000E+00
     -2.710  0.3597E-02  0.3596E-02  0.5714E-03  0.5722E-03  0.5714E-03  0.5722E-03  0.5701E-03  0.5709E-03  0.0000E+00  0.0000E+00  0.0000E+00  0.0000E+00  0.0000E+00  0.0000E+00  0.0000E+00  0.0000E+00  0.0000E+00  0.0000E+00
     -2.634  0.3997E-02  0.4006E-02  0.7668E-03  0.7690E-03  0.7668E-03  0.7690E-03  0.7643E-03  0.7666E-03  0.0000E+00  0.0000E+00  0.0000E+00  0.0000E+00  0.0000E+00  0.0000E+00  0.0000E+00  0.0000E+00  0.0000E+00  0.0000E+00
     -2.558  0.4456E-02  0.4458E-02  0.9446E-03  0.9450E-03  0.9446E-03  0.9450E-03  0.9440E-03  0.9445E-03  0.0000E+00  0.0000E+00  0.0000E+00  0.0000E+00  0.0000E+00  0.0000E+00  0.0000E+00  0.0000E+00  0.0000E+00  0.0000E+00
     -2.483  0.4151E-02  0.4150E-02  0.9770E-03  0.9772E-03  0.9770E-03  0.9772E-03  0.9761E-03  0.9764E-03  0.0000E+00  0.0000E+00  0.0000E+00  0.0000E+00  0.0000E+00  0.0000E+00  0.0000E+00  0.0000E+00  0.0000E+00  0.0000E+00
     -2.407  0.3876E-02  0.3873E-02  0.1049E-02  0.1049E-02  0.1049E-02  0.1049E-02  0.1048E-02  0.1048E-02  0.0000E+00  0.0000E+00  0.0000E+00  0.0000E+00  0.0000E+00  0.0000E+00  0.0000E+00  0.0000E+00  0.0000E+00  0.0000E+00
     -2.331  0.3192E-02  0.3191E-02  0.1115E-02  0.1116E-02  0.1115E-02  0.1116E-02  0.1110E-02  0.1112E-02  0.0000E+00  0.0000E+00  0.0000E+00  0.0000E+00  0.0000E+00  0.0000E+00  0.0000E+00  0.0000E+00  0.0000E+00  0.0000E+00
     -2.255  0.3448E-02  0.3457E-02  0.1480E-02  0.1483E-02  0.1480E-02  0.1483E-02  0.1476E-02  0.1479E-02  0.0000E+00  0.0000E+00  0.0000E+00  0.0000E+00  0.0000E+00  0.0000E+00  0.0000E+00  0.0000E+00  0.0000E+00  0.0000E+00
     -2.179  0.3755E-02  0.3756E-02  0.1707E-02  0.1707E-02  0.1707E-02  0.1707E-02  0.1707E-02  0.1707E-02  0.0000E+00  0.0000E+00  0.0000E+00  0.0000E+00  0.0000E+00  0.0000E+00  0.0000E+00  0.0000E+00  0.0000E+00  0.0000E+00
     -2.103  0.3164E-02  0.3159E-02  0.1654E-02  0.1653E-02  0.1654E-02  0.1653E-02  0.1655E-02  0.1653E-02  0.0000E+00  0.0000E+00  0.0000E+00  0.0000E+00  0.0000E+00  0.0000E+00  0.0000E+00  0.0000E+00  0.0000E+00  0.0000E+00
     -2.027  0.2474E-02  0.2470E-02  0.1439E-02  0.1436E-02  0.1439E-02  0.1436E-02  0.1444E-02  0.1441E-02  0.0000E+00  0.0000E+00  0.0000E+00  0.0000E+00  0.0000E+00  0.0000E+00  0.0000E+00  0.0000E+00  0.0000E+00  0.0000E+00
     -1.951  0.2064E-02  0.2066E-02  0.1297E-02  0.1298E-02  0.1297E-02  0.1298E-02  0.1297E-02  0.1297E-02  0.0000E+00  0.0000E+00  0.0000E+00  0.0000E+00  0.0000E+00  0.0000E+00  0.0000E+00  0.0000E+00  0.0000E+00  0.0000E+00
     -1.875  0.2512E-02  0.2520E-02  0.1653E-02  0.1656E-02  0.1653E-02  0.1656E-02  0.1650E-02  0.1653E-02  0.0000E+00  0.0000E+00  0.0000E+00  0.0000E+00  0.0000E+00  0.0000E+00  0.0000E+00  0.0000E+00  0.0000E+00  0.0000E+00
     -1.799  0.2616E-02  0.2615E-02  0.1723E-02  0.1720E-02  0.1723E-02  0.1720E-02  0.1727E-02  0.1724E-02  0.0000E+00  0.0000E+00  0.0000E+00  0.0000E+00  0.0000E+00  0.0000E+00  0.0000E+00  0.0000E+00  0.0000E+00  0.0000E+00
     -1.723  0.2008E-02  0.2004E-02  0.1387E-02  0.1384E-02  0.1387E-02  0.1384E-02  0.1390E-02  0.1387E-02  0.0000E+00  0.0000E+00  0.0000E+00  0.0000E+00  0.0000E+00  0.0000E+00  0.0000E+00  0.0000E+00  0.0000E+00  0.0000E+00
     -1.647  0.1435E-02  0.1432E-02  0.1151E-02  0.1148E-02  0.1151E-02  0.1148E-02  0.1153E-02  0.1150E-02  0.0000E+00  0.0000E+00  0.0000E+00  0.0000E+00  0.0000E+00  0.0000E+00  0.0000E+00  0.0000E+00  0.0000E+00  0.0000E+00
     -1.571  0.1126E-02  0.1129E-02  0.1038E-02  0.1039E-02  0.1038E-02  0.1039E-02  0.1037E-02  0.1038E-02  0.0000E+00  0.0000E+00  0.0000E+00  0.0000E+00  0.0000E+00  0.0000E+00  0.0000E+00  0.0000E+00  0.0000E+00  0.0000E+00
     -1.496  0.1566E-02  0.1574E-02  0.1453E-02  0.1457E-02  0.1453E-02  0.1457E-02  0.1450E-02  0.1454E-02  0.0000E+00  0.0000E+00  0.0000E+00  0.0000E+00  0.0000E+00  0.0000E+00  0.0000E+00  0.0000E+00  0.0000E+00  0.0000E+00
     -1.420  0.1718E-02  0.1717E-02  0.1599E-02  0.1596E-02  0.1599E-02  0.1596E-02  0.1601E-02  0.1598E-02  0.0000E+00  0.0000E+00  0.0000E+00  0.0000E+00  0.0000E+00  0.0000E+00  0.0000E+00  0.0000E+00  0.0000E+00  0.0000E+00
     -1.344  0.1166E-02  0.1163E-02  0.1218E-02  0.1214E-02  0.1218E-02  0.1214E-02  0.1222E-02  0.1217E-02  0.0000E+00  0.0000E+00  0.0000E+00  0.0000E+00  0.0000E+00  0.0000E+00  0.0000E+00  0.0000E+00  0.0000E+00  0.0000E+00
     -1.268  0.7726E-03  0.7714E-03  0.8573E-03  0.8535E-03  0.8573E-03  0.8535E-03  0.8614E-03  0.8576E-03  0.0000E+00  0.0000E+00  0.0000E+00  0.0000E+00  0.0000E+00  0.0000E+00  0.0000E+00  0.0000E+00  0.0000E+00  0.0000E+00
     -1.192  0.6233E-03  0.6251E-03  0.6883E-03  0.6889E-03  0.6883E-03  0.6889E-03  0.6879E-03  0.6885E-03  0.0000E+00  0.0000E+00  0.0000E+00  0.0000E+00  0.0000E+00  0.0000E+00  0.0000E+00  0.0000E+00  0.0000E+00  0.0000E+00
     -1.116  0.9003E-03  0.9055E-03  0.1092E-02  0.1096E-02  0.1092E-02  0.1096E-02  0.1086E-02  0.1091E-02  0.0000E+00  0.0000E+00  0.0000E+00  0.0000E+00  0.0000E+00  0.0000E+00  0.0000E+00  0.0000E+00  0.0000E+00  0.0000E+00
     -1.040  0.1141E-02  0.1144E-02  0.1385E-02  0.1383E-02  0.1385E-02  0.1383E-02  0.1386E-02  0.1384E-02  0.0000E+00  0.0000E+00  0.0000E+00  0.0000E+00  0.0000E+00  0.0000E+00  0.0000E+00  0.0000E+00  0.0000E+00  0.0000E+00