   4   4   1   0
  0.2055687E+02  0.4347527E-09  0.4348979E-09  0.4348979E-09  0.5000000E-15
  1.000000000000000E-004
  CAR 
 unknown system                          
     14.85179964     -5.14151340  301      4.38157789      1.00000000
     -5.142  0.0000E+00  0.0000E+00  0.0000E+00  0.0000E+00
     -5.075  0.0000E+00  0.0000E+00  0.0000E+00  0.0000E+00
     -5.008  0.0000E+00  0.0000E+00  0.0000E+00  0.0000E+00
     -4.942  0.0000E+00  0.0000E+00  0.0000E+00  0.0000E+00
     -4.875  0.0000E+00  0.0000E+00  0.0000E+00  0.0000E+00
     -4.808  0.0000E+00  0.0000E+00  0.0000E+00  0.0000E+00
     -4.742  0.0000E+00  0.0000E+00  0.0000E+00  0.0000E+00
     -4.675  0.9835E-06  0.9590E-06  0.6555E-07  0.6391E-07
     -4.608  0.2050E-04  0.1998E-04  0.1431E-05  0.1396E-05
     -4.542  0.6875E-04  0.6704E-04  0.6013E-05  0.5863E-05
     -4.475  0.2807E-03  0.2737E-03  0.2472E-04  0.2410E-04
     -4.408  0.1055E-02  0.1029E-02  0.9501E-04  0.9266E-04
     -4.342  0.3840E-02  0.3748E-02  0.3509E-03  0.3424E-03
     -4.275  0.1297E-01  0.1269E-01  0.1215E-02  0.1188E-02
     -4.208  0.3563E-01  0.3505E-01  0.3590E-02  0.3524E-02
     -4.142  0.7091E-01  0.7021E-01  0.8316E-02  0.8203E-02
     -4.075  0.1068E+00  0.1061E+00  0.1543E-01  0.1527E-01
     -4.009  0.1422E+00  0.1416E+00  0.2491E-01  0.2471E-01
     -3.942  0.1623E+00  0.1621E+00  0.3572E-01  0.3551E-01
     -3.875  0.1799E+00  0.1793E+00  0.4771E-01  0.4746E-01
     -3.809  0.2144E+00  0.2139E+00  0.6200E-01  0.6171E-01
     -3.742  0.2283E+00  0.2282E+00  0.7722E-01  0.7693E-01
     -3.675  0.2386E+00  0.2383E+00  0.9313E-01  0.9281E-01
     -3.609  0.2521E+00  0.2520E+00  0.1099E+00  0.1096E+00
     -3.542  0.2644E+00  0.2639E+00  0.1276E+00  0.1272E+00
     -3.475  0.3041E+00  0.3033E+00  0.1478E+00  0.1474E+00
     -3.409  0.3228E+00  0.3227E+00  0.1694E+00  0.1690E+00
     -3.342  0.3183E+00  0.3186E+00  0.1906E+00  0.1902E+00
     -3.275  0.3049E+00  0.3049E+00  0.2109E+00  0.2105E+00
     -3.209  0.3399E+00  0.3386E+00  0.2336E+00  0.2331E+00
     -3.142  0.4023E+00  0.4015E+00  0.2604E+00  0.2599E+00
     -3.076  0.4116E+00  0.4116E+00  0.2879E+00  0.2873E+00
     -3.009  0.4136E+00  0.4135E+00  0.3154E+00  0.3149E+00
     -2.942  0.4044E+00  0.4044E+00  0.3424E+00  0.3419E+00
     -2.876  0.4533E+00  0.4515E+00  0.3726E+00  0.3720E+00
     -2.809  0.5336E+00  0.5327E+00  0.4082E+00  0.4075E+00
     -2.742  0.5295E+00  0.5303E+00  0.4435E+00  0.4429E+00
     -2.676  0.4734E+00  0.4748E+00  0.4751E+00  0.4745E+00
     -2.609  0.4093E+00  0.4099E+00  0.5024E+00  0.5019E+00
     -2.542  0.4456E+00  0.4439E+00  0.5321E+00  0.5315E+00
     -2.476  0.5122E+00  0.5121E+00  0.5663E+00  0.5656E+00
     -2.409  0.4551E+00  0.4569E+00  0.5966E+00  0.5961E+00
     -2.342  0.3745E+00  0.3759E+00  0.6216E+00  0.6212E+00
     -2.276  0.3149E+00  0.3155E+00  0.6426E+00  0.6422E+00
     -2.209  0.3545E+00  0.3525E+00  0.6663E+00  0.6657E+00
     -2.143  0.4463E+00  0.4455E+00  0.6960E+00  0.6954E+00
     -2.076  0.4040E+00  0.4059E+00  0.7230E+00  0.7225E+00
     -2.009  0.3036E+00  0.3055E+00  0.7432E+00  0.7429E+00
     -1.943  0.2257E+00  0.2266E+00  0.7583E+00  0.7580E+00
     -1.876  0.2480E+00  0.2462E+00  0.7748E+00  0.7744E+00
     -1.809  0.3607E+00  0.3589E+00  0.7989E+00  0.7984E+00
     -1.743  0.3646E+00  0.3660E+00  0.8232E+00  0.8228E+00
     -1.676  0.2876E+00  0.2886E+00  0.8424E+00  0.8420E+00
     -1.609  0.2888E+00  0.2882E+00  0.8617E+00  0.8613E+00
     -1.543  0.3464E+00  0.3449E+00  0.8848E+00  0.8843E+00
     -1.476  0.4378E+00  0.4360E+00  0.9139E+00  0.9133E+00
     -1.409  0.4850E+00  0.4851E+00  0.9463E+00  0.9457E+00
     -1.343  0.4422E+00  0.4433E+00  0.9758E+00  0.9753E+00
     -1.276  0.4080E+00  0.4083E+00  0.1003E+01  0.1002E+01
     -1.209  0.4141E+00  0.4135E+00  0.1031E+01  0.1030E+01
     -1.143  0.4903E+00  0.4881E+00  0.1063E+01  0.1063E+01
     -1.076  0.5908E+00  0.5895E+00  0.1103E+01  0.1102E+01
     -1.010  0.6162E+00  0.6164E+00  0.1144E+01  0.1143E+01
     -0.943  0.5909E+00  0.5917E+00  0.1183E+01  0.1182E+01
     -0.876  0.5573E+00  0.5572E+00  0.1220E+01  0.1220E+01
     -0.810  0.6070E+00  0.6052E+00  0.1261E+01  0.1260E+01
     -0.743  0.6890E+00  0.6876E+00  0.1307E+01  0.1306E+01
     -0.676  0.7210E+00  0.7212E+00  0.1355E+01  0.1354E+01
     -0.610  0.6651E+00  0.6665E+00  0.1399E+01  0.1398E+01
     -0.543  0.6548E+00  0.6535E+00  0.1443E+01  0.1442E+01
     -0.476  0.7478E+00  0.7463E+00  0.1493E+01  0.1492E+01
     -0.410  0.7387E+00  0.7402E+00  0.1542E+01  0.1541E+01
     -0.343  0.6739E+00  0.6743E+00  0.1587E+01  0.1586E+01
     -0.276  0.6743E+00  0.6742E+00  0.1632E+01  0.1631E+01
     -0.210  0.6728E+00  0.6728E+00  0.1677E+01  0.1676E+01
     -0.143  0.6625E+00  0.6633E+00  0.1721E+01  0.1720E+01
     -0.077  0.5902E+00  0.5917E+00  0.1760E+01  0.1760E+01
     -0.010  0.5608E+00  0.5604E+00  0.1798E+01  0.1797E+01
      0.057  0.5916E+00  0.5909E+00  0.1837E+01  0.1836E+01
      0.123  0.6091E+00  0.6091E+00  0.1878E+01  0.1877E+01
      0.190  0.5739E+00  0.5753E+00  0.1916E+01  0.1915E+01
      0.257  0.4834E+00  0.4852E+00  0.1948E+01  0.1948E+01
      0.323  0.4600E+00  0.4590E+00  0.1979E+01  0.1978E+01
      0.390  0.5704E+00  0.5677E+00  0.2017E+01  0.2016E+01
      0.457  0.6741E+00  0.6728E+00  0.2062E+01  0.2061E+01
      0.523  0.7077E+00  0.7074E+00  0.2109E+01  0.2108E+01
      0.590  0.7062E+00  0.7067E+00  0.2156E+01  0.2155E+01
      0.657  0.6583E+00  0.6594E+00  0.2200E+01  0.2199E+01
      0.723  0.5945E+00  0.5957E+00  0.2240E+01  0.2239E+01
      0.790  0.5479E+00  0.5484E+00  0.2276E+01  0.2276E+01
      0.856  0.5167E+00  0.5177E+00  0.2311E+01  0.2310E+01
      0.923  0.4426E+00  0.4444E+00  0.2340E+01  0.2340E+01
      0.990  0.4146E+00  0.4140E+00  0.2368E+01  0.2367E+01
      1.056  0.5377E+00  0.5342E+00  0.2404E+01  0.2403E+01
      1.123  0.6796E+00  0.6782E+00  0.2449E+01  0.2448E+01
      1.190  0.6357E+00  0.6385E+00  0.2492E+01  0.2491E+01
      1.256  0.4615E+00  0.4650E+00  0.2522E+01  0.2522E+01
      1.323  0.3761E+00  0.3763E+00  0.2547E+01  0.2547E+01
      1.390  0.4451E+00  0.4433E+00  0.2577E+01  0.2577E+01
      1.456  0.5363E+00  0.5354E+00  0.2613E+01  0.2612E+01
      1.523  0.5780E+00  0.5774E+00  0.2651E+01  0.2651E+01
      1.590  0.6620E+00  0.6596E+00  0.2696E+01  0.2695E+01
      1.656  0.7848E+00  0.7832E+00  0.2748E+01  0.2747E+01
      1.723  0.8038E+00  0.8042E+00  0.2802E+01  0.2801E+01
      1.790  0.8044E+00  0.8048E+00  0.2855E+01  0.2854E+01
      1.856  0.8393E+00  0.8391E+00  0.2911E+01  0.2910E+01
      1.923  0.8419E+00  0.8429E+00  0.2967E+01  0.2966E+01
      1.989  0.7048E+00  0.7075E+00  0.3014E+01  0.3014E+01
      2.056  0.6107E+00  0.6106E+00  0.3055E+01  0.3054E+01
      2.123  0.6775E+00  0.6757E+00  0.3100E+01  0.3099E+01
      2.189  0.7572E+00  0.7559E+00  0.3151E+01  0.3150E+01
      2.256  0.8315E+00  0.8304E+00  0.3206E+01  0.3205E+01
      2.323  0.9027E+00  0.9016E+00  0.3266E+01  0.3265E+01
      2.389  0.9827E+00  0.9814E+00  0.3332E+01  0.3331E+01
      2.456  0.1024E+01  0.1023E+01  0.3400E+01  0.3399E+01
      2.523  0.9775E+00  0.9790E+00  0.3465E+01  0.3464E+01
      2.589  0.7971E+00  0.8010E+00  0.3518E+01  0.3518E+01
      2.656  0.6783E+00  0.6789E+00  0.3564E+01  0.3563E+01
      2.723  0.7652E+00  0.7636E+00  0.3615E+01  0.3614E+01
      2.789  0.8184E+00  0.8192E+00  0.3669E+01  0.3669E+01
      2.856  0.7471E+00  0.7484E+00  0.3719E+01  0.3718E+01
      2.922  0.7612E+00  0.7597E+00  0.3770E+01  0.3769E+01
      2.989  0.9224E+00  0.9189E+00  0.3831E+01  0.3830E+01
      3.056  0.1104E+01  0.1102E+01  0.3905E+01  0.3904E+01
      3.122  0.1107E+01  0.1109E+01  0.3979E+01  0.3978E+01
      3.189  0.8698E+00  0.8734E+00  0.4037E+01  0.4036E+01
      3.256  0.7621E+00  0.7619E+00  0.4088E+01  0.4087E+01
      3.322  0.7874E+00  0.7870E+00  0.4140E+01  0.4139E+01
      3.389  0.8016E+00  0.8012E+00  0.4194E+01  0.4193E+01
      3.456  0.8570E+00  0.8566E+00  0.4251E+01  0.4250E+01
      3.522  0.8239E+00  0.8251E+00  0.4306E+01  0.4305E+01
      3.589  0.7813E+00  0.7810E+00  0.4358E+01  0.4357E+01
      3.656  0.8179E+00  0.8170E+00  0.4412E+01  0.4412E+01
      3.722  0.8410E+00  0.8406E+00  0.4469E+01  0.4468E+01
      3.789  0.8463E+00  0.8458E+00  0.4525E+01  0.4524E+01
      3.855  0.8717E+00  0.8715E+00  0.4583E+01  0.4582E+01
      3.922  0.8642E+00  0.8649E+00  0.4641E+01  0.4640E+01
      3.989  0.7692E+00  0.7704E+00  0.4692E+01  0.4691E+01
      4.055  0.7211E+00  0.7208E+00  0.4740E+01  0.4739E+01
      4.122  0.7941E+00  0.7926E+00  0.4793E+01  0.4792E+01
      4.189  0.8804E+00  0.8796E+00  0.4852E+01  0.4851E+01
      4.255  0.8752E+00  0.8766E+00  0.4910E+01  0.4909E+01
      4.322  0.7547E+00  0.7565E+00  0.4961E+01  0.4960E+01
      4.389  0.6687E+00  0.6683E+00  0.5005E+01  0.5004E+01
      4.455  0.7171E+00  0.7149E+00  0.5053E+01  0.5052E+01
      4.522  0.8142E+00  0.8130E+00  0.5107E+01  0.5106E+01
      4.589  0.8180E+00  0.8195E+00  0.5162E+01  0.5161E+01
      4.655  0.7474E+00  0.7482E+00  0.5212E+01  0.5211E+01
      4.722  0.7248E+00  0.7240E+00  0.5260E+01  0.5259E+01
      4.788  0.7318E+00  0.7317E+00  0.5309E+01  0.5308E+01
      4.855  0.7807E+00  0.7795E+00  0.5361E+01  0.5360E+01
      4.922  0.9682E+00  0.9638E+00  0.5425E+01  0.5424E+01
      4.988  0.1094E+01  0.1093E+01  0.5498E+01  0.5497E+01
      5.055  0.9258E+00  0.9287E+00  0.5560E+01  0.5559E+01
      5.122  0.7532E+00  0.7549E+00  0.5610E+01  0.5609E+01
      5.188  0.7238E+00  0.7248E+00  0.5659E+01  0.5658E+01
      5.255  0.7719E+00  0.7705E+00  0.5710E+01  0.5709E+01
      5.322  0.9369E+00  0.9331E+00  0.5773E+01  0.5771E+01
      5.388  0.1043E+01  0.1043E+01  0.5842E+01  0.5841E+01
      5.455  0.9933E+00  0.9953E+00  0.5908E+01  0.5907E+01
      5.522  0.8581E+00  0.8606E+00  0.5966E+01  0.5965E+01
      5.588  0.8320E+00  0.8304E+00  0.6021E+01  0.6020E+01
      5.655  0.9504E+00  0.9476E+00  0.6085E+01  0.6083E+01
      5.722  0.1033E+01  0.1033E+01  0.6153E+01  0.6152E+01
      5.788  0.1039E+01  0.1040E+01  0.6223E+01  0.6221E+01
      5.855  0.1005E+01  0.1006E+01  0.6290E+01  0.6288E+01
      5.921  0.9226E+00  0.9241E+00  0.6351E+01  0.6350E+01
      5.988  0.8922E+00  0.8908E+00  0.6411E+01  0.6409E+01
      6.055  0.9851E+00  0.9823E+00  0.6476E+01  0.6475E+01
      6.121  0.1021E+01  0.1022E+01  0.6545E+01  0.6543E+01
      6.188  0.9208E+00  0.9235E+00  0.6606E+01  0.6605E+01
      6.255  0.8756E+00  0.8745E+00  0.6664E+01  0.6663E+01
      6.321  0.9528E+00  0.9482E+00  0.6728E+01  0.6726E+01
      6.388  0.1132E+01  0.1130E+01  0.6803E+01  0.6802E+01
      6.455  0.1108E+01  0.1113E+01  0.6877E+01  0.6876E+01
      6.521  0.9226E+00  0.9269E+00  0.6939E+01  0.6938E+01
      6.588  0.8036E+00  0.8038E+00  0.6992E+01  0.6991E+01
      6.655  0.8088E+00  0.8058E+00  0.7046E+01  0.7045E+01
      6.721  0.9111E+00  0.9081E+00  0.7107E+01  0.7106E+01
      6.788  0.1052E+01  0.1050E+01  0.7177E+01  0.7176E+01
      6.854  0.1134E+01  0.1134E+01  0.7253E+01  0.7251E+01
      6.921  0.1074E+01  0.1077E+01  0.7324E+01  0.7323E+01
      6.988  0.9554E+00  0.9576E+00  0.7388E+01  0.7387E+01
      7.054  0.8599E+00  0.8605E+00  0.7446E+01  0.7444E+01
      7.121  0.8228E+00  0.8227E+00  0.7500E+01  0.7499E+01
      7.188  0.8416E+00  0.8395E+00  0.7556E+01  0.7555E+01
      7.254  0.9333E+00  0.9310E+00  0.7619E+01  0.7617E+01
      7.321  0.1089E+01  0.1085E+01  0.7691E+01  0.7690E+01
      7.388  0.1287E+01  0.1283E+01  0.7777E+01  0.7775E+01
      7.454  0.1360E+01  0.1360E+01  0.7868E+01  0.7866E+01
      7.521  0.1199E+01  0.1204E+01  0.7948E+01  0.7946E+01
      7.588  0.9598E+00  0.9636E+00  0.8012E+01  0.8010E+01
      7.654  0.8803E+00  0.8802E+00  0.8071E+01  0.8069E+01
      7.721  0.9401E+00  0.9386E+00  0.8133E+01  0.8132E+01
      7.787  0.1043E+01  0.1039E+01  0.8203E+01  0.8201E+01
      7.854  0.1163E+01  0.1161E+01  0.8280E+01  0.8278E+01
      7.921  0.1180E+01  0.1181E+01  0.8359E+01  0.8357E+01
      7.987  0.1074E+01  0.1077E+01  0.8431E+01  0.8429E+01
      8.054  0.9455E+00  0.9480E+00  0.8494E+01  0.8492E+01
      8.121  0.9175E+00  0.9167E+00  0.8555E+01  0.8553E+01
      8.187  0.1048E+01  0.1041E+01  0.8625E+01  0.8623E+01
      8.254  0.1278E+01  0.1272E+01  0.8710E+01  0.8708E+01
      8.321  0.1347E+01  0.1347E+01  0.8800E+01  0.8797E+01
      8.387  0.1300E+01  0.1301E+01  0.8887E+01  0.8884E+01
      8.454  0.1222E+01  0.1224E+01  0.8968E+01  0.8966E+01
      8.521  0.1176E+01  0.1178E+01  0.9047E+01  0.9044E+01
      8.587  0.1166E+01  0.1167E+01  0.9124E+01  0.9122E+01
      8.654  0.1117E+01  0.1119E+01  0.9199E+01  0.9197E+01
      8.721  0.1017E+01  0.1018E+01  0.9267E+01  0.9265E+01
      8.787  0.1014E+01  0.1013E+01  0.9334E+01  0.9332E+01
      8.854  0.1060E+01  0.1058E+01  0.9405E+01  0.9403E+01
      8.920  0.1148E+01  0.1145E+01  0.9481E+01  0.9479E+01
      8.987  0.1217E+01  0.1216E+01  0.9563E+01  0.9560E+01
      9.054  0.1270E+01  0.1270E+01  0.9647E+01  0.9645E+01
      9.120  0.1247E+01  0.1250E+01  0.9730E+01  0.9728E+01
      9.187  0.1109E+01  0.1111E+01  0.9804E+01  0.9803E+01
      9.254  0.1070E+01  0.1069E+01  0.9876E+01  0.9874E+01
      9.320  0.1083E+01  0.1081E+01  0.9948E+01  0.9946E+01
      9.387  0.1192E+01  0.1186E+01  0.1003E+02  0.1003E+02
      9.454  0.1414E+01  0.1411E+01  0.1012E+02  0.1012E+02
      9.520  0.1347E+01  0.1354E+01  0.1021E+02  0.1021E+02
      9.587  0.1109E+01  0.1113E+01  0.1029E+02  0.1028E+02
      9.654  0.1011E+01  0.1013E+01  0.1035E+02  0.1035E+02
      9.720  0.9680E+00  0.9719E+00  0.1042E+02  0.1042E+02
      9.787  0.9374E+00  0.9454E+00  0.1048E+02  0.1048E+02
      9.853  0.9971E+00  0.1012E+01  0.1055E+02  0.1055E+02
      9.920  0.1135E+01  0.1147E+01  0.1062E+02  0.1062E+02
      9.987  0.1272E+01  0.1259E+01  0.1071E+02  0.1071E+02
     10.053  0.1308E+01  0.1292E+01  0.1079E+02  0.1079E+02
     10.120  0.1163E+01  0.1159E+01  0.1087E+02  0.1087E+02
     10.187  0.9486E+00  0.9409E+00  0.1094E+02  0.1093E+02
     10.253  0.8351E+00  0.8214E+00  0.1099E+02  0.1099E+02
     10.320  0.7538E+00  0.7536E+00  0.1104E+02  0.1104E+02
     10.387  0.7772E+00  0.7851E+00  0.1109E+02  0.1109E+02
     10.453  0.9516E+00  0.9546E+00  0.1116E+02  0.1115E+02
     10.520  0.1038E+01  0.1042E+01  0.1123E+02  0.1122E+02
     10.587  0.9259E+00  0.9345E+00  0.1129E+02  0.1129E+02
     10.653  0.7586E+00  0.7713E+00  0.1134E+02  0.1134E+02
     10.720  0.6548E+00  0.6701E+00  0.1138E+02  0.1138E+02
     10.786  0.5797E+00  0.5863E+00  0.1142E+02  0.1142E+02
     10.853  0.4687E+00  0.4614E+00  0.1145E+02  0.1145E+02
     10.920  0.3460E+00  0.3366E+00  0.1147E+02  0.1147E+02
     10.986  0.2804E+00  0.2744E+00  0.1149E+02  0.1149E+02
     11.053  0.2779E+00  0.2717E+00  0.1151E+02  0.1151E+02
     11.120  0.3541E+00  0.3469E+00  0.1154E+02  0.1153E+02
     11.186  0.4468E+00  0.4493E+00  0.1157E+02  0.1156E+02
     11.253  0.4149E+00  0.4225E+00  0.1159E+02  0.1159E+02
     11.320  0.3091E+00  0.3128E+00  0.1161E+02  0.1161E+02
     11.386  0.2961E+00  0.2950E+00  0.1163E+02  0.1163E+02
     11.453  0.3670E+00  0.3639E+00  0.1166E+02  0.1166E+02
     11.520  0.3658E+00  0.3644E+00  0.1168E+02  0.1168E+02
     11.586  0.3263E+00  0.3278E+00  0.1170E+02  0.1170E+02
     11.653  0.3251E+00  0.3273E+00  0.1173E+02  0.1173E+02
     11.720  0.2955E+00  0.2974E+00  0.1175E+02  0.1175E+02
     11.786  0.2905E+00  0.2888E+00  0.1176E+02  0.1176E+02
     11.853  0.3591E+00  0.3570E+00  0.1179E+02  0.1179E+02
     11.919  0.3675E+00  0.3687E+00  0.1181E+02  0.1181E+02
     11.986  0.2791E+00  0.2830E+00  0.1183E+02  0.1183E+02
     12.053  0.1486E+00  0.1525E+00  0.1184E+02  0.1184E+02
     12.119  0.5817E-01  0.5956E-01  0.1185E+02  0.1185E+02
     12.186  0.2883E-01  0.2717E-01  0.1185E+02  0.1185E+02
     12.253  0.4748E-01  0.4051E-01  0.1185E+02  0.1185E+02
     12.319  0.1243E+00  0.1114E+00  0.1186E+02  0.1186E+02
     12.386  0.2336E+00  0.2306E+00  0.1187E+02  0.1187E+02
     12.453  0.2437E+00  0.2582E+00  0.1189E+02  0.1189E+02
     12.519  0.1462E+00  0.1658E+00  0.1190E+02  0.1190E+02
     12.586  0.7677E-01  0.1081E+00  0.1191E+02  0.1191E+02
     12.653  0.6864E-01  0.1155E+00  0.1191E+02  0.1192E+02
     12.719  0.7574E-01  0.1023E+00  0.1192E+02  0.1192E+02
     12.786  0.8409E-01  0.6285E-01  0.1192E+02  0.1193E+02
     12.852  0.1100E+00  0.6302E-01  0.1193E+02  0.1193E+02
     12.919  0.1311E+00  0.9938E-01  0.1194E+02  0.1194E+02
     12.986  0.1245E+00  0.1136E+00  0.1195E+02  0.1195E+02
     13.052  0.9149E-01  0.8963E-01  0.1195E+02  0.1195E+02
     13.119  0.8556E-01  0.8643E-01  0.1196E+02  0.1196E+02
     13.186  0.1268E+00  0.1300E+00  0.1197E+02  0.1197E+02
     13.252  0.1475E+00  0.1494E+00  0.1198E+02  0.1198E+02
     13.319  0.1017E+00  0.9863E-01  0.1198E+02  0.1198E+02
     13.386  0.5563E-01  0.5233E-01  0.1199E+02  0.1199E+02
     13.452  0.4488E-01  0.4336E-01  0.1199E+02  0.1199E+02
     13.519  0.3334E-01  0.3389E-01  0.1199E+02  0.1199E+02
     13.586  0.1636E-01  0.1673E-01  0.1199E+02  0.1199E+02
     13.652  0.1126E-01  0.1025E-01  0.1199E+02  0.1199E+02
     13.719  0.1669E-01  0.1512E-01  0.1199E+02  0.1199E+02
     13.785  0.1869E-01  0.1936E-01  0.1200E+02  0.1200E+02
     13.852  0.1455E-01  0.1602E-01  0.1200E+02  0.1200E+02
     13.919  0.1660E-01  0.1705E-01  0.1200E+02  0.1200E+02
     13.985  0.1818E-01  0.1855E-01  0.1200E+02  0.1200E+02
     14.052  0.1065E-01  0.1114E-01  0.1200E+02  0.1200E+02
     14.119  0.3808E-02  0.4044E-02  0.1200E+02  0.1200E+02
     14.185  0.1085E-02  0.1154E-02  0.1200E+02  0.1200E+02
     14.252  0.2935E-03  0.3128E-03  0.1200E+02  0.1200E+02
     14.319  0.7792E-04  0.8310E-04  0.1200E+02  0.1200E+02
     14.385  0.0000E+00  0.0000E+00  0.1200E+02  0.1200E+02
     14.452  0.0000E+00  0.0000E+00  0.1200E+02  0.1200E+02
     14.519  0.0000E+00  0.0000E+00  0.1200E+02  0.1200E+02
     14.585  0.0000E+00  0.0000E+00  0.1200E+02  0.1200E+02
     14.652  0.0000E+00  0.0000E+00  0.1200E+02  0.1200E+02
     14.719  0.0000E+00  0.0000E+00  0.1200E+02  0.1200E+02
     14.785  0.0000E+00  0.0000E+00  0.1200E+02  0.1200E+02
     14.852  0.0000E+00  0.0000E+00  0.1200E+02  0.1200E+02
     14.85179964     -5.14151340  301      4.38157789      1.00000000
     -5.142  0.0000E+00  0.0000E+00  0.0000E+00  0.0000E+00  0.0000E+00  0.0000E+00  0.0000E+00  0.0000E+00  0.0000E+00  0.0000E+00  0.0000E+00  0.0000E+00  0.0000E+00  0.0000E+00  0.0000E+00  0.0000E+00  0.0000E+00  0.0000E+00
     -5.075  0.0000E+00  0.0000E+00  0.0000E+00  0.0000E+00  0.0000E+00  0.0000E+00  0.0000E+00  0.0000E+00  0.0000E+00  0.0000E+00  0.0000E+00  0.0000E+00  0.0000E+00  0.0000E+00  0.0000E+00  0.0000E+00  0.0000E+00  0.0000E+00
     -5.008  0.0000E+00  0.0000E+00  0.0000E+00  0.0000E+00  0.0000E+00  0.0000E+00  0.0000E+00  0.0000E+00  0.0000E+00  0.0000E+00  0.0000E+00  0.0000E+00  0.0000E+00  0.0000E+00  0.0000E+00  0.0000E+00  0.0000E+00  0.0000E+00
     -4.942  0.0000E+00  0.0000E+00  0.0000E+00  0.0000E+00  0.0000E+00  0.0000E+00  0.0000E+00  0.0000E+00  0.0000E+00  0.0000E+00  0.0000E+00  0.0000E+00  0.0000E+00  0.0000E+00  0.0000E+00  0.0000E+00  0.0000E+00  0.0000E+00
     -4.875  0.0000E+00  0.0000E+00  0.0000E+00  0.0000E+00  0.0000E+00  0.0000E+00  0.0000E+00  0.0000E+00  0.0000E+00  0.0000E+00  0.0000E+00  0.0000E+00  0.0000E+00  0.0000E+00  0.0000E+00  0.0000E+00  0.0000E+00  0.0000E+00
     -4.808  0.0000E+00  0.0000E+00  0.0000E+00  0.0000E+00  0.0000E+00  0.0000E+00  0.0000E+00  0.0000E+00  0.0000E+00  0.0000E+00  0.0000E+00  0.0000E+00  0.0000E+00  0.0000E+00  0.0000E+00  0.0000E+00  0.0000E+00  0.0000E+00
     -4.742  0.0000E+00  0.0000E+00  0.0000E+00  0.0000E+00  0.0000E+00  0.0000E+00  0.0000E+00  0.0000E+00  0.0000E+00  0.0000E+00  0.0000E+00  0.0000E+00  0.0000E+00  0.0000E+00  0.0000E+00  0.0000E+00  0.0000E+00  0.0000E+00
     -4.675  0.1570E-07  0.1531E-07  0.1160E-22  0.2401E-22  0.1160E-22  0.2401E-22  0.2775E-22  0.1034E-22  0.0000E+00  0.0000E+00  0.0000E+00  0.0000E+00  0.0000E+00  0.0000E+00  0.0000E+00  0.0000E+00  0.0000E+00  0.0000E+00
     -4.608  0.3212E-06  0.3131E-06  0.1801E-08  0.1755E-08  0.1801E-08  0.1755E-08  0.1800E-08  0.1755E-08  0.0000E+00  0.0000E+00  0.0000E+00  0.0000E+00  0.0000E+00  0.0000E+00  0.0000E+00  0.0000E+00  0.0000E+00  0.0000E+00
     -4.542  0.1075E-05  0.1048E-05  0.6838E-08  0.6667E-08  0.6838E-08  0.6667E-08  0.6837E-08  0.6666E-08  0.0000E+00  0.0000E+00  0.0000E+00  0.0000E+00  0.0000E+00  0.0000E+00  0.0000E+00  0.0000E+00  0.0000E+00  0.0000E+00
     -4.475  0.4368E-05  0.4259E-05  0.3366E-07  0.3282E-07  0.3366E-07  0.3282E-07  0.3363E-07  0.3279E-07  0.0000E+00  0.0000E+00  0.0000E+00  0.0000E+00  0.0000E+00  0.0000E+00  0.0000E+00  0.0000E+00  0.0000E+00  0.0000E+00
     -4.408  0.1640E-04  0.1599E-04  0.1298E-06  0.1266E-06  0.1298E-06  0.1266E-06  0.1297E-06  0.1265E-06  0.0000E+00  0.0000E+00  0.0000E+00  0.0000E+00  0.0000E+00  0.0000E+00  0.0000E+00  0.0000E+00  0.0000E+00  0.0000E+00
     -4.342  0.5969E-04  0.5826E-04  0.4772E-06  0.4656E-06  0.4772E-06  0.4656E-06  0.4769E-06  0.4653E-06  0.0000E+00  0.0000E+00  0.0000E+00  0.0000E+00  0.0000E+00  0.0000E+00  0.0000E+00  0.0000E+00  0.0000E+00  0.0000E+00
     -4.275  0.2013E-03  0.1969E-03  0.1735E-05  0.1694E-05  0.1735E-05  0.1694E-05  0.1734E-05  0.1693E-05  0.0000E+00  0.0000E+00  0.0000E+00  0.0000E+00  0.0000E+00  0.0000E+00  0.0000E+00  0.0000E+00  0.0000E+00  0.0000E+00
     -4.208  0.5503E-03  0.5413E-03  0.5476E-05  0.5367E-05  0.5476E-05  0.5367E-05  0.5473E-05  0.5364E-05  0.0000E+00  0.0000E+00  0.0000E+00  0.0000E+00  0.0000E+00  0.0000E+00  0.0000E+00  0.0000E+00  0.0000E+00  0.0000E+00
     -4.142  0.1085E-02  0.1074E-02  0.1395E-04  0.1374E-04  0.1395E-04  0.1374E-04  0.1394E-04  0.1373E-04  0.0000E+00  0.0000E+00  0.0000E+00  0.0000E+00  0.0000E+00  0.0000E+00  0.0000E+00  0.0000E+00  0.0000E+00  0.0000E+00
     -4.075  0.1607E-02  0.1597E-02  0.2886E-04  0.2850E-04  0.2886E-04  0.2850E-04  0.2883E-04  0.2848E-04  0.0000E+00  0.0000E+00  0.0000E+00  0.0000E+00  0.0000E+00  0.0000E+00  0.0000E+00  0.0000E+00  0.0000E+00  0.0000E+00
     -4.009  0.2099E-02  0.2090E-02  0.5034E-04  0.4991E-04  0.5034E-04  0.4991E-04  0.5031E-04  0.4988E-04  0.0000E+00  0.0000E+00  0.0000E+00  0.0000E+00  0.0000E+00  0.0000E+00  0.0000E+00  0.0000E+00  0.0000E+00  0.0000E+00
     -3.942  0.2346E-02  0.2343E-02  0.7162E-04  0.7121E-04  0.7162E-04  0.7121E-04  0.7157E-04  0.7117E-04  0.0000E+00  0.0000E+00  0.0000E+00  0.0000E+00  0.0000E+00  0.0000E+00  0.0000E+00  0.0000E+00  0.0000E+00  0.0000E+00
     -3.875  0.2525E-02  0.2518E-02  0.1006E-03  0.9983E-04  0.1006E-03  0.9983E-04  0.1005E-03  0.9972E-04  0.0000E+00  0.0000E+00  0.0000E+00  0.0000E+00  0.0000E+00  0.0000E+00  0.0000E+00  0.0000E+00  0.0000E+00  0.0000E+00
     -3.809  0.2929E-02  0.2922E-02  0.1420E-03  0.1413E-03  0.1420E-03  0.1413E-03  0.1419E-03  0.1412E-03  0.0000E+00  0.0000E+00  0.0000E+00  0.0000E+00  0.0000E+00  0.0000E+00  0.0000E+00  0.0000E+00  0.0000E+00  0.0000E+00
     -3.742  0.3042E-02  0.3042E-02  0.1723E-03  0.1718E-03  0.1723E-03  0.1718E-03  0.1722E-03  0.1717E-03  0.0000E+00  0.0000E+00  0.0000E+00  0.0000E+00  0.0000E+00  0.0000E+00  0.0000E+00  0.0000E+00  0.0000E+00  0.0000E+00
     -3.675  0.3088E-02  0.3085E-02  0.2052E-03  0.2044E-03  0.2052E-03  0.2044E-03  0.2050E-03  0.2042E-03  0.0000E+00  0.0000E+00  0.0000E+00  0.0000E+00  0.0000E+00  0.0000E+00  0.0000E+00  0.0000E+00  0.0000E+00  0.0000E+00
     -3.609  0.3158E-02  0.3158E-02  0.2441E-03  0.2434E-03  0.2441E-03  0.2434E-03  0.2438E-03  0.2431E-03  0.0000E+00  0.0000E+00  0.0000E+00  0.0000E+00  0.0000E+00  0.0000E+00  0.0000E+00  0.0000E+00  0.0000E+00  0.0000E+00
     -3.542  0.3175E-02  0.3169E-02  0.2913E-03  0.2900E-03  0.2913E-03  0.2900E-03  0.2908E-03  0.2895E-03  0.0000E+00  0.0000E+00  0.0000E+00  0.0000E+00  0.0000E+00  0.0000E+00  0.0000E+00  0.0000E+00  0.0000E+00  0.0000E+00
     -3.475  0.3521E-02  0.3513E-02  0.3679E-03  0.3665E-03  0.3679E-03  0.3665E-03  0.3676E-03  0.3662E-03  0.0000E+00  0.0000E+00  0.0000E+00  0.0000E+00  0.0000E+00  0.0000E+00  0.0000E+00  0.0000E+00  0.0000E+00  0.0000E+00
     -3.409  0.3632E-02  0.3632E-02  0.4174E-03  0.4167E-03  0.4174E-03  0.4167E-03  0.4172E-03  0.4166E-03  0.0000E+00  0.0000E+00  0.0000E+00  0.0000E+00  0.0000E+00  0.0000E+00  0.0000E+00  0.0000E+00  0.0000E+00  0.0000E+00
     -3.342  0.3459E-02  0.3463E-02  0.4414E-03  0.4411E-03  0.4414E-03  0.4411E-03  0.4412E-03  0.4410E-03  0.0000E+00  0.0000E+00  0.0000E+00  0.0000E+00  0.0000E+00  0.0000E+00  0.0000E+00  0.0000E+00  0.0000E+00  0.0000E+00
     -3.275  0.3146E-02  0.3150E-02  0.4620E-03  0.4610E-03  0.4620E-03  0.4610E-03  0.4612E-03  0.4603E-03  0.0000E+00  0.0000E+00  0.0000E+00  0.0000E+00  0.0000E+00  0.0000E+00  0.0000E+00  0.0000E+00  0.0000E+00  0.0000E+00
     -3.209  0.3252E-02  0.3244E-02  0.5730E-03  0.5698E-03  0.5730E-03  0.5698E-03  0.5713E-03  0.5681E-03  0.0000E+00  0.0000E+00  0.0000E+00  0.0000E+00  0.0000E+00  0.0000E+00  0.0000E+00  0.0000E+00  0.0000E+00  0.0000E+00
     -3.142  0.3643E-02  0.3639E-02  0.7237E-03  0.7217E-03  0.7237E-03  0.7217E-03  0.7228E-03  0.7207E-03  0.0000E+00  0.0000E+00  0.0000E+00  0.0000E+00  0.0000E+00  0.0000E+00  0.0000E+00  0.0000E+00  0.0000E+00  0.0000E+00
     -3.076  0.3550E-02  0.3555E-02  0.7786E-03  0.7778E-03  0.7786E-03  0.7778E-03  0.7781E-03  0.7773E-03  0.0000E+00  0.0000E+00  0.0000E+00  0.0000E+00  0.0000E+00  0.0000E+00  0.0000E+00  0.0000E+00  0.0000E+00  0.0000E+00
     -3.009  0.3325E-02  0.3333E-02  0.8326E-03  0.8314E-03  0.8326E-03  0.8314E-03  0.8315E-03  0.8303E-03  0.0000E+00  0.0000E+00  0.0000E+00  0.0000E+00  0.0000E+00  0.0000E+00  0.0000E+00  0.0000E+00  0.0000E+00  0.0000E+00
     -2.942  0.2891E-02  0.2902E-02  0.8865E-03  0.8845E-03  0.8865E-03  0.8845E-03  0.8841E-03  0.8822E-03  0.0000E+00  0.0000E+00  0.0000E+00  0.0000E+00  0.0000E+00  0.0000E+00  0.0000E+00  0.0000E+00  0.0000E+00  0.0000E+00
     -2.876  0.2787E-02  0.2784E-02  0.1083E-02  0.1077E-02  0.1083E-02  0.1077E-02  0.1080E-02  0.1074E-02  0.0000E+00  0.0000E+00  0.0000E+00  0.0000E+00  0.0000E+00  0.0000E+00  0.0000E+00  0.0000E+00  0.0000E+00  0.0000E+00
     -2.809  0.3069E-02  0.3071E-02  0.1314E-02  0.1311E-02  0.1314E-02  0.1311E-02  0.1312E-02  0.1309E-02  0.0000E+00  0.0000E+00  0.0000E+00  0.0000E+00  0.0000E+00  0.0000E+00  0.0000E+00  0.0000E+00  0.0000E+00  0.0000E+00
     -2.742  0.2832E-02  0.2845E-02  0.1341E-02  0.1341E-02  0.1341E-02  0.1341E-02  0.1341E-02  0.1342E-02  0.0000E+00  0.0000E+00  0.0000E+00  0.0000E+00  0.0000E+00  0.0000E+00  0.0000E+00  0.0000E+00  0.0000E+00  0.0000E+00
     -2.676  0.2304E-02  0.2317E-02  0.1237E-02  0.1240E-02  0.1237E-02  0.1240E-02  0.1239E-02  0.1242E-02  0.0000E+00  0.0000E+00  0.0000E+00  0.0000E+00  0.0000E+00  0.0000E+00  0.0000E+00  0.0000E+00  0.0000E+00  0.0000E+00
     -2.609  0.1871E-02  0.1878E-02  0.1087E-02  0.1088E-02  0.1087E-02  0.1088E-02  0.1089E-02  0.1090E-02  0.0000E+00  0.0000E+00  0.0000E+00  0.0000E+00  0.0000E+00  0.0000E+00  0.0000E+00  0.0000E+00  0.0000E+00  0.0000E+00
     -2.542  0.1921E-02  0.1917E-02  0.1200E-02  0.1194E-02  0.1200E-02  0.1194E-02  0.1198E-02  0.1193E-02  0.0000E+00  0.0000E+00  0.0000E+00  0.0000E+00  0.0000E+00  0.0000E+00  0.0000E+00  0.0000E+00  0.0000E+00  0.0000E+00
     -2.476  0.2177E-02  0.2180E-02  0.1379E-02  0.1378E-02  0.1379E-02  0.1378E-02  0.1380E-02  0.1379E-02  0.0000E+00  0.0000E+00  0.0000E+00  0.0000E+00  0.0000E+00  0.0000E+00  0.0000E+00  0.0000E+00  0.0000E+00  0.0000E+00
     -2.409  0.1892E-02  0.1903E-02  0.1228E-02  0.1232E-02  0.1228E-02  0.1232E-02  0.1231E-02  0.1235E-02  0.0000E+00  0.0000E+00  0.0000E+00  0.0000E+00  0.0000E+00  0.0000E+00  0.0000E+00  0.0000E+00  0.0000E+00  0.0000E+00
     -2.342  0.1434E-02  0.1446E-02  0.1025E-02  0.1028E-02  0.1025E-02  0.1028E-02  0.1027E-02  0.1030E-02  0.0000E+00  0.0000E+00  0.0000E+00  0.0000E+00  0.0000E+00  0.0000E+00  0.0000E+00  0.0000E+00  0.0000E+00  0.0000E+00
     -2.276  0.1062E-02  0.1069E-02  0.8775E-03  0.8786E-03  0.8775E-03  0.8786E-03  0.8785E-03  0.8797E-03  0.0000E+00  0.0000E+00  0.0000E+00  0.0000E+00  0.0000E+00  0.0000E+00  0.0000E+00  0.0000E+00  0.0000E+00  0.0000E+00
     -2.209  0.1110E-02  0.1107E-02  0.9922E-03  0.9864E-03  0.9922E-03  0.9864E-03  0.9901E-03  0.9844E-03  0.0000E+00  0.0000E+00  0.0000E+00  0.0000E+00  0.0000E+00  0.0000E+00  0.0000E+00  0.0000E+00  0.0000E+00  0.0000E+00
     -2.143  0.1389E-02  0.1390E-02  0.1244E-02  0.1241E-02  0.1244E-02  0.1241E-02  0.1243E-02  0.1241E-02  0.0000E+00  0.0000E+00  0.0000E+00  0.0000E+00  0.0000E+00  0.0000E+00  0.0000E+00  0.0000E+00  0.0000E+00  0.0000E+00
     -2.076  0.1199E-02  0.1210E-02  0.1128E-02  0.1133E-02  0.1128E-02  0.1133E-02  0.1131E-02  0.1136E-02  0.0000E+00  0.0000E+00  0.0000E+00  0.0000E+00  0.0000E+00  0.0000E+00  0.0000E+00  0.0000E+00  0.0000E+00  0.0000E+00
     -2.009  0.8212E-03  0.8296E-03  0.8527E-03  0.8578E-03  0.8527E-03  0.8578E-03  0.8556E-03  0.8607E-03  0.0000E+00  0.0000E+00  0.0000E+00  0.0000E+00  0.0000E+00  0.0000E+00  0.0000E+00  0.0000E+00  0.0000E+00  0.0000E+00
     -1.943  0.5918E-03  0.5960E-03  0.6291E-03  0.6316E-03  0.6291E-03  0.6316E-03  0.6310E-03  0.6336E-03  0.0000E+00  0.0000E+00  0.0000E+00  0.0000E+00  0.0000E+00  0.0000E+00  0.0000E+00  0.0000E+00  0.0000E+00  0.0000E+00
     -1.876  0.6152E-03  0.6133E-03  0.6836E-03  0.6784E-03  0.6836E-03  0.6784E-03  0.6815E-03  0.6764E-03  0.0000E+00  0.0000E+00  0.0000E+00  0.0000E+00  0.0000E+00  0.0000E+00  0.0000E+00  0.0000E+00  0.0000E+00  0.0000E+00
     -1.809  0.8371E-03  0.8352E-03  0.9892E-03  0.9840E-03  0.9892E-03  0.9840E-03  0.9867E-03  0.9814E-03  0.0000E+00  0.0000E+00  0.0000E+00  0.0000E+00  0.0000E+00  0.0000E+00  0.0000E+00  0.0000E+00  0.0000E+00  0.0000E+00