   4   4   1   0
  0.1443774E+02  0.3864469E-09  0.3865759E-09  0.3865759E-09  0.5000000E-15
  1.000000000000000E-004
  CAR 
 unknown system                          
     21.25981481     -4.38206580  301      7.38506245      1.00000000
     -4.382  0.0000E+00  0.0000E+00  0.0000E+00  0.0000E+00
     -4.297  0.0000E+00  0.0000E+00  0.0000E+00  0.0000E+00
     -4.211  0.0000E+00  0.0000E+00  0.0000E+00  0.0000E+00
     -4.126  0.0000E+00  0.0000E+00  0.0000E+00  0.0000E+00
     -4.040  0.0000E+00  0.0000E+00  0.0000E+00  0.0000E+00
     -3.955  0.0000E+00  0.0000E+00  0.0000E+00  0.0000E+00
     -3.869  0.0000E+00  0.0000E+00  0.0000E+00  0.0000E+00
     -3.784  0.0000E+00  0.0000E+00  0.0000E+00  0.0000E+00
     -3.698  0.3415E-06  0.3482E-06  0.2919E-07  0.2976E-07
     -3.613  0.5454E-05  0.5561E-05  0.4954E-06  0.5051E-06
     -3.527  0.4453E-04  0.4540E-04  0.4301E-05  0.4386E-05
     -3.442  0.2318E-03  0.2363E-03  0.2412E-04  0.2459E-04
     -3.356  0.1300E-02  0.1325E-02  0.1352E-03  0.1378E-03
     -3.271  0.6442E-02  0.6554E-02  0.6859E-03  0.6980E-03
     -3.185  0.2458E-01  0.2489E-01  0.2787E-02  0.2826E-02
     -3.100  0.5709E-01  0.5746E-01  0.7667E-02  0.7737E-02
     -3.014  0.8597E-01  0.8629E-01  0.1501E-01  0.1511E-01
     -2.929  0.1195E+00  0.1199E+00  0.2523E-01  0.2536E-01
     -2.844  0.1303E+00  0.1302E+00  0.3637E-01  0.3649E-01
     -2.758  0.1419E+00  0.1424E+00  0.4850E-01  0.4866E-01
     -2.673  0.1808E+00  0.1811E+00  0.6396E-01  0.6414E-01
     -2.587  0.1818E+00  0.1818E+00  0.7951E-01  0.7968E-01
     -2.502  0.1934E+00  0.1937E+00  0.9605E-01  0.9624E-01
     -2.416  0.2013E+00  0.2011E+00  0.1133E+00  0.1134E+00
     -2.331  0.2109E+00  0.2114E+00  0.1313E+00  0.1315E+00
     -2.245  0.2571E+00  0.2574E+00  0.1533E+00  0.1535E+00
     -2.160  0.2625E+00  0.2625E+00  0.1757E+00  0.1760E+00
     -2.074  0.2499E+00  0.2496E+00  0.1971E+00  0.1974E+00
     -1.989  0.2301E+00  0.2302E+00  0.2168E+00  0.2171E+00
     -1.903  0.2937E+00  0.2947E+00  0.2420E+00  0.2423E+00
     -1.818  0.3411E+00  0.3410E+00  0.2711E+00  0.2714E+00
     -1.732  0.3256E+00  0.3257E+00  0.2990E+00  0.2993E+00
     -1.647  0.3306E+00  0.3303E+00  0.3272E+00  0.3275E+00
     -1.561  0.3075E+00  0.3079E+00  0.3535E+00  0.3539E+00
     -1.476  0.4075E+00  0.4087E+00  0.3884E+00  0.3888E+00
     -1.391  0.4521E+00  0.4518E+00  0.4270E+00  0.4275E+00
     -1.305  0.4104E+00  0.4098E+00  0.4621E+00  0.4625E+00
     -1.220  0.3347E+00  0.3337E+00  0.4907E+00  0.4910E+00
     -1.134  0.2999E+00  0.3006E+00  0.5164E+00  0.5167E+00
     -1.049  0.4184E+00  0.4196E+00  0.5522E+00  0.5526E+00
     -0.963  0.4097E+00  0.4085E+00  0.5873E+00  0.5876E+00
     -0.878  0.3151E+00  0.3145E+00  0.6142E+00  0.6145E+00
     -0.792  0.2505E+00  0.2496E+00  0.6356E+00  0.6358E+00
     -0.707  0.2288E+00  0.2297E+00  0.6552E+00  0.6555E+00
     -0.621  0.3647E+00  0.3661E+00  0.6865E+00  0.6869E+00
     -0.536  0.3691E+00  0.3679E+00  0.7180E+00  0.7183E+00
     -0.450  0.2596E+00  0.2587E+00  0.7403E+00  0.7405E+00
     -0.365  0.1740E+00  0.1730E+00  0.7551E+00  0.7553E+00
     -0.279  0.1511E+00  0.1519E+00  0.7681E+00  0.7683E+00
     -0.194  0.2891E+00  0.2909E+00  0.7929E+00  0.7932E+00
     -0.108  0.3346E+00  0.3336E+00  0.8215E+00  0.8217E+00
     -0.023  0.2219E+00  0.2211E+00  0.8405E+00  0.8407E+00
      0.063  0.2270E+00  0.2274E+00  0.8599E+00  0.8601E+00
      0.148  0.2678E+00  0.2684E+00  0.8827E+00  0.8830E+00
      0.233  0.3566E+00  0.3578E+00  0.9133E+00  0.9136E+00
      0.319  0.4138E+00  0.4136E+00  0.9486E+00  0.9490E+00
      0.404  0.3514E+00  0.3506E+00  0.9787E+00  0.9790E+00
      0.490  0.3169E+00  0.3166E+00  0.1006E+01  0.1006E+01
      0.575  0.3104E+00  0.3106E+00  0.1032E+01  0.1033E+01
      0.661  0.3952E+00  0.3967E+00  0.1066E+01  0.1067E+01
      0.746  0.4961E+00  0.4964E+00  0.1109E+01  0.1109E+01
      0.832  0.5026E+00  0.5023E+00  0.1152E+01  0.1152E+01
      0.917  0.4467E+00  0.4456E+00  0.1190E+01  0.1190E+01
      1.003  0.3888E+00  0.3888E+00  0.1223E+01  0.1223E+01
      1.088  0.4622E+00  0.4633E+00  0.1263E+01  0.1263E+01
      1.174  0.5437E+00  0.5443E+00  0.1309E+01  0.1310E+01
      1.259  0.5556E+00  0.5550E+00  0.1357E+01  0.1357E+01
      1.345  0.4870E+00  0.4860E+00  0.1398E+01  0.1399E+01
      1.430  0.4717E+00  0.4725E+00  0.1439E+01  0.1439E+01
      1.516  0.6477E+00  0.6494E+00  0.1494E+01  0.1495E+01
      1.601  0.6421E+00  0.6409E+00  0.1549E+01  0.1549E+01
      1.687  0.5189E+00  0.5187E+00  0.1593E+01  0.1594E+01
      1.772  0.5020E+00  0.5014E+00  0.1636E+01  0.1637E+01
      1.857  0.5022E+00  0.5023E+00  0.1679E+01  0.1680E+01
      1.943  0.5117E+00  0.5115E+00  0.1723E+01  0.1723E+01
      2.028  0.4630E+00  0.4629E+00  0.1763E+01  0.1763E+01
      2.114  0.4764E+00  0.4772E+00  0.1803E+01  0.1804E+01
      2.199  0.5107E+00  0.5107E+00  0.1847E+01  0.1848E+01
      2.285  0.4563E+00  0.4558E+00  0.1886E+01  0.1887E+01
      2.370  0.4387E+00  0.4384E+00  0.1924E+01  0.1924E+01
      2.456  0.4064E+00  0.4062E+00  0.1958E+01  0.1959E+01
      2.541  0.4046E+00  0.4052E+00  0.1993E+01  0.1993E+01
      2.627  0.5295E+00  0.5313E+00  0.2038E+01  0.2039E+01
      2.712  0.6275E+00  0.6277E+00  0.2092E+01  0.2093E+01
      2.798  0.6068E+00  0.6063E+00  0.2144E+01  0.2144E+01
      2.883  0.5037E+00  0.5024E+00  0.2187E+01  0.2187E+01
      2.969  0.4184E+00  0.4180E+00  0.2223E+01  0.2223E+01
      3.054  0.3728E+00  0.3727E+00  0.2255E+01  0.2255E+01
      3.140  0.4077E+00  0.4085E+00  0.2290E+01  0.2290E+01
      3.225  0.4517E+00  0.4524E+00  0.2328E+01  0.2329E+01
      3.310  0.5248E+00  0.5257E+00  0.2373E+01  0.2374E+01
      3.396  0.5743E+00  0.5746E+00  0.2422E+01  0.2423E+01
      3.481  0.6599E+00  0.6614E+00  0.2479E+01  0.2479E+01
      3.567  0.7243E+00  0.7233E+00  0.2541E+01  0.2541E+01
      3.652  0.5362E+00  0.5345E+00  0.2587E+01  0.2587E+01
      3.738  0.4865E+00  0.4871E+00  0.2628E+01  0.2629E+01
      3.823  0.5205E+00  0.5212E+00  0.2673E+01  0.2673E+01
      3.909  0.6691E+00  0.6719E+00  0.2730E+01  0.2731E+01
      3.994  0.9057E+00  0.9074E+00  0.2807E+01  0.2808E+01
      4.080  0.8884E+00  0.8860E+00  0.2883E+01  0.2884E+01
      4.165  0.6011E+00  0.5980E+00  0.2935E+01  0.2935E+01
      4.251  0.4475E+00  0.4477E+00  0.2973E+01  0.2974E+01
      4.336  0.5642E+00  0.5669E+00  0.3021E+01  0.3022E+01
      4.422  0.7221E+00  0.7226E+00  0.3083E+01  0.3084E+01
      4.507  0.6776E+00  0.6768E+00  0.3141E+01  0.3142E+01
      4.593  0.7250E+00  0.7250E+00  0.3203E+01  0.3204E+01
      4.678  0.6510E+00  0.6495E+00  0.3259E+01  0.3259E+01
      4.764  0.5669E+00  0.5675E+00  0.3307E+01  0.3308E+01
      4.849  0.5673E+00  0.5665E+00  0.3356E+01  0.3356E+01
      4.934  0.5132E+00  0.5135E+00  0.3400E+01  0.3400E+01
      5.020  0.6701E+00  0.6735E+00  0.3457E+01  0.3458E+01
      5.105  0.8726E+00  0.8735E+00  0.3532E+01  0.3533E+01
      5.191  0.8458E+00  0.8445E+00  0.3604E+01  0.3605E+01
      5.276  0.7459E+00  0.7458E+00  0.3668E+01  0.3669E+01
      5.362  0.7143E+00  0.7134E+00  0.3729E+01  0.3730E+01
      5.447  0.6786E+00  0.6780E+00  0.3787E+01  0.3788E+01
      5.533  0.6188E+00  0.6178E+00  0.3840E+01  0.3841E+01
      5.618  0.5202E+00  0.5192E+00  0.3884E+01  0.3885E+01
      5.704  0.4845E+00  0.4846E+00  0.3926E+01  0.3927E+01
      5.789  0.6012E+00  0.6042E+00  0.3977E+01  0.3978E+01
      5.875  0.8484E+00  0.8498E+00  0.4050E+01  0.4051E+01
      5.960  0.8169E+00  0.8156E+00  0.4120E+01  0.4121E+01
      6.046  0.6915E+00  0.6897E+00  0.4179E+01  0.4180E+01
      6.131  0.5974E+00  0.5971E+00  0.4230E+01  0.4231E+01
      6.217  0.6040E+00  0.6047E+00  0.4282E+01  0.4282E+01
      6.302  0.6257E+00  0.6255E+00  0.4335E+01  0.4336E+01
      6.388  0.5702E+00  0.5683E+00  0.4384E+01  0.4385E+01
      6.473  0.4356E+00  0.4349E+00  0.4421E+01  0.4422E+01
      6.558  0.4665E+00  0.4691E+00  0.4461E+01  0.4462E+01
      6.644  0.6159E+00  0.6168E+00  0.4514E+01  0.4515E+01
      6.729  0.6895E+00  0.6895E+00  0.4573E+01  0.4574E+01
      6.815  0.7000E+00  0.6997E+00  0.4633E+01  0.4634E+01
      6.900  0.6176E+00  0.6165E+00  0.4686E+01  0.4686E+01
      6.986  0.6278E+00  0.6296E+00  0.4739E+01  0.4740E+01
      7.071  0.7959E+00  0.7973E+00  0.4807E+01  0.4808E+01
      7.157  0.8026E+00  0.8014E+00  0.4876E+01  0.4877E+01
      7.242  0.6344E+00  0.6319E+00  0.4930E+01  0.4931E+01
      7.328  0.4786E+00  0.4769E+00  0.4971E+01  0.4972E+01
      7.413  0.5011E+00  0.5011E+00  0.5014E+01  0.5015E+01
      7.499  0.4970E+00  0.4970E+00  0.5057E+01  0.5057E+01
      7.584  0.4967E+00  0.4970E+00  0.5099E+01  0.5100E+01
      7.670  0.5956E+00  0.5970E+00  0.5150E+01  0.5151E+01
      7.755  0.7786E+00  0.7810E+00  0.5217E+01  0.5218E+01
      7.841  0.9753E+00  0.9765E+00  0.5300E+01  0.5301E+01
      7.926  0.8652E+00  0.8621E+00  0.5374E+01  0.5375E+01
      8.012  0.6102E+00  0.6082E+00  0.5426E+01  0.5427E+01
      8.097  0.5451E+00  0.5456E+00  0.5473E+01  0.5473E+01
      8.182  0.5707E+00  0.5706E+00  0.5522E+01  0.5522E+01
      8.268  0.5606E+00  0.5611E+00  0.5570E+01  0.5570E+01
      8.353  0.6484E+00  0.6492E+00  0.5625E+01  0.5626E+01
      8.439  0.7563E+00  0.7567E+00  0.5690E+01  0.5691E+01
      8.524  0.7412E+00  0.7399E+00  0.5753E+01  0.5754E+01
      8.610  0.6526E+00  0.6520E+00  0.5809E+01  0.5810E+01
      8.695  0.6327E+00  0.6328E+00  0.5863E+01  0.5864E+01
      8.781  0.6864E+00  0.6874E+00  0.5922E+01  0.5923E+01
      8.866  0.6928E+00  0.6909E+00  0.5981E+01  0.5982E+01
      8.952  0.6258E+00  0.6238E+00  0.6035E+01  0.6035E+01
      9.037  0.7120E+00  0.7126E+00  0.6096E+01  0.6096E+01
      9.123  0.7306E+00  0.7310E+00  0.6158E+01  0.6159E+01
      9.208  0.6697E+00  0.6691E+00  0.6216E+01  0.6216E+01
      9.294  0.7707E+00  0.7711E+00  0.6281E+01  0.6282E+01
      9.379  0.9867E+00  0.9874E+00  0.6366E+01  0.6366E+01
      9.465  0.1015E+01  0.1013E+01  0.6453E+01  0.6453E+01
      9.550  0.7791E+00  0.7781E+00  0.6519E+01  0.6519E+01
      9.635  0.7383E+00  0.7414E+00  0.6582E+01  0.6583E+01
      9.721  0.9938E+00  0.9960E+00  0.6667E+01  0.6668E+01
      9.806  0.9950E+00  0.9939E+00  0.6753E+01  0.6753E+01
      9.892  0.9727E+00  0.9712E+00  0.6836E+01  0.6836E+01
      9.977  0.9452E+00  0.9427E+00  0.6917E+01  0.6917E+01
     10.063  0.6663E+00  0.6663E+00  0.6974E+01  0.6974E+01
     10.148  0.5206E+00  0.5220E+00  0.7018E+01  0.7019E+01
     10.234  0.6712E+00  0.6717E+00  0.7076E+01  0.7076E+01
     10.319  0.8418E+00  0.8409E+00  0.7148E+01  0.7148E+01
     10.405  0.8704E+00  0.8706E+00  0.7222E+01  0.7222E+01
     10.490  0.8235E+00  0.8248E+00  0.7293E+01  0.7293E+01
     10.576  0.8111E+00  0.8121E+00  0.7362E+01  0.7362E+01
     10.661  0.9558E+00  0.9553E+00  0.7444E+01  0.7444E+01
     10.747  0.8998E+00  0.8982E+00  0.7521E+01  0.7521E+01
     10.832  0.6992E+00  0.6990E+00  0.7580E+01  0.7581E+01
     10.918  0.7078E+00  0.7090E+00  0.7641E+01  0.7641E+01
     11.003  0.7710E+00  0.7705E+00  0.7707E+01  0.7707E+01
     11.089  0.7487E+00  0.7483E+00  0.7771E+01  0.7771E+01
     11.174  0.7682E+00  0.7692E+00  0.7837E+01  0.7837E+01
     11.259  0.8958E+00  0.8972E+00  0.7913E+01  0.7914E+01
     11.345  0.1028E+01  0.1027E+01  0.8001E+01  0.8002E+01
     11.430  0.9228E+00  0.9205E+00  0.8080E+01  0.8080E+01
     11.516  0.8299E+00  0.8286E+00  0.8151E+01  0.8151E+01
     11.601  0.7327E+00  0.7325E+00  0.8214E+01  0.8214E+01
     11.687  0.8440E+00  0.8456E+00  0.8286E+01  0.8286E+01
     11.772  0.9076E+00  0.9094E+00  0.8364E+01  0.8364E+01
     11.858  0.7824E+00  0.7823E+00  0.8431E+01  0.8431E+01
     11.943  0.7370E+00  0.7372E+00  0.8494E+01  0.8494E+01
     12.029  0.6712E+00  0.6702E+00  0.8551E+01  0.8552E+01
     12.114  0.6893E+00  0.6872E+00  0.8610E+01  0.8610E+01
     12.200  0.8123E+00  0.8115E+00  0.8680E+01  0.8680E+01
     12.285  0.8987E+00  0.9013E+00  0.8757E+01  0.8757E+01
     12.371  0.9001E+00  0.9015E+00  0.8834E+01  0.8834E+01
     12.456  0.7151E+00  0.7133E+00  0.8895E+01  0.8895E+01
     12.542  0.6334E+00  0.6327E+00  0.8949E+01  0.8949E+01
     12.627  0.6311E+00  0.6317E+00  0.9003E+01  0.9003E+01
     12.713  0.6513E+00  0.6511E+00  0.9059E+01  0.9059E+01
     12.798  0.8053E+00  0.8052E+00  0.9128E+01  0.9128E+01
     12.883  0.9084E+00  0.9064E+00  0.9205E+01  0.9205E+01
     12.969  0.9030E+00  0.9009E+00  0.9282E+01  0.9282E+01
     13.054  0.8620E+00  0.8616E+00  0.9356E+01  0.9356E+01
     13.140  0.8601E+00  0.8606E+00  0.9430E+01  0.9430E+01
     13.225  0.1004E+01  0.1006E+01  0.9516E+01  0.9516E+01
     13.311  0.1121E+01  0.1120E+01  0.9612E+01  0.9612E+01
     13.396  0.1096E+01  0.1094E+01  0.9705E+01  0.9705E+01
     13.482  0.9241E+00  0.9251E+00  0.9784E+01  0.9784E+01
     13.567  0.7116E+00  0.7117E+00  0.9845E+01  0.9845E+01
     13.653  0.6863E+00  0.6848E+00  0.9904E+01  0.9904E+01
     13.738  0.8221E+00  0.8195E+00  0.9974E+01  0.9974E+01
     13.824  0.1022E+01  0.1022E+01  0.1006E+02  0.1006E+02
     13.909  0.1050E+01  0.1052E+01  0.1015E+02  0.1015E+02
     13.995  0.8179E+00  0.8188E+00  0.1022E+02  0.1022E+02
     14.080  0.6977E+00  0.6968E+00  0.1028E+02  0.1028E+02
     14.166  0.6931E+00  0.6930E+00  0.1034E+02  0.1034E+02
     14.251  0.6422E+00  0.6434E+00  0.1040E+02  0.1040E+02
     14.337  0.7167E+00  0.7173E+00  0.1046E+02  0.1046E+02
     14.422  0.8602E+00  0.8597E+00  0.1053E+02  0.1053E+02
     14.507  0.9928E+00  0.9899E+00  0.1062E+02  0.1061E+02
     14.593  0.1122E+01  0.1120E+01  0.1071E+02  0.1071E+02
     14.678  0.1244E+01  0.1246E+01  0.1082E+02  0.1082E+02
     14.764  0.1129E+01  0.1130E+01  0.1091E+02  0.1091E+02
     14.849  0.9752E+00  0.9723E+00  0.1100E+02  0.1100E+02
     14.935  0.9214E+00  0.9215E+00  0.1108E+02  0.1108E+02
     15.020  0.7418E+00  0.7461E+00  0.1114E+02  0.1114E+02
     15.106  0.5031E+00  0.5065E+00  0.1118E+02  0.1118E+02
     15.191  0.4069E+00  0.4084E+00  0.1122E+02  0.1122E+02
     15.277  0.4255E+00  0.4264E+00  0.1125E+02  0.1125E+02
     15.362  0.4697E+00  0.4681E+00  0.1129E+02  0.1129E+02
     15.448  0.5707E+00  0.5677E+00  0.1134E+02  0.1134E+02
     15.533  0.6547E+00  0.6538E+00  0.1140E+02  0.1140E+02
     15.619  0.5083E+00  0.5102E+00  0.1144E+02  0.1144E+02
     15.704  0.3022E+00  0.3037E+00  0.1147E+02  0.1147E+02
     15.790  0.2294E+00  0.2299E+00  0.1149E+02  0.1149E+02
     15.875  0.2730E+00  0.2725E+00  0.1151E+02  0.1151E+02
     15.960  0.3127E+00  0.3120E+00  0.1154E+02  0.1154E+02
     16.046  0.2840E+00  0.2904E+00  0.1156E+02  0.1156E+02
     16.131  0.2356E+00  0.2406E+00  0.1158E+02  0.1158E+02
     16.217  0.2203E+00  0.2154E+00  0.1160E+02  0.1160E+02
     16.302  0.2412E+00  0.2442E+00  0.1162E+02  0.1162E+02
     16.388  0.2927E+00  0.3107E+00  0.1165E+02  0.1165E+02
     16.473  0.3053E+00  0.3144E+00  0.1167E+02  0.1168E+02
     16.559  0.2765E+00  0.2564E+00  0.1170E+02  0.1170E+02
     16.644  0.1833E+00  0.1709E+00  0.1171E+02  0.1171E+02
     16.730  0.1397E+00  0.1356E+00  0.1172E+02  0.1172E+02
     16.815  0.2186E+00  0.2131E+00  0.1174E+02  0.1174E+02
     16.901  0.2885E+00  0.2778E+00  0.1177E+02  0.1177E+02
     16.986  0.2113E+00  0.2166E+00  0.1179E+02  0.1179E+02
     17.072  0.1127E+00  0.1211E+00  0.1180E+02  0.1180E+02
     17.157  0.1686E+00  0.1705E+00  0.1181E+02  0.1181E+02
     17.243  0.2010E+00  0.2019E+00  0.1183E+02  0.1183E+02
     17.328  0.1040E+00  0.1048E+00  0.1184E+02  0.1184E+02
     17.414  0.1034E+00  0.1035E+00  0.1185E+02  0.1185E+02
     17.499  0.1664E+00  0.1653E+00  0.1186E+02  0.1186E+02
     17.584  0.1778E+00  0.1770E+00  0.1187E+02  0.1187E+02
     17.670  0.1562E+00  0.1573E+00  0.1189E+02  0.1189E+02
     17.755  0.1310E+00  0.1316E+00  0.1190E+02  0.1190E+02
     17.841  0.7333E-01  0.7349E-01  0.1191E+02  0.1191E+02
     17.926  0.8026E-01  0.8016E-01  0.1191E+02  0.1191E+02
     18.012  0.1219E+00  0.1219E+00  0.1192E+02  0.1192E+02
     18.097  0.6931E-01  0.6947E-01  0.1193E+02  0.1193E+02
     18.183  0.1911E-01  0.1919E-01  0.1193E+02  0.1193E+02
     18.268  0.1074E-01  0.1080E-01  0.1193E+02  0.1193E+02
     18.354  0.3288E-01  0.3301E-01  0.1193E+02  0.1193E+02
     18.439  0.8237E-01  0.8227E-01  0.1194E+02  0.1194E+02
     18.525  0.8704E-01  0.8681E-01  0.1195E+02  0.1195E+02
     18.610  0.4283E-01  0.4266E-01  0.1195E+02  0.1195E+02
     18.696  0.3752E-01  0.3640E-01  0.1196E+02  0.1196E+02
     18.781  0.7536E-01  0.7086E-01  0.1196E+02  0.1196E+02
     18.867  0.1069E+00  0.9895E-01  0.1197E+02  0.1197E+02
     18.952  0.1044E+00  0.1082E+00  0.1198E+02  0.1198E+02
     19.038  0.4733E-01  0.5457E-01  0.1198E+02  0.1198E+02
     19.123  0.1200E-01  0.1426E-01  0.1199E+02  0.1199E+02
     19.208  0.5238E-02  0.5673E-02  0.1199E+02  0.1199E+02
     19.294  0.1418E-01  0.1423E-01  0.1199E+02  0.1199E+02
     19.379  0.3488E-01  0.3511E-01  0.1199E+02  0.1199E+02
     19.465  0.3554E-01  0.3649E-01  0.1199E+02  0.1199E+02
     19.550  0.2504E-01  0.2506E-01  0.1200E+02  0.1200E+02
     19.636  0.1125E-01  0.1048E-01  0.1200E+02  0.1200E+02
     19.721  0.2771E-02  0.2492E-02  0.1200E+02  0.1200E+02
     19.807  0.6179E-03  0.5292E-03  0.1200E+02  0.1200E+02
     19.892  0.8550E-03  0.6778E-03  0.1200E+02  0.1200E+02
     19.978  0.3787E-02  0.3037E-02  0.1200E+02  0.1200E+02
     20.063  0.1266E-01  0.1111E-01  0.1200E+02  0.1200E+02
     20.149  0.1636E-01  0.1698E-01  0.1200E+02  0.1200E+02
     20.234  0.6922E-02  0.8288E-02  0.1200E+02  0.1200E+02
     20.320  0.1568E-02  0.1983E-02  0.1200E+02  0.1200E+02
     20.405  0.2967E-03  0.3801E-03  0.1200E+02  0.1200E+02
     20.491  0.0000E+00  0.6951E-04  0.1200E+02  0.1200E+02
     20.576  0.0000E+00  0.0000E+00  0.1200E+02  0.1200E+02
     20.662  0.0000E+00  0.0000E+00  0.1200E+02  0.1200E+02
     20.747  0.0000E+00  0.0000E+00  0.1200E+02  0.1200E+02
     20.832  0.0000E+00  0.0000E+00  0.1200E+02  0.1200E+02
     20.918  0.0000E+00  0.0000E+00  0.1200E+02  0.1200E+02
     21.003  0.0000E+00  0.0000E+00  0.1200E+02  0.1200E+02
     21.089  0.0000E+00  0.0000E+00  0.1200E+02  0.1200E+02
     21.174  0.0000E+00  0.0000E+00  0.1200E+02  0.1200E+02
     21.260  0.0000E+00  0.0000E+00  0.1200E+02  0.1200E+02
     21.25981481     -4.38206580  301      7.38506245      1.00000000
     -4.382  0.0000E+00  0.0000E+00  0.0000E+00  0.0000E+00  0.0000E+00  0.0000E+00  0.0000E+00  0.0000E+00  0.0000E+00  0.0000E+00  0.0000E+00  0.0000E+00  0.0000E+00  0.0000E+00  0.0000E+00  0.0000E+00  0.0000E+00  0.0000E+00
     -4.297  0.0000E+00  0.0000E+00  0.0000E+00  0.0000E+00  0.0000E+00  0.0000E+00  0.0000E+00  0.0000E+00  0.0000E+00  0.0000E+00  0.0000E+00  0.0000E+00  0.0000E+00  0.0000E+00  0.0000E+00  0.0000E+00  0.0000E+00  0.0000E+00
     -4.211  0.0000E+00  0.0000E+00  0.0000E+00  0.0000E+00  0.0000E+00  0.0000E+00  0.0000E+00  0.0000E+00  0.0000E+00  0.0000E+00  0.0000E+00  0.0000E+00  0.0000E+00  0.0000E+00  0.0000E+00  0.0000E+00  0.0000E+00  0.0000E+00
     -4.126  0.0000E+00  0.0000E+00  0.0000E+00  0.0000E+00  0.0000E+00  0.0000E+00  0.0000E+00  0.0000E+00  0.0000E+00  0.0000E+00  0.0000E+00  0.0000E+00  0.0000E+00  0.0000E+00  0.0000E+00  0.0000E+00  0.0000E+00  0.0000E+00
     -4.040  0.0000E+00  0.0000E+00  0.0000E+00  0.0000E+00  0.0000E+00  0.0000E+00  0.0000E+00  0.0000E+00  0.0000E+00  0.0000E+00  0.0000E+00  0.0000E+00  0.0000E+00  0.0000E+00  0.0000E+00  0.0000E+00  0.0000E+00  0.0000E+00
     -3.955  0.0000E+00  0.0000E+00  0.0000E+00  0.0000E+00  0.0000E+00  0.0000E+00  0.0000E+00  0.0000E+00  0.0000E+00  0.0000E+00  0.0000E+00  0.0000E+00  0.0000E+00  0.0000E+00  0.0000E+00  0.0000E+00  0.0000E+00  0.0000E+00
     -3.869  0.0000E+00  0.0000E+00  0.0000E+00  0.0000E+00  0.0000E+00  0.0000E+00  0.0000E+00  0.0000E+00  0.0000E+00  0.0000E+00  0.0000E+00  0.0000E+00  0.0000E+00  0.0000E+00  0.0000E+00  0.0000E+00  0.0000E+00  0.0000E+00
     -3.784  0.0000E+00  0.0000E+00  0.0000E+00  0.0000E+00  0.0000E+00  0.0000E+00  0.0000E+00  0.0000E+00  0.0000E+00  0.0000E+00  0.0000E+00  0.0000E+00  0.0000E+00  0.0000E+00  0.0000E+00  0.0000E+00  0.0000E+00  0.0000E+00
     -3.698  0.9810E-08  0.1000E-07  0.4886E-26  0.2536E-24  0.4886E-26  0.2536E-24  0.8913E-27  0.9369E-24  0.0000E+00  0.0000E+00  0.0000E+00  0.0000E+00  0.0000E+00  0.0000E+00  0.0000E+00  0.0000E+00  0.0000E+00  0.0000E+00
     -3.613  0.1550E-06  0.1580E-06  0.5417E-09  0.5522E-09  0.5417E-09  0.5522E-09  0.5413E-09  0.5518E-09  0.0000E+00  0.0000E+00  0.0000E+00  0.0000E+00  0.0000E+00  0.0000E+00  0.0000E+00  0.0000E+00  0.0000E+00  0.0000E+00
     -3.527  0.1255E-05  0.1279E-05  0.7927E-08  0.8082E-08  0.7927E-08  0.8082E-08  0.7923E-08  0.8079E-08  0.0000E+00  0.0000E+00  0.0000E+00  0.0000E+00  0.0000E+00  0.0000E+00  0.0000E+00  0.0000E+00  0.0000E+00  0.0000E+00
     -3.442  0.6533E-05  0.6660E-05  0.4107E-07  0.4187E-07  0.4107E-07  0.4187E-07  0.4104E-07  0.4184E-07  0.0000E+00  0.0000E+00  0.0000E+00  0.0000E+00  0.0000E+00  0.0000E+00  0.0000E+00  0.0000E+00  0.0000E+00  0.0000E+00
     -3.356  0.3654E-04  0.3724E-04  0.2587E-06  0.2637E-06  0.2587E-06  0.2637E-06  0.2585E-06  0.2635E-06  0.0000E+00  0.0000E+00  0.0000E+00  0.0000E+00  0.0000E+00  0.0000E+00  0.0000E+00  0.0000E+00  0.0000E+00  0.0000E+00
     -3.271  0.1810E-03  0.1841E-03  0.1334E-05  0.1359E-05  0.1334E-05  0.1359E-05  0.1333E-05  0.1358E-05  0.0000E+00  0.0000E+00  0.0000E+00  0.0000E+00  0.0000E+00  0.0000E+00  0.0000E+00  0.0000E+00  0.0000E+00  0.0000E+00
     -3.185  0.6875E-03  0.6962E-03  0.6039E-05  0.6132E-05  0.6039E-05  0.6132E-05  0.6035E-05  0.6128E-05  0.0000E+00  0.0000E+00  0.0000E+00  0.0000E+00  0.0000E+00  0.0000E+00  0.0000E+00  0.0000E+00  0.0000E+00  0.0000E+00
     -3.100  0.1581E-02  0.1591E-02  0.1901E-04  0.1921E-04  0.1901E-04  0.1921E-04  0.1900E-04  0.1920E-04  0.0000E+00  0.0000E+00  0.0000E+00  0.0000E+00  0.0000E+00  0.0000E+00  0.0000E+00  0.0000E+00  0.0000E+00  0.0000E+00
     -3.014  0.2336E-02  0.2344E-02  0.4296E-04  0.4332E-04  0.4296E-04  0.4332E-04  0.4292E-04  0.4328E-04  0.0000E+00  0.0000E+00  0.0000E+00  0.0000E+00  0.0000E+00  0.0000E+00  0.0000E+00  0.0000E+00  0.0000E+00  0.0000E+00
     -2.929  0.3177E-02  0.3186E-02  0.8222E-04  0.8265E-04  0.8222E-04  0.8265E-04  0.8218E-04  0.8261E-04  0.0000E+00  0.0000E+00  0.0000E+00  0.0000E+00  0.0000E+00  0.0000E+00  0.0000E+00  0.0000E+00  0.0000E+00  0.0000E+00
     -2.844  0.3394E-02  0.3392E-02  0.1115E-03  0.1117E-03  0.1115E-03  0.1117E-03  0.1114E-03  0.1116E-03  0.0000E+00  0.0000E+00  0.0000E+00  0.0000E+00  0.0000E+00  0.0000E+00  0.0000E+00  0.0000E+00  0.0000E+00  0.0000E+00
     -2.758  0.3574E-02  0.3584E-02  0.1595E-03  0.1603E-03  0.1595E-03  0.1603E-03  0.1592E-03  0.1601E-03  0.0000E+00  0.0000E+00  0.0000E+00  0.0000E+00  0.0000E+00  0.0000E+00  0.0000E+00  0.0000E+00  0.0000E+00  0.0000E+00
     -2.673  0.4432E-02  0.4437E-02  0.2396E-03  0.2402E-03  0.2396E-03  0.2402E-03  0.2394E-03  0.2400E-03  0.0000E+00  0.0000E+00  0.0000E+00  0.0000E+00  0.0000E+00  0.0000E+00  0.0000E+00  0.0000E+00  0.0000E+00  0.0000E+00
     -2.587  0.4346E-02  0.4343E-02  0.2745E-03  0.2748E-03  0.2745E-03  0.2748E-03  0.2745E-03  0.2748E-03  0.0000E+00  0.0000E+00  0.0000E+00  0.0000E+00  0.0000E+00  0.0000E+00  0.0000E+00  0.0000E+00  0.0000E+00  0.0000E+00
     -2.502  0.4482E-02  0.4487E-02  0.3343E-03  0.3352E-03  0.3343E-03  0.3352E-03  0.3341E-03  0.3350E-03  0.0000E+00  0.0000E+00  0.0000E+00  0.0000E+00  0.0000E+00  0.0000E+00  0.0000E+00  0.0000E+00  0.0000E+00  0.0000E+00
     -2.416  0.4517E-02  0.4512E-02  0.3902E-03  0.3904E-03  0.3902E-03  0.3904E-03  0.3896E-03  0.3898E-03  0.0000E+00  0.0000E+00  0.0000E+00  0.0000E+00  0.0000E+00  0.0000E+00  0.0000E+00  0.0000E+00  0.0000E+00  0.0000E+00
     -2.331  0.4497E-02  0.4507E-02  0.4743E-03  0.4760E-03  0.4743E-03  0.4760E-03  0.4733E-03  0.4750E-03  0.0000E+00  0.0000E+00  0.0000E+00  0.0000E+00  0.0000E+00  0.0000E+00  0.0000E+00  0.0000E+00  0.0000E+00  0.0000E+00
     -2.245  0.5317E-02  0.5322E-02  0.6250E-03  0.6258E-03  0.6250E-03  0.6258E-03  0.6247E-03  0.6255E-03  0.0000E+00  0.0000E+00  0.0000E+00  0.0000E+00  0.0000E+00  0.0000E+00  0.0000E+00  0.0000E+00  0.0000E+00  0.0000E+00
     -2.160  0.5274E-02  0.5272E-02  0.6813E-03  0.6817E-03  0.6813E-03  0.6817E-03  0.6810E-03  0.6815E-03  0.0000E+00  0.0000E+00  0.0000E+00  0.0000E+00  0.0000E+00  0.0000E+00  0.0000E+00  0.0000E+00  0.0000E+00  0.0000E+00
     -2.074  0.4848E-02  0.4840E-02  0.6954E-03  0.6951E-03  0.6954E-03  0.6951E-03  0.6954E-03  0.6951E-03  0.0000E+00  0.0000E+00  0.0000E+00  0.0000E+00  0.0000E+00  0.0000E+00  0.0000E+00  0.0000E+00  0.0000E+00  0.0000E+00
     -1.989  0.4198E-02  0.4197E-02  0.7083E-03  0.7099E-03  0.7083E-03  0.7099E-03  0.7063E-03  0.7078E-03  0.0000E+00  0.0000E+00  0.0000E+00  0.0000E+00  0.0000E+00  0.0000E+00  0.0000E+00  0.0000E+00  0.0000E+00  0.0000E+00
     -1.903  0.4922E-02  0.4937E-02  0.1012E-02  0.1016E-02  0.1012E-02  0.1016E-02  0.1009E-02  0.1013E-02  0.0000E+00  0.0000E+00  0.0000E+00  0.0000E+00  0.0000E+00  0.0000E+00  0.0000E+00  0.0000E+00  0.0000E+00  0.0000E+00
     -1.818  0.5488E-02  0.5486E-02  0.1230E-02  0.1230E-02  0.1230E-02  0.1230E-02  0.1229E-02  0.1229E-02  0.0000E+00  0.0000E+00  0.0000E+00  0.0000E+00  0.0000E+00  0.0000E+00  0.0000E+00  0.0000E+00  0.0000E+00  0.0000E+00
     -1.732  0.4963E-02  0.4961E-02  0.1240E-02  0.1242E-02  0.1240E-02  0.1242E-02  0.1239E-02  0.1240E-02  0.0000E+00  0.0000E+00  0.0000E+00  0.0000E+00  0.0000E+00  0.0000E+00  0.0000E+00  0.0000E+00  0.0000E+00  0.0000E+00
     -1.647  0.4678E-02  0.4667E-02  0.1341E-02  0.1341E-02  0.1341E-02  0.1341E-02  0.1340E-02  0.1340E-02  0.0000E+00  0.0000E+00  0.0000E+00  0.0000E+00  0.0000E+00  0.0000E+00  0.0000E+00  0.0000E+00  0.0000E+00  0.0000E+00
     -1.561  0.3640E-02  0.3635E-02  0.1403E-02  0.1407E-02  0.1403E-02  0.1407E-02  0.1396E-02  0.1400E-02  0.0000E+00  0.0000E+00  0.0000E+00  0.0000E+00  0.0000E+00  0.0000E+00  0.0000E+00  0.0000E+00  0.0000E+00  0.0000E+00
     -1.476  0.4282E-02  0.4293E-02  0.1975E-02  0.1981E-02  0.1975E-02  0.1981E-02  0.1970E-02  0.1976E-02  0.0000E+00  0.0000E+00  0.0000E+00  0.0000E+00  0.0000E+00  0.0000E+00  0.0000E+00  0.0000E+00  0.0000E+00  0.0000E+00
     -1.391  0.4633E-02  0.4626E-02  0.2210E-02  0.2210E-02  0.2210E-02  0.2210E-02  0.2211E-02  0.2210E-02  0.0000E+00  0.0000E+00  0.0000E+00  0.0000E+00  0.0000E+00  0.0000E+00  0.0000E+00  0.0000E+00  0.0000E+00  0.0000E+00
     -1.305  0.3706E-02  0.3694E-02  0.2104E-02  0.2102E-02  0.2104E-02  0.2102E-02  0.2105E-02  0.2103E-02  0.0000E+00  0.0000E+00  0.0000E+00  0.0000E+00  0.0000E+00  0.0000E+00  0.0000E+00  0.0000E+00  0.0000E+00  0.0000E+00
     -1.220  0.2843E-02  0.2833E-02  0.1747E-02  0.1741E-02  0.1747E-02  0.1741E-02  0.1754E-02  0.1748E-02  0.0000E+00  0.0000E+00  0.0000E+00  0.0000E+00  0.0000E+00  0.0000E+00  0.0000E+00  0.0000E+00  0.0000E+00  0.0000E+00
     -1.134  0.2366E-02  0.2369E-02  0.1594E-02  0.1598E-02  0.1594E-02  0.1598E-02  0.1591E-02  0.1595E-02  0.0000E+00  0.0000E+00  0.0000E+00  0.0000E+00  0.0000E+00  0.0000E+00  0.0000E+00  0.0000E+00  0.0000E+00  0.0000E+00
     -1.049  0.3224E-02  0.3233E-02  0.2231E-02  0.2237E-02  0.2231E-02  0.2237E-02  0.2227E-02  0.2233E-02  0.0000E+00  0.0000E+00  0.0000E+00  0.0000E+00  0.0000E+00  0.0000E+00  0.0000E+00  0.0000E+00  0.0000E+00  0.0000E+00
     -0.963  0.3169E-02  0.3158E-02  0.2174E-02  0.2168E-02  0.2174E-02  0.2168E-02  0.2182E-02  0.2175E-02  0.0000E+00  0.0000E+00  0.0000E+00  0.0000E+00  0.0000E+00  0.0000E+00  0.0000E+00  0.0000E+00  0.0000E+00  0.0000E+00
     -0.878  0.2313E-02  0.2304E-02  0.1689E-02  0.1686E-02  0.1689E-02  0.1686E-02  0.1691E-02  0.1688E-02  0.0000E+00  0.0000E+00  0.0000E+00  0.0000E+00  0.0000E+00  0.0000E+00  0.0000E+00  0.0000E+00  0.0000E+00  0.0000E+00
     -0.792  0.1580E-02  0.1570E-02  0.1379E-02  0.1375E-02  0.1379E-02  0.1375E-02  0.1383E-02  0.1379E-02  0.0000E+00  0.0000E+00  0.0000E+00  0.0000E+00  0.0000E+00  0.0000E+00  0.0000E+00  0.0000E+00  0.0000E+00  0.0000E+00
     -0.707  0.1282E-02  0.1286E-02  0.1274E-02  0.1278E-02  0.1274E-02  0.1278E-02  0.1270E-02  0.1275E-02  0.0000E+00  0.0000E+00  0.0000E+00  0.0000E+00  0.0000E+00  0.0000E+00  0.0000E+00  0.0000E+00  0.0000E+00  0.0000E+00
     -0.621  0.2084E-02  0.2092E-02  0.2011E-02  0.2019E-02  0.2011E-02  0.2019E-02  0.2006E-02  0.2013E-02  0.0000E+00  0.0000E+00  0.0000E+00  0.0000E+00  0.0000E+00  0.0000E+00  0.0000E+00  0.0000E+00  0.0000E+00  0.0000E+00
     -0.536  0.2086E-02  0.2076E-02  0.2031E-02  0.2025E-02  0.2031E-02  0.2025E-02  0.2036E-02  0.2030E-02  0.0000E+00  0.0000E+00  0.0000E+00  0.0000E+00  0.0000E+00  0.0000E+00  0.0000E+00  0.0000E+00  0.0000E+00  0.0000E+00
     -0.450  0.1270E-02  0.1263E-02  0.1448E-02  0.1443E-02  0.1448E-02  0.1443E-02  0.1452E-02  0.1447E-02  0.0000E+00  0.0000E+00  0.0000E+00  0.0000E+00  0.0000E+00  0.0000E+00  0.0000E+00  0.0000E+00  0.0000E+00  0.0000E+00
     -0.365  0.8336E-03  0.8288E-03  0.9642E-03  0.9586E-03  0.9642E-03  0.9586E-03  0.9701E-03  0.9644E-03  0.0000E+00  0.0000E+00  0.0000E+00  0.0000E+00  0.0000E+00  0.0000E+00  0.0000E+00  0.0000E+00  0.0000E+00  0.0000E+00
     -0.279  0.7170E-03  0.7193E-03  0.8236E-03  0.8279E-03  0.8236E-03  0.8279E-03  0.8211E-03  0.8252E-03  0.0000E+00  0.0000E+00  0.0000E+00  0.0000E+00  0.0000E+00  0.0000E+00  0.0000E+00  0.0000E+00  0.0000E+00  0.0000E+00
     -0.194  0.1200E-02  0.1205E-02  0.1574E-02  0.1584E-02  0.1574E-02  0.1584E-02  0.1565E-02  0.1575E-02  0.0000E+00  0.0000E+00  0.0000E+00  0.0000E+00  0.0000E+00  0.0000E+00  0.0000E+00  0.0000E+00  0.0000E+00  0.0000E+00
     -0.108  0.1387E-02  0.1384E-02  0.1801E-02  0.1795E-02  0.1801E-02  0.1795E-02  0.1806E-02  0.1800E-02  0.0000E+00  0.0000E+00  0.0000E+00  0.0000E+00  0.0000E+00  0.0000E+00  0.0000E+00  0.0000E+00  0.0000E+00  0.0000E+00