   4   4   1   0
  0.1229730E+02  0.3663194E-09  0.3664417E-09  0.3664417E-09  0.5000000E-15
  1.000000000000000E-004
  CAR 
 unknown system                          
     24.03198752     -3.83090353  301      9.01176440      1.00000000
     -3.831  0.0000E+00  0.0000E+00  0.0000E+00  0.0000E+00
     -3.738  0.0000E+00  0.0000E+00  0.0000E+00  0.0000E+00
     -3.645  0.0000E+00  0.0000E+00  0.0000E+00  0.0000E+00
     -3.552  0.0000E+00  0.0000E+00  0.0000E+00  0.0000E+00
     -3.459  0.0000E+00  0.0000E+00  0.0000E+00  0.0000E+00
     -3.367  0.0000E+00  0.0000E+00  0.0000E+00  0.0000E+00
     -3.274  0.0000E+00  0.0000E+00  0.0000E+00  0.0000E+00
     -3.181  0.0000E+00  0.0000E+00  0.0000E+00  0.0000E+00
     -3.088  0.0000E+00  0.0000E+00  0.0000E+00  0.0000E+00
     -2.995  0.2546E-05  0.2553E-05  0.2365E-06  0.2371E-06
     -2.902  0.2035E-04  0.2041E-04  0.2127E-05  0.2132E-05
     -2.809  0.1343E-03  0.1346E-03  0.1460E-04  0.1464E-04
     -2.716  0.8512E-03  0.8533E-03  0.9365E-04  0.9388E-04
     -2.624  0.4956E-02  0.4968E-02  0.5540E-03  0.5553E-03
     -2.531  0.2137E-01  0.2141E-01  0.2539E-02  0.2544E-02
     -2.438  0.5234E-01  0.5238E-01  0.7400E-02  0.7408E-02
     -2.345  0.7747E-01  0.7750E-01  0.1460E-01  0.1461E-01
     -2.252  0.1099E+00  0.1100E+00  0.2480E-01  0.2482E-01
     -2.159  0.1191E+00  0.1191E+00  0.3587E-01  0.3588E-01
     -2.066  0.1250E+00  0.1250E+00  0.4748E-01  0.4749E-01
     -1.973  0.1668E+00  0.1668E+00  0.6298E-01  0.6300E-01
     -1.881  0.1652E+00  0.1652E+00  0.7833E-01  0.7835E-01
     -1.788  0.1737E+00  0.1737E+00  0.9448E-01  0.9450E-01
     -1.695  0.1855E+00  0.1855E+00  0.1117E+00  0.1117E+00
     -1.602  0.1844E+00  0.1845E+00  0.1289E+00  0.1289E+00
     -1.509  0.2351E+00  0.2351E+00  0.1507E+00  0.1507E+00
     -1.416  0.2401E+00  0.2401E+00  0.1730E+00  0.1730E+00
     -1.323  0.2326E+00  0.2325E+00  0.1946E+00  0.1947E+00
     -1.230  0.2029E+00  0.2029E+00  0.2135E+00  0.2135E+00
     -1.137  0.2556E+00  0.2557E+00  0.2373E+00  0.2373E+00
     -1.045  0.3177E+00  0.3177E+00  0.2668E+00  0.2668E+00
     -0.952  0.2927E+00  0.2927E+00  0.2940E+00  0.2941E+00
     -0.859  0.3107E+00  0.3106E+00  0.3229E+00  0.3229E+00
     -0.766  0.2692E+00  0.2691E+00  0.3479E+00  0.3479E+00
     -0.673  0.3531E+00  0.3532E+00  0.3807E+00  0.3808E+00
     -0.580  0.4215E+00  0.4215E+00  0.4199E+00  0.4199E+00
     -0.487  0.3858E+00  0.3858E+00  0.4558E+00  0.4558E+00
     -0.394  0.3222E+00  0.3221E+00  0.4858E+00  0.4858E+00
     -0.302  0.2506E+00  0.2506E+00  0.5091E+00  0.5091E+00
     -0.209  0.3574E+00  0.3575E+00  0.5423E+00  0.5423E+00
     -0.116  0.4064E+00  0.4064E+00  0.5801E+00  0.5801E+00
     -0.023  0.2974E+00  0.2973E+00  0.6077E+00  0.6077E+00
      0.070  0.2502E+00  0.2502E+00  0.6310E+00  0.6310E+00
      0.163  0.1812E+00  0.1812E+00  0.6478E+00  0.6478E+00
      0.256  0.2943E+00  0.2944E+00  0.6752E+00  0.6752E+00
      0.349  0.3750E+00  0.3750E+00  0.7100E+00  0.7101E+00
      0.441  0.2616E+00  0.2616E+00  0.7344E+00  0.7344E+00
      0.534  0.1840E+00  0.1840E+00  0.7515E+00  0.7515E+00
      0.627  0.1138E+00  0.1138E+00  0.7621E+00  0.7621E+00
      0.720  0.2071E+00  0.2072E+00  0.7814E+00  0.7814E+00
      0.813  0.3367E+00  0.3367E+00  0.8126E+00  0.8127E+00
      0.906  0.2286E+00  0.2286E+00  0.8339E+00  0.8339E+00
      0.999  0.1799E+00  0.1799E+00  0.8506E+00  0.8506E+00
      1.092  0.2169E+00  0.2169E+00  0.8708E+00  0.8708E+00
      1.184  0.2808E+00  0.2809E+00  0.8969E+00  0.8969E+00
      1.277  0.3826E+00  0.3826E+00  0.9324E+00  0.9325E+00
      1.370  0.3555E+00  0.3554E+00  0.9654E+00  0.9655E+00
      1.463  0.2884E+00  0.2884E+00  0.9922E+00  0.9923E+00
      1.556  0.2835E+00  0.2835E+00  0.1019E+01  0.1019E+01
      1.649  0.3010E+00  0.3011E+00  0.1047E+01  0.1047E+01
      1.742  0.4255E+00  0.4256E+00  0.1086E+01  0.1086E+01
      1.835  0.4630E+00  0.4630E+00  0.1129E+01  0.1129E+01
      1.927  0.4449E+00  0.4448E+00  0.1170E+01  0.1171E+01
      2.020  0.3653E+00  0.3652E+00  0.1204E+01  0.1204E+01
      2.113  0.3628E+00  0.3628E+00  0.1238E+01  0.1238E+01
      2.206  0.4779E+00  0.4779E+00  0.1283E+01  0.1283E+01
      2.299  0.5134E+00  0.5133E+00  0.1330E+01  0.1330E+01
      2.392  0.4762E+00  0.4760E+00  0.1375E+01  0.1375E+01
      2.485  0.4063E+00  0.4063E+00  0.1412E+01  0.1412E+01
      2.578  0.4684E+00  0.4685E+00  0.1456E+01  0.1456E+01
      2.670  0.6629E+00  0.6630E+00  0.1518E+01  0.1518E+01
      2.763  0.5416E+00  0.5415E+00  0.1568E+01  0.1568E+01
      2.856  0.4534E+00  0.4533E+00  0.1610E+01  0.1610E+01
      2.949  0.4387E+00  0.4387E+00  0.1651E+01  0.1651E+01
      3.042  0.4683E+00  0.4683E+00  0.1694E+01  0.1694E+01
      3.135  0.4557E+00  0.4557E+00  0.1737E+01  0.1737E+01
      3.228  0.4326E+00  0.4327E+00  0.1777E+01  0.1777E+01
      3.321  0.4652E+00  0.4652E+00  0.1820E+01  0.1820E+01
      3.413  0.4597E+00  0.4597E+00  0.1863E+01  0.1863E+01
      3.506  0.4023E+00  0.4022E+00  0.1900E+01  0.1900E+01
      3.599  0.3908E+00  0.3908E+00  0.1937E+01  0.1937E+01
      3.692  0.3735E+00  0.3735E+00  0.1971E+01  0.1971E+01
      3.785  0.4020E+00  0.4021E+00  0.2009E+01  0.2009E+01
      3.878  0.5593E+00  0.5594E+00  0.2061E+01  0.2061E+01
      3.971  0.6137E+00  0.6137E+00  0.2118E+01  0.2118E+01
      4.064  0.5106E+00  0.5104E+00  0.2165E+01  0.2165E+01
      4.156  0.4414E+00  0.4414E+00  0.2206E+01  0.2206E+01
      4.249  0.3734E+00  0.3733E+00  0.2241E+01  0.2241E+01
      4.342  0.3535E+00  0.3536E+00  0.2274E+01  0.2274E+01
      4.435  0.4420E+00  0.4421E+00  0.2315E+01  0.2315E+01
      4.528  0.4772E+00  0.4774E+00  0.2359E+01  0.2359E+01
      4.621  0.5655E+00  0.5658E+00  0.2412E+01  0.2412E+01
      4.714  0.6032E+00  0.6032E+00  0.2468E+01  0.2468E+01
      4.807  0.6893E+00  0.6892E+00  0.2532E+01  0.2532E+01
      4.899  0.6348E+00  0.6345E+00  0.2591E+01  0.2591E+01
      4.992  0.4590E+00  0.4591E+00  0.2634E+01  0.2634E+01
      5.085  0.5394E+00  0.5400E+00  0.2684E+01  0.2684E+01
      5.178  0.6952E+00  0.6954E+00  0.2749E+01  0.2749E+01
      5.271  0.6735E+00  0.6729E+00  0.2811E+01  0.2811E+01
      5.364  0.6051E+00  0.6048E+00  0.2867E+01  0.2868E+01
      5.457  0.5687E+00  0.5686E+00  0.2920E+01  0.2920E+01
      5.550  0.4890E+00  0.4892E+00  0.2966E+01  0.2966E+01
      5.642  0.6302E+00  0.6305E+00  0.3024E+01  0.3025E+01
      5.735  0.7223E+00  0.7222E+00  0.3092E+01  0.3092E+01
      5.828  0.6638E+00  0.6638E+00  0.3153E+01  0.3153E+01
      5.921  0.5243E+00  0.5239E+00  0.3202E+01  0.3202E+01
      6.014  0.3749E+00  0.3746E+00  0.3237E+01  0.3237E+01
      6.107  0.4594E+00  0.4594E+00  0.3280E+01  0.3280E+01
      6.200  0.6414E+00  0.6416E+00  0.3339E+01  0.3339E+01
      6.293  0.5987E+00  0.5989E+00  0.3395E+01  0.3395E+01
      6.385  0.6076E+00  0.6078E+00  0.3451E+01  0.3451E+01
      6.478  0.6716E+00  0.6715E+00  0.3514E+01  0.3514E+01
      6.571  0.6524E+00  0.6523E+00  0.3574E+01  0.3574E+01
      6.664  0.7160E+00  0.7159E+00  0.3641E+01  0.3641E+01
      6.757  0.7229E+00  0.7228E+00  0.3708E+01  0.3708E+01
      6.850  0.5591E+00  0.5588E+00  0.3760E+01  0.3760E+01
      6.943  0.5072E+00  0.5072E+00  0.3807E+01  0.3807E+01
      7.036  0.5360E+00  0.5361E+00  0.3857E+01  0.3857E+01
      7.129  0.5509E+00  0.5509E+00  0.3908E+01  0.3909E+01
      7.221  0.5617E+00  0.5617E+00  0.3961E+01  0.3961E+01
      7.314  0.5209E+00  0.5208E+00  0.4009E+01  0.4009E+01
      7.407  0.5789E+00  0.5788E+00  0.4063E+01  0.4063E+01
      7.500  0.6138E+00  0.6136E+00  0.4120E+01  0.4120E+01
      7.593  0.5783E+00  0.5784E+00  0.4174E+01  0.4174E+01
      7.686  0.6657E+00  0.6658E+00  0.4236E+01  0.4236E+01
      7.779  0.6409E+00  0.6408E+00  0.4295E+01  0.4295E+01
      7.872  0.4899E+00  0.4898E+00  0.4341E+01  0.4341E+01
      7.964  0.4085E+00  0.4085E+00  0.4379E+01  0.4379E+01
      8.057  0.4421E+00  0.4423E+00  0.4420E+01  0.4420E+01
      8.150  0.4384E+00  0.4384E+00  0.4461E+01  0.4461E+01
      8.243  0.4759E+00  0.4759E+00  0.4505E+01  0.4505E+01
      8.336  0.5792E+00  0.5794E+00  0.4559E+01  0.4559E+01
      8.429  0.6587E+00  0.6586E+00  0.4620E+01  0.4620E+01
      8.522  0.6757E+00  0.6758E+00  0.4683E+01  0.4683E+01
      8.615  0.5857E+00  0.5857E+00  0.4737E+01  0.4737E+01
      8.707  0.6821E+00  0.6823E+00  0.4800E+01  0.4801E+01
      8.800  0.8434E+00  0.8435E+00  0.4879E+01  0.4879E+01
      8.893  0.6935E+00  0.6934E+00  0.4943E+01  0.4943E+01
      8.986  0.4976E+00  0.4973E+00  0.4990E+01  0.4990E+01
      9.079  0.3594E+00  0.3593E+00  0.5023E+01  0.5023E+01
      9.172  0.3664E+00  0.3666E+00  0.5057E+01  0.5057E+01
      9.265  0.5453E+00  0.5457E+00  0.5108E+01  0.5108E+01
      9.358  0.6720E+00  0.6721E+00  0.5170E+01  0.5170E+01
      9.450  0.8290E+00  0.8290E+00  0.5247E+01  0.5247E+01
      9.543  0.9098E+00  0.9097E+00  0.5332E+01  0.5332E+01
      9.636  0.6419E+00  0.6415E+00  0.5392E+01  0.5392E+01
      9.729  0.5389E+00  0.5389E+00  0.5442E+01  0.5442E+01
      9.822  0.6364E+00  0.6366E+00  0.5501E+01  0.5501E+01
      9.915  0.5981E+00  0.5982E+00  0.5556E+01  0.5557E+01
     10.008  0.5763E+00  0.5765E+00  0.5610E+01  0.5610E+01
     10.101  0.6991E+00  0.6996E+00  0.5675E+01  0.5675E+01
     10.193  0.7691E+00  0.7691E+00  0.5747E+01  0.5747E+01
     10.286  0.6519E+00  0.6516E+00  0.5807E+01  0.5807E+01
     10.379  0.5223E+00  0.5222E+00  0.5856E+01  0.5856E+01
     10.472  0.6104E+00  0.6105E+00  0.5912E+01  0.5913E+01
     10.565  0.6255E+00  0.6254E+00  0.5971E+01  0.5971E+01
     10.658  0.5526E+00  0.5522E+00  0.6022E+01  0.6022E+01
     10.751  0.4838E+00  0.4838E+00  0.6067E+01  0.6067E+01
     10.844  0.5010E+00  0.5008E+00  0.6114E+01  0.6114E+01
     10.936  0.4628E+00  0.4628E+00  0.6157E+01  0.6157E+01
     11.029  0.6285E+00  0.6289E+00  0.6215E+01  0.6215E+01
     11.122  0.7249E+00  0.7246E+00  0.6282E+01  0.6282E+01
     11.215  0.7207E+00  0.7207E+00  0.6349E+01  0.6349E+01
     11.308  0.7380E+00  0.7380E+00  0.6418E+01  0.6418E+01
     11.401  0.8009E+00  0.8012E+00  0.6492E+01  0.6492E+01
     11.494  0.8943E+00  0.8942E+00  0.6575E+01  0.6576E+01
     11.587  0.9775E+00  0.9776E+00  0.6666E+01  0.6666E+01
     11.679  0.1112E+01  0.1112E+01  0.6770E+01  0.6770E+01
     11.772  0.1061E+01  0.1061E+01  0.6868E+01  0.6868E+01
     11.865  0.6627E+00  0.6623E+00  0.6930E+01  0.6930E+01
     11.958  0.4195E+00  0.4194E+00  0.6969E+01  0.6969E+01
     12.051  0.5128E+00  0.5128E+00  0.7017E+01  0.7017E+01
     12.144  0.6053E+00  0.6055E+00  0.7073E+01  0.7073E+01
     12.237  0.6672E+00  0.6673E+00  0.7135E+01  0.7135E+01
     12.330  0.7429E+00  0.7431E+00  0.7204E+01  0.7204E+01
     12.422  0.8917E+00  0.8917E+00  0.7287E+01  0.7287E+01
     12.515  0.7567E+00  0.7565E+00  0.7357E+01  0.7357E+01
     12.608  0.7266E+00  0.7266E+00  0.7425E+01  0.7425E+01
     12.701  0.7216E+00  0.7216E+00  0.7492E+01  0.7492E+01
     12.794  0.7251E+00  0.7257E+00  0.7559E+01  0.7559E+01
     12.887  0.8606E+00  0.8606E+00  0.7639E+01  0.7639E+01
     12.980  0.7271E+00  0.7268E+00  0.7707E+01  0.7707E+01
     13.073  0.7049E+00  0.7049E+00  0.7772E+01  0.7772E+01
     13.165  0.8187E+00  0.8185E+00  0.7848E+01  0.7849E+01
     13.258  0.7618E+00  0.7616E+00  0.7919E+01  0.7919E+01
     13.351  0.6787E+00  0.6789E+00  0.7982E+01  0.7982E+01
     13.444  0.7378E+00  0.7374E+00  0.8051E+01  0.8051E+01
     13.537  0.7079E+00  0.7077E+00  0.8117E+01  0.8117E+01
     13.630  0.6644E+00  0.6650E+00  0.8179E+01  0.8179E+01
     13.723  0.7811E+00  0.7811E+00  0.8251E+01  0.8251E+01
     13.816  0.7745E+00  0.7748E+00  0.8323E+01  0.8323E+01
     13.908  0.7279E+00  0.7278E+00  0.8391E+01  0.8391E+01
     14.001  0.5718E+00  0.5713E+00  0.8444E+01  0.8444E+01
     14.094  0.5379E+00  0.5375E+00  0.8494E+01  0.8494E+01
     14.187  0.5721E+00  0.5721E+00  0.8547E+01  0.8547E+01
     14.280  0.6564E+00  0.6563E+00  0.8608E+01  0.8608E+01
     14.373  0.7431E+00  0.7431E+00  0.8677E+01  0.8677E+01
     14.466  0.8472E+00  0.8475E+00  0.8756E+01  0.8756E+01
     14.559  0.7633E+00  0.7632E+00  0.8827E+01  0.8827E+01
     14.651  0.6639E+00  0.6643E+00  0.8889E+01  0.8889E+01
     14.744  0.5950E+00  0.5952E+00  0.8944E+01  0.8944E+01
     14.837  0.5941E+00  0.5931E+00  0.8999E+01  0.8999E+01
     14.930  0.8159E+00  0.8154E+00  0.9075E+01  0.9075E+01
     15.023  0.8279E+00  0.8283E+00  0.9152E+01  0.9152E+01
     15.116  0.7020E+00  0.7028E+00  0.9217E+01  0.9217E+01
     15.209  0.7393E+00  0.7395E+00  0.9286E+01  0.9286E+01
     15.302  0.6463E+00  0.6463E+00  0.9346E+01  0.9346E+01
     15.394  0.4896E+00  0.4893E+00  0.9392E+01  0.9392E+01
     15.487  0.5988E+00  0.5986E+00  0.9447E+01  0.9447E+01
     15.580  0.7810E+00  0.7806E+00  0.9520E+01  0.9520E+01
     15.673  0.9281E+00  0.9268E+00  0.9606E+01  0.9606E+01
     15.766  0.7676E+00  0.7672E+00  0.9678E+01  0.9677E+01
     15.859  0.6806E+00  0.6808E+00  0.9741E+01  0.9741E+01
     15.952  0.7344E+00  0.7349E+00  0.9809E+01  0.9809E+01
     16.045  0.7609E+00  0.7610E+00  0.9880E+01  0.9880E+01
     16.138  0.8915E+00  0.8909E+00  0.9963E+01  0.9963E+01
     16.230  0.8224E+00  0.8223E+00  0.1004E+02  0.1004E+02
     16.323  0.6426E+00  0.6427E+00  0.1010E+02  0.1010E+02
     16.416  0.5725E+00  0.5723E+00  0.1015E+02  0.1015E+02
     16.509  0.6588E+00  0.6586E+00  0.1021E+02  0.1021E+02
     16.602  0.9444E+00  0.9446E+00  0.1030E+02  0.1030E+02
     16.695  0.9819E+00  0.9830E+00  0.1039E+02  0.1039E+02
     16.788  0.6525E+00  0.6520E+00  0.1045E+02  0.1045E+02
     16.881  0.6063E+00  0.6058E+00  0.1051E+02  0.1051E+02
     16.973  0.6765E+00  0.6760E+00  0.1057E+02  0.1057E+02
     17.066  0.7346E+00  0.7353E+00  0.1064E+02  0.1064E+02
     17.159  0.8574E+00  0.8600E+00  0.1072E+02  0.1072E+02
     17.252  0.1126E+01  0.1124E+01  0.1083E+02  0.1083E+02
     17.345  0.1146E+01  0.1146E+01  0.1093E+02  0.1093E+02
     17.438  0.9594E+00  0.9625E+00  0.1102E+02  0.1102E+02
     17.531  0.8421E+00  0.8411E+00  0.1110E+02  0.1110E+02
     17.624  0.6974E+00  0.6955E+00  0.1116E+02  0.1116E+02
     17.716  0.6140E+00  0.6140E+00  0.1122E+02  0.1122E+02
     17.809  0.5113E+00  0.5122E+00  0.1127E+02  0.1127E+02
     17.902  0.4484E+00  0.4484E+00  0.1131E+02  0.1131E+02
     17.995  0.4015E+00  0.4009E+00  0.1135E+02  0.1135E+02
     18.088  0.3983E+00  0.3981E+00  0.1138E+02  0.1138E+02
     18.181  0.3711E+00  0.3713E+00  0.1142E+02  0.1142E+02
     18.274  0.4165E+00  0.4167E+00  0.1146E+02  0.1146E+02
     18.367  0.3581E+00  0.3586E+00  0.1149E+02  0.1149E+02
     18.459  0.2358E+00  0.2356E+00  0.1151E+02  0.1151E+02
     18.552  0.1782E+00  0.1786E+00  0.1153E+02  0.1153E+02
     18.645  0.1183E+00  0.1185E+00  0.1154E+02  0.1154E+02
     18.738  0.1960E+00  0.1956E+00  0.1156E+02  0.1156E+02
     18.831  0.3988E+00  0.3980E+00  0.1160E+02  0.1160E+02
     18.924  0.4738E+00  0.4732E+00  0.1164E+02  0.1164E+02
     19.017  0.3600E+00  0.3612E+00  0.1167E+02  0.1167E+02
     19.110  0.1695E+00  0.1702E+00  0.1169E+02  0.1169E+02
     19.202  0.5666E-01  0.5667E-01  0.1169E+02  0.1169E+02
     19.295  0.6626E-01  0.6560E-01  0.1170E+02  0.1170E+02
     19.388  0.1429E+00  0.1405E+00  0.1171E+02  0.1171E+02
     19.481  0.2583E+00  0.2575E+00  0.1174E+02  0.1174E+02
     19.574  0.2380E+00  0.2404E+00  0.1176E+02  0.1176E+02
     19.667  0.1854E+00  0.1862E+00  0.1178E+02  0.1178E+02
     19.760  0.1281E+00  0.1285E+00  0.1179E+02  0.1179E+02
     19.853  0.7891E-01  0.7920E-01  0.1180E+02  0.1180E+02
     19.945  0.1137E+00  0.1139E+00  0.1181E+02  0.1181E+02
     20.038  0.1515E+00  0.1518E+00  0.1182E+02  0.1182E+02
     20.131  0.2242E+00  0.2256E+00  0.1184E+02  0.1184E+02
     20.224  0.2216E+00  0.2213E+00  0.1186E+02  0.1186E+02
     20.317  0.1521E+00  0.1492E+00  0.1188E+02  0.1188E+02
     20.410  0.1587E+00  0.1585E+00  0.1189E+02  0.1189E+02
     20.503  0.1088E+00  0.1099E+00  0.1190E+02  0.1190E+02
     20.596  0.3431E-01  0.3471E-01  0.1191E+02  0.1191E+02
     20.688  0.3058E-01  0.3066E-01  0.1191E+02  0.1191E+02
     20.781  0.6260E-01  0.6254E-01  0.1191E+02  0.1191E+02
     20.874  0.7576E-01  0.7557E-01  0.1192E+02  0.1192E+02
     20.967  0.7887E-01  0.7897E-01  0.1193E+02  0.1193E+02
     21.060  0.5658E-01  0.5682E-01  0.1193E+02  0.1193E+02
     21.153  0.5649E-01  0.5658E-01  0.1194E+02  0.1194E+02
     21.246  0.2825E-01  0.2857E-01  0.1194E+02  0.1194E+02
     21.339  0.2389E-01  0.2597E-01  0.1194E+02  0.1194E+02
     21.431  0.7561E-01  0.8060E-01  0.1195E+02  0.1195E+02
     21.524  0.1216E+00  0.1193E+00  0.1196E+02  0.1196E+02
     21.617  0.9058E-01  0.8658E-01  0.1197E+02  0.1197E+02
     21.710  0.4201E-01  0.4098E-01  0.1197E+02  0.1197E+02
     21.803  0.3620E-01  0.3598E-01  0.1198E+02  0.1198E+02
     21.896  0.5243E-01  0.5243E-01  0.1198E+02  0.1198E+02
     21.989  0.2787E-01  0.2793E-01  0.1199E+02  0.1199E+02
     22.082  0.2205E-01  0.2209E-01  0.1199E+02  0.1199E+02
     22.174  0.3806E-01  0.3807E-01  0.1199E+02  0.1199E+02
     22.267  0.3148E-01  0.3146E-01  0.1199E+02  0.1199E+02
     22.360  0.2000E-01  0.1999E-01  0.1200E+02  0.1200E+02
     22.453  0.6413E-02  0.6437E-02  0.1200E+02  0.1200E+02
     22.546  0.1469E-02  0.1634E-02  0.1200E+02  0.1200E+02
     22.639  0.2576E-02  0.3465E-02  0.1200E+02  0.1200E+02
     22.732  0.1034E-01  0.1247E-01  0.1200E+02  0.1200E+02
     22.825  0.1678E-01  0.1580E-01  0.1200E+02  0.1200E+02
     22.917  0.7410E-02  0.5687E-02  0.1200E+02  0.1200E+02
     23.010  0.1500E-02  0.1074E-02  0.1200E+02  0.1200E+02
     23.103  0.2450E-03  0.1731E-03  0.1200E+02  0.1200E+02
     23.196  0.0000E+00  0.0000E+00  0.1200E+02  0.1200E+02
     23.289  0.0000E+00  0.0000E+00  0.1200E+02  0.1200E+02
     23.382  0.0000E+00  0.0000E+00  0.1200E+02  0.1200E+02
     23.475  0.0000E+00  0.0000E+00  0.1200E+02  0.1200E+02
     23.568  0.0000E+00  0.0000E+00  0.1200E+02  0.1200E+02
     23.660  0.0000E+00  0.0000E+00  0.1200E+02  0.1200E+02
     23.753  0.0000E+00  0.0000E+00  0.1200E+02  0.1200E+02
     23.846  0.0000E+00  0.0000E+00  0.1200E+02  0.1200E+02
     23.939  0.0000E+00  0.0000E+00  0.1200E+02  0.1200E+02
     24.032  0.0000E+00  0.0000E+00  0.1200E+02  0.1200E+02
     24.03198752     -3.83090353  301      9.01176440      1.00000000
     -3.831  0.0000E+00  0.0000E+00  0.0000E+00  0.0000E+00  0.0000E+00  0.0000E+00  0.0000E+00  0.0000E+00  0.0000E+00  0.0000E+00  0.0000E+00  0.0000E+00  0.0000E+00  0.0000E+00  0.0000E+00  0.0000E+00  0.0000E+00  0.0000E+00
     -3.738  0.0000E+00  0.0000E+00  0.0000E+00  0.0000E+00  0.0000E+00  0.0000E+00  0.0000E+00  0.0000E+00  0.0000E+00  0.0000E+00  0.0000E+00  0.0000E+00  0.0000E+00  0.0000E+00  0.0000E+00  0.0000E+00  0.0000E+00  0.0000E+00
     -3.645  0.0000E+00  0.0000E+00  0.0000E+00  0.0000E+00  0.0000E+00  0.0000E+00  0.0000E+00  0.0000E+00  0.0000E+00  0.0000E+00  0.0000E+00  0.0000E+00  0.0000E+00  0.0000E+00  0.0000E+00  0.0000E+00  0.0000E+00  0.0000E+00
     -3.552  0.0000E+00  0.0000E+00  0.0000E+00  0.0000E+00  0.0000E+00  0.0000E+00  0.0000E+00  0.0000E+00  0.0000E+00  0.0000E+00  0.0000E+00  0.0000E+00  0.0000E+00  0.0000E+00  0.0000E+00  0.0000E+00  0.0000E+00  0.0000E+00
     -3.459  0.0000E+00  0.0000E+00  0.0000E+00  0.0000E+00  0.0000E+00  0.0000E+00  0.0000E+00  0.0000E+00  0.0000E+00  0.0000E+00  0.0000E+00  0.0000E+00  0.0000E+00  0.0000E+00  0.0000E+00  0.0000E+00  0.0000E+00  0.0000E+00
     -3.367  0.0000E+00  0.0000E+00  0.0000E+00  0.0000E+00  0.0000E+00  0.0000E+00  0.0000E+00  0.0000E+00  0.0000E+00  0.0000E+00  0.0000E+00  0.0000E+00  0.0000E+00  0.0000E+00  0.0000E+00  0.0000E+00  0.0000E+00  0.0000E+00
     -3.274  0.0000E+00  0.0000E+00  0.0000E+00  0.0000E+00  0.0000E+00  0.0000E+00  0.0000E+00  0.0000E+00  0.0000E+00  0.0000E+00  0.0000E+00  0.0000E+00  0.0000E+00  0.0000E+00  0.0000E+00  0.0000E+00  0.0000E+00  0.0000E+00
     -3.181  0.0000E+00  0.0000E+00  0.0000E+00  0.0000E+00  0.0000E+00  0.0000E+00  0.0000E+00  0.0000E+00  0.0000E+00  0.0000E+00  0.0000E+00  0.0000E+00  0.0000E+00  0.0000E+00  0.0000E+00  0.0000E+00  0.0000E+00  0.0000E+00
     -3.088  0.0000E+00  0.0000E+00  0.0000E+00  0.0000E+00  0.0000E+00  0.0000E+00  0.0000E+00  0.0000E+00  0.0000E+00  0.0000E+00  0.0000E+00  0.0000E+00  0.0000E+00  0.0000E+00  0.0000E+00  0.0000E+00  0.0000E+00  0.0000E+00
     -2.995  0.9471E-07  0.9499E-07  0.3157E-09  0.3164E-09  0.3157E-09  0.3164E-09  0.3154E-09  0.3161E-09  0.0000E+00  0.0000E+00  0.0000E+00  0.0000E+00  0.0000E+00  0.0000E+00  0.0000E+00  0.0000E+00  0.0000E+00  0.0000E+00
     -2.902  0.7521E-06  0.7543E-06  0.4190E-08  0.4199E-08  0.4190E-08  0.4199E-08  0.4187E-08  0.4197E-08  0.0000E+00  0.0000E+00  0.0000E+00  0.0000E+00  0.0000E+00  0.0000E+00  0.0000E+00  0.0000E+00  0.0000E+00  0.0000E+00
     -2.809  0.4952E-05  0.4967E-05  0.3082E-07  0.3089E-07  0.3082E-07  0.3089E-07  0.3080E-07  0.3087E-07  0.0000E+00  0.0000E+00  0.0000E+00  0.0000E+00  0.0000E+00  0.0000E+00  0.0000E+00  0.0000E+00  0.0000E+00  0.0000E+00
     -2.716  0.3136E-04  0.3145E-04  0.2052E-06  0.2057E-06  0.2052E-06  0.2057E-06  0.2051E-06  0.2055E-06  0.0000E+00  0.0000E+00  0.0000E+00  0.0000E+00  0.0000E+00  0.0000E+00  0.0000E+00  0.0000E+00  0.0000E+00  0.0000E+00
     -2.624  0.1824E-03  0.1828E-03  0.1282E-05  0.1284E-05  0.1282E-05  0.1284E-05  0.1281E-05  0.1283E-05  0.0000E+00  0.0000E+00  0.0000E+00  0.0000E+00  0.0000E+00  0.0000E+00  0.0000E+00  0.0000E+00  0.0000E+00  0.0000E+00
     -2.531  0.7830E-03  0.7846E-03  0.6650E-05  0.6662E-05  0.6650E-05  0.6662E-05  0.6645E-05  0.6657E-05  0.0000E+00  0.0000E+00  0.0000E+00  0.0000E+00  0.0000E+00  0.0000E+00  0.0000E+00  0.0000E+00  0.0000E+00  0.0000E+00
     -2.438  0.1899E-02  0.1901E-02  0.2250E-04  0.2252E-04  0.2250E-04  0.2252E-04  0.2248E-04  0.2250E-04  0.0000E+00  0.0000E+00  0.0000E+00  0.0000E+00  0.0000E+00  0.0000E+00  0.0000E+00  0.0000E+00  0.0000E+00  0.0000E+00
     -2.345  0.2756E-02  0.2758E-02  0.5138E-04  0.5142E-04  0.5138E-04  0.5142E-04  0.5132E-04  0.5137E-04  0.0000E+00  0.0000E+00  0.0000E+00  0.0000E+00  0.0000E+00  0.0000E+00  0.0000E+00  0.0000E+00  0.0000E+00  0.0000E+00
     -2.252  0.3820E-02  0.3823E-02  0.1026E-03  0.1026E-03  0.1026E-03  0.1026E-03  0.1025E-03  0.1026E-03  0.0000E+00  0.0000E+00  0.0000E+00  0.0000E+00  0.0000E+00  0.0000E+00  0.0000E+00  0.0000E+00  0.0000E+00  0.0000E+00
     -2.159  0.4060E-02  0.4060E-02  0.1367E-03  0.1367E-03  0.1367E-03  0.1367E-03  0.1366E-03  0.1366E-03  0.0000E+00  0.0000E+00  0.0000E+00  0.0000E+00  0.0000E+00  0.0000E+00  0.0000E+00  0.0000E+00  0.0000E+00  0.0000E+00
     -2.066  0.4114E-02  0.4116E-02  0.1904E-03  0.1905E-03  0.1904E-03  0.1905E-03  0.1901E-03  0.1902E-03  0.0000E+00  0.0000E+00  0.0000E+00  0.0000E+00  0.0000E+00  0.0000E+00  0.0000E+00  0.0000E+00  0.0000E+00  0.0000E+00
     -1.973  0.5341E-02  0.5343E-02  0.3006E-03  0.3007E-03  0.3006E-03  0.3007E-03  0.3003E-03  0.3003E-03  0.0000E+00  0.0000E+00  0.0000E+00  0.0000E+00  0.0000E+00  0.0000E+00  0.0000E+00  0.0000E+00  0.0000E+00  0.0000E+00
     -1.881  0.5161E-02  0.5162E-02  0.3380E-03  0.3380E-03  0.3380E-03  0.3380E-03  0.3381E-03  0.3381E-03  0.0000E+00  0.0000E+00  0.0000E+00  0.0000E+00  0.0000E+00  0.0000E+00  0.0000E+00  0.0000E+00  0.0000E+00  0.0000E+00
     -1.788  0.5256E-02  0.5260E-02  0.4079E-03  0.4080E-03  0.4079E-03  0.4080E-03  0.4076E-03  0.4077E-03  0.0000E+00  0.0000E+00  0.0000E+00  0.0000E+00  0.0000E+00  0.0000E+00  0.0000E+00  0.0000E+00  0.0000E+00  0.0000E+00
     -1.695  0.5448E-02  0.5450E-02  0.4849E-03  0.4849E-03  0.4849E-03  0.4849E-03  0.4842E-03  0.4843E-03  0.0000E+00  0.0000E+00  0.0000E+00  0.0000E+00  0.0000E+00  0.0000E+00  0.0000E+00  0.0000E+00  0.0000E+00  0.0000E+00
     -1.602  0.5134E-02  0.5138E-02  0.5631E-03  0.5634E-03  0.5631E-03  0.5634E-03  0.5616E-03  0.5619E-03  0.0000E+00  0.0000E+00  0.0000E+00  0.0000E+00  0.0000E+00  0.0000E+00  0.0000E+00  0.0000E+00  0.0000E+00  0.0000E+00
     -1.509  0.6338E-02  0.6342E-02  0.7780E-03  0.7783E-03  0.7780E-03  0.7783E-03  0.7776E-03  0.7779E-03  0.0000E+00  0.0000E+00  0.0000E+00  0.0000E+00  0.0000E+00  0.0000E+00  0.0000E+00  0.0000E+00  0.0000E+00  0.0000E+00
     -1.416  0.6299E-02  0.6302E-02  0.8454E-03  0.8456E-03  0.8454E-03  0.8456E-03  0.8450E-03  0.8452E-03  0.0000E+00  0.0000E+00  0.0000E+00  0.0000E+00  0.0000E+00  0.0000E+00  0.0000E+00  0.0000E+00  0.0000E+00  0.0000E+00
     -1.323  0.5892E-02  0.5895E-02  0.8774E-03  0.8775E-03  0.8774E-03  0.8775E-03  0.8775E-03  0.8776E-03  0.0000E+00  0.0000E+00  0.0000E+00  0.0000E+00  0.0000E+00  0.0000E+00  0.0000E+00  0.0000E+00  0.0000E+00  0.0000E+00
     -1.230  0.4879E-02  0.4881E-02  0.8366E-03  0.8368E-03  0.8366E-03  0.8368E-03  0.8347E-03  0.8348E-03  0.0000E+00  0.0000E+00  0.0000E+00  0.0000E+00  0.0000E+00  0.0000E+00  0.0000E+00  0.0000E+00  0.0000E+00  0.0000E+00
     -1.137  0.5589E-02  0.5594E-02  0.1197E-02  0.1197E-02  0.1197E-02  0.1197E-02  0.1191E-02  0.1192E-02  0.0000E+00  0.0000E+00  0.0000E+00  0.0000E+00  0.0000E+00  0.0000E+00  0.0000E+00  0.0000E+00  0.0000E+00  0.0000E+00
     -1.045  0.6665E-02  0.6668E-02  0.1557E-02  0.1558E-02  0.1557E-02  0.1558E-02  0.1557E-02  0.1557E-02  0.0000E+00  0.0000E+00  0.0000E+00  0.0000E+00  0.0000E+00  0.0000E+00  0.0000E+00  0.0000E+00  0.0000E+00  0.0000E+00
     -0.952  0.5848E-02  0.5850E-02  0.1508E-02  0.1508E-02  0.1508E-02  0.1508E-02  0.1507E-02  0.1507E-02  0.0000E+00  0.0000E+00  0.0000E+00  0.0000E+00  0.0000E+00  0.0000E+00  0.0000E+00  0.0000E+00  0.0000E+00  0.0000E+00
     -0.859  0.5794E-02  0.5796E-02  0.1700E-02  0.1700E-02  0.1700E-02  0.1700E-02  0.1698E-02  0.1698E-02  0.0000E+00  0.0000E+00  0.0000E+00  0.0000E+00  0.0000E+00  0.0000E+00  0.0000E+00  0.0000E+00  0.0000E+00  0.0000E+00
     -0.766  0.4252E-02  0.4252E-02  0.1648E-02  0.1649E-02  0.1648E-02  0.1649E-02  0.1641E-02  0.1641E-02  0.0000E+00  0.0000E+00  0.0000E+00  0.0000E+00  0.0000E+00  0.0000E+00  0.0000E+00  0.0000E+00  0.0000E+00  0.0000E+00
     -0.673  0.4755E-02  0.4757E-02  0.2347E-02  0.2348E-02  0.2347E-02  0.2348E-02  0.2338E-02  0.2339E-02  0.0000E+00  0.0000E+00  0.0000E+00  0.0000E+00  0.0000E+00  0.0000E+00  0.0000E+00  0.0000E+00  0.0000E+00  0.0000E+00
     -0.580  0.5694E-02  0.5696E-02  0.2792E-02  0.2792E-02  0.2792E-02  0.2792E-02  0.2792E-02  0.2793E-02  0.0000E+00  0.0000E+00  0.0000E+00  0.0000E+00  0.0000E+00  0.0000E+00  0.0000E+00  0.0000E+00  0.0000E+00  0.0000E+00
     -0.487  0.4602E-02  0.4603E-02  0.2680E-02  0.2680E-02  0.2680E-02  0.2680E-02  0.2679E-02  0.2679E-02  0.0000E+00  0.0000E+00  0.0000E+00  0.0000E+00  0.0000E+00  0.0000E+00  0.0000E+00  0.0000E+00  0.0000E+00  0.0000E+00
     -0.394  0.3566E-02  0.3566E-02  0.2289E-02  0.2289E-02  0.2289E-02  0.2289E-02  0.2300E-02  0.2300E-02  0.0000E+00  0.0000E+00  0.0000E+00  0.0000E+00  0.0000E+00  0.0000E+00  0.0000E+00  0.0000E+00  0.0000E+00  0.0000E+00
     -0.302  0.2615E-02  0.2615E-02  0.1807E-02  0.1807E-02  0.1807E-02  0.1807E-02  0.1806E-02  0.1806E-02  0.0000E+00  0.0000E+00  0.0000E+00  0.0000E+00  0.0000E+00  0.0000E+00  0.0000E+00  0.0000E+00  0.0000E+00  0.0000E+00
     -0.209  0.3514E-02  0.3516E-02  0.2611E-02  0.2612E-02  0.2611E-02  0.2612E-02  0.2601E-02  0.2602E-02  0.0000E+00  0.0000E+00  0.0000E+00  0.0000E+00  0.0000E+00  0.0000E+00  0.0000E+00  0.0000E+00  0.0000E+00  0.0000E+00
     -0.116  0.4094E-02  0.4095E-02  0.2938E-02  0.2938E-02  0.2938E-02  0.2938E-02  0.2947E-02  0.2946E-02  0.0000E+00  0.0000E+00  0.0000E+00  0.0000E+00  0.0000E+00  0.0000E+00  0.0000E+00  0.0000E+00  0.0000E+00  0.0000E+00
     -0.023  0.2926E-02  0.2926E-02  0.2157E-02  0.2157E-02  0.2157E-02  0.2157E-02  0.2162E-02  0.2162E-02  0.0000E+00  0.0000E+00  0.0000E+00  0.0000E+00  0.0000E+00  0.0000E+00  0.0000E+00  0.0000E+00  0.0000E+00  0.0000E+00
      0.070  0.2128E-02  0.2128E-02  0.1867E-02  0.1867E-02  0.1867E-02  0.1867E-02  0.1871E-02  0.1871E-02  0.0000E+00  0.0000E+00  0.0000E+00  0.0000E+00  0.0000E+00  0.0000E+00  0.0000E+00  0.0000E+00  0.0000E+00  0.0000E+00
      0.163  0.1314E-02  0.1315E-02  0.1378E-02  0.1378E-02  0.1378E-02  0.1378E-02  0.1378E-02  0.1379E-02  0.0000E+00  0.0000E+00  0.0000E+00  0.0000E+00  0.0000E+00  0.0000E+00  0.0000E+00  0.0000E+00  0.0000E+00  0.0000E+00
      0.256  0.2131E-02  0.2134E-02  0.2221E-02  0.2222E-02  0.2221E-02  0.2222E-02  0.2210E-02  0.2211E-02  0.0000E+00  0.0000E+00  0.0000E+00  0.0000E+00  0.0000E+00  0.0000E+00  0.0000E+00  0.0000E+00  0.0000E+00  0.0000E+00
      0.349  0.2818E-02  0.2819E-02  0.2804E-02  0.2804E-02  0.2804E-02  0.2804E-02  0.2808E-02  0.2808E-02  0.0000E+00  0.0000E+00  0.0000E+00  0.0000E+00  0.0000E+00  0.0000E+00  0.0000E+00  0.0000E+00  0.0000E+00  0.0000E+00
      0.441  0.1727E-02  0.1727E-02  0.1982E-02  0.1982E-02  0.1982E-02  0.1982E-02  0.1987E-02  0.1987E-02  0.0000E+00  0.0000E+00  0.0000E+00  0.0000E+00  0.0000E+00  0.0000E+00  0.0000E+00  0.0000E+00  0.0000E+00  0.0000E+00
      0.534  0.1114E-02  0.1115E-02  0.1398E-02  0.1397E-02  0.1398E-02  0.1397E-02  0.1406E-02  0.1406E-02  0.0000E+00  0.0000E+00  0.0000E+00  0.0000E+00  0.0000E+00  0.0000E+00  0.0000E+00  0.0000E+00  0.0000E+00  0.0000E+00
      0.627  0.7283E-03  0.7288E-03  0.8474E-03  0.8474E-03  0.8474E-03  0.8474E-03  0.8493E-03  0.8493E-03  0.0000E+00  0.0000E+00  0.0000E+00  0.0000E+00  0.0000E+00  0.0000E+00  0.0000E+00  0.0000E+00  0.0000E+00  0.0000E+00
      0.720  0.1165E-02  0.1166E-02  0.1536E-02  0.1537E-02  0.1536E-02  0.1537E-02  0.1524E-02  0.1525E-02  0.0000E+00  0.0000E+00  0.0000E+00  0.0000E+00  0.0000E+00  0.0000E+00  0.0000E+00  0.0000E+00  0.0000E+00  0.0000E+00
      0.813  0.1669E-02  0.1671E-02  0.2494E-02  0.2494E-02  0.2494E-02  0.2494E-02  0.2492E-02  0.2492E-02  0.0000E+00  0.0000E+00  0.0000E+00  0.0000E+00  0.0000E+00  0.0000E+00  0.0000E+00  0.0000E+00  0.0000E+00  0.0000E+00