   4   4   1   0
  0.1943584E+02  0.4267018E-09  0.4268442E-09  0.4268442E-09  0.5000000E-15
  1.000000000000000E-004
  CAR 
 unknown system                          
     15.83031493     -5.05160198  301      4.81200729      1.00000000
     -5.052  0.0000E+00  0.0000E+00  0.0000E+00  0.0000E+00
     -4.982  0.0000E+00  0.0000E+00  0.0000E+00  0.0000E+00
     -4.912  0.0000E+00  0.0000E+00  0.0000E+00  0.0000E+00
     -4.843  0.0000E+00  0.0000E+00  0.0000E+00  0.0000E+00
     -4.773  0.0000E+00  0.0000E+00  0.0000E+00  0.0000E+00
     -4.704  0.0000E+00  0.0000E+00  0.0000E+00  0.0000E+00
     -4.634  0.0000E+00  0.0000E+00  0.0000E+00  0.0000E+00
     -4.564  0.6356E-06  0.6310E-06  0.4424E-07  0.4392E-07
     -4.495  0.8275E-05  0.8214E-05  0.6202E-06  0.6157E-06
     -4.425  0.5391E-04  0.5351E-04  0.4373E-05  0.4341E-05
     -4.356  0.1969E-03  0.1954E-03  0.1808E-04  0.1794E-04
     -4.286  0.8472E-03  0.8411E-03  0.7705E-04  0.7649E-04
     -4.216  0.3237E-02  0.3215E-02  0.3024E-03  0.3002E-03
     -4.147  0.1161E-01  0.1154E-01  0.1111E-02  0.1103E-02
     -4.077  0.3359E-01  0.3343E-01  0.3449E-02  0.3430E-02
     -4.008  0.6844E-01  0.6825E-01  0.8213E-02  0.8181E-02
     -3.938  0.1033E+00  0.1031E+00  0.1540E-01  0.1536E-01
     -3.868  0.1383E+00  0.1382E+00  0.2503E-01  0.2498E-01
     -3.799  0.1567E+00  0.1567E+00  0.3594E-01  0.3588E-01
     -3.729  0.1734E+00  0.1733E+00  0.4801E-01  0.4794E-01
     -3.659  0.2086E+00  0.2084E+00  0.6253E-01  0.6245E-01
     -3.590  0.2203E+00  0.2202E+00  0.7787E-01  0.7779E-01
     -3.520  0.2305E+00  0.2304E+00  0.9392E-01  0.9383E-01
     -3.451  0.2431E+00  0.2430E+00  0.1108E+00  0.1108E+00
     -3.381  0.2552E+00  0.2550E+00  0.1286E+00  0.1285E+00
     -3.311  0.2963E+00  0.2961E+00  0.1492E+00  0.1491E+00
     -3.242  0.3124E+00  0.3124E+00  0.1710E+00  0.1709E+00
     -3.172  0.3057E+00  0.3058E+00  0.1923E+00  0.1922E+00
     -3.103  0.2912E+00  0.2912E+00  0.2126E+00  0.2124E+00
     -3.033  0.3322E+00  0.3318E+00  0.2357E+00  0.2355E+00
     -2.963  0.3931E+00  0.3930E+00  0.2631E+00  0.2629E+00
     -2.894  0.3961E+00  0.3961E+00  0.2907E+00  0.2905E+00
     -2.824  0.3983E+00  0.3983E+00  0.3184E+00  0.3182E+00
     -2.755  0.3863E+00  0.3862E+00  0.3453E+00  0.3451E+00
     -2.685  0.4463E+00  0.4457E+00  0.3764E+00  0.3762E+00
     -2.615  0.5222E+00  0.5220E+00  0.4128E+00  0.4125E+00
     -2.546  0.5072E+00  0.5074E+00  0.4481E+00  0.4479E+00
     -2.476  0.4462E+00  0.4467E+00  0.4792E+00  0.4790E+00
     -2.407  0.3858E+00  0.3858E+00  0.5060E+00  0.5059E+00
     -2.337  0.4415E+00  0.4409E+00  0.5368E+00  0.5366E+00
     -2.267  0.4986E+00  0.4988E+00  0.5715E+00  0.5713E+00
     -2.198  0.4248E+00  0.4253E+00  0.6011E+00  0.6010E+00
     -2.128  0.3483E+00  0.3487E+00  0.6254E+00  0.6252E+00
     -2.059  0.2942E+00  0.2942E+00  0.6459E+00  0.6458E+00
     -1.989  0.3577E+00  0.3570E+00  0.6708E+00  0.6706E+00
     -1.919  0.4407E+00  0.4406E+00  0.7015E+00  0.7013E+00
     -1.850  0.3733E+00  0.3739E+00  0.7275E+00  0.7274E+00
     -1.780  0.2742E+00  0.2748E+00  0.7466E+00  0.7465E+00
     -1.710  0.2050E+00  0.2052E+00  0.7609E+00  0.7608E+00
     -1.641  0.2548E+00  0.2540E+00  0.7786E+00  0.7785E+00
     -1.571  0.3688E+00  0.3684E+00  0.8043E+00  0.8041E+00
     -1.502  0.3384E+00  0.3390E+00  0.8279E+00  0.8278E+00
     -1.432  0.2692E+00  0.2694E+00  0.8466E+00  0.8465E+00
     -1.362  0.2889E+00  0.2887E+00  0.8667E+00  0.8666E+00
     -1.293  0.3526E+00  0.3522E+00  0.8913E+00  0.8911E+00
     -1.223  0.4445E+00  0.4440E+00  0.9222E+00  0.9221E+00
     -1.154  0.4659E+00  0.4661E+00  0.9547E+00  0.9546E+00
     -1.084  0.4130E+00  0.4133E+00  0.9835E+00  0.9833E+00
     -1.014  0.3874E+00  0.3874E+00  0.1010E+01  0.1010E+01
     -0.945  0.4042E+00  0.4039E+00  0.1039E+01  0.1038E+01
     -0.875  0.5020E+00  0.5013E+00  0.1074E+01  0.1073E+01
     -0.806  0.5869E+00  0.5867E+00  0.1114E+01  0.1114E+01
     -0.736  0.5915E+00  0.5917E+00  0.1156E+01  0.1155E+01
     -0.666  0.5491E+00  0.5494E+00  0.1194E+01  0.1194E+01
     -0.597  0.5258E+00  0.5255E+00  0.1231E+01  0.1230E+01
     -0.527  0.5980E+00  0.5973E+00  0.1272E+01  0.1272E+01
     -0.458  0.6710E+00  0.6706E+00  0.1319E+01  0.1319E+01
     -0.388  0.6832E+00  0.6834E+00  0.1366E+01  0.1366E+01
     -0.318  0.6144E+00  0.6147E+00  0.1409E+01  0.1409E+01
     -0.249  0.6413E+00  0.6406E+00  0.1454E+01  0.1454E+01
     -0.179  0.7467E+00  0.7464E+00  0.1506E+01  0.1506E+01
     -0.110  0.6946E+00  0.6952E+00  0.1554E+01  0.1554E+01
     -0.040  0.6399E+00  0.6398E+00  0.1599E+01  0.1599E+01
      0.030  0.6416E+00  0.6416E+00  0.1644E+01  0.1643E+01
      0.099  0.6396E+00  0.6395E+00  0.1688E+01  0.1688E+01
      0.169  0.6211E+00  0.6214E+00  0.1731E+01  0.1731E+01
      0.238  0.5453E+00  0.5456E+00  0.1769E+01  0.1769E+01
      0.308  0.5502E+00  0.5499E+00  0.1808E+01  0.1807E+01
      0.378  0.5787E+00  0.5787E+00  0.1848E+01  0.1848E+01
      0.447  0.5769E+00  0.5769E+00  0.1888E+01  0.1888E+01
      0.517  0.5347E+00  0.5352E+00  0.1926E+01  0.1925E+01
      0.587  0.4434E+00  0.4439E+00  0.1956E+01  0.1956E+01
      0.656  0.4672E+00  0.4666E+00  0.1989E+01  0.1989E+01
      0.726  0.5929E+00  0.5921E+00  0.2030E+01  0.2030E+01
      0.795  0.6685E+00  0.6682E+00  0.2077E+01  0.2076E+01
      0.865  0.6999E+00  0.6999E+00  0.2126E+01  0.2125E+01
      0.935  0.6605E+00  0.6610E+00  0.2172E+01  0.2171E+01
      1.004  0.5809E+00  0.5810E+00  0.2212E+01  0.2212E+01
      1.074  0.5404E+00  0.5406E+00  0.2250E+01  0.2249E+01
      1.143  0.4955E+00  0.4956E+00  0.2284E+01  0.2284E+01
      1.213  0.4816E+00  0.4817E+00  0.2318E+01  0.2317E+01
      1.283  0.4573E+00  0.4578E+00  0.2350E+01  0.2349E+01
      1.352  0.4799E+00  0.4798E+00  0.2383E+01  0.2383E+01
      1.422  0.5897E+00  0.5889E+00  0.2424E+01  0.2424E+01
      1.491  0.6406E+00  0.6406E+00  0.2469E+01  0.2468E+01
      1.561  0.5508E+00  0.5517E+00  0.2507E+01  0.2507E+01
      1.631  0.4474E+00  0.4481E+00  0.2538E+01  0.2538E+01
      1.700  0.4637E+00  0.4637E+00  0.2571E+01  0.2570E+01
      1.770  0.5416E+00  0.5413E+00  0.2608E+01  0.2608E+01
      1.839  0.5933E+00  0.5932E+00  0.2650E+01  0.2649E+01
      1.909  0.6352E+00  0.6351E+00  0.2694E+01  0.2694E+01
      1.979  0.7409E+00  0.7405E+00  0.2745E+01  0.2745E+01
      2.048  0.8314E+00  0.8316E+00  0.2803E+01  0.2803E+01
      2.118  0.8854E+00  0.8854E+00  0.2865E+01  0.2865E+01
      2.187  0.9013E+00  0.9016E+00  0.2928E+01  0.2928E+01
      2.257  0.7896E+00  0.7902E+00  0.2983E+01  0.2983E+01
      2.327  0.6316E+00  0.6320E+00  0.3027E+01  0.3027E+01
      2.396  0.5915E+00  0.5915E+00  0.3068E+01  0.3068E+01
      2.466  0.6402E+00  0.6400E+00  0.3113E+01  0.3112E+01
      2.535  0.7341E+00  0.7337E+00  0.3164E+01  0.3164E+01
      2.605  0.8631E+00  0.8628E+00  0.3224E+01  0.3224E+01
      2.675  0.9437E+00  0.9438E+00  0.3290E+01  0.3289E+01
      2.744  0.9323E+00  0.9324E+00  0.3354E+01  0.3354E+01
      2.814  0.8323E+00  0.8318E+00  0.3412E+01  0.3412E+01
      2.884  0.8118E+00  0.8111E+00  0.3469E+01  0.3469E+01
      2.953  0.8132E+00  0.8140E+00  0.3526E+01  0.3525E+01
      3.023  0.7987E+00  0.7995E+00  0.3581E+01  0.3581E+01
      3.092  0.8485E+00  0.8488E+00  0.3640E+01  0.3640E+01
      3.162  0.7813E+00  0.7819E+00  0.3695E+01  0.3695E+01
      3.232  0.7145E+00  0.7148E+00  0.3745E+01  0.3745E+01
      3.301  0.7671E+00  0.7668E+00  0.3798E+01  0.3798E+01
      3.371  0.8732E+00  0.8724E+00  0.3859E+01  0.3859E+01
      3.440  0.1022E+01  0.1021E+01  0.3930E+01  0.3930E+01
      3.510  0.9838E+00  0.9842E+00  0.3999E+01  0.3998E+01
      3.580  0.7758E+00  0.7764E+00  0.4053E+01  0.4053E+01
      3.649  0.7500E+00  0.7501E+00  0.4105E+01  0.4105E+01
      3.719  0.7726E+00  0.7727E+00  0.4159E+01  0.4159E+01
      3.788  0.8117E+00  0.8114E+00  0.4215E+01  0.4215E+01
      3.858  0.8150E+00  0.8147E+00  0.4272E+01  0.4272E+01
      3.928  0.7484E+00  0.7485E+00  0.4324E+01  0.4324E+01
      3.997  0.7466E+00  0.7465E+00  0.4376E+01  0.4376E+01
      4.067  0.7924E+00  0.7923E+00  0.4431E+01  0.4431E+01
      4.136  0.7816E+00  0.7812E+00  0.4486E+01  0.4486E+01
      4.206  0.8085E+00  0.8081E+00  0.4542E+01  0.4542E+01
      4.276  0.8497E+00  0.8501E+00  0.4601E+01  0.4601E+01
      4.345  0.7662E+00  0.7666E+00  0.4655E+01  0.4655E+01
      4.415  0.6674E+00  0.6668E+00  0.4701E+01  0.4701E+01
      4.484  0.7375E+00  0.7366E+00  0.4753E+01  0.4752E+01
      4.554  0.8445E+00  0.8450E+00  0.4811E+01  0.4811E+01
      4.624  0.8813E+00  0.8820E+00  0.4873E+01  0.4873E+01
      4.693  0.7941E+00  0.7942E+00  0.4928E+01  0.4928E+01
      4.763  0.6211E+00  0.6209E+00  0.4971E+01  0.4971E+01
      4.833  0.5942E+00  0.5935E+00  0.5013E+01  0.5013E+01
      4.902  0.6884E+00  0.6875E+00  0.5061E+01  0.5060E+01
      4.972  0.8034E+00  0.8027E+00  0.5117E+01  0.5116E+01
      5.041  0.8298E+00  0.8301E+00  0.5175E+01  0.5174E+01
      5.111  0.7213E+00  0.7221E+00  0.5225E+01  0.5225E+01
      5.181  0.6665E+00  0.6664E+00  0.5271E+01  0.5271E+01
      5.250  0.7183E+00  0.7181E+00  0.5321E+01  0.5321E+01
      5.320  0.8343E+00  0.8341E+00  0.5379E+01  0.5379E+01
      5.389  0.9532E+00  0.9526E+00  0.5446E+01  0.5445E+01
      5.459  0.8736E+00  0.8728E+00  0.5507E+01  0.5506E+01
      5.529  0.7061E+00  0.7048E+00  0.5556E+01  0.5555E+01
      5.598  0.7048E+00  0.7034E+00  0.5605E+01  0.5604E+01
      5.668  0.8312E+00  0.8308E+00  0.5663E+01  0.5662E+01
      5.737  0.9237E+00  0.9255E+00  0.5727E+01  0.5727E+01
      5.807  0.9431E+00  0.9435E+00  0.5793E+01  0.5792E+01
      5.877  0.9267E+00  0.9246E+00  0.5857E+01  0.5857E+01
      5.946  0.8885E+00  0.8877E+00  0.5919E+01  0.5919E+01
      6.016  0.8747E+00  0.8759E+00  0.5980E+01  0.5980E+01
      6.085  0.8668E+00  0.8675E+00  0.6040E+01  0.6040E+01
      6.155  0.8916E+00  0.8901E+00  0.6103E+01  0.6102E+01
      6.225  0.1003E+01  0.1002E+01  0.6172E+01  0.6172E+01
      6.294  0.1063E+01  0.1064E+01  0.6246E+01  0.6246E+01
      6.364  0.9862E+00  0.9874E+00  0.6315E+01  0.6315E+01
      6.433  0.9156E+00  0.9154E+00  0.6379E+01  0.6378E+01
      6.503  0.9057E+00  0.9053E+00  0.6442E+01  0.6441E+01
      6.573  0.9314E+00  0.9308E+00  0.6507E+01  0.6506E+01
      6.642  0.9620E+00  0.9616E+00  0.6574E+01  0.6573E+01
      6.712  0.9220E+00  0.9235E+00  0.6638E+01  0.6638E+01
      6.781  0.8314E+00  0.8310E+00  0.6696E+01  0.6695E+01
      6.851  0.9583E+00  0.9560E+00  0.6763E+01  0.6762E+01
      6.921  0.1158E+01  0.1157E+01  0.6843E+01  0.6843E+01
      6.990  0.1091E+01  0.1094E+01  0.6919E+01  0.6919E+01
      7.060  0.8540E+00  0.8558E+00  0.6979E+01  0.6979E+01
      7.130  0.6962E+00  0.6956E+00  0.7027E+01  0.7027E+01
      7.199  0.7572E+00  0.7540E+00  0.7080E+01  0.7079E+01
      7.269  0.1024E+01  0.1022E+01  0.7151E+01  0.7151E+01
      7.338  0.1179E+01  0.1180E+01  0.7234E+01  0.7233E+01
      7.408  0.1081E+01  0.1083E+01  0.7309E+01  0.7308E+01
      7.478  0.8808E+00  0.8822E+00  0.7370E+01  0.7370E+01
      7.547  0.7834E+00  0.7823E+00  0.7425E+01  0.7424E+01
      7.617  0.8592E+00  0.8569E+00  0.7485E+01  0.7484E+01
      7.686  0.8773E+00  0.8781E+00  0.7546E+01  0.7545E+01
      7.756  0.8106E+00  0.8113E+00  0.7602E+01  0.7602E+01
      7.826  0.9693E+00  0.9673E+00  0.7670E+01  0.7669E+01
      7.895  0.1140E+01  0.1139E+01  0.7749E+01  0.7748E+01
      7.965  0.1231E+01  0.1229E+01  0.7835E+01  0.7834E+01
      8.034  0.1171E+01  0.1172E+01  0.7916E+01  0.7916E+01
      8.104  0.1006E+01  0.1006E+01  0.7987E+01  0.7986E+01
      8.174  0.1011E+01  0.1010E+01  0.8057E+01  0.8056E+01
      8.243  0.1028E+01  0.1030E+01  0.8129E+01  0.8128E+01
      8.313  0.9790E+00  0.9795E+00  0.8197E+01  0.8196E+01
      8.382  0.1030E+01  0.1028E+01  0.8269E+01  0.8268E+01
      8.452  0.1068E+01  0.1068E+01  0.8343E+01  0.8342E+01
      8.522  0.1000E+01  0.1001E+01  0.8413E+01  0.8412E+01
      8.591  0.9057E+00  0.9068E+00  0.8476E+01  0.8475E+01
      8.661  0.8555E+00  0.8555E+00  0.8535E+01  0.8535E+01
      8.730  0.9348E+00  0.9328E+00  0.8600E+01  0.8600E+01
      8.800  0.1102E+01  0.1099E+01  0.8677E+01  0.8676E+01
      8.870  0.1228E+01  0.1225E+01  0.8763E+01  0.8761E+01
      8.939  0.1238E+01  0.1236E+01  0.8849E+01  0.8848E+01
      9.009  0.1235E+01  0.1235E+01  0.8935E+01  0.8934E+01
      9.078  0.1161E+01  0.1164E+01  0.9016E+01  0.9015E+01
      9.148  0.1047E+01  0.1048E+01  0.9089E+01  0.9088E+01
      9.218  0.1060E+01  0.1058E+01  0.9163E+01  0.9161E+01
      9.287  0.1101E+01  0.1101E+01  0.9239E+01  0.9238E+01
      9.357  0.1065E+01  0.1066E+01  0.9313E+01  0.9312E+01
      9.427  0.1032E+01  0.1032E+01  0.9385E+01  0.9384E+01
      9.496  0.1068E+01  0.1067E+01  0.9460E+01  0.9459E+01
      9.566  0.1092E+01  0.1090E+01  0.9536E+01  0.9534E+01
      9.635  0.1180E+01  0.1178E+01  0.9618E+01  0.9617E+01
      9.705  0.1230E+01  0.1232E+01  0.9704E+01  0.9702E+01
      9.775  0.1105E+01  0.1108E+01  0.9781E+01  0.9779E+01
      9.844  0.1001E+01  0.1001E+01  0.9850E+01  0.9849E+01
      9.914  0.1054E+01  0.1051E+01  0.9924E+01  0.9922E+01
      9.983  0.1232E+01  0.1230E+01  0.1001E+02  0.1001E+02
     10.053  0.1295E+01  0.1297E+01  0.1010E+02  0.1010E+02
     10.123  0.1172E+01  0.1174E+01  0.1018E+02  0.1018E+02
     10.192  0.1119E+01  0.1119E+01  0.1026E+02  0.1026E+02
     10.262  0.1049E+01  0.1050E+01  0.1033E+02  0.1033E+02
     10.331  0.9309E+00  0.9324E+00  0.1040E+02  0.1040E+02
     10.401  0.8665E+00  0.8666E+00  0.1046E+02  0.1046E+02
     10.471  0.8873E+00  0.8842E+00  0.1052E+02  0.1052E+02
     10.540  0.1051E+01  0.1046E+01  0.1059E+02  0.1059E+02
     10.610  0.1256E+01  0.1257E+01  0.1068E+02  0.1068E+02
     10.679  0.1312E+01  0.1310E+01  0.1077E+02  0.1077E+02
     10.749  0.1183E+01  0.1176E+01  0.1085E+02  0.1085E+02
     10.819  0.8980E+00  0.9010E+00  0.1092E+02  0.1091E+02
     10.888  0.7206E+00  0.7295E+00  0.1097E+02  0.1097E+02
     10.958  0.7684E+00  0.7735E+00  0.1102E+02  0.1102E+02
     11.027  0.8806E+00  0.8805E+00  0.1108E+02  0.1108E+02
     11.097  0.9399E+00  0.9380E+00  0.1115E+02  0.1115E+02
     11.167  0.9887E+00  0.9883E+00  0.1122E+02  0.1121E+02
     11.236  0.8396E+00  0.8435E+00  0.1127E+02  0.1127E+02
     11.306  0.6337E+00  0.6354E+00  0.1132E+02  0.1132E+02
     11.376  0.5704E+00  0.5726E+00  0.1136E+02  0.1136E+02
     11.445  0.5686E+00  0.5721E+00  0.1140E+02  0.1140E+02
     11.515  0.5538E+00  0.5536E+00  0.1144E+02  0.1144E+02
     11.584  0.4456E+00  0.4453E+00  0.1147E+02  0.1147E+02
     11.654  0.3266E+00  0.3267E+00  0.1149E+02  0.1149E+02
     11.724  0.2945E+00  0.2934E+00  0.1151E+02  0.1151E+02
     11.793  0.3298E+00  0.3291E+00  0.1153E+02  0.1153E+02
     11.863  0.3648E+00  0.3653E+00  0.1156E+02  0.1156E+02
     11.932  0.3680E+00  0.3691E+00  0.1158E+02  0.1158E+02
     12.002  0.3030E+00  0.3028E+00  0.1161E+02  0.1161E+02
     12.072  0.3064E+00  0.3037E+00  0.1163E+02  0.1163E+02
     12.141  0.3424E+00  0.3429E+00  0.1165E+02  0.1165E+02
     12.211  0.2943E+00  0.2966E+00  0.1167E+02  0.1167E+02
     12.280  0.2748E+00  0.2741E+00  0.1169E+02  0.1169E+02
     12.350  0.3422E+00  0.3417E+00  0.1171E+02  0.1171E+02
     12.420  0.3660E+00  0.3672E+00  0.1174E+02  0.1174E+02
     12.489  0.3163E+00  0.3175E+00  0.1176E+02  0.1176E+02
     12.559  0.2796E+00  0.2802E+00  0.1178E+02  0.1178E+02
     12.628  0.2783E+00  0.2778E+00  0.1180E+02  0.1180E+02
     12.698  0.2688E+00  0.2686E+00  0.1182E+02  0.1182E+02
     12.768  0.2143E+00  0.2155E+00  0.1183E+02  0.1183E+02
     12.837  0.1219E+00  0.1243E+00  0.1184E+02  0.1184E+02
     12.907  0.5363E-01  0.5536E-01  0.1185E+02  0.1185E+02
     12.976  0.4762E-01  0.4897E-01  0.1185E+02  0.1185E+02
     13.046  0.8957E-01  0.8967E-01  0.1186E+02  0.1186E+02
     13.116  0.1531E+00  0.1508E+00  0.1187E+02  0.1187E+02
     13.185  0.2112E+00  0.2101E+00  0.1188E+02  0.1188E+02
     13.255  0.1872E+00  0.1898E+00  0.1189E+02  0.1190E+02
     13.324  0.1163E+00  0.1254E+00  0.1190E+02  0.1190E+02
     13.394  0.8300E-01  0.1021E+00  0.1191E+02  0.1191E+02
     13.464  0.9527E-01  0.1093E+00  0.1192E+02  0.1192E+02
     13.533  0.9915E-01  0.8498E-01  0.1192E+02  0.1192E+02
     13.603  0.8407E-01  0.6494E-01  0.1193E+02  0.1193E+02
     13.673  0.8838E-01  0.7985E-01  0.1193E+02  0.1193E+02
     13.742  0.1017E+00  0.9944E-01  0.1194E+02  0.1194E+02
     13.812  0.9241E-01  0.9224E-01  0.1195E+02  0.1195E+02
     13.881  0.6769E-01  0.6753E-01  0.1195E+02  0.1195E+02
     13.951  0.7320E-01  0.7139E-01  0.1196E+02  0.1196E+02
     14.021  0.1198E+00  0.1166E+00  0.1197E+02  0.1197E+02
     14.090  0.1357E+00  0.1351E+00  0.1198E+02  0.1198E+02
     14.160  0.9286E-01  0.9574E-01  0.1198E+02  0.1198E+02
     14.229  0.4691E-01  0.4940E-01  0.1199E+02  0.1199E+02
     14.299  0.3622E-01  0.3694E-01  0.1199E+02  0.1199E+02
     14.369  0.3817E-01  0.3855E-01  0.1199E+02  0.1199E+02
     14.438  0.2363E-01  0.2420E-01  0.1199E+02  0.1199E+02
     14.508  0.1224E-01  0.1243E-01  0.1199E+02  0.1199E+02
     14.577  0.1435E-01  0.1441E-01  0.1199E+02  0.1199E+02
     14.647  0.1838E-01  0.1839E-01  0.1200E+02  0.1200E+02
     14.717  0.1267E-01  0.1264E-01  0.1200E+02  0.1200E+02
     14.786  0.8981E-02  0.8852E-02  0.1200E+02  0.1200E+02
     14.856  0.1413E-01  0.1393E-01  0.1200E+02  0.1200E+02
     14.925  0.1759E-01  0.1764E-01  0.1200E+02  0.1200E+02
     14.995  0.1028E-01  0.1048E-01  0.1200E+02  0.1200E+02
     15.065  0.3464E-02  0.3564E-02  0.1200E+02  0.1200E+02
     15.134  0.9408E-03  0.9703E-03  0.1200E+02  0.1200E+02
     15.204  0.2392E-03  0.2469E-03  0.1200E+02  0.1200E+02
     15.273  0.5980E-04  0.6174E-04  0.1200E+02  0.1200E+02
     15.343  0.0000E+00  0.0000E+00  0.1200E+02  0.1200E+02
     15.413  0.0000E+00  0.0000E+00  0.1200E+02  0.1200E+02
     15.482  0.0000E+00  0.0000E+00  0.1200E+02  0.1200E+02
     15.552  0.0000E+00  0.0000E+00  0.1200E+02  0.1200E+02
     15.621  0.0000E+00  0.0000E+00  0.1200E+02  0.1200E+02
     15.691  0.0000E+00  0.0000E+00  0.1200E+02  0.1200E+02
     15.761  0.0000E+00  0.0000E+00  0.1200E+02  0.1200E+02
     15.830  0.0000E+00  0.0000E+00  0.1200E+02  0.1200E+02
     15.83031493     -5.05160198  301      4.81200729      1.00000000
     -5.052  0.0000E+00  0.0000E+00  0.0000E+00  0.0000E+00  0.0000E+00  0.0000E+00  0.0000E+00  0.0000E+00  0.0000E+00  0.0000E+00  0.0000E+00  0.0000E+00  0.0000E+00  0.0000E+00  0.0000E+00  0.0000E+00  0.0000E+00  0.0000E+00
     -4.982  0.0000E+00  0.0000E+00  0.0000E+00  0.0000E+00  0.0000E+00  0.0000E+00  0.0000E+00  0.0000E+00  0.0000E+00  0.0000E+00  0.0000E+00  0.0000E+00  0.0000E+00  0.0000E+00  0.0000E+00  0.0000E+00  0.0000E+00  0.0000E+00
     -4.912  0.0000E+00  0.0000E+00  0.0000E+00  0.0000E+00  0.0000E+00  0.0000E+00  0.0000E+00  0.0000E+00  0.0000E+00  0.0000E+00  0.0000E+00  0.0000E+00  0.0000E+00  0.0000E+00  0.0000E+00  0.0000E+00  0.0000E+00  0.0000E+00
     -4.843  0.0000E+00  0.0000E+00  0.0000E+00  0.0000E+00  0.0000E+00  0.0000E+00  0.0000E+00  0.0000E+00  0.0000E+00  0.0000E+00  0.0000E+00  0.0000E+00  0.0000E+00  0.0000E+00  0.0000E+00  0.0000E+00  0.0000E+00  0.0000E+00
     -4.773  0.0000E+00  0.0000E+00  0.0000E+00  0.0000E+00  0.0000E+00  0.0000E+00  0.0000E+00  0.0000E+00  0.0000E+00  0.0000E+00  0.0000E+00  0.0000E+00  0.0000E+00  0.0000E+00  0.0000E+00  0.0000E+00  0.0000E+00  0.0000E+00
     -4.704  0.0000E+00  0.0000E+00  0.0000E+00  0.0000E+00  0.0000E+00  0.0000E+00  0.0000E+00  0.0000E+00  0.0000E+00  0.0000E+00  0.0000E+00  0.0000E+00  0.0000E+00  0.0000E+00  0.0000E+00  0.0000E+00  0.0000E+00  0.0000E+00
     -4.634  0.0000E+00  0.0000E+00  0.0000E+00  0.0000E+00  0.0000E+00  0.0000E+00  0.0000E+00  0.0000E+00  0.0000E+00  0.0000E+00  0.0000E+00  0.0000E+00  0.0000E+00  0.0000E+00  0.0000E+00  0.0000E+00  0.0000E+00  0.0000E+00
     -4.564  0.1113E-07  0.1105E-07  0.7048E-24  0.2157E-23  0.7048E-24  0.2157E-23  0.6468E-25  0.4444E-23  0.0000E+00  0.0000E+00  0.0000E+00  0.0000E+00  0.0000E+00  0.0000E+00  0.0000E+00  0.0000E+00  0.0000E+00  0.0000E+00
     -4.495  0.1433E-06  0.1422E-06  0.4943E-09  0.4906E-09  0.4943E-09  0.4906E-09  0.4941E-09  0.4903E-09  0.0000E+00  0.0000E+00  0.0000E+00  0.0000E+00  0.0000E+00  0.0000E+00  0.0000E+00  0.0000E+00  0.0000E+00  0.0000E+00
     -4.425  0.9241E-06  0.9171E-06  0.6085E-08  0.6040E-08  0.6085E-08  0.6040E-08  0.6083E-08  0.6038E-08  0.0000E+00  0.0000E+00  0.0000E+00  0.0000E+00  0.0000E+00  0.0000E+00  0.0000E+00  0.0000E+00  0.0000E+00  0.0000E+00
     -4.356  0.3375E-05  0.3349E-05  0.2220E-07  0.2204E-07  0.2220E-07  0.2204E-07  0.2219E-07  0.2203E-07  0.0000E+00  0.0000E+00  0.0000E+00  0.0000E+00  0.0000E+00  0.0000E+00  0.0000E+00  0.0000E+00  0.0000E+00  0.0000E+00
     -4.286  0.1446E-04  0.1435E-04  0.1149E-06  0.1141E-06  0.1149E-06  0.1141E-06  0.1148E-06  0.1140E-06  0.0000E+00  0.0000E+00  0.0000E+00  0.0000E+00  0.0000E+00  0.0000E+00  0.0000E+00  0.0000E+00  0.0000E+00  0.0000E+00
     -4.216  0.5527E-04  0.5487E-04  0.4315E-06  0.4283E-06  0.4315E-06  0.4283E-06  0.4312E-06  0.4281E-06  0.0000E+00  0.0000E+00  0.0000E+00  0.0000E+00  0.0000E+00  0.0000E+00  0.0000E+00  0.0000E+00  0.0000E+00  0.0000E+00
     -4.147  0.1979E-03  0.1966E-03  0.1653E-05  0.1641E-05  0.1653E-05  0.1641E-05  0.1652E-05  0.1640E-05  0.0000E+00  0.0000E+00  0.0000E+00  0.0000E+00  0.0000E+00  0.0000E+00  0.0000E+00  0.0000E+00  0.0000E+00  0.0000E+00
     -4.077  0.5699E-03  0.5671E-03  0.5550E-05  0.5518E-05  0.5550E-05  0.5518E-05  0.5547E-05  0.5514E-05  0.0000E+00  0.0000E+00  0.0000E+00  0.0000E+00  0.0000E+00  0.0000E+00  0.0000E+00  0.0000E+00  0.0000E+00  0.0000E+00
     -4.008  0.1150E-02  0.1147E-02  0.1459E-04  0.1453E-04  0.1459E-04  0.1453E-04  0.1458E-04  0.1452E-04  0.0000E+00  0.0000E+00  0.0000E+00  0.0000E+00  0.0000E+00  0.0000E+00  0.0000E+00  0.0000E+00  0.0000E+00  0.0000E+00
     -3.938  0.1707E-02  0.1704E-02  0.3075E-04  0.3064E-04  0.3075E-04  0.3064E-04  0.3072E-04  0.3061E-04  0.0000E+00  0.0000E+00  0.0000E+00  0.0000E+00  0.0000E+00  0.0000E+00  0.0000E+00  0.0000E+00  0.0000E+00  0.0000E+00
     -3.868  0.2241E-02  0.2238E-02  0.5434E-04  0.5420E-04  0.5434E-04  0.5420E-04  0.5431E-04  0.5417E-04  0.0000E+00  0.0000E+00  0.0000E+00  0.0000E+00  0.0000E+00  0.0000E+00  0.0000E+00  0.0000E+00  0.0000E+00  0.0000E+00
     -3.799  0.2486E-02  0.2485E-02  0.7681E-04  0.7669E-04  0.7681E-04  0.7669E-04  0.7677E-04  0.7664E-04  0.0000E+00  0.0000E+00  0.0000E+00  0.0000E+00  0.0000E+00  0.0000E+00  0.0000E+00  0.0000E+00  0.0000E+00  0.0000E+00
     -3.729  0.2670E-02  0.2667E-02  0.1084E-03  0.1081E-03  0.1084E-03  0.1081E-03  0.1083E-03  0.1080E-03  0.0000E+00  0.0000E+00  0.0000E+00  0.0000E+00  0.0000E+00  0.0000E+00  0.0000E+00  0.0000E+00  0.0000E+00  0.0000E+00
     -3.659  0.3126E-02  0.3123E-02  0.1544E-03  0.1541E-03  0.1544E-03  0.1541E-03  0.1542E-03  0.1540E-03  0.0000E+00  0.0000E+00  0.0000E+00  0.0000E+00  0.0000E+00  0.0000E+00  0.0000E+00  0.0000E+00  0.0000E+00  0.0000E+00
     -3.590  0.3219E-02  0.3218E-02  0.1857E-03  0.1855E-03  0.1857E-03  0.1855E-03  0.1856E-03  0.1855E-03  0.0000E+00  0.0000E+00  0.0000E+00  0.0000E+00  0.0000E+00  0.0000E+00  0.0000E+00  0.0000E+00  0.0000E+00  0.0000E+00
     -3.520  0.3270E-02  0.3269E-02  0.2217E-03  0.2214E-03  0.2217E-03  0.2214E-03  0.2215E-03  0.2212E-03  0.0000E+00  0.0000E+00  0.0000E+00  0.0000E+00  0.0000E+00  0.0000E+00  0.0000E+00  0.0000E+00  0.0000E+00  0.0000E+00
     -3.451  0.3338E-02  0.3338E-02  0.2631E-03  0.2629E-03  0.2631E-03  0.2629E-03  0.2628E-03  0.2625E-03  0.0000E+00  0.0000E+00  0.0000E+00  0.0000E+00  0.0000E+00  0.0000E+00  0.0000E+00  0.0000E+00  0.0000E+00  0.0000E+00
     -3.381  0.3355E-02  0.3352E-02  0.3153E-03  0.3148E-03  0.3153E-03  0.3148E-03  0.3147E-03  0.3143E-03  0.0000E+00  0.0000E+00  0.0000E+00  0.0000E+00  0.0000E+00  0.0000E+00  0.0000E+00  0.0000E+00  0.0000E+00  0.0000E+00
     -3.311  0.3761E-02  0.3757E-02  0.4009E-03  0.4005E-03  0.4009E-03  0.4005E-03  0.4006E-03  0.4001E-03  0.0000E+00  0.0000E+00  0.0000E+00  0.0000E+00  0.0000E+00  0.0000E+00  0.0000E+00  0.0000E+00  0.0000E+00  0.0000E+00
     -3.242  0.3853E-02  0.3852E-02  0.4513E-03  0.4512E-03  0.4513E-03  0.4512E-03  0.4512E-03  0.4511E-03  0.0000E+00  0.0000E+00  0.0000E+00  0.0000E+00  0.0000E+00  0.0000E+00  0.0000E+00  0.0000E+00  0.0000E+00  0.0000E+00
     -3.172  0.3640E-02  0.3641E-02  0.4740E-03  0.4739E-03  0.4740E-03  0.4739E-03  0.4738E-03  0.4737E-03  0.0000E+00  0.0000E+00  0.0000E+00  0.0000E+00  0.0000E+00  0.0000E+00  0.0000E+00  0.0000E+00  0.0000E+00  0.0000E+00
     -3.103  0.3286E-02  0.3287E-02  0.4946E-03  0.4942E-03  0.4946E-03  0.4942E-03  0.4938E-03  0.4934E-03  0.0000E+00  0.0000E+00  0.0000E+00  0.0000E+00  0.0000E+00  0.0000E+00  0.0000E+00  0.0000E+00  0.0000E+00  0.0000E+00
     -3.033  0.3470E-02  0.3467E-02  0.6287E-03  0.6276E-03  0.6287E-03  0.6276E-03  0.6268E-03  0.6257E-03  0.0000E+00  0.0000E+00  0.0000E+00  0.0000E+00  0.0000E+00  0.0000E+00  0.0000E+00  0.0000E+00  0.0000E+00  0.0000E+00
     -2.963  0.3897E-02  0.3896E-02  0.7910E-03  0.7903E-03  0.7910E-03  0.7903E-03  0.7901E-03  0.7895E-03  0.0000E+00  0.0000E+00  0.0000E+00  0.0000E+00  0.0000E+00  0.0000E+00  0.0000E+00  0.0000E+00  0.0000E+00  0.0000E+00
     -2.894  0.3738E-02  0.3740E-02  0.8382E-03  0.8379E-03  0.8382E-03  0.8379E-03  0.8377E-03  0.8373E-03  0.0000E+00  0.0000E+00  0.0000E+00  0.0000E+00  0.0000E+00  0.0000E+00  0.0000E+00  0.0000E+00  0.0000E+00  0.0000E+00
     -2.824  0.3498E-02  0.3502E-02  0.8981E-03  0.8975E-03  0.8981E-03  0.8975E-03  0.8968E-03  0.8963E-03  0.0000E+00  0.0000E+00  0.0000E+00  0.0000E+00  0.0000E+00  0.0000E+00  0.0000E+00  0.0000E+00  0.0000E+00  0.0000E+00
     -2.755  0.2988E-02  0.2993E-02  0.9532E-03  0.9522E-03  0.9532E-03  0.9522E-03  0.9503E-03  0.9494E-03  0.0000E+00  0.0000E+00  0.0000E+00  0.0000E+00  0.0000E+00  0.0000E+00  0.0000E+00  0.0000E+00  0.0000E+00  0.0000E+00
     -2.685  0.2972E-02  0.2973E-02  0.1197E-02  0.1195E-02  0.1197E-02  0.1195E-02  0.1193E-02  0.1191E-02  0.0000E+00  0.0000E+00  0.0000E+00  0.0000E+00  0.0000E+00  0.0000E+00  0.0000E+00  0.0000E+00  0.0000E+00  0.0000E+00
     -2.615  0.3288E-02  0.3291E-02  0.1435E-02  0.1434E-02  0.1435E-02  0.1434E-02  0.1434E-02  0.1433E-02  0.0000E+00  0.0000E+00  0.0000E+00  0.0000E+00  0.0000E+00  0.0000E+00  0.0000E+00  0.0000E+00  0.0000E+00  0.0000E+00
     -2.546  0.2946E-02  0.2953E-02  0.1438E-02  0.1438E-02  0.1438E-02  0.1438E-02  0.1438E-02  0.1438E-02  0.0000E+00  0.0000E+00  0.0000E+00  0.0000E+00  0.0000E+00  0.0000E+00  0.0000E+00  0.0000E+00  0.0000E+00  0.0000E+00
     -2.476  0.2362E-02  0.2368E-02  0.1304E-02  0.1305E-02  0.1304E-02  0.1305E-02  0.1307E-02  0.1308E-02  0.0000E+00  0.0000E+00  0.0000E+00  0.0000E+00  0.0000E+00  0.0000E+00  0.0000E+00  0.0000E+00  0.0000E+00  0.0000E+00
     -2.407  0.1923E-02  0.1926E-02  0.1145E-02  0.1145E-02  0.1145E-02  0.1145E-02  0.1146E-02  0.1146E-02  0.0000E+00  0.0000E+00  0.0000E+00  0.0000E+00  0.0000E+00  0.0000E+00  0.0000E+00  0.0000E+00  0.0000E+00  0.0000E+00
     -2.337  0.2084E-02  0.2084E-02  0.1326E-02  0.1324E-02  0.1326E-02  0.1324E-02  0.1324E-02  0.1321E-02  0.0000E+00  0.0000E+00  0.0000E+00  0.0000E+00  0.0000E+00  0.0000E+00  0.0000E+00  0.0000E+00  0.0000E+00  0.0000E+00
     -2.267  0.2333E-02  0.2337E-02  0.1496E-02  0.1496E-02  0.1496E-02  0.1496E-02  0.1497E-02  0.1497E-02  0.0000E+00  0.0000E+00  0.0000E+00  0.0000E+00  0.0000E+00  0.0000E+00  0.0000E+00  0.0000E+00  0.0000E+00  0.0000E+00
     -2.198  0.1934E-02  0.1940E-02  0.1278E-02  0.1280E-02  0.1278E-02  0.1280E-02  0.1281E-02  0.1283E-02  0.0000E+00  0.0000E+00  0.0000E+00  0.0000E+00  0.0000E+00  0.0000E+00  0.0000E+00  0.0000E+00  0.0000E+00  0.0000E+00
     -2.128  0.1441E-02  0.1446E-02  0.1066E-02  0.1067E-02  0.1066E-02  0.1067E-02  0.1068E-02  0.1069E-02  0.0000E+00  0.0000E+00  0.0000E+00  0.0000E+00  0.0000E+00  0.0000E+00  0.0000E+00  0.0000E+00  0.0000E+00  0.0000E+00
     -2.059  0.1067E-02  0.1070E-02  0.9167E-03  0.9165E-03  0.9167E-03  0.9165E-03  0.9174E-03  0.9172E-03  0.0000E+00  0.0000E+00  0.0000E+00  0.0000E+00  0.0000E+00  0.0000E+00  0.0000E+00  0.0000E+00  0.0000E+00  0.0000E+00
     -1.989  0.1229E-02  0.1229E-02  0.1116E-02  0.1113E-02  0.1116E-02  0.1113E-02  0.1113E-02  0.1111E-02  0.0000E+00  0.0000E+00  0.0000E+00  0.0000E+00  0.0000E+00  0.0000E+00  0.0000E+00  0.0000E+00  0.0000E+00  0.0000E+00
     -1.919  0.1513E-02  0.1517E-02  0.1368E-02  0.1368E-02  0.1368E-02  0.1368E-02  0.1368E-02  0.1368E-02  0.0000E+00  0.0000E+00  0.0000E+00  0.0000E+00  0.0000E+00  0.0000E+00  0.0000E+00  0.0000E+00  0.0000E+00  0.0000E+00
     -1.850  0.1201E-02  0.1207E-02  0.1164E-02  0.1166E-02  0.1164E-02  0.1166E-02  0.1167E-02  0.1169E-02  0.0000E+00  0.0000E+00  0.0000E+00  0.0000E+00  0.0000E+00  0.0000E+00  0.0000E+00  0.0000E+00  0.0000E+00  0.0000E+00
     -1.780  0.8056E-03  0.8096E-03  0.8593E-03  0.8607E-03  0.8593E-03  0.8607E-03  0.8626E-03  0.8640E-03  0.0000E+00  0.0000E+00  0.0000E+00  0.0000E+00  0.0000E+00  0.0000E+00  0.0000E+00  0.0000E+00  0.0000E+00  0.0000E+00
     -1.710  0.5916E-03  0.5936E-03  0.6357E-03  0.6360E-03  0.6357E-03  0.6360E-03  0.6372E-03  0.6375E-03  0.0000E+00  0.0000E+00  0.0000E+00  0.0000E+00  0.0000E+00  0.0000E+00  0.0000E+00  0.0000E+00  0.0000E+00  0.0000E+00
     -1.641  0.6864E-03  0.6864E-03  0.7823E-03  0.7797E-03  0.7823E-03  0.7797E-03  0.7792E-03  0.7765E-03  0.0000E+00  0.0000E+00  0.0000E+00  0.0000E+00  0.0000E+00  0.0000E+00  0.0000E+00  0.0000E+00  0.0000E+00  0.0000E+00
     -1.571  0.9392E-03  0.9402E-03  0.1126E-02  0.1125E-02  0.1126E-02  0.1125E-02  0.1124E-02  0.1123E-02  0.0000E+00  0.0000E+00  0.0000E+00  0.0000E+00  0.0000E+00  0.0000E+00  0.0000E+00  0.0000E+00  0.0000E+00  0.0000E+00