   4   4   1   0
  0.1489364E+02  0.3904724E-09  0.3906027E-09  0.3906027E-09  0.5000000E-15
  1.000000000000000E-004
  CAR 
 unknown system                          
     20.69315718     -4.47083666  301      7.09095273      1.00000000
     -4.471  0.0000E+00  0.0000E+00  0.0000E+00  0.0000E+00
     -4.387  0.0000E+00  0.0000E+00  0.0000E+00  0.0000E+00
     -4.303  0.0000E+00  0.0000E+00  0.0000E+00  0.0000E+00
     -4.219  0.0000E+00  0.0000E+00  0.0000E+00  0.0000E+00
     -4.135  0.0000E+00  0.0000E+00  0.0000E+00  0.0000E+00
     -4.051  0.0000E+00  0.0000E+00  0.0000E+00  0.0000E+00
     -3.968  0.0000E+00  0.0000E+00  0.0000E+00  0.0000E+00
     -3.884  0.0000E+00  0.0000E+00  0.0000E+00  0.0000E+00
     -3.800  0.4170E-06  0.4246E-06  0.3497E-07  0.3562E-07
     -3.716  0.6530E-05  0.6650E-05  0.5827E-06  0.5934E-06
     -3.632  0.5213E-04  0.5308E-04  0.4956E-05  0.5046E-05
     -3.548  0.2704E-03  0.2753E-03  0.2764E-04  0.2814E-04
     -3.464  0.1418E-02  0.1443E-02  0.1465E-03  0.1492E-03
     -3.380  0.6832E-02  0.6942E-02  0.7196E-03  0.7314E-03
     -3.297  0.2535E-01  0.2565E-01  0.2846E-02  0.2883E-02
     -3.213  0.5814E-01  0.5850E-01  0.7723E-02  0.7790E-02
     -3.129  0.8769E-01  0.8800E-01  0.1508E-01  0.1517E-01
     -3.045  0.1214E+00  0.1217E+00  0.2526E-01  0.2538E-01
     -2.961  0.1328E+00  0.1327E+00  0.3640E-01  0.3651E-01
     -2.877  0.1452E+00  0.1456E+00  0.4858E-01  0.4873E-01
     -2.793  0.1835E+00  0.1838E+00  0.6398E-01  0.6415E-01
     -2.709  0.1855E+00  0.1854E+00  0.7954E-01  0.7970E-01
     -2.625  0.1970E+00  0.1973E+00  0.9607E-01  0.9626E-01
     -2.542  0.2050E+00  0.2049E+00  0.1133E+00  0.1135E+00
     -2.458  0.2157E+00  0.2160E+00  0.1314E+00  0.1316E+00
     -2.374  0.2612E+00  0.2615E+00  0.1533E+00  0.1535E+00
     -2.290  0.2672E+00  0.2672E+00  0.1757E+00  0.1760E+00
     -2.206  0.2549E+00  0.2546E+00  0.1971E+00  0.1973E+00
     -2.122  0.2359E+00  0.2360E+00  0.2169E+00  0.2171E+00
     -2.038  0.2988E+00  0.2997E+00  0.2420E+00  0.2423E+00
     -1.954  0.3463E+00  0.3462E+00  0.2711E+00  0.2714E+00
     -1.871  0.3322E+00  0.3323E+00  0.2989E+00  0.2992E+00
     -1.787  0.3363E+00  0.3360E+00  0.3272E+00  0.3274E+00
     -1.703  0.3152E+00  0.3156E+00  0.3536E+00  0.3539E+00
     -1.619  0.4139E+00  0.4150E+00  0.3883E+00  0.3887E+00
     -1.535  0.4590E+00  0.4588E+00  0.4269E+00  0.4273E+00
     -1.451  0.4176E+00  0.4170E+00  0.4619E+00  0.4622E+00
     -1.367  0.3422E+00  0.3412E+00  0.4906E+00  0.4909E+00
     -1.283  0.3085E+00  0.3092E+00  0.5165E+00  0.5168E+00
     -1.200  0.4239E+00  0.4250E+00  0.5521E+00  0.5525E+00
     -1.116  0.4163E+00  0.4151E+00  0.5870E+00  0.5874E+00
     -1.032  0.3217E+00  0.3211E+00  0.6141E+00  0.6143E+00
     -0.948  0.2562E+00  0.2554E+00  0.6356E+00  0.6358E+00
     -0.864  0.2362E+00  0.2370E+00  0.6554E+00  0.6557E+00
     -0.780  0.3694E+00  0.3704E+00  0.6864E+00  0.6868E+00
     -0.696  0.3741E+00  0.3730E+00  0.7178E+00  0.7181E+00
     -0.612  0.2651E+00  0.2641E+00  0.7401E+00  0.7403E+00
     -0.528  0.1787E+00  0.1778E+00  0.7551E+00  0.7552E+00
     -0.445  0.1567E+00  0.1575E+00  0.7683E+00  0.7685E+00
     -0.361  0.2927E+00  0.2944E+00  0.7929E+00  0.7932E+00
     -0.277  0.3382E+00  0.3373E+00  0.8212E+00  0.8215E+00
     -0.193  0.2286E+00  0.2278E+00  0.8405E+00  0.8406E+00
     -0.109  0.2325E+00  0.2328E+00  0.8600E+00  0.8602E+00
     -0.025  0.2739E+00  0.2744E+00  0.8829E+00  0.8832E+00
      0.059  0.3622E+00  0.3633E+00  0.9133E+00  0.9137E+00
      0.143  0.4188E+00  0.4187E+00  0.9485E+00  0.9488E+00
      0.226  0.3589E+00  0.3581E+00  0.9786E+00  0.9789E+00
      0.310  0.3236E+00  0.3232E+00  0.1006E+01  0.1006E+01
      0.394  0.3174E+00  0.3177E+00  0.1032E+01  0.1033E+01
      0.478  0.4023E+00  0.4036E+00  0.1066E+01  0.1067E+01
      0.562  0.5038E+00  0.5041E+00  0.1108E+01  0.1109E+01
      0.646  0.5111E+00  0.5108E+00  0.1151E+01  0.1152E+01
      0.730  0.4560E+00  0.4551E+00  0.1190E+01  0.1190E+01
      0.814  0.3995E+00  0.3995E+00  0.1223E+01  0.1223E+01
      0.897  0.4714E+00  0.4721E+00  0.1263E+01  0.1263E+01
      0.981  0.5520E+00  0.5525E+00  0.1309E+01  0.1309E+01
      1.065  0.5680E+00  0.5675E+00  0.1357E+01  0.1357E+01
      1.149  0.4988E+00  0.4979E+00  0.1399E+01  0.1399E+01
      1.233  0.4849E+00  0.4857E+00  0.1439E+01  0.1440E+01
      1.317  0.6570E+00  0.6584E+00  0.1494E+01  0.1495E+01
      1.401  0.6474E+00  0.6463E+00  0.1549E+01  0.1549E+01
      1.485  0.5289E+00  0.5287E+00  0.1593E+01  0.1594E+01
      1.569  0.5154E+00  0.5150E+00  0.1636E+01  0.1637E+01
      1.652  0.5132E+00  0.5133E+00  0.1680E+01  0.1680E+01
      1.736  0.5213E+00  0.5210E+00  0.1723E+01  0.1724E+01
      1.820  0.4696E+00  0.4695E+00  0.1763E+01  0.1763E+01
      1.904  0.4816E+00  0.4824E+00  0.1803E+01  0.1804E+01
      1.988  0.5170E+00  0.5170E+00  0.1847E+01  0.1847E+01
      2.072  0.4667E+00  0.4663E+00  0.1886E+01  0.1886E+01
      2.156  0.4488E+00  0.4485E+00  0.1924E+01  0.1924E+01
      2.240  0.4103E+00  0.4100E+00  0.1958E+01  0.1958E+01
      2.323  0.4089E+00  0.4096E+00  0.1992E+01  0.1993E+01
      2.407  0.5348E+00  0.5365E+00  0.2037E+01  0.2038E+01
      2.491  0.6311E+00  0.6312E+00  0.2090E+01  0.2091E+01
      2.575  0.6161E+00  0.6157E+00  0.2142E+01  0.2142E+01
      2.659  0.5196E+00  0.5182E+00  0.2185E+01  0.2186E+01
      2.743  0.4249E+00  0.4245E+00  0.2221E+01  0.2221E+01
      2.827  0.3823E+00  0.3822E+00  0.2253E+01  0.2254E+01
      2.911  0.4057E+00  0.4063E+00  0.2287E+01  0.2288E+01
      2.994  0.4506E+00  0.4514E+00  0.2325E+01  0.2326E+01
      3.078  0.5229E+00  0.5236E+00  0.2369E+01  0.2370E+01
      3.162  0.5666E+00  0.5668E+00  0.2417E+01  0.2417E+01
      3.246  0.6554E+00  0.6568E+00  0.2472E+01  0.2472E+01
      3.330  0.7256E+00  0.7249E+00  0.2533E+01  0.2533E+01
      3.414  0.5438E+00  0.5422E+00  0.2578E+01  0.2579E+01
      3.498  0.4768E+00  0.4773E+00  0.2618E+01  0.2619E+01
      3.582  0.5195E+00  0.5202E+00  0.2662E+01  0.2662E+01
      3.666  0.6448E+00  0.6470E+00  0.2716E+01  0.2717E+01
      3.749  0.8851E+00  0.8873E+00  0.2790E+01  0.2791E+01
      3.833  0.9537E+00  0.9526E+00  0.2870E+01  0.2871E+01
      3.917  0.6892E+00  0.6851E+00  0.2928E+01  0.2929E+01
      4.001  0.4514E+00  0.4507E+00  0.2966E+01  0.2966E+01
      4.085  0.5144E+00  0.5165E+00  0.3009E+01  0.3010E+01
      4.169  0.6941E+00  0.6959E+00  0.3068E+01  0.3068E+01
      4.253  0.7148E+00  0.7141E+00  0.3128E+01  0.3128E+01
      4.337  0.7395E+00  0.7394E+00  0.3190E+01  0.3190E+01
      4.420  0.6954E+00  0.6941E+00  0.3248E+01  0.3249E+01
      4.504  0.6011E+00  0.6014E+00  0.3298E+01  0.3299E+01
      4.588  0.6035E+00  0.6029E+00  0.3349E+01  0.3350E+01
      4.672  0.5159E+00  0.5152E+00  0.3392E+01  0.3393E+01
      4.756  0.6082E+00  0.6117E+00  0.3444E+01  0.3444E+01
      4.840  0.8778E+00  0.8799E+00  0.3517E+01  0.3518E+01
      4.924  0.8964E+00  0.8947E+00  0.3592E+01  0.3593E+01
      5.008  0.7425E+00  0.7423E+00  0.3655E+01  0.3656E+01
      5.091  0.7367E+00  0.7365E+00  0.3717E+01  0.3717E+01
      5.175  0.7215E+00  0.7207E+00  0.3777E+01  0.3778E+01
      5.259  0.6577E+00  0.6565E+00  0.3832E+01  0.3833E+01
      5.343  0.5376E+00  0.5368E+00  0.3878E+01  0.3878E+01
      5.427  0.4860E+00  0.4858E+00  0.3918E+01  0.3919E+01
      5.511  0.5873E+00  0.5900E+00  0.3968E+01  0.3968E+01
      5.595  0.8623E+00  0.8643E+00  0.4040E+01  0.4041E+01
      5.679  0.8586E+00  0.8572E+00  0.4112E+01  0.4113E+01
      5.763  0.7315E+00  0.7299E+00  0.4174E+01  0.4174E+01
      5.846  0.6150E+00  0.6139E+00  0.4225E+01  0.4226E+01
      5.930  0.5741E+00  0.5745E+00  0.4273E+01  0.4274E+01
      6.014  0.6337E+00  0.6344E+00  0.4327E+01  0.4327E+01
      6.098  0.6216E+00  0.6199E+00  0.4379E+01  0.4379E+01
      6.182  0.4763E+00  0.4751E+00  0.4419E+01  0.4419E+01
      6.266  0.4717E+00  0.4738E+00  0.4458E+01  0.4459E+01
      6.350  0.6165E+00  0.6177E+00  0.4510E+01  0.4511E+01
      6.434  0.7027E+00  0.7026E+00  0.4569E+01  0.4570E+01
      6.517  0.7173E+00  0.7168E+00  0.4629E+01  0.4630E+01
      6.601  0.6149E+00  0.6136E+00  0.4681E+01  0.4682E+01
      6.685  0.6191E+00  0.6209E+00  0.4733E+01  0.4734E+01
      6.769  0.8061E+00  0.8077E+00  0.4801E+01  0.4801E+01
      6.853  0.8164E+00  0.8154E+00  0.4869E+01  0.4870E+01
      6.937  0.6577E+00  0.6554E+00  0.4924E+01  0.4925E+01
      7.021  0.4849E+00  0.4828E+00  0.4965E+01  0.4965E+01
      7.105  0.4991E+00  0.4994E+00  0.5007E+01  0.5007E+01
      7.188  0.5177E+00  0.5180E+00  0.5050E+01  0.5051E+01
      7.272  0.5326E+00  0.5326E+00  0.5095E+01  0.5096E+01
      7.356  0.5922E+00  0.5928E+00  0.5145E+01  0.5145E+01
      7.440  0.7250E+00  0.7269E+00  0.5206E+01  0.5206E+01
      7.524  0.9254E+00  0.9276E+00  0.5283E+01  0.5284E+01
      7.608  0.9219E+00  0.9200E+00  0.5361E+01  0.5361E+01
      7.692  0.6922E+00  0.6897E+00  0.5419E+01  0.5419E+01
      7.776  0.5518E+00  0.5517E+00  0.5465E+01  0.5466E+01
      7.860  0.5590E+00  0.5589E+00  0.5512E+01  0.5513E+01
      7.943  0.5314E+00  0.5314E+00  0.5557E+01  0.5557E+01
      8.027  0.6088E+00  0.6103E+00  0.5608E+01  0.5608E+01
      8.111  0.7576E+00  0.7583E+00  0.5671E+01  0.5672E+01
      8.195  0.7966E+00  0.7956E+00  0.5738E+01  0.5739E+01
      8.279  0.6736E+00  0.6723E+00  0.5795E+01  0.5795E+01
      8.363  0.6093E+00  0.6092E+00  0.5846E+01  0.5846E+01
      8.447  0.7163E+00  0.7171E+00  0.5906E+01  0.5907E+01
      8.531  0.7715E+00  0.7695E+00  0.5971E+01  0.5971E+01
      8.614  0.6793E+00  0.6771E+00  0.6028E+01  0.6028E+01
      8.698  0.6775E+00  0.6790E+00  0.6085E+01  0.6085E+01
      8.782  0.7234E+00  0.7236E+00  0.6146E+01  0.6146E+01
      8.866  0.7617E+00  0.7607E+00  0.6210E+01  0.6210E+01
      8.950  0.8353E+00  0.8357E+00  0.6280E+01  0.6280E+01
      9.034  0.9760E+00  0.9764E+00  0.6362E+01  0.6362E+01
      9.118  0.1062E+01  0.1061E+01  0.6451E+01  0.6451E+01
      9.202  0.8175E+00  0.8170E+00  0.6519E+01  0.6519E+01
      9.285  0.6621E+00  0.6642E+00  0.6575E+01  0.6575E+01
      9.369  0.8925E+00  0.8947E+00  0.6650E+01  0.6650E+01
      9.453  0.1015E+01  0.1014E+01  0.6735E+01  0.6735E+01
      9.537  0.1009E+01  0.1008E+01  0.6820E+01  0.6820E+01
      9.621  0.9781E+00  0.9763E+00  0.6902E+01  0.6902E+01
      9.705  0.7406E+00  0.7400E+00  0.6964E+01  0.6964E+01
      9.789  0.5665E+00  0.5673E+00  0.7012E+01  0.7012E+01
      9.873  0.6795E+00  0.6798E+00  0.7069E+01  0.7069E+01
      9.957  0.8839E+00  0.8830E+00  0.7143E+01  0.7143E+01
     10.040  0.8823E+00  0.8837E+00  0.7217E+01  0.7217E+01
     10.124  0.8158E+00  0.8168E+00  0.7285E+01  0.7286E+01
     10.208  0.8005E+00  0.8006E+00  0.7353E+01  0.7353E+01
     10.292  0.9514E+00  0.9514E+00  0.7432E+01  0.7433E+01
     10.376  0.9100E+00  0.9097E+00  0.7509E+01  0.7509E+01
     10.460  0.7580E+00  0.7568E+00  0.7573E+01  0.7573E+01
     10.544  0.7008E+00  0.7008E+00  0.7631E+01  0.7632E+01
     10.628  0.7428E+00  0.7435E+00  0.7694E+01  0.7694E+01
     10.711  0.7330E+00  0.7330E+00  0.7755E+01  0.7756E+01
     10.795  0.7593E+00  0.7599E+00  0.7819E+01  0.7819E+01
     10.879  0.8831E+00  0.8837E+00  0.7893E+01  0.7893E+01
     10.963  0.1052E+01  0.1051E+01  0.7981E+01  0.7982E+01
     11.047  0.1066E+01  0.1064E+01  0.8071E+01  0.8071E+01
     11.131  0.9372E+00  0.9353E+00  0.8149E+01  0.8149E+01
     11.215  0.7957E+00  0.7957E+00  0.8216E+01  0.8216E+01
     11.299  0.7907E+00  0.7925E+00  0.8283E+01  0.8283E+01
     11.382  0.8690E+00  0.8703E+00  0.8356E+01  0.8356E+01
     11.466  0.8016E+00  0.8021E+00  0.8423E+01  0.8423E+01
     11.550  0.6954E+00  0.6967E+00  0.8481E+01  0.8482E+01
     11.634  0.7036E+00  0.7022E+00  0.8540E+01  0.8541E+01
     11.718  0.8132E+00  0.8100E+00  0.8609E+01  0.8609E+01
     11.802  0.8572E+00  0.8567E+00  0.8681E+01  0.8681E+01
     11.886  0.8486E+00  0.8510E+00  0.8752E+01  0.8752E+01
     11.970  0.8842E+00  0.8860E+00  0.8826E+01  0.8826E+01
     12.054  0.7470E+00  0.7460E+00  0.8889E+01  0.8889E+01
     12.137  0.6496E+00  0.6485E+00  0.8943E+01  0.8944E+01
     12.221  0.6475E+00  0.6477E+00  0.8998E+01  0.8998E+01
     12.305  0.6549E+00  0.6548E+00  0.9053E+01  0.9053E+01
     12.389  0.7967E+00  0.7956E+00  0.9120E+01  0.9120E+01
     12.473  0.1033E+01  0.1030E+01  0.9206E+01  0.9206E+01
     12.557  0.1051E+01  0.1050E+01  0.9295E+01  0.9294E+01
     12.641  0.8933E+00  0.8933E+00  0.9369E+01  0.9369E+01
     12.725  0.8069E+00  0.8080E+00  0.9437E+01  0.9437E+01
     12.808  0.9386E+00  0.9392E+00  0.9516E+01  0.9516E+01
     12.892  0.1239E+01  0.1236E+01  0.9620E+01  0.9620E+01
     12.976  0.1193E+01  0.1192E+01  0.9720E+01  0.9720E+01
     13.060  0.8611E+00  0.8647E+00  0.9792E+01  0.9792E+01
     13.144  0.6945E+00  0.6957E+00  0.9851E+01  0.9851E+01
     13.228  0.7654E+00  0.7611E+00  0.9915E+01  0.9915E+01
     13.312  0.9285E+00  0.9241E+00  0.9993E+01  0.9992E+01
     13.396  0.1021E+01  0.1022E+01  0.1008E+02  0.1008E+02
     13.479  0.9550E+00  0.9590E+00  0.1016E+02  0.1016E+02
     13.563  0.8552E+00  0.8550E+00  0.1023E+02  0.1023E+02
     13.647  0.7635E+00  0.7621E+00  0.1029E+02  0.1029E+02
     13.731  0.7148E+00  0.7133E+00  0.1035E+02  0.1035E+02
     13.815  0.6274E+00  0.6274E+00  0.1041E+02  0.1041E+02
     13.899  0.6849E+00  0.6860E+00  0.1047E+02  0.1046E+02
     13.983  0.8778E+00  0.8784E+00  0.1054E+02  0.1054E+02
     14.067  0.1072E+01  0.1069E+01  0.1063E+02  0.1063E+02
     14.151  0.1191E+01  0.1185E+01  0.1073E+02  0.1073E+02
     14.234  0.1279E+01  0.1281E+01  0.1084E+02  0.1083E+02
     14.318  0.1179E+01  0.1182E+01  0.1093E+02  0.1093E+02
     14.402  0.9677E+00  0.9690E+00  0.1102E+02  0.1102E+02
     14.486  0.7843E+00  0.7892E+00  0.1108E+02  0.1108E+02
     14.570  0.6408E+00  0.6453E+00  0.1114E+02  0.1114E+02
     14.654  0.5297E+00  0.5290E+00  0.1118E+02  0.1118E+02
     14.738  0.4340E+00  0.4340E+00  0.1122E+02  0.1122E+02
     14.822  0.4155E+00  0.4160E+00  0.1125E+02  0.1125E+02
     14.905  0.5380E+00  0.5366E+00  0.1130E+02  0.1130E+02
     14.989  0.6351E+00  0.6342E+00  0.1135E+02  0.1135E+02
     15.073  0.6276E+00  0.6276E+00  0.1140E+02  0.1140E+02
     15.157  0.4737E+00  0.4749E+00  0.1144E+02  0.1144E+02
     15.241  0.3030E+00  0.3043E+00  0.1147E+02  0.1147E+02
     15.325  0.2461E+00  0.2455E+00  0.1149E+02  0.1149E+02
     15.409  0.2736E+00  0.2712E+00  0.1151E+02  0.1151E+02
     15.493  0.3611E+00  0.3541E+00  0.1154E+02  0.1154E+02
     15.576  0.3277E+00  0.3201E+00  0.1157E+02  0.1157E+02
     15.660  0.2127E+00  0.2177E+00  0.1159E+02  0.1159E+02
     15.744  0.1922E+00  0.2016E+00  0.1160E+02  0.1160E+02
     15.828  0.2242E+00  0.2304E+00  0.1162E+02  0.1162E+02
     15.912  0.3010E+00  0.3125E+00  0.1165E+02  0.1165E+02
     15.996  0.3164E+00  0.3214E+00  0.1167E+02  0.1168E+02
     16.080  0.2826E+00  0.2710E+00  0.1170E+02  0.1170E+02
     16.164  0.2053E+00  0.1996E+00  0.1172E+02  0.1172E+02
     16.248  0.1699E+00  0.1709E+00  0.1173E+02  0.1173E+02
     16.331  0.2203E+00  0.2269E+00  0.1175E+02  0.1175E+02
     16.415  0.2505E+00  0.2500E+00  0.1177E+02  0.1177E+02
     16.499  0.2075E+00  0.2012E+00  0.1179E+02  0.1179E+02
     16.583  0.1601E+00  0.1572E+00  0.1180E+02  0.1180E+02
     16.667  0.2100E+00  0.2092E+00  0.1182E+02  0.1182E+02
     16.751  0.1613E+00  0.1617E+00  0.1183E+02  0.1183E+02
     16.835  0.7597E-01  0.7616E-01  0.1184E+02  0.1184E+02
     16.919  0.9899E-01  0.9860E-01  0.1185E+02  0.1185E+02
     17.002  0.1624E+00  0.1613E+00  0.1186E+02  0.1186E+02
     17.086  0.1713E+00  0.1711E+00  0.1187E+02  0.1187E+02
     17.170  0.1655E+00  0.1661E+00  0.1189E+02  0.1189E+02
     17.254  0.1407E+00  0.1414E+00  0.1190E+02  0.1190E+02
     17.338  0.8153E-01  0.8187E-01  0.1191E+02  0.1191E+02
     17.422  0.9734E-01  0.9724E-01  0.1191E+02  0.1191E+02
     17.506  0.1199E+00  0.1200E+00  0.1192E+02  0.1192E+02
     17.590  0.5577E-01  0.5598E-01  0.1193E+02  0.1193E+02
     17.673  0.1485E-01  0.1492E-01  0.1193E+02  0.1193E+02
     17.757  0.1037E-01  0.1038E-01  0.1193E+02  0.1193E+02
     17.841  0.3478E-01  0.3476E-01  0.1193E+02  0.1193E+02
     17.925  0.9081E-01  0.9068E-01  0.1194E+02  0.1194E+02
     18.009  0.8814E-01  0.8815E-01  0.1195E+02  0.1195E+02
     18.093  0.3846E-01  0.3853E-01  0.1195E+02  0.1195E+02
     18.177  0.3744E-01  0.3736E-01  0.1196E+02  0.1196E+02
     18.261  0.7110E-01  0.7083E-01  0.1196E+02  0.1196E+02
     18.345  0.9765E-01  0.9688E-01  0.1197E+02  0.1197E+02
     18.428  0.1102E+00  0.1100E+00  0.1198E+02  0.1198E+02
     18.512  0.5556E-01  0.5646E-01  0.1198E+02  0.1198E+02
     18.596  0.1481E-01  0.1525E-01  0.1199E+02  0.1199E+02
     18.680  0.6112E-02  0.6238E-02  0.1199E+02  0.1199E+02
     18.764  0.1487E-01  0.1498E-01  0.1199E+02  0.1199E+02
     18.848  0.3505E-01  0.3510E-01  0.1199E+02  0.1199E+02
     18.932  0.3548E-01  0.3534E-01  0.1199E+02  0.1199E+02
     19.016  0.2535E-01  0.2528E-01  0.1200E+02  0.1200E+02
     19.099  0.1197E-01  0.1198E-01  0.1200E+02  0.1200E+02
     19.183  0.3103E-02  0.3112E-02  0.1200E+02  0.1200E+02
     19.267  0.6838E-03  0.6835E-03  0.1200E+02  0.1200E+02
     19.351  0.7757E-03  0.7607E-03  0.1200E+02  0.1200E+02
     19.435  0.3261E-02  0.3193E-02  0.1200E+02  0.1200E+02
     19.519  0.1143E-01  0.1128E-01  0.1200E+02  0.1200E+02
     19.603  0.1698E-01  0.1702E-01  0.1200E+02  0.1200E+02
     19.687  0.8349E-02  0.8487E-02  0.1200E+02  0.1200E+02
     19.770  0.2059E-02  0.2106E-02  0.1200E+02  0.1200E+02
     19.854  0.4079E-03  0.4177E-03  0.1200E+02  0.1200E+02
     19.938  0.7707E-04  0.7894E-04  0.1200E+02  0.1200E+02
     20.022  0.0000E+00  0.0000E+00  0.1200E+02  0.1200E+02
     20.106  0.0000E+00  0.0000E+00  0.1200E+02  0.1200E+02
     20.190  0.0000E+00  0.0000E+00  0.1200E+02  0.1200E+02
     20.274  0.0000E+00  0.0000E+00  0.1200E+02  0.1200E+02
     20.358  0.0000E+00  0.0000E+00  0.1200E+02  0.1200E+02
     20.442  0.0000E+00  0.0000E+00  0.1200E+02  0.1200E+02
     20.525  0.0000E+00  0.0000E+00  0.1200E+02  0.1200E+02
     20.609  0.0000E+00  0.0000E+00  0.1200E+02  0.1200E+02
     20.693  0.0000E+00  0.0000E+00  0.1200E+02  0.1200E+02
     20.69315718     -4.47083666  301      7.09095273      1.00000000
     -4.471  0.0000E+00  0.0000E+00  0.0000E+00  0.0000E+00  0.0000E+00  0.0000E+00  0.0000E+00  0.0000E+00  0.0000E+00  0.0000E+00  0.0000E+00  0.0000E+00  0.0000E+00  0.0000E+00  0.0000E+00  0.0000E+00  0.0000E+00  0.0000E+00
     -4.387  0.0000E+00  0.0000E+00  0.0000E+00  0.0000E+00  0.0000E+00  0.0000E+00  0.0000E+00  0.0000E+00  0.0000E+00  0.0000E+00  0.0000E+00  0.0000E+00  0.0000E+00  0.0000E+00  0.0000E+00  0.0000E+00  0.0000E+00  0.0000E+00
     -4.303  0.0000E+00  0.0000E+00  0.0000E+00  0.0000E+00  0.0000E+00  0.0000E+00  0.0000E+00  0.0000E+00  0.0000E+00  0.0000E+00  0.0000E+00  0.0000E+00  0.0000E+00  0.0000E+00  0.0000E+00  0.0000E+00  0.0000E+00  0.0000E+00
     -4.219  0.0000E+00  0.0000E+00  0.0000E+00  0.0000E+00  0.0000E+00  0.0000E+00  0.0000E+00  0.0000E+00  0.0000E+00  0.0000E+00  0.0000E+00  0.0000E+00  0.0000E+00  0.0000E+00  0.0000E+00  0.0000E+00  0.0000E+00  0.0000E+00
     -4.135  0.0000E+00  0.0000E+00  0.0000E+00  0.0000E+00  0.0000E+00  0.0000E+00  0.0000E+00  0.0000E+00  0.0000E+00  0.0000E+00  0.0000E+00  0.0000E+00  0.0000E+00  0.0000E+00  0.0000E+00  0.0000E+00  0.0000E+00  0.0000E+00
     -4.051  0.0000E+00  0.0000E+00  0.0000E+00  0.0000E+00  0.0000E+00  0.0000E+00  0.0000E+00  0.0000E+00  0.0000E+00  0.0000E+00  0.0000E+00  0.0000E+00  0.0000E+00  0.0000E+00  0.0000E+00  0.0000E+00  0.0000E+00  0.0000E+00
     -3.968  0.0000E+00  0.0000E+00  0.0000E+00  0.0000E+00  0.0000E+00  0.0000E+00  0.0000E+00  0.0000E+00  0.0000E+00  0.0000E+00  0.0000E+00  0.0000E+00  0.0000E+00  0.0000E+00  0.0000E+00  0.0000E+00  0.0000E+00  0.0000E+00
     -3.884  0.0000E+00  0.0000E+00  0.0000E+00  0.0000E+00  0.0000E+00  0.0000E+00  0.0000E+00  0.0000E+00  0.0000E+00  0.0000E+00  0.0000E+00  0.0000E+00  0.0000E+00  0.0000E+00  0.0000E+00  0.0000E+00  0.0000E+00  0.0000E+00
     -3.800  0.1137E-07  0.1158E-07  0.1053E-25  0.1138E-22  0.1053E-25  0.1138E-22  0.7407E-26  0.1842E-22  0.0000E+00  0.0000E+00  0.0000E+00  0.0000E+00  0.0000E+00  0.0000E+00  0.0000E+00  0.0000E+00  0.0000E+00  0.0000E+00
     -3.716  0.1762E-06  0.1794E-06  0.6146E-09  0.6257E-09  0.6146E-09  0.6257E-09  0.6141E-09  0.6252E-09  0.0000E+00  0.0000E+00  0.0000E+00  0.0000E+00  0.0000E+00  0.0000E+00  0.0000E+00  0.0000E+00  0.0000E+00  0.0000E+00
     -3.632  0.1394E-05  0.1420E-05  0.8846E-08  0.9006E-08  0.8846E-08  0.9006E-08  0.8841E-08  0.9003E-08  0.0000E+00  0.0000E+00  0.0000E+00  0.0000E+00  0.0000E+00  0.0000E+00  0.0000E+00  0.0000E+00  0.0000E+00  0.0000E+00
     -3.548  0.7220E-05  0.7351E-05  0.4974E-07  0.5063E-07  0.4974E-07  0.5063E-07  0.4969E-07  0.5059E-07  0.0000E+00  0.0000E+00  0.0000E+00  0.0000E+00  0.0000E+00  0.0000E+00  0.0000E+00  0.0000E+00  0.0000E+00  0.0000E+00
     -3.464  0.3782E-04  0.3850E-04  0.2672E-06  0.2719E-06  0.2672E-06  0.2719E-06  0.2669E-06  0.2717E-06  0.0000E+00  0.0000E+00  0.0000E+00  0.0000E+00  0.0000E+00  0.0000E+00  0.0000E+00  0.0000E+00  0.0000E+00  0.0000E+00
     -3.380  0.1821E-03  0.1850E-03  0.1357E-05  0.1380E-05  0.1357E-05  0.1380E-05  0.1356E-05  0.1379E-05  0.0000E+00  0.0000E+00  0.0000E+00  0.0000E+00  0.0000E+00  0.0000E+00  0.0000E+00  0.0000E+00  0.0000E+00  0.0000E+00
     -3.297  0.6728E-03  0.6807E-03  0.5960E-05  0.6045E-05  0.5960E-05  0.6045E-05  0.5956E-05  0.6041E-05  0.0000E+00  0.0000E+00  0.0000E+00  0.0000E+00  0.0000E+00  0.0000E+00  0.0000E+00  0.0000E+00  0.0000E+00  0.0000E+00
     -3.213  0.1528E-02  0.1537E-02  0.1845E-04  0.1863E-04  0.1845E-04  0.1863E-04  0.1844E-04  0.1862E-04  0.0000E+00  0.0000E+00  0.0000E+00  0.0000E+00  0.0000E+00  0.0000E+00  0.0000E+00  0.0000E+00  0.0000E+00  0.0000E+00
     -3.129  0.2262E-02  0.2269E-02  0.4149E-04  0.4181E-04  0.4149E-04  0.4181E-04  0.4144E-04  0.4177E-04  0.0000E+00  0.0000E+00  0.0000E+00  0.0000E+00  0.0000E+00  0.0000E+00  0.0000E+00  0.0000E+00  0.0000E+00  0.0000E+00
     -3.045  0.3063E-02  0.3071E-02  0.7871E-04  0.7910E-04  0.7871E-04  0.7910E-04  0.7866E-04  0.7906E-04  0.0000E+00  0.0000E+00  0.0000E+00  0.0000E+00  0.0000E+00  0.0000E+00  0.0000E+00  0.0000E+00  0.0000E+00  0.0000E+00
     -2.961  0.3283E-02  0.3281E-02  0.1072E-03  0.1074E-03  0.1072E-03  0.1074E-03  0.1071E-03  0.1074E-03  0.0000E+00  0.0000E+00  0.0000E+00  0.0000E+00  0.0000E+00  0.0000E+00  0.0000E+00  0.0000E+00  0.0000E+00  0.0000E+00
     -2.877  0.3471E-02  0.3480E-02  0.1535E-03  0.1542E-03  0.1535E-03  0.1542E-03  0.1533E-03  0.1540E-03  0.0000E+00  0.0000E+00  0.0000E+00  0.0000E+00  0.0000E+00  0.0000E+00  0.0000E+00  0.0000E+00  0.0000E+00  0.0000E+00
     -2.793  0.4272E-02  0.4277E-02  0.2290E-03  0.2295E-03  0.2290E-03  0.2295E-03  0.2288E-03  0.2293E-03  0.0000E+00  0.0000E+00  0.0000E+00  0.0000E+00  0.0000E+00  0.0000E+00  0.0000E+00  0.0000E+00  0.0000E+00  0.0000E+00
     -2.709  0.4209E-02  0.4206E-02  0.2637E-03  0.2639E-03  0.2637E-03  0.2639E-03  0.2637E-03  0.2639E-03  0.0000E+00  0.0000E+00  0.0000E+00  0.0000E+00  0.0000E+00  0.0000E+00  0.0000E+00  0.0000E+00  0.0000E+00  0.0000E+00
     -2.625  0.4336E-02  0.4340E-02  0.3206E-03  0.3214E-03  0.3206E-03  0.3214E-03  0.3204E-03  0.3212E-03  0.0000E+00  0.0000E+00  0.0000E+00  0.0000E+00  0.0000E+00  0.0000E+00  0.0000E+00  0.0000E+00  0.0000E+00  0.0000E+00
     -2.542  0.4369E-02  0.4364E-02  0.3745E-03  0.3747E-03  0.3745E-03  0.3747E-03  0.3739E-03  0.3742E-03  0.0000E+00  0.0000E+00  0.0000E+00  0.0000E+00  0.0000E+00  0.0000E+00  0.0000E+00  0.0000E+00  0.0000E+00  0.0000E+00
     -2.458  0.4371E-02  0.4375E-02  0.4562E-03  0.4574E-03  0.4562E-03  0.4574E-03  0.4552E-03  0.4564E-03  0.0000E+00  0.0000E+00  0.0000E+00  0.0000E+00  0.0000E+00  0.0000E+00  0.0000E+00  0.0000E+00  0.0000E+00  0.0000E+00
     -2.374  0.5130E-02  0.5135E-02  0.5976E-03  0.5984E-03  0.5976E-03  0.5984E-03  0.5974E-03  0.5981E-03  0.0000E+00  0.0000E+00  0.0000E+00  0.0000E+00  0.0000E+00  0.0000E+00  0.0000E+00  0.0000E+00  0.0000E+00  0.0000E+00
     -2.290  0.5098E-02  0.5097E-02  0.6529E-03  0.6531E-03  0.6529E-03  0.6531E-03  0.6526E-03  0.6529E-03  0.0000E+00  0.0000E+00  0.0000E+00  0.0000E+00  0.0000E+00  0.0000E+00  0.0000E+00  0.0000E+00  0.0000E+00  0.0000E+00
     -2.206  0.4696E-02  0.4689E-02  0.6676E-03  0.6672E-03  0.6676E-03  0.6672E-03  0.6676E-03  0.6672E-03  0.0000E+00  0.0000E+00  0.0000E+00  0.0000E+00  0.0000E+00  0.0000E+00  0.0000E+00  0.0000E+00  0.0000E+00  0.0000E+00
     -2.122  0.4086E-02  0.4086E-02  0.6840E-03  0.6853E-03  0.6840E-03  0.6853E-03  0.6821E-03  0.6834E-03  0.0000E+00  0.0000E+00  0.0000E+00  0.0000E+00  0.0000E+00  0.0000E+00  0.0000E+00  0.0000E+00  0.0000E+00  0.0000E+00
     -2.038  0.4760E-02  0.4773E-02  0.9685E-03  0.9720E-03  0.9685E-03  0.9720E-03  0.9652E-03  0.9688E-03  0.0000E+00  0.0000E+00  0.0000E+00  0.0000E+00  0.0000E+00  0.0000E+00  0.0000E+00  0.0000E+00  0.0000E+00  0.0000E+00
     -1.954  0.5294E-02  0.5292E-02  0.1176E-02  0.1176E-02  0.1176E-02  0.1176E-02  0.1175E-02  0.1175E-02  0.0000E+00  0.0000E+00  0.0000E+00  0.0000E+00  0.0000E+00  0.0000E+00  0.0000E+00  0.0000E+00  0.0000E+00  0.0000E+00
     -1.871  0.4810E-02  0.4809E-02  0.1191E-02  0.1192E-02  0.1191E-02  0.1192E-02  0.1190E-02  0.1191E-02  0.0000E+00  0.0000E+00  0.0000E+00  0.0000E+00  0.0000E+00  0.0000E+00  0.0000E+00  0.0000E+00  0.0000E+00  0.0000E+00
     -1.787  0.4518E-02  0.4510E-02  0.1285E-02  0.1285E-02  0.1285E-02  0.1285E-02  0.1284E-02  0.1283E-02  0.0000E+00  0.0000E+00  0.0000E+00  0.0000E+00  0.0000E+00  0.0000E+00  0.0000E+00  0.0000E+00  0.0000E+00  0.0000E+00
     -1.703  0.3554E-02  0.3551E-02  0.1352E-02  0.1356E-02  0.1352E-02  0.1356E-02  0.1346E-02  0.1350E-02  0.0000E+00  0.0000E+00  0.0000E+00  0.0000E+00  0.0000E+00  0.0000E+00  0.0000E+00  0.0000E+00  0.0000E+00  0.0000E+00
     -1.619  0.4141E-02  0.4150E-02  0.1887E-02  0.1892E-02  0.1887E-02  0.1892E-02  0.1882E-02  0.1888E-02  0.0000E+00  0.0000E+00  0.0000E+00  0.0000E+00  0.0000E+00  0.0000E+00  0.0000E+00  0.0000E+00  0.0000E+00  0.0000E+00
     -1.535  0.4465E-02  0.4458E-02  0.2114E-02  0.2114E-02  0.2114E-02  0.2114E-02  0.2115E-02  0.2114E-02  0.0000E+00  0.0000E+00  0.0000E+00  0.0000E+00  0.0000E+00  0.0000E+00  0.0000E+00  0.0000E+00  0.0000E+00  0.0000E+00
     -1.451  0.3591E-02  0.3580E-02  0.2015E-02  0.2013E-02  0.2015E-02  0.2013E-02  0.2016E-02  0.2014E-02  0.0000E+00  0.0000E+00  0.0000E+00  0.0000E+00  0.0000E+00  0.0000E+00  0.0000E+00  0.0000E+00  0.0000E+00  0.0000E+00
     -1.367  0.2761E-02  0.2752E-02  0.1682E-02  0.1677E-02  0.1682E-02  0.1677E-02  0.1689E-02  0.1684E-02  0.0000E+00  0.0000E+00  0.0000E+00  0.0000E+00  0.0000E+00  0.0000E+00  0.0000E+00  0.0000E+00  0.0000E+00  0.0000E+00
     -1.283  0.2316E-02  0.2319E-02  0.1544E-02  0.1548E-02  0.1544E-02  0.1548E-02  0.1541E-02  0.1545E-02  0.0000E+00  0.0000E+00  0.0000E+00  0.0000E+00  0.0000E+00  0.0000E+00  0.0000E+00  0.0000E+00  0.0000E+00  0.0000E+00
     -1.200  0.3104E-02  0.3113E-02  0.2129E-02  0.2134E-02  0.2129E-02  0.2134E-02  0.2125E-02  0.2130E-02  0.0000E+00  0.0000E+00  0.0000E+00  0.0000E+00  0.0000E+00  0.0000E+00  0.0000E+00  0.0000E+00  0.0000E+00  0.0000E+00
     -1.116  0.3054E-02  0.3046E-02  0.2082E-02  0.2076E-02  0.2082E-02  0.2076E-02  0.2088E-02  0.2083E-02  0.0000E+00  0.0000E+00  0.0000E+00  0.0000E+00  0.0000E+00  0.0000E+00  0.0000E+00  0.0000E+00  0.0000E+00  0.0000E+00
     -1.032  0.2241E-02  0.2234E-02  0.1625E-02  0.1622E-02  0.1625E-02  0.1622E-02  0.1627E-02  0.1624E-02  0.0000E+00  0.0000E+00  0.0000E+00  0.0000E+00  0.0000E+00  0.0000E+00  0.0000E+00  0.0000E+00  0.0000E+00  0.0000E+00
     -0.948  0.1538E-02  0.1530E-02  0.1328E-02  0.1324E-02  0.1328E-02  0.1324E-02  0.1332E-02  0.1328E-02  0.0000E+00  0.0000E+00  0.0000E+00  0.0000E+00  0.0000E+00  0.0000E+00  0.0000E+00  0.0000E+00  0.0000E+00  0.0000E+00
     -0.864  0.1262E-02  0.1266E-02  0.1237E-02  0.1242E-02  0.1237E-02  0.1242E-02  0.1235E-02  0.1239E-02  0.0000E+00  0.0000E+00  0.0000E+00  0.0000E+00  0.0000E+00  0.0000E+00  0.0000E+00  0.0000E+00  0.0000E+00  0.0000E+00
     -0.780  0.2004E-02  0.2010E-02  0.1919E-02  0.1923E-02  0.1919E-02  0.1923E-02  0.1914E-02  0.1920E-02  0.0000E+00  0.0000E+00  0.0000E+00  0.0000E+00  0.0000E+00  0.0000E+00  0.0000E+00  0.0000E+00  0.0000E+00  0.0000E+00
     -0.696  0.2005E-02  0.1996E-02  0.1939E-02  0.1933E-02  0.1939E-02  0.1933E-02  0.1944E-02  0.1938E-02  0.0000E+00  0.0000E+00  0.0000E+00  0.0000E+00  0.0000E+00  0.0000E+00  0.0000E+00  0.0000E+00  0.0000E+00  0.0000E+00
     -0.612  0.1236E-02  0.1229E-02  0.1392E-02  0.1387E-02  0.1392E-02  0.1387E-02  0.1398E-02  0.1391E-02  0.0000E+00  0.0000E+00  0.0000E+00  0.0000E+00  0.0000E+00  0.0000E+00  0.0000E+00  0.0000E+00  0.0000E+00  0.0000E+00
     -0.528  0.8127E-03  0.8092E-03  0.9330E-03  0.9278E-03  0.9330E-03  0.9278E-03  0.9385E-03  0.9333E-03  0.0000E+00  0.0000E+00  0.0000E+00  0.0000E+00  0.0000E+00  0.0000E+00  0.0000E+00  0.0000E+00  0.0000E+00  0.0000E+00
     -0.445  0.7041E-03  0.7065E-03  0.8051E-03  0.8088E-03  0.8051E-03  0.8088E-03  0.8028E-03  0.8063E-03  0.0000E+00  0.0000E+00  0.0000E+00  0.0000E+00  0.0000E+00  0.0000E+00  0.0000E+00  0.0000E+00  0.0000E+00  0.0000E+00
     -0.361  0.1158E-02  0.1163E-02  0.1501E-02  0.1509E-02  0.1501E-02  0.1509E-02  0.1493E-02  0.1501E-02  0.0000E+00  0.0000E+00  0.0000E+00  0.0000E+00  0.0000E+00  0.0000E+00  0.0000E+00  0.0000E+00  0.0000E+00  0.0000E+00
     -0.277  0.1348E-02  0.1346E-02  0.1713E-02  0.1708E-02  0.1713E-02  0.1708E-02  0.1717E-02  0.1712E-02  0.0000E+00  0.0000E+00  0.0000E+00  0.0000E+00  0.0000E+00  0.0000E+00  0.0000E+00  0.0000E+00  0.0000E+00  0.0000E+00