   2   2   1   0
  0.1667722E+02  0.3218977E-09  0.3218977E-09  0.3218977E-09  0.5000000E-15
   1.0000000000000000E-004
  CAR 
 unknown system                          
     13.60962308    -27.35191067  301      5.64837578      1.00000000
    -27.352  0.0000E+00  0.0000E+00  0.0000E+00  0.0000E+00
    -27.215  0.0000E+00  0.0000E+00  0.0000E+00  0.0000E+00
    -27.079  0.0000E+00  0.0000E+00  0.0000E+00  0.0000E+00
    -26.942  0.0000E+00  0.0000E+00  0.0000E+00  0.0000E+00
    -26.806  0.0000E+00  0.0000E+00  0.0000E+00  0.0000E+00
    -26.669  0.0000E+00  0.0000E+00  0.0000E+00  0.0000E+00
    -26.533  0.0000E+00  0.0000E+00  0.0000E+00  0.0000E+00
    -26.396  0.0000E+00  0.0000E+00  0.0000E+00  0.0000E+00
    -26.260  0.0000E+00  0.0000E+00  0.0000E+00  0.0000E+00
    -26.123  0.0000E+00  0.0000E+00  0.0000E+00  0.0000E+00
    -25.987  0.0000E+00  0.0000E+00  0.0000E+00  0.0000E+00
    -25.850  0.0000E+00  0.0000E+00  0.0000E+00  0.0000E+00
    -25.713  0.0000E+00  0.0000E+00  0.0000E+00  0.0000E+00
    -25.577  0.0000E+00  0.0000E+00  0.0000E+00  0.0000E+00
    -25.440  0.6043E+00  0.6092E+00  0.1960E-01  0.1992E-01
    -25.304  0.2868E+01  0.2873E+01  0.2603E+00  0.2617E+00
    -25.167  0.5523E+01  0.5516E+01  0.8920E+00  0.8943E+00
    -25.031  0.2984E+01  0.2978E+01  0.1421E+01  0.1422E+01
    -24.894  0.2466E+01  0.2469E+01  0.1719E+01  0.1720E+01
    -24.758  0.2339E+01  0.2341E+01  0.2045E+01  0.2046E+01
    -24.621  0.3249E+01  0.3252E+01  0.2421E+01  0.2422E+01
    -24.485  0.3330E+01  0.3328E+01  0.2880E+01  0.2881E+01
    -24.348  0.5593E+01  0.5611E+01  0.3361E+01  0.3363E+01
    -24.212  0.3477E+01  0.3474E+01  0.4007E+01  0.4008E+01
    -24.075  0.6393E+01  0.6407E+01  0.4484E+01  0.4487E+01
    -23.938  0.6100E+01  0.6102E+01  0.5345E+01  0.5347E+01
    -23.802  0.2622E+01  0.2617E+01  0.6000E+01  0.6000E+01
    -23.665  0.0000E+00  0.0000E+00  0.6000E+01  0.6000E+01
    -23.529  0.0000E+00  0.0000E+00  0.6000E+01  0.6000E+01
    -23.392  0.0000E+00  0.0000E+00  0.6000E+01  0.6000E+01
    -23.256  0.0000E+00  0.0000E+00  0.6000E+01  0.6000E+01
    -23.119  0.0000E+00  0.0000E+00  0.6000E+01  0.6000E+01
    -22.983  0.0000E+00  0.0000E+00  0.6000E+01  0.6000E+01
    -22.846  0.0000E+00  0.0000E+00  0.6000E+01  0.6000E+01
    -22.710  0.0000E+00  0.0000E+00  0.6000E+01  0.6000E+01
    -22.573  0.0000E+00  0.0000E+00  0.6000E+01  0.6000E+01
    -22.437  0.0000E+00  0.0000E+00  0.6000E+01  0.6000E+01
    -22.300  0.0000E+00  0.0000E+00  0.6000E+01  0.6000E+01
    -22.163  0.0000E+00  0.0000E+00  0.6000E+01  0.6000E+01
    -22.027  0.0000E+00  0.0000E+00  0.6000E+01  0.6000E+01
    -21.890  0.0000E+00  0.0000E+00  0.6000E+01  0.6000E+01
    -21.754  0.0000E+00  0.0000E+00  0.6000E+01  0.6000E+01
    -21.617  0.0000E+00  0.0000E+00  0.6000E+01  0.6000E+01
    -21.481  0.0000E+00  0.0000E+00  0.6000E+01  0.6000E+01
    -21.344  0.0000E+00  0.0000E+00  0.6000E+01  0.6000E+01
    -21.208  0.0000E+00  0.0000E+00  0.6000E+01  0.6000E+01
    -21.071  0.0000E+00  0.0000E+00  0.6000E+01  0.6000E+01
    -20.935  0.0000E+00  0.0000E+00  0.6000E+01  0.6000E+01
    -20.798  0.0000E+00  0.0000E+00  0.6000E+01  0.6000E+01
    -20.662  0.0000E+00  0.0000E+00  0.6000E+01  0.6000E+01
    -20.525  0.0000E+00  0.0000E+00  0.6000E+01  0.6000E+01
    -20.388  0.0000E+00  0.0000E+00  0.6000E+01  0.6000E+01
    -20.252  0.0000E+00  0.0000E+00  0.6000E+01  0.6000E+01
    -20.115  0.0000E+00  0.0000E+00  0.6000E+01  0.6000E+01
    -19.979  0.0000E+00  0.0000E+00  0.6000E+01  0.6000E+01
    -19.842  0.0000E+00  0.0000E+00  0.6000E+01  0.6000E+01
    -19.706  0.0000E+00  0.0000E+00  0.6000E+01  0.6000E+01
    -19.569  0.0000E+00  0.0000E+00  0.6000E+01  0.6000E+01
    -19.433  0.0000E+00  0.0000E+00  0.6000E+01  0.6000E+01
    -19.296  0.0000E+00  0.0000E+00  0.6000E+01  0.6000E+01
    -19.160  0.0000E+00  0.0000E+00  0.6000E+01  0.6000E+01
    -19.023  0.0000E+00  0.0000E+00  0.6000E+01  0.6000E+01
    -18.887  0.0000E+00  0.0000E+00  0.6000E+01  0.6000E+01
    -18.750  0.0000E+00  0.0000E+00  0.6000E+01  0.6000E+01
    -18.613  0.0000E+00  0.0000E+00  0.6000E+01  0.6000E+01
    -18.477  0.0000E+00  0.0000E+00  0.6000E+01  0.6000E+01
    -18.340  0.0000E+00  0.0000E+00  0.6000E+01  0.6000E+01
    -18.204  0.0000E+00  0.0000E+00  0.6000E+01  0.6000E+01
    -18.067  0.0000E+00  0.0000E+00  0.6000E+01  0.6000E+01
    -17.931  0.0000E+00  0.0000E+00  0.6000E+01  0.6000E+01
    -17.794  0.0000E+00  0.0000E+00  0.6000E+01  0.6000E+01
    -17.658  0.0000E+00  0.0000E+00  0.6000E+01  0.6000E+01
    -17.521  0.0000E+00  0.0000E+00  0.6000E+01  0.6000E+01
    -17.385  0.0000E+00  0.0000E+00  0.6000E+01  0.6000E+01
    -17.248  0.0000E+00  0.0000E+00  0.6000E+01  0.6000E+01
    -17.112  0.0000E+00  0.0000E+00  0.6000E+01  0.6000E+01
    -16.975  0.0000E+00  0.0000E+00  0.6000E+01  0.6000E+01
    -16.838  0.0000E+00  0.0000E+00  0.6000E+01  0.6000E+01
    -16.702  0.0000E+00  0.0000E+00  0.6000E+01  0.6000E+01
    -16.565  0.0000E+00  0.0000E+00  0.6000E+01  0.6000E+01
    -16.429  0.0000E+00  0.0000E+00  0.6000E+01  0.6000E+01
    -16.292  0.0000E+00  0.0000E+00  0.6000E+01  0.6000E+01
    -16.156  0.0000E+00  0.0000E+00  0.6000E+01  0.6000E+01
    -16.019  0.0000E+00  0.0000E+00  0.6000E+01  0.6000E+01
    -15.883  0.0000E+00  0.0000E+00  0.6000E+01  0.6000E+01
    -15.746  0.0000E+00  0.0000E+00  0.6000E+01  0.6000E+01
    -15.610  0.0000E+00  0.0000E+00  0.6000E+01  0.6000E+01
    -15.473  0.0000E+00  0.0000E+00  0.6000E+01  0.6000E+01
    -15.337  0.0000E+00  0.0000E+00  0.6000E+01  0.6000E+01
    -15.200  0.0000E+00  0.0000E+00  0.6000E+01  0.6000E+01
    -15.063  0.0000E+00  0.0000E+00  0.6000E+01  0.6000E+01
    -14.927  0.0000E+00  0.0000E+00  0.6000E+01  0.6000E+01
    -14.790  0.0000E+00  0.0000E+00  0.6000E+01  0.6000E+01
    -14.654  0.0000E+00  0.0000E+00  0.6000E+01  0.6000E+01
    -14.517  0.0000E+00  0.0000E+00  0.6000E+01  0.6000E+01
    -14.381  0.0000E+00  0.0000E+00  0.6000E+01  0.6000E+01
    -14.244  0.0000E+00  0.0000E+00  0.6000E+01  0.6000E+01
    -14.108  0.0000E+00  0.0000E+00  0.6000E+01  0.6000E+01
    -13.971  0.0000E+00  0.0000E+00  0.6000E+01  0.6000E+01
    -13.835  0.0000E+00  0.0000E+00  0.6000E+01  0.6000E+01
    -13.698  0.0000E+00  0.0000E+00  0.6000E+01  0.6000E+01
    -13.562  0.0000E+00  0.0000E+00  0.6000E+01  0.6000E+01
    -13.425  0.0000E+00  0.0000E+00  0.6000E+01  0.6000E+01
    -13.288  0.0000E+00  0.0000E+00  0.6000E+01  0.6000E+01
    -13.152  0.0000E+00  0.0000E+00  0.6000E+01  0.6000E+01
    -13.015  0.0000E+00  0.0000E+00  0.6000E+01  0.6000E+01
    -12.879  0.0000E+00  0.0000E+00  0.6000E+01  0.6000E+01
    -12.742  0.0000E+00  0.0000E+00  0.6000E+01  0.6000E+01
    -12.606  0.0000E+00  0.0000E+00  0.6000E+01  0.6000E+01
    -12.469  0.0000E+00  0.0000E+00  0.6000E+01  0.6000E+01
    -12.333  0.0000E+00  0.0000E+00  0.6000E+01  0.6000E+01
    -12.196  0.0000E+00  0.0000E+00  0.6000E+01  0.6000E+01
    -12.060  0.0000E+00  0.0000E+00  0.6000E+01  0.6000E+01
    -11.923  0.0000E+00  0.0000E+00  0.6000E+01  0.6000E+01
    -11.787  0.0000E+00  0.0000E+00  0.6000E+01  0.6000E+01
    -11.650  0.0000E+00  0.0000E+00  0.6000E+01  0.6000E+01
    -11.513  0.0000E+00  0.0000E+00  0.6000E+01  0.6000E+01
    -11.377  0.0000E+00  0.0000E+00  0.6000E+01  0.6000E+01
    -11.240  0.0000E+00  0.0000E+00  0.6000E+01  0.6000E+01
    -11.104  0.0000E+00  0.0000E+00  0.6000E+01  0.6000E+01
    -10.967  0.0000E+00  0.0000E+00  0.6000E+01  0.6000E+01
    -10.831  0.0000E+00  0.0000E+00  0.6000E+01  0.6000E+01
    -10.694  0.0000E+00  0.0000E+00  0.6000E+01  0.6000E+01
    -10.558  0.0000E+00  0.0000E+00  0.6000E+01  0.6000E+01
    -10.421  0.0000E+00  0.0000E+00  0.6000E+01  0.6000E+01
    -10.285  0.0000E+00  0.0000E+00  0.6000E+01  0.6000E+01
    -10.148  0.0000E+00  0.0000E+00  0.6000E+01  0.6000E+01
    -10.012  0.0000E+00  0.0000E+00  0.6000E+01  0.6000E+01
     -9.875  0.0000E+00  0.0000E+00  0.6000E+01  0.6000E+01
     -9.738  0.0000E+00  0.0000E+00  0.6000E+01  0.6000E+01
     -9.602  0.0000E+00  0.0000E+00  0.6000E+01  0.6000E+01
     -9.465  0.0000E+00  0.0000E+00  0.6000E+01  0.6000E+01
     -9.329  0.0000E+00  0.0000E+00  0.6000E+01  0.6000E+01
     -9.192  0.0000E+00  0.0000E+00  0.6000E+01  0.6000E+01
     -9.056  0.0000E+00  0.0000E+00  0.6000E+01  0.6000E+01
     -8.919  0.0000E+00  0.0000E+00  0.6000E+01  0.6000E+01
     -8.783  0.0000E+00  0.0000E+00  0.6000E+01  0.6000E+01
     -8.646  0.0000E+00  0.0000E+00  0.6000E+01  0.6000E+01
     -8.510  0.0000E+00  0.0000E+00  0.6000E+01  0.6000E+01
     -8.373  0.0000E+00  0.0000E+00  0.6000E+01  0.6000E+01
     -8.237  0.0000E+00  0.0000E+00  0.6000E+01  0.6000E+01
     -8.100  0.0000E+00  0.0000E+00  0.6000E+01  0.6000E+01
     -7.963  0.0000E+00  0.0000E+00  0.6000E+01  0.6000E+01
     -7.827  0.0000E+00  0.0000E+00  0.6000E+01  0.6000E+01
     -7.690  0.0000E+00  0.0000E+00  0.6000E+01  0.6000E+01
     -7.554  0.0000E+00  0.0000E+00  0.6000E+01  0.6000E+01
     -7.417  0.0000E+00  0.0000E+00  0.6000E+01  0.6000E+01
     -7.281  0.0000E+00  0.0000E+00  0.6000E+01  0.6000E+01
     -7.144  0.0000E+00  0.0000E+00  0.6000E+01  0.6000E+01
     -7.008  0.0000E+00  0.0000E+00  0.6000E+01  0.6000E+01
     -6.871  0.0000E+00  0.0000E+00  0.6000E+01  0.6000E+01
     -6.735  0.0000E+00  0.0000E+00  0.6000E+01  0.6000E+01
     -6.598  0.0000E+00  0.0000E+00  0.6000E+01  0.6000E+01
     -6.462  0.0000E+00  0.0000E+00  0.6000E+01  0.6000E+01
     -6.325  0.0000E+00  0.0000E+00  0.6000E+01  0.6000E+01
     -6.188  0.0000E+00  0.0000E+00  0.6000E+01  0.6000E+01
     -6.052  0.0000E+00  0.0000E+00  0.6000E+01  0.6000E+01
     -5.915  0.0000E+00  0.0000E+00  0.6000E+01  0.6000E+01
     -5.779  0.0000E+00  0.0000E+00  0.6000E+01  0.6000E+01
     -5.642  0.0000E+00  0.0000E+00  0.6000E+01  0.6000E+01
     -5.506  0.0000E+00  0.0000E+00  0.6000E+01  0.6000E+01
     -5.369  0.0000E+00  0.0000E+00  0.6000E+01  0.6000E+01
     -5.233  0.0000E+00  0.0000E+00  0.6000E+01  0.6000E+01
     -5.096  0.0000E+00  0.0000E+00  0.6000E+01  0.6000E+01
     -4.960  0.0000E+00  0.0000E+00  0.6000E+01  0.6000E+01
     -4.823  0.0000E+00  0.0000E+00  0.6000E+01  0.6000E+01
     -4.687  0.0000E+00  0.0000E+00  0.6000E+01  0.6000E+01
     -4.550  0.0000E+00  0.0000E+00  0.6000E+01  0.6000E+01
     -4.413  0.0000E+00  0.0000E+00  0.6000E+01  0.6000E+01
     -4.277  0.0000E+00  0.0000E+00  0.6000E+01  0.6000E+01
     -4.140  0.0000E+00  0.0000E+00  0.6000E+01  0.6000E+01
     -4.004  0.0000E+00  0.0000E+00  0.6000E+01  0.6000E+01
     -3.867  0.0000E+00  0.0000E+00  0.6000E+01  0.6000E+01
     -3.731  0.0000E+00  0.0000E+00  0.6000E+01  0.6000E+01
     -3.594  0.0000E+00  0.0000E+00  0.6000E+01  0.6000E+01
     -3.458  0.0000E+00  0.0000E+00  0.6000E+01  0.6000E+01
     -3.321  0.0000E+00  0.0000E+00  0.6000E+01  0.6000E+01
     -3.185  0.0000E+00  0.0000E+00  0.6000E+01  0.6000E+01
     -3.048  0.0000E+00  0.0000E+00  0.6000E+01  0.6000E+01
     -2.912  0.0000E+00  0.0000E+00  0.6000E+01  0.6000E+01
     -2.775  0.0000E+00  0.0000E+00  0.6000E+01  0.6000E+01
     -2.638  0.0000E+00  0.0000E+00  0.6000E+01  0.6000E+01
     -2.502  0.0000E+00  0.0000E+00  0.6000E+01  0.6000E+01
     -2.365  0.0000E+00  0.0000E+00  0.6000E+01  0.6000E+01
     -2.229  0.0000E+00  0.0000E+00  0.6000E+01  0.6000E+01
     -2.092  0.0000E+00  0.0000E+00  0.6000E+01  0.6000E+01
     -1.956  0.0000E+00  0.0000E+00  0.6000E+01  0.6000E+01
     -1.819  0.0000E+00  0.0000E+00  0.6000E+01  0.6000E+01
     -1.683  0.0000E+00  0.0000E+00  0.6000E+01  0.6000E+01
     -1.546  0.0000E+00  0.0000E+00  0.6000E+01  0.6000E+01
     -1.410  0.0000E+00  0.0000E+00  0.6000E+01  0.6000E+01
     -1.273  0.0000E+00  0.0000E+00  0.6000E+01  0.6000E+01
     -1.137  0.0000E+00  0.0000E+00  0.6000E+01  0.6000E+01
     -1.000  0.0000E+00  0.0000E+00  0.6000E+01  0.6000E+01
     -0.863  0.0000E+00  0.0000E+00  0.6000E+01  0.6000E+01
     -0.727  0.0000E+00  0.0000E+00  0.6000E+01  0.6000E+01
     -0.590  0.0000E+00  0.0000E+00  0.6000E+01  0.6000E+01
     -0.454  0.0000E+00  0.8380E-07  0.6000E+01  0.6000E+01
     -0.317  0.2390E-02  0.2487E-02  0.6000E+01  0.6000E+01
     -0.181  0.9696E-02  0.9890E-02  0.6001E+01  0.6001E+01
     -0.044  0.2192E-01  0.2221E-01  0.6003E+01  0.6003E+01
      0.092  0.3906E-01  0.3938E-01  0.6007E+01  0.6007E+01
      0.229  0.5252E-01  0.5272E-01  0.6013E+01  0.6014E+01
      0.365  0.6036E-01  0.6045E-01  0.6021E+01  0.6021E+01
      0.502  0.6414E-01  0.6423E-01  0.6030E+01  0.6030E+01
      0.638  0.7075E-01  0.7091E-01  0.6039E+01  0.6039E+01
      0.775  0.8092E-01  0.8115E-01  0.6049E+01  0.6049E+01
      0.912  0.9377E-01  0.9402E-01  0.6061E+01  0.6061E+01
      1.048  0.1075E+00  0.1077E+00  0.6075E+01  0.6075E+01
      1.185  0.1220E+00  0.1222E+00  0.6090E+01  0.6091E+01
      1.321  0.1361E+00  0.1363E+00  0.6108E+01  0.6108E+01
      1.458  0.1576E+00  0.1585E+00  0.6128E+01  0.6128E+01
      1.594  0.2304E+00  0.2318E+00  0.6154E+01  0.6154E+01
      1.731  0.4658E+00  0.4692E+00  0.6199E+01  0.6200E+01
      1.867  0.7146E+00  0.7182E+00  0.6279E+01  0.6281E+01
      2.004  0.9766E+00  0.9805E+00  0.6394E+01  0.6396E+01
      2.140  0.1137E+01  0.1139E+01  0.6540E+01  0.6542E+01
      2.277  0.1194E+01  0.1195E+01  0.6698E+01  0.6701E+01
      2.413  0.1330E+01  0.1332E+01  0.6869E+01  0.6872E+01
      2.550  0.1811E+01  0.1804E+01  0.7081E+01  0.7085E+01
      2.687  0.1329E+01  0.1330E+01  0.7293E+01  0.7295E+01
      2.823  0.1367E+01  0.1368E+01  0.7477E+01  0.7480E+01
      2.960  0.1385E+01  0.1382E+01  0.7666E+01  0.7668E+01
      3.096  0.1381E+01  0.1376E+01  0.7855E+01  0.7858E+01
      3.233  0.1056E+01  0.1050E+01  0.8012E+01  0.8014E+01
      3.369  0.4847E+00  0.4832E+00  0.8110E+01  0.8111E+01
      3.506  0.4094E+00  0.4088E+00  0.8170E+01  0.8171E+01
      3.642  0.4438E+00  0.4451E+00  0.8229E+01  0.8229E+01
      3.779  0.1490E+01  0.1505E+01  0.8330E+01  0.8332E+01
      3.915  0.2085E+01  0.2096E+01  0.8533E+01  0.8536E+01
      4.052  0.2510E+01  0.2519E+01  0.8830E+01  0.8834E+01
      4.188  0.2287E+01  0.2276E+01  0.9173E+01  0.9176E+01
      4.325  0.1029E+01  0.8781E+00  0.9381E+01  0.9383E+01
      4.462  0.7693E+00  0.7693E+00  0.9493E+01  0.9494E+01
      4.598  0.7713E+00  0.7713E+00  0.9598E+01  0.9600E+01
      4.735  0.7610E+00  0.7611E+00  0.9703E+01  0.9704E+01
      4.871  0.9030E+00  0.9050E+00  0.9817E+01  0.9818E+01
      5.008  0.1170E+01  0.1172E+01  0.9953E+01  0.9955E+01
      5.144  0.1165E+01  0.1168E+01  0.1011E+02  0.1012E+02
      5.281  0.1406E+01  0.1410E+01  0.1029E+02  0.1029E+02
      5.417  0.2339E+01  0.2342E+01  0.1057E+02  0.1057E+02
      5.554  0.1648E+01  0.1644E+01  0.1084E+02  0.1085E+02
      5.690  0.1418E+01  0.1416E+01  0.1106E+02  0.1106E+02
      5.827  0.1222E+01  0.1220E+01  0.1124E+02  0.1124E+02
      5.963  0.9398E+00  0.9387E+00  0.1138E+02  0.1139E+02
      6.100  0.6711E+00  0.6698E+00  0.1150E+02  0.1150E+02
      6.237  0.5666E+00  0.5653E+00  0.1158E+02  0.1158E+02
      6.373  0.5026E+00  0.5020E+00  0.1165E+02  0.1166E+02
      6.510  0.4650E+00  0.4644E+00  0.1172E+02  0.1172E+02
      6.646  0.4257E+00  0.4252E+00  0.1178E+02  0.1178E+02
      6.783  0.3848E+00  0.3843E+00  0.1184E+02  0.1184E+02
      6.919  0.3659E+00  0.3652E+00  0.1189E+02  0.1189E+02
      7.056  0.3238E+00  0.3231E+00  0.1194E+02  0.1194E+02
      7.192  0.3746E+00  0.3774E+00  0.1198E+02  0.1198E+02
      7.329  0.4591E+00  0.4602E+00  0.1204E+02  0.1204E+02
      7.465  0.5387E+00  0.5392E+00  0.1211E+02  0.1211E+02
      7.602  0.6383E+00  0.6390E+00  0.1219E+02  0.1219E+02
      7.738  0.7388E+00  0.7394E+00  0.1228E+02  0.1228E+02
      7.875  0.8284E+00  0.8288E+00  0.1239E+02  0.1239E+02
      8.012  0.9005E+00  0.9011E+00  0.1251E+02  0.1251E+02
      8.148  0.9965E+00  0.9972E+00  0.1264E+02  0.1264E+02
      8.285  0.1085E+01  0.1085E+01  0.1278E+02  0.1278E+02
      8.421  0.1136E+01  0.1135E+01  0.1293E+02  0.1293E+02
      8.558  0.1195E+01  0.1196E+01  0.1309E+02  0.1310E+02
      8.694  0.1552E+01  0.1552E+01  0.1328E+02  0.1328E+02
      8.831  0.1512E+01  0.1504E+01  0.1351E+02  0.1351E+02
      8.967  0.1297E+01  0.1296E+01  0.1369E+02  0.1369E+02
      9.104  0.1205E+01  0.1204E+01  0.1386E+02  0.1386E+02
      9.240  0.1395E+01  0.1391E+01  0.1402E+02  0.1402E+02
      9.377  0.9289E+00  0.9283E+00  0.1417E+02  0.1417E+02
      9.513  0.9872E+00  0.9872E+00  0.1430E+02  0.1430E+02
      9.650  0.1271E+01  0.1270E+01  0.1445E+02  0.1445E+02
      9.787  0.1446E+01  0.1445E+01  0.1464E+02  0.1464E+02
      9.923  0.3558E+01  0.3564E+01  0.1493E+02  0.1493E+02
     10.060  0.2656E+01  0.2653E+01  0.1538E+02  0.1538E+02
     10.196  0.1102E+01  0.1090E+01  0.1554E+02  0.1554E+02
     10.333  0.9866E+00  0.9908E+00  0.1569E+02  0.1569E+02
     10.469  0.7920E+00  0.7962E+00  0.1581E+02  0.1581E+02
     10.606  0.4976E+00  0.4978E+00  0.1591E+02  0.1591E+02
     10.742  0.2503E+00  0.2497E+00  0.1596E+02  0.1596E+02
     10.879  0.1399E+00  0.1393E+00  0.1598E+02  0.1598E+02
     11.015  0.5532E-01  0.5481E-01  0.1600E+02  0.1600E+02
     11.152  0.5263E-02  0.5246E-02  0.1600E+02  0.1600E+02
     11.288  0.3127E-02  0.3115E-02  0.1600E+02  0.1600E+02
     11.425  0.1544E-02  0.1536E-02  0.1600E+02  0.1600E+02
     11.562  0.5139E-03  0.5097E-03  0.1600E+02  0.1600E+02
     11.698  0.3655E-04  0.3550E-04  0.1600E+02  0.1600E+02
     11.835  0.0000E+00  0.0000E+00  0.1600E+02  0.1600E+02
     11.971  0.0000E+00  0.0000E+00  0.1600E+02  0.1600E+02
     12.108  0.0000E+00  0.0000E+00  0.1600E+02  0.1600E+02
     12.244  0.0000E+00  0.0000E+00  0.1600E+02  0.1600E+02
     12.381  0.0000E+00  0.0000E+00  0.1600E+02  0.1600E+02
     12.517  0.0000E+00  0.0000E+00  0.1600E+02  0.1600E+02
     12.654  0.0000E+00  0.0000E+00  0.1600E+02  0.1600E+02
     12.790  0.0000E+00  0.0000E+00  0.1600E+02  0.1600E+02
     12.927  0.0000E+00  0.0000E+00  0.1600E+02  0.1600E+02
     13.063  0.0000E+00  0.0000E+00  0.1600E+02  0.1600E+02
     13.200  0.0000E+00  0.0000E+00  0.1600E+02  0.1600E+02
     13.337  0.0000E+00  0.0000E+00  0.1600E+02  0.1600E+02
     13.473  0.0000E+00  0.0000E+00  0.1600E+02  0.1600E+02
     13.610  0.0000E+00  0.0000E+00  0.1600E+02  0.1600E+02
     13.60962308    -27.35191067  301      5.64837578      1.00000000
    -27.352  0.0000E+00  0.0000E+00  0.0000E+00  0.0000E+00  0.0000E+00  0.0000E+00  0.0000E+00  0.0000E+00  0.0000E+00  0.0000E+00  0.0000E+00  0.0000E+00  0.0000E+00  0.0000E+00  0.0000E+00  0.0000E+00  0.0000E+00  0.0000E+00
    -27.215  0.0000E+00  0.0000E+00  0.0000E+00  0.0000E+00  0.0000E+00  0.0000E+00  0.0000E+00  0.0000E+00  0.0000E+00  0.0000E+00  0.0000E+00  0.0000E+00  0.0000E+00  0.0000E+00  0.0000E+00  0.0000E+00  0.0000E+00  0.0000E+00
    -27.079  0.0000E+00  0.0000E+00  0.0000E+00  0.0000E+00  0.0000E+00  0.0000E+00  0.0000E+00  0.0000E+00  0.0000E+00  0.0000E+00  0.0000E+00  0.0000E+00  0.0000E+00  0.0000E+00  0.0000E+00  0.0000E+00  0.0000E+00  0.0000E+00
    -26.942  0.0000E+00  0.0000E+00  0.0000E+00  0.0000E+00  0.0000E+00  0.0000E+00  0.0000E+00  0.0000E+00  0.0000E+00  0.0000E+00  0.0000E+00  0.0000E+00  0.0000E+00  0.0000E+00  0.0000E+00  0.0000E+00  0.0000E+00  0.0000E+00
    -26.806  0.0000E+00  0.0000E+00  0.0000E+00  0.0000E+00  0.0000E+00  0.0000E+00  0.0000E+00  0.0000E+00  0.0000E+00  0.0000E+00  0.0000E+00  0.0000E+00  0.0000E+00  0.0000E+00  0.0000E+00  0.0000E+00  0.0000E+00  0.0000E+00
    -26.669  0.0000E+00  0.0000E+00  0.0000E+00  0.0000E+00  0.0000E+00  0.0000E+00  0.0000E+00  0.0000E+00  0.0000E+00  0.0000E+00  0.0000E+00  0.0000E+00  0.0000E+00  0.0000E+00  0.0000E+00  0.0000E+00  0.0000E+00  0.0000E+00
    -26.533  0.0000E+00  0.0000E+00  0.0000E+00  0.0000E+00  0.0000E+00  0.0000E+00  0.0000E+00  0.0000E+00  0.0000E+00  0.0000E+00  0.0000E+00  0.0000E+00  0.0000E+00  0.0000E+00  0.0000E+00  0.0000E+00  0.0000E+00  0.0000E+00
    -26.396  0.0000E+00  0.0000E+00  0.0000E+00  0.0000E+00  0.0000E+00  0.0000E+00  0.0000E+00  0.0000E+00  0.0000E+00  0.0000E+00  0.0000E+00  0.0000E+00  0.0000E+00  0.0000E+00  0.0000E+00  0.0000E+00  0.0000E+00  0.0000E+00
    -26.260  0.0000E+00  0.0000E+00  0.0000E+00  0.0000E+00  0.0000E+00  0.0000E+00  0.0000E+00  0.0000E+00  0.0000E+00  0.0000E+00  0.0000E+00  0.0000E+00  0.0000E+00  0.0000E+00  0.0000E+00  0.0000E+00  0.0000E+00  0.0000E+00
    -26.123  0.0000E+00  0.0000E+00  0.0000E+00  0.0000E+00  0.0000E+00  0.0000E+00  0.0000E+00  0.0000E+00  0.0000E+00  0.0000E+00  0.0000E+00  0.0000E+00  0.0000E+00  0.0000E+00  0.0000E+00  0.0000E+00  0.0000E+00  0.0000E+00
    -25.987  0.0000E+00  0.0000E+00  0.0000E+00  0.0000E+00  0.0000E+00  0.0000E+00  0.0000E+00  0.0000E+00  0.0000E+00  0.0000E+00  0.0000E+00  0.0000E+00  0.0000E+00  0.0000E+00  0.0000E+00  0.0000E+00  0.0000E+00  0.0000E+00
    -25.850  0.0000E+00  0.0000E+00  0.0000E+00  0.0000E+00  0.0000E+00  0.0000E+00  0.0000E+00  0.0000E+00  0.0000E+00  0.0000E+00  0.0000E+00  0.0000E+00  0.0000E+00  0.0000E+00  0.0000E+00  0.0000E+00  0.0000E+00  0.0000E+00
    -25.713  0.0000E+00  0.0000E+00  0.0000E+00  0.0000E+00  0.0000E+00  0.0000E+00  0.0000E+00  0.0000E+00  0.0000E+00  0.0000E+00  0.0000E+00  0.0000E+00  0.0000E+00  0.0000E+00  0.0000E+00  0.0000E+00  0.0000E+00  0.0000E+00
    -25.577  0.0000E+00  0.0000E+00  0.0000E+00  0.0000E+00  0.0000E+00  0.0000E+00  0.0000E+00  0.0000E+00  0.0000E+00  0.0000E+00  0.0000E+00  0.0000E+00  0.0000E+00  0.0000E+00  0.0000E+00  0.0000E+00  0.0000E+00  0.0000E+00
    -25.440  0.4471E-04  0.4533E-04  0.9814E-01  0.9893E-01  0.9814E-01  0.9893E-01  0.9814E-01  0.9893E-01  0.4961E-04  0.5018E-04  0.4961E-04  0.5018E-04  0.3885E-04  0.3947E-04  0.4961E-04  0.5018E-04  0.3885E-04  0.3947E-04
    -25.304  0.1072E-02  0.1076E-02  0.4664E+00  0.4671E+00  0.4664E+00  0.4671E+00  0.4664E+00  0.4671E+00  0.4035E-03  0.4066E-03  0.4035E-03  0.4066E-03  0.2324E-03  0.2352E-03  0.4035E-03  0.4066E-03  0.2324E-03  0.2352E-03
    -25.167  0.3045E-02  0.3043E-02  0.8995E+00  0.8984E+00  0.8995E+00  0.8984E+00  0.8995E+00  0.8984E+00  0.1092E-02  0.1094E-02  0.1092E-02  0.1094E-02  0.5356E-03  0.5408E-03  0.1092E-02  0.1094E-02  0.5356E-03  0.5408E-03
    -25.031  0.2372E-02  0.2368E-02  0.4871E+00  0.4860E+00  0.4871E+00  0.4860E+00  0.4871E+00  0.4860E+00  0.4398E-03  0.4394E-03  0.4398E-03  0.4394E-03  0.3473E-03  0.3488E-03  0.4398E-03  0.4394E-03  0.3473E-03  0.3488E-03
    -24.894  0.1867E-02  0.1866E-02  0.4038E+00  0.4044E+00  0.4038E+00  0.4044E+00  0.4038E+00  0.4044E+00  0.5261E-03  0.5279E-03  0.5261E-03  0.5279E-03  0.1236E-03  0.1242E-03  0.5261E-03  0.5279E-03  0.1236E-03  0.1242E-03
    -24.758  0.1107E-02  0.1108E-02  0.3838E+00  0.3842E+00  0.3838E+00  0.3842E+00  0.3838E+00  0.3842E+00  0.8749E-03  0.8770E-03  0.8749E-03  0.8770E-03  0.1218E-03  0.1227E-03  0.8749E-03  0.8770E-03  0.1218E-03  0.1227E-03
    -24.621  0.1318E-02  0.1318E-02  0.5342E+00  0.5347E+00  0.5342E+00  0.5347E+00  0.5342E+00  0.5347E+00  0.1319E-02  0.1323E-02  0.1319E-02  0.1323E-02  0.1754E-03  0.1765E-03  0.1319E-02  0.1323E-02  0.1754E-03  0.1765E-03
    -24.485  0.3966E-03  0.3983E-03  0.5496E+00  0.5493E+00  0.5496E+00  0.5493E+00  0.5496E+00  0.5493E+00  0.1266E-02  0.1266E-02  0.1266E-02  0.1266E-02  0.7458E-04  0.7430E-04  0.1266E-02  0.1266E-02  0.7458E-04  0.7430E-04
    -24.348  0.2028E-02  0.2031E-02  0.9228E+00  0.9258E+00  0.9228E+00  0.9258E+00  0.9228E+00  0.9258E+00  0.2196E-02  0.2204E-02  0.2196E-02  0.2204E-02  0.1367E-03  0.1372E-03  0.2196E-02  0.2204E-02  0.1367E-03  0.1372E-03
    -24.212  0.1009E-02  0.1007E-02  0.5750E+00  0.5745E+00  0.5750E+00  0.5745E+00  0.5750E+00  0.5745E+00  0.1200E-02  0.1202E-02  0.1200E-02  0.1202E-02  0.5519E-04  0.5524E-04  0.1200E-02  0.1202E-02  0.5519E-04  0.5524E-04
    -24.075  0.9866E-03  0.9887E-03  0.1059E+01  0.1062E+01  0.1059E+01  0.1062E+01  0.1059E+01  0.1062E+01  0.1787E-02  0.1792E-02  0.1787E-02  0.1792E-02  0.6144E-04  0.6155E-04  0.1787E-02  0.1792E-02  0.6144E-04  0.6155E-04
    -23.938  0.8303E-03  0.8292E-03  0.1013E+01  0.1013E+01  0.1013E+01  0.1013E+01  0.1013E+01  0.1013E+01  0.8477E-03  0.8464E-03  0.8477E-03  0.8464E-03  0.3641E-04  0.3608E-04  0.8477E-03  0.8464E-03  0.3641E-04  0.3608E-04
    -23.802  0.1465E-03  0.1465E-03  0.4359E+00  0.4350E+00  0.4359E+00  0.4350E+00  0.4359E+00  0.4350E+00  0.2166E-03  0.2159E-03  0.2166E-03  0.2159E-03  0.7521E-05  0.7401E-05  0.2166E-03  0.2159E-03  0.7521E-05  0.7401E-05
    -23.665  0.0000E+00  0.0000E+00  0.0000E+00  0.0000E+00  0.0000E+00  0.0000E+00  0.0000E+00  0.0000E+00  0.0000E+00  0.0000E+00  0.0000E+00  0.0000E+00  0.0000E+00  0.0000E+00  0.0000E+00  0.0000E+00  0.0000E+00  0.0000E+00
    -23.529  0.0000E+00  0.0000E+00  0.0000E+00  0.0000E+00  0.0000E+00  0.0000E+00  0.0000E+00  0.0000E+00  0.0000E+00  0.0000E+00  0.0000E+00  0.0000E+00  0.0000E+00  0.0000E+00  0.0000E+00  0.0000E+00  0.0000E+00  0.0000E+00
    -23.392  0.0000E+00  0.0000E+00  0.0000E+00  0.0000E+00  0.0000E+00  0.0000E+00  0.0000E+00  0.0000E+00  0.0000E+00  0.0000E+00  0.0000E+00  0.0000E+00  0.0000E+00  0.0000E+00  0.0000E+00  0.0000E+00  0.0000E+00  0.0000E+00
    -23.256  0.0000E+00  0.0000E+00  0.0000E+00  0.0000E+00  0.0000E+00  0.0000E+00  0.0000E+00  0.0000E+00  0.0000E+00  0.0000E+00  0.0000E+00  0.0000E+00  0.0000E+00  0.0000E+00  0.0000E+00  0.0000E+00  0.0000E+00  0.0000E+00
    -23.119  0.0000E+00  0.0000E+00  0.0000E+00  0.0000E+00  0.0000E+00  0.0000E+00  0.0000E+00  0.0000E+00  0.0000E+00  0.0000E+00  0.0000E+00  0.0000E+00  0.0000E+00  0.0000E+00  0.0000E+00  0.0000E+00  0.0000E+00  0.0000E+00
    -22.983  0.0000E+00  0.0000E+00  0.0000E+00  0.0000E+00  0.0000E+00  0.0000E+00  0.0000E+00  0.0000E+00  0.0000E+00  0.0000E+00  0.0000E+00  0.0000E+00  0.0000E+00  0.0000E+00  0.0000E+00  0.0000E+00  0.0000E+00  0.0000E+00
    -22.846  0.0000E+00  0.0000E+00  0.0000E+00  0.0000E+00  0.0000E+00  0.0000E+00  0.0000E+00  0.0000E+00  0.0000E+00  0.0000E+00  0.0000E+00  0.0000E+00  0.0000E+00  0.0000E+00  0.0000E+00  0.0000E+00  0.0000E+00  0.0000E+00
    -22.710  0.0000E+00  0.0000E+00  0.0000E+00  0.0000E+00  0.0000E+00  0.0000E+00  0.0000E+00  0.0000E+00  0.0000E+00  0.0000E+00  0.0000E+00  0.0000E+00  0.0000E+00  0.0000E+00  0.0000E+00  0.0000E+00  0.0000E+00  0.0000E+00
    -22.573  0.0000E+00  0.0000E+00  0.0000E+00  0.0000E+00  0.0000E+00  0.0000E+00  0.0000E+00  0.0000E+00  0.0000E+00  0.0000E+00  0.0000E+00  0.0000E+00  0.0000E+00  0.0000E+00  0.0000E+00  0.0000E+00  0.0000E+00  0.0000E+00
    -22.437  0.0000E+00  0.0000E+00  0.0000E+00  0.0000E+00  0.0000E+00  0.0000E+00  0.0000E+00  0.0000E+00  0.0000E+00  0.0000E+00  0.0000E+00  0.0000E+00  0.0000E+00  0.0000E+00  0.0000E+00  0.0000E+00  0.0000E+00  0.0000E+00
    -22.300  0.0000E+00  0.0000E+00  0.0000E+00  0.0000E+00  0.0000E+00  0.0000E+00  0.0000E+00  0.0000E+00  0.0000E+00  0.0000E+00  0.0000E+00  0.0000E+00  0.0000E+00  0.0000E+00  0.0000E+00  0.0000E+00  0.0000E+00  0.0000E+00
    -22.163  0.0000E+00  0.0000E+00  0.0000E+00  0.0000E+00  0.0000E+00  0.0000E+00  0.0000E+00  0.0000E+00  0.0000E+00  0.0000E+00  0.0000E+00  0.0000E+00  0.0000E+00  0.0000E+00  0.0000E+00  0.0000E+00  0.0000E+00  0.0000E+00
    -22.027  0.0000E+00  0.0000E+00  0.0000E+00  0.0000E+00  0.0000E+00  0.0000E+00  0.0000E+00  0.0000E+00  0.0000E+00  0.0000E+00  0.0000E+00  0.0000E+00  0.0000E+00  0.0000E+00  0.0000E+00  0.0000E+00  0.0000E+00  0.0000E+00
    -21.890  0.0000E+00  0.0000E+00  0.0000E+00  0.0000E+00  0.0000E+00  0.0000E+00  0.0000E+00  0.0000E+00  0.0000E+00  0.0000E+00  0.0000E+00  0.0000E+00  0.0000E+00  0.0000E+00  0.0000E+00  0.0000E+00  0.0000E+00  0.0000E+00
    -21.754  0.0000E+00  0.0000E+00  0.0000E+00  0.0000E+00  0.0000E+00  0.0000E+00  0.0000E+00  0.0000E+00  0.0000E+00  0.0000E+00  0.0000E+00  0.0000E+00  0.0000E+00  0.0000E+00  0.0000E+00  0.0000E+00  0.0000E+00  0.0000E+00
    -21.617  0.0000E+00  0.0000E+00  0.0000E+00  0.0000E+00  0.0000E+00  0.0000E+00  0.0000E+00  0.0000E+00  0.0000E+00  0.0000E+00  0.0000E+00  0.0000E+00  0.0000E+00  0.0000E+00  0.0000E+00  0.0000E+00  0.0000E+00  0.0000E+00
    -21.481  0.0000E+00  0.0000E+00  0.0000E+00  0.0000E+00  0.0000E+00  0.0000E+00  0.0000E+00  0.0000E+00  0.0000E+00  0.0000E+00  0.0000E+00  0.0000E+00  0.0000E+00  0.0000E+00  0.0000E+00  0.0000E+00  0.0000E+00  0.0000E+00
    -21.344  0.0000E+00  0.0000E+00  0.0000E+00  0.0000E+00  0.0000E+00  0.0000E+00  0.0000E+00  0.0000E+00  0.0000E+00  0.0000E+00  0.0000E+00  0.0000E+00  0.0000E+00  0.0000E+00  0.0000E+00  0.0000E+00  0.0000E+00  0.0000E+00
    -21.208  0.0000E+00  0.0000E+00  0.0000E+00  0.0000E+00  0.0000E+00  0.0000E+00  0.0000E+00  0.0000E+00  0.0000E+00  0.0000E+00  0.0000E+00  0.0000E+00  0.0000E+00  0.0000E+00  0.0000E+00  0.0000E+00  0.0000E+00  0.0000E+00
    -21.071  0.0000E+00  0.0000E+00  0.0000E+00  0.0000E+00  0.0000E+00  0.0000E+00  0.0000E+00  0.0000E+00  0.0000E+00  0.0000E+00  0.0000E+00  0.0000E+00  0.0000E+00  0.0000E+00  0.0000E+00  0.0000E+00  0.0000E+00  0.0000E+00
    -20.935  0.0000E+00  0.0000E+00  0.0000E+00  0.0000E+00  0.0000E+00  0.0000E+00  0.0000E+00  0.0000E+00  0.0000E+00  0.0000E+00  0.0000E+00  0.0000E+00  0.0000E+00  0.0000E+00  0.0000E+00  0.0000E+00  0.0000E+00  0.0000E+00
    -20.798  0.0000E+00  0.0000E+00  0.0000E+00  0.0000E+00  0.0000E+00  0.0000E+00  0.0000E+00  0.0000E+00  0.0000E+00  0.0000E+00  0.0000E+00  0.0000E+00  0.0000E+00  0.0000E+00  0.0000E+00  0.0000E+00  0.0000E+00  0.0000E+00
    -20.662  0.0000E+00  0.0000E+00  0.0000E+00  0.0000E+00  0.0000E+00  0.0000E+00  0.0000E+00  0.0000E+00  0.0000E+00  0.0000E+00  0.0000E+00  0.0000E+00  0.0000E+00  0.0000E+00  0.0000E+00  0.0000E+00  0.0000E+00  0.0000E+00
    -20.525  0.0000E+00  0.0000E+00  0.0000E+00  0.0000E+00  0.0000E+00  0.0000E+00  0.0000E+00  0.0000E+00  0.0000E+00  0.0000E+00  0.0000E+00  0.0000E+00  0.0000E+00  0.0000E+00  0.0000E+00  0.0000E+00  0.0000E+00  0.0000E+00