 vasp.6.4.1 05Apr23 (build Jul 24 2024 14:19:02) complex                         
 executed on             LinuxGNU date 2024.10.22  14:54:58
 running    1 mpi-ranks, with   24 threads/rank, on    1 nodes
 distrk:  each k-point on    1 cores,    1 groups
 distr:  one band on NCORE=   1 cores,    1 groups


--------------------------------------------------------------------------------------------------------


 INCAR:
   ISTART = 0
   ALGO = Fast
   EDIFF = 0.0001
   ENCUT = 520
   IBRION = -1
   ISIF = 2
   ISMEAR = -5
   ISPIN = 2
   LASPH = True
   LMAXMIX = 6
   LORBIT = 11
   LREAL = Auto
   LWAVE = False
   MAGMOM = 2*0.6
   NELM = 100
   NSW = 0
   PREC = Accurate
   SIGMA = 0.05

 POTCAR:    PAW_PBE Nb_pv 08Apr2002               
 POTCAR:    PAW_PBE Nb_pv 08Apr2002               
   SHA256 =  bac2b60850b34f8515cf56f9feae68b678e347865051052a0e1f5d2c6a691c0a Nb_pv/POTCAR          
   COPYR  = (c) Copyright 08Apr2002 Georg Kresse                                                    
   COPYR  = This file is part of the software VASP. Any use, copying, and all other rights are regul
   COPYR  = If you do not have a valid VASP license, you may not use, copy or distribute this file. 
   VRHFIN =Nb: 4p5s4d                                                                               
   LEXCH  = PE                                                                                      
   EATOM  =  1043.3917 eV,   76.6871 Ry                                                             
                                                                                                    
   TITEL  = PAW_PBE Nb_pv 08Apr2002                                                                 
   LULTRA =        F    use ultrasoft PP ?                                                          
   IUNSCR =        1    unscreen: 0-lin 1-nonlin 2-no                                               
   RPACOR =    2.200    partial core radius                                                         
   POMASS =   92.000; ZVAL   =   11.000    mass and valenz                                          
   RCORE  =    2.750    outmost cutoff radius                                                       
   RWIGS  =    2.840; RWIGS  =    1.503    wigner-seitz radius (au A)                               
   ENMAX  =  208.608; ENMIN  =  156.456 eV                                                          
   RCLOC  =    2.201    cutoff for local pot                                                        
   LCOR   =        T    correct aug charges                                                         
   LPAW   =        T    paw PP                                                                      
   EAUG   =  355.067                                                                                
   DEXC   =    0.000                                                                                
   RMAX   =    2.804    core radius for proj-oper                                                   
   RAUG   =    1.300    factor for augmentation sphere                                              
   RDEP   =    2.776    radius for radial grids                                                     
   RDEPT  =    2.198    core radius for aug-charge                                                  
                                                                                                    
   Atomic configuration                                                                             
   11 entries                                                                                       
     n  l   j            E        occ.                                                              
     1  0  0.50    -18805.2456   2.0000                                                             
     2  0  0.50     -2630.2869   2.0000                                                             
     2  1  1.50     -2348.4045   6.0000                                                             
     3  0  0.50      -438.8756   2.0000                                                             
     3  1  1.50      -346.7587   6.0000                                                             
     3  2  2.50      -196.2559  10.0000                                                             
     4  0  0.50       -58.3859   2.0000                                                             
     4  1  1.50       -34.5141   6.0000                                                             
     4  2  2.50        -3.0408   4.0000                                                             
     5  0  0.50        -3.9816   1.0000                                                             
     4  3  2.50        -1.3606   0.0000                                                             
   Description                                                                                      
     l       E           TYP  RCUT    TYP  RCUT                                                     
     1    -34.5140617     23  2.600                                                                 
     1     -1.3605826     23  2.600                                                                 
     2     -3.0407924     23  2.600                                                                 
     2     -1.4463597     23  2.600                                                                 
     0     -3.9816219     23  2.750                                                                 
     0     20.4087390     23  2.750                                                                 
  local pseudopotential read in
  partial core-charges read in
  partial kinetic energy density read in
  atomic valenz-charges read in
  non local Contribution for L=           1  read in
    real space projection operators read in
  non local Contribution for L=           1  read in
    real space projection operators read in
  non local Contribution for L=           2  read in
    real space projection operators read in
  non local Contribution for L=           2  read in
    real space projection operators read in
  non local Contribution for L=           0  read in
    real space projection operators read in
  non local Contribution for L=           0  read in
    real space projection operators read in
    PAW grid and wavefunctions read in

   number of l-projection  operators is LMAX  =           6
   number of lm-projection operators is LMMAX =          18

 -----------------------------------------------------------------------------
|                                                                             |
|               ----> ADVICE to this user running VASP <----                  |
|                                                                             |
|     You have a (more or less) 'small supercell' and for smaller cells       |
|     it is recommended to use the reciprocal-space projection scheme!        |
|     The real-space optimization is not efficient for small cells and it     |
|     is also less accurate ...                                               |
|     Therefore, set LREAL=.FALSE. in the INCAR file.                         |
|                                                                             |
 -----------------------------------------------------------------------------

 Optimization of the real space projectors (new method)

 maximal supplied QI-value         = 13.61
 optimisation between [QCUT,QGAM] = [ 11.57, 23.27] = [ 37.45,151.59] Ry 
 Optimized for a Real-space Cutoff    1.63 Angstroem

   l    n(q)    QCUT    max X(q) W(low)/X(q) W(high)/X(q)  e(spline) 
   1     11    11.565     4.545    0.12E-04    0.18E-04    0.64E-07
   1     11    11.565     6.014    0.42E-04    0.48E-04    0.13E-06
   2     10    11.565   266.542    0.24E-03    0.87E-04    0.13E-05
   2     10    11.565   232.726    0.24E-03    0.87E-04    0.13E-05
   0     11    11.565    38.050    0.76E-04    0.32E-05    0.94E-06
   0     11    11.565    16.565    0.58E-04    0.25E-05    0.73E-06
  PAW_PBE Nb_pv 08Apr2002               :
 energy of atom  1       EATOM=-1043.3917
 kinetic energy error for atom=    0.0011 (will be added to EATOM!!)


 POSCAR: Nb2
  positions in direct lattice
  velocities in cartesian coordinates
 exchange correlation table for  LEXCH =        8
   RHO(1)=    0.500       N(1)  =     2000
   RHO(2)=  100.500       N(2)  =     4000



--------------------------------------------------------------------------------------------------------


 ion  position               nearest neighbor table
   1  0.000  0.000  0.000-   2 2.79   2 2.79   2 2.79   2 2.79   2 2.79   2 2.79   2 2.79   2 2.79

   2  0.500  0.500  0.500-   1 2.79   1 2.79   1 2.79   1 2.79   1 2.79   1 2.79   1 2.79   1 2.79


  LATTYP: Found a simple cubic cell.
 ALAT       =     3.2189772687
  
  Lattice vectors:
  
 A1 = (   3.2189772687,   0.0000000000,   0.0000000000)
 A2 = (   0.0000000000,   3.2189772687,   0.0000000000)
 A3 = (  -0.0000000000,  -0.0000000000,   3.2189772687)


Analysis of symmetry for initial positions (statically):
=====================================================================
 Subroutine PRICEL returns following result:
 
  LATTYP: Found a body centered cubic cell.
 ALAT       =     3.2189772687
  
  Lattice vectors:
  
 A1 = (   1.6094886344,   1.6094886344,  -1.6094886344)
 A2 = (  -1.6094886344,   1.6094886344,   1.6094886344)
 A3 = (   1.6094886344,  -1.6094886344,   1.6094886344)
 
   2 primitive cells build up your supercell.
 

 Routine SETGRP: Setting up the symmetry group for a 
 simple cubic supercell.


 Subroutine GETGRP returns: Found 48 space group operations
 (whereof 48 operations were pure point group operations)
 out of a pool of 48 trial point group operations.


The static configuration has the point symmetry O_h .


Analysis of symmetry for dynamics (positions and initial velocities):
=====================================================================
 Subroutine PRICEL returns following result:
 
  LATTYP: Found a body centered cubic cell.
 ALAT       =     3.2189772687
  
  Lattice vectors:
  
 A1 = (   1.6094886344,   1.6094886344,  -1.6094886344)
 A2 = (  -1.6094886344,   1.6094886344,   1.6094886344)
 A3 = (   1.6094886344,  -1.6094886344,   1.6094886344)
 
   2 primitive cells build up your supercell.
 

 Routine SETGRP: Setting up the symmetry group for a 
 simple cubic supercell.


 Subroutine GETGRP returns: Found 48 space group operations
 (whereof 48 operations were pure point group operations)
 out of a pool of 48 trial point group operations.


The dynamic configuration has the point symmetry O_h .


Analysis of structural, dynamic, and magnetic symmetry:
=====================================================================
 Subroutine PRICEL returns following result:
 
  LATTYP: Found a body centered cubic cell.
 ALAT       =     3.2189772687
  
  Lattice vectors:
  
 A1 = (   1.6094886344,   1.6094886344,  -1.6094886344)
 A2 = (  -1.6094886344,   1.6094886344,   1.6094886344)
 A3 = (   1.6094886344,  -1.6094886344,   1.6094886344)
 
   2 primitive cells build up your supercell.
 

 Routine SETGRP: Setting up the symmetry group for a 
 simple cubic supercell.


 Subroutine GETGRP returns: Found 48 space group operations
 (whereof 48 operations were pure point group operations)
 out of a pool of 48 trial point group operations.


The overall configuration has the point symmetry O_h .


 Subroutine INISYM returns: Found 48 space group operations
 (whereof 48 operations are pure point group operations),
 and found     2 'primitive' translations


----------------------------------------------------------------------------------------

                                     Primitive cell                                     

  volume of cell :      16.6772

  direct lattice vectors                    reciprocal lattice vectors
     1.609488634  1.609488634 -1.609488634     0.310657677  0.310657677 -0.000000000
    -1.609488634  1.609488634  1.609488634    -0.000000000  0.310657677  0.310657677
     1.609488634 -1.609488634  1.609488634     0.310657677 -0.000000000  0.310657677

  length of vectors
     2.787716089  2.787716089  2.787716089     0.439336300  0.439336300  0.439336300

  position of ions in fractional coordinates (direct lattice)
     0.000000000  0.000000000  0.000000000

  ion indices of the primitive-cell ions
   primitive index   ion index
                 1           1

----------------------------------------------------------------------------------------



 KPOINTS: pymatgen with grid density = 869 / numbe

Automatic generation of k-mesh.
 Grid dimensions read from file:
 generate k-points for:    7    7    7

 Generating k-lattice:

  Cartesian coordinates                     Fractional coordinates (reciprocal lattice)
     0.044379668 -0.000000000  0.000000000     0.142857143  0.000000000  0.000000000
    -0.000000000  0.044379668  0.000000000     0.000000000  0.142857143  0.000000000
    -0.000000000 -0.000000000  0.044379668     0.000000000  0.000000000  0.142857143

  Length of vectors
     0.044379668  0.044379668  0.044379668

  Shift w.r.t. Gamma in fractional coordinates (k-lattice)
     0.000000000  0.000000000  0.000000000

 TETIRR: Found    163 inequivalent tetrahedra from     2058
 
 Subroutine IBZKPT returns following result:
 ===========================================
 
 Found     20 irreducible k-points:
 
 Following reciprocal coordinates:
            Coordinates               Weight
  0.000000  0.000000  0.000000      1.000000
  0.142857  0.000000  0.000000      6.000000
  0.285714  0.000000  0.000000      6.000000
  0.428571  0.000000  0.000000      6.000000
  0.142857  0.142857  0.000000     12.000000
  0.285714  0.142857  0.000000     24.000000
  0.428571  0.142857  0.000000     24.000000
  0.285714  0.285714  0.000000     12.000000
  0.428571  0.285714  0.000000     24.000000
  0.428571  0.428571  0.000000     12.000000
  0.142857  0.142857  0.142857      8.000000
  0.285714  0.142857  0.142857     24.000000
  0.428571  0.142857  0.142857     24.000000
  0.285714  0.285714  0.142857     24.000000
  0.428571  0.285714  0.142857     48.000000
  0.428571  0.428571  0.142857     24.000000
  0.285714  0.285714  0.285714      8.000000
  0.428571  0.285714  0.285714     24.000000
  0.428571  0.428571  0.285714     24.000000
  0.428571  0.428571  0.428571      8.000000
 
 Following cartesian coordinates:
            Coordinates               Weight
  0.000000  0.000000  0.000000      1.000000
  0.043006  0.000000  0.000000      6.000000
  0.086012  0.000000  0.000000      6.000000
  0.129019  0.000000  0.000000      6.000000
  0.043006  0.043006  0.000000     12.000000
  0.086012  0.043006  0.000000     24.000000
  0.129019  0.043006  0.000000     24.000000
  0.086012  0.086012  0.000000     12.000000
  0.129019  0.086012  0.000000     24.000000
  0.129019  0.129019  0.000000     12.000000
  0.043006  0.043006  0.043006      8.000000
  0.086012  0.043006  0.043006     24.000000
  0.129019  0.043006  0.043006     24.000000
  0.086012  0.086012  0.043006     24.000000
  0.129019  0.086012  0.043006     48.000000
  0.129019  0.129019  0.043006     24.000000
  0.086012  0.086012  0.086012      8.000000
  0.129019  0.086012  0.086012     24.000000
  0.129019  0.129019  0.086012     24.000000
  0.129019  0.129019  0.129019      8.000000
 


--------------------------------------------------------------------------------------------------------




 Dimension of arrays:
   k-points           NKPTS =     20   k-points in BZ     NKDIM =     20   number of bands    NBANDS=     16
   number of dos      NEDOS =    301   number of ions     NIONS =      2
   non local maximal  LDIM  =      6   non local SUM 2l+1 LMDIM =     18
   total plane-waves  NPLWV =  13824
   max r-space proj   IRMAX =   7530   max aug-charges    IRDMAX=  25714
   dimension x,y,z NGX =    24 NGY =   24 NGZ =   24
   dimension x,y,z NGXF=    48 NGYF=   48 NGZF=   48
   support grid    NGXF=    48 NGYF=   48 NGZF=   48
   ions per type =               2
   NGX,Y,Z   is equivalent  to a cutoff of  12.39, 12.39, 12.39 a.u.
   NGXF,Y,Z  is equivalent  to a cutoff of  24.79, 24.79, 24.79 a.u.

 SYSTEM =  unknown system                          
 POSCAR =  Nb2                                     

 Startparameter for this run:
   NWRITE =      2    write-flag & timer
   PREC   = accura    normal or accurate (medium, high low for compatibility)
   ISTART =      0    job   : 0-new  1-cont  2-samecut
   ICHARG =      2    charge: 1-file 2-atom 10-const
   ISPIN  =      2    spin polarized calculation?
   LNONCOLLINEAR =      F non collinear calculations
   LSORBIT =      F    spin-orbit coupling
   INIWAV =      1    electr: 0-lowe 1-rand  2-diag
   LASPH  =      T    aspherical Exc in radial PAW
 Electronic Relaxation 1
   ENCUT  =  520.0 eV  38.22 Ry    6.18 a.u.   5.99  5.99  5.99*2*pi/ulx,y,z
   ENINI  =  520.0     initial cutoff
   ENAUG  =  355.1 eV  augmentation charge cutoff
   NELM   =    100;   NELMIN=  2; NELMDL= -5     # of ELM steps 
   EDIFF  = 0.1E-03   stopping-criterion for ELM
   LREAL  =      T    real-space projection
   NLSPLINE    = F    spline interpolate recip. space projectors
   LCOMPAT=      F    compatible to vasp.4.4
   GGA_COMPAT  = T    GGA compatible to vasp.4.4-vasp.4.6
   LMAXPAW     = -100 max onsite density
   LMAXMIX     =    6 max onsite mixed and CHGCAR
   VOSKOWN=      0    Vosko Wilk Nusair interpolation
   ROPT   =   -0.00025
 Ionic relaxation
   EDIFFG = 0.1E-02   stopping-criterion for IOM
   NSW    =      0    number of steps for IOM
   NBLOCK =      1;   KBLOCK =      1    inner block; outer block 
   IBRION =     -1    ionic relax: 0-MD 1-quasi-New 2-CG
   NFREE  =      0    steps in history (QN), initial steepest desc. (CG)
   ISIF   =      2    stress and relaxation
   IWAVPR =     10    prediction:  0-non 1-charg 2-wave 3-comb
   ISYM   =      2    0-nonsym 1-usesym 2-fastsym
   LCORR  =      T    Harris-Foulkes like correction to forces

   POTIM  = 0.5000    time-step for ionic-motion
   TEIN   =    0.0    initial temperature
   TEBEG  =    0.0;   TEEND  =   0.0 temperature during run
   SMASS  =  -3.00    Nose mass-parameter (am)
   estimated Nose-frequenzy (Omega)   =  0.10E-29 period in steps = 0.13E+47 mass=  -0.237E-27a.u.
   SCALEE = 1.0000    scale energy and forces
   NPACO  =    256;   APACO  = 10.0  distance and # of slots for P.C.
   PSTRESS=    0.0 pullay stress

  Mass of Ions in am
   POMASS =  92.00
  Ionic Valenz
   ZVAL   =  11.00
  Atomic Wigner-Seitz radii
   RWIGS  =  -1.00
  virtual crystal weights 
   VCA    =   1.00
   NELECT =      22.0000    total number of electrons
   NUPDOWN=      -1.0000    fix difference up-down

 DOS related values:
   EMIN   =  10.00;   EMAX   =-10.00  energy-range for DOS
   EFERMI =   0.00;   METHOD = LEGACY      
   ISMEAR =    -5;   SIGMA  =   0.05  broadening in eV -4-tet -1-fermi 0-gaus

 Electronic relaxation 2 (details)
   IALGO  =     68    algorithm
   LDIAG  =      T    sub-space diagonalisation (order eigenvalues)
   LSUBROT=      F    optimize rotation matrix (better conditioning)
   TURBO    =      0    0=normal 1=particle mesh
   IRESTART =      0    0=no restart 2=restart with 2 vectors
   NREBOOT  =      0    no. of reboots
   NMIN     =      0    reboot dimension
   EREF     =   0.00    reference energy to select bands
   IMIX   =      4    mixing-type and parameters
     AMIX     =   0.40;   BMIX     =  1.00
     AMIX_MAG =   1.60;   BMIX_MAG =  1.00
     AMIN     =   0.10
     WC   =   100.;   INIMIX=   1;  MIXPRE=   1;  MAXMIX= -45

 Intra band minimization:
   WEIMIN = 0.0000     energy-eigenvalue tresh-hold
   EBREAK =  0.16E-05  absolut break condition
   DEPER  =   0.30     relativ break condition  

   TIME   =   0.40     timestep for ELM

  volume/ion in A,a.u.               =      16.68       112.54
  Fermi-wavevector in a.u.,A,eV,Ry     =   1.425053  2.692961 27.630402  2.030777
  Thomas-Fermi vector in A             =   2.545479

 Write flags
   LWAVE        =      F    write WAVECAR
   LDOWNSAMPLE  =      F    k-point downsampling of WAVECAR
   LCHARG       =      T    write CHGCAR
   LVTOT        =      F    write LOCPOT, total local potential
   LVHAR        =      F    write LOCPOT, Hartree potential only
   LELF         =      F    write electronic localiz. function (ELF)
   LORBIT       =     11    0 simple, 1 ext, 2 COOP (PROOUT), +10 PAW based schemes


 Dipole corrections
   LMONO  =      F    monopole corrections only (constant potential shift)
   LDIPOL =      F    correct potential (dipole corrections)
   IDIPOL =      0    1-x, 2-y, 3-z, 4-all directions 
   EPSILON=  1.0000000 bulk dielectric constant

 Exchange correlation treatment:
   GGA     =    --    GGA type
   LEXCH   =     8    internal setting for exchange type
   LIBXC   =     F    Libxc                    
   VOSKOWN =     0    Vosko Wilk Nusair interpolation
   LHFCALC =     F    Hartree Fock is set to
   LHFONE  =     F    Hartree Fock one center treatment
   AEXX    =    0.0000 exact exchange contribution

 Linear response parameters
   LEPSILON=     F    determine dielectric tensor
   LRPA    =     F    only Hartree local field effects (RPA)
   LNABLA  =     F    use nabla operator in PAW spheres
   LVEL    =     F    velocity operator in full k-point grid
   CSHIFT  =0.1000    complex shift for real part using Kramers Kronig
   OMEGAMAX=  -1.0    maximum frequency
   DEG_THRESHOLD= 0.2000000E-02 threshold for treating states as degnerate
   RTIME   =   -0.100 relaxation time in fs
  (WPLASMAI=    0.000 imaginary part of plasma frequency in eV, 0.658/RTIME)
   DFIELD  = 0.0000000 0.0000000 0.0000000 field for delta impulse in time

  Optional k-point grid parameters
   LKPOINTS_OPT  =     F    use optional k-point grid
   KPOINTS_OPT_MODE=     1    mode for optional k-point grid

 Orbital magnetization related:
   ORBITALMAG=     F  switch on orbital magnetization
   LCHIMAG   =     F  perturbation theory with respect to B field
   DQ        =  0.001000  dq finite difference perturbation B field
   LLRAUG    =     F  two centre corrections for induced B field
   LBONE     =     F  B-component reconstruction in AE one-centre
   LVGVCALC  =     T  calculate vGv susceptibility
   LVGVAPPL  =     F  apply vGv susceptibility instead of pGv for G=0

 Random number generation:
   RANDOM_GENERATOR = DEFAULT
   PCG_SEED         = not used


--------------------------------------------------------------------------------------------------------


 Static calculation
 charge density and potential will be updated during run
 spin polarized calculation
 RMM-DIIS sequential band-by-band and
  variant of blocked Davidson during initial phase
 perform sub-space diagonalisation
    before iterative eigenvector-optimisation
 modified Broyden-mixing scheme, WC =      100.0
 initial mixing is a Kerker type mixing with AMIX =  0.4000 and BMIX =      1.0000
 Hartree-type preconditioning will be used
 using additional bands            5
 real space projection scheme for non local part
 use partial core corrections
 calculate Harris-corrections to forces   (improved forces if not selfconsistent)
 use gradient corrections 
 use of overlap-Matrix (Vanderbilt PP)
 Fermi weights with tetrahedron method with Bloechl corrections


--------------------------------------------------------------------------------------------------------


  energy-cutoff  :      520.00
  volume of cell :       33.35
      direct lattice vectors                 reciprocal lattice vectors
     3.218977269  0.000000000  0.000000000     0.310657677 -0.000000000  0.000000000
     0.000000000  3.218977269  0.000000000    -0.000000000  0.310657677  0.000000000
    -0.000000000 -0.000000000  3.218977269    -0.000000000 -0.000000000  0.310657677

  length of vectors
     3.218977269  3.218977269  3.218977269     0.310657677  0.310657677  0.310657677



 k-points in units of 2pi/SCALE and weight: pymatgen with grid density = 869 / numbe
   0.00000000  0.00000000  0.00000000       0.003
   0.04300621  0.00000000  0.00000000       0.017
   0.08601242  0.00000000  0.00000000       0.017
   0.12901863  0.00000000  0.00000000       0.017
   0.04300621  0.04300621  0.00000000       0.035
   0.08601242  0.04300621  0.00000000       0.070
   0.12901863  0.04300621  0.00000000       0.070
   0.08601242  0.08601242  0.00000000       0.035
   0.12901863  0.08601242  0.00000000       0.070
   0.12901863  0.12901863  0.00000000       0.035
   0.04300621  0.04300621  0.04300621       0.023
   0.08601242  0.04300621  0.04300621       0.070
   0.12901863  0.04300621  0.04300621       0.070
   0.08601242  0.08601242  0.04300621       0.070
   0.12901863  0.08601242  0.04300621       0.140
   0.12901863  0.12901863  0.04300621       0.070
   0.08601242  0.08601242  0.08601242       0.023
   0.12901863  0.08601242  0.08601242       0.070
   0.12901863  0.12901863  0.08601242       0.070
   0.12901863  0.12901863  0.12901863       0.023

 k-points in reciprocal lattice and weights: pymatgen with grid density = 869 / numbe
   0.00000000  0.00000000  0.00000000       0.003
   0.14285714  0.00000000  0.00000000       0.017
   0.28571429  0.00000000  0.00000000       0.017
   0.42857143  0.00000000  0.00000000       0.017
   0.14285714  0.14285714  0.00000000       0.035
   0.28571429  0.14285714  0.00000000       0.070
   0.42857143  0.14285714  0.00000000       0.070
   0.28571429  0.28571429  0.00000000       0.035
   0.42857143  0.28571429  0.00000000       0.070
   0.42857143  0.42857143  0.00000000       0.035
   0.14285714  0.14285714  0.14285714       0.023
   0.28571429  0.14285714  0.14285714       0.070
   0.42857143  0.14285714  0.14285714       0.070
   0.28571429  0.28571429  0.14285714       0.070
   0.42857143  0.28571429  0.14285714       0.140
   0.42857143  0.42857143  0.14285714       0.070
   0.28571429  0.28571429  0.28571429       0.023
   0.42857143  0.28571429  0.28571429       0.070
   0.42857143  0.42857143  0.28571429       0.070
   0.42857143  0.42857143  0.42857143       0.023

 position of ions in fractional coordinates (direct lattice) 
   0.00000000  0.00000000  0.00000000
   0.50000000  0.50000000  0.50000000

 position of ions in cartesian coordinates  (Angst):
   0.00000000  0.00000000  0.00000000
   1.60948863  1.60948863  1.60948863



--------------------------------------------------------------------------------------------------------


 k-point   1 :   0.0000 0.0000 0.0000  plane waves:     895
 k-point   2 :   0.1429 0.0000 0.0000  plane waves:     896
 k-point   3 :   0.2857 0.0000 0.0000  plane waves:     896
 k-point   4 :   0.4286 0.0000 0.0000  plane waves:     880
 k-point   5 :   0.1429 0.1429 0.0000  plane waves:     897
 k-point   6 :   0.2857 0.1429 0.0000  plane waves:     897
 k-point   7 :   0.4286 0.1429 0.0000  plane waves:     897
 k-point   8 :   0.2857 0.2857 0.0000  plane waves:     886
 k-point   9 :   0.4286 0.2857 0.0000  plane waves:     897
 k-point  10 :   0.4286 0.4286 0.0000  plane waves:     898
 k-point  11 :   0.1429 0.1429 0.1429  plane waves:     904
 k-point  12 :   0.2857 0.1429 0.1429  plane waves:     895
 k-point  13 :   0.4286 0.1429 0.1429  plane waves:     899
 k-point  14 :   0.2857 0.2857 0.1429  plane waves:     894
 k-point  15 :   0.4286 0.2857 0.1429  plane waves:     898
 k-point  16 :   0.4286 0.4286 0.1429  plane waves:     901
 k-point  17 :   0.2857 0.2857 0.2857  plane waves:     901
 k-point  18 :   0.4286 0.2857 0.2857  plane waves:     915
 k-point  19 :   0.4286 0.4286 0.2857  plane waves:     905
 k-point  20 :   0.4286 0.4286 0.4286  plane waves:     916

 maximum and minimum number of plane-waves per node :       916      880

 maximum number of plane-waves:       916
 maximum index in each direction: 
   IXMAX=    5   IYMAX=    5   IZMAX=    5
   IXMIN=   -6   IYMIN=   -6   IZMIN=   -6


 serial   3D FFT for wavefunctions
 parallel 3D FFT for charge:
    minimum data exchange during FFTs selected (reduces bandwidth)


 total amount of memory used by VASP MPI-rank0    56035. kBytes
=======================================================================

   base      :      30000. kBytes
   nonlr-proj:       2964. kBytes
   fftplans  :       3916. kBytes
   grid      :       9345. kBytes
   one-center:         62. kBytes
   wavefun   :       9748. kBytes

     INWAV:  cpu time      0.0000: real time      0.0004
 Broyden mixing: mesh for mixing (old mesh)
   NGX = 11   NGY = 11   NGZ = 11
  (NGX  = 48   NGY  = 48   NGZ  = 48)
  gives a total of   1331 points

 initial charge density was supplied:
 charge density of overlapping atoms calculated
 number of electron      22.0000000 magnetization       1.2000000
 keeping initial charge density in first step


--------------------------------------------------------------------------------------------------------


 Maximum index for non-local projection operator          441
 Maximum index for augmentation-charges        24837 (set IRDMAX)


--------------------------------------------------------------------------------------------------------


 First call to EWALD:  gamma=   0.551
 Maximum number of real-space cells 3x 3x 3
 Maximum number of reciprocal cells 3x 3x 3

    FEWALD:  cpu time      0.1223: real time      0.0049


--------------------------------------- Ionic step        1  -------------------------------------------




--------------------------------------- Iteration      1(   1)  ---------------------------------------


    POTLOK:  cpu time      1.5963: real time      0.1096
    SETDIJ:  cpu time      1.1616: real time      0.2664
     EDDAV:  cpu time    208.4134: real time     10.9314
 BZINTS: Fermi energy:   24.331517;   22.000000 electrons
         Band energy:-0.102561E+02;  BLOECHL correction:   -0.772356
       DOS:  cpu time      0.0086: real time      0.0086
    --------------------------------------------
      LOOP:  cpu time    211.1799: real time     11.3159

 eigenvalue-minimisations  :  1408
 total energy-change (2. order) : 0.2062080E+03  (-0.1182352E+04)
 number of electron      22.0000000 magnetization       1.2000000
 augmentation part       22.0000000 magnetization       1.2000000

 Free energy of the ion-electron system (eV)
  ---------------------------------------------------
  alpha Z        PSCENC =       271.45323303
  Ewald energy   TEWEN  =     -1969.85133725
  -Hartree energ DENC   =      -257.25939395
  -exchange      EXHF   =         0.00000000
  -V(xc)+E(xc)   XCENC  =        53.43178784
  PAW double counting   =      1671.32378679    -1639.41528309
  entropy T*S    EENTRO =         0.00000000
  eigenvalues    EBANDS =       -10.25608529
  atomic energy  EATOM  =      2086.78124273
  Solvation  Ediel_sol  =         0.00000000
  ---------------------------------------------------
  free energy    TOTEN  =       206.20795081 eV

  energy without entropy =      206.20795081  energy(sigma->0) =      206.20795081


--------------------------------------------------------------------------------------------------------




--------------------------------------- Iteration      1(   2)  ---------------------------------------


     EDDAV:  cpu time    272.7617: real time     13.7348
 BZINTS: Fermi energy:    7.740354;   22.000000 electrons
         Band energy:-0.226130E+03;  BLOECHL correction:   -0.238034
       DOS:  cpu time      0.1197: real time      0.0097
    --------------------------------------------
      LOOP:  cpu time    272.8814: real time     13.7446

 eigenvalue-minimisations  :  1336
 total energy-change (2. order) :-0.2158744E+03  (-0.2132046E+03)
 number of electron      22.0000000 magnetization       1.2000000
 augmentation part       22.0000000 magnetization       1.2000000

 Free energy of the ion-electron system (eV)
  ---------------------------------------------------
  alpha Z        PSCENC =       271.45323303
  Ewald energy   TEWEN  =     -1969.85133725
  -Hartree energ DENC   =      -257.25939395
  -exchange      EXHF   =         0.00000000
  -V(xc)+E(xc)   XCENC  =        53.43178784
  PAW double counting   =      1671.32378679    -1639.41528309
  entropy T*S    EENTRO =         0.00000000
  eigenvalues    EBANDS =      -226.13045958
  atomic energy  EATOM  =      2086.78124273
  Solvation  Ediel_sol  =         0.00000000
  ---------------------------------------------------
  free energy    TOTEN  =        -9.66642348 eV

  energy without entropy =       -9.66642348  energy(sigma->0) =       -9.66642348


--------------------------------------------------------------------------------------------------------




--------------------------------------- Iteration      1(   3)  ---------------------------------------


     EDDAV:  cpu time    544.3324: real time     26.8158
 BZINTS: Fermi energy:    6.158524;   22.000000 electrons
         Band energy:-0.237176E+03;  BLOECHL correction:   -0.247674
       DOS:  cpu time      0.1065: real time      0.0101
    --------------------------------------------
      LOOP:  cpu time    544.4389: real time     26.8259

 eigenvalue-minimisations  :  2176
 total energy-change (2. order) :-0.1104565E+02  (-0.1043731E+02)
 number of electron      22.0000000 magnetization       1.2000000
 augmentation part       22.0000000 magnetization       1.2000000

 Free energy of the ion-electron system (eV)
  ---------------------------------------------------
  alpha Z        PSCENC =       271.45323303
  Ewald energy   TEWEN  =     -1969.85133725
  -Hartree energ DENC   =      -257.25939395
  -exchange      EXHF   =         0.00000000
  -V(xc)+E(xc)   XCENC  =        53.43178784
  PAW double counting   =      1671.32378679    -1639.41528309
  entropy T*S    EENTRO =         0.00000000
  eigenvalues    EBANDS =      -237.17611388
  atomic energy  EATOM  =      2086.78124273
  Solvation  Ediel_sol  =         0.00000000
  ---------------------------------------------------
  free energy    TOTEN  =       -20.71207778 eV

  energy without entropy =      -20.71207778  energy(sigma->0) =      -20.71207778


--------------------------------------------------------------------------------------------------------




--------------------------------------- Iteration      1(   4)  ---------------------------------------


     EDDAV:  cpu time    169.4047: real time      9.1466
 BZINTS: Fermi energy:    6.148018;   22.000000 electrons
         Band energy:-0.237297E+03;  BLOECHL correction:   -0.246328
       DOS:  cpu time      0.1211: real time      0.0089
    --------------------------------------------
      LOOP:  cpu time    169.5258: real time      9.1555

 eigenvalue-minimisations  :  1512
 total energy-change (2. order) :-0.1207897E+00  (-0.1209001E+00)
 number of electron      22.0000000 magnetization       1.2000000
 augmentation part       22.0000000 magnetization       1.2000000

 Free energy of the ion-electron system (eV)
  ---------------------------------------------------
  alpha Z        PSCENC =       271.45323303
  Ewald energy   TEWEN  =     -1969.85133725
  -Hartree energ DENC   =      -257.25939395
  -exchange      EXHF   =         0.00000000
  -V(xc)+E(xc)   XCENC  =        53.43178784
  PAW double counting   =      1671.32378679    -1639.41528309
  entropy T*S    EENTRO =         0.00000000
  eigenvalues    EBANDS =      -237.29690355
  atomic energy  EATOM  =      2086.78124273
  Solvation  Ediel_sol  =         0.00000000
  ---------------------------------------------------
  free energy    TOTEN  =       -20.83286745 eV

  energy without entropy =      -20.83286745  energy(sigma->0) =      -20.83286745


--------------------------------------------------------------------------------------------------------




--------------------------------------- Iteration      1(   5)  ---------------------------------------


     EDDAV:  cpu time    212.2197: real time     11.4343
 BZINTS: Fermi energy:    6.147756;   22.000000 electrons
         Band energy:-0.237299E+03;  BLOECHL correction:   -0.246269
       DOS:  cpu time      0.2359: real time      0.0132
    CHARGE:  cpu time     10.5923: real time      0.5836
    MIXING:  cpu time      0.0019: real time      0.0019
    --------------------------------------------
      LOOP:  cpu time    223.0498: real time     12.0331

 eigenvalue-minimisations  :  1992
 total energy-change (2. order) :-0.2118021E-02  (-0.2132315E-02)
 number of electron      22.0000005 magnetization       0.2627257
 augmentation part        7.8016613 magnetization      -0.0934662

 Broyden mixing:
  rms(total) = 0.28465E+01    rms(broyden)= 0.28465E+01
  rms(prec ) = 0.31709E+01
  weight for this iteration     100.00

 Free energy of the ion-electron system (eV)
  ---------------------------------------------------
  alpha Z        PSCENC =       271.45323303
  Ewald energy   TEWEN  =     -1969.85133725
  -Hartree energ DENC   =      -257.25939395
  -exchange      EXHF   =         0.00000000
  -V(xc)+E(xc)   XCENC  =        53.43178784
  PAW double counting   =      1671.32378679    -1639.41528309
  entropy T*S    EENTRO =         0.00000000
  eigenvalues    EBANDS =      -237.29902157
  atomic energy  EATOM  =      2086.78124273
  Solvation  Ediel_sol  =         0.00000000
  ---------------------------------------------------
  free energy    TOTEN  =       -20.83498547 eV

  energy without entropy =      -20.83498547  energy(sigma->0) =      -20.83498547


--------------------------------------------------------------------------------------------------------




--------------------------------------- Iteration      1(   6)  ---------------------------------------


    POTLOK:  cpu time      1.3861: real time      0.0929
    SETDIJ:  cpu time      1.1111: real time      0.2490
    EDDIAG:  cpu time     31.2225: real time      1.7367
  RMM-DIIS:  cpu time    123.3605: real time      6.3772
    ORTHCH:  cpu time      0.4639: real time      0.0262
 BZINTS: Fermi energy:    5.855515;   22.000000 electrons
         Band energy:-0.249150E+03;  BLOECHL correction:   -0.241895
       DOS:  cpu time      0.1209: real time      0.0105
    CHARGE:  cpu time      7.2854: real time      0.4146
    MIXING:  cpu time      0.0024: real time      0.0023
    --------------------------------------------
      LOOP:  cpu time    164.9529: real time      8.9094

 eigenvalue-minimisations  :  1401
 total energy-change (2. order) : 0.6598654E+00  (-0.5951673E-01)
 number of electron      22.0000005 magnetization       0.1036727
 augmentation part        7.9103440 magnetization      -0.0562740

 Broyden mixing:
  rms(total) = 0.11978E+01    rms(broyden)= 0.11978E+01
  rms(prec ) = 0.14075E+01
  weight for this iteration     100.00

 eigenvalues of (default mixing * dielectric matrix)
  average eigenvalue GAMMA=   1.6158
  1.6158

 Free energy of the ion-electron system (eV)
  ---------------------------------------------------
  alpha Z        PSCENC =       271.45323303
  Ewald energy   TEWEN  =     -1969.85133725
  -Hartree energ DENC   =      -240.23650500
  -exchange      EXHF   =         0.00000000
  -V(xc)+E(xc)   XCENC  =        52.52490139
  PAW double counting   =      2325.38147209    -2297.07817553
  entropy T*S    EENTRO =         0.00000000
  eigenvalues    EBANDS =      -249.14995150
  atomic energy  EATOM  =      2086.78124273
  Solvation  Ediel_sol  =         0.00000000
  ---------------------------------------------------
  free energy    TOTEN  =       -20.17512003 eV

  energy without entropy =      -20.17512003  energy(sigma->0) =      -20.17512003


--------------------------------------------------------------------------------------------------------




--------------------------------------- Iteration      1(   7)  ---------------------------------------


    POTLOK:  cpu time      1.5534: real time      0.1072
    SETDIJ:  cpu time      1.2171: real time      0.2531
    EDDIAG:  cpu time     40.6142: real time      2.1434
  RMM-DIIS:  cpu time   1247.4754: real time     54.8532
    ORTHCH:  cpu time      0.9207: real time      0.0544
 BZINTS: Fermi energy:    5.600025;   22.000000 electrons
         Band energy:-0.259767E+03;  BLOECHL correction:   -0.237239
       DOS:  cpu time      0.2196: real time      0.0133
    CHARGE:  cpu time     16.5001: real time      0.8686
    MIXING:  cpu time      0.0033: real time      0.0021
    --------------------------------------------
      LOOP:  cpu time   1308.5037: real time     58.2954

 eigenvalue-minimisations  :  1742
 total energy-change (2. order) : 0.1604843E+00  (-0.1717790E+00)
 number of electron      22.0000005 magnetization       0.0020237
 augmentation part        8.0673444 magnetization       0.0351426

 Broyden mixing:
  rms(total) = 0.30614E+00    rms(broyden)= 0.30614E+00
  rms(prec ) = 0.31899E+00
  weight for this iteration     100.00

 eigenvalues of (default mixing * dielectric matrix)
  average eigenvalue GAMMA=   1.1255
  1.7383  0.5126

 Free energy of the ion-electron system (eV)
  ---------------------------------------------------
  alpha Z        PSCENC =       271.45323303
  Ewald energy   TEWEN  =     -1969.85133725
  -Hartree energ DENC   =      -225.34282123
  -exchange      EXHF   =         0.00000000
  -V(xc)+E(xc)   XCENC  =        51.78265218
  PAW double counting   =      2977.45837733    -2952.52883394
  entropy T*S    EENTRO =         0.00000000
  eigenvalues    EBANDS =      -259.76714861
  atomic energy  EATOM  =      2086.78124273
  Solvation  Ediel_sol  =         0.00000000
  ---------------------------------------------------
  free energy    TOTEN  =       -20.01463575 eV

  energy without entropy =      -20.01463575  energy(sigma->0) =      -20.01463575


--------------------------------------------------------------------------------------------------------




--------------------------------------- Iteration      1(   8)  ---------------------------------------


    POTLOK:  cpu time      2.8478: real time      0.1779
    SETDIJ:  cpu time      1.0092: real time      0.2583
    EDDIAG:  cpu time     20.5495: real time      1.1717
  RMM-DIIS:  cpu time    114.4334: real time      6.0417
    ORTHCH:  cpu time      0.3457: real time      0.0243
 BZINTS: Fermi energy:    5.607916;   22.000000 electrons
         Band energy:-0.259393E+03;  BLOECHL correction:   -0.237325
       DOS:  cpu time      0.1226: real time      0.0096
    CHARGE:  cpu time      8.0343: real time      0.4555
    MIXING:  cpu time      0.0013: real time      0.0013
    --------------------------------------------
      LOOP:  cpu time    147.3439: real time      8.1402

 eigenvalue-minimisations  :  1796
 total energy-change (2. order) :-0.1049562E-01  (-0.7927365E-02)
 number of electron      22.0000005 magnetization      -0.0110731
 augmentation part        8.0738947 magnetization       0.0087295

 Broyden mixing:
  rms(total) = 0.13336E+00    rms(broyden)= 0.13336E+00
  rms(prec ) = 0.15871E+00
  weight for this iteration     100.00

 eigenvalues of (default mixing * dielectric matrix)
  average eigenvalue GAMMA=   1.1048
  1.9581  0.7085  0.6477

 Free energy of the ion-electron system (eV)
  ---------------------------------------------------
  alpha Z        PSCENC =       271.45323303
  Ewald energy   TEWEN  =     -1969.85133725
  -Hartree energ DENC   =      -225.49881221
  -exchange      EXHF   =         0.00000000
  -V(xc)+E(xc)   XCENC  =        51.78337483
  PAW double counting   =      3041.81518035    -3017.11499356
  entropy T*S    EENTRO =         0.00000000
  eigenvalues    EBANDS =      -259.39301930
  atomic energy  EATOM  =      2086.78124273
  Solvation  Ediel_sol  =         0.00000000
  ---------------------------------------------------
  free energy    TOTEN  =       -20.02513138 eV

  energy without entropy =      -20.02513138  energy(sigma->0) =      -20.02513138


--------------------------------------------------------------------------------------------------------




--------------------------------------- Iteration      1(   9)  ---------------------------------------


    POTLOK:  cpu time      1.4587: real time      0.0998
    SETDIJ:  cpu time      0.9925: real time      0.2450
    EDDIAG:  cpu time     56.4308: real time      2.9179
  RMM-DIIS:  cpu time    136.4092: real time      7.1342
    ORTHCH:  cpu time      1.0163: real time      0.0582
 BZINTS: Fermi energy:    5.616595;   22.000000 electrons
         Band energy:-0.258998E+03;  BLOECHL correction:   -0.237451
       DOS:  cpu time      0.1241: real time      0.0099
    CHARGE:  cpu time     15.7593: real time      0.8242
    MIXING:  cpu time      0.0017: real time      0.0013
    --------------------------------------------
      LOOP:  cpu time    212.1927: real time     11.2904

 eigenvalue-minimisations  :  1809
 total energy-change (2. order) : 0.5934404E-03  (-0.1728563E-02)
 number of electron      22.0000005 magnetization       0.0016245
 augmentation part        8.0733882 magnetization       0.0197636

 Broyden mixing:
  rms(total) = 0.10868E+00    rms(broyden)= 0.10868E+00
  rms(prec ) = 0.13229E+00
  weight for this iteration     100.00

 eigenvalues of (default mixing * dielectric matrix)
  average eigenvalue GAMMA=   1.1952
  2.3387  1.0220  0.8076  0.6125

 Free energy of the ion-electron system (eV)
  ---------------------------------------------------
  alpha Z        PSCENC =       271.45323303
  Ewald energy   TEWEN  =     -1969.85133725
  -Hartree energ DENC   =      -225.80697363
  -exchange      EXHF   =         0.00000000
  -V(xc)+E(xc)   XCENC  =        51.79743279
  PAW double counting   =      3096.02782970    -3071.42789632
  entropy T*S    EENTRO =         0.00000000
  eigenvalues    EBANDS =      -258.99806899
  atomic energy  EATOM  =      2086.78124273
  Solvation  Ediel_sol  =         0.00000000
  ---------------------------------------------------
  free energy    TOTEN  =       -20.02453793 eV

  energy without entropy =      -20.02453793  energy(sigma->0) =      -20.02453793


--------------------------------------------------------------------------------------------------------




--------------------------------------- Iteration      1(  10)  ---------------------------------------


    POTLOK:  cpu time      1.3206: real time      0.0868
    SETDIJ:  cpu time      0.9886: real time      0.2469
    EDDIAG:  cpu time     43.9927: real time      2.2620
  RMM-DIIS:  cpu time     77.7670: real time      4.2680
    ORTHCH:  cpu time      0.4431: real time      0.0234
 BZINTS: Fermi energy:    5.637383;   22.000000 electrons
         Band energy:-0.258049E+03;  BLOECHL correction:   -0.237704
       DOS:  cpu time      0.1139: real time      0.0102
    CHARGE:  cpu time      7.0411: real time      0.4175
    MIXING:  cpu time      0.1166: real time      0.0012
    --------------------------------------------
      LOOP:  cpu time    131.7837: real time      7.3159

 eigenvalue-minimisations  :  1426
 total energy-change (2. order) : 0.3558051E-02  (-0.5282288E-03)
 number of electron      22.0000005 magnetization      -0.0052737
 augmentation part        8.0651975 magnetization       0.0071170

 Broyden mixing:
  rms(total) = 0.64196E-01    rms(broyden)= 0.64196E-01
  rms(prec ) = 0.71351E-01
  weight for this iteration     100.00

 eigenvalues of (default mixing * dielectric matrix)
  average eigenvalue GAMMA=   1.3586
  2.7762  1.3310  1.3310  0.6019  0.7531

 Free energy of the ion-electron system (eV)
  ---------------------------------------------------
  alpha Z        PSCENC =       271.45323303
  Ewald energy   TEWEN  =     -1969.85133725
  -Hartree energ DENC   =      -226.69719125
  -exchange      EXHF   =         0.00000000
  -V(xc)+E(xc)   XCENC  =        51.83991042
  PAW double counting   =      3198.21399408    -3173.71199723
  entropy T*S    EENTRO =         0.00000000
  eigenvalues    EBANDS =      -258.04883441
  atomic energy  EATOM  =      2086.78124273
  Solvation  Ediel_sol  =         0.00000000
  ---------------------------------------------------
  free energy    TOTEN  =       -20.02097988 eV

  energy without entropy =      -20.02097988  energy(sigma->0) =      -20.02097988


--------------------------------------------------------------------------------------------------------




--------------------------------------- Iteration      1(  11)  ---------------------------------------


    POTLOK:  cpu time      1.0022: real time      0.0878
    SETDIJ:  cpu time      1.0420: real time      0.2499
    EDDIAG:  cpu time     29.1553: real time      1.6315
  RMM-DIIS:  cpu time     89.0484: real time      4.8739
    ORTHCH:  cpu time      0.9104: real time      0.0504
 BZINTS: Fermi energy:    5.648477;   22.000000 electrons
         Band energy:-0.257552E+03;  BLOECHL correction:   -0.237376
       DOS:  cpu time      0.1174: real time      0.0092
    CHARGE:  cpu time     10.6352: real time      0.6021
    MIXING:  cpu time      0.0027: real time      0.0027
    --------------------------------------------
      LOOP:  cpu time    131.9136: real time      7.5074

 eigenvalue-minimisations  :  1672
 total energy-change (2. order) : 0.3411904E-03  (-0.4785958E-03)
 number of electron      22.0000005 magnetization      -0.0040466
 augmentation part        8.0587183 magnetization      -0.0002163

 Broyden mixing:
  rms(total) = 0.58097E-02    rms(broyden)= 0.58097E-02
  rms(prec ) = 0.61638E-02
  weight for this iteration     100.00

 eigenvalues of (default mixing * dielectric matrix)
  average eigenvalue GAMMA=   1.2681
  2.6226  1.4409  1.4409  0.5899  0.7968  0.7174

 Free energy of the ion-electron system (eV)
  ---------------------------------------------------
  alpha Z        PSCENC =       271.45323303
  Ewald energy   TEWEN  =     -1969.85133725
  -Hartree energ DENC   =      -227.16095840
  -exchange      EXHF   =         0.00000000
  -V(xc)+E(xc)   XCENC  =        51.86184696
  PAW double counting   =      3274.49940718    -3250.05246896
  entropy T*S    EENTRO =         0.00000000
  eigenvalues    EBANDS =      -257.55160398
  atomic energy  EATOM  =      2086.78124273
  Solvation  Ediel_sol  =         0.00000000
  ---------------------------------------------------
  free energy    TOTEN  =       -20.02063869 eV

  energy without entropy =      -20.02063869  energy(sigma->0) =      -20.02063869


--------------------------------------------------------------------------------------------------------




--------------------------------------- Iteration      1(  12)  ---------------------------------------


    POTLOK:  cpu time      1.1986: real time      0.0862
    SETDIJ:  cpu time      1.0093: real time      0.2474
    EDDIAG:  cpu time     28.3777: real time      1.5547
  RMM-DIIS:  cpu time     74.7542: real time      3.9515
    ORTHCH:  cpu time      0.3388: real time      0.0222
 BZINTS: Fermi energy:    5.648376;   22.000000 electrons
         Band energy:-0.257555E+03;  BLOECHL correction:   -0.237381
       DOS:  cpu time      0.1194: real time      0.0094
    --------------------------------------------
      LOOP:  cpu time    105.7979: real time      5.8714

 eigenvalue-minimisations  :  1058
 total energy-change (2. order) :-0.7320874E-04  (-0.4352783E-04)
 number of electron      22.0000005 magnetization      -0.0040466
 augmentation part        8.0587183 magnetization      -0.0002163

 Free energy of the ion-electron system (eV)
  ---------------------------------------------------
  alpha Z        PSCENC =       271.45323303
  Ewald energy   TEWEN  =     -1969.85133725
  -Hartree energ DENC   =      -227.17527608
  -exchange      EXHF   =         0.00000000
  -V(xc)+E(xc)   XCENC  =        51.86254007
  PAW double counting   =      3273.61252299    -3249.14884257
  entropy T*S    EENTRO =         0.00000000
  eigenvalues    EBANDS =      -257.55479482
  atomic energy  EATOM  =      2086.78124273
  Solvation  Ediel_sol  =         0.00000000
  ---------------------------------------------------
  free energy    TOTEN  =       -20.02071190 eV

  energy without entropy =      -20.02071190  energy(sigma->0) =      -20.02071190


--------------------------------------------------------------------------------------------------------




 average (electrostatic) potential at core
  the test charge radii are     1.2125
  (the norm of the test charge is              1.0000)
       1 -34.1430       2 -34.1430



 E-fermi :   5.6484     XC(G=0): -12.8330     alpha+bet :-14.0275

 Fermi energy:         5.6483757792

 spin component 1

 k-point     1 :       0.0000    0.0000    0.0000
  band No.  band energies     occupation 
      1     -24.9612      1.00000
      2     -24.9612      1.00000
      3     -24.9612      1.00000
      4     -23.7995      1.00000
      5     -23.7995      1.00000
      6     -23.7995      1.00000
      7      -0.4519      1.00000
      8       1.3975      1.00000
      9       1.3975      1.00000
     10       5.9304      0.00745
     11       5.9304     -0.01498
     12       5.9304      0.00000
     13       9.1022      0.00000
     14       9.1022      0.00000
     15      11.7477      0.00000
     16      11.7477      0.00000

 k-point     2 :       0.1429    0.0000    0.0000
  band No.  band energies     occupation 
      1     -24.9698      1.00000
      2     -24.9025      1.00000
      3     -24.9025      1.00000
      4     -23.9305      1.00000
      5     -23.8552      1.00000
      6     -23.8552      1.00000
      7       0.0060      1.00000
      8       1.6465      1.00000
      9       1.8079      1.00000
     10       5.8953      0.28187
     11       5.8953      0.05049
     12       6.1442      0.00000
     13       8.4284      0.00000
     14       9.3452      0.00000
     15      10.4317      0.00000
     16      10.4317      0.00000

 k-point     3 :       0.2857    0.0000    0.0000
  band No.  band energies     occupation 
      1     -24.9578      1.00000
      2     -24.7383      1.00000
      3     -24.7383      1.00000
      4     -24.2495      1.00000
      5     -24.0126      1.00000
      6     -24.0126      1.00000
      7       1.2062      1.00000
      8       2.3827      1.00000
      9       2.7575      1.00000
     10       5.9285      0.63355
     11       5.9285      0.13725
     12       6.7697     -0.00008
     13       6.8738      0.00000
     14       8.5768      0.00000
     15       8.5768      0.00000
     16       9.9630      0.00000

 k-point     4 :       0.4286    0.0000    0.0000
  band No.  band energies     occupation 
      1     -24.8486      1.00000
      2     -24.5987      1.00000
      3     -24.5024      1.00000
      4     -24.5024      1.00000
      5     -24.2431      1.00000
      6     -24.2431      1.00000
      7       2.6217      1.00000
      8       3.3247      1.00000
      9       3.5698      1.00000
     10       5.1258      1.00132
     11       6.2886     -0.08132
     12       6.2886     -0.00479
     13       7.1548      0.00000
     14       7.1548      0.00000
     15       7.7544      0.00000
     16       8.9918      0.00000

 k-point     5 :       0.1429    0.1429    0.0000
  band No.  band energies     occupation 
      1     -25.0700      1.00000
      2     -24.8484      1.00000
      3     -24.7598      1.00000
      4     -24.1514      1.00000
      5     -23.9041      1.00000
      6     -23.8031      1.00000
      7       0.4116      1.00000
      8       1.9313      1.00000
      9       2.1552      1.00000
     10       5.4137      0.95757
     11       5.7508      0.39650
     12       6.8297     -0.00646
     13       8.5367      0.00000
     14       9.0164      0.00000
     15       9.1364      0.00000
     16       9.3589      0.00000

 k-point     6 :       0.2857    0.1429    0.0000
  band No.  band energies     occupation 
      1     -25.1303      1.00000
      2     -24.6977      1.00000
      3     -24.5464      1.00000
      4     -24.5089      1.00000
      5     -24.0431      1.00000
      6     -23.8772      1.00000
      7       1.4263      1.00000
      8       2.5318      1.00000
      9       3.1127      1.00000
     10       5.1352      1.01491
     11       5.5267      0.90352
     12       7.3136     -0.05213
     13       7.7359      0.00000
     14       7.8077      0.00000
     15       7.9414      0.00000
     16       9.7272      0.00000

 k-point     7 :       0.4286    0.1429    0.0000
  band No.  band energies     occupation 
      1     -25.0687      1.00000
      2     -24.8501      1.00000
      3     -24.4828      1.00000
      4     -24.3011      1.00000
      5     -24.2488      1.00000
      6     -24.0610      1.00000
      7       2.5224      1.00000
      8       3.0371      1.00000
      9       4.0052      1.00000
     10       4.9750      1.00187
     11       5.3095      0.97534
     12       6.0345     -0.03872
     13       7.2701      0.00000
     14       7.3740      0.00000
     15       8.9780      0.00000
     16      10.2709      0.00000

 k-point     8 :       0.2857    0.2857    0.0000
  band No.  band energies     occupation 
      1     -25.3067      1.00000
      2     -24.8897      1.00000
      3     -24.5862      1.00000
      4     -24.2858      1.00000
      5     -24.1321      1.00000
      6     -23.8116      1.00000
      7       1.7774      1.00000
      8       2.5339      1.00000
      9       4.2595      1.00000
     10       4.4365      1.00000
     11       5.6967      0.82839
     12       5.7801      0.11523
     13       7.3995      0.00000
     14       8.7111      0.00000
     15       9.2582      0.00000
     16       9.3949      0.00000

 k-point     9 :       0.4286    0.2857    0.0000
  band No.  band energies     occupation 
      1     -25.3451      1.00000
      2     -25.1989      1.00000
      3     -24.4313      1.00000
      4     -24.2689      1.00000
      5     -24.0513      1.00000
      6     -23.8799      1.00000
      7       2.0059      1.00000
      8       2.2865      1.00000
      9       4.2709      1.00000
     10       4.7228      1.00000
     11       5.4573      0.76545
     12       6.0728     -0.04706
     13       7.9474      0.00000
     14       8.6084      0.00000
     15      10.1732      0.00000
     16      10.6879      0.00000

 k-point    10 :       0.4286    0.4286    0.0000
  band No.  band energies     occupation 
      1     -25.4895      1.00000
      2     -25.4384      1.00000
      3     -24.3665      1.00000
      4     -24.3084      1.00000
      5     -23.8810      1.00000
      6     -23.8187      1.00000
      7       1.6271      1.00000
      8       1.7257      1.00000
      9       3.7777      1.00000
     10       3.9304      1.00000
     11       7.2312     -0.16283
     12       7.7252     -0.03795
     13       8.7372      0.00000
     14       9.2346      0.00000
     15       9.8420      0.00000
     16      11.0579      0.00000

 k-point    11 :       0.1429    0.1429    0.1429
  band No.  band energies     occupation 
      1     -25.0066      1.00000
      2     -25.0066      1.00000
      3     -24.5809      1.00000
      4     -24.3279      1.00000
      5     -23.8645      1.00000
      6     -23.8645      1.00000
      7       0.8020      1.00000
      8       2.3525      1.00000
      9       2.3525      1.00000
     10       5.2619      1.02458
     11       5.2619      1.07937
     12       7.3358     -0.06180
     13       7.5621      0.00000
     14       8.8468      0.00000
     15       8.8468      0.00000
     16      10.6293      0.00000

 k-point    12 :       0.2857    0.1429    0.1429
  band No.  band energies     occupation 
      1     -25.1336      1.00000
      2     -24.8290      1.00000
      3     -24.6552      1.00000
      4     -24.3640      1.00000
      5     -24.0377      1.00000
      6     -23.8828      1.00000
      7       1.7363      1.00000
      8       2.9101      1.00000
      9       3.2490      1.00000
     10       4.9210      1.01090
     11       4.9686      1.05209
     12       5.9294      0.12272
     13       8.1334      0.00000
     14       8.7497      0.00000
     15       8.9299      0.00000
     16       9.5937      0.00000

 k-point    13 :       0.4286    0.1429    0.1429
  band No.  band energies     occupation 
      1     -25.1292      1.00000
      2     -24.9581      1.00000
      3     -24.5730      1.00000
      4     -24.2902      1.00000
      5     -24.1591      1.00000
      6     -23.9893      1.00000
      7       2.6587      1.00000
      8       3.3411      1.00000
      9       3.6983      1.00000
     10       4.4378      1.00323
     11       5.3381      0.98529
     12       5.6325      0.34045
     13       7.5712      0.00000
     14       7.8156      0.00000
     15       9.7766      0.00000
     16      10.1538      0.00000

 k-point    14 :       0.2857    0.2857    0.1429
  band No.  band energies     occupation 
      1     -25.2335      1.00000
      2     -24.9426      1.00000
      3     -24.7713      1.00000
      4     -24.1595      1.00000
      5     -24.1267      1.00000
      6     -23.8859      1.00000
      7       2.2419      1.00000
      8       3.0003      1.00000
      9       4.2852      1.00000
     10       4.3134      1.00000
     11       4.7980      1.01709
     12       5.0157      0.95934
     13       8.5018      0.00000
     14       8.8342      0.00000
     15       9.4218      0.00000
     16      10.2882      0.00000

 k-point    15 :       0.4286    0.2857    0.1429
  band No.  band energies     occupation 
      1     -25.2915      1.00000
      2     -25.1893      1.00000
      3     -24.5596      1.00000
      4     -24.3205      1.00000
      5     -24.0091      1.00000
      6     -23.9196      1.00000
      7       2.4214      1.00000
      8       2.6698      1.00000
      9       4.1226      1.00000
     10       4.2598      1.00000
     11       5.5043      0.81681
     12       5.6454      0.44102
     13       8.3840      0.00000
     14       8.6530      0.00000
     15       9.9882      0.00000
     16      10.5586      0.00000

 k-point    16 :       0.4286    0.4286    0.1429
  band No.  band energies     occupation 
      1     -25.4091      1.00000
      2     -25.3740      1.00000
      3     -24.4583      1.00000
      4     -24.3653      1.00000
      5     -23.9288      1.00000
      6     -23.9033      1.00000
      7       2.0928      1.00000
      8       2.1530      1.00000
      9       3.7499      1.00000
     10       3.8706      1.00000
     11       6.8147     -0.16075
     12       6.9786     -0.10722
     13       8.9986      0.00000
     14       9.2941      0.00000
     15       9.8816      0.00000
     16      10.4148      0.00000

 k-point    17 :       0.2857    0.2857    0.2857
  band No.  band energies     occupation 
      1     -25.0736      1.00000
      2     -25.0277      1.00000
      3     -25.0277      1.00000
      4     -24.0942      1.00000
      5     -24.0942      1.00000
      6     -24.0388      1.00000
      7       3.3195      1.00000
      8       3.5974      1.00000
      9       4.1122      1.00000
     10       4.1122      1.00000
     11       4.2942      1.03332
     12       4.2942      1.08104
     13       9.3748      0.00000
     14       9.3748      0.00000
     15       9.6837      0.00000
     16       9.6837      0.00000

 k-point    18 :       0.4286    0.2857    0.2857
  band No.  band energies     occupation 
      1     -25.1881      1.00000
      2     -25.1840      1.00000
      3     -24.7287      1.00000
      4     -24.3953      1.00000
      5     -24.0396      1.00000
      6     -24.0061      1.00000
      7       3.0919      1.00000
      8       3.1563      1.00000
      9       4.0668      1.00000
     10       4.1891      1.00000
     11       4.9600      1.01332
     12       5.2869      0.96361
     13       9.1536      0.00000
     14       9.1940      0.00000
     15       9.9286      0.00000
     16      10.0358      0.00000

 k-point    19 :       0.4286    0.4286    0.2857
  band No.  band energies     occupation 
      1     -25.2056      1.00000
      2     -25.1823      1.00000
      3     -24.6591      1.00000
      4     -24.4723      1.00000
      5     -24.1396      1.00000
      6     -24.0811      1.00000
      7       3.0541      1.00000
      8       3.2570      1.00000
      9       3.7870      1.00000
     10       4.0445      1.00000
     11       5.6680      0.64817
     12       5.8160      0.32724
     13       9.5579      0.00000
     14       9.6379      0.00000
     15       9.9565      0.00000
     16      10.0392      0.00000

 k-point    20 :       0.4286    0.4286    0.4286
  band No.  band energies     occupation 
      1     -25.0126      1.00000
      2     -24.8510      1.00000
      3     -24.8510      1.00000
      4     -24.4787      1.00000
      5     -24.4787      1.00000
      6     -24.3050      1.00000
      7       3.6101      1.00000
      8       4.1013      1.00000
      9       4.1013      1.00000
     10       4.8007      1.00000
     11       4.8007      1.11656
     12       4.8969      1.13260
     13       9.9902      0.00000
     14       9.9902      0.00000
     15       9.9967      0.00000
     16       9.9967      0.00000
 Fermi energy:         5.6483757792

 spin component 2

 k-point     1 :       0.0000    0.0000    0.0000
  band No.  band energies     occupation 
      1     -24.9616      1.00000
      2     -24.9616      1.00000
      3     -24.9616      1.00000
      4     -23.7999      1.00000
      5     -23.7999      1.00000
      6     -23.7999      1.00000
      7      -0.4546      1.00000
      8       1.3958      1.00000
      9       1.3958      1.00000
     10       5.9293      0.00918
     11       5.9293     -0.01460
     12       5.9293      0.00000
     13       9.1016      0.00000
     14       9.1017      0.00000
     15      11.7470      0.00000
     16      11.7471      0.00000

 k-point     2 :       0.1429    0.0000    0.0000
  band No.  band energies     occupation 
      1     -24.9702      1.00000
      2     -24.9029      1.00000
      3     -24.9029      1.00000
      4     -23.9309      1.00000
      5     -23.8556      1.00000
      6     -23.8556      1.00000
      7       0.0033      1.00000
      8       1.6448      1.00000
      9       1.8062      1.00000
     10       5.8942      0.28490
     11       5.8942      0.05156
     12       6.1431      0.00000
     13       8.4277      0.00000
     14       9.3448      0.00000
     15      10.4305      0.00000
     16      10.4305      0.00000

 k-point     3 :       0.2857    0.0000    0.0000
  band No.  band energies     occupation 
      1     -24.9583      1.00000
      2     -24.7388      1.00000
      3     -24.7388      1.00000
      4     -24.2499      1.00000
      5     -24.0130      1.00000
      6     -24.0130      1.00000
      7       1.2036      1.00000
      8       2.3811      1.00000
      9       2.7557      1.00000
     10       5.9272      0.63612
     11       5.9272      0.14067
     12       6.7687     -0.00009
     13       6.8727      0.00000
     14       8.5754      0.00000
     15       8.5755      0.00000
     16       9.9628      0.00000

 k-point     4 :       0.4286    0.0000    0.0000
  band No.  band energies     occupation 
      1     -24.8491      1.00000
      2     -24.5992      1.00000
      3     -24.5029      1.00000
      4     -24.5029      1.00000
      5     -24.2435      1.00000
      6     -24.2435      1.00000
      7       2.6192      1.00000
      8       3.3226      1.00000
      9       3.5682      1.00000
     10       5.1245      1.00133
     11       6.2872     -0.07880
     12       6.2872     -0.00525
     13       7.1534      0.00000
     14       7.1534      0.00000
     15       7.7534      0.00000
     16       8.9910      0.00000

 k-point     5 :       0.1429    0.1429    0.0000
  band No.  band energies     occupation 
      1     -25.0704      1.00000
      2     -24.8488      1.00000
      3     -24.7602      1.00000
      4     -24.1518      1.00000
      5     -23.9045      1.00000
      6     -23.8035      1.00000
      7       0.4089      1.00000
      8       1.9296      1.00000
      9       2.1535      1.00000
     10       5.4125      0.95867
     11       5.7496      0.40028
     12       6.8286     -0.00648
     13       8.5360      0.00000
     14       9.0152      0.00000
     15       9.1359      0.00000
     16       9.3576      0.00000

 k-point     6 :       0.2857    0.1429    0.0000
  band No.  band energies     occupation 
      1     -25.1308      1.00000
      2     -24.6982      1.00000
      3     -24.5469      1.00000
      4     -24.5093      1.00000
      5     -24.0435      1.00000
      6     -23.8776      1.00000
      7       1.4237      1.00000
      8       2.5301      1.00000
      9       3.1109      1.00000
     10       5.1339      1.01492
     11       5.5252      0.90550
     12       7.3123     -0.05276
     13       7.7350      0.00000
     14       7.8066      0.00000
     15       7.9400      0.00000
     16       9.7268      0.00000

 k-point     7 :       0.4286    0.1429    0.0000
  band No.  band energies     occupation 
      1     -25.0692      1.00000
      2     -24.8506      1.00000
      3     -24.4832      1.00000
      4     -24.3015      1.00000
      5     -24.2492      1.00000
      6     -24.0614      1.00000
      7       2.5200      1.00000
      8       3.0352      1.00000
      9       4.0035      1.00000
     10       4.9734      1.00186
     11       5.3082      0.97576
     12       6.0332     -0.03858
     13       7.2689      0.00000
     14       7.3727      0.00000
     15       8.9770      0.00000
     16      10.2802      0.00000

 k-point     8 :       0.2857    0.2857    0.0000
  band No.  band energies     occupation 
      1     -25.3072      1.00000
      2     -24.8902      1.00000
      3     -24.5867      1.00000
      4     -24.2862      1.00000
      5     -24.1325      1.00000
      6     -23.8120      1.00000
      7       1.7751      1.00000
      8       2.5321      1.00000
      9       4.2577      1.00000
     10       4.4352      1.00000
     11       5.6948      0.83201
     12       5.7787      0.11694
     13       7.3982      0.00000
     14       8.7105      0.00000
     15       9.2572      0.00000
     16       9.3944      0.00000

 k-point     9 :       0.4286    0.2857    0.0000
  band No.  band energies     occupation 
      1     -25.3456      1.00000
      2     -25.1994      1.00000
      3     -24.4317      1.00000
      4     -24.2693      1.00000
      5     -24.0517      1.00000
      6     -23.8803      1.00000
      7       2.0039      1.00000
      8       2.2846      1.00000
      9       4.2696      1.00000
     10       4.7214      1.00000
     11       5.4554      0.76642
     12       6.0708     -0.04729
     13       7.9464      0.00000
     14       8.6074      0.00000
     15      10.1727      0.00000
     16      10.6871      0.00000

 k-point    10 :       0.4286    0.4286    0.0000
  band No.  band energies     occupation 
      1     -25.4900      1.00000
      2     -25.4389      1.00000
      3     -24.3669      1.00000
      4     -24.3088      1.00000
      5     -23.8813      1.00000
      6     -23.8191      1.00000
      7       1.6251      1.00000
      8       1.7238      1.00000
      9       3.7763      1.00000
     10       3.9290      1.00000
     11       7.2291     -0.16264
     12       7.7226     -0.03858
     13       8.7364      0.00000
     14       9.2339      0.00000
     15       9.8417      0.00000
     16      11.0568      0.00000

 k-point    11 :       0.1429    0.1429    0.1429
  band No.  band energies     occupation 
      1     -25.0070      1.00000
      2     -25.0070      1.00000
      3     -24.5813      1.00000
      4     -24.3283      1.00000
      5     -23.8649      1.00000
      6     -23.8649      1.00000
      7       0.7994      1.00000
      8       2.3508      1.00000
      9       2.3508      1.00000
     10       5.2606      1.02489
     11       5.2606      1.08034
     12       7.3344     -0.06191
     13       7.5610      0.00000
     14       8.8462      0.00000
     15       8.8462      0.00000
     16      10.6282      0.00000

 k-point    12 :       0.2857    0.1429    0.1429
  band No.  band energies     occupation 
      1     -25.1341      1.00000
      2     -24.8295      1.00000
      3     -24.6556      1.00000
      4     -24.3644      1.00000
      5     -24.0381      1.00000
      6     -23.8832      1.00000
      7       1.7338      1.00000
      8       2.9084      1.00000
      9       3.2472      1.00000
     10       4.9196      1.01086
     11       4.9672      1.05161
     12       5.9279      0.12418
     13       8.1326      0.00000
     14       8.7486      0.00000
     15       8.9287      0.00000
     16       9.5933      0.00000

 k-point    13 :       0.4286    0.1429    0.1429
  band No.  band energies     occupation 
      1     -25.1297      1.00000
      2     -24.9586      1.00000
      3     -24.5734      1.00000
      4     -24.2907      1.00000
      5     -24.1595      1.00000
      6     -23.9897      1.00000
      7       2.6565      1.00000
      8       3.3391      1.00000
      9       3.6967      1.00000
     10       4.4363      1.00320
     11       5.3365      0.98548
     12       5.6310      0.34432
     13       7.5702      0.00000
     14       7.8144      0.00000
     15       9.7763      0.00000
     16      10.1563      0.00000

 k-point    14 :       0.2857    0.2857    0.1429
  band No.  band energies     occupation 
      1     -25.2340      1.00000
      2     -24.9431      1.00000
      3     -24.7718      1.00000
      4     -24.1599      1.00000
      5     -24.1271      1.00000
      6     -23.8863      1.00000
      7       2.2396      1.00000
      8       2.9985      1.00000
      9       4.2834      1.00000
     10       4.3120      1.00000
     11       4.7964      1.01676
     12       5.0139      0.96047
     13       8.5007      0.00000
     14       8.8336      0.00000
     15       9.4213      0.00000
     16      10.2872      0.00000

 k-point    15 :       0.4286    0.2857    0.1429
  band No.  band energies     occupation 
      1     -25.2920      1.00000
      2     -25.1898      1.00000
      3     -24.5601      1.00000
      4     -24.3209      1.00000
      5     -24.0095      1.00000
      6     -23.9199      1.00000
      7       2.4193      1.00000
      8       2.6680      1.00000
      9       4.1212      1.00000
     10       4.2583      1.00000
     11       5.5025      0.81792
     12       5.6433      0.44500
     13       8.3831      0.00000
     14       8.6523      0.00000
     15       9.9878      0.00000
     16      10.5580      0.00000

 k-point    16 :       0.4286    0.4286    0.1429
  band No.  band energies     occupation 
      1     -25.4096      1.00000
      2     -25.3745      1.00000
      3     -24.4588      1.00000
      4     -24.3657      1.00000
      5     -23.9292      1.00000
      6     -23.9037      1.00000
      7       2.0909      1.00000
      8       2.1511      1.00000
      9       3.7484      1.00000
     10       3.8691      1.00000
     11       6.8125     -0.16043
     12       6.9762     -0.10792
     13       8.9979      0.00000
     14       9.2936      0.00000
     15       9.8813      0.00000
     16      10.4142      0.00000

 k-point    17 :       0.2857    0.2857    0.2857
  band No.  band energies     occupation 
      1     -25.0740      1.00000
      2     -25.0282      1.00000
      3     -25.0282      1.00000
      4     -24.0946      1.00000
      5     -24.0946      1.00000
      6     -24.0392      1.00000
      7       3.3170      1.00000
      8       3.5957      1.00000
      9       4.1106      1.00000
     10       4.1106      1.00000
     11       4.2925      1.03327
     12       4.2925      1.08071
     13       9.3743      0.00000
     14       9.3743      0.00000
     15       9.6828      0.00000
     16       9.6828      0.00000

 k-point    18 :       0.4286    0.2857    0.2857
  band No.  band energies     occupation 
      1     -25.1886      1.00000
      2     -25.1845      1.00000
      3     -24.7292      1.00000
      4     -24.3957      1.00000
      5     -24.0400      1.00000
      6     -24.0065      1.00000
      7       3.0902      1.00000
      8       3.1544      1.00000
      9       4.0652      1.00000
     10       4.1873      1.00000
     11       4.9579      1.01312
     12       5.2849      0.96455
     13       9.1529      0.00000
     14       9.1934      0.00000
     15       9.9283      0.00000
     16      10.0353      0.00000

 k-point    19 :       0.4286    0.4286    0.2857
  band No.  band energies     occupation 
      1     -25.2061      1.00000
      2     -25.1828      1.00000
      3     -24.6595      1.00000
      4     -24.4728      1.00000
      5     -24.1400      1.00000
      6     -24.0815      1.00000
      7       3.0523      1.00000
      8       3.2551      1.00000
      9       3.7854      1.00000
     10       4.0428      1.00000
     11       5.6659      0.65217
     12       5.8139      0.33133
     13       9.5574      0.00000
     14       9.6375      0.00000
     15       9.9562      0.00000
     16      10.0388      0.00000

 k-point    20 :       0.4286    0.4286    0.4286
  band No.  band energies     occupation 
      1     -25.0131      1.00000
      2     -24.8515      1.00000
      3     -24.8515      1.00000
      4     -24.4791      1.00000
      5     -24.4791      1.00000
      6     -24.3054      1.00000
      7       3.6083      1.00000
      8       4.0995      1.00000
      9       4.0995      1.00000
     10       4.7988      1.00000
     11       4.7988      1.11617
     12       4.8948      1.13285
     13       9.9899      0.00000
     14       9.9900      0.00000
     15       9.9965      0.00000
     16       9.9965      0.00000


--------------------------------------------------------------------------------------------------------


 soft charge-density along one line, spin component           1
         0         1         2         3         4         5         6         7         8         9
 total charge-density along one line

 soft charge-density along one line, spin component           2
         0         1         2         3         4         5         6         7         8         9
 total charge-density along one line

 pseudopotential strength for first ion, spin component:           1
-27.546   0.000   0.000   5.617  -0.000  -0.000  -0.000   0.000
  0.000 -27.546   0.000  -0.000   5.617  -0.000  -0.000   0.000
  0.000   0.000 -27.546  -0.000  -0.000   5.617   0.000  -0.000
  5.617  -0.000  -0.000   4.365   0.000   0.000   0.000  -0.000
 -0.000   5.617  -0.000   0.000   4.365   0.000   0.000  -0.000
 -0.000  -0.000   5.617   0.000   0.000   4.365  -0.000   0.000
 -0.000  -0.000   0.000   0.000   0.000  -0.000  -6.129   0.000
  0.000   0.000  -0.000  -0.000  -0.000   0.000   0.000  -6.129
 -0.000   0.000  -0.000   0.000  -0.000   0.000  -0.000   0.000
 -0.000   0.000   0.000   0.000  -0.000  -0.000   0.000   0.000
 -0.000   0.000   0.000   0.000  -0.000  -0.000  -0.000  -0.000
 -0.000  -0.000   0.000   0.000   0.000  -0.000  -6.941   0.000
  0.000   0.000  -0.000  -0.000  -0.000   0.000   0.000  -6.941
 -0.000   0.000  -0.000   0.000  -0.000   0.000  -0.000   0.000
 -0.000   0.000   0.000   0.000  -0.000  -0.000   0.000   0.000
 -0.000   0.000   0.000   0.000  -0.000  -0.000  -0.000  -0.000
 -0.000  -0.000  -0.000   0.000   0.000   0.000  -0.000  -0.000
  0.000   0.000   0.000   0.000   0.000  -0.000   0.000   0.000
 pseudopotential strength for first ion, spin component:           2
-27.546   0.000   0.000   5.617  -0.000  -0.000  -0.000   0.000
  0.000 -27.546   0.000  -0.000   5.617  -0.000  -0.000   0.000
  0.000   0.000 -27.546  -0.000  -0.000   5.617   0.000  -0.000
  5.617  -0.000  -0.000   4.365   0.000   0.000   0.000  -0.000
 -0.000   5.617  -0.000   0.000   4.365   0.000   0.000  -0.000
 -0.000  -0.000   5.617   0.000   0.000   4.365  -0.000   0.000
 -0.000  -0.000   0.000   0.000   0.000  -0.000  -6.129   0.000
  0.000   0.000  -0.000  -0.000  -0.000   0.000   0.000  -6.129
 -0.000   0.000  -0.000   0.000  -0.000   0.000  -0.000   0.000
 -0.000   0.000   0.000   0.000  -0.000  -0.000   0.000   0.000
 -0.000   0.000   0.000   0.000  -0.000  -0.000  -0.000  -0.000
 -0.000  -0.000   0.000   0.000   0.000  -0.000  -6.941   0.000
  0.000   0.000  -0.000  -0.000  -0.000   0.000   0.000  -6.941
 -0.000   0.000  -0.000   0.000  -0.000   0.000  -0.000   0.000
 -0.000   0.000   0.000   0.000  -0.000  -0.000   0.000   0.000
 -0.000   0.000   0.000   0.000  -0.000  -0.000  -0.000  -0.000
 -0.000  -0.000  -0.000   0.000   0.000   0.000  -0.000  -0.000
  0.000   0.000   0.000   0.000   0.000  -0.000   0.000   0.000
 total augmentation occupancy for first ion, spin component:           1
  1.996   0.000   0.000  -0.002  -0.000  -0.000  -0.000   0.000  -0.000   0.000  -0.000   0.000  -0.000   0.000   0.000  -0.000
  0.000   1.996   0.000  -0.000  -0.002  -0.000   0.000   0.000   0.000   0.000  -0.000  -0.000   0.000   0.000  -0.000  -0.000
  0.000   0.000   1.996  -0.000  -0.000  -0.002   0.000  -0.000  -0.000   0.000   0.000   0.000  -0.000   0.000  -0.000  -0.000
 -0.002  -0.000  -0.000   0.225   0.000   0.000  -0.000   0.000   0.000   0.000   0.000   0.000  -0.000   0.000  -0.000   0.000
 -0.000  -0.002  -0.000   0.000   0.225   0.000   0.000   0.000   0.000   0.000  -0.000  -0.000   0.000   0.000  -0.000  -0.000
 -0.000  -0.000  -0.002   0.000   0.000   0.225   0.000   0.000  -0.000   0.000  -0.000   0.000  -0.000   0.000   0.000  -0.000
  0.000  -0.000  -0.000   0.000   0.000   0.000   7.292   0.000  -0.000   0.000   0.000  -4.246  -0.000   0.000  -0.000   0.000
 -0.000  -0.000   0.000  -0.000  -0.000  -0.000   0.000   7.292   0.000   0.000  -0.000  -0.000  -4.246  -0.000  -0.000   0.000
 -0.000   0.000  -0.000  -0.000   0.000  -0.000  -0.000   0.000   6.946   0.000   0.000   0.000  -0.000  -4.246  -0.000  -0.000
  0.000   0.000  -0.000  -0.000   0.000   0.000   0.000   0.000   0.000   7.292   0.000  -0.000  -0.000  -0.000  -4.246  -0.000
 -0.000  -0.000   0.000   0.000  -0.000  -0.000   0.000  -0.000  -0.000   0.000   6.946   0.000   0.000  -0.000  -0.000  -4.246
  0.000   0.000  -0.000  -0.000   0.000  -0.000  -4.246  -0.000   0.000  -0.000  -0.000   2.518   0.000  -0.000   0.000  -0.000
 -0.000   0.000  -0.000  -0.000   0.000   0.000  -0.000  -4.246  -0.000  -0.000   0.000   0.000   2.518   0.000   0.000  -0.000
  0.000   0.000   0.000   0.000   0.000  -0.000   0.000  -0.000  -4.246  -0.000  -0.000  -0.000   0.000   2.616   0.000  -0.000
  0.000  -0.000  -0.000   0.000   0.000   0.000  -0.000  -0.000  -0.000  -4.246  -0.000   0.000   0.000   0.000   2.518   0.000
  0.000   0.000   0.000  -0.000   0.000   0.000   0.000   0.000  -0.000  -0.000  -4.246  -0.000  -0.000   0.000   0.000   2.616
  0.000  -0.000   0.000   0.000   0.000   0.000   0.000   0.000  -0.000   0.000  -0.000   0.000   0.000   0.000   0.000   0.000
  0.000   0.000   0.000   0.000   0.000   0.000   0.000   0.000  -0.000  -0.000   0.000  -0.000   0.000   0.000   0.000  -0.000
 total augmentation occupancy for first ion, spin component:           2
  0.000   0.000   0.000   0.000   0.000   0.000   0.000   0.000   0.000   0.000   0.000  -0.000  -0.000  -0.000  -0.000   0.000
  0.000   0.000   0.000   0.000   0.000   0.000  -0.000   0.000  -0.000   0.000   0.000   0.000   0.000  -0.000  -0.000   0.000
  0.000   0.000   0.000   0.000   0.000   0.000   0.000   0.000  -0.000   0.000   0.000  -0.000   0.000  -0.000  -0.000  -0.000
  0.000   0.000   0.000  -0.000  -0.000  -0.000   0.000  -0.000   0.000   0.000   0.000   0.000  -0.000  -0.000   0.000  -0.000
  0.000   0.000   0.000  -0.000  -0.000  -0.000  -0.000  -0.000   0.000   0.000   0.000   0.000   0.000   0.000   0.000  -0.000
  0.000   0.000   0.000  -0.000  -0.000  -0.000  -0.000   0.000  -0.000   0.000  -0.000  -0.000   0.000   0.000   0.000   0.000
  0.000   0.000   0.000   0.000   0.000  -0.000  -0.005  -0.000   0.000  -0.000   0.000   0.003   0.000  -0.000   0.000  -0.000
 -0.000  -0.000   0.000  -0.000  -0.000   0.000  -0.000  -0.005  -0.000  -0.000   0.000   0.000   0.003   0.000   0.000  -0.000
 -0.000  -0.000   0.000   0.000   0.000  -0.000   0.000  -0.000  -0.007  -0.000  -0.000  -0.000   0.000   0.006   0.000   0.000
  0.000  -0.000  -0.000   0.000   0.000   0.000  -0.000  -0.000  -0.000  -0.005  -0.000   0.000   0.000   0.000   0.003   0.000
 -0.000   0.000  -0.000  -0.000   0.000  -0.000   0.000   0.000  -0.000  -0.000  -0.007  -0.000  -0.000   0.000   0.000   0.006
 -0.000   0.000  -0.000   0.000   0.000  -0.000   0.003   0.000  -0.000   0.000  -0.000  -0.002  -0.000   0.000  -0.000   0.000
 -0.000   0.000  -0.000   0.000  -0.000   0.000   0.000   0.003   0.000   0.000  -0.000  -0.000  -0.002   0.000  -0.000   0.000
  0.000   0.000   0.000   0.000   0.000   0.000  -0.000   0.000   0.006   0.000   0.000   0.000   0.000  -0.004   0.000  -0.000
 -0.000  -0.000  -0.000   0.000   0.000   0.000   0.000   0.000   0.000   0.003   0.000  -0.000  -0.000   0.000  -0.002  -0.000
  0.000  -0.000  -0.000   0.000   0.000   0.000  -0.000  -0.000   0.000   0.000   0.006   0.000   0.000  -0.000  -0.000  -0.004
  0.000   0.000   0.000   0.000   0.000   0.000  -0.000   0.000  -0.000  -0.000   0.000  -0.000   0.000  -0.000   0.000   0.000
  0.000  -0.000  -0.000   0.000   0.000   0.000   0.000   0.000  -0.000   0.000   0.000  -0.000   0.000  -0.000   0.000  -0.000


------------------------ aborting loop because EDIFF is reached ----------------------------------------





 total charge

# of ion       s       p       d       tot
------------------------------------------
    1        0.453   6.327   3.263  10.043
    2        0.453   6.327   3.263  10.043
--------------------------------------------------
tot          0.905  12.654   6.527  20.086



 magnetization (x)

# of ion       s       p       d       tot
------------------------------------------
    1       -0.000  -0.000  -0.001  -0.001
    2       -0.000  -0.000  -0.001  -0.001
--------------------------------------------------
tot         -0.000  -0.001  -0.001  -0.002

    CHARGE:  cpu time     10.2364: real time      0.5685
    FORLOC:  cpu time      0.0005: real time      0.0005
    FORNL :  cpu time     44.4036: real time      2.4084
    STRESS:  cpu time    118.1844: real time      6.5034
    FORCOR:  cpu time      3.5918: real time      0.2018
    FORHAR:  cpu time      0.5309: real time      0.0222
    MIXING:  cpu time      0.2400: real time      0.0112
    OFIELD:  cpu time      0.0001: real time      0.0001

  FORCE on cell =-STRESS in cart. coord.  units (eV):
  Direction    XX          YY          ZZ          XY          YZ          ZX
  --------------------------------------------------------------------------------------
  Alpha Z   271.45323   271.45323   271.45323
  Ewald    -656.61706  -656.61706  -656.61706    -0.00000    -0.00000    -0.00000
  Hartree    75.72822    75.72822    75.72822    -0.00000    -0.00000    -0.00000
  E(xc)     -96.07535   -96.07535   -96.07535    -0.00000     0.00000     0.00000
  Local     208.46597   208.46597   208.46597     0.00000     0.00000    -0.00000
  n-local   -91.31794   -86.33961   -78.66017     2.60915    -0.99392     0.49045
  augment    52.92937    52.92937    52.92937    -0.00000    -0.00000    -0.00000
  Kinetic   223.62728   229.86669   247.26558     3.07352    -1.55853     1.19157
  Fock        0.00000     0.00000     0.00000     0.00000     0.00000     0.00000
  -------------------------------------------------------------------------------------
  Total       4.03166     4.03166     4.03166     0.00000     0.00000     0.00000
  in kB     193.66033   193.66033   193.66033     0.00000     0.00000     0.00000
  external pressure =      193.66 kB  Pullay stress =        0.00 kB


 VOLUME and BASIS-vectors are now :
 -----------------------------------------------------------------------------
  energy-cutoff  :      520.00
  volume of cell :       33.35
      direct lattice vectors                 reciprocal lattice vectors
     3.218977269  0.000000000  0.000000000     0.310657677 -0.000000000  0.000000000
     0.000000000  3.218977269  0.000000000    -0.000000000  0.310657677  0.000000000
    -0.000000000 -0.000000000  3.218977269    -0.000000000 -0.000000000  0.310657677

  length of vectors
     3.218977269  3.218977269  3.218977269     0.310657677  0.310657677  0.310657677


 FORCES acting on ions
    electron-ion (+dipol)            ewald-force                    non-local-force                 convergence-correction
 -----------------------------------------------------------------------------------------------
   -.743E-14 0.150E-13 -.321E-13   -.974E-14 -.586E-14 -.905E-15   0.751E-23 0.664E-22 -.346E-21   0.977E-14 0.122E-13 -.230E-13
   0.118E-12 0.165E-12 -.121E-11   0.127E-13 0.480E-14 0.294E-14   -.279E-22 -.132E-21 0.104E-21   0.101E-13 0.351E-13 0.215E-13
 -----------------------------------------------------------------------------------------------
   0.111E-12 0.180E-12 -.124E-11   0.295E-14 -.105E-14 0.204E-14   -.204E-22 -.658E-22 -.242E-21   0.198E-13 0.474E-13 -.152E-14


 POSITION                                       TOTAL-FORCE (eV/Angst)
 -----------------------------------------------------------------------------------
      0.00000      0.00000      0.00000        -0.000000      0.000000      0.000000
      1.60949      1.60949      1.60949         0.000000     -0.000000     -0.000000
 -----------------------------------------------------------------------------------
    total drift:                                0.000000      0.000000     -0.000000


--------------------------------------------------------------------------------------------------------



  FREE ENERGIE OF THE ION-ELECTRON SYSTEM (eV)
  ---------------------------------------------------
  free  energy   TOTEN  =       -20.02071190 eV

  energy  without entropy=      -20.02071190  energy(sigma->0) =      -20.02071190



--------------------------------------------------------------------------------------------------------


    POTLOK:  cpu time      4.6565: real time      0.4761


--------------------------------------------------------------------------------------------------------


     LOOP+:  cpu time   3807.2851: real time    190.9806
 -----------------------------------------------------------------------------
|                                                                             |
|           W    W    AA    RRRRR   N    N  II  N    N   GGGG   !!!           |
|           W    W   A  A   R    R  NN   N  II  NN   N  G    G  !!!           |
|           W    W  A    A  R    R  N N  N  II  N N  N  G       !!!           |
|           W WW W  AAAAAA  RRRRR   N  N N  II  N  N N  G  GGG   !            |
|           WW  WW  A    A  R   R   N   NN  II  N   NN  G    G                |
|           W    W  A    A  R    R  N    N  II  N    N   GGGG   !!!           |
|                                                                             |
|     Tetrahedron method does not include variations of the Fermi             |
|     occupations, so forces and stress will be inaccurate. We suggest        |
|     using a different smearing scheme ISMEAR = 1 or 2 for metals in         |
|     relaxations.                                                            |
|                                                                             |
 -----------------------------------------------------------------------------

    4ORBIT:  cpu time      0.0000: real time      0.0000



 total charge

# of ion       s       p       d       tot
------------------------------------------
    1        0.453   6.327   3.263  10.043
    2        0.453   6.327   3.263  10.043
--------------------------------------------------
tot          0.905  12.654   6.527  20.086



 magnetization (x)

# of ion       s       p       d       tot
------------------------------------------
    1       -0.000  -0.000  -0.001  -0.001
    2       -0.000  -0.000  -0.001  -0.001
--------------------------------------------------
tot         -0.000  -0.001  -0.001  -0.002

 BZINTS: Fermi energy:    5.648376;   22.000000 electrons
         Band energy:-0.257555E+03;  BLOECHL correction:   -0.237381

 total amount of memory used by VASP MPI-rank0    56035. kBytes
=======================================================================

   base      :      30000. kBytes
   nonlr-proj:       2964. kBytes
   fftplans  :       3916. kBytes
   grid      :       9345. kBytes
   one-center:         62. kBytes
   wavefun   :       9748. kBytes

  
  
 General timing and accounting informations for this job:
 ========================================================
  
                  Total CPU time used (sec):     3849.092
                            User time (sec):     3773.853
                          System time (sec):       75.239
                         Elapsed time (sec):      193.431
  
                   Maximum memory used (kb):      219224.
                   Average memory used (kb):          N/A
  
                          Minor page faults:      1628039
                          Major page faults:          111
                 Voluntary context switches:       771075
