 vasp.6.4.1 05Apr23 (build Jul 24 2024 14:19:02) complex                         
 executed on             LinuxGNU date 2024.10.23  14:44:55
 running    1 mpi-ranks, with   24 threads/rank, on    1 nodes
 distrk:  each k-point on    1 cores,    1 groups
 distr:  one band on NCORE=   1 cores,    1 groups


--------------------------------------------------------------------------------------------------------


 INCAR:
   ISTART = 0
   ALGO = Fast
   EDIFF = 0.0001
   ENCUT = 520
   IBRION = -1
   ISIF = 2
   ISMEAR = -5
   ISPIN = 2
   LASPH = True
   LMAXMIX = 6
   LORBIT = 11
   LREAL = Auto
   LWAVE = False
   MAGMOM = 2*0.6
   NELM = 100
   NSW = 0
   PREC = Accurate
   SIGMA = 0.05

 POTCAR:    PAW_PBE Nb_pv 08Apr2002               
 POTCAR:    PAW_PBE Nb_pv 08Apr2002               
   SHA256 =  bac2b60850b34f8515cf56f9feae68b678e347865051052a0e1f5d2c6a691c0a Nb_pv/POTCAR          
   COPYR  = (c) Copyright 08Apr2002 Georg Kresse                                                    
   COPYR  = This file is part of the software VASP. Any use, copying, and all other rights are regul
   COPYR  = If you do not have a valid VASP license, you may not use, copy or distribute this file. 
   VRHFIN =Nb: 4p5s4d                                                                               
   LEXCH  = PE                                                                                      
   EATOM  =  1043.3917 eV,   76.6871 Ry                                                             
                                                                                                    
   TITEL  = PAW_PBE Nb_pv 08Apr2002                                                                 
   LULTRA =        F    use ultrasoft PP ?                                                          
   IUNSCR =        1    unscreen: 0-lin 1-nonlin 2-no                                               
   RPACOR =    2.200    partial core radius                                                         
   POMASS =   92.000; ZVAL   =   11.000    mass and valenz                                          
   RCORE  =    2.750    outmost cutoff radius                                                       
   RWIGS  =    2.840; RWIGS  =    1.503    wigner-seitz radius (au A)                               
   ENMAX  =  208.608; ENMIN  =  156.456 eV                                                          
   RCLOC  =    2.201    cutoff for local pot                                                        
   LCOR   =        T    correct aug charges                                                         
   LPAW   =        T    paw PP                                                                      
   EAUG   =  355.067                                                                                
   DEXC   =    0.000                                                                                
   RMAX   =    2.804    core radius for proj-oper                                                   
   RAUG   =    1.300    factor for augmentation sphere                                              
   RDEP   =    2.776    radius for radial grids                                                     
   RDEPT  =    2.198    core radius for aug-charge                                                  
                                                                                                    
   Atomic configuration                                                                             
   11 entries                                                                                       
     n  l   j            E        occ.                                                              
     1  0  0.50    -18805.2456   2.0000                                                             
     2  0  0.50     -2630.2869   2.0000                                                             
     2  1  1.50     -2348.4045   6.0000                                                             
     3  0  0.50      -438.8756   2.0000                                                             
     3  1  1.50      -346.7587   6.0000                                                             
     3  2  2.50      -196.2559  10.0000                                                             
     4  0  0.50       -58.3859   2.0000                                                             
     4  1  1.50       -34.5141   6.0000                                                             
     4  2  2.50        -3.0408   4.0000                                                             
     5  0  0.50        -3.9816   1.0000                                                             
     4  3  2.50        -1.3606   0.0000                                                             
   Description                                                                                      
     l       E           TYP  RCUT    TYP  RCUT                                                     
     1    -34.5140617     23  2.600                                                                 
     1     -1.3605826     23  2.600                                                                 
     2     -3.0407924     23  2.600                                                                 
     2     -1.4463597     23  2.600                                                                 
     0     -3.9816219     23  2.750                                                                 
     0     20.4087390     23  2.750                                                                 
  local pseudopotential read in
  partial core-charges read in
  partial kinetic energy density read in
  atomic valenz-charges read in
  non local Contribution for L=           1  read in
    real space projection operators read in
  non local Contribution for L=           1  read in
    real space projection operators read in
  non local Contribution for L=           2  read in
    real space projection operators read in
  non local Contribution for L=           2  read in
    real space projection operators read in
  non local Contribution for L=           0  read in
    real space projection operators read in
  non local Contribution for L=           0  read in
    real space projection operators read in
    PAW grid and wavefunctions read in

   number of l-projection  operators is LMAX  =           6
   number of lm-projection operators is LMMAX =          18

 -----------------------------------------------------------------------------
|                                                                             |
|               ----> ADVICE to this user running VASP <----                  |
|                                                                             |
|     You have a (more or less) 'small supercell' and for smaller cells       |
|     it is recommended to use the reciprocal-space projection scheme!        |
|     The real-space optimization is not efficient for small cells and it     |
|     is also less accurate ...                                               |
|     Therefore, set LREAL=.FALSE. in the INCAR file.                         |
|                                                                             |
 -----------------------------------------------------------------------------

 Optimization of the real space projectors (new method)

 maximal supplied QI-value         = 13.61
 optimisation between [QCUT,QGAM] = [ 11.57, 23.27] = [ 37.45,151.59] Ry 
 Optimized for a Real-space Cutoff    1.63 Angstroem

   l    n(q)    QCUT    max X(q) W(low)/X(q) W(high)/X(q)  e(spline) 
   1     11    11.565     4.545    0.12E-04    0.18E-04    0.64E-07
   1     11    11.565     6.014    0.42E-04    0.48E-04    0.13E-06
   2     10    11.565   266.542    0.24E-03    0.87E-04    0.13E-05
   2     10    11.565   232.726    0.24E-03    0.87E-04    0.13E-05
   0     11    11.565    38.050    0.76E-04    0.32E-05    0.94E-06
   0     11    11.565    16.565    0.58E-04    0.25E-05    0.73E-06
  PAW_PBE Nb_pv 08Apr2002               :
 energy of atom  1       EATOM=-1043.3917
 kinetic energy error for atom=    0.0011 (will be added to EATOM!!)


 POSCAR: Generated POSCAR
  positions in direct lattice
  velocities in cartesian coordinates
 exchange correlation table for  LEXCH =        8
   RHO(1)=    0.500       N(1)  =     2000
   RHO(2)=  100.500       N(2)  =     4000



--------------------------------------------------------------------------------------------------------


 ion  position               nearest neighbor table
   1  0.000  0.000  0.000-   2 2.84   2 2.84   2 2.84   2 2.84   2 2.92   2 2.92   2 2.92   2 2.92

   2  0.500  0.500  0.500-   1 2.84   1 2.84   1 2.84   1 2.84   1 2.92   1 2.92   1 2.92   1 2.92


  LATTYP: Found a base centered orthorhombic cell.
 ALAT       =     4.6043652789
 B/A-ratio  =     1.0408163265
 C/A-ratio  =     0.7215375318
  
  Lattice vectors:
  
 A1 = (  -0.0664444472,  -3.3222223590,   0.0000000000)
 A2 = (   3.3222223590,   0.0664444472,   0.0000000000)
 A3 = (   0.0000000000,   0.0000000000,   3.3222223590)


Analysis of symmetry for initial positions (statically):
=====================================================================
 Subroutine PRICEL returns following result:
 
  LATTYP: Found a face centered orthorhombic cell.
 ALAT       =     3.3222223590
 B/A-ratio  =     1.3859292911
 C/A-ratio  =     1.4424978336
  
  Lattice vectors:
  
 A1 = (   3.3222223590,   0.0664444472,  -0.0000000000)
 A2 = (   1.6943334031,   1.6943334031,   1.6611111795)
 A3 = (   1.6278889559,  -1.6278889559,   1.6611111795)
 
   2 primitive cells build up your supercell.
 

 Routine SETGRP: Setting up the symmetry group for a 
 base centered orthorhombic supercell.


 Subroutine GETGRP returns: Found  8 space group operations
 (whereof  8 operations were pure point group operations)
 out of a pool of  8 trial point group operations.


The static configuration has the point symmetry D_2h.


Analysis of symmetry for dynamics (positions and initial velocities):
=====================================================================
 Subroutine PRICEL returns following result:
 
  LATTYP: Found a face centered orthorhombic cell.
 ALAT       =     3.3222223590
 B/A-ratio  =     1.3859292911
 C/A-ratio  =     1.4424978336
  
  Lattice vectors:
  
 A1 = (   3.3222223590,   0.0664444472,  -0.0000000000)
 A2 = (   1.6943334031,   1.6943334031,   1.6611111795)
 A3 = (   1.6278889559,  -1.6278889559,   1.6611111795)
 
   2 primitive cells build up your supercell.
 

 Routine SETGRP: Setting up the symmetry group for a 
 base centered orthorhombic supercell.


 Subroutine GETGRP returns: Found  8 space group operations
 (whereof  8 operations were pure point group operations)
 out of a pool of  8 trial point group operations.


The dynamic configuration has the point symmetry D_2h.


Analysis of structural, dynamic, and magnetic symmetry:
=====================================================================
 Subroutine PRICEL returns following result:
 
  LATTYP: Found a face centered orthorhombic cell.
 ALAT       =     3.3222223590
 B/A-ratio  =     1.3859292911
 C/A-ratio  =     1.4424978336
  
  Lattice vectors:
  
 A1 = (   3.3222223590,   0.0664444472,  -0.0000000000)
 A2 = (   1.6943334031,   1.6943334031,   1.6611111795)
 A3 = (   1.6278889559,  -1.6278889559,   1.6611111795)
 
   2 primitive cells build up your supercell.
 

 Routine SETGRP: Setting up the symmetry group for a 
 base centered orthorhombic supercell.


 Subroutine GETGRP returns: Found  8 space group operations
 (whereof  8 operations were pure point group operations)
 out of a pool of  8 trial point group operations.


The overall configuration has the point symmetry D_2h.


 Subroutine INISYM returns: Found  8 space group operations
 (whereof  8 operations are pure point group operations),
 and found     2 'primitive' translations


----------------------------------------------------------------------------------------

                                     Primitive cell                                     

  volume of cell :      18.3266

  direct lattice vectors                    reciprocal lattice vectors
     3.322222359  0.066444447 -0.000000000     0.301123782 -0.006022476 -0.301003332
     1.694333403  1.694333403  1.661111179    -0.006022476  0.301123782  0.301003332
     1.627888956 -1.627888956  1.661111179     0.006022476 -0.301123782  0.301003332

  length of vectors
     3.322886737  2.915616866  2.838896838     0.425810765  0.425810765  0.425810765

  position of ions in fractional coordinates (direct lattice)
     0.000000000  0.000000000  0.000000000

  ion indices of the primitive-cell ions
   primitive index   ion index
                 1           1

----------------------------------------------------------------------------------------



 KPOINTS: pymatgen with grid density = 869 / numbe

Automatic generation of k-mesh.
 Grid dimensions read from file:
 generate k-points for:    7    7    7

 Generating k-lattice:

  Cartesian coordinates                     Fractional coordinates (reciprocal lattice)
     0.043017683 -0.000860354  0.000000000     0.142857143 -0.000000000  0.000000000
    -0.000860354  0.043017683  0.000000000     0.000000000  0.142857143  0.000000000
    -0.000000000 -0.000000000  0.043000476     0.000000000  0.000000000  0.142857143

  Length of vectors
     0.043026286  0.043026286  0.043000476

  Shift w.r.t. Gamma in fractional coordinates (k-lattice)
     0.000000000  0.000000000  0.000000000

 TETIRR: Found    517 inequivalent tetrahedra from     2058
 
 Subroutine IBZKPT returns following result:
 ===========================================
 
 Found     64 irreducible k-points:
 
 Following reciprocal coordinates:
            Coordinates               Weight
  0.000000  0.000000  0.000000      1.000000
  0.142857  0.000000  0.000000      4.000000
  0.285714  0.000000  0.000000      4.000000
  0.428571  0.000000  0.000000      4.000000
  0.142857  0.142857  0.000000      2.000000
  0.285714  0.142857  0.000000      4.000000
  0.428571  0.142857  0.000000      4.000000
 -0.428571  0.142857  0.000000      4.000000
 -0.285714  0.142857  0.000000      4.000000
 -0.142857  0.142857  0.000000      2.000000
  0.285714  0.285714  0.000000      2.000000
  0.428571  0.285714  0.000000      4.000000
 -0.428571  0.285714  0.000000      4.000000
 -0.285714  0.285714  0.000000      2.000000
  0.428571  0.428571  0.000000      2.000000
 -0.428571  0.428571  0.000000      2.000000
  0.000000  0.000000  0.142857      2.000000
  0.142857  0.000000  0.142857      8.000000
  0.285714  0.000000  0.142857      8.000000
  0.428571  0.000000  0.142857      8.000000
  0.142857  0.142857  0.142857      4.000000
  0.285714  0.142857  0.142857      8.000000
  0.428571  0.142857  0.142857      8.000000
 -0.428571  0.142857  0.142857      8.000000
 -0.285714  0.142857  0.142857      8.000000
 -0.142857  0.142857  0.142857      4.000000
  0.285714  0.285714  0.142857      4.000000
  0.428571  0.285714  0.142857      8.000000
 -0.428571  0.285714  0.142857      8.000000
 -0.285714  0.285714  0.142857      4.000000
  0.428571  0.428571  0.142857      4.000000
 -0.428571  0.428571  0.142857      4.000000
  0.000000  0.000000  0.285714      2.000000
  0.142857  0.000000  0.285714      8.000000
  0.285714  0.000000  0.285714      8.000000
  0.428571  0.000000  0.285714      8.000000
  0.142857  0.142857  0.285714      4.000000
  0.285714  0.142857  0.285714      8.000000
  0.428571  0.142857  0.285714      8.000000
 -0.428571  0.142857  0.285714      8.000000
 -0.285714  0.142857  0.285714      8.000000
 -0.142857  0.142857  0.285714      4.000000
  0.285714  0.285714  0.285714      4.000000
  0.428571  0.285714  0.285714      8.000000
 -0.428571  0.285714  0.285714      8.000000
 -0.285714  0.285714  0.285714      4.000000
  0.428571  0.428571  0.285714      4.000000
 -0.428571  0.428571  0.285714      4.000000
  0.000000  0.000000  0.428571      2.000000
  0.142857  0.000000  0.428571      8.000000
  0.285714  0.000000  0.428571      8.000000
  0.428571  0.000000  0.428571      8.000000
  0.142857  0.142857  0.428571      4.000000
  0.285714  0.142857  0.428571      8.000000
  0.428571  0.142857  0.428571      8.000000
 -0.428571  0.142857  0.428571      8.000000
 -0.285714  0.142857  0.428571      8.000000
 -0.142857  0.142857  0.428571      4.000000
  0.285714  0.285714  0.428571      4.000000
  0.428571  0.285714  0.428571      8.000000
 -0.428571  0.285714  0.428571      8.000000
 -0.285714  0.285714  0.428571      4.000000
  0.428571  0.428571  0.428571      4.000000
 -0.428571  0.428571  0.428571      4.000000
 
 Following cartesian coordinates:
            Coordinates               Weight
  0.000000  0.000000  0.000000      1.000000
  0.043018 -0.000860  0.000000      4.000000
  0.086035 -0.001721  0.000000      4.000000
  0.129053 -0.002581  0.000000      4.000000
  0.042157  0.042157  0.000000      2.000000
  0.085175  0.041297  0.000000      4.000000
  0.128193  0.040437  0.000000      4.000000
 -0.129913  0.045599  0.000000      4.000000
 -0.086896  0.044738  0.000000      4.000000
 -0.043878  0.043878  0.000000      2.000000
  0.084315  0.084315  0.000000      2.000000
  0.127332  0.083454  0.000000      4.000000
 -0.130774  0.088616  0.000000      4.000000
 -0.087756  0.087756  0.000000      2.000000
  0.126472  0.126472  0.000000      2.000000
 -0.131634  0.131634  0.000000      2.000000
  0.000000  0.000000  0.043000      2.000000
  0.043018 -0.000860  0.043000      8.000000
  0.086035 -0.001721  0.043000      8.000000
  0.129053 -0.002581  0.043000      8.000000
  0.042157  0.042157  0.043000      4.000000
  0.085175  0.041297  0.043000      8.000000
  0.128193  0.040437  0.043000      8.000000
 -0.129913  0.045599  0.043000      8.000000
 -0.086896  0.044738  0.043000      8.000000
 -0.043878  0.043878  0.043000      4.000000
  0.084315  0.084315  0.043000      4.000000
  0.127332  0.083454  0.043000      8.000000
 -0.130774  0.088616  0.043000      8.000000
 -0.087756  0.087756  0.043000      4.000000
  0.126472  0.126472  0.043000      4.000000
 -0.131634  0.131634  0.043000      4.000000
  0.000000  0.000000  0.086001      2.000000
  0.043018 -0.000860  0.086001      8.000000
  0.086035 -0.001721  0.086001      8.000000
  0.129053 -0.002581  0.086001      8.000000
  0.042157  0.042157  0.086001      4.000000
  0.085175  0.041297  0.086001      8.000000
  0.128193  0.040437  0.086001      8.000000
 -0.129913  0.045599  0.086001      8.000000
 -0.086896  0.044738  0.086001      8.000000
 -0.043878  0.043878  0.086001      4.000000
  0.084315  0.084315  0.086001      4.000000
  0.127332  0.083454  0.086001      8.000000
 -0.130774  0.088616  0.086001      8.000000
 -0.087756  0.087756  0.086001      4.000000
  0.126472  0.126472  0.086001      4.000000
 -0.131634  0.131634  0.086001      4.000000
  0.000000  0.000000  0.129001      2.000000
  0.043018 -0.000860  0.129001      8.000000
  0.086035 -0.001721  0.129001      8.000000
  0.129053 -0.002581  0.129001      8.000000
  0.042157  0.042157  0.129001      4.000000
  0.085175  0.041297  0.129001      8.000000
  0.128193  0.040437  0.129001      8.000000
 -0.129913  0.045599  0.129001      8.000000
 -0.086896  0.044738  0.129001      8.000000
 -0.043878  0.043878  0.129001      4.000000
  0.084315  0.084315  0.129001      4.000000
  0.127332  0.083454  0.129001      8.000000
 -0.130774  0.088616  0.129001      8.000000
 -0.087756  0.087756  0.129001      4.000000
  0.126472  0.126472  0.129001      4.000000
 -0.131634  0.131634  0.129001      4.000000
 


--------------------------------------------------------------------------------------------------------




 Dimension of arrays:
   k-points           NKPTS =     64   k-points in BZ     NKDIM =     64   number of bands    NBANDS=     16
   number of dos      NEDOS =    301   number of ions     NIONS =      2
   non local maximal  LDIM  =      6   non local SUM 2l+1 LMDIM =     18
   total plane-waves  NPLWV =  21952
   max r-space proj   IRMAX =  10859   max aug-charges    IRDMAX=  37069
   dimension x,y,z NGX =    28 NGY =   28 NGZ =   28
   dimension x,y,z NGXF=    56 NGYF=   56 NGZF=   56
   support grid    NGXF=    56 NGYF=   56 NGZF=   56
   ions per type =               2
   NGX,Y,Z   is equivalent  to a cutoff of  14.01, 14.01, 14.01 a.u.
   NGXF,Y,Z  is equivalent  to a cutoff of  28.02, 28.02, 28.02 a.u.

 SYSTEM =  unknown system                          
 POSCAR =  Generated POSCAR                        

 Startparameter for this run:
   NWRITE =      2    write-flag & timer
   PREC   = accura    normal or accurate (medium, high low for compatibility)
   ISTART =      0    job   : 0-new  1-cont  2-samecut
   ICHARG =      2    charge: 1-file 2-atom 10-const
   ISPIN  =      2    spin polarized calculation?
   LNONCOLLINEAR =      F non collinear calculations
   LSORBIT =      F    spin-orbit coupling
   INIWAV =      1    electr: 0-lowe 1-rand  2-diag
   LASPH  =      T    aspherical Exc in radial PAW
 Electronic Relaxation 1
   ENCUT  =  520.0 eV  38.22 Ry    6.18 a.u.   6.18  6.18  6.18*2*pi/ulx,y,z
   ENINI  =  520.0     initial cutoff
   ENAUG  =  355.1 eV  augmentation charge cutoff
   NELM   =    100;   NELMIN=  2; NELMDL= -5     # of ELM steps 
   EDIFF  = 0.1E-03   stopping-criterion for ELM
   LREAL  =      T    real-space projection
   NLSPLINE    = F    spline interpolate recip. space projectors
   LCOMPAT=      F    compatible to vasp.4.4
   GGA_COMPAT  = T    GGA compatible to vasp.4.4-vasp.4.6
   LMAXPAW     = -100 max onsite density
   LMAXMIX     =    6 max onsite mixed and CHGCAR
   VOSKOWN=      0    Vosko Wilk Nusair interpolation
   ROPT   =   -0.00025
 Ionic relaxation
   EDIFFG = 0.1E-02   stopping-criterion for IOM
   NSW    =      0    number of steps for IOM
   NBLOCK =      1;   KBLOCK =      1    inner block; outer block 
   IBRION =     -1    ionic relax: 0-MD 1-quasi-New 2-CG
   NFREE  =      0    steps in history (QN), initial steepest desc. (CG)
   ISIF   =      2    stress and relaxation
   IWAVPR =     10    prediction:  0-non 1-charg 2-wave 3-comb
   ISYM   =      2    0-nonsym 1-usesym 2-fastsym
   LCORR  =      T    Harris-Foulkes like correction to forces

   POTIM  = 0.5000    time-step for ionic-motion
   TEIN   =    0.0    initial temperature
   TEBEG  =    0.0;   TEEND  =   0.0 temperature during run
   SMASS  =  -3.00    Nose mass-parameter (am)
   estimated Nose-frequenzy (Omega)   =  0.10E-29 period in steps = 0.13E+47 mass=  -0.252E-27a.u.
   SCALEE = 1.0000    scale energy and forces
   NPACO  =    256;   APACO  = 10.0  distance and # of slots for P.C.
   PSTRESS=    0.0 pullay stress

  Mass of Ions in am
   POMASS =  92.00
  Ionic Valenz
   ZVAL   =  11.00
  Atomic Wigner-Seitz radii
   RWIGS  =  -1.00
  virtual crystal weights 
   VCA    =   1.00
   NELECT =      22.0000    total number of electrons
   NUPDOWN=      -1.0000    fix difference up-down

 DOS related values:
   EMIN   =  10.00;   EMAX   =-10.00  energy-range for DOS
   EFERMI =   0.00;   METHOD = LEGACY      
   ISMEAR =    -5;   SIGMA  =   0.05  broadening in eV -4-tet -1-fermi 0-gaus

 Electronic relaxation 2 (details)
   IALGO  =     68    algorithm
   LDIAG  =      T    sub-space diagonalisation (order eigenvalues)
   LSUBROT=      F    optimize rotation matrix (better conditioning)
   TURBO    =      0    0=normal 1=particle mesh
   IRESTART =      0    0=no restart 2=restart with 2 vectors
   NREBOOT  =      0    no. of reboots
   NMIN     =      0    reboot dimension
   EREF     =   0.00    reference energy to select bands
   IMIX   =      4    mixing-type and parameters
     AMIX     =   0.40;   BMIX     =  1.00
     AMIX_MAG =   1.60;   BMIX_MAG =  1.00
     AMIN     =   0.10
     WC   =   100.;   INIMIX=   1;  MIXPRE=   1;  MAXMIX= -45

 Intra band minimization:
   WEIMIN = 0.0000     energy-eigenvalue tresh-hold
   EBREAK =  0.16E-05  absolut break condition
   DEPER  =   0.30     relativ break condition  

   TIME   =   0.40     timestep for ELM

  volume/ion in A,a.u.               =      18.33       123.67
  Fermi-wavevector in a.u.,A,eV,Ry     =   1.380951  2.609619 25.946661  1.907026
  Thomas-Fermi vector in A             =   2.505781

 Write flags
   LWAVE        =      F    write WAVECAR
   LDOWNSAMPLE  =      F    k-point downsampling of WAVECAR
   LCHARG       =      T    write CHGCAR
   LVTOT        =      F    write LOCPOT, total local potential
   LVHAR        =      F    write LOCPOT, Hartree potential only
   LELF         =      F    write electronic localiz. function (ELF)
   LORBIT       =     11    0 simple, 1 ext, 2 COOP (PROOUT), +10 PAW based schemes


 Dipole corrections
   LMONO  =      F    monopole corrections only (constant potential shift)
   LDIPOL =      F    correct potential (dipole corrections)
   IDIPOL =      0    1-x, 2-y, 3-z, 4-all directions 
   EPSILON=  1.0000000 bulk dielectric constant

 Exchange correlation treatment:
   GGA     =    --    GGA type
   LEXCH   =     8    internal setting for exchange type
   LIBXC   =     F    Libxc                    
   VOSKOWN =     0    Vosko Wilk Nusair interpolation
   LHFCALC =     F    Hartree Fock is set to
   LHFONE  =     F    Hartree Fock one center treatment
   AEXX    =    0.0000 exact exchange contribution

 Linear response parameters
   LEPSILON=     F    determine dielectric tensor
   LRPA    =     F    only Hartree local field effects (RPA)
   LNABLA  =     F    use nabla operator in PAW spheres
   LVEL    =     F    velocity operator in full k-point grid
   CSHIFT  =0.1000    complex shift for real part using Kramers Kronig
   OMEGAMAX=  -1.0    maximum frequency
   DEG_THRESHOLD= 0.2000000E-02 threshold for treating states as degnerate
   RTIME   =   -0.100 relaxation time in fs
  (WPLASMAI=    0.000 imaginary part of plasma frequency in eV, 0.658/RTIME)
   DFIELD  = 0.0000000 0.0000000 0.0000000 field for delta impulse in time

  Optional k-point grid parameters
   LKPOINTS_OPT  =     F    use optional k-point grid
   KPOINTS_OPT_MODE=     1    mode for optional k-point grid

 Orbital magnetization related:
   ORBITALMAG=     F  switch on orbital magnetization
   LCHIMAG   =     F  perturbation theory with respect to B field
   DQ        =  0.001000  dq finite difference perturbation B field
   LLRAUG    =     F  two centre corrections for induced B field
   LBONE     =     F  B-component reconstruction in AE one-centre
   LVGVCALC  =     T  calculate vGv susceptibility
   LVGVAPPL  =     F  apply vGv susceptibility instead of pGv for G=0

 Random number generation:
   RANDOM_GENERATOR = DEFAULT
   PCG_SEED         = not used


--------------------------------------------------------------------------------------------------------


 Static calculation
 charge density and potential will be updated during run
 spin polarized calculation
 RMM-DIIS sequential band-by-band and
  variant of blocked Davidson during initial phase
 perform sub-space diagonalisation
    before iterative eigenvector-optimisation
 modified Broyden-mixing scheme, WC =      100.0
 initial mixing is a Kerker type mixing with AMIX =  0.4000 and BMIX =      1.0000
 Hartree-type preconditioning will be used
 using additional bands            5
 real space projection scheme for non local part
 use partial core corrections
 calculate Harris-corrections to forces   (improved forces if not selfconsistent)
 use gradient corrections 
 use of overlap-Matrix (Vanderbilt PP)
 Fermi weights with tetrahedron method with Bloechl corrections


--------------------------------------------------------------------------------------------------------


  energy-cutoff  :      520.00
  volume of cell :       36.65
      direct lattice vectors                 reciprocal lattice vectors
     3.322222359  0.066444447  0.000000000     0.301123782 -0.006022476  0.000000000
     0.066444447  3.322222359  0.000000000    -0.006022476  0.301123782  0.000000000
     0.000000000  0.000000000  3.322222359    -0.000000000 -0.000000000  0.301003332

  length of vectors
     3.322886737  3.322886737  3.322222359     0.301184000  0.301184000  0.301003332



 k-points in units of 2pi/SCALE and weight: pymatgen with grid density = 869 / numbe
   0.00000000  0.00000000  0.00000000       0.003
   0.04301768 -0.00086035  0.00000000       0.012
   0.08603537 -0.00172071  0.00000000       0.012
   0.12905305 -0.00258106  0.00000000       0.012
   0.04215733  0.04215733  0.00000000       0.006
   0.08517501  0.04129698  0.00000000       0.012
   0.12819270  0.04043662  0.00000000       0.012
  -0.12991340  0.04559874  0.00000000       0.012
  -0.08689572  0.04473839  0.00000000       0.012
  -0.04387804  0.04387804  0.00000000       0.006
   0.08431466  0.08431466  0.00000000       0.006
   0.12733234  0.08345431  0.00000000       0.012
  -0.13077376  0.08861643  0.00000000       0.012
  -0.08775607  0.08775607  0.00000000       0.006
   0.12647199  0.12647199  0.00000000       0.006
  -0.13163411  0.13163411  0.00000000       0.006
   0.00000000  0.00000000  0.04300048       0.006
   0.04301768 -0.00086035  0.04300048       0.023
   0.08603537 -0.00172071  0.04300048       0.023
   0.12905305 -0.00258106  0.04300048       0.023
   0.04215733  0.04215733  0.04300048       0.012
   0.08517501  0.04129698  0.04300048       0.023
   0.12819270  0.04043662  0.04300048       0.023
  -0.12991340  0.04559874  0.04300048       0.023
  -0.08689572  0.04473839  0.04300048       0.023
  -0.04387804  0.04387804  0.04300048       0.012
   0.08431466  0.08431466  0.04300048       0.012
   0.12733234  0.08345431  0.04300048       0.023
  -0.13077376  0.08861643  0.04300048       0.023
  -0.08775607  0.08775607  0.04300048       0.012
   0.12647199  0.12647199  0.04300048       0.012
  -0.13163411  0.13163411  0.04300048       0.012
   0.00000000  0.00000000  0.08600095       0.006
   0.04301768 -0.00086035  0.08600095       0.023
   0.08603537 -0.00172071  0.08600095       0.023
   0.12905305 -0.00258106  0.08600095       0.023
   0.04215733  0.04215733  0.08600095       0.012
   0.08517501  0.04129698  0.08600095       0.023
   0.12819270  0.04043662  0.08600095       0.023
  -0.12991340  0.04559874  0.08600095       0.023
  -0.08689572  0.04473839  0.08600095       0.023
  -0.04387804  0.04387804  0.08600095       0.012
   0.08431466  0.08431466  0.08600095       0.012
   0.12733234  0.08345431  0.08600095       0.023
  -0.13077376  0.08861643  0.08600095       0.023
  -0.08775607  0.08775607  0.08600095       0.012
   0.12647199  0.12647199  0.08600095       0.012
  -0.13163411  0.13163411  0.08600095       0.012
   0.00000000  0.00000000  0.12900143       0.006
   0.04301768 -0.00086035  0.12900143       0.023
   0.08603537 -0.00172071  0.12900143       0.023
   0.12905305 -0.00258106  0.12900143       0.023
   0.04215733  0.04215733  0.12900143       0.012
   0.08517501  0.04129698  0.12900143       0.023
   0.12819270  0.04043662  0.12900143       0.023
  -0.12991340  0.04559874  0.12900143       0.023
  -0.08689572  0.04473839  0.12900143       0.023
  -0.04387804  0.04387804  0.12900143       0.012
   0.08431466  0.08431466  0.12900143       0.012
   0.12733234  0.08345431  0.12900143       0.023
  -0.13077376  0.08861643  0.12900143       0.023
  -0.08775607  0.08775607  0.12900143       0.012
   0.12647199  0.12647199  0.12900143       0.012
  -0.13163411  0.13163411  0.12900143       0.012

 k-points in reciprocal lattice and weights: pymatgen with grid density = 869 / numbe
   0.00000000  0.00000000  0.00000000       0.003
   0.14285714  0.00000000  0.00000000       0.012
   0.28571429  0.00000000  0.00000000       0.012
   0.42857143  0.00000000  0.00000000       0.012
   0.14285714  0.14285714  0.00000000       0.006
   0.28571429  0.14285714  0.00000000       0.012
   0.42857143  0.14285714  0.00000000       0.012
  -0.42857143  0.14285714  0.00000000       0.012
  -0.28571429  0.14285714  0.00000000       0.012
  -0.14285714  0.14285714  0.00000000       0.006
   0.28571429  0.28571429  0.00000000       0.006
   0.42857143  0.28571429  0.00000000       0.012
  -0.42857143  0.28571429  0.00000000       0.012
  -0.28571429  0.28571429  0.00000000       0.006
   0.42857143  0.42857143  0.00000000       0.006
  -0.42857143  0.42857143  0.00000000       0.006
   0.00000000  0.00000000  0.14285714       0.006
   0.14285714  0.00000000  0.14285714       0.023
   0.28571429  0.00000000  0.14285714       0.023
   0.42857143  0.00000000  0.14285714       0.023
   0.14285714  0.14285714  0.14285714       0.012
   0.28571429  0.14285714  0.14285714       0.023
   0.42857143  0.14285714  0.14285714       0.023
  -0.42857143  0.14285714  0.14285714       0.023
  -0.28571429  0.14285714  0.14285714       0.023
  -0.14285714  0.14285714  0.14285714       0.012
   0.28571429  0.28571429  0.14285714       0.012
   0.42857143  0.28571429  0.14285714       0.023
  -0.42857143  0.28571429  0.14285714       0.023
  -0.28571429  0.28571429  0.14285714       0.012
   0.42857143  0.42857143  0.14285714       0.012
  -0.42857143  0.42857143  0.14285714       0.012
   0.00000000  0.00000000  0.28571429       0.006
   0.14285714  0.00000000  0.28571429       0.023
   0.28571429  0.00000000  0.28571429       0.023
   0.42857143  0.00000000  0.28571429       0.023
   0.14285714  0.14285714  0.28571429       0.012
   0.28571429  0.14285714  0.28571429       0.023
   0.42857143  0.14285714  0.28571429       0.023
  -0.42857143  0.14285714  0.28571429       0.023
  -0.28571429  0.14285714  0.28571429       0.023
  -0.14285714  0.14285714  0.28571429       0.012
   0.28571429  0.28571429  0.28571429       0.012
   0.42857143  0.28571429  0.28571429       0.023
  -0.42857143  0.28571429  0.28571429       0.023
  -0.28571429  0.28571429  0.28571429       0.012
   0.42857143  0.42857143  0.28571429       0.012
  -0.42857143  0.42857143  0.28571429       0.012
   0.00000000  0.00000000  0.42857143       0.006
   0.14285714  0.00000000  0.42857143       0.023
   0.28571429  0.00000000  0.42857143       0.023
   0.42857143  0.00000000  0.42857143       0.023
   0.14285714  0.14285714  0.42857143       0.012
   0.28571429  0.14285714  0.42857143       0.023
   0.42857143  0.14285714  0.42857143       0.023
  -0.42857143  0.14285714  0.42857143       0.023
  -0.28571429  0.14285714  0.42857143       0.023
  -0.14285714  0.14285714  0.42857143       0.012
   0.28571429  0.28571429  0.42857143       0.012
   0.42857143  0.28571429  0.42857143       0.023
  -0.42857143  0.28571429  0.42857143       0.023
  -0.28571429  0.28571429  0.42857143       0.012
   0.42857143  0.42857143  0.42857143       0.012
  -0.42857143  0.42857143  0.42857143       0.012

 position of ions in fractional coordinates (direct lattice) 
   0.00000000  0.00000000  0.00000000
   0.50000000  0.50000000  0.50000000

 position of ions in cartesian coordinates  (Angst):
   0.00000000  0.00000000  0.00000000
   1.69433340  1.69433340  1.66111118



--------------------------------------------------------------------------------------------------------


 k-point   1 :   0.0000 0.0000 0.0000  plane waves:     989
 k-point   2 :   0.1429 0.0000 0.0000  plane waves:     983
 k-point   3 :   0.2857 0.0000 0.0000  plane waves:     990
 k-point   4 :   0.4286 0.0000 0.0000  plane waves:     984
 k-point   5 :   0.1429 0.1429 0.0000  plane waves:     985
 k-point   6 :   0.2857 0.1429 0.0000  plane waves:     984
 k-point   7 :   0.4286 0.1429 0.0000  plane waves:     989
 k-point   8 :  -0.4286 0.1429 0.0000  plane waves:     982
 k-point   9 :  -0.2857 0.1429 0.0000  plane waves:     981
 k-point  10 :  -0.1429 0.1429 0.0000  plane waves:     981
 k-point  11 :   0.2857 0.2857 0.0000  plane waves:     989
 k-point  12 :   0.4286 0.2857 0.0000  plane waves:     992
 k-point  13 :  -0.4286 0.2857 0.0000  plane waves:     983
 k-point  14 :  -0.2857 0.2857 0.0000  plane waves:     980
 k-point  15 :   0.4286 0.4286 0.0000  plane waves:     989
 k-point  16 :  -0.4286 0.4286 0.0000  plane waves:     976
 k-point  17 :   0.0000 0.0000 0.1429  plane waves:     985
 k-point  18 :   0.1429 0.0000 0.1429  plane waves:     983
 k-point  19 :   0.2857 0.0000 0.1429  plane waves:     986
 k-point  20 :   0.4286 0.0000 0.1429  plane waves:     988
 k-point  21 :   0.1429 0.1429 0.1429  plane waves:     982
 k-point  22 :   0.2857 0.1429 0.1429  plane waves:     991
 k-point  23 :   0.4286 0.1429 0.1429  plane waves:     988
 k-point  24 :  -0.4286 0.1429 0.1429  plane waves:     980
 k-point  25 :  -0.2857 0.1429 0.1429  plane waves:     980
 k-point  26 :  -0.1429 0.1429 0.1429  plane waves:     977
 k-point  27 :   0.2857 0.2857 0.1429  plane waves:     996
 k-point  28 :   0.4286 0.2857 0.1429  plane waves:     993
 k-point  29 :  -0.4286 0.2857 0.1429  plane waves:     991
 k-point  30 :  -0.2857 0.2857 0.1429  plane waves:     982
 k-point  31 :   0.4286 0.4286 0.1429  plane waves:     984
 k-point  32 :  -0.4286 0.4286 0.1429  plane waves:     985
 k-point  33 :   0.0000 0.0000 0.2857  plane waves:     988
 k-point  34 :   0.1429 0.0000 0.2857  plane waves:     987
 k-point  35 :   0.2857 0.0000 0.2857  plane waves:     987
 k-point  36 :   0.4286 0.0000 0.2857  plane waves:     983
 k-point  37 :   0.1429 0.1429 0.2857  plane waves:     995
 k-point  38 :   0.2857 0.1429 0.2857  plane waves:     991
 k-point  39 :   0.4286 0.1429 0.2857  plane waves:     987
 k-point  40 :  -0.4286 0.1429 0.2857  plane waves:     987
 k-point  41 :  -0.2857 0.1429 0.2857  plane waves:     983
 k-point  42 :  -0.1429 0.1429 0.2857  plane waves:     981
 k-point  43 :   0.2857 0.2857 0.2857  plane waves:     994
 k-point  44 :   0.4286 0.2857 0.2857  plane waves:     986
 k-point  45 :  -0.4286 0.2857 0.2857  plane waves:     988
 k-point  46 :  -0.2857 0.2857 0.2857  plane waves:     985
 k-point  47 :   0.4286 0.4286 0.2857  plane waves:     992
 k-point  48 :  -0.4286 0.4286 0.2857  plane waves:     992
 k-point  49 :   0.0000 0.0000 0.4286  plane waves:     982
 k-point  50 :   0.1429 0.0000 0.4286  plane waves:     985
 k-point  51 :   0.2857 0.0000 0.4286  plane waves:     986
 k-point  52 :   0.4286 0.0000 0.4286  plane waves:     991
 k-point  53 :   0.1429 0.1429 0.4286  plane waves:     990
 k-point  54 :   0.2857 0.1429 0.4286  plane waves:     986
 k-point  55 :   0.4286 0.1429 0.4286  plane waves:     992
 k-point  56 :  -0.4286 0.1429 0.4286  plane waves:     996
 k-point  57 :  -0.2857 0.1429 0.4286  plane waves:     981
 k-point  58 :  -0.1429 0.1429 0.4286  plane waves:     978
 k-point  59 :   0.2857 0.2857 0.4286  plane waves:     984
 k-point  60 :   0.4286 0.2857 0.4286  plane waves:     987
 k-point  61 :  -0.4286 0.2857 0.4286  plane waves:     995
 k-point  62 :  -0.2857 0.2857 0.4286  plane waves:     984
 k-point  63 :   0.4286 0.4286 0.4286  plane waves:     988
 k-point  64 :  -0.4286 0.4286 0.4286  plane waves:     998

 maximum and minimum number of plane-waves per node :       998      976

 maximum number of plane-waves:       998
 maximum index in each direction: 
   IXMAX=    6   IYMAX=    6   IZMAX=    6
   IXMIN=   -6   IYMIN=   -6   IZMIN=   -6


 serial   3D FFT for wavefunctions
 parallel 3D FFT for charge:
    minimum data exchange during FFTs selected (reduces bandwidth)


 total amount of memory used by VASP MPI-rank0    91178. kBytes
=======================================================================

   base      :      30000. kBytes
   nonlr-proj:       6266. kBytes
   fftplans  :       6192. kBytes
   grid      :      14776. kBytes
   one-center:         62. kBytes
   wavefun   :      33882. kBytes

     INWAV:  cpu time      0.0022: real time      0.0001
 Broyden mixing: mesh for mixing (old mesh)
   NGX = 13   NGY = 13   NGZ = 13
  (NGX  = 56   NGY  = 56   NGZ  = 56)
  gives a total of   2197 points

 initial charge density was supplied:
 charge density of overlapping atoms calculated
 number of electron      22.0000000 magnetization       1.2000000
 keeping initial charge density in first step


--------------------------------------------------------------------------------------------------------


 Maximum index for non-local projection operator         1138
 Maximum index for augmentation-charges        35777 (set IRDMAX)


--------------------------------------------------------------------------------------------------------


 First call to EWALD:  gamma=   0.534
 Maximum number of real-space cells 3x 3x 3
 Maximum number of reciprocal cells 3x 3x 3

    FEWALD:  cpu time      0.1559: real time      0.0046


--------------------------------------- Ionic step        1  -------------------------------------------




--------------------------------------- Iteration      1(   1)  ---------------------------------------


    POTLOK:  cpu time      1.5837: real time      0.1349
    SETDIJ:  cpu time      1.1590: real time      0.2627
     EDDAV:  cpu time    356.0789: real time     20.3164
 BZINTS: Fermi energy:   23.496282;   22.000000 electrons
         Band energy:-0.257705E+02;  BLOECHL correction:   -0.694690
       DOS:  cpu time      0.2915: real time      0.0347
    --------------------------------------------
      LOOP:  cpu time    359.1131: real time     20.7488

 eigenvalue-minimisations  :  4424
 total energy-change (2. order) : 0.2043477E+03  (-0.1165990E+04)
 number of electron      22.0000000 magnetization       1.2000000
 augmentation part       22.0000000 magnetization       1.2000000

 Free energy of the ion-electron system (eV)
  ---------------------------------------------------
  alpha Z        PSCENC =       247.02244180
  Ewald energy   TEWEN  =     -1908.57692376
  -Hartree energ DENC   =      -279.63742349
  -exchange      EXHF   =         0.00000000
  -V(xc)+E(xc)   XCENC  =        52.62034554
  PAW double counting   =      1671.32378679    -1639.41528309
  entropy T*S    EENTRO =         0.00000000
  eigenvalues    EBANDS =       -25.77050325
  atomic energy  EATOM  =      2086.78124273
  Solvation  Ediel_sol  =         0.00000000
  ---------------------------------------------------
  free energy    TOTEN  =       204.34768327 eV

  energy without entropy =      204.34768327  energy(sigma->0) =      204.34768327


--------------------------------------------------------------------------------------------------------




--------------------------------------- Iteration      1(   2)  ---------------------------------------


     EDDAV:  cpu time    362.8012: real time     20.6288
 BZINTS: Fermi energy:    6.942033;   22.000000 electrons
         Band energy:-0.241483E+03;  BLOECHL correction:   -0.442441
       DOS:  cpu time      0.3391: real time      0.0353
    --------------------------------------------
      LOOP:  cpu time    363.1403: real time     20.6641

 eigenvalue-minimisations  :  4472
 total energy-change (2. order) :-0.2157123E+03  (-0.2130784E+03)
 number of electron      22.0000000 magnetization       1.2000000
 augmentation part       22.0000000 magnetization       1.2000000

 Free energy of the ion-electron system (eV)
  ---------------------------------------------------
  alpha Z        PSCENC =       247.02244180
  Ewald energy   TEWEN  =     -1908.57692376
  -Hartree energ DENC   =      -279.63742349
  -exchange      EXHF   =         0.00000000
  -V(xc)+E(xc)   XCENC  =        52.62034554
  PAW double counting   =      1671.32378679    -1639.41528309
  entropy T*S    EENTRO =         0.00000000
  eigenvalues    EBANDS =      -241.48277137
  atomic energy  EATOM  =      2086.78124273
  Solvation  Ediel_sol  =         0.00000000
  ---------------------------------------------------
  free energy    TOTEN  =       -11.36458485 eV

  energy without entropy =      -11.36458485  energy(sigma->0) =      -11.36458485


--------------------------------------------------------------------------------------------------------




--------------------------------------- Iteration      1(   3)  ---------------------------------------


     EDDAV:  cpu time    612.3611: real time     33.7377
 BZINTS: Fermi energy:    5.465941;   22.000000 electrons
         Band energy:-0.251105E+03;  BLOECHL correction:   -0.208086
       DOS:  cpu time      0.2354: real time      0.0282
    --------------------------------------------
      LOOP:  cpu time    612.5966: real time     33.7659

 eigenvalue-minimisations  :  6816
 total energy-change (2. order) :-0.9622471E+01  (-0.9093879E+01)
 number of electron      22.0000000 magnetization       1.2000000
 augmentation part       22.0000000 magnetization       1.2000000

 Free energy of the ion-electron system (eV)
  ---------------------------------------------------
  alpha Z        PSCENC =       247.02244180
  Ewald energy   TEWEN  =     -1908.57692376
  -Hartree energ DENC   =      -279.63742349
  -exchange      EXHF   =         0.00000000
  -V(xc)+E(xc)   XCENC  =        52.62034554
  PAW double counting   =      1671.32378679    -1639.41528309
  entropy T*S    EENTRO =         0.00000000
  eigenvalues    EBANDS =      -251.10524261
  atomic energy  EATOM  =      2086.78124273
  Solvation  Ediel_sol  =         0.00000000
  ---------------------------------------------------
  free energy    TOTEN  =       -20.98705609 eV

  energy without entropy =      -20.98705609  energy(sigma->0) =      -20.98705609


--------------------------------------------------------------------------------------------------------




--------------------------------------- Iteration      1(   4)  ---------------------------------------


     EDDAV:  cpu time    436.9333: real time     24.4908
 BZINTS: Fermi energy:    5.444166;   22.000000 electrons
         Band energy:-0.251256E+03;  BLOECHL correction:   -0.204626
       DOS:  cpu time      0.2277: real time      0.0270
    --------------------------------------------
      LOOP:  cpu time    437.1611: real time     24.5177

 eigenvalue-minimisations  :  5072
 total energy-change (2. order) :-0.1503767E+00  (-0.1483004E+00)
 number of electron      22.0000000 magnetization       1.2000000
 augmentation part       22.0000000 magnetization       1.2000000

 Free energy of the ion-electron system (eV)
  ---------------------------------------------------
  alpha Z        PSCENC =       247.02244180
  Ewald energy   TEWEN  =     -1908.57692376
  -Hartree energ DENC   =      -279.63742349
  -exchange      EXHF   =         0.00000000
  -V(xc)+E(xc)   XCENC  =        52.62034554
  PAW double counting   =      1671.32378679    -1639.41528309
  entropy T*S    EENTRO =         0.00000000
  eigenvalues    EBANDS =      -251.25561927
  atomic energy  EATOM  =      2086.78124273
  Solvation  Ediel_sol  =         0.00000000
  ---------------------------------------------------
  free energy    TOTEN  =       -21.13743275 eV

  energy without entropy =      -21.13743275  energy(sigma->0) =      -21.13743275


--------------------------------------------------------------------------------------------------------




--------------------------------------- Iteration      1(   5)  ---------------------------------------


     EDDAV:  cpu time    524.5879: real time     29.4685
 BZINTS: Fermi energy:    5.443270;   22.000000 electrons
         Band energy:-0.251259E+03;  BLOECHL correction:   -0.204567
       DOS:  cpu time      0.2661: real time      0.0284
    CHARGE:  cpu time     29.2260: real time      1.6520
    MIXING:  cpu time      0.0582: real time      0.0015
    --------------------------------------------
      LOOP:  cpu time    554.1382: real time     31.1504

 eigenvalue-minimisations  :  6432
 total energy-change (2. order) :-0.3874409E-02  (-0.3861417E-02)
 number of electron      22.0000001 magnetization       0.3465525
 augmentation part        7.7592457 magnetization      -0.0578066

 Broyden mixing:
  rms(total) = 0.24036E+01    rms(broyden)= 0.24036E+01
  rms(prec ) = 0.28256E+01
  weight for this iteration     100.00

 Free energy of the ion-electron system (eV)
  ---------------------------------------------------
  alpha Z        PSCENC =       247.02244180
  Ewald energy   TEWEN  =     -1908.57692376
  -Hartree energ DENC   =      -279.63742349
  -exchange      EXHF   =         0.00000000
  -V(xc)+E(xc)   XCENC  =        52.62034554
  PAW double counting   =      1671.32378679    -1639.41528309
  entropy T*S    EENTRO =         0.00000000
  eigenvalues    EBANDS =      -251.25949368
  atomic energy  EATOM  =      2086.78124273
  Solvation  Ediel_sol  =         0.00000000
  ---------------------------------------------------
  free energy    TOTEN  =       -21.14130716 eV

  energy without entropy =      -21.14130716  energy(sigma->0) =      -21.14130716


--------------------------------------------------------------------------------------------------------




--------------------------------------- Iteration      1(   6)  ---------------------------------------


    POTLOK:  cpu time      2.3034: real time      0.1692
    SETDIJ:  cpu time      1.6469: real time      0.2863
    EDDIAG:  cpu time     80.0740: real time      4.5206
  RMM-DIIS:  cpu time    304.9724: real time     16.2622
    ORTHCH:  cpu time      2.0510: real time      0.1227
 BZINTS: Fermi energy:    5.096558;   22.000000 electrons
         Band energy:-0.265245E+03;  BLOECHL correction:   -0.206592
       DOS:  cpu time      0.2823: real time      0.0274
    CHARGE:  cpu time     30.7208: real time      1.7250
    MIXING:  cpu time      0.0019: real time      0.0019
    --------------------------------------------
      LOOP:  cpu time    422.0526: real time     23.1152

 eigenvalue-minimisations  :  4480
 total energy-change (2. order) : 0.7983019E+00  (-0.7948516E-01)
 number of electron      22.0000001 magnetization       0.1608532
 augmentation part        7.8860260 magnetization      -0.0535358

 Broyden mixing:
  rms(total) = 0.91604E+00    rms(broyden)= 0.91604E+00
  rms(prec ) = 0.11964E+01
  weight for this iteration     100.00

 eigenvalues of (default mixing * dielectric matrix)
  average eigenvalue GAMMA=   1.5022
  1.5022

 Free energy of the ion-electron system (eV)
  ---------------------------------------------------
  alpha Z        PSCENC =       247.02244180
  Ewald energy   TEWEN  =     -1908.57692376
  -Hartree energ DENC   =      -260.36080126
  -exchange      EXHF   =         0.00000000
  -V(xc)+E(xc)   XCENC  =        51.60915438
  PAW double counting   =      2187.97951967    -2159.55304276
  entropy T*S    EENTRO =         0.00000000
  eigenvalues    EBANDS =      -265.24459610
  atomic energy  EATOM  =      2086.78124273
  Solvation  Ediel_sol  =         0.00000000
  ---------------------------------------------------
  free energy    TOTEN  =       -20.34300530 eV

  energy without entropy =      -20.34300530  energy(sigma->0) =      -20.34300530


--------------------------------------------------------------------------------------------------------




--------------------------------------- Iteration      1(   7)  ---------------------------------------


    POTLOK:  cpu time      2.3211: real time      0.1586
    SETDIJ:  cpu time      0.9876: real time      0.2480
    EDDIAG:  cpu time     67.7900: real time      3.9061
  RMM-DIIS:  cpu time    353.5606: real time     19.0395
    ORTHCH:  cpu time      1.0979: real time      0.0718
 BZINTS: Fermi energy:    4.806175;   22.000000 electrons
         Band energy:-0.276973E+03;  BLOECHL correction:   -0.203211
       DOS:  cpu time      0.2943: real time      0.0254
    CHARGE:  cpu time     27.5110: real time      1.5655
    MIXING:  cpu time      0.1256: real time      0.0066
    --------------------------------------------
      LOOP:  cpu time    453.6880: real time     25.0214

 eigenvalue-minimisations  :  5568
 total energy-change (2. order) : 0.1477479E+00  (-0.2133086E+00)
 number of electron      22.0000001 magnetization       0.0388370
 augmentation part        8.0578874 magnetization       0.0364070

 Broyden mixing:
  rms(total) = 0.24672E+00    rms(broyden)= 0.24672E+00
  rms(prec ) = 0.26573E+00
  weight for this iteration     100.00

 eigenvalues of (default mixing * dielectric matrix)
  average eigenvalue GAMMA=   1.0762
  1.6185  0.5338

 Free energy of the ion-electron system (eV)
  ---------------------------------------------------
  alpha Z        PSCENC =       247.02244180
  Ewald energy   TEWEN  =     -1908.57692376
  -Hartree energ DENC   =      -244.69713914
  -exchange      EXHF   =         0.00000000
  -V(xc)+E(xc)   XCENC  =        50.83080564
  PAW double counting   =      2620.88646187    -2595.46909295
  entropy T*S    EENTRO =         0.00000000
  eigenvalues    EBANDS =      -276.97305355
  atomic energy  EATOM  =      2086.78124273
  Solvation  Ediel_sol  =         0.00000000
  ---------------------------------------------------
  free energy    TOTEN  =       -20.19525737 eV

  energy without entropy =      -20.19525737  energy(sigma->0) =      -20.19525737


--------------------------------------------------------------------------------------------------------




--------------------------------------- Iteration      1(   8)  ---------------------------------------


    POTLOK:  cpu time      1.8334: real time      0.1350
    SETDIJ:  cpu time      1.2667: real time      0.2505
    EDDIAG:  cpu time     78.4631: real time      4.4510
  RMM-DIIS:  cpu time    368.9100: real time     19.9447
    ORTHCH:  cpu time      1.8157: real time      0.1053
 BZINTS: Fermi energy:    4.817356;   22.000000 electrons
         Band energy:-0.276434E+03;  BLOECHL correction:   -0.203394
       DOS:  cpu time      0.2459: real time      0.0284
    CHARGE:  cpu time     28.1387: real time      1.5975
    MIXING:  cpu time      0.0017: real time      0.0017
    --------------------------------------------
      LOOP:  cpu time    480.6754: real time     26.5141

 eigenvalue-minimisations  :  5993
 total energy-change (2. order) :-0.1131114E-01  (-0.1061982E-01)
 number of electron      22.0000001 magnetization       0.0243936
 augmentation part        8.0646166 magnetization       0.0163098

 Broyden mixing:
  rms(total) = 0.11926E+00    rms(broyden)= 0.11926E+00
  rms(prec ) = 0.14795E+00
  weight for this iteration     100.00

 eigenvalues of (default mixing * dielectric matrix)
  average eigenvalue GAMMA=   1.0706
  1.8399  0.6859  0.6859

 Free energy of the ion-electron system (eV)
  ---------------------------------------------------
  alpha Z        PSCENC =       247.02244180
  Ewald energy   TEWEN  =     -1908.57692376
  -Hartree energ DENC   =      -245.04105004
  -exchange      EXHF   =         0.00000000
  -V(xc)+E(xc)   XCENC  =        50.84102652
  PAW double counting   =      2669.24102706    -2644.04050288
  entropy T*S    EENTRO =         0.00000000
  eigenvalues    EBANDS =      -276.43382995
  atomic energy  EATOM  =      2086.78124273
  Solvation  Ediel_sol  =         0.00000000
  ---------------------------------------------------
  free energy    TOTEN  =       -20.20656851 eV

  energy without entropy =      -20.20656851  energy(sigma->0) =      -20.20656851


--------------------------------------------------------------------------------------------------------




--------------------------------------- Iteration      1(   9)  ---------------------------------------


    POTLOK:  cpu time      1.8418: real time      0.1366
    SETDIJ:  cpu time      1.1732: real time      0.2562
    EDDIAG:  cpu time     88.5473: real time      5.0073
  RMM-DIIS:  cpu time   3144.7526: real time    139.5516
    ORTHCH:  cpu time      2.3702: real time      0.1410
 BZINTS: Fermi energy:    4.826372;   22.000000 electrons
         Band energy:-0.276014E+03;  BLOECHL correction:   -0.203549
       DOS:  cpu time      0.2430: real time      0.0266
    CHARGE:  cpu time     25.9176: real time      1.4627
    MIXING:  cpu time      0.0015: real time      0.0015
    --------------------------------------------
      LOOP:  cpu time   3264.8472: real time    146.5836

 eigenvalue-minimisations  :  5966
 total energy-change (2. order) : 0.8430563E-04  (-0.2416091E-02)
 number of electron      22.0000001 magnetization       0.0188502
 augmentation part        8.0646962 magnetization       0.0157213

 Broyden mixing:
  rms(total) = 0.96728E-01    rms(broyden)= 0.96728E-01
  rms(prec ) = 0.12358E+00
  weight for this iteration     100.00

 eigenvalues of (default mixing * dielectric matrix)
  average eigenvalue GAMMA=   1.1056
  2.1130  0.8523  0.8523  0.6047

 Free energy of the ion-electron system (eV)
  ---------------------------------------------------
  alpha Z        PSCENC =       247.02244180
  Ewald energy   TEWEN  =     -1908.57692376
  -Hartree energ DENC   =      -245.40105858
  -exchange      EXHF   =         0.00000000
  -V(xc)+E(xc)   XCENC  =        50.85775335
  PAW double counting   =      2710.14926259    -2685.02478966
  entropy T*S    EENTRO =         0.00000000
  eigenvalues    EBANDS =      -276.01441268
  atomic energy  EATOM  =      2086.78124273
  Solvation  Ediel_sol  =         0.00000000
  ---------------------------------------------------
  free energy    TOTEN  =       -20.20648420 eV

  energy without entropy =      -20.20648420  energy(sigma->0) =      -20.20648420


--------------------------------------------------------------------------------------------------------




--------------------------------------- Iteration      1(  10)  ---------------------------------------


    POTLOK:  cpu time      1.2921: real time      0.1106
    SETDIJ:  cpu time      1.0675: real time      0.2544
    EDDIAG:  cpu time     76.5371: real time      4.3662
  RMM-DIIS:  cpu time    249.0041: real time     13.8323
    ORTHCH:  cpu time      1.1272: real time      0.0733
 BZINTS: Fermi energy:    4.849022;   22.000000 electrons
         Band energy:-0.275013E+03;  BLOECHL correction:   -0.203947
       DOS:  cpu time      0.3278: real time      0.0274
    CHARGE:  cpu time     36.2467: real time      1.9954
    MIXING:  cpu time      0.0031: real time      0.0031
    --------------------------------------------
      LOOP:  cpu time    365.6057: real time     20.6625

 eigenvalue-minimisations  :  4752
 total energy-change (2. order) : 0.3390547E-02  (-0.6242284E-03)
 number of electron      22.0000001 magnetization      -0.0057250
 augmentation part        8.0560329 magnetization      -0.0025570

 Broyden mixing:
  rms(total) = 0.66804E-01    rms(broyden)= 0.66804E-01
  rms(prec ) = 0.73654E-01
  weight for this iteration     100.00

 eigenvalues of (default mixing * dielectric matrix)
  average eigenvalue GAMMA=   1.3606
  2.6520  1.3798  1.3798  0.6289  0.7624

 Free energy of the ion-electron system (eV)
  ---------------------------------------------------
  alpha Z        PSCENC =       247.02244180
  Ewald energy   TEWEN  =     -1908.57692376
  -Hartree energ DENC   =      -246.38247190
  -exchange      EXHF   =         0.00000000
  -V(xc)+E(xc)   XCENC  =        50.90458795
  PAW double counting   =      2790.77042218    -2765.70908279
  entropy T*S    EENTRO =         0.00000000
  eigenvalues    EBANDS =      -275.01330988
  atomic energy  EATOM  =      2086.78124273
  Solvation  Ediel_sol  =         0.00000000
  ---------------------------------------------------
  free energy    TOTEN  =       -20.20309366 eV

  energy without entropy =      -20.20309366  energy(sigma->0) =      -20.20309366


--------------------------------------------------------------------------------------------------------




--------------------------------------- Iteration      1(  11)  ---------------------------------------


    POTLOK:  cpu time      2.5480: real time      0.1696
    SETDIJ:  cpu time      1.1521: real time      0.2563
    EDDIAG:  cpu time    136.7841: real time      7.3152
  RMM-DIIS:  cpu time    287.1980: real time     15.8289
    ORTHCH:  cpu time      2.0327: real time      0.1182
 BZINTS: Fermi energy:    4.859870;   22.000000 electrons
         Band energy:-0.274526E+03;  BLOECHL correction:   -0.204117
       DOS:  cpu time      0.2463: real time      0.0314
    CHARGE:  cpu time     36.8220: real time      1.9990
    MIXING:  cpu time      0.0017: real time      0.0017
    --------------------------------------------
      LOOP:  cpu time    466.7849: real time     25.7203

 eigenvalue-minimisations  :  5443
 total energy-change (2. order) :-0.2110884E-03  (-0.5306264E-03)
 number of electron      22.0000001 magnetization      -0.0040975
 augmentation part        8.0497440 magnetization      -0.0003612

 Broyden mixing:
  rms(total) = 0.43947E-02    rms(broyden)= 0.43947E-02
  rms(prec ) = 0.58186E-02
  weight for this iteration     100.00

 eigenvalues of (default mixing * dielectric matrix)
  average eigenvalue GAMMA=   1.2694
  2.5939  1.4485  1.4485  0.7830  0.6194  0.7230

 Free energy of the ion-electron system (eV)
  ---------------------------------------------------
  alpha Z        PSCENC =       247.02244180
  Ewald energy   TEWEN  =     -1908.57692376
  -Hartree energ DENC   =      -246.81843620
  -exchange      EXHF   =         0.00000000
  -V(xc)+E(xc)   XCENC  =        50.92513440
  PAW double counting   =      2865.14197848    -2840.15260233
  entropy T*S    EENTRO =         0.00000000
  eigenvalues    EBANDS =      -274.52613986
  atomic energy  EATOM  =      2086.78124273
  Solvation  Ediel_sol  =         0.00000000
  ---------------------------------------------------
  free energy    TOTEN  =       -20.20330475 eV

  energy without entropy =      -20.20330475  energy(sigma->0) =      -20.20330475


--------------------------------------------------------------------------------------------------------




--------------------------------------- Iteration      1(  12)  ---------------------------------------


    POTLOK:  cpu time      2.3792: real time      0.1691
    SETDIJ:  cpu time      1.0164: real time      0.2556
    EDDIAG:  cpu time    133.1821: real time      7.0838
  RMM-DIIS:  cpu time    213.3563: real time     11.8514
    ORTHCH:  cpu time      2.1448: real time      0.1187
 BZINTS: Fermi energy:    4.859960;   22.000000 electrons
         Band energy:-0.274521E+03;  BLOECHL correction:   -0.204114
       DOS:  cpu time      0.2657: real time      0.0277
    --------------------------------------------
      LOOP:  cpu time    352.3444: real time     19.5062

 eigenvalue-minimisations  :  3981
 total energy-change (2. order) :-0.7862139E-04  (-0.5950748E-04)
 number of electron      22.0000001 magnetization      -0.0040975
 augmentation part        8.0497440 magnetization      -0.0003612

 Free energy of the ion-electron system (eV)
  ---------------------------------------------------
  alpha Z        PSCENC =       247.02244180
  Ewald energy   TEWEN  =     -1908.57692376
  -Hartree energ DENC   =      -246.83938837
  -exchange      EXHF   =         0.00000000
  -V(xc)+E(xc)   XCENC  =        50.92615379
  PAW double counting   =      2864.04750296    -2839.04300266
  entropy T*S    EENTRO =         0.00000000
  eigenvalues    EBANDS =      -274.52140986
  atomic energy  EATOM  =      2086.78124273
  Solvation  Ediel_sol  =         0.00000000
  ---------------------------------------------------
  free energy    TOTEN  =       -20.20338337 eV

  energy without entropy =      -20.20338337  energy(sigma->0) =      -20.20338337


--------------------------------------------------------------------------------------------------------




 average (electrostatic) potential at core
  the test charge radii are     1.2125
  (the norm of the test charge is              1.0000)
       1 -35.1668       2 -35.1668



 E-fermi :   4.8600     XC(G=0): -12.3438     alpha+bet :-12.7651

 Fermi energy:         4.8599595527

 spin component 1

 k-point     1 :       0.0000    0.0000    0.0000
  band No.  band energies     occupation 
      1     -25.8516      1.00000
      2     -25.7863      1.00000
      3     -25.7194      1.00000
      4     -24.9693      1.00000
      5     -24.8981      1.00000
      6     -24.8392      1.00000
      7      -1.0594      1.00000
      8       1.2001      1.00000
      9       1.2145      1.00000
     10       4.9126      0.44471
     11       5.1575     -0.02449
     12       5.4876      0.00000
     13       8.0557      0.00000
     14       8.1049      0.00000
     15       9.9650      0.00000
     16      10.3025      0.00000

 k-point     2 :       0.1429    0.0000    0.0000
  band No.  band energies     occupation 
      1     -25.8284      1.00000
      2     -25.7410      1.00000
      3     -25.7008      1.00000
      4     -25.0370      1.00000
      5     -24.9405      1.00000
      6     -24.9082      1.00000
      7      -0.6494      1.00000
      8       1.4313      1.00000
      9       1.5485      1.00000
     10       4.9989      0.36710
     11       5.1304      0.03508
     12       5.5608      0.00000
     13       7.5215      0.00000
     14       8.2659      0.00000
     15       9.0789      0.00000
     16       9.1524      0.00000

 k-point     3 :       0.2857    0.0000    0.0000
  band No.  band energies     occupation 
      1     -25.7815      1.00000
      2     -25.6149      1.00000
      3     -25.6058      1.00000
      4     -25.2415      1.00000
      5     -25.0602      1.00000
      6     -25.0555      1.00000
      7       0.4451      1.00000
      8       2.1039      1.00000
      9       2.2963      1.00000
     10       5.1500      0.45300
     11       5.1527      0.05701
     12       5.9902      0.00000
     13       6.1836      0.00000
     14       7.4997      0.00000
     15       7.5228      0.00000
     16       8.7652      0.00000

 k-point     4 :       0.4286    0.0000    0.0000
  band No.  band energies     occupation 
      1     -25.6831      1.00000
      2     -25.4925      1.00000
      3     -25.4353      1.00000
      4     -25.4340      1.00000
      5     -25.2385      1.00000
      6     -25.2359      1.00000
      7       1.7982      1.00000
      8       2.6123      1.00000
      9       3.1818      1.00000
     10       4.5675      0.99553
     11       5.4980     -0.23365
     12       5.5263     -0.00399
     13       6.2582      0.00000
     14       6.2730      0.00000
     15       6.8301      0.00000
     16       7.9212      0.00000

 k-point     5 :       0.1429    0.1429    0.0000
  band No.  band energies     occupation 
      1     -25.9226      1.00000
      2     -25.7111      1.00000
      3     -25.5836      1.00000
      4     -25.2084      1.00000
      5     -24.9647      1.00000
      6     -24.8439      1.00000
      7      -0.3077      1.00000
      8       1.6149      1.00000
      9       1.8597      1.00000
     10       4.5139      1.07213
     11       4.8824      0.56102
     12       6.2224     -0.01927
     13       7.7458      0.00000
     14       7.8053      0.00000
     15       8.1469      0.00000
     16       8.1478      0.00000

 k-point     6 :       0.2857    0.1429    0.0000
  band No.  band energies     occupation 
      1     -25.9501      1.00000
      2     -25.6052      1.00000
      3     -25.4512      1.00000
      4     -25.4440      1.00000
      5     -25.0608      1.00000
      6     -24.9085      1.00000
      7       0.6378      1.00000
      8       2.0922      1.00000
      9       2.6512      1.00000
     10       4.3299      1.02755
     11       4.6427      0.95349
     12       6.3314     -0.05117
     13       6.9665      0.00000
     14       7.0008      0.00000
     15       7.1063      0.00000
     16       8.6904      0.00000

 k-point     7 :       0.4286    0.1429    0.0000
  band No.  band energies     occupation 
      1     -25.8779      1.00000
      2     -25.6823      1.00000
      3     -25.4468      1.00000
      4     -25.2854      1.00000
      5     -25.2128      1.00000
      6     -25.0661      1.00000
      7       1.7840      1.00000
      8       2.3991      1.00000
      9       3.4493      1.00000
     10       4.2515      1.00639
     11       4.5564      0.97851
     12       5.2895     -0.01421
     13       6.4889      0.00000
     14       6.5413      0.00000
     15       7.9165      0.00000
     16       9.1368      0.00000

 k-point     8 :      -0.4286    0.1429    0.0000
  band No.  band energies     occupation 
      1     -25.8268      1.00000
      2     -25.6870      1.00000
      3     -25.3923      1.00000
      4     -25.2731      1.00000
      5     -25.2689      1.00000
      6     -25.1299      1.00000
      7       1.8047      1.00000
      8       2.5417      1.00000
      9       3.4288      1.00000
     10       4.4155      1.00000
     11       4.7381      0.84646
     12       5.2716     -0.01858
     13       6.3293      0.00000
     14       6.4262      0.00000
     15       7.8736      0.00000
     16       8.9228      0.00000

 k-point     9 :      -0.2857    0.1429    0.0000
  band No.  band energies     occupation 
      1     -25.8588      1.00000
      2     -25.5628      1.00000
      3     -25.4879      1.00000
      4     -25.4066      1.00000
      5     -25.1070      1.00000
      6     -25.0120      1.00000
      7       0.7234      1.00000
      8       2.2837      1.00000
      9       2.6247      1.00000
     10       4.6696      0.98349
     11       5.0118      0.28945
     12       6.4843     -0.03996
     13       6.6182      0.00000
     14       6.7139      0.00000
     15       6.9538      0.00000
     16       8.4491      0.00000

 k-point    10 :      -0.1429    0.1429    0.0000
  band No.  band energies     occupation 
      1     -25.8048      1.00000
      2     -25.6880      1.00000
      3     -25.6764      1.00000
      4     -25.1188      1.00000
      5     -24.9909      1.00000
      6     -24.9679      1.00000
      7      -0.2485      1.00000
      8       1.7219      1.00000
      9       1.8455      1.00000
     10       4.9815      0.47265
     11       5.1592     -0.04365
     12       5.7624      0.00000
     13       7.3794      0.00000
     14       8.0191      0.00000
     15       8.0826      0.00000
     16       8.2614      0.00000

 k-point    11 :       0.2857    0.2857    0.0000
  band No.  band energies     occupation 
      1     -26.0787      1.00000
      2     -25.7184      1.00000
      3     -25.5381      1.00000
      4     -25.2676      1.00000
      5     -25.1114      1.00000
      6     -24.8546      1.00000
      7       1.0824      1.00000
      8       2.0028      1.00000
      9       3.6726      1.00000
     10       3.7393      1.00000
     11       4.6683      0.87402
     12       5.0383      0.10176
     13       6.5072      0.00000
     14       7.9496      0.00000
     15       8.1990      0.00000
     16       8.4743      0.00000

 k-point    12 :       0.4286    0.2857    0.0000
  band No.  band energies     occupation 
      1     -26.0931      1.00000
      2     -25.9328      1.00000
      3     -25.4308      1.00000
      4     -25.2071      1.00000
      5     -25.1148      1.00000
      6     -24.9143      1.00000
      7       1.4907      1.00000
      8       1.7786      1.00000
      9       3.6339      1.00000
     10       4.1683      1.00000
     11       4.7036      0.72420
     12       4.9963      0.04899
     13       6.9717      0.00000
     14       7.7088      0.00000
     15       9.1086      0.00000
     16       9.3372      0.00000

 k-point    13 :      -0.4286    0.2857    0.0000
  band No.  band energies     occupation 
      1     -26.0290      1.00000
      2     -25.9640      1.00000
      3     -25.3321      1.00000
      4     -25.3079      1.00000
      5     -25.0626      1.00000
      6     -25.0057      1.00000
      7       1.5159      1.00000
      8       1.9153      1.00000
      9       3.8299      1.00000
     10       4.0818      1.00000
     11       4.5872      0.91043
     12       5.2582     -0.03114
     13       7.0544      0.00000
     14       7.4693      0.00000
     15       8.7319      0.00000
     16       9.4458      0.00000

 k-point    14 :      -0.2857    0.2857    0.0000
  band No.  band energies     occupation 
      1     -25.9919      1.00000
      2     -25.7110      1.00000
      3     -25.4605      1.00000
      4     -25.2657      1.00000
      5     -25.1938      1.00000
      6     -24.9650      1.00000
      7       1.1966      1.00000
      8       2.2618      1.00000
      9       3.5979      1.00000
     10       4.0269      1.00000
     11       5.0341      0.49695
     12       5.0724      0.04558
     13       6.5102      0.00000
     14       7.4310      0.00000
     15       8.0659      0.00000
     16       8.1154      0.00000

 k-point    15 :       0.4286    0.4286    0.0000
  band No.  band energies     occupation 
      1     -26.2006      1.00000
      2     -26.1039      1.00000
      3     -25.3951      1.00000
      4     -25.2261      1.00000
      5     -25.0023      1.00000
      6     -24.8634      1.00000
      7       1.2404      1.00000
      8       1.3164      1.00000
      9       3.2052      1.00000
     10       3.4981      1.00000
     11       6.2781     -0.12624
     12       6.3001     -0.08905
     13       7.5426      0.00000
     14       8.2910      0.00000
     15       8.9058      0.00000
     16       9.5760      0.00000

 k-point    16 :      -0.4286    0.4286    0.0000
  band No.  band energies     occupation 
      1     -26.1553      1.00000
      2     -26.1376      1.00000
      3     -25.3513      1.00000
      4     -25.2709      1.00000
      5     -24.9629      1.00000
      6     -24.9171      1.00000
      7       1.2363      1.00000
      8       1.3805      1.00000
      9       3.3565      1.00000
     10       3.3845      1.00000
     11       6.0120     -0.18375
     12       6.7487     -0.00799
     13       7.8680      0.00000
     14       7.9732      0.00000
     15       8.4037      0.00000
     16       9.7674      0.00000

 k-point    17 :       0.0000    0.0000    0.1429
  band No.  band energies     occupation 
      1     -25.8010      1.00000
      2     -25.7891      1.00000
      3     -25.6803      1.00000
      4     -25.0040      1.00000
      5     -24.9933      1.00000
      6     -24.8885      1.00000
      7      -0.6499      1.00000
      8       1.4416      1.00000
      9       1.5398      1.00000
     10       4.9195      0.64433
     11       5.3535     -0.07077
     12       5.4177      0.00000
     13       7.4859      0.00000
     14       8.3042      0.00000
     15       8.8945      0.00000
     16       9.4317      0.00000

 k-point    18 :       0.1429    0.0000    0.1429
  band No.  band energies     occupation 
      1     -25.8772      1.00000
      2     -25.6975      1.00000
      3     -25.6185      1.00000
      4     -25.1652      1.00000
      5     -25.0021      1.00000
      6     -24.8800      1.00000
      7      -0.2786      1.00000
      8       1.6772      1.00000
      9       1.8448      1.00000
     10       4.6800      0.99256
     11       5.0641      0.12581
     12       5.9991     -0.00652
     13       7.5816      0.00000
     14       7.8446      0.00000
     15       8.1139      0.00000
     16       8.2734      0.00000

 k-point    19 :       0.2857    0.0000    0.1429
  band No.  band energies     occupation 
      1     -25.9105      1.00000
      2     -25.5789      1.00000
      3     -25.4651      1.00000
      4     -25.4280      1.00000
      5     -25.1020      1.00000
      6     -24.9432      1.00000
      7       0.6801      1.00000
      8       2.1920      1.00000
      9       2.6325      1.00000
     10       4.4808      1.01847
     11       4.8246      0.75296
     12       6.4169     -0.04612
     13       6.8296      0.00000
     14       6.9054      0.00000
     15       6.9554      0.00000
     16       8.5766      0.00000

 k-point    20 :       0.4286    0.0000    0.1429
  band No.  band energies     occupation 
      1     -25.8541      1.00000
      2     -25.6843      1.00000
      3     -25.4226      1.00000
      4     -25.2745      1.00000
      5     -25.2525      1.00000
      6     -25.0868      1.00000
      7       1.7934      1.00000
      8       2.4681      1.00000
      9       3.4435      1.00000
     10       4.3419      1.00450
     11       4.6452      0.92400
     12       5.2880     -0.03160
     13       6.4036      0.00000
     14       6.4770      0.00000
     15       7.8884      0.00000
     16       9.0232      0.00000

 k-point    21 :       0.1429    0.1429    0.1429
  band No.  band energies     occupation 
      1     -25.8690      1.00000
      2     -25.7949      1.00000
      3     -25.4846      1.00000
      4     -25.3025      1.00000
      5     -24.9693      1.00000
      6     -24.8968      1.00000
      7       0.0546      1.00000
      8       1.9712      1.00000
      9       2.0454      1.00000
     10       4.4418      1.05161
     11       4.5839      0.90574
     12       6.3099     -0.06619
     13       6.7214      0.00000
     14       7.8403      0.00000
     15       8.0344      0.00000
     16       9.2797      0.00000

 k-point    22 :       0.2857    0.1429    0.1429
  band No.  band energies     occupation 
      1     -25.9436      1.00000
      2     -25.6716      1.00000
      3     -25.5331      1.00000
      4     -25.3421      1.00000
      5     -25.0877      1.00000
      6     -24.9154      1.00000
      7       0.9324      1.00000
      8       2.4597      1.00000
      9       2.7319      1.00000
     10       4.2103      1.01435
     11       4.2430      1.07327
     12       5.1705      0.09300
     13       7.3979      0.00000
     14       7.7003      0.00000
     15       7.8353      0.00000
     16       8.5443      0.00000

 k-point    23 :       0.4286    0.1429    0.1429
  band No.  band energies     occupation 
      1     -25.9285      1.00000
      2     -25.7476      1.00000
      3     -25.4751      1.00000
      4     -25.2802      1.00000
      5     -25.2063      1.00000
      6     -24.9978      1.00000
      7       1.9221      1.00000
      8       2.6632      1.00000
      9       3.1912      1.00000
     10       3.8577      1.00870
     11       4.4940      1.00096
     12       4.9993      0.08675
     13       6.8256      0.00000
     14       6.8372      0.00000
     15       8.6134      0.00000
     16       8.8825      0.00000

 k-point    24 :      -0.4286    0.1429    0.1429
  band No.  band energies     occupation 
      1     -25.8694      1.00000
      2     -25.7878      1.00000
      3     -25.4951      1.00000
      4     -25.2603      1.00000
      5     -25.1381      1.00000
      6     -25.0888      1.00000
      7       1.9697      1.00000
      8       2.7056      1.00000
      9       3.2761      1.00000
     10       3.8988      1.00000
     11       4.7201      0.93510
     12       4.8006      0.38122
     13       6.5529      0.00000
     14       6.9280      0.00000
     15       8.5496      0.00000
     16       8.9402      0.00000

 k-point    25 :      -0.2857    0.1429    0.1429
  band No.  band energies     occupation 
      1     -25.8744      1.00000
      2     -25.6863      1.00000
      3     -25.5488      1.00000
      4     -25.3135      1.00000
      5     -25.0767      1.00000
      6     -25.0029      1.00000
      7       1.0122      1.00000
      8       2.5670      1.00000
      9       2.7674      1.00000
     10       4.3729      1.01204
     11       4.4416      1.04879
     12       5.1859      0.10194
     13       7.0206      0.00000
     14       7.6369      0.00000
     15       7.8344      0.00000
     16       8.3852      0.00000

[...]
  band No.  band energies     occupation 
      1     -25.9392      1.00000
      2     -25.8046      1.00000
      3     -25.4704      1.00000
      4     -25.2836      1.00000
      5     -25.1389      1.00000
      6     -24.9969      1.00000
      7       1.9505      1.00000
      8       2.7074      1.00000
      9       3.1519      1.00000
     10       3.7988      1.00000
     11       4.5508      1.00000
     12       4.9010      0.20400
     13       6.8351      0.00000
     14       6.9256      0.00000
     15       8.6576      0.00000
     16       8.8596      0.00000

 k-point    59 :       0.2857    0.2857    0.4286
  band No.  band energies     occupation 
      1     -25.8952      1.00000
      2     -25.8886      1.00000
      3     -25.6057      1.00000
      4     -25.3329      1.00000
      5     -25.1276      1.00000
      6     -25.1128      1.00000
      7       2.5495      1.00000
      8       2.6055      1.00000
      9       3.6018      1.00000
     10       3.7301      1.00000
     11       4.1210      1.00000
     12       4.3970      1.06812
     13       7.9045      0.00000
     14       7.9724      0.00000
     15       8.7899      0.00000
     16       8.7932      0.00000

 k-point    60 :       0.4286    0.2857    0.4286
  band No.  band energies     occupation 
      1     -25.9326      1.00000
      2     -25.9193      1.00000
      3     -25.5272      1.00000
      4     -25.4157      1.00000
      5     -25.1522      1.00000
      6     -25.1483      1.00000
      7       2.5451      1.00000
      8       2.6677      1.00000
      9       3.2532      1.00000
     10       3.5247      1.00000
     11       4.7511      0.87888
     12       4.8806      0.65608
     13       8.2958      0.00000
     14       8.4699      0.00000
     15       8.7707      0.00000
     16       8.8006      0.00000

 k-point    61 :      -0.4286    0.2857    0.4286
  band No.  band energies     occupation 
      1     -25.9881      1.00000
      2     -25.9410      1.00000
      3     -25.5578      1.00000
      4     -25.4002      1.00000
      5     -25.1392      1.00000
      6     -25.0605      1.00000
      7       2.5457      1.00000
      8       2.6813      1.00000
      9       3.2464      1.00000
     10       3.3408      1.00000
     11       4.7282      0.78996
     12       4.9300      0.44352
     13       8.4607      0.00000
     14       8.5082      0.00000
     15       8.7127      0.00000
     16       8.8649      0.00000

 k-point    62 :      -0.2857    0.2857    0.4286
  band No.  band energies     occupation 
      1     -25.9938      1.00000
      2     -25.9813      1.00000
      3     -25.5878      1.00000
      4     -25.3587      1.00000
      5     -25.0255      1.00000
      6     -24.9962      1.00000
      7       2.5991      1.00000
      8       2.6129      1.00000
      9       3.3603      1.00000
     10       3.3960      1.00000
     11       4.1378      1.01082
     12       4.5320      0.90697
     13       8.2267      0.00000
     14       8.2378      0.00000
     15       8.6500      0.00000
     16       8.8091      0.00000

 k-point    63 :       0.4286    0.4286    0.4286
  band No.  band energies     occupation 
      1     -25.7796      1.00000
      2     -25.6875      1.00000
      3     -25.6744      1.00000
      4     -25.4133      1.00000
      5     -25.3896      1.00000
      6     -25.3093      1.00000
      7       3.0221      1.00000
      8       3.4388      1.00000
      9       3.5678      1.00000
     10       3.9496      1.00000
     11       3.9564      1.00000
     12       4.2085      1.06096
     13       8.6804      0.00000
     14       8.7204      0.00000
     15       8.7986      0.00000
     16       8.8586      0.00000

 k-point    64 :      -0.4286    0.4286    0.4286
  band No.  band energies     occupation 
      1     -25.8330      1.00000
      2     -25.6911      1.00000
      3     -25.6806      1.00000
      4     -25.4186      1.00000
      5     -25.3892      1.00000
      6     -25.2373      1.00000
      7       3.0636      1.00000
      8       3.3665      1.00000
      9       3.4855      1.00000
     10       3.8614      1.00000
     11       4.1132      1.00000
     12       4.1896      1.18297
     13       8.7074      0.00000
     14       8.7508      0.00000
     15       8.8342      0.00000
     16       8.8589      0.00000


--------------------------------------------------------------------------------------------------------


 soft charge-density along one line, spin component           1
         0         1         2         3         4         5         6         7         8         9
 total charge-density along one line

 soft charge-density along one line, spin component           2
         0         1         2         3         4         5         6         7         8         9
 total charge-density along one line

 pseudopotential strength for first ion, spin component:           1
-28.107   0.000  -0.006   5.977  -0.000   0.005  -0.000  -0.000
  0.000 -28.105  -0.000  -0.000   5.976   0.000   0.000  -0.000
 -0.006  -0.000 -28.107   0.005   0.000   5.977  -0.000   0.000
  5.977  -0.000   0.005   4.218   0.000  -0.003   0.000   0.000
 -0.000   5.976   0.000   0.000   4.219   0.000  -0.000   0.000
  0.005   0.000   5.977  -0.003   0.000   4.218   0.000  -0.000
 -0.000   0.000  -0.000   0.000  -0.000   0.000  -6.357  -0.000
 -0.000  -0.000   0.000   0.000   0.000  -0.000  -0.000  -6.357
  0.000  -0.000  -0.000  -0.000   0.000   0.000   0.002   0.000
  0.000   0.000  -0.000  -0.000  -0.000   0.000   0.000  -0.001
  0.000  -0.000   0.000  -0.000   0.000  -0.000  -0.000  -0.000
 -0.000   0.000  -0.000   0.000  -0.000   0.000  -7.214  -0.000
 -0.000  -0.000   0.000   0.000   0.000  -0.000  -0.000  -7.214
  0.000  -0.000  -0.000  -0.000   0.000   0.000   0.002   0.000
  0.000   0.000  -0.000  -0.000  -0.000   0.000   0.000  -0.002
  0.000  -0.000   0.000  -0.000   0.000  -0.000  -0.000  -0.000
  0.000   0.000  -0.000   0.000  -0.000   0.000   0.003  -0.000
 -0.000  -0.000   0.000  -0.000  -0.000  -0.000  -0.007   0.000
 pseudopotential strength for first ion, spin component:           2
-28.107   0.000  -0.007   5.977  -0.000   0.005  -0.000  -0.000
  0.000 -28.105  -0.000  -0.000   5.976   0.000   0.000  -0.000
 -0.007  -0.000 -28.107   0.005   0.000   5.977  -0.000   0.000
  5.977  -0.000   0.005   4.218   0.000  -0.003   0.000   0.000
 -0.000   5.976   0.000   0.000   4.218   0.000  -0.000   0.000
  0.005   0.000   5.977  -0.003   0.000   4.218   0.000  -0.000
 -0.000   0.000  -0.000   0.000  -0.000   0.000  -6.358   0.000
 -0.000  -0.000   0.000   0.000   0.000  -0.000   0.000  -6.357
  0.000  -0.000  -0.000  -0.000   0.000   0.000   0.002   0.000
  0.000   0.000  -0.000  -0.000  -0.000   0.000   0.000  -0.001
  0.000  -0.000   0.000  -0.000   0.000  -0.000  -0.000  -0.000
 -0.000   0.000  -0.000   0.000  -0.000   0.000  -7.215   0.000
 -0.000  -0.000   0.000   0.000   0.000  -0.000   0.000  -7.214
  0.000  -0.000  -0.000  -0.000   0.000   0.000   0.002   0.000
  0.000   0.000  -0.000  -0.000  -0.000   0.000   0.000  -0.002
  0.000  -0.000   0.000  -0.000   0.000  -0.000  -0.000  -0.000
  0.000   0.000  -0.000   0.000  -0.000   0.000   0.003  -0.000
 -0.000  -0.000   0.000  -0.000  -0.000  -0.000  -0.007   0.000
 total augmentation occupancy for first ion, spin component:           1
  1.993   0.000  -0.000  -0.013  -0.000  -0.002   0.000   0.000  -0.000   0.000  -0.000  -0.000   0.000   0.000  -0.000   0.000
  0.000   1.993   0.000  -0.000  -0.013  -0.000  -0.000  -0.000   0.000   0.000   0.000   0.000   0.000   0.000   0.000   0.000
 -0.000   0.000   1.993  -0.002  -0.000  -0.013   0.000   0.000   0.000   0.000   0.000  -0.000  -0.000   0.000   0.000   0.000
 -0.013  -0.000  -0.002   0.203   0.000   0.007   0.000   0.000   0.000   0.000   0.000   0.000   0.000   0.000   0.000  -0.000
 -0.000  -0.013  -0.000   0.000   0.204   0.000   0.000  -0.000   0.000   0.000   0.000   0.000   0.000   0.000   0.000   0.000
 -0.002  -0.000  -0.013   0.007   0.000   0.203   0.000   0.000   0.000   0.000   0.000   0.000   0.000   0.000   0.000   0.000
  0.000   0.000   0.000   0.000   0.000   0.000   6.002   0.000   0.103   0.000   0.000  -3.344  -0.000  -0.075  -0.000  -0.000
  0.000  -0.000   0.000   0.000   0.000   0.000   0.000   6.017   0.000  -0.215  -0.000  -0.000  -3.353  -0.000   0.107   0.000
  0.000   0.000   0.000  -0.000   0.000   0.000   0.103   0.000   5.639   0.000   0.000  -0.074  -0.000  -3.326  -0.000  -0.000
  0.000   0.000   0.000   0.000   0.000   0.000   0.000  -0.215   0.000   6.017   0.000  -0.000   0.107  -0.000  -3.353  -0.000
 -0.000   0.000   0.000   0.000   0.000   0.000   0.000  -0.000   0.000   0.000   5.627   0.000   0.000  -0.000  -0.000  -3.318
  0.000   0.000   0.000   0.000   0.000   0.000  -3.344  -0.000  -0.074  -0.000   0.000   1.902   0.000   0.051   0.000  -0.000
  0.000   0.000   0.000   0.000   0.000   0.000  -0.000  -3.353  -0.000   0.107   0.000   0.000   1.907   0.000  -0.057  -0.000
  0.000   0.000   0.000   0.000   0.000   0.000  -0.075  -0.000  -3.326  -0.000  -0.000   0.051   0.000   1.980   0.000   0.000
  0.000   0.000   0.000   0.000   0.000   0.000  -0.000   0.107  -0.000  -3.353  -0.000   0.000  -0.057   0.000   1.907   0.000
  0.000   0.000   0.000  -0.000   0.000   0.000   0.000   0.000  -0.000  -0.000  -3.318  -0.000  -0.000   0.000   0.000   1.975
  0.000   0.000   0.000   0.000   0.000   0.000  -0.057  -0.000   0.004  -0.000   0.000   0.026   0.000  -0.001   0.000   0.000
 -0.000   0.000   0.000   0.000  -0.000   0.000  -0.001   0.000   0.000  -0.000   0.000   0.001   0.000  -0.000   0.000  -0.000
 total augmentation occupancy for first ion, spin component:           2
  0.000   0.000  -0.000   0.000   0.000  -0.000  -0.000   0.000  -0.000   0.000   0.000   0.000   0.000   0.000   0.000   0.000
  0.000   0.000   0.000   0.000   0.000   0.000   0.000   0.000   0.000   0.000   0.000   0.000   0.000   0.000  -0.000   0.000
 -0.000   0.000   0.000  -0.000   0.000   0.000  -0.000   0.000   0.000   0.000  -0.000   0.000   0.000   0.000   0.000   0.000
  0.000   0.000  -0.000  -0.000  -0.000  -0.000   0.000  -0.000   0.000   0.000   0.000   0.000   0.000   0.000   0.000   0.000
  0.000   0.000   0.000  -0.000  -0.000  -0.000   0.000   0.000   0.000   0.000   0.000   0.000   0.000   0.000   0.000  -0.000
 -0.000   0.000   0.000  -0.000  -0.000  -0.000   0.000   0.000   0.000   0.000   0.000   0.000   0.000   0.000   0.000   0.000
  0.000  -0.000  -0.000   0.000   0.000   0.000  -0.004  -0.000   0.000  -0.000   0.000   0.002   0.000  -0.000   0.000  -0.000
  0.000   0.000   0.000  -0.000   0.000   0.000  -0.000  -0.001   0.000  -0.000   0.000   0.000   0.001  -0.000   0.000  -0.000
  0.000   0.000   0.000   0.000   0.000   0.000   0.000   0.000  -0.007   0.000  -0.000  -0.000  -0.000   0.005  -0.000   0.000
  0.000   0.000  -0.000   0.000   0.000   0.000  -0.000  -0.000   0.000  -0.001  -0.000   0.000   0.000  -0.000   0.001   0.000
 -0.000   0.000   0.000   0.000   0.000   0.000   0.000   0.000  -0.000  -0.000  -0.006  -0.000  -0.000   0.000   0.000   0.005
  0.000  -0.000   0.000   0.000   0.000   0.000   0.002   0.000  -0.000   0.000  -0.000  -0.001  -0.000  -0.000  -0.000   0.000
  0.000   0.000   0.000   0.000   0.000   0.000   0.000   0.001  -0.000   0.000  -0.000  -0.000  -0.001   0.000  -0.000   0.000
  0.000   0.000   0.000  -0.000   0.000   0.000  -0.000  -0.000   0.005  -0.000   0.000  -0.000   0.000  -0.004   0.000  -0.000
  0.000   0.000   0.000   0.000   0.000   0.000   0.000   0.000  -0.000   0.001   0.000  -0.000  -0.000   0.000  -0.001  -0.000
  0.000   0.000  -0.000   0.000   0.000   0.000  -0.000  -0.000   0.000   0.000   0.005   0.000   0.000  -0.000  -0.000  -0.004
 -0.000   0.000  -0.000   0.000   0.000   0.000  -0.001  -0.000   0.000  -0.000  -0.000   0.001   0.000  -0.000   0.000   0.000
  0.000   0.000  -0.000  -0.000   0.000   0.000   0.000   0.000  -0.000   0.000  -0.000  -0.000  -0.000   0.000  -0.000   0.000


------------------------ aborting loop because EDIFF is reached ----------------------------------------





 total charge

# of ion       s       p       d       tot
------------------------------------------
    1        0.419   6.290   3.087   9.795
    2        0.419   6.290   3.087   9.795
--------------------------------------------------
tot          0.838  12.579   6.173  19.590



 magnetization (x)

# of ion       s       p       d       tot
------------------------------------------
    1       -0.000  -0.000  -0.001  -0.001
    2       -0.000  -0.000  -0.001  -0.001
--------------------------------------------------
tot         -0.000  -0.001  -0.001  -0.002

    CHARGE:  cpu time     29.4814: real time      1.6561
    FORLOC:  cpu time      0.0005: real time      0.0005
    FORNL :  cpu time    118.9391: real time      6.6534
    STRESS:  cpu time    442.6471: real time     24.0164
    FORCOR:  cpu time      1.3161: real time      0.1140
    FORHAR:  cpu time      0.1745: real time      0.0114
    MIXING:  cpu time      0.0016: real time      0.0016
    OFIELD:  cpu time      0.0000: real time      0.0000

  FORCE on cell =-STRESS in cart. coord.  units (eV):
  Direction    XX          YY          ZZ          XY          YZ          ZX
  --------------------------------------------------------------------------------------
  Alpha Z   247.02244   247.02244   247.02244
  Ewald    -636.63118  -636.63118  -635.31479   -15.59406    -0.00000    -0.00000
  Hartree    82.07117    82.07117    82.69901    -6.05360    -0.00000    -0.00000
  E(xc)     -95.07473   -95.07473   -95.07327     0.00504     0.00000     0.00000
  Local     204.24861   204.24861   202.26818    21.21114     0.00000    -0.00000
  n-local   -88.20173   -81.22597   -84.69081     0.49686    -0.46764     1.12709
  augment    53.53991    53.53991    53.55904    -0.05182    -0.00000     0.00000
  Kinetic   222.43358   236.50905   229.50689    -0.06580    -0.85470    -0.07460
  Fock        0.00000     0.00000     0.00000     0.00000     0.00000     0.00000
  -------------------------------------------------------------------------------------
  Total      -0.06631    -0.06631    -0.02330    -0.05003     0.00000     0.00000
  in kB      -2.89860    -2.89860    -1.01828    -2.18698     0.00000     0.00000
  external pressure =       -2.27 kB  Pullay stress =        0.00 kB


 VOLUME and BASIS-vectors are now :
 -----------------------------------------------------------------------------
  energy-cutoff  :      520.00
  volume of cell :       36.65
      direct lattice vectors                 reciprocal lattice vectors
     3.322222359  0.066444447  0.000000000     0.301123782 -0.006022476  0.000000000
     0.066444447  3.322222359  0.000000000    -0.006022476  0.301123782  0.000000000
     0.000000000  0.000000000  3.322222359    -0.000000000 -0.000000000  0.301003332

  length of vectors
     3.322886737  3.322886737  3.322222359     0.301184000  0.301184000  0.301003332


 FORCES acting on ions
    electron-ion (+dipol)            ewald-force                    non-local-force                 convergence-correction
 -----------------------------------------------------------------------------------------------
   -.761E-14 -.136E-13 -.137E-13   -.633E-14 -.427E-14 -.261E-14   0.348E-21 0.112E-21 -.309E-21   -.866E-14 -.172E-13 0.347E-13
   0.177E-12 0.152E-11 0.160E-11   0.780E-14 0.702E-14 0.217E-14   0.144E-21 0.126E-21 0.113E-22   -.145E-13 -.514E-13 -.280E-13
 -----------------------------------------------------------------------------------------------
   0.169E-12 0.150E-11 0.158E-11   0.147E-14 0.275E-14 -.434E-15   0.491E-21 0.238E-21 -.298E-21   -.231E-13 -.686E-13 0.671E-14


 POSITION                                       TOTAL-FORCE (eV/Angst)
 -----------------------------------------------------------------------------------
      0.00000      0.00000      0.00000         0.000000     -0.000000     -0.000000
      1.69433      1.69433      1.66111        -0.000000      0.000000      0.000000
 -----------------------------------------------------------------------------------
    total drift:                                0.000000      0.000000      0.000000


--------------------------------------------------------------------------------------------------------



  FREE ENERGIE OF THE ION-ELECTRON SYSTEM (eV)
  ---------------------------------------------------
  free  energy   TOTEN  =       -20.20338337 eV

  energy  without entropy=      -20.20338337  energy(sigma->0) =      -20.20338337



--------------------------------------------------------------------------------------------------------


    POTLOK:  cpu time      3.4024: real time      0.4118


--------------------------------------------------------------------------------------------------------


     LOOP+:  cpu time   8730.2048: real time    451.3169
 -----------------------------------------------------------------------------
|                                                                             |
|           W    W    AA    RRRRR   N    N  II  N    N   GGGG   !!!           |
|           W    W   A  A   R    R  NN   N  II  NN   N  G    G  !!!           |
|           W    W  A    A  R    R  N N  N  II  N N  N  G       !!!           |
|           W WW W  AAAAAA  RRRRR   N  N N  II  N  N N  G  GGG   !            |
|           WW  WW  A    A  R   R   N   NN  II  N   NN  G    G                |
|           W    W  A    A  R    R  N    N  II  N    N   GGGG   !!!           |
|                                                                             |
|     Tetrahedron method does not include variations of the Fermi             |
|     occupations, so forces and stress will be inaccurate. We suggest        |
|     using a different smearing scheme ISMEAR = 1 or 2 for metals in         |
|     relaxations.                                                            |
|                                                                             |
 -----------------------------------------------------------------------------

    4ORBIT:  cpu time      0.0000: real time      0.0000



 total charge

# of ion       s       p       d       tot
------------------------------------------
    1        0.419   6.290   3.087   9.795
    2        0.419   6.290   3.087   9.795
--------------------------------------------------
tot          0.838  12.579   6.173  19.590



 magnetization (x)

# of ion       s       p       d       tot
------------------------------------------
    1       -0.000  -0.000  -0.001  -0.001
    2       -0.000  -0.000  -0.001  -0.001
--------------------------------------------------
tot         -0.000  -0.001  -0.001  -0.002

 BZINTS: Fermi energy:    4.859960;   22.000000 electrons
         Band energy:-0.274521E+03;  BLOECHL correction:   -0.204114

 total amount of memory used by VASP MPI-rank0    91178. kBytes
=======================================================================

   base      :      30000. kBytes
   nonlr-proj:       6266. kBytes
   fftplans  :       6192. kBytes
   grid      :      14776. kBytes
   one-center:         62. kBytes
   wavefun   :      33882. kBytes

  
  
 General timing and accounting informations for this job:
 ========================================================
  
                  Total CPU time used (sec):     8902.645
                            User time (sec):     8670.955
                          System time (sec):      231.689
                         Elapsed time (sec):      460.391
  
                   Maximum memory used (kb):      501084.
                   Average memory used (kb):          N/A
  
                          Minor page faults:      7187621
                          Major page faults:          138
                 Voluntary context switches:      2464509
