  16  16   1   0
  0.1737286E+02  0.4055673E-09  0.4055673E-09  0.1689917E-08  0.5000000E-15
  1.000000000000000E-004
  CAR 
 unknown system                          
     15.85632036    -45.27799824  301      7.07166287      1.00000000
    -45.278  0.0000E+00  0.0000E+00  0.0000E+00  0.0000E+00
    -45.074  0.0000E+00  0.0000E+00  0.0000E+00  0.0000E+00
    -44.870  0.0000E+00  0.0000E+00  0.0000E+00  0.0000E+00
    -44.667  0.0000E+00  0.0000E+00  0.0000E+00  0.0000E+00
    -44.463  0.0000E+00  0.0000E+00  0.0000E+00  0.0000E+00
    -44.259  0.0000E+00  0.0000E+00  0.0000E+00  0.0000E+00
    -44.055  0.0000E+00  0.0000E+00  0.0000E+00  0.0000E+00
    -43.852  0.0000E+00  0.0000E+00  0.0000E+00  0.0000E+00
    -43.648  0.0000E+00  0.0000E+00  0.0000E+00  0.0000E+00
    -43.444  0.0000E+00  0.0000E+00  0.0000E+00  0.0000E+00
    -43.240  0.0000E+00  0.0000E+00  0.0000E+00  0.0000E+00
    -43.036  0.1079E-02  0.0000E+00  0.2198E-03  0.0000E+00
    -42.833  0.6237E-01  0.0000E+00  0.1293E-01  0.0000E+00
    -42.629  0.3443E+01  0.0000E+00  0.7146E+00  0.0000E+00
    -42.425  0.4247E+02  0.0000E+00  0.9370E+01  0.0000E+00
    -42.221  0.1262E+02  0.0000E+00  0.1194E+02  0.0000E+00
    -42.018  0.0000E+00  0.0000E+00  0.1200E+02  0.0000E+00
    -41.814  0.0000E+00  0.0000E+00  0.1200E+02  0.0000E+00
    -41.610  0.0000E+00  0.0000E+00  0.1200E+02  0.0000E+00
    -41.406  0.0000E+00  0.0000E+00  0.1200E+02  0.0000E+00
    -41.202  0.0000E+00  0.0000E+00  0.1200E+02  0.0000E+00
    -40.999  0.0000E+00  0.0000E+00  0.1200E+02  0.0000E+00
    -40.795  0.0000E+00  0.0000E+00  0.1200E+02  0.0000E+00
    -40.591  0.0000E+00  0.0000E+00  0.1200E+02  0.0000E+00
    -40.387  0.0000E+00  0.0000E+00  0.1200E+02  0.0000E+00
    -40.183  0.0000E+00  0.0000E+00  0.1200E+02  0.0000E+00
    -39.980  0.0000E+00  0.0000E+00  0.1200E+02  0.0000E+00
    -39.776  0.0000E+00  0.0000E+00  0.1200E+02  0.0000E+00
    -39.572  0.0000E+00  0.1189E-01  0.1200E+02  0.2423E-02
    -39.368  0.0000E+00  0.6803E+00  0.1200E+02  0.1411E+00
    -39.165  0.0000E+00  0.2356E+02  0.1200E+02  0.4942E+01
    -38.961  0.0000E+00  0.3324E+02  0.1200E+02  0.1172E+02
    -38.757  0.0000E+00  0.1371E+01  0.1200E+02  0.1200E+02
    -38.553  0.0000E+00  0.0000E+00  0.1200E+02  0.1200E+02
    -38.349  0.0000E+00  0.0000E+00  0.1200E+02  0.1200E+02
    -38.146  0.0000E+00  0.0000E+00  0.1200E+02  0.1200E+02
    -37.942  0.0000E+00  0.0000E+00  0.1200E+02  0.1200E+02
    -37.738  0.0000E+00  0.0000E+00  0.1200E+02  0.1200E+02
    -37.534  0.0000E+00  0.0000E+00  0.1200E+02  0.1200E+02
    -37.331  0.0000E+00  0.0000E+00  0.1200E+02  0.1200E+02
    -37.127  0.0000E+00  0.0000E+00  0.1200E+02  0.1200E+02
    -36.923  0.0000E+00  0.0000E+00  0.1200E+02  0.1200E+02
    -36.719  0.0000E+00  0.0000E+00  0.1200E+02  0.1200E+02
    -36.515  0.0000E+00  0.0000E+00  0.1200E+02  0.1200E+02
    -36.312  0.0000E+00  0.0000E+00  0.1200E+02  0.1200E+02
    -36.108  0.0000E+00  0.0000E+00  0.1200E+02  0.1200E+02
    -35.904  0.0000E+00  0.0000E+00  0.1200E+02  0.1200E+02
    -35.700  0.0000E+00  0.0000E+00  0.1200E+02  0.1200E+02
    -35.497  0.0000E+00  0.0000E+00  0.1200E+02  0.1200E+02
    -35.293  0.0000E+00  0.0000E+00  0.1200E+02  0.1200E+02
    -35.089  0.0000E+00  0.0000E+00  0.1200E+02  0.1200E+02
    -34.885  0.0000E+00  0.0000E+00  0.1200E+02  0.1200E+02
    -34.681  0.0000E+00  0.0000E+00  0.1200E+02  0.1200E+02
    -34.478  0.0000E+00  0.0000E+00  0.1200E+02  0.1200E+02
    -34.274  0.0000E+00  0.0000E+00  0.1200E+02  0.1200E+02
    -34.070  0.0000E+00  0.0000E+00  0.1200E+02  0.1200E+02
    -33.866  0.0000E+00  0.0000E+00  0.1200E+02  0.1200E+02
    -33.662  0.0000E+00  0.0000E+00  0.1200E+02  0.1200E+02
    -33.459  0.0000E+00  0.0000E+00  0.1200E+02  0.1200E+02
    -33.255  0.0000E+00  0.0000E+00  0.1200E+02  0.1200E+02
    -33.051  0.0000E+00  0.0000E+00  0.1200E+02  0.1200E+02
    -32.847  0.0000E+00  0.0000E+00  0.1200E+02  0.1200E+02
    -32.644  0.0000E+00  0.0000E+00  0.1200E+02  0.1200E+02
    -32.440  0.0000E+00  0.0000E+00  0.1200E+02  0.1200E+02
    -32.236  0.0000E+00  0.0000E+00  0.1200E+02  0.1200E+02
    -32.032  0.0000E+00  0.0000E+00  0.1200E+02  0.1200E+02
    -31.828  0.0000E+00  0.0000E+00  0.1200E+02  0.1200E+02
    -31.625  0.0000E+00  0.0000E+00  0.1200E+02  0.1200E+02
    -31.421  0.0000E+00  0.0000E+00  0.1200E+02  0.1200E+02
    -31.217  0.0000E+00  0.0000E+00  0.1200E+02  0.1200E+02
    -31.013  0.0000E+00  0.0000E+00  0.1200E+02  0.1200E+02
    -30.810  0.0000E+00  0.0000E+00  0.1200E+02  0.1200E+02
    -30.606  0.0000E+00  0.0000E+00  0.1200E+02  0.1200E+02
    -30.402  0.0000E+00  0.0000E+00  0.1200E+02  0.1200E+02
    -30.198  0.0000E+00  0.0000E+00  0.1200E+02  0.1200E+02
    -29.994  0.0000E+00  0.0000E+00  0.1200E+02  0.1200E+02
    -29.791  0.0000E+00  0.0000E+00  0.1200E+02  0.1200E+02
    -29.587  0.0000E+00  0.0000E+00  0.1200E+02  0.1200E+02
    -29.383  0.0000E+00  0.0000E+00  0.1200E+02  0.1200E+02
    -29.179  0.0000E+00  0.0000E+00  0.1200E+02  0.1200E+02
    -28.976  0.0000E+00  0.0000E+00  0.1200E+02  0.1200E+02
    -28.772  0.0000E+00  0.0000E+00  0.1200E+02  0.1200E+02
    -28.568  0.0000E+00  0.0000E+00  0.1200E+02  0.1200E+02
    -28.364  0.0000E+00  0.0000E+00  0.1200E+02  0.1200E+02
    -28.160  0.0000E+00  0.0000E+00  0.1200E+02  0.1200E+02
    -27.957  0.0000E+00  0.0000E+00  0.1200E+02  0.1200E+02
    -27.753  0.0000E+00  0.0000E+00  0.1200E+02  0.1200E+02
    -27.549  0.0000E+00  0.0000E+00  0.1200E+02  0.1200E+02
    -27.345  0.0000E+00  0.0000E+00  0.1200E+02  0.1200E+02
    -27.141  0.0000E+00  0.0000E+00  0.1200E+02  0.1200E+02
    -26.938  0.0000E+00  0.0000E+00  0.1200E+02  0.1200E+02
    -26.734  0.0000E+00  0.0000E+00  0.1200E+02  0.1200E+02
    -26.530  0.0000E+00  0.0000E+00  0.1200E+02  0.1200E+02
    -26.326  0.0000E+00  0.0000E+00  0.1200E+02  0.1200E+02
    -26.123  0.0000E+00  0.0000E+00  0.1200E+02  0.1200E+02
    -25.919  0.0000E+00  0.0000E+00  0.1200E+02  0.1200E+02
    -25.715  0.0000E+00  0.0000E+00  0.1200E+02  0.1200E+02
    -25.511  0.0000E+00  0.0000E+00  0.1200E+02  0.1200E+02
    -25.307  0.0000E+00  0.0000E+00  0.1200E+02  0.1200E+02
    -25.104  0.0000E+00  0.0000E+00  0.1200E+02  0.1200E+02
    -24.900  0.0000E+00  0.0000E+00  0.1200E+02  0.1200E+02
    -24.696  0.0000E+00  0.0000E+00  0.1200E+02  0.1200E+02
    -24.492  0.0000E+00  0.0000E+00  0.1200E+02  0.1200E+02
    -24.289  0.0000E+00  0.0000E+00  0.1200E+02  0.1200E+02
    -24.085  0.0000E+00  0.0000E+00  0.1200E+02  0.1200E+02
    -23.881  0.0000E+00  0.0000E+00  0.1200E+02  0.1200E+02
    -23.677  0.0000E+00  0.0000E+00  0.1200E+02  0.1200E+02
    -23.473  0.0000E+00  0.0000E+00  0.1200E+02  0.1200E+02
    -23.270  0.0000E+00  0.0000E+00  0.1200E+02  0.1200E+02
    -23.066  0.0000E+00  0.0000E+00  0.1200E+02  0.1200E+02
    -22.862  0.0000E+00  0.0000E+00  0.1200E+02  0.1200E+02
    -22.658  0.0000E+00  0.0000E+00  0.1200E+02  0.1200E+02
    -22.455  0.0000E+00  0.0000E+00  0.1200E+02  0.1200E+02
    -22.251  0.0000E+00  0.0000E+00  0.1200E+02  0.1200E+02
    -22.047  0.0000E+00  0.0000E+00  0.1200E+02  0.1200E+02
    -21.843  0.0000E+00  0.0000E+00  0.1200E+02  0.1200E+02
    -21.639  0.0000E+00  0.0000E+00  0.1200E+02  0.1200E+02
    -21.436  0.0000E+00  0.0000E+00  0.1200E+02  0.1200E+02
    -21.232  0.0000E+00  0.0000E+00  0.1200E+02  0.1200E+02
    -21.028  0.0000E+00  0.0000E+00  0.1200E+02  0.1200E+02
    -20.824  0.0000E+00  0.0000E+00  0.1200E+02  0.1200E+02
    -20.620  0.0000E+00  0.0000E+00  0.1200E+02  0.1200E+02
    -20.417  0.0000E+00  0.0000E+00  0.1200E+02  0.1200E+02
    -20.213  0.0000E+00  0.0000E+00  0.1200E+02  0.1200E+02
    -20.009  0.0000E+00  0.0000E+00  0.1200E+02  0.1200E+02
    -19.805  0.0000E+00  0.0000E+00  0.1200E+02  0.1200E+02
    -19.602  0.0000E+00  0.0000E+00  0.1200E+02  0.1200E+02
    -19.398  0.0000E+00  0.0000E+00  0.1200E+02  0.1200E+02
    -19.194  0.0000E+00  0.0000E+00  0.1200E+02  0.1200E+02
    -18.990  0.0000E+00  0.0000E+00  0.1200E+02  0.1200E+02
    -18.786  0.0000E+00  0.0000E+00  0.1200E+02  0.1200E+02
    -18.583  0.0000E+00  0.0000E+00  0.1200E+02  0.1200E+02
    -18.379  0.0000E+00  0.0000E+00  0.1200E+02  0.1200E+02
    -18.175  0.0000E+00  0.0000E+00  0.1200E+02  0.1200E+02
    -17.971  0.0000E+00  0.0000E+00  0.1200E+02  0.1200E+02
    -17.768  0.0000E+00  0.0000E+00  0.1200E+02  0.1200E+02
    -17.564  0.0000E+00  0.0000E+00  0.1200E+02  0.1200E+02
    -17.360  0.0000E+00  0.0000E+00  0.1200E+02  0.1200E+02
    -17.156  0.0000E+00  0.0000E+00  0.1200E+02  0.1200E+02
    -16.952  0.0000E+00  0.0000E+00  0.1200E+02  0.1200E+02
    -16.749  0.0000E+00  0.0000E+00  0.1200E+02  0.1200E+02
    -16.545  0.0000E+00  0.0000E+00  0.1200E+02  0.1200E+02
    -16.341  0.0000E+00  0.0000E+00  0.1200E+02  0.1200E+02
    -16.137  0.0000E+00  0.0000E+00  0.1200E+02  0.1200E+02
    -15.934  0.0000E+00  0.0000E+00  0.1200E+02  0.1200E+02
    -15.730  0.0000E+00  0.0000E+00  0.1200E+02  0.1200E+02
    -15.526  0.0000E+00  0.0000E+00  0.1200E+02  0.1200E+02
    -15.322  0.0000E+00  0.0000E+00  0.1200E+02  0.1200E+02
    -15.118  0.0000E+00  0.0000E+00  0.1200E+02  0.1200E+02
    -14.915  0.0000E+00  0.0000E+00  0.1200E+02  0.1200E+02
    -14.711  0.0000E+00  0.0000E+00  0.1200E+02  0.1200E+02
    -14.507  0.0000E+00  0.0000E+00  0.1200E+02  0.1200E+02
    -14.303  0.0000E+00  0.0000E+00  0.1200E+02  0.1200E+02
    -14.099  0.0000E+00  0.0000E+00  0.1200E+02  0.1200E+02
    -13.896  0.0000E+00  0.0000E+00  0.1200E+02  0.1200E+02
    -13.692  0.0000E+00  0.0000E+00  0.1200E+02  0.1200E+02
    -13.488  0.0000E+00  0.0000E+00  0.1200E+02  0.1200E+02
    -13.284  0.0000E+00  0.0000E+00  0.1200E+02  0.1200E+02
    -13.081  0.0000E+00  0.0000E+00  0.1200E+02  0.1200E+02
    -12.877  0.0000E+00  0.0000E+00  0.1200E+02  0.1200E+02
    -12.673  0.0000E+00  0.0000E+00  0.1200E+02  0.1200E+02
    -12.469  0.0000E+00  0.0000E+00  0.1200E+02  0.1200E+02
    -12.265  0.0000E+00  0.0000E+00  0.1200E+02  0.1200E+02
    -12.062  0.0000E+00  0.0000E+00  0.1200E+02  0.1200E+02
    -11.858  0.0000E+00  0.0000E+00  0.1200E+02  0.1200E+02
    -11.654  0.0000E+00  0.0000E+00  0.1200E+02  0.1200E+02
    -11.450  0.0000E+00  0.0000E+00  0.1200E+02  0.1200E+02
    -11.247  0.0000E+00  0.0000E+00  0.1200E+02  0.1200E+02
    -11.043  0.0000E+00  0.0000E+00  0.1200E+02  0.1200E+02
    -10.839  0.0000E+00  0.0000E+00  0.1200E+02  0.1200E+02
    -10.635  0.0000E+00  0.0000E+00  0.1200E+02  0.1200E+02
    -10.431  0.0000E+00  0.0000E+00  0.1200E+02  0.1200E+02
    -10.228  0.0000E+00  0.0000E+00  0.1200E+02  0.1200E+02
    -10.024  0.0000E+00  0.0000E+00  0.1200E+02  0.1200E+02
     -9.820  0.0000E+00  0.0000E+00  0.1200E+02  0.1200E+02
     -9.616  0.0000E+00  0.0000E+00  0.1200E+02  0.1200E+02
     -9.413  0.0000E+00  0.0000E+00  0.1200E+02  0.1200E+02
     -9.209  0.0000E+00  0.0000E+00  0.1200E+02  0.1200E+02
     -9.005  0.0000E+00  0.0000E+00  0.1200E+02  0.1200E+02
     -8.801  0.0000E+00  0.0000E+00  0.1200E+02  0.1200E+02
     -8.597  0.0000E+00  0.0000E+00  0.1200E+02  0.1200E+02
     -8.394  0.0000E+00  0.0000E+00  0.1200E+02  0.1200E+02
     -8.190  0.0000E+00  0.0000E+00  0.1200E+02  0.1200E+02
     -7.986  0.0000E+00  0.0000E+00  0.1200E+02  0.1200E+02
     -7.782  0.0000E+00  0.0000E+00  0.1200E+02  0.1200E+02
     -7.579  0.0000E+00  0.0000E+00  0.1200E+02  0.1200E+02
     -7.375  0.0000E+00  0.0000E+00  0.1200E+02  0.1200E+02
     -7.171  0.0000E+00  0.0000E+00  0.1200E+02  0.1200E+02
     -6.967  0.0000E+00  0.0000E+00  0.1200E+02  0.1200E+02
     -6.763  0.0000E+00  0.0000E+00  0.1200E+02  0.1200E+02
     -6.560  0.0000E+00  0.0000E+00  0.1200E+02  0.1200E+02
     -6.356  0.0000E+00  0.0000E+00  0.1200E+02  0.1200E+02
     -6.152  0.0000E+00  0.0000E+00  0.1200E+02  0.1200E+02
     -5.948  0.0000E+00  0.0000E+00  0.1200E+02  0.1200E+02
     -5.744  0.0000E+00  0.0000E+00  0.1200E+02  0.1200E+02
     -5.541  0.0000E+00  0.0000E+00  0.1200E+02  0.1200E+02
     -5.337  0.0000E+00  0.0000E+00  0.1200E+02  0.1200E+02
     -5.133  0.0000E+00  0.0000E+00  0.1200E+02  0.1200E+02
     -4.929  0.0000E+00  0.0000E+00  0.1200E+02  0.1200E+02
     -4.726  0.0000E+00  0.0000E+00  0.1200E+02  0.1200E+02
     -4.522  0.0000E+00  0.0000E+00  0.1200E+02  0.1200E+02
     -4.318  0.0000E+00  0.0000E+00  0.1200E+02  0.1200E+02
     -4.114  0.0000E+00  0.0000E+00  0.1200E+02  0.1200E+02
     -3.910  0.0000E+00  0.0000E+00  0.1200E+02  0.1200E+02
     -3.707  0.0000E+00  0.0000E+00  0.1200E+02  0.1200E+02
     -3.503  0.1437E-06  0.4032E-06  0.1200E+02  0.1200E+02
     -3.299  0.3985E-04  0.4719E-04  0.1200E+02  0.1200E+02
     -3.095  0.2340E-02  0.2778E-02  0.1200E+02  0.1200E+02
     -2.892  0.7781E-01  0.8699E-01  0.1202E+02  0.1202E+02
     -2.688  0.3614E+00  0.3776E+00  0.1209E+02  0.1210E+02
     -2.484  0.5721E+00  0.5811E+00  0.1221E+02  0.1221E+02
     -2.280  0.7496E+00  0.7634E+00  0.1236E+02  0.1237E+02
     -2.076  0.8105E+00  0.8305E+00  0.1253E+02  0.1254E+02
     -1.873  0.1038E+01  0.1069E+01  0.1274E+02  0.1276E+02
     -1.669  0.1011E+01  0.1012E+01  0.1294E+02  0.1296E+02
     -1.465  0.1269E+01  0.1336E+01  0.1320E+02  0.1324E+02
     -1.261  0.1310E+01  0.1304E+01  0.1347E+02  0.1350E+02
     -1.058  0.1452E+01  0.1573E+01  0.1377E+02  0.1383E+02
     -0.854  0.1569E+01  0.1552E+01  0.1409E+02  0.1414E+02
     -0.650  0.1631E+01  0.1613E+01  0.1442E+02  0.1447E+02
     -0.446  0.1292E+01  0.1204E+01  0.1469E+02  0.1472E+02
     -0.242  0.1592E+01  0.1583E+01  0.1501E+02  0.1504E+02
     -0.039  0.1532E+01  0.1380E+01  0.1533E+02  0.1532E+02
      0.165  0.1857E+01  0.1786E+01  0.1571E+02  0.1569E+02
      0.369  0.1657E+01  0.1634E+01  0.1605E+02  0.1602E+02
      0.573  0.1981E+01  0.1961E+01  0.1645E+02  0.1642E+02
      0.777  0.2168E+01  0.2121E+01  0.1689E+02  0.1686E+02
      0.980  0.2132E+01  0.2044E+01  0.1733E+02  0.1728E+02
      1.184  0.1976E+01  0.1899E+01  0.1774E+02  0.1767E+02
      1.388  0.2158E+01  0.2075E+01  0.1818E+02  0.1809E+02
      1.592  0.2286E+01  0.1818E+01  0.1864E+02  0.1846E+02
      1.795  0.2609E+01  0.2579E+01  0.1918E+02  0.1899E+02
      1.999  0.2299E+01  0.2152E+01  0.1965E+02  0.1943E+02
      2.203  0.2770E+01  0.2389E+01  0.2021E+02  0.1992E+02
      2.407  0.2888E+01  0.2494E+01  0.2081E+02  0.2043E+02
      2.611  0.3225E+01  0.2685E+01  0.2147E+02  0.2098E+02
      2.814  0.2563E+01  0.2486E+01  0.2199E+02  0.2149E+02
      3.018  0.2853E+01  0.2129E+01  0.2258E+02  0.2192E+02
      3.222  0.3375E+01  0.2388E+01  0.2327E+02  0.2241E+02
      3.426  0.3739E+01  0.2734E+01  0.2403E+02  0.2297E+02
      3.629  0.4686E+01  0.2814E+01  0.2499E+02  0.2355E+02
      3.833  0.5398E+01  0.2819E+01  0.2609E+02  0.2413E+02
      4.037  0.7400E+01  0.3356E+01  0.2761E+02  0.2481E+02
      4.241  0.8647E+01  0.3214E+01  0.2938E+02  0.2547E+02
      4.445  0.1125E+02  0.3366E+01  0.3168E+02  0.2616E+02
      4.648  0.1415E+02  0.3485E+01  0.3457E+02  0.2688E+02
      4.852  0.1382E+02  0.4139E+01  0.3740E+02  0.2772E+02
      5.056  0.9013E+01  0.3655E+01  0.3925E+02  0.2847E+02
      5.260  0.1199E+02  0.3458E+01  0.4170E+02  0.2918E+02
      5.463  0.7154E+01  0.4210E+01  0.4317E+02  0.3004E+02
      5.667  0.6039E+01  0.4440E+01  0.4441E+02  0.3095E+02
      5.871  0.5112E+01  0.5137E+01  0.4546E+02  0.3200E+02
      6.075  0.3809E+01  0.5271E+01  0.4624E+02  0.3308E+02
      6.279  0.2848E+01  0.5149E+01  0.4682E+02  0.3413E+02
      6.482  0.3621E+01  0.5418E+01  0.4757E+02  0.3524E+02
      6.686  0.4659E+01  0.5011E+01  0.4852E+02  0.3626E+02
      6.890  0.4201E+01  0.4589E+01  0.4938E+02  0.3720E+02
      7.094  0.3808E+01  0.3992E+01  0.5016E+02  0.3802E+02
      7.298  0.3883E+01  0.4555E+01  0.5096E+02  0.3895E+02
      7.501  0.3417E+01  0.5265E+01  0.5166E+02  0.4003E+02
      7.705  0.3166E+01  0.6608E+01  0.5230E+02  0.4138E+02
      7.909  0.3611E+01  0.8733E+01  0.5304E+02  0.4317E+02
      8.113  0.3283E+01  0.1223E+02  0.5371E+02  0.4566E+02
      8.316  0.3422E+01  0.1199E+02  0.5442E+02  0.4812E+02
      8.520  0.3926E+01  0.6142E+01  0.5522E+02  0.4938E+02
      8.724  0.4448E+01  0.6866E+01  0.5613E+02  0.5079E+02
      8.928  0.3824E+01  0.8240E+01  0.5691E+02  0.5247E+02
      9.132  0.3488E+01  0.7333E+01  0.5763E+02  0.5397E+02
      9.335  0.3524E+01  0.5559E+01  0.5835E+02  0.5511E+02
      9.539  0.3848E+01  0.5175E+01  0.5914E+02  0.5617E+02
      9.743  0.4118E+01  0.5214E+01  0.5998E+02  0.5724E+02
      9.947  0.3864E+01  0.6010E+01  0.6077E+02  0.5847E+02
     10.150  0.3316E+01  0.5256E+01  0.6145E+02  0.5955E+02
     10.354  0.3414E+01  0.4264E+01  0.6215E+02  0.6042E+02
     10.558  0.3871E+01  0.4186E+01  0.6294E+02  0.6128E+02
     10.762  0.3961E+01  0.4088E+01  0.6375E+02  0.6212E+02
     10.966  0.3094E+01  0.4214E+01  0.6439E+02  0.6298E+02
     11.169  0.3896E+01  0.3439E+01  0.6518E+02  0.6369E+02
     11.373  0.4155E+01  0.3896E+01  0.6603E+02  0.6448E+02
     11.577  0.3348E+01  0.4428E+01  0.6672E+02  0.6539E+02
     11.781  0.2058E+01  0.4036E+01  0.6715E+02  0.6622E+02
     11.984  0.1588E+01  0.3020E+01  0.6747E+02  0.6684E+02
     12.188  0.8522E+00  0.2514E+01  0.6765E+02  0.6735E+02
     12.392  0.6717E+00  0.1129E+01  0.6779E+02  0.6759E+02
     12.596  0.6099E+00  0.7956E+00  0.6791E+02  0.6775E+02
     12.800  0.3041E+00  0.7031E+00  0.6797E+02  0.6789E+02
     13.003  0.1133E+00  0.3957E+00  0.6800E+02  0.6798E+02
     13.207  0.8492E-02  0.1147E+00  0.6800E+02  0.6800E+02
     13.411  0.0000E+00  0.2644E-02  0.6800E+02  0.6800E+02
     13.615  0.0000E+00  0.0000E+00  0.6800E+02  0.6800E+02
     13.819  0.0000E+00  0.0000E+00  0.6800E+02  0.6800E+02
     14.022  0.0000E+00  0.0000E+00  0.6800E+02  0.6800E+02
     14.226  0.0000E+00  0.0000E+00  0.6800E+02  0.6800E+02
     14.430  0.0000E+00  0.0000E+00  0.6800E+02  0.6800E+02
     14.634  0.0000E+00  0.0000E+00  0.6800E+02  0.6800E+02
     14.837  0.0000E+00  0.0000E+00  0.6800E+02  0.6800E+02
     15.041  0.0000E+00  0.0000E+00  0.6800E+02  0.6800E+02
     15.245  0.0000E+00  0.0000E+00  0.6800E+02  0.6800E+02
     15.449  0.0000E+00  0.0000E+00  0.6800E+02  0.6800E+02
     15.653  0.0000E+00  0.0000E+00  0.6800E+02  0.6800E+02
     15.856  0.0000E+00  0.0000E+00  0.6800E+02  0.6800E+02
     15.85632036    -45.27799824  301      7.07166287      1.00000000
    -45.278  0.0000E+00  0.0000E+00  0.0000E+00  0.0000E+00  0.0000E+00  0.0000E+00  0.0000E+00  0.0000E+00  0.0000E+00  0.0000E+00  0.0000E+00  0.0000E+00  0.0000E+00  0.0000E+00  0.0000E+00  0.0000E+00  0.0000E+00  0.0000E+00
    -45.074  0.0000E+00  0.0000E+00  0.0000E+00  0.0000E+00  0.0000E+00  0.0000E+00  0.0000E+00  0.0000E+00  0.0000E+00  0.0000E+00  0.0000E+00  0.0000E+00  0.0000E+00  0.0000E+00  0.0000E+00  0.0000E+00  0.0000E+00  0.0000E+00
    -44.870  0.0000E+00  0.0000E+00  0.0000E+00  0.0000E+00  0.0000E+00  0.0000E+00  0.0000E+00  0.0000E+00  0.0000E+00  0.0000E+00  0.0000E+00  0.0000E+00  0.0000E+00  0.0000E+00  0.0000E+00  0.0000E+00  0.0000E+00  0.0000E+00
    -44.667  0.0000E+00  0.0000E+00  0.0000E+00  0.0000E+00  0.0000E+00  0.0000E+00  0.0000E+00  0.0000E+00  0.0000E+00  0.0000E+00  0.0000E+00  0.0000E+00  0.0000E+00  0.0000E+00  0.0000E+00  0.0000E+00  0.0000E+00  0.0000E+00
    -44.463  0.0000E+00  0.0000E+00  0.0000E+00  0.0000E+00  0.0000E+00  0.0000E+00  0.0000E+00  0.0000E+00  0.0000E+00  0.0000E+00  0.0000E+00  0.0000E+00  0.0000E+00  0.0000E+00  0.0000E+00  0.0000E+00  0.0000E+00  0.0000E+00
    -44.259  0.0000E+00  0.0000E+00  0.0000E+00  0.0000E+00  0.0000E+00  0.0000E+00  0.0000E+00  0.0000E+00  0.0000E+00  0.0000E+00  0.0000E+00  0.0000E+00  0.0000E+00  0.0000E+00  0.0000E+00  0.0000E+00  0.0000E+00  0.0000E+00
    -44.055  0.0000E+00  0.0000E+00  0.0000E+00  0.0000E+00  0.0000E+00  0.0000E+00  0.0000E+00  0.0000E+00  0.0000E+00  0.0000E+00  0.0000E+00  0.0000E+00  0.0000E+00  0.0000E+00  0.0000E+00  0.0000E+00  0.0000E+00  0.0000E+00
    -43.852  0.0000E+00  0.0000E+00  0.0000E+00  0.0000E+00  0.0000E+00  0.0000E+00  0.0000E+00  0.0000E+00  0.0000E+00  0.0000E+00  0.0000E+00  0.0000E+00  0.0000E+00  0.0000E+00  0.0000E+00  0.0000E+00  0.0000E+00  0.0000E+00
    -43.648  0.0000E+00  0.0000E+00  0.0000E+00  0.0000E+00  0.0000E+00  0.0000E+00  0.0000E+00  0.0000E+00  0.0000E+00  0.0000E+00  0.0000E+00  0.0000E+00  0.0000E+00  0.0000E+00  0.0000E+00  0.0000E+00  0.0000E+00  0.0000E+00
    -43.444  0.0000E+00  0.0000E+00  0.0000E+00  0.0000E+00  0.0000E+00  0.0000E+00  0.0000E+00  0.0000E+00  0.0000E+00  0.0000E+00  0.0000E+00  0.0000E+00  0.0000E+00  0.0000E+00  0.0000E+00  0.0000E+00  0.0000E+00  0.0000E+00
    -43.240  0.0000E+00  0.0000E+00  0.0000E+00  0.0000E+00  0.0000E+00  0.0000E+00  0.0000E+00  0.0000E+00  0.0000E+00  0.0000E+00  0.0000E+00  0.0000E+00  0.0000E+00  0.0000E+00  0.0000E+00  0.0000E+00  0.0000E+00  0.0000E+00
    -43.036  0.1003E-10  0.0000E+00  0.1039E-03  0.0000E+00  0.6036E-04  0.0000E+00  0.1039E-03  0.0000E+00  0.3252E-14  0.0000E+00  0.6549E-11  0.0000E+00  0.8359E-11  0.0000E+00  0.6549E-11  0.0000E+00  0.9968E-13  0.0000E+00
    -42.833  0.5802E-09  0.0000E+00  0.6009E-02  0.0000E+00  0.3491E-02  0.0000E+00  0.6009E-02  0.0000E+00  0.1880E-12  0.0000E+00  0.3786E-09  0.0000E+00  0.4835E-09  0.0000E+00  0.3786E-09  0.0000E+00  0.5763E-11  0.0000E+00
    -42.629  0.3275E-07  0.0000E+00  0.3295E+00  0.0000E+00  0.1971E+00  0.0000E+00  0.3295E+00  0.0000E+00  0.1031E-10  0.0000E+00  0.2076E-07  0.0000E+00  0.2730E-07  0.0000E+00  0.2076E-07  0.0000E+00  0.3160E-09  0.0000E+00
    -42.425  0.5457E-06  0.0000E+00  0.3632E+01  0.0000E+00  0.3295E+01  0.0000E+00  0.3632E+01  0.0000E+00  0.1144E-09  0.0000E+00  0.2289E-06  0.0000E+00  0.4556E-06  0.0000E+00  0.2289E-06  0.0000E+00  0.3485E-08  0.0000E+00
    -42.221  0.2232E-06  0.0000E+00  0.8936E+00  0.0000E+00  0.1352E+01  0.0000E+00  0.8936E+00  0.0000E+00  0.2856E-10  0.0000E+00  0.5632E-07  0.0000E+00  0.1867E-06  0.0000E+00  0.5632E-07  0.0000E+00  0.8576E-09  0.0000E+00
    -42.018  0.0000E+00  0.0000E+00  0.0000E+00  0.0000E+00  0.0000E+00  0.0000E+00  0.0000E+00  0.0000E+00  0.0000E+00  0.0000E+00  0.0000E+00  0.0000E+00  0.0000E+00  0.0000E+00  0.0000E+00  0.0000E+00  0.0000E+00  0.0000E+00
    -41.814  0.0000E+00  0.0000E+00  0.0000E+00  0.0000E+00  0.0000E+00  0.0000E+00  0.0000E+00  0.0000E+00  0.0000E+00  0.0000E+00  0.0000E+00  0.0000E+00  0.0000E+00  0.0000E+00  0.0000E+00  0.0000E+00  0.0000E+00  0.0000E+00
    -41.610  0.0000E+00  0.0000E+00  0.0000E+00  0.0000E+00  0.0000E+00  0.0000E+00  0.0000E+00  0.0000E+00  0.0000E+00  0.0000E+00  0.0000E+00  0.0000E+00  0.0000E+00  0.0000E+00  0.0000E+00  0.0000E+00  0.0000E+00  0.0000E+00
    -41.406  0.0000E+00  0.0000E+00  0.0000E+00  0.0000E+00  0.0000E+00  0.0000E+00  0.0000E+00  0.0000E+00  0.0000E+00  0.0000E+00  0.0000E+00  0.0000E+00  0.0000E+00  0.0000E+00  0.0000E+00  0.0000E+00  0.0000E+00  0.0000E+00
    -41.202  0.0000E+00  0.0000E+00  0.0000E+00  0.0000E+00  0.0000E+00  0.0000E+00  0.0000E+00  0.0000E+00  0.0000E+00  0.0000E+00  0.0000E+00  0.0000E+00  0.0000E+00  0.0000E+00  0.0000E+00  0.0000E+00  0.0000E+00  0.0000E+00
    -40.999  0.0000E+00  0.0000E+00  0.0000E+00  0.0000E+00  0.0000E+00  0.0000E+00  0.0000E+00  0.0000E+00  0.0000E+00  0.0000E+00  0.0000E+00  0.0000E+00  0.0000E+00  0.0000E+00  0.0000E+00  0.0000E+00  0.0000E+00  0.0000E+00
    -40.795  0.0000E+00  0.0000E+00  0.0000E+00  0.0000E+00  0.0000E+00  0.0000E+00  0.0000E+00  0.0000E+00  0.0000E+00  0.0000E+00  0.0000E+00  0.0000E+00  0.0000E+00  0.0000E+00  0.0000E+00  0.0000E+00  0.0000E+00  0.0000E+00
    -40.591  0.0000E+00  0.0000E+00  0.0000E+00  0.0000E+00  0.0000E+00  0.0000E+00  0.0000E+00  0.0000E+00  0.0000E+00  0.0000E+00  0.0000E+00  0.0000E+00  0.0000E+00  0.0000E+00  0.0000E+00  0.0000E+00  0.0000E+00  0.0000E+00
    -40.387  0.0000E+00  0.0000E+00  0.0000E+00  0.0000E+00  0.0000E+00  0.0000E+00  0.0000E+00  0.0000E+00  0.0000E+00  0.0000E+00  0.0000E+00  0.0000E+00  0.0000E+00  0.0000E+00  0.0000E+00  0.0000E+00  0.0000E+00  0.0000E+00
    -40.183  0.0000E+00  0.0000E+00  0.0000E+00  0.0000E+00  0.0000E+00  0.0000E+00  0.0000E+00  0.0000E+00  0.0000E+00  0.0000E+00  0.0000E+00  0.0000E+00  0.0000E+00  0.0000E+00  0.0000E+00  0.0000E+00  0.0000E+00  0.0000E+00
    -39.980  0.0000E+00  0.0000E+00  0.0000E+00  0.0000E+00  0.0000E+00  0.0000E+00  0.0000E+00  0.0000E+00  0.0000E+00  0.0000E+00  0.0000E+00  0.0000E+00  0.0000E+00  0.0000E+00  0.0000E+00  0.0000E+00  0.0000E+00  0.0000E+00
    -39.776  0.0000E+00  0.0000E+00  0.0000E+00  0.0000E+00  0.0000E+00  0.0000E+00  0.0000E+00  0.0000E+00  0.0000E+00  0.0000E+00  0.0000E+00  0.0000E+00  0.0000E+00  0.0000E+00  0.0000E+00  0.0000E+00  0.0000E+00  0.0000E+00
    -39.572  0.0000E+00  0.1407E-09  0.0000E+00  0.9662E-03  0.0000E+00  0.1025E-02  0.0000E+00  0.9662E-03  0.0000E+00  0.5921E-13  0.0000E+00  0.4752E-10  0.0000E+00  0.1057E-09  0.0000E+00  0.4752E-10  0.0000E+00  0.1695E-11
    -39.368  0.0000E+00  0.8045E-08  0.0000E+00  0.5529E-01  0.0000E+00  0.5863E-01  0.0000E+00  0.5529E-01  0.0000E+00  0.3388E-11  0.0000E+00  0.2719E-08  0.0000E+00  0.6045E-08  0.0000E+00  0.2719E-08  0.0000E+00  0.9699E-10
    -39.165  0.0000E+00  0.2742E-06  0.0000E+00  0.1931E+01  0.0000E+00  0.1998E+01  0.0000E+00  0.1931E+01  0.0000E+00  0.1181E-09  0.0000E+00  0.9496E-07  0.0000E+00  0.2060E-06  0.0000E+00  0.9496E-07  0.0000E+00  0.3387E-08
    -38.961  0.0000E+00  0.3728E-06  0.0000E+00  0.2777E+01  0.0000E+00  0.2713E+01  0.0000E+00  0.2777E+01  0.0000E+00  0.1691E-09  0.0000E+00  0.1366E-06  0.0000E+00  0.2798E-06  0.0000E+00  0.1366E-06  0.0000E+00  0.4871E-08
    -38.757  0.0000E+00  0.1502E-07  0.0000E+00  0.1158E+00  0.0000E+00  0.1093E+00  0.0000E+00  0.1158E+00  0.0000E+00  0.7034E-11  0.0000E+00  0.5696E-08  0.0000E+00  0.1127E-07  0.0000E+00  0.5696E-08  0.0000E+00  0.2031E-09
    -38.553  0.0000E+00  0.0000E+00  0.0000E+00  0.0000E+00  0.0000E+00  0.0000E+00  0.0000E+00  0.0000E+00  0.0000E+00  0.0000E+00  0.0000E+00  0.0000E+00  0.0000E+00  0.0000E+00  0.0000E+00  0.0000E+00  0.0000E+00  0.0000E+00
    -38.349  0.0000E+00  0.0000E+00  0.0000E+00  0.0000E+00  0.0000E+00  0.0000E+00  0.0000E+00  0.0000E+00  0.0000E+00  0.0000E+00  0.0000E+00  0.0000E+00  0.0000E+00  0.0000E+00  0.0000E+00  0.0000E+00  0.0000E+00  0.0000E+00
    -38.146  0.0000E+00  0.0000E+00  0.0000E+00  0.0000E+00  0.0000E+00  0.0000E+00  0.0000E+00  0.0000E+00  0.0000E+00  0.0000E+00  0.0000E+00  0.0000E+00  0.0000E+00  0.0000E+00  0.0000E+00  0.0000E+00  0.0000E+00  0.0000E+00
    -37.942  0.0000E+00  0.0000E+00  0.0000E+00  0.0000E+00  0.0000E+00  0.0000E+00  0.0000E+00  0.0000E+00  0.0000E+00  0.0000E+00  0.0000E+00  0.0000E+00  0.0000E+00  0.0000E+00  0.0000E+00  0.0000E+00  0.0000E+00  0.0000E+00
    -37.738  0.0000E+00  0.0000E+00  0.0000E+00  0.0000E+00  0.0000E+00  0.0000E+00  0.0000E+00  0.0000E+00  0.0000E+00  0.0000E+00  0.0000E+00  0.0000E+00  0.0000E+00  0.0000E+00  0.0000E+00  0.0000E+00  0.0000E+00  0.0000E+00
    -37.534  0.0000E+00  0.0000E+00  0.0000E+00  0.0000E+00  0.0000E+00  0.0000E+00  0.0000E+00  0.0000E+00  0.0000E+00  0.0000E+00  0.0000E+00  0.0000E+00  0.0000E+00  0.0000E+00  0.0000E+00  0.0000E+00  0.0000E+00  0.0000E+00
    -37.331  0.0000E+00  0.0000E+00  0.0000E+00  0.0000E+00  0.0000E+00  0.0000E+00  0.0000E+00  0.0000E+00  0.0000E+00  0.0000E+00  0.0000E+00  0.0000E+00  0.0000E+00  0.0000E+00  0.0000E+00  0.0000E+00  0.0000E+00  0.0000E+00
    -37.127  0.0000E+00  0.0000E+00  0.0000E+00  0.0000E+00  0.0000E+00  0.0000E+00  0.0000E+00  0.0000E+00  0.0000E+00  0.0000E+00  0.0000E+00  0.0000E+00  0.0000E+00  0.0000E+00  0.0000E+00  0.0000E+00  0.0000E+00  0.0000E+00
    -36.923  0.0000E+00  0.0000E+00  0.0000E+00  0.0000E+00  0.0000E+00  0.0000E+00  0.0000E+00  0.0000E+00  0.0000E+00  0.0000E+00  0.0000E+00  0.0000E+00  0.0000E+00  0.0000E+00  0.0000E+00  0.0000E+00  0.0000E+00  0.0000E+00
    -36.719  0.0000E+00  0.0000E+00  0.0000E+00  0.0000E+00  0.0000E+00  0.0000E+00  0.0000E+00  0.0000E+00  0.0000E+00  0.0000E+00  0.0000E+00  0.0000E+00  0.0000E+00  0.0000E+00  0.0000E+00  0.0000E+00  0.0000E+00  0.0000E+00
    -36.515  0.0000E+00  0.0000E+00  0.0000E+00  0.0000E+00  0.0000E+00  0.0000E+00  0.0000E+00  0.0000E+00  0.0000E+00  0.0000E+00  0.0000E+00  0.0000E+00  0.0000E+00  0.0000E+00  0.0000E+00  0.0000E+00  0.0000E+00  0.0000E+00
    -36.312  0.0000E+00  0.0000E+00  0.0000E+00  0.0000E+00  0.0000E+00  0.0000E+00  0.0000E+00  0.0000E+00  0.0000E+00  0.0000E+00  0.0000E+00  0.0000E+00  0.0000E+00  0.0000E+00  0.0000E+00  0.0000E+00  0.0000E+00  0.0000E+00
    -36.108  0.0000E+00  0.0000E+00  0.0000E+00  0.0000E+00  0.0000E+00  0.0000E+00  0.0000E+00  0.0000E+00  0.0000E+00  0.0000E+00  0.0000E+00  0.0000E+00  0.0000E+00  0.0000E+00  0.0000E+00  0.0000E+00  0.0000E+00  0.0000E+00
    -35.904  0.0000E+00  0.0000E+00  0.0000E+00  0.0000E+00  0.0000E+00  0.0000E+00  0.0000E+00  0.0000E+00  0.0000E+00  0.0000E+00  0.0000E+00  0.0000E+00  0.0000E+00  0.0000E+00  0.0000E+00  0.0000E+00  0.0000E+00  0.0000E+00
    -35.700  0.0000E+00  0.0000E+00  0.0000E+00  0.0000E+00  0.0000E+00  0.0000E+00  0.0000E+00  0.0000E+00  0.0000E+00  0.0000E+00  0.0000E+00  0.0000E+00  0.0000E+00  0.0000E+00  0.0000E+00  0.0000E+00  0.0000E+00  0.0000E+00
    -35.497  0.0000E+00  0.0000E+00  0.0000E+00  0.0000E+00  0.0000E+00  0.0000E+00  0.0000E+00  0.0000E+00  0.0000E+00  0.0000E+00  0.0000E+00  0.0000E+00  0.0000E+00  0.0000E+00  0.0000E+00  0.0000E+00  0.0000E+00  0.0000E+00
    -35.293  0.0000E+00  0.0000E+00  0.0000E+00  0.0000E+00  0.0000E+00  0.0000E+00  0.0000E+00  0.0000E+00  0.0000E+00  0.0000E+00  0.0000E+00  0.0000E+00  0.0000E+00  0.0000E+00  0.0000E+00  0.0000E+00  0.0000E+00  0.0000E+00
    -35.089  0.0000E+00  0.0000E+00  0.0000E+00  0.0000E+00  0.0000E+00  0.0000E+00  0.0000E+00  0.0000E+00  0.0000E+00  0.0000E+00  0.0000E+00  0.0000E+00  0.0000E+00  0.0000E+00  0.0000E+00  0.0000E+00  0.0000E+00  0.0000E+00