  16  16   1   0
  0.1177887E+02  0.3562928E-09  0.3562928E-09  0.1484600E-08  0.5000000E-15
  1.000000000000000E-004
  CAR 
 unknown system                          
     22.29478360    -40.02260278  301     11.37527859      1.00000000
    -40.023  0.0000E+00  0.0000E+00  0.0000E+00  0.0000E+00
    -39.815  0.0000E+00  0.0000E+00  0.0000E+00  0.0000E+00
    -39.607  0.0000E+00  0.0000E+00  0.0000E+00  0.0000E+00
    -39.399  0.0000E+00  0.0000E+00  0.0000E+00  0.0000E+00
    -39.192  0.0000E+00  0.0000E+00  0.0000E+00  0.0000E+00
    -38.984  0.0000E+00  0.0000E+00  0.0000E+00  0.0000E+00
    -38.776  0.0000E+00  0.0000E+00  0.0000E+00  0.0000E+00
    -38.569  0.0000E+00  0.0000E+00  0.0000E+00  0.0000E+00
    -38.361  0.0000E+00  0.0000E+00  0.0000E+00  0.0000E+00
    -38.153  0.0000E+00  0.0000E+00  0.0000E+00  0.0000E+00
    -37.945  0.0000E+00  0.0000E+00  0.0000E+00  0.0000E+00
    -37.738  0.6106E-03  0.0000E+00  0.1268E-03  0.0000E+00
    -37.530  0.4008E-01  0.0000E+00  0.8453E-02  0.0000E+00
    -37.322  0.2404E+01  0.0000E+00  0.5078E+00  0.0000E+00
    -37.114  0.3385E+02  0.0000E+00  0.7540E+01  0.0000E+00
    -36.907  0.2057E+02  0.0000E+00  0.1181E+02  0.0000E+00
    -36.699  0.7422E+00  0.0000E+00  0.1200E+02  0.0000E+00
    -36.491  0.0000E+00  0.0000E+00  0.1200E+02  0.0000E+00
    -36.284  0.0000E+00  0.0000E+00  0.1200E+02  0.0000E+00
    -36.076  0.0000E+00  0.1232E-02  0.1200E+02  0.2559E-03
    -35.868  0.0000E+00  0.7716E-01  0.1200E+02  0.1628E-01
    -35.660  0.0000E+00  0.4513E+01  0.1200E+02  0.9538E+00
    -35.453  0.0000E+00  0.4407E+02  0.1200E+02  0.1011E+02
    -35.245  0.0000E+00  0.8935E+01  0.1200E+02  0.1196E+02
    -35.037  0.0000E+00  0.0000E+00  0.1200E+02  0.1200E+02
    -34.829  0.0000E+00  0.0000E+00  0.1200E+02  0.1200E+02
    -34.622  0.0000E+00  0.0000E+00  0.1200E+02  0.1200E+02
    -34.414  0.0000E+00  0.0000E+00  0.1200E+02  0.1200E+02
    -34.206  0.0000E+00  0.0000E+00  0.1200E+02  0.1200E+02
    -33.999  0.0000E+00  0.0000E+00  0.1200E+02  0.1200E+02
    -33.791  0.0000E+00  0.0000E+00  0.1200E+02  0.1200E+02
    -33.583  0.0000E+00  0.0000E+00  0.1200E+02  0.1200E+02
    -33.375  0.0000E+00  0.0000E+00  0.1200E+02  0.1200E+02
    -33.168  0.0000E+00  0.0000E+00  0.1200E+02  0.1200E+02
    -32.960  0.0000E+00  0.0000E+00  0.1200E+02  0.1200E+02
    -32.752  0.0000E+00  0.0000E+00  0.1200E+02  0.1200E+02
    -32.545  0.0000E+00  0.0000E+00  0.1200E+02  0.1200E+02
    -32.337  0.0000E+00  0.0000E+00  0.1200E+02  0.1200E+02
    -32.129  0.0000E+00  0.0000E+00  0.1200E+02  0.1200E+02
    -31.921  0.0000E+00  0.0000E+00  0.1200E+02  0.1200E+02
    -31.714  0.0000E+00  0.0000E+00  0.1200E+02  0.1200E+02
    -31.506  0.0000E+00  0.0000E+00  0.1200E+02  0.1200E+02
    -31.298  0.0000E+00  0.0000E+00  0.1200E+02  0.1200E+02
    -31.090  0.0000E+00  0.0000E+00  0.1200E+02  0.1200E+02
    -30.883  0.0000E+00  0.0000E+00  0.1200E+02  0.1200E+02
    -30.675  0.0000E+00  0.0000E+00  0.1200E+02  0.1200E+02
    -30.467  0.0000E+00  0.0000E+00  0.1200E+02  0.1200E+02
    -30.260  0.0000E+00  0.0000E+00  0.1200E+02  0.1200E+02
    -30.052  0.0000E+00  0.0000E+00  0.1200E+02  0.1200E+02
    -29.844  0.0000E+00  0.0000E+00  0.1200E+02  0.1200E+02
    -29.636  0.0000E+00  0.0000E+00  0.1200E+02  0.1200E+02
    -29.429  0.0000E+00  0.0000E+00  0.1200E+02  0.1200E+02
    -29.221  0.0000E+00  0.0000E+00  0.1200E+02  0.1200E+02
    -29.013  0.0000E+00  0.0000E+00  0.1200E+02  0.1200E+02
    -28.805  0.0000E+00  0.0000E+00  0.1200E+02  0.1200E+02
    -28.598  0.0000E+00  0.0000E+00  0.1200E+02  0.1200E+02
    -28.390  0.0000E+00  0.0000E+00  0.1200E+02  0.1200E+02
    -28.182  0.0000E+00  0.0000E+00  0.1200E+02  0.1200E+02
    -27.975  0.0000E+00  0.0000E+00  0.1200E+02  0.1200E+02
    -27.767  0.0000E+00  0.0000E+00  0.1200E+02  0.1200E+02
    -27.559  0.0000E+00  0.0000E+00  0.1200E+02  0.1200E+02
    -27.351  0.0000E+00  0.0000E+00  0.1200E+02  0.1200E+02
    -27.144  0.0000E+00  0.0000E+00  0.1200E+02  0.1200E+02
    -26.936  0.0000E+00  0.0000E+00  0.1200E+02  0.1200E+02
    -26.728  0.0000E+00  0.0000E+00  0.1200E+02  0.1200E+02
    -26.521  0.0000E+00  0.0000E+00  0.1200E+02  0.1200E+02
    -26.313  0.0000E+00  0.0000E+00  0.1200E+02  0.1200E+02
    -26.105  0.0000E+00  0.0000E+00  0.1200E+02  0.1200E+02
    -25.897  0.0000E+00  0.0000E+00  0.1200E+02  0.1200E+02
    -25.690  0.0000E+00  0.0000E+00  0.1200E+02  0.1200E+02
    -25.482  0.0000E+00  0.0000E+00  0.1200E+02  0.1200E+02
    -25.274  0.0000E+00  0.0000E+00  0.1200E+02  0.1200E+02
    -25.066  0.0000E+00  0.0000E+00  0.1200E+02  0.1200E+02
    -24.859  0.0000E+00  0.0000E+00  0.1200E+02  0.1200E+02
    -24.651  0.0000E+00  0.0000E+00  0.1200E+02  0.1200E+02
    -24.443  0.0000E+00  0.0000E+00  0.1200E+02  0.1200E+02
    -24.236  0.0000E+00  0.0000E+00  0.1200E+02  0.1200E+02
    -24.028  0.0000E+00  0.0000E+00  0.1200E+02  0.1200E+02
    -23.820  0.0000E+00  0.0000E+00  0.1200E+02  0.1200E+02
    -23.612  0.0000E+00  0.0000E+00  0.1200E+02  0.1200E+02
    -23.405  0.0000E+00  0.0000E+00  0.1200E+02  0.1200E+02
    -23.197  0.0000E+00  0.0000E+00  0.1200E+02  0.1200E+02
    -22.989  0.0000E+00  0.0000E+00  0.1200E+02  0.1200E+02
    -22.781  0.0000E+00  0.0000E+00  0.1200E+02  0.1200E+02
    -22.574  0.0000E+00  0.0000E+00  0.1200E+02  0.1200E+02
    -22.366  0.0000E+00  0.0000E+00  0.1200E+02  0.1200E+02
    -22.158  0.0000E+00  0.0000E+00  0.1200E+02  0.1200E+02
    -21.951  0.0000E+00  0.0000E+00  0.1200E+02  0.1200E+02
    -21.743  0.0000E+00  0.0000E+00  0.1200E+02  0.1200E+02
    -21.535  0.0000E+00  0.0000E+00  0.1200E+02  0.1200E+02
    -21.327  0.0000E+00  0.0000E+00  0.1200E+02  0.1200E+02
    -21.120  0.0000E+00  0.0000E+00  0.1200E+02  0.1200E+02
    -20.912  0.0000E+00  0.0000E+00  0.1200E+02  0.1200E+02
    -20.704  0.0000E+00  0.0000E+00  0.1200E+02  0.1200E+02
    -20.496  0.0000E+00  0.0000E+00  0.1200E+02  0.1200E+02
    -20.289  0.0000E+00  0.0000E+00  0.1200E+02  0.1200E+02
    -20.081  0.0000E+00  0.0000E+00  0.1200E+02  0.1200E+02
    -19.873  0.0000E+00  0.0000E+00  0.1200E+02  0.1200E+02
    -19.666  0.0000E+00  0.0000E+00  0.1200E+02  0.1200E+02
    -19.458  0.0000E+00  0.0000E+00  0.1200E+02  0.1200E+02
    -19.250  0.0000E+00  0.0000E+00  0.1200E+02  0.1200E+02
    -19.042  0.0000E+00  0.0000E+00  0.1200E+02  0.1200E+02
    -18.835  0.0000E+00  0.0000E+00  0.1200E+02  0.1200E+02
    -18.627  0.0000E+00  0.0000E+00  0.1200E+02  0.1200E+02
    -18.419  0.0000E+00  0.0000E+00  0.1200E+02  0.1200E+02
    -18.212  0.0000E+00  0.0000E+00  0.1200E+02  0.1200E+02
    -18.004  0.0000E+00  0.0000E+00  0.1200E+02  0.1200E+02
    -17.796  0.0000E+00  0.0000E+00  0.1200E+02  0.1200E+02
    -17.588  0.0000E+00  0.0000E+00  0.1200E+02  0.1200E+02
    -17.381  0.0000E+00  0.0000E+00  0.1200E+02  0.1200E+02
    -17.173  0.0000E+00  0.0000E+00  0.1200E+02  0.1200E+02
    -16.965  0.0000E+00  0.0000E+00  0.1200E+02  0.1200E+02
    -16.757  0.0000E+00  0.0000E+00  0.1200E+02  0.1200E+02
    -16.550  0.0000E+00  0.0000E+00  0.1200E+02  0.1200E+02
    -16.342  0.0000E+00  0.0000E+00  0.1200E+02  0.1200E+02
    -16.134  0.0000E+00  0.0000E+00  0.1200E+02  0.1200E+02
    -15.927  0.0000E+00  0.0000E+00  0.1200E+02  0.1200E+02
    -15.719  0.0000E+00  0.0000E+00  0.1200E+02  0.1200E+02
    -15.511  0.0000E+00  0.0000E+00  0.1200E+02  0.1200E+02
    -15.303  0.0000E+00  0.0000E+00  0.1200E+02  0.1200E+02
    -15.096  0.0000E+00  0.0000E+00  0.1200E+02  0.1200E+02
    -14.888  0.0000E+00  0.0000E+00  0.1200E+02  0.1200E+02
    -14.680  0.0000E+00  0.0000E+00  0.1200E+02  0.1200E+02
    -14.472  0.0000E+00  0.0000E+00  0.1200E+02  0.1200E+02
    -14.265  0.0000E+00  0.0000E+00  0.1200E+02  0.1200E+02
    -14.057  0.0000E+00  0.0000E+00  0.1200E+02  0.1200E+02
    -13.849  0.0000E+00  0.0000E+00  0.1200E+02  0.1200E+02
    -13.642  0.0000E+00  0.0000E+00  0.1200E+02  0.1200E+02
    -13.434  0.0000E+00  0.0000E+00  0.1200E+02  0.1200E+02
    -13.226  0.0000E+00  0.0000E+00  0.1200E+02  0.1200E+02
    -13.018  0.0000E+00  0.0000E+00  0.1200E+02  0.1200E+02
    -12.811  0.0000E+00  0.0000E+00  0.1200E+02  0.1200E+02
    -12.603  0.0000E+00  0.0000E+00  0.1200E+02  0.1200E+02
    -12.395  0.0000E+00  0.0000E+00  0.1200E+02  0.1200E+02
    -12.188  0.0000E+00  0.0000E+00  0.1200E+02  0.1200E+02
    -11.980  0.0000E+00  0.0000E+00  0.1200E+02  0.1200E+02
    -11.772  0.0000E+00  0.0000E+00  0.1200E+02  0.1200E+02
    -11.564  0.0000E+00  0.0000E+00  0.1200E+02  0.1200E+02
    -11.357  0.0000E+00  0.0000E+00  0.1200E+02  0.1200E+02
    -11.149  0.0000E+00  0.0000E+00  0.1200E+02  0.1200E+02
    -10.941  0.0000E+00  0.0000E+00  0.1200E+02  0.1200E+02
    -10.733  0.0000E+00  0.0000E+00  0.1200E+02  0.1200E+02
    -10.526  0.0000E+00  0.0000E+00  0.1200E+02  0.1200E+02
    -10.318  0.0000E+00  0.0000E+00  0.1200E+02  0.1200E+02
    -10.110  0.0000E+00  0.0000E+00  0.1200E+02  0.1200E+02
     -9.903  0.0000E+00  0.0000E+00  0.1200E+02  0.1200E+02
     -9.695  0.0000E+00  0.0000E+00  0.1200E+02  0.1200E+02
     -9.487  0.0000E+00  0.0000E+00  0.1200E+02  0.1200E+02
     -9.279  0.0000E+00  0.0000E+00  0.1200E+02  0.1200E+02
     -9.072  0.0000E+00  0.0000E+00  0.1200E+02  0.1200E+02
     -8.864  0.0000E+00  0.0000E+00  0.1200E+02  0.1200E+02
     -8.656  0.0000E+00  0.0000E+00  0.1200E+02  0.1200E+02
     -8.448  0.0000E+00  0.0000E+00  0.1200E+02  0.1200E+02
     -8.241  0.0000E+00  0.0000E+00  0.1200E+02  0.1200E+02
     -8.033  0.0000E+00  0.0000E+00  0.1200E+02  0.1200E+02
     -7.825  0.0000E+00  0.0000E+00  0.1200E+02  0.1200E+02
     -7.618  0.0000E+00  0.0000E+00  0.1200E+02  0.1200E+02
     -7.410  0.0000E+00  0.0000E+00  0.1200E+02  0.1200E+02
     -7.202  0.0000E+00  0.0000E+00  0.1200E+02  0.1200E+02
     -6.994  0.0000E+00  0.0000E+00  0.1200E+02  0.1200E+02
     -6.787  0.0000E+00  0.0000E+00  0.1200E+02  0.1200E+02
     -6.579  0.0000E+00  0.0000E+00  0.1200E+02  0.1200E+02
     -6.371  0.0000E+00  0.0000E+00  0.1200E+02  0.1200E+02
     -6.163  0.0000E+00  0.0000E+00  0.1200E+02  0.1200E+02
     -5.956  0.0000E+00  0.0000E+00  0.1200E+02  0.1200E+02
     -5.748  0.0000E+00  0.0000E+00  0.1200E+02  0.1200E+02
     -5.540  0.0000E+00  0.0000E+00  0.1200E+02  0.1200E+02
     -5.333  0.0000E+00  0.0000E+00  0.1200E+02  0.1200E+02
     -5.125  0.0000E+00  0.0000E+00  0.1200E+02  0.1200E+02
     -4.917  0.0000E+00  0.0000E+00  0.1200E+02  0.1200E+02
     -4.709  0.0000E+00  0.0000E+00  0.1200E+02  0.1200E+02
     -4.502  0.0000E+00  0.0000E+00  0.1200E+02  0.1200E+02
     -4.294  0.0000E+00  0.0000E+00  0.1200E+02  0.1200E+02
     -4.086  0.0000E+00  0.0000E+00  0.1200E+02  0.1200E+02
     -3.879  0.0000E+00  0.0000E+00  0.1200E+02  0.1200E+02
     -3.671  0.0000E+00  0.0000E+00  0.1200E+02  0.1200E+02
     -3.463  0.0000E+00  0.0000E+00  0.1200E+02  0.1200E+02
     -3.255  0.0000E+00  0.0000E+00  0.1200E+02  0.1200E+02
     -3.048  0.0000E+00  0.0000E+00  0.1200E+02  0.1200E+02
     -2.840  0.0000E+00  0.0000E+00  0.1200E+02  0.1200E+02
     -2.632  0.0000E+00  0.0000E+00  0.1200E+02  0.1200E+02
     -2.424  0.0000E+00  0.0000E+00  0.1200E+02  0.1200E+02
     -2.217  0.0000E+00  0.0000E+00  0.1200E+02  0.1200E+02
     -2.009  0.0000E+00  0.0000E+00  0.1200E+02  0.1200E+02
     -1.801  0.0000E+00  0.0000E+00  0.1200E+02  0.1200E+02
     -1.594  0.6089E-05  0.2226E-05  0.1200E+02  0.1200E+02
     -1.386  0.3980E-03  0.1693E-03  0.1200E+02  0.1200E+02
     -1.178  0.1974E-01  0.9551E-02  0.1200E+02  0.1200E+02
     -0.970  0.1795E+00  0.1386E+00  0.1204E+02  0.1203E+02
     -0.763  0.3688E+00  0.3242E+00  0.1212E+02  0.1210E+02
     -0.555  0.4242E+00  0.4167E+00  0.1221E+02  0.1219E+02
     -0.347  0.5909E+00  0.5821E+00  0.1233E+02  0.1231E+02
     -0.139  0.6338E+00  0.6236E+00  0.1246E+02  0.1244E+02
      0.068  0.6758E+00  0.6306E+00  0.1260E+02  0.1257E+02
      0.276  0.8592E+00  0.8591E+00  0.1278E+02  0.1275E+02
      0.484  0.7303E+00  0.7756E+00  0.1293E+02  0.1291E+02
      0.691  0.9783E+00  0.9158E+00  0.1314E+02  0.1310E+02
      0.899  0.1090E+01  0.1104E+01  0.1337E+02  0.1333E+02
      1.107  0.9206E+00  0.9288E+00  0.1356E+02  0.1352E+02
      1.315  0.1270E+01  0.1264E+01  0.1382E+02  0.1379E+02
      1.522  0.1176E+01  0.1205E+01  0.1407E+02  0.1404E+02
      1.730  0.1352E+01  0.1326E+01  0.1435E+02  0.1432E+02
      1.938  0.1152E+01  0.1195E+01  0.1459E+02  0.1457E+02
      2.145  0.9983E+00  0.9222E+00  0.1480E+02  0.1476E+02
      2.353  0.1403E+01  0.1383E+01  0.1509E+02  0.1505E+02
      2.561  0.1197E+01  0.1099E+01  0.1534E+02  0.1528E+02
      2.769  0.1558E+01  0.1493E+01  0.1567E+02  0.1559E+02
      2.976  0.1283E+01  0.1320E+01  0.1594E+02  0.1587E+02
      3.184  0.1410E+01  0.1302E+01  0.1623E+02  0.1614E+02
      3.392  0.1588E+01  0.1551E+01  0.1656E+02  0.1646E+02
      3.600  0.1770E+01  0.1658E+01  0.1693E+02  0.1681E+02
      3.807  0.1713E+01  0.1696E+01  0.1729E+02  0.1716E+02
      4.015  0.1545E+01  0.1559E+01  0.1761E+02  0.1749E+02
      4.223  0.1799E+01  0.1621E+01  0.1799E+02  0.1783E+02
      4.430  0.1611E+01  0.1703E+01  0.1832E+02  0.1818E+02
      4.638  0.1967E+01  0.1563E+01  0.1873E+02  0.1851E+02
      4.846  0.2031E+01  0.2108E+01  0.1916E+02  0.1895E+02
      5.054  0.1727E+01  0.1796E+01  0.1952E+02  0.1932E+02
      5.261  0.1900E+01  0.1711E+01  0.1991E+02  0.1968E+02
      5.469  0.2311E+01  0.1979E+01  0.2040E+02  0.2009E+02
      5.677  0.2238E+01  0.2082E+01  0.2086E+02  0.2053E+02
      5.885  0.2494E+01  0.2296E+01  0.2138E+02  0.2101E+02
      6.092  0.2320E+01  0.2348E+01  0.2187E+02  0.2150E+02
      6.300  0.2484E+01  0.2082E+01  0.2239E+02  0.2193E+02
      6.508  0.2672E+01  0.2336E+01  0.2294E+02  0.2242E+02
      6.715  0.2896E+01  0.2335E+01  0.2355E+02  0.2290E+02
      6.923  0.3124E+01  0.2686E+01  0.2420E+02  0.2347E+02
      7.131  0.3735E+01  0.2765E+01  0.2498E+02  0.2404E+02
      7.339  0.4269E+01  0.2982E+01  0.2587E+02  0.2467E+02
      7.546  0.4387E+01  0.3011E+01  0.2679E+02  0.2530E+02
      7.754  0.4052E+01  0.3517E+01  0.2763E+02  0.2603E+02
      7.962  0.3692E+01  0.3248E+01  0.2840E+02  0.2671E+02
      8.170  0.4215E+01  0.3822E+01  0.2928E+02  0.2751E+02
      8.377  0.4736E+01  0.3670E+01  0.3027E+02  0.2827E+02
      8.585  0.6084E+01  0.3569E+01  0.3154E+02  0.2902E+02
      8.793  0.7244E+01  0.3857E+01  0.3305E+02  0.2982E+02
      9.000  0.6952E+01  0.4022E+01  0.3450E+02  0.3066E+02
      9.208  0.6733E+01  0.5054E+01  0.3590E+02  0.3171E+02
      9.416  0.5940E+01  0.5704E+01  0.3714E+02  0.3290E+02
      9.624  0.4800E+01  0.5260E+01  0.3815E+02  0.3400E+02
      9.831  0.3819E+01  0.5153E+01  0.3895E+02  0.3508E+02
     10.039  0.6071E+01  0.5230E+01  0.4021E+02  0.3617E+02
     10.247  0.9540E+01  0.4559E+01  0.4220E+02  0.3712E+02
     10.454  0.7162E+01  0.3791E+01  0.4369E+02  0.3791E+02
     10.662  0.5739E+01  0.3438E+01  0.4489E+02  0.3863E+02
     10.870  0.4767E+01  0.2660E+01  0.4589E+02  0.3919E+02
     11.078  0.3057E+01  0.3199E+01  0.4653E+02  0.3985E+02
     11.285  0.2028E+01  0.3458E+01  0.4696E+02  0.4058E+02
     11.493  0.2125E+01  0.3142E+01  0.4740E+02  0.4123E+02
     11.701  0.1864E+01  0.4418E+01  0.4779E+02  0.4215E+02
     11.909  0.1631E+01  0.9003E+01  0.4813E+02  0.4403E+02
     12.116  0.2355E+01  0.1186E+02  0.4862E+02  0.4650E+02
     12.324  0.3099E+01  0.5704E+01  0.4927E+02  0.4769E+02
     12.532  0.3774E+01  0.2632E+01  0.5005E+02  0.4825E+02
     12.739  0.4640E+01  0.2883E+01  0.5102E+02  0.4885E+02
     12.947  0.4244E+01  0.3235E+01  0.5191E+02  0.4952E+02
     13.155  0.3741E+01  0.3301E+01  0.5269E+02  0.5021E+02
     13.363  0.3744E+01  0.4160E+01  0.5347E+02  0.5108E+02
     13.570  0.2852E+01  0.4881E+01  0.5407E+02  0.5210E+02
     13.778  0.3077E+01  0.4331E+01  0.5471E+02  0.5300E+02
     13.986  0.2980E+01  0.4139E+01  0.5533E+02  0.5387E+02
     14.194  0.2079E+01  0.3717E+01  0.5577E+02  0.5464E+02
     14.401  0.2755E+01  0.2956E+01  0.5634E+02  0.5526E+02
     14.609  0.2384E+01  0.2749E+01  0.5684E+02  0.5584E+02
     14.817  0.2852E+01  0.2922E+01  0.5743E+02  0.5645E+02
     15.024  0.3690E+01  0.2382E+01  0.5820E+02  0.5695E+02
     15.232  0.3658E+01  0.2628E+01  0.5897E+02  0.5749E+02
     15.440  0.4095E+01  0.3925E+01  0.5982E+02  0.5831E+02
     15.648  0.3641E+01  0.4225E+01  0.6058E+02  0.5919E+02
     15.855  0.2815E+01  0.4047E+01  0.6117E+02  0.6004E+02
     16.063  0.3478E+01  0.3507E+01  0.6189E+02  0.6077E+02
     16.271  0.3304E+01  0.3625E+01  0.6258E+02  0.6153E+02
     16.478  0.2579E+01  0.3365E+01  0.6312E+02  0.6223E+02
     16.686  0.2393E+01  0.3089E+01  0.6362E+02  0.6288E+02
     16.894  0.2779E+01  0.3188E+01  0.6420E+02  0.6354E+02
     17.102  0.3141E+01  0.2602E+01  0.6486E+02  0.6409E+02
     17.309  0.2603E+01  0.2479E+01  0.6540E+02  0.6461E+02
     17.517  0.2884E+01  0.2834E+01  0.6600E+02  0.6520E+02
     17.725  0.2824E+01  0.2647E+01  0.6659E+02  0.6575E+02
     17.933  0.2289E+01  0.2520E+01  0.6707E+02  0.6627E+02
     18.140  0.1592E+01  0.2423E+01  0.6741E+02  0.6678E+02
     18.348  0.8168E+00  0.2059E+01  0.6758E+02  0.6721E+02
     18.556  0.8702E+00  0.1651E+01  0.6776E+02  0.6756E+02
     18.763  0.6264E+00  0.1138E+01  0.6789E+02  0.6779E+02
     18.971  0.2801E+00  0.6274E+00  0.6795E+02  0.6793E+02
     19.179  0.1575E+00  0.1207E+00  0.6798E+02  0.6795E+02
     19.387  0.7051E-01  0.1069E+00  0.6800E+02  0.6798E+02
     19.594  0.2135E-02  0.1061E+00  0.6800E+02  0.6800E+02
     19.802  0.0000E+00  0.7104E-02  0.6800E+02  0.6800E+02
     20.010  0.0000E+00  0.0000E+00  0.6800E+02  0.6800E+02
     20.218  0.0000E+00  0.0000E+00  0.6800E+02  0.6800E+02
     20.425  0.0000E+00  0.0000E+00  0.6800E+02  0.6800E+02
     20.633  0.0000E+00  0.0000E+00  0.6800E+02  0.6800E+02
     20.841  0.0000E+00  0.0000E+00  0.6800E+02  0.6800E+02
     21.048  0.0000E+00  0.0000E+00  0.6800E+02  0.6800E+02
     21.256  0.0000E+00  0.0000E+00  0.6800E+02  0.6800E+02
     21.464  0.0000E+00  0.0000E+00  0.6800E+02  0.6800E+02
     21.672  0.0000E+00  0.0000E+00  0.6800E+02  0.6800E+02
     21.879  0.0000E+00  0.0000E+00  0.6800E+02  0.6800E+02
     22.087  0.0000E+00  0.0000E+00  0.6800E+02  0.6800E+02
     22.295  0.0000E+00  0.0000E+00  0.6800E+02  0.6800E+02
     22.29478360    -40.02260278  301     11.37527859      1.00000000
    -40.023  0.0000E+00  0.0000E+00  0.0000E+00  0.0000E+00  0.0000E+00  0.0000E+00  0.0000E+00  0.0000E+00  0.0000E+00  0.0000E+00  0.0000E+00  0.0000E+00  0.0000E+00  0.0000E+00  0.0000E+00  0.0000E+00  0.0000E+00  0.0000E+00
    -39.815  0.0000E+00  0.0000E+00  0.0000E+00  0.0000E+00  0.0000E+00  0.0000E+00  0.0000E+00  0.0000E+00  0.0000E+00  0.0000E+00  0.0000E+00  0.0000E+00  0.0000E+00  0.0000E+00  0.0000E+00  0.0000E+00  0.0000E+00  0.0000E+00
    -39.607  0.0000E+00  0.0000E+00  0.0000E+00  0.0000E+00  0.0000E+00  0.0000E+00  0.0000E+00  0.0000E+00  0.0000E+00  0.0000E+00  0.0000E+00  0.0000E+00  0.0000E+00  0.0000E+00  0.0000E+00  0.0000E+00  0.0000E+00  0.0000E+00
    -39.399  0.0000E+00  0.0000E+00  0.0000E+00  0.0000E+00  0.0000E+00  0.0000E+00  0.0000E+00  0.0000E+00  0.0000E+00  0.0000E+00  0.0000E+00  0.0000E+00  0.0000E+00  0.0000E+00  0.0000E+00  0.0000E+00  0.0000E+00  0.0000E+00
    -39.192  0.0000E+00  0.0000E+00  0.0000E+00  0.0000E+00  0.0000E+00  0.0000E+00  0.0000E+00  0.0000E+00  0.0000E+00  0.0000E+00  0.0000E+00  0.0000E+00  0.0000E+00  0.0000E+00  0.0000E+00  0.0000E+00  0.0000E+00  0.0000E+00
    -38.984  0.0000E+00  0.0000E+00  0.0000E+00  0.0000E+00  0.0000E+00  0.0000E+00  0.0000E+00  0.0000E+00  0.0000E+00  0.0000E+00  0.0000E+00  0.0000E+00  0.0000E+00  0.0000E+00  0.0000E+00  0.0000E+00  0.0000E+00  0.0000E+00
    -38.776  0.0000E+00  0.0000E+00  0.0000E+00  0.0000E+00  0.0000E+00  0.0000E+00  0.0000E+00  0.0000E+00  0.0000E+00  0.0000E+00  0.0000E+00  0.0000E+00  0.0000E+00  0.0000E+00  0.0000E+00  0.0000E+00  0.0000E+00  0.0000E+00
    -38.569  0.0000E+00  0.0000E+00  0.0000E+00  0.0000E+00  0.0000E+00  0.0000E+00  0.0000E+00  0.0000E+00  0.0000E+00  0.0000E+00  0.0000E+00  0.0000E+00  0.0000E+00  0.0000E+00  0.0000E+00  0.0000E+00  0.0000E+00  0.0000E+00
    -38.361  0.0000E+00  0.0000E+00  0.0000E+00  0.0000E+00  0.0000E+00  0.0000E+00  0.0000E+00  0.0000E+00  0.0000E+00  0.0000E+00  0.0000E+00  0.0000E+00  0.0000E+00  0.0000E+00  0.0000E+00  0.0000E+00  0.0000E+00  0.0000E+00
    -38.153  0.0000E+00  0.0000E+00  0.0000E+00  0.0000E+00  0.0000E+00  0.0000E+00  0.0000E+00  0.0000E+00  0.0000E+00  0.0000E+00  0.0000E+00  0.0000E+00  0.0000E+00  0.0000E+00  0.0000E+00  0.0000E+00  0.0000E+00  0.0000E+00
    -37.945  0.0000E+00  0.0000E+00  0.0000E+00  0.0000E+00  0.0000E+00  0.0000E+00  0.0000E+00  0.0000E+00  0.0000E+00  0.0000E+00  0.0000E+00  0.0000E+00  0.0000E+00  0.0000E+00  0.0000E+00  0.0000E+00  0.0000E+00  0.0000E+00
    -37.738  0.4783E-11  0.0000E+00  0.7585E-04  0.0000E+00  0.9721E-10  0.0000E+00  0.7585E-04  0.0000E+00  0.1640E-12  0.0000E+00  0.1193E-10  0.0000E+00  0.1746E-11  0.0000E+00  0.1193E-10  0.0000E+00  0.5196E-11  0.0000E+00
    -37.530  0.4479E-09  0.0000E+00  0.4752E-02  0.0000E+00  0.4537E-03  0.0000E+00  0.4752E-02  0.0000E+00  0.1028E-10  0.0000E+00  0.7483E-09  0.0000E+00  0.2533E-09  0.0000E+00  0.7483E-09  0.0000E+00  0.3256E-09  0.0000E+00
    -37.322  0.2718E-07  0.0000E+00  0.2844E+00  0.0000E+00  0.2828E-01  0.0000E+00  0.2844E+00  0.0000E+00  0.6145E-09  0.0000E+00  0.4479E-07  0.0000E+00  0.1552E-07  0.0000E+00  0.4479E-07  0.0000E+00  0.1949E-07  0.0000E+00
    -37.114  0.6487E-06  0.0000E+00  0.3555E+01  0.0000E+00  0.1301E+01  0.0000E+00  0.3555E+01  0.0000E+00  0.7561E-08  0.0000E+00  0.5607E-06  0.0000E+00  0.4935E-06  0.0000E+00  0.5607E-06  0.0000E+00  0.2441E-06  0.0000E+00
    -36.907  0.1121E-05  0.0000E+00  0.9219E+00  0.0000E+00  0.3267E+01  0.0000E+00  0.9219E+00  0.0000E+00  0.1952E-08  0.0000E+00  0.1486E-06  0.0000E+00  0.1047E-05  0.0000E+00  0.1486E-06  0.0000E+00  0.6338E-07  0.0000E+00
    -36.699  0.5989E-07  0.0000E+00  0.1160E-06  0.0000E+00  0.1844E+00  0.0000E+00  0.1160E-06  0.0000E+00  0.1881E-11  0.0000E+00  0.1999E-09  0.0000E+00  0.5760E-07  0.0000E+00  0.1999E-09  0.0000E+00  0.1653E-11  0.0000E+00
    -36.491  0.0000E+00  0.0000E+00  0.0000E+00  0.0000E+00  0.0000E+00  0.0000E+00  0.0000E+00  0.0000E+00  0.0000E+00  0.0000E+00  0.0000E+00  0.0000E+00  0.0000E+00  0.0000E+00  0.0000E+00  0.0000E+00  0.0000E+00  0.0000E+00
    -36.284  0.0000E+00  0.0000E+00  0.0000E+00  0.0000E+00  0.0000E+00  0.0000E+00  0.0000E+00  0.0000E+00  0.0000E+00  0.0000E+00  0.0000E+00  0.0000E+00  0.0000E+00  0.0000E+00  0.0000E+00  0.0000E+00  0.0000E+00  0.0000E+00
    -36.076  0.0000E+00  0.5330E-10  0.0000E+00  0.1146E-03  0.0000E+00  0.7696E-04  0.0000E+00  0.1146E-03  0.0000E+00  0.3283E-12  0.0000E+00  0.2112E-10  0.0000E+00  0.3843E-10  0.0000E+00  0.2112E-10  0.0000E+00  0.9858E-11
    -35.868  0.0000E+00  0.3339E-08  0.0000E+00  0.7175E-02  0.0000E+00  0.4822E-02  0.0000E+00  0.7175E-02  0.0000E+00  0.2056E-10  0.0000E+00  0.1323E-08  0.0000E+00  0.2408E-08  0.0000E+00  0.1323E-08  0.0000E+00  0.6174E-09
    -35.660  0.0000E+00  0.1988E-06  0.0000E+00  0.4165E+00  0.0000E+00  0.2884E+00  0.0000E+00  0.4165E+00  0.0000E+00  0.1191E-08  0.0000E+00  0.7679E-07  0.0000E+00  0.1436E-06  0.0000E+00  0.7679E-07  0.0000E+00  0.3585E-07
    -35.453  0.0000E+00  0.2345E-05  0.0000E+00  0.3693E+01  0.0000E+00  0.3564E+01  0.0000E+00  0.3693E+01  0.0000E+00  0.1034E-07  0.0000E+00  0.6822E-06  0.0000E+00  0.1730E-05  0.0000E+00  0.6822E-06  0.0000E+00  0.3186E-06
    -35.245  0.0000E+00  0.5773E-06  0.0000E+00  0.6552E+00  0.0000E+00  0.9095E+00  0.0000E+00  0.6552E+00  0.0000E+00  0.1795E-08  0.0000E+00  0.1214E-06  0.0000E+00  0.4323E-06  0.0000E+00  0.1214E-06  0.0000E+00  0.5654E-07
    -35.037  0.0000E+00  0.0000E+00  0.0000E+00  0.0000E+00  0.0000E+00  0.0000E+00  0.0000E+00  0.0000E+00  0.0000E+00  0.0000E+00  0.0000E+00  0.0000E+00  0.0000E+00  0.0000E+00  0.0000E+00  0.0000E+00  0.0000E+00  0.0000E+00
    -34.829  0.0000E+00  0.0000E+00  0.0000E+00  0.0000E+00  0.0000E+00  0.0000E+00  0.0000E+00  0.0000E+00  0.0000E+00  0.0000E+00  0.0000E+00  0.0000E+00  0.0000E+00  0.0000E+00  0.0000E+00  0.0000E+00  0.0000E+00  0.0000E+00
    -34.622  0.0000E+00  0.0000E+00  0.0000E+00  0.0000E+00  0.0000E+00  0.0000E+00  0.0000E+00  0.0000E+00  0.0000E+00  0.0000E+00  0.0000E+00  0.0000E+00  0.0000E+00  0.0000E+00  0.0000E+00  0.0000E+00  0.0000E+00  0.0000E+00
    -34.414  0.0000E+00  0.0000E+00  0.0000E+00  0.0000E+00  0.0000E+00  0.0000E+00  0.0000E+00  0.0000E+00  0.0000E+00  0.0000E+00  0.0000E+00  0.0000E+00  0.0000E+00  0.0000E+00  0.0000E+00  0.0000E+00  0.0000E+00  0.0000E+00
    -34.206  0.0000E+00  0.0000E+00  0.0000E+00  0.0000E+00  0.0000E+00  0.0000E+00  0.0000E+00  0.0000E+00  0.0000E+00  0.0000E+00  0.0000E+00  0.0000E+00  0.0000E+00  0.0000E+00  0.0000E+00  0.0000E+00  0.0000E+00  0.0000E+00
    -33.999  0.0000E+00  0.0000E+00  0.0000E+00  0.0000E+00  0.0000E+00  0.0000E+00  0.0000E+00  0.0000E+00  0.0000E+00  0.0000E+00  0.0000E+00  0.0000E+00  0.0000E+00  0.0000E+00  0.0000E+00  0.0000E+00  0.0000E+00  0.0000E+00
    -33.791  0.0000E+00  0.0000E+00  0.0000E+00  0.0000E+00  0.0000E+00  0.0000E+00  0.0000E+00  0.0000E+00  0.0000E+00  0.0000E+00  0.0000E+00  0.0000E+00  0.0000E+00  0.0000E+00  0.0000E+00  0.0000E+00  0.0000E+00  0.0000E+00
    -33.583  0.0000E+00  0.0000E+00  0.0000E+00  0.0000E+00  0.0000E+00  0.0000E+00  0.0000E+00  0.0000E+00  0.0000E+00  0.0000E+00  0.0000E+00  0.0000E+00  0.0000E+00  0.0000E+00  0.0000E+00  0.0000E+00  0.0000E+00  0.0000E+00
    -33.375  0.0000E+00  0.0000E+00  0.0000E+00  0.0000E+00  0.0000E+00  0.0000E+00  0.0000E+00  0.0000E+00  0.0000E+00  0.0000E+00  0.0000E+00  0.0000E+00  0.0000E+00  0.0000E+00  0.0000E+00  0.0000E+00  0.0000E+00  0.0000E+00
    -33.168  0.0000E+00  0.0000E+00  0.0000E+00  0.0000E+00  0.0000E+00  0.0000E+00  0.0000E+00  0.0000E+00  0.0000E+00  0.0000E+00  0.0000E+00  0.0000E+00  0.0000E+00  0.0000E+00  0.0000E+00  0.0000E+00  0.0000E+00  0.0000E+00
    -32.960  0.0000E+00  0.0000E+00  0.0000E+00  0.0000E+00  0.0000E+00  0.0000E+00  0.0000E+00  0.0000E+00  0.0000E+00  0.0000E+00  0.0000E+00  0.0000E+00  0.0000E+00  0.0000E+00  0.0000E+00  0.0000E+00  0.0000E+00  0.0000E+00
    -32.752  0.0000E+00  0.0000E+00  0.0000E+00  0.0000E+00  0.0000E+00  0.0000E+00  0.0000E+00  0.0000E+00  0.0000E+00  0.0000E+00  0.0000E+00  0.0000E+00  0.0000E+00  0.0000E+00  0.0000E+00  0.0000E+00  0.0000E+00  0.0000E+00
    -32.545  0.0000E+00  0.0000E+00  0.0000E+00  0.0000E+00  0.0000E+00  0.0000E+00  0.0000E+00  0.0000E+00  0.0000E+00  0.0000E+00  0.0000E+00  0.0000E+00  0.0000E+00  0.0000E+00  0.0000E+00  0.0000E+00  0.0000E+00  0.0000E+00
    -32.337  0.0000E+00  0.0000E+00  0.0000E+00  0.0000E+00  0.0000E+00  0.0000E+00  0.0000E+00  0.0000E+00  0.0000E+00  0.0000E+00  0.0000E+00  0.0000E+00  0.0000E+00  0.0000E+00  0.0000E+00  0.0000E+00  0.0000E+00  0.0000E+00
    -32.129  0.0000E+00  0.0000E+00  0.0000E+00  0.0000E+00  0.0000E+00  0.0000E+00  0.0000E+00  0.0000E+00  0.0000E+00  0.0000E+00  0.0000E+00  0.0000E+00  0.0000E+00  0.0000E+00  0.0000E+00  0.0000E+00  0.0000E+00  0.0000E+00
    -31.921  0.0000E+00  0.0000E+00  0.0000E+00  0.0000E+00  0.0000E+00  0.0000E+00  0.0000E+00  0.0000E+00  0.0000E+00  0.0000E+00  0.0000E+00  0.0000E+00  0.0000E+00  0.0000E+00  0.0000E+00  0.0000E+00  0.0000E+00  0.0000E+00
    -31.714  0.0000E+00  0.0000E+00  0.0000E+00  0.0000E+00  0.0000E+00  0.0000E+00  0.0000E+00  0.0000E+00  0.0000E+00  0.0000E+00  0.0000E+00  0.0000E+00  0.0000E+00  0.0000E+00  0.0000E+00  0.0000E+00  0.0000E+00  0.0000E+00
    -31.506  0.0000E+00  0.0000E+00  0.0000E+00  0.0000E+00  0.0000E+00  0.0000E+00  0.0000E+00  0.0000E+00  0.0000E+00  0.0000E+00  0.0000E+00  0.0000E+00  0.0000E+00  0.0000E+00  0.0000E+00  0.0000E+00  0.0000E+00  0.0000E+00
    -31.298  0.0000E+00  0.0000E+00  0.0000E+00  0.0000E+00  0.0000E+00  0.0000E+00  0.0000E+00  0.0000E+00  0.0000E+00  0.0000E+00  0.0000E+00  0.0000E+00  0.0000E+00  0.0000E+00  0.0000E+00  0.0000E+00  0.0000E+00  0.0000E+00
    -31.090  0.0000E+00  0.0000E+00  0.0000E+00  0.0000E+00  0.0000E+00  0.0000E+00  0.0000E+00  0.0000E+00  0.0000E+00  0.0000E+00  0.0000E+00  0.0000E+00  0.0000E+00  0.0000E+00  0.0000E+00  0.0000E+00  0.0000E+00  0.0000E+00
    -30.883  0.0000E+00  0.0000E+00  0.0000E+00  0.0000E+00  0.0000E+00  0.0000E+00  0.0000E+00  0.0000E+00  0.0000E+00  0.0000E+00  0.0000E+00  0.0000E+00  0.0000E+00  0.0000E+00  0.0000E+00  0.0000E+00  0.0000E+00  0.0000E+00
    -30.675  0.0000E+00  0.0000E+00  0.0000E+00  0.0000E+00  0.0000E+00  0.0000E+00  0.0000E+00  0.0000E+00  0.0000E+00  0.0000E+00  0.0000E+00  0.0000E+00  0.0000E+00  0.0000E+00  0.0000E+00  0.0000E+00  0.0000E+00  0.0000E+00
    -30.467  0.0000E+00  0.0000E+00  0.0000E+00  0.0000E+00  0.0000E+00  0.0000E+00  0.0000E+00  0.0000E+00  0.0000E+00  0.0000E+00  0.0000E+00  0.0000E+00  0.0000E+00  0.0000E+00  0.0000E+00  0.0000E+00  0.0000E+00  0.0000E+00
    -30.260  0.0000E+00  0.0000E+00  0.0000E+00  0.0000E+00  0.0000E+00  0.0000E+00  0.0000E+00  0.0000E+00  0.0000E+00  0.0000E+00  0.0000E+00  0.0000E+00  0.0000E+00  0.0000E+00  0.0000E+00  0.0000E+00  0.0000E+00  0.0000E+00
    -30.052  0.0000E+00  0.0000E+00  0.0000E+00  0.0000E+00  0.0000E+00  0.0000E+00  0.0000E+00  0.0000E+00  0.0000E+00  0.0000E+00  0.0000E+00  0.0000E+00  0.0000E+00  0.0000E+00  0.0000E+00  0.0000E+00  0.0000E+00  0.0000E+00
    -29.844  0.0000E+00  0.0000E+00  0.0000E+00  0.0000E+00  0.0000E+00  0.0000E+00  0.0000E+00  0.0000E+00  0.0000E+00  0.0000E+00  0.0000E+00  0.0000E+00  0.0000E+00  0.0000E+00  0.0000E+00  0.0000E+00  0.0000E+00  0.0000E+00
    -29.636  0.0000E+00  0.0000E+00  0.0000E+00  0.0000E+00  0.0000E+00  0.0000E+00  0.0000E+00  0.0000E+00  0.0000E+00  0.0000E+00  0.0000E+00  0.0000E+00  0.0000E+00  0.0000E+00  0.0000E+00  0.0000E+00  0.0000E+00  0.0000E+00