  16  16   1   0
  0.1215880E+02  0.3600831E-09  0.3600831E-09  0.1500393E-08  0.5000000E-15
  1.000000000000000E-004
  CAR 
 unknown system                          
     21.70099718    -40.45653615  301     10.97307462      1.00000000
    -40.457  0.0000E+00  0.0000E+00  0.0000E+00  0.0000E+00
    -40.249  0.0000E+00  0.0000E+00  0.0000E+00  0.0000E+00
    -40.042  0.0000E+00  0.0000E+00  0.0000E+00  0.0000E+00
    -39.835  0.0000E+00  0.0000E+00  0.0000E+00  0.0000E+00
    -39.628  0.0000E+00  0.0000E+00  0.0000E+00  0.0000E+00
    -39.421  0.0000E+00  0.0000E+00  0.0000E+00  0.0000E+00
    -39.213  0.0000E+00  0.0000E+00  0.0000E+00  0.0000E+00
    -39.006  0.0000E+00  0.0000E+00  0.0000E+00  0.0000E+00
    -38.799  0.0000E+00  0.0000E+00  0.0000E+00  0.0000E+00
    -38.592  0.0000E+00  0.0000E+00  0.0000E+00  0.0000E+00
    -38.385  0.0000E+00  0.0000E+00  0.0000E+00  0.0000E+00
    -38.177  0.6389E-03  0.0000E+00  0.1324E-03  0.0000E+00
    -37.970  0.4175E-01  0.0000E+00  0.8783E-02  0.0000E+00
    -37.763  0.2475E+01  0.0000E+00  0.5215E+00  0.0000E+00
    -37.556  0.3450E+02  0.0000E+00  0.7670E+01  0.0000E+00
    -37.349  0.2008E+02  0.0000E+00  0.1183E+02  0.0000E+00
    -37.141  0.6569E+00  0.0000E+00  0.1200E+02  0.0000E+00
    -36.934  0.0000E+00  0.0000E+00  0.1200E+02  0.0000E+00
    -36.727  0.0000E+00  0.0000E+00  0.1200E+02  0.0000E+00
    -36.520  0.0000E+00  0.2552E-03  0.1200E+02  0.5288E-04
    -36.313  0.0000E+00  0.2128E-01  0.1200E+02  0.4462E-02
    -36.106  0.0000E+00  0.1305E+01  0.1200E+02  0.2748E+00
    -35.898  0.0000E+00  0.3294E+02  0.1200E+02  0.7099E+01
    -35.691  0.0000E+00  0.2302E+02  0.1200E+02  0.1187E+02
    -35.484  0.0000E+00  0.0000E+00  0.1200E+02  0.1200E+02
    -35.277  0.0000E+00  0.0000E+00  0.1200E+02  0.1200E+02
    -35.070  0.0000E+00  0.0000E+00  0.1200E+02  0.1200E+02
    -34.862  0.0000E+00  0.0000E+00  0.1200E+02  0.1200E+02
    -34.655  0.0000E+00  0.0000E+00  0.1200E+02  0.1200E+02
    -34.448  0.0000E+00  0.0000E+00  0.1200E+02  0.1200E+02
    -34.241  0.0000E+00  0.0000E+00  0.1200E+02  0.1200E+02
    -34.034  0.0000E+00  0.0000E+00  0.1200E+02  0.1200E+02
    -33.826  0.0000E+00  0.0000E+00  0.1200E+02  0.1200E+02
    -33.619  0.0000E+00  0.0000E+00  0.1200E+02  0.1200E+02
    -33.412  0.0000E+00  0.0000E+00  0.1200E+02  0.1200E+02
    -33.205  0.0000E+00  0.0000E+00  0.1200E+02  0.1200E+02
    -32.998  0.0000E+00  0.0000E+00  0.1200E+02  0.1200E+02
    -32.790  0.0000E+00  0.0000E+00  0.1200E+02  0.1200E+02
    -32.583  0.0000E+00  0.0000E+00  0.1200E+02  0.1200E+02
    -32.376  0.0000E+00  0.0000E+00  0.1200E+02  0.1200E+02
    -32.169  0.0000E+00  0.0000E+00  0.1200E+02  0.1200E+02
    -31.962  0.0000E+00  0.0000E+00  0.1200E+02  0.1200E+02
    -31.754  0.0000E+00  0.0000E+00  0.1200E+02  0.1200E+02
    -31.547  0.0000E+00  0.0000E+00  0.1200E+02  0.1200E+02
    -31.340  0.0000E+00  0.0000E+00  0.1200E+02  0.1200E+02
    -31.133  0.0000E+00  0.0000E+00  0.1200E+02  0.1200E+02
    -30.926  0.0000E+00  0.0000E+00  0.1200E+02  0.1200E+02
    -30.719  0.0000E+00  0.0000E+00  0.1200E+02  0.1200E+02
    -30.511  0.0000E+00  0.0000E+00  0.1200E+02  0.1200E+02
    -30.304  0.0000E+00  0.0000E+00  0.1200E+02  0.1200E+02
    -30.097  0.0000E+00  0.0000E+00  0.1200E+02  0.1200E+02
    -29.890  0.0000E+00  0.0000E+00  0.1200E+02  0.1200E+02
    -29.683  0.0000E+00  0.0000E+00  0.1200E+02  0.1200E+02
    -29.475  0.0000E+00  0.0000E+00  0.1200E+02  0.1200E+02
    -29.268  0.0000E+00  0.0000E+00  0.1200E+02  0.1200E+02
    -29.061  0.0000E+00  0.0000E+00  0.1200E+02  0.1200E+02
    -28.854  0.0000E+00  0.0000E+00  0.1200E+02  0.1200E+02
    -28.647  0.0000E+00  0.0000E+00  0.1200E+02  0.1200E+02
    -28.439  0.0000E+00  0.0000E+00  0.1200E+02  0.1200E+02
    -28.232  0.0000E+00  0.0000E+00  0.1200E+02  0.1200E+02
    -28.025  0.0000E+00  0.0000E+00  0.1200E+02  0.1200E+02
    -27.818  0.0000E+00  0.0000E+00  0.1200E+02  0.1200E+02
    -27.611  0.0000E+00  0.0000E+00  0.1200E+02  0.1200E+02
    -27.403  0.0000E+00  0.0000E+00  0.1200E+02  0.1200E+02
    -27.196  0.0000E+00  0.0000E+00  0.1200E+02  0.1200E+02
    -26.989  0.0000E+00  0.0000E+00  0.1200E+02  0.1200E+02
    -26.782  0.0000E+00  0.0000E+00  0.1200E+02  0.1200E+02
    -26.575  0.0000E+00  0.0000E+00  0.1200E+02  0.1200E+02
    -26.367  0.0000E+00  0.0000E+00  0.1200E+02  0.1200E+02
    -26.160  0.0000E+00  0.0000E+00  0.1200E+02  0.1200E+02
    -25.953  0.0000E+00  0.0000E+00  0.1200E+02  0.1200E+02
    -25.746  0.0000E+00  0.0000E+00  0.1200E+02  0.1200E+02
    -25.539  0.0000E+00  0.0000E+00  0.1200E+02  0.1200E+02
    -25.332  0.0000E+00  0.0000E+00  0.1200E+02  0.1200E+02
    -25.124  0.0000E+00  0.0000E+00  0.1200E+02  0.1200E+02
    -24.917  0.0000E+00  0.0000E+00  0.1200E+02  0.1200E+02
    -24.710  0.0000E+00  0.0000E+00  0.1200E+02  0.1200E+02
    -24.503  0.0000E+00  0.0000E+00  0.1200E+02  0.1200E+02
    -24.296  0.0000E+00  0.0000E+00  0.1200E+02  0.1200E+02
    -24.088  0.0000E+00  0.0000E+00  0.1200E+02  0.1200E+02
    -23.881  0.0000E+00  0.0000E+00  0.1200E+02  0.1200E+02
    -23.674  0.0000E+00  0.0000E+00  0.1200E+02  0.1200E+02
    -23.467  0.0000E+00  0.0000E+00  0.1200E+02  0.1200E+02
    -23.260  0.0000E+00  0.0000E+00  0.1200E+02  0.1200E+02
    -23.052  0.0000E+00  0.0000E+00  0.1200E+02  0.1200E+02
    -22.845  0.0000E+00  0.0000E+00  0.1200E+02  0.1200E+02
    -22.638  0.0000E+00  0.0000E+00  0.1200E+02  0.1200E+02
    -22.431  0.0000E+00  0.0000E+00  0.1200E+02  0.1200E+02
    -22.224  0.0000E+00  0.0000E+00  0.1200E+02  0.1200E+02
    -22.016  0.0000E+00  0.0000E+00  0.1200E+02  0.1200E+02
    -21.809  0.0000E+00  0.0000E+00  0.1200E+02  0.1200E+02
    -21.602  0.0000E+00  0.0000E+00  0.1200E+02  0.1200E+02
    -21.395  0.0000E+00  0.0000E+00  0.1200E+02  0.1200E+02
    -21.188  0.0000E+00  0.0000E+00  0.1200E+02  0.1200E+02
    -20.981  0.0000E+00  0.0000E+00  0.1200E+02  0.1200E+02
    -20.773  0.0000E+00  0.0000E+00  0.1200E+02  0.1200E+02
    -20.566  0.0000E+00  0.0000E+00  0.1200E+02  0.1200E+02
    -20.359  0.0000E+00  0.0000E+00  0.1200E+02  0.1200E+02
    -20.152  0.0000E+00  0.0000E+00  0.1200E+02  0.1200E+02
    -19.945  0.0000E+00  0.0000E+00  0.1200E+02  0.1200E+02
    -19.737  0.0000E+00  0.0000E+00  0.1200E+02  0.1200E+02
    -19.530  0.0000E+00  0.0000E+00  0.1200E+02  0.1200E+02
    -19.323  0.0000E+00  0.0000E+00  0.1200E+02  0.1200E+02
    -19.116  0.0000E+00  0.0000E+00  0.1200E+02  0.1200E+02
    -18.909  0.0000E+00  0.0000E+00  0.1200E+02  0.1200E+02
    -18.701  0.0000E+00  0.0000E+00  0.1200E+02  0.1200E+02
    -18.494  0.0000E+00  0.0000E+00  0.1200E+02  0.1200E+02
    -18.287  0.0000E+00  0.0000E+00  0.1200E+02  0.1200E+02
    -18.080  0.0000E+00  0.0000E+00  0.1200E+02  0.1200E+02
    -17.873  0.0000E+00  0.0000E+00  0.1200E+02  0.1200E+02
    -17.665  0.0000E+00  0.0000E+00  0.1200E+02  0.1200E+02
    -17.458  0.0000E+00  0.0000E+00  0.1200E+02  0.1200E+02
    -17.251  0.0000E+00  0.0000E+00  0.1200E+02  0.1200E+02
    -17.044  0.0000E+00  0.0000E+00  0.1200E+02  0.1200E+02
    -16.837  0.0000E+00  0.0000E+00  0.1200E+02  0.1200E+02
    -16.629  0.0000E+00  0.0000E+00  0.1200E+02  0.1200E+02
    -16.422  0.0000E+00  0.0000E+00  0.1200E+02  0.1200E+02
    -16.215  0.0000E+00  0.0000E+00  0.1200E+02  0.1200E+02
    -16.008  0.0000E+00  0.0000E+00  0.1200E+02  0.1200E+02
    -15.801  0.0000E+00  0.0000E+00  0.1200E+02  0.1200E+02
    -15.594  0.0000E+00  0.0000E+00  0.1200E+02  0.1200E+02
    -15.386  0.0000E+00  0.0000E+00  0.1200E+02  0.1200E+02
    -15.179  0.0000E+00  0.0000E+00  0.1200E+02  0.1200E+02
    -14.972  0.0000E+00  0.0000E+00  0.1200E+02  0.1200E+02
    -14.765  0.0000E+00  0.0000E+00  0.1200E+02  0.1200E+02
    -14.558  0.0000E+00  0.0000E+00  0.1200E+02  0.1200E+02
    -14.350  0.0000E+00  0.0000E+00  0.1200E+02  0.1200E+02
    -14.143  0.0000E+00  0.0000E+00  0.1200E+02  0.1200E+02
    -13.936  0.0000E+00  0.0000E+00  0.1200E+02  0.1200E+02
    -13.729  0.0000E+00  0.0000E+00  0.1200E+02  0.1200E+02
    -13.522  0.0000E+00  0.0000E+00  0.1200E+02  0.1200E+02
    -13.314  0.0000E+00  0.0000E+00  0.1200E+02  0.1200E+02
    -13.107  0.0000E+00  0.0000E+00  0.1200E+02  0.1200E+02
    -12.900  0.0000E+00  0.0000E+00  0.1200E+02  0.1200E+02
    -12.693  0.0000E+00  0.0000E+00  0.1200E+02  0.1200E+02
    -12.486  0.0000E+00  0.0000E+00  0.1200E+02  0.1200E+02
    -12.278  0.0000E+00  0.0000E+00  0.1200E+02  0.1200E+02
    -12.071  0.0000E+00  0.0000E+00  0.1200E+02  0.1200E+02
    -11.864  0.0000E+00  0.0000E+00  0.1200E+02  0.1200E+02
    -11.657  0.0000E+00  0.0000E+00  0.1200E+02  0.1200E+02
    -11.450  0.0000E+00  0.0000E+00  0.1200E+02  0.1200E+02
    -11.242  0.0000E+00  0.0000E+00  0.1200E+02  0.1200E+02
    -11.035  0.0000E+00  0.0000E+00  0.1200E+02  0.1200E+02
    -10.828  0.0000E+00  0.0000E+00  0.1200E+02  0.1200E+02
    -10.621  0.0000E+00  0.0000E+00  0.1200E+02  0.1200E+02
    -10.414  0.0000E+00  0.0000E+00  0.1200E+02  0.1200E+02
    -10.207  0.0000E+00  0.0000E+00  0.1200E+02  0.1200E+02
     -9.999  0.0000E+00  0.0000E+00  0.1200E+02  0.1200E+02
     -9.792  0.0000E+00  0.0000E+00  0.1200E+02  0.1200E+02
     -9.585  0.0000E+00  0.0000E+00  0.1200E+02  0.1200E+02
     -9.378  0.0000E+00  0.0000E+00  0.1200E+02  0.1200E+02
     -9.171  0.0000E+00  0.0000E+00  0.1200E+02  0.1200E+02
     -8.963  0.0000E+00  0.0000E+00  0.1200E+02  0.1200E+02
     -8.756  0.0000E+00  0.0000E+00  0.1200E+02  0.1200E+02
     -8.549  0.0000E+00  0.0000E+00  0.1200E+02  0.1200E+02
     -8.342  0.0000E+00  0.0000E+00  0.1200E+02  0.1200E+02
     -8.135  0.0000E+00  0.0000E+00  0.1200E+02  0.1200E+02
     -7.927  0.0000E+00  0.0000E+00  0.1200E+02  0.1200E+02
     -7.720  0.0000E+00  0.0000E+00  0.1200E+02  0.1200E+02
     -7.513  0.0000E+00  0.0000E+00  0.1200E+02  0.1200E+02
     -7.306  0.0000E+00  0.0000E+00  0.1200E+02  0.1200E+02
     -7.099  0.0000E+00  0.0000E+00  0.1200E+02  0.1200E+02
     -6.891  0.0000E+00  0.0000E+00  0.1200E+02  0.1200E+02
     -6.684  0.0000E+00  0.0000E+00  0.1200E+02  0.1200E+02
     -6.477  0.0000E+00  0.0000E+00  0.1200E+02  0.1200E+02
     -6.270  0.0000E+00  0.0000E+00  0.1200E+02  0.1200E+02
     -6.063  0.0000E+00  0.0000E+00  0.1200E+02  0.1200E+02
     -5.856  0.0000E+00  0.0000E+00  0.1200E+02  0.1200E+02
     -5.648  0.0000E+00  0.0000E+00  0.1200E+02  0.1200E+02
     -5.441  0.0000E+00  0.0000E+00  0.1200E+02  0.1200E+02
     -5.234  0.0000E+00  0.0000E+00  0.1200E+02  0.1200E+02
     -5.027  0.0000E+00  0.0000E+00  0.1200E+02  0.1200E+02
     -4.820  0.0000E+00  0.0000E+00  0.1200E+02  0.1200E+02
     -4.612  0.0000E+00  0.0000E+00  0.1200E+02  0.1200E+02
     -4.405  0.0000E+00  0.0000E+00  0.1200E+02  0.1200E+02
     -4.198  0.0000E+00  0.0000E+00  0.1200E+02  0.1200E+02
     -3.991  0.0000E+00  0.0000E+00  0.1200E+02  0.1200E+02
     -3.784  0.0000E+00  0.0000E+00  0.1200E+02  0.1200E+02
     -3.576  0.0000E+00  0.0000E+00  0.1200E+02  0.1200E+02
     -3.369  0.0000E+00  0.0000E+00  0.1200E+02  0.1200E+02
     -3.162  0.0000E+00  0.0000E+00  0.1200E+02  0.1200E+02
     -2.955  0.0000E+00  0.0000E+00  0.1200E+02  0.1200E+02
     -2.748  0.0000E+00  0.0000E+00  0.1200E+02  0.1200E+02
     -2.540  0.0000E+00  0.0000E+00  0.1200E+02  0.1200E+02
     -2.333  0.0000E+00  0.0000E+00  0.1200E+02  0.1200E+02
     -2.126  0.0000E+00  0.0000E+00  0.1200E+02  0.1200E+02
     -1.919  0.1158E-06  0.5567E-07  0.1200E+02  0.1200E+02
     -1.712  0.2406E-04  0.1160E-04  0.1200E+02  0.1200E+02
     -1.504  0.1493E-02  0.7273E-03  0.1200E+02  0.1200E+02
     -1.297  0.5254E-01  0.3171E-01  0.1201E+02  0.1201E+02
     -1.090  0.2413E+00  0.2108E+00  0.1206E+02  0.1205E+02
     -0.883  0.4268E+00  0.4079E+00  0.1215E+02  0.1213E+02
     -0.676  0.5020E+00  0.4626E+00  0.1225E+02  0.1223E+02
     -0.469  0.6006E+00  0.6035E+00  0.1238E+02  0.1236E+02
     -0.261  0.6274E+00  0.6455E+00  0.1251E+02  0.1249E+02
     -0.054  0.8147E+00  0.7745E+00  0.1268E+02  0.1265E+02
      0.153  0.8686E+00  0.8847E+00  0.1286E+02  0.1284E+02
      0.360  0.7645E+00  0.7340E+00  0.1302E+02  0.1299E+02
      0.567  0.1101E+01  0.1103E+01  0.1325E+02  0.1322E+02
      0.775  0.1029E+01  0.1069E+01  0.1346E+02  0.1344E+02
      0.982  0.1102E+01  0.1069E+01  0.1369E+02  0.1366E+02
      1.189  0.1304E+01  0.1337E+01  0.1396E+02  0.1394E+02
      1.396  0.1228E+01  0.1200E+01  0.1422E+02  0.1419E+02
      1.603  0.1343E+01  0.1364E+01  0.1450E+02  0.1448E+02
      1.811  0.9769E+00  0.9673E+00  0.1470E+02  0.1468E+02
      2.018  0.1373E+01  0.1310E+01  0.1499E+02  0.1495E+02
      2.225  0.1225E+01  0.1196E+01  0.1524E+02  0.1520E+02
      2.432  0.1476E+01  0.1309E+01  0.1555E+02  0.1547E+02
      2.639  0.1397E+01  0.1452E+01  0.1584E+02  0.1577E+02
      2.847  0.1353E+01  0.1309E+01  0.1612E+02  0.1605E+02
      3.054  0.1601E+01  0.1492E+01  0.1645E+02  0.1635E+02
      3.261  0.1708E+01  0.1645E+01  0.1681E+02  0.1670E+02
      3.468  0.1790E+01  0.1775E+01  0.1718E+02  0.1707E+02
      3.675  0.1571E+01  0.1614E+01  0.1751E+02  0.1740E+02
      3.883  0.1750E+01  0.1581E+01  0.1787E+02  0.1773E+02
      4.090  0.1725E+01  0.1788E+01  0.1823E+02  0.1811E+02
      4.297  0.1841E+01  0.1479E+01  0.1862E+02  0.1841E+02
      4.504  0.2154E+01  0.2118E+01  0.1906E+02  0.1885E+02
      4.711  0.1783E+01  0.1922E+01  0.1944E+02  0.1925E+02
      4.918  0.1856E+01  0.1694E+01  0.1982E+02  0.1961E+02
      5.126  0.2284E+01  0.1974E+01  0.2030E+02  0.2002E+02
      5.333  0.2247E+01  0.2123E+01  0.2077E+02  0.2046E+02
      5.540  0.2561E+01  0.2242E+01  0.2130E+02  0.2092E+02
      5.747  0.2321E+01  0.2417E+01  0.2178E+02  0.2143E+02
      5.954  0.2460E+01  0.2075E+01  0.2229E+02  0.2186E+02
      6.162  0.2685E+01  0.2335E+01  0.2285E+02  0.2235E+02
      6.369  0.2850E+01  0.2332E+01  0.2345E+02  0.2283E+02
      6.576  0.3135E+01  0.2680E+01  0.2410E+02  0.2339E+02
      6.783  0.3621E+01  0.2728E+01  0.2485E+02  0.2396E+02
      6.990  0.4202E+01  0.2994E+01  0.2573E+02  0.2458E+02
      7.198  0.4529E+01  0.2944E+01  0.2667E+02  0.2519E+02
      7.405  0.4159E+01  0.3516E+01  0.2753E+02  0.2593E+02
      7.612  0.3864E+01  0.3198E+01  0.2834E+02  0.2659E+02
      7.819  0.4243E+01  0.3801E+01  0.2922E+02  0.2739E+02
      8.026  0.4836E+01  0.3757E+01  0.3023E+02  0.2817E+02
      8.234  0.6222E+01  0.3532E+01  0.3152E+02  0.2890E+02
      8.441  0.7485E+01  0.3859E+01  0.3308E+02  0.2971E+02
      8.648  0.7171E+01  0.4007E+01  0.3457E+02  0.3054E+02
      8.855  0.6998E+01  0.5017E+01  0.3603E+02  0.3159E+02
      9.062  0.6000E+01  0.5601E+01  0.3728E+02  0.3275E+02
      9.269  0.4822E+01  0.5383E+01  0.3829E+02  0.3387E+02
      9.477  0.4345E+01  0.5248E+01  0.3919E+02  0.3497E+02
      9.684  0.8163E+01  0.5213E+01  0.4089E+02  0.3605E+02
      9.891  0.8851E+01  0.4802E+01  0.4273E+02  0.3705E+02
     10.098  0.6880E+01  0.3833E+01  0.4417E+02  0.3785E+02
     10.305  0.5341E+01  0.3562E+01  0.4528E+02  0.3859E+02
     10.513  0.4243E+01  0.2817E+01  0.4617E+02  0.3918E+02
     10.720  0.2657E+01  0.3288E+01  0.4672E+02  0.3987E+02
     10.927  0.1904E+01  0.3599E+01  0.4712E+02  0.4061E+02
     11.134  0.2193E+01  0.3315E+01  0.4758E+02  0.4131E+02
     11.341  0.1685E+01  0.4868E+01  0.4793E+02  0.4232E+02
     11.549  0.2090E+01  0.9765E+01  0.4836E+02  0.4434E+02
     11.756  0.2671E+01  0.1176E+02  0.4892E+02  0.4679E+02
     11.963  0.3708E+01  0.5094E+01  0.4969E+02  0.4785E+02
     12.170  0.4623E+01  0.2741E+01  0.5065E+02  0.4843E+02
     12.377  0.4573E+01  0.3159E+01  0.5160E+02  0.4909E+02
     12.585  0.3751E+01  0.3353E+01  0.5239E+02  0.4979E+02
     12.792  0.3857E+01  0.3686E+01  0.5319E+02  0.5055E+02
     12.999  0.3151E+01  0.5010E+01  0.5384E+02  0.5159E+02
     13.206  0.2805E+01  0.4755E+01  0.5443E+02  0.5258E+02
     13.413  0.3358E+01  0.4158E+01  0.5513E+02  0.5345E+02
     13.621  0.2378E+01  0.4011E+01  0.5562E+02  0.5429E+02
     13.828  0.2575E+01  0.3460E+01  0.5616E+02  0.5501E+02
     14.035  0.2595E+01  0.2853E+01  0.5670E+02  0.5560E+02
     14.242  0.2843E+01  0.3032E+01  0.5729E+02  0.5623E+02
     14.449  0.3628E+01  0.2711E+01  0.5805E+02  0.5680E+02
     14.656  0.3805E+01  0.2456E+01  0.5884E+02  0.5731E+02
     14.864  0.3889E+01  0.3813E+01  0.5965E+02  0.5810E+02
     15.071  0.3840E+01  0.4331E+01  0.6045E+02  0.5900E+02
     15.278  0.2930E+01  0.4160E+01  0.6106E+02  0.5987E+02
     15.485  0.3469E+01  0.3861E+01  0.6178E+02  0.6067E+02
     15.692  0.3258E+01  0.3544E+01  0.6246E+02  0.6141E+02
     15.900  0.2711E+01  0.3302E+01  0.6303E+02  0.6210E+02
     16.107  0.2493E+01  0.3172E+01  0.6355E+02  0.6276E+02
     16.314  0.2822E+01  0.3389E+01  0.6414E+02  0.6347E+02
     16.521  0.3183E+01  0.2685E+01  0.6480E+02  0.6402E+02
     16.728  0.2832E+01  0.2466E+01  0.6539E+02  0.6454E+02
     16.936  0.2967E+01  0.2967E+01  0.6601E+02  0.6516E+02
     17.143  0.2864E+01  0.2759E+01  0.6660E+02  0.6573E+02
     17.350  0.2060E+01  0.2559E+01  0.6703E+02  0.6626E+02
     17.557  0.1671E+01  0.2454E+01  0.6738E+02  0.6678E+02
     17.764  0.8827E+00  0.2103E+01  0.6757E+02  0.6722E+02
     17.972  0.8211E+00  0.1462E+01  0.6774E+02  0.6752E+02
     18.179  0.6786E+00  0.1097E+01  0.6788E+02  0.6775E+02
     18.386  0.3457E+00  0.7696E+00  0.6795E+02  0.6791E+02
     18.593  0.1316E+00  0.2311E+00  0.6798E+02  0.6796E+02
     18.800  0.8654E-01  0.1111E+00  0.6800E+02  0.6798E+02
     19.008  0.3251E-02  0.7379E-01  0.6800E+02  0.6800E+02
     19.215  0.0000E+00  0.2500E-02  0.6800E+02  0.6800E+02
     19.422  0.0000E+00  0.0000E+00  0.6800E+02  0.6800E+02
     19.629  0.0000E+00  0.0000E+00  0.6800E+02  0.6800E+02
     19.836  0.0000E+00  0.0000E+00  0.6800E+02  0.6800E+02
     20.043  0.0000E+00  0.0000E+00  0.6800E+02  0.6800E+02
     20.251  0.0000E+00  0.0000E+00  0.6800E+02  0.6800E+02
     20.458  0.0000E+00  0.0000E+00  0.6800E+02  0.6800E+02
     20.665  0.0000E+00  0.0000E+00  0.6800E+02  0.6800E+02
     20.872  0.0000E+00  0.0000E+00  0.6800E+02  0.6800E+02
     21.079  0.0000E+00  0.0000E+00  0.6800E+02  0.6800E+02
     21.287  0.0000E+00  0.0000E+00  0.6800E+02  0.6800E+02
     21.494  0.0000E+00  0.0000E+00  0.6800E+02  0.6800E+02
     21.701  0.0000E+00  0.0000E+00  0.6800E+02  0.6800E+02
     21.70099718    -40.45653615  301     10.97307462      1.00000000
    -40.457  0.0000E+00  0.0000E+00  0.0000E+00  0.0000E+00  0.0000E+00  0.0000E+00  0.0000E+00  0.0000E+00  0.0000E+00  0.0000E+00  0.0000E+00  0.0000E+00  0.0000E+00  0.0000E+00  0.0000E+00  0.0000E+00  0.0000E+00  0.0000E+00
    -40.249  0.0000E+00  0.0000E+00  0.0000E+00  0.0000E+00  0.0000E+00  0.0000E+00  0.0000E+00  0.0000E+00  0.0000E+00  0.0000E+00  0.0000E+00  0.0000E+00  0.0000E+00  0.0000E+00  0.0000E+00  0.0000E+00  0.0000E+00  0.0000E+00
    -40.042  0.0000E+00  0.0000E+00  0.0000E+00  0.0000E+00  0.0000E+00  0.0000E+00  0.0000E+00  0.0000E+00  0.0000E+00  0.0000E+00  0.0000E+00  0.0000E+00  0.0000E+00  0.0000E+00  0.0000E+00  0.0000E+00  0.0000E+00  0.0000E+00
    -39.835  0.0000E+00  0.0000E+00  0.0000E+00  0.0000E+00  0.0000E+00  0.0000E+00  0.0000E+00  0.0000E+00  0.0000E+00  0.0000E+00  0.0000E+00  0.0000E+00  0.0000E+00  0.0000E+00  0.0000E+00  0.0000E+00  0.0000E+00  0.0000E+00
    -39.628  0.0000E+00  0.0000E+00  0.0000E+00  0.0000E+00  0.0000E+00  0.0000E+00  0.0000E+00  0.0000E+00  0.0000E+00  0.0000E+00  0.0000E+00  0.0000E+00  0.0000E+00  0.0000E+00  0.0000E+00  0.0000E+00  0.0000E+00  0.0000E+00
    -39.421  0.0000E+00  0.0000E+00  0.0000E+00  0.0000E+00  0.0000E+00  0.0000E+00  0.0000E+00  0.0000E+00  0.0000E+00  0.0000E+00  0.0000E+00  0.0000E+00  0.0000E+00  0.0000E+00  0.0000E+00  0.0000E+00  0.0000E+00  0.0000E+00
    -39.213  0.0000E+00  0.0000E+00  0.0000E+00  0.0000E+00  0.0000E+00  0.0000E+00  0.0000E+00  0.0000E+00  0.0000E+00  0.0000E+00  0.0000E+00  0.0000E+00  0.0000E+00  0.0000E+00  0.0000E+00  0.0000E+00  0.0000E+00  0.0000E+00
    -39.006  0.0000E+00  0.0000E+00  0.0000E+00  0.0000E+00  0.0000E+00  0.0000E+00  0.0000E+00  0.0000E+00  0.0000E+00  0.0000E+00  0.0000E+00  0.0000E+00  0.0000E+00  0.0000E+00  0.0000E+00  0.0000E+00  0.0000E+00  0.0000E+00
    -38.799  0.0000E+00  0.0000E+00  0.0000E+00  0.0000E+00  0.0000E+00  0.0000E+00  0.0000E+00  0.0000E+00  0.0000E+00  0.0000E+00  0.0000E+00  0.0000E+00  0.0000E+00  0.0000E+00  0.0000E+00  0.0000E+00  0.0000E+00  0.0000E+00
    -38.592  0.0000E+00  0.0000E+00  0.0000E+00  0.0000E+00  0.0000E+00  0.0000E+00  0.0000E+00  0.0000E+00  0.0000E+00  0.0000E+00  0.0000E+00  0.0000E+00  0.0000E+00  0.0000E+00  0.0000E+00  0.0000E+00  0.0000E+00  0.0000E+00
    -38.385  0.0000E+00  0.0000E+00  0.0000E+00  0.0000E+00  0.0000E+00  0.0000E+00  0.0000E+00  0.0000E+00  0.0000E+00  0.0000E+00  0.0000E+00  0.0000E+00  0.0000E+00  0.0000E+00  0.0000E+00  0.0000E+00  0.0000E+00  0.0000E+00
    -38.177  0.3698E-11  0.0000E+00  0.7937E-04  0.0000E+00  0.7542E-10  0.0000E+00  0.7937E-04  0.0000E+00  0.1234E-12  0.0000E+00  0.1241E-10  0.0000E+00  0.1358E-11  0.0000E+00  0.1241E-10  0.0000E+00  0.4041E-11  0.0000E+00
    -37.970  0.4045E-09  0.0000E+00  0.4919E-02  0.0000E+00  0.5344E-03  0.0000E+00  0.4919E-02  0.0000E+00  0.7652E-11  0.0000E+00  0.7696E-09  0.0000E+00  0.2523E-09  0.0000E+00  0.7696E-09  0.0000E+00  0.2505E-09  0.0000E+00
    -37.763  0.2436E-07  0.0000E+00  0.2910E+00  0.0000E+00  0.3292E-01  0.0000E+00  0.2910E+00  0.0000E+00  0.4521E-09  0.0000E+00  0.4552E-07  0.0000E+00  0.1534E-07  0.0000E+00  0.4552E-07  0.0000E+00  0.1482E-07  0.0000E+00
    -37.556  0.6376E-06  0.0000E+00  0.3567E+01  0.0000E+00  0.1439E+01  0.0000E+00  0.3567E+01  0.0000E+00  0.5464E-08  0.0000E+00  0.5588E-06  0.0000E+00  0.5130E-06  0.0000E+00  0.5588E-06  0.0000E+00  0.1819E-06  0.0000E+00
    -37.349  0.1075E-05  0.0000E+00  0.9156E+00  0.0000E+00  0.3158E+01  0.0000E+00  0.9156E+00  0.0000E+00  0.1390E-08  0.0000E+00  0.1456E-06  0.0000E+00  0.1003E-05  0.0000E+00  0.1456E-06  0.0000E+00  0.4674E-07  0.0000E+00
    -37.141  0.5329E-07  0.0000E+00  0.7641E-07  0.0000E+00  0.1632E+00  0.0000E+00  0.7641E-07  0.0000E+00  0.6887E-12  0.0000E+00  0.1269E-09  0.0000E+00  0.5080E-07  0.0000E+00  0.1269E-09  0.0000E+00  0.1196E-11  0.0000E+00
    -36.934  0.0000E+00  0.0000E+00  0.0000E+00  0.0000E+00  0.0000E+00  0.0000E+00  0.0000E+00  0.0000E+00  0.0000E+00  0.0000E+00  0.0000E+00  0.0000E+00  0.0000E+00  0.0000E+00  0.0000E+00  0.0000E+00  0.0000E+00  0.0000E+00
    -36.727  0.0000E+00  0.0000E+00  0.0000E+00  0.0000E+00  0.0000E+00  0.0000E+00  0.0000E+00  0.0000E+00  0.0000E+00  0.0000E+00  0.0000E+00  0.0000E+00  0.0000E+00  0.0000E+00  0.0000E+00  0.0000E+00  0.0000E+00  0.0000E+00
    -36.520  0.0000E+00  0.1892E-11  0.0000E+00  0.3171E-04  0.0000E+00  0.1311E-08  0.0000E+00  0.3171E-04  0.0000E+00  0.6560E-13  0.0000E+00  0.5630E-11  0.0000E+00  0.6940E-12  0.0000E+00  0.5630E-11  0.0000E+00  0.2070E-11
    -36.313  0.0000E+00  0.8536E-09  0.0000E+00  0.1967E-02  0.0000E+00  0.1355E-02  0.0000E+00  0.1967E-02  0.0000E+00  0.4075E-11  0.0000E+00  0.3506E-09  0.0000E+00  0.6230E-09  0.0000E+00  0.3506E-09  0.0000E+00  0.1284E-09
    -36.106  0.0000E+00  0.5209E-07  0.0000E+00  0.1208E+00  0.0000E+00  0.8258E-01  0.0000E+00  0.1208E+00  0.0000E+00  0.2501E-09  0.0000E+00  0.2153E-07  0.0000E+00  0.3799E-07  0.0000E+00  0.2153E-07  0.0000E+00  0.7886E-08
    -35.898  0.0000E+00  0.1506E-05  0.0000E+00  0.2866E+01  0.0000E+00  0.2453E+01  0.0000E+00  0.2866E+01  0.0000E+00  0.5859E-08  0.0000E+00  0.5113E-06  0.0000E+00  0.1112E-05  0.0000E+00  0.5113E-06  0.0000E+00  0.1874E-06
    -35.691  0.0000E+00  0.1302E-05  0.0000E+00  0.1763E+01  0.0000E+00  0.2193E+01  0.0000E+00  0.1763E+01  0.0000E+00  0.3533E-08  0.0000E+00  0.3152E-06  0.0000E+00  0.9750E-06  0.0000E+00  0.3152E-06  0.0000E+00  0.1154E-06
    -35.484  0.0000E+00  0.0000E+00  0.0000E+00  0.0000E+00  0.0000E+00  0.0000E+00  0.0000E+00  0.0000E+00  0.0000E+00  0.0000E+00  0.0000E+00  0.0000E+00  0.0000E+00  0.0000E+00  0.0000E+00  0.0000E+00  0.0000E+00  0.0000E+00
    -35.277  0.0000E+00  0.0000E+00  0.0000E+00  0.0000E+00  0.0000E+00  0.0000E+00  0.0000E+00  0.0000E+00  0.0000E+00  0.0000E+00  0.0000E+00  0.0000E+00  0.0000E+00  0.0000E+00  0.0000E+00  0.0000E+00  0.0000E+00  0.0000E+00
    -35.070  0.0000E+00  0.0000E+00  0.0000E+00  0.0000E+00  0.0000E+00  0.0000E+00  0.0000E+00  0.0000E+00  0.0000E+00  0.0000E+00  0.0000E+00  0.0000E+00  0.0000E+00  0.0000E+00  0.0000E+00  0.0000E+00  0.0000E+00  0.0000E+00
    -34.862  0.0000E+00  0.0000E+00  0.0000E+00  0.0000E+00  0.0000E+00  0.0000E+00  0.0000E+00  0.0000E+00  0.0000E+00  0.0000E+00  0.0000E+00  0.0000E+00  0.0000E+00  0.0000E+00  0.0000E+00  0.0000E+00  0.0000E+00  0.0000E+00
    -34.655  0.0000E+00  0.0000E+00  0.0000E+00  0.0000E+00  0.0000E+00  0.0000E+00  0.0000E+00  0.0000E+00  0.0000E+00  0.0000E+00  0.0000E+00  0.0000E+00  0.0000E+00  0.0000E+00  0.0000E+00  0.0000E+00  0.0000E+00  0.0000E+00
    -34.448  0.0000E+00  0.0000E+00  0.0000E+00  0.0000E+00  0.0000E+00  0.0000E+00  0.0000E+00  0.0000E+00  0.0000E+00  0.0000E+00  0.0000E+00  0.0000E+00  0.0000E+00  0.0000E+00  0.0000E+00  0.0000E+00  0.0000E+00  0.0000E+00
    -34.241  0.0000E+00  0.0000E+00  0.0000E+00  0.0000E+00  0.0000E+00  0.0000E+00  0.0000E+00  0.0000E+00  0.0000E+00  0.0000E+00  0.0000E+00  0.0000E+00  0.0000E+00  0.0000E+00  0.0000E+00  0.0000E+00  0.0000E+00  0.0000E+00
    -34.034  0.0000E+00  0.0000E+00  0.0000E+00  0.0000E+00  0.0000E+00  0.0000E+00  0.0000E+00  0.0000E+00  0.0000E+00  0.0000E+00  0.0000E+00  0.0000E+00  0.0000E+00  0.0000E+00  0.0000E+00  0.0000E+00  0.0000E+00  0.0000E+00
    -33.826  0.0000E+00  0.0000E+00  0.0000E+00  0.0000E+00  0.0000E+00  0.0000E+00  0.0000E+00  0.0000E+00  0.0000E+00  0.0000E+00  0.0000E+00  0.0000E+00  0.0000E+00  0.0000E+00  0.0000E+00  0.0000E+00  0.0000E+00  0.0000E+00
    -33.619  0.0000E+00  0.0000E+00  0.0000E+00  0.0000E+00  0.0000E+00  0.0000E+00  0.0000E+00  0.0000E+00  0.0000E+00  0.0000E+00  0.0000E+00  0.0000E+00  0.0000E+00  0.0000E+00  0.0000E+00  0.0000E+00  0.0000E+00  0.0000E+00
    -33.412  0.0000E+00  0.0000E+00  0.0000E+00  0.0000E+00  0.0000E+00  0.0000E+00  0.0000E+00  0.0000E+00  0.0000E+00  0.0000E+00  0.0000E+00  0.0000E+00  0.0000E+00  0.0000E+00  0.0000E+00  0.0000E+00  0.0000E+00  0.0000E+00
    -33.205  0.0000E+00  0.0000E+00  0.0000E+00  0.0000E+00  0.0000E+00  0.0000E+00  0.0000E+00  0.0000E+00  0.0000E+00  0.0000E+00  0.0000E+00  0.0000E+00  0.0000E+00  0.0000E+00  0.0000E+00  0.0000E+00  0.0000E+00  0.0000E+00
    -32.998  0.0000E+00  0.0000E+00  0.0000E+00  0.0000E+00  0.0000E+00  0.0000E+00  0.0000E+00  0.0000E+00  0.0000E+00  0.0000E+00  0.0000E+00  0.0000E+00  0.0000E+00  0.0000E+00  0.0000E+00  0.0000E+00  0.0000E+00  0.0000E+00
    -32.790  0.0000E+00  0.0000E+00  0.0000E+00  0.0000E+00  0.0000E+00  0.0000E+00  0.0000E+00  0.0000E+00  0.0000E+00  0.0000E+00  0.0000E+00  0.0000E+00  0.0000E+00  0.0000E+00  0.0000E+00  0.0000E+00  0.0000E+00  0.0000E+00
    -32.583  0.0000E+00  0.0000E+00  0.0000E+00  0.0000E+00  0.0000E+00  0.0000E+00  0.0000E+00  0.0000E+00  0.0000E+00  0.0000E+00  0.0000E+00  0.0000E+00  0.0000E+00  0.0000E+00  0.0000E+00  0.0000E+00  0.0000E+00  0.0000E+00
    -32.376  0.0000E+00  0.0000E+00  0.0000E+00  0.0000E+00  0.0000E+00  0.0000E+00  0.0000E+00  0.0000E+00  0.0000E+00  0.0000E+00  0.0000E+00  0.0000E+00  0.0000E+00  0.0000E+00  0.0000E+00  0.0000E+00  0.0000E+00  0.0000E+00
    -32.169  0.0000E+00  0.0000E+00  0.0000E+00  0.0000E+00  0.0000E+00  0.0000E+00  0.0000E+00  0.0000E+00  0.0000E+00  0.0000E+00  0.0000E+00  0.0000E+00  0.0000E+00  0.0000E+00  0.0000E+00  0.0000E+00  0.0000E+00  0.0000E+00
    -31.962  0.0000E+00  0.0000E+00  0.0000E+00  0.0000E+00  0.0000E+00  0.0000E+00  0.0000E+00  0.0000E+00  0.0000E+00  0.0000E+00  0.0000E+00  0.0000E+00  0.0000E+00  0.0000E+00  0.0000E+00  0.0000E+00  0.0000E+00  0.0000E+00
    -31.754  0.0000E+00  0.0000E+00  0.0000E+00  0.0000E+00  0.0000E+00  0.0000E+00  0.0000E+00  0.0000E+00  0.0000E+00  0.0000E+00  0.0000E+00  0.0000E+00  0.0000E+00  0.0000E+00  0.0000E+00  0.0000E+00  0.0000E+00  0.0000E+00
    -31.547  0.0000E+00  0.0000E+00  0.0000E+00  0.0000E+00  0.0000E+00  0.0000E+00  0.0000E+00  0.0000E+00  0.0000E+00  0.0000E+00  0.0000E+00  0.0000E+00  0.0000E+00  0.0000E+00  0.0000E+00  0.0000E+00  0.0000E+00  0.0000E+00
    -31.340  0.0000E+00  0.0000E+00  0.0000E+00  0.0000E+00  0.0000E+00  0.0000E+00  0.0000E+00  0.0000E+00  0.0000E+00  0.0000E+00  0.0000E+00  0.0000E+00  0.0000E+00  0.0000E+00  0.0000E+00  0.0000E+00  0.0000E+00  0.0000E+00
    -31.133  0.0000E+00  0.0000E+00  0.0000E+00  0.0000E+00  0.0000E+00  0.0000E+00  0.0000E+00  0.0000E+00  0.0000E+00  0.0000E+00  0.0000E+00  0.0000E+00  0.0000E+00  0.0000E+00  0.0000E+00  0.0000E+00  0.0000E+00  0.0000E+00
    -30.926  0.0000E+00  0.0000E+00  0.0000E+00  0.0000E+00  0.0000E+00  0.0000E+00  0.0000E+00  0.0000E+00  0.0000E+00  0.0000E+00  0.0000E+00  0.0000E+00  0.0000E+00  0.0000E+00  0.0000E+00  0.0000E+00  0.0000E+00  0.0000E+00
    -30.719  0.0000E+00  0.0000E+00  0.0000E+00  0.0000E+00  0.0000E+00  0.0000E+00  0.0000E+00  0.0000E+00  0.0000E+00  0.0000E+00  0.0000E+00  0.0000E+00  0.0000E+00  0.0000E+00  0.0000E+00  0.0000E+00  0.0000E+00  0.0000E+00
    -30.511  0.0000E+00  0.0000E+00  0.0000E+00  0.0000E+00  0.0000E+00  0.0000E+00  0.0000E+00  0.0000E+00  0.0000E+00  0.0000E+00  0.0000E+00  0.0000E+00  0.0000E+00  0.0000E+00  0.0000E+00  0.0000E+00  0.0000E+00  0.0000E+00
    -30.304  0.0000E+00  0.0000E+00  0.0000E+00  0.0000E+00  0.0000E+00  0.0000E+00  0.0000E+00  0.0000E+00  0.0000E+00  0.0000E+00  0.0000E+00  0.0000E+00  0.0000E+00  0.0000E+00  0.0000E+00  0.0000E+00  0.0000E+00  0.0000E+00
    -30.097  0.0000E+00  0.0000E+00  0.0000E+00  0.0000E+00  0.0000E+00  0.0000E+00  0.0000E+00  0.0000E+00  0.0000E+00  0.0000E+00  0.0000E+00  0.0000E+00  0.0000E+00  0.0000E+00  0.0000E+00  0.0000E+00  0.0000E+00  0.0000E+00