  16  16   1   0
  0.1033826E+02  0.3411314E-09  0.3411314E-09  0.1421425E-08  0.5000000E-15
  1.000000000000000E-004
  CAR 
 unknown system                          
     24.99334227    -38.18570193  301     13.14378825      1.00000000
    -38.186  0.0000E+00  0.0000E+00  0.0000E+00  0.0000E+00
    -37.975  0.0000E+00  0.0000E+00  0.0000E+00  0.0000E+00
    -37.765  0.0000E+00  0.0000E+00  0.0000E+00  0.0000E+00
    -37.554  0.0000E+00  0.0000E+00  0.0000E+00  0.0000E+00
    -37.343  0.0000E+00  0.0000E+00  0.0000E+00  0.0000E+00
    -37.133  0.0000E+00  0.0000E+00  0.0000E+00  0.0000E+00
    -36.922  0.0000E+00  0.0000E+00  0.0000E+00  0.0000E+00
    -36.712  0.0000E+00  0.0000E+00  0.0000E+00  0.0000E+00
    -36.501  0.0000E+00  0.0000E+00  0.0000E+00  0.0000E+00
    -36.290  0.0000E+00  0.0000E+00  0.0000E+00  0.0000E+00
    -36.080  0.0000E+00  0.0000E+00  0.0000E+00  0.0000E+00
    -35.869  0.4751E-03  0.0000E+00  0.1001E-03  0.0000E+00
    -35.659  0.3253E-01  0.0000E+00  0.6951E-02  0.0000E+00
    -35.448  0.2078E+01  0.0000E+00  0.4446E+00  0.0000E+00
    -35.237  0.3154E+02  0.0000E+00  0.7087E+01  0.0000E+00
    -35.027  0.2204E+02  0.0000E+00  0.1173E+02  0.0000E+00
    -34.816  0.1124E+01  0.0000E+00  0.1200E+02  0.0000E+00
    -34.606  0.0000E+00  0.0000E+00  0.1200E+02  0.0000E+00
    -34.395  0.0000E+00  0.1124E-02  0.1200E+02  0.2368E-03
    -34.184  0.0000E+00  0.7465E-01  0.1200E+02  0.1596E-01
    -33.974  0.0000E+00  0.4603E+01  0.1200E+02  0.9852E+00
    -33.763  0.0000E+00  0.4388E+02  0.1200E+02  0.1023E+02
    -33.553  0.0000E+00  0.8278E+01  0.1200E+02  0.1197E+02
    -33.342  0.0000E+00  0.0000E+00  0.1200E+02  0.1200E+02
    -33.131  0.0000E+00  0.0000E+00  0.1200E+02  0.1200E+02
    -32.921  0.0000E+00  0.0000E+00  0.1200E+02  0.1200E+02
    -32.710  0.0000E+00  0.0000E+00  0.1200E+02  0.1200E+02
    -32.500  0.0000E+00  0.0000E+00  0.1200E+02  0.1200E+02
    -32.289  0.0000E+00  0.0000E+00  0.1200E+02  0.1200E+02
    -32.078  0.0000E+00  0.0000E+00  0.1200E+02  0.1200E+02
    -31.868  0.0000E+00  0.0000E+00  0.1200E+02  0.1200E+02
    -31.657  0.0000E+00  0.0000E+00  0.1200E+02  0.1200E+02
    -31.447  0.0000E+00  0.0000E+00  0.1200E+02  0.1200E+02
    -31.236  0.0000E+00  0.0000E+00  0.1200E+02  0.1200E+02
    -31.025  0.0000E+00  0.0000E+00  0.1200E+02  0.1200E+02
    -30.815  0.0000E+00  0.0000E+00  0.1200E+02  0.1200E+02
    -30.604  0.0000E+00  0.0000E+00  0.1200E+02  0.1200E+02
    -30.394  0.0000E+00  0.0000E+00  0.1200E+02  0.1200E+02
    -30.183  0.0000E+00  0.0000E+00  0.1200E+02  0.1200E+02
    -29.972  0.0000E+00  0.0000E+00  0.1200E+02  0.1200E+02
    -29.762  0.0000E+00  0.0000E+00  0.1200E+02  0.1200E+02
    -29.551  0.0000E+00  0.0000E+00  0.1200E+02  0.1200E+02
    -29.341  0.0000E+00  0.0000E+00  0.1200E+02  0.1200E+02
    -29.130  0.0000E+00  0.0000E+00  0.1200E+02  0.1200E+02
    -28.919  0.0000E+00  0.0000E+00  0.1200E+02  0.1200E+02
    -28.709  0.0000E+00  0.0000E+00  0.1200E+02  0.1200E+02
    -28.498  0.0000E+00  0.0000E+00  0.1200E+02  0.1200E+02
    -28.288  0.0000E+00  0.0000E+00  0.1200E+02  0.1200E+02
    -28.077  0.0000E+00  0.0000E+00  0.1200E+02  0.1200E+02
    -27.866  0.0000E+00  0.0000E+00  0.1200E+02  0.1200E+02
    -27.656  0.0000E+00  0.0000E+00  0.1200E+02  0.1200E+02
    -27.445  0.0000E+00  0.0000E+00  0.1200E+02  0.1200E+02
    -27.235  0.0000E+00  0.0000E+00  0.1200E+02  0.1200E+02
    -27.024  0.0000E+00  0.0000E+00  0.1200E+02  0.1200E+02
    -26.813  0.0000E+00  0.0000E+00  0.1200E+02  0.1200E+02
    -26.603  0.0000E+00  0.0000E+00  0.1200E+02  0.1200E+02
    -26.392  0.0000E+00  0.0000E+00  0.1200E+02  0.1200E+02
    -26.182  0.0000E+00  0.0000E+00  0.1200E+02  0.1200E+02
    -25.971  0.0000E+00  0.0000E+00  0.1200E+02  0.1200E+02
    -25.760  0.0000E+00  0.0000E+00  0.1200E+02  0.1200E+02
    -25.550  0.0000E+00  0.0000E+00  0.1200E+02  0.1200E+02
    -25.339  0.0000E+00  0.0000E+00  0.1200E+02  0.1200E+02
    -25.129  0.0000E+00  0.0000E+00  0.1200E+02  0.1200E+02
    -24.918  0.0000E+00  0.0000E+00  0.1200E+02  0.1200E+02
    -24.708  0.0000E+00  0.0000E+00  0.1200E+02  0.1200E+02
    -24.497  0.0000E+00  0.0000E+00  0.1200E+02  0.1200E+02
    -24.286  0.0000E+00  0.0000E+00  0.1200E+02  0.1200E+02
    -24.076  0.0000E+00  0.0000E+00  0.1200E+02  0.1200E+02
    -23.865  0.0000E+00  0.0000E+00  0.1200E+02  0.1200E+02
    -23.655  0.0000E+00  0.0000E+00  0.1200E+02  0.1200E+02
    -23.444  0.0000E+00  0.0000E+00  0.1200E+02  0.1200E+02
    -23.233  0.0000E+00  0.0000E+00  0.1200E+02  0.1200E+02
    -23.023  0.0000E+00  0.0000E+00  0.1200E+02  0.1200E+02
    -22.812  0.0000E+00  0.0000E+00  0.1200E+02  0.1200E+02
    -22.602  0.0000E+00  0.0000E+00  0.1200E+02  0.1200E+02
    -22.391  0.0000E+00  0.0000E+00  0.1200E+02  0.1200E+02
    -22.180  0.0000E+00  0.0000E+00  0.1200E+02  0.1200E+02
    -21.970  0.0000E+00  0.0000E+00  0.1200E+02  0.1200E+02
    -21.759  0.0000E+00  0.0000E+00  0.1200E+02  0.1200E+02
    -21.549  0.0000E+00  0.0000E+00  0.1200E+02  0.1200E+02
    -21.338  0.0000E+00  0.0000E+00  0.1200E+02  0.1200E+02
    -21.127  0.0000E+00  0.0000E+00  0.1200E+02  0.1200E+02
    -20.917  0.0000E+00  0.0000E+00  0.1200E+02  0.1200E+02
    -20.706  0.0000E+00  0.0000E+00  0.1200E+02  0.1200E+02
    -20.496  0.0000E+00  0.0000E+00  0.1200E+02  0.1200E+02
    -20.285  0.0000E+00  0.0000E+00  0.1200E+02  0.1200E+02
    -20.074  0.0000E+00  0.0000E+00  0.1200E+02  0.1200E+02
    -19.864  0.0000E+00  0.0000E+00  0.1200E+02  0.1200E+02
    -19.653  0.0000E+00  0.0000E+00  0.1200E+02  0.1200E+02
    -19.443  0.0000E+00  0.0000E+00  0.1200E+02  0.1200E+02
    -19.232  0.0000E+00  0.0000E+00  0.1200E+02  0.1200E+02
    -19.021  0.0000E+00  0.0000E+00  0.1200E+02  0.1200E+02
    -18.811  0.0000E+00  0.0000E+00  0.1200E+02  0.1200E+02
    -18.600  0.0000E+00  0.0000E+00  0.1200E+02  0.1200E+02
    -18.390  0.0000E+00  0.0000E+00  0.1200E+02  0.1200E+02
    -18.179  0.0000E+00  0.0000E+00  0.1200E+02  0.1200E+02
    -17.968  0.0000E+00  0.0000E+00  0.1200E+02  0.1200E+02
    -17.758  0.0000E+00  0.0000E+00  0.1200E+02  0.1200E+02
    -17.547  0.0000E+00  0.0000E+00  0.1200E+02  0.1200E+02
    -17.337  0.0000E+00  0.0000E+00  0.1200E+02  0.1200E+02
    -17.126  0.0000E+00  0.0000E+00  0.1200E+02  0.1200E+02
    -16.915  0.0000E+00  0.0000E+00  0.1200E+02  0.1200E+02
    -16.705  0.0000E+00  0.0000E+00  0.1200E+02  0.1200E+02
    -16.494  0.0000E+00  0.0000E+00  0.1200E+02  0.1200E+02
    -16.284  0.0000E+00  0.0000E+00  0.1200E+02  0.1200E+02
    -16.073  0.0000E+00  0.0000E+00  0.1200E+02  0.1200E+02
    -15.862  0.0000E+00  0.0000E+00  0.1200E+02  0.1200E+02
    -15.652  0.0000E+00  0.0000E+00  0.1200E+02  0.1200E+02
    -15.441  0.0000E+00  0.0000E+00  0.1200E+02  0.1200E+02
    -15.231  0.0000E+00  0.0000E+00  0.1200E+02  0.1200E+02
    -15.020  0.0000E+00  0.0000E+00  0.1200E+02  0.1200E+02
    -14.809  0.0000E+00  0.0000E+00  0.1200E+02  0.1200E+02
    -14.599  0.0000E+00  0.0000E+00  0.1200E+02  0.1200E+02
    -14.388  0.0000E+00  0.0000E+00  0.1200E+02  0.1200E+02
    -14.178  0.0000E+00  0.0000E+00  0.1200E+02  0.1200E+02
    -13.967  0.0000E+00  0.0000E+00  0.1200E+02  0.1200E+02
    -13.756  0.0000E+00  0.0000E+00  0.1200E+02  0.1200E+02
    -13.546  0.0000E+00  0.0000E+00  0.1200E+02  0.1200E+02
    -13.335  0.0000E+00  0.0000E+00  0.1200E+02  0.1200E+02
    -13.125  0.0000E+00  0.0000E+00  0.1200E+02  0.1200E+02
    -12.914  0.0000E+00  0.0000E+00  0.1200E+02  0.1200E+02
    -12.703  0.0000E+00  0.0000E+00  0.1200E+02  0.1200E+02
    -12.493  0.0000E+00  0.0000E+00  0.1200E+02  0.1200E+02
    -12.282  0.0000E+00  0.0000E+00  0.1200E+02  0.1200E+02
    -12.072  0.0000E+00  0.0000E+00  0.1200E+02  0.1200E+02
    -11.861  0.0000E+00  0.0000E+00  0.1200E+02  0.1200E+02
    -11.651  0.0000E+00  0.0000E+00  0.1200E+02  0.1200E+02
    -11.440  0.0000E+00  0.0000E+00  0.1200E+02  0.1200E+02
    -11.229  0.0000E+00  0.0000E+00  0.1200E+02  0.1200E+02
    -11.019  0.0000E+00  0.0000E+00  0.1200E+02  0.1200E+02
    -10.808  0.0000E+00  0.0000E+00  0.1200E+02  0.1200E+02
    -10.598  0.0000E+00  0.0000E+00  0.1200E+02  0.1200E+02
    -10.387  0.0000E+00  0.0000E+00  0.1200E+02  0.1200E+02
    -10.176  0.0000E+00  0.0000E+00  0.1200E+02  0.1200E+02
     -9.966  0.0000E+00  0.0000E+00  0.1200E+02  0.1200E+02
     -9.755  0.0000E+00  0.0000E+00  0.1200E+02  0.1200E+02
     -9.545  0.0000E+00  0.0000E+00  0.1200E+02  0.1200E+02
     -9.334  0.0000E+00  0.0000E+00  0.1200E+02  0.1200E+02
     -9.123  0.0000E+00  0.0000E+00  0.1200E+02  0.1200E+02
     -8.913  0.0000E+00  0.0000E+00  0.1200E+02  0.1200E+02
     -8.702  0.0000E+00  0.0000E+00  0.1200E+02  0.1200E+02
     -8.492  0.0000E+00  0.0000E+00  0.1200E+02  0.1200E+02
     -8.281  0.0000E+00  0.0000E+00  0.1200E+02  0.1200E+02
     -8.070  0.0000E+00  0.0000E+00  0.1200E+02  0.1200E+02
     -7.860  0.0000E+00  0.0000E+00  0.1200E+02  0.1200E+02
     -7.649  0.0000E+00  0.0000E+00  0.1200E+02  0.1200E+02
     -7.439  0.0000E+00  0.0000E+00  0.1200E+02  0.1200E+02
     -7.228  0.0000E+00  0.0000E+00  0.1200E+02  0.1200E+02
     -7.017  0.0000E+00  0.0000E+00  0.1200E+02  0.1200E+02
     -6.807  0.0000E+00  0.0000E+00  0.1200E+02  0.1200E+02
     -6.596  0.0000E+00  0.0000E+00  0.1200E+02  0.1200E+02
     -6.386  0.0000E+00  0.0000E+00  0.1200E+02  0.1200E+02
     -6.175  0.0000E+00  0.0000E+00  0.1200E+02  0.1200E+02
     -5.964  0.0000E+00  0.0000E+00  0.1200E+02  0.1200E+02
     -5.754  0.0000E+00  0.0000E+00  0.1200E+02  0.1200E+02
     -5.543  0.0000E+00  0.0000E+00  0.1200E+02  0.1200E+02
     -5.333  0.0000E+00  0.0000E+00  0.1200E+02  0.1200E+02
     -5.122  0.0000E+00  0.0000E+00  0.1200E+02  0.1200E+02
     -4.911  0.0000E+00  0.0000E+00  0.1200E+02  0.1200E+02
     -4.701  0.0000E+00  0.0000E+00  0.1200E+02  0.1200E+02
     -4.490  0.0000E+00  0.0000E+00  0.1200E+02  0.1200E+02
     -4.280  0.0000E+00  0.0000E+00  0.1200E+02  0.1200E+02
     -4.069  0.0000E+00  0.0000E+00  0.1200E+02  0.1200E+02
     -3.858  0.0000E+00  0.0000E+00  0.1200E+02  0.1200E+02
     -3.648  0.0000E+00  0.0000E+00  0.1200E+02  0.1200E+02
     -3.437  0.0000E+00  0.0000E+00  0.1200E+02  0.1200E+02
     -3.227  0.0000E+00  0.0000E+00  0.1200E+02  0.1200E+02
     -3.016  0.0000E+00  0.0000E+00  0.1200E+02  0.1200E+02
     -2.805  0.0000E+00  0.0000E+00  0.1200E+02  0.1200E+02
     -2.595  0.0000E+00  0.0000E+00  0.1200E+02  0.1200E+02
     -2.384  0.0000E+00  0.0000E+00  0.1200E+02  0.1200E+02
     -2.174  0.0000E+00  0.0000E+00  0.1200E+02  0.1200E+02
     -1.963  0.0000E+00  0.0000E+00  0.1200E+02  0.1200E+02
     -1.752  0.0000E+00  0.0000E+00  0.1200E+02  0.1200E+02
     -1.542  0.0000E+00  0.0000E+00  0.1200E+02  0.1200E+02
     -1.331  0.0000E+00  0.0000E+00  0.1200E+02  0.1200E+02
     -1.121  0.0000E+00  0.0000E+00  0.1200E+02  0.1200E+02
     -0.910  0.7712E-07  0.0000E+00  0.1200E+02  0.1200E+02
     -0.699  0.1421E-04  0.3445E-05  0.1200E+02  0.1200E+02
     -0.489  0.9657E-03  0.2350E-03  0.1200E+02  0.1200E+02
     -0.278  0.3806E-01  0.1296E-01  0.1201E+02  0.1200E+02
     -0.068  0.1995E+00  0.1462E+00  0.1205E+02  0.1203E+02
      0.143  0.3665E+00  0.2969E+00  0.1213E+02  0.1210E+02
      0.354  0.3755E+00  0.3771E+00  0.1221E+02  0.1218E+02
      0.564  0.5489E+00  0.5237E+00  0.1232E+02  0.1229E+02
      0.775  0.5831E+00  0.5448E+00  0.1245E+02  0.1240E+02
      0.985  0.5634E+00  0.5599E+00  0.1257E+02  0.1252E+02
      1.196  0.7901E+00  0.7645E+00  0.1273E+02  0.1268E+02
      1.406  0.7457E+00  0.7987E+00  0.1289E+02  0.1285E+02
      1.617  0.7325E+00  0.6278E+00  0.1305E+02  0.1298E+02
      1.828  0.1012E+01  0.1012E+01  0.1326E+02  0.1320E+02
      2.038  0.9290E+00  0.1007E+01  0.1346E+02  0.1341E+02
      2.249  0.9613E+00  0.8466E+00  0.1366E+02  0.1359E+02
      2.459  0.1208E+01  0.1234E+01  0.1392E+02  0.1385E+02
      2.670  0.1057E+01  0.1059E+01  0.1414E+02  0.1407E+02
      2.881  0.1307E+01  0.1297E+01  0.1442E+02  0.1435E+02
      3.091  0.1008E+01  0.1092E+01  0.1463E+02  0.1458E+02
      3.302  0.1033E+01  0.8710E+00  0.1485E+02  0.1476E+02
      3.512  0.1299E+01  0.1335E+01  0.1512E+02  0.1505E+02
      3.723  0.1137E+01  0.1038E+01  0.1536E+02  0.1527E+02
      3.934  0.1484E+01  0.1403E+01  0.1568E+02  0.1556E+02
      4.144  0.1206E+01  0.1259E+01  0.1593E+02  0.1583E+02
      4.355  0.1280E+01  0.1203E+01  0.1620E+02  0.1608E+02
      4.565  0.1438E+01  0.1337E+01  0.1651E+02  0.1637E+02
      4.776  0.1618E+01  0.1448E+01  0.1685E+02  0.1667E+02
      4.987  0.1624E+01  0.1685E+01  0.1719E+02  0.1703E+02
      5.197  0.1489E+01  0.1516E+01  0.1751E+02  0.1735E+02
      5.408  0.1627E+01  0.1478E+01  0.1785E+02  0.1766E+02
      5.618  0.1675E+01  0.1698E+01  0.1821E+02  0.1802E+02
      5.829  0.1648E+01  0.1449E+01  0.1856E+02  0.1833E+02
      6.040  0.1917E+01  0.1728E+01  0.1896E+02  0.1870E+02
      6.250  0.1698E+01  0.1896E+01  0.1932E+02  0.1910E+02
      6.461  0.1690E+01  0.1557E+01  0.1968E+02  0.1943E+02
      6.671  0.1840E+01  0.1710E+01  0.2007E+02  0.1979E+02
      6.882  0.2323E+01  0.1866E+01  0.2056E+02  0.2018E+02
      7.093  0.2200E+01  0.2081E+01  0.2103E+02  0.2062E+02
      7.303  0.2244E+01  0.2198E+01  0.2150E+02  0.2109E+02
      7.514  0.2323E+01  0.2191E+01  0.2199E+02  0.2155E+02
      7.724  0.2432E+01  0.2117E+01  0.2251E+02  0.2200E+02
      7.935  0.2684E+01  0.2204E+01  0.2308E+02  0.2247E+02
      8.146  0.2968E+01  0.2356E+01  0.2370E+02  0.2297E+02
      8.356  0.3162E+01  0.2585E+01  0.2437E+02  0.2351E+02
      8.567  0.3888E+01  0.2844E+01  0.2519E+02  0.2412E+02
      8.777  0.4471E+01  0.2898E+01  0.2614E+02  0.2473E+02
      8.988  0.3868E+01  0.3260E+01  0.2696E+02  0.2542E+02
      9.199  0.3534E+01  0.3579E+01  0.2771E+02  0.2618E+02
      9.409  0.3215E+01  0.3321E+01  0.2839E+02  0.2688E+02
      9.620  0.3942E+01  0.3718E+01  0.2922E+02  0.2767E+02
      9.830  0.4375E+01  0.3493E+01  0.3014E+02  0.2841E+02
     10.041  0.5193E+01  0.3560E+01  0.3124E+02  0.2916E+02
     10.252  0.6358E+01  0.3764E+01  0.3259E+02  0.2996E+02
     10.462  0.6217E+01  0.3770E+01  0.3390E+02  0.3076E+02
     10.673  0.5977E+01  0.4960E+01  0.3517E+02  0.3180E+02
     10.883  0.6004E+01  0.5623E+01  0.3644E+02  0.3299E+02
     11.094  0.4641E+01  0.5115E+01  0.3743E+02  0.3407E+02
     11.305  0.4020E+01  0.4868E+01  0.3828E+02  0.3511E+02
     11.515  0.2713E+01  0.4932E+01  0.3885E+02  0.3615E+02
     11.726  0.3839E+01  0.4293E+01  0.3967E+02  0.3706E+02
     11.936  0.5795E+01  0.3708E+01  0.4089E+02  0.3785E+02
     12.147  0.8267E+01  0.3240E+01  0.4264E+02  0.3853E+02
     12.358  0.6459E+01  0.2120E+01  0.4401E+02  0.3898E+02
     12.568  0.5038E+01  0.2560E+01  0.4507E+02  0.3952E+02
     12.779  0.4460E+01  0.3036E+01  0.4602E+02  0.4017E+02
     12.989  0.2456E+01  0.2716E+01  0.4654E+02  0.4074E+02
     13.200  0.2028E+01  0.2650E+01  0.4697E+02  0.4130E+02
     13.411  0.1871E+01  0.4321E+01  0.4737E+02  0.4222E+02
     13.621  0.1815E+01  0.8769E+01  0.4775E+02  0.4407E+02
     13.832  0.1362E+01  0.1061E+02  0.4804E+02  0.4630E+02
     14.042  0.1980E+01  0.4792E+01  0.4846E+02  0.4733E+02
     14.253  0.2272E+01  0.2664E+01  0.4894E+02  0.4789E+02
     14.464  0.3207E+01  0.2040E+01  0.4962E+02  0.4833E+02
     14.674  0.3126E+01  0.2644E+01  0.5028E+02  0.4889E+02
     14.885  0.3619E+01  0.2908E+01  0.5105E+02  0.4950E+02
     15.095  0.4130E+01  0.2827E+01  0.5192E+02  0.5010E+02
     15.306  0.4102E+01  0.3162E+01  0.5279E+02  0.5077E+02
     15.516  0.3303E+01  0.4245E+01  0.5349E+02  0.5167E+02
     15.727  0.3221E+01  0.3804E+01  0.5417E+02  0.5247E+02
     15.938  0.2743E+01  0.3901E+01  0.5475E+02  0.5330E+02
     16.148  0.2355E+01  0.3964E+01  0.5526E+02  0.5414E+02
     16.359  0.2089E+01  0.3074E+01  0.5570E+02  0.5479E+02
     16.569  0.2278E+01  0.2480E+01  0.5618E+02  0.5531E+02
     16.780  0.2273E+01  0.2453E+01  0.5666E+02  0.5583E+02
     16.991  0.2069E+01  0.2344E+01  0.5710E+02  0.5633E+02
     17.201  0.2789E+01  0.2250E+01  0.5769E+02  0.5681E+02
     17.412  0.3394E+01  0.2229E+01  0.5841E+02  0.5728E+02
     17.622  0.3964E+01  0.2943E+01  0.5925E+02  0.5790E+02
     17.833  0.3537E+01  0.3943E+01  0.5999E+02  0.5873E+02
     18.044  0.3515E+01  0.3595E+01  0.6074E+02  0.5949E+02
     18.254  0.2322E+01  0.3619E+01  0.6123E+02  0.6026E+02
     18.465  0.3554E+01  0.2471E+01  0.6198E+02  0.6079E+02
     18.675  0.3359E+01  0.3537E+01  0.6269E+02  0.6153E+02
     18.886  0.2331E+01  0.3785E+01  0.6318E+02  0.6233E+02
     19.097  0.2048E+01  0.2906E+01  0.6362E+02  0.6295E+02
     19.307  0.2531E+01  0.2356E+01  0.6415E+02  0.6345E+02
     19.518  0.2784E+01  0.2640E+01  0.6474E+02  0.6401E+02
     19.728  0.2223E+01  0.2491E+01  0.6521E+02  0.6454E+02
     19.939  0.2837E+01  0.2299E+01  0.6581E+02  0.6502E+02
     20.150  0.2847E+01  0.2297E+01  0.6642E+02  0.6551E+02
     20.360  0.2176E+01  0.2090E+01  0.6688E+02  0.6595E+02
     20.571  0.1995E+01  0.2477E+01  0.6730E+02  0.6648E+02
     20.781  0.1220E+01  0.2648E+01  0.6756E+02  0.6704E+02
     20.992  0.8259E+00  0.2034E+01  0.6774E+02  0.6747E+02
     21.203  0.5822E+00  0.1170E+01  0.6786E+02  0.6772E+02
     21.413  0.4040E+00  0.6674E+00  0.6795E+02  0.6786E+02
     21.624  0.8196E-01  0.3460E+00  0.6796E+02  0.6793E+02
     21.834  0.9442E-01  0.1277E+00  0.6798E+02  0.6796E+02
     22.045  0.7425E-01  0.1081E+00  0.6800E+02  0.6799E+02
     22.256  0.4396E-02  0.6171E-01  0.6800E+02  0.6800E+02
     22.466  0.0000E+00  0.4730E-02  0.6800E+02  0.6800E+02
     22.677  0.0000E+00  0.0000E+00  0.6800E+02  0.6800E+02
     22.887  0.0000E+00  0.0000E+00  0.6800E+02  0.6800E+02
     23.098  0.0000E+00  0.0000E+00  0.6800E+02  0.6800E+02
     23.309  0.0000E+00  0.0000E+00  0.6800E+02  0.6800E+02
     23.519  0.0000E+00  0.0000E+00  0.6800E+02  0.6800E+02
     23.730  0.0000E+00  0.0000E+00  0.6800E+02  0.6800E+02
     23.940  0.0000E+00  0.0000E+00  0.6800E+02  0.6800E+02
     24.151  0.0000E+00  0.0000E+00  0.6800E+02  0.6800E+02
     24.362  0.0000E+00  0.0000E+00  0.6800E+02  0.6800E+02
     24.572  0.0000E+00  0.0000E+00  0.6800E+02  0.6800E+02
     24.783  0.0000E+00  0.0000E+00  0.6800E+02  0.6800E+02
     24.993  0.0000E+00  0.0000E+00  0.6800E+02  0.6800E+02
     24.99334227    -38.18570193  301     13.14378825      1.00000000
    -38.186  0.0000E+00  0.0000E+00  0.0000E+00  0.0000E+00  0.0000E+00  0.0000E+00  0.0000E+00  0.0000E+00  0.0000E+00  0.0000E+00  0.0000E+00  0.0000E+00  0.0000E+00  0.0000E+00  0.0000E+00  0.0000E+00  0.0000E+00  0.0000E+00
    -37.975  0.0000E+00  0.0000E+00  0.0000E+00  0.0000E+00  0.0000E+00  0.0000E+00  0.0000E+00  0.0000E+00  0.0000E+00  0.0000E+00  0.0000E+00  0.0000E+00  0.0000E+00  0.0000E+00  0.0000E+00  0.0000E+00  0.0000E+00  0.0000E+00
    -37.765  0.0000E+00  0.0000E+00  0.0000E+00  0.0000E+00  0.0000E+00  0.0000E+00  0.0000E+00  0.0000E+00  0.0000E+00  0.0000E+00  0.0000E+00  0.0000E+00  0.0000E+00  0.0000E+00  0.0000E+00  0.0000E+00  0.0000E+00  0.0000E+00
    -37.554  0.0000E+00  0.0000E+00  0.0000E+00  0.0000E+00  0.0000E+00  0.0000E+00  0.0000E+00  0.0000E+00  0.0000E+00  0.0000E+00  0.0000E+00  0.0000E+00  0.0000E+00  0.0000E+00  0.0000E+00  0.0000E+00  0.0000E+00  0.0000E+00
    -37.343  0.0000E+00  0.0000E+00  0.0000E+00  0.0000E+00  0.0000E+00  0.0000E+00  0.0000E+00  0.0000E+00  0.0000E+00  0.0000E+00  0.0000E+00  0.0000E+00  0.0000E+00  0.0000E+00  0.0000E+00  0.0000E+00  0.0000E+00  0.0000E+00
    -37.133  0.0000E+00  0.0000E+00  0.0000E+00  0.0000E+00  0.0000E+00  0.0000E+00  0.0000E+00  0.0000E+00  0.0000E+00  0.0000E+00  0.0000E+00  0.0000E+00  0.0000E+00  0.0000E+00  0.0000E+00  0.0000E+00  0.0000E+00  0.0000E+00
    -36.922  0.0000E+00  0.0000E+00  0.0000E+00  0.0000E+00  0.0000E+00  0.0000E+00  0.0000E+00  0.0000E+00  0.0000E+00  0.0000E+00  0.0000E+00  0.0000E+00  0.0000E+00  0.0000E+00  0.0000E+00  0.0000E+00  0.0000E+00  0.0000E+00
    -36.712  0.0000E+00  0.0000E+00  0.0000E+00  0.0000E+00  0.0000E+00  0.0000E+00  0.0000E+00  0.0000E+00  0.0000E+00  0.0000E+00  0.0000E+00  0.0000E+00  0.0000E+00  0.0000E+00  0.0000E+00  0.0000E+00  0.0000E+00  0.0000E+00
    -36.501  0.0000E+00  0.0000E+00  0.0000E+00  0.0000E+00  0.0000E+00  0.0000E+00  0.0000E+00  0.0000E+00  0.0000E+00  0.0000E+00  0.0000E+00  0.0000E+00  0.0000E+00  0.0000E+00  0.0000E+00  0.0000E+00  0.0000E+00  0.0000E+00
    -36.290  0.0000E+00  0.0000E+00  0.0000E+00  0.0000E+00  0.0000E+00  0.0000E+00  0.0000E+00  0.0000E+00  0.0000E+00  0.0000E+00  0.0000E+00  0.0000E+00  0.0000E+00  0.0000E+00  0.0000E+00  0.0000E+00  0.0000E+00  0.0000E+00
    -36.080  0.0000E+00  0.0000E+00  0.0000E+00  0.0000E+00  0.0000E+00  0.0000E+00  0.0000E+00  0.0000E+00  0.0000E+00  0.0000E+00  0.0000E+00  0.0000E+00  0.0000E+00  0.0000E+00  0.0000E+00  0.0000E+00  0.0000E+00  0.0000E+00
    -35.869  0.1286E-10  0.0000E+00  0.5901E-04  0.0000E+00  0.2606E-09  0.0000E+00  0.5901E-04  0.0000E+00  0.5155E-12  0.0000E+00  0.8789E-11  0.0000E+00  0.4788E-11  0.0000E+00  0.8789E-11  0.0000E+00  0.1420E-10  0.0000E+00
    -35.659  0.9283E-09  0.0000E+00  0.3920E-02  0.0000E+00  0.2404E-03  0.0000E+00  0.3920E-02  0.0000E+00  0.3426E-10  0.0000E+00  0.5849E-09  0.0000E+00  0.3954E-09  0.0000E+00  0.5849E-09  0.0000E+00  0.9435E-09  0.0000E+00
    -35.448  0.5943E-07  0.0000E+00  0.2501E+00  0.0000E+00  0.1593E-01  0.0000E+00  0.2501E+00  0.0000E+00  0.2178E-08  0.0000E+00  0.3732E-07  0.0000E+00  0.2542E-07  0.0000E+00  0.3732E-07  0.0000E+00  0.6024E-07  0.0000E+00
    -35.237  0.1027E-05  0.0000E+00  0.3481E+01  0.0000E+00  0.8722E+00  0.0000E+00  0.3481E+01  0.0000E+00  0.2880E-07  0.0000E+00  0.5214E-06  0.0000E+00  0.5616E-06  0.0000E+00  0.5214E-06  0.0000E+00  0.8442E-06  0.0000E+00
    -35.027  0.1290E-05  0.0000E+00  0.9642E+00  0.0000E+00  0.3545E+01  0.0000E+00  0.9642E+00  0.0000E+00  0.7673E-08  0.0000E+00  0.1581E-06  0.0000E+00  0.1184E-05  0.0000E+00  0.1581E-06  0.0000E+00  0.2342E-06  0.0000E+00
    -34.816  0.8462E-07  0.0000E+00  0.5901E-06  0.0000E+00  0.2792E+00  0.0000E+00  0.5901E-06  0.0000E+00  0.1724E-10  0.0000E+00  0.1168E-08  0.0000E+00  0.8523E-07  0.0000E+00  0.1168E-08  0.0000E+00  0.7922E-11  0.0000E+00
    -34.606  0.0000E+00  0.0000E+00  0.0000E+00  0.0000E+00  0.0000E+00  0.0000E+00  0.0000E+00  0.0000E+00  0.0000E+00  0.0000E+00  0.0000E+00  0.0000E+00  0.0000E+00  0.0000E+00  0.0000E+00  0.0000E+00  0.0000E+00  0.0000E+00
    -34.395  0.0000E+00  0.7309E-10  0.0000E+00  0.1065E-03  0.0000E+00  0.6632E-04  0.0000E+00  0.1065E-03  0.0000E+00  0.1173E-11  0.0000E+00  0.2083E-10  0.0000E+00  0.4718E-10  0.0000E+00  0.2083E-10  0.0000E+00  0.2966E-10
    -34.184  0.0000E+00  0.4854E-08  0.0000E+00  0.7068E-02  0.0000E+00  0.4405E-02  0.0000E+00  0.7068E-02  0.0000E+00  0.7784E-10  0.0000E+00  0.1383E-08  0.0000E+00  0.3134E-08  0.0000E+00  0.1383E-08  0.0000E+00  0.1969E-08
    -33.974  0.0000E+00  0.3037E-06  0.0000E+00  0.4319E+00  0.0000E+00  0.2794E+00  0.0000E+00  0.4319E+00  0.0000E+00  0.4726E-08  0.0000E+00  0.8454E-07  0.0000E+00  0.1972E-06  0.0000E+00  0.8454E-07  0.0000E+00  0.1205E-06
    -33.763  0.0000E+00  0.3402E-05  0.0000E+00  0.3677E+01  0.0000E+00  0.3545E+01  0.0000E+00  0.3677E+01  0.0000E+00  0.3781E-07  0.0000E+00  0.7253E-06  0.0000E+00  0.2326E-05  0.0000E+00  0.7253E-06  0.0000E+00  0.1034E-05
    -33.553  0.0000E+00  0.7604E-06  0.0000E+00  0.5919E+00  0.0000E+00  0.8724E+00  0.0000E+00  0.5919E+00  0.0000E+00  0.5692E-08  0.0000E+00  0.1182E-06  0.0000E+00  0.5403E-06  0.0000E+00  0.1182E-06  0.0000E+00  0.1666E-06
    -33.342  0.0000E+00  0.0000E+00  0.0000E+00  0.0000E+00  0.0000E+00  0.0000E+00  0.0000E+00  0.0000E+00  0.0000E+00  0.0000E+00  0.0000E+00  0.0000E+00  0.0000E+00  0.0000E+00  0.0000E+00  0.0000E+00  0.0000E+00  0.0000E+00
    -33.131  0.0000E+00  0.0000E+00  0.0000E+00  0.0000E+00  0.0000E+00  0.0000E+00  0.0000E+00  0.0000E+00  0.0000E+00  0.0000E+00  0.0000E+00  0.0000E+00  0.0000E+00  0.0000E+00  0.0000E+00  0.0000E+00  0.0000E+00  0.0000E+00
    -32.921  0.0000E+00  0.0000E+00  0.0000E+00  0.0000E+00  0.0000E+00  0.0000E+00  0.0000E+00  0.0000E+00  0.0000E+00  0.0000E+00  0.0000E+00  0.0000E+00  0.0000E+00  0.0000E+00  0.0000E+00  0.0000E+00  0.0000E+00  0.0000E+00
    -32.710  0.0000E+00  0.0000E+00  0.0000E+00  0.0000E+00  0.0000E+00  0.0000E+00  0.0000E+00  0.0000E+00  0.0000E+00  0.0000E+00  0.0000E+00  0.0000E+00  0.0000E+00  0.0000E+00  0.0000E+00  0.0000E+00  0.0000E+00  0.0000E+00
    -32.500  0.0000E+00  0.0000E+00  0.0000E+00  0.0000E+00  0.0000E+00  0.0000E+00  0.0000E+00  0.0000E+00  0.0000E+00  0.0000E+00  0.0000E+00  0.0000E+00  0.0000E+00  0.0000E+00  0.0000E+00  0.0000E+00  0.0000E+00  0.0000E+00
    -32.289  0.0000E+00  0.0000E+00  0.0000E+00  0.0000E+00  0.0000E+00  0.0000E+00  0.0000E+00  0.0000E+00  0.0000E+00  0.0000E+00  0.0000E+00  0.0000E+00  0.0000E+00  0.0000E+00  0.0000E+00  0.0000E+00  0.0000E+00  0.0000E+00
    -32.078  0.0000E+00  0.0000E+00  0.0000E+00  0.0000E+00  0.0000E+00  0.0000E+00  0.0000E+00  0.0000E+00  0.0000E+00  0.0000E+00  0.0000E+00  0.0000E+00  0.0000E+00  0.0000E+00  0.0000E+00  0.0000E+00  0.0000E+00  0.0000E+00
    -31.868  0.0000E+00  0.0000E+00  0.0000E+00  0.0000E+00  0.0000E+00  0.0000E+00  0.0000E+00  0.0000E+00  0.0000E+00  0.0000E+00  0.0000E+00  0.0000E+00  0.0000E+00  0.0000E+00  0.0000E+00  0.0000E+00  0.0000E+00  0.0000E+00
    -31.657  0.0000E+00  0.0000E+00  0.0000E+00  0.0000E+00  0.0000E+00  0.0000E+00  0.0000E+00  0.0000E+00  0.0000E+00  0.0000E+00  0.0000E+00  0.0000E+00  0.0000E+00  0.0000E+00  0.0000E+00  0.0000E+00  0.0000E+00  0.0000E+00
    -31.447  0.0000E+00  0.0000E+00  0.0000E+00  0.0000E+00  0.0000E+00  0.0000E+00  0.0000E+00  0.0000E+00  0.0000E+00  0.0000E+00  0.0000E+00  0.0000E+00  0.0000E+00  0.0000E+00  0.0000E+00  0.0000E+00  0.0000E+00  0.0000E+00
    -31.236  0.0000E+00  0.0000E+00  0.0000E+00  0.0000E+00  0.0000E+00  0.0000E+00  0.0000E+00  0.0000E+00  0.0000E+00  0.0000E+00  0.0000E+00  0.0000E+00  0.0000E+00  0.0000E+00  0.0000E+00  0.0000E+00  0.0000E+00  0.0000E+00
    -31.025  0.0000E+00  0.0000E+00  0.0000E+00  0.0000E+00  0.0000E+00  0.0000E+00  0.0000E+00  0.0000E+00  0.0000E+00  0.0000E+00  0.0000E+00  0.0000E+00  0.0000E+00  0.0000E+00  0.0000E+00  0.0000E+00  0.0000E+00  0.0000E+00
    -30.815  0.0000E+00  0.0000E+00  0.0000E+00  0.0000E+00  0.0000E+00  0.0000E+00  0.0000E+00  0.0000E+00  0.0000E+00  0.0000E+00  0.0000E+00  0.0000E+00  0.0000E+00  0.0000E+00  0.0000E+00  0.0000E+00  0.0000E+00  0.0000E+00
    -30.604  0.0000E+00  0.0000E+00  0.0000E+00  0.0000E+00  0.0000E+00  0.0000E+00  0.0000E+00  0.0000E+00  0.0000E+00  0.0000E+00  0.0000E+00  0.0000E+00  0.0000E+00  0.0000E+00  0.0000E+00  0.0000E+00  0.0000E+00  0.0000E+00
    -30.394  0.0000E+00  0.0000E+00  0.0000E+00  0.0000E+00  0.0000E+00  0.0000E+00  0.0000E+00  0.0000E+00  0.0000E+00  0.0000E+00  0.0000E+00  0.0000E+00  0.0000E+00  0.0000E+00  0.0000E+00  0.0000E+00  0.0000E+00  0.0000E+00
    -30.183  0.0000E+00  0.0000E+00  0.0000E+00  0.0000E+00  0.0000E+00  0.0000E+00  0.0000E+00  0.0000E+00  0.0000E+00  0.0000E+00  0.0000E+00  0.0000E+00  0.0000E+00  0.0000E+00  0.0000E+00  0.0000E+00  0.0000E+00  0.0000E+00
    -29.972  0.0000E+00  0.0000E+00  0.0000E+00  0.0000E+00  0.0000E+00  0.0000E+00  0.0000E+00  0.0000E+00  0.0000E+00  0.0000E+00  0.0000E+00  0.0000E+00  0.0000E+00  0.0000E+00  0.0000E+00  0.0000E+00  0.0000E+00  0.0000E+00
    -29.762  0.0000E+00  0.0000E+00  0.0000E+00  0.0000E+00  0.0000E+00  0.0000E+00  0.0000E+00  0.0000E+00  0.0000E+00  0.0000E+00  0.0000E+00  0.0000E+00  0.0000E+00  0.0000E+00  0.0000E+00  0.0000E+00  0.0000E+00  0.0000E+00
    -29.551  0.0000E+00  0.0000E+00  0.0000E+00  0.0000E+00  0.0000E+00  0.0000E+00  0.0000E+00  0.0000E+00  0.0000E+00  0.0000E+00  0.0000E+00  0.0000E+00  0.0000E+00  0.0000E+00  0.0000E+00  0.0000E+00  0.0000E+00  0.0000E+00
    -29.341  0.0000E+00  0.0000E+00  0.0000E+00  0.0000E+00  0.0000E+00  0.0000E+00  0.0000E+00  0.0000E+00  0.0000E+00  0.0000E+00  0.0000E+00  0.0000E+00  0.0000E+00  0.0000E+00  0.0000E+00  0.0000E+00  0.0000E+00  0.0000E+00
    -29.130  0.0000E+00  0.0000E+00  0.0000E+00  0.0000E+00  0.0000E+00  0.0000E+00  0.0000E+00  0.0000E+00  0.0000E+00  0.0000E+00  0.0000E+00  0.0000E+00  0.0000E+00  0.0000E+00  0.0000E+00  0.0000E+00  0.0000E+00  0.0000E+00
    -28.919  0.0000E+00  0.0000E+00  0.0000E+00  0.0000E+00  0.0000E+00  0.0000E+00  0.0000E+00  0.0000E+00  0.0000E+00  0.0000E+00  0.0000E+00  0.0000E+00  0.0000E+00  0.0000E+00  0.0000E+00  0.0000E+00  0.0000E+00  0.0000E+00
    -28.709  0.0000E+00  0.0000E+00  0.0000E+00  0.0000E+00  0.0000E+00  0.0000E+00  0.0000E+00  0.0000E+00  0.0000E+00  0.0000E+00  0.0000E+00  0.0000E+00  0.0000E+00  0.0000E+00  0.0000E+00  0.0000E+00  0.0000E+00  0.0000E+00
    -28.498  0.0000E+00  0.0000E+00  0.0000E+00  0.0000E+00  0.0000E+00  0.0000E+00  0.0000E+00  0.0000E+00  0.0000E+00  0.0000E+00  0.0000E+00  0.0000E+00  0.0000E+00  0.0000E+00  0.0000E+00  0.0000E+00  0.0000E+00  0.0000E+00
    -28.288  0.0000E+00  0.0000E+00  0.0000E+00  0.0000E+00  0.0000E+00  0.0000E+00  0.0000E+00  0.0000E+00  0.0000E+00  0.0000E+00  0.0000E+00  0.0000E+00  0.0000E+00  0.0000E+00  0.0000E+00  0.0000E+00  0.0000E+00  0.0000E+00
    -28.077  0.0000E+00  0.0000E+00  0.0000E+00  0.0000E+00  0.0000E+00  0.0000E+00  0.0000E+00  0.0000E+00  0.0000E+00  0.0000E+00  0.0000E+00  0.0000E+00  0.0000E+00  0.0000E+00  0.0000E+00  0.0000E+00  0.0000E+00  0.0000E+00
    -27.866  0.0000E+00  0.0000E+00  0.0000E+00  0.0000E+00  0.0000E+00  0.0000E+00  0.0000E+00  0.0000E+00  0.0000E+00  0.0000E+00  0.0000E+00  0.0000E+00  0.0000E+00  0.0000E+00  0.0000E+00  0.0000E+00  0.0000E+00  0.0000E+00
    -27.656  0.0000E+00  0.0000E+00  0.0000E+00  0.0000E+00  0.0000E+00  0.0000E+00  0.0000E+00  0.0000E+00  0.0000E+00  0.0000E+00  0.0000E+00  0.0000E+00  0.0000E+00  0.0000E+00  0.0000E+00  0.0000E+00  0.0000E+00  0.0000E+00