  16  16   1   0
  0.1549643E+02  0.3904059E-09  0.3904059E-09  0.1626742E-08  0.5000000E-15
  1.000000000000000E-004
  CAR 
 unknown system                          
     17.59140435    -43.69341912  301      8.24233415      1.00000000
    -43.693  0.0000E+00  0.0000E+00  0.0000E+00  0.0000E+00
    -43.489  0.0000E+00  0.0000E+00  0.0000E+00  0.0000E+00
    -43.285  0.0000E+00  0.0000E+00  0.0000E+00  0.0000E+00
    -43.081  0.0000E+00  0.0000E+00  0.0000E+00  0.0000E+00
    -42.876  0.0000E+00  0.0000E+00  0.0000E+00  0.0000E+00
    -42.672  0.0000E+00  0.0000E+00  0.0000E+00  0.0000E+00
    -42.468  0.0000E+00  0.0000E+00  0.0000E+00  0.0000E+00
    -42.263  0.0000E+00  0.0000E+00  0.0000E+00  0.0000E+00
    -42.059  0.0000E+00  0.0000E+00  0.0000E+00  0.0000E+00
    -41.855  0.0000E+00  0.0000E+00  0.0000E+00  0.0000E+00
    -41.651  0.0000E+00  0.0000E+00  0.0000E+00  0.0000E+00
    -41.446  0.9201E-03  0.0000E+00  0.1880E-03  0.0000E+00
    -41.242  0.5375E-01  0.0000E+00  0.1117E-01  0.0000E+00
    -41.038  0.3000E+01  0.0000E+00  0.6240E+00  0.0000E+00
    -40.833  0.3965E+02  0.0000E+00  0.8724E+01  0.0000E+00
    -40.629  0.1562E+02  0.0000E+00  0.1192E+02  0.0000E+00
    -40.425  0.0000E+00  0.0000E+00  0.1200E+02  0.0000E+00
    -40.221  0.0000E+00  0.0000E+00  0.1200E+02  0.0000E+00
    -40.016  0.0000E+00  0.0000E+00  0.1200E+02  0.0000E+00
    -39.812  0.0000E+00  0.0000E+00  0.1200E+02  0.0000E+00
    -39.608  0.0000E+00  0.0000E+00  0.1200E+02  0.0000E+00
    -39.403  0.0000E+00  0.0000E+00  0.1200E+02  0.0000E+00
    -39.199  0.0000E+00  0.0000E+00  0.1200E+02  0.0000E+00
    -38.995  0.0000E+00  0.0000E+00  0.1200E+02  0.0000E+00
    -38.791  0.0000E+00  0.8769E-02  0.1200E+02  0.1791E-02
    -38.586  0.0000E+00  0.5083E+00  0.1200E+02  0.1056E+00
    -38.382  0.0000E+00  0.1978E+02  0.1200E+02  0.4147E+01
    -38.178  0.0000E+00  0.3663E+02  0.1200E+02  0.1163E+02
    -37.974  0.0000E+00  0.1782E+01  0.1200E+02  0.1199E+02
    -37.769  0.0000E+00  0.0000E+00  0.1200E+02  0.1200E+02
    -37.565  0.0000E+00  0.0000E+00  0.1200E+02  0.1200E+02
    -37.361  0.0000E+00  0.0000E+00  0.1200E+02  0.1200E+02
    -37.156  0.0000E+00  0.0000E+00  0.1200E+02  0.1200E+02
    -36.952  0.0000E+00  0.0000E+00  0.1200E+02  0.1200E+02
    -36.748  0.0000E+00  0.0000E+00  0.1200E+02  0.1200E+02
    -36.544  0.0000E+00  0.0000E+00  0.1200E+02  0.1200E+02
    -36.339  0.0000E+00  0.0000E+00  0.1200E+02  0.1200E+02
    -36.135  0.0000E+00  0.0000E+00  0.1200E+02  0.1200E+02
    -35.931  0.0000E+00  0.0000E+00  0.1200E+02  0.1200E+02
    -35.726  0.0000E+00  0.0000E+00  0.1200E+02  0.1200E+02
    -35.522  0.0000E+00  0.0000E+00  0.1200E+02  0.1200E+02
    -35.318  0.0000E+00  0.0000E+00  0.1200E+02  0.1200E+02
    -35.114  0.0000E+00  0.0000E+00  0.1200E+02  0.1200E+02
    -34.909  0.0000E+00  0.0000E+00  0.1200E+02  0.1200E+02
    -34.705  0.0000E+00  0.0000E+00  0.1200E+02  0.1200E+02
    -34.501  0.0000E+00  0.0000E+00  0.1200E+02  0.1200E+02
    -34.296  0.0000E+00  0.0000E+00  0.1200E+02  0.1200E+02
    -34.092  0.0000E+00  0.0000E+00  0.1200E+02  0.1200E+02
    -33.888  0.0000E+00  0.0000E+00  0.1200E+02  0.1200E+02
    -33.684  0.0000E+00  0.0000E+00  0.1200E+02  0.1200E+02
    -33.479  0.0000E+00  0.0000E+00  0.1200E+02  0.1200E+02
    -33.275  0.0000E+00  0.0000E+00  0.1200E+02  0.1200E+02
    -33.071  0.0000E+00  0.0000E+00  0.1200E+02  0.1200E+02
    -32.866  0.0000E+00  0.0000E+00  0.1200E+02  0.1200E+02
    -32.662  0.0000E+00  0.0000E+00  0.1200E+02  0.1200E+02
    -32.458  0.0000E+00  0.0000E+00  0.1200E+02  0.1200E+02
    -32.254  0.0000E+00  0.0000E+00  0.1200E+02  0.1200E+02
    -32.049  0.0000E+00  0.0000E+00  0.1200E+02  0.1200E+02
    -31.845  0.0000E+00  0.0000E+00  0.1200E+02  0.1200E+02
    -31.641  0.0000E+00  0.0000E+00  0.1200E+02  0.1200E+02
    -31.436  0.0000E+00  0.0000E+00  0.1200E+02  0.1200E+02
    -31.232  0.0000E+00  0.0000E+00  0.1200E+02  0.1200E+02
    -31.028  0.0000E+00  0.0000E+00  0.1200E+02  0.1200E+02
    -30.824  0.0000E+00  0.0000E+00  0.1200E+02  0.1200E+02
    -30.619  0.0000E+00  0.0000E+00  0.1200E+02  0.1200E+02
    -30.415  0.0000E+00  0.0000E+00  0.1200E+02  0.1200E+02
    -30.211  0.0000E+00  0.0000E+00  0.1200E+02  0.1200E+02
    -30.006  0.0000E+00  0.0000E+00  0.1200E+02  0.1200E+02
    -29.802  0.0000E+00  0.0000E+00  0.1200E+02  0.1200E+02
    -29.598  0.0000E+00  0.0000E+00  0.1200E+02  0.1200E+02
    -29.394  0.0000E+00  0.0000E+00  0.1200E+02  0.1200E+02
    -29.189  0.0000E+00  0.0000E+00  0.1200E+02  0.1200E+02
    -28.985  0.0000E+00  0.0000E+00  0.1200E+02  0.1200E+02
    -28.781  0.0000E+00  0.0000E+00  0.1200E+02  0.1200E+02
    -28.576  0.0000E+00  0.0000E+00  0.1200E+02  0.1200E+02
    -28.372  0.0000E+00  0.0000E+00  0.1200E+02  0.1200E+02
    -28.168  0.0000E+00  0.0000E+00  0.1200E+02  0.1200E+02
    -27.964  0.0000E+00  0.0000E+00  0.1200E+02  0.1200E+02
    -27.759  0.0000E+00  0.0000E+00  0.1200E+02  0.1200E+02
    -27.555  0.0000E+00  0.0000E+00  0.1200E+02  0.1200E+02
    -27.351  0.0000E+00  0.0000E+00  0.1200E+02  0.1200E+02
    -27.147  0.0000E+00  0.0000E+00  0.1200E+02  0.1200E+02
    -26.942  0.0000E+00  0.0000E+00  0.1200E+02  0.1200E+02
    -26.738  0.0000E+00  0.0000E+00  0.1200E+02  0.1200E+02
    -26.534  0.0000E+00  0.0000E+00  0.1200E+02  0.1200E+02
    -26.329  0.0000E+00  0.0000E+00  0.1200E+02  0.1200E+02
    -26.125  0.0000E+00  0.0000E+00  0.1200E+02  0.1200E+02
    -25.921  0.0000E+00  0.0000E+00  0.1200E+02  0.1200E+02
    -25.717  0.0000E+00  0.0000E+00  0.1200E+02  0.1200E+02
    -25.512  0.0000E+00  0.0000E+00  0.1200E+02  0.1200E+02
    -25.308  0.0000E+00  0.0000E+00  0.1200E+02  0.1200E+02
    -25.104  0.0000E+00  0.0000E+00  0.1200E+02  0.1200E+02
    -24.899  0.0000E+00  0.0000E+00  0.1200E+02  0.1200E+02
    -24.695  0.0000E+00  0.0000E+00  0.1200E+02  0.1200E+02
    -24.491  0.0000E+00  0.0000E+00  0.1200E+02  0.1200E+02
    -24.287  0.0000E+00  0.0000E+00  0.1200E+02  0.1200E+02
    -24.082  0.0000E+00  0.0000E+00  0.1200E+02  0.1200E+02
    -23.878  0.0000E+00  0.0000E+00  0.1200E+02  0.1200E+02
    -23.674  0.0000E+00  0.0000E+00  0.1200E+02  0.1200E+02
    -23.469  0.0000E+00  0.0000E+00  0.1200E+02  0.1200E+02
    -23.265  0.0000E+00  0.0000E+00  0.1200E+02  0.1200E+02
    -23.061  0.0000E+00  0.0000E+00  0.1200E+02  0.1200E+02
    -22.857  0.0000E+00  0.0000E+00  0.1200E+02  0.1200E+02
    -22.652  0.0000E+00  0.0000E+00  0.1200E+02  0.1200E+02
    -22.448  0.0000E+00  0.0000E+00  0.1200E+02  0.1200E+02
    -22.244  0.0000E+00  0.0000E+00  0.1200E+02  0.1200E+02
    -22.039  0.0000E+00  0.0000E+00  0.1200E+02  0.1200E+02
    -21.835  0.0000E+00  0.0000E+00  0.1200E+02  0.1200E+02
    -21.631  0.0000E+00  0.0000E+00  0.1200E+02  0.1200E+02
    -21.427  0.0000E+00  0.0000E+00  0.1200E+02  0.1200E+02
    -21.222  0.0000E+00  0.0000E+00  0.1200E+02  0.1200E+02
    -21.018  0.0000E+00  0.0000E+00  0.1200E+02  0.1200E+02
    -20.814  0.0000E+00  0.0000E+00  0.1200E+02  0.1200E+02
    -20.609  0.0000E+00  0.0000E+00  0.1200E+02  0.1200E+02
    -20.405  0.0000E+00  0.0000E+00  0.1200E+02  0.1200E+02
    -20.201  0.0000E+00  0.0000E+00  0.1200E+02  0.1200E+02
    -19.997  0.0000E+00  0.0000E+00  0.1200E+02  0.1200E+02
    -19.792  0.0000E+00  0.0000E+00  0.1200E+02  0.1200E+02
    -19.588  0.0000E+00  0.0000E+00  0.1200E+02  0.1200E+02
    -19.384  0.0000E+00  0.0000E+00  0.1200E+02  0.1200E+02
    -19.179  0.0000E+00  0.0000E+00  0.1200E+02  0.1200E+02
    -18.975  0.0000E+00  0.0000E+00  0.1200E+02  0.1200E+02
    -18.771  0.0000E+00  0.0000E+00  0.1200E+02  0.1200E+02
    -18.567  0.0000E+00  0.0000E+00  0.1200E+02  0.1200E+02
    -18.362  0.0000E+00  0.0000E+00  0.1200E+02  0.1200E+02
    -18.158  0.0000E+00  0.0000E+00  0.1200E+02  0.1200E+02
    -17.954  0.0000E+00  0.0000E+00  0.1200E+02  0.1200E+02
    -17.750  0.0000E+00  0.0000E+00  0.1200E+02  0.1200E+02
    -17.545  0.0000E+00  0.0000E+00  0.1200E+02  0.1200E+02
    -17.341  0.0000E+00  0.0000E+00  0.1200E+02  0.1200E+02
    -17.137  0.0000E+00  0.0000E+00  0.1200E+02  0.1200E+02
    -16.932  0.0000E+00  0.0000E+00  0.1200E+02  0.1200E+02
    -16.728  0.0000E+00  0.0000E+00  0.1200E+02  0.1200E+02
    -16.524  0.0000E+00  0.0000E+00  0.1200E+02  0.1200E+02
    -16.320  0.0000E+00  0.0000E+00  0.1200E+02  0.1200E+02
    -16.115  0.0000E+00  0.0000E+00  0.1200E+02  0.1200E+02
    -15.911  0.0000E+00  0.0000E+00  0.1200E+02  0.1200E+02
    -15.707  0.0000E+00  0.0000E+00  0.1200E+02  0.1200E+02
    -15.502  0.0000E+00  0.0000E+00  0.1200E+02  0.1200E+02
    -15.298  0.0000E+00  0.0000E+00  0.1200E+02  0.1200E+02
    -15.094  0.0000E+00  0.0000E+00  0.1200E+02  0.1200E+02
    -14.890  0.0000E+00  0.0000E+00  0.1200E+02  0.1200E+02
    -14.685  0.0000E+00  0.0000E+00  0.1200E+02  0.1200E+02
    -14.481  0.0000E+00  0.0000E+00  0.1200E+02  0.1200E+02
    -14.277  0.0000E+00  0.0000E+00  0.1200E+02  0.1200E+02
    -14.072  0.0000E+00  0.0000E+00  0.1200E+02  0.1200E+02
    -13.868  0.0000E+00  0.0000E+00  0.1200E+02  0.1200E+02
    -13.664  0.0000E+00  0.0000E+00  0.1200E+02  0.1200E+02
    -13.460  0.0000E+00  0.0000E+00  0.1200E+02  0.1200E+02
    -13.255  0.0000E+00  0.0000E+00  0.1200E+02  0.1200E+02
    -13.051  0.0000E+00  0.0000E+00  0.1200E+02  0.1200E+02
    -12.847  0.0000E+00  0.0000E+00  0.1200E+02  0.1200E+02
    -12.642  0.0000E+00  0.0000E+00  0.1200E+02  0.1200E+02
    -12.438  0.0000E+00  0.0000E+00  0.1200E+02  0.1200E+02
    -12.234  0.0000E+00  0.0000E+00  0.1200E+02  0.1200E+02
    -12.030  0.0000E+00  0.0000E+00  0.1200E+02  0.1200E+02
    -11.825  0.0000E+00  0.0000E+00  0.1200E+02  0.1200E+02
    -11.621  0.0000E+00  0.0000E+00  0.1200E+02  0.1200E+02
    -11.417  0.0000E+00  0.0000E+00  0.1200E+02  0.1200E+02
    -11.212  0.0000E+00  0.0000E+00  0.1200E+02  0.1200E+02
    -11.008  0.0000E+00  0.0000E+00  0.1200E+02  0.1200E+02
    -10.804  0.0000E+00  0.0000E+00  0.1200E+02  0.1200E+02
    -10.600  0.0000E+00  0.0000E+00  0.1200E+02  0.1200E+02
    -10.395  0.0000E+00  0.0000E+00  0.1200E+02  0.1200E+02
    -10.191  0.0000E+00  0.0000E+00  0.1200E+02  0.1200E+02
     -9.987  0.0000E+00  0.0000E+00  0.1200E+02  0.1200E+02
     -9.782  0.0000E+00  0.0000E+00  0.1200E+02  0.1200E+02
     -9.578  0.0000E+00  0.0000E+00  0.1200E+02  0.1200E+02
     -9.374  0.0000E+00  0.0000E+00  0.1200E+02  0.1200E+02
     -9.170  0.0000E+00  0.0000E+00  0.1200E+02  0.1200E+02
     -8.965  0.0000E+00  0.0000E+00  0.1200E+02  0.1200E+02
     -8.761  0.0000E+00  0.0000E+00  0.1200E+02  0.1200E+02
     -8.557  0.0000E+00  0.0000E+00  0.1200E+02  0.1200E+02
     -8.353  0.0000E+00  0.0000E+00  0.1200E+02  0.1200E+02
     -8.148  0.0000E+00  0.0000E+00  0.1200E+02  0.1200E+02
     -7.944  0.0000E+00  0.0000E+00  0.1200E+02  0.1200E+02
     -7.740  0.0000E+00  0.0000E+00  0.1200E+02  0.1200E+02
     -7.535  0.0000E+00  0.0000E+00  0.1200E+02  0.1200E+02
     -7.331  0.0000E+00  0.0000E+00  0.1200E+02  0.1200E+02
     -7.127  0.0000E+00  0.0000E+00  0.1200E+02  0.1200E+02
     -6.923  0.0000E+00  0.0000E+00  0.1200E+02  0.1200E+02
     -6.718  0.0000E+00  0.0000E+00  0.1200E+02  0.1200E+02
     -6.514  0.0000E+00  0.0000E+00  0.1200E+02  0.1200E+02
     -6.310  0.0000E+00  0.0000E+00  0.1200E+02  0.1200E+02
     -6.105  0.0000E+00  0.0000E+00  0.1200E+02  0.1200E+02
     -5.901  0.0000E+00  0.0000E+00  0.1200E+02  0.1200E+02
     -5.697  0.0000E+00  0.0000E+00  0.1200E+02  0.1200E+02
     -5.493  0.0000E+00  0.0000E+00  0.1200E+02  0.1200E+02
     -5.288  0.0000E+00  0.0000E+00  0.1200E+02  0.1200E+02
     -5.084  0.0000E+00  0.0000E+00  0.1200E+02  0.1200E+02
     -4.880  0.0000E+00  0.0000E+00  0.1200E+02  0.1200E+02
     -4.675  0.0000E+00  0.0000E+00  0.1200E+02  0.1200E+02
     -4.471  0.0000E+00  0.0000E+00  0.1200E+02  0.1200E+02
     -4.267  0.0000E+00  0.0000E+00  0.1200E+02  0.1200E+02
     -4.063  0.0000E+00  0.0000E+00  0.1200E+02  0.1200E+02
     -3.858  0.0000E+00  0.0000E+00  0.1200E+02  0.1200E+02
     -3.654  0.0000E+00  0.0000E+00  0.1200E+02  0.1200E+02
     -3.450  0.0000E+00  0.0000E+00  0.1200E+02  0.1200E+02
     -3.245  0.0000E+00  0.0000E+00  0.1200E+02  0.1200E+02
     -3.041  0.7848E-06  0.1035E-05  0.1200E+02  0.1200E+02
     -2.837  0.6909E-04  0.9235E-04  0.1200E+02  0.1200E+02
     -2.633  0.4021E-02  0.5255E-02  0.1200E+02  0.1200E+02
     -2.428  0.1033E+00  0.1194E+00  0.1202E+02  0.1203E+02
     -2.224  0.3647E+00  0.3852E+00  0.1210E+02  0.1210E+02
     -2.020  0.5314E+00  0.5399E+00  0.1221E+02  0.1221E+02
     -1.815  0.6889E+00  0.7051E+00  0.1235E+02  0.1236E+02
     -1.611  0.7388E+00  0.7522E+00  0.1250E+02  0.1251E+02
     -1.407  0.9258E+00  0.9614E+00  0.1269E+02  0.1271E+02
     -1.203  0.9767E+00  0.9617E+00  0.1289E+02  0.1291E+02
     -0.998  0.1044E+01  0.1123E+01  0.1310E+02  0.1314E+02
     -0.794  0.1279E+01  0.1287E+01  0.1336E+02  0.1340E+02
     -0.590  0.1186E+01  0.1238E+01  0.1361E+02  0.1366E+02
     -0.385  0.1506E+01  0.1546E+01  0.1392E+02  0.1397E+02
     -0.181  0.1431E+01  0.1459E+01  0.1421E+02  0.1427E+02
      0.023  0.1483E+01  0.1405E+01  0.1451E+02  0.1456E+02
      0.227  0.1134E+01  0.1118E+01  0.1475E+02  0.1479E+02
      0.432  0.1562E+01  0.1501E+01  0.1507E+02  0.1510E+02
      0.636  0.1412E+01  0.1305E+01  0.1536E+02  0.1537E+02
      0.840  0.1758E+01  0.1697E+01  0.1572E+02  0.1571E+02
      1.045  0.1509E+01  0.1499E+01  0.1603E+02  0.1602E+02
      1.249  0.1826E+01  0.1792E+01  0.1640E+02  0.1639E+02
      1.453  0.1971E+01  0.1956E+01  0.1680E+02  0.1679E+02
      1.657  0.2051E+01  0.1967E+01  0.1723E+02  0.1719E+02
      1.862  0.1786E+01  0.1760E+01  0.1759E+02  0.1755E+02
      2.066  0.2033E+01  0.1932E+01  0.1801E+02  0.1795E+02
      2.270  0.1849E+01  0.1725E+01  0.1839E+02  0.1831E+02
      2.474  0.2526E+01  0.2220E+01  0.1891E+02  0.1876E+02
      2.679  0.2123E+01  0.2209E+01  0.1934E+02  0.1921E+02
      2.883  0.2124E+01  0.1985E+01  0.1978E+02  0.1962E+02
      3.087  0.2593E+01  0.2337E+01  0.2031E+02  0.2010E+02
      3.292  0.2641E+01  0.2310E+01  0.2085E+02  0.2058E+02
      3.496  0.2953E+01  0.2578E+01  0.2146E+02  0.2110E+02
      3.700  0.2363E+01  0.2449E+01  0.2195E+02  0.2161E+02
      3.904  0.2797E+01  0.2084E+01  0.2252E+02  0.2203E+02
      4.109  0.2980E+01  0.2478E+01  0.2313E+02  0.2254E+02
      4.313  0.3302E+01  0.2689E+01  0.2381E+02  0.2309E+02
      4.517  0.3757E+01  0.2825E+01  0.2458E+02  0.2367E+02
      4.722  0.4462E+01  0.2845E+01  0.2549E+02  0.2426E+02
      4.926  0.5117E+01  0.3151E+01  0.2654E+02  0.2490E+02
      5.130  0.5720E+01  0.3230E+01  0.2772E+02  0.2557E+02
      5.334  0.5567E+01  0.3385E+01  0.2886E+02  0.2626E+02
      5.539  0.6694E+01  0.3428E+01  0.3023E+02  0.2696E+02
      5.743  0.9099E+01  0.4226E+01  0.3210E+02  0.2783E+02
      5.947  0.1056E+02  0.3523E+01  0.3426E+02  0.2855E+02
      6.152  0.1078E+02  0.3612E+01  0.3647E+02  0.2929E+02
      6.356  0.8031E+01  0.4187E+01  0.3813E+02  0.3015E+02
      6.560  0.1061E+02  0.4657E+01  0.4030E+02  0.3111E+02
      6.764  0.9962E+01  0.5323E+01  0.4234E+02  0.3220E+02
      6.969  0.7034E+01  0.5547E+01  0.4380E+02  0.3334E+02
      7.173  0.5969E+01  0.5346E+01  0.4503E+02  0.3444E+02
      7.377  0.4734E+01  0.5425E+01  0.4600E+02  0.3555E+02
      7.582  0.3251E+01  0.5527E+01  0.4667E+02  0.3669E+02
      7.786  0.2026E+01  0.4128E+01  0.4709E+02  0.3753E+02
      7.990  0.2592E+01  0.4056E+01  0.4762E+02  0.3837E+02
      8.194  0.3463E+01  0.4263E+01  0.4833E+02  0.3924E+02
      8.399  0.4523E+01  0.4462E+01  0.4926E+02  0.4016E+02
      8.603  0.4829E+01  0.4924E+01  0.5025E+02  0.4117E+02
      8.807  0.4190E+01  0.6693E+01  0.5111E+02  0.4254E+02
      9.012  0.3491E+01  0.1030E+02  0.5183E+02  0.4465E+02
      9.216  0.3836E+01  0.1330E+02  0.5261E+02  0.4738E+02
      9.420  0.3476E+01  0.6333E+01  0.5333E+02  0.4868E+02
      9.624  0.2772E+01  0.4781E+01  0.5390E+02  0.4967E+02
      9.829  0.3507E+01  0.5916E+01  0.5462E+02  0.5088E+02
     10.033  0.3655E+01  0.6880E+01  0.5537E+02  0.5229E+02
     10.237  0.4016E+01  0.5776E+01  0.5619E+02  0.5348E+02
     10.442  0.3582E+01  0.4780E+01  0.5692E+02  0.5446E+02
     10.646  0.3350E+01  0.4674E+01  0.5761E+02  0.5542E+02
     10.850  0.3929E+01  0.3809E+01  0.5842E+02  0.5621E+02
     11.054  0.3767E+01  0.4050E+01  0.5919E+02  0.5704E+02
     11.259  0.3862E+01  0.5081E+01  0.5998E+02  0.5808E+02
     11.463  0.3849E+01  0.5200E+01  0.6077E+02  0.5915E+02
     11.667  0.3245E+01  0.4607E+01  0.6144E+02  0.6009E+02
     11.871  0.3203E+01  0.3691E+01  0.6210E+02  0.6085E+02
     12.076  0.3498E+01  0.3644E+01  0.6282E+02  0.6160E+02
     12.280  0.3441E+01  0.4082E+01  0.6352E+02  0.6244E+02
     12.484  0.3227E+01  0.3554E+01  0.6418E+02  0.6317E+02
     12.689  0.3422E+01  0.3230E+01  0.6489E+02  0.6383E+02
     12.893  0.3865E+01  0.3362E+01  0.6568E+02  0.6452E+02
     13.097  0.3518E+01  0.3994E+01  0.6640E+02  0.6534E+02
     13.301  0.2421E+01  0.3685E+01  0.6690E+02  0.6609E+02
     13.506  0.1977E+01  0.2918E+01  0.6730E+02  0.6670E+02
     13.710  0.1167E+01  0.2423E+01  0.6754E+02  0.6719E+02
     13.914  0.7236E+00  0.1568E+01  0.6769E+02  0.6752E+02
     14.119  0.6856E+00  0.9473E+00  0.6784E+02  0.6771E+02
     14.323  0.4460E+00  0.6960E+00  0.6793E+02  0.6786E+02
     14.527  0.2565E+00  0.4006E+00  0.6798E+02  0.6794E+02
     14.731  0.8862E-01  0.2288E+00  0.6800E+02  0.6799E+02
     14.936  0.4405E-02  0.5312E-01  0.6800E+02  0.6800E+02
     15.140  0.0000E+00  0.2622E-02  0.6800E+02  0.6800E+02
     15.344  0.0000E+00  0.0000E+00  0.6800E+02  0.6800E+02
     15.549  0.0000E+00  0.0000E+00  0.6800E+02  0.6800E+02
     15.753  0.0000E+00  0.0000E+00  0.6800E+02  0.6800E+02
     15.957  0.0000E+00  0.0000E+00  0.6800E+02  0.6800E+02
     16.161  0.0000E+00  0.0000E+00  0.6800E+02  0.6800E+02
     16.366  0.0000E+00  0.0000E+00  0.6800E+02  0.6800E+02
     16.570  0.0000E+00  0.0000E+00  0.6800E+02  0.6800E+02
     16.774  0.0000E+00  0.0000E+00  0.6800E+02  0.6800E+02
     16.979  0.0000E+00  0.0000E+00  0.6800E+02  0.6800E+02
     17.183  0.0000E+00  0.0000E+00  0.6800E+02  0.6800E+02
     17.387  0.0000E+00  0.0000E+00  0.6800E+02  0.6800E+02
     17.591  0.0000E+00  0.0000E+00  0.6800E+02  0.6800E+02
     17.59140435    -43.69341912  301      8.24233415      1.00000000
    -43.693  0.0000E+00  0.0000E+00  0.0000E+00  0.0000E+00  0.0000E+00  0.0000E+00  0.0000E+00  0.0000E+00  0.0000E+00  0.0000E+00  0.0000E+00  0.0000E+00  0.0000E+00  0.0000E+00  0.0000E+00  0.0000E+00  0.0000E+00  0.0000E+00
    -43.489  0.0000E+00  0.0000E+00  0.0000E+00  0.0000E+00  0.0000E+00  0.0000E+00  0.0000E+00  0.0000E+00  0.0000E+00  0.0000E+00  0.0000E+00  0.0000E+00  0.0000E+00  0.0000E+00  0.0000E+00  0.0000E+00  0.0000E+00  0.0000E+00
    -43.285  0.0000E+00  0.0000E+00  0.0000E+00  0.0000E+00  0.0000E+00  0.0000E+00  0.0000E+00  0.0000E+00  0.0000E+00  0.0000E+00  0.0000E+00  0.0000E+00  0.0000E+00  0.0000E+00  0.0000E+00  0.0000E+00  0.0000E+00  0.0000E+00
    -43.081  0.0000E+00  0.0000E+00  0.0000E+00  0.0000E+00  0.0000E+00  0.0000E+00  0.0000E+00  0.0000E+00  0.0000E+00  0.0000E+00  0.0000E+00  0.0000E+00  0.0000E+00  0.0000E+00  0.0000E+00  0.0000E+00  0.0000E+00  0.0000E+00
    -42.876  0.0000E+00  0.0000E+00  0.0000E+00  0.0000E+00  0.0000E+00  0.0000E+00  0.0000E+00  0.0000E+00  0.0000E+00  0.0000E+00  0.0000E+00  0.0000E+00  0.0000E+00  0.0000E+00  0.0000E+00  0.0000E+00  0.0000E+00  0.0000E+00
    -42.672  0.0000E+00  0.0000E+00  0.0000E+00  0.0000E+00  0.0000E+00  0.0000E+00  0.0000E+00  0.0000E+00  0.0000E+00  0.0000E+00  0.0000E+00  0.0000E+00  0.0000E+00  0.0000E+00  0.0000E+00  0.0000E+00  0.0000E+00  0.0000E+00
    -42.468  0.0000E+00  0.0000E+00  0.0000E+00  0.0000E+00  0.0000E+00  0.0000E+00  0.0000E+00  0.0000E+00  0.0000E+00  0.0000E+00  0.0000E+00  0.0000E+00  0.0000E+00  0.0000E+00  0.0000E+00  0.0000E+00  0.0000E+00  0.0000E+00
    -42.263  0.0000E+00  0.0000E+00  0.0000E+00  0.0000E+00  0.0000E+00  0.0000E+00  0.0000E+00  0.0000E+00  0.0000E+00  0.0000E+00  0.0000E+00  0.0000E+00  0.0000E+00  0.0000E+00  0.0000E+00  0.0000E+00  0.0000E+00  0.0000E+00
    -42.059  0.0000E+00  0.0000E+00  0.0000E+00  0.0000E+00  0.0000E+00  0.0000E+00  0.0000E+00  0.0000E+00  0.0000E+00  0.0000E+00  0.0000E+00  0.0000E+00  0.0000E+00  0.0000E+00  0.0000E+00  0.0000E+00  0.0000E+00  0.0000E+00
    -41.855  0.0000E+00  0.0000E+00  0.0000E+00  0.0000E+00  0.0000E+00  0.0000E+00  0.0000E+00  0.0000E+00  0.0000E+00  0.0000E+00  0.0000E+00  0.0000E+00  0.0000E+00  0.0000E+00  0.0000E+00  0.0000E+00  0.0000E+00  0.0000E+00
    -41.651  0.0000E+00  0.0000E+00  0.0000E+00  0.0000E+00  0.0000E+00  0.0000E+00  0.0000E+00  0.0000E+00  0.0000E+00  0.0000E+00  0.0000E+00  0.0000E+00  0.0000E+00  0.0000E+00  0.0000E+00  0.0000E+00  0.0000E+00  0.0000E+00
    -41.446  0.8058E-11  0.0000E+00  0.9979E-04  0.0000E+00  0.2913E-04  0.0000E+00  0.9979E-04  0.0000E+00  0.1021E-13  0.0000E+00  0.9959E-11  0.0000E+00  0.6307E-11  0.0000E+00  0.9959E-11  0.0000E+00  0.3624E-12  0.0000E+00
    -41.242  0.4710E-09  0.0000E+00  0.5829E-02  0.0000E+00  0.1703E-02  0.0000E+00  0.5829E-02  0.0000E+00  0.5965E-12  0.0000E+00  0.5817E-09  0.0000E+00  0.3687E-09  0.0000E+00  0.5817E-09  0.0000E+00  0.2117E-10  0.0000E+00
    -41.038  0.2738E-07  0.0000E+00  0.3232E+00  0.0000E+00  0.9921E-01  0.0000E+00  0.3232E+00  0.0000E+00  0.3309E-10  0.0000E+00  0.3226E-07  0.0000E+00  0.2146E-07  0.0000E+00  0.3226E-07  0.0000E+00  0.1174E-08  0.0000E+00
    -40.833  0.7035E-06  0.0000E+00  0.3622E+01  0.0000E+00  0.2612E+01  0.0000E+00  0.3622E+01  0.0000E+00  0.3729E-09  0.0000E+00  0.3616E-06  0.0000E+00  0.5588E-06  0.0000E+00  0.3616E-06  0.0000E+00  0.1316E-07  0.0000E+00
    -40.629  0.5555E-06  0.0000E+00  0.8971E+00  0.0000E+00  0.2090E+01  0.0000E+00  0.8971E+00  0.0000E+00  0.9409E-10  0.0000E+00  0.8962E-07  0.0000E+00  0.4444E-06  0.0000E+00  0.8962E-07  0.0000E+00  0.3260E-08  0.0000E+00
    -40.425  0.0000E+00  0.0000E+00  0.0000E+00  0.0000E+00  0.0000E+00  0.0000E+00  0.0000E+00  0.0000E+00  0.0000E+00  0.0000E+00  0.0000E+00  0.0000E+00  0.0000E+00  0.0000E+00  0.0000E+00  0.0000E+00  0.0000E+00  0.0000E+00
    -40.221  0.0000E+00  0.0000E+00  0.0000E+00  0.0000E+00  0.0000E+00  0.0000E+00  0.0000E+00  0.0000E+00  0.0000E+00  0.0000E+00  0.0000E+00  0.0000E+00  0.0000E+00  0.0000E+00  0.0000E+00  0.0000E+00  0.0000E+00  0.0000E+00
    -40.016  0.0000E+00  0.0000E+00  0.0000E+00  0.0000E+00  0.0000E+00  0.0000E+00  0.0000E+00  0.0000E+00  0.0000E+00  0.0000E+00  0.0000E+00  0.0000E+00  0.0000E+00  0.0000E+00  0.0000E+00  0.0000E+00  0.0000E+00  0.0000E+00
    -39.812  0.0000E+00  0.0000E+00  0.0000E+00  0.0000E+00  0.0000E+00  0.0000E+00  0.0000E+00  0.0000E+00  0.0000E+00  0.0000E+00  0.0000E+00  0.0000E+00  0.0000E+00  0.0000E+00  0.0000E+00  0.0000E+00  0.0000E+00  0.0000E+00
    -39.608  0.0000E+00  0.0000E+00  0.0000E+00  0.0000E+00  0.0000E+00  0.0000E+00  0.0000E+00  0.0000E+00  0.0000E+00  0.0000E+00  0.0000E+00  0.0000E+00  0.0000E+00  0.0000E+00  0.0000E+00  0.0000E+00  0.0000E+00  0.0000E+00
    -39.403  0.0000E+00  0.0000E+00  0.0000E+00  0.0000E+00  0.0000E+00  0.0000E+00  0.0000E+00  0.0000E+00  0.0000E+00  0.0000E+00  0.0000E+00  0.0000E+00  0.0000E+00  0.0000E+00  0.0000E+00  0.0000E+00  0.0000E+00  0.0000E+00
    -39.199  0.0000E+00  0.0000E+00  0.0000E+00  0.0000E+00  0.0000E+00  0.0000E+00  0.0000E+00  0.0000E+00  0.0000E+00  0.0000E+00  0.0000E+00  0.0000E+00  0.0000E+00  0.0000E+00  0.0000E+00  0.0000E+00  0.0000E+00  0.0000E+00
    -38.995  0.0000E+00  0.0000E+00  0.0000E+00  0.0000E+00  0.0000E+00  0.0000E+00  0.0000E+00  0.0000E+00  0.0000E+00  0.0000E+00  0.0000E+00  0.0000E+00  0.0000E+00  0.0000E+00  0.0000E+00  0.0000E+00  0.0000E+00  0.0000E+00
    -38.791  0.0000E+00  0.1656E-09  0.0000E+00  0.7413E-03  0.0000E+00  0.6974E-03  0.0000E+00  0.7413E-03  0.0000E+00  0.1251E-12  0.0000E+00  0.5387E-10  0.0000E+00  0.1160E-09  0.0000E+00  0.5387E-10  0.0000E+00  0.3665E-11
    -38.586  0.0000E+00  0.9601E-08  0.0000E+00  0.4296E-01  0.0000E+00  0.4044E-01  0.0000E+00  0.4296E-01  0.0000E+00  0.7252E-11  0.0000E+00  0.3122E-08  0.0000E+00  0.6726E-08  0.0000E+00  0.3122E-08  0.0000E+00  0.2124E-09
    -38.382  0.0000E+00  0.3789E-06  0.0000E+00  0.1661E+01  0.0000E+00  0.1596E+01  0.0000E+00  0.1661E+01  0.0000E+00  0.2803E-09  0.0000E+00  0.1207E-06  0.0000E+00  0.2654E-06  0.0000E+00  0.1207E-06  0.0000E+00  0.8213E-08
    -38.178  0.0000E+00  0.7289E-06  0.0000E+00  0.3016E+01  0.0000E+00  0.3074E+01  0.0000E+00  0.3016E+01  0.0000E+00  0.5089E-09  0.0000E+00  0.2192E-06  0.0000E+00  0.5108E-06  0.0000E+00  0.2192E-06  0.0000E+00  0.1492E-07
    -37.974  0.0000E+00  0.3639E-07  0.0000E+00  0.1448E+00  0.0000E+00  0.1536E+00  0.0000E+00  0.1448E+00  0.0000E+00  0.2442E-10  0.0000E+00  0.1052E-07  0.0000E+00  0.2550E-07  0.0000E+00  0.1052E-07  0.0000E+00  0.7163E-09
    -37.769  0.0000E+00  0.0000E+00  0.0000E+00  0.0000E+00  0.0000E+00  0.0000E+00  0.0000E+00  0.0000E+00  0.0000E+00  0.0000E+00  0.0000E+00  0.0000E+00  0.0000E+00  0.0000E+00  0.0000E+00  0.0000E+00  0.0000E+00  0.0000E+00
    -37.565  0.0000E+00  0.0000E+00  0.0000E+00  0.0000E+00  0.0000E+00  0.0000E+00  0.0000E+00  0.0000E+00  0.0000E+00  0.0000E+00  0.0000E+00  0.0000E+00  0.0000E+00  0.0000E+00  0.0000E+00  0.0000E+00  0.0000E+00  0.0000E+00
    -37.361  0.0000E+00  0.0000E+00  0.0000E+00  0.0000E+00  0.0000E+00  0.0000E+00  0.0000E+00  0.0000E+00  0.0000E+00  0.0000E+00  0.0000E+00  0.0000E+00  0.0000E+00  0.0000E+00  0.0000E+00  0.0000E+00  0.0000E+00  0.0000E+00
    -37.156  0.0000E+00  0.0000E+00  0.0000E+00  0.0000E+00  0.0000E+00  0.0000E+00  0.0000E+00  0.0000E+00  0.0000E+00  0.0000E+00  0.0000E+00  0.0000E+00  0.0000E+00  0.0000E+00  0.0000E+00  0.0000E+00  0.0000E+00  0.0000E+00
    -36.952  0.0000E+00  0.0000E+00  0.0000E+00  0.0000E+00  0.0000E+00  0.0000E+00  0.0000E+00  0.0000E+00  0.0000E+00  0.0000E+00  0.0000E+00  0.0000E+00  0.0000E+00  0.0000E+00  0.0000E+00  0.0000E+00  0.0000E+00  0.0000E+00
    -36.748  0.0000E+00  0.0000E+00  0.0000E+00  0.0000E+00  0.0000E+00  0.0000E+00  0.0000E+00  0.0000E+00  0.0000E+00  0.0000E+00  0.0000E+00  0.0000E+00  0.0000E+00  0.0000E+00  0.0000E+00  0.0000E+00  0.0000E+00  0.0000E+00
    -36.544  0.0000E+00  0.0000E+00  0.0000E+00  0.0000E+00  0.0000E+00  0.0000E+00  0.0000E+00  0.0000E+00  0.0000E+00  0.0000E+00  0.0000E+00  0.0000E+00  0.0000E+00  0.0000E+00  0.0000E+00  0.0000E+00  0.0000E+00  0.0000E+00
    -36.339  0.0000E+00  0.0000E+00  0.0000E+00  0.0000E+00  0.0000E+00  0.0000E+00  0.0000E+00  0.0000E+00  0.0000E+00  0.0000E+00  0.0000E+00  0.0000E+00  0.0000E+00  0.0000E+00  0.0000E+00  0.0000E+00  0.0000E+00  0.0000E+00
    -36.135  0.0000E+00  0.0000E+00  0.0000E+00  0.0000E+00  0.0000E+00  0.0000E+00  0.0000E+00  0.0000E+00  0.0000E+00  0.0000E+00  0.0000E+00  0.0000E+00  0.0000E+00  0.0000E+00  0.0000E+00  0.0000E+00  0.0000E+00  0.0000E+00
    -35.931  0.0000E+00  0.0000E+00  0.0000E+00  0.0000E+00  0.0000E+00  0.0000E+00  0.0000E+00  0.0000E+00  0.0000E+00  0.0000E+00  0.0000E+00  0.0000E+00  0.0000E+00  0.0000E+00  0.0000E+00  0.0000E+00  0.0000E+00  0.0000E+00
    -35.726  0.0000E+00  0.0000E+00  0.0000E+00  0.0000E+00  0.0000E+00  0.0000E+00  0.0000E+00  0.0000E+00  0.0000E+00  0.0000E+00  0.0000E+00  0.0000E+00  0.0000E+00  0.0000E+00  0.0000E+00  0.0000E+00  0.0000E+00  0.0000E+00
    -35.522  0.0000E+00  0.0000E+00  0.0000E+00  0.0000E+00  0.0000E+00  0.0000E+00  0.0000E+00  0.0000E+00  0.0000E+00  0.0000E+00  0.0000E+00  0.0000E+00  0.0000E+00  0.0000E+00  0.0000E+00  0.0000E+00  0.0000E+00  0.0000E+00
    -35.318  0.0000E+00  0.0000E+00  0.0000E+00  0.0000E+00  0.0000E+00  0.0000E+00  0.0000E+00  0.0000E+00  0.0000E+00  0.0000E+00  0.0000E+00  0.0000E+00  0.0000E+00  0.0000E+00  0.0000E+00  0.0000E+00  0.0000E+00  0.0000E+00
    -35.114  0.0000E+00  0.0000E+00  0.0000E+00  0.0000E+00  0.0000E+00  0.0000E+00  0.0000E+00  0.0000E+00  0.0000E+00  0.0000E+00  0.0000E+00  0.0000E+00  0.0000E+00  0.0000E+00  0.0000E+00  0.0000E+00  0.0000E+00  0.0000E+00
    -34.909  0.0000E+00  0.0000E+00  0.0000E+00  0.0000E+00  0.0000E+00  0.0000E+00  0.0000E+00  0.0000E+00  0.0000E+00  0.0000E+00  0.0000E+00  0.0000E+00  0.0000E+00  0.0000E+00  0.0000E+00  0.0000E+00  0.0000E+00  0.0000E+00
    -34.705  0.0000E+00  0.0000E+00  0.0000E+00  0.0000E+00  0.0000E+00  0.0000E+00  0.0000E+00  0.0000E+00  0.0000E+00  0.0000E+00  0.0000E+00  0.0000E+00  0.0000E+00  0.0000E+00  0.0000E+00  0.0000E+00  0.0000E+00  0.0000E+00
    -34.501  0.0000E+00  0.0000E+00  0.0000E+00  0.0000E+00  0.0000E+00  0.0000E+00  0.0000E+00  0.0000E+00  0.0000E+00  0.0000E+00  0.0000E+00  0.0000E+00  0.0000E+00  0.0000E+00  0.0000E+00  0.0000E+00  0.0000E+00  0.0000E+00
    -34.296  0.0000E+00  0.0000E+00  0.0000E+00  0.0000E+00  0.0000E+00  0.0000E+00  0.0000E+00  0.0000E+00  0.0000E+00  0.0000E+00  0.0000E+00  0.0000E+00  0.0000E+00  0.0000E+00  0.0000E+00  0.0000E+00  0.0000E+00  0.0000E+00
    -34.092  0.0000E+00  0.0000E+00  0.0000E+00  0.0000E+00  0.0000E+00  0.0000E+00  0.0000E+00  0.0000E+00  0.0000E+00  0.0000E+00  0.0000E+00  0.0000E+00  0.0000E+00  0.0000E+00  0.0000E+00  0.0000E+00  0.0000E+00  0.0000E+00
    -33.888  0.0000E+00  0.0000E+00  0.0000E+00  0.0000E+00  0.0000E+00  0.0000E+00  0.0000E+00  0.0000E+00  0.0000E+00  0.0000E+00  0.0000E+00  0.0000E+00  0.0000E+00  0.0000E+00  0.0000E+00  0.0000E+00  0.0000E+00  0.0000E+00
    -33.684  0.0000E+00  0.0000E+00  0.0000E+00  0.0000E+00  0.0000E+00  0.0000E+00  0.0000E+00  0.0000E+00  0.0000E+00  0.0000E+00  0.0000E+00  0.0000E+00  0.0000E+00  0.0000E+00  0.0000E+00  0.0000E+00  0.0000E+00  0.0000E+00
    -33.479  0.0000E+00  0.0000E+00  0.0000E+00  0.0000E+00  0.0000E+00  0.0000E+00  0.0000E+00  0.0000E+00  0.0000E+00  0.0000E+00  0.0000E+00  0.0000E+00  0.0000E+00  0.0000E+00  0.0000E+00  0.0000E+00  0.0000E+00  0.0000E+00