  16  16   1   0
  0.1836536E+02  0.4131480E-09  0.4131480E-09  0.1721504E-08  0.5000000E-15
  1.000000000000000E-004
  CAR 
 unknown system                          
     14.97262513    -45.94844106  301      6.53675593      1.00000000
    -45.948  0.0000E+00  0.0000E+00  0.0000E+00  0.0000E+00
    -45.745  0.0000E+00  0.0000E+00  0.0000E+00  0.0000E+00
    -45.542  0.0000E+00  0.0000E+00  0.0000E+00  0.0000E+00
    -45.339  0.0000E+00  0.0000E+00  0.0000E+00  0.0000E+00
    -45.136  0.0000E+00  0.0000E+00  0.0000E+00  0.0000E+00
    -44.933  0.0000E+00  0.0000E+00  0.0000E+00  0.0000E+00
    -44.730  0.0000E+00  0.0000E+00  0.0000E+00  0.0000E+00
    -44.527  0.0000E+00  0.0000E+00  0.0000E+00  0.0000E+00
    -44.324  0.0000E+00  0.0000E+00  0.0000E+00  0.0000E+00
    -44.121  0.0000E+00  0.0000E+00  0.0000E+00  0.0000E+00
    -43.918  0.0000E+00  0.0000E+00  0.0000E+00  0.0000E+00
    -43.715  0.1142E-02  0.0000E+00  0.2318E-03  0.0000E+00
    -43.512  0.6506E-01  0.0000E+00  0.1344E-01  0.0000E+00
    -43.309  0.3537E+01  0.0000E+00  0.7318E+00  0.0000E+00
    -43.105  0.4273E+02  0.0000E+00  0.9409E+01  0.0000E+00
    -42.902  0.1248E+02  0.0000E+00  0.1194E+02  0.0000E+00
    -42.699  0.0000E+00  0.0000E+00  0.1200E+02  0.0000E+00
    -42.496  0.0000E+00  0.0000E+00  0.1200E+02  0.0000E+00
    -42.293  0.0000E+00  0.0000E+00  0.1200E+02  0.0000E+00
    -42.090  0.0000E+00  0.0000E+00  0.1200E+02  0.0000E+00
    -41.887  0.0000E+00  0.0000E+00  0.1200E+02  0.0000E+00
    -41.684  0.0000E+00  0.0000E+00  0.1200E+02  0.0000E+00
    -41.481  0.0000E+00  0.0000E+00  0.1200E+02  0.0000E+00
    -41.278  0.0000E+00  0.0000E+00  0.1200E+02  0.0000E+00
    -41.075  0.0000E+00  0.0000E+00  0.1200E+02  0.0000E+00
    -40.872  0.0000E+00  0.0000E+00  0.1200E+02  0.0000E+00
    -40.669  0.0000E+00  0.0000E+00  0.1200E+02  0.0000E+00
    -40.466  0.0000E+00  0.0000E+00  0.1200E+02  0.0000E+00
    -40.262  0.0000E+00  0.0000E+00  0.1200E+02  0.0000E+00
    -40.059  0.0000E+00  0.5309E-02  0.1200E+02  0.1078E-02
    -39.856  0.0000E+00  0.3013E+00  0.1200E+02  0.6227E-01
    -39.653  0.0000E+00  0.1343E+02  0.1200E+02  0.2789E+01
    -39.450  0.0000E+00  0.4218E+02  0.1200E+02  0.1135E+02
    -39.247  0.0000E+00  0.3123E+01  0.1200E+02  0.1199E+02
    -39.044  0.0000E+00  0.0000E+00  0.1200E+02  0.1200E+02
    -38.841  0.0000E+00  0.0000E+00  0.1200E+02  0.1200E+02
    -38.638  0.0000E+00  0.0000E+00  0.1200E+02  0.1200E+02
    -38.435  0.0000E+00  0.0000E+00  0.1200E+02  0.1200E+02
    -38.232  0.0000E+00  0.0000E+00  0.1200E+02  0.1200E+02
    -38.029  0.0000E+00  0.0000E+00  0.1200E+02  0.1200E+02
    -37.826  0.0000E+00  0.0000E+00  0.1200E+02  0.1200E+02
    -37.623  0.0000E+00  0.0000E+00  0.1200E+02  0.1200E+02
    -37.419  0.0000E+00  0.0000E+00  0.1200E+02  0.1200E+02
    -37.216  0.0000E+00  0.0000E+00  0.1200E+02  0.1200E+02
    -37.013  0.0000E+00  0.0000E+00  0.1200E+02  0.1200E+02
    -36.810  0.0000E+00  0.0000E+00  0.1200E+02  0.1200E+02
    -36.607  0.0000E+00  0.0000E+00  0.1200E+02  0.1200E+02
    -36.404  0.0000E+00  0.0000E+00  0.1200E+02  0.1200E+02
    -36.201  0.0000E+00  0.0000E+00  0.1200E+02  0.1200E+02
    -35.998  0.0000E+00  0.0000E+00  0.1200E+02  0.1200E+02
    -35.795  0.0000E+00  0.0000E+00  0.1200E+02  0.1200E+02
    -35.592  0.0000E+00  0.0000E+00  0.1200E+02  0.1200E+02
    -35.389  0.0000E+00  0.0000E+00  0.1200E+02  0.1200E+02
    -35.186  0.0000E+00  0.0000E+00  0.1200E+02  0.1200E+02
    -34.983  0.0000E+00  0.0000E+00  0.1200E+02  0.1200E+02
    -34.780  0.0000E+00  0.0000E+00  0.1200E+02  0.1200E+02
    -34.577  0.0000E+00  0.0000E+00  0.1200E+02  0.1200E+02
    -34.373  0.0000E+00  0.0000E+00  0.1200E+02  0.1200E+02
    -34.170  0.0000E+00  0.0000E+00  0.1200E+02  0.1200E+02
    -33.967  0.0000E+00  0.0000E+00  0.1200E+02  0.1200E+02
    -33.764  0.0000E+00  0.0000E+00  0.1200E+02  0.1200E+02
    -33.561  0.0000E+00  0.0000E+00  0.1200E+02  0.1200E+02
    -33.358  0.0000E+00  0.0000E+00  0.1200E+02  0.1200E+02
    -33.155  0.0000E+00  0.0000E+00  0.1200E+02  0.1200E+02
    -32.952  0.0000E+00  0.0000E+00  0.1200E+02  0.1200E+02
    -32.749  0.0000E+00  0.0000E+00  0.1200E+02  0.1200E+02
    -32.546  0.0000E+00  0.0000E+00  0.1200E+02  0.1200E+02
    -32.343  0.0000E+00  0.0000E+00  0.1200E+02  0.1200E+02
    -32.140  0.0000E+00  0.0000E+00  0.1200E+02  0.1200E+02
    -31.937  0.0000E+00  0.0000E+00  0.1200E+02  0.1200E+02
    -31.734  0.0000E+00  0.0000E+00  0.1200E+02  0.1200E+02
    -31.530  0.0000E+00  0.0000E+00  0.1200E+02  0.1200E+02
    -31.327  0.0000E+00  0.0000E+00  0.1200E+02  0.1200E+02
    -31.124  0.0000E+00  0.0000E+00  0.1200E+02  0.1200E+02
    -30.921  0.0000E+00  0.0000E+00  0.1200E+02  0.1200E+02
    -30.718  0.0000E+00  0.0000E+00  0.1200E+02  0.1200E+02
    -30.515  0.0000E+00  0.0000E+00  0.1200E+02  0.1200E+02
    -30.312  0.0000E+00  0.0000E+00  0.1200E+02  0.1200E+02
    -30.109  0.0000E+00  0.0000E+00  0.1200E+02  0.1200E+02
    -29.906  0.0000E+00  0.0000E+00  0.1200E+02  0.1200E+02
    -29.703  0.0000E+00  0.0000E+00  0.1200E+02  0.1200E+02
    -29.500  0.0000E+00  0.0000E+00  0.1200E+02  0.1200E+02
    -29.297  0.0000E+00  0.0000E+00  0.1200E+02  0.1200E+02
    -29.094  0.0000E+00  0.0000E+00  0.1200E+02  0.1200E+02
    -28.891  0.0000E+00  0.0000E+00  0.1200E+02  0.1200E+02
    -28.687  0.0000E+00  0.0000E+00  0.1200E+02  0.1200E+02
    -28.484  0.0000E+00  0.0000E+00  0.1200E+02  0.1200E+02
    -28.281  0.0000E+00  0.0000E+00  0.1200E+02  0.1200E+02
    -28.078  0.0000E+00  0.0000E+00  0.1200E+02  0.1200E+02
    -27.875  0.0000E+00  0.0000E+00  0.1200E+02  0.1200E+02
    -27.672  0.0000E+00  0.0000E+00  0.1200E+02  0.1200E+02
    -27.469  0.0000E+00  0.0000E+00  0.1200E+02  0.1200E+02
    -27.266  0.0000E+00  0.0000E+00  0.1200E+02  0.1200E+02
    -27.063  0.0000E+00  0.0000E+00  0.1200E+02  0.1200E+02
    -26.860  0.0000E+00  0.0000E+00  0.1200E+02  0.1200E+02
    -26.657  0.0000E+00  0.0000E+00  0.1200E+02  0.1200E+02
    -26.454  0.0000E+00  0.0000E+00  0.1200E+02  0.1200E+02
    -26.251  0.0000E+00  0.0000E+00  0.1200E+02  0.1200E+02
    -26.048  0.0000E+00  0.0000E+00  0.1200E+02  0.1200E+02
    -25.844  0.0000E+00  0.0000E+00  0.1200E+02  0.1200E+02
    -25.641  0.0000E+00  0.0000E+00  0.1200E+02  0.1200E+02
    -25.438  0.0000E+00  0.0000E+00  0.1200E+02  0.1200E+02
    -25.235  0.0000E+00  0.0000E+00  0.1200E+02  0.1200E+02
    -25.032  0.0000E+00  0.0000E+00  0.1200E+02  0.1200E+02
    -24.829  0.0000E+00  0.0000E+00  0.1200E+02  0.1200E+02
    -24.626  0.0000E+00  0.0000E+00  0.1200E+02  0.1200E+02
    -24.423  0.0000E+00  0.0000E+00  0.1200E+02  0.1200E+02
    -24.220  0.0000E+00  0.0000E+00  0.1200E+02  0.1200E+02
    -24.017  0.0000E+00  0.0000E+00  0.1200E+02  0.1200E+02
    -23.814  0.0000E+00  0.0000E+00  0.1200E+02  0.1200E+02
    -23.611  0.0000E+00  0.0000E+00  0.1200E+02  0.1200E+02
    -23.408  0.0000E+00  0.0000E+00  0.1200E+02  0.1200E+02
    -23.205  0.0000E+00  0.0000E+00  0.1200E+02  0.1200E+02
    -23.002  0.0000E+00  0.0000E+00  0.1200E+02  0.1200E+02
    -22.798  0.0000E+00  0.0000E+00  0.1200E+02  0.1200E+02
    -22.595  0.0000E+00  0.0000E+00  0.1200E+02  0.1200E+02
    -22.392  0.0000E+00  0.0000E+00  0.1200E+02  0.1200E+02
    -22.189  0.0000E+00  0.0000E+00  0.1200E+02  0.1200E+02
    -21.986  0.0000E+00  0.0000E+00  0.1200E+02  0.1200E+02
    -21.783  0.0000E+00  0.0000E+00  0.1200E+02  0.1200E+02
    -21.580  0.0000E+00  0.0000E+00  0.1200E+02  0.1200E+02
    -21.377  0.0000E+00  0.0000E+00  0.1200E+02  0.1200E+02
    -21.174  0.0000E+00  0.0000E+00  0.1200E+02  0.1200E+02
    -20.971  0.0000E+00  0.0000E+00  0.1200E+02  0.1200E+02
    -20.768  0.0000E+00  0.0000E+00  0.1200E+02  0.1200E+02
    -20.565  0.0000E+00  0.0000E+00  0.1200E+02  0.1200E+02
    -20.362  0.0000E+00  0.0000E+00  0.1200E+02  0.1200E+02
    -20.159  0.0000E+00  0.0000E+00  0.1200E+02  0.1200E+02
    -19.955  0.0000E+00  0.0000E+00  0.1200E+02  0.1200E+02
    -19.752  0.0000E+00  0.0000E+00  0.1200E+02  0.1200E+02
    -19.549  0.0000E+00  0.0000E+00  0.1200E+02  0.1200E+02
    -19.346  0.0000E+00  0.0000E+00  0.1200E+02  0.1200E+02
    -19.143  0.0000E+00  0.0000E+00  0.1200E+02  0.1200E+02
    -18.940  0.0000E+00  0.0000E+00  0.1200E+02  0.1200E+02
    -18.737  0.0000E+00  0.0000E+00  0.1200E+02  0.1200E+02
    -18.534  0.0000E+00  0.0000E+00  0.1200E+02  0.1200E+02
    -18.331  0.0000E+00  0.0000E+00  0.1200E+02  0.1200E+02
    -18.128  0.0000E+00  0.0000E+00  0.1200E+02  0.1200E+02
    -17.925  0.0000E+00  0.0000E+00  0.1200E+02  0.1200E+02
    -17.722  0.0000E+00  0.0000E+00  0.1200E+02  0.1200E+02
    -17.519  0.0000E+00  0.0000E+00  0.1200E+02  0.1200E+02
    -17.316  0.0000E+00  0.0000E+00  0.1200E+02  0.1200E+02
    -17.112  0.0000E+00  0.0000E+00  0.1200E+02  0.1200E+02
    -16.909  0.0000E+00  0.0000E+00  0.1200E+02  0.1200E+02
    -16.706  0.0000E+00  0.0000E+00  0.1200E+02  0.1200E+02
    -16.503  0.0000E+00  0.0000E+00  0.1200E+02  0.1200E+02
    -16.300  0.0000E+00  0.0000E+00  0.1200E+02  0.1200E+02
    -16.097  0.0000E+00  0.0000E+00  0.1200E+02  0.1200E+02
    -15.894  0.0000E+00  0.0000E+00  0.1200E+02  0.1200E+02
    -15.691  0.0000E+00  0.0000E+00  0.1200E+02  0.1200E+02
    -15.488  0.0000E+00  0.0000E+00  0.1200E+02  0.1200E+02
    -15.285  0.0000E+00  0.0000E+00  0.1200E+02  0.1200E+02
    -15.082  0.0000E+00  0.0000E+00  0.1200E+02  0.1200E+02
    -14.879  0.0000E+00  0.0000E+00  0.1200E+02  0.1200E+02
    -14.676  0.0000E+00  0.0000E+00  0.1200E+02  0.1200E+02
    -14.473  0.0000E+00  0.0000E+00  0.1200E+02  0.1200E+02
    -14.269  0.0000E+00  0.0000E+00  0.1200E+02  0.1200E+02
    -14.066  0.0000E+00  0.0000E+00  0.1200E+02  0.1200E+02
    -13.863  0.0000E+00  0.0000E+00  0.1200E+02  0.1200E+02
    -13.660  0.0000E+00  0.0000E+00  0.1200E+02  0.1200E+02
    -13.457  0.0000E+00  0.0000E+00  0.1200E+02  0.1200E+02
    -13.254  0.0000E+00  0.0000E+00  0.1200E+02  0.1200E+02
    -13.051  0.0000E+00  0.0000E+00  0.1200E+02  0.1200E+02
    -12.848  0.0000E+00  0.0000E+00  0.1200E+02  0.1200E+02
    -12.645  0.0000E+00  0.0000E+00  0.1200E+02  0.1200E+02
    -12.442  0.0000E+00  0.0000E+00  0.1200E+02  0.1200E+02
    -12.239  0.0000E+00  0.0000E+00  0.1200E+02  0.1200E+02
    -12.036  0.0000E+00  0.0000E+00  0.1200E+02  0.1200E+02
    -11.833  0.0000E+00  0.0000E+00  0.1200E+02  0.1200E+02
    -11.630  0.0000E+00  0.0000E+00  0.1200E+02  0.1200E+02
    -11.427  0.0000E+00  0.0000E+00  0.1200E+02  0.1200E+02
    -11.223  0.0000E+00  0.0000E+00  0.1200E+02  0.1200E+02
    -11.020  0.0000E+00  0.0000E+00  0.1200E+02  0.1200E+02
    -10.817  0.0000E+00  0.0000E+00  0.1200E+02  0.1200E+02
    -10.614  0.0000E+00  0.0000E+00  0.1200E+02  0.1200E+02
    -10.411  0.0000E+00  0.0000E+00  0.1200E+02  0.1200E+02
    -10.208  0.0000E+00  0.0000E+00  0.1200E+02  0.1200E+02
    -10.005  0.0000E+00  0.0000E+00  0.1200E+02  0.1200E+02
     -9.802  0.0000E+00  0.0000E+00  0.1200E+02  0.1200E+02
     -9.599  0.0000E+00  0.0000E+00  0.1200E+02  0.1200E+02
     -9.396  0.0000E+00  0.0000E+00  0.1200E+02  0.1200E+02
     -9.193  0.0000E+00  0.0000E+00  0.1200E+02  0.1200E+02
     -8.990  0.0000E+00  0.0000E+00  0.1200E+02  0.1200E+02
     -8.787  0.0000E+00  0.0000E+00  0.1200E+02  0.1200E+02
     -8.584  0.0000E+00  0.0000E+00  0.1200E+02  0.1200E+02
     -8.380  0.0000E+00  0.0000E+00  0.1200E+02  0.1200E+02
     -8.177  0.0000E+00  0.0000E+00  0.1200E+02  0.1200E+02
     -7.974  0.0000E+00  0.0000E+00  0.1200E+02  0.1200E+02
     -7.771  0.0000E+00  0.0000E+00  0.1200E+02  0.1200E+02
     -7.568  0.0000E+00  0.0000E+00  0.1200E+02  0.1200E+02
     -7.365  0.0000E+00  0.0000E+00  0.1200E+02  0.1200E+02
     -7.162  0.0000E+00  0.0000E+00  0.1200E+02  0.1200E+02
     -6.959  0.0000E+00  0.0000E+00  0.1200E+02  0.1200E+02
     -6.756  0.0000E+00  0.0000E+00  0.1200E+02  0.1200E+02
     -6.553  0.0000E+00  0.0000E+00  0.1200E+02  0.1200E+02
     -6.350  0.0000E+00  0.0000E+00  0.1200E+02  0.1200E+02
     -6.147  0.0000E+00  0.0000E+00  0.1200E+02  0.1200E+02
     -5.944  0.0000E+00  0.0000E+00  0.1200E+02  0.1200E+02
     -5.741  0.0000E+00  0.0000E+00  0.1200E+02  0.1200E+02
     -5.537  0.0000E+00  0.0000E+00  0.1200E+02  0.1200E+02
     -5.334  0.0000E+00  0.0000E+00  0.1200E+02  0.1200E+02
     -5.131  0.0000E+00  0.0000E+00  0.1200E+02  0.1200E+02
     -4.928  0.0000E+00  0.0000E+00  0.1200E+02  0.1200E+02
     -4.725  0.0000E+00  0.0000E+00  0.1200E+02  0.1200E+02
     -4.522  0.0000E+00  0.0000E+00  0.1200E+02  0.1200E+02
     -4.319  0.0000E+00  0.0000E+00  0.1200E+02  0.1200E+02
     -4.116  0.0000E+00  0.0000E+00  0.1200E+02  0.1200E+02
     -3.913  0.0000E+00  0.0000E+00  0.1200E+02  0.1200E+02
     -3.710  0.1003E-06  0.1129E-06  0.1200E+02  0.1200E+02
     -3.507  0.2886E-04  0.3283E-04  0.1200E+02  0.1200E+02
     -3.304  0.1689E-02  0.1921E-02  0.1200E+02  0.1200E+02
     -3.101  0.6309E-01  0.6919E-01  0.1201E+02  0.1201E+02
     -2.898  0.3499E+00  0.3638E+00  0.1208E+02  0.1209E+02
     -2.694  0.5878E+00  0.5972E+00  0.1220E+02  0.1221E+02
     -2.491  0.7769E+00  0.7933E+00  0.1236E+02  0.1237E+02
     -2.288  0.8496E+00  0.8712E+00  0.1253E+02  0.1255E+02
     -2.085  0.1089E+01  0.1117E+01  0.1276E+02  0.1278E+02
     -1.882  0.1048E+01  0.1061E+01  0.1297E+02  0.1299E+02
     -1.679  0.1360E+01  0.1416E+01  0.1325E+02  0.1328E+02
     -1.476  0.1334E+01  0.1346E+01  0.1352E+02  0.1355E+02
     -1.273  0.1596E+01  0.1692E+01  0.1384E+02  0.1390E+02
     -1.070  0.1595E+01  0.1599E+01  0.1417E+02  0.1423E+02
     -0.867  0.1659E+01  0.1588E+01  0.1451E+02  0.1455E+02
     -0.664  0.1325E+01  0.1294E+01  0.1478E+02  0.1481E+02
     -0.461  0.1707E+01  0.1602E+01  0.1513E+02  0.1514E+02
     -0.258  0.1693E+01  0.1555E+01  0.1547E+02  0.1546E+02
     -0.055  0.1847E+01  0.1796E+01  0.1585E+02  0.1582E+02
      0.148  0.1840E+01  0.1802E+01  0.1622E+02  0.1619E+02
      0.352  0.2157E+01  0.2137E+01  0.1666E+02  0.1663E+02
      0.555  0.2284E+01  0.2195E+01  0.1713E+02  0.1708E+02
      0.758  0.2065E+01  0.1998E+01  0.1755E+02  0.1748E+02
      0.961  0.2235E+01  0.2103E+01  0.1801E+02  0.1791E+02
      1.164  0.2127E+01  0.1934E+01  0.1844E+02  0.1831E+02
      1.367  0.2825E+01  0.2357E+01  0.1902E+02  0.1879E+02
      1.570  0.2397E+01  0.2393E+01  0.1951E+02  0.1927E+02
      1.773  0.2808E+01  0.2396E+01  0.2008E+02  0.1976E+02
      1.976  0.2960E+01  0.2622E+01  0.2068E+02  0.2030E+02
      2.179  0.3383E+01  0.2671E+01  0.2137E+02  0.2084E+02
      2.382  0.2721E+01  0.2606E+01  0.2193E+02  0.2137E+02
      2.585  0.2801E+01  0.2189E+01  0.2250E+02  0.2182E+02
      2.788  0.3552E+01  0.2298E+01  0.2323E+02  0.2229E+02
      2.991  0.3874E+01  0.2658E+01  0.2401E+02  0.2283E+02
      3.195  0.5118E+01  0.2817E+01  0.2506E+02  0.2341E+02
      3.398  0.5963E+01  0.2850E+01  0.2627E+02  0.2399E+02
      3.601  0.8836E+01  0.3334E+01  0.2807E+02  0.2467E+02
      3.804  0.1169E+02  0.3317E+01  0.3045E+02  0.2534E+02
      4.007  0.1497E+02  0.3318E+01  0.3350E+02  0.2602E+02
      4.210  0.1681E+02  0.3601E+01  0.3693E+02  0.2676E+02
      4.413  0.1004E+02  0.3945E+01  0.3898E+02  0.2756E+02
      4.616  0.1224E+02  0.3874E+01  0.4148E+02  0.2835E+02
      4.819  0.7174E+01  0.3543E+01  0.4295E+02  0.2908E+02
      5.022  0.6094E+01  0.4181E+01  0.4419E+02  0.2993E+02
      5.225  0.5123E+01  0.4400E+01  0.4524E+02  0.3083E+02
      5.428  0.3818E+01  0.5031E+01  0.4602E+02  0.3185E+02
      5.631  0.3446E+01  0.5309E+01  0.4672E+02  0.3293E+02
      5.834  0.4659E+01  0.5157E+01  0.4767E+02  0.3399E+02
      6.038  0.4400E+01  0.5467E+01  0.4857E+02  0.3510E+02
      6.241  0.3922E+01  0.4995E+01  0.4937E+02  0.3612E+02
      6.444  0.3762E+01  0.4832E+01  0.5014E+02  0.3711E+02
      6.647  0.3762E+01  0.4086E+01  0.5090E+02  0.3794E+02
      6.850  0.3489E+01  0.4649E+01  0.5161E+02  0.3889E+02
      7.053  0.3061E+01  0.5592E+01  0.5224E+02  0.4003E+02
      7.256  0.3528E+01  0.7329E+01  0.5296E+02  0.4152E+02
      7.459  0.3835E+01  0.9509E+01  0.5374E+02  0.4346E+02
      7.662  0.3381E+01  0.1338E+02  0.5443E+02  0.4618E+02
      7.865  0.3849E+01  0.1138E+02  0.5522E+02  0.4850E+02
      8.068  0.4763E+01  0.7212E+01  0.5619E+02  0.4998E+02
      8.271  0.3658E+01  0.8207E+01  0.5694E+02  0.5166E+02
      8.474  0.3671E+01  0.8615E+01  0.5768E+02  0.5341E+02
      8.677  0.3496E+01  0.6691E+01  0.5840E+02  0.5478E+02
      8.881  0.3927E+01  0.5756E+01  0.5920E+02  0.5596E+02
      9.084  0.4127E+01  0.5573E+01  0.6004E+02  0.5710E+02
      9.287  0.3973E+01  0.6293E+01  0.6085E+02  0.5838E+02
      9.490  0.3401E+01  0.5400E+01  0.6154E+02  0.5948E+02
      9.693  0.3679E+01  0.4496E+01  0.6230E+02  0.6040E+02
      9.896  0.4030E+01  0.4425E+01  0.6312E+02  0.6130E+02
     10.099  0.3950E+01  0.4156E+01  0.6393E+02  0.6215E+02
     10.302  0.3121E+01  0.4361E+01  0.6456E+02  0.6304E+02
     10.505  0.4320E+01  0.3711E+01  0.6544E+02  0.6380E+02
     10.708  0.3982E+01  0.4170E+01  0.6626E+02  0.6465E+02
     10.911  0.2936E+01  0.4484E+01  0.6686E+02  0.6557E+02
     11.114  0.2019E+01  0.4012E+01  0.6727E+02  0.6639E+02
     11.317  0.1366E+01  0.3010E+01  0.6755E+02  0.6700E+02
     11.520  0.7995E+00  0.2238E+01  0.6771E+02  0.6746E+02
     11.724  0.7223E+00  0.1157E+01  0.6786E+02  0.6770E+02
     11.927  0.5288E+00  0.7715E+00  0.6797E+02  0.6786E+02
     12.130  0.1459E+00  0.4363E+00  0.6800E+02  0.6795E+02
     12.333  0.2287E-02  0.2519E+00  0.6800E+02  0.6800E+02
     12.536  0.0000E+00  0.1302E-01  0.6800E+02  0.6800E+02
     12.739  0.0000E+00  0.0000E+00  0.6800E+02  0.6800E+02
     12.942  0.0000E+00  0.0000E+00  0.6800E+02  0.6800E+02
     13.145  0.0000E+00  0.0000E+00  0.6800E+02  0.6800E+02
     13.348  0.0000E+00  0.0000E+00  0.6800E+02  0.6800E+02
     13.551  0.0000E+00  0.0000E+00  0.6800E+02  0.6800E+02
     13.754  0.0000E+00  0.0000E+00  0.6800E+02  0.6800E+02
     13.957  0.0000E+00  0.0000E+00  0.6800E+02  0.6800E+02
     14.160  0.0000E+00  0.0000E+00  0.6800E+02  0.6800E+02
     14.363  0.0000E+00  0.0000E+00  0.6800E+02  0.6800E+02
     14.566  0.0000E+00  0.0000E+00  0.6800E+02  0.6800E+02
     14.770  0.0000E+00  0.0000E+00  0.6800E+02  0.6800E+02
     14.973  0.0000E+00  0.0000E+00  0.6800E+02  0.6800E+02
     14.97262513    -45.94844106  301      6.53675593      1.00000000
    -45.948  0.0000E+00  0.0000E+00  0.0000E+00  0.0000E+00  0.0000E+00  0.0000E+00  0.0000E+00  0.0000E+00  0.0000E+00  0.0000E+00  0.0000E+00  0.0000E+00  0.0000E+00  0.0000E+00  0.0000E+00  0.0000E+00  0.0000E+00  0.0000E+00
    -45.745  0.0000E+00  0.0000E+00  0.0000E+00  0.0000E+00  0.0000E+00  0.0000E+00  0.0000E+00  0.0000E+00  0.0000E+00  0.0000E+00  0.0000E+00  0.0000E+00  0.0000E+00  0.0000E+00  0.0000E+00  0.0000E+00  0.0000E+00  0.0000E+00
    -45.542  0.0000E+00  0.0000E+00  0.0000E+00  0.0000E+00  0.0000E+00  0.0000E+00  0.0000E+00  0.0000E+00  0.0000E+00  0.0000E+00  0.0000E+00  0.0000E+00  0.0000E+00  0.0000E+00  0.0000E+00  0.0000E+00  0.0000E+00  0.0000E+00
    -45.339  0.0000E+00  0.0000E+00  0.0000E+00  0.0000E+00  0.0000E+00  0.0000E+00  0.0000E+00  0.0000E+00  0.0000E+00  0.0000E+00  0.0000E+00  0.0000E+00  0.0000E+00  0.0000E+00  0.0000E+00  0.0000E+00  0.0000E+00  0.0000E+00
    -45.136  0.0000E+00  0.0000E+00  0.0000E+00  0.0000E+00  0.0000E+00  0.0000E+00  0.0000E+00  0.0000E+00  0.0000E+00  0.0000E+00  0.0000E+00  0.0000E+00  0.0000E+00  0.0000E+00  0.0000E+00  0.0000E+00  0.0000E+00  0.0000E+00
    -44.933  0.0000E+00  0.0000E+00  0.0000E+00  0.0000E+00  0.0000E+00  0.0000E+00  0.0000E+00  0.0000E+00  0.0000E+00  0.0000E+00  0.0000E+00  0.0000E+00  0.0000E+00  0.0000E+00  0.0000E+00  0.0000E+00  0.0000E+00  0.0000E+00
    -44.730  0.0000E+00  0.0000E+00  0.0000E+00  0.0000E+00  0.0000E+00  0.0000E+00  0.0000E+00  0.0000E+00  0.0000E+00  0.0000E+00  0.0000E+00  0.0000E+00  0.0000E+00  0.0000E+00  0.0000E+00  0.0000E+00  0.0000E+00  0.0000E+00
    -44.527  0.0000E+00  0.0000E+00  0.0000E+00  0.0000E+00  0.0000E+00  0.0000E+00  0.0000E+00  0.0000E+00  0.0000E+00  0.0000E+00  0.0000E+00  0.0000E+00  0.0000E+00  0.0000E+00  0.0000E+00  0.0000E+00  0.0000E+00  0.0000E+00
    -44.324  0.0000E+00  0.0000E+00  0.0000E+00  0.0000E+00  0.0000E+00  0.0000E+00  0.0000E+00  0.0000E+00  0.0000E+00  0.0000E+00  0.0000E+00  0.0000E+00  0.0000E+00  0.0000E+00  0.0000E+00  0.0000E+00  0.0000E+00  0.0000E+00
    -44.121  0.0000E+00  0.0000E+00  0.0000E+00  0.0000E+00  0.0000E+00  0.0000E+00  0.0000E+00  0.0000E+00  0.0000E+00  0.0000E+00  0.0000E+00  0.0000E+00  0.0000E+00  0.0000E+00  0.0000E+00  0.0000E+00  0.0000E+00  0.0000E+00
    -43.918  0.0000E+00  0.0000E+00  0.0000E+00  0.0000E+00  0.0000E+00  0.0000E+00  0.0000E+00  0.0000E+00  0.0000E+00  0.0000E+00  0.0000E+00  0.0000E+00  0.0000E+00  0.0000E+00  0.0000E+00  0.0000E+00  0.0000E+00  0.0000E+00
    -43.715  0.8347E-11  0.0000E+00  0.1087E-03  0.0000E+00  0.6658E-04  0.0000E+00  0.1087E-03  0.0000E+00  0.2854E-14  0.0000E+00  0.5160E-11  0.0000E+00  0.7236E-11  0.0000E+00  0.5160E-11  0.0000E+00  0.7108E-13  0.0000E+00
    -43.512  0.4759E-09  0.0000E+00  0.6192E-02  0.0000E+00  0.3796E-02  0.0000E+00  0.6192E-02  0.0000E+00  0.1626E-12  0.0000E+00  0.2940E-09  0.0000E+00  0.4125E-09  0.0000E+00  0.2940E-09  0.0000E+00  0.4051E-11  0.0000E+00
    -43.309  0.2641E-07  0.0000E+00  0.3345E+00  0.0000E+00  0.2107E+00  0.0000E+00  0.3345E+00  0.0000E+00  0.8787E-11  0.0000E+00  0.1588E-07  0.0000E+00  0.2290E-07  0.0000E+00  0.1588E-07  0.0000E+00  0.2188E-09  0.0000E+00
    -43.105  0.4183E-06  0.0000E+00  0.3640E+01  0.0000E+00  0.3345E+01  0.0000E+00  0.3640E+01  0.0000E+00  0.9604E-10  0.0000E+00  0.1729E-06  0.0000E+00  0.3631E-06  0.0000E+00  0.1729E-06  0.0000E+00  0.2382E-08  0.0000E+00
    -42.902  0.1631E-06  0.0000E+00  0.8978E+00  0.0000E+00  0.1307E+01  0.0000E+00  0.8978E+00  0.0000E+00  0.2392E-10  0.0000E+00  0.4263E-07  0.0000E+00  0.1417E-06  0.0000E+00  0.4263E-07  0.0000E+00  0.5874E-09  0.0000E+00
    -42.699  0.0000E+00  0.0000E+00  0.0000E+00  0.0000E+00  0.0000E+00  0.0000E+00  0.0000E+00  0.0000E+00  0.0000E+00  0.0000E+00  0.0000E+00  0.0000E+00  0.0000E+00  0.0000E+00  0.0000E+00  0.0000E+00  0.0000E+00  0.0000E+00
    -42.496  0.0000E+00  0.0000E+00  0.0000E+00  0.0000E+00  0.0000E+00  0.0000E+00  0.0000E+00  0.0000E+00  0.0000E+00  0.0000E+00  0.0000E+00  0.0000E+00  0.0000E+00  0.0000E+00  0.0000E+00  0.0000E+00  0.0000E+00  0.0000E+00
    -42.293  0.0000E+00  0.0000E+00  0.0000E+00  0.0000E+00  0.0000E+00  0.0000E+00  0.0000E+00  0.0000E+00  0.0000E+00  0.0000E+00  0.0000E+00  0.0000E+00  0.0000E+00  0.0000E+00  0.0000E+00  0.0000E+00  0.0000E+00  0.0000E+00
    -42.090  0.0000E+00  0.0000E+00  0.0000E+00  0.0000E+00  0.0000E+00  0.0000E+00  0.0000E+00  0.0000E+00  0.0000E+00  0.0000E+00  0.0000E+00  0.0000E+00  0.0000E+00  0.0000E+00  0.0000E+00  0.0000E+00  0.0000E+00  0.0000E+00
    -41.887  0.0000E+00  0.0000E+00  0.0000E+00  0.0000E+00  0.0000E+00  0.0000E+00  0.0000E+00  0.0000E+00  0.0000E+00  0.0000E+00  0.0000E+00  0.0000E+00  0.0000E+00  0.0000E+00  0.0000E+00  0.0000E+00  0.0000E+00  0.0000E+00
    -41.684  0.0000E+00  0.0000E+00  0.0000E+00  0.0000E+00  0.0000E+00  0.0000E+00  0.0000E+00  0.0000E+00  0.0000E+00  0.0000E+00  0.0000E+00  0.0000E+00  0.0000E+00  0.0000E+00  0.0000E+00  0.0000E+00  0.0000E+00  0.0000E+00
    -41.481  0.0000E+00  0.0000E+00  0.0000E+00  0.0000E+00  0.0000E+00  0.0000E+00  0.0000E+00  0.0000E+00  0.0000E+00  0.0000E+00  0.0000E+00  0.0000E+00  0.0000E+00  0.0000E+00  0.0000E+00  0.0000E+00  0.0000E+00  0.0000E+00
    -41.278  0.0000E+00  0.0000E+00  0.0000E+00  0.0000E+00  0.0000E+00  0.0000E+00  0.0000E+00  0.0000E+00  0.0000E+00  0.0000E+00  0.0000E+00  0.0000E+00  0.0000E+00  0.0000E+00  0.0000E+00  0.0000E+00  0.0000E+00  0.0000E+00
    -41.075  0.0000E+00  0.0000E+00  0.0000E+00  0.0000E+00  0.0000E+00  0.0000E+00  0.0000E+00  0.0000E+00  0.0000E+00  0.0000E+00  0.0000E+00  0.0000E+00  0.0000E+00  0.0000E+00  0.0000E+00  0.0000E+00  0.0000E+00  0.0000E+00
    -40.872  0.0000E+00  0.0000E+00  0.0000E+00  0.0000E+00  0.0000E+00  0.0000E+00  0.0000E+00  0.0000E+00  0.0000E+00  0.0000E+00  0.0000E+00  0.0000E+00  0.0000E+00  0.0000E+00  0.0000E+00  0.0000E+00  0.0000E+00  0.0000E+00
    -40.669  0.0000E+00  0.0000E+00  0.0000E+00  0.0000E+00  0.0000E+00  0.0000E+00  0.0000E+00  0.0000E+00  0.0000E+00  0.0000E+00  0.0000E+00  0.0000E+00  0.0000E+00  0.0000E+00  0.0000E+00  0.0000E+00  0.0000E+00  0.0000E+00
    -40.466  0.0000E+00  0.0000E+00  0.0000E+00  0.0000E+00  0.0000E+00  0.0000E+00  0.0000E+00  0.0000E+00  0.0000E+00  0.0000E+00  0.0000E+00  0.0000E+00  0.0000E+00  0.0000E+00  0.0000E+00  0.0000E+00  0.0000E+00  0.0000E+00
    -40.262  0.0000E+00  0.0000E+00  0.0000E+00  0.0000E+00  0.0000E+00  0.0000E+00  0.0000E+00  0.0000E+00  0.0000E+00  0.0000E+00  0.0000E+00  0.0000E+00  0.0000E+00  0.0000E+00  0.0000E+00  0.0000E+00  0.0000E+00  0.0000E+00
    -40.059  0.0000E+00  0.4584E-10  0.0000E+00  0.4415E-03  0.0000E+00  0.4374E-03  0.0000E+00  0.4415E-03  0.0000E+00  0.1793E-13  0.0000E+00  0.1651E-10  0.0000E+00  0.3512E-10  0.0000E+00  0.1651E-10  0.0000E+00  0.5632E-12
    -39.856  0.0000E+00  0.2602E-08  0.0000E+00  0.2506E-01  0.0000E+00  0.2483E-01  0.0000E+00  0.2506E-01  0.0000E+00  0.1017E-11  0.0000E+00  0.9371E-09  0.0000E+00  0.1993E-08  0.0000E+00  0.9371E-09  0.0000E+00  0.3197E-10
    -39.653  0.0000E+00  0.1161E-06  0.0000E+00  0.1116E+01  0.0000E+00  0.1108E+01  0.0000E+00  0.1116E+01  0.0000E+00  0.4525E-10  0.0000E+00  0.4173E-07  0.0000E+00  0.8896E-07  0.0000E+00  0.4173E-07  0.0000E+00  0.1424E-08
    -39.450  0.0000E+00  0.3669E-06  0.0000E+00  0.3495E+01  0.0000E+00  0.3501E+01  0.0000E+00  0.3495E+01  0.0000E+00  0.1410E-09  0.0000E+00  0.1307E-06  0.0000E+00  0.2811E-06  0.0000E+00  0.1307E-06  0.0000E+00  0.4457E-08
    -39.247  0.0000E+00  0.2730E-07  0.0000E+00  0.2581E+00  0.0000E+00  0.2605E+00  0.0000E+00  0.2581E+00  0.0000E+00  0.1037E-10  0.0000E+00  0.9652E-08  0.0000E+00  0.2091E-07  0.0000E+00  0.9652E-08  0.0000E+00  0.3291E-09
    -39.044  0.0000E+00  0.0000E+00  0.0000E+00  0.0000E+00  0.0000E+00  0.0000E+00  0.0000E+00  0.0000E+00  0.0000E+00  0.0000E+00  0.0000E+00  0.0000E+00  0.0000E+00  0.0000E+00  0.0000E+00  0.0000E+00  0.0000E+00  0.0000E+00
    -38.841  0.0000E+00  0.0000E+00  0.0000E+00  0.0000E+00  0.0000E+00  0.0000E+00  0.0000E+00  0.0000E+00  0.0000E+00  0.0000E+00  0.0000E+00  0.0000E+00  0.0000E+00  0.0000E+00  0.0000E+00  0.0000E+00  0.0000E+00  0.0000E+00
    -38.638  0.0000E+00  0.0000E+00  0.0000E+00  0.0000E+00  0.0000E+00  0.0000E+00  0.0000E+00  0.0000E+00  0.0000E+00  0.0000E+00  0.0000E+00  0.0000E+00  0.0000E+00  0.0000E+00  0.0000E+00  0.0000E+00  0.0000E+00  0.0000E+00
    -38.435  0.0000E+00  0.0000E+00  0.0000E+00  0.0000E+00  0.0000E+00  0.0000E+00  0.0000E+00  0.0000E+00  0.0000E+00  0.0000E+00  0.0000E+00  0.0000E+00  0.0000E+00  0.0000E+00  0.0000E+00  0.0000E+00  0.0000E+00  0.0000E+00
    -38.232  0.0000E+00  0.0000E+00  0.0000E+00  0.0000E+00  0.0000E+00  0.0000E+00  0.0000E+00  0.0000E+00  0.0000E+00  0.0000E+00  0.0000E+00  0.0000E+00  0.0000E+00  0.0000E+00  0.0000E+00  0.0000E+00  0.0000E+00  0.0000E+00
    -38.029  0.0000E+00  0.0000E+00  0.0000E+00  0.0000E+00  0.0000E+00  0.0000E+00  0.0000E+00  0.0000E+00  0.0000E+00  0.0000E+00  0.0000E+00  0.0000E+00  0.0000E+00  0.0000E+00  0.0000E+00  0.0000E+00  0.0000E+00  0.0000E+00
    -37.826  0.0000E+00  0.0000E+00  0.0000E+00  0.0000E+00  0.0000E+00  0.0000E+00  0.0000E+00  0.0000E+00  0.0000E+00  0.0000E+00  0.0000E+00  0.0000E+00  0.0000E+00  0.0000E+00  0.0000E+00  0.0000E+00  0.0000E+00  0.0000E+00
    -37.623  0.0000E+00  0.0000E+00  0.0000E+00  0.0000E+00  0.0000E+00  0.0000E+00  0.0000E+00  0.0000E+00  0.0000E+00  0.0000E+00  0.0000E+00  0.0000E+00  0.0000E+00  0.0000E+00  0.0000E+00  0.0000E+00  0.0000E+00  0.0000E+00
    -37.419  0.0000E+00  0.0000E+00  0.0000E+00  0.0000E+00  0.0000E+00  0.0000E+00  0.0000E+00  0.0000E+00  0.0000E+00  0.0000E+00  0.0000E+00  0.0000E+00  0.0000E+00  0.0000E+00  0.0000E+00  0.0000E+00  0.0000E+00  0.0000E+00
    -37.216  0.0000E+00  0.0000E+00  0.0000E+00  0.0000E+00  0.0000E+00  0.0000E+00  0.0000E+00  0.0000E+00  0.0000E+00  0.0000E+00  0.0000E+00  0.0000E+00  0.0000E+00  0.0000E+00  0.0000E+00  0.0000E+00  0.0000E+00  0.0000E+00
    -37.013  0.0000E+00  0.0000E+00  0.0000E+00  0.0000E+00  0.0000E+00  0.0000E+00  0.0000E+00  0.0000E+00  0.0000E+00  0.0000E+00  0.0000E+00  0.0000E+00  0.0000E+00  0.0000E+00  0.0000E+00  0.0000E+00  0.0000E+00  0.0000E+00
    -36.810  0.0000E+00  0.0000E+00  0.0000E+00  0.0000E+00  0.0000E+00  0.0000E+00  0.0000E+00  0.0000E+00  0.0000E+00  0.0000E+00  0.0000E+00  0.0000E+00  0.0000E+00  0.0000E+00  0.0000E+00  0.0000E+00  0.0000E+00  0.0000E+00
    -36.607  0.0000E+00  0.0000E+00  0.0000E+00  0.0000E+00  0.0000E+00  0.0000E+00  0.0000E+00  0.0000E+00  0.0000E+00  0.0000E+00  0.0000E+00  0.0000E+00  0.0000E+00  0.0000E+00  0.0000E+00  0.0000E+00  0.0000E+00  0.0000E+00
    -36.404  0.0000E+00  0.0000E+00  0.0000E+00  0.0000E+00  0.0000E+00  0.0000E+00  0.0000E+00  0.0000E+00  0.0000E+00  0.0000E+00  0.0000E+00  0.0000E+00  0.0000E+00  0.0000E+00  0.0000E+00  0.0000E+00  0.0000E+00  0.0000E+00
    -36.201  0.0000E+00  0.0000E+00  0.0000E+00  0.0000E+00  0.0000E+00  0.0000E+00  0.0000E+00  0.0000E+00  0.0000E+00  0.0000E+00  0.0000E+00  0.0000E+00  0.0000E+00  0.0000E+00  0.0000E+00  0.0000E+00  0.0000E+00  0.0000E+00
    -35.998  0.0000E+00  0.0000E+00  0.0000E+00  0.0000E+00  0.0000E+00  0.0000E+00  0.0000E+00  0.0000E+00  0.0000E+00  0.0000E+00  0.0000E+00  0.0000E+00  0.0000E+00  0.0000E+00  0.0000E+00  0.0000E+00  0.0000E+00  0.0000E+00
    -35.795  0.0000E+00  0.0000E+00  0.0000E+00  0.0000E+00  0.0000E+00  0.0000E+00  0.0000E+00  0.0000E+00  0.0000E+00  0.0000E+00  0.0000E+00  0.0000E+00  0.0000E+00  0.0000E+00  0.0000E+00  0.0000E+00  0.0000E+00  0.0000E+00