  16  16   1   0
  0.1595218E+02  0.3941963E-09  0.3941963E-09  0.1642536E-08  0.5000000E-15
  1.000000000000000E-004
  CAR 
 unknown system                          
     17.16552692    -44.14593649  301      7.93160286      1.00000000
    -44.146  0.0000E+00  0.0000E+00  0.0000E+00  0.0000E+00
    -43.942  0.0000E+00  0.0000E+00  0.0000E+00  0.0000E+00
    -43.737  0.0000E+00  0.0000E+00  0.0000E+00  0.0000E+00
    -43.533  0.0000E+00  0.0000E+00  0.0000E+00  0.0000E+00
    -43.328  0.0000E+00  0.0000E+00  0.0000E+00  0.0000E+00
    -43.124  0.0000E+00  0.0000E+00  0.0000E+00  0.0000E+00
    -42.920  0.0000E+00  0.0000E+00  0.0000E+00  0.0000E+00
    -42.715  0.0000E+00  0.0000E+00  0.0000E+00  0.0000E+00
    -42.511  0.0000E+00  0.0000E+00  0.0000E+00  0.0000E+00
    -42.307  0.0000E+00  0.0000E+00  0.0000E+00  0.0000E+00
    -42.102  0.0000E+00  0.0000E+00  0.0000E+00  0.0000E+00
    -41.898  0.9572E-03  0.0000E+00  0.1956E-03  0.0000E+00
    -41.693  0.5602E-01  0.0000E+00  0.1164E-01  0.0000E+00
    -41.489  0.3134E+01  0.0000E+00  0.6521E+00  0.0000E+00
    -41.285  0.4089E+02  0.0000E+00  0.9008E+01  0.0000E+00
    -41.080  0.1430E+02  0.0000E+00  0.1193E+02  0.0000E+00
    -40.876  0.0000E+00  0.0000E+00  0.1200E+02  0.0000E+00
    -40.672  0.0000E+00  0.0000E+00  0.1200E+02  0.0000E+00
    -40.467  0.0000E+00  0.0000E+00  0.1200E+02  0.0000E+00
    -40.263  0.0000E+00  0.0000E+00  0.1200E+02  0.0000E+00
    -40.059  0.0000E+00  0.0000E+00  0.1200E+02  0.0000E+00
    -39.854  0.0000E+00  0.0000E+00  0.1200E+02  0.0000E+00
    -39.650  0.0000E+00  0.0000E+00  0.1200E+02  0.0000E+00
    -39.445  0.0000E+00  0.0000E+00  0.1200E+02  0.0000E+00
    -39.241  0.0000E+00  0.0000E+00  0.1200E+02  0.0000E+00
    -39.037  0.0000E+00  0.1412E-02  0.1200E+02  0.2885E-03
    -38.832  0.0000E+00  0.8259E-01  0.1200E+02  0.1717E-01
    -38.628  0.0000E+00  0.4534E+01  0.1200E+02  0.9438E+00
    -38.424  0.0000E+00  0.4445E+02  0.1200E+02  0.1003E+02
    -38.219  0.0000E+00  0.9455E+01  0.1200E+02  0.1196E+02
    -38.015  0.0000E+00  0.0000E+00  0.1200E+02  0.1200E+02
    -37.810  0.0000E+00  0.0000E+00  0.1200E+02  0.1200E+02
    -37.606  0.0000E+00  0.0000E+00  0.1200E+02  0.1200E+02
    -37.402  0.0000E+00  0.0000E+00  0.1200E+02  0.1200E+02
    -37.197  0.0000E+00  0.0000E+00  0.1200E+02  0.1200E+02
    -36.993  0.0000E+00  0.0000E+00  0.1200E+02  0.1200E+02
    -36.789  0.0000E+00  0.0000E+00  0.1200E+02  0.1200E+02
    -36.584  0.0000E+00  0.0000E+00  0.1200E+02  0.1200E+02
    -36.380  0.0000E+00  0.0000E+00  0.1200E+02  0.1200E+02
    -36.175  0.0000E+00  0.0000E+00  0.1200E+02  0.1200E+02
    -35.971  0.0000E+00  0.0000E+00  0.1200E+02  0.1200E+02
    -35.767  0.0000E+00  0.0000E+00  0.1200E+02  0.1200E+02
    -35.562  0.0000E+00  0.0000E+00  0.1200E+02  0.1200E+02
    -35.358  0.0000E+00  0.0000E+00  0.1200E+02  0.1200E+02
    -35.154  0.0000E+00  0.0000E+00  0.1200E+02  0.1200E+02
    -34.949  0.0000E+00  0.0000E+00  0.1200E+02  0.1200E+02
    -34.745  0.0000E+00  0.0000E+00  0.1200E+02  0.1200E+02
    -34.540  0.0000E+00  0.0000E+00  0.1200E+02  0.1200E+02
    -34.336  0.0000E+00  0.0000E+00  0.1200E+02  0.1200E+02
    -34.132  0.0000E+00  0.0000E+00  0.1200E+02  0.1200E+02
    -33.927  0.0000E+00  0.0000E+00  0.1200E+02  0.1200E+02
    -33.723  0.0000E+00  0.0000E+00  0.1200E+02  0.1200E+02
    -33.519  0.0000E+00  0.0000E+00  0.1200E+02  0.1200E+02
    -33.314  0.0000E+00  0.0000E+00  0.1200E+02  0.1200E+02
    -33.110  0.0000E+00  0.0000E+00  0.1200E+02  0.1200E+02
    -32.906  0.0000E+00  0.0000E+00  0.1200E+02  0.1200E+02
    -32.701  0.0000E+00  0.0000E+00  0.1200E+02  0.1200E+02
    -32.497  0.0000E+00  0.0000E+00  0.1200E+02  0.1200E+02
    -32.292  0.0000E+00  0.0000E+00  0.1200E+02  0.1200E+02
    -32.088  0.0000E+00  0.0000E+00  0.1200E+02  0.1200E+02
    -31.884  0.0000E+00  0.0000E+00  0.1200E+02  0.1200E+02
    -31.679  0.0000E+00  0.0000E+00  0.1200E+02  0.1200E+02
    -31.475  0.0000E+00  0.0000E+00  0.1200E+02  0.1200E+02
    -31.271  0.0000E+00  0.0000E+00  0.1200E+02  0.1200E+02
    -31.066  0.0000E+00  0.0000E+00  0.1200E+02  0.1200E+02
    -30.862  0.0000E+00  0.0000E+00  0.1200E+02  0.1200E+02
    -30.657  0.0000E+00  0.0000E+00  0.1200E+02  0.1200E+02
    -30.453  0.0000E+00  0.0000E+00  0.1200E+02  0.1200E+02
    -30.249  0.0000E+00  0.0000E+00  0.1200E+02  0.1200E+02
    -30.044  0.0000E+00  0.0000E+00  0.1200E+02  0.1200E+02
    -29.840  0.0000E+00  0.0000E+00  0.1200E+02  0.1200E+02
    -29.636  0.0000E+00  0.0000E+00  0.1200E+02  0.1200E+02
    -29.431  0.0000E+00  0.0000E+00  0.1200E+02  0.1200E+02
    -29.227  0.0000E+00  0.0000E+00  0.1200E+02  0.1200E+02
    -29.022  0.0000E+00  0.0000E+00  0.1200E+02  0.1200E+02
    -28.818  0.0000E+00  0.0000E+00  0.1200E+02  0.1200E+02
    -28.614  0.0000E+00  0.0000E+00  0.1200E+02  0.1200E+02
    -28.409  0.0000E+00  0.0000E+00  0.1200E+02  0.1200E+02
    -28.205  0.0000E+00  0.0000E+00  0.1200E+02  0.1200E+02
    -28.001  0.0000E+00  0.0000E+00  0.1200E+02  0.1200E+02
    -27.796  0.0000E+00  0.0000E+00  0.1200E+02  0.1200E+02
    -27.592  0.0000E+00  0.0000E+00  0.1200E+02  0.1200E+02
    -27.387  0.0000E+00  0.0000E+00  0.1200E+02  0.1200E+02
    -27.183  0.0000E+00  0.0000E+00  0.1200E+02  0.1200E+02
    -26.979  0.0000E+00  0.0000E+00  0.1200E+02  0.1200E+02
    -26.774  0.0000E+00  0.0000E+00  0.1200E+02  0.1200E+02
    -26.570  0.0000E+00  0.0000E+00  0.1200E+02  0.1200E+02
    -26.366  0.0000E+00  0.0000E+00  0.1200E+02  0.1200E+02
    -26.161  0.0000E+00  0.0000E+00  0.1200E+02  0.1200E+02
    -25.957  0.0000E+00  0.0000E+00  0.1200E+02  0.1200E+02
    -25.752  0.0000E+00  0.0000E+00  0.1200E+02  0.1200E+02
    -25.548  0.0000E+00  0.0000E+00  0.1200E+02  0.1200E+02
    -25.344  0.0000E+00  0.0000E+00  0.1200E+02  0.1200E+02
    -25.139  0.0000E+00  0.0000E+00  0.1200E+02  0.1200E+02
    -24.935  0.0000E+00  0.0000E+00  0.1200E+02  0.1200E+02
    -24.731  0.0000E+00  0.0000E+00  0.1200E+02  0.1200E+02
    -24.526  0.0000E+00  0.0000E+00  0.1200E+02  0.1200E+02
    -24.322  0.0000E+00  0.0000E+00  0.1200E+02  0.1200E+02
    -24.118  0.0000E+00  0.0000E+00  0.1200E+02  0.1200E+02
    -23.913  0.0000E+00  0.0000E+00  0.1200E+02  0.1200E+02
    -23.709  0.0000E+00  0.0000E+00  0.1200E+02  0.1200E+02
    -23.504  0.0000E+00  0.0000E+00  0.1200E+02  0.1200E+02
    -23.300  0.0000E+00  0.0000E+00  0.1200E+02  0.1200E+02
    -23.096  0.0000E+00  0.0000E+00  0.1200E+02  0.1200E+02
    -22.891  0.0000E+00  0.0000E+00  0.1200E+02  0.1200E+02
    -22.687  0.0000E+00  0.0000E+00  0.1200E+02  0.1200E+02
    -22.483  0.0000E+00  0.0000E+00  0.1200E+02  0.1200E+02
    -22.278  0.0000E+00  0.0000E+00  0.1200E+02  0.1200E+02
    -22.074  0.0000E+00  0.0000E+00  0.1200E+02  0.1200E+02
    -21.869  0.0000E+00  0.0000E+00  0.1200E+02  0.1200E+02
    -21.665  0.0000E+00  0.0000E+00  0.1200E+02  0.1200E+02
    -21.461  0.0000E+00  0.0000E+00  0.1200E+02  0.1200E+02
    -21.256  0.0000E+00  0.0000E+00  0.1200E+02  0.1200E+02
    -21.052  0.0000E+00  0.0000E+00  0.1200E+02  0.1200E+02
    -20.848  0.0000E+00  0.0000E+00  0.1200E+02  0.1200E+02
    -20.643  0.0000E+00  0.0000E+00  0.1200E+02  0.1200E+02
    -20.439  0.0000E+00  0.0000E+00  0.1200E+02  0.1200E+02
    -20.234  0.0000E+00  0.0000E+00  0.1200E+02  0.1200E+02
    -20.030  0.0000E+00  0.0000E+00  0.1200E+02  0.1200E+02
    -19.826  0.0000E+00  0.0000E+00  0.1200E+02  0.1200E+02
    -19.621  0.0000E+00  0.0000E+00  0.1200E+02  0.1200E+02
    -19.417  0.0000E+00  0.0000E+00  0.1200E+02  0.1200E+02
    -19.213  0.0000E+00  0.0000E+00  0.1200E+02  0.1200E+02
    -19.008  0.0000E+00  0.0000E+00  0.1200E+02  0.1200E+02
    -18.804  0.0000E+00  0.0000E+00  0.1200E+02  0.1200E+02
    -18.599  0.0000E+00  0.0000E+00  0.1200E+02  0.1200E+02
    -18.395  0.0000E+00  0.0000E+00  0.1200E+02  0.1200E+02
    -18.191  0.0000E+00  0.0000E+00  0.1200E+02  0.1200E+02
    -17.986  0.0000E+00  0.0000E+00  0.1200E+02  0.1200E+02
    -17.782  0.0000E+00  0.0000E+00  0.1200E+02  0.1200E+02
    -17.578  0.0000E+00  0.0000E+00  0.1200E+02  0.1200E+02
    -17.373  0.0000E+00  0.0000E+00  0.1200E+02  0.1200E+02
    -17.169  0.0000E+00  0.0000E+00  0.1200E+02  0.1200E+02
    -16.965  0.0000E+00  0.0000E+00  0.1200E+02  0.1200E+02
    -16.760  0.0000E+00  0.0000E+00  0.1200E+02  0.1200E+02
    -16.556  0.0000E+00  0.0000E+00  0.1200E+02  0.1200E+02
    -16.351  0.0000E+00  0.0000E+00  0.1200E+02  0.1200E+02
    -16.147  0.0000E+00  0.0000E+00  0.1200E+02  0.1200E+02
    -15.943  0.0000E+00  0.0000E+00  0.1200E+02  0.1200E+02
    -15.738  0.0000E+00  0.0000E+00  0.1200E+02  0.1200E+02
    -15.534  0.0000E+00  0.0000E+00  0.1200E+02  0.1200E+02
    -15.330  0.0000E+00  0.0000E+00  0.1200E+02  0.1200E+02
    -15.125  0.0000E+00  0.0000E+00  0.1200E+02  0.1200E+02
    -14.921  0.0000E+00  0.0000E+00  0.1200E+02  0.1200E+02
    -14.716  0.0000E+00  0.0000E+00  0.1200E+02  0.1200E+02
    -14.512  0.0000E+00  0.0000E+00  0.1200E+02  0.1200E+02
    -14.308  0.0000E+00  0.0000E+00  0.1200E+02  0.1200E+02
    -14.103  0.0000E+00  0.0000E+00  0.1200E+02  0.1200E+02
    -13.899  0.0000E+00  0.0000E+00  0.1200E+02  0.1200E+02
    -13.695  0.0000E+00  0.0000E+00  0.1200E+02  0.1200E+02
    -13.490  0.0000E+00  0.0000E+00  0.1200E+02  0.1200E+02
    -13.286  0.0000E+00  0.0000E+00  0.1200E+02  0.1200E+02
    -13.081  0.0000E+00  0.0000E+00  0.1200E+02  0.1200E+02
    -12.877  0.0000E+00  0.0000E+00  0.1200E+02  0.1200E+02
    -12.673  0.0000E+00  0.0000E+00  0.1200E+02  0.1200E+02
    -12.468  0.0000E+00  0.0000E+00  0.1200E+02  0.1200E+02
    -12.264  0.0000E+00  0.0000E+00  0.1200E+02  0.1200E+02
    -12.060  0.0000E+00  0.0000E+00  0.1200E+02  0.1200E+02
    -11.855  0.0000E+00  0.0000E+00  0.1200E+02  0.1200E+02
    -11.651  0.0000E+00  0.0000E+00  0.1200E+02  0.1200E+02
    -11.446  0.0000E+00  0.0000E+00  0.1200E+02  0.1200E+02
    -11.242  0.0000E+00  0.0000E+00  0.1200E+02  0.1200E+02
    -11.038  0.0000E+00  0.0000E+00  0.1200E+02  0.1200E+02
    -10.833  0.0000E+00  0.0000E+00  0.1200E+02  0.1200E+02
    -10.629  0.0000E+00  0.0000E+00  0.1200E+02  0.1200E+02
    -10.425  0.0000E+00  0.0000E+00  0.1200E+02  0.1200E+02
    -10.220  0.0000E+00  0.0000E+00  0.1200E+02  0.1200E+02
    -10.016  0.0000E+00  0.0000E+00  0.1200E+02  0.1200E+02
     -9.812  0.0000E+00  0.0000E+00  0.1200E+02  0.1200E+02
     -9.607  0.0000E+00  0.0000E+00  0.1200E+02  0.1200E+02
     -9.403  0.0000E+00  0.0000E+00  0.1200E+02  0.1200E+02
     -9.198  0.0000E+00  0.0000E+00  0.1200E+02  0.1200E+02
     -8.994  0.0000E+00  0.0000E+00  0.1200E+02  0.1200E+02
     -8.790  0.0000E+00  0.0000E+00  0.1200E+02  0.1200E+02
     -8.585  0.0000E+00  0.0000E+00  0.1200E+02  0.1200E+02
     -8.381  0.0000E+00  0.0000E+00  0.1200E+02  0.1200E+02
     -8.177  0.0000E+00  0.0000E+00  0.1200E+02  0.1200E+02
     -7.972  0.0000E+00  0.0000E+00  0.1200E+02  0.1200E+02
     -7.768  0.0000E+00  0.0000E+00  0.1200E+02  0.1200E+02
     -7.563  0.0000E+00  0.0000E+00  0.1200E+02  0.1200E+02
     -7.359  0.0000E+00  0.0000E+00  0.1200E+02  0.1200E+02
     -7.155  0.0000E+00  0.0000E+00  0.1200E+02  0.1200E+02
     -6.950  0.0000E+00  0.0000E+00  0.1200E+02  0.1200E+02
     -6.746  0.0000E+00  0.0000E+00  0.1200E+02  0.1200E+02
     -6.542  0.0000E+00  0.0000E+00  0.1200E+02  0.1200E+02
     -6.337  0.0000E+00  0.0000E+00  0.1200E+02  0.1200E+02
     -6.133  0.0000E+00  0.0000E+00  0.1200E+02  0.1200E+02
     -5.928  0.0000E+00  0.0000E+00  0.1200E+02  0.1200E+02
     -5.724  0.0000E+00  0.0000E+00  0.1200E+02  0.1200E+02
     -5.520  0.0000E+00  0.0000E+00  0.1200E+02  0.1200E+02
     -5.315  0.0000E+00  0.0000E+00  0.1200E+02  0.1200E+02
     -5.111  0.0000E+00  0.0000E+00  0.1200E+02  0.1200E+02
     -4.907  0.0000E+00  0.0000E+00  0.1200E+02  0.1200E+02
     -4.702  0.0000E+00  0.0000E+00  0.1200E+02  0.1200E+02
     -4.498  0.0000E+00  0.0000E+00  0.1200E+02  0.1200E+02
     -4.293  0.0000E+00  0.0000E+00  0.1200E+02  0.1200E+02
     -4.089  0.0000E+00  0.0000E+00  0.1200E+02  0.1200E+02
     -3.885  0.0000E+00  0.0000E+00  0.1200E+02  0.1200E+02
     -3.680  0.0000E+00  0.0000E+00  0.1200E+02  0.1200E+02
     -3.476  0.0000E+00  0.0000E+00  0.1200E+02  0.1200E+02
     -3.272  0.0000E+00  0.0000E+00  0.1200E+02  0.1200E+02
     -3.067  0.6531E-05  0.8843E-05  0.1200E+02  0.1200E+02
     -2.863  0.4200E-03  0.5352E-03  0.1200E+02  0.1200E+02
     -2.659  0.2090E-01  0.2568E-01  0.1200E+02  0.1201E+02
     -2.454  0.2181E+00  0.2352E+00  0.1205E+02  0.1205E+02
     -2.250  0.4802E+00  0.4901E+00  0.1215E+02  0.1215E+02
     -2.045  0.6240E+00  0.6411E+00  0.1227E+02  0.1228E+02
     -1.841  0.7360E+00  0.7518E+00  0.1243E+02  0.1244E+02
     -1.637  0.8149E+00  0.8459E+00  0.1259E+02  0.1261E+02
     -1.432  0.1017E+01  0.1036E+01  0.1280E+02  0.1283E+02
     -1.228  0.9420E+00  0.9600E+00  0.1300E+02  0.1302E+02
     -1.024  0.1261E+01  0.1311E+01  0.1326E+02  0.1329E+02
     -0.819  0.1219E+01  0.1214E+01  0.1351E+02  0.1354E+02
     -0.615  0.1421E+01  0.1534E+01  0.1380E+02  0.1386E+02
     -0.410  0.1484E+01  0.1454E+01  0.1410E+02  0.1415E+02
     -0.206  0.1550E+01  0.1539E+01  0.1442E+02  0.1447E+02
     -0.002  0.1223E+01  0.1130E+01  0.1467E+02  0.1470E+02
      0.203  0.1472E+01  0.1503E+01  0.1497E+02  0.1501E+02
      0.407  0.1457E+01  0.1306E+01  0.1527E+02  0.1528E+02
      0.611  0.1735E+01  0.1681E+01  0.1563E+02  0.1562E+02
      0.816  0.1562E+01  0.1542E+01  0.1595E+02  0.1594E+02
      1.020  0.1778E+01  0.1728E+01  0.1631E+02  0.1629E+02
      1.225  0.1982E+01  0.1983E+01  0.1672E+02  0.1670E+02
      1.429  0.2102E+01  0.2015E+01  0.1715E+02  0.1712E+02
      1.633  0.1854E+01  0.1822E+01  0.1753E+02  0.1749E+02
      1.838  0.2024E+01  0.1912E+01  0.1795E+02  0.1788E+02
      2.042  0.1908E+01  0.1826E+01  0.1834E+02  0.1826E+02
      2.246  0.2515E+01  0.2096E+01  0.1886E+02  0.1869E+02
      2.451  0.2217E+01  0.2336E+01  0.1931E+02  0.1917E+02
      2.655  0.2173E+01  0.2009E+01  0.1976E+02  0.1958E+02
      2.860  0.2646E+01  0.2351E+01  0.2030E+02  0.2006E+02
      3.064  0.2719E+01  0.2347E+01  0.2086E+02  0.2054E+02
      3.268  0.3020E+01  0.2602E+01  0.2148E+02  0.2108E+02
      3.473  0.2414E+01  0.2455E+01  0.2198E+02  0.2158E+02
      3.677  0.2828E+01  0.2079E+01  0.2256E+02  0.2201E+02
      3.881  0.3087E+01  0.2481E+01  0.2319E+02  0.2252E+02
      4.086  0.3435E+01  0.2698E+01  0.2390E+02  0.2307E+02
      4.290  0.4019E+01  0.2820E+01  0.2472E+02  0.2365E+02
      4.494  0.4699E+01  0.2832E+01  0.2568E+02  0.2423E+02
      4.699  0.5671E+01  0.3201E+01  0.2685E+02  0.2489E+02
      4.903  0.6137E+01  0.3209E+01  0.2811E+02  0.2555E+02
      5.108  0.6718E+01  0.3370E+01  0.2948E+02  0.2624E+02
      5.312  0.8473E+01  0.3413E+01  0.3122E+02  0.2694E+02
      5.516  0.1104E+02  0.4207E+01  0.3349E+02  0.2780E+02
      5.721  0.1207E+02  0.3514E+01  0.3597E+02  0.2852E+02
      5.925  0.9312E+01  0.3506E+01  0.3788E+02  0.2924E+02
      6.129  0.9546E+01  0.4175E+01  0.3984E+02  0.3010E+02
      6.334  0.1092E+02  0.4524E+01  0.4208E+02  0.3103E+02
      6.538  0.6993E+01  0.5227E+01  0.4353E+02  0.3210E+02
      6.743  0.6076E+01  0.5399E+01  0.4478E+02  0.3321E+02
      6.947  0.4912E+01  0.5225E+01  0.4579E+02  0.3428E+02
      7.151  0.3637E+01  0.5371E+01  0.4654E+02  0.3538E+02
      7.356  0.2132E+01  0.5301E+01  0.4698E+02  0.3647E+02
      7.560  0.2643E+01  0.4284E+01  0.4752E+02  0.3735E+02
      7.764  0.3924E+01  0.3954E+01  0.4832E+02  0.3817E+02
      7.969  0.4580E+01  0.4369E+01  0.4926E+02  0.3906E+02
      8.173  0.4365E+01  0.4684E+01  0.5016E+02  0.4003E+02
      8.378  0.4174E+01  0.5302E+01  0.5102E+02  0.4111E+02
      8.582  0.3359E+01  0.7084E+01  0.5171E+02  0.4257E+02
      8.786  0.3601E+01  0.1026E+02  0.5245E+02  0.4467E+02
      8.991  0.3619E+01  0.1333E+02  0.5319E+02  0.4740E+02
      9.195  0.2768E+01  0.6565E+01  0.5376E+02  0.4876E+02
      9.399  0.3427E+01  0.4900E+01  0.5447E+02  0.4977E+02
      9.604  0.3740E+01  0.6377E+01  0.5523E+02  0.5108E+02
      9.808  0.4098E+01  0.7176E+01  0.5607E+02  0.5255E+02
     10.013  0.3736E+01  0.6047E+01  0.5684E+02  0.5379E+02
     10.217  0.3378E+01  0.5149E+01  0.5753E+02  0.5485E+02
     10.421  0.3711E+01  0.4438E+01  0.5830E+02  0.5576E+02
     10.626  0.3777E+01  0.4170E+01  0.5907E+02  0.5662E+02
     10.830  0.3932E+01  0.4966E+01  0.5988E+02  0.5764E+02
     11.034  0.3914E+01  0.5448E+01  0.6068E+02  0.5876E+02
     11.239  0.3230E+01  0.4852E+01  0.6135E+02  0.5975E+02
     11.443  0.3230E+01  0.4153E+01  0.6201E+02  0.6061E+02
     11.647  0.3596E+01  0.3594E+01  0.6275E+02  0.6135E+02
     11.852  0.3570E+01  0.4135E+01  0.6348E+02  0.6219E+02
     12.056  0.3280E+01  0.3856E+01  0.6415E+02  0.6299E+02
     12.261  0.3388E+01  0.3256E+01  0.6485E+02  0.6366E+02
     12.465  0.3834E+01  0.3454E+01  0.6564E+02  0.6436E+02
     12.669  0.3633E+01  0.4024E+01  0.6638E+02  0.6519E+02
     12.874  0.2635E+01  0.3810E+01  0.6692E+02  0.6597E+02
     13.078  0.1887E+01  0.3142E+01  0.6731E+02  0.6662E+02
     13.282  0.1114E+01  0.2575E+01  0.6754E+02  0.6715E+02
     13.487  0.7377E+00  0.1795E+01  0.6769E+02  0.6752E+02
     13.691  0.7425E+00  0.1070E+01  0.6785E+02  0.6774E+02
     13.896  0.4280E+00  0.6121E+00  0.6794E+02  0.6787E+02
     14.100  0.2531E+00  0.3368E+00  0.6799E+02  0.6794E+02
     14.304  0.5460E-01  0.2571E+00  0.6800E+02  0.6799E+02
     14.509  0.1335E-02  0.4537E-01  0.6800E+02  0.6800E+02
     14.713  0.0000E+00  0.2618E-02  0.6800E+02  0.6800E+02
     14.917  0.0000E+00  0.0000E+00  0.6800E+02  0.6800E+02
     15.122  0.0000E+00  0.0000E+00  0.6800E+02  0.6800E+02
     15.326  0.0000E+00  0.0000E+00  0.6800E+02  0.6800E+02
     15.531  0.0000E+00  0.0000E+00  0.6800E+02  0.6800E+02
     15.735  0.0000E+00  0.0000E+00  0.6800E+02  0.6800E+02
     15.939  0.0000E+00  0.0000E+00  0.6800E+02  0.6800E+02
     16.144  0.0000E+00  0.0000E+00  0.6800E+02  0.6800E+02
     16.348  0.0000E+00  0.0000E+00  0.6800E+02  0.6800E+02
     16.552  0.0000E+00  0.0000E+00  0.6800E+02  0.6800E+02
     16.757  0.0000E+00  0.0000E+00  0.6800E+02  0.6800E+02
     16.961  0.0000E+00  0.0000E+00  0.6800E+02  0.6800E+02
     17.166  0.0000E+00  0.0000E+00  0.6800E+02  0.6800E+02
     17.16552692    -44.14593649  301      7.93160286      1.00000000
    -44.146  0.0000E+00  0.0000E+00  0.0000E+00  0.0000E+00  0.0000E+00  0.0000E+00  0.0000E+00  0.0000E+00  0.0000E+00  0.0000E+00  0.0000E+00  0.0000E+00  0.0000E+00  0.0000E+00  0.0000E+00  0.0000E+00  0.0000E+00  0.0000E+00
    -43.942  0.0000E+00  0.0000E+00  0.0000E+00  0.0000E+00  0.0000E+00  0.0000E+00  0.0000E+00  0.0000E+00  0.0000E+00  0.0000E+00  0.0000E+00  0.0000E+00  0.0000E+00  0.0000E+00  0.0000E+00  0.0000E+00  0.0000E+00  0.0000E+00
    -43.737  0.0000E+00  0.0000E+00  0.0000E+00  0.0000E+00  0.0000E+00  0.0000E+00  0.0000E+00  0.0000E+00  0.0000E+00  0.0000E+00  0.0000E+00  0.0000E+00  0.0000E+00  0.0000E+00  0.0000E+00  0.0000E+00  0.0000E+00  0.0000E+00
    -43.533  0.0000E+00  0.0000E+00  0.0000E+00  0.0000E+00  0.0000E+00  0.0000E+00  0.0000E+00  0.0000E+00  0.0000E+00  0.0000E+00  0.0000E+00  0.0000E+00  0.0000E+00  0.0000E+00  0.0000E+00  0.0000E+00  0.0000E+00  0.0000E+00
    -43.328  0.0000E+00  0.0000E+00  0.0000E+00  0.0000E+00  0.0000E+00  0.0000E+00  0.0000E+00  0.0000E+00  0.0000E+00  0.0000E+00  0.0000E+00  0.0000E+00  0.0000E+00  0.0000E+00  0.0000E+00  0.0000E+00  0.0000E+00  0.0000E+00
    -43.124  0.0000E+00  0.0000E+00  0.0000E+00  0.0000E+00  0.0000E+00  0.0000E+00  0.0000E+00  0.0000E+00  0.0000E+00  0.0000E+00  0.0000E+00  0.0000E+00  0.0000E+00  0.0000E+00  0.0000E+00  0.0000E+00  0.0000E+00  0.0000E+00
    -42.920  0.0000E+00  0.0000E+00  0.0000E+00  0.0000E+00  0.0000E+00  0.0000E+00  0.0000E+00  0.0000E+00  0.0000E+00  0.0000E+00  0.0000E+00  0.0000E+00  0.0000E+00  0.0000E+00  0.0000E+00  0.0000E+00  0.0000E+00  0.0000E+00
    -42.715  0.0000E+00  0.0000E+00  0.0000E+00  0.0000E+00  0.0000E+00  0.0000E+00  0.0000E+00  0.0000E+00  0.0000E+00  0.0000E+00  0.0000E+00  0.0000E+00  0.0000E+00  0.0000E+00  0.0000E+00  0.0000E+00  0.0000E+00  0.0000E+00
    -42.511  0.0000E+00  0.0000E+00  0.0000E+00  0.0000E+00  0.0000E+00  0.0000E+00  0.0000E+00  0.0000E+00  0.0000E+00  0.0000E+00  0.0000E+00  0.0000E+00  0.0000E+00  0.0000E+00  0.0000E+00  0.0000E+00  0.0000E+00  0.0000E+00
    -42.307  0.0000E+00  0.0000E+00  0.0000E+00  0.0000E+00  0.0000E+00  0.0000E+00  0.0000E+00  0.0000E+00  0.0000E+00  0.0000E+00  0.0000E+00  0.0000E+00  0.0000E+00  0.0000E+00  0.0000E+00  0.0000E+00  0.0000E+00  0.0000E+00
    -42.102  0.0000E+00  0.0000E+00  0.0000E+00  0.0000E+00  0.0000E+00  0.0000E+00  0.0000E+00  0.0000E+00  0.0000E+00  0.0000E+00  0.0000E+00  0.0000E+00  0.0000E+00  0.0000E+00  0.0000E+00  0.0000E+00  0.0000E+00  0.0000E+00
    -41.898  0.9681E-11  0.0000E+00  0.9965E-04  0.0000E+00  0.3866E-04  0.0000E+00  0.9965E-04  0.0000E+00  0.7476E-14  0.0000E+00  0.9232E-11  0.0000E+00  0.7719E-11  0.0000E+00  0.9232E-11  0.0000E+00  0.2442E-12  0.0000E+00
    -41.693  0.5669E-09  0.0000E+00  0.5831E-02  0.0000E+00  0.2264E-02  0.0000E+00  0.5831E-02  0.0000E+00  0.4375E-12  0.0000E+00  0.5402E-09  0.0000E+00  0.4520E-09  0.0000E+00  0.5402E-09  0.0000E+00  0.1429E-10  0.0000E+00
    -41.489  0.3282E-07  0.0000E+00  0.3239E+00  0.0000E+00  0.1312E+00  0.0000E+00  0.3239E+00  0.0000E+00  0.2431E-10  0.0000E+00  0.3001E-07  0.0000E+00  0.2618E-07  0.0000E+00  0.3001E-07  0.0000E+00  0.7938E-09  0.0000E+00
    -41.285  0.7206E-06  0.0000E+00  0.3623E+01  0.0000E+00  0.2917E+01  0.0000E+00  0.3623E+01  0.0000E+00  0.2740E-09  0.0000E+00  0.3357E-06  0.0000E+00  0.5791E-06  0.0000E+00  0.3357E-06  0.0000E+00  0.8883E-08  0.0000E+00
    -41.080  0.4330E-06  0.0000E+00  0.8937E+00  0.0000E+00  0.1767E+01  0.0000E+00  0.8937E+00  0.0000E+00  0.6875E-10  0.0000E+00  0.8284E-07  0.0000E+00  0.3495E-06  0.0000E+00  0.8284E-07  0.0000E+00  0.2192E-08  0.0000E+00
    -40.876  0.0000E+00  0.0000E+00  0.0000E+00  0.0000E+00  0.0000E+00  0.0000E+00  0.0000E+00  0.0000E+00  0.0000E+00  0.0000E+00  0.0000E+00  0.0000E+00  0.0000E+00  0.0000E+00  0.0000E+00  0.0000E+00  0.0000E+00  0.0000E+00
    -40.672  0.0000E+00  0.0000E+00  0.0000E+00  0.0000E+00  0.0000E+00  0.0000E+00  0.0000E+00  0.0000E+00  0.0000E+00  0.0000E+00  0.0000E+00  0.0000E+00  0.0000E+00  0.0000E+00  0.0000E+00  0.0000E+00  0.0000E+00  0.0000E+00
    -40.467  0.0000E+00  0.0000E+00  0.0000E+00  0.0000E+00  0.0000E+00  0.0000E+00  0.0000E+00  0.0000E+00  0.0000E+00  0.0000E+00  0.0000E+00  0.0000E+00  0.0000E+00  0.0000E+00  0.0000E+00  0.0000E+00  0.0000E+00  0.0000E+00
    -40.263  0.0000E+00  0.0000E+00  0.0000E+00  0.0000E+00  0.0000E+00  0.0000E+00  0.0000E+00  0.0000E+00  0.0000E+00  0.0000E+00  0.0000E+00  0.0000E+00  0.0000E+00  0.0000E+00  0.0000E+00  0.0000E+00  0.0000E+00  0.0000E+00
    -40.059  0.0000E+00  0.0000E+00  0.0000E+00  0.0000E+00  0.0000E+00  0.0000E+00  0.0000E+00  0.0000E+00  0.0000E+00  0.0000E+00  0.0000E+00  0.0000E+00  0.0000E+00  0.0000E+00  0.0000E+00  0.0000E+00  0.0000E+00  0.0000E+00
    -39.854  0.0000E+00  0.0000E+00  0.0000E+00  0.0000E+00  0.0000E+00  0.0000E+00  0.0000E+00  0.0000E+00  0.0000E+00  0.0000E+00  0.0000E+00  0.0000E+00  0.0000E+00  0.0000E+00  0.0000E+00  0.0000E+00  0.0000E+00  0.0000E+00
    -39.650  0.0000E+00  0.0000E+00  0.0000E+00  0.0000E+00  0.0000E+00  0.0000E+00  0.0000E+00  0.0000E+00  0.0000E+00  0.0000E+00  0.0000E+00  0.0000E+00  0.0000E+00  0.0000E+00  0.0000E+00  0.0000E+00  0.0000E+00  0.0000E+00
    -39.445  0.0000E+00  0.0000E+00  0.0000E+00  0.0000E+00  0.0000E+00  0.0000E+00  0.0000E+00  0.0000E+00  0.0000E+00  0.0000E+00  0.0000E+00  0.0000E+00  0.0000E+00  0.0000E+00  0.0000E+00  0.0000E+00  0.0000E+00  0.0000E+00
    -39.241  0.0000E+00  0.0000E+00  0.0000E+00  0.0000E+00  0.0000E+00  0.0000E+00  0.0000E+00  0.0000E+00  0.0000E+00  0.0000E+00  0.0000E+00  0.0000E+00  0.0000E+00  0.0000E+00  0.0000E+00  0.0000E+00  0.0000E+00  0.0000E+00
    -39.037  0.0000E+00  0.2494E-10  0.0000E+00  0.1175E-03  0.0000E+00  0.1160E-03  0.0000E+00  0.1175E-03  0.0000E+00  0.1560E-13  0.0000E+00  0.8100E-11  0.0000E+00  0.1767E-10  0.0000E+00  0.8100E-11  0.0000E+00  0.4303E-12
    -38.832  0.0000E+00  0.1459E-08  0.0000E+00  0.6875E-02  0.0000E+00  0.6785E-02  0.0000E+00  0.6875E-02  0.0000E+00  0.9126E-12  0.0000E+00  0.4739E-09  0.0000E+00  0.1034E-08  0.0000E+00  0.4739E-09  0.0000E+00  0.2517E-10
    -38.628  0.0000E+00  0.8015E-07  0.0000E+00  0.3773E+00  0.0000E+00  0.3727E+00  0.0000E+00  0.3773E+00  0.0000E+00  0.5009E-10  0.0000E+00  0.2601E-07  0.0000E+00  0.5681E-07  0.0000E+00  0.2601E-07  0.0000E+00  0.1381E-08
    -38.424  0.0000E+00  0.7915E-06  0.0000E+00  0.3685E+01  0.0000E+00  0.3681E+01  0.0000E+00  0.3685E+01  0.0000E+00  0.4897E-09  0.0000E+00  0.2540E-06  0.0000E+00  0.5609E-06  0.0000E+00  0.2540E-06  0.0000E+00  0.1350E-07
    -38.219  0.0000E+00  0.1697E-06  0.0000E+00  0.7808E+00  0.0000E+00  0.7893E+00  0.0000E+00  0.7808E+00  0.0000E+00  0.1039E-09  0.0000E+00  0.5382E-07  0.0000E+00  0.1202E-06  0.0000E+00  0.5382E-07  0.0000E+00  0.2862E-08
    -38.015  0.0000E+00  0.0000E+00  0.0000E+00  0.0000E+00  0.0000E+00  0.0000E+00  0.0000E+00  0.0000E+00  0.0000E+00  0.0000E+00  0.0000E+00  0.0000E+00  0.0000E+00  0.0000E+00  0.0000E+00  0.0000E+00  0.0000E+00  0.0000E+00
    -37.810  0.0000E+00  0.0000E+00  0.0000E+00  0.0000E+00  0.0000E+00  0.0000E+00  0.0000E+00  0.0000E+00  0.0000E+00  0.0000E+00  0.0000E+00  0.0000E+00  0.0000E+00  0.0000E+00  0.0000E+00  0.0000E+00  0.0000E+00  0.0000E+00
    -37.606  0.0000E+00  0.0000E+00  0.0000E+00  0.0000E+00  0.0000E+00  0.0000E+00  0.0000E+00  0.0000E+00  0.0000E+00  0.0000E+00  0.0000E+00  0.0000E+00  0.0000E+00  0.0000E+00  0.0000E+00  0.0000E+00  0.0000E+00  0.0000E+00
    -37.402  0.0000E+00  0.0000E+00  0.0000E+00  0.0000E+00  0.0000E+00  0.0000E+00  0.0000E+00  0.0000E+00  0.0000E+00  0.0000E+00  0.0000E+00  0.0000E+00  0.0000E+00  0.0000E+00  0.0000E+00  0.0000E+00  0.0000E+00  0.0000E+00
    -37.197  0.0000E+00  0.0000E+00  0.0000E+00  0.0000E+00  0.0000E+00  0.0000E+00  0.0000E+00  0.0000E+00  0.0000E+00  0.0000E+00  0.0000E+00  0.0000E+00  0.0000E+00  0.0000E+00  0.0000E+00  0.0000E+00  0.0000E+00  0.0000E+00
    -36.993  0.0000E+00  0.0000E+00  0.0000E+00  0.0000E+00  0.0000E+00  0.0000E+00  0.0000E+00  0.0000E+00  0.0000E+00  0.0000E+00  0.0000E+00  0.0000E+00  0.0000E+00  0.0000E+00  0.0000E+00  0.0000E+00  0.0000E+00  0.0000E+00
    -36.789  0.0000E+00  0.0000E+00  0.0000E+00  0.0000E+00  0.0000E+00  0.0000E+00  0.0000E+00  0.0000E+00  0.0000E+00  0.0000E+00  0.0000E+00  0.0000E+00  0.0000E+00  0.0000E+00  0.0000E+00  0.0000E+00  0.0000E+00  0.0000E+00
    -36.584  0.0000E+00  0.0000E+00  0.0000E+00  0.0000E+00  0.0000E+00  0.0000E+00  0.0000E+00  0.0000E+00  0.0000E+00  0.0000E+00  0.0000E+00  0.0000E+00  0.0000E+00  0.0000E+00  0.0000E+00  0.0000E+00  0.0000E+00  0.0000E+00
    -36.380  0.0000E+00  0.0000E+00  0.0000E+00  0.0000E+00  0.0000E+00  0.0000E+00  0.0000E+00  0.0000E+00  0.0000E+00  0.0000E+00  0.0000E+00  0.0000E+00  0.0000E+00  0.0000E+00  0.0000E+00  0.0000E+00  0.0000E+00  0.0000E+00
    -36.175  0.0000E+00  0.0000E+00  0.0000E+00  0.0000E+00  0.0000E+00  0.0000E+00  0.0000E+00  0.0000E+00  0.0000E+00  0.0000E+00  0.0000E+00  0.0000E+00  0.0000E+00  0.0000E+00  0.0000E+00  0.0000E+00  0.0000E+00  0.0000E+00
    -35.971  0.0000E+00  0.0000E+00  0.0000E+00  0.0000E+00  0.0000E+00  0.0000E+00  0.0000E+00  0.0000E+00  0.0000E+00  0.0000E+00  0.0000E+00  0.0000E+00  0.0000E+00  0.0000E+00  0.0000E+00  0.0000E+00  0.0000E+00  0.0000E+00
    -35.767  0.0000E+00  0.0000E+00  0.0000E+00  0.0000E+00  0.0000E+00  0.0000E+00  0.0000E+00  0.0000E+00  0.0000E+00  0.0000E+00  0.0000E+00  0.0000E+00  0.0000E+00  0.0000E+00  0.0000E+00  0.0000E+00  0.0000E+00  0.0000E+00
    -35.562  0.0000E+00  0.0000E+00  0.0000E+00  0.0000E+00  0.0000E+00  0.0000E+00  0.0000E+00  0.0000E+00  0.0000E+00  0.0000E+00  0.0000E+00  0.0000E+00  0.0000E+00  0.0000E+00  0.0000E+00  0.0000E+00  0.0000E+00  0.0000E+00
    -35.358  0.0000E+00  0.0000E+00  0.0000E+00  0.0000E+00  0.0000E+00  0.0000E+00  0.0000E+00  0.0000E+00  0.0000E+00  0.0000E+00  0.0000E+00  0.0000E+00  0.0000E+00  0.0000E+00  0.0000E+00  0.0000E+00  0.0000E+00  0.0000E+00
    -35.154  0.0000E+00  0.0000E+00  0.0000E+00  0.0000E+00  0.0000E+00  0.0000E+00  0.0000E+00  0.0000E+00  0.0000E+00  0.0000E+00  0.0000E+00  0.0000E+00  0.0000E+00  0.0000E+00  0.0000E+00  0.0000E+00  0.0000E+00  0.0000E+00
    -34.949  0.0000E+00  0.0000E+00  0.0000E+00  0.0000E+00  0.0000E+00  0.0000E+00  0.0000E+00  0.0000E+00  0.0000E+00  0.0000E+00  0.0000E+00  0.0000E+00  0.0000E+00  0.0000E+00  0.0000E+00  0.0000E+00  0.0000E+00  0.0000E+00
    -34.745  0.0000E+00  0.0000E+00  0.0000E+00  0.0000E+00  0.0000E+00  0.0000E+00  0.0000E+00  0.0000E+00  0.0000E+00  0.0000E+00  0.0000E+00  0.0000E+00  0.0000E+00  0.0000E+00  0.0000E+00  0.0000E+00  0.0000E+00  0.0000E+00
    -34.540  0.0000E+00  0.0000E+00  0.0000E+00  0.0000E+00  0.0000E+00  0.0000E+00  0.0000E+00  0.0000E+00  0.0000E+00  0.0000E+00  0.0000E+00  0.0000E+00  0.0000E+00  0.0000E+00  0.0000E+00  0.0000E+00  0.0000E+00  0.0000E+00
    -34.336  0.0000E+00  0.0000E+00  0.0000E+00  0.0000E+00  0.0000E+00  0.0000E+00  0.0000E+00  0.0000E+00  0.0000E+00  0.0000E+00  0.0000E+00  0.0000E+00  0.0000E+00  0.0000E+00  0.0000E+00  0.0000E+00  0.0000E+00  0.0000E+00
    -34.132  0.0000E+00  0.0000E+00  0.0000E+00  0.0000E+00  0.0000E+00  0.0000E+00  0.0000E+00  0.0000E+00  0.0000E+00  0.0000E+00  0.0000E+00  0.0000E+00  0.0000E+00  0.0000E+00  0.0000E+00  0.0000E+00  0.0000E+00  0.0000E+00
    -33.927  0.0000E+00  0.0000E+00  0.0000E+00  0.0000E+00  0.0000E+00  0.0000E+00  0.0000E+00  0.0000E+00  0.0000E+00  0.0000E+00  0.0000E+00  0.0000E+00  0.0000E+00  0.0000E+00  0.0000E+00  0.0000E+00  0.0000E+00  0.0000E+00