  16  16   1   0
  0.1140693E+02  0.3525024E-09  0.3525024E-09  0.1468806E-08  0.5000000E-15
  1.000000000000000E-004
  CAR 
 unknown system                          
     22.89065525    -39.57860132  301     11.79294595      1.00000000
    -39.579  0.0000E+00  0.0000E+00  0.0000E+00  0.0000E+00
    -39.370  0.0000E+00  0.0000E+00  0.0000E+00  0.0000E+00
    -39.162  0.0000E+00  0.0000E+00  0.0000E+00  0.0000E+00
    -38.954  0.0000E+00  0.0000E+00  0.0000E+00  0.0000E+00
    -38.746  0.0000E+00  0.0000E+00  0.0000E+00  0.0000E+00
    -38.537  0.0000E+00  0.0000E+00  0.0000E+00  0.0000E+00
    -38.329  0.0000E+00  0.0000E+00  0.0000E+00  0.0000E+00
    -38.121  0.0000E+00  0.0000E+00  0.0000E+00  0.0000E+00
    -37.913  0.0000E+00  0.0000E+00  0.0000E+00  0.0000E+00
    -37.705  0.0000E+00  0.0000E+00  0.0000E+00  0.0000E+00
    -37.496  0.0000E+00  0.0000E+00  0.0000E+00  0.0000E+00
    -37.288  0.5832E-03  0.0000E+00  0.1214E-03  0.0000E+00
    -37.080  0.3848E-01  0.0000E+00  0.8135E-02  0.0000E+00
    -36.872  0.2334E+01  0.0000E+00  0.4941E+00  0.0000E+00
    -36.663  0.3326E+02  0.0000E+00  0.7419E+01  0.0000E+00
    -36.455  0.2100E+02  0.0000E+00  0.1179E+02  0.0000E+00
    -36.247  0.8317E+00  0.0000E+00  0.1200E+02  0.0000E+00
    -36.039  0.0000E+00  0.0000E+00  0.1200E+02  0.0000E+00
    -35.830  0.0000E+00  0.0000E+00  0.1200E+02  0.0000E+00
    -35.622  0.0000E+00  0.3857E-02  0.1200E+02  0.8032E-03
    -35.414  0.0000E+00  0.2433E+00  0.1200E+02  0.5148E-01
    -35.206  0.0000E+00  0.1219E+02  0.1200E+02  0.2589E+01
    -34.998  0.0000E+00  0.4203E+02  0.1200E+02  0.1134E+02
    -34.789  0.0000E+00  0.3115E+01  0.1200E+02  0.1199E+02
    -34.581  0.0000E+00  0.0000E+00  0.1200E+02  0.1200E+02
    -34.373  0.0000E+00  0.0000E+00  0.1200E+02  0.1200E+02
    -34.165  0.0000E+00  0.0000E+00  0.1200E+02  0.1200E+02
    -33.956  0.0000E+00  0.0000E+00  0.1200E+02  0.1200E+02
    -33.748  0.0000E+00  0.0000E+00  0.1200E+02  0.1200E+02
    -33.540  0.0000E+00  0.0000E+00  0.1200E+02  0.1200E+02
    -33.332  0.0000E+00  0.0000E+00  0.1200E+02  0.1200E+02
    -33.123  0.0000E+00  0.0000E+00  0.1200E+02  0.1200E+02
    -32.915  0.0000E+00  0.0000E+00  0.1200E+02  0.1200E+02
    -32.707  0.0000E+00  0.0000E+00  0.1200E+02  0.1200E+02
    -32.499  0.0000E+00  0.0000E+00  0.1200E+02  0.1200E+02
    -32.291  0.0000E+00  0.0000E+00  0.1200E+02  0.1200E+02
    -32.082  0.0000E+00  0.0000E+00  0.1200E+02  0.1200E+02
    -31.874  0.0000E+00  0.0000E+00  0.1200E+02  0.1200E+02
    -31.666  0.0000E+00  0.0000E+00  0.1200E+02  0.1200E+02
    -31.458  0.0000E+00  0.0000E+00  0.1200E+02  0.1200E+02
    -31.249  0.0000E+00  0.0000E+00  0.1200E+02  0.1200E+02
    -31.041  0.0000E+00  0.0000E+00  0.1200E+02  0.1200E+02
    -30.833  0.0000E+00  0.0000E+00  0.1200E+02  0.1200E+02
    -30.625  0.0000E+00  0.0000E+00  0.1200E+02  0.1200E+02
    -30.416  0.0000E+00  0.0000E+00  0.1200E+02  0.1200E+02
    -30.208  0.0000E+00  0.0000E+00  0.1200E+02  0.1200E+02
    -30.000  0.0000E+00  0.0000E+00  0.1200E+02  0.1200E+02
    -29.792  0.0000E+00  0.0000E+00  0.1200E+02  0.1200E+02
    -29.584  0.0000E+00  0.0000E+00  0.1200E+02  0.1200E+02
    -29.375  0.0000E+00  0.0000E+00  0.1200E+02  0.1200E+02
    -29.167  0.0000E+00  0.0000E+00  0.1200E+02  0.1200E+02
    -28.959  0.0000E+00  0.0000E+00  0.1200E+02  0.1200E+02
    -28.751  0.0000E+00  0.0000E+00  0.1200E+02  0.1200E+02
    -28.542  0.0000E+00  0.0000E+00  0.1200E+02  0.1200E+02
    -28.334  0.0000E+00  0.0000E+00  0.1200E+02  0.1200E+02
    -28.126  0.0000E+00  0.0000E+00  0.1200E+02  0.1200E+02
    -27.918  0.0000E+00  0.0000E+00  0.1200E+02  0.1200E+02
    -27.709  0.0000E+00  0.0000E+00  0.1200E+02  0.1200E+02
    -27.501  0.0000E+00  0.0000E+00  0.1200E+02  0.1200E+02
    -27.293  0.0000E+00  0.0000E+00  0.1200E+02  0.1200E+02
    -27.085  0.0000E+00  0.0000E+00  0.1200E+02  0.1200E+02
    -26.877  0.0000E+00  0.0000E+00  0.1200E+02  0.1200E+02
    -26.668  0.0000E+00  0.0000E+00  0.1200E+02  0.1200E+02
    -26.460  0.0000E+00  0.0000E+00  0.1200E+02  0.1200E+02
    -26.252  0.0000E+00  0.0000E+00  0.1200E+02  0.1200E+02
    -26.044  0.0000E+00  0.0000E+00  0.1200E+02  0.1200E+02
    -25.835  0.0000E+00  0.0000E+00  0.1200E+02  0.1200E+02
    -25.627  0.0000E+00  0.0000E+00  0.1200E+02  0.1200E+02
    -25.419  0.0000E+00  0.0000E+00  0.1200E+02  0.1200E+02
    -25.211  0.0000E+00  0.0000E+00  0.1200E+02  0.1200E+02
    -25.002  0.0000E+00  0.0000E+00  0.1200E+02  0.1200E+02
    -24.794  0.0000E+00  0.0000E+00  0.1200E+02  0.1200E+02
    -24.586  0.0000E+00  0.0000E+00  0.1200E+02  0.1200E+02
    -24.378  0.0000E+00  0.0000E+00  0.1200E+02  0.1200E+02
    -24.170  0.0000E+00  0.0000E+00  0.1200E+02  0.1200E+02
    -23.961  0.0000E+00  0.0000E+00  0.1200E+02  0.1200E+02
    -23.753  0.0000E+00  0.0000E+00  0.1200E+02  0.1200E+02
    -23.545  0.0000E+00  0.0000E+00  0.1200E+02  0.1200E+02
    -23.337  0.0000E+00  0.0000E+00  0.1200E+02  0.1200E+02
    -23.128  0.0000E+00  0.0000E+00  0.1200E+02  0.1200E+02
    -22.920  0.0000E+00  0.0000E+00  0.1200E+02  0.1200E+02
    -22.712  0.0000E+00  0.0000E+00  0.1200E+02  0.1200E+02
    -22.504  0.0000E+00  0.0000E+00  0.1200E+02  0.1200E+02
    -22.295  0.0000E+00  0.0000E+00  0.1200E+02  0.1200E+02
    -22.087  0.0000E+00  0.0000E+00  0.1200E+02  0.1200E+02
    -21.879  0.0000E+00  0.0000E+00  0.1200E+02  0.1200E+02
    -21.671  0.0000E+00  0.0000E+00  0.1200E+02  0.1200E+02
    -21.463  0.0000E+00  0.0000E+00  0.1200E+02  0.1200E+02
    -21.254  0.0000E+00  0.0000E+00  0.1200E+02  0.1200E+02
    -21.046  0.0000E+00  0.0000E+00  0.1200E+02  0.1200E+02
    -20.838  0.0000E+00  0.0000E+00  0.1200E+02  0.1200E+02
    -20.630  0.0000E+00  0.0000E+00  0.1200E+02  0.1200E+02
    -20.421  0.0000E+00  0.0000E+00  0.1200E+02  0.1200E+02
    -20.213  0.0000E+00  0.0000E+00  0.1200E+02  0.1200E+02
    -20.005  0.0000E+00  0.0000E+00  0.1200E+02  0.1200E+02
    -19.797  0.0000E+00  0.0000E+00  0.1200E+02  0.1200E+02
    -19.588  0.0000E+00  0.0000E+00  0.1200E+02  0.1200E+02
    -19.380  0.0000E+00  0.0000E+00  0.1200E+02  0.1200E+02
    -19.172  0.0000E+00  0.0000E+00  0.1200E+02  0.1200E+02
    -18.964  0.0000E+00  0.0000E+00  0.1200E+02  0.1200E+02
    -18.756  0.0000E+00  0.0000E+00  0.1200E+02  0.1200E+02
    -18.547  0.0000E+00  0.0000E+00  0.1200E+02  0.1200E+02
    -18.339  0.0000E+00  0.0000E+00  0.1200E+02  0.1200E+02
    -18.131  0.0000E+00  0.0000E+00  0.1200E+02  0.1200E+02
    -17.923  0.0000E+00  0.0000E+00  0.1200E+02  0.1200E+02
    -17.714  0.0000E+00  0.0000E+00  0.1200E+02  0.1200E+02
    -17.506  0.0000E+00  0.0000E+00  0.1200E+02  0.1200E+02
    -17.298  0.0000E+00  0.0000E+00  0.1200E+02  0.1200E+02
    -17.090  0.0000E+00  0.0000E+00  0.1200E+02  0.1200E+02
    -16.881  0.0000E+00  0.0000E+00  0.1200E+02  0.1200E+02
    -16.673  0.0000E+00  0.0000E+00  0.1200E+02  0.1200E+02
    -16.465  0.0000E+00  0.0000E+00  0.1200E+02  0.1200E+02
    -16.257  0.0000E+00  0.0000E+00  0.1200E+02  0.1200E+02
    -16.049  0.0000E+00  0.0000E+00  0.1200E+02  0.1200E+02
    -15.840  0.0000E+00  0.0000E+00  0.1200E+02  0.1200E+02
    -15.632  0.0000E+00  0.0000E+00  0.1200E+02  0.1200E+02
    -15.424  0.0000E+00  0.0000E+00  0.1200E+02  0.1200E+02
    -15.216  0.0000E+00  0.0000E+00  0.1200E+02  0.1200E+02
    -15.007  0.0000E+00  0.0000E+00  0.1200E+02  0.1200E+02
    -14.799  0.0000E+00  0.0000E+00  0.1200E+02  0.1200E+02
    -14.591  0.0000E+00  0.0000E+00  0.1200E+02  0.1200E+02
    -14.383  0.0000E+00  0.0000E+00  0.1200E+02  0.1200E+02
    -14.174  0.0000E+00  0.0000E+00  0.1200E+02  0.1200E+02
    -13.966  0.0000E+00  0.0000E+00  0.1200E+02  0.1200E+02
    -13.758  0.0000E+00  0.0000E+00  0.1200E+02  0.1200E+02
    -13.550  0.0000E+00  0.0000E+00  0.1200E+02  0.1200E+02
    -13.342  0.0000E+00  0.0000E+00  0.1200E+02  0.1200E+02
    -13.133  0.0000E+00  0.0000E+00  0.1200E+02  0.1200E+02
    -12.925  0.0000E+00  0.0000E+00  0.1200E+02  0.1200E+02
    -12.717  0.0000E+00  0.0000E+00  0.1200E+02  0.1200E+02
    -12.509  0.0000E+00  0.0000E+00  0.1200E+02  0.1200E+02
    -12.300  0.0000E+00  0.0000E+00  0.1200E+02  0.1200E+02
    -12.092  0.0000E+00  0.0000E+00  0.1200E+02  0.1200E+02
    -11.884  0.0000E+00  0.0000E+00  0.1200E+02  0.1200E+02
    -11.676  0.0000E+00  0.0000E+00  0.1200E+02  0.1200E+02
    -11.467  0.0000E+00  0.0000E+00  0.1200E+02  0.1200E+02
    -11.259  0.0000E+00  0.0000E+00  0.1200E+02  0.1200E+02
    -11.051  0.0000E+00  0.0000E+00  0.1200E+02  0.1200E+02
    -10.843  0.0000E+00  0.0000E+00  0.1200E+02  0.1200E+02
    -10.635  0.0000E+00  0.0000E+00  0.1200E+02  0.1200E+02
    -10.426  0.0000E+00  0.0000E+00  0.1200E+02  0.1200E+02
    -10.218  0.0000E+00  0.0000E+00  0.1200E+02  0.1200E+02
    -10.010  0.0000E+00  0.0000E+00  0.1200E+02  0.1200E+02
     -9.802  0.0000E+00  0.0000E+00  0.1200E+02  0.1200E+02
     -9.593  0.0000E+00  0.0000E+00  0.1200E+02  0.1200E+02
     -9.385  0.0000E+00  0.0000E+00  0.1200E+02  0.1200E+02
     -9.177  0.0000E+00  0.0000E+00  0.1200E+02  0.1200E+02
     -8.969  0.0000E+00  0.0000E+00  0.1200E+02  0.1200E+02
     -8.760  0.0000E+00  0.0000E+00  0.1200E+02  0.1200E+02
     -8.552  0.0000E+00  0.0000E+00  0.1200E+02  0.1200E+02
     -8.344  0.0000E+00  0.0000E+00  0.1200E+02  0.1200E+02
     -8.136  0.0000E+00  0.0000E+00  0.1200E+02  0.1200E+02
     -7.928  0.0000E+00  0.0000E+00  0.1200E+02  0.1200E+02
     -7.719  0.0000E+00  0.0000E+00  0.1200E+02  0.1200E+02
     -7.511  0.0000E+00  0.0000E+00  0.1200E+02  0.1200E+02
     -7.303  0.0000E+00  0.0000E+00  0.1200E+02  0.1200E+02
     -7.095  0.0000E+00  0.0000E+00  0.1200E+02  0.1200E+02
     -6.886  0.0000E+00  0.0000E+00  0.1200E+02  0.1200E+02
     -6.678  0.0000E+00  0.0000E+00  0.1200E+02  0.1200E+02
     -6.470  0.0000E+00  0.0000E+00  0.1200E+02  0.1200E+02
     -6.262  0.0000E+00  0.0000E+00  0.1200E+02  0.1200E+02
     -6.053  0.0000E+00  0.0000E+00  0.1200E+02  0.1200E+02
     -5.845  0.0000E+00  0.0000E+00  0.1200E+02  0.1200E+02
     -5.637  0.0000E+00  0.0000E+00  0.1200E+02  0.1200E+02
     -5.429  0.0000E+00  0.0000E+00  0.1200E+02  0.1200E+02
     -5.221  0.0000E+00  0.0000E+00  0.1200E+02  0.1200E+02
     -5.012  0.0000E+00  0.0000E+00  0.1200E+02  0.1200E+02
     -4.804  0.0000E+00  0.0000E+00  0.1200E+02  0.1200E+02
     -4.596  0.0000E+00  0.0000E+00  0.1200E+02  0.1200E+02
     -4.388  0.0000E+00  0.0000E+00  0.1200E+02  0.1200E+02
     -4.179  0.0000E+00  0.0000E+00  0.1200E+02  0.1200E+02
     -3.971  0.0000E+00  0.0000E+00  0.1200E+02  0.1200E+02
     -3.763  0.0000E+00  0.0000E+00  0.1200E+02  0.1200E+02
     -3.555  0.0000E+00  0.0000E+00  0.1200E+02  0.1200E+02
     -3.346  0.0000E+00  0.0000E+00  0.1200E+02  0.1200E+02
     -3.138  0.0000E+00  0.0000E+00  0.1200E+02  0.1200E+02
     -2.930  0.0000E+00  0.0000E+00  0.1200E+02  0.1200E+02
     -2.722  0.0000E+00  0.0000E+00  0.1200E+02  0.1200E+02
     -2.514  0.0000E+00  0.0000E+00  0.1200E+02  0.1200E+02
     -2.305  0.0000E+00  0.0000E+00  0.1200E+02  0.1200E+02
     -2.097  0.0000E+00  0.0000E+00  0.1200E+02  0.1200E+02
     -1.889  0.0000E+00  0.0000E+00  0.1200E+02  0.1200E+02
     -1.681  0.0000E+00  0.0000E+00  0.1200E+02  0.1200E+02
     -1.472  0.1090E-05  0.1701E-06  0.1200E+02  0.1200E+02
     -1.264  0.9101E-04  0.3393E-04  0.1200E+02  0.1200E+02
     -1.056  0.5436E-02  0.2121E-02  0.1200E+02  0.1200E+02
     -0.848  0.1065E+00  0.6440E-01  0.1202E+02  0.1201E+02
     -0.639  0.2820E+00  0.2428E+00  0.1208E+02  0.1206E+02
     -0.431  0.4137E+00  0.4156E+00  0.1217E+02  0.1215E+02
     -0.223  0.5366E+00  0.4767E+00  0.1228E+02  0.1225E+02
     -0.015  0.5849E+00  0.5767E+00  0.1240E+02  0.1237E+02
      0.193  0.5956E+00  0.6146E+00  0.1253E+02  0.1250E+02
      0.402  0.8095E+00  0.7613E+00  0.1270E+02  0.1266E+02
      0.610  0.8289E+00  0.8511E+00  0.1287E+02  0.1284E+02
      0.818  0.7350E+00  0.6864E+00  0.1302E+02  0.1298E+02
      1.026  0.1066E+01  0.1061E+01  0.1325E+02  0.1320E+02
      1.235  0.9984E+00  0.1051E+01  0.1345E+02  0.1342E+02
      1.443  0.1030E+01  0.9607E+00  0.1367E+02  0.1362E+02
      1.651  0.1270E+01  0.1304E+01  0.1393E+02  0.1390E+02
      1.859  0.1145E+01  0.1124E+01  0.1417E+02  0.1413E+02
      2.068  0.1342E+01  0.1363E+01  0.1445E+02  0.1442E+02
      2.276  0.9936E+00  0.1019E+01  0.1466E+02  0.1463E+02
      2.484  0.1231E+01  0.1100E+01  0.1492E+02  0.1486E+02
      2.692  0.1260E+01  0.1282E+01  0.1518E+02  0.1513E+02
      2.900  0.1308E+01  0.1120E+01  0.1546E+02  0.1536E+02
      3.109  0.1457E+01  0.1516E+01  0.1576E+02  0.1568E+02
      3.317  0.1252E+01  0.1262E+01  0.1603E+02  0.1594E+02
      3.525  0.1450E+01  0.1305E+01  0.1633E+02  0.1622E+02
      3.733  0.1559E+01  0.1561E+01  0.1666E+02  0.1654E+02
      3.942  0.1783E+01  0.1697E+01  0.1703E+02  0.1690E+02
      4.150  0.1624E+01  0.1625E+01  0.1737E+02  0.1724E+02
      4.358  0.1575E+01  0.1522E+01  0.1770E+02  0.1756E+02
      4.566  0.1789E+01  0.1674E+01  0.1807E+02  0.1791E+02
      4.775  0.1579E+01  0.1598E+01  0.1840E+02  0.1824E+02
      4.983  0.2026E+01  0.1664E+01  0.1883E+02  0.1859E+02
      5.191  0.1929E+01  0.2040E+01  0.1923E+02  0.1902E+02
      5.399  0.1695E+01  0.1699E+01  0.1958E+02  0.1937E+02
      5.607  0.1909E+01  0.1737E+01  0.1998E+02  0.1974E+02
      5.816  0.2325E+01  0.1974E+01  0.2047E+02  0.2015E+02
      6.024  0.2240E+01  0.2053E+01  0.2094E+02  0.2058E+02
      6.232  0.2412E+01  0.2307E+01  0.2144E+02  0.2106E+02
      6.440  0.2325E+01  0.2286E+01  0.2193E+02  0.2154E+02
      6.649  0.2486E+01  0.2099E+01  0.2245E+02  0.2198E+02
      6.857  0.2678E+01  0.2312E+01  0.2301E+02  0.2246E+02
      7.065  0.2931E+01  0.2349E+01  0.2362E+02  0.2295E+02
      7.273  0.3123E+01  0.2673E+01  0.2428E+02  0.2351E+02
      7.482  0.3815E+01  0.2800E+01  0.2508E+02  0.2410E+02
      7.690  0.4340E+01  0.2951E+01  0.2598E+02  0.2472E+02
      7.898  0.4227E+01  0.3093E+01  0.2687E+02  0.2536E+02
      8.106  0.3930E+01  0.3508E+01  0.2769E+02  0.2610E+02
      8.314  0.3549E+01  0.3297E+01  0.2843E+02  0.2679E+02
      8.523  0.4163E+01  0.3802E+01  0.2930E+02  0.2758E+02
      8.731  0.4635E+01  0.3626E+01  0.3027E+02  0.2834E+02
      8.939  0.5899E+01  0.3583E+01  0.3151E+02  0.2909E+02
      9.147  0.7010E+01  0.3845E+01  0.3297E+02  0.2990E+02
      9.356  0.6770E+01  0.3988E+01  0.3439E+02  0.3073E+02
      9.564  0.6481E+01  0.5052E+01  0.3574E+02  0.3179E+02
      9.772  0.5955E+01  0.5757E+01  0.3699E+02  0.3299E+02
      9.980  0.4786E+01  0.5179E+01  0.3799E+02  0.3407E+02
     10.189  0.3624E+01  0.5058E+01  0.3875E+02  0.3513E+02
     10.397  0.4617E+01  0.5191E+01  0.3972E+02  0.3622E+02
     10.605  0.8566E+01  0.4418E+01  0.4151E+02  0.3714E+02
     10.813  0.7749E+01  0.3746E+01  0.4313E+02  0.3793E+02
     11.021  0.6278E+01  0.3341E+01  0.4445E+02  0.3863E+02
     11.230  0.5094E+01  0.2505E+01  0.4552E+02  0.3916E+02
     11.438  0.3732E+01  0.3071E+01  0.4630E+02  0.3980E+02
     11.646  0.2343E+01  0.3337E+01  0.4679E+02  0.4050E+02
     11.854  0.1895E+01  0.2975E+01  0.4719E+02  0.4112E+02
     12.063  0.2054E+01  0.3946E+01  0.4762E+02  0.4195E+02
     12.271  0.1559E+01  0.7792E+01  0.4795E+02  0.4357E+02
     12.479  0.1957E+01  0.1198E+02  0.4836E+02  0.4607E+02
     12.687  0.2387E+01  0.6603E+01  0.4885E+02  0.4746E+02
     12.896  0.3449E+01  0.2822E+01  0.4957E+02  0.4806E+02
     13.104  0.3753E+01  0.2548E+01  0.5036E+02  0.4859E+02
     13.312  0.4519E+01  0.3067E+01  0.5130E+02  0.4923E+02
     13.520  0.4150E+01  0.3133E+01  0.5217E+02  0.4989E+02
     13.728  0.3691E+01  0.3398E+01  0.5295E+02  0.5060E+02
     13.937  0.3489E+01  0.4617E+01  0.5368E+02  0.5156E+02
     14.145  0.2850E+01  0.4349E+01  0.5428E+02  0.5247E+02
     14.353  0.3063E+01  0.4156E+01  0.5492E+02  0.5334E+02
     14.561  0.2541E+01  0.4022E+01  0.5545E+02  0.5419E+02
     14.770  0.2136E+01  0.3321E+01  0.5590E+02  0.5488E+02
     14.978  0.2689E+01  0.2692E+01  0.5646E+02  0.5544E+02
     15.186  0.2310E+01  0.2750E+01  0.5694E+02  0.5602E+02
     15.394  0.2812E+01  0.2706E+01  0.5753E+02  0.5659E+02
     15.603  0.3642E+01  0.2232E+01  0.5829E+02  0.5705E+02
     15.811  0.3679E+01  0.2821E+01  0.5906E+02  0.5764E+02
     16.019  0.4099E+01  0.3875E+01  0.5992E+02  0.5846E+02
     16.227  0.3536E+01  0.4057E+01  0.6066E+02  0.5930E+02
     16.435  0.2670E+01  0.4021E+01  0.6122E+02  0.6015E+02
     16.644  0.3496E+01  0.3109E+01  0.6195E+02  0.6080E+02
     16.852  0.3340E+01  0.3699E+01  0.6265E+02  0.6157E+02
     17.060  0.2507E+01  0.3500E+01  0.6317E+02  0.6230E+02
     17.268  0.2283E+01  0.3023E+01  0.6365E+02  0.6294E+02
     17.477  0.2768E+01  0.2916E+01  0.6423E+02  0.6355E+02
     17.685  0.3008E+01  0.2628E+01  0.6486E+02  0.6410E+02
     17.893  0.2533E+01  0.2465E+01  0.6539E+02  0.6462E+02
     18.101  0.2843E+01  0.2679E+01  0.6599E+02  0.6518E+02
     18.310  0.2941E+01  0.2543E+01  0.6660E+02  0.6571E+02
     18.518  0.2167E+01  0.2572E+01  0.6706E+02  0.6625E+02
     18.726  0.1598E+01  0.2797E+01  0.6739E+02  0.6683E+02
     18.934  0.8690E+00  0.2025E+01  0.6758E+02  0.6726E+02
     19.142  0.7629E+00  0.1327E+01  0.6774E+02  0.6754E+02
     19.351  0.6957E+00  0.1040E+01  0.6788E+02  0.6775E+02
     19.559  0.3227E+00  0.7685E+00  0.6795E+02  0.6792E+02
     19.767  0.1615E+00  0.1920E+00  0.6798E+02  0.6796E+02
     19.975  0.7725E-01  0.1197E+00  0.6800E+02  0.6798E+02
     20.184  0.0000E+00  0.7744E-01  0.6800E+02  0.6800E+02
     20.392  0.0000E+00  0.4916E-02  0.6800E+02  0.6800E+02
     20.600  0.0000E+00  0.0000E+00  0.6800E+02  0.6800E+02
     20.808  0.0000E+00  0.0000E+00  0.6800E+02  0.6800E+02
     21.017  0.0000E+00  0.0000E+00  0.6800E+02  0.6800E+02
     21.225  0.0000E+00  0.0000E+00  0.6800E+02  0.6800E+02
     21.433  0.0000E+00  0.0000E+00  0.6800E+02  0.6800E+02
     21.641  0.0000E+00  0.0000E+00  0.6800E+02  0.6800E+02
     21.850  0.0000E+00  0.0000E+00  0.6800E+02  0.6800E+02
     22.058  0.0000E+00  0.0000E+00  0.6800E+02  0.6800E+02
     22.266  0.0000E+00  0.0000E+00  0.6800E+02  0.6800E+02
     22.474  0.0000E+00  0.0000E+00  0.6800E+02  0.6800E+02
     22.682  0.0000E+00  0.0000E+00  0.6800E+02  0.6800E+02
     22.891  0.0000E+00  0.0000E+00  0.6800E+02  0.6800E+02
     22.89065525    -39.57860132  301     11.79294595      1.00000000
    -39.579  0.0000E+00  0.0000E+00  0.0000E+00  0.0000E+00  0.0000E+00  0.0000E+00  0.0000E+00  0.0000E+00  0.0000E+00  0.0000E+00  0.0000E+00  0.0000E+00  0.0000E+00  0.0000E+00  0.0000E+00  0.0000E+00  0.0000E+00  0.0000E+00
    -39.370  0.0000E+00  0.0000E+00  0.0000E+00  0.0000E+00  0.0000E+00  0.0000E+00  0.0000E+00  0.0000E+00  0.0000E+00  0.0000E+00  0.0000E+00  0.0000E+00  0.0000E+00  0.0000E+00  0.0000E+00  0.0000E+00  0.0000E+00  0.0000E+00
    -39.162  0.0000E+00  0.0000E+00  0.0000E+00  0.0000E+00  0.0000E+00  0.0000E+00  0.0000E+00  0.0000E+00  0.0000E+00  0.0000E+00  0.0000E+00  0.0000E+00  0.0000E+00  0.0000E+00  0.0000E+00  0.0000E+00  0.0000E+00  0.0000E+00
    -38.954  0.0000E+00  0.0000E+00  0.0000E+00  0.0000E+00  0.0000E+00  0.0000E+00  0.0000E+00  0.0000E+00  0.0000E+00  0.0000E+00  0.0000E+00  0.0000E+00  0.0000E+00  0.0000E+00  0.0000E+00  0.0000E+00  0.0000E+00  0.0000E+00
    -38.746  0.0000E+00  0.0000E+00  0.0000E+00  0.0000E+00  0.0000E+00  0.0000E+00  0.0000E+00  0.0000E+00  0.0000E+00  0.0000E+00  0.0000E+00  0.0000E+00  0.0000E+00  0.0000E+00  0.0000E+00  0.0000E+00  0.0000E+00  0.0000E+00
    -38.537  0.0000E+00  0.0000E+00  0.0000E+00  0.0000E+00  0.0000E+00  0.0000E+00  0.0000E+00  0.0000E+00  0.0000E+00  0.0000E+00  0.0000E+00  0.0000E+00  0.0000E+00  0.0000E+00  0.0000E+00  0.0000E+00  0.0000E+00  0.0000E+00
    -38.329  0.0000E+00  0.0000E+00  0.0000E+00  0.0000E+00  0.0000E+00  0.0000E+00  0.0000E+00  0.0000E+00  0.0000E+00  0.0000E+00  0.0000E+00  0.0000E+00  0.0000E+00  0.0000E+00  0.0000E+00  0.0000E+00  0.0000E+00  0.0000E+00
    -38.121  0.0000E+00  0.0000E+00  0.0000E+00  0.0000E+00  0.0000E+00  0.0000E+00  0.0000E+00  0.0000E+00  0.0000E+00  0.0000E+00  0.0000E+00  0.0000E+00  0.0000E+00  0.0000E+00  0.0000E+00  0.0000E+00  0.0000E+00  0.0000E+00
    -37.913  0.0000E+00  0.0000E+00  0.0000E+00  0.0000E+00  0.0000E+00  0.0000E+00  0.0000E+00  0.0000E+00  0.0000E+00  0.0000E+00  0.0000E+00  0.0000E+00  0.0000E+00  0.0000E+00  0.0000E+00  0.0000E+00  0.0000E+00  0.0000E+00
    -37.705  0.0000E+00  0.0000E+00  0.0000E+00  0.0000E+00  0.0000E+00  0.0000E+00  0.0000E+00  0.0000E+00  0.0000E+00  0.0000E+00  0.0000E+00  0.0000E+00  0.0000E+00  0.0000E+00  0.0000E+00  0.0000E+00  0.0000E+00  0.0000E+00
    -37.496  0.0000E+00  0.0000E+00  0.0000E+00  0.0000E+00  0.0000E+00  0.0000E+00  0.0000E+00  0.0000E+00  0.0000E+00  0.0000E+00  0.0000E+00  0.0000E+00  0.0000E+00  0.0000E+00  0.0000E+00  0.0000E+00  0.0000E+00  0.0000E+00
    -37.288  0.6195E-11  0.0000E+00  0.7244E-04  0.0000E+00  0.1260E-09  0.0000E+00  0.7244E-04  0.0000E+00  0.2191E-12  0.0000E+00  0.1142E-10  0.0000E+00  0.2269E-11  0.0000E+00  0.1142E-10  0.0000E+00  0.6756E-11  0.0000E+00
    -37.080  0.5190E-09  0.0000E+00  0.4586E-02  0.0000E+00  0.3890E-03  0.0000E+00  0.4586E-02  0.0000E+00  0.1387E-10  0.0000E+00  0.7233E-09  0.0000E+00  0.2685E-09  0.0000E+00  0.7233E-09  0.0000E+00  0.4277E-09  0.0000E+00
    -36.872  0.3174E-07  0.0000E+00  0.2776E+00  0.0000E+00  0.2452E-01  0.0000E+00  0.2776E+00  0.0000E+00  0.8385E-09  0.0000E+00  0.4379E-07  0.0000E+00  0.1656E-07  0.0000E+00  0.4379E-07  0.0000E+00  0.2590E-07  0.0000E+00
    -36.663  0.6868E-06  0.0000E+00  0.3541E+01  0.0000E+00  0.1180E+01  0.0000E+00  0.3541E+01  0.0000E+00  0.1048E-07  0.0000E+00  0.5598E-06  0.0000E+00  0.4883E-06  0.0000E+00  0.5598E-06  0.0000E+00  0.3314E-06  0.0000E+00
    -36.455  0.1168E-05  0.0000E+00  0.9304E+00  0.0000E+00  0.3357E+01  0.0000E+00  0.9304E+00  0.0000E+00  0.2722E-08  0.0000E+00  0.1516E-06  0.0000E+00  0.1092E-05  0.0000E+00  0.1516E-06  0.0000E+00  0.8718E-07  0.0000E+00
    -36.247  0.6683E-07  0.0000E+00  0.1755E-06  0.0000E+00  0.2066E+00  0.0000E+00  0.1755E-06  0.0000E+00  0.2776E-11  0.0000E+00  0.3099E-09  0.0000E+00  0.6492E-07  0.0000E+00  0.3099E-09  0.0000E+00  0.1849E-11  0.0000E+00
    -36.039  0.0000E+00  0.0000E+00  0.0000E+00  0.0000E+00  0.0000E+00  0.0000E+00  0.0000E+00  0.0000E+00  0.0000E+00  0.0000E+00  0.0000E+00  0.0000E+00  0.0000E+00  0.0000E+00  0.0000E+00  0.0000E+00  0.0000E+00  0.0000E+00
    -35.830  0.0000E+00  0.0000E+00  0.0000E+00  0.0000E+00  0.0000E+00  0.0000E+00  0.0000E+00  0.0000E+00  0.0000E+00  0.0000E+00  0.0000E+00  0.0000E+00  0.0000E+00  0.0000E+00  0.0000E+00  0.0000E+00  0.0000E+00  0.0000E+00
    -35.622  0.0000E+00  0.1832E-09  0.0000E+00  0.3589E-03  0.0000E+00  0.2405E-03  0.0000E+00  0.3589E-03  0.0000E+00  0.1433E-11  0.0000E+00  0.6806E-10  0.0000E+00  0.1302E-09  0.0000E+00  0.6806E-10  0.0000E+00  0.4092E-10
    -35.414  0.0000E+00  0.1157E-07  0.0000E+00  0.2263E-01  0.0000E+00  0.1519E-01  0.0000E+00  0.2263E-01  0.0000E+00  0.9036E-10  0.0000E+00  0.4292E-08  0.0000E+00  0.8225E-08  0.0000E+00  0.4292E-08  0.0000E+00  0.2581E-08
    -35.206  0.0000E+00  0.6060E-06  0.0000E+00  0.1109E+01  0.0000E+00  0.8089E+00  0.0000E+00  0.1109E+01  0.0000E+00  0.4397E-08  0.0000E+00  0.2105E-06  0.0000E+00  0.4341E-06  0.0000E+00  0.2105E-06  0.0000E+00  0.1267E-06
    -34.998  0.0000E+00  0.2553E-05  0.0000E+00  0.3412E+01  0.0000E+00  0.3617E+01  0.0000E+00  0.3412E+01  0.0000E+00  0.1312E-07  0.0000E+00  0.6495E-06  0.0000E+00  0.1877E-05  0.0000E+00  0.6495E-06  0.0000E+00  0.3908E-06
    -34.789  0.0000E+00  0.2215E-06  0.0000E+00  0.2243E+00  0.0000E+00  0.3253E+00  0.0000E+00  0.2243E+00  0.0000E+00  0.8423E-09  0.0000E+00  0.4287E-07  0.0000E+00  0.1653E-06  0.0000E+00  0.4287E-07  0.0000E+00  0.2569E-07
    -34.581  0.0000E+00  0.0000E+00  0.0000E+00  0.0000E+00  0.0000E+00  0.0000E+00  0.0000E+00  0.0000E+00  0.0000E+00  0.0000E+00  0.0000E+00  0.0000E+00  0.0000E+00  0.0000E+00  0.0000E+00  0.0000E+00  0.0000E+00  0.0000E+00
    -34.373  0.0000E+00  0.0000E+00  0.0000E+00  0.0000E+00  0.0000E+00  0.0000E+00  0.0000E+00  0.0000E+00  0.0000E+00  0.0000E+00  0.0000E+00  0.0000E+00  0.0000E+00  0.0000E+00  0.0000E+00  0.0000E+00  0.0000E+00  0.0000E+00
    -34.165  0.0000E+00  0.0000E+00  0.0000E+00  0.0000E+00  0.0000E+00  0.0000E+00  0.0000E+00  0.0000E+00  0.0000E+00  0.0000E+00  0.0000E+00  0.0000E+00  0.0000E+00  0.0000E+00  0.0000E+00  0.0000E+00  0.0000E+00  0.0000E+00
    -33.956  0.0000E+00  0.0000E+00  0.0000E+00  0.0000E+00  0.0000E+00  0.0000E+00  0.0000E+00  0.0000E+00  0.0000E+00  0.0000E+00  0.0000E+00  0.0000E+00  0.0000E+00  0.0000E+00  0.0000E+00  0.0000E+00  0.0000E+00  0.0000E+00
    -33.748  0.0000E+00  0.0000E+00  0.0000E+00  0.0000E+00  0.0000E+00  0.0000E+00  0.0000E+00  0.0000E+00  0.0000E+00  0.0000E+00  0.0000E+00  0.0000E+00  0.0000E+00  0.0000E+00  0.0000E+00  0.0000E+00  0.0000E+00  0.0000E+00
    -33.540  0.0000E+00  0.0000E+00  0.0000E+00  0.0000E+00  0.0000E+00  0.0000E+00  0.0000E+00  0.0000E+00  0.0000E+00  0.0000E+00  0.0000E+00  0.0000E+00  0.0000E+00  0.0000E+00  0.0000E+00  0.0000E+00  0.0000E+00  0.0000E+00
    -33.332  0.0000E+00  0.0000E+00  0.0000E+00  0.0000E+00  0.0000E+00  0.0000E+00  0.0000E+00  0.0000E+00  0.0000E+00  0.0000E+00  0.0000E+00  0.0000E+00  0.0000E+00  0.0000E+00  0.0000E+00  0.0000E+00  0.0000E+00  0.0000E+00
    -33.123  0.0000E+00  0.0000E+00  0.0000E+00  0.0000E+00  0.0000E+00  0.0000E+00  0.0000E+00  0.0000E+00  0.0000E+00  0.0000E+00  0.0000E+00  0.0000E+00  0.0000E+00  0.0000E+00  0.0000E+00  0.0000E+00  0.0000E+00  0.0000E+00
    -32.915  0.0000E+00  0.0000E+00  0.0000E+00  0.0000E+00  0.0000E+00  0.0000E+00  0.0000E+00  0.0000E+00  0.0000E+00  0.0000E+00  0.0000E+00  0.0000E+00  0.0000E+00  0.0000E+00  0.0000E+00  0.0000E+00  0.0000E+00  0.0000E+00
    -32.707  0.0000E+00  0.0000E+00  0.0000E+00  0.0000E+00  0.0000E+00  0.0000E+00  0.0000E+00  0.0000E+00  0.0000E+00  0.0000E+00  0.0000E+00  0.0000E+00  0.0000E+00  0.0000E+00  0.0000E+00  0.0000E+00  0.0000E+00  0.0000E+00
    -32.499  0.0000E+00  0.0000E+00  0.0000E+00  0.0000E+00  0.0000E+00  0.0000E+00  0.0000E+00  0.0000E+00  0.0000E+00  0.0000E+00  0.0000E+00  0.0000E+00  0.0000E+00  0.0000E+00  0.0000E+00  0.0000E+00  0.0000E+00  0.0000E+00
    -32.291  0.0000E+00  0.0000E+00  0.0000E+00  0.0000E+00  0.0000E+00  0.0000E+00  0.0000E+00  0.0000E+00  0.0000E+00  0.0000E+00  0.0000E+00  0.0000E+00  0.0000E+00  0.0000E+00  0.0000E+00  0.0000E+00  0.0000E+00  0.0000E+00
    -32.082  0.0000E+00  0.0000E+00  0.0000E+00  0.0000E+00  0.0000E+00  0.0000E+00  0.0000E+00  0.0000E+00  0.0000E+00  0.0000E+00  0.0000E+00  0.0000E+00  0.0000E+00  0.0000E+00  0.0000E+00  0.0000E+00  0.0000E+00  0.0000E+00
    -31.874  0.0000E+00  0.0000E+00  0.0000E+00  0.0000E+00  0.0000E+00  0.0000E+00  0.0000E+00  0.0000E+00  0.0000E+00  0.0000E+00  0.0000E+00  0.0000E+00  0.0000E+00  0.0000E+00  0.0000E+00  0.0000E+00  0.0000E+00  0.0000E+00
    -31.666  0.0000E+00  0.0000E+00  0.0000E+00  0.0000E+00  0.0000E+00  0.0000E+00  0.0000E+00  0.0000E+00  0.0000E+00  0.0000E+00  0.0000E+00  0.0000E+00  0.0000E+00  0.0000E+00  0.0000E+00  0.0000E+00  0.0000E+00  0.0000E+00
    -31.458  0.0000E+00  0.0000E+00  0.0000E+00  0.0000E+00  0.0000E+00  0.0000E+00  0.0000E+00  0.0000E+00  0.0000E+00  0.0000E+00  0.0000E+00  0.0000E+00  0.0000E+00  0.0000E+00  0.0000E+00  0.0000E+00  0.0000E+00  0.0000E+00
    -31.249  0.0000E+00  0.0000E+00  0.0000E+00  0.0000E+00  0.0000E+00  0.0000E+00  0.0000E+00  0.0000E+00  0.0000E+00  0.0000E+00  0.0000E+00  0.0000E+00  0.0000E+00  0.0000E+00  0.0000E+00  0.0000E+00  0.0000E+00  0.0000E+00
    -31.041  0.0000E+00  0.0000E+00  0.0000E+00  0.0000E+00  0.0000E+00  0.0000E+00  0.0000E+00  0.0000E+00  0.0000E+00  0.0000E+00  0.0000E+00  0.0000E+00  0.0000E+00  0.0000E+00  0.0000E+00  0.0000E+00  0.0000E+00  0.0000E+00
    -30.833  0.0000E+00  0.0000E+00  0.0000E+00  0.0000E+00  0.0000E+00  0.0000E+00  0.0000E+00  0.0000E+00  0.0000E+00  0.0000E+00  0.0000E+00  0.0000E+00  0.0000E+00  0.0000E+00  0.0000E+00  0.0000E+00  0.0000E+00  0.0000E+00
    -30.625  0.0000E+00  0.0000E+00  0.0000E+00  0.0000E+00  0.0000E+00  0.0000E+00  0.0000E+00  0.0000E+00  0.0000E+00  0.0000E+00  0.0000E+00  0.0000E+00  0.0000E+00  0.0000E+00  0.0000E+00  0.0000E+00  0.0000E+00  0.0000E+00
    -30.416  0.0000E+00  0.0000E+00  0.0000E+00  0.0000E+00  0.0000E+00  0.0000E+00  0.0000E+00  0.0000E+00  0.0000E+00  0.0000E+00  0.0000E+00  0.0000E+00  0.0000E+00  0.0000E+00  0.0000E+00  0.0000E+00  0.0000E+00  0.0000E+00
    -30.208  0.0000E+00  0.0000E+00  0.0000E+00  0.0000E+00  0.0000E+00  0.0000E+00  0.0000E+00  0.0000E+00  0.0000E+00  0.0000E+00  0.0000E+00  0.0000E+00  0.0000E+00  0.0000E+00  0.0000E+00  0.0000E+00  0.0000E+00  0.0000E+00
    -30.000  0.0000E+00  0.0000E+00  0.0000E+00  0.0000E+00  0.0000E+00  0.0000E+00  0.0000E+00  0.0000E+00  0.0000E+00  0.0000E+00  0.0000E+00  0.0000E+00  0.0000E+00  0.0000E+00  0.0000E+00  0.0000E+00  0.0000E+00  0.0000E+00
    -29.792  0.0000E+00  0.0000E+00  0.0000E+00  0.0000E+00  0.0000E+00  0.0000E+00  0.0000E+00  0.0000E+00  0.0000E+00  0.0000E+00  0.0000E+00  0.0000E+00  0.0000E+00  0.0000E+00  0.0000E+00  0.0000E+00  0.0000E+00  0.0000E+00
    -29.584  0.0000E+00  0.0000E+00  0.0000E+00  0.0000E+00  0.0000E+00  0.0000E+00  0.0000E+00  0.0000E+00  0.0000E+00  0.0000E+00  0.0000E+00  0.0000E+00  0.0000E+00  0.0000E+00  0.0000E+00  0.0000E+00  0.0000E+00  0.0000E+00
    -29.375  0.0000E+00  0.0000E+00  0.0000E+00  0.0000E+00  0.0000E+00  0.0000E+00  0.0000E+00  0.0000E+00  0.0000E+00  0.0000E+00  0.0000E+00  0.0000E+00  0.0000E+00  0.0000E+00  0.0000E+00  0.0000E+00  0.0000E+00  0.0000E+00
    -29.167  0.0000E+00  0.0000E+00  0.0000E+00  0.0000E+00  0.0000E+00  0.0000E+00  0.0000E+00  0.0000E+00  0.0000E+00  0.0000E+00  0.0000E+00  0.0000E+00  0.0000E+00  0.0000E+00  0.0000E+00  0.0000E+00  0.0000E+00  0.0000E+00