  16  16   1   0
  0.1068671E+02  0.3449217E-09  0.3449217E-09  0.1437219E-08  0.5000000E-15
  1.000000000000000E-004
  CAR 
 unknown system                          
     24.22966777    -38.66218095  301     12.67575468      1.00000000
    -38.662  0.0000E+00  0.0000E+00  0.0000E+00  0.0000E+00
    -38.453  0.0000E+00  0.0000E+00  0.0000E+00  0.0000E+00
    -38.243  0.0000E+00  0.0000E+00  0.0000E+00  0.0000E+00
    -38.033  0.0000E+00  0.0000E+00  0.0000E+00  0.0000E+00
    -37.824  0.0000E+00  0.0000E+00  0.0000E+00  0.0000E+00
    -37.614  0.0000E+00  0.0000E+00  0.0000E+00  0.0000E+00
    -37.404  0.0000E+00  0.0000E+00  0.0000E+00  0.0000E+00
    -37.195  0.0000E+00  0.0000E+00  0.0000E+00  0.0000E+00
    -36.985  0.0000E+00  0.0000E+00  0.0000E+00  0.0000E+00
    -36.775  0.0000E+00  0.0000E+00  0.0000E+00  0.0000E+00
    -36.566  0.0000E+00  0.0000E+00  0.0000E+00  0.0000E+00
    -36.356  0.5154E-03  0.0000E+00  0.1080E-03  0.0000E+00
    -36.147  0.3473E-01  0.0000E+00  0.7388E-02  0.0000E+00
    -35.937  0.2172E+01  0.0000E+00  0.4628E+00  0.0000E+00
    -35.727  0.3213E+02  0.0000E+00  0.7199E+01  0.0000E+00
    -35.518  0.2172E+02  0.0000E+00  0.1175E+02  0.0000E+00
    -35.308  0.1017E+01  0.0000E+00  0.1200E+02  0.0000E+00
    -35.098  0.0000E+00  0.0000E+00  0.1200E+02  0.0000E+00
    -34.889  0.0000E+00  0.4316E-03  0.1200E+02  0.9047E-04
    -34.679  0.0000E+00  0.2813E-01  0.1200E+02  0.5987E-02
    -34.469  0.0000E+00  0.1800E+01  0.1200E+02  0.3834E+00
    -34.260  0.0000E+00  0.3705E+02  0.1200E+02  0.8151E+01
    -34.050  0.0000E+00  0.1795E+02  0.1200E+02  0.1191E+02
    -33.840  0.0000E+00  0.0000E+00  0.1200E+02  0.1200E+02
    -33.631  0.0000E+00  0.0000E+00  0.1200E+02  0.1200E+02
    -33.421  0.0000E+00  0.0000E+00  0.1200E+02  0.1200E+02
    -33.212  0.0000E+00  0.0000E+00  0.1200E+02  0.1200E+02
    -33.002  0.0000E+00  0.0000E+00  0.1200E+02  0.1200E+02
    -32.792  0.0000E+00  0.0000E+00  0.1200E+02  0.1200E+02
    -32.583  0.0000E+00  0.0000E+00  0.1200E+02  0.1200E+02
    -32.373  0.0000E+00  0.0000E+00  0.1200E+02  0.1200E+02
    -32.163  0.0000E+00  0.0000E+00  0.1200E+02  0.1200E+02
    -31.954  0.0000E+00  0.0000E+00  0.1200E+02  0.1200E+02
    -31.744  0.0000E+00  0.0000E+00  0.1200E+02  0.1200E+02
    -31.534  0.0000E+00  0.0000E+00  0.1200E+02  0.1200E+02
    -31.325  0.0000E+00  0.0000E+00  0.1200E+02  0.1200E+02
    -31.115  0.0000E+00  0.0000E+00  0.1200E+02  0.1200E+02
    -30.906  0.0000E+00  0.0000E+00  0.1200E+02  0.1200E+02
    -30.696  0.0000E+00  0.0000E+00  0.1200E+02  0.1200E+02
    -30.486  0.0000E+00  0.0000E+00  0.1200E+02  0.1200E+02
    -30.277  0.0000E+00  0.0000E+00  0.1200E+02  0.1200E+02
    -30.067  0.0000E+00  0.0000E+00  0.1200E+02  0.1200E+02
    -29.857  0.0000E+00  0.0000E+00  0.1200E+02  0.1200E+02
    -29.648  0.0000E+00  0.0000E+00  0.1200E+02  0.1200E+02
    -29.438  0.0000E+00  0.0000E+00  0.1200E+02  0.1200E+02
    -29.228  0.0000E+00  0.0000E+00  0.1200E+02  0.1200E+02
    -29.019  0.0000E+00  0.0000E+00  0.1200E+02  0.1200E+02
    -28.809  0.0000E+00  0.0000E+00  0.1200E+02  0.1200E+02
    -28.599  0.0000E+00  0.0000E+00  0.1200E+02  0.1200E+02
    -28.390  0.0000E+00  0.0000E+00  0.1200E+02  0.1200E+02
    -28.180  0.0000E+00  0.0000E+00  0.1200E+02  0.1200E+02
    -27.971  0.0000E+00  0.0000E+00  0.1200E+02  0.1200E+02
    -27.761  0.0000E+00  0.0000E+00  0.1200E+02  0.1200E+02
    -27.551  0.0000E+00  0.0000E+00  0.1200E+02  0.1200E+02
    -27.342  0.0000E+00  0.0000E+00  0.1200E+02  0.1200E+02
    -27.132  0.0000E+00  0.0000E+00  0.1200E+02  0.1200E+02
    -26.922  0.0000E+00  0.0000E+00  0.1200E+02  0.1200E+02
    -26.713  0.0000E+00  0.0000E+00  0.1200E+02  0.1200E+02
    -26.503  0.0000E+00  0.0000E+00  0.1200E+02  0.1200E+02
    -26.293  0.0000E+00  0.0000E+00  0.1200E+02  0.1200E+02
    -26.084  0.0000E+00  0.0000E+00  0.1200E+02  0.1200E+02
    -25.874  0.0000E+00  0.0000E+00  0.1200E+02  0.1200E+02
    -25.665  0.0000E+00  0.0000E+00  0.1200E+02  0.1200E+02
    -25.455  0.0000E+00  0.0000E+00  0.1200E+02  0.1200E+02
    -25.245  0.0000E+00  0.0000E+00  0.1200E+02  0.1200E+02
    -25.036  0.0000E+00  0.0000E+00  0.1200E+02  0.1200E+02
    -24.826  0.0000E+00  0.0000E+00  0.1200E+02  0.1200E+02
    -24.616  0.0000E+00  0.0000E+00  0.1200E+02  0.1200E+02
    -24.407  0.0000E+00  0.0000E+00  0.1200E+02  0.1200E+02
    -24.197  0.0000E+00  0.0000E+00  0.1200E+02  0.1200E+02
    -23.987  0.0000E+00  0.0000E+00  0.1200E+02  0.1200E+02
    -23.778  0.0000E+00  0.0000E+00  0.1200E+02  0.1200E+02
    -23.568  0.0000E+00  0.0000E+00  0.1200E+02  0.1200E+02
    -23.358  0.0000E+00  0.0000E+00  0.1200E+02  0.1200E+02
    -23.149  0.0000E+00  0.0000E+00  0.1200E+02  0.1200E+02
    -22.939  0.0000E+00  0.0000E+00  0.1200E+02  0.1200E+02
    -22.730  0.0000E+00  0.0000E+00  0.1200E+02  0.1200E+02
    -22.520  0.0000E+00  0.0000E+00  0.1200E+02  0.1200E+02
    -22.310  0.0000E+00  0.0000E+00  0.1200E+02  0.1200E+02
    -22.101  0.0000E+00  0.0000E+00  0.1200E+02  0.1200E+02
    -21.891  0.0000E+00  0.0000E+00  0.1200E+02  0.1200E+02
    -21.681  0.0000E+00  0.0000E+00  0.1200E+02  0.1200E+02
    -21.472  0.0000E+00  0.0000E+00  0.1200E+02  0.1200E+02
    -21.262  0.0000E+00  0.0000E+00  0.1200E+02  0.1200E+02
    -21.052  0.0000E+00  0.0000E+00  0.1200E+02  0.1200E+02
    -20.843  0.0000E+00  0.0000E+00  0.1200E+02  0.1200E+02
    -20.633  0.0000E+00  0.0000E+00  0.1200E+02  0.1200E+02
    -20.424  0.0000E+00  0.0000E+00  0.1200E+02  0.1200E+02
    -20.214  0.0000E+00  0.0000E+00  0.1200E+02  0.1200E+02
    -20.004  0.0000E+00  0.0000E+00  0.1200E+02  0.1200E+02
    -19.795  0.0000E+00  0.0000E+00  0.1200E+02  0.1200E+02
    -19.585  0.0000E+00  0.0000E+00  0.1200E+02  0.1200E+02
    -19.375  0.0000E+00  0.0000E+00  0.1200E+02  0.1200E+02
    -19.166  0.0000E+00  0.0000E+00  0.1200E+02  0.1200E+02
    -18.956  0.0000E+00  0.0000E+00  0.1200E+02  0.1200E+02
    -18.746  0.0000E+00  0.0000E+00  0.1200E+02  0.1200E+02
    -18.537  0.0000E+00  0.0000E+00  0.1200E+02  0.1200E+02
    -18.327  0.0000E+00  0.0000E+00  0.1200E+02  0.1200E+02
    -18.118  0.0000E+00  0.0000E+00  0.1200E+02  0.1200E+02
    -17.908  0.0000E+00  0.0000E+00  0.1200E+02  0.1200E+02
    -17.698  0.0000E+00  0.0000E+00  0.1200E+02  0.1200E+02
    -17.489  0.0000E+00  0.0000E+00  0.1200E+02  0.1200E+02
    -17.279  0.0000E+00  0.0000E+00  0.1200E+02  0.1200E+02
    -17.069  0.0000E+00  0.0000E+00  0.1200E+02  0.1200E+02
    -16.860  0.0000E+00  0.0000E+00  0.1200E+02  0.1200E+02
    -16.650  0.0000E+00  0.0000E+00  0.1200E+02  0.1200E+02
    -16.440  0.0000E+00  0.0000E+00  0.1200E+02  0.1200E+02
    -16.231  0.0000E+00  0.0000E+00  0.1200E+02  0.1200E+02
    -16.021  0.0000E+00  0.0000E+00  0.1200E+02  0.1200E+02
    -15.811  0.0000E+00  0.0000E+00  0.1200E+02  0.1200E+02
    -15.602  0.0000E+00  0.0000E+00  0.1200E+02  0.1200E+02
    -15.392  0.0000E+00  0.0000E+00  0.1200E+02  0.1200E+02
    -15.183  0.0000E+00  0.0000E+00  0.1200E+02  0.1200E+02
    -14.973  0.0000E+00  0.0000E+00  0.1200E+02  0.1200E+02
    -14.763  0.0000E+00  0.0000E+00  0.1200E+02  0.1200E+02
    -14.554  0.0000E+00  0.0000E+00  0.1200E+02  0.1200E+02
    -14.344  0.0000E+00  0.0000E+00  0.1200E+02  0.1200E+02
    -14.134  0.0000E+00  0.0000E+00  0.1200E+02  0.1200E+02
    -13.925  0.0000E+00  0.0000E+00  0.1200E+02  0.1200E+02
    -13.715  0.0000E+00  0.0000E+00  0.1200E+02  0.1200E+02
    -13.505  0.0000E+00  0.0000E+00  0.1200E+02  0.1200E+02
    -13.296  0.0000E+00  0.0000E+00  0.1200E+02  0.1200E+02
    -13.086  0.0000E+00  0.0000E+00  0.1200E+02  0.1200E+02
    -12.877  0.0000E+00  0.0000E+00  0.1200E+02  0.1200E+02
    -12.667  0.0000E+00  0.0000E+00  0.1200E+02  0.1200E+02
    -12.457  0.0000E+00  0.0000E+00  0.1200E+02  0.1200E+02
    -12.248  0.0000E+00  0.0000E+00  0.1200E+02  0.1200E+02
    -12.038  0.0000E+00  0.0000E+00  0.1200E+02  0.1200E+02
    -11.828  0.0000E+00  0.0000E+00  0.1200E+02  0.1200E+02
    -11.619  0.0000E+00  0.0000E+00  0.1200E+02  0.1200E+02
    -11.409  0.0000E+00  0.0000E+00  0.1200E+02  0.1200E+02
    -11.199  0.0000E+00  0.0000E+00  0.1200E+02  0.1200E+02
    -10.990  0.0000E+00  0.0000E+00  0.1200E+02  0.1200E+02
    -10.780  0.0000E+00  0.0000E+00  0.1200E+02  0.1200E+02
    -10.570  0.0000E+00  0.0000E+00  0.1200E+02  0.1200E+02
    -10.361  0.0000E+00  0.0000E+00  0.1200E+02  0.1200E+02
    -10.151  0.0000E+00  0.0000E+00  0.1200E+02  0.1200E+02
     -9.942  0.0000E+00  0.0000E+00  0.1200E+02  0.1200E+02
     -9.732  0.0000E+00  0.0000E+00  0.1200E+02  0.1200E+02
     -9.522  0.0000E+00  0.0000E+00  0.1200E+02  0.1200E+02
     -9.313  0.0000E+00  0.0000E+00  0.1200E+02  0.1200E+02
     -9.103  0.0000E+00  0.0000E+00  0.1200E+02  0.1200E+02
     -8.893  0.0000E+00  0.0000E+00  0.1200E+02  0.1200E+02
     -8.684  0.0000E+00  0.0000E+00  0.1200E+02  0.1200E+02
     -8.474  0.0000E+00  0.0000E+00  0.1200E+02  0.1200E+02
     -8.264  0.0000E+00  0.0000E+00  0.1200E+02  0.1200E+02
     -8.055  0.0000E+00  0.0000E+00  0.1200E+02  0.1200E+02
     -7.845  0.0000E+00  0.0000E+00  0.1200E+02  0.1200E+02
     -7.636  0.0000E+00  0.0000E+00  0.1200E+02  0.1200E+02
     -7.426  0.0000E+00  0.0000E+00  0.1200E+02  0.1200E+02
     -7.216  0.0000E+00  0.0000E+00  0.1200E+02  0.1200E+02
     -7.007  0.0000E+00  0.0000E+00  0.1200E+02  0.1200E+02
     -6.797  0.0000E+00  0.0000E+00  0.1200E+02  0.1200E+02
     -6.587  0.0000E+00  0.0000E+00  0.1200E+02  0.1200E+02
     -6.378  0.0000E+00  0.0000E+00  0.1200E+02  0.1200E+02
     -6.168  0.0000E+00  0.0000E+00  0.1200E+02  0.1200E+02
     -5.958  0.0000E+00  0.0000E+00  0.1200E+02  0.1200E+02
     -5.749  0.0000E+00  0.0000E+00  0.1200E+02  0.1200E+02
     -5.539  0.0000E+00  0.0000E+00  0.1200E+02  0.1200E+02
     -5.330  0.0000E+00  0.0000E+00  0.1200E+02  0.1200E+02
     -5.120  0.0000E+00  0.0000E+00  0.1200E+02  0.1200E+02
     -4.910  0.0000E+00  0.0000E+00  0.1200E+02  0.1200E+02
     -4.701  0.0000E+00  0.0000E+00  0.1200E+02  0.1200E+02
     -4.491  0.0000E+00  0.0000E+00  0.1200E+02  0.1200E+02
     -4.281  0.0000E+00  0.0000E+00  0.1200E+02  0.1200E+02
     -4.072  0.0000E+00  0.0000E+00  0.1200E+02  0.1200E+02
     -3.862  0.0000E+00  0.0000E+00  0.1200E+02  0.1200E+02
     -3.652  0.0000E+00  0.0000E+00  0.1200E+02  0.1200E+02
     -3.443  0.0000E+00  0.0000E+00  0.1200E+02  0.1200E+02
     -3.233  0.0000E+00  0.0000E+00  0.1200E+02  0.1200E+02
     -3.023  0.0000E+00  0.0000E+00  0.1200E+02  0.1200E+02
     -2.814  0.0000E+00  0.0000E+00  0.1200E+02  0.1200E+02
     -2.604  0.0000E+00  0.0000E+00  0.1200E+02  0.1200E+02
     -2.395  0.0000E+00  0.0000E+00  0.1200E+02  0.1200E+02
     -2.185  0.0000E+00  0.0000E+00  0.1200E+02  0.1200E+02
     -1.975  0.0000E+00  0.0000E+00  0.1200E+02  0.1200E+02
     -1.766  0.0000E+00  0.0000E+00  0.1200E+02  0.1200E+02
     -1.556  0.0000E+00  0.0000E+00  0.1200E+02  0.1200E+02
     -1.346  0.0000E+00  0.0000E+00  0.1200E+02  0.1200E+02
     -1.137  0.8212E-07  0.0000E+00  0.1200E+02  0.1200E+02
     -0.927  0.1574E-04  0.4284E-05  0.1200E+02  0.1200E+02
     -0.717  0.1024E-02  0.2881E-03  0.1200E+02  0.1200E+02
     -0.508  0.3974E-01  0.1522E-01  0.1201E+02  0.1200E+02
     -0.298  0.2057E+00  0.1570E+00  0.1205E+02  0.1204E+02
     -0.089  0.3793E+00  0.3178E+00  0.1213E+02  0.1210E+02
      0.121  0.3951E+00  0.3829E+00  0.1221E+02  0.1218E+02
      0.331  0.5572E+00  0.5504E+00  0.1233E+02  0.1230E+02
      0.540  0.5984E+00  0.5716E+00  0.1246E+02  0.1242E+02
      0.750  0.6050E+00  0.5656E+00  0.1259E+02  0.1254E+02
      0.960  0.8082E+00  0.8009E+00  0.1276E+02  0.1271E+02
      1.169  0.7238E+00  0.7903E+00  0.1291E+02  0.1287E+02
      1.379  0.8315E+00  0.6973E+00  0.1308E+02  0.1302E+02
      1.589  0.1031E+01  0.1042E+01  0.1330E+02  0.1324E+02
      1.798  0.8912E+00  0.9817E+00  0.1349E+02  0.1345E+02
      2.008  0.1083E+01  0.9730E+00  0.1372E+02  0.1365E+02
      2.218  0.1193E+01  0.1249E+01  0.1397E+02  0.1391E+02
      2.427  0.1134E+01  0.1077E+01  0.1420E+02  0.1414E+02
      2.637  0.1290E+01  0.1326E+01  0.1448E+02  0.1442E+02
      2.846  0.9356E+00  0.9888E+00  0.1467E+02  0.1463E+02
      3.056  0.1239E+01  0.1059E+01  0.1493E+02  0.1485E+02
      3.266  0.1206E+01  0.1263E+01  0.1519E+02  0.1512E+02
      3.475  0.1279E+01  0.1074E+01  0.1546E+02  0.1534E+02
      3.685  0.1417E+01  0.1491E+01  0.1576E+02  0.1566E+02
      3.895  0.1210E+01  0.1231E+01  0.1601E+02  0.1592E+02
      4.104  0.1368E+01  0.1229E+01  0.1630E+02  0.1618E+02
      4.314  0.1467E+01  0.1463E+01  0.1661E+02  0.1648E+02
      4.524  0.1743E+01  0.1593E+01  0.1698E+02  0.1682E+02
      4.733  0.1604E+01  0.1605E+01  0.1731E+02  0.1716E+02
      4.943  0.1518E+01  0.1516E+01  0.1763E+02  0.1748E+02
      5.152  0.1730E+01  0.1539E+01  0.1800E+02  0.1780E+02
      5.362  0.1571E+01  0.1683E+01  0.1833E+02  0.1816E+02
      5.572  0.1837E+01  0.1472E+01  0.1872E+02  0.1847E+02
      5.781  0.1937E+01  0.1921E+01  0.1912E+02  0.1887E+02
      5.991  0.1639E+01  0.1828E+01  0.1947E+02  0.1926E+02
      6.201  0.1775E+01  0.1603E+01  0.1984E+02  0.1959E+02
      6.410  0.2149E+01  0.1739E+01  0.2030E+02  0.1996E+02
      6.620  0.2166E+01  0.2101E+01  0.2075E+02  0.2040E+02
      6.830  0.2377E+01  0.2061E+01  0.2125E+02  0.2084E+02
      7.039  0.2320E+01  0.2327E+01  0.2174E+02  0.2133E+02
      7.249  0.2259E+01  0.2153E+01  0.2222E+02  0.2178E+02
      7.459  0.2630E+01  0.2117E+01  0.2277E+02  0.2223E+02
      7.668  0.2758E+01  0.2268E+01  0.2335E+02  0.2270E+02
      7.878  0.3110E+01  0.2536E+01  0.2401E+02  0.2324E+02
      8.087  0.3428E+01  0.2704E+01  0.2473E+02  0.2381E+02
      8.297  0.4145E+01  0.2900E+01  0.2560E+02  0.2442E+02
      8.507  0.4525E+01  0.2918E+01  0.2655E+02  0.2503E+02
      8.716  0.3588E+01  0.3584E+01  0.2731E+02  0.2579E+02
      8.926  0.3532E+01  0.3327E+01  0.2806E+02  0.2649E+02
      9.136  0.3555E+01  0.3579E+01  0.2881E+02  0.2724E+02
      9.345  0.4324E+01  0.3675E+01  0.2972E+02  0.2801E+02
      9.555  0.4672E+01  0.3462E+01  0.3070E+02  0.2874E+02
      9.765  0.6152E+01  0.3882E+01  0.3200E+02  0.2956E+02
      9.974  0.6571E+01  0.3513E+01  0.3338E+02  0.3030E+02
     10.184  0.6239E+01  0.4482E+01  0.3470E+02  0.3125E+02
     10.393  0.6206E+01  0.5380E+01  0.3601E+02  0.3238E+02
     10.603  0.5283E+01  0.5570E+01  0.3712E+02  0.3355E+02
     10.813  0.4423E+01  0.4996E+01  0.3805E+02  0.3461E+02
     11.022  0.3157E+01  0.4739E+01  0.3872E+02  0.3561E+02
     11.232  0.3678E+01  0.5087E+01  0.3950E+02  0.3668E+02
     11.442  0.5967E+01  0.3857E+01  0.4075E+02  0.3749E+02
     11.651  0.8575E+01  0.3554E+01  0.4255E+02  0.3824E+02
     11.861  0.6646E+01  0.2671E+01  0.4396E+02  0.3880E+02
     12.071  0.5177E+01  0.2347E+01  0.4505E+02  0.3930E+02
     12.280  0.4522E+01  0.3053E+01  0.4600E+02  0.3994E+02
     12.490  0.2584E+01  0.3010E+01  0.4655E+02  0.4058E+02
     12.699  0.2013E+01  0.2635E+01  0.4698E+02  0.4113E+02
     12.909  0.1941E+01  0.3863E+01  0.4739E+02  0.4195E+02
     13.119  0.1818E+01  0.7380E+01  0.4777E+02  0.4350E+02
     13.328  0.1416E+01  0.1166E+02  0.4807E+02  0.4594E+02
     13.538  0.2109E+01  0.6131E+01  0.4851E+02  0.4724E+02
     13.748  0.2362E+01  0.2960E+01  0.4901E+02  0.4787E+02
     13.957  0.3402E+01  0.2138E+01  0.4972E+02  0.4832E+02
     14.167  0.3247E+01  0.2713E+01  0.5041E+02  0.4890E+02
     14.377  0.4122E+01  0.2971E+01  0.5128E+02  0.4952E+02
     14.586  0.4161E+01  0.2919E+01  0.5215E+02  0.5014E+02
     14.796  0.3867E+01  0.3351E+01  0.5297E+02  0.5084E+02
     15.006  0.3345E+01  0.4518E+01  0.5367E+02  0.5179E+02
     15.215  0.3071E+01  0.3857E+01  0.5432E+02  0.5261E+02
     15.425  0.2774E+01  0.4059E+01  0.5490E+02  0.5346E+02
     15.634  0.2321E+01  0.3910E+01  0.5539E+02  0.5429E+02
     15.844  0.2178E+01  0.2956E+01  0.5585E+02  0.5491E+02
     16.054  0.2390E+01  0.2539E+01  0.5636E+02  0.5545E+02
     16.263  0.2206E+01  0.2545E+01  0.5682E+02  0.5599E+02
     16.473  0.2261E+01  0.2420E+01  0.5730E+02  0.5650E+02
     16.683  0.3381E+01  0.2238E+01  0.5801E+02  0.5697E+02
     16.892  0.3588E+01  0.2357E+01  0.5876E+02  0.5747E+02
     17.102  0.3823E+01  0.3502E+01  0.5957E+02  0.5820E+02
     17.312  0.3882E+01  0.4034E+01  0.6039E+02  0.5905E+02
     17.521  0.2730E+01  0.3692E+01  0.6096E+02  0.5983E+02
     17.731  0.2868E+01  0.3295E+01  0.6157E+02  0.6052E+02
     17.940  0.3651E+01  0.2746E+01  0.6234E+02  0.6110E+02
     18.150  0.2903E+01  0.4041E+01  0.6295E+02  0.6195E+02
     18.360  0.2103E+01  0.3385E+01  0.6340E+02  0.6267E+02
     18.569  0.2291E+01  0.2613E+01  0.6388E+02  0.6322E+02
     18.779  0.2907E+01  0.2521E+01  0.6449E+02  0.6375E+02
     18.989  0.2605E+01  0.2591E+01  0.6504E+02  0.6430E+02
     19.198  0.2415E+01  0.2559E+01  0.6555E+02  0.6484E+02
     19.408  0.3245E+01  0.2237E+01  0.6623E+02  0.6531E+02
     19.618  0.2382E+01  0.2506E+01  0.6673E+02  0.6583E+02
     19.827  0.2093E+01  0.2432E+01  0.6717E+02  0.6635E+02
     20.037  0.1325E+01  0.2688E+01  0.6746E+02  0.6691E+02
     20.247  0.1014E+01  0.1779E+01  0.6767E+02  0.6729E+02
     20.456  0.6876E+00  0.1361E+01  0.6782E+02  0.6758E+02
     20.666  0.5289E+00  0.9886E+00  0.6793E+02  0.6779E+02
     20.875  0.1344E+00  0.6079E+00  0.6796E+02  0.6792E+02
     21.085  0.7881E-01  0.2008E+00  0.6797E+02  0.6796E+02
     21.295  0.1137E+00  0.7592E-01  0.6800E+02  0.6798E+02
     21.504  0.7638E-02  0.1083E+00  0.6800E+02  0.6800E+02
     21.714  0.0000E+00  0.7023E-02  0.6800E+02  0.6800E+02
     21.924  0.0000E+00  0.0000E+00  0.6800E+02  0.6800E+02
     22.133  0.0000E+00  0.0000E+00  0.6800E+02  0.6800E+02
     22.343  0.0000E+00  0.0000E+00  0.6800E+02  0.6800E+02
     22.553  0.0000E+00  0.0000E+00  0.6800E+02  0.6800E+02
     22.762  0.0000E+00  0.0000E+00  0.6800E+02  0.6800E+02
     22.972  0.0000E+00  0.0000E+00  0.6800E+02  0.6800E+02
     23.181  0.0000E+00  0.0000E+00  0.6800E+02  0.6800E+02
     23.391  0.0000E+00  0.0000E+00  0.6800E+02  0.6800E+02
     23.601  0.0000E+00  0.0000E+00  0.6800E+02  0.6800E+02
     23.810  0.0000E+00  0.0000E+00  0.6800E+02  0.6800E+02
     24.020  0.0000E+00  0.0000E+00  0.6800E+02  0.6800E+02
     24.230  0.0000E+00  0.0000E+00  0.6800E+02  0.6800E+02
     24.22966777    -38.66218095  301     12.67575468      1.00000000
    -38.662  0.0000E+00  0.0000E+00  0.0000E+00  0.0000E+00  0.0000E+00  0.0000E+00  0.0000E+00  0.0000E+00  0.0000E+00  0.0000E+00  0.0000E+00  0.0000E+00  0.0000E+00  0.0000E+00  0.0000E+00  0.0000E+00  0.0000E+00  0.0000E+00
    -38.453  0.0000E+00  0.0000E+00  0.0000E+00  0.0000E+00  0.0000E+00  0.0000E+00  0.0000E+00  0.0000E+00  0.0000E+00  0.0000E+00  0.0000E+00  0.0000E+00  0.0000E+00  0.0000E+00  0.0000E+00  0.0000E+00  0.0000E+00  0.0000E+00
    -38.243  0.0000E+00  0.0000E+00  0.0000E+00  0.0000E+00  0.0000E+00  0.0000E+00  0.0000E+00  0.0000E+00  0.0000E+00  0.0000E+00  0.0000E+00  0.0000E+00  0.0000E+00  0.0000E+00  0.0000E+00  0.0000E+00  0.0000E+00  0.0000E+00
    -38.033  0.0000E+00  0.0000E+00  0.0000E+00  0.0000E+00  0.0000E+00  0.0000E+00  0.0000E+00  0.0000E+00  0.0000E+00  0.0000E+00  0.0000E+00  0.0000E+00  0.0000E+00  0.0000E+00  0.0000E+00  0.0000E+00  0.0000E+00  0.0000E+00
    -37.824  0.0000E+00  0.0000E+00  0.0000E+00  0.0000E+00  0.0000E+00  0.0000E+00  0.0000E+00  0.0000E+00  0.0000E+00  0.0000E+00  0.0000E+00  0.0000E+00  0.0000E+00  0.0000E+00  0.0000E+00  0.0000E+00  0.0000E+00  0.0000E+00
    -37.614  0.0000E+00  0.0000E+00  0.0000E+00  0.0000E+00  0.0000E+00  0.0000E+00  0.0000E+00  0.0000E+00  0.0000E+00  0.0000E+00  0.0000E+00  0.0000E+00  0.0000E+00  0.0000E+00  0.0000E+00  0.0000E+00  0.0000E+00  0.0000E+00
    -37.404  0.0000E+00  0.0000E+00  0.0000E+00  0.0000E+00  0.0000E+00  0.0000E+00  0.0000E+00  0.0000E+00  0.0000E+00  0.0000E+00  0.0000E+00  0.0000E+00  0.0000E+00  0.0000E+00  0.0000E+00  0.0000E+00  0.0000E+00  0.0000E+00
    -37.195  0.0000E+00  0.0000E+00  0.0000E+00  0.0000E+00  0.0000E+00  0.0000E+00  0.0000E+00  0.0000E+00  0.0000E+00  0.0000E+00  0.0000E+00  0.0000E+00  0.0000E+00  0.0000E+00  0.0000E+00  0.0000E+00  0.0000E+00  0.0000E+00
    -36.985  0.0000E+00  0.0000E+00  0.0000E+00  0.0000E+00  0.0000E+00  0.0000E+00  0.0000E+00  0.0000E+00  0.0000E+00  0.0000E+00  0.0000E+00  0.0000E+00  0.0000E+00  0.0000E+00  0.0000E+00  0.0000E+00  0.0000E+00  0.0000E+00
    -36.775  0.0000E+00  0.0000E+00  0.0000E+00  0.0000E+00  0.0000E+00  0.0000E+00  0.0000E+00  0.0000E+00  0.0000E+00  0.0000E+00  0.0000E+00  0.0000E+00  0.0000E+00  0.0000E+00  0.0000E+00  0.0000E+00  0.0000E+00  0.0000E+00
    -36.566  0.0000E+00  0.0000E+00  0.0000E+00  0.0000E+00  0.0000E+00  0.0000E+00  0.0000E+00  0.0000E+00  0.0000E+00  0.0000E+00  0.0000E+00  0.0000E+00  0.0000E+00  0.0000E+00  0.0000E+00  0.0000E+00  0.0000E+00  0.0000E+00
    -36.356  0.1019E-10  0.0000E+00  0.6401E-04  0.0000E+00  0.2072E-09  0.0000E+00  0.6401E-04  0.0000E+00  0.3909E-12  0.0000E+00  0.9849E-11  0.0000E+00  0.3757E-11  0.0000E+00  0.9849E-11  0.0000E+00  0.1116E-10  0.0000E+00
    -36.147  0.7541E-09  0.0000E+00  0.4170E-02  0.0000E+00  0.2858E-03  0.0000E+00  0.4170E-02  0.0000E+00  0.2548E-10  0.0000E+00  0.6425E-09  0.0000E+00  0.3368E-09  0.0000E+00  0.6425E-09  0.0000E+00  0.7273E-09  0.0000E+00
    -35.937  0.4734E-07  0.0000E+00  0.2605E+00  0.0000E+00  0.1856E-01  0.0000E+00  0.2605E+00  0.0000E+00  0.1587E-08  0.0000E+00  0.4014E-07  0.0000E+00  0.2127E-07  0.0000E+00  0.4014E-07  0.0000E+00  0.4546E-07  0.0000E+00
    -35.727  0.8636E-06  0.0000E+00  0.3505E+01  0.0000E+00  0.9716E+00  0.0000E+00  0.3505E+01  0.0000E+00  0.2052E-07  0.0000E+00  0.5417E-06  0.0000E+00  0.5175E-06  0.0000E+00  0.5417E-06  0.0000E+00  0.6149E-06  0.0000E+00
    -35.518  0.1243E-05  0.0000E+00  0.9514E+00  0.0000E+00  0.3492E+01  0.0000E+00  0.9514E+00  0.0000E+00  0.5425E-08  0.0000E+00  0.1566E-06  0.0000E+00  0.1155E-05  0.0000E+00  0.1566E-06  0.0000E+00  0.1672E-06  0.0000E+00
    -35.308  0.7858E-07  0.0000E+00  0.3946E-06  0.0000E+00  0.2525E+00  0.0000E+00  0.3946E-06  0.0000E+00  0.1021E-10  0.0000E+00  0.7527E-09  0.0000E+00  0.7828E-07  0.0000E+00  0.7527E-09  0.0000E+00  0.3731E-11  0.0000E+00
    -35.098  0.0000E+00  0.0000E+00  0.0000E+00  0.0000E+00  0.0000E+00  0.0000E+00  0.0000E+00  0.0000E+00  0.0000E+00  0.0000E+00  0.0000E+00  0.0000E+00  0.0000E+00  0.0000E+00  0.0000E+00  0.0000E+00  0.0000E+00  0.0000E+00
    -34.889  0.0000E+00  0.2506E-10  0.0000E+00  0.4046E-04  0.0000E+00  0.2629E-04  0.0000E+00  0.4046E-04  0.0000E+00  0.3182E-12  0.0000E+00  0.7903E-11  0.0000E+00  0.1690E-10  0.0000E+00  0.7903E-11  0.0000E+00  0.8305E-11
    -34.679  0.0000E+00  0.1633E-08  0.0000E+00  0.2637E-02  0.0000E+00  0.1714E-02  0.0000E+00  0.2637E-02  0.0000E+00  0.2074E-10  0.0000E+00  0.5150E-09  0.0000E+00  0.1102E-08  0.0000E+00  0.5150E-09  0.0000E+00  0.5413E-09
    -34.469  0.0000E+00  0.1052E-06  0.0000E+00  0.1682E+00  0.0000E+00  0.1107E+00  0.0000E+00  0.1682E+00  0.0000E+00  0.1320E-08  0.0000E+00  0.3286E-07  0.0000E+00  0.7106E-07  0.0000E+00  0.3286E-07  0.0000E+00  0.3454E-07
    -34.260  0.0000E+00  0.2470E-05  0.0000E+00  0.3197E+01  0.0000E+00  0.2809E+01  0.0000E+00  0.3197E+01  0.0000E+00  0.2412E-07  0.0000E+00  0.6272E-06  0.0000E+00  0.1725E-05  0.0000E+00  0.6272E-06  0.0000E+00  0.6607E-06
    -34.050  0.0000E+00  0.1436E-05  0.0000E+00  0.1343E+01  0.0000E+00  0.1774E+01  0.0000E+00  0.1343E+01  0.0000E+00  0.9585E-08  0.0000E+00  0.2655E-06  0.0000E+00  0.1038E-05  0.0000E+00  0.2655E-06  0.0000E+00  0.2781E-06
    -33.840  0.0000E+00  0.0000E+00  0.0000E+00  0.0000E+00  0.0000E+00  0.0000E+00  0.0000E+00  0.0000E+00  0.0000E+00  0.0000E+00  0.0000E+00  0.0000E+00  0.0000E+00  0.0000E+00  0.0000E+00  0.0000E+00  0.0000E+00  0.0000E+00
    -33.631  0.0000E+00  0.0000E+00  0.0000E+00  0.0000E+00  0.0000E+00  0.0000E+00  0.0000E+00  0.0000E+00  0.0000E+00  0.0000E+00  0.0000E+00  0.0000E+00  0.0000E+00  0.0000E+00  0.0000E+00  0.0000E+00  0.0000E+00  0.0000E+00
    -33.421  0.0000E+00  0.0000E+00  0.0000E+00  0.0000E+00  0.0000E+00  0.0000E+00  0.0000E+00  0.0000E+00  0.0000E+00  0.0000E+00  0.0000E+00  0.0000E+00  0.0000E+00  0.0000E+00  0.0000E+00  0.0000E+00  0.0000E+00  0.0000E+00
    -33.212  0.0000E+00  0.0000E+00  0.0000E+00  0.0000E+00  0.0000E+00  0.0000E+00  0.0000E+00  0.0000E+00  0.0000E+00  0.0000E+00  0.0000E+00  0.0000E+00  0.0000E+00  0.0000E+00  0.0000E+00  0.0000E+00  0.0000E+00  0.0000E+00
    -33.002  0.0000E+00  0.0000E+00  0.0000E+00  0.0000E+00  0.0000E+00  0.0000E+00  0.0000E+00  0.0000E+00  0.0000E+00  0.0000E+00  0.0000E+00  0.0000E+00  0.0000E+00  0.0000E+00  0.0000E+00  0.0000E+00  0.0000E+00  0.0000E+00
    -32.792  0.0000E+00  0.0000E+00  0.0000E+00  0.0000E+00  0.0000E+00  0.0000E+00  0.0000E+00  0.0000E+00  0.0000E+00  0.0000E+00  0.0000E+00  0.0000E+00  0.0000E+00  0.0000E+00  0.0000E+00  0.0000E+00  0.0000E+00  0.0000E+00
    -32.583  0.0000E+00  0.0000E+00  0.0000E+00  0.0000E+00  0.0000E+00  0.0000E+00  0.0000E+00  0.0000E+00  0.0000E+00  0.0000E+00  0.0000E+00  0.0000E+00  0.0000E+00  0.0000E+00  0.0000E+00  0.0000E+00  0.0000E+00  0.0000E+00
    -32.373  0.0000E+00  0.0000E+00  0.0000E+00  0.0000E+00  0.0000E+00  0.0000E+00  0.0000E+00  0.0000E+00  0.0000E+00  0.0000E+00  0.0000E+00  0.0000E+00  0.0000E+00  0.0000E+00  0.0000E+00  0.0000E+00  0.0000E+00  0.0000E+00
    -32.163  0.0000E+00  0.0000E+00  0.0000E+00  0.0000E+00  0.0000E+00  0.0000E+00  0.0000E+00  0.0000E+00  0.0000E+00  0.0000E+00  0.0000E+00  0.0000E+00  0.0000E+00  0.0000E+00  0.0000E+00  0.0000E+00  0.0000E+00  0.0000E+00
    -31.954  0.0000E+00  0.0000E+00  0.0000E+00  0.0000E+00  0.0000E+00  0.0000E+00  0.0000E+00  0.0000E+00  0.0000E+00  0.0000E+00  0.0000E+00  0.0000E+00  0.0000E+00  0.0000E+00  0.0000E+00  0.0000E+00  0.0000E+00  0.0000E+00
    -31.744  0.0000E+00  0.0000E+00  0.0000E+00  0.0000E+00  0.0000E+00  0.0000E+00  0.0000E+00  0.0000E+00  0.0000E+00  0.0000E+00  0.0000E+00  0.0000E+00  0.0000E+00  0.0000E+00  0.0000E+00  0.0000E+00  0.0000E+00  0.0000E+00
    -31.534  0.0000E+00  0.0000E+00  0.0000E+00  0.0000E+00  0.0000E+00  0.0000E+00  0.0000E+00  0.0000E+00  0.0000E+00  0.0000E+00  0.0000E+00  0.0000E+00  0.0000E+00  0.0000E+00  0.0000E+00  0.0000E+00  0.0000E+00  0.0000E+00
    -31.325  0.0000E+00  0.0000E+00  0.0000E+00  0.0000E+00  0.0000E+00  0.0000E+00  0.0000E+00  0.0000E+00  0.0000E+00  0.0000E+00  0.0000E+00  0.0000E+00  0.0000E+00  0.0000E+00  0.0000E+00  0.0000E+00  0.0000E+00  0.0000E+00
    -31.115  0.0000E+00  0.0000E+00  0.0000E+00  0.0000E+00  0.0000E+00  0.0000E+00  0.0000E+00  0.0000E+00  0.0000E+00  0.0000E+00  0.0000E+00  0.0000E+00  0.0000E+00  0.0000E+00  0.0000E+00  0.0000E+00  0.0000E+00  0.0000E+00
    -30.906  0.0000E+00  0.0000E+00  0.0000E+00  0.0000E+00  0.0000E+00  0.0000E+00  0.0000E+00  0.0000E+00  0.0000E+00  0.0000E+00  0.0000E+00  0.0000E+00  0.0000E+00  0.0000E+00  0.0000E+00  0.0000E+00  0.0000E+00  0.0000E+00
    -30.696  0.0000E+00  0.0000E+00  0.0000E+00  0.0000E+00  0.0000E+00  0.0000E+00  0.0000E+00  0.0000E+00  0.0000E+00  0.0000E+00  0.0000E+00  0.0000E+00  0.0000E+00  0.0000E+00  0.0000E+00  0.0000E+00  0.0000E+00  0.0000E+00
    -30.486  0.0000E+00  0.0000E+00  0.0000E+00  0.0000E+00  0.0000E+00  0.0000E+00  0.0000E+00  0.0000E+00  0.0000E+00  0.0000E+00  0.0000E+00  0.0000E+00  0.0000E+00  0.0000E+00  0.0000E+00  0.0000E+00  0.0000E+00  0.0000E+00
    -30.277  0.0000E+00  0.0000E+00  0.0000E+00  0.0000E+00  0.0000E+00  0.0000E+00  0.0000E+00  0.0000E+00  0.0000E+00  0.0000E+00  0.0000E+00  0.0000E+00  0.0000E+00  0.0000E+00  0.0000E+00  0.0000E+00  0.0000E+00  0.0000E+00
    -30.067  0.0000E+00  0.0000E+00  0.0000E+00  0.0000E+00  0.0000E+00  0.0000E+00  0.0000E+00  0.0000E+00  0.0000E+00  0.0000E+00  0.0000E+00  0.0000E+00  0.0000E+00  0.0000E+00  0.0000E+00  0.0000E+00  0.0000E+00  0.0000E+00
    -29.857  0.0000E+00  0.0000E+00  0.0000E+00  0.0000E+00  0.0000E+00  0.0000E+00  0.0000E+00  0.0000E+00  0.0000E+00  0.0000E+00  0.0000E+00  0.0000E+00  0.0000E+00  0.0000E+00  0.0000E+00  0.0000E+00  0.0000E+00  0.0000E+00
    -29.648  0.0000E+00  0.0000E+00  0.0000E+00  0.0000E+00  0.0000E+00  0.0000E+00  0.0000E+00  0.0000E+00  0.0000E+00  0.0000E+00  0.0000E+00  0.0000E+00  0.0000E+00  0.0000E+00  0.0000E+00  0.0000E+00  0.0000E+00  0.0000E+00
    -29.438  0.0000E+00  0.0000E+00  0.0000E+00  0.0000E+00  0.0000E+00  0.0000E+00  0.0000E+00  0.0000E+00  0.0000E+00  0.0000E+00  0.0000E+00  0.0000E+00  0.0000E+00  0.0000E+00  0.0000E+00  0.0000E+00  0.0000E+00  0.0000E+00
    -29.228  0.0000E+00  0.0000E+00  0.0000E+00  0.0000E+00  0.0000E+00  0.0000E+00  0.0000E+00  0.0000E+00  0.0000E+00  0.0000E+00  0.0000E+00  0.0000E+00  0.0000E+00  0.0000E+00  0.0000E+00  0.0000E+00  0.0000E+00  0.0000E+00
    -29.019  0.0000E+00  0.0000E+00  0.0000E+00  0.0000E+00  0.0000E+00  0.0000E+00  0.0000E+00  0.0000E+00  0.0000E+00  0.0000E+00  0.0000E+00  0.0000E+00  0.0000E+00  0.0000E+00  0.0000E+00  0.0000E+00  0.0000E+00  0.0000E+00
    -28.809  0.0000E+00  0.0000E+00  0.0000E+00  0.0000E+00  0.0000E+00  0.0000E+00  0.0000E+00  0.0000E+00  0.0000E+00  0.0000E+00  0.0000E+00  0.0000E+00  0.0000E+00  0.0000E+00  0.0000E+00  0.0000E+00  0.0000E+00  0.0000E+00
    -28.599  0.0000E+00  0.0000E+00  0.0000E+00  0.0000E+00  0.0000E+00  0.0000E+00  0.0000E+00  0.0000E+00  0.0000E+00  0.0000E+00  0.0000E+00  0.0000E+00  0.0000E+00  0.0000E+00  0.0000E+00  0.0000E+00  0.0000E+00  0.0000E+00
    -28.390  0.0000E+00  0.0000E+00  0.0000E+00  0.0000E+00  0.0000E+00  0.0000E+00  0.0000E+00  0.0000E+00  0.0000E+00  0.0000E+00  0.0000E+00  0.0000E+00  0.0000E+00  0.0000E+00  0.0000E+00  0.0000E+00  0.0000E+00  0.0000E+00
    -28.180  0.0000E+00  0.0000E+00  0.0000E+00  0.0000E+00  0.0000E+00  0.0000E+00  0.0000E+00  0.0000E+00  0.0000E+00  0.0000E+00  0.0000E+00  0.0000E+00  0.0000E+00  0.0000E+00  0.0000E+00  0.0000E+00  0.0000E+00  0.0000E+00