  16  16   1   0
  0.1504944E+02  0.3866156E-09  0.3866156E-09  0.1610949E-08  0.5000000E-15
  1.000000000000000E-004
  CAR 
 unknown system                          
     18.10765774    -43.26251680  301      8.55856265      1.00000000
    -43.263  0.0000E+00  0.0000E+00  0.0000E+00  0.0000E+00
    -43.058  0.0000E+00  0.0000E+00  0.0000E+00  0.0000E+00
    -42.853  0.0000E+00  0.0000E+00  0.0000E+00  0.0000E+00
    -42.649  0.0000E+00  0.0000E+00  0.0000E+00  0.0000E+00
    -42.444  0.0000E+00  0.0000E+00  0.0000E+00  0.0000E+00
    -42.240  0.0000E+00  0.0000E+00  0.0000E+00  0.0000E+00
    -42.035  0.0000E+00  0.0000E+00  0.0000E+00  0.0000E+00
    -41.831  0.0000E+00  0.0000E+00  0.0000E+00  0.0000E+00
    -41.626  0.0000E+00  0.0000E+00  0.0000E+00  0.0000E+00
    -41.421  0.0000E+00  0.0000E+00  0.0000E+00  0.0000E+00
    -41.217  0.0000E+00  0.0000E+00  0.0000E+00  0.0000E+00
    -41.012  0.7866E-03  0.0000E+00  0.1609E-03  0.0000E+00
    -40.808  0.5227E-01  0.0000E+00  0.1085E-01  0.0000E+00
    -40.603  0.2928E+01  0.0000E+00  0.6099E+00  0.0000E+00
    -40.399  0.3903E+02  0.0000E+00  0.8595E+01  0.0000E+00
    -40.194  0.1620E+02  0.0000E+00  0.1191E+02  0.0000E+00
    -39.989  0.0000E+00  0.0000E+00  0.1200E+02  0.0000E+00
    -39.785  0.0000E+00  0.0000E+00  0.1200E+02  0.0000E+00
    -39.580  0.0000E+00  0.0000E+00  0.1200E+02  0.0000E+00
    -39.376  0.0000E+00  0.0000E+00  0.1200E+02  0.0000E+00
    -39.171  0.0000E+00  0.0000E+00  0.1200E+02  0.0000E+00
    -38.967  0.0000E+00  0.0000E+00  0.1200E+02  0.0000E+00
    -38.762  0.0000E+00  0.2476E-03  0.1200E+02  0.5065E-04
    -38.557  0.0000E+00  0.2066E-01  0.1200E+02  0.4276E-02
    -38.353  0.0000E+00  0.1204E+01  0.1200E+02  0.2505E+00
    -38.148  0.0000E+00  0.3159E+02  0.1200E+02  0.6713E+01
    -37.944  0.0000E+00  0.2508E+02  0.1200E+02  0.1184E+02
    -37.739  0.0000E+00  0.0000E+00  0.1200E+02  0.1200E+02
    -37.535  0.0000E+00  0.0000E+00  0.1200E+02  0.1200E+02
    -37.330  0.0000E+00  0.0000E+00  0.1200E+02  0.1200E+02
    -37.125  0.0000E+00  0.0000E+00  0.1200E+02  0.1200E+02
    -36.921  0.0000E+00  0.0000E+00  0.1200E+02  0.1200E+02
    -36.716  0.0000E+00  0.0000E+00  0.1200E+02  0.1200E+02
    -36.512  0.0000E+00  0.0000E+00  0.1200E+02  0.1200E+02
    -36.307  0.0000E+00  0.0000E+00  0.1200E+02  0.1200E+02
    -36.103  0.0000E+00  0.0000E+00  0.1200E+02  0.1200E+02
    -35.898  0.0000E+00  0.0000E+00  0.1200E+02  0.1200E+02
    -35.694  0.0000E+00  0.0000E+00  0.1200E+02  0.1200E+02
    -35.489  0.0000E+00  0.0000E+00  0.1200E+02  0.1200E+02
    -35.284  0.0000E+00  0.0000E+00  0.1200E+02  0.1200E+02
    -35.080  0.0000E+00  0.0000E+00  0.1200E+02  0.1200E+02
    -34.875  0.0000E+00  0.0000E+00  0.1200E+02  0.1200E+02
    -34.671  0.0000E+00  0.0000E+00  0.1200E+02  0.1200E+02
    -34.466  0.0000E+00  0.0000E+00  0.1200E+02  0.1200E+02
    -34.262  0.0000E+00  0.0000E+00  0.1200E+02  0.1200E+02
    -34.057  0.0000E+00  0.0000E+00  0.1200E+02  0.1200E+02
    -33.852  0.0000E+00  0.0000E+00  0.1200E+02  0.1200E+02
    -33.648  0.0000E+00  0.0000E+00  0.1200E+02  0.1200E+02
    -33.443  0.0000E+00  0.0000E+00  0.1200E+02  0.1200E+02
    -33.239  0.0000E+00  0.0000E+00  0.1200E+02  0.1200E+02
    -33.034  0.0000E+00  0.0000E+00  0.1200E+02  0.1200E+02
    -32.830  0.0000E+00  0.0000E+00  0.1200E+02  0.1200E+02
    -32.625  0.0000E+00  0.0000E+00  0.1200E+02  0.1200E+02
    -32.420  0.0000E+00  0.0000E+00  0.1200E+02  0.1200E+02
    -32.216  0.0000E+00  0.0000E+00  0.1200E+02  0.1200E+02
    -32.011  0.0000E+00  0.0000E+00  0.1200E+02  0.1200E+02
    -31.807  0.0000E+00  0.0000E+00  0.1200E+02  0.1200E+02
    -31.602  0.0000E+00  0.0000E+00  0.1200E+02  0.1200E+02
    -31.398  0.0000E+00  0.0000E+00  0.1200E+02  0.1200E+02
    -31.193  0.0000E+00  0.0000E+00  0.1200E+02  0.1200E+02
    -30.988  0.0000E+00  0.0000E+00  0.1200E+02  0.1200E+02
    -30.784  0.0000E+00  0.0000E+00  0.1200E+02  0.1200E+02
    -30.579  0.0000E+00  0.0000E+00  0.1200E+02  0.1200E+02
    -30.375  0.0000E+00  0.0000E+00  0.1200E+02  0.1200E+02
    -30.170  0.0000E+00  0.0000E+00  0.1200E+02  0.1200E+02
    -29.966  0.0000E+00  0.0000E+00  0.1200E+02  0.1200E+02
    -29.761  0.0000E+00  0.0000E+00  0.1200E+02  0.1200E+02
    -29.557  0.0000E+00  0.0000E+00  0.1200E+02  0.1200E+02
    -29.352  0.0000E+00  0.0000E+00  0.1200E+02  0.1200E+02
    -29.147  0.0000E+00  0.0000E+00  0.1200E+02  0.1200E+02
    -28.943  0.0000E+00  0.0000E+00  0.1200E+02  0.1200E+02
    -28.738  0.0000E+00  0.0000E+00  0.1200E+02  0.1200E+02
    -28.534  0.0000E+00  0.0000E+00  0.1200E+02  0.1200E+02
    -28.329  0.0000E+00  0.0000E+00  0.1200E+02  0.1200E+02
    -28.125  0.0000E+00  0.0000E+00  0.1200E+02  0.1200E+02
    -27.920  0.0000E+00  0.0000E+00  0.1200E+02  0.1200E+02
    -27.715  0.0000E+00  0.0000E+00  0.1200E+02  0.1200E+02
    -27.511  0.0000E+00  0.0000E+00  0.1200E+02  0.1200E+02
    -27.306  0.0000E+00  0.0000E+00  0.1200E+02  0.1200E+02
    -27.102  0.0000E+00  0.0000E+00  0.1200E+02  0.1200E+02
    -26.897  0.0000E+00  0.0000E+00  0.1200E+02  0.1200E+02
    -26.693  0.0000E+00  0.0000E+00  0.1200E+02  0.1200E+02
    -26.488  0.0000E+00  0.0000E+00  0.1200E+02  0.1200E+02
    -26.283  0.0000E+00  0.0000E+00  0.1200E+02  0.1200E+02
    -26.079  0.0000E+00  0.0000E+00  0.1200E+02  0.1200E+02
    -25.874  0.0000E+00  0.0000E+00  0.1200E+02  0.1200E+02
    -25.670  0.0000E+00  0.0000E+00  0.1200E+02  0.1200E+02
    -25.465  0.0000E+00  0.0000E+00  0.1200E+02  0.1200E+02
    -25.261  0.0000E+00  0.0000E+00  0.1200E+02  0.1200E+02
    -25.056  0.0000E+00  0.0000E+00  0.1200E+02  0.1200E+02
    -24.851  0.0000E+00  0.0000E+00  0.1200E+02  0.1200E+02
    -24.647  0.0000E+00  0.0000E+00  0.1200E+02  0.1200E+02
    -24.442  0.0000E+00  0.0000E+00  0.1200E+02  0.1200E+02
    -24.238  0.0000E+00  0.0000E+00  0.1200E+02  0.1200E+02
    -24.033  0.0000E+00  0.0000E+00  0.1200E+02  0.1200E+02
    -23.829  0.0000E+00  0.0000E+00  0.1200E+02  0.1200E+02
    -23.624  0.0000E+00  0.0000E+00  0.1200E+02  0.1200E+02
    -23.419  0.0000E+00  0.0000E+00  0.1200E+02  0.1200E+02
    -23.215  0.0000E+00  0.0000E+00  0.1200E+02  0.1200E+02
    -23.010  0.0000E+00  0.0000E+00  0.1200E+02  0.1200E+02
    -22.806  0.0000E+00  0.0000E+00  0.1200E+02  0.1200E+02
    -22.601  0.0000E+00  0.0000E+00  0.1200E+02  0.1200E+02
    -22.397  0.0000E+00  0.0000E+00  0.1200E+02  0.1200E+02
    -22.192  0.0000E+00  0.0000E+00  0.1200E+02  0.1200E+02
    -21.988  0.0000E+00  0.0000E+00  0.1200E+02  0.1200E+02
    -21.783  0.0000E+00  0.0000E+00  0.1200E+02  0.1200E+02
    -21.578  0.0000E+00  0.0000E+00  0.1200E+02  0.1200E+02
    -21.374  0.0000E+00  0.0000E+00  0.1200E+02  0.1200E+02
    -21.169  0.0000E+00  0.0000E+00  0.1200E+02  0.1200E+02
    -20.965  0.0000E+00  0.0000E+00  0.1200E+02  0.1200E+02
    -20.760  0.0000E+00  0.0000E+00  0.1200E+02  0.1200E+02
    -20.556  0.0000E+00  0.0000E+00  0.1200E+02  0.1200E+02
    -20.351  0.0000E+00  0.0000E+00  0.1200E+02  0.1200E+02
    -20.146  0.0000E+00  0.0000E+00  0.1200E+02  0.1200E+02
    -19.942  0.0000E+00  0.0000E+00  0.1200E+02  0.1200E+02
    -19.737  0.0000E+00  0.0000E+00  0.1200E+02  0.1200E+02
    -19.533  0.0000E+00  0.0000E+00  0.1200E+02  0.1200E+02
    -19.328  0.0000E+00  0.0000E+00  0.1200E+02  0.1200E+02
    -19.124  0.0000E+00  0.0000E+00  0.1200E+02  0.1200E+02
    -18.919  0.0000E+00  0.0000E+00  0.1200E+02  0.1200E+02
    -18.714  0.0000E+00  0.0000E+00  0.1200E+02  0.1200E+02
    -18.510  0.0000E+00  0.0000E+00  0.1200E+02  0.1200E+02
    -18.305  0.0000E+00  0.0000E+00  0.1200E+02  0.1200E+02
    -18.101  0.0000E+00  0.0000E+00  0.1200E+02  0.1200E+02
    -17.896  0.0000E+00  0.0000E+00  0.1200E+02  0.1200E+02
    -17.692  0.0000E+00  0.0000E+00  0.1200E+02  0.1200E+02
    -17.487  0.0000E+00  0.0000E+00  0.1200E+02  0.1200E+02
    -17.282  0.0000E+00  0.0000E+00  0.1200E+02  0.1200E+02
    -17.078  0.0000E+00  0.0000E+00  0.1200E+02  0.1200E+02
    -16.873  0.0000E+00  0.0000E+00  0.1200E+02  0.1200E+02
    -16.669  0.0000E+00  0.0000E+00  0.1200E+02  0.1200E+02
    -16.464  0.0000E+00  0.0000E+00  0.1200E+02  0.1200E+02
    -16.260  0.0000E+00  0.0000E+00  0.1200E+02  0.1200E+02
    -16.055  0.0000E+00  0.0000E+00  0.1200E+02  0.1200E+02
    -15.851  0.0000E+00  0.0000E+00  0.1200E+02  0.1200E+02
    -15.646  0.0000E+00  0.0000E+00  0.1200E+02  0.1200E+02
    -15.441  0.0000E+00  0.0000E+00  0.1200E+02  0.1200E+02
    -15.237  0.0000E+00  0.0000E+00  0.1200E+02  0.1200E+02
    -15.032  0.0000E+00  0.0000E+00  0.1200E+02  0.1200E+02
    -14.828  0.0000E+00  0.0000E+00  0.1200E+02  0.1200E+02
    -14.623  0.0000E+00  0.0000E+00  0.1200E+02  0.1200E+02
    -14.419  0.0000E+00  0.0000E+00  0.1200E+02  0.1200E+02
    -14.214  0.0000E+00  0.0000E+00  0.1200E+02  0.1200E+02
    -14.009  0.0000E+00  0.0000E+00  0.1200E+02  0.1200E+02
    -13.805  0.0000E+00  0.0000E+00  0.1200E+02  0.1200E+02
    -13.600  0.0000E+00  0.0000E+00  0.1200E+02  0.1200E+02
    -13.396  0.0000E+00  0.0000E+00  0.1200E+02  0.1200E+02
    -13.191  0.0000E+00  0.0000E+00  0.1200E+02  0.1200E+02
    -12.987  0.0000E+00  0.0000E+00  0.1200E+02  0.1200E+02
    -12.782  0.0000E+00  0.0000E+00  0.1200E+02  0.1200E+02
    -12.577  0.0000E+00  0.0000E+00  0.1200E+02  0.1200E+02
    -12.373  0.0000E+00  0.0000E+00  0.1200E+02  0.1200E+02
    -12.168  0.0000E+00  0.0000E+00  0.1200E+02  0.1200E+02
    -11.964  0.0000E+00  0.0000E+00  0.1200E+02  0.1200E+02
    -11.759  0.0000E+00  0.0000E+00  0.1200E+02  0.1200E+02
    -11.555  0.0000E+00  0.0000E+00  0.1200E+02  0.1200E+02
    -11.350  0.0000E+00  0.0000E+00  0.1200E+02  0.1200E+02
    -11.145  0.0000E+00  0.0000E+00  0.1200E+02  0.1200E+02
    -10.941  0.0000E+00  0.0000E+00  0.1200E+02  0.1200E+02
    -10.736  0.0000E+00  0.0000E+00  0.1200E+02  0.1200E+02
    -10.532  0.0000E+00  0.0000E+00  0.1200E+02  0.1200E+02
    -10.327  0.0000E+00  0.0000E+00  0.1200E+02  0.1200E+02
    -10.123  0.0000E+00  0.0000E+00  0.1200E+02  0.1200E+02
     -9.918  0.0000E+00  0.0000E+00  0.1200E+02  0.1200E+02
     -9.713  0.0000E+00  0.0000E+00  0.1200E+02  0.1200E+02
     -9.509  0.0000E+00  0.0000E+00  0.1200E+02  0.1200E+02
     -9.304  0.0000E+00  0.0000E+00  0.1200E+02  0.1200E+02
     -9.100  0.0000E+00  0.0000E+00  0.1200E+02  0.1200E+02
     -8.895  0.0000E+00  0.0000E+00  0.1200E+02  0.1200E+02
     -8.691  0.0000E+00  0.0000E+00  0.1200E+02  0.1200E+02
     -8.486  0.0000E+00  0.0000E+00  0.1200E+02  0.1200E+02
     -8.282  0.0000E+00  0.0000E+00  0.1200E+02  0.1200E+02
     -8.077  0.0000E+00  0.0000E+00  0.1200E+02  0.1200E+02
     -7.872  0.0000E+00  0.0000E+00  0.1200E+02  0.1200E+02
     -7.668  0.0000E+00  0.0000E+00  0.1200E+02  0.1200E+02
     -7.463  0.0000E+00  0.0000E+00  0.1200E+02  0.1200E+02
     -7.259  0.0000E+00  0.0000E+00  0.1200E+02  0.1200E+02
     -7.054  0.0000E+00  0.0000E+00  0.1200E+02  0.1200E+02
     -6.850  0.0000E+00  0.0000E+00  0.1200E+02  0.1200E+02
     -6.645  0.0000E+00  0.0000E+00  0.1200E+02  0.1200E+02
     -6.440  0.0000E+00  0.0000E+00  0.1200E+02  0.1200E+02
     -6.236  0.0000E+00  0.0000E+00  0.1200E+02  0.1200E+02
     -6.031  0.0000E+00  0.0000E+00  0.1200E+02  0.1200E+02
     -5.827  0.0000E+00  0.0000E+00  0.1200E+02  0.1200E+02
     -5.622  0.0000E+00  0.0000E+00  0.1200E+02  0.1200E+02
     -5.418  0.0000E+00  0.0000E+00  0.1200E+02  0.1200E+02
     -5.213  0.0000E+00  0.0000E+00  0.1200E+02  0.1200E+02
     -5.008  0.0000E+00  0.0000E+00  0.1200E+02  0.1200E+02
     -4.804  0.0000E+00  0.0000E+00  0.1200E+02  0.1200E+02
     -4.599  0.0000E+00  0.0000E+00  0.1200E+02  0.1200E+02
     -4.395  0.0000E+00  0.0000E+00  0.1200E+02  0.1200E+02
     -4.190  0.0000E+00  0.0000E+00  0.1200E+02  0.1200E+02
     -3.986  0.0000E+00  0.0000E+00  0.1200E+02  0.1200E+02
     -3.781  0.0000E+00  0.0000E+00  0.1200E+02  0.1200E+02
     -3.576  0.0000E+00  0.0000E+00  0.1200E+02  0.1200E+02
     -3.372  0.0000E+00  0.0000E+00  0.1200E+02  0.1200E+02
     -3.167  0.0000E+00  0.0000E+00  0.1200E+02  0.1200E+02
     -2.963  0.1172E-06  0.1499E-06  0.1200E+02  0.1200E+02
     -2.758  0.2872E-04  0.3706E-04  0.1200E+02  0.1200E+02
     -2.554  0.1706E-02  0.2185E-02  0.1200E+02  0.1200E+02
     -2.349  0.6055E-01  0.7133E-01  0.1201E+02  0.1202E+02
     -2.144  0.2971E+00  0.3145E+00  0.1207E+02  0.1208E+02
     -1.940  0.4975E+00  0.5012E+00  0.1218E+02  0.1218E+02
     -1.735  0.6517E+00  0.6686E+00  0.1231E+02  0.1232E+02
     -1.531  0.7238E+00  0.7355E+00  0.1246E+02  0.1247E+02
     -1.326  0.8296E+00  0.8622E+00  0.1263E+02  0.1265E+02
     -1.122  0.9912E+00  0.9966E+00  0.1283E+02  0.1285E+02
     -0.917  0.9060E+00  0.9443E+00  0.1302E+02  0.1305E+02
     -0.713  0.1242E+01  0.1276E+01  0.1327E+02  0.1331E+02
     -0.508  0.1160E+01  0.1154E+01  0.1351E+02  0.1354E+02
     -0.303  0.1383E+01  0.1492E+01  0.1379E+02  0.1385E+02
     -0.099  0.1425E+01  0.1396E+01  0.1409E+02  0.1414E+02
      0.106  0.1509E+01  0.1510E+01  0.1440E+02  0.1445E+02
      0.310  0.1207E+01  0.1112E+01  0.1465E+02  0.1468E+02
      0.515  0.1358E+01  0.1422E+01  0.1492E+02  0.1497E+02
      0.719  0.1436E+01  0.1290E+01  0.1522E+02  0.1523E+02
      0.924  0.1603E+01  0.1547E+01  0.1555E+02  0.1555E+02
      1.129  0.1564E+01  0.1539E+01  0.1587E+02  0.1587E+02
      1.333  0.1604E+01  0.1550E+01  0.1620E+02  0.1619E+02
      1.538  0.1871E+01  0.1880E+01  0.1658E+02  0.1657E+02
      1.742  0.2003E+01  0.1956E+01  0.1700E+02  0.1697E+02
      1.947  0.1901E+01  0.1845E+01  0.1739E+02  0.1735E+02
      2.151  0.1802E+01  0.1741E+01  0.1776E+02  0.1771E+02
      2.356  0.1982E+01  0.1928E+01  0.1816E+02  0.1811E+02
      2.561  0.1980E+01  0.1676E+01  0.1857E+02  0.1845E+02
      2.765  0.2480E+01  0.2439E+01  0.1908E+02  0.1895E+02
      2.970  0.1985E+01  0.1958E+01  0.1949E+02  0.1936E+02
      3.174  0.2237E+01  0.2064E+01  0.1995E+02  0.1978E+02
      3.379  0.2539E+01  0.2347E+01  0.2047E+02  0.2026E+02
      3.583  0.2719E+01  0.2330E+01  0.2103E+02  0.2074E+02
      3.788  0.2750E+01  0.2550E+01  0.2159E+02  0.2126E+02
      3.993  0.2372E+01  0.2297E+01  0.2208E+02  0.2174E+02
      4.197  0.2845E+01  0.2243E+01  0.2266E+02  0.2220E+02
      4.402  0.2923E+01  0.2442E+01  0.2327E+02  0.2270E+02
      4.606  0.3337E+01  0.2760E+01  0.2395E+02  0.2327E+02
      4.811  0.3773E+01  0.2798E+01  0.2473E+02  0.2384E+02
      5.015  0.4421E+01  0.2984E+01  0.2563E+02  0.2445E+02
      5.220  0.5013E+01  0.3117E+01  0.2666E+02  0.2509E+02
      5.424  0.5379E+01  0.3307E+01  0.2777E+02  0.2577E+02
      5.629  0.5150E+01  0.3434E+01  0.2883E+02  0.2648E+02
      5.834  0.6073E+01  0.3655E+01  0.3007E+02  0.2723E+02
      6.038  0.8120E+01  0.4052E+01  0.3174E+02  0.2806E+02
      6.243  0.9872E+01  0.3517E+01  0.3377E+02  0.2879E+02
      6.447  0.9946E+01  0.3867E+01  0.3581E+02  0.2958E+02
      6.652  0.8444E+01  0.4268E+01  0.3754E+02  0.3046E+02
      6.856  0.7701E+01  0.5075E+01  0.3913E+02  0.3150E+02
      7.061  0.1196E+02  0.5399E+01  0.4158E+02  0.3261E+02
      7.266  0.7716E+01  0.5634E+01  0.4317E+02  0.3377E+02
      7.470  0.6763E+01  0.5523E+01  0.4456E+02  0.3490E+02
      7.675  0.5258E+01  0.5558E+01  0.4564E+02  0.3605E+02
      7.879  0.3939E+01  0.5138E+01  0.4645E+02  0.3710E+02
      8.084  0.2223E+01  0.4040E+01  0.4691E+02  0.3793E+02
      8.288  0.2369E+01  0.4109E+01  0.4740E+02  0.3878E+02
      8.493  0.2523E+01  0.3976E+01  0.4792E+02  0.3959E+02
      8.698  0.3693E+01  0.4541E+01  0.4868E+02  0.4053E+02
      8.902  0.4798E+01  0.4648E+01  0.4966E+02  0.4148E+02
      9.107  0.4832E+01  0.7535E+01  0.5065E+02  0.4303E+02
      9.311  0.3963E+01  0.1181E+02  0.5147E+02  0.4545E+02
      9.516  0.3691E+01  0.1148E+02  0.5223E+02  0.4781E+02
      9.720  0.3855E+01  0.4915E+01  0.5302E+02  0.4883E+02
      9.925  0.2937E+01  0.4737E+01  0.5362E+02  0.4980E+02
     10.130  0.3141E+01  0.5848E+01  0.5427E+02  0.5100E+02
     10.334  0.3596E+01  0.6468E+01  0.5501E+02  0.5233E+02
     10.539  0.3769E+01  0.5299E+01  0.5578E+02  0.5342E+02
     10.743  0.3510E+01  0.4427E+01  0.5650E+02  0.5433E+02
     10.948  0.3567E+01  0.4646E+01  0.5724E+02  0.5529E+02
     11.152  0.3461E+01  0.3723E+01  0.5795E+02  0.5605E+02
     11.357  0.4082E+01  0.3551E+01  0.5879E+02  0.5679E+02
     11.562  0.3708E+01  0.4499E+01  0.5955E+02  0.5771E+02
     11.766  0.3985E+01  0.5207E+01  0.6037E+02  0.5878E+02
     11.971  0.3347E+01  0.4700E+01  0.6106E+02  0.5975E+02
     12.175  0.3390E+01  0.4164E+01  0.6176E+02  0.6060E+02
     12.380  0.3222E+01  0.3278E+01  0.6242E+02  0.6128E+02
     12.584  0.3378E+01  0.3875E+01  0.6311E+02  0.6207E+02
     12.789  0.3242E+01  0.3885E+01  0.6378E+02  0.6287E+02
     12.993  0.3165E+01  0.3201E+01  0.6443E+02  0.6353E+02
     13.198  0.3678E+01  0.3158E+01  0.6518E+02  0.6418E+02
     13.403  0.3598E+01  0.3421E+01  0.6592E+02  0.6488E+02
     13.607  0.3209E+01  0.3934E+01  0.6659E+02  0.6569E+02
     13.812  0.2111E+01  0.2998E+01  0.6702E+02  0.6631E+02
     14.016  0.1852E+01  0.2772E+01  0.6740E+02  0.6688E+02
     14.221  0.8571E+00  0.2078E+01  0.6758E+02  0.6730E+02
     14.425  0.7680E+00  0.1403E+01  0.6774E+02  0.6759E+02
     14.630  0.6674E+00  0.8919E+00  0.6787E+02  0.6778E+02
     14.835  0.3249E+00  0.5769E+00  0.6794E+02  0.6790E+02
     15.039  0.2495E+00  0.3627E+00  0.6799E+02  0.6797E+02
     15.244  0.3296E-01  0.1041E+00  0.6800E+02  0.6799E+02
     15.448  0.0000E+00  0.3049E-01  0.6800E+02  0.6800E+02
     15.653  0.0000E+00  0.2610E-02  0.6800E+02  0.6800E+02
     15.857  0.0000E+00  0.0000E+00  0.6800E+02  0.6800E+02
     16.062  0.0000E+00  0.0000E+00  0.6800E+02  0.6800E+02
     16.267  0.0000E+00  0.0000E+00  0.6800E+02  0.6800E+02
     16.471  0.0000E+00  0.0000E+00  0.6800E+02  0.6800E+02
     16.676  0.0000E+00  0.0000E+00  0.6800E+02  0.6800E+02
     16.880  0.0000E+00  0.0000E+00  0.6800E+02  0.6800E+02
     17.085  0.0000E+00  0.0000E+00  0.6800E+02  0.6800E+02
     17.289  0.0000E+00  0.0000E+00  0.6800E+02  0.6800E+02
     17.494  0.0000E+00  0.0000E+00  0.6800E+02  0.6800E+02
     17.699  0.0000E+00  0.0000E+00  0.6800E+02  0.6800E+02
     17.903  0.0000E+00  0.0000E+00  0.6800E+02  0.6800E+02
     18.108  0.0000E+00  0.0000E+00  0.6800E+02  0.6800E+02
     18.10765774    -43.26251680  301      8.55856265      1.00000000
    -43.263  0.0000E+00  0.0000E+00  0.0000E+00  0.0000E+00  0.0000E+00  0.0000E+00  0.0000E+00  0.0000E+00  0.0000E+00  0.0000E+00  0.0000E+00  0.0000E+00  0.0000E+00  0.0000E+00  0.0000E+00  0.0000E+00  0.0000E+00  0.0000E+00
    -43.058  0.0000E+00  0.0000E+00  0.0000E+00  0.0000E+00  0.0000E+00  0.0000E+00  0.0000E+00  0.0000E+00  0.0000E+00  0.0000E+00  0.0000E+00  0.0000E+00  0.0000E+00  0.0000E+00  0.0000E+00  0.0000E+00  0.0000E+00  0.0000E+00
    -42.853  0.0000E+00  0.0000E+00  0.0000E+00  0.0000E+00  0.0000E+00  0.0000E+00  0.0000E+00  0.0000E+00  0.0000E+00  0.0000E+00  0.0000E+00  0.0000E+00  0.0000E+00  0.0000E+00  0.0000E+00  0.0000E+00  0.0000E+00  0.0000E+00
    -42.649  0.0000E+00  0.0000E+00  0.0000E+00  0.0000E+00  0.0000E+00  0.0000E+00  0.0000E+00  0.0000E+00  0.0000E+00  0.0000E+00  0.0000E+00  0.0000E+00  0.0000E+00  0.0000E+00  0.0000E+00  0.0000E+00  0.0000E+00  0.0000E+00
    -42.444  0.0000E+00  0.0000E+00  0.0000E+00  0.0000E+00  0.0000E+00  0.0000E+00  0.0000E+00  0.0000E+00  0.0000E+00  0.0000E+00  0.0000E+00  0.0000E+00  0.0000E+00  0.0000E+00  0.0000E+00  0.0000E+00  0.0000E+00  0.0000E+00
    -42.240  0.0000E+00  0.0000E+00  0.0000E+00  0.0000E+00  0.0000E+00  0.0000E+00  0.0000E+00  0.0000E+00  0.0000E+00  0.0000E+00  0.0000E+00  0.0000E+00  0.0000E+00  0.0000E+00  0.0000E+00  0.0000E+00  0.0000E+00  0.0000E+00
    -42.035  0.0000E+00  0.0000E+00  0.0000E+00  0.0000E+00  0.0000E+00  0.0000E+00  0.0000E+00  0.0000E+00  0.0000E+00  0.0000E+00  0.0000E+00  0.0000E+00  0.0000E+00  0.0000E+00  0.0000E+00  0.0000E+00  0.0000E+00  0.0000E+00
    -41.831  0.0000E+00  0.0000E+00  0.0000E+00  0.0000E+00  0.0000E+00  0.0000E+00  0.0000E+00  0.0000E+00  0.0000E+00  0.0000E+00  0.0000E+00  0.0000E+00  0.0000E+00  0.0000E+00  0.0000E+00  0.0000E+00  0.0000E+00  0.0000E+00
    -41.626  0.0000E+00  0.0000E+00  0.0000E+00  0.0000E+00  0.0000E+00  0.0000E+00  0.0000E+00  0.0000E+00  0.0000E+00  0.0000E+00  0.0000E+00  0.0000E+00  0.0000E+00  0.0000E+00  0.0000E+00  0.0000E+00  0.0000E+00  0.0000E+00
    -41.421  0.0000E+00  0.0000E+00  0.0000E+00  0.0000E+00  0.0000E+00  0.0000E+00  0.0000E+00  0.0000E+00  0.0000E+00  0.0000E+00  0.0000E+00  0.0000E+00  0.0000E+00  0.0000E+00  0.0000E+00  0.0000E+00  0.0000E+00  0.0000E+00
    -41.217  0.0000E+00  0.0000E+00  0.0000E+00  0.0000E+00  0.0000E+00  0.0000E+00  0.0000E+00  0.0000E+00  0.0000E+00  0.0000E+00  0.0000E+00  0.0000E+00  0.0000E+00  0.0000E+00  0.0000E+00  0.0000E+00  0.0000E+00  0.0000E+00
    -41.012  0.4861E-12  0.0000E+00  0.9775E-04  0.0000E+00  0.1553E-10  0.0000E+00  0.9775E-04  0.0000E+00  0.1416E-13  0.0000E+00  0.9818E-11  0.0000E+00  0.1808E-12  0.0000E+00  0.9818E-11  0.0000E+00  0.5383E-12  0.0000E+00
    -40.808  0.4404E-09  0.0000E+00  0.5743E-02  0.0000E+00  0.1505E-02  0.0000E+00  0.5743E-02  0.0000E+00  0.8352E-12  0.0000E+00  0.5769E-09  0.0000E+00  0.3410E-09  0.0000E+00  0.5769E-09  0.0000E+00  0.3163E-10  0.0000E+00
    -40.603  0.2538E-07  0.0000E+00  0.3205E+00  0.0000E+00  0.8691E-01  0.0000E+00  0.3205E+00  0.0000E+00  0.4661E-10  0.0000E+00  0.3220E-07  0.0000E+00  0.1967E-07  0.0000E+00  0.3220E-07  0.0000E+00  0.1765E-08  0.0000E+00
    -40.399  0.6928E-06  0.0000E+00  0.3618E+01  0.0000E+00  0.2466E+01  0.0000E+00  0.3618E+01  0.0000E+00  0.5287E-09  0.0000E+00  0.3635E-06  0.0000E+00  0.5480E-06  0.0000E+00  0.3635E-06  0.0000E+00  0.1993E-07  0.0000E+00
    -40.194  0.6151E-06  0.0000E+00  0.8974E+00  0.0000E+00  0.2233E+01  0.0000E+00  0.8974E+00  0.0000E+00  0.1343E-09  0.0000E+00  0.9031E-07  0.0000E+00  0.4914E-06  0.0000E+00  0.9031E-07  0.0000E+00  0.4945E-08  0.0000E+00
    -39.989  0.0000E+00  0.0000E+00  0.0000E+00  0.0000E+00  0.0000E+00  0.0000E+00  0.0000E+00  0.0000E+00  0.0000E+00  0.0000E+00  0.0000E+00  0.0000E+00  0.0000E+00  0.0000E+00  0.0000E+00  0.0000E+00  0.0000E+00  0.0000E+00
    -39.785  0.0000E+00  0.0000E+00  0.0000E+00  0.0000E+00  0.0000E+00  0.0000E+00  0.0000E+00  0.0000E+00  0.0000E+00  0.0000E+00  0.0000E+00  0.0000E+00  0.0000E+00  0.0000E+00  0.0000E+00  0.0000E+00  0.0000E+00  0.0000E+00
    -39.580  0.0000E+00  0.0000E+00  0.0000E+00  0.0000E+00  0.0000E+00  0.0000E+00  0.0000E+00  0.0000E+00  0.0000E+00  0.0000E+00  0.0000E+00  0.0000E+00  0.0000E+00  0.0000E+00  0.0000E+00  0.0000E+00  0.0000E+00  0.0000E+00
    -39.376  0.0000E+00  0.0000E+00  0.0000E+00  0.0000E+00  0.0000E+00  0.0000E+00  0.0000E+00  0.0000E+00  0.0000E+00  0.0000E+00  0.0000E+00  0.0000E+00  0.0000E+00  0.0000E+00  0.0000E+00  0.0000E+00  0.0000E+00  0.0000E+00
    -39.171  0.0000E+00  0.0000E+00  0.0000E+00  0.0000E+00  0.0000E+00  0.0000E+00  0.0000E+00  0.0000E+00  0.0000E+00  0.0000E+00  0.0000E+00  0.0000E+00  0.0000E+00  0.0000E+00  0.0000E+00  0.0000E+00  0.0000E+00  0.0000E+00
    -38.967  0.0000E+00  0.0000E+00  0.0000E+00  0.0000E+00  0.0000E+00  0.0000E+00  0.0000E+00  0.0000E+00  0.0000E+00  0.0000E+00  0.0000E+00  0.0000E+00  0.0000E+00  0.0000E+00  0.0000E+00  0.0000E+00  0.0000E+00  0.0000E+00
    -38.762  0.0000E+00  0.2190E-12  0.0000E+00  0.3077E-04  0.0000E+00  0.3853E-09  0.0000E+00  0.3077E-04  0.0000E+00  0.6800E-14  0.0000E+00  0.2293E-11  0.0000E+00  0.7305E-13  0.0000E+00  0.2293E-11  0.0000E+00  0.2169E-12
    -38.557  0.0000E+00  0.3819E-09  0.0000E+00  0.1809E-02  0.0000E+00  0.1516E-02  0.0000E+00  0.1809E-02  0.0000E+00  0.4032E-12  0.0000E+00  0.1350E-09  0.0000E+00  0.2709E-09  0.0000E+00  0.1350E-09  0.0000E+00  0.1275E-10
    -38.353  0.0000E+00  0.2206E-07  0.0000E+00  0.1058E+00  0.0000E+00  0.8754E-01  0.0000E+00  0.1058E+00  0.0000E+00  0.2358E-10  0.0000E+00  0.7897E-08  0.0000E+00  0.1564E-07  0.0000E+00  0.7897E-08  0.0000E+00  0.7460E-09
    -38.148  0.0000E+00  0.6217E-06  0.0000E+00  0.2689E+01  0.0000E+00  0.2475E+01  0.0000E+00  0.2689E+01  0.0000E+00  0.5987E-09  0.0000E+00  0.2006E-06  0.0000E+00  0.4415E-06  0.0000E+00  0.2006E-06  0.0000E+00  0.1895E-07
    -37.944  0.0000E+00  0.5562E-06  0.0000E+00  0.2005E+01  0.0000E+00  0.2225E+01  0.0000E+00  0.2005E+01  0.0000E+00  0.4459E-09  0.0000E+00  0.1496E-06  0.0000E+00  0.3959E-06  0.0000E+00  0.1496E-06  0.0000E+00  0.1413E-07
    -37.739  0.0000E+00  0.0000E+00  0.0000E+00  0.0000E+00  0.0000E+00  0.0000E+00  0.0000E+00  0.0000E+00  0.0000E+00  0.0000E+00  0.0000E+00  0.0000E+00  0.0000E+00  0.0000E+00  0.0000E+00  0.0000E+00  0.0000E+00  0.0000E+00
    -37.535  0.0000E+00  0.0000E+00  0.0000E+00  0.0000E+00  0.0000E+00  0.0000E+00  0.0000E+00  0.0000E+00  0.0000E+00  0.0000E+00  0.0000E+00  0.0000E+00  0.0000E+00  0.0000E+00  0.0000E+00  0.0000E+00  0.0000E+00  0.0000E+00
    -37.330  0.0000E+00  0.0000E+00  0.0000E+00  0.0000E+00  0.0000E+00  0.0000E+00  0.0000E+00  0.0000E+00  0.0000E+00  0.0000E+00  0.0000E+00  0.0000E+00  0.0000E+00  0.0000E+00  0.0000E+00  0.0000E+00  0.0000E+00  0.0000E+00
    -37.125  0.0000E+00  0.0000E+00  0.0000E+00  0.0000E+00  0.0000E+00  0.0000E+00  0.0000E+00  0.0000E+00  0.0000E+00  0.0000E+00  0.0000E+00  0.0000E+00  0.0000E+00  0.0000E+00  0.0000E+00  0.0000E+00  0.0000E+00  0.0000E+00
    -36.921  0.0000E+00  0.0000E+00  0.0000E+00  0.0000E+00  0.0000E+00  0.0000E+00  0.0000E+00  0.0000E+00  0.0000E+00  0.0000E+00  0.0000E+00  0.0000E+00  0.0000E+00  0.0000E+00  0.0000E+00  0.0000E+00  0.0000E+00  0.0000E+00
    -36.716  0.0000E+00  0.0000E+00  0.0000E+00  0.0000E+00  0.0000E+00  0.0000E+00  0.0000E+00  0.0000E+00  0.0000E+00  0.0000E+00  0.0000E+00  0.0000E+00  0.0000E+00  0.0000E+00  0.0000E+00  0.0000E+00  0.0000E+00  0.0000E+00
    -36.512  0.0000E+00  0.0000E+00  0.0000E+00  0.0000E+00  0.0000E+00  0.0000E+00  0.0000E+00  0.0000E+00  0.0000E+00  0.0000E+00  0.0000E+00  0.0000E+00  0.0000E+00  0.0000E+00  0.0000E+00  0.0000E+00  0.0000E+00  0.0000E+00
    -36.307  0.0000E+00  0.0000E+00  0.0000E+00  0.0000E+00  0.0000E+00  0.0000E+00  0.0000E+00  0.0000E+00  0.0000E+00  0.0000E+00  0.0000E+00  0.0000E+00  0.0000E+00  0.0000E+00  0.0000E+00  0.0000E+00  0.0000E+00  0.0000E+00
    -36.103  0.0000E+00  0.0000E+00  0.0000E+00  0.0000E+00  0.0000E+00  0.0000E+00  0.0000E+00  0.0000E+00  0.0000E+00  0.0000E+00  0.0000E+00  0.0000E+00  0.0000E+00  0.0000E+00  0.0000E+00  0.0000E+00  0.0000E+00  0.0000E+00
    -35.898  0.0000E+00  0.0000E+00  0.0000E+00  0.0000E+00  0.0000E+00  0.0000E+00  0.0000E+00  0.0000E+00  0.0000E+00  0.0000E+00  0.0000E+00  0.0000E+00  0.0000E+00  0.0000E+00  0.0000E+00  0.0000E+00  0.0000E+00  0.0000E+00
    -35.694  0.0000E+00  0.0000E+00  0.0000E+00  0.0000E+00  0.0000E+00  0.0000E+00  0.0000E+00  0.0000E+00  0.0000E+00  0.0000E+00  0.0000E+00  0.0000E+00  0.0000E+00  0.0000E+00  0.0000E+00  0.0000E+00  0.0000E+00  0.0000E+00
    -35.489  0.0000E+00  0.0000E+00  0.0000E+00  0.0000E+00  0.0000E+00  0.0000E+00  0.0000E+00  0.0000E+00  0.0000E+00  0.0000E+00  0.0000E+00  0.0000E+00  0.0000E+00  0.0000E+00  0.0000E+00  0.0000E+00  0.0000E+00  0.0000E+00
    -35.284  0.0000E+00  0.0000E+00  0.0000E+00  0.0000E+00  0.0000E+00  0.0000E+00  0.0000E+00  0.0000E+00  0.0000E+00  0.0000E+00  0.0000E+00  0.0000E+00  0.0000E+00  0.0000E+00  0.0000E+00  0.0000E+00  0.0000E+00  0.0000E+00
    -35.080  0.0000E+00  0.0000E+00  0.0000E+00  0.0000E+00  0.0000E+00  0.0000E+00  0.0000E+00  0.0000E+00  0.0000E+00  0.0000E+00  0.0000E+00  0.0000E+00  0.0000E+00  0.0000E+00  0.0000E+00  0.0000E+00  0.0000E+00  0.0000E+00
    -34.875  0.0000E+00  0.0000E+00  0.0000E+00  0.0000E+00  0.0000E+00  0.0000E+00  0.0000E+00  0.0000E+00  0.0000E+00  0.0000E+00  0.0000E+00  0.0000E+00  0.0000E+00  0.0000E+00  0.0000E+00  0.0000E+00  0.0000E+00  0.0000E+00
    -34.671  0.0000E+00  0.0000E+00  0.0000E+00  0.0000E+00  0.0000E+00  0.0000E+00  0.0000E+00  0.0000E+00  0.0000E+00  0.0000E+00  0.0000E+00  0.0000E+00  0.0000E+00  0.0000E+00  0.0000E+00  0.0000E+00  0.0000E+00  0.0000E+00
    -34.466  0.0000E+00  0.0000E+00  0.0000E+00  0.0000E+00  0.0000E+00  0.0000E+00  0.0000E+00  0.0000E+00  0.0000E+00  0.0000E+00  0.0000E+00  0.0000E+00  0.0000E+00  0.0000E+00  0.0000E+00  0.0000E+00  0.0000E+00  0.0000E+00
    -34.262  0.0000E+00  0.0000E+00  0.0000E+00  0.0000E+00  0.0000E+00  0.0000E+00  0.0000E+00  0.0000E+00  0.0000E+00  0.0000E+00  0.0000E+00  0.0000E+00  0.0000E+00  0.0000E+00  0.0000E+00  0.0000E+00  0.0000E+00  0.0000E+00
    -34.057  0.0000E+00  0.0000E+00  0.0000E+00  0.0000E+00  0.0000E+00  0.0000E+00  0.0000E+00  0.0000E+00  0.0000E+00  0.0000E+00  0.0000E+00  0.0000E+00  0.0000E+00  0.0000E+00  0.0000E+00  0.0000E+00  0.0000E+00  0.0000E+00
    -33.852  0.0000E+00  0.0000E+00  0.0000E+00  0.0000E+00  0.0000E+00  0.0000E+00  0.0000E+00  0.0000E+00  0.0000E+00  0.0000E+00  0.0000E+00  0.0000E+00  0.0000E+00  0.0000E+00  0.0000E+00  0.0000E+00  0.0000E+00  0.0000E+00
    -33.648  0.0000E+00  0.0000E+00  0.0000E+00  0.0000E+00  0.0000E+00  0.0000E+00  0.0000E+00  0.0000E+00  0.0000E+00  0.0000E+00  0.0000E+00  0.0000E+00  0.0000E+00  0.0000E+00  0.0000E+00  0.0000E+00  0.0000E+00  0.0000E+00
    -33.443  0.0000E+00  0.0000E+00  0.0000E+00  0.0000E+00  0.0000E+00  0.0000E+00  0.0000E+00  0.0000E+00  0.0000E+00  0.0000E+00  0.0000E+00  0.0000E+00  0.0000E+00  0.0000E+00  0.0000E+00  0.0000E+00  0.0000E+00  0.0000E+00
    -33.239  0.0000E+00  0.0000E+00  0.0000E+00  0.0000E+00  0.0000E+00  0.0000E+00  0.0000E+00  0.0000E+00  0.0000E+00  0.0000E+00  0.0000E+00  0.0000E+00  0.0000E+00  0.0000E+00  0.0000E+00  0.0000E+00  0.0000E+00  0.0000E+00
    -33.034  0.0000E+00  0.0000E+00  0.0000E+00  0.0000E+00  0.0000E+00  0.0000E+00  0.0000E+00  0.0000E+00  0.0000E+00  0.0000E+00  0.0000E+00  0.0000E+00  0.0000E+00  0.0000E+00  0.0000E+00  0.0000E+00  0.0000E+00  0.0000E+00