   4   4   1   0
  0.1295929E+02  0.3728611E-09  0.3728611E-09  0.3728611E-09  0.5000000E-15
  1.000000000000000E-004
  CAR 
 unknown system                          
     29.58109661      1.44475246  301     14.48540237      1.00000000
      1.445  0.0000E+00  0.0000E+00  0.0000E+00  0.0000E+00
      1.539  0.0000E+00  0.0000E+00  0.0000E+00  0.0000E+00
      1.632  0.0000E+00  0.0000E+00  0.0000E+00  0.0000E+00
      1.726  0.0000E+00  0.0000E+00  0.0000E+00  0.0000E+00
      1.820  0.0000E+00  0.0000E+00  0.0000E+00  0.0000E+00
      1.914  0.0000E+00  0.0000E+00  0.0000E+00  0.0000E+00
      2.007  0.0000E+00  0.0000E+00  0.0000E+00  0.0000E+00
      2.101  0.0000E+00  0.0000E+00  0.0000E+00  0.0000E+00
      2.195  0.0000E+00  0.0000E+00  0.0000E+00  0.0000E+00
      2.289  0.6554E-04  0.6599E-04  0.6147E-05  0.6189E-05
      2.383  0.3618E-03  0.3643E-03  0.4008E-04  0.4035E-04
      2.476  0.2345E-02  0.2361E-02  0.2600E-03  0.2618E-03
      2.570  0.1464E-01  0.1474E-01  0.1633E-02  0.1644E-02
      2.664  0.7396E-01  0.7433E-01  0.8569E-02  0.8615E-02
      2.758  0.1703E+00  0.1704E+00  0.2454E-01  0.2460E-01
      2.852  0.1046E+00  0.1042E+00  0.3436E-01  0.3437E-01
      2.945  0.2391E-01  0.2376E-01  0.3660E-01  0.3660E-01
      3.039  0.3943E-02  0.3916E-02  0.3697E-01  0.3697E-01
      3.133  0.3423E-03  0.3447E-03  0.3707E-01  0.3707E-01
      3.227  0.1888E-02  0.1901E-02  0.3725E-01  0.3725E-01
      3.321  0.1217E-01  0.1226E-01  0.3839E-01  0.3840E-01
      3.414  0.7367E-01  0.7414E-01  0.4530E-01  0.4535E-01
      3.508  0.3193E+00  0.3206E+00  0.7524E-01  0.7542E-01
      3.602  0.5093E+00  0.5089E+00  0.1230E+00  0.1231E+00
      3.696  0.2172E+00  0.2161E+00  0.1434E+00  0.1434E+00
      3.789  0.4286E-01  0.4258E-01  0.1474E+00  0.1474E+00
      3.883  0.7557E-02  0.7515E-02  0.1481E+00  0.1481E+00
      3.977  0.4701E-02  0.4733E-02  0.1487E+00  0.1487E+00
      4.071  0.2978E-01  0.2998E-01  0.1515E+00  0.1515E+00
      4.165  0.1626E+00  0.1635E+00  0.1667E+00  0.1668E+00
      4.258  0.4738E+00  0.4746E+00  0.2112E+00  0.2113E+00
      4.352  0.3893E+00  0.3880E+00  0.2477E+00  0.2477E+00
      4.446  0.1058E+00  0.1052E+00  0.2576E+00  0.2576E+00
      4.540  0.3349E-01  0.3346E-01  0.2607E+00  0.2607E+00
      4.634  0.8229E-01  0.8262E-01  0.2684E+00  0.2685E+00
      4.727  0.1858E+00  0.1860E+00  0.2859E+00  0.2860E+00
      4.821  0.1874E+00  0.1876E+00  0.3035E+00  0.3036E+00
      4.915  0.3751E+00  0.3763E+00  0.3387E+00  0.3389E+00
      5.009  0.4999E+00  0.4993E+00  0.3856E+00  0.3857E+00
      5.102  0.1938E+00  0.1928E+00  0.4038E+00  0.4038E+00
      5.196  0.6040E-01  0.6028E-01  0.4095E+00  0.4095E+00
      5.290  0.1554E+00  0.1561E+00  0.4240E+00  0.4241E+00
      5.384  0.7215E+00  0.7244E+00  0.4918E+00  0.4922E+00
      5.478  0.1717E+01  0.1719E+01  0.6528E+00  0.6534E+00
      5.571  0.1543E+01  0.1541E+01  0.7975E+00  0.7979E+00
      5.665  0.1539E+01  0.1539E+01  0.9419E+00  0.9422E+00
      5.759  0.1288E+01  0.1286E+01  0.1063E+01  0.1063E+01
      5.853  0.4733E+00  0.4719E+00  0.1107E+01  0.1107E+01
      5.947  0.3483E+00  0.3493E+00  0.1140E+01  0.1140E+01
      6.040  0.1064E+01  0.1067E+01  0.1240E+01  0.1241E+01
      6.134  0.2126E+01  0.2128E+01  0.1440E+01  0.1440E+01
      6.228  0.3082E+01  0.3085E+01  0.1729E+01  0.1730E+01
      6.322  0.3288E+01  0.3286E+01  0.2037E+01  0.2038E+01
      6.416  0.2014E+01  0.2011E+01  0.2226E+01  0.2226E+01
      6.509  0.2245E+01  0.2249E+01  0.2437E+01  0.2437E+01
      6.603  0.3495E+01  0.3495E+01  0.2765E+01  0.2765E+01
      6.697  0.2196E+01  0.2191E+01  0.2971E+01  0.2971E+01
      6.791  0.1463E+01  0.1463E+01  0.3108E+01  0.3109E+01
      6.884  0.2097E+01  0.2097E+01  0.3305E+01  0.3305E+01
      6.978  0.1508E+01  0.1507E+01  0.3447E+01  0.3448E+01
      7.072  0.1744E+01  0.1748E+01  0.3611E+01  0.3612E+01
      7.166  0.3499E+01  0.3502E+01  0.3939E+01  0.3940E+01
      7.260  0.4004E+01  0.4002E+01  0.4315E+01  0.4316E+01
      7.353  0.2162E+01  0.2157E+01  0.4518E+01  0.4518E+01
      7.447  0.1137E+01  0.1138E+01  0.4624E+01  0.4625E+01
      7.541  0.1533E+01  0.1534E+01  0.4769E+01  0.4769E+01
      7.635  0.1061E+01  0.1059E+01  0.4869E+01  0.4869E+01
      7.729  0.6993E+00  0.6998E+00  0.4935E+01  0.4935E+01
      7.822  0.1481E+01  0.1484E+01  0.5074E+01  0.5074E+01
      7.916  0.2424E+01  0.2427E+01  0.5301E+01  0.5302E+01
      8.010  0.2793E+01  0.2792E+01  0.5563E+01  0.5564E+01
      8.104  0.2318E+01  0.2318E+01  0.5781E+01  0.5781E+01
      8.197  0.2045E+01  0.2044E+01  0.5973E+01  0.5973E+01
      8.291  0.1742E+01  0.1741E+01  0.6136E+01  0.6136E+01
      8.385  0.1827E+01  0.1827E+01  0.6308E+01  0.6308E+01
      8.479  0.1526E+01  0.1525E+01  0.6451E+01  0.6451E+01
      8.573  0.1193E+01  0.1193E+01  0.6563E+01  0.6563E+01
      8.666  0.1927E+01  0.1931E+01  0.6744E+01  0.6744E+01
      8.760  0.3736E+01  0.3739E+01  0.7094E+01  0.7095E+01
      8.854  0.3640E+01  0.3638E+01  0.7436E+01  0.7436E+01
      8.948  0.3122E+01  0.3120E+01  0.7729E+01  0.7729E+01
      9.042  0.2135E+01  0.2132E+01  0.7929E+01  0.7929E+01
      9.135  0.9071E+00  0.9062E+00  0.8014E+01  0.8014E+01
      9.229  0.1017E+01  0.1019E+01  0.8110E+01  0.8110E+01
      9.323  0.2075E+01  0.2078E+01  0.8305E+01  0.8305E+01
      9.417  0.3672E+01  0.3676E+01  0.8649E+01  0.8650E+01
      9.511  0.4417E+01  0.4415E+01  0.9064E+01  0.9064E+01
      9.604  0.3104E+01  0.3100E+01  0.9355E+01  0.9355E+01
      9.698  0.1911E+01  0.1909E+01  0.9534E+01  0.9535E+01
      9.792  0.2279E+01  0.2280E+01  0.9748E+01  0.9748E+01
      9.886  0.2991E+01  0.2994E+01  0.1003E+02  0.1003E+02
      9.979  0.3170E+01  0.3170E+01  0.1033E+02  0.1033E+02
     10.073  0.2596E+01  0.2595E+01  0.1057E+02  0.1057E+02
     10.167  0.3966E+01  0.3969E+01  0.1094E+02  0.1094E+02
     10.261  0.4715E+01  0.4714E+01  0.1139E+02  0.1139E+02
     10.355  0.3671E+01  0.3670E+01  0.1173E+02  0.1173E+02
     10.448  0.2603E+01  0.2602E+01  0.1197E+02  0.1197E+02
     10.542  0.1762E+01  0.1761E+01  0.1214E+02  0.1214E+02
     10.636  0.1537E+01  0.1537E+01  0.1228E+02  0.1228E+02
     10.730  0.2452E+01  0.2453E+01  0.1251E+02  0.1252E+02
     10.824  0.2485E+01  0.2483E+01  0.1275E+02  0.1275E+02
     10.917  0.1396E+01  0.1394E+01  0.1288E+02  0.1288E+02
     11.011  0.1174E+01  0.1174E+01  0.1299E+02  0.1299E+02
     11.105  0.1482E+01  0.1482E+01  0.1313E+02  0.1313E+02
     11.199  0.1679E+01  0.1679E+01  0.1329E+02  0.1329E+02
     11.292  0.2040E+01  0.2041E+01  0.1348E+02  0.1348E+02
     11.386  0.1737E+01  0.1738E+01  0.1364E+02  0.1364E+02
     11.480  0.1083E+01  0.1082E+01  0.1374E+02  0.1374E+02
     11.574  0.1271E+01  0.1272E+01  0.1386E+02  0.1386E+02
     11.668  0.2682E+01  0.2683E+01  0.1411E+02  0.1411E+02
     11.761  0.3186E+01  0.3186E+01  0.1441E+02  0.1441E+02
     11.855  0.3311E+01  0.3313E+01  0.1472E+02  0.1472E+02
     11.949  0.3724E+01  0.3726E+01  0.1507E+02  0.1507E+02
     12.043  0.3482E+01  0.3480E+01  0.1540E+02  0.1540E+02
     12.137  0.2591E+01  0.2589E+01  0.1564E+02  0.1564E+02
     12.230  0.1260E+01  0.1258E+01  0.1576E+02  0.1576E+02
     12.324  0.6314E+00  0.6305E+00  0.1582E+02  0.1582E+02
     12.418  0.4368E+00  0.4368E+00  0.1586E+02  0.1586E+02
     12.512  0.7545E+00  0.7550E+00  0.1593E+02  0.1593E+02
     12.606  0.1452E+01  0.1453E+01  0.1607E+02  0.1607E+02
     12.699  0.1728E+01  0.1729E+01  0.1623E+02  0.1623E+02
     12.793  0.2055E+01  0.2056E+01  0.1642E+02  0.1643E+02
     12.887  0.2155E+01  0.2154E+01  0.1663E+02  0.1663E+02
     12.981  0.1785E+01  0.1785E+01  0.1679E+02  0.1679E+02
     13.074  0.2382E+01  0.2383E+01  0.1702E+02  0.1702E+02
     13.168  0.3224E+01  0.3224E+01  0.1732E+02  0.1732E+02
     13.262  0.3162E+01  0.3160E+01  0.1762E+02  0.1762E+02
     13.356  0.1836E+01  0.1834E+01  0.1779E+02  0.1779E+02
     13.450  0.9194E+00  0.9194E+00  0.1788E+02  0.1788E+02
     13.543  0.6142E+00  0.6134E+00  0.1793E+02  0.1793E+02
     13.637  0.6498E+00  0.6498E+00  0.1800E+02  0.1800E+02
     13.731  0.8038E+00  0.8041E+00  0.1807E+02  0.1807E+02
     13.825  0.1567E+01  0.1568E+01  0.1822E+02  0.1822E+02
     13.919  0.2605E+01  0.2608E+01  0.1846E+02  0.1846E+02
     14.012  0.3698E+01  0.3700E+01  0.1881E+02  0.1881E+02
     14.106  0.3352E+01  0.3348E+01  0.1912E+02  0.1912E+02
     14.200  0.2351E+01  0.2350E+01  0.1934E+02  0.1934E+02
     14.294  0.2550E+01  0.2551E+01  0.1958E+02  0.1958E+02
     14.387  0.2483E+01  0.2482E+01  0.1982E+02  0.1982E+02
     14.481  0.1877E+01  0.1876E+01  0.1999E+02  0.1999E+02
     14.575  0.1646E+01  0.1646E+01  0.2015E+02  0.2015E+02
     14.669  0.1380E+01  0.1380E+01  0.2028E+02  0.2028E+02
     14.763  0.2029E+01  0.2032E+01  0.2047E+02  0.2047E+02
     14.856  0.2772E+01  0.2773E+01  0.2073E+02  0.2073E+02
     14.950  0.2459E+01  0.2458E+01  0.2096E+02  0.2096E+02
     15.044  0.2282E+01  0.2281E+01  0.2117E+02  0.2117E+02
     15.138  0.1998E+01  0.1996E+01  0.2136E+02  0.2136E+02
     15.232  0.1378E+01  0.1376E+01  0.2149E+02  0.2149E+02
     15.325  0.5575E+00  0.5560E+00  0.2154E+02  0.2154E+02
     15.419  0.1173E+00  0.1169E+00  0.2155E+02  0.2155E+02
     15.513  0.2135E-01  0.2129E-01  0.2156E+02  0.2156E+02
     15.607  0.1578E-01  0.1588E-01  0.2156E+02  0.2156E+02
     15.701  0.8109E-01  0.8165E-01  0.2156E+02  0.2156E+02
     15.794  0.3390E+00  0.3404E+00  0.2160E+02  0.2160E+02
     15.888  0.5019E+00  0.5013E+00  0.2164E+02  0.2164E+02
     15.982  0.2013E+00  0.2001E+00  0.2166E+02  0.2166E+02
     16.076  0.4090E-01  0.4063E-01  0.2167E+02  0.2167E+02
     16.169  0.2079E-01  0.2083E-01  0.2167E+02  0.2167E+02
     16.263  0.9137E-01  0.9191E-01  0.2168E+02  0.2168E+02
     16.357  0.4574E+00  0.4594E+00  0.2172E+02  0.2172E+02
     16.451  0.1031E+01  0.1031E+01  0.2182E+02  0.2182E+02
     16.545  0.6426E+00  0.6404E+00  0.2188E+02  0.2188E+02
     16.638  0.3149E+00  0.3149E+00  0.2191E+02  0.2191E+02
     16.732  0.7382E+00  0.7400E+00  0.2198E+02  0.2198E+02
     16.826  0.1012E+01  0.1011E+01  0.2207E+02  0.2207E+02
     16.920  0.5222E+00  0.5214E+00  0.2212E+02  0.2212E+02
     17.014  0.7343E+00  0.7362E+00  0.2219E+02  0.2219E+02
     17.107  0.1264E+01  0.1265E+01  0.2231E+02  0.2231E+02
     17.201  0.9655E+00  0.9640E+00  0.2240E+02  0.2240E+02
     17.295  0.3965E+00  0.3951E+00  0.2244E+02  0.2244E+02
     17.389  0.8371E-01  0.8328E-01  0.2244E+02  0.2244E+02
     17.482  0.1225E-01  0.1220E-01  0.2244E+02  0.2244E+02
     17.576  0.5680E-02  0.5724E-02  0.2245E+02  0.2245E+02
     17.670  0.3620E-01  0.3647E-01  0.2245E+02  0.2245E+02
     17.764  0.1973E+00  0.1985E+00  0.2247E+02  0.2247E+02
     17.858  0.6051E+00  0.6066E+00  0.2252E+02  0.2252E+02
     17.951  0.8252E+00  0.8251E+00  0.2260E+02  0.2260E+02
     18.045  0.8145E+00  0.8139E+00  0.2268E+02  0.2268E+02
     18.139  0.6868E+00  0.6859E+00  0.2274E+02  0.2274E+02
     18.233  0.3062E+00  0.3050E+00  0.2277E+02  0.2277E+02
     18.327  0.6416E-01  0.6384E-01  0.2278E+02  0.2278E+02
     18.420  0.1288E-01  0.1284E-01  0.2278E+02  0.2278E+02
     18.514  0.2096E-01  0.2107E-01  0.2278E+02  0.2278E+02
     18.608  0.1282E+00  0.1288E+00  0.2279E+02  0.2279E+02
     18.702  0.5832E+00  0.5851E+00  0.2285E+02  0.2285E+02
     18.795  0.1035E+01  0.1034E+01  0.2294E+02  0.2294E+02
     18.889  0.5005E+00  0.4988E+00  0.2299E+02  0.2299E+02
     18.983  0.1999E+00  0.2002E+00  0.2301E+02  0.2301E+02
     19.077  0.5097E+00  0.5124E+00  0.2306E+02  0.2306E+02
     19.171  0.1036E+01  0.1036E+01  0.2315E+02  0.2316E+02
     19.264  0.5864E+00  0.5836E+00  0.2321E+02  0.2321E+02
     19.358  0.2101E+00  0.2096E+00  0.2323E+02  0.2323E+02
     19.452  0.4556E+00  0.4573E+00  0.2327E+02  0.2327E+02
     19.546  0.1049E+01  0.1050E+01  0.2337E+02  0.2337E+02
     19.640  0.8314E+00  0.8300E+00  0.2345E+02  0.2345E+02
     19.733  0.8881E+00  0.8888E+00  0.2353E+02  0.2353E+02
     19.827  0.9972E+00  0.9962E+00  0.2363E+02  0.2363E+02
     19.921  0.3540E+00  0.3529E+00  0.2366E+02  0.2366E+02
     20.015  0.6601E-01  0.6575E-01  0.2367E+02  0.2367E+02
     20.109  0.1045E-01  0.1041E-01  0.2367E+02  0.2367E+02
     20.202  0.0000E+00  0.0000E+00  0.2367E+02  0.2367E+02
     20.296  0.0000E+00  0.0000E+00  0.2367E+02  0.2367E+02
     20.390  0.0000E+00  0.0000E+00  0.2367E+02  0.2367E+02
     20.484  0.0000E+00  0.0000E+00  0.2367E+02  0.2367E+02
     20.577  0.3938E-03  0.3947E-03  0.2367E+02  0.2367E+02
     20.671  0.2171E-02  0.2176E-02  0.2367E+02  0.2367E+02
     20.765  0.1438E-01  0.1441E-01  0.2367E+02  0.2367E+02
     20.859  0.8589E-01  0.8608E-01  0.2368E+02  0.2368E+02
     20.953  0.3605E+00  0.3610E+00  0.2371E+02  0.2371E+02
     21.046  0.5936E+00  0.5938E+00  0.2377E+02  0.2377E+02
     21.140  0.7125E+00  0.7141E+00  0.2383E+02  0.2383E+02
     21.234  0.1589E+01  0.1592E+01  0.2398E+02  0.2398E+02
     21.328  0.1762E+01  0.1761E+01  0.2415E+02  0.2415E+02
     21.422  0.1379E+01  0.1378E+01  0.2428E+02  0.2428E+02
     21.515  0.7482E+00  0.7478E+00  0.2435E+02  0.2435E+02
     21.609  0.8428E+00  0.8439E+00  0.2443E+02  0.2443E+02
     21.703  0.9206E+00  0.9197E+00  0.2451E+02  0.2451E+02
     21.797  0.3717E+00  0.3704E+00  0.2455E+02  0.2455E+02
     21.890  0.7464E-01  0.7430E-01  0.2455E+02  0.2455E+02
     21.984  0.1201E-01  0.1195E-01  0.2456E+02  0.2456E+02
     22.078  0.0000E+00  0.0000E+00  0.2456E+02  0.2456E+02
     22.172  0.0000E+00  0.0000E+00  0.2456E+02  0.2456E+02
     22.266  0.9884E-03  0.9930E-03  0.2456E+02  0.2456E+02
     22.359  0.5452E-02  0.5477E-02  0.2456E+02  0.2456E+02
     22.453  0.3534E-01  0.3551E-01  0.2456E+02  0.2456E+02
     22.547  0.2143E+00  0.2152E+00  0.2458E+02  0.2458E+02
     22.641  0.9419E+00  0.9445E+00  0.2467E+02  0.2467E+02
     22.735  0.1578E+01  0.1578E+01  0.2482E+02  0.2482E+02
     22.828  0.9369E+00  0.9362E+00  0.2490E+02  0.2490E+02
     22.922  0.1142E+01  0.1145E+01  0.2501E+02  0.2501E+02
     23.016  0.1762E+01  0.1763E+01  0.2518E+02  0.2518E+02
     23.110  0.2107E+01  0.2105E+01  0.2537E+02  0.2537E+02
     23.204  0.1629E+01  0.1626E+01  0.2553E+02  0.2553E+02
     23.297  0.5711E+00  0.5698E+00  0.2558E+02  0.2558E+02
     23.391  0.1080E+00  0.1077E+00  0.2559E+02  0.2559E+02
     23.485  0.1573E-01  0.1572E-01  0.2559E+02  0.2559E+02
     23.579  0.8868E-02  0.8914E-02  0.2559E+02  0.2559E+02
     23.672  0.5628E-01  0.5656E-01  0.2560E+02  0.2560E+02
     23.766  0.3104E+00  0.3117E+00  0.2563E+02  0.2563E+02
     23.860  0.9331E+00  0.9345E+00  0.2572E+02  0.2572E+02
     23.954  0.8048E+00  0.8030E+00  0.2579E+02  0.2579E+02
     24.048  0.2558E+00  0.2551E+00  0.2581E+02  0.2582E+02
     24.141  0.2374E+00  0.2383E+00  0.2584E+02  0.2584E+02
     24.235  0.5077E+00  0.5082E+00  0.2588E+02  0.2589E+02
     24.329  0.3418E+00  0.3404E+00  0.2592E+02  0.2592E+02
     24.423  0.9345E-01  0.9294E-01  0.2593E+02  0.2593E+02
     24.517  0.8633E-01  0.8631E-01  0.2593E+02  0.2593E+02
     24.610  0.3174E+00  0.3176E+00  0.2596E+02  0.2596E+02
     24.704  0.5150E+00  0.5150E+00  0.2601E+02  0.2601E+02
     24.798  0.2507E+00  0.2509E+00  0.2604E+02  0.2604E+02
     24.892  0.2326E+00  0.2341E+00  0.2606E+02  0.2606E+02
     24.985  0.8621E+00  0.8664E+00  0.2614E+02  0.2614E+02
     25.079  0.1802E+01  0.1802E+01  0.2631E+02  0.2631E+02
     25.173  0.1377E+01  0.1373E+01  0.2644E+02  0.2644E+02
     25.267  0.4127E+00  0.4110E+00  0.2648E+02  0.2648E+02
     25.361  0.1616E+00  0.1620E+00  0.2649E+02  0.2649E+02
     25.454  0.4684E+00  0.4709E+00  0.2653E+02  0.2653E+02
     25.548  0.1064E+01  0.1065E+01  0.2663E+02  0.2663E+02
     25.642  0.8412E+00  0.8391E+00  0.2671E+02  0.2671E+02
     25.736  0.9514E+00  0.9517E+00  0.2680E+02  0.2680E+02
     25.830  0.9448E+00  0.9436E+00  0.2689E+02  0.2689E+02
     25.923  0.3008E+00  0.2999E+00  0.2692E+02  0.2692E+02
     26.017  0.5427E-01  0.5407E-01  0.2692E+02  0.2692E+02
     26.111  0.8710E-02  0.8687E-02  0.2693E+02  0.2693E+02
     26.205  0.9255E-03  0.9735E-03  0.2693E+02  0.2693E+02
     26.299  0.6021E-02  0.6333E-02  0.2693E+02  0.2693E+02
     26.392  0.3854E-01  0.4050E-01  0.2693E+02  0.2693E+02
     26.486  0.2242E+00  0.2345E+00  0.2695E+02  0.2695E+02
     26.580  0.8111E+00  0.8314E+00  0.2703E+02  0.2703E+02
     26.674  0.9602E+00  0.9463E+00  0.2712E+02  0.2712E+02
     26.767  0.5337E+00  0.5209E+00  0.2717E+02  0.2717E+02
     26.861  0.1128E+01  0.1131E+01  0.2727E+02  0.2727E+02
     26.955  0.2108E+01  0.2101E+01  0.2747E+02  0.2747E+02
     27.049  0.1205E+01  0.1181E+01  0.2758E+02  0.2758E+02
     27.143  0.4608E+00  0.4670E+00  0.2763E+02  0.2763E+02
     27.236  0.4231E+00  0.4356E+00  0.2767E+02  0.2767E+02
     27.330  0.6297E+00  0.6260E+00  0.2773E+02  0.2773E+02
     27.424  0.7414E+00  0.7179E+00  0.2780E+02  0.2779E+02
     27.518  0.1080E+01  0.1078E+01  0.2790E+02  0.2789E+02
     27.612  0.5563E+00  0.5804E+00  0.2795E+02  0.2795E+02
     27.705  0.1175E+00  0.1251E+00  0.2796E+02  0.2796E+02
     27.799  0.1912E-01  0.2043E-01  0.2796E+02  0.2796E+02
     27.893  0.1101E-03  0.1129E-03  0.2796E+02  0.2796E+02
     27.987  0.6070E-03  0.6228E-03  0.2796E+02  0.2796E+02
     28.080  0.3916E-02  0.4017E-02  0.2796E+02  0.2796E+02
     28.174  0.2376E-01  0.2433E-01  0.2797E+02  0.2797E+02
     28.268  0.1042E+00  0.1058E+00  0.2798E+02  0.2798E+02
     28.362  0.1704E+00  0.1700E+00  0.2799E+02  0.2799E+02
     28.456  0.7433E-01  0.7295E-01  0.2800E+02  0.2800E+02
     28.549  0.1474E-01  0.1438E-01  0.2800E+02  0.2800E+02
     28.643  0.2361E-02  0.2301E-02  0.2800E+02  0.2800E+02
     28.737  0.0000E+00  0.0000E+00  0.2800E+02  0.2800E+02
     28.831  0.0000E+00  0.0000E+00  0.2800E+02  0.2800E+02
     28.925  0.0000E+00  0.0000E+00  0.2800E+02  0.2800E+02
     29.018  0.0000E+00  0.0000E+00  0.2800E+02  0.2800E+02
     29.112  0.0000E+00  0.0000E+00  0.2800E+02  0.2800E+02
     29.206  0.0000E+00  0.0000E+00  0.2800E+02  0.2800E+02
     29.300  0.0000E+00  0.0000E+00  0.2800E+02  0.2800E+02
     29.394  0.0000E+00  0.0000E+00  0.2800E+02  0.2800E+02
     29.487  0.0000E+00  0.0000E+00  0.2800E+02  0.2800E+02
     29.581  0.0000E+00  0.0000E+00  0.2800E+02  0.2800E+02
     29.58109661      1.44475246  301     14.48540237      1.00000000
      1.445  0.0000E+00  0.0000E+00  0.0000E+00  0.0000E+00  0.0000E+00  0.0000E+00  0.0000E+00  0.0000E+00  0.0000E+00  0.0000E+00  0.0000E+00  0.0000E+00  0.0000E+00  0.0000E+00  0.0000E+00  0.0000E+00  0.0000E+00  0.0000E+00
      1.539  0.0000E+00  0.0000E+00  0.0000E+00  0.0000E+00  0.0000E+00  0.0000E+00  0.0000E+00  0.0000E+00  0.0000E+00  0.0000E+00  0.0000E+00  0.0000E+00  0.0000E+00  0.0000E+00  0.0000E+00  0.0000E+00  0.0000E+00  0.0000E+00
      1.632  0.0000E+00  0.0000E+00  0.0000E+00  0.0000E+00  0.0000E+00  0.0000E+00  0.0000E+00  0.0000E+00  0.0000E+00  0.0000E+00  0.0000E+00  0.0000E+00  0.0000E+00  0.0000E+00  0.0000E+00  0.0000E+00  0.0000E+00  0.0000E+00
      1.726  0.0000E+00  0.0000E+00  0.0000E+00  0.0000E+00  0.0000E+00  0.0000E+00  0.0000E+00  0.0000E+00  0.0000E+00  0.0000E+00  0.0000E+00  0.0000E+00  0.0000E+00  0.0000E+00  0.0000E+00  0.0000E+00  0.0000E+00  0.0000E+00
      1.820  0.0000E+00  0.0000E+00  0.0000E+00  0.0000E+00  0.0000E+00  0.0000E+00  0.0000E+00  0.0000E+00  0.0000E+00  0.0000E+00  0.0000E+00  0.0000E+00  0.0000E+00  0.0000E+00  0.0000E+00  0.0000E+00  0.0000E+00  0.0000E+00
      1.914  0.0000E+00  0.0000E+00  0.0000E+00  0.0000E+00  0.0000E+00  0.0000E+00  0.0000E+00  0.0000E+00  0.0000E+00  0.0000E+00  0.0000E+00  0.0000E+00  0.0000E+00  0.0000E+00  0.0000E+00  0.0000E+00  0.0000E+00  0.0000E+00
      2.007  0.0000E+00  0.0000E+00  0.0000E+00  0.0000E+00  0.0000E+00  0.0000E+00  0.0000E+00  0.0000E+00  0.0000E+00  0.0000E+00  0.0000E+00  0.0000E+00  0.0000E+00  0.0000E+00  0.0000E+00  0.0000E+00  0.0000E+00  0.0000E+00
      2.101  0.0000E+00  0.0000E+00  0.0000E+00  0.0000E+00  0.0000E+00  0.0000E+00  0.0000E+00  0.0000E+00  0.0000E+00  0.0000E+00  0.0000E+00  0.0000E+00  0.0000E+00  0.0000E+00  0.0000E+00  0.0000E+00  0.0000E+00  0.0000E+00
      2.195  0.0000E+00  0.0000E+00  0.0000E+00  0.0000E+00  0.0000E+00  0.0000E+00  0.0000E+00  0.0000E+00  0.0000E+00  0.0000E+00  0.0000E+00  0.0000E+00  0.0000E+00  0.0000E+00  0.0000E+00  0.0000E+00  0.0000E+00  0.0000E+00
      2.289  0.1548E-04  0.1559E-04  0.1222E-06  0.1230E-06  0.1222E-06  0.1230E-06  0.1222E-06  0.1230E-06  0.6960E-08  0.7008E-08  0.6960E-08  0.7008E-08  0.3218E-21  0.7819E-21  0.6960E-08  0.7008E-08  0.3218E-21  0.7819E-21
      2.383  0.8547E-04  0.8605E-04  0.6745E-06  0.6792E-06  0.6745E-06  0.6792E-06  0.6745E-06  0.6792E-06  0.3842E-07  0.3868E-07  0.3842E-07  0.3868E-07  0.1776E-20  0.4316E-20  0.3842E-07  0.3868E-07  0.1776E-20  0.4316E-20
      2.476  0.5539E-03  0.5577E-03  0.4371E-05  0.4402E-05  0.4371E-05  0.4402E-05  0.4371E-05  0.4402E-05  0.2490E-06  0.2507E-06  0.2490E-06  0.2507E-06  0.1151E-19  0.2797E-19  0.2490E-06  0.2507E-06  0.1151E-19  0.2797E-19
      2.570  0.3459E-02  0.3482E-02  0.2730E-04  0.2748E-04  0.2730E-04  0.2748E-04  0.2730E-04  0.2748E-04  0.1555E-05  0.1565E-05  0.1555E-05  0.1565E-05  0.7188E-19  0.1746E-18  0.1555E-05  0.1565E-05  0.7188E-19  0.1746E-18
      2.664  0.1747E-01  0.1756E-01  0.1379E-03  0.1386E-03  0.1379E-03  0.1386E-03  0.1379E-03  0.1386E-03  0.7854E-05  0.7893E-05  0.7854E-05  0.7893E-05  0.3631E-18  0.8806E-18  0.7854E-05  0.7893E-05  0.3631E-18  0.8806E-18
      2.758  0.4024E-01  0.4027E-01  0.3176E-03  0.3178E-03  0.3176E-03  0.3178E-03  0.3176E-03  0.3178E-03  0.1809E-04  0.1810E-04  0.1809E-04  0.1810E-04  0.8362E-18  0.2019E-17  0.1809E-04  0.1810E-04  0.8362E-18  0.2019E-17
      2.852  0.2472E-01  0.2462E-01  0.1951E-03  0.1943E-03  0.1951E-03  0.1943E-03  0.1951E-03  0.1943E-03  0.1111E-04  0.1107E-04  0.1111E-04  0.1107E-04  0.5137E-18  0.1235E-17  0.1111E-04  0.1107E-04  0.5137E-18  0.1235E-17
      2.945  0.5649E-02  0.5613E-02  0.4458E-04  0.4430E-04  0.4458E-04  0.4430E-04  0.4458E-04  0.4430E-04  0.2539E-05  0.2523E-05  0.2539E-05  0.2523E-05  0.1174E-18  0.2815E-18  0.2539E-05  0.2523E-05  0.1174E-18  0.2815E-18
      3.039  0.9315E-03  0.9251E-03  0.7351E-05  0.7302E-05  0.7351E-05  0.7302E-05  0.7351E-05  0.7302E-05  0.4187E-06  0.4159E-06  0.4187E-06  0.4159E-06  0.1936E-19  0.4640E-19  0.4187E-06  0.4159E-06  0.1936E-19  0.4640E-19
      3.133  0.7520E-04  0.7572E-04  0.2189E-05  0.2204E-05  0.2189E-05  0.2204E-05  0.2189E-05  0.2204E-05  0.2350E-06  0.2366E-06  0.2350E-06  0.2366E-06  0.1972E-06  0.1986E-06  0.2350E-06  0.2366E-06  0.1972E-06  0.1986E-06
      3.227  0.4147E-03  0.4176E-03  0.1207E-04  0.1216E-04  0.1207E-04  0.1216E-04  0.1207E-04  0.1216E-04  0.1296E-05  0.1305E-05  0.1296E-05  0.1305E-05  0.1088E-05  0.1095E-05  0.1296E-05  0.1305E-05  0.1088E-05  0.1095E-05
      3.321  0.2674E-02  0.2693E-02  0.7784E-04  0.7837E-04  0.7784E-04  0.7837E-04  0.7784E-04  0.7837E-04  0.8356E-05  0.8414E-05  0.8356E-05  0.8414E-05  0.7015E-05  0.7063E-05  0.8356E-05  0.8414E-05  0.7015E-05  0.7063E-05
      3.414  0.1619E-01  0.1629E-01  0.4711E-03  0.4741E-03  0.4711E-03  0.4741E-03  0.4711E-03  0.4741E-03  0.5057E-04  0.5089E-04  0.5057E-04  0.5089E-04  0.4246E-04  0.4272E-04  0.5057E-04  0.5089E-04  0.4246E-04  0.4272E-04
      3.508  0.7016E-01  0.7044E-01  0.2042E-02  0.2050E-02  0.2042E-02  0.2050E-02  0.2042E-02  0.2050E-02  0.2192E-03  0.2201E-03  0.2192E-03  0.2201E-03  0.1840E-03  0.1848E-03  0.2192E-03  0.2201E-03  0.1840E-03  0.1848E-03
      3.602  0.1119E+00  0.1118E+00  0.3257E-02  0.3254E-02  0.3257E-02  0.3254E-02  0.3257E-02  0.3254E-02  0.3496E-03  0.3493E-03  0.3496E-03  0.3493E-03  0.2935E-03  0.2933E-03  0.3496E-03  0.3493E-03  0.2935E-03  0.2933E-03
      3.696  0.4773E-01  0.4748E-01  0.1389E-02  0.1382E-02  0.1389E-02  0.1382E-02  0.1389E-02  0.1382E-02  0.1491E-03  0.1484E-03  0.1491E-03  0.1484E-03  0.1252E-03  0.1245E-03  0.1491E-03  0.1484E-03  0.1252E-03  0.1245E-03
      3.789  0.9414E-02  0.9352E-02  0.2745E-03  0.2727E-03  0.2745E-03  0.2727E-03  0.2745E-03  0.2727E-03  0.2985E-04  0.2966E-04  0.2985E-04  0.2966E-04  0.2467E-04  0.2451E-04  0.2985E-04  0.2966E-04  0.2467E-04  0.2451E-04
      3.883  0.1648E-02  0.1638E-02  0.5051E-04  0.5026E-04  0.5051E-04  0.5026E-04  0.5051E-04  0.5026E-04  0.7539E-05  0.7526E-05  0.7539E-05  0.7526E-05  0.4183E-05  0.4157E-05  0.7539E-05  0.7526E-05  0.4183E-05  0.4157E-05
      3.977  0.9503E-03  0.9567E-03  0.4428E-04  0.4458E-04  0.4428E-04  0.4458E-04  0.4428E-04  0.4458E-04  0.1850E-04  0.1862E-04  0.1850E-04  0.1862E-04  0.1588E-05  0.1599E-05  0.1850E-04  0.1862E-04  0.1588E-05  0.1599E-05
      4.071  0.6021E-02  0.6060E-02  0.2805E-03  0.2824E-03  0.2805E-03  0.2824E-03  0.2805E-03  0.2824E-03  0.1172E-03  0.1180E-03  0.1172E-03  0.1180E-03  0.1006E-04  0.1013E-04  0.1172E-03  0.1180E-03  0.1006E-04  0.1013E-04
      4.165  0.3288E-01  0.3306E-01  0.1532E-02  0.1540E-02  0.1532E-02  0.1540E-02  0.1532E-02  0.1540E-02  0.6400E-03  0.6435E-03  0.6400E-03  0.6435E-03  0.5494E-04  0.5524E-04  0.6400E-03  0.6435E-03  0.5494E-04  0.5524E-04
      4.258  0.9578E-01  0.9594E-01  0.4462E-02  0.4471E-02  0.4462E-02  0.4471E-02  0.4462E-02  0.4471E-02  0.1865E-02  0.1869E-02  0.1865E-02  0.1869E-02  0.1600E-03  0.1603E-03  0.1865E-02  0.1869E-02  0.1600E-03  0.1603E-03
      4.352  0.7868E-01  0.7843E-01  0.3666E-02  0.3655E-02  0.3666E-02  0.3655E-02  0.3666E-02  0.3655E-02  0.1536E-02  0.1531E-02  0.1536E-02  0.1531E-02  0.1314E-03  0.1309E-03  0.1536E-02  0.1531E-02  0.1314E-03  0.1309E-03
      4.446  0.2133E-01  0.2120E-01  0.9951E-03  0.9895E-03  0.9951E-03  0.9895E-03  0.9951E-03  0.9895E-03  0.4417E-03  0.4395E-03  0.4417E-03  0.4395E-03  0.3537E-04  0.3516E-04  0.4417E-03  0.4395E-03  0.3537E-04  0.3516E-04
      4.540  0.6373E-02  0.6366E-02  0.3063E-03  0.3061E-03  0.3063E-03  0.3061E-03  0.3063E-03  0.3061E-03  0.2895E-03  0.2902E-03  0.2895E-03  0.2902E-03  0.8655E-05  0.8634E-05  0.2895E-03  0.2902E-03  0.8655E-05  0.8634E-05
      4.634  0.1465E-01  0.1471E-01  0.7318E-03  0.7349E-03  0.7318E-03  0.7349E-03  0.7318E-03  0.7349E-03  0.1108E-02  0.1113E-02  0.1108E-02  0.1113E-02  0.1851E-04  0.1863E-04  0.1108E-02  0.1113E-02  0.1851E-04  0.1863E-04
      4.727  0.3296E-01  0.3299E-01  0.1691E-02  0.1693E-02  0.1691E-02  0.1693E-02  0.1691E-02  0.1693E-02  0.2448E-02  0.2449E-02  0.2448E-02  0.2449E-02  0.1131E-03  0.1139E-03  0.2448E-02  0.2449E-02  0.1131E-03  0.1139E-03
      4.821  0.3355E-01  0.3359E-01  0.2029E-02  0.2034E-02  0.2029E-02  0.2034E-02  0.2029E-02  0.2034E-02  0.1572E-02  0.1567E-02  0.1572E-02  0.1567E-02  0.6751E-03  0.6794E-03  0.1572E-02  0.1567E-02  0.6751E-03  0.6794E-03
      4.915  0.6791E-01  0.6812E-01  0.4867E-02  0.4884E-02  0.4867E-02  0.4884E-02  0.4867E-02  0.4884E-02  0.9112E-03  0.9116E-03  0.9112E-03  0.9116E-03  0.2749E-02  0.2759E-02  0.9112E-03  0.9116E-03  0.2749E-02  0.2759E-02
      5.009  0.9060E-01  0.9046E-01  0.6604E-02  0.6595E-02  0.6604E-02  0.6595E-02  0.6604E-02  0.6595E-02  0.8994E-03  0.8980E-03  0.8994E-03  0.8980E-03  0.3866E-02  0.3861E-02  0.8994E-03  0.8980E-03  0.3866E-02  0.3861E-02
      5.102  0.3496E-01  0.3477E-01  0.2550E-02  0.2537E-02  0.2550E-02  0.2537E-02  0.2550E-02  0.2537E-02  0.4249E-03  0.4236E-03  0.4249E-03  0.4236E-03  0.1490E-02  0.1482E-02  0.4249E-03  0.4236E-03  0.1490E-02  0.1482E-02
      5.196  0.9750E-02  0.9722E-02  0.6852E-03  0.6832E-03  0.6852E-03  0.6832E-03  0.6852E-03  0.6832E-03  0.7654E-03  0.7681E-03  0.7654E-03  0.7681E-03  0.3326E-03  0.3310E-03  0.7654E-03  0.7681E-03  0.3326E-03  0.3310E-03
      5.290  0.2095E-01  0.2105E-01  0.1380E-02  0.1387E-02  0.1380E-02  0.1387E-02  0.1380E-02  0.1387E-02  0.4225E-02  0.4242E-02  0.4225E-02  0.4242E-02  0.4003E-03  0.4021E-03  0.4225E-02  0.4242E-02  0.4003E-03  0.4021E-03
      5.384  0.9940E-01  0.9982E-01  0.6831E-02  0.6865E-02  0.6831E-02  0.6865E-02  0.6831E-02  0.6865E-02  0.1836E-01  0.1841E-01  0.1836E-01  0.1841E-01  0.1891E-02  0.1900E-02  0.1836E-01  0.1841E-01  0.1891E-02  0.1900E-02
      5.478  0.2457E+00  0.2460E+00  0.1787E-01  0.1790E-01  0.1787E-01  0.1790E-01  0.1787E-01  0.1790E-01  0.3772E-01  0.3775E-01  0.3772E-01  0.3775E-01  0.5660E-02  0.5672E-02  0.3772E-01  0.3775E-01  0.5660E-02  0.5672E-02
      5.571  0.1986E+00  0.1982E+00  0.1373E-01  0.1369E-01  0.1373E-01  0.1369E-01  0.1373E-01  0.1369E-01  0.4073E-01  0.4073E-01  0.4073E-01  0.4073E-01  0.1012E-01  0.1015E-01  0.4073E-01  0.4073E-01  0.1012E-01  0.1015E-01
      5.665  0.1300E+00  0.1299E+00  0.6205E-02  0.6193E-02  0.6205E-02  0.6193E-02  0.6205E-02  0.6193E-02  0.5775E-01  0.5776E-01  0.5775E-01  0.5776E-01  0.3162E-01  0.3174E-01  0.5775E-01  0.5776E-01  0.3162E-01  0.3174E-01
      5.759  0.8217E-01  0.8201E-01  0.3263E-02  0.3257E-02  0.3263E-02  0.3257E-02  0.3263E-02  0.3257E-02  0.3981E-01  0.3973E-01  0.3981E-01  0.3973E-01  0.5415E-01  0.5413E-01  0.3981E-01  0.3973E-01  0.5415E-01  0.5413E-01
      5.853  0.2552E-01  0.2545E-01  0.1156E-02  0.1154E-02  0.1156E-02  0.1154E-02  0.1156E-02  0.1154E-02  0.1053E-01  0.1049E-01  0.1053E-01  0.1049E-01  0.2783E-01  0.2775E-01  0.1053E-01  0.1049E-01  0.2783E-01  0.2775E-01
      5.947  0.2045E-01  0.2052E-01  0.1872E-02  0.1882E-02  0.1872E-02  0.1882E-02  0.1872E-02  0.1882E-02  0.4677E-02  0.4683E-02  0.4677E-02  0.4683E-02  0.2218E-01  0.2224E-01  0.4677E-02  0.4683E-02  0.2218E-01  0.2224E-01
      6.040  0.6925E-01  0.6948E-01  0.7130E-02  0.7156E-02  0.7130E-02  0.7156E-02  0.7130E-02  0.7156E-02  0.1649E-01  0.1655E-01  0.1649E-01  0.1655E-01  0.5912E-01  0.5926E-01  0.1649E-01  0.1655E-01  0.5912E-01  0.5926E-01
      6.134  0.1426E+00  0.1427E+00  0.1374E-01  0.1375E-01  0.1374E-01  0.1375E-01  0.1374E-01  0.1375E-01  0.6322E-01  0.6335E-01  0.6322E-01  0.6335E-01  0.7530E-01  0.7526E-01  0.6322E-01  0.6335E-01  0.7530E-01  0.7526E-01