   4   4   1   0
  0.1560262E+02  0.3966607E-09  0.3966607E-09  0.3966607E-09  0.5000000E-15
  1.000000000000000E-004
  CAR 
 unknown system                          
     24.86837042     -0.08172284  301     10.63098788      1.00000000
     -0.082  0.0000E+00  0.0000E+00  0.0000E+00  0.0000E+00
      0.001  0.0000E+00  0.0000E+00  0.0000E+00  0.0000E+00
      0.085  0.0000E+00  0.0000E+00  0.0000E+00  0.0000E+00
      0.168  0.0000E+00  0.0000E+00  0.0000E+00  0.0000E+00
      0.251  0.0000E+00  0.0000E+00  0.0000E+00  0.0000E+00
      0.334  0.0000E+00  0.0000E+00  0.0000E+00  0.0000E+00
      0.417  0.0000E+00  0.0000E+00  0.0000E+00  0.0000E+00
      0.500  0.0000E+00  0.0000E+00  0.0000E+00  0.0000E+00
      0.584  0.3738E-04  0.3776E-04  0.3109E-05  0.3141E-05
      0.667  0.1598E-03  0.1614E-03  0.1640E-04  0.1657E-04
      0.750  0.8413E-03  0.8499E-03  0.8636E-04  0.8725E-04
      0.833  0.4387E-02  0.4432E-02  0.4512E-03  0.4558E-03
      0.916  0.2179E-01  0.2200E-01  0.2263E-02  0.2285E-02
      0.999  0.8663E-01  0.8724E-01  0.9468E-02  0.9541E-02
      1.083  0.1731E+00  0.1733E+00  0.2387E-01  0.2395E-01
      1.166  0.1162E+00  0.1155E+00  0.3353E-01  0.3356E-01
      1.249  0.3351E-01  0.3320E-01  0.3632E-01  0.3632E-01
      1.332  0.7391E-02  0.7326E-02  0.3693E-01  0.3693E-01
      1.415  0.3074E-02  0.3079E-02  0.3719E-01  0.3719E-01
      1.498  0.9030E-02  0.9123E-02  0.3797E-01  0.3797E-01
      1.582  0.4569E-01  0.4615E-01  0.4177E-01  0.4181E-01
      1.665  0.1970E+00  0.1985E+00  0.5815E-01  0.5832E-01
      1.748  0.4851E+00  0.4864E+00  0.9849E-01  0.9878E-01
      1.831  0.4197E+00  0.4178E+00  0.1334E+00  0.1335E+00
      1.914  0.1400E+00  0.1388E+00  0.1450E+00  0.1451E+00
      1.997  0.3141E-01  0.3112E-01  0.1476E+00  0.1477E+00
      2.081  0.1140E-01  0.1140E-01  0.1486E+00  0.1486E+00
      2.164  0.2822E-01  0.2853E-01  0.1511E+00  0.1511E+00
      2.247  0.1311E+00  0.1323E+00  0.1620E+00  0.1621E+00
      2.330  0.4062E+00  0.4082E+00  0.1957E+00  0.1960E+00
      2.413  0.4943E+00  0.4931E+00  0.2368E+00  0.2371E+00
      2.496  0.2100E+00  0.2083E+00  0.2543E+00  0.2544E+00
      2.580  0.5630E-01  0.5588E-01  0.2590E+00  0.2590E+00
      2.663  0.4483E-01  0.4518E-01  0.2627E+00  0.2628E+00
      2.746  0.1306E+00  0.1317E+00  0.2738E+00  0.2739E+00
      2.829  0.2659E+00  0.2665E+00  0.2959E+00  0.2961E+00
      2.912  0.4197E+00  0.4208E+00  0.3308E+00  0.3311E+00
      2.995  0.5475E+00  0.5469E+00  0.3763E+00  0.3766E+00
      3.079  0.2861E+00  0.2841E+00  0.4001E+00  0.4002E+00
      3.162  0.8736E-01  0.8686E-01  0.4074E+00  0.4074E+00
      3.245  0.8905E-01  0.8992E-01  0.4148E+00  0.4149E+00
      3.328  0.3420E+00  0.3460E+00  0.4432E+00  0.4437E+00
      3.411  0.1003E+01  0.1009E+01  0.5267E+00  0.5277E+00
      3.494  0.1320E+01  0.1321E+01  0.6365E+00  0.6375E+00
      3.578  0.9619E+00  0.9590E+00  0.7165E+00  0.7173E+00
      3.661  0.5866E+00  0.5856E+00  0.7653E+00  0.7660E+00
      3.744  0.5822E+00  0.5872E+00  0.8137E+00  0.8148E+00
      3.827  0.9223E+00  0.9285E+00  0.8907E+00  0.8924E+00
      3.910  0.9305E+00  0.9242E+00  0.9681E+00  0.9692E+00
      3.993  0.7126E+00  0.7074E+00  0.1027E+01  0.1028E+01
      4.077  0.1182E+01  0.1187E+01  0.1126E+01  0.1127E+01
      4.160  0.1816E+01  0.1828E+01  0.1277E+01  0.1279E+01
      4.243  0.2389E+01  0.2405E+01  0.1476E+01  0.1479E+01
      4.326  0.2596E+01  0.2590E+01  0.1692E+01  0.1695E+01
      4.409  0.2151E+01  0.2153E+01  0.1870E+01  0.1874E+01
      4.492  0.2912E+01  0.2924E+01  0.2113E+01  0.2117E+01
      4.576  0.3009E+01  0.2996E+01  0.2363E+01  0.2366E+01
      4.659  0.2385E+01  0.2390E+01  0.2562E+01  0.2565E+01
      4.742  0.2943E+01  0.2958E+01  0.2807E+01  0.2811E+01
      4.825  0.2884E+01  0.2887E+01  0.3047E+01  0.3052E+01
      4.908  0.2661E+01  0.2662E+01  0.3269E+01  0.3273E+01
      4.991  0.2739E+01  0.2735E+01  0.3496E+01  0.3501E+01
      5.075  0.2075E+01  0.2056E+01  0.3669E+01  0.3672E+01
      5.158  0.2278E+01  0.2299E+01  0.3859E+01  0.3864E+01
      5.241  0.3855E+01  0.3873E+01  0.4179E+01  0.4186E+01
      5.324  0.3438E+01  0.3413E+01  0.4465E+01  0.4470E+01
      5.407  0.2226E+01  0.2210E+01  0.4651E+01  0.4654E+01
      5.490  0.1770E+01  0.1759E+01  0.4798E+01  0.4800E+01
      5.574  0.1183E+01  0.1181E+01  0.4897E+01  0.4899E+01
      5.657  0.1413E+01  0.1437E+01  0.5015E+01  0.5019E+01
      5.740  0.2447E+01  0.2463E+01  0.5218E+01  0.5224E+01
      5.823  0.3019E+01  0.3013E+01  0.5470E+01  0.5475E+01
      5.906  0.3078E+01  0.3071E+01  0.5726E+01  0.5730E+01
      5.989  0.2560E+01  0.2547E+01  0.5939E+01  0.5942E+01
      6.073  0.2096E+01  0.2099E+01  0.6113E+01  0.6117E+01
      6.156  0.2464E+01  0.2470E+01  0.6318E+01  0.6322E+01
      6.239  0.2163E+01  0.2158E+01  0.6498E+01  0.6502E+01
      6.322  0.2512E+01  0.2537E+01  0.6707E+01  0.6713E+01
      6.405  0.3870E+01  0.3892E+01  0.7029E+01  0.7037E+01
      6.488  0.4680E+01  0.4677E+01  0.7419E+01  0.7426E+01
      6.572  0.3586E+01  0.3558E+01  0.7717E+01  0.7722E+01
      6.655  0.2471E+01  0.2451E+01  0.7923E+01  0.7926E+01
      6.738  0.1925E+01  0.1929E+01  0.8083E+01  0.8087E+01
      6.821  0.2659E+01  0.2694E+01  0.8304E+01  0.8311E+01
      6.904  0.4486E+01  0.4527E+01  0.8678E+01  0.8688E+01
      6.987  0.4842E+01  0.4815E+01  0.9081E+01  0.9089E+01
      7.071  0.3504E+01  0.3472E+01  0.9372E+01  0.9377E+01
      7.154  0.2876E+01  0.2877E+01  0.9612E+01  0.9617E+01
      7.237  0.3564E+01  0.3588E+01  0.9908E+01  0.9915E+01
      7.320  0.4348E+01  0.4355E+01  0.1027E+02  0.1028E+02
      7.403  0.4171E+01  0.4185E+01  0.1062E+02  0.1063E+02
      7.486  0.5211E+01  0.5233E+01  0.1105E+02  0.1106E+02
      7.570  0.5222E+01  0.5187E+01  0.1149E+02  0.1149E+02
      7.653  0.4062E+01  0.4030E+01  0.1182E+02  0.1183E+02
      7.736  0.2905E+01  0.2891E+01  0.1207E+02  0.1207E+02
      7.819  0.2370E+01  0.2376E+01  0.1226E+02  0.1227E+02
      7.902  0.2892E+01  0.2910E+01  0.1250E+02  0.1251E+02
      7.985  0.2991E+01  0.2976E+01  0.1275E+02  0.1276E+02
      8.069  0.1955E+01  0.1936E+01  0.1292E+02  0.1292E+02
      8.152  0.1666E+01  0.1660E+01  0.1305E+02  0.1306E+02
      8.235  0.2017E+01  0.2019E+01  0.1322E+02  0.1323E+02
      8.318  0.2449E+01  0.2457E+01  0.1343E+02  0.1343E+02
      8.401  0.2362E+01  0.2364E+01  0.1362E+02  0.1363E+02
      8.484  0.1919E+01  0.1915E+01  0.1378E+02  0.1379E+02
      8.568  0.2653E+01  0.2672E+01  0.1400E+02  0.1401E+02
      8.651  0.3754E+01  0.3754E+01  0.1432E+02  0.1432E+02
      8.734  0.3997E+01  0.4005E+01  0.1465E+02  0.1465E+02
      8.817  0.4320E+01  0.4324E+01  0.1501E+02  0.1501E+02
      8.900  0.4007E+01  0.3993E+01  0.1534E+02  0.1535E+02
      8.983  0.3247E+01  0.3222E+01  0.1561E+02  0.1561E+02
      9.067  0.1826E+01  0.1808E+01  0.1576E+02  0.1576E+02
      9.150  0.1028E+01  0.1027E+01  0.1585E+02  0.1585E+02
      9.233  0.1444E+01  0.1454E+01  0.1597E+02  0.1597E+02
      9.316  0.2064E+01  0.2074E+01  0.1614E+02  0.1614E+02
      9.399  0.2433E+01  0.2453E+01  0.1634E+02  0.1635E+02
      9.482  0.2823E+01  0.2830E+01  0.1658E+02  0.1658E+02
      9.566  0.2628E+01  0.2633E+01  0.1680E+02  0.1680E+02
      9.649  0.3467E+01  0.3491E+01  0.1709E+02  0.1709E+02
      9.732  0.4150E+01  0.4136E+01  0.1743E+02  0.1744E+02
      9.815  0.3075E+01  0.3037E+01  0.1769E+02  0.1769E+02
      9.898  0.1510E+01  0.1496E+01  0.1781E+02  0.1782E+02
      9.981  0.1195E+01  0.1205E+01  0.1791E+02  0.1792E+02
     10.065  0.1501E+01  0.1504E+01  0.1804E+02  0.1804E+02
     10.148  0.2056E+01  0.2080E+01  0.1821E+02  0.1821E+02
     10.231  0.3274E+01  0.3323E+01  0.1848E+02  0.1849E+02
     10.314  0.4499E+01  0.4524E+01  0.1886E+02  0.1887E+02
     10.397  0.4248E+01  0.4214E+01  0.1921E+02  0.1922E+02
     10.480  0.3581E+01  0.3584E+01  0.1951E+02  0.1952E+02
     10.564  0.3518E+01  0.3507E+01  0.1980E+02  0.1981E+02
     10.647  0.2855E+01  0.2830E+01  0.2004E+02  0.2004E+02
     10.730  0.2197E+01  0.2190E+01  0.2022E+02  0.2023E+02
     10.813  0.2339E+01  0.2374E+01  0.2042E+02  0.2042E+02
     10.896  0.3222E+01  0.3241E+01  0.2068E+02  0.2069E+02
     10.979  0.2634E+01  0.2587E+01  0.2090E+02  0.2091E+02
     11.063  0.1644E+01  0.1623E+01  0.2104E+02  0.2104E+02
     11.146  0.2173E+01  0.2191E+01  0.2122E+02  0.2123E+02
     11.229  0.2487E+01  0.2468E+01  0.2143E+02  0.2143E+02
     11.312  0.1165E+01  0.1135E+01  0.2152E+02  0.2153E+02
     11.395  0.2933E+00  0.2832E+00  0.2155E+02  0.2155E+02
     11.478  0.5940E-01  0.5724E-01  0.2155E+02  0.2155E+02
     11.562  0.7381E-02  0.7137E-02  0.2156E+02  0.2156E+02
     11.645  0.2752E-02  0.2826E-02  0.2156E+02  0.2156E+02
     11.728  0.1434E-01  0.1472E-01  0.2156E+02  0.2156E+02
     11.811  0.7111E-01  0.7286E-01  0.2156E+02  0.2156E+02
     11.894  0.2767E+00  0.2816E+00  0.2159E+02  0.2159E+02
     11.977  0.5297E+00  0.5308E+00  0.2163E+02  0.2163E+02
     12.061  0.3662E+00  0.3622E+00  0.2166E+02  0.2166E+02
     12.144  0.2610E+00  0.2640E+00  0.2168E+02  0.2168E+02
     12.227  0.6581E+00  0.6714E+00  0.2174E+02  0.2174E+02
     12.310  0.1229E+01  0.1235E+01  0.2184E+02  0.2184E+02
     12.393  0.1248E+01  0.1250E+01  0.2194E+02  0.2195E+02
     12.476  0.1221E+01  0.1215E+01  0.2204E+02  0.2205E+02
     12.560  0.6483E+00  0.6348E+00  0.2210E+02  0.2210E+02
     12.643  0.3366E+00  0.3371E+00  0.2213E+02  0.2213E+02
     12.726  0.6775E+00  0.6900E+00  0.2218E+02  0.2218E+02
     12.809  0.1057E+01  0.1055E+01  0.2227E+02  0.2227E+02
     12.892  0.5804E+00  0.5677E+00  0.2232E+02  0.2232E+02
     12.975  0.2099E+00  0.2067E+00  0.2234E+02  0.2234E+02
     13.059  0.2802E+00  0.2840E+00  0.2236E+02  0.2236E+02
     13.142  0.5224E+00  0.5239E+00  0.2240E+02  0.2240E+02
     13.225  0.3611E+00  0.3559E+00  0.2243E+02  0.2243E+02
     13.308  0.1155E+00  0.1132E+00  0.2244E+02  0.2244E+02
     13.391  0.7366E-01  0.7457E-01  0.2245E+02  0.2245E+02
     13.474  0.2522E+00  0.2586E+00  0.2247E+02  0.2247E+02
     13.558  0.8801E+00  0.8951E+00  0.2254E+02  0.2255E+02
     13.641  0.1482E+01  0.1483E+01  0.2267E+02  0.2267E+02
     13.724  0.9616E+00  0.9469E+00  0.2275E+02  0.2275E+02
     13.807  0.2959E+00  0.2885E+00  0.2277E+02  0.2277E+02
     13.890  0.7047E-01  0.6888E-01  0.2278E+02  0.2278E+02
     13.973  0.5012E-01  0.5089E-01  0.2278E+02  0.2278E+02
     14.057  0.1831E+00  0.1881E+00  0.2280E+02  0.2280E+02
     14.140  0.6570E+00  0.6686E+00  0.2285E+02  0.2285E+02
     14.223  0.1048E+01  0.1046E+01  0.2294E+02  0.2294E+02
     14.306  0.5589E+00  0.5479E+00  0.2299E+02  0.2299E+02
     14.389  0.1507E+00  0.1469E+00  0.2300E+02  0.2300E+02
     14.472  0.6412E-01  0.6414E-01  0.2300E+02  0.2300E+02
     14.556  0.1762E+00  0.1800E+00  0.2302E+02  0.2302E+02
     14.639  0.6280E+00  0.6376E+00  0.2307E+02  0.2307E+02
     14.722  0.1061E+01  0.1061E+01  0.2316E+02  0.2316E+02
     14.805  0.6416E+00  0.6338E+00  0.2321E+02  0.2321E+02
     14.888  0.4072E+00  0.4099E+00  0.2325E+02  0.2325E+02
     14.972  0.8372E+00  0.8473E+00  0.2332E+02  0.2332E+02
     15.055  0.1085E+01  0.1080E+01  0.2341E+02  0.2341E+02
     15.138  0.7807E+00  0.7776E+00  0.2347E+02  0.2347E+02
     15.221  0.1027E+01  0.1031E+01  0.2356E+02  0.2356E+02
     15.304  0.9177E+00  0.9101E+00  0.2363E+02  0.2363E+02
     15.387  0.3259E+00  0.3201E+00  0.2366E+02  0.2366E+02
     15.471  0.7162E-01  0.7014E-01  0.2367E+02  0.2367E+02
     15.554  0.1402E-01  0.1372E-01  0.2367E+02  0.2367E+02
     15.637  0.0000E+00  0.0000E+00  0.2367E+02  0.2367E+02
     15.720  0.1408E-03  0.1443E-03  0.2367E+02  0.2367E+02
     15.803  0.8389E-03  0.8601E-03  0.2367E+02  0.2367E+02
     15.886  0.4296E-02  0.4405E-02  0.2367E+02  0.2367E+02
     15.970  0.2242E-01  0.2298E-01  0.2367E+02  0.2367E+02
     16.053  0.1120E+00  0.1147E+00  0.2368E+02  0.2368E+02
     16.136  0.4579E+00  0.4664E+00  0.2372E+02  0.2372E+02
     16.219  0.1159E+01  0.1171E+01  0.2381E+02  0.2381E+02
     16.302  0.1748E+01  0.1755E+01  0.2396E+02  0.2396E+02
     16.385  0.1842E+01  0.1842E+01  0.2411E+02  0.2411E+02
     16.469  0.1934E+01  0.1931E+01  0.2427E+02  0.2427E+02
     16.552  0.1495E+01  0.1481E+01  0.2440E+02  0.2440E+02
     16.635  0.7482E+00  0.7417E+00  0.2446E+02  0.2446E+02
     16.718  0.6249E+00  0.6238E+00  0.2451E+02  0.2451E+02
     16.801  0.3903E+00  0.3865E+00  0.2454E+02  0.2454E+02
     16.884  0.1104E+00  0.1088E+00  0.2455E+02  0.2455E+02
     16.968  0.2326E-01  0.2287E-01  0.2456E+02  0.2456E+02
     17.051  0.4502E-02  0.4425E-02  0.2456E+02  0.2456E+02
     17.134  0.0000E+00  0.0000E+00  0.2456E+02  0.2456E+02
     17.217  0.0000E+00  0.0000E+00  0.2456E+02  0.2456E+02
     17.300  0.6092E-04  0.6281E-04  0.2456E+02  0.2456E+02
     17.383  0.5976E-03  0.6128E-03  0.2456E+02  0.2456E+02
     17.467  0.4050E-02  0.4151E-02  0.2456E+02  0.2456E+02
     17.550  0.1997E-01  0.2047E-01  0.2456E+02  0.2456E+02
     17.633  0.1013E+00  0.1036E+00  0.2457E+02  0.2457E+02
     17.716  0.4549E+00  0.4637E+00  0.2460E+02  0.2460E+02
     17.799  0.1581E+01  0.1602E+01  0.2474E+02  0.2474E+02
     17.882  0.3372E+01  0.3385E+01  0.2502E+02  0.2502E+02
     17.966  0.2926E+01  0.2902E+01  0.2526E+02  0.2526E+02
     18.049  0.1076E+01  0.1060E+01  0.2535E+02  0.2535E+02
     18.132  0.3696E+00  0.3663E+00  0.2538E+02  0.2538E+02
     18.215  0.5715E+00  0.5741E+00  0.2543E+02  0.2543E+02
     18.298  0.1045E+01  0.1045E+01  0.2551E+02  0.2551E+02
     18.381  0.6918E+00  0.6880E+00  0.2557E+02  0.2557E+02
     18.465  0.1994E+00  0.1977E+00  0.2559E+02  0.2559E+02
     18.548  0.4652E-01  0.4620E-01  0.2559E+02  0.2559E+02
     18.631  0.3489E-01  0.3521E-01  0.2560E+02  0.2560E+02
     18.714  0.1339E+00  0.1357E+00  0.2561E+02  0.2561E+02
     18.797  0.5366E+00  0.5422E+00  0.2565E+02  0.2565E+02
     18.880  0.1124E+01  0.1127E+01  0.2574E+02  0.2575E+02
     18.964  0.1013E+01  0.1011E+01  0.2583E+02  0.2583E+02
     19.047  0.7318E+00  0.7290E+00  0.2589E+02  0.2589E+02
     19.130  0.3615E+00  0.3577E+00  0.2592E+02  0.2592E+02
     19.213  0.2090E+00  0.2087E+00  0.2594E+02  0.2594E+02
     19.296  0.4092E+00  0.4110E+00  0.2597E+02  0.2597E+02
     19.379  0.5052E+00  0.5040E+00  0.2601E+02  0.2601E+02
     19.463  0.2233E+00  0.2216E+00  0.2603E+02  0.2603E+02
     19.546  0.7140E-01  0.7129E-01  0.2604E+02  0.2604E+02
     19.629  0.1045E+00  0.1064E+00  0.2605E+02  0.2605E+02
     19.712  0.3757E+00  0.3817E+00  0.2608E+02  0.2608E+02
     19.795  0.8218E+00  0.8257E+00  0.2615E+02  0.2615E+02
     19.878  0.8522E+00  0.8480E+00  0.2622E+02  0.2622E+02
     19.962  0.4776E+00  0.4727E+00  0.2626E+02  0.2626E+02
     20.045  0.4571E+00  0.4582E+00  0.2629E+02  0.2630E+02
     20.128  0.9804E+00  0.9836E+00  0.2638E+02  0.2638E+02
     20.211  0.1056E+01  0.1055E+01  0.2646E+02  0.2646E+02
     20.294  0.9362E+00  0.9400E+00  0.2654E+02  0.2654E+02
     20.377  0.1303E+01  0.1305E+01  0.2665E+02  0.2665E+02
     20.461  0.1303E+01  0.1303E+01  0.2676E+02  0.2676E+02
     20.544  0.1221E+01  0.1217E+01  0.2686E+02  0.2686E+02
     20.627  0.5947E+00  0.5887E+00  0.2691E+02  0.2691E+02
     20.710  0.1514E+00  0.1493E+00  0.2692E+02  0.2692E+02
     20.793  0.2943E-01  0.2900E-01  0.2693E+02  0.2693E+02
     20.876  0.6393E-02  0.6322E-02  0.2693E+02  0.2693E+02
     20.960  0.4072E-02  0.4140E-02  0.2693E+02  0.2693E+02
     21.043  0.2102E-01  0.2137E-01  0.2693E+02  0.2693E+02
     21.126  0.1051E+00  0.1068E+00  0.2694E+02  0.2694E+02
     21.209  0.4368E+00  0.4424E+00  0.2697E+02  0.2697E+02
     21.292  0.1151E+01  0.1160E+01  0.2707E+02  0.2707E+02
     21.375  0.1890E+01  0.1896E+01  0.2723E+02  0.2723E+02
     21.459  0.1866E+01  0.1859E+01  0.2738E+02  0.2738E+02
     21.542  0.9097E+00  0.8995E+00  0.2746E+02  0.2746E+02
     21.625  0.2530E+00  0.2496E+00  0.2748E+02  0.2748E+02
     21.708  0.1213E+00  0.1217E+00  0.2749E+02  0.2749E+02
     21.791  0.3100E+00  0.3136E+00  0.2751E+02  0.2751E+02
     21.874  0.6759E+00  0.6764E+00  0.2757E+02  0.2757E+02
     21.958  0.5842E+00  0.5742E+00  0.2762E+02  0.2762E+02
     22.041  0.4498E+00  0.4291E+00  0.2766E+02  0.2765E+02
     22.124  0.7715E+00  0.7613E+00  0.2772E+02  0.2772E+02
     22.207  0.1128E+01  0.1151E+01  0.2781E+02  0.2781E+02
     22.290  0.1135E+01  0.1146E+01  0.2791E+02  0.2791E+02
     22.373  0.4988E+00  0.5004E+00  0.2795E+02  0.2795E+02
     22.457  0.1205E+00  0.1207E+00  0.2796E+02  0.2796E+02
     22.540  0.2317E-01  0.2309E-01  0.2796E+02  0.2796E+02
     22.623  0.4436E-02  0.4421E-02  0.2796E+02  0.2796E+02
     22.706  0.0000E+00  0.0000E+00  0.2796E+02  0.2796E+02
     22.789  0.0000E+00  0.0000E+00  0.2796E+02  0.2796E+02
     22.872  0.0000E+00  0.0000E+00  0.2796E+02  0.2796E+02
     22.956  0.0000E+00  0.0000E+00  0.2796E+02  0.2796E+02
     23.039  0.0000E+00  0.0000E+00  0.2796E+02  0.2796E+02
     23.122  0.0000E+00  0.0000E+00  0.2796E+02  0.2796E+02
     23.205  0.0000E+00  0.0000E+00  0.2796E+02  0.2796E+02
     23.288  0.5944E-04  0.6005E-04  0.2796E+02  0.2796E+02
     23.371  0.2540E-03  0.2567E-03  0.2796E+02  0.2796E+02
     23.455  0.1336E-02  0.1350E-02  0.2796E+02  0.2796E+02
     23.538  0.6917E-02  0.6988E-02  0.2796E+02  0.2796E+02
     23.621  0.3320E-01  0.3351E-01  0.2797E+02  0.2797E+02
     23.704  0.1155E+00  0.1162E+00  0.2798E+02  0.2798E+02
     23.787  0.1733E+00  0.1731E+00  0.2799E+02  0.2799E+02
     23.870  0.8724E-01  0.8663E-01  0.2800E+02  0.2800E+02
     23.954  0.2200E-01  0.2179E-01  0.2800E+02  0.2800E+02
     24.037  0.4432E-02  0.4387E-02  0.2800E+02  0.2800E+02
     24.120  0.8499E-03  0.8412E-03  0.2800E+02  0.2800E+02
     24.203  0.0000E+00  0.0000E+00  0.2800E+02  0.2800E+02
     24.286  0.0000E+00  0.0000E+00  0.2800E+02  0.2800E+02
     24.369  0.0000E+00  0.0000E+00  0.2800E+02  0.2800E+02
     24.453  0.0000E+00  0.0000E+00  0.2800E+02  0.2800E+02
     24.536  0.0000E+00  0.0000E+00  0.2800E+02  0.2800E+02
     24.619  0.0000E+00  0.0000E+00  0.2800E+02  0.2800E+02
     24.702  0.0000E+00  0.0000E+00  0.2800E+02  0.2800E+02
     24.785  0.0000E+00  0.0000E+00  0.2800E+02  0.2800E+02
     24.868  0.0000E+00  0.0000E+00  0.2800E+02  0.2800E+02
     24.86837042     -0.08172284  301     10.63098788      1.00000000
     -0.082  0.0000E+00  0.0000E+00  0.0000E+00  0.0000E+00  0.0000E+00  0.0000E+00  0.0000E+00  0.0000E+00  0.0000E+00  0.0000E+00  0.0000E+00  0.0000E+00  0.0000E+00  0.0000E+00  0.0000E+00  0.0000E+00  0.0000E+00  0.0000E+00
      0.001  0.0000E+00  0.0000E+00  0.0000E+00  0.0000E+00  0.0000E+00  0.0000E+00  0.0000E+00  0.0000E+00  0.0000E+00  0.0000E+00  0.0000E+00  0.0000E+00  0.0000E+00  0.0000E+00  0.0000E+00  0.0000E+00  0.0000E+00  0.0000E+00
      0.085  0.0000E+00  0.0000E+00  0.0000E+00  0.0000E+00  0.0000E+00  0.0000E+00  0.0000E+00  0.0000E+00  0.0000E+00  0.0000E+00  0.0000E+00  0.0000E+00  0.0000E+00  0.0000E+00  0.0000E+00  0.0000E+00  0.0000E+00  0.0000E+00
      0.168  0.0000E+00  0.0000E+00  0.0000E+00  0.0000E+00  0.0000E+00  0.0000E+00  0.0000E+00  0.0000E+00  0.0000E+00  0.0000E+00  0.0000E+00  0.0000E+00  0.0000E+00  0.0000E+00  0.0000E+00  0.0000E+00  0.0000E+00  0.0000E+00
      0.251  0.0000E+00  0.0000E+00  0.0000E+00  0.0000E+00  0.0000E+00  0.0000E+00  0.0000E+00  0.0000E+00  0.0000E+00  0.0000E+00  0.0000E+00  0.0000E+00  0.0000E+00  0.0000E+00  0.0000E+00  0.0000E+00  0.0000E+00  0.0000E+00
      0.334  0.0000E+00  0.0000E+00  0.0000E+00  0.0000E+00  0.0000E+00  0.0000E+00  0.0000E+00  0.0000E+00  0.0000E+00  0.0000E+00  0.0000E+00  0.0000E+00  0.0000E+00  0.0000E+00  0.0000E+00  0.0000E+00  0.0000E+00  0.0000E+00
      0.417  0.0000E+00  0.0000E+00  0.0000E+00  0.0000E+00  0.0000E+00  0.0000E+00  0.0000E+00  0.0000E+00  0.0000E+00  0.0000E+00  0.0000E+00  0.0000E+00  0.0000E+00  0.0000E+00  0.0000E+00  0.0000E+00  0.0000E+00  0.0000E+00
      0.500  0.0000E+00  0.0000E+00  0.0000E+00  0.0000E+00  0.0000E+00  0.0000E+00  0.0000E+00  0.0000E+00  0.0000E+00  0.0000E+00  0.0000E+00  0.0000E+00  0.0000E+00  0.0000E+00  0.0000E+00  0.0000E+00  0.0000E+00  0.0000E+00
      0.584  0.7173E-05  0.7244E-05  0.4847E-07  0.4898E-07  0.4847E-07  0.4898E-07  0.4847E-07  0.4898E-07  0.2795E-08  0.2824E-08  0.2795E-08  0.2824E-08  0.6056E-21  0.9707E-21  0.2795E-08  0.2824E-08  0.6056E-21  0.9707E-21
      0.667  0.3067E-04  0.3097E-04  0.2072E-06  0.2094E-06  0.2072E-06  0.2094E-06  0.2072E-06  0.2094E-06  0.1195E-07  0.1207E-07  0.1195E-07  0.1207E-07  0.2589E-20  0.4150E-20  0.1195E-07  0.1207E-07  0.2589E-20  0.4150E-20
      0.750  0.1615E-03  0.1631E-03  0.1091E-05  0.1103E-05  0.1091E-05  0.1103E-05  0.1091E-05  0.1103E-05  0.6292E-07  0.6357E-07  0.6292E-07  0.6357E-07  0.1363E-19  0.2185E-19  0.6292E-07  0.6357E-07  0.1363E-19  0.2185E-19
      0.833  0.8420E-03  0.8502E-03  0.5689E-05  0.5749E-05  0.5689E-05  0.5749E-05  0.5689E-05  0.5749E-05  0.3281E-06  0.3315E-06  0.3281E-06  0.3315E-06  0.7108E-19  0.1139E-18  0.3281E-06  0.3315E-06  0.7108E-19  0.1139E-18
      0.916  0.4181E-02  0.4220E-02  0.2825E-04  0.2853E-04  0.2825E-04  0.2853E-04  0.2825E-04  0.2853E-04  0.1629E-05  0.1645E-05  0.1629E-05  0.1645E-05  0.3530E-18  0.5654E-18  0.1629E-05  0.1645E-05  0.3530E-18  0.5654E-18
      0.999  0.1663E-01  0.1674E-01  0.1123E-03  0.1132E-03  0.1123E-03  0.1132E-03  0.1123E-03  0.1132E-03  0.6479E-05  0.6525E-05  0.6479E-05  0.6525E-05  0.1404E-17  0.2243E-17  0.6479E-05  0.6525E-05  0.1404E-17  0.2243E-17
      1.083  0.3323E-01  0.3325E-01  0.2245E-03  0.2248E-03  0.2245E-03  0.2248E-03  0.2245E-03  0.2248E-03  0.1295E-04  0.1296E-04  0.1295E-04  0.1296E-04  0.2805E-17  0.4455E-17  0.1295E-04  0.1296E-04  0.2805E-17  0.4455E-17
      1.166  0.2230E-01  0.2217E-01  0.1507E-03  0.1499E-03  0.1507E-03  0.1499E-03  0.1507E-03  0.1499E-03  0.8690E-05  0.8642E-05  0.8690E-05  0.8642E-05  0.1883E-17  0.2970E-17  0.8690E-05  0.8642E-05  0.1883E-17  0.2970E-17
      1.249  0.6430E-02  0.6370E-02  0.4345E-04  0.4307E-04  0.4345E-04  0.4307E-04  0.4345E-04  0.4307E-04  0.2506E-05  0.2483E-05  0.2506E-05  0.2483E-05  0.5429E-18  0.8535E-18  0.2506E-05  0.2483E-05  0.5429E-18  0.8535E-18
      1.332  0.1414E-02  0.1401E-02  0.1088E-04  0.1081E-04  0.1088E-04  0.1081E-04  0.1088E-04  0.1081E-04  0.7227E-06  0.7196E-06  0.7227E-06  0.7196E-06  0.1742E-06  0.1760E-06  0.7227E-06  0.7196E-06  0.1742E-06  0.1760E-06
      1.415  0.5702E-03  0.5706E-03  0.9505E-05  0.9570E-05  0.9505E-05  0.9570E-05  0.9505E-05  0.9570E-05  0.9555E-06  0.9635E-06  0.9555E-06  0.9635E-06  0.7438E-06  0.7516E-06  0.9555E-06  0.9635E-06  0.7438E-06  0.7516E-06
      1.498  0.1629E-02  0.1645E-02  0.4059E-04  0.4102E-04  0.4059E-04  0.4102E-04  0.4059E-04  0.4102E-04  0.4473E-05  0.4520E-05  0.4473E-05  0.4520E-05  0.3894E-05  0.3934E-05  0.4473E-05  0.4520E-05  0.3894E-05  0.3934E-05
      1.582  0.8244E-02  0.8322E-02  0.2054E-03  0.2075E-03  0.2054E-03  0.2075E-03  0.2054E-03  0.2075E-03  0.2264E-04  0.2286E-04  0.2264E-04  0.2286E-04  0.1970E-04  0.1990E-04  0.2264E-04  0.2286E-04  0.1970E-04  0.1990E-04
      1.665  0.3553E-01  0.3580E-01  0.8854E-03  0.8927E-03  0.8854E-03  0.8927E-03  0.8854E-03  0.8927E-03  0.9757E-04  0.9837E-04  0.9757E-04  0.9837E-04  0.8493E-04  0.8561E-04  0.9757E-04  0.9837E-04  0.8493E-04  0.8561E-04
      1.748  0.8752E-01  0.8772E-01  0.2181E-02  0.2187E-02  0.2181E-02  0.2187E-02  0.2181E-02  0.2187E-02  0.2403E-03  0.2410E-03  0.2403E-03  0.2410E-03  0.2092E-03  0.2097E-03  0.2403E-03  0.2410E-03  0.2092E-03  0.2097E-03
      1.831  0.7571E-01  0.7535E-01  0.1887E-02  0.1879E-02  0.1887E-02  0.1879E-02  0.1887E-02  0.1879E-02  0.2079E-03  0.2070E-03  0.2079E-03  0.2070E-03  0.1810E-03  0.1802E-03  0.2079E-03  0.2070E-03  0.1810E-03  0.1802E-03
      1.914  0.2525E-01  0.2502E-01  0.6298E-03  0.6245E-03  0.6298E-03  0.6245E-03  0.6298E-03  0.6245E-03  0.6992E-04  0.6935E-04  0.6992E-04  0.6935E-04  0.6032E-04  0.5980E-04  0.6992E-04  0.6935E-04  0.6032E-04  0.5980E-04
      1.997  0.5654E-02  0.5599E-02  0.1436E-03  0.1424E-03  0.1436E-03  0.1424E-03  0.1436E-03  0.1424E-03  0.1805E-04  0.1794E-04  0.1805E-04  0.1794E-04  0.1339E-04  0.1326E-04  0.1805E-04  0.1794E-04  0.1339E-04  0.1326E-04
      2.081  0.1989E-02  0.1988E-02  0.6384E-04  0.6400E-04  0.6384E-04  0.6400E-04  0.6384E-04  0.6400E-04  0.1871E-04  0.1887E-04  0.1871E-04  0.1887E-04  0.4090E-05  0.4081E-05  0.1871E-04  0.1887E-04  0.4090E-05  0.4081E-05
      2.164  0.4741E-02  0.4791E-02  0.1916E-03  0.1937E-03  0.1916E-03  0.1937E-03  0.1916E-03  0.1937E-03  0.8119E-04  0.8211E-04  0.8119E-04  0.8211E-04  0.7917E-05  0.8004E-05  0.8119E-04  0.8211E-04  0.7917E-05  0.8004E-05
      2.247  0.2202E-01  0.2222E-01  0.8898E-03  0.8986E-03  0.8898E-03  0.8986E-03  0.8898E-03  0.8986E-03  0.3771E-03  0.3808E-03  0.3771E-03  0.3808E-03  0.3677E-04  0.3712E-04  0.3771E-03  0.3808E-03  0.3677E-04  0.3712E-04
      2.330  0.6822E-01  0.6854E-01  0.2757E-02  0.2772E-02  0.2757E-02  0.2772E-02  0.2757E-02  0.2772E-02  0.1169E-02  0.1175E-02  0.1169E-02  0.1175E-02  0.1139E-03  0.1145E-03  0.1169E-02  0.1175E-02  0.1139E-03  0.1145E-03
      2.413  0.8303E-01  0.8278E-01  0.3356E-02  0.3348E-02  0.3356E-02  0.3348E-02  0.3356E-02  0.3348E-02  0.1424E-02  0.1421E-02  0.1424E-02  0.1421E-02  0.1386E-03  0.1382E-03  0.1424E-02  0.1421E-02  0.1386E-03  0.1382E-03
      2.496  0.3526E-01  0.3495E-01  0.1426E-02  0.1415E-02  0.1426E-02  0.1415E-02  0.1426E-02  0.1415E-02  0.6133E-03  0.6086E-03  0.6133E-03  0.6086E-03  0.5947E-04  0.5898E-04  0.6133E-03  0.6086E-03  0.5947E-04  0.5898E-04
      2.580  0.9333E-02  0.9256E-02  0.3844E-03  0.3816E-03  0.3844E-03  0.3816E-03  0.3844E-03  0.3816E-03  0.2092E-03  0.2088E-03  0.2092E-03  0.2088E-03  0.1781E-04  0.1771E-04  0.2092E-03  0.2088E-03  0.1781E-04  0.1771E-04
      2.663  0.6925E-02  0.6971E-02  0.3158E-03  0.3182E-03  0.3158E-03  0.3182E-03  0.3158E-03  0.3182E-03  0.3566E-03  0.3609E-03  0.3566E-03  0.3609E-03  0.2399E-04  0.2418E-04  0.3566E-03  0.3609E-03  0.2399E-04  0.2418E-04
      2.746  0.1970E-01  0.1985E-01  0.9437E-03  0.9519E-03  0.9437E-03  0.9519E-03  0.9437E-03  0.9519E-03  0.1174E-02  0.1185E-02  0.1174E-02  0.1185E-02  0.1103E-03  0.1114E-03  0.1174E-02  0.1185E-02  0.1103E-03  0.1114E-03
      2.829  0.4024E-01  0.4033E-01  0.2067E-02  0.2074E-02  0.2067E-02  0.2074E-02  0.2067E-02  0.2074E-02  0.1913E-02  0.1913E-02  0.1913E-02  0.1913E-02  0.5335E-03  0.5386E-03  0.1913E-02  0.1913E-02  0.5335E-03  0.5386E-03
      2.912  0.6404E-01  0.6418E-01  0.3769E-02  0.3783E-02  0.3769E-02  0.3783E-02  0.3769E-02  0.3783E-02  0.1361E-02  0.1356E-02  0.1361E-02  0.1356E-02  0.1914E-02  0.1925E-02  0.1361E-02  0.1356E-02  0.1914E-02  0.1925E-02
      2.995  0.8380E-01  0.8366E-01  0.5180E-02  0.5176E-02  0.5180E-02  0.5176E-02  0.5180E-02  0.5176E-02  0.9217E-03  0.9186E-03  0.9217E-03  0.9186E-03  0.3050E-02  0.3048E-02  0.9217E-03  0.9186E-03  0.3050E-02  0.3048E-02
      3.079  0.4377E-01  0.4344E-01  0.2728E-02  0.2710E-02  0.2728E-02  0.2710E-02  0.2728E-02  0.2710E-02  0.4340E-03  0.4315E-03  0.4340E-03  0.4315E-03  0.1630E-02  0.1619E-02  0.4340E-03  0.4315E-03  0.1630E-02  0.1619E-02
      3.162  0.1316E-01  0.1308E-01  0.8407E-03  0.8362E-03  0.8407E-03  0.8362E-03  0.8407E-03  0.8362E-03  0.2321E-03  0.2332E-03  0.2321E-03  0.2332E-03  0.4627E-03  0.4593E-03  0.2321E-03  0.2332E-03  0.4627E-03  0.4593E-03
      3.245  0.1253E-01  0.1264E-01  0.8861E-03  0.8949E-03  0.8861E-03  0.8949E-03  0.8861E-03  0.8949E-03  0.6841E-03  0.6940E-03  0.6841E-03  0.6940E-03  0.3108E-03  0.3129E-03  0.6841E-03  0.6940E-03  0.3108E-03  0.3129E-03
      3.328  0.4725E-01  0.4776E-01  0.3415E-02  0.3454E-02  0.3415E-02  0.3454E-02  0.3415E-02  0.3454E-02  0.3085E-02  0.3127E-02  0.3085E-02  0.3127E-02  0.1039E-02  0.1050E-02  0.3085E-02  0.3127E-02  0.1039E-02  0.1050E-02
      3.411  0.1373E+00  0.1381E+00  0.9847E-02  0.9907E-02  0.9847E-02  0.9907E-02  0.9847E-02  0.9907E-02  0.9848E-02  0.9945E-02  0.9848E-02  0.9945E-02  0.2937E-02  0.2953E-02  0.9848E-02  0.9945E-02  0.2937E-02  0.2953E-02
      3.494  0.1743E+00  0.1741E+00  0.1200E-01  0.1199E-01  0.1200E-01  0.1199E-01  0.1200E-01  0.1199E-01  0.1719E-01  0.1730E-01  0.1719E-01  0.1730E-01  0.3382E-02  0.3374E-02  0.1719E-01  0.1730E-01  0.3382E-02  0.3374E-02
      3.578  0.1157E+00  0.1151E+00  0.7126E-02  0.7080E-02  0.7126E-02  0.7080E-02  0.7126E-02  0.7080E-02  0.1970E-01  0.1976E-01  0.1970E-01  0.1976E-01  0.1735E-02  0.1721E-02  0.1970E-01  0.1976E-01  0.1735E-02  0.1721E-02
      3.661  0.5896E-01  0.5862E-01  0.2878E-02  0.2853E-02  0.2878E-02  0.2853E-02  0.2878E-02  0.2853E-02  0.1890E-01  0.1898E-01  0.1890E-01  0.1898E-01  0.5996E-03  0.5927E-03  0.1890E-01  0.1898E-01  0.5996E-03  0.5927E-03
      3.744  0.4831E-01  0.4860E-01  0.1873E-02  0.1884E-02  0.1873E-02  0.1884E-02  0.1873E-02  0.1884E-02  0.2431E-01  0.2456E-01  0.2431E-01  0.2456E-01  0.3480E-03  0.3487E-03  0.2431E-01  0.2456E-01  0.3480E-03  0.3487E-03
      3.827  0.6991E-01  0.7020E-01  0.2549E-02  0.2555E-02  0.2549E-02  0.2555E-02  0.2549E-02  0.2555E-02  0.4134E-01  0.4168E-01  0.4134E-01  0.4168E-01  0.1041E-02  0.1051E-02  0.4134E-01  0.4168E-01  0.1041E-02  0.1051E-02
      3.910  0.6413E-01  0.6355E-01  0.2197E-02  0.2178E-02  0.2197E-02  0.2178E-02  0.2197E-02  0.2178E-02  0.4209E-01  0.4180E-01  0.4209E-01  0.4180E-01  0.4705E-02  0.4749E-02  0.4209E-01  0.4180E-01  0.4705E-02  0.4749E-02
      3.993  0.4487E-01  0.4448E-01  0.2511E-02  0.2518E-02  0.2511E-02  0.2518E-02  0.2511E-02  0.2518E-02  0.2033E-01  0.1993E-01  0.2033E-01  0.1993E-01  0.2084E-01  0.2101E-01  0.2033E-01  0.1993E-01  0.2084E-01  0.2101E-01
      4.077  0.7404E-01  0.7439E-01  0.6358E-02  0.6408E-02  0.6358E-02  0.6408E-02  0.6358E-02  0.6408E-02  0.1240E-01  0.1244E-01  0.1240E-01  0.1244E-01  0.6022E-01  0.6046E-01  0.1240E-01  0.1244E-01  0.6022E-01  0.6046E-01