   4   4   1   0
  0.1468506E+02  0.3887275E-09  0.3887275E-09  0.3887275E-09  0.5000000E-15
  1.000000000000000E-004
  CAR 
 unknown system                          
     26.42032767      0.36570258  301     11.80340246      1.00000000
      0.366  0.0000E+00  0.0000E+00  0.0000E+00  0.0000E+00
      0.453  0.0000E+00  0.0000E+00  0.0000E+00  0.0000E+00
      0.539  0.0000E+00  0.0000E+00  0.0000E+00  0.0000E+00
      0.626  0.0000E+00  0.0000E+00  0.0000E+00  0.0000E+00
      0.713  0.0000E+00  0.0000E+00  0.0000E+00  0.0000E+00
      0.800  0.0000E+00  0.0000E+00  0.0000E+00  0.0000E+00
      0.887  0.0000E+00  0.0000E+00  0.0000E+00  0.0000E+00
      0.974  0.0000E+00  0.0000E+00  0.0000E+00  0.0000E+00
      1.060  0.0000E+00  0.0000E+00  0.0000E+00  0.0000E+00
      1.147  0.1356E-03  0.1349E-03  0.1178E-04  0.1172E-04
      1.234  0.6335E-03  0.6302E-03  0.6679E-04  0.6645E-04
      1.321  0.3563E-02  0.3545E-02  0.3762E-03  0.3743E-03
      1.408  0.1916E-01  0.1907E-01  0.2040E-02  0.2030E-02
      1.495  0.8259E-01  0.8229E-01  0.9213E-02  0.9177E-02
      1.582  0.1723E+00  0.1723E+00  0.2418E-01  0.2414E-01
      1.668  0.1115E+00  0.1119E+00  0.3387E-01  0.3385E-01
      1.755  0.2959E-01  0.2973E-01  0.3644E-01  0.3643E-01
      1.842  0.5907E-02  0.5935E-02  0.3695E-01  0.3695E-01
      1.929  0.2076E-02  0.2076E-02  0.3713E-01  0.3713E-01
      2.016  0.5989E-02  0.5959E-02  0.3767E-01  0.3767E-01
      2.103  0.3298E-01  0.3282E-01  0.4053E-01  0.4052E-01
      2.190  0.1591E+00  0.1584E+00  0.5435E-01  0.5427E-01
      2.276  0.4554E+00  0.4547E+00  0.9390E-01  0.9376E-01
      2.363  0.4406E+00  0.4415E+00  0.1322E+00  0.1321E+00
      2.450  0.1474E+00  0.1480E+00  0.1450E+00  0.1450E+00
      2.537  0.3070E-01  0.3085E-01  0.1476E+00  0.1476E+00
      2.624  0.8781E-02  0.8794E-02  0.1484E+00  0.1484E+00
      2.711  0.1858E-01  0.1849E-01  0.1501E+00  0.1501E+00
      2.797  0.9603E-01  0.9563E-01  0.1585E+00  0.1584E+00
      2.884  0.3513E+00  0.3505E+00  0.1890E+00  0.1888E+00
      2.971  0.5119E+00  0.5122E+00  0.2334E+00  0.2333E+00
      3.058  0.2339E+00  0.2346E+00  0.2537E+00  0.2537E+00
      3.145  0.5862E-01  0.5883E-01  0.2588E+00  0.2588E+00
      3.232  0.3979E-01  0.3975E-01  0.2623E+00  0.2623E+00
      3.319  0.1192E+00  0.1190E+00  0.2728E+00  0.2728E+00
      3.405  0.2365E+00  0.2362E+00  0.2934E+00  0.2933E+00
      3.492  0.3521E+00  0.3513E+00  0.3239E+00  0.3238E+00
      3.579  0.5418E+00  0.5417E+00  0.3710E+00  0.3709E+00
      3.666  0.3208E+00  0.3219E+00  0.3989E+00  0.3988E+00
      3.753  0.9134E-01  0.9171E-01  0.4068E+00  0.4068E+00
      3.840  0.6932E-01  0.6923E-01  0.4128E+00  0.4128E+00
      3.927  0.2771E+00  0.2764E+00  0.4369E+00  0.4368E+00
      4.013  0.9584E+00  0.9572E+00  0.5202E+00  0.5200E+00
      4.100  0.1474E+01  0.1475E+01  0.6482E+00  0.6481E+00
      4.187  0.1048E+01  0.1050E+01  0.7392E+00  0.7393E+00
      4.274  0.6108E+00  0.6117E+00  0.7923E+00  0.7924E+00
      4.361  0.8388E+00  0.8406E+00  0.8651E+00  0.8654E+00
      4.448  0.1056E+01  0.1055E+01  0.9571E+00  0.9573E+00
      4.534  0.7658E+00  0.7613E+00  0.1024E+01  0.1024E+01
      4.621  0.9061E+00  0.9037E+00  0.1102E+01  0.1102E+01
      4.708  0.1248E+01  0.1249E+01  0.1211E+01  0.1211E+01
      4.795  0.2018E+01  0.2021E+01  0.1386E+01  0.1386E+01
      4.882  0.2789E+01  0.2792E+01  0.1628E+01  0.1629E+01
      4.969  0.2267E+01  0.2267E+01  0.1825E+01  0.1826E+01
      5.056  0.2766E+01  0.2763E+01  0.2066E+01  0.2066E+01
      5.142  0.3096E+01  0.3094E+01  0.2335E+01  0.2334E+01
      5.229  0.2433E+01  0.2434E+01  0.2546E+01  0.2546E+01
      5.316  0.2838E+01  0.2842E+01  0.2793E+01  0.2793E+01
      5.403  0.2496E+01  0.2502E+01  0.3010E+01  0.3010E+01
      5.490  0.2218E+01  0.2221E+01  0.3203E+01  0.3204E+01
      5.577  0.2421E+01  0.2422E+01  0.3413E+01  0.3414E+01
      5.663  0.2285E+01  0.2279E+01  0.3612E+01  0.3612E+01
      5.750  0.2117E+01  0.2114E+01  0.3796E+01  0.3796E+01
      5.837  0.3639E+01  0.3643E+01  0.4112E+01  0.4112E+01
      5.924  0.3559E+01  0.3561E+01  0.4421E+01  0.4422E+01
      6.011  0.2040E+01  0.2036E+01  0.4598E+01  0.4599E+01
      6.098  0.1758E+01  0.1756E+01  0.4751E+01  0.4751E+01
      6.185  0.1282E+01  0.1283E+01  0.4862E+01  0.4863E+01
      6.271  0.9791E+00  0.9837E+00  0.4948E+01  0.4949E+01
      6.358  0.1834E+01  0.1839E+01  0.5107E+01  0.5108E+01
      6.445  0.2739E+01  0.2735E+01  0.5345E+01  0.5346E+01
      6.532  0.2975E+01  0.2969E+01  0.5604E+01  0.5604E+01
      6.619  0.2704E+01  0.2704E+01  0.5839E+01  0.5839E+01
      6.706  0.2041E+01  0.2038E+01  0.6016E+01  0.6016E+01
      6.793  0.2062E+01  0.2064E+01  0.6195E+01  0.6195E+01
      6.879  0.2195E+01  0.2198E+01  0.6386E+01  0.6386E+01
      6.966  0.1766E+01  0.1766E+01  0.6540E+01  0.6540E+01
      7.053  0.2378E+01  0.2383E+01  0.6746E+01  0.6747E+01
      7.140  0.3949E+01  0.3945E+01  0.7089E+01  0.7090E+01
      7.227  0.4374E+01  0.4378E+01  0.7470E+01  0.7470E+01
      7.314  0.3188E+01  0.3184E+01  0.7746E+01  0.7747E+01
      7.400  0.2183E+01  0.2180E+01  0.7936E+01  0.7936E+01
      7.487  0.1527E+01  0.1531E+01  0.8069E+01  0.8070E+01
      7.574  0.2178E+01  0.2182E+01  0.8259E+01  0.8260E+01
      7.661  0.3937E+01  0.3946E+01  0.8601E+01  0.8603E+01
      7.748  0.4780E+01  0.4777E+01  0.9016E+01  0.9018E+01
      7.835  0.3482E+01  0.3471E+01  0.9319E+01  0.9319E+01
      7.922  0.2525E+01  0.2524E+01  0.9538E+01  0.9538E+01
      8.008  0.2906E+01  0.2907E+01  0.9791E+01  0.9791E+01
      8.095  0.3904E+01  0.3909E+01  0.1013E+02  0.1013E+02
      8.182  0.3697E+01  0.3700E+01  0.1045E+02  0.1045E+02
      8.269  0.4039E+01  0.4045E+01  0.1080E+02  0.1080E+02
      8.356  0.5289E+01  0.5284E+01  0.1126E+02  0.1126E+02
      8.443  0.4487E+01  0.4477E+01  0.1165E+02  0.1165E+02
      8.529  0.3314E+01  0.3314E+01  0.1194E+02  0.1194E+02
      8.616  0.2306E+01  0.2310E+01  0.1214E+02  0.1214E+02
      8.703  0.2085E+01  0.2087E+01  0.1232E+02  0.1232E+02
      8.790  0.2849E+01  0.2849E+01  0.1257E+02  0.1257E+02
      8.877  0.2556E+01  0.2556E+01  0.1279E+02  0.1279E+02
      8.964  0.1594E+01  0.1591E+01  0.1293E+02  0.1293E+02
      9.051  0.1530E+01  0.1522E+01  0.1306E+02  0.1306E+02
      9.137  0.1887E+01  0.1883E+01  0.1323E+02  0.1323E+02
      9.224  0.2323E+01  0.2327E+01  0.1343E+02  0.1343E+02
      9.311  0.2219E+01  0.2229E+01  0.1362E+02  0.1362E+02
      9.398  0.1560E+01  0.1557E+01  0.1376E+02  0.1376E+02
      9.485  0.2023E+01  0.2015E+01  0.1393E+02  0.1393E+02
      9.572  0.3374E+01  0.3365E+01  0.1423E+02  0.1423E+02
      9.659  0.3664E+01  0.3663E+01  0.1455E+02  0.1454E+02
      9.745  0.4059E+01  0.4065E+01  0.1490E+02  0.1490E+02
      9.832  0.3985E+01  0.3985E+01  0.1524E+02  0.1524E+02
      9.919  0.3447E+01  0.3445E+01  0.1554E+02  0.1554E+02
     10.006  0.2063E+01  0.2068E+01  0.1572E+02  0.1572E+02
     10.093  0.1075E+01  0.1080E+01  0.1582E+02  0.1582E+02
     10.180  0.8099E+00  0.8082E+00  0.1589E+02  0.1589E+02
     10.266  0.1399E+01  0.1392E+01  0.1601E+02  0.1601E+02
     10.353  0.1927E+01  0.1931E+01  0.1618E+02  0.1618E+02
     10.440  0.2320E+01  0.2326E+01  0.1638E+02  0.1638E+02
     10.527  0.2589E+01  0.2595E+01  0.1660E+02  0.1660E+02
     10.614  0.2325E+01  0.2327E+01  0.1681E+02  0.1681E+02
     10.701  0.3134E+01  0.3130E+01  0.1708E+02  0.1708E+02
     10.788  0.3886E+01  0.3878E+01  0.1742E+02  0.1742E+02
     10.874  0.3041E+01  0.3039E+01  0.1768E+02  0.1768E+02
     10.961  0.1494E+01  0.1502E+01  0.1781E+02  0.1781E+02
     11.048  0.1024E+01  0.1027E+01  0.1790E+02  0.1790E+02
     11.135  0.1137E+01  0.1134E+01  0.1800E+02  0.1800E+02
     11.222  0.1349E+01  0.1346E+01  0.1812E+02  0.1812E+02
     11.309  0.2367E+01  0.2372E+01  0.1832E+02  0.1832E+02
     11.395  0.3595E+01  0.3612E+01  0.1863E+02  0.1864E+02
     11.482  0.4332E+01  0.4326E+01  0.1901E+02  0.1901E+02
     11.569  0.3413E+01  0.3409E+01  0.1931E+02  0.1931E+02
     11.656  0.3171E+01  0.3177E+01  0.1958E+02  0.1958E+02
     11.743  0.3067E+01  0.3063E+01  0.1985E+02  0.1985E+02
     11.830  0.2409E+01  0.2404E+01  0.2006E+02  0.2006E+02
     11.917  0.1893E+01  0.1895E+01  0.2022E+02  0.2022E+02
     12.003  0.2088E+01  0.2100E+01  0.2040E+02  0.2041E+02
     12.090  0.3037E+01  0.3048E+01  0.2067E+02  0.2067E+02
     12.177  0.2604E+01  0.2592E+01  0.2090E+02  0.2090E+02
     12.264  0.1802E+01  0.1791E+01  0.2105E+02  0.2105E+02
     12.351  0.2367E+01  0.2365E+01  0.2126E+02  0.2126E+02
     12.438  0.2246E+01  0.2243E+01  0.2145E+02  0.2145E+02
     12.525  0.9180E+00  0.9164E+00  0.2153E+02  0.2153E+02
     12.611  0.2141E+00  0.2137E+00  0.2155E+02  0.2155E+02
     12.698  0.4051E-01  0.4044E-01  0.2155E+02  0.2155E+02
     12.785  0.5140E-02  0.5138E-02  0.2156E+02  0.2156E+02
     12.872  0.8501E-02  0.8502E-02  0.2156E+02  0.2156E+02
     12.959  0.4622E-01  0.4622E-01  0.2156E+02  0.2156E+02
     13.046  0.2098E+00  0.2098E+00  0.2158E+02  0.2158E+02
     13.132  0.5007E+00  0.5007E+00  0.2162E+02  0.2162E+02
     13.219  0.3830E+00  0.3830E+00  0.2166E+02  0.2166E+02
     13.306  0.1354E+00  0.1354E+00  0.2167E+02  0.2167E+02
     13.393  0.1614E+00  0.1616E+00  0.2168E+02  0.2168E+02
     13.480  0.5809E+00  0.5814E+00  0.2173E+02  0.2173E+02
     13.567  0.1108E+01  0.1108E+01  0.2183E+02  0.2183E+02
     13.654  0.8994E+00  0.8995E+00  0.2191E+02  0.2191E+02
     13.740  0.1045E+01  0.1046E+01  0.2200E+02  0.2200E+02
     13.827  0.9470E+00  0.9463E+00  0.2208E+02  0.2208E+02
     13.914  0.4197E+00  0.4195E+00  0.2212E+02  0.2212E+02
     14.001  0.5310E+00  0.5320E+00  0.2216E+02  0.2216E+02
     14.088  0.1043E+01  0.1044E+01  0.2225E+02  0.2225E+02
     14.175  0.7458E+00  0.7446E+00  0.2232E+02  0.2232E+02
     14.262  0.3917E+00  0.3916E+00  0.2235E+02  0.2235E+02
     14.348  0.5305E+00  0.5307E+00  0.2240E+02  0.2240E+02
     14.435  0.3971E+00  0.3964E+00  0.2243E+02  0.2243E+02
     14.522  0.1166E+00  0.1162E+00  0.2244E+02  0.2244E+02
     14.609  0.3064E-01  0.3056E-01  0.2244E+02  0.2244E+02
     14.696  0.4807E-01  0.4806E-01  0.2245E+02  0.2245E+02
     14.783  0.2244E+00  0.2245E+00  0.2247E+02  0.2247E+02
     14.869  0.8004E+00  0.8007E+00  0.2254E+02  0.2254E+02
     14.956  0.1299E+01  0.1299E+01  0.2265E+02  0.2265E+02
     15.043  0.9753E+00  0.9751E+00  0.2274E+02  0.2274E+02
     15.130  0.3803E+00  0.3801E+00  0.2277E+02  0.2277E+02
     15.217  0.8802E-01  0.8798E-01  0.2278E+02  0.2278E+02
     15.304  0.2688E-01  0.2687E-01  0.2278E+02  0.2278E+02
     15.391  0.6905E-01  0.6906E-01  0.2278E+02  0.2278E+02
     15.477  0.3216E+00  0.3217E+00  0.2281E+02  0.2281E+02
     15.564  0.9151E+00  0.9152E+00  0.2289E+02  0.2289E+02
     15.651  0.8780E+00  0.8779E+00  0.2297E+02  0.2297E+02
     15.738  0.2972E+00  0.2971E+00  0.2299E+02  0.2299E+02
     15.825  0.9295E-01  0.9291E-01  0.2300E+02  0.2300E+02
     15.912  0.1858E+00  0.1857E+00  0.2302E+02  0.2302E+02
     15.998  0.6641E+00  0.6637E+00  0.2308E+02  0.2308E+02
     16.085  0.1045E+01  0.1045E+01  0.2317E+02  0.2317E+02
     16.172  0.5532E+00  0.5537E+00  0.2322E+02  0.2322E+02
     16.259  0.3743E+00  0.3750E+00  0.2325E+02  0.2325E+02
     16.346  0.8567E+00  0.8575E+00  0.2332E+02  0.2332E+02
     16.433  0.1020E+01  0.1019E+01  0.2341E+02  0.2341E+02
     16.520  0.6634E+00  0.6615E+00  0.2347E+02  0.2347E+02
     16.606  0.9652E+00  0.9634E+00  0.2355E+02  0.2355E+02
     16.693  0.9190E+00  0.9205E+00  0.2363E+02  0.2363E+02
     16.780  0.3131E+00  0.3143E+00  0.2366E+02  0.2366E+02
     16.867  0.6473E-01  0.6504E-01  0.2367E+02  0.2367E+02
     16.954  0.1175E-01  0.1180E-01  0.2367E+02  0.2367E+02
     17.041  0.0000E+00  0.0000E+00  0.2367E+02  0.2367E+02
     17.128  0.0000E+00  0.0000E+00  0.2367E+02  0.2367E+02
     17.214  0.1464E-03  0.1459E-03  0.2367E+02  0.2367E+02
     17.301  0.8945E-03  0.8913E-03  0.2367E+02  0.2367E+02
     17.388  0.4857E-02  0.4839E-02  0.2367E+02  0.2367E+02
     17.475  0.2713E-01  0.2704E-01  0.2367E+02  0.2367E+02
     17.562  0.1424E+00  0.1419E+00  0.2368E+02  0.2368E+02
     17.649  0.5501E+00  0.5489E+00  0.2373E+02  0.2373E+02
     17.735  0.1170E+01  0.1169E+01  0.2383E+02  0.2383E+02
     17.822  0.1452E+01  0.1452E+01  0.2396E+02  0.2396E+02
     17.909  0.1482E+01  0.1482E+01  0.2409E+02  0.2409E+02
     17.996  0.2351E+01  0.2350E+01  0.2429E+02  0.2429E+02
     18.083  0.2047E+01  0.2049E+01  0.2447E+02  0.2447E+02
     18.170  0.7868E+00  0.7885E+00  0.2454E+02  0.2454E+02
     18.257  0.1774E+00  0.1779E+00  0.2455E+02  0.2455E+02
     18.343  0.3298E-01  0.3308E-01  0.2455E+02  0.2455E+02
     18.430  0.3000E-02  0.3011E-02  0.2456E+02  0.2456E+02
     18.517  0.0000E+00  0.0000E+00  0.2456E+02  0.2456E+02
     18.604  0.0000E+00  0.0000E+00  0.2456E+02  0.2456E+02
     18.691  0.0000E+00  0.0000E+00  0.2456E+02  0.2456E+02
     18.778  0.0000E+00  0.0000E+00  0.2456E+02  0.2456E+02
     18.864  0.1178E-03  0.1170E-03  0.2456E+02  0.2456E+02
     18.951  0.1815E-02  0.1806E-02  0.2456E+02  0.2456E+02
     19.038  0.9723E-02  0.9677E-02  0.2456E+02  0.2456E+02
     19.125  0.5399E-01  0.5373E-01  0.2456E+02  0.2456E+02
     19.212  0.2904E+00  0.2891E+00  0.2459E+02  0.2459E+02
     19.299  0.1270E+01  0.1267E+01  0.2470E+02  0.2470E+02
     19.386  0.3042E+01  0.3041E+01  0.2496E+02  0.2496E+02
     19.472  0.2998E+01  0.3002E+01  0.2522E+02  0.2522E+02
     19.559  0.1350E+01  0.1352E+01  0.2534E+02  0.2534E+02
     19.646  0.4623E+00  0.4612E+00  0.2538E+02  0.2538E+02
     19.733  0.6293E+00  0.6243E+00  0.2543E+02  0.2543E+02
     19.820  0.1053E+01  0.1053E+01  0.2553E+02  0.2552E+02
     19.907  0.5908E+00  0.5960E+00  0.2558E+02  0.2558E+02
     19.994  0.1478E+00  0.1497E+00  0.2559E+02  0.2559E+02
     20.080  0.3324E-01  0.3358E-01  0.2559E+02  0.2559E+02
     20.167  0.3592E-01  0.3574E-01  0.2560E+02  0.2560E+02
     20.254  0.1625E+00  0.1613E+00  0.2561E+02  0.2561E+02
     20.341  0.6361E+00  0.6330E+00  0.2567E+02  0.2566E+02
     20.428  0.1082E+01  0.1083E+01  0.2576E+02  0.2576E+02
     20.515  0.7193E+00  0.7215E+00  0.2582E+02  0.2582E+02
     20.601  0.6102E+00  0.6105E+00  0.2587E+02  0.2587E+02
     20.688  0.4331E+00  0.4342E+00  0.2591E+02  0.2591E+02
     20.775  0.1437E+00  0.1440E+00  0.2592E+02  0.2592E+02
     20.862  0.1030E+00  0.1020E+00  0.2593E+02  0.2593E+02
     20.949  0.3127E+00  0.3100E+00  0.2596E+02  0.2596E+02
     21.036  0.5237E+00  0.5240E+00  0.2601E+02  0.2601E+02
     21.123  0.2816E+00  0.2843E+00  0.2603E+02  0.2603E+02
     21.209  0.1151E+00  0.1160E+00  0.2604E+02  0.2604E+02
     21.296  0.2543E+00  0.2543E+00  0.2606E+02  0.2606E+02
     21.383  0.7558E+00  0.7552E+00  0.2613E+02  0.2613E+02
     21.470  0.9963E+00  0.9957E+00  0.2622E+02  0.2622E+02
     21.557  0.7117E+00  0.7098E+00  0.2628E+02  0.2628E+02
     21.644  0.9561E+00  0.9524E+00  0.2636E+02  0.2636E+02
     21.730  0.1004E+01  0.1007E+01  0.2645E+02  0.2645E+02
     21.817  0.5618E+00  0.5637E+00  0.2650E+02  0.2650E+02
     21.904  0.8440E+00  0.8420E+00  0.2657E+02  0.2657E+02
     21.991  0.1258E+01  0.1257E+01  0.2668E+02  0.2668E+02
     22.078  0.1225E+01  0.1224E+01  0.2679E+02  0.2678E+02
     22.165  0.1087E+01  0.1090E+01  0.2688E+02  0.2688E+02
     22.252  0.4190E+00  0.4215E+00  0.2692E+02  0.2692E+02
     22.338  0.8728E-01  0.8793E-01  0.2692E+02  0.2692E+02
     22.425  0.1601E-01  0.1614E-01  0.2693E+02  0.2693E+02
     22.512  0.5299E-03  0.5367E-03  0.2693E+02  0.2693E+02
     22.599  0.2478E-02  0.2510E-02  0.2693E+02  0.2693E+02
     22.686  0.1470E-01  0.1488E-01  0.2693E+02  0.2693E+02
     22.773  0.8086E-01  0.8180E-01  0.2693E+02  0.2693E+02
     22.860  0.4044E+00  0.4083E+00  0.2697E+02  0.2697E+02
     22.946  0.1330E+01  0.1336E+01  0.2709E+02  0.2709E+02
     23.033  0.1870E+01  0.1864E+01  0.2725E+02  0.2725E+02
     23.120  0.1564E+01  0.1559E+01  0.2738E+02  0.2738E+02
     23.207  0.8662E+00  0.8665E+00  0.2746E+02  0.2746E+02
     23.294  0.3072E+00  0.3068E+00  0.2749E+02  0.2749E+02
     23.381  0.3649E+00  0.3633E+00  0.2752E+02  0.2752E+02
     23.467  0.6747E+00  0.6755E+00  0.2758E+02  0.2758E+02
     23.554  0.5135E+00  0.5142E+00  0.2762E+02  0.2762E+02
     23.641  0.3673E+00  0.3644E+00  0.2765E+02  0.2765E+02
     23.728  0.6870E+00  0.6802E+00  0.2771E+02  0.2771E+02
     23.815  0.1029E+01  0.1017E+01  0.2780E+02  0.2780E+02
     23.902  0.1154E+01  0.1157E+01  0.2790E+02  0.2790E+02
     23.989  0.5457E+00  0.5591E+00  0.2795E+02  0.2795E+02
     24.075  0.1278E+00  0.1322E+00  0.2796E+02  0.2796E+02
     24.162  0.2314E-01  0.2399E-01  0.2796E+02  0.2796E+02
     24.249  0.4117E-02  0.4271E-02  0.2796E+02  0.2796E+02
     24.336  0.0000E+00  0.0000E+00  0.2796E+02  0.2796E+02
     24.423  0.0000E+00  0.0000E+00  0.2796E+02  0.2796E+02
     24.510  0.0000E+00  0.0000E+00  0.2796E+02  0.2796E+02
     24.597  0.0000E+00  0.0000E+00  0.2796E+02  0.2796E+02
     24.683  0.0000E+00  0.0000E+00  0.2796E+02  0.2796E+02
     24.770  0.3959E-04  0.3835E-04  0.2796E+02  0.2796E+02
     24.857  0.1852E-03  0.1794E-03  0.2796E+02  0.2796E+02
     24.944  0.1049E-02  0.1016E-02  0.2796E+02  0.2796E+02
     25.031  0.5861E-02  0.5680E-02  0.2796E+02  0.2796E+02
     25.118  0.3045E-01  0.2959E-01  0.2797E+02  0.2797E+02
     25.204  0.1136E+00  0.1115E+00  0.2798E+02  0.2798E+02
     25.291  0.1718E+00  0.1723E+00  0.2799E+02  0.2799E+02
     25.378  0.8076E-01  0.8259E-01  0.2800E+02  0.2800E+02
     25.465  0.1859E-01  0.1916E-01  0.2800E+02  0.2800E+02
     25.552  0.3452E-02  0.3563E-02  0.2800E+02  0.2800E+02
     25.639  0.0000E+00  0.0000E+00  0.2800E+02  0.2800E+02
     25.726  0.0000E+00  0.0000E+00  0.2800E+02  0.2800E+02
     25.812  0.0000E+00  0.0000E+00  0.2800E+02  0.2800E+02
     25.899  0.0000E+00  0.0000E+00  0.2800E+02  0.2800E+02
     25.986  0.0000E+00  0.0000E+00  0.2800E+02  0.2800E+02
     26.073  0.0000E+00  0.0000E+00  0.2800E+02  0.2800E+02
     26.160  0.0000E+00  0.0000E+00  0.2800E+02  0.2800E+02
     26.247  0.0000E+00  0.0000E+00  0.2800E+02  0.2800E+02
     26.333  0.0000E+00  0.0000E+00  0.2800E+02  0.2800E+02
     26.420  0.0000E+00  0.0000E+00  0.2800E+02  0.2800E+02
     26.42032767      0.36570258  301     11.80340246      1.00000000
      0.366  0.0000E+00  0.0000E+00  0.0000E+00  0.0000E+00  0.0000E+00  0.0000E+00  0.0000E+00  0.0000E+00  0.0000E+00  0.0000E+00  0.0000E+00  0.0000E+00  0.0000E+00  0.0000E+00  0.0000E+00  0.0000E+00  0.0000E+00  0.0000E+00
      0.453  0.0000E+00  0.0000E+00  0.0000E+00  0.0000E+00  0.0000E+00  0.0000E+00  0.0000E+00  0.0000E+00  0.0000E+00  0.0000E+00  0.0000E+00  0.0000E+00  0.0000E+00  0.0000E+00  0.0000E+00  0.0000E+00  0.0000E+00  0.0000E+00
      0.539  0.0000E+00  0.0000E+00  0.0000E+00  0.0000E+00  0.0000E+00  0.0000E+00  0.0000E+00  0.0000E+00  0.0000E+00  0.0000E+00  0.0000E+00  0.0000E+00  0.0000E+00  0.0000E+00  0.0000E+00  0.0000E+00  0.0000E+00  0.0000E+00
      0.626  0.0000E+00  0.0000E+00  0.0000E+00  0.0000E+00  0.0000E+00  0.0000E+00  0.0000E+00  0.0000E+00  0.0000E+00  0.0000E+00  0.0000E+00  0.0000E+00  0.0000E+00  0.0000E+00  0.0000E+00  0.0000E+00  0.0000E+00  0.0000E+00
      0.713  0.0000E+00  0.0000E+00  0.0000E+00  0.0000E+00  0.0000E+00  0.0000E+00  0.0000E+00  0.0000E+00  0.0000E+00  0.0000E+00  0.0000E+00  0.0000E+00  0.0000E+00  0.0000E+00  0.0000E+00  0.0000E+00  0.0000E+00  0.0000E+00
      0.800  0.0000E+00  0.0000E+00  0.0000E+00  0.0000E+00  0.0000E+00  0.0000E+00  0.0000E+00  0.0000E+00  0.0000E+00  0.0000E+00  0.0000E+00  0.0000E+00  0.0000E+00  0.0000E+00  0.0000E+00  0.0000E+00  0.0000E+00  0.0000E+00
      0.887  0.0000E+00  0.0000E+00  0.0000E+00  0.0000E+00  0.0000E+00  0.0000E+00  0.0000E+00  0.0000E+00  0.0000E+00  0.0000E+00  0.0000E+00  0.0000E+00  0.0000E+00  0.0000E+00  0.0000E+00  0.0000E+00  0.0000E+00  0.0000E+00
      0.974  0.0000E+00  0.0000E+00  0.0000E+00  0.0000E+00  0.0000E+00  0.0000E+00  0.0000E+00  0.0000E+00  0.0000E+00  0.0000E+00  0.0000E+00  0.0000E+00  0.0000E+00  0.0000E+00  0.0000E+00  0.0000E+00  0.0000E+00  0.0000E+00
      1.060  0.0000E+00  0.0000E+00  0.0000E+00  0.0000E+00  0.0000E+00  0.0000E+00  0.0000E+00  0.0000E+00  0.0000E+00  0.0000E+00  0.0000E+00  0.0000E+00  0.0000E+00  0.0000E+00  0.0000E+00  0.0000E+00  0.0000E+00  0.0000E+00
      1.147  0.2777E-04  0.2762E-04  0.1978E-06  0.1968E-06  0.1978E-06  0.1968E-06  0.1978E-06  0.1968E-06  0.1127E-07  0.1121E-07  0.1127E-07  0.1121E-07  0.7776E-20  0.2085E-19  0.1127E-07  0.1121E-07  0.7776E-20  0.2085E-19
      1.234  0.1297E-03  0.1290E-03  0.9242E-06  0.9196E-06  0.9242E-06  0.9196E-06  0.9242E-06  0.9196E-06  0.5263E-07  0.5235E-07  0.5263E-07  0.5235E-07  0.3633E-19  0.9742E-19  0.5263E-07  0.5235E-07  0.3633E-19  0.9742E-19
      1.321  0.7296E-03  0.7256E-03  0.5198E-05  0.5172E-05  0.5198E-05  0.5172E-05  0.5198E-05  0.5172E-05  0.2960E-06  0.2945E-06  0.2960E-06  0.2945E-06  0.2043E-18  0.5479E-18  0.2960E-06  0.2945E-06  0.2043E-18  0.5479E-18
      1.408  0.3923E-02  0.3903E-02  0.2795E-04  0.2782E-04  0.2795E-04  0.2782E-04  0.2795E-04  0.2782E-04  0.1592E-05  0.1584E-05  0.1592E-05  0.1584E-05  0.1099E-17  0.2947E-17  0.1592E-05  0.1584E-05  0.1099E-17  0.2947E-17
      1.495  0.1691E-01  0.1685E-01  0.1205E-03  0.1201E-03  0.1205E-03  0.1201E-03  0.1205E-03  0.1201E-03  0.6862E-05  0.6836E-05  0.6862E-05  0.6836E-05  0.4736E-17  0.1272E-16  0.6862E-05  0.6836E-05  0.4736E-17  0.1272E-16
      1.582  0.3529E-01  0.3526E-01  0.2514E-03  0.2513E-03  0.2514E-03  0.2513E-03  0.2514E-03  0.2513E-03  0.1432E-04  0.1431E-04  0.1432E-04  0.1431E-04  0.9883E-17  0.2663E-16  0.1432E-04  0.1431E-04  0.9883E-17  0.2663E-16
      1.668  0.2284E-01  0.2290E-01  0.1627E-03  0.1632E-03  0.1627E-03  0.1632E-03  0.1627E-03  0.1632E-03  0.9267E-05  0.9293E-05  0.9267E-05  0.9293E-05  0.6396E-17  0.1729E-16  0.9267E-05  0.9293E-05  0.6396E-17  0.1729E-16
      1.755  0.6059E-02  0.6085E-02  0.4317E-04  0.4338E-04  0.4317E-04  0.4338E-04  0.4317E-04  0.4338E-04  0.2458E-05  0.2469E-05  0.2458E-05  0.2469E-05  0.1697E-17  0.4595E-17  0.2458E-05  0.2469E-05  0.1697E-17  0.4595E-17
      1.842  0.1207E-02  0.1212E-02  0.9430E-05  0.9468E-05  0.9430E-05  0.9468E-05  0.9430E-05  0.9468E-05  0.5958E-06  0.5974E-06  0.5958E-06  0.5974E-06  0.1068E-06  0.1063E-06  0.5958E-06  0.5974E-06  0.1068E-06  0.1063E-06
      1.929  0.4115E-03  0.4114E-03  0.6828E-05  0.6809E-05  0.6828E-05  0.6809E-05  0.6828E-05  0.6809E-05  0.6633E-06  0.6607E-06  0.6633E-06  0.6607E-06  0.4996E-06  0.4970E-06  0.6633E-06  0.6607E-06  0.4996E-06  0.4970E-06
      2.016  0.1149E-02  0.1143E-02  0.3020E-04  0.3005E-04  0.3020E-04  0.3005E-04  0.3020E-04  0.3005E-04  0.3270E-05  0.3253E-05  0.3270E-05  0.3253E-05  0.2822E-05  0.2807E-05  0.3270E-05  0.3253E-05  0.2822E-05  0.2807E-05
      2.103  0.6328E-02  0.6294E-02  0.1663E-03  0.1655E-03  0.1663E-03  0.1655E-03  0.1663E-03  0.1655E-03  0.1801E-04  0.1792E-04  0.1801E-04  0.1792E-04  0.1554E-04  0.1546E-04  0.1801E-04  0.1792E-04  0.1554E-04  0.1546E-04
      2.190  0.3052E-01  0.3038E-01  0.8019E-03  0.7987E-03  0.8019E-03  0.7987E-03  0.8019E-03  0.7987E-03  0.8685E-04  0.8648E-04  0.8685E-04  0.8648E-04  0.7494E-04  0.7463E-04  0.8685E-04  0.8648E-04  0.7494E-04  0.7463E-04
      2.276  0.8737E-01  0.8719E-01  0.2296E-02  0.2293E-02  0.2296E-02  0.2293E-02  0.2296E-02  0.2293E-02  0.2487E-03  0.2482E-03  0.2487E-03  0.2482E-03  0.2146E-03  0.2142E-03  0.2487E-03  0.2482E-03  0.2146E-03  0.2142E-03
      2.363  0.8453E-01  0.8467E-01  0.2222E-02  0.2226E-02  0.2222E-02  0.2226E-02  0.2222E-02  0.2226E-02  0.2406E-03  0.2410E-03  0.2406E-03  0.2410E-03  0.2076E-03  0.2080E-03  0.2406E-03  0.2410E-03  0.2076E-03  0.2080E-03
      2.450  0.2827E-01  0.2838E-01  0.7432E-03  0.7465E-03  0.7432E-03  0.7465E-03  0.7432E-03  0.7465E-03  0.8078E-04  0.8111E-04  0.8078E-04  0.8111E-04  0.6940E-04  0.6969E-04  0.8078E-04  0.8111E-04  0.6940E-04  0.6969E-04
      2.537  0.5882E-02  0.5908E-02  0.1563E-03  0.1570E-03  0.1563E-03  0.1570E-03  0.1563E-03  0.1570E-03  0.1830E-04  0.1837E-04  0.1830E-04  0.1837E-04  0.1436E-04  0.1443E-04  0.1830E-04  0.1837E-04  0.1436E-04  0.1443E-04
      2.624  0.1638E-02  0.1641E-02  0.5266E-04  0.5269E-04  0.5266E-04  0.5269E-04  0.5266E-04  0.5269E-04  0.1348E-04  0.1344E-04  0.1348E-04  0.1344E-04  0.3559E-05  0.3568E-05  0.1348E-04  0.1344E-04  0.3559E-05  0.3568E-05
      2.711  0.3306E-02  0.3290E-02  0.1405E-03  0.1398E-03  0.1405E-03  0.1398E-03  0.1405E-03  0.1398E-03  0.5862E-04  0.5835E-04  0.5862E-04  0.5835E-04  0.5526E-05  0.5501E-05  0.5862E-04  0.5835E-04  0.5526E-05  0.5501E-05
      2.797  0.1709E-01  0.1701E-01  0.7261E-03  0.7233E-03  0.7261E-03  0.7233E-03  0.7261E-03  0.7233E-03  0.3030E-03  0.3018E-03  0.3030E-03  0.3018E-03  0.2857E-04  0.2845E-04  0.3030E-03  0.3018E-03  0.2857E-04  0.2845E-04
      2.884  0.6253E-01  0.6235E-01  0.2657E-02  0.2650E-02  0.2657E-02  0.2650E-02  0.2657E-02  0.2650E-02  0.1109E-02  0.1106E-02  0.1109E-02  0.1106E-02  0.1045E-03  0.1043E-03  0.1109E-02  0.1106E-02  0.1045E-03  0.1043E-03
      2.971  0.9110E-01  0.9113E-01  0.3871E-02  0.3874E-02  0.3871E-02  0.3874E-02  0.3871E-02  0.3874E-02  0.1617E-02  0.1618E-02  0.1617E-02  0.1618E-02  0.1522E-03  0.1523E-03  0.1617E-02  0.1618E-02  0.1522E-03  0.1523E-03
      3.058  0.4160E-01  0.4173E-01  0.1768E-02  0.1775E-02  0.1768E-02  0.1775E-02  0.1768E-02  0.1775E-02  0.7456E-03  0.7480E-03  0.7456E-03  0.7480E-03  0.6977E-04  0.7000E-04  0.7456E-03  0.7480E-03  0.6977E-04  0.7000E-04
      3.145  0.1032E-01  0.1036E-01  0.4438E-03  0.4455E-03  0.4438E-03  0.4455E-03  0.4438E-03  0.4455E-03  0.2278E-03  0.2284E-03  0.2278E-03  0.2284E-03  0.1810E-04  0.1816E-04  0.2278E-03  0.2284E-03  0.1810E-04  0.1816E-04
      3.232  0.6501E-02  0.6492E-02  0.3041E-03  0.3038E-03  0.3041E-03  0.3038E-03  0.3041E-03  0.3038E-03  0.3494E-03  0.3488E-03  0.3494E-03  0.3488E-03  0.1628E-04  0.1622E-04  0.3494E-03  0.3488E-03  0.1628E-04  0.1622E-04
      3.319  0.1892E-01  0.1887E-01  0.9253E-03  0.9232E-03  0.9253E-03  0.9232E-03  0.9253E-03  0.9232E-03  0.1232E-02  0.1230E-02  0.1232E-02  0.1230E-02  0.7509E-04  0.7468E-04  0.1232E-02  0.1230E-02  0.7509E-04  0.7468E-04
      3.405  0.3765E-01  0.3759E-01  0.1963E-02  0.1960E-02  0.1963E-02  0.1960E-02  0.1963E-02  0.1960E-02  0.2049E-02  0.2050E-02  0.2049E-02  0.2050E-02  0.4014E-03  0.3994E-03  0.2049E-02  0.2050E-02  0.4014E-03  0.3994E-03
      3.492  0.5659E-01  0.5643E-01  0.3474E-02  0.3466E-02  0.3474E-02  0.3466E-02  0.3474E-02  0.3466E-02  0.1348E-02  0.1349E-02  0.1348E-02  0.1349E-02  0.1687E-02  0.1681E-02  0.1348E-02  0.1349E-02  0.1687E-02  0.1681E-02
      3.579  0.8743E-01  0.8737E-01  0.5708E-02  0.5708E-02  0.5708E-02  0.5708E-02  0.5708E-02  0.5708E-02  0.9594E-03  0.9599E-03  0.9594E-03  0.9599E-03  0.3311E-02  0.3310E-02  0.9594E-03  0.9599E-03  0.3311E-02  0.3310E-02
      3.666  0.5177E-01  0.5192E-01  0.3407E-02  0.3419E-02  0.3407E-02  0.3419E-02  0.3407E-02  0.3419E-02  0.5005E-03  0.5021E-03  0.5005E-03  0.5021E-03  0.2008E-02  0.2015E-02  0.5005E-03  0.5021E-03  0.2008E-02  0.2015E-02
      3.753  0.1458E-01  0.1463E-01  0.9729E-03  0.9771E-03  0.9729E-03  0.9771E-03  0.9729E-03  0.9771E-03  0.2227E-03  0.2231E-03  0.2227E-03  0.2231E-03  0.5447E-03  0.5471E-03  0.2227E-03  0.2231E-03  0.5447E-03  0.5471E-03
      3.840  0.1024E-01  0.1023E-01  0.7487E-03  0.7477E-03  0.7487E-03  0.7477E-03  0.7487E-03  0.7477E-03  0.5875E-03  0.5864E-03  0.5875E-03  0.5864E-03  0.2672E-03  0.2671E-03  0.5875E-03  0.5864E-03  0.2672E-03  0.2671E-03
      3.927  0.3981E-01  0.3968E-01  0.2989E-02  0.2981E-02  0.2989E-02  0.2981E-02  0.2989E-02  0.2981E-02  0.2945E-02  0.2940E-02  0.2945E-02  0.2940E-02  0.8725E-03  0.8698E-03  0.2945E-02  0.2940E-02  0.8725E-03  0.8698E-03
      4.013  0.1361E+00  0.1358E+00  0.1011E-01  0.1010E-01  0.1011E-01  0.1010E-01  0.1011E-01  0.1010E-01  0.1119E-01  0.1118E-01  0.1119E-01  0.1118E-01  0.2884E-02  0.2879E-02  0.1119E-01  0.1118E-01  0.2884E-02  0.2879E-02
      4.100  0.2003E+00  0.2004E+00  0.1416E-01  0.1417E-01  0.1416E-01  0.1417E-01  0.1416E-01  0.1417E-01  0.2284E-01  0.2287E-01  0.2284E-01  0.2287E-01  0.3832E-02  0.3827E-02  0.2284E-01  0.2287E-01  0.3832E-02  0.3827E-02
      4.187  0.1275E+00  0.1276E+00  0.7876E-02  0.7890E-02  0.7876E-02  0.7890E-02  0.7876E-02  0.7890E-02  0.2538E-01  0.2542E-01  0.2538E-01  0.2542E-01  0.1909E-02  0.1919E-02  0.2538E-01  0.2542E-01  0.1909E-02  0.1919E-02
      4.274  0.6062E-01  0.6067E-01  0.2936E-02  0.2942E-02  0.2936E-02  0.2942E-02  0.2936E-02  0.2942E-02  0.2238E-01  0.2242E-01  0.2238E-01  0.2242E-01  0.7261E-03  0.7245E-03  0.2238E-01  0.2242E-01  0.7261E-03  0.7245E-03
      4.361  0.6820E-01  0.6828E-01  0.2639E-02  0.2643E-02  0.2639E-02  0.2643E-02  0.2639E-02  0.2643E-02  0.3800E-01  0.3810E-01  0.3800E-01  0.3810E-01  0.1371E-02  0.1357E-02  0.3800E-01  0.3810E-01  0.1371E-02  0.1357E-02
      4.448  0.7673E-01  0.7659E-01  0.2619E-02  0.2615E-02  0.2619E-02  0.2615E-02  0.2619E-02  0.2615E-02  0.4879E-01  0.4877E-01  0.4879E-01  0.4877E-01  0.6420E-02  0.6347E-02  0.4879E-01  0.4877E-01  0.6420E-02  0.6347E-02
      4.534  0.4339E-01  0.4313E-01  0.1703E-02  0.1694E-02  0.1703E-02  0.1694E-02  0.1703E-02  0.1694E-02  0.2393E-01  0.2383E-01  0.2393E-01  0.2383E-01  0.2720E-01  0.2696E-01  0.2393E-01  0.2383E-01  0.2720E-01  0.2696E-01
      4.621  0.4413E-01  0.4392E-01  0.3248E-02  0.3235E-02  0.3248E-02  0.3235E-02  0.3248E-02  0.3235E-02  0.8951E-02  0.8931E-02  0.8951E-02  0.8931E-02  0.6046E-01  0.6033E-01  0.8951E-02  0.8931E-02  0.6046E-01  0.6033E-01
      4.708  0.8550E-01  0.8541E-01  0.8124E-02  0.8120E-02  0.8124E-02  0.8120E-02  0.8124E-02  0.8120E-02  0.1471E-01  0.1476E-01  0.1471E-01  0.1476E-01  0.6065E-01  0.6075E-01  0.1471E-01  0.1476E-01  0.6065E-01  0.6075E-01