   4   4   1   0
  0.1255008E+02  0.3688945E-09  0.3688945E-09  0.3688945E-09  0.5000000E-15
  1.000000000000000E-004
  CAR 
 unknown system                          
     30.36676076      1.76080541  301     15.23469252      1.00000000
      1.761  0.0000E+00  0.0000E+00  0.0000E+00  0.0000E+00
      1.856  0.0000E+00  0.0000E+00  0.0000E+00  0.0000E+00
      1.952  0.0000E+00  0.0000E+00  0.0000E+00  0.0000E+00
      2.047  0.0000E+00  0.0000E+00  0.0000E+00  0.0000E+00
      2.142  0.0000E+00  0.0000E+00  0.0000E+00  0.0000E+00
      2.238  0.0000E+00  0.0000E+00  0.0000E+00  0.0000E+00
      2.333  0.0000E+00  0.0000E+00  0.0000E+00  0.0000E+00
      2.428  0.0000E+00  0.0000E+00  0.0000E+00  0.0000E+00
      2.524  0.0000E+00  0.0000E+00  0.0000E+00  0.0000E+00
      2.619  0.5582E-04  0.5614E-04  0.5323E-05  0.5353E-05
      2.714  0.3197E-03  0.3216E-03  0.3581E-04  0.3601E-04
      2.810  0.2139E-02  0.2151E-02  0.2398E-03  0.2412E-03
      2.905  0.1381E-01  0.1389E-01  0.1557E-02  0.1565E-02
      3.000  0.7226E-01  0.7256E-01  0.8447E-02  0.8484E-02
      3.096  0.1699E+00  0.1700E+00  0.2465E-01  0.2469E-01
      3.191  0.1030E+00  0.1026E+00  0.3446E-01  0.3448E-01
      3.286  0.2272E-01  0.2261E-01  0.3663E-01  0.3663E-01
      3.382  0.3621E-02  0.3601E-02  0.3698E-01  0.3698E-01
      3.477  0.2282E-03  0.2295E-03  0.3706E-01  0.3706E-01
      3.573  0.1307E-02  0.1314E-02  0.3718E-01  0.3718E-01
      3.668  0.8722E-02  0.8771E-02  0.3802E-01  0.3802E-01
      3.763  0.5549E-01  0.5578E-01  0.4331E-01  0.4334E-01
      3.859  0.2687E+00  0.2697E+00  0.6893E-01  0.6906E-01
      3.954  0.5168E+00  0.5167E+00  0.1182E+00  0.1183E+00
      4.049  0.2535E+00  0.2525E+00  0.1424E+00  0.1424E+00
      4.145  0.5120E-01  0.5092E-01  0.1473E+00  0.1473E+00
      4.240  0.8432E-02  0.8389E-02  0.1481E+00  0.1481E+00
      4.335  0.2910E-02  0.2926E-02  0.1485E+00  0.1485E+00
      4.431  0.1922E-01  0.1933E-01  0.1503E+00  0.1503E+00
      4.526  0.1145E+00  0.1151E+00  0.1612E+00  0.1613E+00
      4.621  0.4143E+00  0.4153E+00  0.2007E+00  0.2009E+00
      4.717  0.4488E+00  0.4480E+00  0.2435E+00  0.2436E+00
      4.812  0.1393E+00  0.1387E+00  0.2568E+00  0.2568E+00
      4.907  0.3625E-01  0.3618E-01  0.2603E+00  0.2603E+00
      5.003  0.7105E-01  0.7128E-01  0.2670E+00  0.2671E+00
      5.098  0.1756E+00  0.1758E+00  0.2838E+00  0.2839E+00
      5.194  0.1630E+00  0.1630E+00  0.2994E+00  0.2994E+00
      5.289  0.2849E+00  0.2859E+00  0.3266E+00  0.3267E+00
      5.384  0.5217E+00  0.5217E+00  0.3763E+00  0.3764E+00
      5.480  0.2670E+00  0.2660E+00  0.4018E+00  0.4019E+00
      5.575  0.8290E-01  0.8269E-01  0.4097E+00  0.4098E+00
      5.670  0.1755E+00  0.1760E+00  0.4265E+00  0.4265E+00
      5.766  0.6619E+00  0.6638E+00  0.4897E+00  0.4900E+00
      5.861  0.1647E+01  0.1650E+01  0.6468E+00  0.6473E+00
      5.956  0.2066E+01  0.2065E+01  0.8438E+00  0.8442E+00
      6.052  0.1836E+01  0.1835E+01  0.1019E+01  0.1019E+01
      6.147  0.8002E+00  0.7982E+00  0.1095E+01  0.1095E+01
      6.242  0.2627E+00  0.2626E+00  0.1120E+01  0.1121E+01
      6.338  0.5344E+00  0.5361E+00  0.1172E+01  0.1172E+01
      6.433  0.1355E+01  0.1357E+01  0.1301E+01  0.1302E+01
      6.528  0.2629E+01  0.2632E+01  0.1552E+01  0.1552E+01
      6.624  0.3404E+01  0.3404E+01  0.1876E+01  0.1877E+01
      6.719  0.2548E+01  0.2545E+01  0.2119E+01  0.2120E+01
      6.815  0.1846E+01  0.1846E+01  0.2295E+01  0.2296E+01
      6.910  0.2835E+01  0.2838E+01  0.2566E+01  0.2567E+01
      7.005  0.3231E+01  0.3228E+01  0.2875E+01  0.2875E+01
      7.101  0.1526E+01  0.1523E+01  0.3020E+01  0.3021E+01
      7.196  0.1704E+01  0.1705E+01  0.3183E+01  0.3183E+01
      7.291  0.2001E+01  0.2000E+01  0.3374E+01  0.3374E+01
      7.387  0.1146E+01  0.1146E+01  0.3484E+01  0.3484E+01
      7.482  0.2178E+01  0.2182E+01  0.3691E+01  0.3692E+01
      7.577  0.4111E+01  0.4112E+01  0.4083E+01  0.4084E+01
      7.673  0.3496E+01  0.3491E+01  0.4417E+01  0.4417E+01
      7.768  0.1420E+01  0.1418E+01  0.4552E+01  0.4552E+01
      7.863  0.1105E+01  0.1107E+01  0.4658E+01  0.4658E+01
      7.959  0.1511E+01  0.1510E+01  0.4802E+01  0.4802E+01
      8.054  0.8420E+00  0.8401E+00  0.4883E+01  0.4883E+01
      8.149  0.7246E+00  0.7255E+00  0.4952E+01  0.4952E+01
      8.245  0.1610E+01  0.1612E+01  0.5105E+01  0.5106E+01
      8.340  0.2507E+01  0.2509E+01  0.5345E+01  0.5345E+01
      8.436  0.2684E+01  0.2683E+01  0.5601E+01  0.5601E+01
      8.531  0.2148E+01  0.2148E+01  0.5805E+01  0.5806E+01
      8.626  0.1967E+01  0.1966E+01  0.5993E+01  0.5994E+01
      8.722  0.1742E+01  0.1742E+01  0.6159E+01  0.6160E+01
      8.817  0.1687E+01  0.1686E+01  0.6321E+01  0.6321E+01
      8.912  0.1418E+01  0.1417E+01  0.6456E+01  0.6456E+01
      9.008  0.1100E+01  0.1100E+01  0.6561E+01  0.6561E+01
      9.103  0.1757E+01  0.1760E+01  0.6729E+01  0.6729E+01
      9.198  0.3523E+01  0.3526E+01  0.7065E+01  0.7066E+01
      9.294  0.3473E+01  0.3471E+01  0.7396E+01  0.7397E+01
      9.389  0.3161E+01  0.3160E+01  0.7698E+01  0.7698E+01
      9.484  0.2323E+01  0.2320E+01  0.7919E+01  0.7919E+01
      9.580  0.8673E+00  0.8662E+00  0.8002E+01  0.8002E+01
      9.675  0.7555E+00  0.7564E+00  0.8075E+01  0.8075E+01
      9.770  0.1611E+01  0.1613E+01  0.8229E+01  0.8229E+01
      9.866  0.2913E+01  0.2915E+01  0.8507E+01  0.8507E+01
      9.961  0.4350E+01  0.4351E+01  0.8921E+01  0.8922E+01
     10.057  0.3709E+01  0.3706E+01  0.9275E+01  0.9276E+01
     10.152  0.2114E+01  0.2112E+01  0.9477E+01  0.9477E+01
     10.247  0.1914E+01  0.1914E+01  0.9659E+01  0.9660E+01
     10.343  0.2552E+01  0.2553E+01  0.9903E+01  0.9904E+01
     10.438  0.2959E+01  0.2960E+01  0.1019E+02  0.1019E+02
     10.533  0.2652E+01  0.2650E+01  0.1044E+02  0.1044E+02
     10.629  0.2820E+01  0.2821E+01  0.1071E+02  0.1071E+02
     10.724  0.4501E+01  0.4503E+01  0.1114E+02  0.1114E+02
     10.819  0.4138E+01  0.4137E+01  0.1153E+02  0.1153E+02
     10.915  0.3156E+01  0.3155E+01  0.1183E+02  0.1183E+02
     11.010  0.2088E+01  0.2088E+01  0.1203E+02  0.1203E+02
     11.105  0.1505E+01  0.1504E+01  0.1218E+02  0.1218E+02
     11.201  0.1637E+01  0.1638E+01  0.1233E+02  0.1233E+02
     11.296  0.2624E+01  0.2624E+01  0.1258E+02  0.1258E+02
     11.391  0.2160E+01  0.2158E+01  0.1279E+02  0.1279E+02
     11.487  0.1163E+01  0.1163E+01  0.1290E+02  0.1290E+02
     11.582  0.1176E+01  0.1176E+01  0.1301E+02  0.1301E+02
     11.678  0.1478E+01  0.1478E+01  0.1315E+02  0.1315E+02
     11.773  0.1650E+01  0.1651E+01  0.1331E+02  0.1331E+02
     11.868  0.1906E+01  0.1906E+01  0.1349E+02  0.1349E+02
     11.964  0.1577E+01  0.1578E+01  0.1364E+02  0.1364E+02
     12.059  0.1020E+01  0.1018E+01  0.1374E+02  0.1374E+02
     12.154  0.1178E+01  0.1178E+01  0.1385E+02  0.1385E+02
     12.250  0.2559E+01  0.2560E+01  0.1410E+02  0.1410E+02
     12.345  0.3087E+01  0.3086E+01  0.1439E+02  0.1439E+02
     12.440  0.3092E+01  0.3094E+01  0.1469E+02  0.1469E+02
     12.536  0.3595E+01  0.3597E+01  0.1503E+02  0.1503E+02
     12.631  0.3455E+01  0.3454E+01  0.1536E+02  0.1536E+02
     12.726  0.2715E+01  0.2714E+01  0.1562E+02  0.1562E+02
     12.822  0.1357E+01  0.1356E+01  0.1575E+02  0.1575E+02
     12.917  0.5935E+00  0.5926E+00  0.1581E+02  0.1581E+02
     13.012  0.4368E+00  0.4367E+00  0.1585E+02  0.1585E+02
     13.108  0.5138E+00  0.5141E+00  0.1590E+02  0.1590E+02
     13.203  0.1152E+01  0.1152E+01  0.1601E+02  0.1601E+02
     13.299  0.1558E+01  0.1559E+01  0.1616E+02  0.1616E+02
     13.394  0.1831E+01  0.1832E+01  0.1633E+02  0.1633E+02
     13.489  0.2083E+01  0.2084E+01  0.1653E+02  0.1653E+02
     13.585  0.1832E+01  0.1831E+01  0.1670E+02  0.1670E+02
     13.680  0.1815E+01  0.1816E+01  0.1688E+02  0.1688E+02
     13.775  0.2600E+01  0.2601E+01  0.1713E+02  0.1713E+02
     13.871  0.3244E+01  0.3243E+01  0.1744E+02  0.1744E+02
     13.966  0.2748E+01  0.2746E+01  0.1770E+02  0.1770E+02
     14.061  0.1351E+01  0.1350E+01  0.1783E+02  0.1783E+02
     14.157  0.7597E+00  0.7594E+00  0.1790E+02  0.1790E+02
     14.252  0.4676E+00  0.4672E+00  0.1794E+02  0.1794E+02
     14.347  0.6163E+00  0.6164E+00  0.1800E+02  0.1800E+02
     14.443  0.7515E+00  0.7518E+00  0.1808E+02  0.1808E+02
     14.538  0.1547E+01  0.1548E+01  0.1822E+02  0.1822E+02
     14.633  0.2537E+01  0.2540E+01  0.1846E+02  0.1847E+02
     14.729  0.3603E+01  0.3605E+01  0.1881E+02  0.1881E+02
     14.824  0.3206E+01  0.3202E+01  0.1911E+02  0.1911E+02
     14.920  0.2184E+01  0.2184E+01  0.1932E+02  0.1932E+02
     15.015  0.2367E+01  0.2369E+01  0.1955E+02  0.1955E+02
     15.110  0.2432E+01  0.2431E+01  0.1978E+02  0.1978E+02
     15.206  0.1797E+01  0.1796E+01  0.1995E+02  0.1995E+02
     15.301  0.1605E+01  0.1605E+01  0.2011E+02  0.2011E+02
     15.396  0.1331E+01  0.1331E+01  0.2023E+02  0.2023E+02
     15.492  0.1617E+01  0.1619E+01  0.2039E+02  0.2039E+02
     15.587  0.2511E+01  0.2513E+01  0.2063E+02  0.2063E+02
     15.682  0.2681E+01  0.2680E+01  0.2088E+02  0.2088E+02
     15.778  0.2391E+01  0.2390E+01  0.2111E+02  0.2111E+02
     15.873  0.1947E+01  0.1945E+01  0.2130E+02  0.2130E+02
     15.968  0.1560E+01  0.1558E+01  0.2145E+02  0.2145E+02
     16.064  0.8581E+00  0.8566E+00  0.2153E+02  0.2153E+02
     16.159  0.2419E+00  0.2412E+00  0.2155E+02  0.2155E+02
     16.254  0.4318E-01  0.4304E-01  0.2155E+02  0.2155E+02
     16.350  0.1407E-01  0.1412E-01  0.2156E+02  0.2156E+02
     16.445  0.5738E-01  0.5775E-01  0.2156E+02  0.2156E+02
     16.541  0.2751E+00  0.2763E+00  0.2159E+02  0.2159E+02
     16.636  0.5163E+00  0.5162E+00  0.2164E+02  0.2164E+02
     16.731  0.2475E+00  0.2463E+00  0.2166E+02  0.2166E+02
     16.827  0.5010E-01  0.4978E-01  0.2167E+02  0.2167E+02
     16.922  0.1226E-01  0.1224E-01  0.2167E+02  0.2167E+02
     17.017  0.3014E-01  0.3031E-01  0.2167E+02  0.2167E+02
     17.113  0.1844E+00  0.1853E+00  0.2169E+02  0.2169E+02
     17.208  0.7414E+00  0.7435E+00  0.2176E+02  0.2176E+02
     17.303  0.9679E+00  0.9666E+00  0.2185E+02  0.2185E+02
     17.399  0.3709E+00  0.3695E+00  0.2189E+02  0.2189E+02
     17.494  0.2685E+00  0.2690E+00  0.2191E+02  0.2191E+02
     17.589  0.8037E+00  0.8054E+00  0.2199E+02  0.2199E+02
     17.685  0.9663E+00  0.9652E+00  0.2208E+02  0.2208E+02
     17.780  0.5274E+00  0.5272E+00  0.2213E+02  0.2213E+02
     17.875  0.9645E+00  0.9664E+00  0.2222E+02  0.2222E+02
     17.971  0.1384E+01  0.1384E+01  0.2235E+02  0.2236E+02
     18.066  0.7313E+00  0.7294E+00  0.2242E+02  0.2242E+02
     18.162  0.1742E+00  0.1735E+00  0.2244E+02  0.2244E+02
     18.257  0.2884E-01  0.2871E-01  0.2244E+02  0.2244E+02
     18.352  0.4896E-02  0.4895E-02  0.2244E+02  0.2244E+02
     18.448  0.1204E-01  0.1212E-01  0.2245E+02  0.2245E+02
     18.543  0.7588E-01  0.7637E-01  0.2245E+02  0.2245E+02
     18.638  0.3476E+00  0.3491E+00  0.2249E+02  0.2249E+02
     18.734  0.6765E+00  0.6768E+00  0.2255E+02  0.2255E+02
     18.829  0.7485E+00  0.7484E+00  0.2262E+02  0.2262E+02
     18.924  0.7257E+00  0.7253E+00  0.2269E+02  0.2269E+02
     19.020  0.6153E+00  0.6145E+00  0.2275E+02  0.2275E+02
     19.115  0.2377E+00  0.2369E+00  0.2277E+02  0.2277E+02
     19.210  0.4559E-01  0.4538E-01  0.2278E+02  0.2278E+02
     19.306  0.9521E-02  0.9503E-02  0.2278E+02  0.2278E+02
     19.401  0.1939E-01  0.1948E-01  0.2278E+02  0.2278E+02
     19.496  0.1226E+00  0.1231E+00  0.2279E+02  0.2279E+02
     19.592  0.5764E+00  0.5780E+00  0.2285E+02  0.2285E+02
     19.687  0.1033E+01  0.1033E+01  0.2295E+02  0.2295E+02
     19.783  0.4981E+00  0.4967E+00  0.2299E+02  0.2299E+02
     19.878  0.2601E+00  0.2608E+00  0.2302E+02  0.2302E+02
     19.973  0.7166E+00  0.7193E+00  0.2309E+02  0.2309E+02
     20.069  0.9874E+00  0.9860E+00  0.2318E+02  0.2318E+02
     20.164  0.3820E+00  0.3800E+00  0.2322E+02  0.2322E+02
     20.259  0.1727E+00  0.1727E+00  0.2323E+02  0.2323E+02
     20.355  0.5350E+00  0.5365E+00  0.2328E+02  0.2328E+02
     20.450  0.1095E+01  0.1095E+01  0.2339E+02  0.2339E+02
     20.545  0.8679E+00  0.8671E+00  0.2347E+02  0.2347E+02
     20.641  0.1073E+01  0.1074E+01  0.2357E+02  0.2357E+02
     20.736  0.7541E+00  0.7528E+00  0.2365E+02  0.2365E+02
     20.831  0.1827E+00  0.1821E+00  0.2366E+02  0.2366E+02
     20.927  0.2985E-01  0.2976E-01  0.2367E+02  0.2367E+02
     21.022  0.4500E-02  0.4486E-02  0.2367E+02  0.2367E+02
     21.118  0.0000E+00  0.0000E+00  0.2367E+02  0.2367E+02
     21.213  0.0000E+00  0.0000E+00  0.2367E+02  0.2367E+02
     21.308  0.0000E+00  0.0000E+00  0.2367E+02  0.2367E+02
     21.404  0.1717E-03  0.1719E-03  0.2367E+02  0.2367E+02
     21.499  0.9832E-03  0.9848E-03  0.2367E+02  0.2367E+02
     21.594  0.6577E-02  0.6588E-02  0.2367E+02  0.2367E+02
     21.690  0.4264E-01  0.4271E-01  0.2367E+02  0.2367E+02
     21.785  0.2219E+00  0.2222E+00  0.2369E+02  0.2369E+02
     21.880  0.5197E+00  0.5198E+00  0.2374E+02  0.2374E+02
     21.976  0.3616E+00  0.3615E+00  0.2378E+02  0.2378E+02
     22.071  0.4117E+00  0.4127E+00  0.2382E+02  0.2382E+02
     22.166  0.1329E+01  0.1331E+01  0.2394E+02  0.2394E+02
     22.262  0.1872E+01  0.1871E+01  0.2412E+02  0.2412E+02
     22.357  0.1472E+01  0.1471E+01  0.2426E+02  0.2426E+02
     22.452  0.6739E+00  0.6731E+00  0.2433E+02  0.2433E+02
     22.548  0.4263E+00  0.4269E+00  0.2437E+02  0.2437E+02
     22.643  0.7944E+00  0.7951E+00  0.2444E+02  0.2444E+02
     22.739  0.7893E+00  0.7886E+00  0.2452E+02  0.2452E+02
     22.834  0.3185E+00  0.3175E+00  0.2455E+02  0.2455E+02
     22.929  0.6240E-01  0.6215E-01  0.2455E+02  0.2455E+02
     23.025  0.8392E-02  0.8357E-02  0.2456E+02  0.2456E+02
     23.120  0.2369E-03  0.2378E-03  0.2456E+02  0.2456E+02
     23.215  0.1358E-02  0.1363E-02  0.2456E+02  0.2456E+02
     23.311  0.9115E-02  0.9147E-02  0.2456E+02  0.2456E+02
     23.406  0.6016E-01  0.6036E-01  0.2456E+02  0.2456E+02
     23.501  0.3570E+00  0.3581E+00  0.2460E+02  0.2460E+02
     23.597  0.1267E+01  0.1269E+01  0.2472E+02  0.2472E+02
     23.692  0.1348E+01  0.1346E+01  0.2485E+02  0.2485E+02
     23.787  0.5375E+00  0.5370E+00  0.2490E+02  0.2490E+02
     23.883  0.7578E+00  0.7600E+00  0.2497E+02  0.2497E+02
     23.978  0.1705E+01  0.1707E+01  0.2513E+02  0.2513E+02
     24.073  0.2482E+01  0.2482E+01  0.2537E+02  0.2537E+02
     24.169  0.1790E+01  0.1787E+01  0.2554E+02  0.2554E+02
     24.264  0.4676E+00  0.4661E+00  0.2558E+02  0.2558E+02
     24.360  0.7593E-01  0.7566E-01  0.2559E+02  0.2559E+02
     24.455  0.8529E-02  0.8521E-02  0.2559E+02  0.2559E+02
     24.550  0.1024E-01  0.1029E-01  0.2559E+02  0.2559E+02
     24.646  0.6669E-01  0.6696E-01  0.2560E+02  0.2560E+02
     24.741  0.3655E+00  0.3666E+00  0.2563E+02  0.2564E+02
     24.836  0.9854E+00  0.9862E+00  0.2573E+02  0.2573E+02
     24.932  0.7053E+00  0.7037E+00  0.2580E+02  0.2580E+02
     25.027  0.1901E+00  0.1897E+00  0.2581E+02  0.2581E+02
     25.122  0.1586E+00  0.1591E+00  0.2583E+02  0.2583E+02
     25.218  0.4407E+00  0.4417E+00  0.2587E+02  0.2587E+02
     25.313  0.4257E+00  0.4247E+00  0.2591E+02  0.2591E+02
     25.408  0.1361E+00  0.1354E+00  0.2593E+02  0.2593E+02
     25.504  0.1181E+00  0.1180E+00  0.2594E+02  0.2594E+02
     25.599  0.3866E+00  0.3866E+00  0.2597E+02  0.2597E+02
     25.694  0.4796E+00  0.4797E+00  0.2602E+02  0.2602E+02
     25.790  0.2013E+00  0.2016E+00  0.2604E+02  0.2604E+02
     25.885  0.2882E+00  0.2900E+00  0.2607E+02  0.2607E+02
     25.981  0.1146E+01  0.1150E+01  0.2618E+02  0.2618E+02
     26.076  0.1991E+01  0.1990E+01  0.2637E+02  0.2637E+02
     26.171  0.9831E+00  0.9794E+00  0.2646E+02  0.2646E+02
     26.267  0.2202E+00  0.2194E+00  0.2648E+02  0.2648E+02
     26.362  0.1487E+00  0.1493E+00  0.2649E+02  0.2649E+02
     26.457  0.5600E+00  0.5625E+00  0.2655E+02  0.2655E+02
     26.553  0.1062E+01  0.1062E+01  0.2665E+02  0.2665E+02
     26.648  0.6735E+00  0.6716E+00  0.2671E+02  0.2671E+02
     26.743  0.8372E+00  0.8375E+00  0.2679E+02  0.2679E+02
     26.839  0.9784E+00  0.9778E+00  0.2689E+02  0.2689E+02
     26.934  0.3370E+00  0.3363E+00  0.2692E+02  0.2692E+02
     27.029  0.6040E-01  0.6025E-01  0.2692E+02  0.2692E+02
     27.125  0.9473E-02  0.9457E-02  0.2693E+02  0.2693E+02
     27.220  0.1294E-02  0.1339E-02  0.2693E+02  0.2693E+02
     27.315  0.8678E-02  0.8974E-02  0.2693E+02  0.2693E+02
     27.411  0.5712E-01  0.5902E-01  0.2693E+02  0.2693E+02
     27.506  0.3224E+00  0.3313E+00  0.2696E+02  0.2696E+02
     27.602  0.9621E+00  0.9712E+00  0.2705E+02  0.2706E+02
     27.697  0.8561E+00  0.8448E+00  0.2714E+02  0.2714E+02
     27.792  0.6190E+00  0.6166E+00  0.2720E+02  0.2720E+02
     27.888  0.9988E+00  0.1000E+01  0.2729E+02  0.2729E+02
     27.983  0.1690E+01  0.1693E+01  0.2745E+02  0.2745E+02
     28.078  0.1448E+01  0.1442E+01  0.2759E+02  0.2759E+02
     28.174  0.6260E+00  0.6242E+00  0.2765E+02  0.2765E+02
     28.269  0.6144E+00  0.6098E+00  0.2771E+02  0.2771E+02
     28.364  0.5184E+00  0.4910E+00  0.2776E+02  0.2776E+02
     28.460  0.8660E+00  0.8159E+00  0.2784E+02  0.2783E+02
     28.555  0.9289E+00  0.9644E+00  0.2793E+02  0.2793E+02
     28.650  0.2926E+00  0.3272E+00  0.2796E+02  0.2796E+02
     28.746  0.5153E-01  0.5882E-01  0.2796E+02  0.2796E+02
     28.841  0.1137E-01  0.1258E-01  0.2796E+02  0.2796E+02
     28.936  0.2261E-01  0.2301E-01  0.2797E+02  0.2797E+02
     29.032  0.1026E+00  0.1038E+00  0.2798E+02  0.2798E+02
     29.127  0.1700E+00  0.1696E+00  0.2799E+02  0.2799E+02
     29.223  0.7256E-01  0.7154E-01  0.2800E+02  0.2800E+02
     29.318  0.1389E-01  0.1363E-01  0.2800E+02  0.2800E+02
     29.413  0.2151E-02  0.2111E-02  0.2800E+02  0.2800E+02
     29.509  0.0000E+00  0.0000E+00  0.2800E+02  0.2800E+02
     29.604  0.0000E+00  0.0000E+00  0.2800E+02  0.2800E+02
     29.699  0.0000E+00  0.0000E+00  0.2800E+02  0.2800E+02
     29.795  0.0000E+00  0.0000E+00  0.2800E+02  0.2800E+02
     29.890  0.0000E+00  0.0000E+00  0.2800E+02  0.2800E+02
     29.985  0.0000E+00  0.0000E+00  0.2800E+02  0.2800E+02
     30.081  0.0000E+00  0.0000E+00  0.2800E+02  0.2800E+02
     30.176  0.0000E+00  0.0000E+00  0.2800E+02  0.2800E+02
     30.271  0.0000E+00  0.0000E+00  0.2800E+02  0.2800E+02
     30.367  0.0000E+00  0.0000E+00  0.2800E+02  0.2800E+02
     30.36676076      1.76080541  301     15.23469252      1.00000000
      1.761  0.0000E+00  0.0000E+00  0.0000E+00  0.0000E+00  0.0000E+00  0.0000E+00  0.0000E+00  0.0000E+00  0.0000E+00  0.0000E+00  0.0000E+00  0.0000E+00  0.0000E+00  0.0000E+00  0.0000E+00  0.0000E+00  0.0000E+00  0.0000E+00
      1.856  0.0000E+00  0.0000E+00  0.0000E+00  0.0000E+00  0.0000E+00  0.0000E+00  0.0000E+00  0.0000E+00  0.0000E+00  0.0000E+00  0.0000E+00  0.0000E+00  0.0000E+00  0.0000E+00  0.0000E+00  0.0000E+00  0.0000E+00  0.0000E+00
      1.952  0.0000E+00  0.0000E+00  0.0000E+00  0.0000E+00  0.0000E+00  0.0000E+00  0.0000E+00  0.0000E+00  0.0000E+00  0.0000E+00  0.0000E+00  0.0000E+00  0.0000E+00  0.0000E+00  0.0000E+00  0.0000E+00  0.0000E+00  0.0000E+00
      2.047  0.0000E+00  0.0000E+00  0.0000E+00  0.0000E+00  0.0000E+00  0.0000E+00  0.0000E+00  0.0000E+00  0.0000E+00  0.0000E+00  0.0000E+00  0.0000E+00  0.0000E+00  0.0000E+00  0.0000E+00  0.0000E+00  0.0000E+00  0.0000E+00
      2.142  0.0000E+00  0.0000E+00  0.0000E+00  0.0000E+00  0.0000E+00  0.0000E+00  0.0000E+00  0.0000E+00  0.0000E+00  0.0000E+00  0.0000E+00  0.0000E+00  0.0000E+00  0.0000E+00  0.0000E+00  0.0000E+00  0.0000E+00  0.0000E+00
      2.238  0.0000E+00  0.0000E+00  0.0000E+00  0.0000E+00  0.0000E+00  0.0000E+00  0.0000E+00  0.0000E+00  0.0000E+00  0.0000E+00  0.0000E+00  0.0000E+00  0.0000E+00  0.0000E+00  0.0000E+00  0.0000E+00  0.0000E+00  0.0000E+00
      2.333  0.0000E+00  0.0000E+00  0.0000E+00  0.0000E+00  0.0000E+00  0.0000E+00  0.0000E+00  0.0000E+00  0.0000E+00  0.0000E+00  0.0000E+00  0.0000E+00  0.0000E+00  0.0000E+00  0.0000E+00  0.0000E+00  0.0000E+00  0.0000E+00
      2.428  0.0000E+00  0.0000E+00  0.0000E+00  0.0000E+00  0.0000E+00  0.0000E+00  0.0000E+00  0.0000E+00  0.0000E+00  0.0000E+00  0.0000E+00  0.0000E+00  0.0000E+00  0.0000E+00  0.0000E+00  0.0000E+00  0.0000E+00  0.0000E+00
      2.524  0.0000E+00  0.0000E+00  0.0000E+00  0.0000E+00  0.0000E+00  0.0000E+00  0.0000E+00  0.0000E+00  0.0000E+00  0.0000E+00  0.0000E+00  0.0000E+00  0.0000E+00  0.0000E+00  0.0000E+00  0.0000E+00  0.0000E+00  0.0000E+00
      2.619  0.1371E-04  0.1379E-04  0.1109E-06  0.1115E-06  0.1109E-06  0.1115E-06  0.1109E-06  0.1115E-06  0.6356E-08  0.6392E-08  0.6356E-08  0.6392E-08  0.7409E-21  0.1208E-20  0.6356E-08  0.6392E-08  0.7409E-21  0.1208E-20
      2.714  0.7853E-04  0.7897E-04  0.6351E-06  0.6388E-06  0.6351E-06  0.6388E-06  0.6351E-06  0.6388E-06  0.3641E-07  0.3661E-07  0.3641E-07  0.3661E-07  0.4243E-20  0.6918E-20  0.3641E-07  0.3661E-07  0.4243E-20  0.6918E-20
      2.810  0.5254E-03  0.5283E-03  0.4250E-05  0.4274E-05  0.4250E-05  0.4274E-05  0.4250E-05  0.4274E-05  0.2436E-06  0.2450E-06  0.2436E-06  0.2450E-06  0.2839E-19  0.4628E-19  0.2436E-06  0.2450E-06  0.2839E-19  0.4628E-19
      2.905  0.3392E-02  0.3410E-02  0.2744E-04  0.2759E-04  0.2744E-04  0.2759E-04  0.2744E-04  0.2759E-04  0.1573E-05  0.1581E-05  0.1573E-05  0.1581E-05  0.1833E-18  0.2987E-18  0.1573E-05  0.1581E-05  0.1833E-18  0.2987E-18
      3.000  0.1775E-01  0.1782E-01  0.1435E-03  0.1441E-03  0.1435E-03  0.1441E-03  0.1435E-03  0.1441E-03  0.8228E-05  0.8262E-05  0.8228E-05  0.8262E-05  0.9590E-18  0.1561E-17  0.8228E-05  0.8262E-05  0.9590E-18  0.1561E-17
      3.096  0.4173E-01  0.4175E-01  0.3375E-03  0.3377E-03  0.3375E-03  0.3377E-03  0.3375E-03  0.3377E-03  0.1935E-04  0.1936E-04  0.1935E-04  0.1936E-04  0.2255E-17  0.3657E-17  0.1935E-04  0.1936E-04  0.2255E-17  0.3657E-17
      3.191  0.2529E-01  0.2520E-01  0.2045E-03  0.2038E-03  0.2045E-03  0.2038E-03  0.2045E-03  0.2038E-03  0.1172E-04  0.1168E-04  0.1172E-04  0.1168E-04  0.1366E-17  0.2207E-17  0.1172E-04  0.1168E-04  0.1366E-17  0.2207E-17
      3.286  0.5581E-02  0.5552E-02  0.4514E-04  0.4491E-04  0.4514E-04  0.4491E-04  0.4514E-04  0.4491E-04  0.2588E-05  0.2574E-05  0.2588E-05  0.2574E-05  0.3016E-18  0.4863E-18  0.2588E-05  0.2574E-05  0.3016E-18  0.4863E-18
      3.382  0.8893E-03  0.8843E-03  0.7193E-05  0.7153E-05  0.7193E-05  0.7153E-05  0.7193E-05  0.7153E-05  0.4123E-06  0.4100E-06  0.4123E-06  0.4100E-06  0.4806E-19  0.7746E-19  0.4123E-06  0.4100E-06  0.4806E-19  0.7746E-19
      3.477  0.5201E-04  0.5231E-04  0.1551E-05  0.1560E-05  0.1551E-05  0.1560E-05  0.1551E-05  0.1560E-05  0.1673E-06  0.1682E-06  0.1673E-06  0.1682E-06  0.1391E-06  0.1399E-06  0.1673E-06  0.1682E-06  0.1391E-06  0.1399E-06
      3.573  0.2978E-03  0.2995E-03  0.8881E-05  0.8932E-05  0.8881E-05  0.8932E-05  0.8881E-05  0.8932E-05  0.9577E-06  0.9632E-06  0.9577E-06  0.9632E-06  0.7962E-06  0.8008E-06  0.9577E-06  0.9632E-06  0.7962E-06  0.8008E-06
      3.668  0.1988E-02  0.1999E-02  0.5928E-04  0.5962E-04  0.5928E-04  0.5962E-04  0.5928E-04  0.5962E-04  0.6393E-05  0.6430E-05  0.6393E-05  0.6430E-05  0.5315E-05  0.5345E-05  0.6393E-05  0.6430E-05  0.5315E-05  0.5345E-05
      3.763  0.1265E-01  0.1271E-01  0.3771E-03  0.3792E-03  0.3771E-03  0.3792E-03  0.3771E-03  0.3792E-03  0.4067E-04  0.4089E-04  0.4067E-04  0.4089E-04  0.3381E-04  0.3399E-04  0.4067E-04  0.4089E-04  0.3381E-04  0.3399E-04
      3.859  0.6125E-01  0.6148E-01  0.1827E-02  0.1834E-02  0.1827E-02  0.1834E-02  0.1827E-02  0.1834E-02  0.1970E-03  0.1977E-03  0.1970E-03  0.1977E-03  0.1638E-03  0.1644E-03  0.1970E-03  0.1977E-03  0.1638E-03  0.1644E-03
      3.954  0.1178E+00  0.1178E+00  0.3513E-02  0.3512E-02  0.3513E-02  0.3512E-02  0.3513E-02  0.3512E-02  0.3788E-03  0.3788E-03  0.3788E-03  0.3788E-03  0.3149E-03  0.3149E-03  0.3788E-03  0.3788E-03  0.3149E-03  0.3149E-03
      4.049  0.5778E-01  0.5755E-01  0.1723E-02  0.1716E-02  0.1723E-02  0.1716E-02  0.1723E-02  0.1716E-02  0.1858E-03  0.1851E-03  0.1858E-03  0.1851E-03  0.1545E-03  0.1539E-03  0.1858E-03  0.1851E-03  0.1545E-03  0.1539E-03
      4.145  0.1167E-01  0.1160E-01  0.3482E-03  0.3464E-03  0.3482E-03  0.3464E-03  0.3482E-03  0.3464E-03  0.3779E-04  0.3759E-04  0.3779E-04  0.3759E-04  0.3118E-04  0.3101E-04  0.3779E-04  0.3759E-04  0.3118E-04  0.3101E-04
      4.240  0.1914E-02  0.1904E-02  0.5868E-04  0.5840E-04  0.5868E-04  0.5840E-04  0.5868E-04  0.5840E-04  0.7681E-05  0.7658E-05  0.7681E-05  0.7658E-05  0.5026E-05  0.4999E-05  0.7681E-05  0.7658E-05  0.5026E-05  0.4999E-05
      4.335  0.6089E-03  0.6123E-03  0.2897E-04  0.2913E-04  0.2897E-04  0.2913E-04  0.2897E-04  0.2913E-04  0.1221E-04  0.1227E-04  0.1221E-04  0.1227E-04  0.1016E-05  0.1022E-05  0.1221E-04  0.1227E-04  0.1016E-05  0.1022E-05
      4.431  0.4022E-02  0.4044E-02  0.1914E-03  0.1924E-03  0.1914E-03  0.1924E-03  0.1914E-03  0.1924E-03  0.8063E-04  0.8107E-04  0.8063E-04  0.8107E-04  0.6714E-05  0.6750E-05  0.8063E-04  0.8107E-04  0.6714E-05  0.6750E-05
      4.526  0.2396E-01  0.2408E-01  0.1140E-02  0.1146E-02  0.1140E-02  0.1146E-02  0.1140E-02  0.1146E-02  0.4804E-03  0.4827E-03  0.4804E-03  0.4827E-03  0.4000E-04  0.4019E-04  0.4804E-03  0.4827E-03  0.4000E-04  0.4019E-04
      4.621  0.8669E-01  0.8689E-01  0.4124E-02  0.4134E-02  0.4124E-02  0.4134E-02  0.4124E-02  0.4134E-02  0.1738E-02  0.1742E-02  0.1738E-02  0.1742E-02  0.1447E-03  0.1450E-03  0.1738E-02  0.1742E-02  0.1447E-03  0.1450E-03
      4.717  0.9390E-01  0.9372E-01  0.4467E-02  0.4459E-02  0.4467E-02  0.4459E-02  0.4467E-02  0.4459E-02  0.1885E-02  0.1882E-02  0.1885E-02  0.1882E-02  0.1567E-03  0.1564E-03  0.1885E-02  0.1882E-02  0.1567E-03  0.1564E-03
      4.812  0.2909E-01  0.2896E-01  0.1385E-02  0.1379E-02  0.1385E-02  0.1379E-02  0.1385E-02  0.1379E-02  0.6049E-03  0.6024E-03  0.6049E-03  0.6024E-03  0.4798E-04  0.4776E-04  0.6049E-03  0.6024E-03  0.4798E-04  0.4776E-04
      4.907  0.7248E-02  0.7232E-02  0.3509E-03  0.3501E-03  0.3509E-03  0.3501E-03  0.3509E-03  0.3501E-03  0.2859E-03  0.2862E-03  0.2859E-03  0.2862E-03  0.1006E-04  0.1003E-04  0.2859E-03  0.2862E-03  0.1006E-04  0.1003E-04
      5.003  0.1306E-01  0.1310E-01  0.6540E-03  0.6562E-03  0.6540E-03  0.6562E-03  0.6540E-03  0.6562E-03  0.1016E-02  0.1019E-02  0.1016E-02  0.1019E-02  0.1151E-04  0.1156E-04  0.1016E-02  0.1019E-02  0.1151E-04  0.1156E-04
      5.098  0.3206E-01  0.3209E-01  0.1634E-02  0.1636E-02  0.1634E-02  0.1636E-02  0.1634E-02  0.1636E-02  0.2538E-02  0.2540E-02  0.2538E-02  0.2540E-02  0.6846E-04  0.6886E-04  0.2538E-02  0.2540E-02  0.6846E-04  0.6886E-04
      5.194  0.2998E-01  0.2998E-01  0.1739E-02  0.1741E-02  0.1739E-02  0.1741E-02  0.1739E-02  0.1741E-02  0.1756E-02  0.1751E-02  0.1756E-02  0.1751E-02  0.4368E-03  0.4392E-03  0.1756E-02  0.1751E-02  0.4368E-03  0.4392E-03
      5.289  0.5316E-01  0.5334E-01  0.3862E-02  0.3876E-02  0.3862E-02  0.3876E-02  0.3862E-02  0.3876E-02  0.8438E-03  0.8440E-03  0.8438E-03  0.8440E-03  0.2146E-02  0.2154E-02  0.8438E-03  0.8440E-03  0.2146E-02  0.2154E-02
      5.384  0.9751E-01  0.9750E-01  0.7276E-02  0.7277E-02  0.7276E-02  0.7277E-02  0.7276E-02  0.7277E-02  0.1003E-02  0.1003E-02  0.1003E-02  0.1003E-02  0.4275E-02  0.4275E-02  0.1003E-02  0.1003E-02  0.4275E-02  0.4275E-02
      5.480  0.4961E-01  0.4942E-01  0.3699E-02  0.3684E-02  0.3699E-02  0.3684E-02  0.3699E-02  0.3684E-02  0.6507E-03  0.6494E-03  0.6507E-03  0.6494E-03  0.2176E-02  0.2167E-02  0.6507E-03  0.6494E-03  0.2176E-02  0.2167E-02
      5.575  0.1338E-01  0.1333E-01  0.9098E-03  0.9064E-03  0.9098E-03  0.9064E-03  0.9098E-03  0.9064E-03  0.1312E-02  0.1315E-02  0.1312E-02  0.1315E-02  0.5007E-03  0.4985E-03  0.1312E-02  0.1315E-02  0.5007E-03  0.4985E-03
      5.670  0.2131E-01  0.2137E-01  0.1131E-02  0.1135E-02  0.1131E-02  0.1135E-02  0.1131E-02  0.1135E-02  0.6604E-02  0.6619E-02  0.6604E-02  0.6619E-02  0.4237E-03  0.4251E-03  0.6604E-02  0.6619E-02  0.4237E-03  0.4251E-03
      5.766  0.8703E-01  0.8731E-01  0.5493E-02  0.5515E-02  0.5493E-02  0.5515E-02  0.5493E-02  0.5515E-02  0.2077E-01  0.2081E-01  0.2077E-01  0.2081E-01  0.2152E-02  0.2162E-02  0.2077E-01  0.2081E-01  0.2152E-02  0.2162E-02
      5.861  0.2331E+00  0.2334E+00  0.1694E-01  0.1697E-01  0.1694E-01  0.1697E-01  0.1694E-01  0.1697E-01  0.3907E-01  0.3911E-01  0.3907E-01  0.3911E-01  0.9655E-02  0.9692E-02  0.3907E-01  0.3911E-01  0.9655E-02  0.9692E-02
      5.956  0.2480E+00  0.2477E+00  0.1704E-01  0.1701E-01  0.1704E-01  0.1701E-01  0.1704E-01  0.1701E-01  0.5531E-01  0.5532E-01  0.5531E-01  0.5532E-01  0.3105E-01  0.3114E-01  0.5531E-01  0.5532E-01  0.3105E-01  0.3114E-01
      6.052  0.1529E+00  0.1526E+00  0.7842E-02  0.7825E-02  0.7842E-02  0.7825E-02  0.7842E-02  0.7825E-02  0.6012E-01  0.6008E-01  0.6012E-01  0.6008E-01  0.5612E-01  0.5612E-01  0.6012E-01  0.6008E-01  0.5612E-01  0.5612E-01
      6.147  0.5862E-01  0.5848E-01  0.2672E-02  0.2665E-02  0.2672E-02  0.2665E-02  0.2672E-02  0.2665E-02  0.2586E-01  0.2581E-01  0.2586E-01  0.2581E-01  0.2986E-01  0.2976E-01  0.2586E-01  0.2581E-01  0.2986E-01  0.2976E-01
      6.242  0.1667E-01  0.1666E-01  0.1046E-02  0.1047E-02  0.1046E-02  0.1047E-02  0.1046E-02  0.1047E-02  0.6046E-02  0.6036E-02  0.6046E-02  0.6036E-02  0.1406E-01  0.1407E-01  0.6046E-02  0.6036E-02  0.1406E-01  0.1407E-01
      6.338  0.2916E-01  0.2926E-01  0.2883E-02  0.2894E-02  0.2883E-02  0.2894E-02  0.2883E-02  0.2894E-02  0.6569E-02  0.6583E-02  0.6569E-02  0.6583E-02  0.3740E-01  0.3752E-01  0.6569E-02  0.6583E-02  0.3740E-01  0.3752E-01
      6.433  0.8469E-01  0.8486E-01  0.8637E-02  0.8657E-02  0.8637E-02  0.8657E-02  0.8637E-02  0.8657E-02  0.2907E-01  0.2913E-01  0.2907E-01  0.2913E-01  0.7056E-01  0.7061E-01  0.2907E-01  0.2913E-01  0.7056E-01  0.7061E-01
      6.528  0.1572E+00  0.1572E+00  0.1524E-01  0.1525E-01  0.1524E-01  0.1525E-01  0.1524E-01  0.1525E-01  0.9670E-01  0.9682E-01  0.9670E-01  0.9682E-01  0.8727E-01  0.8734E-01  0.9670E-01  0.9682E-01  0.8727E-01  0.8734E-01