   4   4   1   0
  0.1380420E+02  0.3807943E-09  0.3807943E-09  0.3807943E-09  0.5000000E-15
  1.000000000000000E-004
  CAR 
 unknown system                          
     27.99910473      0.87083872  301     13.08433630      1.00000000
      0.871  0.0000E+00  0.0000E+00  0.0000E+00  0.0000E+00
      0.961  0.0000E+00  0.0000E+00  0.0000E+00  0.0000E+00
      1.052  0.0000E+00  0.0000E+00  0.0000E+00  0.0000E+00
      1.142  0.0000E+00  0.0000E+00  0.0000E+00  0.0000E+00
      1.233  0.0000E+00  0.0000E+00  0.0000E+00  0.0000E+00
      1.323  0.0000E+00  0.0000E+00  0.0000E+00  0.0000E+00
      1.413  0.0000E+00  0.0000E+00  0.0000E+00  0.0000E+00
      1.504  0.0000E+00  0.0000E+00  0.0000E+00  0.0000E+00
      1.594  0.0000E+00  0.0000E+00  0.0000E+00  0.0000E+00
      1.685  0.9346E-04  0.9193E-04  0.8452E-05  0.8313E-05
      1.775  0.4761E-03  0.4684E-03  0.5151E-04  0.5067E-04
      1.866  0.2881E-02  0.2835E-02  0.3121E-03  0.3070E-03
      1.956  0.1674E-01  0.1648E-01  0.1826E-02  0.1797E-02
      2.046  0.7824E-01  0.7733E-01  0.8901E-02  0.8790E-02
      2.137  0.1714E+00  0.1711E+00  0.2440E-01  0.2426E-01
      2.227  0.1077E+00  0.1088E+00  0.3414E-01  0.3409E-01
      2.318  0.2643E-01  0.2683E-01  0.3653E-01  0.3652E-01
      2.408  0.4805E-02  0.4880E-02  0.3696E-01  0.3696E-01
      2.499  0.1368E-02  0.1371E-02  0.3709E-01  0.3709E-01
      2.589  0.3581E-02  0.3522E-02  0.3742E-01  0.3742E-01
      2.679  0.2140E-01  0.2106E-01  0.3936E-01  0.3932E-01
      2.770  0.1159E+00  0.1143E+00  0.4984E-01  0.4966E-01
      2.860  0.4026E+00  0.3996E+00  0.8625E-01  0.8579E-01
      2.951  0.4745E+00  0.4766E+00  0.1292E+00  0.1289E+00
      3.041  0.1699E+00  0.1721E+00  0.1445E+00  0.1445E+00
      3.132  0.3373E-01  0.3426E-01  0.1476E+00  0.1476E+00
      3.222  0.7369E-02  0.7435E-02  0.1482E+00  0.1482E+00
      3.312  0.1037E-01  0.1020E-01  0.1493E+00  0.1493E+00
      3.403  0.5966E-01  0.5875E-01  0.1547E+00  0.1546E+00
      3.493  0.2664E+00  0.2635E+00  0.1788E+00  0.1784E+00
      3.584  0.5203E+00  0.5200E+00  0.2258E+00  0.2254E+00
      3.674  0.2897E+00  0.2927E+00  0.2520E+00  0.2519E+00
      3.765  0.7109E-01  0.7206E-01  0.2584E+00  0.2584E+00
      3.855  0.3496E-01  0.3481E-01  0.2616E+00  0.2615E+00
      3.945  0.1020E+00  0.1009E+00  0.2710E+00  0.2709E+00
      4.036  0.2084E+00  0.2079E+00  0.2899E+00  0.2897E+00
      4.126  0.2656E+00  0.2642E+00  0.3139E+00  0.3136E+00
      4.217  0.5008E+00  0.4989E+00  0.3592E+00  0.3587E+00
      4.307  0.3982E+00  0.4014E+00  0.3952E+00  0.3950E+00
      4.398  0.1168E+00  0.1183E+00  0.4058E+00  0.4058E+00
      4.488  0.5438E-01  0.5419E-01  0.4107E+00  0.4107E+00
      4.578  0.1982E+00  0.1954E+00  0.4286E+00  0.4283E+00
      4.669  0.8504E+00  0.8417E+00  0.5056E+00  0.5045E+00
      4.759  0.1681E+01  0.1680E+01  0.6576E+00  0.6564E+00
      4.850  0.1158E+01  0.1166E+01  0.7624E+00  0.7618E+00
      4.940  0.8299E+00  0.8284E+00  0.8374E+00  0.8367E+00
      5.031  0.1213E+01  0.1211E+01  0.9471E+00  0.9462E+00
      5.121  0.1014E+01  0.1013E+01  0.1039E+01  0.1038E+01
      5.211  0.6928E+00  0.6963E+00  0.1102E+01  0.1101E+01
      5.302  0.6696E+00  0.6658E+00  0.1162E+01  0.1161E+01
      5.392  0.1517E+01  0.1507E+01  0.1300E+01  0.1298E+01
      5.483  0.2549E+01  0.2546E+01  0.1530E+01  0.1528E+01
      5.573  0.2840E+01  0.2839E+01  0.1787E+01  0.1785E+01
      5.663  0.2890E+01  0.2887E+01  0.2049E+01  0.2046E+01
      5.754  0.2484E+01  0.2487E+01  0.2273E+01  0.2271E+01
      5.844  0.2613E+01  0.2605E+01  0.2510E+01  0.2507E+01
      5.935  0.3053E+01  0.3056E+01  0.2786E+01  0.2784E+01
      6.025  0.2217E+01  0.2231E+01  0.2987E+01  0.2985E+01
      6.116  0.1838E+01  0.1839E+01  0.3153E+01  0.3152E+01
      6.206  0.2113E+01  0.2113E+01  0.3345E+01  0.3343E+01
      6.296  0.1946E+01  0.1944E+01  0.3521E+01  0.3519E+01
      6.387  0.2237E+01  0.2226E+01  0.3723E+01  0.3721E+01
      6.477  0.3450E+01  0.3436E+01  0.4035E+01  0.4032E+01
      6.568  0.3758E+01  0.3774E+01  0.4375E+01  0.4373E+01
      6.658  0.1966E+01  0.1978E+01  0.4553E+01  0.4552E+01
      6.749  0.1512E+01  0.1508E+01  0.4690E+01  0.4689E+01
      6.839  0.1493E+01  0.1498E+01  0.4825E+01  0.4824E+01
      6.929  0.8483E+00  0.8532E+00  0.4902E+01  0.4902E+01
      7.020  0.1163E+01  0.1158E+01  0.5008E+01  0.5007E+01
      7.110  0.2209E+01  0.2201E+01  0.5208E+01  0.5206E+01
      7.201  0.2863E+01  0.2855E+01  0.5467E+01  0.5464E+01
      7.291  0.2689E+01  0.2691E+01  0.5710E+01  0.5708E+01
      7.382  0.2314E+01  0.2319E+01  0.5919E+01  0.5917E+01
      7.472  0.1783E+01  0.1781E+01  0.6081E+01  0.6079E+01
      7.562  0.2028E+01  0.2029E+01  0.6264E+01  0.6262E+01
      7.653  0.1821E+01  0.1827E+01  0.6429E+01  0.6428E+01
      7.743  0.1444E+01  0.1443E+01  0.6560E+01  0.6559E+01
      7.834  0.2209E+01  0.2194E+01  0.6760E+01  0.6757E+01
      7.924  0.3937E+01  0.3922E+01  0.7116E+01  0.7112E+01
      8.015  0.4005E+01  0.4018E+01  0.7479E+01  0.7476E+01
      8.105  0.3043E+01  0.3048E+01  0.7754E+01  0.7752E+01
      8.195  0.2035E+01  0.2045E+01  0.7938E+01  0.7937E+01
      8.286  0.1158E+01  0.1164E+01  0.8043E+01  0.8042E+01
      8.376  0.1618E+01  0.1608E+01  0.8190E+01  0.8188E+01
      8.467  0.3083E+01  0.3068E+01  0.8469E+01  0.8466E+01
      8.557  0.4598E+01  0.4595E+01  0.8885E+01  0.8881E+01
      8.648  0.3848E+01  0.3854E+01  0.9233E+01  0.9230E+01
      8.738  0.2483E+01  0.2489E+01  0.9457E+01  0.9455E+01
      8.828  0.2246E+01  0.2238E+01  0.9661E+01  0.9658E+01
      8.919  0.3132E+01  0.3124E+01  0.9945E+01  0.9941E+01
      9.009  0.3657E+01  0.3664E+01  0.1028E+02  0.1027E+02
      9.100  0.3010E+01  0.3013E+01  0.1055E+02  0.1055E+02
      9.190  0.4169E+01  0.4149E+01  0.1093E+02  0.1092E+02
      9.281  0.5001E+01  0.5004E+01  0.1138E+02  0.1137E+02
      9.371  0.3947E+01  0.3954E+01  0.1174E+02  0.1173E+02
      9.461  0.2811E+01  0.2828E+01  0.1199E+02  0.1199E+02
      9.552  0.1927E+01  0.1937E+01  0.1216E+02  0.1216E+02
      9.642  0.1857E+01  0.1849E+01  0.1233E+02  0.1233E+02
      9.733  0.2720E+01  0.2711E+01  0.1258E+02  0.1258E+02
      9.823  0.2351E+01  0.2365E+01  0.1279E+02  0.1279E+02
      9.914  0.1403E+01  0.1408E+01  0.1292E+02  0.1292E+02
     10.004  0.1374E+01  0.1363E+01  0.1304E+02  0.1304E+02
     10.094  0.1694E+01  0.1689E+01  0.1320E+02  0.1319E+02
     10.185  0.2078E+01  0.2072E+01  0.1338E+02  0.1338E+02
     10.275  0.2170E+01  0.2187E+01  0.1358E+02  0.1358E+02
     10.366  0.1497E+01  0.1507E+01  0.1372E+02  0.1372E+02
     10.456  0.1283E+01  0.1268E+01  0.1383E+02  0.1383E+02
     10.547  0.2591E+01  0.2562E+01  0.1407E+02  0.1406E+02
     10.637  0.3395E+01  0.3388E+01  0.1437E+02  0.1437E+02
     10.727  0.3557E+01  0.3555E+01  0.1470E+02  0.1469E+02
     10.818  0.3911E+01  0.3916E+01  0.1505E+02  0.1504E+02
     10.908  0.3701E+01  0.3703E+01  0.1538E+02  0.1538E+02
     10.999  0.2751E+01  0.2771E+01  0.1563E+02  0.1563E+02
     11.089  0.1441E+01  0.1459E+01  0.1576E+02  0.1576E+02
     11.180  0.7672E+00  0.7749E+00  0.1583E+02  0.1583E+02
     11.270  0.5812E+00  0.5765E+00  0.1589E+02  0.1589E+02
     11.360  0.1211E+01  0.1193E+01  0.1600E+02  0.1599E+02
     11.451  0.1763E+01  0.1761E+01  0.1616E+02  0.1615E+02
     11.541  0.2062E+01  0.2061E+01  0.1634E+02  0.1634E+02
     11.632  0.2398E+01  0.2403E+01  0.1656E+02  0.1656E+02
     11.722  0.2079E+01  0.2086E+01  0.1675E+02  0.1675E+02
     11.813  0.2452E+01  0.2438E+01  0.1697E+02  0.1697E+02
     11.903  0.3439E+01  0.3423E+01  0.1728E+02  0.1728E+02
     11.993  0.3404E+01  0.3410E+01  0.1759E+02  0.1758E+02
     12.084  0.2038E+01  0.2067E+01  0.1777E+02  0.1777E+02
     12.174  0.1007E+01  0.1019E+01  0.1786E+02  0.1786E+02
     12.265  0.8423E+00  0.8407E+00  0.1794E+02  0.1794E+02
     12.355  0.8704E+00  0.8662E+00  0.1802E+02  0.1802E+02
     12.446  0.1185E+01  0.1172E+01  0.1813E+02  0.1812E+02
     12.536  0.2256E+01  0.2245E+01  0.1833E+02  0.1833E+02
     12.626  0.3384E+01  0.3383E+01  0.1864E+02  0.1863E+02
     12.717  0.4046E+01  0.4045E+01  0.1900E+02  0.1900E+02
     12.807  0.3029E+01  0.3038E+01  0.1928E+02  0.1927E+02
     12.898  0.2755E+01  0.2757E+01  0.1953E+02  0.1952E+02
     12.988  0.2858E+01  0.2862E+01  0.1979E+02  0.1978E+02
     13.079  0.2252E+01  0.2254E+01  0.1999E+02  0.1999E+02
     13.169  0.1835E+01  0.1840E+01  0.2016E+02  0.2015E+02
     13.259  0.1597E+01  0.1600E+01  0.2030E+02  0.2030E+02
     13.350  0.2378E+01  0.2376E+01  0.2052E+02  0.2051E+02
     13.440  0.2914E+01  0.2919E+01  0.2078E+02  0.2078E+02
     13.531  0.2204E+01  0.2203E+01  0.2098E+02  0.2098E+02
     13.621  0.2188E+01  0.2178E+01  0.2118E+02  0.2117E+02
     13.712  0.2306E+01  0.2308E+01  0.2139E+02  0.2138E+02
     13.802  0.1351E+01  0.1364E+01  0.2151E+02  0.2151E+02
     13.892  0.4247E+00  0.4326E+00  0.2155E+02  0.2155E+02
     13.983  0.8412E-01  0.8604E-01  0.2155E+02  0.2155E+02
     14.073  0.1066E-01  0.1086E-01  0.2156E+02  0.2156E+02
     14.164  0.8866E-02  0.8707E-02  0.2156E+02  0.2156E+02
     14.254  0.5144E-01  0.5056E-01  0.2156E+02  0.2156E+02
     14.345  0.2390E+00  0.2359E+00  0.2158E+02  0.2158E+02
     14.435  0.5156E+00  0.5147E+00  0.2163E+02  0.2163E+02
     14.525  0.3195E+00  0.3229E+00  0.2166E+02  0.2166E+02
     14.616  0.8411E-01  0.8528E-01  0.2167E+02  0.2167E+02
     14.706  0.5365E-01  0.5312E-01  0.2167E+02  0.2167E+02
     14.797  0.2203E+00  0.2165E+00  0.2169E+02  0.2169E+02
     14.887  0.7838E+00  0.7763E+00  0.2176E+02  0.2176E+02
     14.978  0.1005E+01  0.1009E+01  0.2185E+02  0.2185E+02
     15.068  0.5663E+00  0.5683E+00  0.2190E+02  0.2190E+02
     15.158  0.8284E+00  0.8219E+00  0.2198E+02  0.2198E+02
     15.249  0.1013E+01  0.1018E+01  0.2207E+02  0.2207E+02
     15.339  0.4873E+00  0.4917E+00  0.2211E+02  0.2211E+02
     15.430  0.5739E+00  0.5691E+00  0.2217E+02  0.2217E+02
     15.520  0.1090E+01  0.1088E+01  0.2226E+02  0.2226E+02
     15.611  0.8317E+00  0.8363E+00  0.2234E+02  0.2234E+02
     15.701  0.6529E+00  0.6542E+00  0.2240E+02  0.2240E+02
     15.791  0.3807E+00  0.3839E+00  0.2243E+02  0.2243E+02
     15.882  0.9685E-01  0.9812E-01  0.2244E+02  0.2244E+02
     15.972  0.1878E-01  0.1898E-01  0.2244E+02  0.2244E+02
     16.063  0.1661E-01  0.1639E-01  0.2245E+02  0.2245E+02
     16.153  0.7984E-01  0.7843E-01  0.2245E+02  0.2245E+02
     16.244  0.3701E+00  0.3651E+00  0.2249E+02  0.2249E+02
     16.334  0.9040E+00  0.8994E+00  0.2257E+02  0.2257E+02
     16.424  0.1046E+01  0.1046E+01  0.2266E+02  0.2266E+02
     16.515  0.8133E+00  0.8169E+00  0.2274E+02  0.2274E+02
     16.605  0.3593E+00  0.3643E+00  0.2277E+02  0.2277E+02
     16.696  0.7986E-01  0.8137E-01  0.2278E+02  0.2278E+02
     16.786  0.1830E-01  0.1844E-01  0.2278E+02  0.2278E+02
     16.877  0.3558E-01  0.3485E-01  0.2278E+02  0.2278E+02
     16.967  0.1965E+00  0.1929E+00  0.2280E+02  0.2280E+02
     17.057  0.7363E+00  0.7285E+00  0.2287E+02  0.2286E+02
     17.148  0.9937E+00  0.9977E+00  0.2296E+02  0.2296E+02
     17.238  0.4027E+00  0.4089E+00  0.2299E+02  0.2299E+02
     17.329  0.1336E+00  0.1342E+00  0.2300E+02  0.2300E+02
     17.419  0.2958E+00  0.2917E+00  0.2303E+02  0.2303E+02
     17.510  0.8846E+00  0.8786E+00  0.2311E+02  0.2311E+02
     17.600  0.8941E+00  0.8998E+00  0.2319E+02  0.2319E+02
     17.690  0.3496E+00  0.3529E+00  0.2322E+02  0.2322E+02
     17.781  0.3980E+00  0.3944E+00  0.2326E+02  0.2326E+02
     17.871  0.9757E+00  0.9712E+00  0.2335E+02  0.2335E+02
     17.962  0.8934E+00  0.8972E+00  0.2343E+02  0.2343E+02
     18.052  0.6661E+00  0.6615E+00  0.2349E+02  0.2349E+02
     18.143  0.1058E+01  0.1055E+01  0.2358E+02  0.2358E+02
     18.233  0.6922E+00  0.7016E+00  0.2365E+02  0.2365E+02
     18.323  0.1741E+00  0.1780E+00  0.2366E+02  0.2366E+02
     18.414  0.3114E-01  0.3190E-01  0.2367E+02  0.2367E+02
     18.504  0.5180E-02  0.5309E-02  0.2367E+02  0.2367E+02
     18.595  0.0000E+00  0.0000E+00  0.2367E+02  0.2367E+02
     18.685  0.0000E+00  0.0000E+00  0.2367E+02  0.2367E+02
     18.775  0.0000E+00  0.0000E+00  0.2367E+02  0.2367E+02
     18.866  0.3073E-03  0.2992E-03  0.2367E+02  0.2367E+02
     18.956  0.1819E-02  0.1771E-02  0.2367E+02  0.2367E+02
     19.047  0.1076E-01  0.1048E-01  0.2367E+02  0.2367E+02
     19.137  0.6323E-01  0.6168E-01  0.2367E+02  0.2367E+02
     19.228  0.3005E+00  0.2947E+00  0.2370E+02  0.2370E+02
     19.318  0.7896E+00  0.7831E+00  0.2377E+02  0.2377E+02
     19.408  0.1263E+01  0.1257E+01  0.2389E+02  0.2388E+02
     19.499  0.1571E+01  0.1570E+01  0.2403E+02  0.2403E+02
     19.589  0.1836E+01  0.1831E+01  0.2419E+02  0.2419E+02
     19.680  0.1825E+01  0.1830E+01  0.2436E+02  0.2436E+02
     19.770  0.1413E+01  0.1422E+01  0.2449E+02  0.2449E+02
     19.861  0.5964E+00  0.6058E+00  0.2454E+02  0.2454E+02
     19.951  0.1277E+00  0.1303E+00  0.2455E+02  0.2455E+02
     20.041  0.2047E-01  0.2091E-01  0.2456E+02  0.2456E+02
     20.132  0.0000E+00  0.0000E+00  0.2456E+02  0.2456E+02
     20.222  0.0000E+00  0.0000E+00  0.2456E+02  0.2456E+02
     20.313  0.0000E+00  0.0000E+00  0.2456E+02  0.2456E+02
     20.403  0.0000E+00  0.0000E+00  0.2456E+02  0.2456E+02
     20.494  0.4946E-03  0.4826E-03  0.2456E+02  0.2456E+02
     20.584  0.2661E-02  0.2597E-02  0.2456E+02  0.2456E+02
     20.674  0.1606E-01  0.1567E-01  0.2456E+02  0.2456E+02
     20.765  0.9587E-01  0.9366E-01  0.2457E+02  0.2457E+02
     20.855  0.4975E+00  0.4877E+00  0.2461E+02  0.2461E+02
     20.946  0.1546E+01  0.1532E+01  0.2475E+02  0.2475E+02
     21.036  0.2054E+01  0.2055E+01  0.2494E+02  0.2493E+02
     21.127  0.2127E+01  0.2128E+01  0.2513E+02  0.2513E+02
     21.217  0.1818E+01  0.1825E+01  0.2529E+02  0.2529E+02
     21.307  0.9974E+00  0.1000E+01  0.2538E+02  0.2538E+02
     21.398  0.1022E+01  0.1014E+01  0.2548E+02  0.2547E+02
     21.488  0.9211E+00  0.9317E+00  0.2556E+02  0.2556E+02
     21.579  0.2933E+00  0.3015E+00  0.2559E+02  0.2559E+02
     21.669  0.5727E-01  0.5909E-01  0.2559E+02  0.2559E+02
     21.760  0.1701E-01  0.1714E-01  0.2559E+02  0.2559E+02
     21.850  0.4535E-01  0.4423E-01  0.2560E+02  0.2560E+02
     21.940  0.2440E+00  0.2387E+00  0.2562E+02  0.2562E+02
     22.031  0.8283E+00  0.8192E+00  0.2569E+02  0.2569E+02
     22.121  0.9529E+00  0.9594E+00  0.2578E+02  0.2578E+02
     22.212  0.4286E+00  0.4334E+00  0.2582E+02  0.2582E+02
     22.302  0.4433E+00  0.4408E+00  0.2586E+02  0.2586E+02
     22.393  0.5006E+00  0.5033E+00  0.2590E+02  0.2590E+02
     22.483  0.1908E+00  0.1940E+00  0.2592E+02  0.2592E+02
     22.573  0.5848E-01  0.5859E-01  0.2593E+02  0.2593E+02
     22.664  0.1198E+00  0.1165E+00  0.2594E+02  0.2594E+02
     22.754  0.3987E+00  0.3923E+00  0.2597E+02  0.2597E+02
     22.845  0.4839E+00  0.4882E+00  0.2602E+02  0.2602E+02
     22.935  0.2091E+00  0.2135E+00  0.2604E+02  0.2604E+02
     23.026  0.2305E+00  0.2288E+00  0.2606E+02  0.2606E+02
     23.116  0.7512E+00  0.7442E+00  0.2613E+02  0.2612E+02
     23.206  0.1243E+01  0.1239E+01  0.2624E+02  0.2624E+02
     23.297  0.1283E+01  0.1279E+01  0.2635E+02  0.2635E+02
     23.387  0.1020E+01  0.1029E+01  0.2645E+02  0.2645E+02
     23.478  0.3893E+00  0.3954E+00  0.2648E+02  0.2648E+02
     23.568  0.3962E+00  0.3918E+00  0.2652E+02  0.2652E+02
     23.659  0.1001E+01  0.9938E+00  0.2661E+02  0.2661E+02
     23.749  0.1104E+01  0.1105E+01  0.2671E+02  0.2671E+02
     23.839  0.1125E+01  0.1121E+01  0.2681E+02  0.2681E+02
     23.930  0.9261E+00  0.9354E+00  0.2689E+02  0.2689E+02
     24.020  0.2883E+00  0.2947E+00  0.2692E+02  0.2692E+02
     24.111  0.5331E-01  0.5469E-01  0.2692E+02  0.2692E+02
     24.201  0.9032E-02  0.9202E-02  0.2693E+02  0.2693E+02
     24.292  0.7183E-03  0.8098E-03  0.2693E+02  0.2693E+02
     24.382  0.4122E-02  0.4238E-02  0.2693E+02  0.2693E+02
     24.472  0.2508E-01  0.2576E-01  0.2693E+02  0.2693E+02
     24.563  0.1429E+00  0.1466E+00  0.2694E+02  0.2694E+02
     24.653  0.6200E+00  0.6305E+00  0.2700E+02  0.2700E+02
     24.744  0.1216E+01  0.1212E+01  0.2711E+02  0.2711E+02
     24.834  0.1239E+01  0.1218E+01  0.2722E+02  0.2722E+02
     24.925  0.1526E+01  0.1515E+01  0.2736E+02  0.2736E+02
     25.015  0.1157E+01  0.1151E+01  0.2746E+02  0.2746E+02
     25.105  0.7348E+00  0.7174E+00  0.2753E+02  0.2753E+02
     25.196  0.7214E+00  0.7436E+00  0.2759E+02  0.2759E+02
     25.286  0.3669E+00  0.3884E+00  0.2763E+02  0.2763E+02
     25.377  0.3114E+00  0.3286E+00  0.2766E+02  0.2766E+02
     25.467  0.6660E+00  0.6672E+00  0.2772E+02  0.2772E+02
     25.558  0.9568E+00  0.9265E+00  0.2780E+02  0.2780E+02
     25.648  0.1123E+01  0.1118E+01  0.2790E+02  0.2790E+02
     25.738  0.5142E+00  0.5261E+00  0.2795E+02  0.2795E+02
     25.829  0.1115E+00  0.1152E+00  0.2796E+02  0.2796E+02
     25.919  0.1882E-01  0.1955E-01  0.2796E+02  0.2796E+02
     26.010  0.0000E+00  0.0000E+00  0.2796E+02  0.2796E+02
     26.100  0.0000E+00  0.0000E+00  0.2796E+02  0.2796E+02
     26.191  0.0000E+00  0.0000E+00  0.2796E+02  0.2796E+02
     26.281  0.2539E-04  0.2509E-04  0.2796E+02  0.2796E+02
     26.371  0.1295E-03  0.1279E-03  0.2796E+02  0.2796E+02
     26.462  0.7884E-03  0.7789E-03  0.2796E+02  0.2796E+02
     26.552  0.4745E-02  0.4689E-02  0.2796E+02  0.2796E+02
     26.643  0.2672E-01  0.2643E-01  0.2797E+02  0.2797E+02
     26.733  0.1085E+00  0.1077E+00  0.2798E+02  0.2798E+02
     26.824  0.1712E+00  0.1714E+00  0.2799E+02  0.2799E+02
     26.914  0.7757E-01  0.7824E-01  0.2800E+02  0.2800E+02
     27.004  0.1655E-01  0.1674E-01  0.2800E+02  0.2800E+02
     27.095  0.2847E-02  0.2881E-02  0.2800E+02  0.2800E+02
     27.185  0.0000E+00  0.0000E+00  0.2800E+02  0.2800E+02
     27.276  0.0000E+00  0.0000E+00  0.2800E+02  0.2800E+02
     27.366  0.0000E+00  0.0000E+00  0.2800E+02  0.2800E+02
     27.457  0.0000E+00  0.0000E+00  0.2800E+02  0.2800E+02
     27.547  0.0000E+00  0.0000E+00  0.2800E+02  0.2800E+02
     27.637  0.0000E+00  0.0000E+00  0.2800E+02  0.2800E+02
     27.728  0.0000E+00  0.0000E+00  0.2800E+02  0.2800E+02
     27.818  0.0000E+00  0.0000E+00  0.2800E+02  0.2800E+02
     27.909  0.0000E+00  0.0000E+00  0.2800E+02  0.2800E+02
     27.999  0.0000E+00  0.0000E+00  0.2800E+02  0.2800E+02
     27.99910473      0.87083872  301     13.08433630      1.00000000
      0.871  0.0000E+00  0.0000E+00  0.0000E+00  0.0000E+00  0.0000E+00  0.0000E+00  0.0000E+00  0.0000E+00  0.0000E+00  0.0000E+00  0.0000E+00  0.0000E+00  0.0000E+00  0.0000E+00  0.0000E+00  0.0000E+00  0.0000E+00  0.0000E+00
      0.961  0.0000E+00  0.0000E+00  0.0000E+00  0.0000E+00  0.0000E+00  0.0000E+00  0.0000E+00  0.0000E+00  0.0000E+00  0.0000E+00  0.0000E+00  0.0000E+00  0.0000E+00  0.0000E+00  0.0000E+00  0.0000E+00  0.0000E+00  0.0000E+00
      1.052  0.0000E+00  0.0000E+00  0.0000E+00  0.0000E+00  0.0000E+00  0.0000E+00  0.0000E+00  0.0000E+00  0.0000E+00  0.0000E+00  0.0000E+00  0.0000E+00  0.0000E+00  0.0000E+00  0.0000E+00  0.0000E+00  0.0000E+00  0.0000E+00
      1.142  0.0000E+00  0.0000E+00  0.0000E+00  0.0000E+00  0.0000E+00  0.0000E+00  0.0000E+00  0.0000E+00  0.0000E+00  0.0000E+00  0.0000E+00  0.0000E+00  0.0000E+00  0.0000E+00  0.0000E+00  0.0000E+00  0.0000E+00  0.0000E+00
      1.233  0.0000E+00  0.0000E+00  0.0000E+00  0.0000E+00  0.0000E+00  0.0000E+00  0.0000E+00  0.0000E+00  0.0000E+00  0.0000E+00  0.0000E+00  0.0000E+00  0.0000E+00  0.0000E+00  0.0000E+00  0.0000E+00  0.0000E+00  0.0000E+00
      1.323  0.0000E+00  0.0000E+00  0.0000E+00  0.0000E+00  0.0000E+00  0.0000E+00  0.0000E+00  0.0000E+00  0.0000E+00  0.0000E+00  0.0000E+00  0.0000E+00  0.0000E+00  0.0000E+00  0.0000E+00  0.0000E+00  0.0000E+00  0.0000E+00
      1.413  0.0000E+00  0.0000E+00  0.0000E+00  0.0000E+00  0.0000E+00  0.0000E+00  0.0000E+00  0.0000E+00  0.0000E+00  0.0000E+00  0.0000E+00  0.0000E+00  0.0000E+00  0.0000E+00  0.0000E+00  0.0000E+00  0.0000E+00  0.0000E+00
      1.504  0.0000E+00  0.0000E+00  0.0000E+00  0.0000E+00  0.0000E+00  0.0000E+00  0.0000E+00  0.0000E+00  0.0000E+00  0.0000E+00  0.0000E+00  0.0000E+00  0.0000E+00  0.0000E+00  0.0000E+00  0.0000E+00  0.0000E+00  0.0000E+00
      1.594  0.0000E+00  0.0000E+00  0.0000E+00  0.0000E+00  0.0000E+00  0.0000E+00  0.0000E+00  0.0000E+00  0.0000E+00  0.0000E+00  0.0000E+00  0.0000E+00  0.0000E+00  0.0000E+00  0.0000E+00  0.0000E+00  0.0000E+00  0.0000E+00
      1.685  0.2051E-04  0.2017E-04  0.1539E-06  0.1514E-06  0.1539E-06  0.1514E-06  0.1539E-06  0.1514E-06  0.8724E-08  0.8579E-08  0.8724E-08  0.8579E-08  0.7741E-21  0.6220E-20  0.8724E-08  0.8579E-08  0.7741E-21  0.6220E-20
      1.775  0.1045E-03  0.1028E-03  0.7839E-06  0.7712E-06  0.7839E-06  0.7712E-06  0.7839E-06  0.7712E-06  0.4445E-07  0.4371E-07  0.4445E-07  0.4371E-07  0.3943E-20  0.3169E-19  0.4445E-07  0.4371E-07  0.3943E-20  0.3169E-19
      1.866  0.6324E-03  0.6220E-03  0.4744E-05  0.4668E-05  0.4744E-05  0.4668E-05  0.4744E-05  0.4668E-05  0.2690E-06  0.2645E-06  0.2690E-06  0.2645E-06  0.2386E-19  0.1918E-18  0.2690E-06  0.2645E-06  0.2386E-19  0.1918E-18
      1.956  0.3673E-02  0.3616E-02  0.2756E-04  0.2714E-04  0.2756E-04  0.2714E-04  0.2756E-04  0.2714E-04  0.1562E-05  0.1538E-05  0.1562E-05  0.1538E-05  0.1386E-18  0.1115E-17  0.1562E-05  0.1538E-05  0.1386E-18  0.1115E-17
      2.046  0.1717E-01  0.1697E-01  0.1288E-03  0.1273E-03  0.1288E-03  0.1273E-03  0.1288E-03  0.1273E-03  0.7304E-05  0.7216E-05  0.7304E-05  0.7216E-05  0.6480E-18  0.5232E-17  0.7304E-05  0.7216E-05  0.6480E-18  0.5232E-17
      2.137  0.3761E-01  0.3754E-01  0.2821E-03  0.2817E-03  0.2821E-03  0.2817E-03  0.2821E-03  0.2817E-03  0.1600E-04  0.1596E-04  0.1600E-04  0.1596E-04  0.1419E-17  0.1158E-16  0.1600E-04  0.1596E-04  0.1419E-17  0.1158E-16
      2.227  0.2364E-01  0.2386E-01  0.1774E-03  0.1791E-03  0.1774E-03  0.1791E-03  0.1774E-03  0.1791E-03  0.1006E-04  0.1015E-04  0.1006E-04  0.1015E-04  0.8922E-18  0.7359E-17  0.1006E-04  0.1015E-04  0.8922E-18  0.7359E-17
      2.318  0.5801E-02  0.5887E-02  0.4352E-04  0.4418E-04  0.4352E-04  0.4418E-04  0.4352E-04  0.4418E-04  0.2467E-05  0.2504E-05  0.2467E-05  0.2504E-05  0.2189E-18  0.1816E-17  0.2467E-05  0.2504E-05  0.2189E-18  0.1816E-17
      2.408  0.1053E-02  0.1069E-02  0.8375E-05  0.8492E-05  0.8375E-05  0.8492E-05  0.8375E-05  0.8492E-05  0.5080E-06  0.5139E-06  0.5080E-06  0.5139E-06  0.5992E-07  0.5893E-07  0.5080E-06  0.5139E-06  0.5992E-07  0.5893E-07
      2.499  0.2916E-03  0.2924E-03  0.4621E-05  0.4588E-05  0.4621E-05  0.4588E-05  0.4621E-05  0.4588E-05  0.4310E-06  0.4262E-06  0.4310E-06  0.4262E-06  0.3055E-06  0.3005E-06  0.4310E-06  0.4262E-06  0.3055E-06  0.3005E-06
      2.589  0.7336E-03  0.7214E-03  0.2030E-04  0.1997E-04  0.2030E-04  0.1997E-04  0.2030E-04  0.1997E-04  0.2179E-05  0.2143E-05  0.2179E-05  0.2143E-05  0.1858E-05  0.1827E-05  0.2179E-05  0.2143E-05  0.1858E-05  0.1827E-05
      2.679  0.4385E-02  0.4314E-02  0.1214E-03  0.1194E-03  0.1214E-03  0.1194E-03  0.1214E-03  0.1194E-03  0.1302E-04  0.1281E-04  0.1302E-04  0.1281E-04  0.1110E-04  0.1093E-04  0.1302E-04  0.1281E-04  0.1110E-04  0.1093E-04
      2.770  0.2376E-01  0.2341E-01  0.6574E-03  0.6481E-03  0.6574E-03  0.6481E-03  0.6574E-03  0.6481E-03  0.7055E-04  0.6953E-04  0.7055E-04  0.6953E-04  0.6016E-04  0.5930E-04  0.7055E-04  0.6953E-04  0.6016E-04  0.5930E-04
      2.860  0.8248E-01  0.8185E-01  0.2282E-02  0.2266E-02  0.2282E-02  0.2266E-02  0.2282E-02  0.2266E-02  0.2449E-03  0.2431E-03  0.2449E-03  0.2431E-03  0.2089E-03  0.2073E-03  0.2449E-03  0.2431E-03  0.2089E-03  0.2073E-03
      2.951  0.9722E-01  0.9763E-01  0.2690E-02  0.2703E-02  0.2690E-02  0.2703E-02  0.2690E-02  0.2703E-02  0.2887E-03  0.2899E-03  0.2887E-03  0.2899E-03  0.2462E-03  0.2473E-03  0.2887E-03  0.2899E-03  0.2462E-03  0.2473E-03
      3.041  0.3480E-01  0.3525E-01  0.9630E-03  0.9760E-03  0.9630E-03  0.9760E-03  0.9630E-03  0.9760E-03  0.1034E-03  0.1047E-03  0.1034E-03  0.1047E-03  0.8813E-04  0.8929E-04  0.1034E-03  0.1047E-03  0.8813E-04  0.8929E-04
      3.132  0.6905E-02  0.7013E-02  0.1922E-03  0.1952E-03  0.1922E-03  0.1952E-03  0.1922E-03  0.1952E-03  0.2150E-04  0.2180E-04  0.2150E-04  0.2180E-04  0.1743E-04  0.1771E-04  0.2150E-04  0.2180E-04  0.1743E-04  0.1771E-04
      3.222  0.1483E-02  0.1497E-02  0.4652E-04  0.4683E-04  0.4652E-04  0.4683E-04  0.4652E-04  0.4683E-04  0.9449E-05  0.9406E-05  0.9449E-05  0.9406E-05  0.3476E-05  0.3516E-05  0.9449E-05  0.9406E-05  0.3476E-05  0.3516E-05
      3.312  0.1963E-02  0.1931E-02  0.8746E-04  0.8606E-04  0.8746E-04  0.8606E-04  0.8746E-04  0.8606E-04  0.3631E-04  0.3571E-04  0.3631E-04  0.3571E-04  0.3283E-05  0.3230E-05  0.3631E-04  0.3571E-04  0.3283E-05  0.3230E-05
      3.403  0.1130E-01  0.1112E-01  0.5032E-03  0.4956E-03  0.5032E-03  0.4956E-03  0.5032E-03  0.4956E-03  0.2089E-03  0.2057E-03  0.2089E-03  0.2057E-03  0.1889E-04  0.1860E-04  0.2089E-03  0.2057E-03  0.1889E-04  0.1860E-04
      3.493  0.5044E-01  0.4988E-01  0.2247E-02  0.2223E-02  0.2247E-02  0.2223E-02  0.2247E-02  0.2223E-02  0.9329E-03  0.9225E-03  0.9329E-03  0.9225E-03  0.8435E-04  0.8343E-04  0.9329E-03  0.9225E-03  0.8435E-04  0.8343E-04
      3.584  0.9850E-01  0.9842E-01  0.4388E-02  0.4386E-02  0.4388E-02  0.4386E-02  0.4388E-02  0.4386E-02  0.1823E-02  0.1822E-02  0.1823E-02  0.1822E-02  0.1647E-03  0.1646E-03  0.1823E-02  0.1822E-02  0.1647E-03  0.1646E-03
      3.674  0.5482E-01  0.5538E-01  0.2443E-02  0.2468E-02  0.2443E-02  0.2468E-02  0.2443E-02  0.2468E-02  0.1020E-02  0.1030E-02  0.1020E-02  0.1030E-02  0.9150E-04  0.9246E-04  0.1020E-02  0.1030E-02  0.9150E-04  0.9246E-04
      3.765  0.1337E-01  0.1355E-01  0.5989E-03  0.6071E-03  0.5989E-03  0.6071E-03  0.5989E-03  0.6071E-03  0.2839E-03  0.2867E-03  0.2839E-03  0.2867E-03  0.2256E-04  0.2286E-04  0.2839E-03  0.2867E-03  0.2256E-04  0.2286E-04
      3.855  0.6110E-02  0.6087E-02  0.2905E-03  0.2893E-03  0.2905E-03  0.2893E-03  0.2905E-03  0.2893E-03  0.3222E-03  0.3188E-03  0.3222E-03  0.3188E-03  0.1056E-04  0.1051E-04  0.3222E-03  0.3188E-03  0.1056E-04  0.1051E-04
      3.945  0.1708E-01  0.1690E-01  0.8475E-03  0.8384E-03  0.8475E-03  0.8384E-03  0.8475E-03  0.8384E-03  0.1217E-02  0.1205E-02  0.1217E-02  0.1205E-02  0.4154E-04  0.4083E-04  0.1217E-02  0.1205E-02  0.4154E-04  0.4083E-04
      4.036  0.3498E-01  0.3488E-01  0.1818E-02  0.1812E-02  0.1818E-02  0.1812E-02  0.1818E-02  0.1812E-02  0.2233E-02  0.2233E-02  0.2233E-02  0.2233E-02  0.2450E-03  0.2409E-03  0.2233E-02  0.2233E-02  0.2450E-03  0.2409E-03
      4.126  0.4506E-01  0.4480E-01  0.2817E-02  0.2797E-02  0.2817E-02  0.2797E-02  0.2817E-02  0.2797E-02  0.1388E-02  0.1396E-02  0.1388E-02  0.1396E-02  0.1236E-02  0.1219E-02  0.1388E-02  0.1396E-02  0.1236E-02  0.1219E-02
      4.217  0.8548E-01  0.8514E-01  0.5871E-02  0.5849E-02  0.5871E-02  0.5849E-02  0.5871E-02  0.5849E-02  0.9817E-03  0.9822E-03  0.9817E-03  0.9822E-03  0.3365E-02  0.3350E-02  0.9817E-03  0.9822E-03  0.3365E-02  0.3350E-02
      4.307  0.6800E-01  0.6851E-01  0.4715E-02  0.4752E-02  0.4715E-02  0.4752E-02  0.4715E-02  0.4752E-02  0.6558E-03  0.6609E-03  0.6558E-03  0.6609E-03  0.2760E-02  0.2781E-02  0.6558E-03  0.6609E-03  0.2760E-02  0.2781E-02
      4.398  0.1981E-01  0.2008E-01  0.1382E-02  0.1401E-02  0.1382E-02  0.1401E-02  0.1382E-02  0.1401E-02  0.2498E-03  0.2511E-03  0.2498E-03  0.2511E-03  0.7953E-03  0.8065E-03  0.2498E-03  0.2511E-03  0.7953E-03  0.8065E-03
      4.488  0.8465E-02  0.8442E-02  0.6206E-03  0.6188E-03  0.6206E-03  0.6188E-03  0.6206E-03  0.6188E-03  0.5217E-03  0.5149E-03  0.5217E-03  0.5149E-03  0.2469E-03  0.2477E-03  0.5217E-03  0.5149E-03  0.2469E-03  0.2477E-03
      4.578  0.2903E-01  0.2861E-01  0.2195E-02  0.2164E-02  0.2195E-02  0.2164E-02  0.2195E-02  0.2164E-02  0.2880E-02  0.2840E-02  0.2880E-02  0.2840E-02  0.6150E-03  0.6066E-03  0.2880E-02  0.2840E-02  0.6150E-03  0.6066E-03
      4.669  0.1228E+00  0.1215E+00  0.9185E-02  0.9094E-02  0.9185E-02  0.9094E-02  0.9185E-02  0.9094E-02  0.1337E-01  0.1323E-01  0.1337E-01  0.1323E-01  0.2507E-02  0.2481E-02  0.1337E-01  0.1323E-01  0.2507E-02  0.2481E-02
      4.759  0.2338E+00  0.2336E+00  0.1672E-01  0.1672E-01  0.1672E-01  0.1672E-01  0.1672E-01  0.1672E-01  0.3188E-01  0.3179E-01  0.3188E-01  0.3179E-01  0.4439E-02  0.4438E-02  0.3188E-01  0.3179E-01  0.4439E-02  0.4438E-02
      4.850  0.1475E+00  0.1485E+00  0.9599E-02  0.9686E-02  0.9599E-02  0.9686E-02  0.9599E-02  0.9686E-02  0.2957E-01  0.2966E-01  0.2957E-01  0.2966E-01  0.2704E-02  0.2717E-02  0.2957E-01  0.2966E-01  0.2704E-02  0.2717E-02
      4.940  0.7902E-01  0.7908E-01  0.3828E-02  0.3846E-02  0.3828E-02  0.3846E-02  0.3828E-02  0.3846E-02  0.3390E-01  0.3376E-01  0.3390E-01  0.3376E-01  0.2998E-02  0.2942E-02  0.3390E-01  0.3376E-01  0.2998E-02  0.2942E-02
      5.031  0.9257E-01  0.9252E-01  0.3412E-02  0.3415E-02  0.3412E-02  0.3415E-02  0.3412E-02  0.3415E-02  0.5435E-01  0.5435E-01  0.5435E-01  0.5435E-01  0.1302E-01  0.1273E-01  0.5435E-01  0.5435E-01  0.1302E-01  0.1273E-01
      5.121  0.5694E-01  0.5714E-01  0.2009E-02  0.2015E-02  0.2009E-02  0.2015E-02  0.2009E-02  0.2015E-02  0.3059E-01  0.3082E-01  0.3059E-01  0.3082E-01  0.4291E-01  0.4242E-01  0.3059E-01  0.3082E-01  0.4291E-01  0.4242E-01
      5.211  0.2922E-01  0.2926E-01  0.1561E-02  0.1551E-02  0.1561E-02  0.1551E-02  0.1561E-02  0.1551E-02  0.8690E-02  0.8764E-02  0.8690E-02  0.8764E-02  0.5066E-01  0.5095E-01  0.8690E-02  0.8764E-02  0.5066E-01  0.5095E-01
      5.302  0.4427E-01  0.4377E-01  0.4314E-02  0.4258E-02  0.4314E-02  0.4258E-02  0.4314E-02  0.4258E-02  0.7421E-02  0.7370E-02  0.7421E-02  0.7370E-02  0.3754E-01  0.3749E-01  0.7421E-02  0.7370E-02  0.3754E-01  0.3749E-01
      5.392  0.1094E+00  0.1087E+00  0.1085E-01  0.1080E-01  0.1085E-01  0.1080E-01  0.1085E-01  0.1080E-01  0.2859E-01  0.2832E-01  0.2859E-01  0.2832E-01  0.6243E-01  0.6205E-01  0.2859E-01  0.2832E-01  0.6243E-01  0.6205E-01