   4   4   1   0
  0.1704941E+02  0.4085605E-09  0.4085605E-09  0.4085605E-09  0.5000000E-15
  1.000000000000000E-004
  CAR 
 unknown system                          
     22.66617761     -0.66325099  301      9.05335513      1.00000000
     -0.663  0.0000E+00  0.0000E+00  0.0000E+00  0.0000E+00
     -0.585  0.0000E+00  0.0000E+00  0.0000E+00  0.0000E+00
     -0.508  0.0000E+00  0.0000E+00  0.0000E+00  0.0000E+00
     -0.430  0.0000E+00  0.0000E+00  0.0000E+00  0.0000E+00
     -0.352  0.0000E+00  0.0000E+00  0.0000E+00  0.0000E+00
     -0.274  0.0000E+00  0.0000E+00  0.0000E+00  0.0000E+00
     -0.197  0.0000E+00  0.0000E+00  0.0000E+00  0.0000E+00
     -0.119  0.0000E+00  0.0000E+00  0.0000E+00  0.0000E+00
     -0.041  0.7375E-04  0.7425E-04  0.5735E-05  0.5774E-05
      0.037  0.2754E-03  0.2772E-03  0.2715E-04  0.2733E-04
      0.114  0.1300E-02  0.1309E-02  0.1282E-03  0.1291E-03
      0.192  0.6062E-02  0.6102E-02  0.5996E-03  0.6036E-03
      0.270  0.2673E-01  0.2689E-01  0.2678E-02  0.2695E-02
      0.348  0.9398E-01  0.9440E-01  0.9987E-02  0.1004E-01
      0.425  0.1746E+00  0.1747E+00  0.2356E-01  0.2362E-01
      0.503  0.1220E+00  0.1215E+00  0.3305E-01  0.3307E-01
      0.581  0.3965E-01  0.3942E-01  0.3613E-01  0.3614E-01
      0.659  0.9973E-02  0.9918E-02  0.3691E-01  0.3691E-01
      0.737  0.5240E-02  0.5248E-02  0.3731E-01  0.3732E-01
      0.814  0.1511E-01  0.1521E-01  0.3853E-01  0.3854E-01
      0.892  0.6741E-01  0.6783E-01  0.4377E-01  0.4382E-01
      0.970  0.2479E+00  0.2491E+00  0.6305E-01  0.6318E-01
      1.048  0.5106E+00  0.5112E+00  0.1028E+00  0.1029E+00
      1.125  0.4020E+00  0.4007E+00  0.1340E+00  0.1341E+00
      1.203  0.1396E+00  0.1388E+00  0.1449E+00  0.1449E+00
      1.281  0.3556E-01  0.3536E-01  0.1476E+00  0.1476E+00
      1.359  0.1719E-01  0.1720E-01  0.1490E+00  0.1490E+00
      1.436  0.4516E-01  0.4543E-01  0.1526E+00  0.1527E+00
      1.514  0.1799E+00  0.1808E+00  0.1666E+00  0.1667E+00
      1.592  0.4567E+00  0.4577E+00  0.2021E+00  0.2023E+00
      1.670  0.4740E+00  0.4731E+00  0.2390E+00  0.2391E+00
      1.747  0.1987E+00  0.1978E+00  0.2545E+00  0.2545E+00
      1.825  0.5995E-01  0.5970E-01  0.2591E+00  0.2591E+00
      1.903  0.5333E-01  0.5345E-01  0.2633E+00  0.2633E+00
      1.981  0.1477E+00  0.1482E+00  0.2748E+00  0.2748E+00
      2.059  0.3071E+00  0.3078E+00  0.2987E+00  0.2988E+00
      2.136  0.4905E+00  0.4915E+00  0.3368E+00  0.3370E+00
      2.214  0.5473E+00  0.5466E+00  0.3794E+00  0.3795E+00
      2.292  0.2722E+00  0.2709E+00  0.4005E+00  0.4006E+00
      2.370  0.9633E-01  0.9599E-01  0.4080E+00  0.4081E+00
      2.447  0.1202E+00  0.1206E+00  0.4174E+00  0.4175E+00
      2.525  0.4134E+00  0.4150E+00  0.4496E+00  0.4497E+00
      2.603  0.1026E+01  0.1027E+01  0.5294E+00  0.5297E+00
      2.681  0.1197E+01  0.1196E+01  0.6225E+00  0.6227E+00
      2.758  0.9098E+00  0.9083E+00  0.6933E+00  0.6933E+00
      2.836  0.5690E+00  0.5679E+00  0.7375E+00  0.7375E+00
      2.914  0.4509E+00  0.4501E+00  0.7726E+00  0.7725E+00
      2.992  0.6457E+00  0.6451E+00  0.8228E+00  0.8227E+00
      3.069  0.9067E+00  0.9061E+00  0.8934E+00  0.8932E+00
      3.147  0.9454E+00  0.9463E+00  0.9670E+00  0.9669E+00
      3.225  0.9337E+00  0.9366E+00  0.1040E+01  0.1040E+01
      3.303  0.1369E+01  0.1371E+01  0.1146E+01  0.1146E+01
      3.381  0.1935E+01  0.1934E+01  0.1297E+01  0.1297E+01
      3.458  0.2453E+01  0.2451E+01  0.1487E+01  0.1487E+01
      3.536  0.2697E+01  0.2698E+01  0.1697E+01  0.1697E+01
      3.614  0.2501E+01  0.2502E+01  0.1892E+01  0.1892E+01
      3.692  0.2568E+01  0.2567E+01  0.2092E+01  0.2092E+01
      3.769  0.2578E+01  0.2578E+01  0.2292E+01  0.2292E+01
      3.847  0.2673E+01  0.2673E+01  0.2500E+01  0.2500E+01
      3.925  0.3211E+01  0.3208E+01  0.2750E+01  0.2750E+01
      4.003  0.3651E+01  0.3647E+01  0.3034E+01  0.3033E+01
      4.080  0.3393E+01  0.3393E+01  0.3298E+01  0.3298E+01
      4.158  0.2770E+01  0.2771E+01  0.3514E+01  0.3513E+01
      4.236  0.2111E+01  0.2112E+01  0.3678E+01  0.3678E+01
      4.314  0.2369E+01  0.2369E+01  0.3863E+01  0.3862E+01
      4.391  0.3777E+01  0.3776E+01  0.4156E+01  0.4156E+01
      4.469  0.3847E+01  0.3848E+01  0.4456E+01  0.4455E+01
      4.547  0.2696E+01  0.2699E+01  0.4665E+01  0.4665E+01
      4.625  0.1889E+01  0.1890E+01  0.4813E+01  0.4812E+01
      4.703  0.1419E+01  0.1417E+01  0.4923E+01  0.4923E+01
      4.780  0.1935E+01  0.1931E+01  0.5074E+01  0.5073E+01
      4.858  0.2826E+01  0.2828E+01  0.5294E+01  0.5293E+01
      4.936  0.3251E+01  0.3254E+01  0.5547E+01  0.5546E+01
      5.014  0.3289E+01  0.3289E+01  0.5803E+01  0.5802E+01
      5.091  0.2658E+01  0.2658E+01  0.6009E+01  0.6009E+01
      5.169  0.2624E+01  0.2622E+01  0.6213E+01  0.6213E+01
      5.247  0.2763E+01  0.2763E+01  0.6429E+01  0.6428E+01
      5.325  0.2876E+01  0.2874E+01  0.6652E+01  0.6652E+01
      5.402  0.3965E+01  0.3963E+01  0.6961E+01  0.6960E+01
      5.480  0.4961E+01  0.4961E+01  0.7347E+01  0.7346E+01
      5.558  0.4272E+01  0.4274E+01  0.7679E+01  0.7678E+01
      5.636  0.2984E+01  0.2987E+01  0.7911E+01  0.7911E+01
      5.713  0.2531E+01  0.2530E+01  0.8108E+01  0.8108E+01
      5.791  0.3461E+01  0.3455E+01  0.8378E+01  0.8377E+01
      5.869  0.5183E+01  0.5178E+01  0.8782E+01  0.8780E+01
      5.947  0.5012E+01  0.5016E+01  0.9172E+01  0.9170E+01
      6.025  0.3828E+01  0.3831E+01  0.9470E+01  0.9469E+01
      6.102  0.3639E+01  0.3638E+01  0.9753E+01  0.9752E+01
      6.180  0.4570E+01  0.4566E+01  0.1011E+02  0.1011E+02
      6.258  0.5070E+01  0.5067E+01  0.1050E+02  0.1050E+02
      6.336  0.5565E+01  0.5561E+01  0.1094E+02  0.1093E+02
      6.413  0.5732E+01  0.5739E+01  0.1138E+02  0.1138E+02
      6.491  0.4609E+01  0.4618E+01  0.1174E+02  0.1174E+02
      6.569  0.3493E+01  0.3496E+01  0.1201E+02  0.1201E+02
      6.647  0.3015E+01  0.3012E+01  0.1225E+02  0.1225E+02
      6.724  0.3411E+01  0.3407E+01  0.1251E+02  0.1251E+02
      6.802  0.3284E+01  0.3286E+01  0.1277E+02  0.1277E+02
      6.880  0.2294E+01  0.2297E+01  0.1295E+02  0.1295E+02
      6.958  0.2042E+01  0.2044E+01  0.1311E+02  0.1311E+02
      7.035  0.2403E+01  0.2403E+01  0.1329E+02  0.1329E+02
      7.113  0.2671E+01  0.2672E+01  0.1350E+02  0.1350E+02
      7.191  0.2570E+01  0.2569E+01  0.1370E+02  0.1370E+02
      7.269  0.2951E+01  0.2949E+01  0.1393E+02  0.1393E+02
      7.347  0.4004E+01  0.4004E+01  0.1424E+02  0.1424E+02
      7.424  0.4339E+01  0.4339E+01  0.1458E+02  0.1458E+02
      7.502  0.4646E+01  0.4645E+01  0.1494E+02  0.1494E+02
      7.580  0.4363E+01  0.4367E+01  0.1528E+02  0.1528E+02
      7.658  0.3555E+01  0.3559E+01  0.1556E+02  0.1556E+02
      7.735  0.2389E+01  0.2391E+01  0.1574E+02  0.1574E+02
      7.813  0.1565E+01  0.1564E+01  0.1587E+02  0.1587E+02
      7.891  0.1970E+01  0.1969E+01  0.1602E+02  0.1602E+02
      7.969  0.2592E+01  0.2589E+01  0.1622E+02  0.1622E+02
      8.046  0.3199E+01  0.3195E+01  0.1647E+02  0.1647E+02
      8.124  0.3188E+01  0.3187E+01  0.1672E+02  0.1672E+02
      8.202  0.3665E+01  0.3661E+01  0.1700E+02  0.1700E+02
      8.280  0.4572E+01  0.4574E+01  0.1736E+02  0.1736E+02
      8.357  0.3657E+01  0.3664E+01  0.1764E+02  0.1764E+02
      8.435  0.1974E+01  0.1977E+01  0.1780E+02  0.1780E+02
      8.513  0.1470E+01  0.1468E+01  0.1791E+02  0.1791E+02
      8.591  0.2079E+01  0.2076E+01  0.1807E+02  0.1807E+02
      8.669  0.3094E+01  0.3088E+01  0.1831E+02  0.1831E+02
      8.746  0.4430E+01  0.4421E+01  0.1866E+02  0.1866E+02
      8.824  0.5149E+01  0.5150E+01  0.1906E+02  0.1906E+02
      8.902  0.4501E+01  0.4503E+01  0.1941E+02  0.1941E+02
      8.980  0.4199E+01  0.4200E+01  0.1974E+02  0.1974E+02
      9.057  0.3547E+01  0.3552E+01  0.2001E+02  0.2001E+02
      9.135  0.2739E+01  0.2740E+01  0.2023E+02  0.2023E+02
      9.213  0.2812E+01  0.2806E+01  0.2045E+02  0.2044E+02
      9.291  0.3460E+01  0.3459E+01  0.2071E+02  0.2071E+02
      9.368  0.2607E+01  0.2616E+01  0.2092E+02  0.2092E+02
      9.446  0.1535E+01  0.1540E+01  0.2104E+02  0.2104E+02
      9.524  0.1909E+01  0.1907E+01  0.2119E+02  0.2119E+02
      9.602  0.2401E+01  0.2402E+01  0.2137E+02  0.2137E+02
      9.679  0.1591E+01  0.1595E+01  0.2150E+02  0.2150E+02
      9.757  0.5711E+00  0.5732E+00  0.2154E+02  0.2154E+02
      9.835  0.1421E+00  0.1427E+00  0.2155E+02  0.2155E+02
      9.913  0.3130E-01  0.3143E-01  0.2155E+02  0.2155E+02
      9.991  0.3565E-02  0.3581E-02  0.2156E+02  0.2156E+02
     10.068  0.1880E-02  0.1889E-02  0.2156E+02  0.2156E+02
     10.146  0.9295E-02  0.9336E-02  0.2156E+02  0.2156E+02
     10.224  0.4248E-01  0.4266E-01  0.2156E+02  0.2156E+02
     10.302  0.1733E+00  0.1739E+00  0.2157E+02  0.2157E+02
     10.379  0.4813E+00  0.4820E+00  0.2161E+02  0.2161E+02
     10.457  0.6848E+00  0.6839E+00  0.2166E+02  0.2166E+02
     10.535  0.9247E+00  0.9232E+00  0.2174E+02  0.2174E+02
     10.613  0.1598E+01  0.1596E+01  0.2186E+02  0.2186E+02
     10.690  0.1752E+01  0.1751E+01  0.2200E+02  0.2200E+02
     10.768  0.1057E+01  0.1058E+01  0.2208E+02  0.2208E+02
     10.846  0.4030E+00  0.4037E+00  0.2211E+02  0.2211E+02
     10.924  0.3582E+00  0.3577E+00  0.2214E+02  0.2214E+02
     11.001  0.8189E+00  0.8178E+00  0.2220E+02  0.2220E+02
     11.079  0.1021E+01  0.1022E+01  0.2228E+02  0.2228E+02
     11.157  0.4966E+00  0.4977E+00  0.2232E+02  0.2232E+02
     11.235  0.1404E+00  0.1408E+00  0.2233E+02  0.2233E+02
     11.313  0.5688E-01  0.5696E-01  0.2234E+02  0.2234E+02
     11.390  0.1206E+00  0.1206E+00  0.2234E+02  0.2234E+02
     11.468  0.3599E+00  0.3599E+00  0.2237E+02  0.2237E+02
     11.546  0.5417E+00  0.5417E+00  0.2241E+02  0.2241E+02
     11.624  0.3641E+00  0.3642E+00  0.2244E+02  0.2244E+02
     11.701  0.3897E+00  0.3896E+00  0.2247E+02  0.2247E+02
     11.779  0.9434E+00  0.9434E+00  0.2255E+02  0.2255E+02
     11.857  0.1444E+01  0.1445E+01  0.2266E+02  0.2266E+02
     11.935  0.1029E+01  0.1029E+01  0.2274E+02  0.2274E+02
     12.012  0.3817E+00  0.3813E+00  0.2277E+02  0.2277E+02
     12.090  0.1211E+00  0.1209E+00  0.2278E+02  0.2278E+02
     12.168  0.1434E+00  0.1432E+00  0.2279E+02  0.2279E+02
     12.246  0.4642E+00  0.4637E+00  0.2283E+02  0.2283E+02
     12.323  0.1001E+01  0.1001E+01  0.2290E+02  0.2290E+02
     12.401  0.8408E+00  0.8414E+00  0.2297E+02  0.2297E+02
     12.479  0.3039E+00  0.3043E+00  0.2299E+02  0.2299E+02
     12.557  0.7975E-01  0.7988E-01  0.2300E+02  0.2300E+02
     12.635  0.4454E-01  0.4465E-01  0.2300E+02  0.2300E+02
     12.712  0.1279E+00  0.1283E+00  0.2301E+02  0.2301E+02
     12.790  0.4765E+00  0.4775E+00  0.2305E+02  0.2305E+02
     12.868  0.1017E+01  0.1018E+01  0.2313E+02  0.2313E+02
     12.946  0.8593E+00  0.8582E+00  0.2320E+02  0.2320E+02
     13.023  0.4413E+00  0.4405E+00  0.2323E+02  0.2323E+02
     13.101  0.6137E+00  0.6131E+00  0.2328E+02  0.2328E+02
     13.179  0.1147E+01  0.1147E+01  0.2337E+02  0.2337E+02
     13.257  0.1164E+01  0.1164E+01  0.2346E+02  0.2346E+02
     13.334  0.1204E+01  0.1204E+01  0.2355E+02  0.2355E+02
     13.412  0.9818E+00  0.9821E+00  0.2363E+02  0.2363E+02
     13.490  0.3790E+00  0.3793E+00  0.2366E+02  0.2366E+02
     13.568  0.9204E-01  0.9210E-01  0.2366E+02  0.2366E+02
     13.645  0.2023E-01  0.2024E-01  0.2367E+02  0.2367E+02
     13.723  0.4636E-02  0.4638E-02  0.2367E+02  0.2367E+02
     13.801  0.1545E-02  0.1541E-02  0.2367E+02  0.2367E+02
     13.879  0.7155E-02  0.7139E-02  0.2367E+02  0.2367E+02
     13.957  0.3336E-01  0.3328E-01  0.2367E+02  0.2367E+02
     14.034  0.1511E+00  0.1508E+00  0.2368E+02  0.2368E+02
     14.112  0.5851E+00  0.5841E+00  0.2373E+02  0.2373E+02
     14.190  0.1497E+01  0.1496E+01  0.2384E+02  0.2384E+02
     14.268  0.2133E+01  0.2133E+01  0.2401E+02  0.2401E+02
     14.345  0.1896E+01  0.1896E+01  0.2416E+02  0.2416E+02
     14.423  0.1489E+01  0.1489E+01  0.2427E+02  0.2427E+02
     14.501  0.1297E+01  0.1297E+01  0.2437E+02  0.2437E+02
     14.579  0.6688E+00  0.6694E+00  0.2443E+02  0.2443E+02
     14.656  0.2053E+00  0.2056E+00  0.2444E+02  0.2444E+02
     14.734  0.1213E+00  0.1216E+00  0.2445E+02  0.2445E+02
     14.812  0.2910E+00  0.2915E+00  0.2447E+02  0.2447E+02
     14.890  0.5238E+00  0.5239E+00  0.2452E+02  0.2452E+02
     14.967  0.3657E+00  0.3652E+00  0.2454E+02  0.2454E+02
     15.045  0.1183E+00  0.1180E+00  0.2455E+02  0.2455E+02
     15.123  0.2791E-01  0.2784E-01  0.2455E+02  0.2455E+02
     15.201  0.6275E-02  0.6260E-02  0.2456E+02  0.2456E+02
     15.279  0.1436E-02  0.1437E-02  0.2456E+02  0.2456E+02
     15.356  0.6935E-02  0.6945E-02  0.2456E+02  0.2456E+02
     15.434  0.3090E-01  0.3094E-01  0.2456E+02  0.2456E+02
     15.512  0.1179E+00  0.1181E+00  0.2457E+02  0.2457E+02
     15.590  0.3051E+00  0.3054E+00  0.2459E+02  0.2459E+02
     15.667  0.6735E+00  0.6746E+00  0.2464E+02  0.2464E+02
     15.745  0.1644E+01  0.1647E+01  0.2477E+02  0.2477E+02
     15.823  0.2475E+01  0.2476E+01  0.2496E+02  0.2496E+02
     15.901  0.2283E+01  0.2282E+01  0.2514E+02  0.2514E+02
     15.978  0.1795E+01  0.1793E+01  0.2528E+02  0.2528E+02
     16.056  0.9845E+00  0.9831E+00  0.2536E+02  0.2536E+02
     16.134  0.7128E+00  0.7121E+00  0.2541E+02  0.2541E+02
     16.212  0.1057E+01  0.1057E+01  0.2550E+02  0.2550E+02
     16.289  0.8458E+00  0.8459E+00  0.2556E+02  0.2556E+02
     16.367  0.3000E+00  0.3001E+00  0.2559E+02  0.2559E+02
     16.445  0.7553E-01  0.7557E-01  0.2559E+02  0.2559E+02
     16.523  0.2863E-01  0.2869E-01  0.2559E+02  0.2559E+02
     16.601  0.5963E-01  0.5987E-01  0.2560E+02  0.2560E+02
     16.678  0.2563E+00  0.2573E+00  0.2562E+02  0.2562E+02
     16.756  0.8360E+00  0.8381E+00  0.2568E+02  0.2568E+02
     16.834  0.1439E+01  0.1440E+01  0.2580E+02  0.2580E+02
     16.912  0.1232E+01  0.1230E+01  0.2589E+02  0.2589E+02
     16.989  0.8366E+00  0.8350E+00  0.2596E+02  0.2596E+02
     17.067  0.6405E+00  0.6400E+00  0.2601E+02  0.2601E+02
     17.145  0.2956E+00  0.2954E+00  0.2603E+02  0.2603E+02
     17.223  0.8044E-01  0.8041E-01  0.2604E+02  0.2604E+02
     17.300  0.2387E-01  0.2390E-01  0.2604E+02  0.2604E+02
     17.378  0.3587E-01  0.3605E-01  0.2604E+02  0.2604E+02
     17.456  0.1373E+00  0.1380E+00  0.2605E+02  0.2605E+02
     17.534  0.4324E+00  0.4338E+00  0.2608E+02  0.2608E+02
     17.611  0.7282E+00  0.7286E+00  0.2614E+02  0.2614E+02
     17.689  0.7553E+00  0.7549E+00  0.2620E+02  0.2620E+02
     17.767  0.5299E+00  0.5286E+00  0.2624E+02  0.2624E+02
     17.845  0.2307E+00  0.2300E+00  0.2626E+02  0.2626E+02
     17.923  0.2387E+00  0.2390E+00  0.2628E+02  0.2628E+02
     18.000  0.6814E+00  0.6827E+00  0.2633E+02  0.2633E+02
     18.078  0.1320E+01  0.1321E+01  0.2643E+02  0.2643E+02
     18.156  0.1494E+01  0.1496E+01  0.2655E+02  0.2655E+02
     18.234  0.1488E+01  0.1487E+01  0.2667E+02  0.2667E+02
     18.311  0.1319E+01  0.1317E+01  0.2677E+02  0.2677E+02
     18.389  0.1211E+01  0.1210E+01  0.2686E+02  0.2686E+02
     18.467  0.6019E+00  0.6009E+00  0.2691E+02  0.2691E+02
     18.545  0.1696E+00  0.1693E+00  0.2692E+02  0.2692E+02
     18.622  0.3830E-01  0.3825E-01  0.2693E+02  0.2693E+02
     18.700  0.1553E-01  0.1559E-01  0.2693E+02  0.2693E+02
     18.778  0.3568E-01  0.3605E-01  0.2693E+02  0.2693E+02
     18.856  0.1483E+00  0.1496E+00  0.2694E+02  0.2694E+02
     18.933  0.4377E+00  0.4399E+00  0.2698E+02  0.2698E+02
     19.011  0.6561E+00  0.6559E+00  0.2703E+02  0.2703E+02
     19.089  0.8460E+00  0.8469E+00  0.2709E+02  0.2709E+02
     19.167  0.1722E+01  0.1725E+01  0.2723E+02  0.2723E+02
     19.245  0.2008E+01  0.2006E+01  0.2738E+02  0.2738E+02
     19.322  0.9526E+00  0.9487E+00  0.2746E+02  0.2746E+02
     19.400  0.2677E+00  0.2664E+00  0.2748E+02  0.2748E+02
     19.478  0.1067E+00  0.1069E+00  0.2749E+02  0.2749E+02
     19.556  0.2058E+00  0.2075E+00  0.2750E+02  0.2750E+02
     19.633  0.4798E+00  0.4820E+00  0.2754E+02  0.2754E+02
     19.711  0.5142E+00  0.5164E+00  0.2758E+02  0.2758E+02
     19.789  0.3947E+00  0.4109E+00  0.2761E+02  0.2761E+02
     19.867  0.6194E+00  0.6964E+00  0.2766E+02  0.2767E+02
     19.944  0.7815E+00  0.1062E+01  0.2772E+02  0.2775E+02
     20.022  0.7522E+00  0.1267E+01  0.2778E+02  0.2785E+02
     20.100  0.1068E+01  0.9985E+00  0.2786E+02  0.2792E+02
     20.178  0.8917E+00  0.3783E+00  0.2793E+02  0.2795E+02
     20.255  0.3294E+00  0.9362E-01  0.2795E+02  0.2796E+02
     20.333  0.8028E-01  0.1977E-01  0.2796E+02  0.2796E+02
     20.411  0.1755E-01  0.4209E-02  0.2796E+02  0.2796E+02
     20.489  0.3733E-02  0.0000E+00  0.2796E+02  0.2796E+02
     20.567  0.0000E+00  0.0000E+00  0.2796E+02  0.2796E+02
     20.644  0.0000E+00  0.0000E+00  0.2796E+02  0.2796E+02
     20.722  0.0000E+00  0.0000E+00  0.2796E+02  0.2796E+02
     20.800  0.0000E+00  0.0000E+00  0.2796E+02  0.2796E+02
     20.878  0.0000E+00  0.0000E+00  0.2796E+02  0.2796E+02
     20.955  0.0000E+00  0.0000E+00  0.2796E+02  0.2796E+02
     21.033  0.0000E+00  0.0000E+00  0.2796E+02  0.2796E+02
     21.111  0.0000E+00  0.0000E+00  0.2796E+02  0.2796E+02
     21.189  0.1468E-03  0.1135E-03  0.2796E+02  0.2796E+02
     21.266  0.5479E-03  0.4235E-03  0.2796E+02  0.2796E+02
     21.344  0.2578E-02  0.1996E-02  0.2796E+02  0.2796E+02
     21.422  0.1184E-01  0.9229E-02  0.2796E+02  0.2796E+02
     21.500  0.4888E-01  0.3924E-01  0.2797E+02  0.2797E+02
     21.577  0.1378E+00  0.1215E+00  0.2798E+02  0.2798E+02
     21.655  0.1682E+00  0.1747E+00  0.2799E+02  0.2799E+02
     21.733  0.7903E-01  0.9440E-01  0.2800E+02  0.2800E+02
     21.811  0.2121E-01  0.2689E-01  0.2800E+02  0.2800E+02
     21.889  0.4736E-02  0.6102E-02  0.2800E+02  0.2800E+02
     21.966  0.1012E-02  0.1309E-02  0.2800E+02  0.2800E+02
     22.044  0.0000E+00  0.0000E+00  0.2800E+02  0.2800E+02
     22.122  0.0000E+00  0.0000E+00  0.2800E+02  0.2800E+02
     22.200  0.0000E+00  0.0000E+00  0.2800E+02  0.2800E+02
     22.277  0.0000E+00  0.0000E+00  0.2800E+02  0.2800E+02
     22.355  0.0000E+00  0.0000E+00  0.2800E+02  0.2800E+02
     22.433  0.0000E+00  0.0000E+00  0.2800E+02  0.2800E+02
     22.511  0.0000E+00  0.0000E+00  0.2800E+02  0.2800E+02
     22.588  0.0000E+00  0.0000E+00  0.2800E+02  0.2800E+02
     22.666  0.0000E+00  0.0000E+00  0.2800E+02  0.2800E+02
     22.66617761     -0.66325099  301      9.05335513      1.00000000
     -0.663  0.0000E+00  0.0000E+00  0.0000E+00  0.0000E+00  0.0000E+00  0.0000E+00  0.0000E+00  0.0000E+00  0.0000E+00  0.0000E+00  0.0000E+00  0.0000E+00  0.0000E+00  0.0000E+00  0.0000E+00  0.0000E+00  0.0000E+00  0.0000E+00
     -0.585  0.0000E+00  0.0000E+00  0.0000E+00  0.0000E+00  0.0000E+00  0.0000E+00  0.0000E+00  0.0000E+00  0.0000E+00  0.0000E+00  0.0000E+00  0.0000E+00  0.0000E+00  0.0000E+00  0.0000E+00  0.0000E+00  0.0000E+00  0.0000E+00
     -0.508  0.0000E+00  0.0000E+00  0.0000E+00  0.0000E+00  0.0000E+00  0.0000E+00  0.0000E+00  0.0000E+00  0.0000E+00  0.0000E+00  0.0000E+00  0.0000E+00  0.0000E+00  0.0000E+00  0.0000E+00  0.0000E+00  0.0000E+00  0.0000E+00
     -0.430  0.0000E+00  0.0000E+00  0.0000E+00  0.0000E+00  0.0000E+00  0.0000E+00  0.0000E+00  0.0000E+00  0.0000E+00  0.0000E+00  0.0000E+00  0.0000E+00  0.0000E+00  0.0000E+00  0.0000E+00  0.0000E+00  0.0000E+00  0.0000E+00
     -0.352  0.0000E+00  0.0000E+00  0.0000E+00  0.0000E+00  0.0000E+00  0.0000E+00  0.0000E+00  0.0000E+00  0.0000E+00  0.0000E+00  0.0000E+00  0.0000E+00  0.0000E+00  0.0000E+00  0.0000E+00  0.0000E+00  0.0000E+00  0.0000E+00
     -0.274  0.0000E+00  0.0000E+00  0.0000E+00  0.0000E+00  0.0000E+00  0.0000E+00  0.0000E+00  0.0000E+00  0.0000E+00  0.0000E+00  0.0000E+00  0.0000E+00  0.0000E+00  0.0000E+00  0.0000E+00  0.0000E+00  0.0000E+00  0.0000E+00
     -0.197  0.0000E+00  0.0000E+00  0.0000E+00  0.0000E+00  0.0000E+00  0.0000E+00  0.0000E+00  0.0000E+00  0.0000E+00  0.0000E+00  0.0000E+00  0.0000E+00  0.0000E+00  0.0000E+00  0.0000E+00  0.0000E+00  0.0000E+00  0.0000E+00
     -0.119  0.0000E+00  0.0000E+00  0.0000E+00  0.0000E+00  0.0000E+00  0.0000E+00  0.0000E+00  0.0000E+00  0.0000E+00  0.0000E+00  0.0000E+00  0.0000E+00  0.0000E+00  0.0000E+00  0.0000E+00  0.0000E+00  0.0000E+00  0.0000E+00
     -0.041  0.1294E-04  0.1302E-04  0.8065E-07  0.8120E-07  0.8065E-07  0.8120E-07  0.8065E-07  0.8120E-07  0.4800E-08  0.4831E-08  0.4800E-08  0.4831E-08  0.7862E-22  0.2187E-20  0.4800E-08  0.4831E-08  0.7862E-22  0.2187E-20
      0.037  0.4832E-04  0.4863E-04  0.3011E-06  0.3032E-06  0.3011E-06  0.3032E-06  0.3011E-06  0.3032E-06  0.1792E-07  0.1804E-07  0.1792E-07  0.1804E-07  0.2935E-21  0.8165E-20  0.1792E-07  0.1804E-07  0.2935E-21  0.8165E-20
      0.114  0.2281E-03  0.2296E-03  0.1422E-05  0.1431E-05  0.1422E-05  0.1431E-05  0.1422E-05  0.1431E-05  0.8461E-07  0.8515E-07  0.8461E-07  0.8515E-07  0.1386E-20  0.3854E-19  0.8461E-07  0.8515E-07  0.1386E-20  0.3854E-19
      0.192  0.1064E-02  0.1070E-02  0.6629E-05  0.6674E-05  0.6629E-05  0.6674E-05  0.6629E-05  0.6674E-05  0.3945E-06  0.3970E-06  0.3945E-06  0.3970E-06  0.6462E-20  0.1797E-18  0.3945E-06  0.3970E-06  0.6462E-20  0.1797E-18
      0.270  0.4690E-02  0.4717E-02  0.2923E-04  0.2941E-04  0.2923E-04  0.2941E-04  0.2923E-04  0.2941E-04  0.1740E-05  0.1750E-05  0.1740E-05  0.1750E-05  0.2849E-19  0.7921E-18  0.1740E-05  0.1750E-05  0.2849E-19  0.7921E-18
      0.348  0.1649E-01  0.1656E-01  0.1028E-03  0.1032E-03  0.1028E-03  0.1032E-03  0.1028E-03  0.1032E-03  0.6117E-05  0.6142E-05  0.6117E-05  0.6142E-05  0.1002E-18  0.2780E-17  0.6117E-05  0.6142E-05  0.1002E-18  0.2780E-17
      0.425  0.3063E-01  0.3064E-01  0.1909E-03  0.1910E-03  0.1909E-03  0.1910E-03  0.1909E-03  0.1910E-03  0.1136E-04  0.1137E-04  0.1136E-04  0.1137E-04  0.1861E-18  0.5145E-17  0.1136E-04  0.1137E-04  0.1861E-18  0.5145E-17
      0.503  0.2140E-01  0.2132E-01  0.1334E-03  0.1329E-03  0.1334E-03  0.1329E-03  0.1334E-03  0.1329E-03  0.7938E-05  0.7908E-05  0.7938E-05  0.7908E-05  0.1300E-18  0.3580E-17  0.7938E-05  0.7908E-05  0.1300E-18  0.3580E-17
      0.581  0.6956E-02  0.6914E-02  0.4386E-04  0.4362E-04  0.4386E-04  0.4362E-04  0.4386E-04  0.4362E-04  0.2649E-05  0.2634E-05  0.2649E-05  0.2634E-05  0.7014E-07  0.7061E-07  0.2649E-05  0.2634E-05  0.7014E-07  0.7061E-07
      0.659  0.1743E-02  0.1733E-02  0.1276E-04  0.1271E-04  0.1276E-04  0.1271E-04  0.1276E-04  0.1271E-04  0.9031E-06  0.9009E-06  0.9031E-06  0.9009E-06  0.2619E-06  0.2637E-06  0.9031E-06  0.9009E-06  0.2619E-06  0.2637E-06
      0.737  0.8880E-03  0.8890E-03  0.1449E-04  0.1456E-04  0.1449E-04  0.1456E-04  0.1449E-04  0.1456E-04  0.1541E-05  0.1549E-05  0.1541E-05  0.1549E-05  0.1237E-05  0.1245E-05  0.1541E-05  0.1549E-05  0.1237E-05  0.1245E-05
      0.814  0.2504E-02  0.2520E-02  0.5749E-04  0.5788E-04  0.5749E-04  0.5788E-04  0.5749E-04  0.5788E-04  0.6592E-05  0.6633E-05  0.6592E-05  0.6633E-05  0.5784E-05  0.5823E-05  0.6592E-05  0.6633E-05  0.5784E-05  0.5823E-05
      0.892  0.1117E-01  0.1124E-01  0.2565E-03  0.2582E-03  0.2565E-03  0.2582E-03  0.2565E-03  0.2582E-03  0.2941E-04  0.2959E-04  0.2941E-04  0.2959E-04  0.2581E-04  0.2597E-04  0.2941E-04  0.2959E-04  0.2581E-04  0.2597E-04
      0.970  0.4108E-01  0.4126E-01  0.9432E-03  0.9478E-03  0.9432E-03  0.9478E-03  0.9432E-03  0.9478E-03  0.1082E-03  0.1086E-03  0.1082E-03  0.1086E-03  0.9491E-04  0.9536E-04  0.1082E-03  0.1086E-03  0.9491E-04  0.9536E-04
      1.048  0.8462E-01  0.8470E-01  0.1943E-02  0.1945E-02  0.1943E-02  0.1945E-02  0.1943E-02  0.1945E-02  0.2228E-03  0.2230E-03  0.2228E-03  0.2230E-03  0.1955E-03  0.1957E-03  0.2228E-03  0.2230E-03  0.1955E-03  0.1957E-03
      1.125  0.6662E-01  0.6639E-01  0.1530E-02  0.1525E-02  0.1530E-02  0.1525E-02  0.1530E-02  0.1525E-02  0.1757E-03  0.1751E-03  0.1757E-03  0.1751E-03  0.1539E-03  0.1534E-03  0.1757E-03  0.1751E-03  0.1539E-03  0.1534E-03
      1.203  0.2313E-01  0.2300E-01  0.5321E-03  0.5292E-03  0.5321E-03  0.5292E-03  0.5321E-03  0.5292E-03  0.6186E-04  0.6151E-04  0.6186E-04  0.6151E-04  0.5340E-04  0.5310E-04  0.6186E-04  0.6151E-04  0.5340E-04  0.5310E-04
      1.281  0.5871E-02  0.5836E-02  0.1395E-03  0.1388E-03  0.1395E-03  0.1388E-03  0.1395E-03  0.1388E-03  0.1999E-04  0.1992E-04  0.1999E-04  0.1992E-04  0.1335E-04  0.1327E-04  0.1999E-04  0.1992E-04  0.1335E-04  0.1327E-04
      1.359  0.2743E-02  0.2744E-02  0.8512E-04  0.8531E-04  0.8512E-04  0.8531E-04  0.8512E-04  0.8531E-04  0.2850E-04  0.2862E-04  0.2850E-04  0.2862E-04  0.5347E-05  0.5345E-05  0.2850E-04  0.2862E-04  0.5347E-05  0.5345E-05
      1.436  0.7003E-02  0.7043E-02  0.2616E-03  0.2632E-03  0.2616E-03  0.2632E-03  0.2616E-03  0.2632E-03  0.1153E-03  0.1160E-03  0.1153E-03  0.1160E-03  0.1168E-04  0.1175E-04  0.1153E-03  0.1160E-03  0.1168E-04  0.1175E-04
      1.514  0.2790E-01  0.2803E-01  0.1042E-02  0.1048E-02  0.1042E-02  0.1048E-02  0.1042E-02  0.1048E-02  0.4594E-03  0.4615E-03  0.4594E-03  0.4615E-03  0.4652E-04  0.4675E-04  0.4594E-03  0.4615E-03  0.4652E-04  0.4675E-04
      1.592  0.7081E-01  0.7095E-01  0.2646E-02  0.2652E-02  0.2646E-02  0.2652E-02  0.2646E-02  0.2652E-02  0.1167E-02  0.1169E-02  0.1167E-02  0.1169E-02  0.1180E-03  0.1183E-03  0.1167E-02  0.1169E-02  0.1180E-03  0.1183E-03
      1.670  0.7350E-01  0.7335E-01  0.2746E-02  0.2742E-02  0.2746E-02  0.2742E-02  0.2746E-02  0.2742E-02  0.1213E-02  0.1210E-02  0.1213E-02  0.1210E-02  0.1225E-03  0.1222E-03  0.1213E-02  0.1210E-02  0.1225E-03  0.1222E-03
      1.747  0.3078E-01  0.3063E-01  0.1152E-02  0.1147E-02  0.1152E-02  0.1147E-02  0.1152E-02  0.1147E-02  0.5186E-03  0.5161E-03  0.5186E-03  0.5161E-03  0.5282E-04  0.5259E-04  0.5186E-03  0.5161E-03  0.5282E-04  0.5259E-04
      1.825  0.9153E-02  0.9112E-02  0.3523E-03  0.3509E-03  0.3523E-03  0.3509E-03  0.3523E-03  0.3509E-03  0.2053E-03  0.2049E-03  0.2053E-03  0.2049E-03  0.2047E-04  0.2044E-04  0.2053E-03  0.2049E-03  0.2047E-04  0.2044E-04
      1.903  0.7644E-02  0.7662E-02  0.3317E-03  0.3326E-03  0.3317E-03  0.3326E-03  0.3317E-03  0.3326E-03  0.3600E-03  0.3611E-03  0.3600E-03  0.3611E-03  0.3805E-04  0.3827E-04  0.3600E-03  0.3611E-03  0.3805E-04  0.3827E-04
      1.981  0.2076E-01  0.2084E-01  0.9514E-03  0.9547E-03  0.9514E-03  0.9547E-03  0.9514E-03  0.9547E-03  0.1084E-02  0.1086E-02  0.1084E-02  0.1086E-02  0.1628E-03  0.1639E-03  0.1084E-02  0.1086E-02  0.1628E-03  0.1639E-03
      2.059  0.4327E-01  0.4339E-01  0.2126E-02  0.2132E-02  0.2126E-02  0.2132E-02  0.2126E-02  0.2132E-02  0.1761E-02  0.1761E-02  0.1761E-02  0.1761E-02  0.6804E-03  0.6843E-03  0.1761E-02  0.1761E-02  0.6804E-03  0.6843E-03
      2.136  0.6955E-01  0.6971E-01  0.3792E-02  0.3800E-02  0.3792E-02  0.3800E-02  0.3792E-02  0.3800E-02  0.1388E-02  0.1386E-02  0.1388E-02  0.1386E-02  0.2018E-02  0.2024E-02  0.1388E-02  0.1386E-02  0.2018E-02  0.2024E-02
      2.214  0.7779E-01  0.7772E-01  0.4417E-02  0.4411E-02  0.4417E-02  0.4411E-02  0.4417E-02  0.4411E-02  0.8878E-03  0.8858E-03  0.8878E-03  0.8858E-03  0.2684E-02  0.2681E-02  0.8878E-03  0.8858E-03  0.2684E-02  0.2681E-02
      2.292  0.3865E-01  0.3849E-01  0.2216E-02  0.2206E-02  0.2216E-02  0.2206E-02  0.2216E-02  0.2206E-02  0.4076E-03  0.4059E-03  0.4076E-03  0.4059E-03  0.1366E-02  0.1359E-02  0.4076E-03  0.4059E-03  0.1366E-02  0.1359E-02
      2.370  0.1342E-01  0.1337E-01  0.7984E-03  0.7955E-03  0.7984E-03  0.7955E-03  0.7984E-03  0.7955E-03  0.2747E-03  0.2748E-03  0.2747E-03  0.2748E-03  0.4384E-03  0.4364E-03  0.2747E-03  0.2748E-03  0.4384E-03  0.4364E-03
      2.447  0.1579E-01  0.1585E-01  0.1041E-02  0.1045E-02  0.1041E-02  0.1045E-02  0.1041E-02  0.1045E-02  0.8251E-03  0.8284E-03  0.8251E-03  0.8284E-03  0.3783E-03  0.3792E-03  0.8251E-03  0.8284E-03  0.3783E-03  0.3792E-03
      2.525  0.5356E-01  0.5379E-01  0.3601E-02  0.3615E-02  0.3601E-02  0.3615E-02  0.3601E-02  0.3615E-02  0.3219E-02  0.3230E-02  0.3219E-02  0.3230E-02  0.1172E-02  0.1177E-02  0.3219E-02  0.3230E-02  0.1172E-02  0.1177E-02
      2.603  0.1320E+00  0.1323E+00  0.8836E-02  0.8849E-02  0.8836E-02  0.8849E-02  0.8836E-02  0.8849E-02  0.8570E-02  0.8580E-02  0.8570E-02  0.8580E-02  0.2828E-02  0.2832E-02  0.8570E-02  0.8580E-02  0.2828E-02  0.2832E-02
      2.681  0.1498E+00  0.1497E+00  0.9735E-02  0.9720E-02  0.9735E-02  0.9720E-02  0.9735E-02  0.9720E-02  0.1288E-01  0.1287E-01  0.1288E-01  0.1287E-01  0.2964E-02  0.2960E-02  0.1288E-01  0.1287E-01  0.2964E-02  0.2960E-02
      2.758  0.1058E+00  0.1056E+00  0.6318E-02  0.6305E-02  0.6318E-02  0.6305E-02  0.6318E-02  0.6305E-02  0.1517E-01  0.1516E-01  0.1517E-01  0.1516E-01  0.1646E-02  0.1642E-02  0.1517E-01  0.1516E-01  0.1646E-02  0.1642E-02
      2.836  0.5974E-01  0.5965E-01  0.3163E-02  0.3157E-02  0.3163E-02  0.3157E-02  0.3163E-02  0.3157E-02  0.1356E-01  0.1353E-01  0.1356E-01  0.1353E-01  0.7029E-03  0.7014E-03  0.1356E-01  0.1353E-01  0.7029E-03  0.7014E-03
      2.914  0.3797E-01  0.3792E-01  0.1489E-02  0.1486E-02  0.1489E-02  0.1486E-02  0.1489E-02  0.1486E-02  0.1635E-01  0.1632E-01  0.1635E-01  0.1632E-01  0.2643E-03  0.2641E-03  0.1635E-01  0.1632E-01  0.2643E-03  0.2641E-03
      2.992  0.4895E-01  0.4893E-01  0.1761E-02  0.1760E-02  0.1761E-02  0.1760E-02  0.1761E-02  0.1760E-02  0.2628E-01  0.2625E-01  0.2628E-01  0.2625E-01  0.3144E-03  0.3155E-03  0.2628E-01  0.2625E-01  0.3144E-03  0.3155E-03
      3.069  0.6520E-01  0.6521E-01  0.2388E-02  0.2389E-02  0.2388E-02  0.2389E-02  0.2388E-02  0.2389E-02  0.3808E-01  0.3803E-01  0.3808E-01  0.3803E-01  0.1063E-02  0.1069E-02  0.3808E-01  0.3803E-01  0.1063E-02  0.1069E-02
      3.147  0.6325E-01  0.6334E-01  0.2475E-02  0.2481E-02  0.2475E-02  0.2481E-02  0.2475E-02  0.2481E-02  0.3945E-01  0.3945E-01  0.3945E-01  0.3945E-01  0.4256E-02  0.4281E-02  0.3945E-01  0.3945E-01  0.4256E-02  0.4281E-02
      3.225  0.6780E-01  0.6803E-01  0.4478E-02  0.4492E-02  0.4478E-02  0.4492E-02  0.4478E-02  0.4492E-02  0.2566E-01  0.2572E-01  0.2566E-01  0.2572E-01  0.1557E-01  0.1564E-01  0.2566E-01  0.2572E-01  0.1557E-01  0.1564E-01