   4   4   1   0
  0.1806199E+02  0.4164938E-09  0.4164938E-09  0.4164938E-09  0.5000000E-15
  1.000000000000000E-004
  CAR 
 unknown system                          
     21.31009290     -1.00087014  301      8.11037403      1.00000000
     -1.001  0.0000E+00  0.0000E+00  0.0000E+00  0.0000E+00
     -0.927  0.0000E+00  0.0000E+00  0.0000E+00  0.0000E+00
     -0.852  0.0000E+00  0.0000E+00  0.0000E+00  0.0000E+00
     -0.778  0.0000E+00  0.0000E+00  0.0000E+00  0.0000E+00
     -0.703  0.0000E+00  0.0000E+00  0.0000E+00  0.0000E+00
     -0.629  0.0000E+00  0.0000E+00  0.0000E+00  0.0000E+00
     -0.555  0.0000E+00  0.0000E+00  0.0000E+00  0.0000E+00
     -0.480  0.0000E+00  0.0000E+00  0.0000E+00  0.0000E+00
     -0.406  0.1135E-03  0.1138E-03  0.8440E-05  0.8465E-05
     -0.332  0.3884E-03  0.3895E-03  0.3732E-04  0.3743E-04
     -0.257  0.1712E-02  0.1717E-02  0.1646E-03  0.1651E-03
     -0.183  0.7435E-02  0.7456E-02  0.7176E-03  0.7196E-03
     -0.108  0.3039E-01  0.3047E-01  0.2978E-02  0.2986E-02
     -0.034  0.9890E-01  0.9909E-01  0.1033E-01  0.1035E-01
      0.040  0.1755E+00  0.1755E+00  0.2338E-01  0.2341E-01
      0.115  0.1255E+00  0.1254E+00  0.3272E-01  0.3273E-01
      0.189  0.4394E-01  0.4383E-01  0.3599E-01  0.3599E-01
      0.263  0.1214E-01  0.1211E-01  0.3689E-01  0.3689E-01
      0.338  0.7216E-02  0.7221E-02  0.3743E-01  0.3743E-01
      0.412  0.2078E-01  0.2083E-01  0.3897E-01  0.3898E-01
      0.487  0.8316E-01  0.8337E-01  0.4517E-01  0.4519E-01
      0.561  0.2776E+00  0.2781E+00  0.6581E-01  0.6587E-01
      0.635  0.5205E+00  0.5206E+00  0.1045E+00  0.1046E+00
      0.710  0.3964E+00  0.3959E+00  0.1340E+00  0.1340E+00
      0.784  0.1434E+00  0.1431E+00  0.1447E+00  0.1447E+00
      0.858  0.3982E-01  0.3972E-01  0.1476E+00  0.1476E+00
      0.933  0.2226E-01  0.2227E-01  0.1493E+00  0.1493E+00
      1.007  0.5973E-01  0.5983E-01  0.1537E+00  0.1537E+00
      1.081  0.2094E+00  0.2098E+00  0.1693E+00  0.1694E+00
      1.156  0.4779E+00  0.4782E+00  0.2049E+00  0.2049E+00
      1.230  0.4659E+00  0.4656E+00  0.2395E+00  0.2396E+00
      1.305  0.1990E+00  0.1987E+00  0.2543E+00  0.2543E+00
      1.379  0.6499E-01  0.6488E-01  0.2592E+00  0.2592E+00
      1.453  0.5993E-01  0.5992E-01  0.2636E+00  0.2636E+00
      1.528  0.1581E+00  0.1582E+00  0.2754E+00  0.2754E+00
      1.602  0.3320E+00  0.3323E+00  0.3001E+00  0.3002E+00
      1.676  0.5246E+00  0.5251E+00  0.3392E+00  0.3392E+00
      1.751  0.5492E+00  0.5489E+00  0.3800E+00  0.3800E+00
      1.825  0.2749E+00  0.2745E+00  0.4004E+00  0.4005E+00
      1.900  0.1072E+00  0.1071E+00  0.4084E+00  0.4084E+00
      1.974  0.1415E+00  0.1415E+00  0.4190E+00  0.4190E+00
      2.048  0.4507E+00  0.4507E+00  0.4525E+00  0.4525E+00
      2.123  0.1033E+01  0.1032E+01  0.5294E+00  0.5294E+00
      2.197  0.1155E+01  0.1154E+01  0.6153E+00  0.6152E+00
      2.271  0.8919E+00  0.8910E+00  0.6817E+00  0.6815E+00
      2.346  0.6005E+00  0.6007E+00  0.7263E+00  0.7262E+00
      2.420  0.3953E+00  0.3940E+00  0.7557E+00  0.7555E+00
      2.495  0.5324E+00  0.5297E+00  0.7953E+00  0.7949E+00
      2.569  0.8086E+00  0.8063E+00  0.8556E+00  0.8549E+00
      2.643  0.9582E+00  0.9573E+00  0.9268E+00  0.9261E+00
      2.718  0.1068E+01  0.1070E+01  0.1006E+01  0.1006E+01
      2.792  0.1301E+01  0.1303E+01  0.1103E+01  0.1103E+01
      2.866  0.1566E+01  0.1563E+01  0.1220E+01  0.1219E+01
      2.941  0.2015E+01  0.2006E+01  0.1369E+01  0.1368E+01
      3.015  0.2788E+01  0.2784E+01  0.1577E+01  0.1575E+01
      3.089  0.2868E+01  0.2873E+01  0.1790E+01  0.1789E+01
      3.164  0.2647E+01  0.2648E+01  0.1987E+01  0.1986E+01
      3.238  0.2213E+01  0.2210E+01  0.2152E+01  0.2150E+01
      3.313  0.2461E+01  0.2454E+01  0.2335E+01  0.2333E+01
      3.387  0.3086E+01  0.3079E+01  0.2565E+01  0.2562E+01
      3.461  0.3869E+01  0.3857E+01  0.2853E+01  0.2849E+01
      3.536  0.4125E+01  0.4125E+01  0.3160E+01  0.3156E+01
      3.610  0.3320E+01  0.3331E+01  0.3407E+01  0.3404E+01
      3.684  0.2463E+01  0.2468E+01  0.3590E+01  0.3588E+01
      3.759  0.2228E+01  0.2227E+01  0.3756E+01  0.3753E+01
      3.833  0.3008E+01  0.2993E+01  0.3980E+01  0.3976E+01
      3.908  0.4172E+01  0.4167E+01  0.4290E+01  0.4287E+01
      3.982  0.3621E+01  0.3637E+01  0.4560E+01  0.4557E+01
      4.056  0.2492E+01  0.2505E+01  0.4745E+01  0.4744E+01
      4.131  0.1744E+01  0.1747E+01  0.4875E+01  0.4874E+01
      4.205  0.1825E+01  0.1813E+01  0.5011E+01  0.5008E+01
      4.279  0.2667E+01  0.2661E+01  0.5210E+01  0.5207E+01
      4.354  0.3237E+01  0.3238E+01  0.5451E+01  0.5448E+01
      4.428  0.3535E+01  0.3536E+01  0.5714E+01  0.5711E+01
      4.503  0.3171E+01  0.3176E+01  0.5950E+01  0.5947E+01
      4.577  0.2857E+01  0.2852E+01  0.6162E+01  0.6159E+01
      4.651  0.3074E+01  0.3073E+01  0.6391E+01  0.6388E+01
      4.726  0.3225E+01  0.3215E+01  0.6631E+01  0.6627E+01
      4.800  0.4211E+01  0.4195E+01  0.6944E+01  0.6939E+01
      4.874  0.5177E+01  0.5172E+01  0.7330E+01  0.7324E+01
      4.949  0.4634E+01  0.4651E+01  0.7674E+01  0.7670E+01
      5.023  0.3332E+01  0.3345E+01  0.7923E+01  0.7919E+01
      5.097  0.2988E+01  0.2982E+01  0.8145E+01  0.8141E+01
      5.172  0.4138E+01  0.4109E+01  0.8453E+01  0.8447E+01
      5.246  0.5650E+01  0.5638E+01  0.8873E+01  0.8867E+01
      5.321  0.5166E+01  0.5184E+01  0.9258E+01  0.9252E+01
      5.395  0.4166E+01  0.4174E+01  0.9568E+01  0.9563E+01
      5.469  0.4317E+01  0.4304E+01  0.9889E+01  0.9883E+01
      5.544  0.5323E+01  0.5307E+01  0.1028E+02  0.1028E+02
      5.618  0.5856E+01  0.5844E+01  0.1072E+02  0.1071E+02
      5.692  0.6195E+01  0.6200E+01  0.1118E+02  0.1117E+02
      5.767  0.5362E+01  0.5390E+01  0.1158E+02  0.1158E+02
      5.841  0.4122E+01  0.4143E+01  0.1189E+02  0.1188E+02
      5.916  0.3499E+01  0.3498E+01  0.1215E+02  0.1214E+02
      5.990  0.3739E+01  0.3728E+01  0.1243E+02  0.1242E+02
      6.064  0.3728E+01  0.3735E+01  0.1270E+02  0.1270E+02
      6.139  0.2829E+01  0.2844E+01  0.1291E+02  0.1291E+02
      6.213  0.2335E+01  0.2338E+01  0.1309E+02  0.1309E+02
      6.287  0.2565E+01  0.2561E+01  0.1328E+02  0.1328E+02
      6.362  0.2801E+01  0.2799E+01  0.1349E+02  0.1348E+02
      6.436  0.2904E+01  0.2896E+01  0.1370E+02  0.1370E+02
      6.510  0.3598E+01  0.3582E+01  0.1397E+02  0.1397E+02
      6.585  0.4475E+01  0.4469E+01  0.1431E+02  0.1430E+02
      6.659  0.4703E+01  0.4701E+01  0.1465E+02  0.1465E+02
      6.734  0.4876E+01  0.4878E+01  0.1502E+02  0.1501E+02
      6.808  0.4447E+01  0.4462E+01  0.1535E+02  0.1534E+02
      6.882  0.3395E+01  0.3416E+01  0.1560E+02  0.1560E+02
      6.957  0.2345E+01  0.2355E+01  0.1578E+02  0.1577E+02
      7.031  0.2151E+01  0.2144E+01  0.1594E+02  0.1593E+02
      7.105  0.2550E+01  0.2541E+01  0.1613E+02  0.1612E+02
      7.180  0.3155E+01  0.3140E+01  0.1636E+02  0.1636E+02
      7.254  0.3622E+01  0.3619E+01  0.1663E+02  0.1663E+02
      7.329  0.3922E+01  0.3906E+01  0.1692E+02  0.1692E+02
      7.403  0.4846E+01  0.4838E+01  0.1728E+02  0.1728E+02
      7.477  0.4207E+01  0.4235E+01  0.1760E+02  0.1759E+02
      7.552  0.2470E+01  0.2495E+01  0.1778E+02  0.1778E+02
      7.626  0.1736E+01  0.1733E+01  0.1791E+02  0.1791E+02
      7.700  0.2427E+01  0.2405E+01  0.1809E+02  0.1809E+02
      7.775  0.3769E+01  0.3738E+01  0.1837E+02  0.1836E+02
      7.849  0.5133E+01  0.5106E+01  0.1875E+02  0.1874E+02
      7.924  0.5503E+01  0.5512E+01  0.1916E+02  0.1915E+02
      7.998  0.4906E+01  0.4913E+01  0.1953E+02  0.1952E+02
      8.072  0.4461E+01  0.4474E+01  0.1986E+02  0.1985E+02
      8.147  0.3544E+01  0.3563E+01  0.2012E+02  0.2012E+02
      8.221  0.3004E+01  0.3000E+01  0.2035E+02  0.2034E+02
      8.295  0.3458E+01  0.3445E+01  0.2060E+02  0.2060E+02
      8.370  0.3235E+01  0.3260E+01  0.2084E+02  0.2084E+02
      8.444  0.1896E+01  0.1923E+01  0.2099E+02  0.2098E+02
      8.518  0.1546E+01  0.1543E+01  0.2110E+02  0.2110E+02
      8.593  0.2116E+01  0.2111E+01  0.2126E+02  0.2126E+02
      8.667  0.2033E+01  0.2043E+01  0.2141E+02  0.2141E+02
      8.742  0.1281E+01  0.1295E+01  0.2151E+02  0.2150E+02
      8.816  0.5001E+00  0.5085E+00  0.2154E+02  0.2154E+02
      8.890  0.1362E+00  0.1390E+00  0.2155E+02  0.2155E+02
      8.965  0.2964E-01  0.3025E-01  0.2155E+02  0.2155E+02
      9.039  0.6514E-02  0.6641E-02  0.2156E+02  0.2156E+02
      9.113  0.1180E-02  0.1170E-02  0.2156E+02  0.2156E+02
      9.188  0.5409E-02  0.5362E-02  0.2156E+02  0.2156E+02
      9.262  0.2320E-01  0.2300E-01  0.2156E+02  0.2156E+02
      9.337  0.9787E-01  0.9705E-01  0.2157E+02  0.2156E+02
      9.411  0.3598E+00  0.3569E+00  0.2159E+02  0.2159E+02
      9.485  0.9403E+00  0.9330E+00  0.2166E+02  0.2166E+02
      9.560  0.1706E+01  0.1693E+01  0.2179E+02  0.2179E+02
      9.634  0.2187E+01  0.2185E+01  0.2195E+02  0.2195E+02
      9.708  0.1469E+01  0.1482E+01  0.2206E+02  0.2206E+02
      9.783  0.5614E+00  0.5692E+00  0.2210E+02  0.2210E+02
      9.857  0.3081E+00  0.3078E+00  0.2213E+02  0.2212E+02
      9.932  0.6050E+00  0.5987E+00  0.2217E+02  0.2217E+02
     10.006  0.1052E+01  0.1050E+01  0.2225E+02  0.2225E+02
     10.080  0.7730E+00  0.7801E+00  0.2231E+02  0.2231E+02
     10.155  0.2738E+00  0.2781E+00  0.2233E+02  0.2233E+02
     10.229  0.7195E-01  0.7318E-01  0.2233E+02  0.2233E+02
     10.303  0.2625E-01  0.2645E-01  0.2233E+02  0.2233E+02
     10.378  0.4601E-01  0.4570E-01  0.2234E+02  0.2234E+02
     10.452  0.1642E+00  0.1629E+00  0.2235E+02  0.2235E+02
     10.526  0.4608E+00  0.4584E+00  0.2238E+02  0.2238E+02
     10.601  0.7136E+00  0.7116E+00  0.2244E+02  0.2244E+02
     10.675  0.9109E+00  0.9063E+00  0.2250E+02  0.2250E+02
     10.750  0.1280E+01  0.1279E+01  0.2260E+02  0.2260E+02
     10.824  0.1168E+01  0.1172E+01  0.2269E+02  0.2269E+02
     10.898  0.7799E+00  0.7840E+00  0.2274E+02  0.2274E+02
     10.973  0.3551E+00  0.3572E+00  0.2277E+02  0.2277E+02
     11.047  0.2038E+00  0.2030E+00  0.2279E+02  0.2279E+02
     11.121  0.4262E+00  0.4216E+00  0.2282E+02  0.2282E+02
     11.196  0.9474E+00  0.9429E+00  0.2289E+02  0.2289E+02
     11.270  0.9435E+00  0.9480E+00  0.2296E+02  0.2296E+02
     11.345  0.4066E+00  0.4113E+00  0.2299E+02  0.2299E+02
     11.419  0.1139E+00  0.1155E+00  0.2300E+02  0.2300E+02
     11.493  0.3844E-01  0.3872E-01  0.2300E+02  0.2300E+02
     11.568  0.5845E-01  0.5806E-01  0.2300E+02  0.2300E+02
     11.642  0.2121E+00  0.2103E+00  0.2302E+02  0.2302E+02
     11.716  0.6595E+00  0.6558E+00  0.2307E+02  0.2307E+02
     11.791  0.1073E+01  0.1072E+01  0.2315E+02  0.2315E+02
     11.865  0.7329E+00  0.7361E+00  0.2320E+02  0.2320E+02
     11.939  0.4104E+00  0.4103E+00  0.2323E+02  0.2323E+02
     12.014  0.6800E+00  0.6756E+00  0.2329E+02  0.2328E+02
     12.088  0.1297E+01  0.1293E+01  0.2338E+02  0.2338E+02
     12.163  0.1498E+01  0.1498E+01  0.2349E+02  0.2349E+02
     12.237  0.1340E+01  0.1344E+01  0.2359E+02  0.2359E+02
     12.311  0.7041E+00  0.7093E+00  0.2365E+02  0.2365E+02
     12.386  0.2164E+00  0.2186E+00  0.2366E+02  0.2366E+02
     12.460  0.5324E-01  0.5383E-01  0.2367E+02  0.2367E+02
     12.534  0.1235E-01  0.1247E-01  0.2367E+02  0.2367E+02
     12.609  0.4559E-02  0.4486E-02  0.2367E+02  0.2367E+02
     12.683  0.1953E-01  0.1922E-01  0.2367E+02  0.2367E+02
     12.758  0.8344E-01  0.8216E-01  0.2367E+02  0.2367E+02
     12.832  0.3210E+00  0.3169E+00  0.2370E+02  0.2370E+02
     12.906  0.8973E+00  0.8906E+00  0.2377E+02  0.2376E+02
     12.981  0.1525E+01  0.1522E+01  0.2388E+02  0.2388E+02
     13.055  0.1949E+01  0.1948E+01  0.2402E+02  0.2402E+02
     13.129  0.1910E+01  0.1913E+01  0.2417E+02  0.2416E+02
     13.204  0.1445E+01  0.1447E+01  0.2427E+02  0.2427E+02
     13.278  0.1280E+01  0.1283E+01  0.2437E+02  0.2437E+02
     13.353  0.7202E+00  0.7256E+00  0.2442E+02  0.2442E+02
     13.427  0.2296E+00  0.2320E+00  0.2444E+02  0.2444E+02
     13.501  0.6011E-01  0.6072E-01  0.2444E+02  0.2444E+02
     13.576  0.3935E-01  0.3938E-01  0.2445E+02  0.2445E+02
     13.650  0.1082E+00  0.1078E+00  0.2446E+02  0.2446E+02
     13.724  0.3338E+00  0.3329E+00  0.2448E+02  0.2448E+02
     13.799  0.5313E+00  0.5313E+00  0.2452E+02  0.2452E+02
     13.873  0.3393E+00  0.3402E+00  0.2454E+02  0.2454E+02
     13.947  0.1115E+00  0.1119E+00  0.2455E+02  0.2455E+02
     14.022  0.3076E-01  0.3084E-01  0.2456E+02  0.2456E+02
     14.096  0.1959E-01  0.1949E-01  0.2456E+02  0.2456E+02
     14.171  0.5287E-01  0.5242E-01  0.2456E+02  0.2456E+02
     14.245  0.1552E+00  0.1544E+00  0.2457E+02  0.2457E+02
     14.319  0.2744E+00  0.2739E+00  0.2459E+02  0.2459E+02
     14.394  0.4847E+00  0.4829E+00  0.2463E+02  0.2463E+02
     14.468  0.1145E+01  0.1141E+01  0.2471E+02  0.2471E+02
     14.542  0.1834E+01  0.1833E+01  0.2485E+02  0.2485E+02
     14.617  0.1898E+01  0.1900E+01  0.2499E+02  0.2499E+02
     14.691  0.1675E+01  0.1676E+01  0.2512E+02  0.2512E+02
     14.766  0.1682E+01  0.1682E+01  0.2524E+02  0.2524E+02
     14.840  0.1451E+01  0.1452E+01  0.2535E+02  0.2535E+02
     14.914  0.1231E+01  0.1230E+01  0.2544E+02  0.2544E+02
     14.989  0.1176E+01  0.1177E+01  0.2553E+02  0.2553E+02
     15.063  0.6165E+00  0.6199E+00  0.2557E+02  0.2557E+02
     15.137  0.1868E+00  0.1882E+00  0.2559E+02  0.2559E+02
     15.212  0.4783E-01  0.4818E-01  0.2559E+02  0.2559E+02
     15.286  0.2703E-01  0.2705E-01  0.2559E+02  0.2559E+02
     15.361  0.7351E-01  0.7322E-01  0.2560E+02  0.2560E+02
     15.435  0.3001E+00  0.2990E+00  0.2562E+02  0.2562E+02
     15.509  0.9816E+00  0.9788E+00  0.2570E+02  0.2569E+02
     15.584  0.1871E+01  0.1869E+01  0.2583E+02  0.2583E+02
     15.658  0.1681E+01  0.1683E+01  0.2596E+02  0.2596E+02
     15.732  0.7590E+00  0.7621E+00  0.2602E+02  0.2602E+02
     15.807  0.2195E+00  0.2208E+00  0.2603E+02  0.2603E+02
     15.881  0.5380E-01  0.5414E-01  0.2604E+02  0.2604E+02
     15.955  0.1357E-01  0.1363E-01  0.2604E+02  0.2604E+02
     16.030  0.1857E-01  0.1851E-01  0.2604E+02  0.2604E+02
     16.104  0.7738E-01  0.7716E-01  0.2604E+02  0.2604E+02
     16.179  0.2703E+00  0.2697E+00  0.2606E+02  0.2606E+02
     16.253  0.5820E+00  0.5815E+00  0.2611E+02  0.2611E+02
     16.327  0.6741E+00  0.6742E+00  0.2616E+02  0.2616E+02
     16.402  0.6696E+00  0.6698E+00  0.2621E+02  0.2621E+02
     16.476  0.4701E+00  0.4707E+00  0.2624E+02  0.2624E+02
     16.550  0.1950E+00  0.1953E+00  0.2626E+02  0.2626E+02
     16.625  0.1510E+00  0.1508E+00  0.2627E+02  0.2627E+02
     16.699  0.4197E+00  0.4187E+00  0.2630E+02  0.2630E+02
     16.774  0.1132E+01  0.1130E+01  0.2638E+02  0.2638E+02
     16.848  0.1753E+01  0.1753E+01  0.2651E+02  0.2651E+02
     16.922  0.1697E+01  0.1697E+01  0.2664E+02  0.2664E+02
     16.997  0.1320E+01  0.1318E+01  0.2674E+02  0.2674E+02
     17.071  0.1272E+01  0.1271E+01  0.2683E+02  0.2683E+02
     17.145  0.8482E+00  0.8503E+00  0.2690E+02  0.2690E+02
     17.220  0.2971E+00  0.2984E+00  0.2692E+02  0.2692E+02
     17.294  0.7724E-01  0.7763E-01  0.2692E+02  0.2692E+02
     17.368  0.3499E-01  0.3512E-01  0.2693E+02  0.2693E+02
     17.443  0.7843E-01  0.7844E-01  0.2693E+02  0.2693E+02
     17.517  0.2583E+00  0.2586E+00  0.2695E+02  0.2695E+02
     17.592  0.5375E+00  0.5369E+00  0.2699E+02  0.2699E+02
     17.666  0.5467E+00  0.5426E+00  0.2703E+02  0.2703E+02
     17.740  0.6298E+00  0.6139E+00  0.2708E+02  0.2708E+02
     17.815  0.1287E+01  0.1231E+01  0.2718E+02  0.2717E+02
     17.889  0.1821E+01  0.1721E+01  0.2731E+02  0.2730E+02
     17.963  0.1447E+01  0.1469E+01  0.2742E+02  0.2741E+02
     18.038  0.6282E+00  0.7256E+00  0.2747E+02  0.2746E+02
     18.112  0.2102E+00  0.2532E+00  0.2748E+02  0.2748E+02
     18.187  0.1849E+00  0.1966E+00  0.2749E+02  0.2749E+02
     18.261  0.4078E+00  0.4119E+00  0.2753E+02  0.2753E+02
     18.335  0.5368E+00  0.5398E+00  0.2757E+02  0.2757E+02
     18.410  0.3458E+00  0.3592E+00  0.2759E+02  0.2759E+02
     18.484  0.3319E+00  0.3827E+00  0.2762E+02  0.2762E+02
     18.558  0.6187E+00  0.7703E+00  0.2766E+02  0.2768E+02
     18.633  0.8155E+00  0.1205E+01  0.2772E+02  0.2777E+02
     18.707  0.1003E+01  0.1394E+01  0.2780E+02  0.2787E+02
     18.782  0.1189E+01  0.8541E+00  0.2789E+02  0.2794E+02
     18.856  0.7271E+00  0.2820E+00  0.2794E+02  0.2796E+02
     18.930  0.2372E+00  0.7066E-01  0.2796E+02  0.2796E+02
     19.005  0.5855E-01  0.1581E-01  0.2796E+02  0.2796E+02
     19.079  0.1328E-01  0.0000E+00  0.2796E+02  0.2796E+02
     19.153  0.0000E+00  0.0000E+00  0.2796E+02  0.2796E+02
     19.228  0.0000E+00  0.0000E+00  0.2796E+02  0.2796E+02
     19.302  0.0000E+00  0.0000E+00  0.2796E+02  0.2796E+02
     19.376  0.0000E+00  0.0000E+00  0.2796E+02  0.2796E+02
     19.451  0.0000E+00  0.0000E+00  0.2796E+02  0.2796E+02
     19.525  0.0000E+00  0.0000E+00  0.2796E+02  0.2796E+02
     19.600  0.0000E+00  0.0000E+00  0.2796E+02  0.2796E+02
     19.674  0.0000E+00  0.0000E+00  0.2796E+02  0.2796E+02
     19.748  0.0000E+00  0.0000E+00  0.2796E+02  0.2796E+02
     19.823  0.7699E-04  0.3859E-04  0.2796E+02  0.2796E+02
     19.897  0.2636E-03  0.1322E-03  0.2796E+02  0.2796E+02
     19.971  0.1163E-02  0.5840E-03  0.2796E+02  0.2796E+02
     20.046  0.5083E-02  0.2568E-02  0.2796E+02  0.2796E+02
     20.120  0.2130E-01  0.1105E-01  0.2797E+02  0.2796E+02
     20.195  0.7566E-01  0.4352E-01  0.2797E+02  0.2797E+02
     20.269  0.1641E+00  0.1254E+00  0.2798E+02  0.2798E+02
     20.343  0.1493E+00  0.1755E+00  0.2799E+02  0.2799E+02
     20.418  0.6013E-01  0.9909E-01  0.2800E+02  0.2800E+02
     20.492  0.1607E-01  0.3047E-01  0.2800E+02  0.2800E+02
     20.566  0.3782E-02  0.7456E-02  0.2800E+02  0.2800E+02
     20.641  0.8627E-03  0.1717E-02  0.2800E+02  0.2800E+02
     20.715  0.0000E+00  0.0000E+00  0.2800E+02  0.2800E+02
     20.790  0.0000E+00  0.0000E+00  0.2800E+02  0.2800E+02
     20.864  0.0000E+00  0.0000E+00  0.2800E+02  0.2800E+02
     20.938  0.0000E+00  0.0000E+00  0.2800E+02  0.2800E+02
     21.013  0.0000E+00  0.0000E+00  0.2800E+02  0.2800E+02
     21.087  0.0000E+00  0.0000E+00  0.2800E+02  0.2800E+02
     21.161  0.0000E+00  0.0000E+00  0.2800E+02  0.2800E+02
     21.236  0.0000E+00  0.0000E+00  0.2800E+02  0.2800E+02
     21.310  0.0000E+00  0.0000E+00  0.2800E+02  0.2800E+02
     21.31009290     -1.00087014  301      8.11037403      1.00000000
     -1.001  0.0000E+00  0.0000E+00  0.0000E+00  0.0000E+00  0.0000E+00  0.0000E+00  0.0000E+00  0.0000E+00  0.0000E+00  0.0000E+00  0.0000E+00  0.0000E+00  0.0000E+00  0.0000E+00  0.0000E+00  0.0000E+00  0.0000E+00  0.0000E+00
     -0.927  0.0000E+00  0.0000E+00  0.0000E+00  0.0000E+00  0.0000E+00  0.0000E+00  0.0000E+00  0.0000E+00  0.0000E+00  0.0000E+00  0.0000E+00  0.0000E+00  0.0000E+00  0.0000E+00  0.0000E+00  0.0000E+00  0.0000E+00  0.0000E+00
     -0.852  0.0000E+00  0.0000E+00  0.0000E+00  0.0000E+00  0.0000E+00  0.0000E+00  0.0000E+00  0.0000E+00  0.0000E+00  0.0000E+00  0.0000E+00  0.0000E+00  0.0000E+00  0.0000E+00  0.0000E+00  0.0000E+00  0.0000E+00  0.0000E+00
     -0.778  0.0000E+00  0.0000E+00  0.0000E+00  0.0000E+00  0.0000E+00  0.0000E+00  0.0000E+00  0.0000E+00  0.0000E+00  0.0000E+00  0.0000E+00  0.0000E+00  0.0000E+00  0.0000E+00  0.0000E+00  0.0000E+00  0.0000E+00  0.0000E+00
     -0.703  0.0000E+00  0.0000E+00  0.0000E+00  0.0000E+00  0.0000E+00  0.0000E+00  0.0000E+00  0.0000E+00  0.0000E+00  0.0000E+00  0.0000E+00  0.0000E+00  0.0000E+00  0.0000E+00  0.0000E+00  0.0000E+00  0.0000E+00  0.0000E+00
     -0.629  0.0000E+00  0.0000E+00  0.0000E+00  0.0000E+00  0.0000E+00  0.0000E+00  0.0000E+00  0.0000E+00  0.0000E+00  0.0000E+00  0.0000E+00  0.0000E+00  0.0000E+00  0.0000E+00  0.0000E+00  0.0000E+00  0.0000E+00  0.0000E+00
     -0.555  0.0000E+00  0.0000E+00  0.0000E+00  0.0000E+00  0.0000E+00  0.0000E+00  0.0000E+00  0.0000E+00  0.0000E+00  0.0000E+00  0.0000E+00  0.0000E+00  0.0000E+00  0.0000E+00  0.0000E+00  0.0000E+00  0.0000E+00  0.0000E+00
     -0.480  0.0000E+00  0.0000E+00  0.0000E+00  0.0000E+00  0.0000E+00  0.0000E+00  0.0000E+00  0.0000E+00  0.0000E+00  0.0000E+00  0.0000E+00  0.0000E+00  0.0000E+00  0.0000E+00  0.0000E+00  0.0000E+00  0.0000E+00  0.0000E+00
     -0.406  0.1886E-04  0.1891E-04  0.1111E-06  0.1115E-06  0.1111E-06  0.1115E-06  0.1111E-06  0.1115E-06  0.6806E-08  0.6822E-08  0.6806E-08  0.6822E-08  0.5367E-22  0.9411E-20  0.6806E-08  0.6822E-08  0.5367E-22  0.9411E-20
     -0.332  0.6453E-04  0.6470E-04  0.3804E-06  0.3815E-06  0.3804E-06  0.3815E-06  0.3804E-06  0.3815E-06  0.2329E-07  0.2335E-07  0.2329E-07  0.2335E-07  0.1837E-21  0.3221E-19  0.2329E-07  0.2335E-07  0.1837E-21  0.3221E-19
     -0.257  0.2844E-03  0.2851E-03  0.1676E-05  0.1681E-05  0.1676E-05  0.1681E-05  0.1676E-05  0.1681E-05  0.1026E-06  0.1029E-06  0.1026E-06  0.1029E-06  0.8094E-21  0.1419E-18  0.1026E-06  0.1029E-06  0.8094E-21  0.1419E-18
     -0.183  0.1235E-02  0.1239E-02  0.7282E-05  0.7303E-05  0.7282E-05  0.7303E-05  0.7282E-05  0.7303E-05  0.4459E-06  0.4469E-06  0.4459E-06  0.4469E-06  0.3516E-20  0.6165E-18  0.4459E-06  0.4469E-06  0.3516E-20  0.6165E-18
     -0.108  0.5050E-02  0.5062E-02  0.2977E-04  0.2985E-04  0.2977E-04  0.2985E-04  0.2977E-04  0.2985E-04  0.1823E-05  0.1827E-05  0.1823E-05  0.1827E-05  0.1437E-19  0.2520E-17  0.1823E-05  0.1827E-05  0.1437E-19  0.2520E-17
     -0.034  0.1643E-01  0.1646E-01  0.9686E-04  0.9705E-04  0.9686E-04  0.9705E-04  0.9686E-04  0.9705E-04  0.5931E-05  0.5939E-05  0.5931E-05  0.5939E-05  0.4677E-19  0.8192E-17  0.5931E-05  0.5939E-05  0.4677E-19  0.8192E-17
      0.040  0.2916E-01  0.2916E-01  0.1718E-03  0.1719E-03  0.1718E-03  0.1719E-03  0.1718E-03  0.1719E-03  0.1052E-04  0.1052E-04  0.1052E-04  0.1052E-04  0.8298E-19  0.1451E-16  0.1052E-04  0.1052E-04  0.8298E-19  0.1451E-16
      0.115  0.2086E-01  0.2082E-01  0.1230E-03  0.1228E-03  0.1230E-03  0.1228E-03  0.1230E-03  0.1228E-03  0.7528E-05  0.7514E-05  0.7528E-05  0.7514E-05  0.5937E-19  0.1036E-16  0.7528E-05  0.7514E-05  0.5937E-19  0.1036E-16
      0.189  0.7299E-02  0.7279E-02  0.4378E-04  0.4368E-04  0.4378E-04  0.4368E-04  0.4378E-04  0.4368E-04  0.2741E-05  0.2734E-05  0.2741E-05  0.2734E-05  0.1096E-06  0.1099E-06  0.2741E-05  0.2734E-05  0.1096E-06  0.1099E-06
      0.263  0.2008E-02  0.2002E-02  0.1445E-04  0.1443E-04  0.1445E-04  0.1443E-04  0.1445E-04  0.1443E-04  0.1091E-05  0.1090E-05  0.1091E-05  0.1090E-05  0.3752E-06  0.3762E-06  0.1091E-05  0.1090E-05  0.3752E-06  0.3762E-06
      0.338  0.1158E-02  0.1159E-02  0.1837E-04  0.1841E-04  0.1837E-04  0.1841E-04  0.1837E-04  0.1841E-04  0.2034E-05  0.2038E-05  0.2034E-05  0.2038E-05  0.1654E-05  0.1658E-05  0.2034E-05  0.2038E-05  0.1654E-05  0.1658E-05
      0.412  0.3276E-02  0.3284E-02  0.6954E-04  0.6974E-04  0.6954E-04  0.6974E-04  0.6954E-04  0.6974E-04  0.8216E-05  0.8234E-05  0.8216E-05  0.8234E-05  0.7198E-05  0.7217E-05  0.8216E-05  0.8234E-05  0.7198E-05  0.7217E-05
      0.487  0.1309E-01  0.1312E-01  0.2840E-03  0.2848E-03  0.2840E-03  0.2848E-03  0.2840E-03  0.2848E-03  0.3369E-04  0.3376E-04  0.3369E-04  0.3376E-04  0.2964E-04  0.2972E-04  0.3369E-04  0.3376E-04  0.2964E-04  0.2972E-04
      0.561  0.4369E-01  0.4377E-01  0.9480E-03  0.9499E-03  0.9480E-03  0.9499E-03  0.9480E-03  0.9499E-03  0.1125E-03  0.1126E-03  0.1125E-03  0.1126E-03  0.9895E-04  0.9912E-04  0.1125E-03  0.1126E-03  0.9895E-04  0.9912E-04
      0.635  0.8193E-01  0.8194E-01  0.1777E-02  0.1778E-02  0.1777E-02  0.1778E-02  0.1777E-02  0.1778E-02  0.2108E-03  0.2108E-03  0.2108E-03  0.2108E-03  0.1855E-03  0.1856E-03  0.2108E-03  0.2108E-03  0.1855E-03  0.1856E-03
      0.710  0.6240E-01  0.6230E-01  0.1354E-02  0.1353E-02  0.1354E-02  0.1353E-02  0.1354E-02  0.1353E-02  0.1610E-03  0.1607E-03  0.1610E-03  0.1607E-03  0.1413E-03  0.1411E-03  0.1610E-03  0.1607E-03  0.1413E-03  0.1411E-03
      0.784  0.2257E-01  0.2251E-01  0.4911E-03  0.4900E-03  0.4911E-03  0.4900E-03  0.4911E-03  0.4900E-03  0.5951E-04  0.5934E-04  0.5951E-04  0.5934E-04  0.5104E-04  0.5092E-04  0.5951E-04  0.5934E-04  0.5104E-04  0.5092E-04
      0.858  0.6237E-02  0.6221E-02  0.1416E-03  0.1414E-03  0.1416E-03  0.1414E-03  0.1416E-03  0.1414E-03  0.2233E-04  0.2229E-04  0.2233E-04  0.2229E-04  0.1385E-04  0.1381E-04  0.2233E-04  0.2229E-04  0.1385E-04  0.1381E-04
      0.933  0.3372E-02  0.3371E-02  0.1008E-03  0.1009E-03  0.1008E-03  0.1009E-03  0.1008E-03  0.1009E-03  0.3615E-04  0.3619E-04  0.3615E-04  0.3619E-04  0.6420E-05  0.6418E-05  0.3615E-04  0.3619E-04  0.6420E-05  0.6418E-05
      1.007  0.8844E-02  0.8857E-02  0.3084E-03  0.3090E-03  0.3084E-03  0.3090E-03  0.3084E-03  0.3090E-03  0.1385E-03  0.1387E-03  0.1385E-03  0.1387E-03  0.1490E-04  0.1493E-04  0.1385E-03  0.1387E-03  0.1490E-04  0.1493E-04
      1.081  0.3094E-01  0.3099E-01  0.1094E-02  0.1096E-02  0.1094E-02  0.1096E-02  0.1094E-02  0.1096E-02  0.4992E-03  0.4997E-03  0.4992E-03  0.4997E-03  0.5150E-04  0.5159E-04  0.4992E-03  0.4997E-03  0.5150E-04  0.5159E-04
      1.156  0.7062E-01  0.7064E-01  0.2496E-02  0.2498E-02  0.2496E-02  0.2498E-02  0.2496E-02  0.2498E-02  0.1140E-02  0.1140E-02  0.1140E-02  0.1140E-02  0.1175E-03  0.1176E-03  0.1140E-02  0.1140E-02  0.1175E-03  0.1176E-03
      1.230  0.6883E-01  0.6876E-01  0.2434E-02  0.2432E-02  0.2434E-02  0.2432E-02  0.2434E-02  0.2432E-02  0.1113E-02  0.1112E-02  0.1113E-02  0.1112E-02  0.1151E-03  0.1150E-03  0.1113E-02  0.1112E-02  0.1151E-03  0.1150E-03
      1.305  0.2936E-01  0.2931E-01  0.1041E-02  0.1039E-02  0.1041E-02  0.1039E-02  0.1041E-02  0.1039E-02  0.4871E-03  0.4860E-03  0.4871E-03  0.4860E-03  0.5064E-04  0.5057E-04  0.4871E-03  0.4860E-03  0.5064E-04  0.5057E-04
      1.379  0.9446E-02  0.9429E-02  0.3463E-03  0.3459E-03  0.3463E-03  0.3459E-03  0.3463E-03  0.3459E-03  0.2102E-03  0.2098E-03  0.2102E-03  0.2098E-03  0.2355E-04  0.2355E-04  0.2102E-03  0.2098E-03  0.2355E-04  0.2355E-04
      1.453  0.8221E-02  0.8219E-02  0.3425E-03  0.3425E-03  0.3425E-03  0.3425E-03  0.3425E-03  0.3425E-03  0.3632E-03  0.3627E-03  0.3632E-03  0.3627E-03  0.4889E-04  0.4898E-04  0.3632E-03  0.3627E-03  0.4889E-04  0.4898E-04
      1.528  0.2131E-01  0.2132E-01  0.9409E-03  0.9415E-03  0.9409E-03  0.9415E-03  0.9409E-03  0.9415E-03  0.1031E-02  0.1029E-02  0.1031E-02  0.1029E-02  0.1966E-03  0.1970E-03  0.1031E-02  0.1029E-02  0.1966E-03  0.1970E-03
      1.602  0.4481E-01  0.4486E-01  0.2112E-02  0.2115E-02  0.2112E-02  0.2115E-02  0.2112E-02  0.2115E-02  0.1681E-02  0.1680E-02  0.1681E-02  0.1680E-02  0.7525E-03  0.7539E-03  0.1681E-02  0.1680E-02  0.7525E-03  0.7539E-03
      1.676  0.7119E-01  0.7127E-01  0.3667E-02  0.3670E-02  0.3667E-02  0.3670E-02  0.3667E-02  0.3670E-02  0.1398E-02  0.1397E-02  0.1398E-02  0.1397E-02  0.2015E-02  0.2017E-02  0.1398E-02  0.1397E-02  0.2015E-02  0.2017E-02
      1.751  0.7469E-01  0.7467E-01  0.3992E-02  0.3990E-02  0.3992E-02  0.3990E-02  0.3992E-02  0.3990E-02  0.8819E-03  0.8811E-03  0.8819E-03  0.8811E-03  0.2492E-02  0.2491E-02  0.8819E-03  0.8811E-03  0.2492E-02  0.2491E-02
      1.825  0.3734E-01  0.3729E-01  0.2019E-02  0.2015E-02  0.2019E-02  0.2015E-02  0.2019E-02  0.2015E-02  0.4134E-03  0.4126E-03  0.4134E-03  0.4126E-03  0.1278E-02  0.1275E-02  0.4134E-03  0.4126E-03  0.1278E-02  0.1275E-02
      1.900  0.1426E-01  0.1424E-01  0.8048E-03  0.8034E-03  0.8048E-03  0.8034E-03  0.8048E-03  0.8034E-03  0.3132E-03  0.3127E-03  0.3132E-03  0.3127E-03  0.4479E-03  0.4470E-03  0.3132E-03  0.3127E-03  0.4479E-03  0.4470E-03
      1.974  0.1784E-01  0.1784E-01  0.1114E-02  0.1113E-02  0.1114E-02  0.1113E-02  0.1114E-02  0.1113E-02  0.9125E-03  0.9114E-03  0.9125E-03  0.9114E-03  0.4218E-03  0.4216E-03  0.9125E-03  0.9114E-03  0.4218E-03  0.4216E-03
      2.048  0.5612E-01  0.5613E-01  0.3569E-02  0.3569E-02  0.3569E-02  0.3569E-02  0.3569E-02  0.3569E-02  0.3280E-02  0.3276E-02  0.3280E-02  0.3276E-02  0.1222E-02  0.1222E-02  0.3280E-02  0.3276E-02  0.1222E-02  0.1222E-02
      2.123  0.1279E+00  0.1279E+00  0.8105E-02  0.8103E-02  0.8105E-02  0.8103E-02  0.8105E-02  0.8103E-02  0.8000E-02  0.7986E-02  0.8000E-02  0.7986E-02  0.2729E-02  0.2729E-02  0.8000E-02  0.7986E-02  0.2729E-02  0.2729E-02
      2.197  0.1397E+00  0.1396E+00  0.8646E-02  0.8641E-02  0.8646E-02  0.8641E-02  0.8646E-02  0.8641E-02  0.1124E-01  0.1121E-01  0.1124E-01  0.1121E-01  0.2787E-02  0.2786E-02  0.1124E-01  0.1121E-01  0.2787E-02  0.2786E-02
      2.271  0.1008E+00  0.1008E+00  0.5794E-02  0.5791E-02  0.5794E-02  0.5791E-02  0.5794E-02  0.5791E-02  0.1348E-01  0.1344E-01  0.1348E-01  0.1344E-01  0.1604E-02  0.1603E-02  0.1348E-01  0.1344E-01  0.1604E-02  0.1603E-02
      2.346  0.6304E-01  0.6312E-01  0.3329E-02  0.3334E-02  0.3329E-02  0.3334E-02  0.3329E-02  0.3334E-02  0.1225E-01  0.1223E-01  0.1225E-01  0.1223E-01  0.7870E-03  0.7882E-03  0.1225E-01  0.1223E-01  0.7870E-03  0.7882E-03
      2.420  0.3492E-01  0.3487E-01  0.1501E-02  0.1502E-02  0.1501E-02  0.1502E-02  0.1501E-02  0.1502E-02  0.1213E-01  0.1205E-01  0.1213E-01  0.1205E-01  0.3034E-03  0.3042E-03  0.1213E-01  0.1205E-01  0.3034E-03  0.3042E-03
      2.495  0.3958E-01  0.3941E-01  0.1351E-02  0.1345E-02  0.1351E-02  0.1345E-02  0.1351E-02  0.1345E-02  0.2071E-01  0.2059E-01  0.2071E-01  0.2059E-01  0.2534E-03  0.2532E-03  0.2071E-01  0.2059E-01  0.2534E-03  0.2532E-03
      2.569  0.5821E-01  0.5810E-01  0.2112E-02  0.2109E-02  0.2112E-02  0.2109E-02  0.2112E-02  0.2109E-02  0.3199E-01  0.3187E-01  0.3199E-01  0.3187E-01  0.7054E-03  0.7046E-03  0.3199E-01  0.3187E-01  0.7054E-03  0.7046E-03
      2.643  0.6505E-01  0.6509E-01  0.2499E-02  0.2504E-02  0.2499E-02  0.2504E-02  0.2499E-02  0.2504E-02  0.3834E-01  0.3825E-01  0.3834E-01  0.3825E-01  0.2623E-02  0.2620E-02  0.3834E-01  0.3825E-01  0.2623E-02  0.2620E-02
      2.718  0.7353E-01  0.7369E-01  0.3885E-02  0.3887E-02  0.3885E-02  0.3887E-02  0.3885E-02  0.3887E-02  0.3617E-01  0.3628E-01  0.3617E-01  0.3628E-01  0.9163E-02  0.9153E-02  0.3617E-01  0.3628E-01  0.9163E-02  0.9153E-02