   4   4   1   0
  0.1755083E+02  0.4125272E-09  0.4125272E-09  0.4125272E-09  0.5000000E-15
  1.000000000000000E-004
  CAR 
 unknown system                          
     21.94748457     -0.83523578  301      8.57160391      1.00000000
     -0.835  0.0000E+00  0.0000E+00  0.0000E+00  0.0000E+00
     -0.759  0.0000E+00  0.0000E+00  0.0000E+00  0.0000E+00
     -0.683  0.0000E+00  0.0000E+00  0.0000E+00  0.0000E+00
     -0.607  0.0000E+00  0.0000E+00  0.0000E+00  0.0000E+00
     -0.531  0.0000E+00  0.0000E+00  0.0000E+00  0.0000E+00
     -0.456  0.0000E+00  0.0000E+00  0.0000E+00  0.0000E+00
     -0.380  0.0000E+00  0.0000E+00  0.0000E+00  0.0000E+00
     -0.304  0.0000E+00  0.0000E+00  0.0000E+00  0.0000E+00
     -0.228  0.9283E-04  0.9336E-04  0.7050E-05  0.7090E-05
     -0.152  0.3308E-03  0.3327E-03  0.3218E-04  0.3236E-04
     -0.076  0.1505E-02  0.1514E-02  0.1465E-03  0.1473E-03
      0.000  0.6758E-02  0.6796E-02  0.6597E-03  0.6634E-03
      0.076  0.2862E-01  0.2876E-01  0.2833E-02  0.2848E-02
      0.152  0.9654E-01  0.9690E-01  0.1016E-01  0.1021E-01
      0.228  0.1750E+00  0.1751E+00  0.2346E-01  0.2351E-01
      0.304  0.1239E+00  0.1236E+00  0.3287E-01  0.3289E-01
      0.380  0.4193E-01  0.4173E-01  0.3605E-01  0.3606E-01
      0.456  0.1107E-01  0.1102E-01  0.3690E-01  0.3690E-01
      0.532  0.6154E-02  0.6163E-02  0.3736E-01  0.3737E-01
      0.608  0.1736E-01  0.1745E-01  0.3873E-01  0.3874E-01
      0.684  0.7429E-01  0.7468E-01  0.4437E-01  0.4441E-01
      0.760  0.2604E+00  0.2615E+00  0.6415E-01  0.6427E-01
      0.835  0.5147E+00  0.5152E+00  0.1032E+00  0.1034E+00
      0.911  0.4023E+00  0.4012E+00  0.1338E+00  0.1339E+00
      0.987  0.1437E+00  0.1430E+00  0.1447E+00  0.1447E+00
      1.063  0.3827E-01  0.3809E-01  0.1476E+00  0.1476E+00
      1.139  0.1951E-01  0.1952E-01  0.1491E+00  0.1491E+00
      1.215  0.5182E-01  0.5206E-01  0.1530E+00  0.1531E+00
      1.291  0.1906E+00  0.1914E+00  0.1675E+00  0.1676E+00
      1.367  0.4635E+00  0.4643E+00  0.2027E+00  0.2029E+00
      1.443  0.4744E+00  0.4736E+00  0.2388E+00  0.2388E+00
      1.519  0.2037E+00  0.2029E+00  0.2542E+00  0.2543E+00
      1.595  0.6372E-01  0.6350E-01  0.2591E+00  0.2591E+00
      1.671  0.5541E-01  0.5551E-01  0.2633E+00  0.2633E+00
      1.747  0.1488E+00  0.1492E+00  0.2746E+00  0.2746E+00
      1.823  0.3148E+00  0.3155E+00  0.2985E+00  0.2986E+00
      1.899  0.5029E+00  0.5038E+00  0.3367E+00  0.3369E+00
      1.975  0.5531E+00  0.5525E+00  0.3787E+00  0.3789E+00
      2.051  0.2818E+00  0.2807E+00  0.4001E+00  0.4002E+00
      2.127  0.1038E+00  0.1034E+00  0.4080E+00  0.4080E+00
      2.202  0.1261E+00  0.1264E+00  0.4176E+00  0.4177E+00
      2.278  0.4148E+00  0.4160E+00  0.4491E+00  0.4493E+00
      2.354  0.1009E+01  0.1010E+01  0.5258E+00  0.5261E+00
      2.430  0.1181E+01  0.1180E+01  0.6155E+00  0.6157E+00
      2.506  0.9116E+00  0.9102E+00  0.6848E+00  0.6848E+00
      2.582  0.5953E+00  0.5945E+00  0.7300E+00  0.7300E+00
      2.658  0.4172E+00  0.4163E+00  0.7617E+00  0.7616E+00
      2.734  0.5746E+00  0.5737E+00  0.8053E+00  0.8051E+00
      2.810  0.8453E+00  0.8445E+00  0.8696E+00  0.8694E+00
      2.886  0.9648E+00  0.9650E+00  0.9429E+00  0.9427E+00
      2.962  0.1000E+01  0.1003E+01  0.1019E+01  0.1019E+01
      3.038  0.1274E+01  0.1277E+01  0.1116E+01  0.1116E+01
      3.114  0.1694E+01  0.1693E+01  0.1244E+01  0.1244E+01
      3.190  0.2236E+01  0.2233E+01  0.1414E+01  0.1414E+01
      3.266  0.2781E+01  0.2781E+01  0.1625E+01  0.1625E+01
      3.342  0.2687E+01  0.2688E+01  0.1830E+01  0.1830E+01
      3.418  0.2556E+01  0.2555E+01  0.2024E+01  0.2024E+01
      3.493  0.2350E+01  0.2349E+01  0.2202E+01  0.2202E+01
      3.569  0.2624E+01  0.2624E+01  0.2402E+01  0.2402E+01
      3.645  0.3089E+01  0.3087E+01  0.2637E+01  0.2636E+01
      3.721  0.3789E+01  0.3783E+01  0.2924E+01  0.2924E+01
      3.797  0.3802E+01  0.3801E+01  0.3214E+01  0.3213E+01
      3.873  0.3062E+01  0.3064E+01  0.3446E+01  0.3445E+01
      3.949  0.2325E+01  0.2326E+01  0.3623E+01  0.3622E+01
      4.025  0.2189E+01  0.2189E+01  0.3789E+01  0.3789E+01
      4.101  0.3262E+01  0.3260E+01  0.4037E+01  0.4037E+01
      4.177  0.4157E+01  0.4157E+01  0.4353E+01  0.4353E+01
      4.253  0.3244E+01  0.3247E+01  0.4600E+01  0.4599E+01
      4.329  0.2232E+01  0.2235E+01  0.4769E+01  0.4769E+01
      4.405  0.1586E+01  0.1586E+01  0.4890E+01  0.4890E+01
      4.481  0.1790E+01  0.1785E+01  0.5026E+01  0.5025E+01
      4.557  0.2683E+01  0.2682E+01  0.5230E+01  0.5229E+01
      4.633  0.3217E+01  0.3221E+01  0.5475E+01  0.5474E+01
      4.709  0.3441E+01  0.3443E+01  0.5736E+01  0.5736E+01
      4.785  0.2975E+01  0.2975E+01  0.5962E+01  0.5962E+01
      4.860  0.2696E+01  0.2693E+01  0.6167E+01  0.6166E+01
      4.936  0.2931E+01  0.2930E+01  0.6390E+01  0.6389E+01
      5.012  0.2994E+01  0.2991E+01  0.6617E+01  0.6616E+01
      5.088  0.3964E+01  0.3960E+01  0.6918E+01  0.6917E+01
      5.164  0.5015E+01  0.5015E+01  0.7299E+01  0.7298E+01
      5.240  0.4588E+01  0.4591E+01  0.7648E+01  0.7647E+01
      5.316  0.3250E+01  0.3253E+01  0.7895E+01  0.7894E+01
      5.392  0.2736E+01  0.2734E+01  0.8103E+01  0.8102E+01
      5.468  0.3621E+01  0.3613E+01  0.8378E+01  0.8377E+01
      5.544  0.5323E+01  0.5317E+01  0.8782E+01  0.8781E+01
      5.620  0.5198E+01  0.5204E+01  0.9178E+01  0.9176E+01
      5.696  0.4062E+01  0.4066E+01  0.9486E+01  0.9485E+01
      5.772  0.3897E+01  0.3895E+01  0.9782E+01  0.9781E+01
      5.848  0.4835E+01  0.4829E+01  0.1015E+02  0.1015E+02
      5.924  0.5406E+01  0.5401E+01  0.1056E+02  0.1056E+02
      6.000  0.5905E+01  0.5903E+01  0.1101E+02  0.1101E+02
      6.076  0.5707E+01  0.5717E+01  0.1144E+02  0.1144E+02
      6.151  0.4490E+01  0.4500E+01  0.1178E+02  0.1178E+02
      6.227  0.3491E+01  0.3493E+01  0.1205E+02  0.1205E+02
      6.303  0.3298E+01  0.3293E+01  0.1230E+02  0.1230E+02
      6.379  0.3676E+01  0.3674E+01  0.1258E+02  0.1258E+02
      6.455  0.3173E+01  0.3177E+01  0.1282E+02  0.1282E+02
      6.531  0.2287E+01  0.2291E+01  0.1299E+02  0.1299E+02
      6.607  0.2253E+01  0.2254E+01  0.1317E+02  0.1317E+02
      6.683  0.2613E+01  0.2612E+01  0.1336E+02  0.1336E+02
      6.759  0.2729E+01  0.2726E+01  0.1357E+02  0.1357E+02
      6.835  0.2833E+01  0.2831E+01  0.1379E+02  0.1379E+02
      6.911  0.3673E+01  0.3671E+01  0.1407E+02  0.1407E+02
      6.987  0.4389E+01  0.4390E+01  0.1440E+02  0.1440E+02
      7.063  0.4631E+01  0.4629E+01  0.1475E+02  0.1475E+02
      7.139  0.4720E+01  0.4722E+01  0.1511E+02  0.1511E+02
      7.215  0.4111E+01  0.4117E+01  0.1542E+02  0.1542E+02
      7.291  0.3053E+01  0.3058E+01  0.1565E+02  0.1565E+02
      7.367  0.2027E+01  0.2028E+01  0.1581E+02  0.1581E+02
      7.442  0.1927E+01  0.1925E+01  0.1596E+02  0.1596E+02
      7.518  0.2461E+01  0.2458E+01  0.1614E+02  0.1614E+02
      7.594  0.3132E+01  0.3127E+01  0.1638E+02  0.1638E+02
      7.670  0.3466E+01  0.3464E+01  0.1664E+02  0.1664E+02
      7.746  0.3640E+01  0.3636E+01  0.1692E+02  0.1692E+02
      7.822  0.4647E+01  0.4645E+01  0.1727E+02  0.1727E+02
      7.898  0.4134E+01  0.4142E+01  0.1759E+02  0.1759E+02
      7.974  0.2413E+01  0.2419E+01  0.1777E+02  0.1777E+02
      8.050  0.1577E+01  0.1576E+01  0.1789E+02  0.1789E+02
      8.126  0.2120E+01  0.2116E+01  0.1805E+02  0.1805E+02
      8.202  0.3245E+01  0.3237E+01  0.1830E+02  0.1830E+02
      8.278  0.4601E+01  0.4590E+01  0.1865E+02  0.1865E+02
      8.354  0.5353E+01  0.5354E+01  0.1906E+02  0.1905E+02
      8.430  0.4772E+01  0.4775E+01  0.1942E+02  0.1942E+02
      8.506  0.4411E+01  0.4413E+01  0.1975E+02  0.1975E+02
      8.582  0.3685E+01  0.3690E+01  0.2003E+02  0.2003E+02
      8.658  0.2883E+01  0.2884E+01  0.2025E+02  0.2025E+02
      8.734  0.3056E+01  0.3049E+01  0.2048E+02  0.2048E+02
      8.809  0.3501E+01  0.3503E+01  0.2075E+02  0.2075E+02
      8.885  0.2432E+01  0.2443E+01  0.2094E+02  0.2094E+02
      8.961  0.1498E+01  0.1502E+01  0.2105E+02  0.2105E+02
      9.037  0.1939E+01  0.1937E+01  0.2120E+02  0.2120E+02
      9.113  0.2283E+01  0.2284E+01  0.2137E+02  0.2137E+02
      9.189  0.1572E+01  0.1576E+01  0.2149E+02  0.2149E+02
      9.265  0.6305E+00  0.6330E+00  0.2154E+02  0.2154E+02
      9.341  0.1704E+00  0.1713E+00  0.2155E+02  0.2155E+02
      9.417  0.3937E-01  0.3958E-01  0.2155E+02  0.2155E+02
      9.493  0.7218E-02  0.7256E-02  0.2156E+02  0.2156E+02
      9.569  0.1051E-02  0.1056E-02  0.2156E+02  0.2156E+02
      9.645  0.5379E-02  0.5400E-02  0.2156E+02  0.2156E+02
      9.721  0.2428E-01  0.2437E-01  0.2156E+02  0.2156E+02
      9.797  0.1026E+00  0.1030E+00  0.2157E+02  0.2157E+02
      9.873  0.3553E+00  0.3561E+00  0.2159E+02  0.2159E+02
      9.949  0.7616E+00  0.7612E+00  0.2165E+02  0.2165E+02
     10.025  0.1179E+01  0.1177E+01  0.2174E+02  0.2174E+02
     10.100  0.1845E+01  0.1843E+01  0.2188E+02  0.2188E+02
     10.176  0.1810E+01  0.1810E+01  0.2202E+02  0.2202E+02
     10.252  0.9143E+00  0.9162E+00  0.2209E+02  0.2209E+02
     10.328  0.3482E+00  0.3487E+00  0.2211E+02  0.2211E+02
     10.404  0.4005E+00  0.3996E+00  0.2214E+02  0.2214E+02
     10.480  0.8890E+00  0.8876E+00  0.2221E+02  0.2221E+02
     10.556  0.9877E+00  0.9887E+00  0.2229E+02  0.2229E+02
     10.632  0.4508E+00  0.4521E+00  0.2232E+02  0.2232E+02
     10.708  0.1257E+00  0.1261E+00  0.2233E+02  0.2233E+02
     10.784  0.4084E-01  0.4093E-01  0.2233E+02  0.2233E+02
     10.860  0.6090E-01  0.6083E-01  0.2234E+02  0.2234E+02
     10.936  0.2063E+00  0.2060E+00  0.2235E+02  0.2235E+02
     11.012  0.4955E+00  0.4952E+00  0.2239E+02  0.2239E+02
     11.088  0.5574E+00  0.5575E+00  0.2243E+02  0.2243E+02
     11.164  0.5586E+00  0.5584E+00  0.2248E+02  0.2248E+02
     11.240  0.1039E+01  0.1039E+01  0.2256E+02  0.2256E+02
     11.316  0.1362E+01  0.1363E+01  0.2266E+02  0.2266E+02
     11.391  0.9913E+00  0.9919E+00  0.2273E+02  0.2273E+02
     11.467  0.4313E+00  0.4310E+00  0.2277E+02  0.2277E+02
     11.543  0.1602E+00  0.1599E+00  0.2278E+02  0.2278E+02
     11.619  0.2082E+00  0.2078E+00  0.2280E+02  0.2280E+02
     11.695  0.6058E+00  0.6049E+00  0.2284E+02  0.2284E+02
     11.771  0.1055E+01  0.1055E+01  0.2292E+02  0.2292E+02
     11.847  0.7215E+00  0.7225E+00  0.2298E+02  0.2298E+02
     11.923  0.2393E+00  0.2398E+00  0.2299E+02  0.2299E+02
     11.999  0.6437E-01  0.6452E-01  0.2300E+02  0.2300E+02
     12.075  0.4179E-01  0.4187E-01  0.2300E+02  0.2300E+02
     12.151  0.1249E+00  0.1251E+00  0.2301E+02  0.2301E+02
     12.227  0.4560E+00  0.4566E+00  0.2305E+02  0.2305E+02
     12.303  0.9972E+00  0.9977E+00  0.2312E+02  0.2312E+02
     12.379  0.9021E+00  0.9014E+00  0.2319E+02  0.2319E+02
     12.455  0.4600E+00  0.4592E+00  0.2323E+02  0.2323E+02
     12.531  0.5511E+00  0.5501E+00  0.2327E+02  0.2327E+02
     12.607  0.1114E+01  0.1113E+01  0.2335E+02  0.2335E+02
     12.683  0.1324E+01  0.1324E+01  0.2345E+02  0.2345E+02
     12.758  0.1320E+01  0.1320E+01  0.2355E+02  0.2355E+02
     12.834  0.9893E+00  0.9900E+00  0.2363E+02  0.2363E+02
     12.910  0.3768E+00  0.3773E+00  0.2366E+02  0.2366E+02
     12.986  0.9684E-01  0.9699E-01  0.2366E+02  0.2366E+02
     13.062  0.2114E-01  0.2117E-01  0.2367E+02  0.2367E+02
     13.138  0.5450E-02  0.5454E-02  0.2367E+02  0.2367E+02
     13.214  0.3905E-02  0.3892E-02  0.2367E+02  0.2367E+02
     13.290  0.1709E-01  0.1704E-01  0.2367E+02  0.2367E+02
     13.366  0.7639E-01  0.7614E-01  0.2367E+02  0.2367E+02
     13.442  0.3134E+00  0.3125E+00  0.2370E+02  0.2370E+02
     13.518  0.9733E+00  0.9718E+00  0.2377E+02  0.2377E+02
     13.594  0.1765E+01  0.1765E+01  0.2391E+02  0.2391E+02
     13.670  0.2082E+01  0.2082E+01  0.2406E+02  0.2406E+02
     13.746  0.1745E+01  0.1745E+01  0.2420E+02  0.2420E+02
     13.822  0.1394E+01  0.1393E+01  0.2430E+02  0.2430E+02
     13.898  0.1161E+01  0.1161E+01  0.2439E+02  0.2439E+02
     13.974  0.5238E+00  0.5247E+00  0.2443E+02  0.2443E+02
     14.049  0.1486E+00  0.1489E+00  0.2444E+02  0.2444E+02
     14.125  0.6510E-01  0.6523E-01  0.2445E+02  0.2445E+02
     14.201  0.1412E+00  0.1414E+00  0.2446E+02  0.2446E+02
     14.277  0.3876E+00  0.3879E+00  0.2449E+02  0.2449E+02
     14.353  0.5204E+00  0.5203E+00  0.2453E+02  0.2453E+02
     14.429  0.2744E+00  0.2741E+00  0.2455E+02  0.2455E+02
     14.505  0.7983E-01  0.7971E-01  0.2455E+02  0.2455E+02
     14.581  0.1933E-01  0.1931E-01  0.2456E+02  0.2456E+02
     14.657  0.7381E-02  0.7378E-02  0.2456E+02  0.2456E+02
     14.733  0.1436E-01  0.1438E-01  0.2456E+02  0.2456E+02
     14.809  0.5797E-01  0.5802E-01  0.2456E+02  0.2456E+02
     14.885  0.1750E+00  0.1751E+00  0.2457E+02  0.2457E+02
     14.961  0.3360E+00  0.3363E+00  0.2460E+02  0.2460E+02
     15.037  0.7117E+00  0.7127E+00  0.2465E+02  0.2465E+02
     15.113  0.1612E+01  0.1614E+01  0.2478E+02  0.2478E+02
     15.189  0.2190E+01  0.2190E+01  0.2494E+02  0.2494E+02
     15.265  0.1991E+01  0.1990E+01  0.2509E+02  0.2509E+02
     15.340  0.1809E+01  0.1808E+01  0.2523E+02  0.2523E+02
     15.416  0.1364E+01  0.1363E+01  0.2534E+02  0.2534E+02
     15.492  0.9348E+00  0.9338E+00  0.2541E+02  0.2541E+02
     15.568  0.1118E+01  0.1118E+01  0.2549E+02  0.2549E+02
     15.644  0.8911E+00  0.8916E+00  0.2556E+02  0.2556E+02
     15.720  0.3339E+00  0.3342E+00  0.2558E+02  0.2558E+02
     15.796  0.8587E-01  0.8598E-01  0.2559E+02  0.2559E+02
     15.872  0.2874E-01  0.2880E-01  0.2559E+02  0.2559E+02
     15.948  0.4782E-01  0.4799E-01  0.2560E+02  0.2560E+02
     16.024  0.1875E+00  0.1882E+00  0.2561E+02  0.2561E+02
     16.100  0.6712E+00  0.6729E+00  0.2566E+02  0.2566E+02
     16.176  0.1464E+01  0.1465E+01  0.2577E+02  0.2577E+02
     16.252  0.1592E+01  0.1590E+01  0.2589E+02  0.2589E+02
     16.328  0.1112E+01  0.1110E+01  0.2598E+02  0.2598E+02
     16.404  0.5477E+00  0.5471E+00  0.2602E+02  0.2602E+02
     16.480  0.1700E+00  0.1699E+00  0.2603E+02  0.2603E+02
     16.556  0.3925E-01  0.3924E-01  0.2604E+02  0.2604E+02
     16.632  0.1494E-01  0.1498E-01  0.2604E+02  0.2604E+02
     16.707  0.3412E-01  0.3431E-01  0.2604E+02  0.2604E+02
     16.783  0.1395E+00  0.1402E+00  0.2605E+02  0.2605E+02
     16.859  0.4228E+00  0.4241E+00  0.2608E+02  0.2608E+02
     16.935  0.6894E+00  0.6897E+00  0.2614E+02  0.2614E+02
     17.011  0.7175E+00  0.7173E+00  0.2619E+02  0.2619E+02
     17.087  0.5838E+00  0.5828E+00  0.2623E+02  0.2623E+02
     17.163  0.2693E+00  0.2685E+00  0.2625E+02  0.2625E+02
     17.239  0.1606E+00  0.1605E+00  0.2627E+02  0.2627E+02
     17.315  0.3853E+00  0.3860E+00  0.2630E+02  0.2630E+02
     17.391  0.1044E+01  0.1045E+01  0.2638E+02  0.2638E+02
     17.467  0.1593E+01  0.1595E+01  0.2650E+02  0.2650E+02
     17.543  0.1642E+01  0.1642E+01  0.2662E+02  0.2662E+02
     17.619  0.1366E+01  0.1364E+01  0.2672E+02  0.2673E+02
     17.695  0.1296E+01  0.1295E+01  0.2682E+02  0.2682E+02
     17.771  0.9142E+00  0.9134E+00  0.2689E+02  0.2689E+02
     17.847  0.3280E+00  0.3277E+00  0.2692E+02  0.2692E+02
     17.923  0.8100E-01  0.8094E-01  0.2692E+02  0.2692E+02
     17.998  0.2555E-01  0.2561E-01  0.2693E+02  0.2693E+02
     18.074  0.3877E-01  0.3912E-01  0.2693E+02  0.2693E+02
     18.150  0.1399E+00  0.1412E+00  0.2694E+02  0.2694E+02
     18.226  0.4092E+00  0.4114E+00  0.2697E+02  0.2697E+02
     18.302  0.6043E+00  0.6043E+00  0.2702E+02  0.2702E+02
     18.378  0.6231E+00  0.6243E+00  0.2706E+02  0.2706E+02
     18.454  0.1196E+01  0.1203E+01  0.2716E+02  0.2716E+02
     18.530  0.1969E+01  0.1975E+01  0.2730E+02  0.2731E+02
     18.606  0.1540E+01  0.1532E+01  0.2742E+02  0.2742E+02
     18.682  0.5976E+00  0.5903E+00  0.2747E+02  0.2747E+02
     18.758  0.1802E+00  0.1780E+00  0.2748E+02  0.2748E+02
     18.834  0.1447E+00  0.1450E+00  0.2749E+02  0.2749E+02
     18.910  0.3505E+00  0.3520E+00  0.2752E+02  0.2752E+02
     18.986  0.5474E+00  0.5458E+00  0.2756E+02  0.2756E+02
     19.062  0.3962E+00  0.3885E+00  0.2759E+02  0.2759E+02
     19.138  0.3895E+00  0.3730E+00  0.2762E+02  0.2762E+02
     19.214  0.7648E+00  0.7713E+00  0.2768E+02  0.2768E+02
     19.290  0.1075E+01  0.1171E+01  0.2776E+02  0.2777E+02
     19.365  0.1252E+01  0.1317E+01  0.2785E+02  0.2787E+02
     19.441  0.9514E+00  0.8807E+00  0.2793E+02  0.2793E+02
     19.517  0.3568E+00  0.3033E+00  0.2795E+02  0.2796E+02
     19.593  0.9107E-01  0.7519E-01  0.2796E+02  0.2796E+02
     19.669  0.1988E-01  0.1607E-01  0.2796E+02  0.2796E+02
     19.745  0.4389E-02  0.3543E-02  0.2796E+02  0.2796E+02
     19.821  0.0000E+00  0.0000E+00  0.2796E+02  0.2796E+02
     19.897  0.0000E+00  0.0000E+00  0.2796E+02  0.2796E+02
     19.973  0.0000E+00  0.0000E+00  0.2796E+02  0.2796E+02
     20.049  0.0000E+00  0.0000E+00  0.2796E+02  0.2796E+02
     20.125  0.0000E+00  0.0000E+00  0.2796E+02  0.2796E+02
     20.201  0.0000E+00  0.0000E+00  0.2796E+02  0.2796E+02
     20.277  0.0000E+00  0.0000E+00  0.2796E+02  0.2796E+02
     20.353  0.0000E+00  0.0000E+00  0.2796E+02  0.2796E+02
     20.429  0.0000E+00  0.0000E+00  0.2796E+02  0.2796E+02
     20.505  0.1413E-03  0.1464E-03  0.2796E+02  0.2796E+02
     20.581  0.5032E-03  0.5216E-03  0.2796E+02  0.2796E+02
     20.656  0.2285E-02  0.2368E-02  0.2796E+02  0.2796E+02
     20.732  0.1017E-01  0.1053E-01  0.2796E+02  0.2796E+02
     20.808  0.4149E-01  0.4279E-01  0.2797E+02  0.2797E+02
     20.884  0.1236E+00  0.1259E+00  0.2798E+02  0.2798E+02
     20.960  0.1751E+00  0.1745E+00  0.2799E+02  0.2799E+02
     21.036  0.9690E-01  0.9465E-01  0.2800E+02  0.2800E+02
     21.112  0.2876E-01  0.2784E-01  0.2800E+02  0.2800E+02
     21.188  0.6796E-02  0.6561E-02  0.2800E+02  0.2800E+02
     21.264  0.1514E-02  0.1461E-02  0.2800E+02  0.2800E+02
     21.340  0.0000E+00  0.0000E+00  0.2800E+02  0.2800E+02
     21.416  0.0000E+00  0.0000E+00  0.2800E+02  0.2800E+02
     21.492  0.0000E+00  0.0000E+00  0.2800E+02  0.2800E+02
     21.568  0.0000E+00  0.0000E+00  0.2800E+02  0.2800E+02
     21.644  0.0000E+00  0.0000E+00  0.2800E+02  0.2800E+02
     21.720  0.0000E+00  0.0000E+00  0.2800E+02  0.2800E+02
     21.796  0.0000E+00  0.0000E+00  0.2800E+02  0.2800E+02
     21.872  0.0000E+00  0.0000E+00  0.2800E+02  0.2800E+02
     21.947  0.0000E+00  0.0000E+00  0.2800E+02  0.2800E+02
     21.94748457     -0.83523578  301      8.57160391      1.00000000
     -0.835  0.0000E+00  0.0000E+00  0.0000E+00  0.0000E+00  0.0000E+00  0.0000E+00  0.0000E+00  0.0000E+00  0.0000E+00  0.0000E+00  0.0000E+00  0.0000E+00  0.0000E+00  0.0000E+00  0.0000E+00  0.0000E+00  0.0000E+00  0.0000E+00
     -0.759  0.0000E+00  0.0000E+00  0.0000E+00  0.0000E+00  0.0000E+00  0.0000E+00  0.0000E+00  0.0000E+00  0.0000E+00  0.0000E+00  0.0000E+00  0.0000E+00  0.0000E+00  0.0000E+00  0.0000E+00  0.0000E+00  0.0000E+00  0.0000E+00
     -0.683  0.0000E+00  0.0000E+00  0.0000E+00  0.0000E+00  0.0000E+00  0.0000E+00  0.0000E+00  0.0000E+00  0.0000E+00  0.0000E+00  0.0000E+00  0.0000E+00  0.0000E+00  0.0000E+00  0.0000E+00  0.0000E+00  0.0000E+00  0.0000E+00
     -0.607  0.0000E+00  0.0000E+00  0.0000E+00  0.0000E+00  0.0000E+00  0.0000E+00  0.0000E+00  0.0000E+00  0.0000E+00  0.0000E+00  0.0000E+00  0.0000E+00  0.0000E+00  0.0000E+00  0.0000E+00  0.0000E+00  0.0000E+00  0.0000E+00
     -0.531  0.0000E+00  0.0000E+00  0.0000E+00  0.0000E+00  0.0000E+00  0.0000E+00  0.0000E+00  0.0000E+00  0.0000E+00  0.0000E+00  0.0000E+00  0.0000E+00  0.0000E+00  0.0000E+00  0.0000E+00  0.0000E+00  0.0000E+00  0.0000E+00
     -0.456  0.0000E+00  0.0000E+00  0.0000E+00  0.0000E+00  0.0000E+00  0.0000E+00  0.0000E+00  0.0000E+00  0.0000E+00  0.0000E+00  0.0000E+00  0.0000E+00  0.0000E+00  0.0000E+00  0.0000E+00  0.0000E+00  0.0000E+00  0.0000E+00
     -0.380  0.0000E+00  0.0000E+00  0.0000E+00  0.0000E+00  0.0000E+00  0.0000E+00  0.0000E+00  0.0000E+00  0.0000E+00  0.0000E+00  0.0000E+00  0.0000E+00  0.0000E+00  0.0000E+00  0.0000E+00  0.0000E+00  0.0000E+00  0.0000E+00
     -0.304  0.0000E+00  0.0000E+00  0.0000E+00  0.0000E+00  0.0000E+00  0.0000E+00  0.0000E+00  0.0000E+00  0.0000E+00  0.0000E+00  0.0000E+00  0.0000E+00  0.0000E+00  0.0000E+00  0.0000E+00  0.0000E+00  0.0000E+00  0.0000E+00
     -0.228  0.1584E-04  0.1593E-04  0.9604E-07  0.9660E-07  0.9604E-07  0.9660E-07  0.9604E-07  0.9660E-07  0.5794E-08  0.5826E-08  0.5794E-08  0.5826E-08  0.2221E-21  0.8608E-21  0.5794E-08  0.5826E-08  0.2221E-21  0.8608E-21
     -0.152  0.5646E-04  0.5677E-04  0.3423E-06  0.3443E-06  0.3423E-06  0.3443E-06  0.3423E-06  0.3443E-06  0.2065E-07  0.2076E-07  0.2065E-07  0.2076E-07  0.7915E-21  0.3068E-20  0.2065E-07  0.2076E-07  0.7915E-21  0.3068E-20
     -0.076  0.2569E-03  0.2583E-03  0.1557E-05  0.1566E-05  0.1557E-05  0.1566E-05  0.1557E-05  0.1566E-05  0.9395E-07  0.9446E-07  0.9395E-07  0.9446E-07  0.3601E-20  0.1396E-19  0.9395E-07  0.9446E-07  0.3601E-20  0.1396E-19
      0.000  0.1153E-02  0.1159E-02  0.6991E-05  0.7031E-05  0.6991E-05  0.7031E-05  0.6991E-05  0.7031E-05  0.4218E-06  0.4240E-06  0.4218E-06  0.4240E-06  0.1617E-19  0.6265E-19  0.4218E-06  0.4240E-06  0.1617E-19  0.6265E-19
      0.076  0.4884E-02  0.4908E-02  0.2960E-04  0.2976E-04  0.2960E-04  0.2976E-04  0.2960E-04  0.2976E-04  0.1786E-05  0.1795E-05  0.1786E-05  0.1795E-05  0.6846E-19  0.2652E-18  0.1786E-05  0.1795E-05  0.6846E-19  0.2652E-18
      0.152  0.1648E-01  0.1653E-01  0.9987E-04  0.1003E-03  0.9987E-04  0.1003E-03  0.9987E-04  0.1003E-03  0.6026E-05  0.6046E-05  0.6026E-05  0.6046E-05  0.2310E-18  0.8934E-18  0.6026E-05  0.6046E-05  0.2310E-18  0.8934E-18
      0.228  0.2987E-01  0.2988E-01  0.1811E-03  0.1812E-03  0.1811E-03  0.1812E-03  0.1811E-03  0.1812E-03  0.1093E-04  0.1093E-04  0.1093E-04  0.1093E-04  0.4188E-18  0.1615E-17  0.1093E-04  0.1093E-04  0.4188E-18  0.1615E-17
      0.304  0.2115E-01  0.2109E-01  0.1282E-03  0.1279E-03  0.1282E-03  0.1279E-03  0.1282E-03  0.1279E-03  0.7736E-05  0.7711E-05  0.7736E-05  0.7711E-05  0.2965E-18  0.1139E-17  0.7736E-05  0.7711E-05  0.2965E-18  0.1139E-17
      0.380  0.7154E-02  0.7118E-02  0.4399E-04  0.4379E-04  0.4399E-04  0.4379E-04  0.4399E-04  0.4379E-04  0.2702E-05  0.2689E-05  0.2702E-05  0.2689E-05  0.8774E-07  0.8824E-07  0.2702E-05  0.2689E-05  0.8774E-07  0.8824E-07
      0.456  0.1882E-02  0.1873E-02  0.1363E-04  0.1359E-04  0.1363E-04  0.1359E-04  0.1363E-04  0.1359E-04  0.9940E-06  0.9922E-06  0.9940E-06  0.9922E-06  0.3127E-06  0.3145E-06  0.9940E-06  0.9922E-06  0.3127E-06  0.3145E-06
      0.532  0.1015E-02  0.1016E-02  0.1628E-04  0.1634E-04  0.1628E-04  0.1634E-04  0.1628E-04  0.1634E-04  0.1763E-05  0.1771E-05  0.1763E-05  0.1771E-05  0.1424E-05  0.1432E-05  0.1763E-05  0.1771E-05  0.1424E-05  0.1432E-05
      0.608  0.2802E-02  0.2817E-02  0.6255E-04  0.6291E-04  0.6255E-04  0.6291E-04  0.6255E-04  0.6291E-04  0.7290E-05  0.7328E-05  0.7290E-05  0.7328E-05  0.6407E-05  0.6443E-05  0.7290E-05  0.7328E-05  0.6407E-05  0.6443E-05
      0.684  0.1199E-01  0.1205E-01  0.2677E-03  0.2692E-03  0.2677E-03  0.2692E-03  0.2677E-03  0.2692E-03  0.3120E-04  0.3135E-04  0.3120E-04  0.3135E-04  0.2742E-04  0.2757E-04  0.3120E-04  0.3135E-04  0.2742E-04  0.2757E-04
      0.760  0.4205E-01  0.4220E-01  0.9386E-03  0.9424E-03  0.9386E-03  0.9424E-03  0.9386E-03  0.9424E-03  0.1094E-03  0.1098E-03  0.1094E-03  0.1098E-03  0.9614E-04  0.9652E-04  0.1094E-03  0.1098E-03  0.9614E-04  0.9652E-04
      0.835  0.8310E-01  0.8315E-01  0.1855E-02  0.1857E-02  0.1855E-02  0.1857E-02  0.1855E-02  0.1857E-02  0.2162E-03  0.2163E-03  0.2162E-03  0.2163E-03  0.1900E-03  0.1902E-03  0.2162E-03  0.2163E-03  0.1900E-03  0.1902E-03
      0.911  0.6494E-01  0.6476E-01  0.1450E-02  0.1446E-02  0.1450E-02  0.1446E-02  0.1450E-02  0.1446E-02  0.1693E-03  0.1688E-03  0.1693E-03  0.1688E-03  0.1485E-03  0.1481E-03  0.1693E-03  0.1688E-03  0.1485E-03  0.1481E-03
      0.987  0.2319E-01  0.2308E-01  0.5189E-03  0.5165E-03  0.5189E-03  0.5165E-03  0.5189E-03  0.5165E-03  0.6148E-04  0.6118E-04  0.6148E-04  0.6118E-04  0.5297E-04  0.5273E-04  0.6148E-04  0.6118E-04  0.5297E-04  0.5273E-04
      1.063  0.6153E-02  0.6122E-02  0.1427E-03  0.1421E-03  0.1427E-03  0.1421E-03  0.1427E-03  0.1421E-03  0.2124E-04  0.2119E-04  0.2124E-04  0.2119E-04  0.1383E-04  0.1376E-04  0.2124E-04  0.2119E-04  0.1383E-04  0.1376E-04
      1.139  0.3033E-02  0.3034E-02  0.9198E-04  0.9216E-04  0.9198E-04  0.9216E-04  0.9198E-04  0.9216E-04  0.3158E-04  0.3170E-04  0.3158E-04  0.3170E-04  0.5861E-05  0.5860E-05  0.3158E-04  0.3170E-04  0.5861E-05  0.5860E-05
      1.215  0.7858E-02  0.7892E-02  0.2816E-03  0.2830E-03  0.2816E-03  0.2830E-03  0.2816E-03  0.2830E-03  0.1241E-03  0.1246E-03  0.1241E-03  0.1246E-03  0.1327E-04  0.1333E-04  0.1241E-03  0.1246E-03  0.1327E-04  0.1333E-04
      1.291  0.2883E-01  0.2894E-01  0.1048E-02  0.1053E-02  0.1048E-02  0.1053E-02  0.1048E-02  0.1053E-02  0.4697E-03  0.4714E-03  0.4697E-03  0.4714E-03  0.4803E-04  0.4824E-04  0.4697E-03  0.4714E-03  0.4803E-04  0.4824E-04
      1.367  0.7012E-01  0.7023E-01  0.2549E-02  0.2554E-02  0.2549E-02  0.2554E-02  0.2549E-02  0.2554E-02  0.1143E-02  0.1145E-02  0.1143E-02  0.1145E-02  0.1168E-03  0.1170E-03  0.1143E-02  0.1145E-02  0.1168E-03  0.1170E-03
      1.443  0.7176E-01  0.7163E-01  0.2609E-02  0.2605E-02  0.2609E-02  0.2605E-02  0.2609E-02  0.2605E-02  0.1172E-02  0.1169E-02  0.1172E-02  0.1169E-02  0.1195E-03  0.1193E-03  0.1172E-02  0.1169E-02  0.1195E-03  0.1193E-03
      1.519  0.3078E-01  0.3065E-01  0.1122E-02  0.1117E-02  0.1122E-02  0.1117E-02  0.1122E-02  0.1117E-02  0.5134E-03  0.5113E-03  0.5134E-03  0.5113E-03  0.5313E-04  0.5295E-04  0.5134E-03  0.5113E-03  0.5313E-04  0.5295E-04
      1.595  0.9496E-02  0.9460E-02  0.3561E-03  0.3550E-03  0.3561E-03  0.3550E-03  0.3561E-03  0.3550E-03  0.2089E-03  0.2084E-03  0.2089E-03  0.2084E-03  0.2203E-04  0.2202E-04  0.2089E-03  0.2084E-03  0.2203E-04  0.2202E-04
      1.671  0.7775E-02  0.7789E-02  0.3300E-03  0.3306E-03  0.3300E-03  0.3306E-03  0.3300E-03  0.3306E-03  0.3510E-03  0.3517E-03  0.3510E-03  0.3517E-03  0.4189E-04  0.4209E-04  0.3510E-03  0.3517E-03  0.4189E-04  0.4209E-04
      1.747  0.2047E-01  0.2054E-01  0.9207E-03  0.9234E-03  0.9207E-03  0.9234E-03  0.9207E-03  0.9234E-03  0.1031E-02  0.1032E-02  0.1031E-02  0.1032E-02  0.1728E-03  0.1737E-03  0.1031E-02  0.1032E-02  0.1728E-03  0.1737E-03
      1.823  0.4339E-01  0.4350E-01  0.2084E-02  0.2089E-02  0.2084E-02  0.2089E-02  0.2084E-02  0.2089E-02  0.1715E-02  0.1715E-02  0.1715E-02  0.1715E-02  0.6926E-03  0.6960E-03  0.1715E-02  0.1715E-02  0.6926E-03  0.6960E-03
      1.899  0.6972E-01  0.6986E-01  0.3688E-02  0.3695E-02  0.3688E-02  0.3695E-02  0.3688E-02  0.3695E-02  0.1409E-02  0.1408E-02  0.1409E-02  0.1408E-02  0.1978E-02  0.1983E-02  0.1409E-02  0.1408E-02  0.1978E-02  0.1983E-02
      1.975  0.7686E-01  0.7681E-01  0.4233E-02  0.4228E-02  0.4233E-02  0.4228E-02  0.4233E-02  0.4228E-02  0.8998E-03  0.8980E-03  0.8998E-03  0.8980E-03  0.2602E-02  0.2599E-02  0.8998E-03  0.8980E-03  0.2602E-02  0.2599E-02
      2.051  0.3912E-01  0.3898E-01  0.2178E-02  0.2169E-02  0.2178E-02  0.2169E-02  0.2178E-02  0.2169E-02  0.4203E-03  0.4188E-03  0.4203E-03  0.4188E-03  0.1360E-02  0.1355E-02  0.4203E-03  0.4188E-03  0.1360E-02  0.1355E-02
      2.127  0.1413E-01  0.1409E-01  0.8171E-03  0.8145E-03  0.8171E-03  0.8145E-03  0.8171E-03  0.8145E-03  0.2883E-03  0.2884E-03  0.2883E-03  0.2884E-03  0.4558E-03  0.4540E-03  0.2883E-03  0.2884E-03  0.4558E-03  0.4540E-03
      2.202  0.1624E-01  0.1628E-01  0.1040E-02  0.1043E-02  0.1040E-02  0.1043E-02  0.1040E-02  0.1043E-02  0.8283E-03  0.8308E-03  0.8283E-03  0.8308E-03  0.3892E-03  0.3899E-03  0.8283E-03  0.8308E-03  0.3892E-03  0.3899E-03
      2.278  0.5268E-01  0.5286E-01  0.3446E-02  0.3456E-02  0.3446E-02  0.3456E-02  0.3446E-02  0.3456E-02  0.3110E-02  0.3118E-02  0.3110E-02  0.3118E-02  0.1151E-02  0.1155E-02  0.3110E-02  0.3118E-02  0.1151E-02  0.1155E-02
      2.354  0.1274E+00  0.1276E+00  0.8307E-02  0.8316E-02  0.8307E-02  0.8316E-02  0.8307E-02  0.8316E-02  0.8064E-02  0.8070E-02  0.8064E-02  0.8070E-02  0.2728E-02  0.2732E-02  0.8064E-02  0.8070E-02  0.2728E-02  0.2732E-02
      2.430  0.1455E+00  0.1454E+00  0.9255E-02  0.9243E-02  0.9255E-02  0.9243E-02  0.9255E-02  0.9243E-02  0.1187E-01  0.1186E-01  0.1187E-01  0.1186E-01  0.2909E-02  0.2906E-02  0.1187E-01  0.1186E-01  0.2909E-02  0.2906E-02
      2.506  0.1048E+00  0.1047E+00  0.6173E-02  0.6162E-02  0.6173E-02  0.6162E-02  0.6173E-02  0.6162E-02  0.1421E-01  0.1420E-01  0.1421E-01  0.1420E-01  0.1669E-02  0.1666E-02  0.1421E-01  0.1420E-01  0.1669E-02  0.1666E-02
      2.582  0.6301E-01  0.6295E-01  0.3368E-02  0.3364E-02  0.3368E-02  0.3364E-02  0.3368E-02  0.3364E-02  0.1283E-01  0.1280E-01  0.1283E-01  0.1280E-01  0.7765E-03  0.7755E-03  0.1283E-01  0.1280E-01  0.7765E-03  0.7755E-03
      2.658  0.3630E-01  0.3624E-01  0.1514E-02  0.1511E-02  0.1514E-02  0.1511E-02  0.1514E-02  0.1511E-02  0.1378E-01  0.1374E-01  0.1378E-01  0.1374E-01  0.2860E-03  0.2858E-03  0.1378E-01  0.1374E-01  0.2860E-03  0.2858E-03
      2.734  0.4317E-01  0.4312E-01  0.1501E-02  0.1499E-02  0.1501E-02  0.1499E-02  0.1501E-02  0.1499E-02  0.2285E-01  0.2281E-01  0.2285E-01  0.2281E-01  0.2685E-03  0.2692E-03  0.2285E-01  0.2281E-01  0.2685E-03  0.2692E-03
      2.810  0.6122E-01  0.6121E-01  0.2251E-02  0.2251E-02  0.2251E-02  0.2251E-02  0.2251E-02  0.2251E-02  0.3428E-01  0.3423E-01  0.3428E-01  0.3423E-01  0.7859E-03  0.7898E-03  0.3428E-01  0.3423E-01  0.7859E-03  0.7898E-03
      2.886  0.6507E-01  0.6514E-01  0.2482E-02  0.2487E-02  0.2482E-02  0.2487E-02  0.2482E-02  0.2487E-02  0.3977E-01  0.3974E-01  0.3977E-01  0.3974E-01  0.3029E-02  0.3046E-02  0.3977E-01  0.3974E-01  0.3029E-02  0.3046E-02
      2.962  0.7021E-01  0.7042E-01  0.3994E-02  0.4005E-02  0.3994E-02  0.4005E-02  0.3994E-02  0.4005E-02  0.3244E-01  0.3251E-01  0.3244E-01  0.3251E-01  0.1088E-01  0.1093E-01  0.3244E-01  0.3251E-01  0.1088E-01  0.1093E-01