   4   4   1   0
  0.2020585E+02  0.4323602E-09  0.4323602E-09  0.4323602E-09  0.5000000E-15
  1.000000000000000E-004
  CAR 
 unknown system                          
     18.73576864     -1.57499167  301      6.44629028      1.00000000
     -1.575  0.0000E+00  0.0000E+00  0.0000E+00  0.0000E+00
     -1.507  0.0000E+00  0.0000E+00  0.0000E+00  0.0000E+00
     -1.440  0.0000E+00  0.0000E+00  0.0000E+00  0.0000E+00
     -1.372  0.0000E+00  0.0000E+00  0.0000E+00  0.0000E+00
     -1.304  0.0000E+00  0.0000E+00  0.0000E+00  0.0000E+00
     -1.236  0.0000E+00  0.0000E+00  0.0000E+00  0.0000E+00
     -1.169  0.0000E+00  0.0000E+00  0.0000E+00  0.0000E+00
     -1.101  0.6846E-04  0.6360E-04  0.4635E-05  0.4306E-05
     -1.033  0.1966E-03  0.1826E-03  0.1794E-04  0.1667E-04
     -0.966  0.7601E-03  0.7062E-03  0.6940E-04  0.6448E-04
     -0.898  0.2924E-02  0.2718E-02  0.2674E-03  0.2485E-03
     -0.830  0.1104E-01  0.1028E-01  0.1014E-02  0.9443E-03
     -0.763  0.3882E-01  0.3639E-01  0.3643E-02  0.3408E-02
     -0.695  0.1087E+00  0.1039E+00  0.1100E-01  0.1044E-01
     -0.627  0.1771E+00  0.1758E+00  0.2299E-01  0.2234E-01
     -0.559  0.1332E+00  0.1378E+00  0.3200E-01  0.3167E-01
     -0.492  0.5370E-01  0.5696E-01  0.3564E-01  0.3553E-01
     -0.424  0.1788E-01  0.1886E-01  0.3685E-01  0.3681E-01
     -0.356  0.1253E-01  0.1225E-01  0.3770E-01  0.3763E-01
     -0.289  0.3252E-01  0.3041E-01  0.3990E-01  0.3969E-01
     -0.221  0.1111E+00  0.1040E+00  0.4744E-01  0.4676E-01
     -0.153  0.3154E+00  0.3009E+00  0.6880E-01  0.6713E-01
     -0.086  0.5285E+00  0.5237E+00  0.1046E+00  0.1026E+00
     -0.018  0.4097E+00  0.4237E+00  0.1323E+00  0.1313E+00
      0.050  0.1681E+00  0.1784E+00  0.1437E+00  0.1433E+00
      0.118  0.5520E-01  0.5841E-01  0.1474E+00  0.1473E+00
      0.185  0.3451E-01  0.3395E-01  0.1498E+00  0.1496E+00
      0.253  0.8057E-01  0.7541E-01  0.1552E+00  0.1547E+00
      0.321  0.2400E+00  0.2264E+00  0.1716E+00  0.1701E+00
      0.388  0.4886E+00  0.4772E+00  0.2046E+00  0.2024E+00
      0.456  0.4801E+00  0.4912E+00  0.2371E+00  0.2357E+00
      0.524  0.2324E+00  0.2457E+00  0.2529E+00  0.2523E+00
      0.591  0.8682E-01  0.9109E-01  0.2587E+00  0.2585E+00
      0.659  0.7126E-01  0.6876E-01  0.2636E+00  0.2631E+00
      0.727  0.1628E+00  0.1532E+00  0.2746E+00  0.2735E+00
      0.795  0.3480E+00  0.3349E+00  0.2983E+00  0.2963E+00
      0.862  0.5520E+00  0.5422E+00  0.3356E+00  0.3330E+00
      0.930  0.5835E+00  0.5922E+00  0.3752E+00  0.3731E+00
      0.998  0.3343E+00  0.3511E+00  0.3978E+00  0.3969E+00
      1.065  0.1481E+00  0.1534E+00  0.4078E+00  0.4073E+00
      1.133  0.1643E+00  0.1555E+00  0.4189E+00  0.4178E+00
      1.201  0.4374E+00  0.4070E+00  0.4486E+00  0.4454E+00
      1.269  0.9671E+00  0.9297E+00  0.5141E+00  0.5083E+00
      1.336  0.1160E+01  0.1164E+01  0.5926E+00  0.5872E+00
      1.404  0.9144E+00  0.9226E+00  0.6546E+00  0.6497E+00
      1.472  0.7241E+00  0.7381E+00  0.7036E+00  0.6996E+00
      1.539  0.4534E+00  0.4730E+00  0.7343E+00  0.7317E+00
      1.607  0.3553E+00  0.3397E+00  0.7583E+00  0.7547E+00
      1.675  0.5767E+00  0.5306E+00  0.7974E+00  0.7906E+00
      1.742  0.8703E+00  0.8390E+00  0.8564E+00  0.8475E+00
      1.810  0.1045E+01  0.1019E+01  0.9271E+00  0.9164E+00
      1.878  0.1376E+01  0.1338E+01  0.1020E+01  0.1007E+01
      1.946  0.1617E+01  0.1627E+01  0.1130E+01  0.1117E+01
      2.013  0.1455E+01  0.1455E+01  0.1228E+01  0.1216E+01
      2.081  0.1771E+01  0.1630E+01  0.1348E+01  0.1326E+01
      2.149  0.2844E+01  0.2684E+01  0.1541E+01  0.1508E+01
      2.216  0.3348E+01  0.3354E+01  0.1767E+01  0.1735E+01
      2.284  0.2941E+01  0.3042E+01  0.1967E+01  0.1941E+01
      2.352  0.2083E+01  0.2152E+01  0.2108E+01  0.2087E+01
      2.419  0.2123E+01  0.1972E+01  0.2252E+01  0.2220E+01
      2.487  0.3306E+01  0.3050E+01  0.2475E+01  0.2427E+01
      2.555  0.4581E+01  0.4395E+01  0.2786E+01  0.2725E+01
      2.623  0.4990E+01  0.5041E+01  0.3124E+01  0.3066E+01
      2.690  0.3812E+01  0.4065E+01  0.3382E+01  0.3342E+01
      2.758  0.2774E+01  0.2853E+01  0.3570E+01  0.3535E+01
      2.826  0.2662E+01  0.2632E+01  0.3750E+01  0.3713E+01
      2.893  0.3206E+01  0.3015E+01  0.3967E+01  0.3917E+01
      2.961  0.4299E+01  0.4121E+01  0.4259E+01  0.4196E+01
      3.029  0.4163E+01  0.4336E+01  0.4541E+01  0.4490E+01
      3.096  0.2971E+01  0.3217E+01  0.4742E+01  0.4708E+01
      3.164  0.2212E+01  0.2277E+01  0.4892E+01  0.4863E+01
      3.232  0.2438E+01  0.2304E+01  0.5057E+01  0.5019E+01
      3.300  0.3129E+01  0.2996E+01  0.5269E+01  0.5222E+01
      3.367  0.3645E+01  0.3556E+01  0.5517E+01  0.5463E+01
      3.435  0.3976E+01  0.3957E+01  0.5786E+01  0.5731E+01
      3.503  0.3745E+01  0.3793E+01  0.6039E+01  0.5988E+01
      3.570  0.3711E+01  0.3666E+01  0.6291E+01  0.6236E+01
      3.638  0.3933E+01  0.3858E+01  0.6557E+01  0.6497E+01
      3.706  0.4737E+01  0.4508E+01  0.6878E+01  0.6803E+01
      3.774  0.5701E+01  0.5536E+01  0.7264E+01  0.7178E+01
      3.841  0.5514E+01  0.5683E+01  0.7638E+01  0.7563E+01
      3.909  0.4302E+01  0.4537E+01  0.7929E+01  0.7870E+01
      3.977  0.4021E+01  0.3940E+01  0.8202E+01  0.8137E+01
      4.044  0.5299E+01  0.4928E+01  0.8560E+01  0.8470E+01
      4.112  0.6474E+01  0.6336E+01  0.8999E+01  0.8900E+01
      4.180  0.5965E+01  0.6151E+01  0.9403E+01  0.9316E+01
      4.247  0.5291E+01  0.5327E+01  0.9762E+01  0.9678E+01
      4.315  0.5893E+01  0.5644E+01  0.1016E+02  0.1006E+02
      4.383  0.6934E+01  0.6728E+01  0.1063E+02  0.1052E+02
      4.451  0.7096E+01  0.7168E+01  0.1111E+02  0.1100E+02
      4.518  0.6033E+01  0.6403E+01  0.1152E+02  0.1143E+02
      4.586  0.4568E+01  0.4888E+01  0.1183E+02  0.1177E+02
      4.654  0.4286E+01  0.4224E+01  0.1212E+02  0.1205E+02
      4.721  0.4857E+01  0.4739E+01  0.1245E+02  0.1237E+02
      4.789  0.4293E+01  0.4503E+01  0.1274E+02  0.1268E+02
      4.857  0.3382E+01  0.3537E+01  0.1297E+02  0.1292E+02
      4.924  0.3161E+01  0.3159E+01  0.1318E+02  0.1313E+02
      4.992  0.3227E+01  0.3202E+01  0.1340E+02  0.1335E+02
      5.060  0.3450E+01  0.3339E+01  0.1364E+02  0.1358E+02
      5.128  0.4490E+01  0.4158E+01  0.1394E+02  0.1386E+02
      5.195  0.5426E+01  0.5281E+01  0.1431E+02  0.1421E+02
      5.263  0.5498E+01  0.5501E+01  0.1468E+02  0.1459E+02
      5.331  0.5372E+01  0.5443E+01  0.1504E+02  0.1496E+02
      5.398  0.4860E+01  0.5060E+01  0.1537E+02  0.1530E+02
      5.466  0.3697E+01  0.4024E+01  0.1562E+02  0.1557E+02
      5.534  0.2895E+01  0.2959E+01  0.1582E+02  0.1577E+02
      5.601  0.3268E+01  0.3113E+01  0.1604E+02  0.1598E+02
      5.669  0.3802E+01  0.3644E+01  0.1630E+02  0.1623E+02
      5.737  0.4215E+01  0.4117E+01  0.1659E+02  0.1651E+02
      5.805  0.4629E+01  0.4446E+01  0.1690E+02  0.1681E+02
      5.872  0.5435E+01  0.5298E+01  0.1727E+02  0.1717E+02
      5.940  0.4751E+01  0.5127E+01  0.1759E+02  0.1752E+02
      6.008  0.3195E+01  0.3550E+01  0.1781E+02  0.1776E+02
      6.075  0.2810E+01  0.2713E+01  0.1800E+02  0.1794E+02
      6.143  0.4058E+01  0.3561E+01  0.1827E+02  0.1818E+02
      6.211  0.5884E+01  0.5391E+01  0.1867E+02  0.1855E+02
      6.279  0.6620E+01  0.6555E+01  0.1912E+02  0.1899E+02
      6.346  0.6129E+01  0.6295E+01  0.1953E+02  0.1942E+02
      6.414  0.5369E+01  0.5618E+01  0.1990E+02  0.1980E+02
      6.482  0.4299E+01  0.4583E+01  0.2019E+02  0.2011E+02
      6.549  0.3841E+01  0.3859E+01  0.2045E+02  0.2037E+02
      6.617  0.3809E+01  0.3882E+01  0.2071E+02  0.2063E+02
      6.685  0.2828E+01  0.3225E+01  0.2090E+02  0.2085E+02
      6.752  0.1714E+01  0.1972E+01  0.2101E+02  0.2099E+02
      6.820  0.1677E+01  0.1619E+01  0.2113E+02  0.2110E+02
      6.888  0.1925E+01  0.1936E+01  0.2126E+02  0.2123E+02
      6.956  0.1590E+01  0.1713E+01  0.2137E+02  0.2134E+02
      7.023  0.1295E+01  0.1377E+01  0.2145E+02  0.2144E+02
      7.091  0.9061E+00  0.1017E+01  0.2152E+02  0.2151E+02
      7.159  0.4128E+00  0.5043E+00  0.2154E+02  0.2154E+02
      7.226  0.1323E+00  0.1698E+00  0.2155E+02  0.2155E+02
      7.294  0.3472E-01  0.4519E-01  0.2155E+02  0.2155E+02
      7.362  0.1041E-01  0.1290E-01  0.2156E+02  0.2156E+02
      7.429  0.5772E-02  0.5357E-02  0.2156E+02  0.2156E+02
      7.497  0.1487E-01  0.1114E-01  0.2156E+02  0.2156E+02
      7.565  0.5695E-01  0.4279E-01  0.2156E+02  0.2156E+02
      7.633  0.2116E+00  0.1607E+00  0.2158E+02  0.2157E+02
      7.700  0.7059E+00  0.5561E+00  0.2162E+02  0.2161E+02
      7.768  0.1733E+01  0.1499E+01  0.2174E+02  0.2171E+02
      7.836  0.2411E+01  0.2403E+01  0.2190E+02  0.2187E+02
      7.903  0.1828E+01  0.2036E+01  0.2203E+02  0.2201E+02
      7.971  0.9273E+00  0.1071E+01  0.2209E+02  0.2208E+02
      8.039  0.5255E+00  0.5410E+00  0.2213E+02  0.2212E+02
      8.106  0.7374E+00  0.6553E+00  0.2218E+02  0.2216E+02
      8.174  0.1085E+01  0.1053E+01  0.2225E+02  0.2223E+02
      8.242  0.7976E+00  0.8956E+00  0.2230E+02  0.2230E+02
      8.310  0.3166E+00  0.3912E+00  0.2232E+02  0.2232E+02
      8.377  0.9415E-01  0.1204E+00  0.2233E+02  0.2233E+02
      8.445  0.2710E-01  0.3410E-01  0.2233E+02  0.2233E+02
      8.513  0.1414E-01  0.1450E-01  0.2233E+02  0.2233E+02
      8.580  0.2940E-01  0.2326E-01  0.2234E+02  0.2234E+02
      8.648  0.1097E+00  0.8748E-01  0.2234E+02  0.2234E+02
      8.716  0.3735E+00  0.3061E+00  0.2237E+02  0.2236E+02
      8.783  0.9677E+00  0.8528E+00  0.2243E+02  0.2242E+02
      8.851  0.1482E+01  0.1460E+01  0.2253E+02  0.2252E+02
      8.919  0.1297E+01  0.1379E+01  0.2262E+02  0.2261E+02
      8.987  0.9044E+00  0.9425E+00  0.2268E+02  0.2268E+02
      9.054  0.7918E+00  0.7935E+00  0.2274E+02  0.2273E+02
      9.122  0.7203E+00  0.7163E+00  0.2279E+02  0.2278E+02
      9.190  0.8874E+00  0.8228E+00  0.2285E+02  0.2283E+02
      9.257  0.1121E+01  0.1113E+01  0.2292E+02  0.2291E+02
      9.325  0.7525E+00  0.8491E+00  0.2297E+02  0.2297E+02
      9.393  0.2861E+00  0.3491E+00  0.2299E+02  0.2299E+02
      9.461  0.8484E-01  0.1054E+00  0.2300E+02  0.2300E+02
      9.528  0.3328E-01  0.3694E-01  0.2300E+02  0.2300E+02
      9.596  0.4929E-01  0.4249E-01  0.2300E+02  0.2300E+02
      9.664  0.1584E+00  0.1297E+00  0.2301E+02  0.2301E+02
      9.731  0.4917E+00  0.4186E+00  0.2305E+02  0.2304E+02
      9.799  0.9893E+00  0.9238E+00  0.2311E+02  0.2310E+02
      9.867  0.9665E+00  0.1022E+01  0.2318E+02  0.2317E+02
      9.934  0.5134E+00  0.5780E+00  0.2322E+02  0.2321E+02
     10.002  0.3845E+00  0.3761E+00  0.2324E+02  0.2324E+02
     10.070  0.8249E+00  0.7248E+00  0.2330E+02  0.2329E+02
     10.138  0.1777E+01  0.1643E+01  0.2342E+02  0.2340E+02
     10.205  0.2033E+01  0.2090E+01  0.2356E+02  0.2354E+02
     10.273  0.1120E+01  0.1265E+01  0.2363E+02  0.2362E+02
     10.341  0.3845E+00  0.4552E+00  0.2366E+02  0.2365E+02
     10.408  0.1184E+00  0.1380E+00  0.2367E+02  0.2366E+02
     10.476  0.7148E-01  0.6790E-01  0.2367E+02  0.2367E+02
     10.544  0.1541E+00  0.1283E+00  0.2368E+02  0.2368E+02
     10.611  0.4016E+00  0.3438E+00  0.2371E+02  0.2370E+02
     10.679  0.6467E+00  0.6211E+00  0.2375E+02  0.2374E+02
     10.747  0.7138E+00  0.7098E+00  0.2380E+02  0.2379E+02
     10.815  0.9743E+00  0.9229E+00  0.2387E+02  0.2385E+02
     10.882  0.1345E+01  0.1299E+01  0.2396E+02  0.2394E+02
     10.950  0.1663E+01  0.1625E+01  0.2407E+02  0.2405E+02
     11.018  0.1953E+01  0.1932E+01  0.2420E+02  0.2418E+02
     11.085  0.1823E+01  0.1875E+01  0.2433E+02  0.2431E+02
     11.153  0.1137E+01  0.1256E+01  0.2440E+02  0.2439E+02
     11.221  0.4420E+00  0.5196E+00  0.2443E+02  0.2443E+02
     11.288  0.1295E+00  0.1580E+00  0.2444E+02  0.2444E+02
     11.356  0.3490E-01  0.4244E-01  0.2444E+02  0.2444E+02
     11.424  0.8237E-02  0.9917E-02  0.2444E+02  0.2444E+02
     11.492  0.1853E-02  0.1636E-02  0.2444E+02  0.2444E+02
     11.559  0.7246E-02  0.6394E-02  0.2445E+02  0.2445E+02
     11.627  0.2738E-01  0.2423E-01  0.2445E+02  0.2445E+02
     11.695  0.9807E-01  0.8754E-01  0.2445E+02  0.2445E+02
     11.762  0.2903E+00  0.2663E+00  0.2447E+02  0.2447E+02
     11.830  0.5350E+00  0.5190E+00  0.2451E+02  0.2451E+02
     11.898  0.4968E+00  0.5086E+00  0.2454E+02  0.2454E+02
     11.966  0.3348E+00  0.3389E+00  0.2457E+02  0.2456E+02
     12.033  0.2634E+00  0.2682E+00  0.2458E+02  0.2458E+02
     12.101  0.2307E+00  0.2285E+00  0.2460E+02  0.2460E+02
     12.169  0.4137E+00  0.3687E+00  0.2463E+02  0.2462E+02
     12.236  0.9124E+00  0.8372E+00  0.2469E+02  0.2468E+02
     12.304  0.1212E+01  0.1212E+01  0.2477E+02  0.2476E+02
     12.372  0.1112E+01  0.1128E+01  0.2485E+02  0.2484E+02
     12.439  0.1295E+01  0.1273E+01  0.2493E+02  0.2492E+02
     12.507  0.1357E+01  0.1374E+01  0.2503E+02  0.2502E+02
     12.575  0.1352E+01  0.1339E+01  0.2512E+02  0.2511E+02
     12.643  0.1802E+01  0.1734E+01  0.2524E+02  0.2522E+02
     12.710  0.2353E+01  0.2328E+01  0.2540E+02  0.2538E+02
     12.778  0.1801E+01  0.1916E+01  0.2552E+02  0.2551E+02
     12.846  0.7506E+00  0.8418E+00  0.2557E+02  0.2557E+02
     12.913  0.2387E+00  0.2696E+00  0.2559E+02  0.2559E+02
     12.981  0.1090E+00  0.1096E+00  0.2560E+02  0.2559E+02
     13.049  0.1848E+00  0.1611E+00  0.2561E+02  0.2561E+02
     13.116  0.4379E+00  0.3930E+00  0.2564E+02  0.2563E+02
     13.184  0.6798E+00  0.6638E+00  0.2568E+02  0.2568E+02
     13.252  0.8221E+00  0.8042E+00  0.2574E+02  0.2573E+02
     13.320  0.1324E+01  0.1261E+01  0.2583E+02  0.2582E+02
     13.387  0.1606E+01  0.1628E+01  0.2594E+02  0.2593E+02
     13.455  0.9739E+00  0.1063E+01  0.2600E+02  0.2600E+02
     13.523  0.3498E+00  0.3974E+00  0.2603E+02  0.2603E+02
     13.590  0.1014E+00  0.1161E+00  0.2603E+02  0.2603E+02
     13.658  0.3604E-01  0.3864E-01  0.2604E+02  0.2604E+02
     13.726  0.4348E-01  0.3897E-01  0.2604E+02  0.2604E+02
     13.793  0.1283E+00  0.1104E+00  0.2605E+02  0.2605E+02
     13.861  0.3547E+00  0.3191E+00  0.2607E+02  0.2607E+02
     13.929  0.5809E+00  0.5668E+00  0.2611E+02  0.2611E+02
     13.997  0.5418E+00  0.5556E+00  0.2615E+02  0.2614E+02
     14.064  0.5473E+00  0.5392E+00  0.2619E+02  0.2618E+02
     14.132  0.5765E+00  0.5881E+00  0.2623E+02  0.2622E+02
     14.200  0.3438E+00  0.3760E+00  0.2625E+02  0.2625E+02
     14.267  0.1398E+00  0.1546E+00  0.2626E+02  0.2626E+02
     14.335  0.1092E+00  0.1052E+00  0.2627E+02  0.2626E+02
     14.403  0.2847E+00  0.2539E+00  0.2628E+02  0.2628E+02
     14.471  0.8656E+00  0.7827E+00  0.2634E+02  0.2633E+02
     14.538  0.1829E+01  0.1739E+01  0.2647E+02  0.2645E+02
     14.606  0.2051E+01  0.2088E+01  0.2661E+02  0.2659E+02
     14.674  0.1367E+01  0.1434E+01  0.2670E+02  0.2669E+02
     14.741  0.1137E+01  0.1133E+01  0.2678E+02  0.2677E+02
     14.809  0.1170E+01  0.1188E+01  0.2685E+02  0.2685E+02
     14.877  0.7070E+00  0.7623E+00  0.2690E+02  0.2690E+02
     14.944  0.2664E+00  0.2941E+00  0.2692E+02  0.2692E+02
     15.012  0.1307E+00  0.1321E+00  0.2693E+02  0.2693E+02
     15.080  0.2158E+00  0.1962E+00  0.2694E+02  0.2694E+02
     15.148  0.4591E+00  0.4314E+00  0.2698E+02  0.2697E+02
     15.215  0.5497E+00  0.5574E+00  0.2701E+02  0.2701E+02
     15.283  0.4110E+00  0.4231E+00  0.2704E+02  0.2704E+02
     15.351  0.5225E+00  0.4913E+00  0.2708E+02  0.2707E+02
     15.418  0.9853E+00  0.9369E+00  0.2714E+02  0.2713E+02
     15.486  0.1148E+01  0.1164E+01  0.2722E+02  0.2721E+02
     15.554  0.9553E+00  0.9685E+00  0.2729E+02  0.2728E+02
     15.621  0.1114E+01  0.1094E+01  0.2736E+02  0.2735E+02
     15.689  0.1080E+01  0.1110E+01  0.2743E+02  0.2743E+02
     15.757  0.6430E+00  0.6753E+00  0.2748E+02  0.2747E+02
     15.825  0.5079E+00  0.4984E+00  0.2751E+02  0.2751E+02
     15.892  0.5879E+00  0.5862E+00  0.2755E+02  0.2755E+02
     15.960  0.4348E+00  0.4624E+00  0.2758E+02  0.2758E+02
     16.028  0.2749E+00  0.2892E+00  0.2760E+02  0.2760E+02
     16.095  0.4127E+00  0.3901E+00  0.2763E+02  0.2762E+02
     16.163  0.7647E+00  0.6857E+00  0.2768E+02  0.2767E+02
     16.231  0.1068E+01  0.8987E+00  0.2775E+02  0.2773E+02
     16.298  0.1244E+01  0.1153E+01  0.2784E+02  0.2781E+02
     16.366  0.8913E+00  0.1052E+01  0.2790E+02  0.2788E+02
     16.434  0.4318E+00  0.5716E+00  0.2793E+02  0.2792E+02
     16.502  0.2710E+00  0.3218E+00  0.2794E+02  0.2794E+02
     16.569  0.1751E+00  0.1950E+00  0.2796E+02  0.2796E+02
     16.637  0.7244E-01  0.8076E-01  0.2796E+02  0.2796E+02
     16.705  0.2016E-01  0.2176E-01  0.2796E+02  0.2796E+02
     16.772  0.5463E-02  0.5919E-02  0.2796E+02  0.2796E+02
     16.840  0.1429E-02  0.1549E-02  0.2796E+02  0.2796E+02
     16.908  0.0000E+00  0.0000E+00  0.2796E+02  0.2796E+02
     16.976  0.0000E+00  0.0000E+00  0.2796E+02  0.2796E+02
     17.043  0.0000E+00  0.0000E+00  0.2796E+02  0.2796E+02
     17.111  0.0000E+00  0.0000E+00  0.2796E+02  0.2796E+02
     17.179  0.0000E+00  0.0000E+00  0.2796E+02  0.2796E+02
     17.246  0.0000E+00  0.0000E+00  0.2796E+02  0.2796E+02
     17.314  0.0000E+00  0.0000E+00  0.2796E+02  0.2796E+02
     17.382  0.9903E-04  0.1104E-03  0.2796E+02  0.2796E+02
     17.449  0.2843E-03  0.3168E-03  0.2796E+02  0.2796E+02
     17.517  0.1098E-02  0.1224E-02  0.2796E+02  0.2796E+02
     17.585  0.4213E-02  0.4688E-02  0.2796E+02  0.2796E+02
     17.653  0.1572E-01  0.1742E-01  0.2796E+02  0.2796E+02
     17.720  0.5314E-01  0.5805E-01  0.2797E+02  0.2797E+02
     17.788  0.1330E+00  0.1398E+00  0.2798E+02  0.2798E+02
     17.856  0.1771E+00  0.1750E+00  0.2799E+02  0.2799E+02
     17.923  0.1087E+00  0.1016E+00  0.2800E+02  0.2800E+02
     17.991  0.3882E-01  0.3529E-01  0.2800E+02  0.2800E+02
     18.059  0.1104E-01  0.9938E-02  0.2800E+02  0.2800E+02
     18.126  0.2924E-02  0.2626E-02  0.2800E+02  0.2800E+02
     18.194  0.7601E-03  0.6822E-03  0.2800E+02  0.2800E+02
     18.262  0.0000E+00  0.0000E+00  0.2800E+02  0.2800E+02
     18.330  0.0000E+00  0.0000E+00  0.2800E+02  0.2800E+02
     18.397  0.0000E+00  0.0000E+00  0.2800E+02  0.2800E+02
     18.465  0.0000E+00  0.0000E+00  0.2800E+02  0.2800E+02
     18.533  0.0000E+00  0.0000E+00  0.2800E+02  0.2800E+02
     18.600  0.0000E+00  0.0000E+00  0.2800E+02  0.2800E+02
     18.668  0.0000E+00  0.0000E+00  0.2800E+02  0.2800E+02
     18.736  0.0000E+00  0.0000E+00  0.2800E+02  0.2800E+02
     18.73576864     -1.57499167  301      6.44629028      1.00000000
     -1.575  0.0000E+00  0.0000E+00  0.0000E+00  0.0000E+00  0.0000E+00  0.0000E+00  0.0000E+00  0.0000E+00  0.0000E+00  0.0000E+00  0.0000E+00  0.0000E+00  0.0000E+00  0.0000E+00  0.0000E+00  0.0000E+00  0.0000E+00  0.0000E+00
     -1.507  0.0000E+00  0.0000E+00  0.0000E+00  0.0000E+00  0.0000E+00  0.0000E+00  0.0000E+00  0.0000E+00  0.0000E+00  0.0000E+00  0.0000E+00  0.0000E+00  0.0000E+00  0.0000E+00  0.0000E+00  0.0000E+00  0.0000E+00  0.0000E+00
     -1.440  0.0000E+00  0.0000E+00  0.0000E+00  0.0000E+00  0.0000E+00  0.0000E+00  0.0000E+00  0.0000E+00  0.0000E+00  0.0000E+00  0.0000E+00  0.0000E+00  0.0000E+00  0.0000E+00  0.0000E+00  0.0000E+00  0.0000E+00  0.0000E+00
     -1.372  0.0000E+00  0.0000E+00  0.0000E+00  0.0000E+00  0.0000E+00  0.0000E+00  0.0000E+00  0.0000E+00  0.0000E+00  0.0000E+00  0.0000E+00  0.0000E+00  0.0000E+00  0.0000E+00  0.0000E+00  0.0000E+00  0.0000E+00  0.0000E+00
     -1.304  0.0000E+00  0.0000E+00  0.0000E+00  0.0000E+00  0.0000E+00  0.0000E+00  0.0000E+00  0.0000E+00  0.0000E+00  0.0000E+00  0.0000E+00  0.0000E+00  0.0000E+00  0.0000E+00  0.0000E+00  0.0000E+00  0.0000E+00  0.0000E+00
     -1.236  0.0000E+00  0.0000E+00  0.0000E+00  0.0000E+00  0.0000E+00  0.0000E+00  0.0000E+00  0.0000E+00  0.0000E+00  0.0000E+00  0.0000E+00  0.0000E+00  0.0000E+00  0.0000E+00  0.0000E+00  0.0000E+00  0.0000E+00  0.0000E+00
     -1.169  0.0000E+00  0.0000E+00  0.0000E+00  0.0000E+00  0.0000E+00  0.0000E+00  0.0000E+00  0.0000E+00  0.0000E+00  0.0000E+00  0.0000E+00  0.0000E+00  0.0000E+00  0.0000E+00  0.0000E+00  0.0000E+00  0.0000E+00  0.0000E+00
     -1.101  0.1031E-04  0.9579E-05  0.5420E-07  0.5037E-07  0.5420E-07  0.5037E-07  0.5420E-07  0.5037E-07  0.3572E-08  0.3302E-08  0.3572E-08  0.3302E-08  0.1739E-22  0.2875E-22  0.3572E-08  0.3302E-08  0.1739E-22  0.2875E-22
     -1.033  0.2962E-04  0.2751E-04  0.1556E-06  0.1446E-06  0.1556E-06  0.1446E-06  0.1556E-06  0.1446E-06  0.1026E-07  0.9483E-08  0.1026E-07  0.9483E-08  0.4995E-22  0.8256E-22  0.1026E-07  0.9483E-08  0.4995E-22  0.8256E-22
     -0.966  0.1145E-03  0.1064E-03  0.6018E-06  0.5593E-06  0.6018E-06  0.5593E-06  0.6018E-06  0.5593E-06  0.3966E-07  0.3667E-07  0.3966E-07  0.3667E-07  0.1931E-21  0.3193E-21  0.3966E-07  0.3667E-07  0.1931E-21  0.3193E-21
     -0.898  0.4406E-03  0.4094E-03  0.2315E-05  0.2153E-05  0.2315E-05  0.2153E-05  0.2315E-05  0.2153E-05  0.1526E-06  0.1411E-06  0.1526E-06  0.1411E-06  0.7429E-21  0.1229E-20  0.1526E-06  0.1411E-06  0.7429E-21  0.1229E-20
     -0.830  0.1663E-02  0.1548E-02  0.8737E-05  0.8139E-05  0.8737E-05  0.8139E-05  0.8737E-05  0.8139E-05  0.5759E-06  0.5336E-06  0.5759E-06  0.5336E-06  0.2804E-20  0.4646E-20  0.5759E-06  0.5336E-06  0.2804E-20  0.4646E-20
     -0.763  0.5849E-02  0.5481E-02  0.3073E-04  0.2882E-04  0.3073E-04  0.2882E-04  0.3073E-04  0.2882E-04  0.2026E-05  0.1889E-05  0.2026E-05  0.1889E-05  0.9862E-20  0.1645E-19  0.2026E-05  0.1889E-05  0.9862E-20  0.1645E-19
     -0.695  0.1637E-01  0.1564E-01  0.8604E-04  0.8225E-04  0.8604E-04  0.8225E-04  0.8604E-04  0.8225E-04  0.5671E-05  0.5393E-05  0.5671E-05  0.5393E-05  0.2761E-19  0.4695E-19  0.5671E-05  0.5393E-05  0.2761E-19  0.4695E-19
     -0.627  0.2668E-01  0.2648E-01  0.1402E-03  0.1392E-03  0.1402E-03  0.1392E-03  0.1402E-03  0.1392E-03  0.9240E-05  0.9128E-05  0.9240E-05  0.9128E-05  0.4499E-19  0.7947E-19  0.9240E-05  0.9128E-05  0.4499E-19  0.7947E-19
     -0.559  0.2006E-01  0.2076E-01  0.1058E-03  0.1095E-03  0.1058E-03  0.1095E-03  0.1058E-03  0.1095E-03  0.7008E-05  0.7212E-05  0.7008E-05  0.7212E-05  0.6127E-07  0.5668E-07  0.7008E-05  0.7212E-05  0.6127E-07  0.5668E-07
     -0.492  0.8087E-02  0.8577E-02  0.4362E-04  0.4614E-04  0.4362E-04  0.4614E-04  0.4362E-04  0.4614E-04  0.2973E-05  0.3116E-05  0.2973E-05  0.3116E-05  0.1760E-06  0.1628E-06  0.2973E-05  0.3116E-05  0.1760E-06  0.1628E-06
     -0.424  0.2679E-02  0.2827E-02  0.1843E-04  0.1891E-04  0.1843E-04  0.1891E-04  0.1843E-04  0.1891E-04  0.1594E-05  0.1589E-05  0.1594E-05  0.1589E-05  0.6804E-06  0.6294E-06  0.1594E-05  0.1589E-05  0.6804E-06  0.6294E-06
     -0.356  0.1828E-02  0.1791E-02  0.2637E-04  0.2499E-04  0.2637E-04  0.2499E-04  0.2637E-04  0.2499E-04  0.3196E-05  0.2984E-05  0.3196E-05  0.2984E-05  0.2618E-05  0.2423E-05  0.3196E-05  0.2984E-05  0.2618E-05  0.2423E-05
     -0.289  0.4676E-02  0.4373E-02  0.8793E-04  0.8196E-04  0.8793E-04  0.8196E-04  0.8793E-04  0.8196E-04  0.1131E-04  0.1047E-04  0.1131E-04  0.1047E-04  0.9895E-05  0.9175E-05  0.1131E-04  0.1047E-04  0.9895E-05  0.9175E-05
     -0.221  0.1594E-01  0.1492E-01  0.3077E-03  0.2882E-03  0.3077E-03  0.2882E-03  0.3077E-03  0.2882E-03  0.3976E-04  0.3702E-04  0.3976E-04  0.3702E-04  0.3497E-04  0.3263E-04  0.3976E-04  0.3702E-04  0.3497E-04  0.3263E-04
     -0.153  0.4528E-01  0.4318E-01  0.8739E-03  0.8340E-03  0.8739E-03  0.8340E-03  0.8739E-03  0.8340E-03  0.1129E-03  0.1071E-03  0.1129E-03  0.1071E-03  0.9932E-04  0.9443E-04  0.1129E-03  0.1071E-03  0.9932E-04  0.9443E-04
     -0.086  0.7587E-01  0.7516E-01  0.1464E-02  0.1452E-02  0.1464E-02  0.1452E-02  0.1464E-02  0.1452E-02  0.1892E-03  0.1865E-03  0.1892E-03  0.1865E-03  0.1664E-03  0.1644E-03  0.1892E-03  0.1865E-03  0.1664E-03  0.1644E-03
     -0.018  0.5882E-01  0.6080E-01  0.1136E-02  0.1175E-02  0.1136E-02  0.1175E-02  0.1136E-02  0.1175E-02  0.1476E-03  0.1517E-03  0.1476E-03  0.1517E-03  0.1290E-03  0.1329E-03  0.1476E-03  0.1517E-03  0.1290E-03  0.1329E-03
      0.050  0.2412E-01  0.2559E-01  0.4679E-03  0.4964E-03  0.4679E-03  0.4964E-03  0.4679E-03  0.4964E-03  0.6273E-04  0.6585E-04  0.6273E-04  0.6585E-04  0.5280E-04  0.5586E-04  0.6273E-04  0.6585E-04  0.5280E-04  0.5586E-04
      0.118  0.7880E-02  0.8342E-02  0.1613E-03  0.1696E-03  0.1613E-03  0.1696E-03  0.1613E-03  0.1696E-03  0.2961E-04  0.2985E-04  0.2961E-04  0.2985E-04  0.1688E-04  0.1787E-04  0.2961E-04  0.2985E-04  0.1688E-04  0.1787E-04
      0.185  0.4784E-02  0.4715E-02  0.1273E-03  0.1234E-03  0.1273E-03  0.1234E-03  0.1273E-03  0.1234E-03  0.4989E-04  0.4661E-04  0.4989E-04  0.4661E-04  0.8965E-05  0.8905E-05  0.4989E-04  0.4661E-04  0.8965E-05  0.8905E-05
      0.253  0.1095E-01  0.1025E-01  0.3385E-03  0.3163E-03  0.3385E-03  0.3163E-03  0.3385E-03  0.3163E-03  0.1655E-03  0.1531E-03  0.1655E-03  0.1531E-03  0.1845E-04  0.1727E-04  0.1655E-03  0.1531E-03  0.1845E-04  0.1727E-04
      0.321  0.3252E-01  0.3068E-01  0.1024E-02  0.9665E-03  0.1024E-02  0.9665E-03  0.1024E-02  0.9665E-03  0.5116E-03  0.4797E-03  0.5116E-03  0.4797E-03  0.5399E-04  0.5083E-04  0.5116E-03  0.4797E-03  0.5399E-04  0.5083E-04
      0.388  0.6621E-01  0.6466E-01  0.2084E-02  0.2037E-02  0.2084E-02  0.2037E-02  0.2084E-02  0.2037E-02  0.1042E-02  0.1011E-02  0.1042E-02  0.1011E-02  0.1099E-03  0.1071E-03  0.1042E-02  0.1011E-02  0.1099E-03  0.1071E-03
      0.456  0.6505E-01  0.6655E-01  0.2049E-02  0.2098E-02  0.2049E-02  0.2098E-02  0.2049E-02  0.2098E-02  0.1026E-02  0.1043E-02  0.1026E-02  0.1043E-02  0.1092E-03  0.1114E-03  0.1026E-02  0.1043E-02  0.1092E-03  0.1114E-03
      0.524  0.3145E-01  0.3325E-01  0.9936E-03  0.1051E-02  0.9936E-03  0.1051E-02  0.9936E-03  0.1051E-02  0.5094E-03  0.5333E-03  0.5094E-03  0.5333E-03  0.5550E-04  0.5812E-04  0.5094E-03  0.5333E-03  0.5550E-04  0.5812E-04
      0.591  0.1161E-01  0.1220E-01  0.3798E-03  0.3976E-03  0.3798E-03  0.3976E-03  0.3798E-03  0.3976E-03  0.2394E-03  0.2422E-03  0.2394E-03  0.2422E-03  0.3197E-04  0.3188E-04  0.2394E-03  0.2422E-03  0.3197E-04  0.3188E-04
      0.659  0.9084E-02  0.8791E-02  0.3393E-03  0.3263E-03  0.3393E-03  0.3263E-03  0.3393E-03  0.3263E-03  0.3427E-03  0.3199E-03  0.3427E-03  0.3199E-03  0.6441E-04  0.5985E-04  0.3427E-03  0.3199E-03  0.6441E-04  0.5985E-04
      0.727  0.2033E-01  0.1914E-01  0.8163E-03  0.7680E-03  0.8163E-03  0.7680E-03  0.8163E-03  0.7680E-03  0.8729E-03  0.8175E-03  0.8729E-03  0.8175E-03  0.2241E-03  0.2065E-03  0.8729E-03  0.8175E-03  0.2241E-03  0.2065E-03
      0.795  0.4344E-01  0.4180E-01  0.1840E-02  0.1766E-02  0.1840E-02  0.1766E-02  0.1840E-02  0.1766E-02  0.1520E-02  0.1483E-02  0.1520E-02  0.1483E-02  0.7448E-03  0.6933E-03  0.1520E-02  0.1483E-02  0.7448E-03  0.6933E-03
      0.862  0.6921E-01  0.6797E-01  0.3136E-02  0.3071E-02  0.3136E-02  0.3071E-02  0.3136E-02  0.3071E-02  0.1463E-02  0.1482E-02  0.1463E-02  0.1482E-02  0.1809E-02  0.1732E-02  0.1463E-02  0.1482E-02  0.1809E-02  0.1732E-02
      0.930  0.7334E-01  0.7442E-01  0.3448E-02  0.3496E-02  0.3448E-02  0.3496E-02  0.3448E-02  0.3496E-02  0.9732E-03  0.1003E-02  0.9732E-03  0.1003E-02  0.2293E-02  0.2301E-02  0.9732E-03  0.1003E-02  0.2293E-02  0.2301E-02
      0.998  0.4197E-01  0.4408E-01  0.2002E-02  0.2102E-02  0.2002E-02  0.2102E-02  0.2002E-02  0.2102E-02  0.5048E-03  0.5237E-03  0.5048E-03  0.5237E-03  0.1364E-02  0.1425E-02  0.5048E-03  0.5237E-03  0.1364E-02  0.1425E-02
      1.065  0.1828E-01  0.1897E-01  0.9072E-03  0.9375E-03  0.9072E-03  0.9375E-03  0.9072E-03  0.9375E-03  0.3822E-03  0.3695E-03  0.3822E-03  0.3695E-03  0.5577E-03  0.5820E-03  0.3822E-03  0.3695E-03  0.5577E-03  0.5820E-03
      1.133  0.1935E-01  0.1836E-01  0.1058E-02  0.1001E-02  0.1058E-02  0.1001E-02  0.1058E-02  0.1001E-02  0.9189E-03  0.8396E-03  0.9189E-03  0.8396E-03  0.4629E-03  0.4439E-03  0.9189E-03  0.8396E-03  0.4629E-03  0.4439E-03
      1.201  0.5070E-01  0.4720E-01  0.2855E-02  0.2661E-02  0.2855E-02  0.2661E-02  0.2855E-02  0.2661E-02  0.2876E-02  0.2641E-02  0.2876E-02  0.2641E-02  0.1102E-02  0.1025E-02  0.2876E-02  0.2641E-02  0.1102E-02  0.1025E-02
      1.269  0.1116E+00  0.1074E+00  0.6284E-02  0.6058E-02  0.6284E-02  0.6058E-02  0.6284E-02  0.6058E-02  0.6682E-02  0.6333E-02  0.6682E-02  0.6333E-02  0.2381E-02  0.2287E-02  0.6682E-02  0.6333E-02  0.2381E-02  0.2287E-02
      1.336  0.1320E+00  0.1328E+00  0.7343E-02  0.7416E-02  0.7343E-02  0.7416E-02  0.7343E-02  0.7416E-02  0.9312E-02  0.9065E-02  0.9312E-02  0.9065E-02  0.2705E-02  0.2731E-02  0.9312E-02  0.9065E-02  0.2705E-02  0.2731E-02
      1.404  0.9903E-01  0.1006E+00  0.5242E-02  0.5365E-02  0.5242E-02  0.5365E-02  0.5242E-02  0.5365E-02  0.1090E-01  0.1052E-01  0.1090E-01  0.1052E-01  0.1730E-02  0.1786E-02  0.1090E-01  0.1052E-01  0.1730E-02  0.1786E-02
      1.472  0.7357E-01  0.7540E-01  0.3634E-02  0.3752E-02  0.3634E-02  0.3752E-02  0.3634E-02  0.3752E-02  0.1203E-01  0.1196E-01  0.1203E-01  0.1196E-01  0.1007E-02  0.1044E-02  0.1203E-01  0.1196E-01  0.1007E-02  0.1044E-02
      1.539  0.4315E-01  0.4559E-01  0.1996E-02  0.2138E-02  0.1996E-02  0.2138E-02  0.1996E-02  0.2138E-02  0.9458E-02  0.9486E-02  0.9458E-02  0.9486E-02  0.5029E-03  0.5383E-03  0.9458E-02  0.9486E-02  0.5029E-03  0.5383E-03
      1.607  0.2800E-01  0.2756E-01  0.1054E-02  0.1078E-02  0.1054E-02  0.1078E-02  0.1054E-02  0.1078E-02  0.1107E-01  0.1008E-01  0.1107E-01  0.1008E-01  0.2572E-03  0.2634E-03  0.1107E-01  0.1008E-01  0.2572E-03  0.2634E-03
      1.675  0.3991E-01  0.3702E-01  0.1299E-02  0.1212E-02  0.1299E-02  0.1212E-02  0.1299E-02  0.1212E-02  0.2126E-01  0.1938E-01  0.2126E-01  0.1938E-01  0.3964E-03  0.3594E-03  0.2126E-01  0.1938E-01  0.3964E-03  0.3594E-03
      1.742  0.5928E-01  0.5745E-01  0.2100E-02  0.2022E-02  0.2100E-02  0.2022E-02  0.2100E-02  0.2022E-02  0.3186E-01  0.3063E-01  0.3186E-01  0.3063E-01  0.1262E-02  0.1116E-02  0.3186E-01  0.3063E-01  0.1262E-02  0.1116E-02
      1.810  0.6972E-01  0.6863E-01  0.2915E-02  0.2834E-02  0.2915E-02  0.2834E-02  0.2915E-02  0.2834E-02  0.3640E-01  0.3546E-01  0.3640E-01  0.3546E-01  0.4147E-02  0.3686E-02  0.3640E-01  0.3546E-01  0.4147E-02  0.3686E-02