   4   4   1   0
  0.1175768E+02  0.3609613E-09  0.3609613E-09  0.3609613E-09  0.5000000E-15
  1.000000000000000E-004
  CAR 
 unknown system                          
     31.92928588      2.45877938  301     16.83948790      1.00000000
      2.459  0.0000E+00  0.0000E+00  0.0000E+00  0.0000E+00
      2.557  0.0000E+00  0.0000E+00  0.0000E+00  0.0000E+00
      2.655  0.0000E+00  0.0000E+00  0.0000E+00  0.0000E+00
      2.753  0.0000E+00  0.0000E+00  0.0000E+00  0.0000E+00
      2.852  0.0000E+00  0.0000E+00  0.0000E+00  0.0000E+00
      2.950  0.0000E+00  0.0000E+00  0.0000E+00  0.0000E+00
      3.048  0.0000E+00  0.0000E+00  0.0000E+00  0.0000E+00
      3.146  0.0000E+00  0.0000E+00  0.0000E+00  0.0000E+00
      3.245  0.0000E+00  0.0000E+00  0.0000E+00  0.0000E+00
      3.343  0.4155E-04  0.4172E-04  0.4081E-05  0.4098E-05
      3.441  0.2546E-03  0.2556E-03  0.2909E-04  0.2921E-04
      3.539  0.1806E-02  0.1813E-02  0.2065E-03  0.2073E-03
      3.638  0.1240E-01  0.1244E-01  0.1424E-02  0.1430E-02
      3.736  0.6918E-01  0.6939E-01  0.8220E-02  0.8246E-02
      3.834  0.1691E+00  0.1692E+00  0.2483E-01  0.2487E-01
      3.932  0.9993E-01  0.9969E-01  0.3465E-01  0.3466E-01
      4.031  0.2070E-01  0.2062E-01  0.3668E-01  0.3668E-01
      4.129  0.3097E-02  0.3085E-02  0.3699E-01  0.3699E-01
      4.227  0.9070E-04  0.9108E-04  0.3705E-01  0.3705E-01
      4.325  0.5559E-03  0.5582E-03  0.3710E-01  0.3710E-01
      4.423  0.3950E-02  0.3966E-02  0.3749E-01  0.3749E-01
      4.522  0.2739E-01  0.2750E-01  0.4018E-01  0.4019E-01
      4.620  0.1624E+00  0.1630E+00  0.5614E-01  0.5620E-01
      4.718  0.4807E+00  0.4811E+00  0.1034E+00  0.1035E+00
      4.816  0.3581E+00  0.3574E+00  0.1385E+00  0.1386E+00
      4.915  0.8302E-01  0.8271E-01  0.1467E+00  0.1467E+00
      5.013  0.1287E-01  0.1282E-01  0.1480E+00  0.1480E+00
      5.111  0.9213E-03  0.9250E-03  0.1483E+00  0.1483E+00
      5.209  0.6528E-02  0.6554E-02  0.1489E+00  0.1489E+00
      5.308  0.4446E-01  0.4463E-01  0.1533E+00  0.1533E+00
      5.406  0.2376E+00  0.2382E+00  0.1766E+00  0.1767E+00
      5.504  0.5142E+00  0.5143E+00  0.2271E+00  0.2272E+00
      5.602  0.2673E+00  0.2666E+00  0.2534E+00  0.2534E+00
      5.701  0.5926E-01  0.5909E-01  0.2592E+00  0.2592E+00
      5.799  0.5205E-01  0.5214E-01  0.2643E+00  0.2643E+00
      5.897  0.1514E+00  0.1515E+00  0.2793E+00  0.2793E+00
      5.995  0.1490E+00  0.1489E+00  0.2939E+00  0.2940E+00
      6.093  0.1287E+00  0.1290E+00  0.3066E+00  0.3066E+00
      6.192  0.3909E+00  0.3917E+00  0.3450E+00  0.3451E+00
      6.290  0.4841E+00  0.4828E+00  0.3925E+00  0.3926E+00
      6.388  0.2491E+00  0.2486E+00  0.4170E+00  0.4170E+00
      6.486  0.3169E+00  0.3172E+00  0.4482E+00  0.4482E+00
      6.585  0.7682E+00  0.7697E+00  0.5236E+00  0.5238E+00
      6.683  0.1986E+01  0.1988E+01  0.7188E+00  0.7192E+00
      6.781  0.2420E+01  0.2419E+01  0.9565E+00  0.9568E+00
      6.879  0.1280E+01  0.1278E+01  0.1082E+01  0.1082E+01
      6.978  0.4444E+00  0.4444E+00  0.1126E+01  0.1126E+01
      7.076  0.6255E+00  0.6263E+00  0.1188E+01  0.1188E+01
      7.174  0.1091E+01  0.1092E+01  0.1295E+01  0.1295E+01
      7.272  0.2707E+01  0.2710E+01  0.1561E+01  0.1562E+01
      7.371  0.3094E+01  0.3091E+01  0.1865E+01  0.1865E+01
      7.469  0.1935E+01  0.1934E+01  0.2055E+01  0.2056E+01
      7.567  0.2134E+01  0.2135E+01  0.2265E+01  0.2265E+01
      7.665  0.2852E+01  0.2853E+01  0.2545E+01  0.2546E+01
      7.763  0.2654E+01  0.2653E+01  0.2806E+01  0.2807E+01
      7.862  0.1765E+01  0.1764E+01  0.2980E+01  0.2980E+01
      7.960  0.1699E+01  0.1699E+01  0.3147E+01  0.3147E+01
      8.058  0.2120E+01  0.2119E+01  0.3355E+01  0.3356E+01
      8.156  0.1136E+01  0.1137E+01  0.3467E+01  0.3467E+01
      8.255  0.1592E+01  0.1595E+01  0.3624E+01  0.3624E+01
      8.353  0.3332E+01  0.3333E+01  0.3951E+01  0.3952E+01
      8.451  0.3943E+01  0.3941E+01  0.4339E+01  0.4339E+01
      8.549  0.1840E+01  0.1838E+01  0.4519E+01  0.4519E+01
      8.648  0.8143E+00  0.8150E+00  0.4599E+01  0.4600E+01
      8.746  0.1360E+01  0.1361E+01  0.4733E+01  0.4733E+01
      8.844  0.1198E+01  0.1197E+01  0.4851E+01  0.4851E+01
      8.942  0.5302E+00  0.5296E+00  0.4903E+01  0.4904E+01
      9.041  0.9058E+00  0.9068E+00  0.4992E+01  0.4993E+01
      9.139  0.1770E+01  0.1771E+01  0.5167E+01  0.5167E+01
      9.237  0.2660E+01  0.2661E+01  0.5428E+01  0.5428E+01
      9.335  0.2372E+01  0.2370E+01  0.5661E+01  0.5661E+01
      9.433  0.1808E+01  0.1809E+01  0.5839E+01  0.5839E+01
      9.532  0.1949E+01  0.1950E+01  0.6030E+01  0.6031E+01
      9.630  0.1688E+01  0.1687E+01  0.6197E+01  0.6197E+01
      9.728  0.1414E+01  0.1413E+01  0.6336E+01  0.6336E+01
      9.826  0.1255E+01  0.1256E+01  0.6459E+01  0.6459E+01
      9.925  0.1002E+01  0.1002E+01  0.6558E+01  0.6558E+01
     10.023  0.1515E+01  0.1517E+01  0.6707E+01  0.6707E+01
     10.121  0.2854E+01  0.2855E+01  0.6987E+01  0.6987E+01
     10.219  0.3099E+01  0.3098E+01  0.7291E+01  0.7292E+01
     10.318  0.3062E+01  0.3061E+01  0.7592E+01  0.7593E+01
     10.416  0.2897E+01  0.2896E+01  0.7877E+01  0.7877E+01
     10.514  0.1085E+01  0.1084E+01  0.7984E+01  0.7984E+01
     10.612  0.4331E+00  0.4332E+00  0.8027E+01  0.8027E+01
     10.711  0.8758E+00  0.8764E+00  0.8113E+01  0.8113E+01
     10.809  0.1561E+01  0.1562E+01  0.8267E+01  0.8267E+01
     10.907  0.2895E+01  0.2896E+01  0.8551E+01  0.8551E+01
     11.005  0.4246E+01  0.4247E+01  0.8968E+01  0.8969E+01
     11.103  0.3626E+01  0.3623E+01  0.9325E+01  0.9325E+01
     11.202  0.1874E+01  0.1873E+01  0.9509E+01  0.9509E+01
     11.300  0.1926E+01  0.1926E+01  0.9698E+01  0.9698E+01
     11.398  0.2254E+01  0.2254E+01  0.9920E+01  0.9920E+01
     11.496  0.2201E+01  0.2202E+01  0.1014E+02  0.1014E+02
     11.595  0.2437E+01  0.2437E+01  0.1038E+02  0.1038E+02
     11.693  0.2481E+01  0.2480E+01  0.1062E+02  0.1062E+02
     11.791  0.3788E+01  0.3789E+01  0.1099E+02  0.1099E+02
     11.889  0.4133E+01  0.4133E+01  0.1140E+02  0.1140E+02
     11.988  0.3106E+01  0.3106E+01  0.1170E+02  0.1171E+02
     12.086  0.2209E+01  0.2209E+01  0.1192E+02  0.1192E+02
     12.184  0.1606E+01  0.1606E+01  0.1208E+02  0.1208E+02
     12.282  0.1323E+01  0.1322E+01  0.1221E+02  0.1221E+02
     12.381  0.1886E+01  0.1886E+01  0.1240E+02  0.1240E+02
     12.479  0.2648E+01  0.2648E+01  0.1266E+02  0.1266E+02
     12.577  0.1709E+01  0.1708E+01  0.1283E+02  0.1283E+02
     12.675  0.9601E+00  0.9598E+00  0.1292E+02  0.1292E+02
     12.773  0.1174E+01  0.1174E+01  0.1304E+02  0.1304E+02
     12.872  0.1405E+01  0.1405E+01  0.1317E+02  0.1317E+02
     12.970  0.1521E+01  0.1521E+01  0.1332E+02  0.1332E+02
     13.068  0.1619E+01  0.1619E+01  0.1348E+02  0.1348E+02
     13.166  0.1243E+01  0.1244E+01  0.1360E+02  0.1360E+02
     13.265  0.1125E+01  0.1124E+01  0.1371E+02  0.1371E+02
     13.363  0.8932E+00  0.8931E+00  0.1380E+02  0.1380E+02
     13.461  0.1967E+01  0.1967E+01  0.1400E+02  0.1400E+02
     13.559  0.2933E+01  0.2933E+01  0.1428E+02  0.1428E+02
     13.658  0.2710E+01  0.2710E+01  0.1455E+02  0.1455E+02
     13.756  0.2903E+01  0.2904E+01  0.1484E+02  0.1484E+02
     13.854  0.3454E+01  0.3455E+01  0.1518E+02  0.1518E+02
     13.952  0.3137E+01  0.3136E+01  0.1548E+02  0.1548E+02
     14.051  0.2109E+01  0.2108E+01  0.1569E+02  0.1569E+02
     14.149  0.7777E+00  0.7767E+00  0.1577E+02  0.1577E+02
     14.247  0.3885E+00  0.3881E+00  0.1581E+02  0.1581E+02
     14.345  0.4010E+00  0.4010E+00  0.1585E+02  0.1585E+02
     14.443  0.4552E+00  0.4555E+00  0.1589E+02  0.1589E+02
     14.542  0.9698E+00  0.9700E+00  0.1599E+02  0.1599E+02
     14.640  0.1334E+01  0.1334E+01  0.1612E+02  0.1612E+02
     14.738  0.1647E+01  0.1648E+01  0.1628E+02  0.1628E+02
     14.836  0.1829E+01  0.1829E+01  0.1646E+02  0.1646E+02
     14.935  0.1846E+01  0.1846E+01  0.1664E+02  0.1664E+02
     15.033  0.1415E+01  0.1416E+01  0.1678E+02  0.1678E+02
     15.131  0.1927E+01  0.1928E+01  0.1697E+02  0.1697E+02
     15.229  0.2638E+01  0.2638E+01  0.1723E+02  0.1723E+02
     15.328  0.3055E+01  0.3055E+01  0.1753E+02  0.1753E+02
     15.426  0.2250E+01  0.2249E+01  0.1775E+02  0.1775E+02
     15.524  0.1016E+01  0.1016E+01  0.1785E+02  0.1785E+02
     15.622  0.5978E+00  0.5974E+00  0.1791E+02  0.1791E+02
     15.721  0.3085E+00  0.3084E+00  0.1794E+02  0.1794E+02
     15.819  0.5126E+00  0.5128E+00  0.1799E+02  0.1799E+02
     15.917  0.5815E+00  0.5815E+00  0.1805E+02  0.1805E+02
     16.015  0.1010E+01  0.1011E+01  0.1815E+02  0.1815E+02
     16.113  0.2028E+01  0.2029E+01  0.1835E+02  0.1835E+02
     16.212  0.2974E+01  0.2977E+01  0.1864E+02  0.1864E+02
     16.310  0.3417E+01  0.3416E+01  0.1897E+02  0.1897E+02
     16.408  0.2296E+01  0.2294E+01  0.1920E+02  0.1920E+02
     16.506  0.1785E+01  0.1786E+01  0.1938E+02  0.1938E+02
     16.605  0.2254E+01  0.2255E+01  0.1960E+02  0.1960E+02
     16.703  0.2109E+01  0.2108E+01  0.1980E+02  0.1981E+02
     16.801  0.1444E+01  0.1444E+01  0.1995E+02  0.1995E+02
     16.899  0.1415E+01  0.1415E+01  0.2009E+02  0.2009E+02
     16.998  0.1252E+01  0.1252E+01  0.2021E+02  0.2021E+02
     17.096  0.1285E+01  0.1286E+01  0.2034E+02  0.2034E+02
     17.194  0.2090E+01  0.2092E+01  0.2054E+02  0.2054E+02
     17.292  0.2778E+01  0.2778E+01  0.2081E+02  0.2081E+02
     17.391  0.2563E+01  0.2562E+01  0.2107E+02  0.2107E+02
     17.489  0.1748E+01  0.1746E+01  0.2124E+02  0.2124E+02
     17.587  0.1495E+01  0.1494E+01  0.2138E+02  0.2139E+02
     17.685  0.1113E+01  0.1113E+01  0.2149E+02  0.2149E+02
     17.783  0.4918E+00  0.4909E+00  0.2154E+02  0.2154E+02
     17.882  0.1055E+00  0.1052E+00  0.2155E+02  0.2155E+02
     17.980  0.2045E-01  0.2045E-01  0.2156E+02  0.2156E+02
     18.078  0.4869E-01  0.4895E-01  0.2156E+02  0.2156E+02
     18.176  0.2538E+00  0.2547E+00  0.2159E+02  0.2159E+02
     18.275  0.5148E+00  0.5148E+00  0.2164E+02  0.2164E+02
     18.373  0.2497E+00  0.2488E+00  0.2166E+02  0.2166E+02
     18.471  0.4772E-01  0.4748E-01  0.2167E+02  0.2167E+02
     18.569  0.7695E-02  0.7660E-02  0.2167E+02  0.2167E+02
     18.668  0.4845E-02  0.4866E-02  0.2167E+02  0.2167E+02
     18.766  0.3396E-01  0.3411E-01  0.2167E+02  0.2167E+02
     18.864  0.2155E+00  0.2163E+00  0.2169E+02  0.2169E+02
     18.962  0.8208E+00  0.8223E+00  0.2177E+02  0.2177E+02
     19.060  0.8851E+00  0.8837E+00  0.2186E+02  0.2186E+02
     19.159  0.2658E+00  0.2649E+00  0.2189E+02  0.2189E+02
     19.257  0.1161E+00  0.1162E+00  0.2190E+02  0.2190E+02
     19.355  0.4245E+00  0.4256E+00  0.2194E+02  0.2194E+02
     19.453  0.1038E+01  0.1038E+01  0.2204E+02  0.2204E+02
     19.552  0.7548E+00  0.7540E+00  0.2211E+02  0.2211E+02
     19.650  0.9182E+00  0.9196E+00  0.2220E+02  0.2221E+02
     19.748  0.1558E+01  0.1558E+01  0.2236E+02  0.2236E+02
     19.846  0.7187E+00  0.7171E+00  0.2243E+02  0.2243E+02
     19.945  0.1353E+00  0.1349E+00  0.2244E+02  0.2244E+02
     20.043  0.2018E-01  0.2012E-01  0.2244E+02  0.2244E+02
     20.141  0.1782E-02  0.1793E-02  0.2244E+02  0.2244E+02
     20.239  0.1289E-01  0.1297E-01  0.2245E+02  0.2245E+02
     20.338  0.8420E-01  0.8463E-01  0.2245E+02  0.2245E+02
     20.436  0.3709E+00  0.3720E+00  0.2249E+02  0.2249E+02
     20.534  0.5803E+00  0.5800E+00  0.2255E+02  0.2255E+02
     20.632  0.5740E+00  0.5741E+00  0.2260E+02  0.2260E+02
     20.730  0.6444E+00  0.6441E+00  0.2267E+02  0.2267E+02
     20.829  0.6211E+00  0.6210E+00  0.2273E+02  0.2273E+02
     20.927  0.3946E+00  0.3938E+00  0.2277E+02  0.2277E+02
     21.025  0.9178E-01  0.9148E-01  0.2278E+02  0.2278E+02
     21.123  0.1414E-01  0.1410E-01  0.2278E+02  0.2278E+02
     21.222  0.3217E-02  0.3228E-02  0.2278E+02  0.2278E+02
     21.320  0.2268E-01  0.2276E-01  0.2278E+02  0.2278E+02
     21.418  0.1498E+00  0.1503E+00  0.2280E+02  0.2280E+02
     21.516  0.6758E+00  0.6770E+00  0.2286E+02  0.2286E+02
     21.615  0.1001E+01  0.1000E+01  0.2296E+02  0.2296E+02
     21.713  0.4614E+00  0.4610E+00  0.2301E+02  0.2301E+02
     21.811  0.5976E+00  0.5994E+00  0.2306E+02  0.2306E+02
     21.909  0.1037E+01  0.1037E+01  0.2317E+02  0.2317E+02
     22.008  0.4757E+00  0.4737E+00  0.2321E+02  0.2321E+02
     22.106  0.1165E+00  0.1162E+00  0.2322E+02  0.2322E+02
     22.204  0.1986E+00  0.1991E+00  0.2324E+02  0.2324E+02
     22.302  0.8019E+00  0.8032E+00  0.2332E+02  0.2332E+02
     22.400  0.1292E+01  0.1292E+01  0.2345E+02  0.2345E+02
     22.499  0.1286E+01  0.1285E+01  0.2358E+02  0.2358E+02
     22.597  0.7359E+00  0.7349E+00  0.2365E+02  0.2365E+02
     22.695  0.1610E+00  0.1606E+00  0.2366E+02  0.2366E+02
     22.793  0.2337E-01  0.2332E-01  0.2367E+02  0.2367E+02
     22.892  0.0000E+00  0.0000E+00  0.2367E+02  0.2367E+02
     22.990  0.0000E+00  0.0000E+00  0.2367E+02  0.2367E+02
     23.088  0.0000E+00  0.0000E+00  0.2367E+02  0.2367E+02
     23.186  0.1033E-03  0.1035E-03  0.2367E+02  0.2367E+02
     23.285  0.6332E-03  0.6341E-03  0.2367E+02  0.2367E+02
     23.383  0.4496E-02  0.4502E-02  0.2367E+02  0.2367E+02
     23.481  0.3106E-01  0.3110E-01  0.2367E+02  0.2367E+02
     23.579  0.1800E+00  0.1802E+00  0.2369E+02  0.2369E+02
     23.678  0.4938E+00  0.4939E+00  0.2374E+02  0.2374E+02
     23.776  0.3346E+00  0.3343E+00  0.2377E+02  0.2377E+02
     23.874  0.7635E-01  0.7627E-01  0.2378E+02  0.2378E+02
     23.972  0.2928E-01  0.2931E-01  0.2378E+02  0.2378E+02
     24.070  0.1244E+00  0.1247E+00  0.2379E+02  0.2379E+02
     24.169  0.7037E+00  0.7049E+00  0.2386E+02  0.2386E+02
     24.267  0.1916E+01  0.1917E+01  0.2405E+02  0.2405E+02
     24.365  0.1890E+01  0.1888E+01  0.2424E+02  0.2424E+02
     24.463  0.8153E+00  0.8143E+00  0.2432E+02  0.2432E+02
     24.562  0.1860E+00  0.1859E+00  0.2433E+02  0.2433E+02
     24.660  0.1717E+00  0.1720E+00  0.2435E+02  0.2435E+02
     24.758  0.5096E+00  0.5101E+00  0.2440E+02  0.2440E+02
     24.856  0.6286E+00  0.6286E+00  0.2446E+02  0.2446E+02
     24.955  0.6089E+00  0.6087E+00  0.2452E+02  0.2452E+02
     25.053  0.2734E+00  0.2728E+00  0.2455E+02  0.2455E+02
     25.151  0.5078E-01  0.5063E-01  0.2455E+02  0.2455E+02
     25.249  0.1182E-01  0.1181E-01  0.2456E+02  0.2456E+02
     25.348  0.3122E-01  0.3130E-01  0.2456E+02  0.2456E+02
     25.446  0.2070E+00  0.2075E+00  0.2458E+02  0.2458E+02
     25.544  0.9624E+00  0.9638E+00  0.2467E+02  0.2467E+02
     25.642  0.1501E+01  0.1501E+01  0.2482E+02  0.2482E+02
     25.740  0.5843E+00  0.5832E+00  0.2488E+02  0.2488E+02
     25.839  0.1892E+00  0.1891E+00  0.2490E+02  0.2490E+02
     25.937  0.5476E+00  0.5482E+00  0.2495E+02  0.2495E+02
     26.035  0.1744E+01  0.1746E+01  0.2512E+02  0.2512E+02
     26.133  0.2107E+01  0.2108E+01  0.2533E+02  0.2533E+02
     26.232  0.1636E+01  0.1635E+01  0.2549E+02  0.2549E+02
     26.330  0.8156E+00  0.8135E+00  0.2557E+02  0.2557E+02
     26.428  0.1861E+00  0.1852E+00  0.2559E+02  0.2559E+02
     26.526  0.3001E-01  0.2986E-01  0.2559E+02  0.2559E+02
     26.625  0.1641E-01  0.1645E-01  0.2559E+02  0.2559E+02
     26.723  0.1003E+00  0.1006E+00  0.2560E+02  0.2560E+02
     26.821  0.5182E+00  0.5193E+00  0.2566E+02  0.2566E+02
     26.919  0.1029E+01  0.1029E+01  0.2576E+02  0.2576E+02
     27.018  0.4898E+00  0.4888E+00  0.2580E+02  0.2580E+02
     27.116  0.9945E-01  0.9922E-01  0.2581E+02  0.2581E+02
     27.214  0.6141E-01  0.6159E-01  0.2582E+02  0.2582E+02
     27.312  0.2512E+00  0.2521E+00  0.2584E+02  0.2585E+02
     27.410  0.5295E+00  0.5296E+00  0.2590E+02  0.2590E+02
     27.509  0.3493E+00  0.3485E+00  0.2593E+02  0.2593E+02
     27.607  0.4349E+00  0.4346E+00  0.2597E+02  0.2597E+02
     27.705  0.4734E+00  0.4734E+00  0.2602E+02  0.2602E+02
     27.803  0.1719E+00  0.1721E+00  0.2604E+02  0.2604E+02
     27.902  0.2124E+00  0.2134E+00  0.2606E+02  0.2606E+02
     28.000  0.9286E+00  0.9315E+00  0.2615E+02  0.2615E+02
     28.098  0.1824E+01  0.1824E+01  0.2633E+02  0.2633E+02
     28.196  0.1173E+01  0.1170E+01  0.2644E+02  0.2644E+02
     28.295  0.3254E+00  0.3240E+00  0.2648E+02  0.2648E+02
     28.393  0.8811E-01  0.8801E-01  0.2648E+02  0.2648E+02
     28.491  0.2284E+00  0.2294E+00  0.2651E+02  0.2651E+02
     28.589  0.8358E+00  0.8376E+00  0.2659E+02  0.2659E+02
     28.688  0.8852E+00  0.8834E+00  0.2668E+02  0.2668E+02
     28.786  0.3402E+00  0.3391E+00  0.2671E+02  0.2671E+02
     28.884  0.5329E+00  0.5332E+00  0.2676E+02  0.2676E+02
     28.982  0.1035E+01  0.1035E+01  0.2686E+02  0.2686E+02
     29.080  0.5136E+00  0.5131E+00  0.2691E+02  0.2691E+02
     29.179  0.9918E-01  0.9904E-01  0.2692E+02  0.2692E+02
     29.277  0.1573E-01  0.1592E-01  0.2693E+02  0.2693E+02
     29.375  0.8014E-02  0.9023E-02  0.2693E+02  0.2693E+02
     29.473  0.5474E-01  0.6211E-01  0.2693E+02  0.2693E+02
     29.572  0.3108E+00  0.3582E+00  0.2696E+02  0.2697E+02
     29.670  0.9200E+00  0.1122E+01  0.2705E+02  0.2708E+02
     29.768  0.1236E+01  0.1379E+01  0.2717E+02  0.2721E+02
     29.866  0.9085E+00  0.6492E+00  0.2726E+02  0.2728E+02
     29.965  0.2921E+00  0.1746E+00  0.2729E+02  0.2729E+02
     30.063  0.1406E+00  0.1212E+00  0.2731E+02  0.2731E+02
     30.161  0.5608E+00  0.5623E+00  0.2736E+02  0.2736E+02
     30.259  0.1626E+01  0.1632E+01  0.2752E+02  0.2752E+02
     30.358  0.1527E+01  0.1528E+01  0.2767E+02  0.2767E+02
     30.456  0.8336E+00  0.8619E+00  0.2775E+02  0.2776E+02
     30.554  0.1037E+01  0.1091E+01  0.2786E+02  0.2786E+02
     30.652  0.1073E+01  0.1021E+01  0.2796E+02  0.2797E+02
     30.750  0.3292E+00  0.2942E+00  0.2799E+02  0.2799E+02
     30.849  0.5450E-01  0.4804E-01  0.2800E+02  0.2800E+02
     30.947  0.7838E-02  0.6895E-02  0.2800E+02  0.2800E+02
     31.045  0.0000E+00  0.0000E+00  0.2800E+02  0.2800E+02
     31.143  0.0000E+00  0.0000E+00  0.2800E+02  0.2800E+02
     31.242  0.0000E+00  0.0000E+00  0.2800E+02  0.2800E+02
     31.340  0.0000E+00  0.0000E+00  0.2800E+02  0.2800E+02
     31.438  0.0000E+00  0.0000E+00  0.2800E+02  0.2800E+02
     31.536  0.0000E+00  0.0000E+00  0.2800E+02  0.2800E+02
     31.635  0.0000E+00  0.0000E+00  0.2800E+02  0.2800E+02
     31.733  0.0000E+00  0.0000E+00  0.2800E+02  0.2800E+02
     31.831  0.0000E+00  0.0000E+00  0.2800E+02  0.2800E+02
     31.929  0.0000E+00  0.0000E+00  0.2800E+02  0.2800E+02
     31.92928588      2.45877938  301     16.83948790      1.00000000
      2.459  0.0000E+00  0.0000E+00  0.0000E+00  0.0000E+00  0.0000E+00  0.0000E+00  0.0000E+00  0.0000E+00  0.0000E+00  0.0000E+00  0.0000E+00  0.0000E+00  0.0000E+00  0.0000E+00  0.0000E+00  0.0000E+00  0.0000E+00  0.0000E+00
      2.557  0.0000E+00  0.0000E+00  0.0000E+00  0.0000E+00  0.0000E+00  0.0000E+00  0.0000E+00  0.0000E+00  0.0000E+00  0.0000E+00  0.0000E+00  0.0000E+00  0.0000E+00  0.0000E+00  0.0000E+00  0.0000E+00  0.0000E+00  0.0000E+00
      2.655  0.0000E+00  0.0000E+00  0.0000E+00  0.0000E+00  0.0000E+00  0.0000E+00  0.0000E+00  0.0000E+00  0.0000E+00  0.0000E+00  0.0000E+00  0.0000E+00  0.0000E+00  0.0000E+00  0.0000E+00  0.0000E+00  0.0000E+00  0.0000E+00
      2.753  0.0000E+00  0.0000E+00  0.0000E+00  0.0000E+00  0.0000E+00  0.0000E+00  0.0000E+00  0.0000E+00  0.0000E+00  0.0000E+00  0.0000E+00  0.0000E+00  0.0000E+00  0.0000E+00  0.0000E+00  0.0000E+00  0.0000E+00  0.0000E+00
      2.852  0.0000E+00  0.0000E+00  0.0000E+00  0.0000E+00  0.0000E+00  0.0000E+00  0.0000E+00  0.0000E+00  0.0000E+00  0.0000E+00  0.0000E+00  0.0000E+00  0.0000E+00  0.0000E+00  0.0000E+00  0.0000E+00  0.0000E+00  0.0000E+00
      2.950  0.0000E+00  0.0000E+00  0.0000E+00  0.0000E+00  0.0000E+00  0.0000E+00  0.0000E+00  0.0000E+00  0.0000E+00  0.0000E+00  0.0000E+00  0.0000E+00  0.0000E+00  0.0000E+00  0.0000E+00  0.0000E+00  0.0000E+00  0.0000E+00
      3.048  0.0000E+00  0.0000E+00  0.0000E+00  0.0000E+00  0.0000E+00  0.0000E+00  0.0000E+00  0.0000E+00  0.0000E+00  0.0000E+00  0.0000E+00  0.0000E+00  0.0000E+00  0.0000E+00  0.0000E+00  0.0000E+00  0.0000E+00  0.0000E+00
      3.146  0.0000E+00  0.0000E+00  0.0000E+00  0.0000E+00  0.0000E+00  0.0000E+00  0.0000E+00  0.0000E+00  0.0000E+00  0.0000E+00  0.0000E+00  0.0000E+00  0.0000E+00  0.0000E+00  0.0000E+00  0.0000E+00  0.0000E+00  0.0000E+00
      3.245  0.0000E+00  0.0000E+00  0.0000E+00  0.0000E+00  0.0000E+00  0.0000E+00  0.0000E+00  0.0000E+00  0.0000E+00  0.0000E+00  0.0000E+00  0.0000E+00  0.0000E+00  0.0000E+00  0.0000E+00  0.0000E+00  0.0000E+00  0.0000E+00
      3.343  0.1107E-04  0.1111E-04  0.9392E-07  0.9431E-07  0.9392E-07  0.9431E-07  0.9392E-07  0.9431E-07  0.5500E-08  0.5523E-08  0.5500E-08  0.5523E-08  0.2529E-21  0.4638E-21  0.5500E-08  0.5523E-08  0.2529E-21  0.4638E-21
      3.441  0.6781E-04  0.6809E-04  0.5756E-06  0.5779E-06  0.5756E-06  0.5779E-06  0.5756E-06  0.5779E-06  0.3371E-07  0.3384E-07  0.3371E-07  0.3384E-07  0.1550E-20  0.2842E-20  0.3371E-07  0.3384E-07  0.1550E-20  0.2842E-20
      3.539  0.4811E-03  0.4830E-03  0.4083E-05  0.4100E-05  0.4083E-05  0.4100E-05  0.4083E-05  0.4100E-05  0.2391E-06  0.2401E-06  0.2391E-06  0.2401E-06  0.1099E-19  0.2016E-19  0.2391E-06  0.2401E-06  0.1099E-19  0.2016E-19
      3.638  0.3302E-02  0.3315E-02  0.2802E-04  0.2813E-04  0.2802E-04  0.2813E-04  0.2802E-04  0.2813E-04  0.1641E-05  0.1648E-05  0.1641E-05  0.1648E-05  0.7545E-19  0.1384E-18  0.1641E-05  0.1648E-05  0.7545E-19  0.1384E-18
      3.736  0.1843E-01  0.1848E-01  0.1564E-03  0.1569E-03  0.1564E-03  0.1569E-03  0.1564E-03  0.1569E-03  0.9159E-05  0.9186E-05  0.9159E-05  0.9186E-05  0.4211E-18  0.7715E-18  0.9159E-05  0.9186E-05  0.4211E-18  0.7715E-18
      3.834  0.4504E-01  0.4506E-01  0.3823E-03  0.3825E-03  0.3823E-03  0.3825E-03  0.3823E-03  0.3825E-03  0.2239E-04  0.2240E-04  0.2239E-04  0.2240E-04  0.1029E-17  0.1881E-17  0.2239E-04  0.2240E-04  0.1029E-17  0.1881E-17
      3.932  0.2662E-01  0.2655E-01  0.2259E-03  0.2254E-03  0.2259E-03  0.2254E-03  0.2259E-03  0.2254E-03  0.1323E-04  0.1320E-04  0.1323E-04  0.1320E-04  0.6082E-18  0.1108E-17  0.1323E-04  0.1320E-04  0.6082E-18  0.1108E-17
      4.031  0.5513E-02  0.5492E-02  0.4679E-04  0.4661E-04  0.4679E-04  0.4661E-04  0.4679E-04  0.4661E-04  0.2740E-05  0.2730E-05  0.2740E-05  0.2730E-05  0.1260E-18  0.2292E-18  0.2740E-05  0.2730E-05  0.1260E-18  0.2292E-18
      4.129  0.8250E-03  0.8217E-03  0.7002E-05  0.6974E-05  0.7002E-05  0.6974E-05  0.7002E-05  0.6974E-05  0.4100E-06  0.4084E-06  0.4100E-06  0.4084E-06  0.1885E-19  0.3430E-19  0.4100E-06  0.4084E-06  0.1885E-19  0.3430E-19
      4.227  0.2232E-04  0.2242E-04  0.6980E-06  0.7009E-06  0.6980E-06  0.7009E-06  0.6980E-06  0.7009E-06  0.7667E-07  0.7699E-07  0.7667E-07  0.7699E-07  0.6229E-07  0.6254E-07  0.7667E-07  0.7699E-07  0.6229E-07  0.6254E-07
      4.325  0.1368E-03  0.1374E-03  0.4278E-05  0.4296E-05  0.4278E-05  0.4296E-05  0.4278E-05  0.4296E-05  0.4699E-06  0.4719E-06  0.4699E-06  0.4719E-06  0.3818E-06  0.3833E-06  0.4699E-06  0.4719E-06  0.3818E-06  0.3833E-06
      4.423  0.9721E-03  0.9761E-03  0.3039E-04  0.3052E-04  0.3039E-04  0.3052E-04  0.3039E-04  0.3052E-04  0.3338E-05  0.3352E-05  0.3338E-05  0.3352E-05  0.2712E-05  0.2723E-05  0.3338E-05  0.3352E-05  0.2712E-05  0.2723E-05
      4.522  0.6742E-02  0.6769E-02  0.2108E-03  0.2116E-03  0.2108E-03  0.2116E-03  0.2108E-03  0.2116E-03  0.2315E-04  0.2325E-04  0.2315E-04  0.2325E-04  0.1881E-04  0.1888E-04  0.2315E-04  0.2325E-04  0.1881E-04  0.1888E-04
      4.620  0.3998E-01  0.4012E-01  0.1250E-02  0.1254E-02  0.1250E-02  0.1254E-02  0.1250E-02  0.1254E-02  0.1373E-03  0.1378E-03  0.1373E-03  0.1378E-03  0.1116E-03  0.1119E-03  0.1373E-03  0.1378E-03  0.1116E-03  0.1119E-03
      4.718  0.1183E+00  0.1184E+00  0.3699E-02  0.3703E-02  0.3699E-02  0.3703E-02  0.3699E-02  0.3703E-02  0.4063E-03  0.4067E-03  0.4063E-03  0.4067E-03  0.3301E-03  0.3304E-03  0.4063E-03  0.4067E-03  0.3301E-03  0.3304E-03
      4.816  0.8815E-01  0.8796E-01  0.2756E-02  0.2750E-02  0.2756E-02  0.2750E-02  0.2756E-02  0.2750E-02  0.3027E-03  0.3021E-03  0.3027E-03  0.3021E-03  0.2459E-03  0.2454E-03  0.3027E-03  0.3021E-03  0.2459E-03  0.2454E-03
      4.915  0.2043E-01  0.2036E-01  0.6389E-03  0.6365E-03  0.6389E-03  0.6365E-03  0.6389E-03  0.6365E-03  0.7017E-04  0.6991E-04  0.7017E-04  0.6991E-04  0.5701E-04  0.5679E-04  0.7017E-04  0.6991E-04  0.5701E-04  0.5679E-04
      5.013  0.3164E-02  0.3151E-02  0.9954E-04  0.9915E-04  0.9954E-04  0.9915E-04  0.9954E-04  0.9915E-04  0.1147E-04  0.1143E-04  0.1147E-04  0.1143E-04  0.8789E-05  0.8754E-05  0.1147E-04  0.1143E-04  0.8789E-05  0.8754E-05
      5.111  0.2071E-03  0.2079E-03  0.1025E-04  0.1029E-04  0.1025E-04  0.1029E-04  0.1025E-04  0.1029E-04  0.4443E-05  0.4461E-05  0.4443E-05  0.4461E-05  0.3443E-06  0.3457E-06  0.4443E-05  0.4461E-05  0.3443E-06  0.3457E-06
      5.209  0.1467E-02  0.1473E-02  0.7259E-04  0.7288E-04  0.7259E-04  0.7288E-04  0.7259E-04  0.7288E-04  0.3148E-04  0.3161E-04  0.3148E-04  0.3161E-04  0.2440E-05  0.2449E-05  0.3148E-04  0.3161E-04  0.2440E-05  0.2449E-05
      5.308  0.9995E-02  0.1003E-01  0.4944E-03  0.4963E-03  0.4944E-03  0.4963E-03  0.4944E-03  0.4963E-03  0.2144E-03  0.2152E-03  0.2144E-03  0.2152E-03  0.1662E-04  0.1668E-04  0.2144E-03  0.2152E-03  0.1662E-04  0.1668E-04
      5.406  0.5340E-01  0.5355E-01  0.2642E-02  0.2649E-02  0.2642E-02  0.2649E-02  0.2642E-02  0.2649E-02  0.1146E-02  0.1149E-02  0.1146E-02  0.1149E-02  0.8878E-04  0.8902E-04  0.1146E-02  0.1149E-02  0.8878E-04  0.8902E-04
      5.504  0.1156E+00  0.1156E+00  0.5718E-02  0.5719E-02  0.5718E-02  0.5719E-02  0.5718E-02  0.5719E-02  0.2482E-02  0.2482E-02  0.2482E-02  0.2482E-02  0.1921E-03  0.1922E-03  0.2482E-02  0.2482E-02  0.1921E-03  0.1922E-03
      5.602  0.6006E-01  0.5990E-01  0.2971E-02  0.2963E-02  0.2971E-02  0.2963E-02  0.2971E-02  0.2963E-02  0.1302E-02  0.1299E-02  0.1302E-02  0.1299E-02  0.9952E-04  0.9926E-04  0.1302E-02  0.1299E-02  0.9952E-04  0.9926E-04
      5.701  0.1310E-01  0.1306E-01  0.6489E-03  0.6469E-03  0.6489E-03  0.6469E-03  0.6489E-03  0.6469E-03  0.3750E-03  0.3745E-03  0.3750E-03  0.3745E-03  0.1948E-04  0.1941E-04  0.3750E-03  0.3745E-03  0.1948E-04  0.1941E-04
      5.799  0.1032E-01  0.1034E-01  0.5178E-03  0.5187E-03  0.5178E-03  0.5187E-03  0.5178E-03  0.5187E-03  0.7999E-03  0.8018E-03  0.7999E-03  0.8018E-03  0.6054E-05  0.6057E-05  0.7999E-03  0.8018E-03  0.6054E-05  0.6057E-05
      5.897  0.2933E-01  0.2936E-01  0.1480E-02  0.1482E-02  0.1480E-02  0.1482E-02  0.1480E-02  0.1482E-02  0.2590E-02  0.2592E-02  0.2590E-02  0.2592E-02  0.1940E-04  0.1949E-04  0.2590E-02  0.2592E-02  0.1940E-04  0.1949E-04
      5.995  0.2894E-01  0.2892E-01  0.1531E-02  0.1530E-02  0.1531E-02  0.1530E-02  0.1531E-02  0.1530E-02  0.2360E-02  0.2357E-02  0.2360E-02  0.2357E-02  0.1364E-03  0.1369E-03  0.2360E-02  0.2357E-02  0.1364E-03  0.1369E-03
      6.093  0.2544E-01  0.2550E-01  0.1801E-02  0.1806E-02  0.1801E-02  0.1806E-02  0.1801E-02  0.1806E-02  0.8080E-03  0.8070E-03  0.8080E-03  0.8070E-03  0.8793E-03  0.8827E-03  0.8080E-03  0.8070E-03  0.8793E-03  0.8827E-03
      6.192  0.7764E-01  0.7779E-01  0.6035E-02  0.6048E-02  0.6035E-02  0.6048E-02  0.6035E-02  0.6048E-02  0.1012E-02  0.1014E-02  0.1012E-02  0.1014E-02  0.3606E-02  0.3614E-02  0.1012E-02  0.1014E-02  0.3606E-02  0.3614E-02
      6.290  0.9451E-01  0.9425E-01  0.7288E-02  0.7272E-02  0.7288E-02  0.7272E-02  0.7288E-02  0.7272E-02  0.2019E-02  0.2005E-02  0.2019E-02  0.2005E-02  0.4457E-02  0.4452E-02  0.2019E-02  0.2005E-02  0.4457E-02  0.4452E-02
      6.388  0.3861E-01  0.3852E-01  0.2445E-02  0.2438E-02  0.2445E-02  0.2438E-02  0.2445E-02  0.2438E-02  0.5985E-02  0.5988E-02  0.5985E-02  0.5988E-02  0.2097E-02  0.2096E-02  0.5985E-02  0.5988E-02  0.2097E-02  0.2096E-02
      6.486  0.3205E-01  0.3206E-01  0.1185E-02  0.1185E-02  0.1185E-02  0.1185E-02  0.1185E-02  0.1185E-02  0.1360E-01  0.1361E-01  0.1360E-01  0.1361E-01  0.5217E-02  0.5239E-02  0.1360E-01  0.1361E-01  0.5217E-02  0.5239E-02
      6.585  0.7349E-01  0.7362E-01  0.3911E-02  0.3920E-02  0.3911E-02  0.3920E-02  0.3911E-02  0.3920E-02  0.2278E-01  0.2280E-01  0.2278E-01  0.2280E-01  0.2683E-01  0.2692E-01  0.2278E-01  0.2280E-01  0.2683E-01  0.2692E-01
      6.683  0.2077E+00  0.2080E+00  0.1279E-01  0.1281E-01  0.1279E-01  0.1281E-01  0.1279E-01  0.1281E-01  0.5725E-01  0.5728E-01  0.5725E-01  0.5728E-01  0.5947E-01  0.5949E-01  0.5725E-01  0.5728E-01  0.5947E-01  0.5949E-01
      6.781  0.3057E+00  0.3057E+00  0.2137E-01  0.2138E-01  0.2137E-01  0.2138E-01  0.2137E-01  0.2138E-01  0.7323E-01  0.7322E-01  0.7323E-01  0.7322E-01  0.3493E-01  0.3484E-01  0.7323E-01  0.7322E-01  0.3493E-01  0.3484E-01
      6.879  0.1706E+00  0.1703E+00  0.1222E-01  0.1219E-01  0.1222E-01  0.1219E-01  0.1222E-01  0.1219E-01  0.4011E-01  0.4007E-01  0.4011E-01  0.4007E-01  0.1107E-01  0.1105E-01  0.4011E-01  0.4007E-01  0.1107E-01  0.1105E-01
      6.978  0.4435E-01  0.4428E-01  0.3315E-02  0.3310E-02  0.3315E-02  0.3310E-02  0.3315E-02  0.3310E-02  0.1052E-01  0.1050E-01  0.1052E-01  0.1050E-01  0.1658E-01  0.1664E-01  0.1052E-01  0.1050E-01  0.1658E-01  0.1664E-01
      7.076  0.3059E-01  0.3061E-01  0.2908E-02  0.2912E-02  0.2908E-02  0.2912E-02  0.2908E-02  0.2912E-02  0.7821E-02  0.7826E-02  0.7821E-02  0.7826E-02  0.4980E-01  0.4988E-01  0.7821E-02  0.7826E-02  0.4980E-01  0.4988E-01
      7.174  0.4672E-01  0.4676E-01  0.4898E-02  0.4905E-02  0.4898E-02  0.4905E-02  0.4898E-02  0.4905E-02  0.3116E-01  0.3120E-01  0.3116E-01  0.3120E-01  0.6599E-01  0.6603E-01  0.3116E-01  0.3120E-01  0.6599E-01  0.6603E-01
      7.272  0.1274E+00  0.1276E+00  0.1342E-01  0.1343E-01  0.1342E-01  0.1343E-01  0.1342E-01  0.1343E-01  0.1053E+00  0.1054E+00  0.1053E+00  0.1054E+00  0.1181E+00  0.1182E+00  0.1053E+00  0.1054E+00  0.1181E+00  0.1182E+00
      7.371  0.1734E+00  0.1734E+00  0.1734E-01  0.1733E-01  0.1734E-01  0.1733E-01  0.1734E-01  0.1733E-01  0.1239E+00  0.1239E+00  0.1239E+00  0.1239E+00  0.1145E+00  0.1143E+00  0.1239E+00  0.1239E+00  0.1145E+00  0.1143E+00