   4   4   1   0
  0.1858297E+02  0.4204604E-09  0.4204604E-09  0.4204604E-09  0.5000000E-15
  1.000000000000000E-004
  CAR 
 unknown system                          
     20.62070141     -1.15472427  301      7.66821526      1.00000000
     -1.155  0.0000E+00  0.0000E+00  0.0000E+00  0.0000E+00
     -1.082  0.0000E+00  0.0000E+00  0.0000E+00  0.0000E+00
     -1.010  0.0000E+00  0.0000E+00  0.0000E+00  0.0000E+00
     -0.937  0.0000E+00  0.0000E+00  0.0000E+00  0.0000E+00
     -0.864  0.0000E+00  0.0000E+00  0.0000E+00  0.0000E+00
     -0.792  0.0000E+00  0.0000E+00  0.0000E+00  0.0000E+00
     -0.719  0.0000E+00  0.0000E+00  0.0000E+00  0.0000E+00
     -0.647  0.0000E+00  0.0000E+00  0.0000E+00  0.0000E+00
     -0.574  0.1426E-03  0.1415E-03  0.1035E-04  0.1027E-04
     -0.501  0.4658E-03  0.4624E-03  0.4416E-04  0.4384E-04
     -0.429  0.1980E-02  0.1965E-02  0.1879E-03  0.1865E-03
     -0.356  0.8284E-02  0.8224E-02  0.7891E-03  0.7834E-03
     -0.284  0.3253E-01  0.3231E-01  0.3150E-02  0.3129E-02
     -0.211  0.1016E+00  0.1011E+00  0.1053E-01  0.1047E-01
     -0.139  0.1759E+00  0.1758E+00  0.2330E-01  0.2323E-01
     -0.066  0.1274E+00  0.1279E+00  0.3254E-01  0.3251E-01
      0.007  0.4633E-01  0.4662E-01  0.3590E-01  0.3590E-01
      0.079  0.1343E-01  0.1350E-01  0.3688E-01  0.3688E-01
      0.152  0.8353E-02  0.8334E-02  0.3749E-01  0.3748E-01
      0.224  0.2342E-01  0.2325E-01  0.3919E-01  0.3917E-01
      0.297  0.8987E-01  0.8924E-01  0.4572E-01  0.4566E-01
      0.370  0.2873E+00  0.2859E+00  0.6658E-01  0.6641E-01
      0.442  0.5227E+00  0.5222E+00  0.1045E+00  0.1043E+00
      0.515  0.4001E+00  0.4015E+00  0.1336E+00  0.1335E+00
      0.587  0.1497E+00  0.1507E+00  0.1444E+00  0.1444E+00
      0.660  0.4345E-01  0.4371E-01  0.1476E+00  0.1476E+00
      0.732  0.2496E-01  0.2489E-01  0.1494E+00  0.1494E+00
      0.805  0.6438E-01  0.6386E-01  0.1541E+00  0.1540E+00
      0.878  0.2163E+00  0.2148E+00  0.1698E+00  0.1697E+00
      0.950  0.4800E+00  0.4787E+00  0.2047E+00  0.2044E+00
      1.023  0.4706E+00  0.4720E+00  0.2388E+00  0.2387E+00
      1.095  0.2084E+00  0.2098E+00  0.2539E+00  0.2539E+00
      1.168  0.7033E-01  0.7068E-01  0.2590E+00  0.2590E+00
      1.241  0.6189E-01  0.6144E-01  0.2635E+00  0.2635E+00
      1.313  0.1574E+00  0.1561E+00  0.2750E+00  0.2748E+00
      1.386  0.3352E+00  0.3339E+00  0.2994E+00  0.2991E+00
      1.458  0.5310E+00  0.5302E+00  0.3379E+00  0.3376E+00
      1.531  0.5595E+00  0.5607E+00  0.3785E+00  0.3783E+00
      1.603  0.2920E+00  0.2938E+00  0.3997E+00  0.3996E+00
      1.676  0.1172E+00  0.1175E+00  0.4082E+00  0.4082E+00
      1.749  0.1452E+00  0.1438E+00  0.4188E+00  0.4186E+00
      1.821  0.4402E+00  0.4354E+00  0.4507E+00  0.4502E+00
      1.894  0.1007E+01  0.1001E+01  0.5239E+00  0.5230E+00
      1.966  0.1156E+01  0.1156E+01  0.6078E+00  0.6069E+00
      2.039  0.8994E+00  0.8993E+00  0.6731E+00  0.6722E+00
      2.112  0.6417E+00  0.6452E+00  0.7197E+00  0.7190E+00
      2.184  0.3919E+00  0.3912E+00  0.7481E+00  0.7474E+00
      2.257  0.4661E+00  0.4578E+00  0.7819E+00  0.7806E+00
      2.329  0.7475E+00  0.7389E+00  0.8364E+00  0.8344E+00
      2.402  0.9342E+00  0.9299E+00  0.9042E+00  0.9019E+00
      2.475  0.1085E+01  0.1083E+01  0.9830E+00  0.9806E+00
      2.547  0.1323E+01  0.1325E+01  0.1079E+01  0.1077E+01
      2.620  0.1502E+01  0.1498E+01  0.1188E+01  0.1186E+01
      2.692  0.1714E+01  0.1688E+01  0.1313E+01  0.1308E+01
      2.765  0.2594E+01  0.2562E+01  0.1501E+01  0.1494E+01
      2.837  0.3034E+01  0.3040E+01  0.1721E+01  0.1715E+01
      2.910  0.2851E+01  0.2863E+01  0.1928E+01  0.1923E+01
      2.983  0.2271E+01  0.2278E+01  0.2093E+01  0.2088E+01
      3.055  0.2162E+01  0.2135E+01  0.2250E+01  0.2243E+01
      3.128  0.2923E+01  0.2890E+01  0.2462E+01  0.2453E+01
      3.200  0.3784E+01  0.3748E+01  0.2737E+01  0.2725E+01
      3.273  0.4401E+01  0.4391E+01  0.3057E+01  0.3044E+01
      3.346  0.3812E+01  0.3854E+01  0.3334E+01  0.3324E+01
      3.418  0.2713E+01  0.2737E+01  0.3530E+01  0.3523E+01
      3.491  0.2315E+01  0.2321E+01  0.3699E+01  0.3691E+01
      3.563  0.2686E+01  0.2648E+01  0.3894E+01  0.3884E+01
      3.636  0.3922E+01  0.3873E+01  0.4179E+01  0.4165E+01
      3.708  0.4093E+01  0.4127E+01  0.4476E+01  0.4465E+01
      3.781  0.2967E+01  0.3021E+01  0.4692E+01  0.4684E+01
      3.854  0.2014E+01  0.2041E+01  0.4838E+01  0.4833E+01
      3.926  0.1815E+01  0.1795E+01  0.4970E+01  0.4963E+01
      3.999  0.2522E+01  0.2480E+01  0.5153E+01  0.5143E+01
      4.071  0.3180E+01  0.3166E+01  0.5384E+01  0.5373E+01
      4.144  0.3581E+01  0.3574E+01  0.5644E+01  0.5633E+01
      4.217  0.3465E+01  0.3485E+01  0.5896E+01  0.5886E+01
      4.289  0.3036E+01  0.3032E+01  0.6116E+01  0.6106E+01
      4.362  0.3210E+01  0.3200E+01  0.6349E+01  0.6338E+01
      4.434  0.3358E+01  0.3337E+01  0.6593E+01  0.6581E+01
      4.507  0.4242E+01  0.4187E+01  0.6901E+01  0.6885E+01
      4.579  0.5251E+01  0.5220E+01  0.7283E+01  0.7264E+01
      4.652  0.4946E+01  0.4997E+01  0.7642E+01  0.7627E+01
      4.725  0.3631E+01  0.3684E+01  0.7906E+01  0.7894E+01
      4.797  0.3199E+01  0.3185E+01  0.8138E+01  0.8126E+01
      4.870  0.4293E+01  0.4205E+01  0.8450E+01  0.8431E+01
      4.942  0.5795E+01  0.5753E+01  0.8871E+01  0.8849E+01
      5.015  0.5415E+01  0.5464E+01  0.9264E+01  0.9246E+01
      5.088  0.4442E+01  0.4468E+01  0.9587E+01  0.9570E+01
      5.160  0.4600E+01  0.4559E+01  0.9921E+01  0.9901E+01
      5.233  0.5629E+01  0.5576E+01  0.1033E+02  0.1031E+02
      5.305  0.6234E+01  0.6204E+01  0.1078E+02  0.1076E+02
      5.378  0.6331E+01  0.6361E+01  0.1124E+02  0.1122E+02
      5.450  0.5266E+01  0.5354E+01  0.1162E+02  0.1161E+02
      5.523  0.4065E+01  0.4120E+01  0.1192E+02  0.1191E+02
      5.596  0.3732E+01  0.3715E+01  0.1219E+02  0.1218E+02
      5.668  0.4068E+01  0.4042E+01  0.1249E+02  0.1247E+02
      5.741  0.3711E+01  0.3753E+01  0.1276E+02  0.1274E+02
      5.813  0.2809E+01  0.2849E+01  0.1296E+02  0.1295E+02
      5.886  0.2529E+01  0.2526E+01  0.1314E+02  0.1313E+02
      5.959  0.2770E+01  0.2757E+01  0.1334E+02  0.1333E+02
      6.031  0.2913E+01  0.2906E+01  0.1356E+02  0.1354E+02
      6.104  0.3298E+01  0.3253E+01  0.1380E+02  0.1378E+02
      6.176  0.4279E+01  0.4224E+01  0.1411E+02  0.1409E+02
      6.249  0.4798E+01  0.4790E+01  0.1446E+02  0.1444E+02
      6.322  0.4961E+01  0.4954E+01  0.1482E+02  0.1480E+02
      6.394  0.4888E+01  0.4913E+01  0.1517E+02  0.1515E+02
      6.467  0.4148E+01  0.4211E+01  0.1547E+02  0.1546E+02
      6.539  0.2922E+01  0.2984E+01  0.1568E+02  0.1567E+02
      6.612  0.2342E+01  0.2341E+01  0.1585E+02  0.1585E+02
      6.684  0.2607E+01  0.2579E+01  0.1604E+02  0.1603E+02
      6.757  0.3031E+01  0.2991E+01  0.1626E+02  0.1625E+02
      6.830  0.3619E+01  0.3593E+01  0.1653E+02  0.1651E+02
      6.902  0.3907E+01  0.3879E+01  0.1681E+02  0.1679E+02
      6.975  0.4859E+01  0.4800E+01  0.1716E+02  0.1714E+02
      7.047  0.4795E+01  0.4859E+01  0.1751E+02  0.1749E+02
      7.120  0.3109E+01  0.3214E+01  0.1774E+02  0.1773E+02
      7.193  0.1954E+01  0.1974E+01  0.1788E+02  0.1787E+02
      7.265  0.2367E+01  0.2302E+01  0.1805E+02  0.1804E+02
      7.338  0.3775E+01  0.3669E+01  0.1833E+02  0.1830E+02
      7.410  0.5242E+01  0.5150E+01  0.1871E+02  0.1868E+02
      7.483  0.5783E+01  0.5795E+01  0.1913E+02  0.1910E+02
      7.555  0.5229E+01  0.5261E+01  0.1951E+02  0.1948E+02
      7.628  0.4720E+01  0.4764E+01  0.1985E+02  0.1983E+02
      7.701  0.3775E+01  0.3839E+01  0.2012E+02  0.2011E+02
      7.773  0.3210E+01  0.3206E+01  0.2036E+02  0.2034E+02
      7.846  0.3574E+01  0.3543E+01  0.2062E+02  0.2060E+02
      7.918  0.3219E+01  0.3299E+01  0.2085E+02  0.2084E+02
      7.991  0.1890E+01  0.1972E+01  0.2099E+02  0.2098E+02
      8.064  0.1551E+01  0.1542E+01  0.2110E+02  0.2109E+02
      8.136  0.2046E+01  0.2032E+01  0.2125E+02  0.2124E+02
      8.209  0.1947E+01  0.1976E+01  0.2139E+02  0.2138E+02
      8.281  0.1371E+01  0.1411E+01  0.2149E+02  0.2149E+02
      8.354  0.6427E+00  0.6747E+00  0.2154E+02  0.2154E+02
      8.426  0.1984E+00  0.2112E+00  0.2155E+02  0.2155E+02
      8.499  0.4703E-01  0.5376E-01  0.2155E+02  0.2155E+02
      8.572  0.1076E-01  0.1137E-01  0.2156E+02  0.2156E+02
      8.644  0.2488E-02  0.2695E-02  0.2156E+02  0.2156E+02
      8.717  0.3370E-02  0.3201E-02  0.2156E+02  0.2156E+02
      8.789  0.1361E-01  0.1294E-01  0.2156E+02  0.2156E+02
      8.862  0.5721E-01  0.5443E-01  0.2156E+02  0.2156E+02
      8.935  0.2294E+00  0.2186E+00  0.2158E+02  0.2158E+02
      9.007  0.7826E+00  0.7504E+00  0.2163E+02  0.2163E+02
      9.080  0.1844E+01  0.1792E+01  0.2177E+02  0.2176E+02
      9.152  0.2443E+01  0.2441E+01  0.2195E+02  0.2194E+02
      9.225  0.1566E+01  0.1621E+01  0.2206E+02  0.2206E+02
      9.297  0.5860E+00  0.6153E+00  0.2210E+02  0.2210E+02
      9.370  0.3188E+00  0.3185E+00  0.2212E+02  0.2212E+02
      9.443  0.6017E+00  0.5806E+00  0.2217E+02  0.2217E+02
      9.515  0.1048E+01  0.1038E+01  0.2224E+02  0.2224E+02
      9.588  0.8069E+00  0.8305E+00  0.2230E+02  0.2230E+02
      9.660  0.3028E+00  0.3190E+00  0.2233E+02  0.2233E+02
      9.733  0.8188E-01  0.8689E-01  0.2233E+02  0.2233E+02
      9.806  0.2383E-01  0.2494E-01  0.2233E+02  0.2233E+02
      9.878  0.2147E-01  0.2119E-01  0.2233E+02  0.2233E+02
      9.951  0.6951E-01  0.6716E-01  0.2234E+02  0.2234E+02
     10.023  0.2540E+00  0.2463E+00  0.2236E+02  0.2236E+02
     10.096  0.6735E+00  0.6582E+00  0.2241E+02  0.2241E+02
     10.168  0.1133E+01  0.1114E+01  0.2249E+02  0.2249E+02
     10.241  0.1375E+01  0.1372E+01  0.2259E+02  0.2259E+02
     10.314  0.1116E+01  0.1132E+01  0.2267E+02  0.2267E+02
     10.386  0.8174E+00  0.8286E+00  0.2273E+02  0.2273E+02
     10.459  0.4923E+00  0.5027E+00  0.2277E+02  0.2276E+02
     10.531  0.2868E+00  0.2863E+00  0.2279E+02  0.2279E+02
     10.604  0.4889E+00  0.4725E+00  0.2282E+02  0.2282E+02
     10.677  0.9814E+00  0.9663E+00  0.2289E+02  0.2289E+02
     10.749  0.9276E+00  0.9448E+00  0.2296E+02  0.2296E+02
     10.822  0.3975E+00  0.4147E+00  0.2299E+02  0.2299E+02
     10.894  0.1141E+00  0.1199E+00  0.2300E+02  0.2300E+02
     10.967  0.3766E-01  0.3876E-01  0.2300E+02  0.2300E+02
     11.040  0.4956E-01  0.4808E-01  0.2300E+02  0.2300E+02
     11.112  0.1715E+00  0.1646E+00  0.2302E+02  0.2302E+02
     11.185  0.5556E+00  0.5389E+00  0.2306E+02  0.2305E+02
     11.257  0.1045E+01  0.1037E+01  0.2313E+02  0.2313E+02
     11.330  0.8501E+00  0.8656E+00  0.2319E+02  0.2319E+02
     11.402  0.4336E+00  0.4406E+00  0.2323E+02  0.2323E+02
     11.475  0.5284E+00  0.5173E+00  0.2326E+02  0.2326E+02
     11.548  0.1163E+01  0.1141E+01  0.2335E+02  0.2335E+02
     11.620  0.1667E+01  0.1661E+01  0.2347E+02  0.2347E+02
     11.693  0.1525E+01  0.1538E+01  0.2358E+02  0.2358E+02
     11.765  0.8275E+00  0.8502E+00  0.2364E+02  0.2364E+02
     11.838  0.2693E+00  0.2799E+00  0.2366E+02  0.2366E+02
     11.911  0.6955E-01  0.7253E-01  0.2367E+02  0.2367E+02
     11.983  0.1708E-01  0.1760E-01  0.2367E+02  0.2367E+02
     12.056  0.1375E-01  0.1332E-01  0.2367E+02  0.2367E+02
     12.128  0.4229E-01  0.3994E-01  0.2367E+02  0.2367E+02
     12.201  0.1650E+00  0.1566E+00  0.2368E+02  0.2368E+02
     12.273  0.5116E+00  0.4933E+00  0.2372E+02  0.2372E+02
     12.346  0.1016E+01  0.1001E+01  0.2379E+02  0.2379E+02
     12.419  0.1431E+01  0.1422E+01  0.2390E+02  0.2389E+02
     12.491  0.1884E+01  0.1874E+01  0.2403E+02  0.2403E+02
     12.564  0.1897E+01  0.1910E+01  0.2417E+02  0.2417E+02
     12.636  0.1488E+01  0.1496E+01  0.2428E+02  0.2428E+02
     12.709  0.1279E+01  0.1290E+01  0.2437E+02  0.2437E+02
     12.782  0.6916E+00  0.7112E+00  0.2442E+02  0.2442E+02
     12.854  0.2209E+00  0.2298E+00  0.2444E+02  0.2444E+02
     12.927  0.5529E-01  0.5757E-01  0.2444E+02  0.2444E+02
     12.999  0.2122E-01  0.2158E-01  0.2444E+02  0.2444E+02
     13.072  0.3511E-01  0.3428E-01  0.2445E+02  0.2445E+02
     13.144  0.1333E+00  0.1305E+00  0.2446E+02  0.2446E+02
     13.217  0.3746E+00  0.3698E+00  0.2448E+02  0.2448E+02
     13.290  0.5297E+00  0.5305E+00  0.2452E+02  0.2452E+02
     13.362  0.3134E+00  0.3182E+00  0.2455E+02  0.2455E+02
     13.435  0.1058E+00  0.1078E+00  0.2455E+02  0.2455E+02
     13.507  0.4476E-01  0.4458E-01  0.2456E+02  0.2456E+02
     13.580  0.7544E-01  0.7309E-01  0.2456E+02  0.2456E+02
     13.653  0.1747E+00  0.1712E+00  0.2458E+02  0.2457E+02
     13.725  0.2591E+00  0.2576E+00  0.2459E+02  0.2459E+02
     13.798  0.4345E+00  0.4258E+00  0.2463E+02  0.2462E+02
     13.870  0.1012E+01  0.9936E+00  0.2470E+02  0.2470E+02
     13.943  0.1589E+01  0.1582E+01  0.2481E+02  0.2481E+02
     14.015  0.1725E+01  0.1729E+01  0.2494E+02  0.2494E+02
     14.088  0.1563E+01  0.1571E+01  0.2505E+02  0.2505E+02
     14.161  0.1521E+01  0.1520E+01  0.2516E+02  0.2516E+02
     14.233  0.1695E+01  0.1693E+01  0.2529E+02  0.2528E+02
     14.306  0.1624E+01  0.1624E+01  0.2540E+02  0.2540E+02
     14.378  0.1417E+01  0.1424E+01  0.2551E+02  0.2551E+02
     14.451  0.8108E+00  0.8262E+00  0.2557E+02  0.2557E+02
     14.524  0.2706E+00  0.2801E+00  0.2559E+02  0.2559E+02
     14.596  0.7267E-01  0.7484E-01  0.2559E+02  0.2559E+02
     14.669  0.2738E-01  0.2755E-01  0.2559E+02  0.2559E+02
     14.741  0.5337E-01  0.5198E-01  0.2560E+02  0.2560E+02
     14.814  0.2032E+00  0.1972E+00  0.2561E+02  0.2561E+02
     14.887  0.7309E+00  0.7131E+00  0.2567E+02  0.2566E+02
     14.959  0.1770E+01  0.1749E+01  0.2579E+02  0.2579E+02
     15.032  0.1990E+01  0.2003E+01  0.2594E+02  0.2594E+02
     15.104  0.9770E+00  0.9987E+00  0.2601E+02  0.2601E+02
     15.177  0.2921E+00  0.3005E+00  0.2603E+02  0.2603E+02
     15.249  0.7360E-01  0.7583E-01  0.2604E+02  0.2604E+02
     15.322  0.2068E-01  0.2112E-01  0.2604E+02  0.2604E+02
     15.395  0.1402E-01  0.1358E-01  0.2604E+02  0.2604E+02
     15.467  0.5728E-01  0.5558E-01  0.2604E+02  0.2604E+02
     15.540  0.2057E+00  0.2006E+00  0.2606E+02  0.2606E+02
     15.612  0.5013E+00  0.4950E+00  0.2609E+02  0.2609E+02
     15.685  0.6425E+00  0.6431E+00  0.2614E+02  0.2614E+02
     15.758  0.6348E+00  0.6348E+00  0.2619E+02  0.2619E+02
     15.830  0.5881E+00  0.5920E+00  0.2623E+02  0.2623E+02
     15.903  0.3055E+00  0.3112E+00  0.2625E+02  0.2625E+02
     15.975  0.1306E+00  0.1321E+00  0.2626E+02  0.2626E+02
     16.048  0.1848E+00  0.1819E+00  0.2627E+02  0.2627E+02
     16.120  0.5842E+00  0.5739E+00  0.2632E+02  0.2632E+02
     16.193  0.1411E+01  0.1397E+01  0.2642E+02  0.2642E+02
     16.266  0.1926E+01  0.1925E+01  0.2656E+02  0.2656E+02
     16.338  0.1592E+01  0.1600E+01  0.2667E+02  0.2667E+02
     16.411  0.1253E+01  0.1253E+01  0.2677E+02  0.2676E+02
     16.483  0.1213E+01  0.1217E+01  0.2685E+02  0.2685E+02
     16.556  0.6934E+00  0.7047E+00  0.2690E+02  0.2690E+02
     16.629  0.2270E+00  0.2322E+00  0.2692E+02  0.2692E+02
     16.701  0.6703E-01  0.6822E-01  0.2693E+02  0.2693E+02
     16.774  0.6011E-01  0.5942E-01  0.2693E+02  0.2693E+02
     16.846  0.1713E+00  0.1681E+00  0.2694E+02  0.2694E+02
     16.919  0.4403E+00  0.4358E+00  0.2697E+02  0.2697E+02
     16.991  0.5648E+00  0.5663E+00  0.2702E+02  0.2702E+02
     17.064  0.4743E+00  0.4764E+00  0.2705E+02  0.2705E+02
     17.137  0.7671E+00  0.7675E+00  0.2711E+02  0.2711E+02
     17.209  0.1369E+01  0.1394E+01  0.2721E+02  0.2721E+02
     17.282  0.1560E+01  0.1612E+01  0.2732E+02  0.2732E+02
     17.354  0.1323E+01  0.1317E+01  0.2741E+02  0.2742E+02
     17.427  0.6718E+00  0.6308E+00  0.2746E+02  0.2747E+02
     17.500  0.2634E+00  0.2438E+00  0.2748E+02  0.2748E+02
     17.572  0.2650E+00  0.2562E+00  0.2750E+02  0.2750E+02
     17.645  0.4945E+00  0.4893E+00  0.2754E+02  0.2754E+02
     17.717  0.5003E+00  0.5010E+00  0.2757E+02  0.2757E+02
     17.790  0.3168E+00  0.3110E+00  0.2760E+02  0.2760E+02
     17.862  0.4167E+00  0.3960E+00  0.2763E+02  0.2762E+02
     17.935  0.7869E+00  0.7820E+00  0.2768E+02  0.2768E+02
     18.008  0.1147E+01  0.1177E+01  0.2777E+02  0.2777E+02
     18.080  0.1375E+01  0.1390E+01  0.2787E+02  0.2787E+02
     18.153  0.8913E+00  0.8889E+00  0.2793E+02  0.2793E+02
     18.225  0.3123E+00  0.3099E+00  0.2796E+02  0.2796E+02
     18.298  0.8210E-01  0.8136E-01  0.2796E+02  0.2796E+02
     18.371  0.1927E-01  0.1902E-01  0.2796E+02  0.2796E+02
     18.443  0.4544E-02  0.4484E-02  0.2796E+02  0.2796E+02
     18.516  0.0000E+00  0.0000E+00  0.2796E+02  0.2796E+02
     18.588  0.0000E+00  0.0000E+00  0.2796E+02  0.2796E+02
     18.661  0.0000E+00  0.0000E+00  0.2796E+02  0.2796E+02
     18.733  0.0000E+00  0.0000E+00  0.2796E+02  0.2796E+02
     18.806  0.0000E+00  0.0000E+00  0.2796E+02  0.2796E+02
     18.879  0.0000E+00  0.0000E+00  0.2796E+02  0.2796E+02
     18.951  0.0000E+00  0.0000E+00  0.2796E+02  0.2796E+02
     19.024  0.0000E+00  0.0000E+00  0.2796E+02  0.2796E+02
     19.096  0.0000E+00  0.0000E+00  0.2796E+02  0.2796E+02
     19.169  0.7864E-04  0.4963E-04  0.2796E+02  0.2796E+02
     19.242  0.2570E-03  0.1622E-03  0.2796E+02  0.2796E+02
     19.314  0.1095E-02  0.6916E-03  0.2796E+02  0.2796E+02
     19.387  0.4622E-02  0.2932E-02  0.2796E+02  0.2796E+02
     19.459  0.1883E-01  0.1215E-01  0.2796E+02  0.2796E+02
     19.532  0.6675E-01  0.4594E-01  0.2797E+02  0.2797E+02
     19.605  0.1549E+00  0.1274E+00  0.2798E+02  0.2798E+02
     19.677  0.1615E+00  0.1759E+00  0.2799E+02  0.2799E+02
     19.750  0.7395E-01  0.1016E+00  0.2800E+02  0.2800E+02
     19.822  0.2136E-01  0.3253E-01  0.2800E+02  0.2800E+02
     19.895  0.5279E-02  0.8284E-02  0.2800E+02  0.2800E+02
     19.967  0.1252E-02  0.1980E-02  0.2800E+02  0.2800E+02
     20.040  0.0000E+00  0.0000E+00  0.2800E+02  0.2800E+02
     20.113  0.0000E+00  0.0000E+00  0.2800E+02  0.2800E+02
     20.185  0.0000E+00  0.0000E+00  0.2800E+02  0.2800E+02
     20.258  0.0000E+00  0.0000E+00  0.2800E+02  0.2800E+02
     20.330  0.0000E+00  0.0000E+00  0.2800E+02  0.2800E+02
     20.403  0.0000E+00  0.0000E+00  0.2800E+02  0.2800E+02
     20.476  0.0000E+00  0.0000E+00  0.2800E+02  0.2800E+02
     20.548  0.0000E+00  0.0000E+00  0.2800E+02  0.2800E+02
     20.621  0.0000E+00  0.0000E+00  0.2800E+02  0.2800E+02
     20.62070141     -1.15472427  301      7.66821526      1.00000000
     -1.155  0.0000E+00  0.0000E+00  0.0000E+00  0.0000E+00  0.0000E+00  0.0000E+00  0.0000E+00  0.0000E+00  0.0000E+00  0.0000E+00  0.0000E+00  0.0000E+00  0.0000E+00  0.0000E+00  0.0000E+00  0.0000E+00  0.0000E+00  0.0000E+00
     -1.082  0.0000E+00  0.0000E+00  0.0000E+00  0.0000E+00  0.0000E+00  0.0000E+00  0.0000E+00  0.0000E+00  0.0000E+00  0.0000E+00  0.0000E+00  0.0000E+00  0.0000E+00  0.0000E+00  0.0000E+00  0.0000E+00  0.0000E+00  0.0000E+00
     -1.010  0.0000E+00  0.0000E+00  0.0000E+00  0.0000E+00  0.0000E+00  0.0000E+00  0.0000E+00  0.0000E+00  0.0000E+00  0.0000E+00  0.0000E+00  0.0000E+00  0.0000E+00  0.0000E+00  0.0000E+00  0.0000E+00  0.0000E+00  0.0000E+00
     -0.937  0.0000E+00  0.0000E+00  0.0000E+00  0.0000E+00  0.0000E+00  0.0000E+00  0.0000E+00  0.0000E+00  0.0000E+00  0.0000E+00  0.0000E+00  0.0000E+00  0.0000E+00  0.0000E+00  0.0000E+00  0.0000E+00  0.0000E+00  0.0000E+00
     -0.864  0.0000E+00  0.0000E+00  0.0000E+00  0.0000E+00  0.0000E+00  0.0000E+00  0.0000E+00  0.0000E+00  0.0000E+00  0.0000E+00  0.0000E+00  0.0000E+00  0.0000E+00  0.0000E+00  0.0000E+00  0.0000E+00  0.0000E+00  0.0000E+00
     -0.792  0.0000E+00  0.0000E+00  0.0000E+00  0.0000E+00  0.0000E+00  0.0000E+00  0.0000E+00  0.0000E+00  0.0000E+00  0.0000E+00  0.0000E+00  0.0000E+00  0.0000E+00  0.0000E+00  0.0000E+00  0.0000E+00  0.0000E+00  0.0000E+00
     -0.719  0.0000E+00  0.0000E+00  0.0000E+00  0.0000E+00  0.0000E+00  0.0000E+00  0.0000E+00  0.0000E+00  0.0000E+00  0.0000E+00  0.0000E+00  0.0000E+00  0.0000E+00  0.0000E+00  0.0000E+00  0.0000E+00  0.0000E+00  0.0000E+00
     -0.647  0.0000E+00  0.0000E+00  0.0000E+00  0.0000E+00  0.0000E+00  0.0000E+00  0.0000E+00  0.0000E+00  0.0000E+00  0.0000E+00  0.0000E+00  0.0000E+00  0.0000E+00  0.0000E+00  0.0000E+00  0.0000E+00  0.0000E+00  0.0000E+00
     -0.574  0.2309E-04  0.2292E-04  0.1323E-06  0.1313E-06  0.1323E-06  0.1313E-06  0.1323E-06  0.1313E-06  0.8236E-08  0.8165E-08  0.8236E-08  0.8165E-08  0.7992E-21  0.6032E-20  0.8236E-08  0.8165E-08  0.7992E-21  0.6032E-20
     -0.501  0.7542E-04  0.7485E-04  0.4322E-06  0.4290E-06  0.4322E-06  0.4290E-06  0.4322E-06  0.4290E-06  0.2690E-07  0.2667E-07  0.2690E-07  0.2667E-07  0.2611E-20  0.1970E-19  0.2690E-07  0.2667E-07  0.2611E-20  0.1970E-19
     -0.429  0.3205E-03  0.3181E-03  0.1837E-05  0.1823E-05  0.1837E-05  0.1823E-05  0.1837E-05  0.1823E-05  0.1143E-06  0.1133E-06  0.1143E-06  0.1133E-06  0.1109E-19  0.8375E-19  0.1143E-06  0.1133E-06  0.1109E-19  0.8375E-19
     -0.356  0.1341E-02  0.1331E-02  0.7686E-05  0.7630E-05  0.7686E-05  0.7630E-05  0.7686E-05  0.7630E-05  0.4784E-06  0.4744E-06  0.4784E-06  0.4744E-06  0.4643E-19  0.3505E-18  0.4784E-06  0.4744E-06  0.4643E-19  0.3505E-18
     -0.284  0.5267E-02  0.5231E-02  0.3018E-04  0.2998E-04  0.3018E-04  0.2998E-04  0.3018E-04  0.2998E-04  0.1879E-05  0.1864E-05  0.1879E-05  0.1864E-05  0.1823E-18  0.1377E-17  0.1879E-05  0.1864E-05  0.1823E-18  0.1377E-17
     -0.211  0.1645E-01  0.1637E-01  0.9427E-04  0.9383E-04  0.9427E-04  0.9383E-04  0.9427E-04  0.9383E-04  0.5868E-05  0.5833E-05  0.5868E-05  0.5833E-05  0.5694E-18  0.4310E-17  0.5868E-05  0.5833E-05  0.5694E-18  0.4310E-17
     -0.139  0.2849E-01  0.2846E-01  0.1632E-03  0.1631E-03  0.1632E-03  0.1631E-03  0.1632E-03  0.1631E-03  0.1016E-04  0.1014E-04  0.1016E-04  0.1014E-04  0.9860E-18  0.7493E-17  0.1016E-04  0.1014E-04  0.9860E-18  0.7493E-17
     -0.066  0.2063E-01  0.2070E-01  0.1182E-03  0.1186E-03  0.1182E-03  0.1186E-03  0.1182E-03  0.1186E-03  0.7356E-05  0.7376E-05  0.7356E-05  0.7376E-05  0.7139E-18  0.5449E-17  0.7356E-05  0.7376E-05  0.7139E-18  0.5449E-17
      0.007  0.7498E-02  0.7544E-02  0.4389E-04  0.4415E-04  0.4389E-04  0.4415E-04  0.4389E-04  0.4415E-04  0.2806E-05  0.2818E-05  0.2806E-05  0.2818E-05  0.1346E-06  0.1335E-06  0.2806E-05  0.2818E-05  0.1346E-06  0.1335E-06
      0.079  0.2163E-02  0.2176E-02  0.1540E-04  0.1545E-04  0.1540E-04  0.1545E-04  0.1540E-04  0.1545E-04  0.1201E-05  0.1201E-05  0.1201E-05  0.1201E-05  0.4396E-06  0.4360E-06  0.1201E-05  0.1201E-05  0.4396E-06  0.4360E-06
      0.152  0.1308E-02  0.1305E-02  0.2028E-04  0.2017E-04  0.2028E-04  0.2017E-04  0.2028E-04  0.2017E-04  0.2292E-05  0.2274E-05  0.2292E-05  0.2274E-05  0.1869E-05  0.1854E-05  0.2292E-05  0.2274E-05  0.1869E-05  0.1854E-05
      0.224  0.3603E-02  0.3577E-02  0.7424E-04  0.7370E-04  0.7424E-04  0.7370E-04  0.7424E-04  0.7370E-04  0.8939E-05  0.8861E-05  0.8939E-05  0.8861E-05  0.7835E-05  0.7772E-05  0.8939E-05  0.8861E-05  0.7835E-05  0.7772E-05
      0.297  0.1381E-01  0.1371E-01  0.2911E-03  0.2891E-03  0.2911E-03  0.2891E-03  0.2911E-03  0.2891E-03  0.3519E-04  0.3490E-04  0.3519E-04  0.3490E-04  0.3099E-04  0.3075E-04  0.3519E-04  0.3490E-04  0.3099E-04  0.3075E-04
      0.370  0.4414E-01  0.4391E-01  0.9306E-03  0.9259E-03  0.9306E-03  0.9259E-03  0.9306E-03  0.9259E-03  0.1125E-03  0.1118E-03  0.1125E-03  0.1118E-03  0.9907E-04  0.9851E-04  0.1125E-03  0.1118E-03  0.9907E-04  0.9851E-04
      0.442  0.8029E-01  0.8020E-01  0.1693E-02  0.1691E-02  0.1693E-02  0.1691E-02  0.1693E-02  0.1691E-02  0.2047E-03  0.2042E-03  0.2047E-03  0.2042E-03  0.1802E-03  0.1799E-03  0.2047E-03  0.2042E-03  0.1802E-03  0.1799E-03
      0.515  0.6145E-01  0.6167E-01  0.1296E-02  0.1301E-02  0.1296E-02  0.1301E-02  0.1296E-02  0.1301E-02  0.1572E-03  0.1575E-03  0.1572E-03  0.1575E-03  0.1379E-03  0.1383E-03  0.1572E-03  0.1575E-03  0.1379E-03  0.1383E-03
      0.587  0.2299E-01  0.2314E-01  0.4864E-03  0.4895E-03  0.4864E-03  0.4895E-03  0.4864E-03  0.4895E-03  0.6028E-04  0.6055E-04  0.6028E-04  0.6055E-04  0.5154E-04  0.5184E-04  0.6028E-04  0.6055E-04  0.5154E-04  0.5184E-04
      0.660  0.6640E-02  0.6680E-02  0.1470E-03  0.1478E-03  0.1470E-03  0.1478E-03  0.1470E-03  0.1478E-03  0.2399E-04  0.2399E-04  0.2399E-04  0.2399E-04  0.1460E-04  0.1468E-04  0.2399E-04  0.2399E-04  0.1460E-04  0.1468E-04
      0.732  0.3693E-02  0.3683E-02  0.1072E-03  0.1068E-03  0.1072E-03  0.1068E-03  0.1072E-03  0.1068E-03  0.3918E-04  0.3882E-04  0.3918E-04  0.3882E-04  0.7002E-05  0.6991E-05  0.3918E-04  0.3882E-04  0.7002E-05  0.6991E-05
      0.805  0.9318E-02  0.9242E-02  0.3156E-03  0.3130E-03  0.3156E-03  0.3130E-03  0.3156E-03  0.3130E-03  0.1444E-03  0.1430E-03  0.1444E-03  0.1430E-03  0.1570E-04  0.1558E-04  0.1444E-03  0.1430E-03  0.1570E-04  0.1558E-04
      0.878  0.3124E-01  0.3102E-01  0.1074E-02  0.1066E-02  0.1074E-02  0.1066E-02  0.1074E-02  0.1066E-02  0.4999E-03  0.4956E-03  0.4999E-03  0.4956E-03  0.5196E-04  0.5159E-04  0.4999E-03  0.4956E-03  0.5196E-04  0.5159E-04
      0.950  0.6931E-01  0.6912E-01  0.2382E-02  0.2376E-02  0.2382E-02  0.2376E-02  0.2382E-02  0.2376E-02  0.1110E-02  0.1105E-02  0.1110E-02  0.1105E-02  0.1153E-03  0.1149E-03  0.1110E-02  0.1105E-02  0.1153E-03  0.1149E-03
      1.023  0.6794E-01  0.6814E-01  0.2336E-02  0.2343E-02  0.2336E-02  0.2343E-02  0.2336E-02  0.2343E-02  0.1090E-02  0.1092E-02  0.1090E-02  0.1092E-02  0.1137E-03  0.1140E-03  0.1090E-02  0.1092E-02  0.1137E-03  0.1140E-03
      1.095  0.3005E-01  0.3026E-01  0.1036E-02  0.1043E-02  0.1036E-02  0.1043E-02  0.1036E-02  0.1043E-02  0.4944E-03  0.4968E-03  0.4944E-03  0.4968E-03  0.5205E-04  0.5236E-04  0.4944E-03  0.4968E-03  0.5205E-04  0.5236E-04
      1.168  0.1000E-01  0.1005E-01  0.3565E-03  0.3582E-03  0.3565E-03  0.3582E-03  0.3565E-03  0.3582E-03  0.2166E-03  0.2163E-03  0.2166E-03  0.2163E-03  0.2548E-04  0.2549E-04  0.2166E-03  0.2163E-03  0.2548E-04  0.2549E-04
      1.241  0.8331E-02  0.8274E-02  0.3379E-03  0.3356E-03  0.3379E-03  0.3356E-03  0.3379E-03  0.3356E-03  0.3517E-03  0.3472E-03  0.3517E-03  0.3472E-03  0.5207E-04  0.5161E-04  0.3517E-03  0.3472E-03  0.5207E-04  0.5161E-04
      1.313  0.2079E-01  0.2062E-01  0.8976E-03  0.8906E-03  0.8976E-03  0.8906E-03  0.8976E-03  0.8906E-03  0.9744E-03  0.9642E-03  0.9744E-03  0.9642E-03  0.2013E-03  0.1993E-03  0.9744E-03  0.9642E-03  0.2013E-03  0.1993E-03
      1.386  0.4432E-01  0.4415E-01  0.2034E-02  0.2026E-02  0.2034E-02  0.2026E-02  0.2034E-02  0.2026E-02  0.1636E-02  0.1631E-02  0.1636E-02  0.1631E-02  0.7430E-03  0.7366E-03  0.1636E-02  0.1631E-02  0.7430E-03  0.7366E-03
      1.458  0.7057E-01  0.7046E-01  0.3517E-02  0.3511E-02  0.3517E-02  0.3511E-02  0.3517E-02  0.3511E-02  0.1423E-02  0.1427E-02  0.1423E-02  0.1427E-02  0.1946E-02  0.1936E-02  0.1423E-02  0.1427E-02  0.1946E-02  0.1936E-02
      1.531  0.7453E-01  0.7469E-01  0.3858E-02  0.3866E-02  0.3858E-02  0.3866E-02  0.3858E-02  0.3866E-02  0.9083E-03  0.9117E-03  0.9083E-03  0.9117E-03  0.2441E-02  0.2443E-02  0.9083E-03  0.9117E-03  0.2441E-02  0.2443E-02
      1.603  0.3885E-01  0.3908E-01  0.2036E-02  0.2048E-02  0.2036E-02  0.2048E-02  0.2036E-02  0.2048E-02  0.4375E-03  0.4391E-03  0.4375E-03  0.4391E-03  0.1311E-02  0.1317E-02  0.4375E-03  0.4391E-03  0.1311E-02  0.1317E-02
      1.676  0.1529E-01  0.1534E-01  0.8352E-03  0.8374E-03  0.8352E-03  0.8374E-03  0.8352E-03  0.8374E-03  0.3262E-03  0.3236E-03  0.3262E-03  0.3236E-03  0.4775E-03  0.4793E-03  0.3262E-03  0.3236E-03  0.4775E-03  0.4793E-03
      1.749  0.1799E-01  0.1781E-01  0.1086E-02  0.1075E-02  0.1086E-02  0.1075E-02  0.1086E-02  0.1075E-02  0.8976E-03  0.8840E-03  0.8976E-03  0.8840E-03  0.4261E-03  0.4225E-03  0.8976E-03  0.8840E-03  0.4261E-03  0.4225E-03
      1.821  0.5380E-01  0.5322E-01  0.3321E-02  0.3287E-02  0.3321E-02  0.3287E-02  0.3321E-02  0.3287E-02  0.3107E-02  0.3064E-02  0.3107E-02  0.3064E-02  0.1170E-02  0.1157E-02  0.3107E-02  0.3064E-02  0.1170E-02  0.1157E-02
      1.894  0.1225E+00  0.1218E+00  0.7544E-02  0.7507E-02  0.7544E-02  0.7507E-02  0.7544E-02  0.7507E-02  0.7525E-02  0.7454E-02  0.7525E-02  0.7454E-02  0.2613E-02  0.2599E-02  0.7525E-02  0.7454E-02  0.2613E-02  0.2599E-02
      1.966  0.1378E+00  0.1378E+00  0.8321E-02  0.8335E-02  0.8321E-02  0.8335E-02  0.8321E-02  0.8335E-02  0.1055E-01  0.1047E-01  0.1055E-01  0.1047E-01  0.2777E-02  0.2782E-02  0.1055E-01  0.1047E-01  0.2777E-02  0.2782E-02
      2.039  0.1007E+00  0.1008E+00  0.5690E-02  0.5707E-02  0.5690E-02  0.5707E-02  0.5690E-02  0.5707E-02  0.1269E-01  0.1259E-01  0.1269E-01  0.1259E-01  0.1649E-02  0.1656E-02  0.1269E-01  0.1259E-01  0.1649E-02  0.1656E-02
      2.112  0.6717E-01  0.6764E-01  0.3513E-02  0.3546E-02  0.3513E-02  0.3546E-02  0.3513E-02  0.3546E-02  0.1221E-01  0.1220E-01  0.1221E-01  0.1220E-01  0.8636E-03  0.8716E-03  0.1221E-01  0.1220E-01  0.8636E-03  0.8716E-03
      2.184  0.3595E-01  0.3610E-01  0.1626E-02  0.1645E-02  0.1626E-02  0.1645E-02  0.1626E-02  0.1645E-02  0.1063E-01  0.1048E-01  0.1063E-01  0.1048E-01  0.3547E-03  0.3598E-03  0.1063E-01  0.1048E-01  0.3547E-03  0.3598E-03
      2.257  0.3479E-01  0.3428E-01  0.1192E-02  0.1179E-02  0.1192E-02  0.1179E-02  0.1192E-02  0.1179E-02  0.1746E-01  0.1708E-01  0.1746E-01  0.1708E-01  0.2266E-03  0.2254E-03  0.1746E-01  0.1708E-01  0.2266E-03  0.2254E-03
      2.329  0.5335E-01  0.5280E-01  0.1873E-02  0.1854E-02  0.1873E-02  0.1854E-02  0.1873E-02  0.1854E-02  0.2902E-01  0.2865E-01  0.2902E-01  0.2865E-01  0.5791E-03  0.5675E-03  0.2902E-01  0.2865E-01  0.5791E-03  0.5675E-03
      2.402  0.6418E-01  0.6410E-01  0.2441E-02  0.2444E-02  0.2441E-02  0.2444E-02  0.2441E-02  0.2444E-02  0.3629E-01  0.3603E-01  0.3629E-01  0.3603E-01  0.2030E-02  0.1989E-02  0.3629E-01  0.3603E-01  0.2030E-02  0.1989E-02
      2.475  0.7309E-01  0.7300E-01  0.3498E-02  0.3477E-02  0.3498E-02  0.3477E-02  0.3498E-02  0.3477E-02  0.3845E-01  0.3847E-01  0.3845E-01  0.3847E-01  0.7039E-02  0.6909E-02  0.3845E-01  0.3847E-01  0.7039E-02  0.6909E-02