 vasp.6.1.0 28Jan20 (build Jun 11 2020 16:13:15) complex                        
  
 executed on             LinuxIFC date 2022.01.24  17:35:01
 running on   64 total cores
 distrk:  each k-point on   64 cores,    1 groups
 distr:  one band on NCORE=   1 cores,   64 groups


--------------------------------------------------------------------------------------------------------


 INCAR:
 POTCAR:    PAW_PBE Pt 04Feb2005                  
 -----------------------------------------------------------------------------
|                                                                             |
|           W    W    AA    RRRRR   N    N  II  N    N   GGGG   !!!           |
|           W    W   A  A   R    R  NN   N  II  NN   N  G    G  !!!           |
|           W    W  A    A  R    R  N N  N  II  N N  N  G       !!!           |
|           W WW W  AAAAAA  RRRRR   N  N N  II  N  N N  G  GGG   !            |
|           WW  WW  A    A  R   R   N   NN  II  N   NN  G    G                |
|           W    W  A    A  R    R  N    N  II  N    N   GGGG   !!!           |
|                                                                             |
|     For optimal performance we recommend to set                             |
|       NCORE = 4 - approx SQRT(number of cores).                             |
|     NCORE specifies how many cores store one orbital (NPAR=cpu/NCORE).      |
|     This setting can greatly improve the performance of VASP for DFT.       |
|     The default, NCORE=1 might be grossly inefficient on modern             |
|     multi-core architectures or massively parallel machines. Do your        |
|     own testing!!!!                                                         |
|     Unfortunately you need to use the default for GW and RPA                |
|     calculations (for HF NCORE is supported but not extensively tested      |
|     yet).                                                                   |
|                                                                             |
 -----------------------------------------------------------------------------

 POTCAR:    PAW_PBE Pt 04Feb2005                  
   SHA256 =  3ed90460adef76debcff1cfb73ee1349b515b1a3db03439735b44de3a8db7dc8 Pt/POTCAR             
   COPYR  = (c) Copyright 04Feb2005 Georg Kresse                                                    
   COPYR  = This file is part of the software VASP. Any use, copying, and all other rights are regul
   COPYR  = If you do not have a valid VASP license, you may not use, copy or distribute this file. 
   VRHFIN =Pt: s1d9                                                                                 
   LEXCH  = PE                                                                                      
   EATOM  =   729.1176 eV,   53.5886 Ry                                                             
                                                                                                    
   TITEL  = PAW_PBE Pt 04Feb2005                                                                    
   LULTRA =        F    use ultrasoft PP ?                                                          
   IUNSCR =        1    unscreen: 0-lin 1-nonlin 2-no                                               
   RPACOR =    2.330    partial core radius                                                         
   POMASS =  195.080; ZVAL   =   10.000    mass and valenz                                          
   RCORE  =    2.600    outmost cutoff radius                                                       
   RWIGS  =    2.750; RWIGS  =    1.455    wigner-seitz radius (au A)                               
   ENMAX  =  230.283; ENMIN  =  172.712 eV                                                          
   ICORE  =        3    local potential                                                             
   LCOR   =        T    correct aug charges                                                         
   LPAW   =        T    paw PP                                                                      
   EAUG   =  358.966                                                                                
   DEXC   =    0.000                                                                                
   RMAX   =    2.658    core radius for proj-oper                                                   
   RAUG   =    1.300    factor for augmentation sphere                                              
   RDEP   =    2.761    radius for radial grids                                                     
   RDEPT  =    2.203    core radius for aug-charge                                                  
                                                                                                    
   Atomic configuration                                                                             
   16 entries                                                                                       
     n  l   j            E        occ.                                                              
     1  0  0.50    -78401.1885   2.0000                                                             
     2  0  0.50    -13770.7750   2.0000                                                             
     2  1  1.50    -11931.0468   6.0000                                                             
     3  0  0.50     -3234.7234   2.0000                                                             
     3  1  1.50     -2699.2216   6.0000                                                             
     3  2  2.50     -2119.5714  10.0000                                                             
     4  0  0.50      -695.1528   2.0000                                                             
     4  1  1.50      -519.6034   6.0000                                                             
     4  2  2.50      -306.6786  10.0000                                                             
     4  3  3.50       -70.1041  14.0000                                                             
     5  0  0.50      -101.7747   2.0000                                                             
     5  1  1.50       -55.9873   6.0000                                                             
     5  2  2.50        -6.1423   9.0000                                                             
     6  0  0.50        -5.6573   1.0000                                                             
     6  1  1.50        -6.8029   0.0000                                                             
     5  3  2.50        -1.3606   0.0000                                                             
   Description                                                                                      
     l       E           TYP  RCUT    TYP  RCUT                                                     
     2     -6.1423404     23  2.500                                                                 
     2     -7.5029230     23  2.500                                                                 
     0     -5.6573207     23  2.500                                                                 
     0      0.7416693     23  2.500                                                                 
     1     -2.7211652     23  2.600                                                                 
     1     20.4087390     23  2.600                                                                 
     3     -1.3605826     23  2.500                                                                 
  local pseudopotential read in
  partial core-charges read in
  partial kinetic energy density read in
  atomic valenz-charges read in
  non local Contribution for L=           2  read in
    real space projection operators read in
  non local Contribution for L=           2  read in
    real space projection operators read in
  non local Contribution for L=           0  read in
    real space projection operators read in
  non local Contribution for L=           0  read in
    real space projection operators read in
  non local Contribution for L=           1  read in
    real space projection operators read in
  non local Contribution for L=           1  read in
    real space projection operators read in
    PAW grid and wavefunctions read in
 
   number of l-projection  operators is LMAX  =           6
   number of lm-projection operators is LMMAX =          18
 
  PAW_PBE Pt 04Feb2005                  :
 energy of atom  1       EATOM= -729.1176
 kinetic energy error for atom=    0.0032 (will be added to EATOM!!)
 
 
 POSCAR: Pt4
  positions in direct lattice
  velocities in cartesian coordinates
 exchange correlation table for  LEXCH =        8
   RHO(1)=    0.500       N(1)  =     2000
   RHO(2)=  100.500       N(2)  =     4000
 


--------------------------------------------------------------------------------------------------------


 ion  position               nearest neighbor table
   1  0.000  0.000  0.000-   2 2.80   3 2.80   4 2.80   2 2.80   3 2.80   2 2.80   4 2.80   2 2.80
                             3 2.80   4 2.80   3 2.80   4 2.80
   2  0.000  0.500  0.500-   1 2.80   3 2.80   4 2.80   1 2.80   4 2.80   1 2.80   3 2.80   1 2.80
                             3 2.80   4 2.80   4 2.80   3 2.80
   3  0.500  0.000  0.500-   1 2.80   2 2.80   4 2.80   1 2.80   4 2.80   2 2.80   4 2.80   4 2.80
                             1 2.80   2 2.80   1 2.80   2 2.80
   4  0.500  0.500  0.000-   1 2.80   2 2.80   3 2.80   2 2.80   3 2.80   1 2.80   3 2.80   3 2.80
                             1 2.80   2 2.80   2 2.80   1 2.80
 
  LATTYP: Found a simple cubic cell.
 ALAT       =     3.9666071739
  
  Lattice vectors:
  
 A1 = (   3.9666071739,   0.0000000000,   0.0000000000)
 A2 = (   0.0000000000,   3.9666071739,   0.0000000000)
 A3 = (   0.0000000000,   0.0000000000,   3.9666071739)


Analysis of symmetry for initial positions (statically):
=====================================================================
 Subroutine PRICEL returns following result:
 
  LATTYP: Found a face centered cubic cell.
 ALAT       =     3.9666071739
  
  Lattice vectors:
  
 A1 = (   1.9833035869,   1.9833035869,   0.0000000000)
 A2 = (   1.9833035869,   0.0000000000,  -1.9833035869)
 A3 = (   0.0000000000,   1.9833035869,  -1.9833035869)
 
   4 primitive cells build up your supercell.
 

 Routine SETGRP: Setting up the symmetry group for a 
 simple cubic supercell.


 Subroutine GETGRP returns: Found 48 space group operations
 (whereof 48 operations were pure point group operations)
 out of a pool of 48 trial point group operations.


The static configuration has the point symmetry O_h .


Analysis of symmetry for dynamics (positions and initial velocities):
=====================================================================
 Subroutine PRICEL returns following result:
 
  LATTYP: Found a face centered cubic cell.
 ALAT       =     3.9666071739
  
  Lattice vectors:
  
 A1 = (   1.9833035869,   1.9833035869,   0.0000000000)
 A2 = (   1.9833035869,   0.0000000000,  -1.9833035869)
 A3 = (   0.0000000000,   1.9833035869,  -1.9833035869)
 
   4 primitive cells build up your supercell.
 

 Routine SETGRP: Setting up the symmetry group for a 
 simple cubic supercell.


 Subroutine GETGRP returns: Found 48 space group operations
 (whereof 48 operations were pure point group operations)
 out of a pool of 48 trial point group operations.


The dynamic configuration has the point symmetry O_h .


 Subroutine INISYM returns: Found 48 space group operations
 (whereof 48 operations are pure point group operations),
 and found     4 'primitive' translations


----------------------------------------------------------------------------------------

                                     Primitive cell                                     

  volume of cell :      15.6026

  direct lattice vectors                    reciprocal lattice vectors
     1.983303587  1.983303587  0.000000000     0.252104621  0.252104621  0.252104621
     1.983303587  0.000000000 -1.983303587     0.252104621 -0.252104621 -0.252104621
     0.000000000  1.983303587 -1.983303587    -0.252104621  0.252104621 -0.252104621

  length of vectors
     2.804814831  2.804814831  2.804814831     0.436658013  0.436658013  0.436658013

  position of ions in fractional coordinates (direct lattice)
     0.000000000  0.000000000  0.000000000

  ion indices of the primitive-cell ions
   primitive index   ion index
                 1           1

----------------------------------------------------------------------------------------

 
 
 KPOINTS: pymatgen with grid density = 882 / numbe

Automatic generation of k-mesh.
Space group operators:
 irot       det(A)        alpha          n_x          n_y          n_z        tau_x        tau_y        tau_z
    1     1.000000     0.000000     1.000000     0.000000     0.000000     0.000000     0.000000     0.000000
    2    -1.000000     0.000000     1.000000     0.000000     0.000000     0.000000     0.000000     0.000000
    3     1.000000   120.000000    -0.577350    -0.577350    -0.577350     0.000000     0.000000     0.000000
    4    -1.000000   120.000000    -0.577350    -0.577350    -0.577350     0.000000     0.000000     0.000000
    5     1.000000   120.000000     0.577350     0.577350     0.577350     0.000000     0.000000     0.000000
    6    -1.000000   120.000000     0.577350     0.577350     0.577350     0.000000     0.000000     0.000000
    7     1.000000    90.000000     0.000000     0.000000    -1.000000     0.000000     0.000000     0.000000
    8    -1.000000    90.000000     0.000000     0.000000    -1.000000     0.000000     0.000000     0.000000
    9     1.000000   180.000000     0.000000     0.707107     0.707107     0.000000     0.000000     0.000000
   10    -1.000000   180.000000     0.000000     0.707107     0.707107     0.000000     0.000000     0.000000
   11     1.000000    90.000000     0.000000     1.000000     0.000000     0.000000     0.000000     0.000000
   12    -1.000000    90.000000     0.000000     1.000000     0.000000     0.000000     0.000000     0.000000
   13     1.000000   180.000000     0.000000     0.000000     1.000000     0.000000     0.000000     0.000000
   14    -1.000000   180.000000     0.000000     0.000000     1.000000     0.000000     0.000000     0.000000
   15     1.000000   120.000000    -0.577350     0.577350     0.577350     0.000000     0.000000     0.000000
   16    -1.000000   120.000000    -0.577350     0.577350     0.577350     0.000000     0.000000     0.000000
   17     1.000000   120.000000    -0.577350     0.577350    -0.577350     0.000000     0.000000     0.000000
   18    -1.000000   120.000000    -0.577350     0.577350    -0.577350     0.000000     0.000000     0.000000
   19     1.000000    90.000000     0.000000     0.000000     1.000000     0.000000     0.000000     0.000000
   20    -1.000000    90.000000     0.000000     0.000000     1.000000     0.000000     0.000000     0.000000
   21     1.000000    90.000000    -1.000000     0.000000     0.000000     0.000000     0.000000     0.000000
   22    -1.000000    90.000000    -1.000000     0.000000     0.000000     0.000000     0.000000     0.000000
   23     1.000000   180.000000     0.707107     0.000000     0.707107     0.000000     0.000000     0.000000
   24    -1.000000   180.000000     0.707107     0.000000     0.707107     0.000000     0.000000     0.000000
   25     1.000000   120.000000     0.577350    -0.577350     0.577350     0.000000     0.000000     0.000000
   26    -1.000000   120.000000     0.577350    -0.577350     0.577350     0.000000     0.000000     0.000000
   27     1.000000   120.000000    -0.577350    -0.577350     0.577350     0.000000     0.000000     0.000000
   28    -1.000000   120.000000    -0.577350    -0.577350     0.577350     0.000000     0.000000     0.000000
   29     1.000000   180.000000     1.000000     0.000000     0.000000     0.000000     0.000000     0.000000
   30    -1.000000   180.000000     1.000000     0.000000     0.000000     0.000000     0.000000     0.000000
   31     1.000000    90.000000     0.000000    -1.000000     0.000000     0.000000     0.000000     0.000000
   32    -1.000000    90.000000     0.000000    -1.000000     0.000000     0.000000     0.000000     0.000000
   33     1.000000   180.000000     0.707107     0.707107     0.000000     0.000000     0.000000     0.000000
   34    -1.000000   180.000000     0.707107     0.707107     0.000000     0.000000     0.000000     0.000000
   35     1.000000    90.000000     1.000000     0.000000     0.000000     0.000000     0.000000     0.000000
   36    -1.000000    90.000000     1.000000     0.000000     0.000000     0.000000     0.000000     0.000000
   37     1.000000   120.000000     0.577350    -0.577350    -0.577350     0.000000     0.000000     0.000000
   38    -1.000000   120.000000     0.577350    -0.577350    -0.577350     0.000000     0.000000     0.000000
   39     1.000000   180.000000     0.000000     1.000000     0.000000     0.000000     0.000000     0.000000
   40    -1.000000   180.000000     0.000000     1.000000     0.000000     0.000000     0.000000     0.000000
   41     1.000000   120.000000     0.577350     0.577350    -0.577350     0.000000     0.000000     0.000000
   42    -1.000000   120.000000     0.577350     0.577350    -0.577350     0.000000     0.000000     0.000000
   43     1.000000   180.000000     0.000000    -0.707107     0.707107     0.000000     0.000000     0.000000
   44    -1.000000   180.000000     0.000000    -0.707107     0.707107     0.000000     0.000000     0.000000
   45     1.000000   180.000000     0.707107    -0.707107     0.000000     0.000000     0.000000     0.000000
   46    -1.000000   180.000000     0.707107    -0.707107     0.000000     0.000000     0.000000     0.000000
   47     1.000000   180.000000     0.707107     0.000000    -0.707107     0.000000     0.000000     0.000000
   48    -1.000000   180.000000     0.707107     0.000000    -0.707107     0.000000     0.000000     0.000000
 
 Subroutine IBZKPT returns following result:
 ===========================================
 
 Found     10 irreducible k-points:
 
 Following reciprocal coordinates:
            Coordinates               Weight
  0.083333  0.083333  0.083333      8.000000
  0.250000  0.083333  0.083333     24.000000
  0.416667  0.083333  0.083333     24.000000
  0.250000  0.250000  0.083333     24.000000
  0.416667  0.250000  0.083333     48.000000
  0.416667  0.416667  0.083333     24.000000
  0.250000  0.250000  0.250000      8.000000
  0.416667  0.250000  0.250000     24.000000
  0.416667  0.416667  0.250000     24.000000
  0.416667  0.416667  0.416667      8.000000
 
 Following cartesian coordinates:
            Coordinates               Weight
  0.021009  0.021009  0.021009      8.000000
  0.063026  0.021009  0.021009     24.000000
  0.105044  0.021009  0.021009     24.000000
  0.063026  0.063026  0.021009     24.000000
  0.105044  0.063026  0.021009     48.000000
  0.105044  0.105044  0.021009     24.000000
  0.063026  0.063026  0.063026      8.000000
  0.105044  0.063026  0.063026     24.000000
  0.105044  0.105044  0.063026     24.000000
  0.105044  0.105044  0.105044      8.000000
 
 
 Subroutine IBZKPT_HF returns following result:
 ==============================================
 
 Found    216 k-points in 1st BZ
 the following    216 k-points will be used (e.g. in the exchange kernel)
 Following reciprocal coordinates:   # in IRBZ
  0.083333  0.083333  0.083333    0.00462963   1 t-inv F
  0.250000  0.083333  0.083333    0.00462963   2 t-inv F
  0.416667  0.083333  0.083333    0.00462963   3 t-inv F
  0.250000  0.250000  0.083333    0.00462963   4 t-inv F
  0.416667  0.250000  0.083333    0.00462963   5 t-inv F
  0.416667  0.416667  0.083333    0.00462963   6 t-inv F
  0.250000  0.250000  0.250000    0.00462963   7 t-inv F
  0.416667  0.250000  0.250000    0.00462963   8 t-inv F
  0.416667  0.416667  0.250000    0.00462963   9 t-inv F
  0.416667  0.416667  0.416667    0.00462963  10 t-inv F
 -0.083333 -0.083333 -0.083333    0.00462963   1 t-inv F
 -0.083333  0.083333  0.083333    0.00462963   1 t-inv F
  0.083333 -0.083333 -0.083333    0.00462963   1 t-inv F
 -0.083333 -0.083333  0.083333    0.00462963   1 t-inv F
  0.083333  0.083333 -0.083333    0.00462963   1 t-inv F
  0.083333 -0.083333  0.083333    0.00462963   1 t-inv F
 -0.083333  0.083333 -0.083333    0.00462963   1 t-inv F
 -0.250000 -0.083333 -0.083333    0.00462963   2 t-inv F
  0.083333  0.250000  0.083333    0.00462963   2 t-inv F
 -0.083333 -0.250000 -0.083333    0.00462963   2 t-inv F
  0.083333  0.083333  0.250000    0.00462963   2 t-inv F
 -0.083333 -0.083333 -0.250000    0.00462963   2 t-inv F
 -0.083333  0.250000  0.083333    0.00462963   2 t-inv F
  0.083333 -0.250000 -0.083333    0.00462963   2 t-inv F
 -0.250000  0.083333  0.083333    0.00462963   2 t-inv F
  0.250000 -0.083333 -0.083333    0.00462963   2 t-inv F
 -0.083333  0.083333  0.250000    0.00462963   2 t-inv F
  0.083333 -0.083333 -0.250000    0.00462963   2 t-inv F
 -0.250000 -0.083333  0.083333    0.00462963   2 t-inv F
  0.250000  0.083333 -0.083333    0.00462963   2 t-inv F
 -0.083333 -0.250000  0.083333    0.00462963   2 t-inv F
  0.083333  0.250000 -0.083333    0.00462963   2 t-inv F
 -0.083333 -0.083333  0.250000    0.00462963   2 t-inv F
  0.083333  0.083333 -0.250000    0.00462963   2 t-inv F
  0.083333 -0.250000  0.083333    0.00462963   2 t-inv F
 -0.083333  0.250000 -0.083333    0.00462963   2 t-inv F
  0.250000 -0.083333  0.083333    0.00462963   2 t-inv F
 -0.250000  0.083333 -0.083333    0.00462963   2 t-inv F
  0.083333 -0.083333  0.250000    0.00462963   2 t-inv F
 -0.083333  0.083333 -0.250000    0.00462963   2 t-inv F
 -0.416667 -0.083333 -0.083333    0.00462963   3 t-inv F
  0.083333  0.416667  0.083333    0.00462963   3 t-inv F
 -0.083333 -0.416667 -0.083333    0.00462963   3 t-inv F
  0.083333  0.083333  0.416667    0.00462963   3 t-inv F
 -0.083333 -0.083333 -0.416667    0.00462963   3 t-inv F
 -0.083333  0.416667  0.083333    0.00462963   3 t-inv F
  0.083333 -0.416667 -0.083333    0.00462963   3 t-inv F
 -0.416667  0.083333  0.083333    0.00462963   3 t-inv F
  0.416667 -0.083333 -0.083333    0.00462963   3 t-inv F
 -0.083333  0.083333  0.416667    0.00462963   3 t-inv F
  0.083333 -0.083333 -0.416667    0.00462963   3 t-inv F
 -0.416667 -0.083333  0.083333    0.00462963   3 t-inv F
  0.416667  0.083333 -0.083333    0.00462963   3 t-inv F
 -0.083333 -0.416667  0.083333    0.00462963   3 t-inv F
  0.083333  0.416667 -0.083333    0.00462963   3 t-inv F
 -0.083333 -0.083333  0.416667    0.00462963   3 t-inv F
  0.083333  0.083333 -0.416667    0.00462963   3 t-inv F
  0.083333 -0.416667  0.083333    0.00462963   3 t-inv F
 -0.083333  0.416667 -0.083333    0.00462963   3 t-inv F
  0.416667 -0.083333  0.083333    0.00462963   3 t-inv F
 -0.416667  0.083333 -0.083333    0.00462963   3 t-inv F
  0.083333 -0.083333  0.416667    0.00462963   3 t-inv F
 -0.083333  0.083333 -0.416667    0.00462963   3 t-inv F
 -0.250000 -0.250000 -0.083333    0.00462963   4 t-inv F
  0.083333  0.250000  0.250000    0.00462963   4 t-inv F
 -0.083333 -0.250000 -0.250000    0.00462963   4 t-inv F
  0.250000  0.083333  0.250000    0.00462963   4 t-inv F
 -0.250000 -0.083333 -0.250000    0.00462963   4 t-inv F
 -0.250000  0.250000  0.083333    0.00462963   4 t-inv F
  0.250000 -0.250000 -0.083333    0.00462963   4 t-inv F
 -0.250000  0.083333  0.250000    0.00462963   4 t-inv F
  0.250000 -0.083333 -0.250000    0.00462963   4 t-inv F
 -0.083333  0.250000  0.250000    0.00462963   4 t-inv F
  0.083333 -0.250000 -0.250000    0.00462963   4 t-inv F
 -0.250000 -0.250000  0.083333    0.00462963   4 t-inv F
  0.250000  0.250000 -0.083333    0.00462963   4 t-inv F
 -0.083333 -0.250000  0.250000    0.00462963   4 t-inv F
  0.083333  0.250000 -0.250000    0.00462963   4 t-inv F
 -0.250000 -0.083333  0.250000    0.00462963   4 t-inv F
  0.250000  0.083333 -0.250000    0.00462963   4 t-inv F
  0.250000 -0.250000  0.083333    0.00462963   4 t-inv F
 -0.250000  0.250000 -0.083333    0.00462963   4 t-inv F
  0.250000 -0.083333  0.250000    0.00462963   4 t-inv F
 -0.250000  0.083333 -0.250000    0.00462963   4 t-inv F
  0.083333 -0.250000  0.250000    0.00462963   4 t-inv F
 -0.083333  0.250000 -0.250000    0.00462963   4 t-inv F
 -0.416667 -0.250000 -0.083333    0.00462963   5 t-inv F
  0.083333  0.416667  0.250000    0.00462963   5 t-inv F
 -0.083333 -0.416667 -0.250000    0.00462963   5 t-inv F
  0.250000  0.083333  0.416667    0.00462963   5 t-inv F
 -0.250000 -0.083333 -0.416667    0.00462963   5 t-inv F
 -0.250000  0.416667  0.083333    0.00462963   5 t-inv F
  0.250000 -0.416667 -0.083333    0.00462963   5 t-inv F
 -0.416667  0.083333  0.250000    0.00462963   5 t-inv F
  0.416667 -0.083333 -0.250000    0.00462963   5 t-inv F
 -0.083333  0.250000  0.416667    0.00462963   5 t-inv F
  0.083333 -0.250000 -0.416667    0.00462963   5 t-inv F
 -0.416667 -0.250000  0.083333    0.00462963   5 t-inv F
  0.416667  0.250000 -0.083333    0.00462963   5 t-inv F
 -0.083333 -0.416667  0.250000    0.00462963   5 t-inv F
  0.083333  0.416667 -0.250000    0.00462963   5 t-inv F
 -0.250000 -0.083333  0.416667    0.00462963   5 t-inv F
  0.250000  0.083333 -0.416667    0.00462963   5 t-inv F
  0.250000 -0.416667  0.083333    0.00462963   5 t-inv F
 -0.250000  0.416667 -0.083333    0.00462963   5 t-inv F
  0.416667 -0.083333  0.250000    0.00462963   5 t-inv F
 -0.416667  0.083333 -0.250000    0.00462963   5 t-inv F
  0.083333 -0.250000  0.416667    0.00462963   5 t-inv F
 -0.083333  0.250000 -0.416667    0.00462963   5 t-inv F
  0.083333 -0.416667 -0.250000    0.00462963   5 t-inv F
 -0.083333  0.416667  0.250000    0.00462963   5 t-inv F
  0.250000 -0.083333 -0.416667    0.00462963   5 t-inv F
 -0.250000  0.083333  0.416667    0.00462963   5 t-inv F
  0.416667 -0.250000 -0.083333    0.00462963   5 t-inv F
 -0.416667  0.250000  0.083333    0.00462963   5 t-inv F
  0.083333  0.250000 -0.416667    0.00462963   5 t-inv F
 -0.083333 -0.250000  0.416667    0.00462963   5 t-inv F
  0.250000  0.416667 -0.083333    0.00462963   5 t-inv F
 -0.250000 -0.416667  0.083333    0.00462963   5 t-inv F
  0.416667  0.083333 -0.250000    0.00462963   5 t-inv F
 -0.416667 -0.083333  0.250000    0.00462963   5 t-inv F
 -0.250000  0.083333 -0.416667    0.00462963   5 t-inv F
  0.250000 -0.083333  0.416667    0.00462963   5 t-inv F
 -0.416667  0.250000 -0.083333    0.00462963   5 t-inv F
  0.416667 -0.250000  0.083333    0.00462963   5 t-inv F
 -0.083333  0.416667 -0.250000    0.00462963   5 t-inv F
  0.083333 -0.416667  0.250000    0.00462963   5 t-inv F
 -0.416667 -0.083333 -0.250000    0.00462963   5 t-inv F
  0.416667  0.083333  0.250000    0.00462963   5 t-inv F
 -0.250000 -0.416667 -0.083333    0.00462963   5 t-inv F
  0.250000  0.416667  0.083333    0.00462963   5 t-inv F
 -0.083333 -0.250000 -0.416667    0.00462963   5 t-inv F
  0.083333  0.250000  0.416667    0.00462963   5 t-inv F
 -0.416667 -0.416667 -0.083333    0.00462963   6 t-inv F
  0.083333  0.416667  0.416667    0.00462963   6 t-inv F
 -0.083333 -0.416667 -0.416667    0.00462963   6 t-inv F
  0.416667  0.083333  0.416667    0.00462963   6 t-inv F
 -0.416667 -0.083333 -0.416667    0.00462963   6 t-inv F
 -0.416667  0.416667  0.083333    0.00462963   6 t-inv F
  0.416667 -0.416667 -0.083333    0.00462963   6 t-inv F
 -0.416667  0.083333  0.416667    0.00462963   6 t-inv F
  0.416667 -0.083333 -0.416667    0.00462963   6 t-inv F
 -0.083333  0.416667  0.416667    0.00462963   6 t-inv F
  0.083333 -0.416667 -0.416667    0.00462963   6 t-inv F
 -0.416667 -0.416667  0.083333    0.00462963   6 t-inv F
  0.416667  0.416667 -0.083333    0.00462963   6 t-inv F
 -0.083333 -0.416667  0.416667    0.00462963   6 t-inv F
  0.083333  0.416667 -0.416667    0.00462963   6 t-inv F
 -0.416667 -0.083333  0.416667    0.00462963   6 t-inv F
  0.416667  0.083333 -0.416667    0.00462963   6 t-inv F
  0.416667 -0.416667  0.083333    0.00462963   6 t-inv F
 -0.416667  0.416667 -0.083333    0.00462963   6 t-inv F
  0.416667 -0.083333  0.416667    0.00462963   6 t-inv F
 -0.416667  0.083333 -0.416667    0.00462963   6 t-inv F
  0.083333 -0.416667  0.416667    0.00462963   6 t-inv F
 -0.083333  0.416667 -0.416667    0.00462963   6 t-inv F
 -0.250000 -0.250000 -0.250000    0.00462963   7 t-inv F
 -0.250000  0.250000  0.250000    0.00462963   7 t-inv F
  0.250000 -0.250000 -0.250000    0.00462963   7 t-inv F
 -0.250000 -0.250000  0.250000    0.00462963   7 t-inv F
  0.250000  0.250000 -0.250000    0.00462963   7 t-inv F
  0.250000 -0.250000  0.250000    0.00462963   7 t-inv F
 -0.250000  0.250000 -0.250000    0.00462963   7 t-inv F
 -0.416667 -0.250000 -0.250000    0.00462963   8 t-inv F
  0.250000  0.416667  0.250000    0.00462963   8 t-inv F
 -0.250000 -0.416667 -0.250000    0.00462963   8 t-inv F
  0.250000  0.250000  0.416667    0.00462963   8 t-inv F
 -0.250000 -0.250000 -0.416667    0.00462963   8 t-inv F
 -0.250000  0.416667  0.250000    0.00462963   8 t-inv F
  0.250000 -0.416667 -0.250000    0.00462963   8 t-inv F
 -0.416667  0.250000  0.250000    0.00462963   8 t-inv F
  0.416667 -0.250000 -0.250000    0.00462963   8 t-inv F
 -0.250000  0.250000  0.416667    0.00462963   8 t-inv F
  0.250000 -0.250000 -0.416667    0.00462963   8 t-inv F
 -0.416667 -0.250000  0.250000    0.00462963   8 t-inv F
  0.416667  0.250000 -0.250000    0.00462963   8 t-inv F
 -0.250000 -0.416667  0.250000    0.00462963   8 t-inv F
  0.250000  0.416667 -0.250000    0.00462963   8 t-inv F
 -0.250000 -0.250000  0.416667    0.00462963   8 t-inv F
  0.250000  0.250000 -0.416667    0.00462963   8 t-inv F
  0.250000 -0.416667  0.250000    0.00462963   8 t-inv F
 -0.250000  0.416667 -0.250000    0.00462963   8 t-inv F
  0.416667 -0.250000  0.250000    0.00462963   8 t-inv F
 -0.416667  0.250000 -0.250000    0.00462963   8 t-inv F
  0.250000 -0.250000  0.416667    0.00462963   8 t-inv F
 -0.250000  0.250000 -0.416667    0.00462963   8 t-inv F
 -0.416667 -0.416667 -0.250000    0.00462963   9 t-inv F
  0.250000  0.416667  0.416667    0.00462963   9 t-inv F
 -0.250000 -0.416667 -0.416667    0.00462963   9 t-inv F
  0.416667  0.250000  0.416667    0.00462963   9 t-inv F
 -0.416667 -0.250000 -0.416667    0.00462963   9 t-inv F
 -0.416667  0.416667  0.250000    0.00462963   9 t-inv F
  0.416667 -0.416667 -0.250000    0.00462963   9 t-inv F
 -0.416667  0.250000  0.416667    0.00462963   9 t-inv F
  0.416667 -0.250000 -0.416667    0.00462963   9 t-inv F
 -0.250000  0.416667  0.416667    0.00462963   9 t-inv F
  0.250000 -0.416667 -0.416667    0.00462963   9 t-inv F
 -0.416667 -0.416667  0.250000    0.00462963   9 t-inv F
  0.416667  0.416667 -0.250000    0.00462963   9 t-inv F
 -0.250000 -0.416667  0.416667    0.00462963   9 t-inv F
  0.250000  0.416667 -0.416667    0.00462963   9 t-inv F
 -0.416667 -0.250000  0.416667    0.00462963   9 t-inv F
  0.416667  0.250000 -0.416667    0.00462963   9 t-inv F
  0.416667 -0.416667  0.250000    0.00462963   9 t-inv F
 -0.416667  0.416667 -0.250000    0.00462963   9 t-inv F
  0.416667 -0.250000  0.416667    0.00462963   9 t-inv F
 -0.416667  0.250000 -0.416667    0.00462963   9 t-inv F
  0.250000 -0.416667  0.416667    0.00462963   9 t-inv F
 -0.250000  0.416667 -0.416667    0.00462963   9 t-inv F
 -0.416667 -0.416667 -0.416667    0.00462963  10 t-inv F
 -0.416667  0.416667  0.416667    0.00462963  10 t-inv F
  0.416667 -0.416667 -0.416667    0.00462963  10 t-inv F
 -0.416667 -0.416667  0.416667    0.00462963  10 t-inv F
  0.416667  0.416667 -0.416667    0.00462963  10 t-inv F
  0.416667 -0.416667  0.416667    0.00462963  10 t-inv F
 -0.416667  0.416667 -0.416667    0.00462963  10 t-inv F


--------------------------------------------------------------------------------------------------------




 Dimension of arrays:
   k-points           NKPTS =     10   k-points in BZ     NKDIM =     10   number of bands    NBANDS=     64
   number of dos      NEDOS =    301   number of ions     NIONS =      4
   non local maximal  LDIM  =      6   non local SUM 2l+1 LMDIM =     18
   total plane-waves  NPLWV =  13824
   max r-space proj   IRMAX =      1   max aug-charges    IRDMAX=  13614
   dimension x,y,z NGX =    24 NGY =   24 NGZ =   24
   dimension x,y,z NGXF=    48 NGYF=   48 NGZF=   48
   support grid    NGXF=    48 NGYF=   48 NGZF=   48
   ions per type =               4
   NGX,Y,Z   is equivalent  to a cutoff of  10.06, 10.06, 10.06 a.u.
   NGXF,Y,Z  is equivalent  to a cutoff of  20.12, 20.12, 20.12 a.u.

 SYSTEM =  unknown system                          
 POSCAR =  Pt4                                     

 Startparameter for this run:
   NWRITE =      2    write-flag & timer
   PREC   = normal    normal or accurate (medium, high low for compatibility)
   ISTART =      0    job   : 0-new  1-cont  2-samecut
   ICHARG =      2    charge: 1-file 2-atom 10-const
   ISPIN  =      1    spin polarized calculation?
   LNONCOLLINEAR =      F non collinear calculations
   LSORBIT =      F    spin-orbit coupling
   INIWAV =      1    electr: 0-lowe 1-rand  2-diag
   LASPH  =      F    aspherical Exc in radial PAW
   METAGGA=      F    non-selfconsistent MetaGGA calc.

 Electronic Relaxation 1
   ENCUT  =  520.0 eV  38.22 Ry    6.18 a.u.   7.38  7.38  7.38*2*pi/ulx,y,z
   ENINI  =  520.0     initial cutoff
   ENAUG  =  359.0 eV  augmentation charge cutoff
   NELM   =     60;   NELMIN=  2; NELMDL= -5     # of ELM steps 
   EDIFF  = 0.1E-04   stopping-criterion for ELM
   LREAL  =      F    real-space projection
   NLSPLINE    = F    spline interpolate recip. space projectors
   LCOMPAT=      F    compatible to vasp.4.4
   GGA_COMPAT  = T    GGA compatible to vasp.4.4-vasp.4.6
   LMAXPAW     = -100 max onsite density
   LMAXMIX     =    2 max onsite mixed and CHGCAR
   VOSKOWN=      0    Vosko Wilk Nusair interpolation
   ROPT   =    0.00000
 Ionic relaxation
   EDIFFG = -.1E-07   stopping-criterion for IOM
   NSW    =     85    number of steps for IOM
   NBLOCK =      1;   KBLOCK =     85    inner block; outer block 
   IBRION =      6    ionic relax: 0-MD 1-quasi-New 2-CG
   NFREE  =      2    steps in history (QN), initial steepest desc. (CG)
   ISIF   =      4    stress and relaxation
   IWAVPR =     11    prediction:  0-non 1-charg 2-wave 3-comb
   ISYM   =      2    0-nonsym 1-usesym 2-fastsym
   LCORR  =      T    Harris-Foulkes like correction to forces

   POTIM  = 0.0500    time-step for ionic-motion
   TEIN   =    0.0    initial temperature
   TEBEG  =    0.0;   TEEND  =   0.0 temperature during run
   SMASS  =  -3.00    Nose mass-parameter (am)
   estimated Nose-frequenzy (Omega)   =  0.10E-29 period in steps = 0.13E+48 mass=  -0.360E-27a.u.
   SCALEE = 1.0000    scale energy and forces
   NPACO  =    256;   APACO  = 16.0  distance and # of slots for P.C.
   PSTRESS=    0.0 pullay stress

  Mass of Ions in am
   POMASS = 195.08
  Ionic Valenz
   ZVAL   =  10.00
  Atomic Wigner-Seitz radii
   RWIGS  =  -1.00
  virtual crystal weights 
   VCA    =   1.00
   NELECT =      40.0000    total number of electrons
   NUPDOWN=      -1.0000    fix difference up-down

 DOS related values:
   EMIN   =  10.00;   EMAX   =-10.00  energy-range for DOS
   EFERMI =   0.00
   ISMEAR =    -1;   SIGMA  =   0.10  broadening in eV -4-tet -1-fermi 0-gaus

 Electronic relaxation 2 (details)
   IALGO  =     38    algorithm
   LDIAG  =      T    sub-space diagonalisation (order eigenvalues)
   LSUBROT=      F    optimize rotation matrix (better conditioning)
   TURBO    =      0    0=normal 1=particle mesh
   IRESTART =      0    0=no restart 2=restart with 2 vectors
   NREBOOT  =      0    no. of reboots
   NMIN     =      0    reboot dimension
   EREF     =   0.00    reference energy to select bands
   IMIX   =      4    mixing-type and parameters
     AMIX     =   0.40;   BMIX     =  1.00
     AMIX_MAG =   1.60;   BMIX_MAG =  1.00
     AMIN     =   0.10
     WC   =   100.;   INIMIX=   1;  MIXPRE=   1;  MAXMIX= -45

 Intra band minimization:
   WEIMIN = 0.0010     energy-eigenvalue tresh-hold
   EBREAK =  0.39E-11  absolut break condition
   DEPER  =   0.30     relativ break condition  

   TIME   =   0.40     timestep for ELM

  volume/ion in A,a.u.               =      15.60       105.29
  Fermi-wavevector in a.u.,A,eV,Ry     =   1.411483  2.667316 27.106671  1.992284
  Thomas-Fermi vector in A             =   2.533330
 
 Write flags
   LWAVE        =      T    write WAVECAR
   LDOWNSAMPLE  =      F    k-point downsampling of WAVECAR
   LCHARG       =      T    write CHGCAR
   LVTOT        =      F    write LOCPOT, total local potential
   LVHAR        =      F    write LOCPOT, Hartree potential only
   LELF         =      F    write electronic localiz. function (ELF)
   LORBIT       =      0    0 simple, 1 ext, 2 COOP (PROOUT), +10 PAW based schemes


 Dipole corrections
   LMONO  =      F    monopole corrections only (constant potential shift)
   LDIPOL =      F    correct potential (dipole corrections)
   IDIPOL =      0    1-x, 2-y, 3-z, 4-all directions 
   EPSILON=  1.0000000 bulk dielectric constant

 Exchange correlation treatment:
   GGA     =    --    GGA type
   LEXCH   =     8    internal setting for exchange type
   VOSKOWN=      0    Vosko Wilk Nusair interpolation
   LHFCALC =     F    Hartree Fock is set to
   LHFONE  =     F    Hartree Fock one center treatment
   AEXX    =    0.0000 exact exchange contribution

 Linear response parameters
   LEPSILON=     F    determine dielectric tensor
   LRPA    =     F    only Hartree local field effects (RPA)
   LNABLA  =     F    use nabla operator in PAW spheres
   LVEL    =     F    velocity operator in full k-point grid
   LINTERFAST=   F  fast interpolation
   KINTER  =     0    interpolate to denser k-point grid
   CSHIFT  =0.1000    complex shift for real part using Kramers Kronig
   OMEGAMAX=  -1.0    maximum frequency
   DEG_THRESHOLD= 0.2000000E-02 threshold for treating states as degnerate
   RTIME   =   -0.100 relaxation time in fs
  (WPLASMAI=    0.000 imaginary part of plasma frequency in eV, 0.658/RTIME)
   DFIELD  = 0.0000000 0.0000000 0.0000000 field for delta impulse in time
 
 Orbital magnetization related:
   ORBITALMAG=     F  switch on orbital magnetization
   LCHIMAG   =     F  perturbation theory with respect to B field
   DQ        =  0.001000  dq finite difference perturbation B field
   LLRAUG    =     F  two centre corrections for induced B field



--------------------------------------------------------------------------------------------------------


 finite differences with symmetry
 charge density and potential will be updated during run
 non-spin polarized calculation
 Variant of blocked Davidson
 Davidson routine will perform the subspace rotation
 perform sub-space diagonalisation
    after iterative eigenvector-optimisation
 modified Broyden-mixing scheme, WC =      100.0
 initial mixing is a Kerker type mixing with AMIX =  0.4000 and BMIX =      1.0000
 Hartree-type preconditioning will be used
 using additional bands           44
 reciprocal scheme for non local part
 use partial core corrections
 calculate Harris-corrections to forces 
   (improved forces if not selfconsistent)
 use gradient corrections 
 use of overlap-Matrix (Vanderbilt PP)
 Fermi-smearing in eV        SIGMA  =   0.10


--------------------------------------------------------------------------------------------------------


  energy-cutoff  :      520.00
  volume of cell :       62.41
      direct lattice vectors                 reciprocal lattice vectors
     3.966607174  0.000000000  0.000000000     0.252104621  0.000000000  0.000000000
     0.000000000  3.966607174  0.000000000     0.000000000  0.252104621  0.000000000
     0.000000000  0.000000000  3.966607174     0.000000000  0.000000000  0.252104621

  length of vectors
     3.966607174  3.966607174  3.966607174     0.252104621  0.252104621  0.252104621


 
 k-points in units of 2pi/SCALE and weight: pymatgen with grid density = 882 / numbe
   0.02100872  0.02100872  0.02100872       0.037
   0.06302616  0.02100872  0.02100872       0.111
   0.10504359  0.02100872  0.02100872       0.111
   0.06302616  0.06302616  0.02100872       0.111
   0.10504359  0.06302616  0.02100872       0.222
   0.10504359  0.10504359  0.02100872       0.111
   0.06302616  0.06302616  0.06302616       0.037
   0.10504359  0.06302616  0.06302616       0.111
   0.10504359  0.10504359  0.06302616       0.111
   0.10504359  0.10504359  0.10504359       0.037
 
 k-points in reciprocal lattice and weights: pymatgen with grid density = 882 / numbe
   0.08333333  0.08333333  0.08333333       0.037
   0.25000000  0.08333333  0.08333333       0.111
   0.41666667  0.08333333  0.08333333       0.111
   0.25000000  0.25000000  0.08333333       0.111
   0.41666667  0.25000000  0.08333333       0.222
   0.41666667  0.41666667  0.08333333       0.111
   0.25000000  0.25000000  0.25000000       0.037
   0.41666667  0.25000000  0.25000000       0.111
   0.41666667  0.41666667  0.25000000       0.111
   0.41666667  0.41666667  0.41666667       0.037
 
 position of ions in fractional coordinates (direct lattice) 
   0.00000000  0.00000000  0.00000000
   0.00000000  0.50000000  0.50000000
   0.50000000  0.00000000  0.50000000
   0.50000000  0.50000000  0.00000000
 
 position of ions in cartesian coordinates  (Angst):
   0.00000000  0.00000000  0.00000000
   0.00000000  1.98330359  1.98330359
   1.98330359  0.00000000  1.98330359
   1.98330359  1.98330359  0.00000000
 


--------------------------------------------------------------------------------------------------------


 k-point   1 :   0.0833 0.0833 0.0833  plane waves:    1692
 k-point   2 :   0.2500 0.0833 0.0833  plane waves:    1689
 k-point   3 :   0.4167 0.0833 0.0833  plane waves:    1689
 k-point   4 :   0.2500 0.2500 0.0833  plane waves:    1684
 k-point   5 :   0.4167 0.2500 0.0833  plane waves:    1673
 k-point   6 :   0.4167 0.4167 0.0833  plane waves:    1674
 k-point   7 :   0.2500 0.2500 0.2500  plane waves:    1677
 k-point   8 :   0.4167 0.2500 0.2500  plane waves:    1682
 k-point   9 :   0.4167 0.4167 0.2500  plane waves:    1677
 k-point  10 :   0.4167 0.4167 0.4167  plane waves:    1673

 maximum and minimum number of plane-waves per node :      1692     1673

 maximum number of plane-waves:      1692
 maximum index in each direction: 
   IXMAX=    7   IYMAX=    7   IZMAX=    7
   IXMIN=   -7   IYMIN=   -7   IZMIN=   -7


 serial   3D FFT for wavefunctions
 parallel 3D FFT for charge:
    minimum data exchange during FFTs selected (reduces bandwidth)


 total amount of memory used by VASP MPI-rank0    33784. kBytes
=======================================================================

   base      :      30000. kBytes
   nonl-proj :       2598. kBytes
   fftplans  :        153. kBytes
   grid      :        675. kBytes
   one-center:         62. kBytes
   wavefun   :        296. kBytes
 
     INWAV:  cpu time    0.0000: real time    0.0000
 Broyden mixing: mesh for mixing (old mesh)
   NGX = 15   NGY = 15   NGZ = 15
  (NGX  = 48   NGY  = 48   NGZ  = 48)
  gives a total of   3375 points

 initial charge density was supplied:
 charge density of overlapping atoms calculated
 number of electron      40.0000000 magnetization 
 keeping initial charge density in first step


--------------------------------------------------------------------------------------------------------


 Maximum index for augmentation-charges          673 (set IRDMAX)


--------------------------------------------------------------------------------------------------------


 First call to EWALD:  gamma=   0.447
 Maximum number of real-space cells 3x 3x 3
 Maximum number of reciprocal cells 3x 3x 3

    FEWALD:  cpu time    0.0017: real time    0.0018


--------------------------------------- Iteration      1(   1)  ---------------------------------------


    POTLOK:  cpu time    0.0625: real time    0.0684
    SETDIJ:  cpu time    0.0035: real time    0.0035
     EDDAV:  cpu time    1.6752: real time    1.6847
       DOS:  cpu time    0.0045: real time    0.0045
    --------------------------------------------
      LOOP:  cpu time    1.7457: real time    1.7611

 eigenvalue-minimisations  :  1280
 total energy-change (2. order) : 0.6954552E+02  (-0.2313238E+04)
 number of electron      40.0000000 magnetization 
 augmentation part       40.0000000 magnetization 

 Free energy of the ion-electron system (eV)
  ---------------------------------------------------
  alpha Z        PSCENC =       243.69818580
  Ewald energy   TEWEN  =     -3328.84179670
  -Hartree energ DENC   =      -298.19352857
  -exchange      EXHF   =         0.00000000
  -V(xc)+E(xc)   XCENC  =        14.65116554
  PAW double counting   =      2784.49414171    -2671.36117993
  entropy T*S    EENTRO =        -0.10284384
  eigenvalues    EBANDS =       408.74370373
  atomic energy  EATOM  =      2916.45767181
  Solvation  Ediel_sol  =         0.00000000
  ---------------------------------------------------
  free energy    TOTEN  =        69.54551956 eV

  energy without entropy =       69.64836340  energy(sigma->0) =       69.59694148


--------------------------------------------------------------------------------------------------------




--------------------------------------- Iteration      1(   2)  ---------------------------------------


     EDDAV:  cpu time    3.2718: real time    3.2923
       DOS:  cpu time    0.0037: real time    0.0037
    --------------------------------------------
      LOOP:  cpu time    3.2754: real time    3.2960

 eigenvalue-minimisations  :  2112
 total energy-change (2. order) :-0.9551072E+02  (-0.9530132E+02)
 number of electron      40.0000000 magnetization 
 augmentation part       40.0000000 magnetization 

 Free energy of the ion-electron system (eV)
  ---------------------------------------------------
  alpha Z        PSCENC =       243.69818580
  Ewald energy   TEWEN  =     -3328.84179670
  -Hartree energ DENC   =      -298.19352857
  -exchange      EXHF   =         0.00000000
  -V(xc)+E(xc)   XCENC  =        14.65116554
  PAW double counting   =      2784.49414171    -2671.36117993
  entropy T*S    EENTRO =        -0.18850784
  eigenvalues    EBANDS =       313.31864681
  atomic energy  EATOM  =      2916.45767181
  Solvation  Ediel_sol  =         0.00000000
  ---------------------------------------------------
  free energy    TOTEN  =       -25.96520136 eV

  energy without entropy =      -25.77669352  energy(sigma->0) =      -25.87094744


--------------------------------------------------------------------------------------------------------




--------------------------------------- Iteration      1(   3)  ---------------------------------------


     EDDAV:  cpu time    1.6853: real time    1.6952
       DOS:  cpu time    0.0038: real time    0.0038
    --------------------------------------------
      LOOP:  cpu time    1.6891: real time    1.6990

 eigenvalue-minimisations  :  1280
 total energy-change (2. order) :-0.7893423E-01  (-0.7893267E-01)
 number of electron      40.0000000 magnetization 
 augmentation part       40.0000000 magnetization 

 Free energy of the ion-electron system (eV)
  ---------------------------------------------------
  alpha Z        PSCENC =       243.69818580
  Ewald energy   TEWEN  =     -3328.84179670
  -Hartree energ DENC   =      -298.19352857
  -exchange      EXHF   =         0.00000000
  -V(xc)+E(xc)   XCENC  =        14.65116554
  PAW double counting   =      2784.49414171    -2671.36117993
  entropy T*S    EENTRO =        -0.18865490
  eigenvalues    EBANDS =       313.23985965
  atomic energy  EATOM  =      2916.45767181
  Solvation  Ediel_sol  =         0.00000000
  ---------------------------------------------------
  free energy    TOTEN  =       -26.04413558 eV

  energy without entropy =      -25.85548068  energy(sigma->0) =      -25.94980813


--------------------------------------------------------------------------------------------------------




--------------------------------------- Iteration      1(   4)  ---------------------------------------


     EDDAV:  cpu time    4.5081: real time    4.5324
       DOS:  cpu time    0.0037: real time    0.0037
    --------------------------------------------
      LOOP:  cpu time    4.5118: real time    4.5361

 eigenvalue-minimisations  :  2560
 total energy-change (2. order) :-0.4154333E-04  (-0.4154199E-04)
 number of electron      40.0000000 magnetization 
 augmentation part       40.0000000 magnetization 

 Free energy of the ion-electron system (eV)
  ---------------------------------------------------
  alpha Z        PSCENC =       243.69818580
  Ewald energy   TEWEN  =     -3328.84179670
  -Hartree energ DENC   =      -298.19352857
  -exchange      EXHF   =         0.00000000
  -V(xc)+E(xc)   XCENC  =        14.65116554
  PAW double counting   =      2784.49414171    -2671.36117993
  entropy T*S    EENTRO =        -0.18865514
  eigenvalues    EBANDS =       313.23981834
  atomic energy  EATOM  =      2916.45767181
  Solvation  Ediel_sol  =         0.00000000
  ---------------------------------------------------
  free energy    TOTEN  =       -26.04417713 eV

  energy without entropy =      -25.85552199  energy(sigma->0) =      -25.94984956


--------------------------------------------------------------------------------------------------------




--------------------------------------- Iteration      1(   5)  ---------------------------------------


     EDDAV:  cpu time    1.6489: real time    1.6720
       DOS:  cpu time    0.0038: real time    0.0038
    CHARGE:  cpu time    0.0136: real time    0.0137
    MIXING:  cpu time    0.0040: real time    0.0040
    --------------------------------------------
      LOOP:  cpu time    1.6704: real time    1.6936

 eigenvalue-minimisations  :  1280
 total energy-change (2. order) : 0.1339686E-08  (-0.5517868E-10)
 number of electron      39.9999962 magnetization 
 augmentation part       11.7071971 magnetization 

 Broyden mixing:
  rms(total) = 0.23443E+01    rms(broyden)= 0.23443E+01
  rms(prec ) = 0.28894E+01
  weight for this iteration     100.00

 Free energy of the ion-electron system (eV)
  ---------------------------------------------------
  alpha Z        PSCENC =       243.69818580
  Ewald energy   TEWEN  =     -3328.84179670
  -Hartree energ DENC   =      -298.19352857
  -exchange      EXHF   =         0.00000000
  -V(xc)+E(xc)   XCENC  =        14.65116554
  PAW double counting   =      2784.49414171    -2671.36117993
  entropy T*S    EENTRO =        -0.18865514
  eigenvalues    EBANDS =       313.23981834
  atomic energy  EATOM  =      2916.45767181
  Solvation  Ediel_sol  =         0.00000000
  ---------------------------------------------------
  free energy    TOTEN  =       -26.04417712 eV

  energy without entropy =      -25.85552199  energy(sigma->0) =      -25.94984956


--------------------------------------------------------------------------------------------------------




--------------------------------------- Iteration      1(   6)  ---------------------------------------


    POTLOK:  cpu time    0.0659: real time    0.0792
    SETDIJ:  cpu time    0.0027: real time    0.0027
     EDDAV:  cpu time    3.9408: real time    3.9653
       DOS:  cpu time    0.0038: real time    0.0039
    CHARGE:  cpu time    0.0128: real time    0.0129
    MIXING:  cpu time    0.0128: real time    0.0129
    --------------------------------------------
      LOOP:  cpu time    4.0389: real time    4.0769

 eigenvalue-minimisations  :  2368
 total energy-change (2. order) : 0.1344057E+01  (-0.4010711E+00)
 number of electron      39.9999961 magnetization 
 augmentation part       12.2255543 magnetization 

 Broyden mixing:
  rms(total) = 0.12397E+01    rms(broyden)= 0.12397E+01
  rms(prec ) = 0.13368E+01
  weight for this iteration     100.00

 eigenvalues of (default mixing * dielectric matrix)
  average eigenvalue GAMMA=   1.9799
  1.9799

 Free energy of the ion-electron system (eV)
  ---------------------------------------------------
  alpha Z        PSCENC =       243.69818580
  Ewald energy   TEWEN  =     -3328.84179670
  -Hartree energ DENC   =      -270.44253556
  -exchange      EXHF   =         0.00000000
  -V(xc)+E(xc)   XCENC  =        13.63119701
  PAW double counting   =      3123.42234244    -3016.31398166
  entropy T*S    EENTRO =        -0.18832861
  eigenvalues    EBANDS =       293.87712495
  atomic energy  EATOM  =      2916.45767181
  Solvation  Ediel_sol  =         0.00000000
  ---------------------------------------------------
  free energy    TOTEN  =       -24.70012051 eV

  energy without entropy =      -24.51179190  energy(sigma->0) =      -24.60595621


--------------------------------------------------------------------------------------------------------




--------------------------------------- Iteration      1(   7)  ---------------------------------------


    POTLOK:  cpu time    0.0788: real time    0.0797
    SETDIJ:  cpu time    0.0027: real time    0.0027
     EDDAV:  cpu time    4.4617: real time    4.4864
       DOS:  cpu time    0.0035: real time    0.0035
    CHARGE:  cpu time    0.0127: real time    0.0130
    MIXING:  cpu time    0.0036: real time    0.0036
    --------------------------------------------
      LOOP:  cpu time    4.5629: real time    4.5888

 eigenvalue-minimisations  :  2560
 total energy-change (2. order) : 0.1374736E+00  (-0.7317343E-01)
 number of electron      39.9999960 magnetization 
 augmentation part       12.4506821 magnetization 

 Broyden mixing:
  rms(total) = 0.43276E+00    rms(broyden)= 0.43276E+00
  rms(prec ) = 0.43854E+00
  weight for this iteration     100.00

 eigenvalues of (default mixing * dielectric matrix)
  average eigenvalue GAMMA=   2.1157
  1.3267  2.9048

 Free energy of the ion-electron system (eV)
  ---------------------------------------------------
  alpha Z        PSCENC =       243.69818580
  Ewald energy   TEWEN  =     -3328.84179670
  -Hartree energ DENC   =      -257.28141886
  -exchange      EXHF   =         0.00000000
  -V(xc)+E(xc)   XCENC  =        13.16048044
  PAW double counting   =      3466.08233359    -3363.39003225
  entropy T*S    EENTRO =        -0.18877594
  eigenvalues    EBANDS =       285.74070522
  atomic energy  EATOM  =      2916.45767181
  Solvation  Ediel_sol  =         0.00000000
  ---------------------------------------------------
  free energy    TOTEN  =       -24.56264688 eV

  energy without entropy =      -24.37387094  energy(sigma->0) =      -24.46825891


--------------------------------------------------------------------------------------------------------




--------------------------------------- Iteration      1(   8)  ---------------------------------------


    POTLOK:  cpu time    0.0743: real time    0.0753
    SETDIJ:  cpu time    0.0026: real time    0.0026
     EDDAV:  cpu time    2.1894: real time    2.2037
       DOS:  cpu time    0.0039: real time    0.0039
    CHARGE:  cpu time    0.0127: real time    0.0128
    MIXING:  cpu time    0.2266: real time    0.2278
    --------------------------------------------
      LOOP:  cpu time    2.5094: real time    2.5260

 eigenvalue-minimisations  :  1536
 total energy-change (2. order) : 0.1282483E-01  (-0.3464863E-02)
 number of electron      39.9999960 magnetization 
 augmentation part       12.4096328 magnetization 

 Broyden mixing:
  rms(total) = 0.10289E+00    rms(broyden)= 0.10289E+00
  rms(prec ) = 0.10307E+00
  weight for this iteration     100.00

 eigenvalues of (default mixing * dielectric matrix)
  average eigenvalue GAMMA=   1.5820
  2.5571  0.8644  1.3246

 Free energy of the ion-electron system (eV)
  ---------------------------------------------------
  alpha Z        PSCENC =       243.69818580
  Ewald energy   TEWEN  =     -3328.84179670
  -Hartree energ DENC   =      -257.35279661
  -exchange      EXHF   =         0.00000000
  -V(xc)+E(xc)   XCENC  =        13.15639206
  PAW double counting   =      3678.47223156    -3577.60650388
  entropy T*S    EENTRO =        -0.18781426
  eigenvalues    EBANDS =       287.65460817
  atomic energy  EATOM  =      2916.45767181
  Solvation  Ediel_sol  =         0.00000000
  ---------------------------------------------------
  free energy    TOTEN  =       -24.54982206 eV

  energy without entropy =      -24.36200779  energy(sigma->0) =      -24.45591492


--------------------------------------------------------------------------------------------------------




--------------------------------------- Iteration      1(   9)  ---------------------------------------


    POTLOK:  cpu time    0.0674: real time    0.0720
    SETDIJ:  cpu time    0.0026: real time    0.0026
     EDDAV:  cpu time    3.6260: real time    3.6474
       DOS:  cpu time    0.0036: real time    0.0036
    CHARGE:  cpu time    0.0128: real time    0.0129
    MIXING:  cpu time    0.0037: real time    0.0037
    --------------------------------------------
      LOOP:  cpu time    3.7161: real time    3.7422

 eigenvalue-minimisations  :  2176
 total energy-change (2. order) : 0.5742591E-03  (-0.2622968E-04)
 number of electron      39.9999960 magnetization 
 augmentation part       12.4117694 magnetization 

 Broyden mixing:
  rms(total) = 0.98929E-02    rms(broyden)= 0.98929E-02
  rms(prec ) = 0.10183E-01
  weight for this iteration     100.00

 eigenvalues of (default mixing * dielectric matrix)
  average eigenvalue GAMMA=   1.8814
  0.9900  1.3124  2.6116  2.6116

 Free energy of the ion-electron system (eV)
  ---------------------------------------------------
  alpha Z        PSCENC =       243.69818580
  Ewald energy   TEWEN  =     -3328.84179670
  -Hartree energ DENC   =      -257.60011784
  -exchange      EXHF   =         0.00000000
  -V(xc)+E(xc)   XCENC  =        13.16565175
  PAW double counting   =      3640.64257035    -3539.38993266
  entropy T*S    EENTRO =        -0.18793474
  eigenvalues    EBANDS =       287.50645443
  atomic energy  EATOM  =      2916.45767181
  Solvation  Ediel_sol  =         0.00000000
  ---------------------------------------------------
  free energy    TOTEN  =       -24.54924780 eV

  energy without entropy =      -24.36131306  energy(sigma->0) =      -24.45528043


--------------------------------------------------------------------------------------------------------




--------------------------------------- Iteration      1(  10)  ---------------------------------------


    POTLOK:  cpu time    0.0627: real time    0.0684
    SETDIJ:  cpu time    0.0024: real time    0.0024
     EDDAV:  cpu time    2.4960: real time    2.5112
       DOS:  cpu time    0.0042: real time    0.0042
    CHARGE:  cpu time    0.0130: real time    0.0131
    MIXING:  cpu time    0.0035: real time    0.0036
    --------------------------------------------
      LOOP:  cpu time    2.5818: real time    2.6029

 eigenvalue-minimisations  :  1664
 total energy-change (2. order) :-0.1101640E-04  (-0.6802287E-06)
 number of electron      39.9999960 magnetization 
 augmentation part       12.4123366 magnetization 

 Broyden mixing:
  rms(total) = 0.12134E-02    rms(broyden)= 0.12134E-02
  rms(prec ) = 0.13559E-02
  weight for this iteration     100.00

 eigenvalues of (default mixing * dielectric matrix)
  average eigenvalue GAMMA=   1.7064
  2.6730  2.5510  1.3112  0.9984  0.9984

 Free energy of the ion-electron system (eV)
  ---------------------------------------------------
  alpha Z        PSCENC =       243.69818580
  Ewald energy   TEWEN  =     -3328.84179670
  -Hartree energ DENC   =      -257.64529306
  -exchange      EXHF   =         0.00000000
  -V(xc)+E(xc)   XCENC  =        13.16694772
  PAW double counting   =      3639.01592494    -3537.68543956
  entropy T*S    EENTRO =        -0.18791797
  eigenvalues    EBANDS =       287.47245820
  atomic energy  EATOM  =      2916.45767181
  Solvation  Ediel_sol  =         0.00000000
  ---------------------------------------------------
  free energy    TOTEN  =       -24.54925881 eV

  energy without entropy =      -24.36134085  energy(sigma->0) =      -24.45529983


--------------------------------------------------------------------------------------------------------




--------------------------------------- Iteration      1(  11)  ---------------------------------------


    POTLOK:  cpu time    0.0648: real time    0.0731
    SETDIJ:  cpu time    0.0025: real time    0.0025
     EDDAV:  cpu time    3.7509: real time    3.7712
       DOS:  cpu time    0.0035: real time    0.0035
    --------------------------------------------
      LOOP:  cpu time    3.8217: real time    3.8503

 eigenvalue-minimisations  :  2240
 total energy-change (2. order) : 0.2757511E-06  (-0.3907876E-07)
 number of electron      39.9999960 magnetization 
 augmentation part       12.4123366 magnetization 

 Free energy of the ion-electron system (eV)
  ---------------------------------------------------
  alpha Z        PSCENC =       243.69818580
  Ewald energy   TEWEN  =     -3328.84179670
  -Hartree energ DENC   =      -257.65672961
  -exchange      EXHF   =         0.00000000
  -V(xc)+E(xc)   XCENC  =        13.16725101
  PAW double counting   =      3638.99397676    -3537.64611299
  entropy T*S    EENTRO =        -0.18791322
  eigenvalues    EBANDS =       287.46620859
  atomic energy  EATOM  =      2916.45767181
  Solvation  Ediel_sol  =         0.00000000
  ---------------------------------------------------
  free energy    TOTEN  =       -24.54925854 eV

  energy without entropy =      -24.36134532  energy(sigma->0) =      -24.45530193


--------------------------------------------------------------------------------------------------------




 average (electrostatic) potential at core
  the test charge radii are     1.2059
  (the norm of the test charge is              1.0000)
       1 -63.4098       2 -63.4098       3 -63.4098       4 -63.4098
 
 
 
 E-fermi :  10.6509     XC(G=0): -13.2855     alpha+bet :-16.0586


 k-point     1 :       0.0833    0.0833    0.0833
  band No.  band energies     occupation 
      1       1.0524      2.00000
      2       4.0793      2.00000
      3       4.0793      2.00000
      4       4.0793      2.00000
      5       4.5065      2.00000
      6       4.5065      2.00000
      7       4.5065      2.00000
      8       6.9294      2.00000
      9       7.1451      2.00000
     10       7.1451      2.00000
     11       9.0335      2.00000
     12       9.0335      2.00000
     13       9.9815      1.99753
     14       9.9815      1.99753
     15       9.9815      1.99753
     16      10.3620      1.89462
     17      10.3620      1.89462
     18      10.3620      1.89462
     19      10.9640      0.08368
     20      10.9640      0.08368
     21      10.9640      0.08368
     22      13.1150      0.00000
     23      13.1150      0.00000
     24      13.1150      0.00000
     25      19.3146      0.00000
     26      19.3146      0.00000
     27      19.3146      0.00000
     28      21.8786      0.00000
     29      21.8786      0.00000
     30      21.8786      0.00000
     31      22.5102      0.00000
     32      22.5102      0.00000
     33      22.5102      0.00000
     34      25.7526      0.00000
     35      28.8019      0.00000
     36      30.5274      0.00000
     37      30.5274      0.00000
     38      30.7678      0.00000
     39      30.7678      0.00000
     40      30.7678      0.00000
     41      33.4099      0.00000
     42      33.4099      0.00000
     43      33.4099      0.00000
     44      36.6382      0.00000
     45      38.9076      0.00000
     46      38.9076      0.00000
     47      38.9076      0.00000
     48      39.4049      0.00000
     49      40.4745      0.00000
     50      40.4745      0.00000
     51      43.3117      0.00000
     52      43.3117      0.00000
     53      43.3912      0.00000
     54      43.3912      0.00000
     55      43.3912      0.00000
     56      43.7568      0.00000
     57      43.8405      0.00000
     58      43.8405      0.00000
     59      43.8405      0.00000
     60      43.8529      0.00000
     61      43.8529      0.00000
     62      43.8529      0.00000
     63      44.0868      0.00000
     64      44.0868      0.00000

 k-point     2 :       0.2500    0.0833    0.0833
  band No.  band energies     occupation 
      1       1.7369      2.00000
      2       4.2710      2.00000
      3       4.5220      2.00000
      4       4.5220      2.00000
      5       4.7854      2.00000
      6       4.9700      2.00000
      7       4.9700      2.00000
      8       6.5648      2.00000
      9       7.4400      2.00000
     10       7.4541      2.00000
     11       8.3882      2.00000
     12       8.3882      2.00000
     13       8.6252      2.00000
     14       8.7791      2.00000
     15       9.2637      2.00000
     16       9.7596      1.99973
     17       9.7753      1.99969
     18       9.7753      1.99969
     19      10.6471      1.01927
     20      10.8919      0.16481
     21      10.8919      0.16481
     22      11.1841      0.00962
     23      14.9892      0.00000
     24      14.9892      0.00000
     25      18.2680      0.00000
     26      18.2680      0.00000
     27      21.3497      0.00000
     28      21.3497      0.00000
     29      21.9700      0.00000
     30      23.0655      0.00000
     31      23.0655      0.00000
     32      23.9619      0.00000
     33      24.0699      0.00000
     34      26.6858      0.00000
     35      27.4438      0.00000
     36      30.2087      0.00000
     37      30.3777      0.00000
     38      31.0794      0.00000
     39      31.9206      0.00000
     40      31.9206      0.00000
     41      32.4966      0.00000
     42      34.3548      0.00000
     43      34.3548      0.00000
     44      35.9933      0.00000
     45      37.4811      0.00000
     46      37.8685      0.00000
     47      37.8685      0.00000
     48      39.3241      0.00000
     49      39.4504      0.00000
     50      40.4643      0.00000
     51      41.2624      0.00000
     52      41.9027      0.00000
     53      42.1736      0.00000
     54      42.1736      0.00000
     55      42.6321      0.00000
     56      43.7846      0.00000
     57      43.7846      0.00000
     58      43.7858      0.00000
     59      43.8657      0.00000
     60      43.8769      0.00000
     61      43.8853      0.00000
     62      43.8865      0.00000
     63      43.9228      0.00000
     64      43.9591      0.00000

 k-point     3 :       0.4167    0.0833    0.0833
  band No.  band energies     occupation 
      1       2.9468      2.00000
      2       4.0851      2.00000
      3       5.2101      2.00000
      4       5.2101      2.00000
      5       5.2959      2.00000
      6       5.7472      2.00000
      7       5.7472      2.00000
      8       5.9415      2.00000
      9       6.8961      2.00000
     10       6.8961      2.00000
     11       7.6052      2.00000
     12       7.6148      2.00000
     13       8.0528      2.00000
     14       8.5576      2.00000
     15       8.8772      2.00000
     16       8.9526      2.00000
     17       8.9526      2.00000
     18       9.5967      1.99995
     19       9.6750      1.99988
     20      10.1758      1.98287
     21      10.8625      0.21513
     22      10.8625      0.21513
     23      16.4782      0.00000
     24      16.4782      0.00000
     25      17.9044      0.00000
     26      17.9044      0.00000
     27      20.4960      0.00000
     28      20.4960      0.00000
     29      23.1108      0.00000
     30      23.1108      0.00000
     31      24.5835      0.00000
     32      26.3205      0.00000
     33      26.3556      0.00000
     34      27.2587      0.00000
     35      28.1774      0.00000
     36      28.9294      0.00000
     37      29.9775      0.00000
     38      30.0366      0.00000
     39      31.3839      0.00000
     40      33.0794      0.00000
     41      33.0794      0.00000
     42      33.7986      0.00000
     43      35.3741      0.00000
     44      35.3741      0.00000
     45      36.6630      0.00000
     46      37.2441      0.00000
     47      37.8447      0.00000
     48      37.8447      0.00000
     49      38.0489      0.00000
     50      38.6268      0.00000
     51      42.0887      0.00000
     52      42.0887      0.00000
     53      42.3610      0.00000
     54      42.5205      0.00000
     55      42.5205      0.00000
     56      42.9979      0.00000
     57      43.5851      0.00000
     58      43.8407      0.00000
     59      43.8407      0.00000
     60      43.8479      0.00000
     61      43.8880      0.00000
     62      43.8895      0.00000
     63      43.9334      0.00000
     64      43.9394      0.00000

 k-point     4 :       0.2500    0.2500    0.0833
  band No.  band energies     occupation 
      1       2.3441      2.00000
      2       4.7071      2.00000
      3       4.7074      2.00000
      4       4.7074      2.00000
      5       5.2365      2.00000
      6       5.2365      2.00000
      7       5.4840      2.00000
      8       6.4922      2.00000
      9       7.4539      2.00000
     10       7.4753      2.00000
     11       7.4753      2.00000
     12       7.5459      2.00000
     13       7.8347      2.00000
     14       8.6292      2.00000
     15       9.2457      2.00000
     16       9.3864      1.99999
     17       9.3864      1.99999
     18       9.4488      1.99999
     19      10.4775      1.69988
     20      10.4775      1.69988
     21      10.5503      1.46432
     22      12.7627      0.00000
     23      12.7627      0.00000
     24      16.1783      0.00000
     25      16.6937      0.00000
     26      20.1253      0.00000
     27      20.1253      0.00000
     28      21.2546      0.00000
     29      23.4985      0.00000
     30      23.4985      0.00000
     31      24.6649      0.00000
     32      24.6649      0.00000
     33      25.1529      0.00000
     34      25.6460      0.00000
     35      27.1446      0.00000
     36      30.1499      0.00000
     37      30.4365      0.00000
     38      31.1712      0.00000
     39      31.1712      0.00000
     40      32.9091      0.00000
     41      33.3664      0.00000
     42      33.8952      0.00000
     43      33.8952      0.00000
     44      36.8044      0.00000
     45      37.5984      0.00000
     46      37.8909      0.00000
     47      37.9564      0.00000
     48      38.1237      0.00000
     49      38.1237      0.00000
     50      39.3525      0.00000
     51      41.1185      0.00000
     52      41.1185      0.00000
     53      41.7218      0.00000
     54      42.4743      0.00000
     55      43.3130      0.00000
     56      43.3130      0.00000
     57      43.7889      0.00000
     58      43.8320      0.00000
     59      43.8320      0.00000
     60      43.8324      0.00000
     61      43.8656      0.00000
     62      43.8934      0.00000
     63      43.8934      0.00000
     64      43.9393      0.00000

 k-point     5 :       0.4167    0.2500    0.0833
  band No.  band energies     occupation 
      1       3.4143      2.00000
      2       4.4816      2.00000
      3       5.2261      2.00000
      4       5.4142      2.00000
      5       5.6776      2.00000
      6       5.8460      2.00000
      7       5.9243      2.00000
      8       6.1371      2.00000
      9       6.4645      2.00000
     10       6.9015      2.00000
     11       6.9514      2.00000
     12       7.2665      2.00000
     13       7.9415      2.00000
     14       8.5979      2.00000
     15       8.7246      2.00000
     16       8.7627      2.00000
     17       8.8717      2.00000
     18       9.6610      1.99990
     19      10.1586      1.98555
     20      10.2697      1.95675
     21      10.2896      1.94748
     22      11.1436      0.01440
     23      14.1751      0.00000
     24      15.2192      0.00000
     25      17.8492      0.00000
     26      18.8509      0.00000
     27      21.4255      0.00000
     28      22.2302      0.00000
     29      22.3864      0.00000
     30      24.0875      0.00000
     31      25.0756      0.00000
     32      25.6867      0.00000
     33      25.7131      0.00000
     34      27.1308      0.00000
     35      27.1719      0.00000
     36      29.2984      0.00000
     37      30.4685      0.00000
     38      30.8239      0.00000
     39      30.8324      0.00000
     40      31.6633      0.00000
     41      33.8306      0.00000
     42      34.6447      0.00000
     43      35.4889      0.00000
     44      35.7448      0.00000
     45      36.0413      0.00000
     46      37.3311      0.00000
     47      38.2907      0.00000
     48      39.1980      0.00000
     49      39.2642      0.00000
     50      39.7090      0.00000
     51      39.8741      0.00000
     52      40.2704      0.00000
     53      40.7165      0.00000
     54      42.2157      0.00000
     55      42.2670      0.00000
     56      43.3928      0.00000
     57      43.7843      0.00000
     58      43.8127      0.00000
     59      43.8549      0.00000
     60      43.8775      0.00000
     61      43.9027      0.00000
     62      43.9205      0.00000
     63      43.9452      0.00000
     64      43.9620      0.00000

 k-point     6 :       0.4167    0.4167    0.0833
  band No.  band energies     occupation 
      1       4.1768      2.00000
      2       4.9613      2.00000
      3       4.9613      2.00000
      4       5.1615      2.00000
      5       6.2537      2.00000
      6       6.3372      2.00000
      7       6.3526      2.00000
      8       6.3526      2.00000
      9       6.4427      2.00000
     10       6.4427      2.00000
     11       6.8787      2.00000
     12       7.0324      2.00000
     13       7.8927      2.00000
     14       8.2811      2.00000
     15       8.3004      2.00000
     16       8.3004      2.00000
     17       8.7918      2.00000
     18       9.4610      1.99999
     19       9.4610      1.99999
     20       9.6938      1.99986
     21      11.1975      0.00842
     22      12.4314      0.00000
     23      12.4314      0.00000
     24      13.6420      0.00000
     25      19.0026      0.00000
     26      20.3394      0.00000
     27      20.3394      0.00000
     28      22.1005      0.00000
     29      22.4756      0.00000
     30      24.0811      0.00000
     31      24.0811      0.00000
     32      25.8033      0.00000
     33      27.3575      0.00000
     34      27.3575      0.00000
     35      28.2720      0.00000
     36      28.3599      0.00000
     37      29.1552      0.00000
     38      31.3965      0.00000
     39      31.3965      0.00000
     40      32.1174      0.00000
     41      33.4999      0.00000
     42      33.7459      0.00000
     43      33.7459      0.00000
     44      35.3006      0.00000
     45      37.8315      0.00000
     46      38.0078      0.00000
     47      38.6488      0.00000
     48      38.6488      0.00000
     49      40.2167      0.00000
     50      40.4428      0.00000
     51      40.6565      0.00000
     52      40.6565      0.00000
     53      41.2805      0.00000
     54      42.2881      0.00000
     55      42.2881      0.00000
     56      43.5645      0.00000
     57      43.7196      0.00000
     58      43.7659      0.00000
     59      43.7659      0.00000
     60      43.8834      0.00000
     61      43.9177      0.00000
     62      43.9453      0.00000
     63      43.9453      0.00000
     64      43.9773      0.00000

 k-point     7 :       0.2500    0.2500    0.2500
  band No.  band energies     occupation 
      1       2.7788      2.00000
      2       4.6910      2.00000
      3       4.6910      2.00000
      4       4.6910      2.00000
      5       5.8046      2.00000
      6       5.8046      2.00000
      7       5.8046      2.00000
      8       6.7125      2.00000
      9       7.2854      2.00000
     10       7.2854      2.00000
     11       7.2854      2.00000
     12       7.4000      2.00000
     13       7.4000      2.00000
     14       8.5579      2.00000
     15       8.5579      2.00000
     16       8.5579      2.00000
     17       9.2579      2.00000
     18       9.2579      2.00000
     19      10.7828      0.42184
     20      10.7828      0.42184
     21      10.7828      0.42184
     22      13.5785      0.00000
     23      13.5785      0.00000
     24      13.5785      0.00000
     25      17.8606      0.00000
     26      17.8606      0.00000
     27      17.8606      0.00000
     28      23.7334      0.00000
     29      24.4208      0.00000
     30      24.4208      0.00000
     31      24.4208      0.00000
     32      25.9647      0.00000
     33      25.9647      0.00000
     34      25.9647      0.00000
     35      26.9438      0.00000
     36      29.2287      0.00000
     37      29.2287      0.00000
     38      29.2287      0.00000
     39      32.8882      0.00000
     40      32.8882      0.00000
     41      33.8598      0.00000
     42      35.2588      0.00000
     43      35.2588      0.00000
     44      36.9250      0.00000
     45      36.9250      0.00000
     46      36.9250      0.00000
     47      37.8315      0.00000
     48      37.8315      0.00000
     49      37.8315      0.00000
     50      39.7941      0.00000
     51      39.7941      0.00000
     52      39.7941      0.00000
     53      43.2993      0.00000
     54      43.2993      0.00000
     55      43.2993      0.00000
     56      43.6067      0.00000
     57      43.6067      0.00000
     58      43.8265      0.00000
     59      43.8265      0.00000
     60      43.8265      0.00000
     61      43.9000      0.00000
     62      43.9000      0.00000
     63      43.9000      0.00000
     64      43.9478      0.00000

 k-point     8 :       0.4167    0.2500    0.2500
  band No.  band energies     occupation 
      1       3.5190      2.00000
      2       4.2885      2.00000
      3       4.8412      2.00000
      4       4.8412      2.00000
      5       6.0989      2.00000
      6       6.0989      2.00000
      7       6.4203      2.00000
      8       6.7715      2.00000
      9       6.9197      2.00000
     10       7.1954      2.00000
     11       7.2804      2.00000
     12       7.2804      2.00000
     13       7.4958      2.00000
     14       7.9016      2.00000
     15       8.1708      2.00000
     16       8.1708      2.00000
     17       9.6064      1.99994
     18      10.0139      1.99658
     19      10.5181      1.58090
     20      10.5181      1.58090
     21      10.6009      1.24486
     22      11.1608      0.01213
     23      14.6781      0.00000
     24      14.6781      0.00000
     25      16.2700      0.00000
     26      16.2700      0.00000
     27      19.8396      0.00000
     28      21.8479      0.00000
     29      24.7980      0.00000
     30      24.7980      0.00000
     31      25.8568      0.00000
     32      25.8568      0.00000
     33      26.4909      0.00000
     34      26.6718      0.00000
     35      27.6745      0.00000
     36      29.4002      0.00000
     37      29.4002      0.00000
     38      29.4670      0.00000
     39      30.2040      0.00000
     40      31.8037      0.00000
     41      35.3124      0.00000
     42      35.7483      0.00000
     43      36.6567      0.00000
     44      36.6567      0.00000
     45      36.9642      0.00000
     46      36.9858      0.00000
     47      37.0518      0.00000
     48      38.9296      0.00000
     49      39.1533      0.00000
[...]
  --------------------------------------------------------------------------------
  x    -0.00000     0.00000     0.00000     0.00000    -0.00000     0.00000
  y    -0.00000     0.00000     0.00000     0.00000     0.00000    -0.00000
  z    -0.00000    -0.00000    -0.00000    -0.00000     0.00000    -0.00000

 INTERNAL STRAIN TENSOR FOR ION    4 for displacements in x,y,z  (eV/Angst):
          X           Y           Z          XY          YZ          ZX
  --------------------------------------------------------------------------------
  x     0.00000     0.00000     0.00000     0.00000     0.00000    -0.00000
  y     0.00000    -0.00000     0.00000    -0.00000    -0.00000     0.00000
  z     0.00000    -0.00000     0.00000     0.00000     0.00000     0.00000
 
 INTERNAL STRAIN TENSORS FROM DISPLACED ATOMS
 ============================================

 INTERNAL STRAIN TENSOR FOR ION    1 for displacements in x,y,z  (eV/Angst):
          X           Y           Z          XY          YZ          ZX
  --------------------------------------------------------------------------------
  x    -0.00000    -0.00000    -0.00000     0.00000     0.00000     0.00000
  y    -0.00000    -0.00000    -0.00000    -0.00000     0.00000     0.00000
  z    -0.00000    -0.00000    -0.00000     0.00000     0.00000     0.00000

 INTERNAL STRAIN TENSOR FOR ION    2 for displacements in x,y,z  (eV/Angst):
          X           Y           Z          XY          YZ          ZX
  --------------------------------------------------------------------------------
  x    -0.00000    -0.00000    -0.00000     0.00000     0.00000     0.00000
  y    -0.00000    -0.00000    -0.00000    -0.00000     0.00000     0.00000
  z    -0.00000    -0.00000    -0.00000     0.00000     0.00000     0.00000

 INTERNAL STRAIN TENSOR FOR ION    3 for displacements in x,y,z  (eV/Angst):
          X           Y           Z          XY          YZ          ZX
  --------------------------------------------------------------------------------
  x    -0.00000    -0.00000    -0.00000     0.00000     0.00000     0.00000
  y    -0.00000    -0.00000    -0.00000    -0.00000     0.00000     0.00000
  z    -0.00000    -0.00000    -0.00000     0.00000     0.00000     0.00000

 INTERNAL STRAIN TENSOR FOR ION    4 for displacements in x,y,z  (eV/Angst):
          X           Y           Z          XY          YZ          ZX
  --------------------------------------------------------------------------------
  x    -0.00000    -0.00000    -0.00000     0.00000     0.00000     0.00000
  y    -0.00000    -0.00000    -0.00000    -0.00000     0.00000     0.00000
  z    -0.00000    -0.00000    -0.00000     0.00000     0.00000     0.00000


--------------------------------------------------------------------------------------------------------


 
 Eigenvectors and eigenvalues of the dynamical matrix
 ----------------------------------------------------
 
 
   1 f  =    5.465593 THz    34.341331 2PiTHz  182.312539 cm-1    22.603882 meV
             X         Y         Z           dx          dy          dz
      0.000000  0.000000  0.000000     0.047571   -0.350338   -0.353553  
      0.000000  1.983304  1.983304     0.047571    0.350338    0.353553  
      1.983304  0.000000  1.983304    -0.047571   -0.350338    0.353553  
      1.983304  1.983304  0.000000    -0.047571    0.350338   -0.353553  
 
   2 f  =    5.465593 THz    34.341331 2PiTHz  182.312539 cm-1    22.603882 meV
             X         Y         Z           dx          dy          dz
      0.000000  0.000000  0.000000     0.495453    0.067276   -0.000000  
      0.000000  1.983304  1.983304     0.495453   -0.067276    0.000000  
      1.983304  0.000000  1.983304    -0.495453    0.067276   -0.000000  
      1.983304  1.983304  0.000000    -0.495453   -0.067276   -0.000000  
 
   3 f  =    5.465593 THz    34.341331 2PiTHz  182.312539 cm-1    22.603882 meV
             X         Y         Z           dx          dy          dz
      0.000000  0.000000  0.000000     0.047571   -0.350338    0.353553  
      0.000000  1.983304  1.983304     0.047571    0.350338   -0.353553  
      1.983304  0.000000  1.983304    -0.047571   -0.350338   -0.353553  
      1.983304  1.983304  0.000000    -0.047571    0.350338    0.353553  
 
   4 f  =    3.734369 THz    23.463733 2PiTHz  124.565140 cm-1    15.444115 meV
             X         Y         Z           dx          dy          dz
      0.000000  0.000000  0.000000     0.050509    0.247720    0.005585  
      0.000000  1.983304  1.983304    -0.050509    0.182422   -0.273627  
      1.983304  0.000000  1.983304     0.572628   -0.247720    0.273627  
      1.983304  1.983304  0.000000    -0.572628   -0.182422   -0.005585  
 
   5 f  =    3.734369 THz    23.463733 2PiTHz  124.565140 cm-1    15.444115 meV
             X         Y         Z           dx          dy          dz
      0.000000  0.000000  0.000000     0.006528   -0.045999   -0.685350  
      0.000000  1.983304  1.983304    -0.006528   -0.144278    0.022275  
      1.983304  0.000000  1.983304     0.082614    0.045999   -0.022275  
      1.983304  1.983304  0.000000    -0.082614    0.144278    0.685350  
 
   6 f  =    3.734369 THz    23.463733 2PiTHz  124.565140 cm-1    15.444115 meV
             X         Y         Z           dx          dy          dz
      0.000000  0.000000  0.000000     0.109544   -0.543405    0.041776  
      0.000000  1.983304  1.983304    -0.109544    0.187906    0.265369  
      1.983304  0.000000  1.983304     0.291952    0.543405   -0.265369  
      1.983304  1.983304  0.000000    -0.291952   -0.187906   -0.041776  
 
   7 f  =    3.734369 THz    23.463733 2PiTHz  124.565140 cm-1    15.444115 meV
             X         Y         Z           dx          dy          dz
      0.000000  0.000000  0.000000     0.623873   -0.101699    0.000000  
      0.000000  1.983304  1.983304    -0.623873   -0.056854   -0.284008  
      1.983304  0.000000  1.983304    -0.128634    0.101699    0.284008  
      1.983304  1.983304  0.000000     0.128634    0.056854    0.000000  
 
   8 f  =    3.734369 THz    23.463733 2PiTHz  124.565140 cm-1    15.444115 meV
             X         Y         Z           dx          dy          dz
      0.000000  0.000000  0.000000     0.288102    0.353162   -0.063676  
      0.000000  1.983304  1.983304    -0.288102    0.255985    0.470659  
      1.983304  0.000000  1.983304    -0.034217   -0.353162   -0.470659  
      1.983304  1.983304  0.000000     0.034217   -0.255985    0.063676  
 
   9 f  =    3.734369 THz    23.463733 2PiTHz  124.565140 cm-1    15.444115 meV
             X         Y         Z           dx          dy          dz
      0.000000  0.000000  0.000000    -0.114828   -0.078511   -0.156413  
      0.000000  1.983304  1.983304     0.114828    0.584668   -0.228102  
      1.983304  0.000000  1.983304    -0.249637    0.078511    0.228102  
      1.983304  1.983304  0.000000     0.249637   -0.584668    0.156413  
 
  10 f/i=    0.000000 THz     0.000002 2PiTHz    0.000008 cm-1     0.000001 meV
             X         Y         Z           dx          dy          dz
      0.000000  0.000000  0.000000     0.079541    0.179647   -0.459783  
      0.000000  1.983304  1.983304     0.079541    0.179647   -0.459783  
      1.983304  0.000000  1.983304     0.079541    0.179647   -0.459783  
      1.983304  1.983304  0.000000     0.079541    0.179647   -0.459783  
 
  11 f/i=    0.000000 THz     0.000002 2PiTHz    0.000009 cm-1     0.000001 meV
             X         Y         Z           dx          dy          dz
      0.000000  0.000000  0.000000     0.141347   -0.454502   -0.153131  
      0.000000  1.983304  1.983304     0.141347   -0.454502   -0.153131  
      1.983304  0.000000  1.983304     0.141347   -0.454502   -0.153131  
      1.983304  1.983304  0.000000     0.141347   -0.454502   -0.153131  
 
  12 f/i=    0.000000 THz     0.000002 2PiTHz    0.000009 cm-1     0.000001 meV
             X         Y         Z           dx          dy          dz
      0.000000  0.000000  0.000000     0.472963    0.105618    0.123088  
      0.000000  1.983304  1.983304     0.472963    0.105618    0.123088  
      1.983304  0.000000  1.983304     0.472963    0.105618    0.123088  
      1.983304  1.983304  0.000000     0.472963    0.105618    0.123088  
 


--------------------------------------------------------------------------------------------------------



 ELASTIC MODULI CONTR FROM IONIC RELAXATION (kBar)
 Direction    XX          YY          ZZ          XY          YZ          ZX
 --------------------------------------------------------------------------------
 XX          -0.0000     -0.0000     -0.0000     -0.0000      0.0000      0.0000
 YY          -0.0000     -0.0000     -0.0000     -0.0000      0.0000      0.0000
 ZZ          -0.0000     -0.0000     -0.0000     -0.0000      0.0000      0.0000
 XY          -0.0000     -0.0000     -0.0000      0.0000      0.0000      0.0000
 YZ           0.0000      0.0000      0.0000      0.0000     -0.0000     -0.0000
 ZX           0.0000      0.0000      0.0000      0.0000     -0.0000     -0.0000
 --------------------------------------------------------------------------------


 TOTAL ELASTIC MODULI (kBar)
 Direction    XX          YY          ZZ          XY          YZ          ZX
 --------------------------------------------------------------------------------
 XX        3107.4847   2219.6430   2219.6430      0.0000      0.0000      0.0000
 YY        2219.6430   3107.4847   2219.6430     -0.0000      0.0000     -0.0000
 ZZ        2219.6430   2219.6430   3107.4847      0.0000     -0.0000     -0.0000
 XY           0.0000     -0.0000      0.0000    817.2792      0.0000      0.0000
 YZ           0.0000      0.0000     -0.0000      0.0000    817.2792     -0.0000
 ZX           0.0000     -0.0000     -0.0000      0.0000     -0.0000    817.2792
 --------------------------------------------------------------------------------



--------------------------------------------------------------------------------------------------------


  LATTYP: Found a simple cubic cell.
 ALAT       =     3.9666071739
  
  Lattice vectors:
  
 A1 = (   3.9666071739,   0.0000000000,   0.0000000000)
 A2 = (   0.0000000000,   3.9666071739,   0.0000000000)
 A3 = (   0.0000000000,   0.0000000000,   3.9666071739)


Analysis of symmetry for initial positions (statically):
=====================================================================
 Subroutine PRICEL returns following result:
 
  LATTYP: Found a face centered cubic cell.
 ALAT       =     3.9666071739
  
  Lattice vectors:
  
 A1 = (   1.9833035869,   1.9833035869,   0.0000000000)
 A2 = (   1.9833035869,   0.0000000000,  -1.9833035869)
 A3 = (   0.0000000000,   1.9833035869,  -1.9833035869)
 
   4 primitive cells build up your supercell.
 

 Routine SETGRP: Setting up the symmetry group for a 
 simple cubic supercell.


 Subroutine GETGRP returns: Found 48 space group operations
 (whereof 48 operations were pure point group operations)
 out of a pool of 48 trial point group operations.


The static configuration has the point symmetry O_h .


Analysis of symmetry for dynamics (positions and initial velocities):
=====================================================================
 Subroutine PRICEL returns following result:
 
  LATTYP: Found a face centered cubic cell.
 ALAT       =     3.9666071739
  
  Lattice vectors:
  
 A1 = (   1.9833035869,   1.9833035869,   0.0000000000)
 A2 = (   1.9833035869,   0.0000000000,  -1.9833035869)
 A3 = (   0.0000000000,   1.9833035869,  -1.9833035869)
 
   4 primitive cells build up your supercell.
 

 Routine SETGRP: Setting up the symmetry group for a 
 simple cubic supercell.


 Subroutine GETGRP returns: Found 48 space group operations
 (whereof 48 operations were pure point group operations)
 out of a pool of 48 trial point group operations.


The dynamic configuration has the point symmetry O_h .


 Subroutine INISYM returns: Found 48 space group operations
 (whereof 48 operations are pure point group operations),
 and found     4 'primitive' translations

 
 KPOINTS: pymatgen with grid density = 882 / numbe

Automatic generation of k-mesh.
Space group operators:
 irot       det(A)        alpha          n_x          n_y          n_z        tau_x        tau_y        tau_z
    1     1.000000     0.000000     1.000000     0.000000     0.000000     0.000000     0.000000     0.000000
    2    -1.000000     0.000000     1.000000     0.000000     0.000000     0.000000     0.000000     0.000000
    3     1.000000   120.000000    -0.577350    -0.577350    -0.577350     0.000000     0.000000     0.000000
    4    -1.000000   120.000000    -0.577350    -0.577350    -0.577350     0.000000     0.000000     0.000000
    5     1.000000   120.000000     0.577350     0.577350     0.577350     0.000000     0.000000     0.000000
    6    -1.000000   120.000000     0.577350     0.577350     0.577350     0.000000     0.000000     0.000000
    7     1.000000    90.000000     0.000000     0.000000    -1.000000     0.000000     0.000000     0.000000
    8    -1.000000    90.000000     0.000000     0.000000    -1.000000     0.000000     0.000000     0.000000
    9     1.000000   180.000000     0.000000     0.707107     0.707107     0.000000     0.000000     0.000000
   10    -1.000000   180.000000     0.000000     0.707107     0.707107     0.000000     0.000000     0.000000
   11     1.000000    90.000000     0.000000     1.000000     0.000000     0.000000     0.000000     0.000000
   12    -1.000000    90.000000     0.000000     1.000000     0.000000     0.000000     0.000000     0.000000
   13     1.000000   180.000000     0.000000     0.000000     1.000000     0.000000     0.000000     0.000000
   14    -1.000000   180.000000     0.000000     0.000000     1.000000     0.000000     0.000000     0.000000
   15     1.000000   120.000000    -0.577350     0.577350     0.577350     0.000000     0.000000     0.000000
   16    -1.000000   120.000000    -0.577350     0.577350     0.577350     0.000000     0.000000     0.000000
   17     1.000000   120.000000    -0.577350     0.577350    -0.577350     0.000000     0.000000     0.000000
   18    -1.000000   120.000000    -0.577350     0.577350    -0.577350     0.000000     0.000000     0.000000
   19     1.000000    90.000000     0.000000     0.000000     1.000000     0.000000     0.000000     0.000000
   20    -1.000000    90.000000     0.000000     0.000000     1.000000     0.000000     0.000000     0.000000
   21     1.000000    90.000000    -1.000000     0.000000     0.000000     0.000000     0.000000     0.000000
   22    -1.000000    90.000000    -1.000000     0.000000     0.000000     0.000000     0.000000     0.000000
   23     1.000000   180.000000     0.707107     0.000000     0.707107     0.000000     0.000000     0.000000
   24    -1.000000   180.000000     0.707107     0.000000     0.707107     0.000000     0.000000     0.000000
   25     1.000000   120.000000     0.577350    -0.577350     0.577350     0.000000     0.000000     0.000000
   26    -1.000000   120.000000     0.577350    -0.577350     0.577350     0.000000     0.000000     0.000000
   27     1.000000   120.000000    -0.577350    -0.577350     0.577350     0.000000     0.000000     0.000000
   28    -1.000000   120.000000    -0.577350    -0.577350     0.577350     0.000000     0.000000     0.000000
   29     1.000000   180.000000     1.000000     0.000000     0.000000     0.000000     0.000000     0.000000
   30    -1.000000   180.000000     1.000000     0.000000     0.000000     0.000000     0.000000     0.000000
   31     1.000000    90.000000     0.000000    -1.000000     0.000000     0.000000     0.000000     0.000000
   32    -1.000000    90.000000     0.000000    -1.000000     0.000000     0.000000     0.000000     0.000000
   33     1.000000   180.000000     0.707107     0.707107     0.000000     0.000000     0.000000     0.000000
   34    -1.000000   180.000000     0.707107     0.707107     0.000000     0.000000     0.000000     0.000000
   35     1.000000    90.000000     1.000000     0.000000     0.000000     0.000000     0.000000     0.000000
   36    -1.000000    90.000000     1.000000     0.000000     0.000000     0.000000     0.000000     0.000000
   37     1.000000   120.000000     0.577350    -0.577350    -0.577350     0.000000     0.000000     0.000000
   38    -1.000000   120.000000     0.577350    -0.577350    -0.577350     0.000000     0.000000     0.000000
   39     1.000000   180.000000     0.000000     1.000000     0.000000     0.000000     0.000000     0.000000
   40    -1.000000   180.000000     0.000000     1.000000     0.000000     0.000000     0.000000     0.000000
   41     1.000000   120.000000     0.577350     0.577350    -0.577350     0.000000     0.000000     0.000000
   42    -1.000000   120.000000     0.577350     0.577350    -0.577350     0.000000     0.000000     0.000000
   43     1.000000   180.000000     0.000000    -0.707107     0.707107     0.000000     0.000000     0.000000
   44    -1.000000   180.000000     0.000000    -0.707107     0.707107     0.000000     0.000000     0.000000
   45     1.000000   180.000000     0.707107    -0.707107     0.000000     0.000000     0.000000     0.000000
   46    -1.000000   180.000000     0.707107    -0.707107     0.000000     0.000000     0.000000     0.000000
   47     1.000000   180.000000     0.707107     0.000000    -0.707107     0.000000     0.000000     0.000000
   48    -1.000000   180.000000     0.707107     0.000000    -0.707107     0.000000     0.000000     0.000000
 
 Subroutine IBZKPT returns following result:
 ===========================================
 
 Found     10 irreducible k-points:
 
 Following reciprocal coordinates:
            Coordinates               Weight
  0.083333  0.083333  0.083333      8.000000
  0.250000  0.083333  0.083333     24.000000
  0.416667  0.083333  0.083333     24.000000
  0.250000  0.250000  0.083333     24.000000
  0.416667  0.250000  0.083333     48.000000
  0.416667  0.416667  0.083333     24.000000
  0.250000  0.250000  0.250000      8.000000
  0.416667  0.250000  0.250000     24.000000
  0.416667  0.416667  0.250000     24.000000
  0.416667  0.416667  0.416667      8.000000
 
 Following cartesian coordinates:
            Coordinates               Weight
  0.021009  0.021009  0.021009      8.000000
  0.063026  0.021009  0.021009     24.000000
  0.105044  0.021009  0.021009     24.000000
  0.063026  0.063026  0.021009     24.000000
  0.105044  0.063026  0.021009     48.000000
  0.105044  0.105044  0.021009     24.000000
  0.063026  0.063026  0.063026      8.000000
  0.105044  0.063026  0.063026     24.000000
  0.105044  0.105044  0.063026     24.000000
  0.105044  0.105044  0.105044      8.000000
 
 writing wavefunctions
     LOOP+:  cpu time   35.0655: real time   35.3530
    4ORBIT:  cpu time    0.0000: real time    0.0000

 total amount of memory used by VASP MPI-rank0    33784. kBytes
=======================================================================

   base      :      30000. kBytes
   nonl-proj :       2598. kBytes
   fftplans  :        153. kBytes
   grid      :        675. kBytes
   one-center:         62. kBytes
   wavefun   :        296. kBytes
 
  
  
 General timing and accounting informations for this job:
 ========================================================
  
                  Total CPU time used (sec):     1110.207
                            User time (sec):      644.505
                          System time (sec):      465.702
                         Elapsed time (sec):     1119.363
  
                   Maximum memory used (kb):      474160.
                   Average memory used (kb):           0.
  
                          Minor page faults:       270463
                          Major page faults:          104
                 Voluntary context switches:         3476
