   2   2   1   0
  0.4734343E+02  0.4045188E-09  0.4045187E-09  0.6681620E-09  0.5000000E-15
  1.000000000000000E-004
  CAR 
 unknown system                          
      8.95014724    -36.25774255  301      2.12971181      1.00000000
    -36.258  0.0000E+00  0.0000E+00  0.0000E+00  0.0000E+00
    -36.107  0.0000E+00  0.0000E+00  0.0000E+00  0.0000E+00
    -35.956  0.0000E+00  0.0000E+00  0.0000E+00  0.0000E+00
    -35.806  0.0000E+00  0.0000E+00  0.0000E+00  0.0000E+00
    -35.655  0.0000E+00  0.0000E+00  0.0000E+00  0.0000E+00
    -35.504  0.0000E+00  0.0000E+00  0.0000E+00  0.0000E+00
    -35.354  0.0000E+00  0.0000E+00  0.0000E+00  0.0000E+00
    -35.203  0.0000E+00  0.0000E+00  0.0000E+00  0.0000E+00
    -35.052  0.0000E+00  0.0000E+00  0.0000E+00  0.0000E+00
    -34.902  0.0000E+00  0.0000E+00  0.0000E+00  0.0000E+00
    -34.751  0.1538E-05  0.0000E+00  0.2317E-06  0.0000E+00
    -34.600  0.2715E-02  0.2564E-02  0.4094E-03  0.3864E-03
    -34.449  0.5239E-01  0.4945E-01  0.8304E-02  0.7838E-02
    -34.299  0.9814E+00  0.9306E+00  0.1562E+00  0.1481E+00
    -34.148  0.7318E+01  0.7193E+01  0.1259E+01  0.1232E+01
    -33.997  0.4542E+01  0.4699E+01  0.1943E+01  0.1940E+01
    -33.847  0.3567E+00  0.3773E+00  0.1997E+01  0.1997E+01
    -33.696  0.0000E+00  0.0000E+00  0.2000E+01  0.2000E+01
    -33.545  0.0000E+00  0.0000E+00  0.2000E+01  0.2000E+01
    -33.395  0.0000E+00  0.0000E+00  0.2000E+01  0.2000E+01
    -33.244  0.0000E+00  0.0000E+00  0.2000E+01  0.2000E+01
    -33.093  0.0000E+00  0.0000E+00  0.2000E+01  0.2000E+01
    -32.942  0.0000E+00  0.0000E+00  0.2000E+01  0.2000E+01
    -32.792  0.0000E+00  0.0000E+00  0.2000E+01  0.2000E+01
    -32.641  0.0000E+00  0.0000E+00  0.2000E+01  0.2000E+01
    -32.490  0.0000E+00  0.0000E+00  0.2000E+01  0.2000E+01
    -32.340  0.0000E+00  0.0000E+00  0.2000E+01  0.2000E+01
    -32.189  0.0000E+00  0.0000E+00  0.2000E+01  0.2000E+01
    -32.038  0.0000E+00  0.0000E+00  0.2000E+01  0.2000E+01
    -31.888  0.0000E+00  0.0000E+00  0.2000E+01  0.2000E+01
    -31.737  0.0000E+00  0.0000E+00  0.2000E+01  0.2000E+01
    -31.586  0.0000E+00  0.0000E+00  0.2000E+01  0.2000E+01
    -31.436  0.0000E+00  0.0000E+00  0.2000E+01  0.2000E+01
    -31.285  0.0000E+00  0.0000E+00  0.2000E+01  0.2000E+01
    -31.134  0.0000E+00  0.0000E+00  0.2000E+01  0.2000E+01
    -30.983  0.0000E+00  0.0000E+00  0.2000E+01  0.2000E+01
    -30.833  0.0000E+00  0.0000E+00  0.2000E+01  0.2000E+01
    -30.682  0.0000E+00  0.0000E+00  0.2000E+01  0.2000E+01
    -30.531  0.0000E+00  0.0000E+00  0.2000E+01  0.2000E+01
    -30.381  0.0000E+00  0.0000E+00  0.2000E+01  0.2000E+01
    -30.230  0.0000E+00  0.0000E+00  0.2000E+01  0.2000E+01
    -30.079  0.0000E+00  0.0000E+00  0.2000E+01  0.2000E+01
    -29.929  0.0000E+00  0.0000E+00  0.2000E+01  0.2000E+01
    -29.778  0.0000E+00  0.0000E+00  0.2000E+01  0.2000E+01
    -29.627  0.0000E+00  0.0000E+00  0.2000E+01  0.2000E+01
    -29.477  0.0000E+00  0.0000E+00  0.2000E+01  0.2000E+01
    -29.326  0.0000E+00  0.0000E+00  0.2000E+01  0.2000E+01
    -29.175  0.0000E+00  0.0000E+00  0.2000E+01  0.2000E+01
    -29.024  0.0000E+00  0.0000E+00  0.2000E+01  0.2000E+01
    -28.874  0.0000E+00  0.0000E+00  0.2000E+01  0.2000E+01
    -28.723  0.0000E+00  0.0000E+00  0.2000E+01  0.2000E+01
    -28.572  0.0000E+00  0.0000E+00  0.2000E+01  0.2000E+01
    -28.422  0.0000E+00  0.0000E+00  0.2000E+01  0.2000E+01
    -28.271  0.0000E+00  0.0000E+00  0.2000E+01  0.2000E+01
    -28.120  0.0000E+00  0.0000E+00  0.2000E+01  0.2000E+01
    -27.970  0.0000E+00  0.0000E+00  0.2000E+01  0.2000E+01
    -27.819  0.0000E+00  0.0000E+00  0.2000E+01  0.2000E+01
    -27.668  0.0000E+00  0.0000E+00  0.2000E+01  0.2000E+01
    -27.518  0.0000E+00  0.0000E+00  0.2000E+01  0.2000E+01
    -27.367  0.0000E+00  0.0000E+00  0.2000E+01  0.2000E+01
    -27.216  0.0000E+00  0.0000E+00  0.2000E+01  0.2000E+01
    -27.065  0.0000E+00  0.0000E+00  0.2000E+01  0.2000E+01
    -26.915  0.0000E+00  0.0000E+00  0.2000E+01  0.2000E+01
    -26.764  0.0000E+00  0.0000E+00  0.2000E+01  0.2000E+01
    -26.613  0.0000E+00  0.0000E+00  0.2000E+01  0.2000E+01
    -26.463  0.0000E+00  0.0000E+00  0.2000E+01  0.2000E+01
    -26.312  0.0000E+00  0.0000E+00  0.2000E+01  0.2000E+01
    -26.161  0.0000E+00  0.0000E+00  0.2000E+01  0.2000E+01
    -26.011  0.0000E+00  0.0000E+00  0.2000E+01  0.2000E+01
    -25.860  0.0000E+00  0.0000E+00  0.2000E+01  0.2000E+01
    -25.709  0.0000E+00  0.0000E+00  0.2000E+01  0.2000E+01
    -25.559  0.0000E+00  0.0000E+00  0.2000E+01  0.2000E+01
    -25.408  0.0000E+00  0.0000E+00  0.2000E+01  0.2000E+01
    -25.257  0.0000E+00  0.0000E+00  0.2000E+01  0.2000E+01
    -25.106  0.0000E+00  0.0000E+00  0.2000E+01  0.2000E+01
    -24.956  0.0000E+00  0.0000E+00  0.2000E+01  0.2000E+01
    -24.805  0.0000E+00  0.0000E+00  0.2000E+01  0.2000E+01
    -24.654  0.0000E+00  0.0000E+00  0.2000E+01  0.2000E+01
    -24.504  0.0000E+00  0.0000E+00  0.2000E+01  0.2000E+01
    -24.353  0.0000E+00  0.0000E+00  0.2000E+01  0.2000E+01
    -24.202  0.0000E+00  0.0000E+00  0.2000E+01  0.2000E+01
    -24.052  0.0000E+00  0.0000E+00  0.2000E+01  0.2000E+01
    -23.901  0.0000E+00  0.0000E+00  0.2000E+01  0.2000E+01
    -23.750  0.0000E+00  0.0000E+00  0.2000E+01  0.2000E+01
    -23.600  0.0000E+00  0.0000E+00  0.2000E+01  0.2000E+01
    -23.449  0.0000E+00  0.0000E+00  0.2000E+01  0.2000E+01
    -23.298  0.0000E+00  0.0000E+00  0.2000E+01  0.2000E+01
    -23.147  0.0000E+00  0.0000E+00  0.2000E+01  0.2000E+01
    -22.997  0.0000E+00  0.0000E+00  0.2000E+01  0.2000E+01
    -22.846  0.0000E+00  0.0000E+00  0.2000E+01  0.2000E+01
    -22.695  0.0000E+00  0.0000E+00  0.2000E+01  0.2000E+01
    -22.545  0.0000E+00  0.0000E+00  0.2000E+01  0.2000E+01
    -22.394  0.0000E+00  0.0000E+00  0.2000E+01  0.2000E+01
    -22.243  0.0000E+00  0.0000E+00  0.2000E+01  0.2000E+01
    -22.093  0.0000E+00  0.0000E+00  0.2000E+01  0.2000E+01
    -21.942  0.0000E+00  0.0000E+00  0.2000E+01  0.2000E+01
    -21.791  0.0000E+00  0.0000E+00  0.2000E+01  0.2000E+01
    -21.641  0.0000E+00  0.0000E+00  0.2000E+01  0.2000E+01
    -21.490  0.0000E+00  0.0000E+00  0.2000E+01  0.2000E+01
    -21.339  0.0000E+00  0.0000E+00  0.2000E+01  0.2000E+01
    -21.188  0.0000E+00  0.0000E+00  0.2000E+01  0.2000E+01
    -21.038  0.0000E+00  0.0000E+00  0.2000E+01  0.2000E+01
    -20.887  0.0000E+00  0.0000E+00  0.2000E+01  0.2000E+01
    -20.736  0.0000E+00  0.0000E+00  0.2000E+01  0.2000E+01
    -20.586  0.0000E+00  0.0000E+00  0.2000E+01  0.2000E+01
    -20.435  0.0000E+00  0.0000E+00  0.2000E+01  0.2000E+01
    -20.284  0.0000E+00  0.0000E+00  0.2000E+01  0.2000E+01
    -20.134  0.0000E+00  0.0000E+00  0.2000E+01  0.2000E+01
    -19.983  0.0000E+00  0.0000E+00  0.2000E+01  0.2000E+01
    -19.832  0.0000E+00  0.0000E+00  0.2000E+01  0.2000E+01
    -19.682  0.0000E+00  0.0000E+00  0.2000E+01  0.2000E+01
    -19.531  0.0000E+00  0.0000E+00  0.2000E+01  0.2000E+01
    -19.380  0.0000E+00  0.0000E+00  0.2000E+01  0.2000E+01
    -19.229  0.0000E+00  0.0000E+00  0.2000E+01  0.2000E+01
    -19.079  0.0000E+00  0.0000E+00  0.2000E+01  0.2000E+01
    -18.928  0.0000E+00  0.0000E+00  0.2000E+01  0.2000E+01
    -18.777  0.0000E+00  0.0000E+00  0.2000E+01  0.2000E+01
    -18.627  0.0000E+00  0.0000E+00  0.2000E+01  0.2000E+01
    -18.476  0.0000E+00  0.0000E+00  0.2000E+01  0.2000E+01
    -18.325  0.0000E+00  0.0000E+00  0.2000E+01  0.2000E+01
    -18.175  0.0000E+00  0.0000E+00  0.2000E+01  0.2000E+01
    -18.024  0.0000E+00  0.0000E+00  0.2000E+01  0.2000E+01
    -17.873  0.0000E+00  0.0000E+00  0.2000E+01  0.2000E+01
    -17.723  0.0000E+00  0.0000E+00  0.2000E+01  0.2000E+01
    -17.572  0.0000E+00  0.0000E+00  0.2000E+01  0.2000E+01
    -17.421  0.0000E+00  0.0000E+00  0.2000E+01  0.2000E+01
    -17.270  0.0000E+00  0.0000E+00  0.2000E+01  0.2000E+01
    -17.120  0.0000E+00  0.0000E+00  0.2000E+01  0.2000E+01
    -16.969  0.0000E+00  0.0000E+00  0.2000E+01  0.2000E+01
    -16.818  0.5508E-03  0.5113E-03  0.2000E+01  0.2000E+01
    -16.668  0.1204E-01  0.1127E-01  0.2002E+01  0.2002E+01
    -16.517  0.2402E+00  0.2255E+00  0.2038E+01  0.2036E+01
    -16.366  0.3404E+01  0.3248E+01  0.2551E+01  0.2525E+01
    -16.216  0.1276E+02  0.1255E+02  0.4474E+01  0.4417E+01
    -16.065  0.1740E+02  0.1748E+02  0.7096E+01  0.7050E+01
    -15.914  0.5561E+01  0.5836E+01  0.7938E+01  0.7933E+01
    -15.763  0.3600E+00  0.3873E+00  0.7997E+01  0.7997E+01
    -15.613  0.0000E+00  0.0000E+00  0.8000E+01  0.8000E+01
    -15.462  0.0000E+00  0.0000E+00  0.8000E+01  0.8000E+01
    -15.311  0.0000E+00  0.0000E+00  0.8000E+01  0.8000E+01
    -15.161  0.0000E+00  0.0000E+00  0.8000E+01  0.8000E+01
    -15.010  0.0000E+00  0.0000E+00  0.8000E+01  0.8000E+01
    -14.859  0.0000E+00  0.0000E+00  0.8000E+01  0.8000E+01
    -14.709  0.0000E+00  0.0000E+00  0.8000E+01  0.8000E+01
    -14.558  0.0000E+00  0.0000E+00  0.8000E+01  0.8000E+01
    -14.407  0.0000E+00  0.0000E+00  0.8000E+01  0.8000E+01
    -14.257  0.0000E+00  0.0000E+00  0.8000E+01  0.8000E+01
    -14.106  0.0000E+00  0.0000E+00  0.8000E+01  0.8000E+01
    -13.955  0.0000E+00  0.0000E+00  0.8000E+01  0.8000E+01
    -13.804  0.0000E+00  0.0000E+00  0.8000E+01  0.8000E+01
    -13.654  0.0000E+00  0.0000E+00  0.8000E+01  0.8000E+01
    -13.503  0.0000E+00  0.0000E+00  0.8000E+01  0.8000E+01
    -13.352  0.0000E+00  0.0000E+00  0.8000E+01  0.8000E+01
    -13.202  0.0000E+00  0.0000E+00  0.8000E+01  0.8000E+01
    -13.051  0.0000E+00  0.0000E+00  0.8000E+01  0.8000E+01
    -12.900  0.0000E+00  0.0000E+00  0.8000E+01  0.8000E+01
    -12.750  0.0000E+00  0.0000E+00  0.8000E+01  0.8000E+01
    -12.599  0.0000E+00  0.0000E+00  0.8000E+01  0.8000E+01
    -12.448  0.0000E+00  0.0000E+00  0.8000E+01  0.8000E+01
    -12.298  0.0000E+00  0.0000E+00  0.8000E+01  0.8000E+01
    -12.147  0.0000E+00  0.0000E+00  0.8000E+01  0.8000E+01
    -11.996  0.0000E+00  0.0000E+00  0.8000E+01  0.8000E+01
    -11.845  0.0000E+00  0.0000E+00  0.8000E+01  0.8000E+01
    -11.695  0.0000E+00  0.0000E+00  0.8000E+01  0.8000E+01
    -11.544  0.0000E+00  0.0000E+00  0.8000E+01  0.8000E+01
    -11.393  0.0000E+00  0.0000E+00  0.8000E+01  0.8000E+01
    -11.243  0.0000E+00  0.0000E+00  0.8000E+01  0.8000E+01
    -11.092  0.0000E+00  0.0000E+00  0.8000E+01  0.8000E+01
    -10.941  0.0000E+00  0.0000E+00  0.8000E+01  0.8000E+01
    -10.791  0.0000E+00  0.0000E+00  0.8000E+01  0.8000E+01
    -10.640  0.0000E+00  0.0000E+00  0.8000E+01  0.8000E+01
    -10.489  0.0000E+00  0.0000E+00  0.8000E+01  0.8000E+01
    -10.339  0.0000E+00  0.0000E+00  0.8000E+01  0.8000E+01
    -10.188  0.0000E+00  0.0000E+00  0.8000E+01  0.8000E+01
    -10.037  0.0000E+00  0.0000E+00  0.8000E+01  0.8000E+01
     -9.886  0.0000E+00  0.0000E+00  0.8000E+01  0.8000E+01
     -9.736  0.0000E+00  0.0000E+00  0.8000E+01  0.8000E+01
     -9.585  0.0000E+00  0.0000E+00  0.8000E+01  0.8000E+01
     -9.434  0.0000E+00  0.0000E+00  0.8000E+01  0.8000E+01
     -9.284  0.0000E+00  0.0000E+00  0.8000E+01  0.8000E+01
     -9.133  0.0000E+00  0.0000E+00  0.8000E+01  0.8000E+01
     -8.982  0.0000E+00  0.0000E+00  0.8000E+01  0.8000E+01
     -8.832  0.0000E+00  0.0000E+00  0.8000E+01  0.8000E+01
     -8.681  0.0000E+00  0.0000E+00  0.8000E+01  0.8000E+01
     -8.530  0.0000E+00  0.0000E+00  0.8000E+01  0.8000E+01
     -8.380  0.0000E+00  0.0000E+00  0.8000E+01  0.8000E+01
     -8.229  0.0000E+00  0.0000E+00  0.8000E+01  0.8000E+01
     -8.078  0.0000E+00  0.0000E+00  0.8000E+01  0.8000E+01
     -7.927  0.0000E+00  0.0000E+00  0.8000E+01  0.8000E+01
     -7.777  0.0000E+00  0.0000E+00  0.8000E+01  0.8000E+01
     -7.626  0.0000E+00  0.0000E+00  0.8000E+01  0.8000E+01
     -7.475  0.0000E+00  0.0000E+00  0.8000E+01  0.8000E+01
     -7.325  0.0000E+00  0.0000E+00  0.8000E+01  0.8000E+01
     -7.174  0.0000E+00  0.0000E+00  0.8000E+01  0.8000E+01
     -7.023  0.0000E+00  0.0000E+00  0.8000E+01  0.8000E+01
     -6.873  0.0000E+00  0.0000E+00  0.8000E+01  0.8000E+01
     -6.722  0.0000E+00  0.0000E+00  0.8000E+01  0.8000E+01
     -6.571  0.0000E+00  0.0000E+00  0.8000E+01  0.8000E+01
     -6.421  0.0000E+00  0.0000E+00  0.8000E+01  0.8000E+01
     -6.270  0.0000E+00  0.0000E+00  0.8000E+01  0.8000E+01
     -6.119  0.0000E+00  0.0000E+00  0.8000E+01  0.8000E+01
     -5.968  0.0000E+00  0.0000E+00  0.8000E+01  0.8000E+01
     -5.818  0.0000E+00  0.0000E+00  0.8000E+01  0.8000E+01
     -5.667  0.0000E+00  0.0000E+00  0.8000E+01  0.8000E+01
     -5.516  0.0000E+00  0.0000E+00  0.8000E+01  0.8000E+01
     -5.366  0.0000E+00  0.0000E+00  0.8000E+01  0.8000E+01
     -5.215  0.0000E+00  0.0000E+00  0.8000E+01  0.8000E+01
     -5.064  0.0000E+00  0.0000E+00  0.8000E+01  0.8000E+01
     -4.914  0.0000E+00  0.0000E+00  0.8000E+01  0.8000E+01
     -4.763  0.0000E+00  0.0000E+00  0.8000E+01  0.8000E+01
     -4.612  0.0000E+00  0.0000E+00  0.8000E+01  0.8000E+01
     -4.462  0.0000E+00  0.0000E+00  0.8000E+01  0.8000E+01
     -4.311  0.0000E+00  0.0000E+00  0.8000E+01  0.8000E+01
     -4.160  0.0000E+00  0.0000E+00  0.8000E+01  0.8000E+01
     -4.009  0.0000E+00  0.0000E+00  0.8000E+01  0.8000E+01
     -3.859  0.0000E+00  0.0000E+00  0.8000E+01  0.8000E+01
     -3.708  0.0000E+00  0.0000E+00  0.8000E+01  0.8000E+01
     -3.557  0.0000E+00  0.0000E+00  0.8000E+01  0.8000E+01
     -3.407  0.0000E+00  0.0000E+00  0.8000E+01  0.8000E+01
     -3.256  0.0000E+00  0.0000E+00  0.8000E+01  0.8000E+01
     -3.105  0.0000E+00  0.0000E+00  0.8000E+01  0.8000E+01
     -2.955  0.0000E+00  0.0000E+00  0.8000E+01  0.8000E+01
     -2.804  0.0000E+00  0.0000E+00  0.8000E+01  0.8000E+01
     -2.653  0.0000E+00  0.0000E+00  0.8000E+01  0.8000E+01
     -2.503  0.0000E+00  0.0000E+00  0.8000E+01  0.8000E+01
     -2.352  0.0000E+00  0.0000E+00  0.8000E+01  0.8000E+01
     -2.201  0.8484E-06  0.5731E-06  0.8000E+01  0.8000E+01
     -2.050  0.3091E-04  0.2086E-04  0.8000E+01  0.8000E+01
     -1.900  0.6127E-03  0.4159E-03  0.8000E+01  0.8000E+01
     -1.749  0.9364E-02  0.6833E-02  0.8002E+01  0.8001E+01
     -1.598  0.5193E-01  0.4506E-01  0.8009E+01  0.8008E+01
     -1.448  0.9121E-01  0.8533E-01  0.8023E+01  0.8021E+01
     -1.297  0.1380E+00  0.1356E+00  0.8044E+01  0.8041E+01
     -1.146  0.1479E+00  0.1441E+00  0.8066E+01  0.8063E+01
     -0.996  0.1904E+00  0.1851E+00  0.8095E+01  0.8091E+01
     -0.845  0.2323E+00  0.2282E+00  0.8130E+01  0.8125E+01
     -0.694  0.1948E+00  0.1994E+00  0.8159E+01  0.8155E+01
     -0.544  0.2928E+00  0.2760E+00  0.8204E+01  0.8197E+01
     -0.393  0.3060E+00  0.3115E+00  0.8250E+01  0.8244E+01
     -0.242  0.3037E+00  0.3013E+00  0.8296E+01  0.8290E+01
     -0.091  0.3383E+00  0.3349E+00  0.8347E+01  0.8340E+01
      0.059  0.3880E+00  0.3687E+00  0.8405E+01  0.8396E+01
      0.210  0.4894E+00  0.4971E+00  0.8479E+01  0.8471E+01
      0.361  0.4079E+00  0.4124E+00  0.8541E+01  0.8533E+01
      0.511  0.4570E+00  0.4358E+00  0.8610E+01  0.8599E+01
      0.662  0.6754E+00  0.6632E+00  0.8712E+01  0.8699E+01
      0.813  0.6456E+00  0.6517E+00  0.8809E+01  0.8798E+01
      0.963  0.7452E+00  0.7349E+00  0.8922E+01  0.8908E+01
      1.114  0.8412E+00  0.8310E+00  0.9049E+01  0.9034E+01
      1.265  0.1021E+01  0.9776E+00  0.9203E+01  0.9181E+01
      1.415  0.9030E+00  0.9379E+00  0.9339E+01  0.9323E+01
      1.566  0.8262E+00  0.7930E+00  0.9464E+01  0.9443E+01
      1.717  0.9902E+00  0.9858E+00  0.9613E+01  0.9592E+01
      1.868  0.9614E+00  0.9333E+00  0.9758E+01  0.9733E+01
      2.018  0.9161E+00  0.9253E+00  0.9897E+01  0.9872E+01
      2.169  0.1159E+01  0.1062E+01  0.1007E+02  0.1003E+02
      2.320  0.1660E+01  0.1685E+01  0.1032E+02  0.1029E+02
      2.470  0.2360E+01  0.2478E+01  0.1068E+02  0.1066E+02
      2.621  0.2691E+01  0.2731E+01  0.1108E+02  0.1107E+02
      2.772  0.2043E+01  0.2061E+01  0.1139E+02  0.1138E+02
      2.922  0.1251E+01  0.1248E+01  0.1158E+02  0.1157E+02
      3.073  0.9292E+00  0.9209E+00  0.1172E+02  0.1171E+02
      3.224  0.1026E+01  0.9972E+00  0.1188E+02  0.1186E+02
      3.375  0.1095E+01  0.1044E+01  0.1204E+02  0.1202E+02
      3.525  0.1798E+01  0.1708E+01  0.1231E+02  0.1228E+02
      3.676  0.2194E+01  0.2217E+01  0.1265E+02  0.1261E+02
      3.827  0.2079E+01  0.2123E+01  0.1296E+02  0.1293E+02
      3.977  0.2358E+01  0.2406E+01  0.1332E+02  0.1330E+02
      4.128  0.1857E+01  0.1897E+01  0.1360E+02  0.1358E+02
      4.279  0.1427E+01  0.1431E+01  0.1381E+02  0.1380E+02
      4.429  0.1289E+01  0.1257E+01  0.1401E+02  0.1399E+02
      4.580  0.1399E+01  0.1380E+01  0.1422E+02  0.1420E+02
      4.731  0.1478E+01  0.1473E+01  0.1444E+02  0.1442E+02
      4.881  0.1530E+01  0.1506E+01  0.1467E+02  0.1465E+02
      5.032  0.1575E+01  0.1602E+01  0.1491E+02  0.1489E+02
      5.183  0.1182E+01  0.1221E+01  0.1509E+02  0.1507E+02
      5.334  0.1071E+01  0.1078E+01  0.1525E+02  0.1524E+02
      5.484  0.8630E+00  0.8867E+00  0.1538E+02  0.1537E+02
      5.635  0.6971E+00  0.7064E+00  0.1549E+02  0.1548E+02
      5.786  0.6551E+00  0.6569E+00  0.1559E+02  0.1558E+02
      5.936  0.5724E+00  0.5878E+00  0.1567E+02  0.1567E+02
      6.087  0.5350E+00  0.5444E+00  0.1575E+02  0.1575E+02
      6.238  0.3877E+00  0.3861E+00  0.1581E+02  0.1581E+02
      6.388  0.4772E+00  0.5209E+00  0.1588E+02  0.1589E+02
      6.539  0.3655E+00  0.4054E+00  0.1594E+02  0.1595E+02
      6.690  0.2121E+00  0.1668E+00  0.1597E+02  0.1597E+02
      6.840  0.9938E-01  0.9690E-01  0.1599E+02  0.1599E+02
      6.991  0.8348E-01  0.7445E-01  0.1600E+02  0.1600E+02
      7.142  0.1045E-01  0.8274E-02  0.1600E+02  0.1600E+02
      7.293  0.1782E-03  0.0000E+00  0.1600E+02  0.1600E+02
      7.443  0.0000E+00  0.0000E+00  0.1600E+02  0.1600E+02
      7.594  0.0000E+00  0.0000E+00  0.1600E+02  0.1600E+02
      7.745  0.0000E+00  0.0000E+00  0.1600E+02  0.1600E+02
      7.895  0.0000E+00  0.0000E+00  0.1600E+02  0.1600E+02
      8.046  0.0000E+00  0.0000E+00  0.1600E+02  0.1600E+02
      8.197  0.0000E+00  0.0000E+00  0.1600E+02  0.1600E+02
      8.347  0.0000E+00  0.0000E+00  0.1600E+02  0.1600E+02
      8.498  0.0000E+00  0.0000E+00  0.1600E+02  0.1600E+02
      8.649  0.0000E+00  0.0000E+00  0.1600E+02  0.1600E+02
      8.799  0.0000E+00  0.0000E+00  0.1600E+02  0.1600E+02
      8.950  0.0000E+00  0.0000E+00  0.1600E+02  0.1600E+02
      8.95014724    -36.25774255  301      2.12971181      1.00000000
    -36.258  0.0000E+00  0.0000E+00  0.0000E+00  0.0000E+00  0.0000E+00  0.0000E+00  0.0000E+00  0.0000E+00  0.0000E+00  0.0000E+00  0.0000E+00  0.0000E+00  0.0000E+00  0.0000E+00  0.0000E+00  0.0000E+00  0.0000E+00  0.0000E+00
    -36.107  0.0000E+00  0.0000E+00  0.0000E+00  0.0000E+00  0.0000E+00  0.0000E+00  0.0000E+00  0.0000E+00  0.0000E+00  0.0000E+00  0.0000E+00  0.0000E+00  0.0000E+00  0.0000E+00  0.0000E+00  0.0000E+00  0.0000E+00  0.0000E+00
    -35.956  0.0000E+00  0.0000E+00  0.0000E+00  0.0000E+00  0.0000E+00  0.0000E+00  0.0000E+00  0.0000E+00  0.0000E+00  0.0000E+00  0.0000E+00  0.0000E+00  0.0000E+00  0.0000E+00  0.0000E+00  0.0000E+00  0.0000E+00  0.0000E+00
    -35.806  0.0000E+00  0.0000E+00  0.0000E+00  0.0000E+00  0.0000E+00  0.0000E+00  0.0000E+00  0.0000E+00  0.0000E+00  0.0000E+00  0.0000E+00  0.0000E+00  0.0000E+00  0.0000E+00  0.0000E+00  0.0000E+00  0.0000E+00  0.0000E+00
    -35.655  0.0000E+00  0.0000E+00  0.0000E+00  0.0000E+00  0.0000E+00  0.0000E+00  0.0000E+00  0.0000E+00  0.0000E+00  0.0000E+00  0.0000E+00  0.0000E+00  0.0000E+00  0.0000E+00  0.0000E+00  0.0000E+00  0.0000E+00  0.0000E+00
    -35.504  0.0000E+00  0.0000E+00  0.0000E+00  0.0000E+00  0.0000E+00  0.0000E+00  0.0000E+00  0.0000E+00  0.0000E+00  0.0000E+00  0.0000E+00  0.0000E+00  0.0000E+00  0.0000E+00  0.0000E+00  0.0000E+00  0.0000E+00  0.0000E+00
    -35.354  0.0000E+00  0.0000E+00  0.0000E+00  0.0000E+00  0.0000E+00  0.0000E+00  0.0000E+00  0.0000E+00  0.0000E+00  0.0000E+00  0.0000E+00  0.0000E+00  0.0000E+00  0.0000E+00  0.0000E+00  0.0000E+00  0.0000E+00  0.0000E+00
    -35.203  0.0000E+00  0.0000E+00  0.0000E+00  0.0000E+00  0.0000E+00  0.0000E+00  0.0000E+00  0.0000E+00  0.0000E+00  0.0000E+00  0.0000E+00  0.0000E+00  0.0000E+00  0.0000E+00  0.0000E+00  0.0000E+00  0.0000E+00  0.0000E+00
    -35.052  0.0000E+00  0.0000E+00  0.0000E+00  0.0000E+00  0.0000E+00  0.0000E+00  0.0000E+00  0.0000E+00  0.0000E+00  0.0000E+00  0.0000E+00  0.0000E+00  0.0000E+00  0.0000E+00  0.0000E+00  0.0000E+00  0.0000E+00  0.0000E+00
    -34.902  0.0000E+00  0.0000E+00  0.0000E+00  0.0000E+00  0.0000E+00  0.0000E+00  0.0000E+00  0.0000E+00  0.0000E+00  0.0000E+00  0.0000E+00  0.0000E+00  0.0000E+00  0.0000E+00  0.0000E+00  0.0000E+00  0.0000E+00  0.0000E+00
    -34.751  0.7513E-06  0.0000E+00  0.1108E-12  0.0000E+00  0.8810E-13  0.0000E+00  0.1108E-12  0.0000E+00  0.1146E-14  0.0000E+00  0.4091E-15  0.0000E+00  0.2446E-13  0.0000E+00  0.4091E-15  0.0000E+00  0.1146E-14  0.0000E+00
    -34.600  0.1329E-02  0.1255E-02  0.4435E-09  0.4187E-09  0.3860E-09  0.3627E-09  0.4435E-09  0.4187E-09  0.1037E-09  0.9801E-10  0.6709E-10  0.6267E-10  0.1505E-09  0.1670E-09  0.6709E-10  0.6267E-10  0.1037E-09  0.9801E-10
    -34.449  0.2565E-01  0.2421E-01  0.8550E-08  0.8073E-08  0.7441E-08  0.6992E-08  0.8550E-08  0.8073E-08  0.1999E-08  0.1891E-08  0.1294E-08  0.1209E-08  0.2903E-08  0.3221E-08  0.1294E-08  0.1209E-08  0.1999E-08  0.1891E-08
    -34.299  0.4805E+00  0.4556E+00  0.1590E-06  0.1509E-06  0.1383E-06  0.1306E-06  0.1590E-06  0.1509E-06  0.3759E-07  0.3571E-07  0.2438E-07  0.2288E-07  0.5438E-07  0.6061E-07  0.2438E-07  0.2288E-07  0.3759E-07  0.3571E-07
    -34.148  0.3583E+01  0.3522E+01  0.1120E-05  0.1103E-05  0.9701E-06  0.9507E-06  0.1120E-05  0.1103E-05  0.2867E-06  0.2821E-06  0.1888E-06  0.1836E-06  0.4037E-06  0.4653E-06  0.1888E-06  0.1836E-06  0.2867E-06  0.2821E-06
    -33.997  0.2224E+01  0.2301E+01  0.6407E-06  0.6643E-06  0.5513E-06  0.5686E-06  0.6407E-06  0.6643E-06  0.1814E-06  0.1880E-06  0.1221E-06  0.1250E-06  0.2463E-06  0.2984E-06  0.1221E-06  0.1250E-06  0.1814E-06  0.1880E-06
    -33.847  0.1747E+00  0.1848E+00  0.4867E-07  0.5153E-07  0.4178E-07  0.4399E-07  0.4867E-07  0.5153E-07  0.1431E-07  0.1516E-07  0.9711E-08  0.1017E-07  0.1914E-07  0.2371E-07  0.9711E-08  0.1017E-07  0.1431E-07  0.1516E-07
    -33.696  0.0000E+00  0.0000E+00  0.0000E+00  0.0000E+00  0.0000E+00  0.0000E+00  0.0000E+00  0.0000E+00  0.0000E+00  0.0000E+00  0.0000E+00  0.0000E+00  0.0000E+00  0.0000E+00  0.0000E+00  0.0000E+00  0.0000E+00  0.0000E+00
    -33.545  0.0000E+00  0.0000E+00  0.0000E+00  0.0000E+00  0.0000E+00  0.0000E+00  0.0000E+00  0.0000E+00  0.0000E+00  0.0000E+00  0.0000E+00  0.0000E+00  0.0000E+00  0.0000E+00  0.0000E+00  0.0000E+00  0.0000E+00  0.0000E+00
    -33.395  0.0000E+00  0.0000E+00  0.0000E+00  0.0000E+00  0.0000E+00  0.0000E+00  0.0000E+00  0.0000E+00  0.0000E+00  0.0000E+00  0.0000E+00  0.0000E+00  0.0000E+00  0.0000E+00  0.0000E+00  0.0000E+00  0.0000E+00  0.0000E+00
    -33.244  0.0000E+00  0.0000E+00  0.0000E+00  0.0000E+00  0.0000E+00  0.0000E+00  0.0000E+00  0.0000E+00  0.0000E+00  0.0000E+00  0.0000E+00  0.0000E+00  0.0000E+00  0.0000E+00  0.0000E+00  0.0000E+00  0.0000E+00  0.0000E+00
    -33.093  0.0000E+00  0.0000E+00  0.0000E+00  0.0000E+00  0.0000E+00  0.0000E+00  0.0000E+00  0.0000E+00  0.0000E+00  0.0000E+00  0.0000E+00  0.0000E+00  0.0000E+00  0.0000E+00  0.0000E+00  0.0000E+00  0.0000E+00  0.0000E+00
    -32.942  0.0000E+00  0.0000E+00  0.0000E+00  0.0000E+00  0.0000E+00  0.0000E+00  0.0000E+00  0.0000E+00  0.0000E+00  0.0000E+00  0.0000E+00  0.0000E+00  0.0000E+00  0.0000E+00  0.0000E+00  0.0000E+00  0.0000E+00  0.0000E+00
    -32.792  0.0000E+00  0.0000E+00  0.0000E+00  0.0000E+00  0.0000E+00  0.0000E+00  0.0000E+00  0.0000E+00  0.0000E+00  0.0000E+00  0.0000E+00  0.0000E+00  0.0000E+00  0.0000E+00  0.0000E+00  0.0000E+00  0.0000E+00  0.0000E+00
    -32.641  0.0000E+00  0.0000E+00  0.0000E+00  0.0000E+00  0.0000E+00  0.0000E+00  0.0000E+00  0.0000E+00  0.0000E+00  0.0000E+00  0.0000E+00  0.0000E+00  0.0000E+00  0.0000E+00  0.0000E+00  0.0000E+00  0.0000E+00  0.0000E+00
    -32.490  0.0000E+00  0.0000E+00  0.0000E+00  0.0000E+00  0.0000E+00  0.0000E+00  0.0000E+00  0.0000E+00  0.0000E+00  0.0000E+00  0.0000E+00  0.0000E+00  0.0000E+00  0.0000E+00  0.0000E+00  0.0000E+00  0.0000E+00  0.0000E+00
    -32.340  0.0000E+00  0.0000E+00  0.0000E+00  0.0000E+00  0.0000E+00  0.0000E+00  0.0000E+00  0.0000E+00  0.0000E+00  0.0000E+00  0.0000E+00  0.0000E+00  0.0000E+00  0.0000E+00  0.0000E+00  0.0000E+00  0.0000E+00  0.0000E+00
    -32.189  0.0000E+00  0.0000E+00  0.0000E+00  0.0000E+00  0.0000E+00  0.0000E+00  0.0000E+00  0.0000E+00  0.0000E+00  0.0000E+00  0.0000E+00  0.0000E+00  0.0000E+00  0.0000E+00  0.0000E+00  0.0000E+00  0.0000E+00  0.0000E+00
    -32.038  0.0000E+00  0.0000E+00  0.0000E+00  0.0000E+00  0.0000E+00  0.0000E+00  0.0000E+00  0.0000E+00  0.0000E+00  0.0000E+00  0.0000E+00  0.0000E+00  0.0000E+00  0.0000E+00  0.0000E+00  0.0000E+00  0.0000E+00  0.0000E+00
    -31.888  0.0000E+00  0.0000E+00  0.0000E+00  0.0000E+00  0.0000E+00  0.0000E+00  0.0000E+00  0.0000E+00  0.0000E+00  0.0000E+00  0.0000E+00  0.0000E+00  0.0000E+00  0.0000E+00  0.0000E+00  0.0000E+00  0.0000E+00  0.0000E+00
    -31.737  0.0000E+00  0.0000E+00  0.0000E+00  0.0000E+00  0.0000E+00  0.0000E+00  0.0000E+00  0.0000E+00  0.0000E+00  0.0000E+00  0.0000E+00  0.0000E+00  0.0000E+00  0.0000E+00  0.0000E+00  0.0000E+00  0.0000E+00  0.0000E+00
    -31.586  0.0000E+00  0.0000E+00  0.0000E+00  0.0000E+00  0.0000E+00  0.0000E+00  0.0000E+00  0.0000E+00  0.0000E+00  0.0000E+00  0.0000E+00  0.0000E+00  0.0000E+00  0.0000E+00  0.0000E+00  0.0000E+00  0.0000E+00  0.0000E+00
    -31.436  0.0000E+00  0.0000E+00  0.0000E+00  0.0000E+00  0.0000E+00  0.0000E+00  0.0000E+00  0.0000E+00  0.0000E+00  0.0000E+00  0.0000E+00  0.0000E+00  0.0000E+00  0.0000E+00  0.0000E+00  0.0000E+00  0.0000E+00  0.0000E+00
    -31.285  0.0000E+00  0.0000E+00  0.0000E+00  0.0000E+00  0.0000E+00  0.0000E+00  0.0000E+00  0.0000E+00  0.0000E+00  0.0000E+00  0.0000E+00  0.0000E+00  0.0000E+00  0.0000E+00  0.0000E+00  0.0000E+00  0.0000E+00  0.0000E+00
    -31.134  0.0000E+00  0.0000E+00  0.0000E+00  0.0000E+00  0.0000E+00  0.0000E+00  0.0000E+00  0.0000E+00  0.0000E+00  0.0000E+00  0.0000E+00  0.0000E+00  0.0000E+00  0.0000E+00  0.0000E+00  0.0000E+00  0.0000E+00  0.0000E+00
    -30.983  0.0000E+00  0.0000E+00  0.0000E+00  0.0000E+00  0.0000E+00  0.0000E+00  0.0000E+00  0.0000E+00  0.0000E+00  0.0000E+00  0.0000E+00  0.0000E+00  0.0000E+00  0.0000E+00  0.0000E+00  0.0000E+00  0.0000E+00  0.0000E+00
    -30.833  0.0000E+00  0.0000E+00  0.0000E+00  0.0000E+00  0.0000E+00  0.0000E+00  0.0000E+00  0.0000E+00  0.0000E+00  0.0000E+00  0.0000E+00  0.0000E+00  0.0000E+00  0.0000E+00  0.0000E+00  0.0000E+00  0.0000E+00  0.0000E+00
    -30.682  0.0000E+00  0.0000E+00  0.0000E+00  0.0000E+00  0.0000E+00  0.0000E+00  0.0000E+00  0.0000E+00  0.0000E+00  0.0000E+00  0.0000E+00  0.0000E+00  0.0000E+00  0.0000E+00  0.0000E+00  0.0000E+00  0.0000E+00  0.0000E+00
    -30.531  0.0000E+00  0.0000E+00  0.0000E+00  0.0000E+00  0.0000E+00  0.0000E+00  0.0000E+00  0.0000E+00  0.0000E+00  0.0000E+00  0.0000E+00  0.0000E+00  0.0000E+00  0.0000E+00  0.0000E+00  0.0000E+00  0.0000E+00  0.0000E+00
    -30.381  0.0000E+00  0.0000E+00  0.0000E+00  0.0000E+00  0.0000E+00  0.0000E+00  0.0000E+00  0.0000E+00  0.0000E+00  0.0000E+00  0.0000E+00  0.0000E+00  0.0000E+00  0.0000E+00  0.0000E+00  0.0000E+00  0.0000E+00  0.0000E+00
    -30.230  0.0000E+00  0.0000E+00  0.0000E+00  0.0000E+00  0.0000E+00  0.0000E+00  0.0000E+00  0.0000E+00  0.0000E+00  0.0000E+00  0.0000E+00  0.0000E+00  0.0000E+00  0.0000E+00  0.0000E+00  0.0000E+00  0.0000E+00  0.0000E+00
    -30.079  0.0000E+00  0.0000E+00  0.0000E+00  0.0000E+00  0.0000E+00  0.0000E+00  0.0000E+00  0.0000E+00  0.0000E+00  0.0000E+00  0.0000E+00  0.0000E+00  0.0000E+00  0.0000E+00  0.0000E+00  0.0000E+00  0.0000E+00  0.0000E+00
    -29.929  0.0000E+00  0.0000E+00  0.0000E+00  0.0000E+00  0.0000E+00  0.0000E+00  0.0000E+00  0.0000E+00  0.0000E+00  0.0000E+00  0.0000E+00  0.0000E+00  0.0000E+00  0.0000E+00  0.0000E+00  0.0000E+00  0.0000E+00  0.0000E+00
    -29.778  0.0000E+00  0.0000E+00  0.0000E+00  0.0000E+00  0.0000E+00  0.0000E+00  0.0000E+00  0.0000E+00  0.0000E+00  0.0000E+00  0.0000E+00  0.0000E+00  0.0000E+00  0.0000E+00  0.0000E+00  0.0000E+00  0.0000E+00  0.0000E+00
    -29.627  0.0000E+00  0.0000E+00  0.0000E+00  0.0000E+00  0.0000E+00  0.0000E+00  0.0000E+00  0.0000E+00  0.0000E+00  0.0000E+00  0.0000E+00  0.0000E+00  0.0000E+00  0.0000E+00  0.0000E+00  0.0000E+00  0.0000E+00  0.0000E+00
    -29.477  0.0000E+00  0.0000E+00  0.0000E+00  0.0000E+00  0.0000E+00  0.0000E+00  0.0000E+00  0.0000E+00  0.0000E+00  0.0000E+00  0.0000E+00  0.0000E+00  0.0000E+00  0.0000E+00  0.0000E+00  0.0000E+00  0.0000E+00  0.0000E+00
    -29.326  0.0000E+00  0.0000E+00  0.0000E+00  0.0000E+00  0.0000E+00  0.0000E+00  0.0000E+00  0.0000E+00  0.0000E+00  0.0000E+00  0.0000E+00  0.0000E+00  0.0000E+00  0.0000E+00  0.0000E+00  0.0000E+00  0.0000E+00  0.0000E+00
    -29.175  0.0000E+00  0.0000E+00  0.0000E+00  0.0000E+00  0.0000E+00  0.0000E+00  0.0000E+00  0.0000E+00  0.0000E+00  0.0000E+00  0.0000E+00  0.0000E+00  0.0000E+00  0.0000E+00  0.0000E+00  0.0000E+00  0.0000E+00  0.0000E+00
    -29.024  0.0000E+00  0.0000E+00  0.0000E+00  0.0000E+00  0.0000E+00  0.0000E+00  0.0000E+00  0.0000E+00  0.0000E+00  0.0000E+00  0.0000E+00  0.0000E+00  0.0000E+00  0.0000E+00  0.0000E+00  0.0000E+00  0.0000E+00  0.0000E+00
    -28.874  0.0000E+00  0.0000E+00  0.0000E+00  0.0000E+00  0.0000E+00  0.0000E+00  0.0000E+00  0.0000E+00  0.0000E+00  0.0000E+00  0.0000E+00  0.0000E+00  0.0000E+00  0.0000E+00  0.0000E+00  0.0000E+00  0.0000E+00  0.0000E+00
    -28.723  0.0000E+00  0.0000E+00  0.0000E+00  0.0000E+00  0.0000E+00  0.0000E+00  0.0000E+00  0.0000E+00  0.0000E+00  0.0000E+00  0.0000E+00  0.0000E+00  0.0000E+00  0.0000E+00  0.0000E+00  0.0000E+00  0.0000E+00  0.0000E+00