   2   2   1   0
  0.6956010E+02  0.4598740E-09  0.4598739E-09  0.7595947E-09  0.5000000E-15
  1.000000000000000E-004
  CAR 
 unknown system                          
      6.29032582    -38.27170477  301      0.86636163      1.00000000
    -38.272  0.0000E+00  0.0000E+00  0.0000E+00  0.0000E+00
    -38.123  0.0000E+00  0.0000E+00  0.0000E+00  0.0000E+00
    -37.975  0.0000E+00  0.0000E+00  0.0000E+00  0.0000E+00
    -37.826  0.0000E+00  0.0000E+00  0.0000E+00  0.0000E+00
    -37.678  0.0000E+00  0.0000E+00  0.0000E+00  0.0000E+00
    -37.529  0.0000E+00  0.0000E+00  0.0000E+00  0.0000E+00
    -37.380  0.0000E+00  0.0000E+00  0.0000E+00  0.0000E+00
    -37.232  0.0000E+00  0.0000E+00  0.0000E+00  0.0000E+00
    -37.083  0.0000E+00  0.0000E+00  0.0000E+00  0.0000E+00
    -36.935  0.0000E+00  0.0000E+00  0.0000E+00  0.0000E+00
    -36.786  0.2516E-03  0.2482E-03  0.3738E-04  0.3687E-04
    -36.638  0.4655E-02  0.4593E-02  0.7289E-03  0.7191E-03
    -36.489  0.9017E-01  0.8897E-01  0.1412E-01  0.1393E-01
    -36.341  0.1545E+01  0.1527E+01  0.2436E+00  0.2408E+00
    -36.192  0.8190E+01  0.8174E+01  0.1460E+01  0.1455E+01
    -36.044  0.3384E+01  0.3416E+01  0.1963E+01  0.1962E+01
    -35.895  0.2374E+00  0.2405E+00  0.1998E+01  0.1998E+01
    -35.747  0.0000E+00  0.0000E+00  0.2000E+01  0.2000E+01
    -35.598  0.0000E+00  0.0000E+00  0.2000E+01  0.2000E+01
    -35.449  0.0000E+00  0.0000E+00  0.2000E+01  0.2000E+01
    -35.301  0.0000E+00  0.0000E+00  0.2000E+01  0.2000E+01
    -35.152  0.0000E+00  0.0000E+00  0.2000E+01  0.2000E+01
    -35.004  0.0000E+00  0.0000E+00  0.2000E+01  0.2000E+01
    -34.855  0.0000E+00  0.0000E+00  0.2000E+01  0.2000E+01
    -34.707  0.0000E+00  0.0000E+00  0.2000E+01  0.2000E+01
    -34.558  0.0000E+00  0.0000E+00  0.2000E+01  0.2000E+01
    -34.410  0.0000E+00  0.0000E+00  0.2000E+01  0.2000E+01
    -34.261  0.0000E+00  0.0000E+00  0.2000E+01  0.2000E+01
    -34.113  0.0000E+00  0.0000E+00  0.2000E+01  0.2000E+01
    -33.964  0.0000E+00  0.0000E+00  0.2000E+01  0.2000E+01
    -33.816  0.0000E+00  0.0000E+00  0.2000E+01  0.2000E+01
    -33.667  0.0000E+00  0.0000E+00  0.2000E+01  0.2000E+01
    -33.518  0.0000E+00  0.0000E+00  0.2000E+01  0.2000E+01
    -33.370  0.0000E+00  0.0000E+00  0.2000E+01  0.2000E+01
    -33.221  0.0000E+00  0.0000E+00  0.2000E+01  0.2000E+01
    -33.073  0.0000E+00  0.0000E+00  0.2000E+01  0.2000E+01
    -32.924  0.0000E+00  0.0000E+00  0.2000E+01  0.2000E+01
    -32.776  0.0000E+00  0.0000E+00  0.2000E+01  0.2000E+01
    -32.627  0.0000E+00  0.0000E+00  0.2000E+01  0.2000E+01
    -32.479  0.0000E+00  0.0000E+00  0.2000E+01  0.2000E+01
    -32.330  0.0000E+00  0.0000E+00  0.2000E+01  0.2000E+01
    -32.182  0.0000E+00  0.0000E+00  0.2000E+01  0.2000E+01
    -32.033  0.0000E+00  0.0000E+00  0.2000E+01  0.2000E+01
    -31.884  0.0000E+00  0.0000E+00  0.2000E+01  0.2000E+01
    -31.736  0.0000E+00  0.0000E+00  0.2000E+01  0.2000E+01
    -31.587  0.0000E+00  0.0000E+00  0.2000E+01  0.2000E+01
    -31.439  0.0000E+00  0.0000E+00  0.2000E+01  0.2000E+01
    -31.290  0.0000E+00  0.0000E+00  0.2000E+01  0.2000E+01
    -31.142  0.0000E+00  0.0000E+00  0.2000E+01  0.2000E+01
    -30.993  0.0000E+00  0.0000E+00  0.2000E+01  0.2000E+01
    -30.845  0.0000E+00  0.0000E+00  0.2000E+01  0.2000E+01
    -30.696  0.0000E+00  0.0000E+00  0.2000E+01  0.2000E+01
    -30.548  0.0000E+00  0.0000E+00  0.2000E+01  0.2000E+01
    -30.399  0.0000E+00  0.0000E+00  0.2000E+01  0.2000E+01
    -30.251  0.0000E+00  0.0000E+00  0.2000E+01  0.2000E+01
    -30.102  0.0000E+00  0.0000E+00  0.2000E+01  0.2000E+01
    -29.953  0.0000E+00  0.0000E+00  0.2000E+01  0.2000E+01
    -29.805  0.0000E+00  0.0000E+00  0.2000E+01  0.2000E+01
    -29.656  0.0000E+00  0.0000E+00  0.2000E+01  0.2000E+01
    -29.508  0.0000E+00  0.0000E+00  0.2000E+01  0.2000E+01
    -29.359  0.0000E+00  0.0000E+00  0.2000E+01  0.2000E+01
    -29.211  0.0000E+00  0.0000E+00  0.2000E+01  0.2000E+01
    -29.062  0.0000E+00  0.0000E+00  0.2000E+01  0.2000E+01
    -28.914  0.0000E+00  0.0000E+00  0.2000E+01  0.2000E+01
    -28.765  0.0000E+00  0.0000E+00  0.2000E+01  0.2000E+01
    -28.617  0.0000E+00  0.0000E+00  0.2000E+01  0.2000E+01
    -28.468  0.0000E+00  0.0000E+00  0.2000E+01  0.2000E+01
    -28.320  0.0000E+00  0.0000E+00  0.2000E+01  0.2000E+01
    -28.171  0.0000E+00  0.0000E+00  0.2000E+01  0.2000E+01
    -28.022  0.0000E+00  0.0000E+00  0.2000E+01  0.2000E+01
    -27.874  0.0000E+00  0.0000E+00  0.2000E+01  0.2000E+01
    -27.725  0.0000E+00  0.0000E+00  0.2000E+01  0.2000E+01
    -27.577  0.0000E+00  0.0000E+00  0.2000E+01  0.2000E+01
    -27.428  0.0000E+00  0.0000E+00  0.2000E+01  0.2000E+01
    -27.280  0.0000E+00  0.0000E+00  0.2000E+01  0.2000E+01
    -27.131  0.0000E+00  0.0000E+00  0.2000E+01  0.2000E+01
    -26.983  0.0000E+00  0.0000E+00  0.2000E+01  0.2000E+01
    -26.834  0.0000E+00  0.0000E+00  0.2000E+01  0.2000E+01
    -26.686  0.0000E+00  0.0000E+00  0.2000E+01  0.2000E+01
    -26.537  0.0000E+00  0.0000E+00  0.2000E+01  0.2000E+01
    -26.388  0.0000E+00  0.0000E+00  0.2000E+01  0.2000E+01
    -26.240  0.0000E+00  0.0000E+00  0.2000E+01  0.2000E+01
    -26.091  0.0000E+00  0.0000E+00  0.2000E+01  0.2000E+01
    -25.943  0.0000E+00  0.0000E+00  0.2000E+01  0.2000E+01
    -25.794  0.0000E+00  0.0000E+00  0.2000E+01  0.2000E+01
    -25.646  0.0000E+00  0.0000E+00  0.2000E+01  0.2000E+01
    -25.497  0.0000E+00  0.0000E+00  0.2000E+01  0.2000E+01
    -25.349  0.0000E+00  0.0000E+00  0.2000E+01  0.2000E+01
    -25.200  0.0000E+00  0.0000E+00  0.2000E+01  0.2000E+01
    -25.052  0.0000E+00  0.0000E+00  0.2000E+01  0.2000E+01
    -24.903  0.0000E+00  0.0000E+00  0.2000E+01  0.2000E+01
    -24.755  0.0000E+00  0.0000E+00  0.2000E+01  0.2000E+01
    -24.606  0.0000E+00  0.0000E+00  0.2000E+01  0.2000E+01
    -24.457  0.0000E+00  0.0000E+00  0.2000E+01  0.2000E+01
    -24.309  0.0000E+00  0.0000E+00  0.2000E+01  0.2000E+01
    -24.160  0.0000E+00  0.0000E+00  0.2000E+01  0.2000E+01
    -24.012  0.0000E+00  0.0000E+00  0.2000E+01  0.2000E+01
    -23.863  0.0000E+00  0.0000E+00  0.2000E+01  0.2000E+01
    -23.715  0.0000E+00  0.0000E+00  0.2000E+01  0.2000E+01
    -23.566  0.0000E+00  0.0000E+00  0.2000E+01  0.2000E+01
    -23.418  0.0000E+00  0.0000E+00  0.2000E+01  0.2000E+01
    -23.269  0.0000E+00  0.0000E+00  0.2000E+01  0.2000E+01
    -23.121  0.0000E+00  0.0000E+00  0.2000E+01  0.2000E+01
    -22.972  0.0000E+00  0.0000E+00  0.2000E+01  0.2000E+01
    -22.824  0.0000E+00  0.0000E+00  0.2000E+01  0.2000E+01
    -22.675  0.0000E+00  0.0000E+00  0.2000E+01  0.2000E+01
    -22.526  0.0000E+00  0.0000E+00  0.2000E+01  0.2000E+01
    -22.378  0.0000E+00  0.0000E+00  0.2000E+01  0.2000E+01
    -22.229  0.0000E+00  0.0000E+00  0.2000E+01  0.2000E+01
    -22.081  0.0000E+00  0.0000E+00  0.2000E+01  0.2000E+01
    -21.932  0.0000E+00  0.0000E+00  0.2000E+01  0.2000E+01
    -21.784  0.0000E+00  0.0000E+00  0.2000E+01  0.2000E+01
    -21.635  0.0000E+00  0.0000E+00  0.2000E+01  0.2000E+01
    -21.487  0.0000E+00  0.0000E+00  0.2000E+01  0.2000E+01
    -21.338  0.0000E+00  0.0000E+00  0.2000E+01  0.2000E+01
    -21.190  0.0000E+00  0.0000E+00  0.2000E+01  0.2000E+01
    -21.041  0.0000E+00  0.0000E+00  0.2000E+01  0.2000E+01
    -20.893  0.0000E+00  0.0000E+00  0.2000E+01  0.2000E+01
    -20.744  0.0000E+00  0.0000E+00  0.2000E+01  0.2000E+01
    -20.595  0.0000E+00  0.0000E+00  0.2000E+01  0.2000E+01
    -20.447  0.0000E+00  0.0000E+00  0.2000E+01  0.2000E+01
    -20.298  0.0000E+00  0.0000E+00  0.2000E+01  0.2000E+01
    -20.150  0.0000E+00  0.0000E+00  0.2000E+01  0.2000E+01
    -20.001  0.0000E+00  0.0000E+00  0.2000E+01  0.2000E+01
    -19.853  0.0000E+00  0.0000E+00  0.2000E+01  0.2000E+01
    -19.704  0.0000E+00  0.0000E+00  0.2000E+01  0.2000E+01
    -19.556  0.0000E+00  0.0000E+00  0.2000E+01  0.2000E+01
    -19.407  0.0000E+00  0.0000E+00  0.2000E+01  0.2000E+01
    -19.259  0.0000E+00  0.0000E+00  0.2000E+01  0.2000E+01
    -19.110  0.0000E+00  0.0000E+00  0.2000E+01  0.2000E+01
    -18.961  0.0000E+00  0.0000E+00  0.2000E+01  0.2000E+01
    -18.813  0.0000E+00  0.0000E+00  0.2000E+01  0.2000E+01
    -18.664  0.3240E-02  0.3185E-02  0.2000E+01  0.2000E+01
    -18.516  0.5984E-01  0.5884E-01  0.2009E+01  0.2009E+01
    -18.367  0.1126E+01  0.1108E+01  0.2177E+01  0.2174E+01
    -18.219  0.1322E+02  0.1309E+02  0.4141E+01  0.4119E+01
    -18.070  0.2226E+02  0.2235E+02  0.7447E+01  0.7439E+01
    -17.922  0.3509E+01  0.3563E+01  0.7969E+01  0.7968E+01
    -17.773  0.9634E-01  0.1007E+00  0.7999E+01  0.7999E+01
    -17.625  0.0000E+00  0.0000E+00  0.8000E+01  0.8000E+01
    -17.476  0.0000E+00  0.0000E+00  0.8000E+01  0.8000E+01
    -17.328  0.0000E+00  0.0000E+00  0.8000E+01  0.8000E+01
    -17.179  0.0000E+00  0.0000E+00  0.8000E+01  0.8000E+01
    -17.030  0.0000E+00  0.0000E+00  0.8000E+01  0.8000E+01
    -16.882  0.0000E+00  0.0000E+00  0.8000E+01  0.8000E+01
    -16.733  0.0000E+00  0.0000E+00  0.8000E+01  0.8000E+01
    -16.585  0.0000E+00  0.0000E+00  0.8000E+01  0.8000E+01
    -16.436  0.0000E+00  0.0000E+00  0.8000E+01  0.8000E+01
    -16.288  0.0000E+00  0.0000E+00  0.8000E+01  0.8000E+01
    -16.139  0.0000E+00  0.0000E+00  0.8000E+01  0.8000E+01
    -15.991  0.0000E+00  0.0000E+00  0.8000E+01  0.8000E+01
    -15.842  0.0000E+00  0.0000E+00  0.8000E+01  0.8000E+01
    -15.694  0.0000E+00  0.0000E+00  0.8000E+01  0.8000E+01
    -15.545  0.0000E+00  0.0000E+00  0.8000E+01  0.8000E+01
    -15.397  0.0000E+00  0.0000E+00  0.8000E+01  0.8000E+01
    -15.248  0.0000E+00  0.0000E+00  0.8000E+01  0.8000E+01
    -15.099  0.0000E+00  0.0000E+00  0.8000E+01  0.8000E+01
    -14.951  0.0000E+00  0.0000E+00  0.8000E+01  0.8000E+01
    -14.802  0.0000E+00  0.0000E+00  0.8000E+01  0.8000E+01
    -14.654  0.0000E+00  0.0000E+00  0.8000E+01  0.8000E+01
    -14.505  0.0000E+00  0.0000E+00  0.8000E+01  0.8000E+01
    -14.357  0.0000E+00  0.0000E+00  0.8000E+01  0.8000E+01
    -14.208  0.0000E+00  0.0000E+00  0.8000E+01  0.8000E+01
    -14.060  0.0000E+00  0.0000E+00  0.8000E+01  0.8000E+01
    -13.911  0.0000E+00  0.0000E+00  0.8000E+01  0.8000E+01
    -13.763  0.0000E+00  0.0000E+00  0.8000E+01  0.8000E+01
    -13.614  0.0000E+00  0.0000E+00  0.8000E+01  0.8000E+01
    -13.466  0.0000E+00  0.0000E+00  0.8000E+01  0.8000E+01
    -13.317  0.0000E+00  0.0000E+00  0.8000E+01  0.8000E+01
    -13.168  0.0000E+00  0.0000E+00  0.8000E+01  0.8000E+01
    -13.020  0.0000E+00  0.0000E+00  0.8000E+01  0.8000E+01
    -12.871  0.0000E+00  0.0000E+00  0.8000E+01  0.8000E+01
    -12.723  0.0000E+00  0.0000E+00  0.8000E+01  0.8000E+01
    -12.574  0.0000E+00  0.0000E+00  0.8000E+01  0.8000E+01
    -12.426  0.0000E+00  0.0000E+00  0.8000E+01  0.8000E+01
    -12.277  0.0000E+00  0.0000E+00  0.8000E+01  0.8000E+01
    -12.129  0.0000E+00  0.0000E+00  0.8000E+01  0.8000E+01
    -11.980  0.0000E+00  0.0000E+00  0.8000E+01  0.8000E+01
    -11.832  0.0000E+00  0.0000E+00  0.8000E+01  0.8000E+01
    -11.683  0.0000E+00  0.0000E+00  0.8000E+01  0.8000E+01
    -11.534  0.0000E+00  0.0000E+00  0.8000E+01  0.8000E+01
    -11.386  0.0000E+00  0.0000E+00  0.8000E+01  0.8000E+01
    -11.237  0.0000E+00  0.0000E+00  0.8000E+01  0.8000E+01
    -11.089  0.0000E+00  0.0000E+00  0.8000E+01  0.8000E+01
    -10.940  0.0000E+00  0.0000E+00  0.8000E+01  0.8000E+01
    -10.792  0.0000E+00  0.0000E+00  0.8000E+01  0.8000E+01
    -10.643  0.0000E+00  0.0000E+00  0.8000E+01  0.8000E+01
    -10.495  0.0000E+00  0.0000E+00  0.8000E+01  0.8000E+01
    -10.346  0.0000E+00  0.0000E+00  0.8000E+01  0.8000E+01
    -10.198  0.0000E+00  0.0000E+00  0.8000E+01  0.8000E+01
    -10.049  0.0000E+00  0.0000E+00  0.8000E+01  0.8000E+01
     -9.901  0.0000E+00  0.0000E+00  0.8000E+01  0.8000E+01
     -9.752  0.0000E+00  0.0000E+00  0.8000E+01  0.8000E+01
     -9.603  0.0000E+00  0.0000E+00  0.8000E+01  0.8000E+01
     -9.455  0.0000E+00  0.0000E+00  0.8000E+01  0.8000E+01
     -9.306  0.0000E+00  0.0000E+00  0.8000E+01  0.8000E+01
     -9.158  0.0000E+00  0.0000E+00  0.8000E+01  0.8000E+01
     -9.009  0.0000E+00  0.0000E+00  0.8000E+01  0.8000E+01
     -8.861  0.0000E+00  0.0000E+00  0.8000E+01  0.8000E+01
     -8.712  0.0000E+00  0.0000E+00  0.8000E+01  0.8000E+01
     -8.564  0.0000E+00  0.0000E+00  0.8000E+01  0.8000E+01
     -8.415  0.0000E+00  0.0000E+00  0.8000E+01  0.8000E+01
     -8.267  0.0000E+00  0.0000E+00  0.8000E+01  0.8000E+01
     -8.118  0.0000E+00  0.0000E+00  0.8000E+01  0.8000E+01
     -7.970  0.0000E+00  0.0000E+00  0.8000E+01  0.8000E+01
     -7.821  0.0000E+00  0.0000E+00  0.8000E+01  0.8000E+01
     -7.672  0.0000E+00  0.0000E+00  0.8000E+01  0.8000E+01
     -7.524  0.0000E+00  0.0000E+00  0.8000E+01  0.8000E+01
     -7.375  0.0000E+00  0.0000E+00  0.8000E+01  0.8000E+01
     -7.227  0.0000E+00  0.0000E+00  0.8000E+01  0.8000E+01
     -7.078  0.0000E+00  0.0000E+00  0.8000E+01  0.8000E+01
     -6.930  0.0000E+00  0.0000E+00  0.8000E+01  0.8000E+01
     -6.781  0.0000E+00  0.0000E+00  0.8000E+01  0.8000E+01
     -6.633  0.0000E+00  0.0000E+00  0.8000E+01  0.8000E+01
     -6.484  0.0000E+00  0.0000E+00  0.8000E+01  0.8000E+01
     -6.336  0.0000E+00  0.0000E+00  0.8000E+01  0.8000E+01
     -6.187  0.0000E+00  0.0000E+00  0.8000E+01  0.8000E+01
     -6.039  0.0000E+00  0.0000E+00  0.8000E+01  0.8000E+01
     -5.890  0.0000E+00  0.0000E+00  0.8000E+01  0.8000E+01
     -5.741  0.0000E+00  0.0000E+00  0.8000E+01  0.8000E+01
     -5.593  0.0000E+00  0.0000E+00  0.8000E+01  0.8000E+01
     -5.444  0.0000E+00  0.0000E+00  0.8000E+01  0.8000E+01
     -5.296  0.0000E+00  0.0000E+00  0.8000E+01  0.8000E+01
     -5.147  0.0000E+00  0.0000E+00  0.8000E+01  0.8000E+01
     -4.999  0.0000E+00  0.0000E+00  0.8000E+01  0.8000E+01
     -4.850  0.0000E+00  0.0000E+00  0.8000E+01  0.8000E+01
     -4.702  0.0000E+00  0.0000E+00  0.8000E+01  0.8000E+01
     -4.553  0.0000E+00  0.0000E+00  0.8000E+01  0.8000E+01
     -4.405  0.0000E+00  0.0000E+00  0.8000E+01  0.8000E+01
     -4.256  0.0000E+00  0.0000E+00  0.8000E+01  0.8000E+01
     -4.107  0.0000E+00  0.0000E+00  0.8000E+01  0.8000E+01
     -3.959  0.0000E+00  0.0000E+00  0.8000E+01  0.8000E+01
     -3.810  0.0000E+00  0.0000E+00  0.8000E+01  0.8000E+01
     -3.662  0.0000E+00  0.0000E+00  0.8000E+01  0.8000E+01
     -3.513  0.0000E+00  0.0000E+00  0.8000E+01  0.8000E+01
     -3.365  0.0000E+00  0.0000E+00  0.8000E+01  0.8000E+01
     -3.216  0.0000E+00  0.0000E+00  0.8000E+01  0.8000E+01
     -3.068  0.0000E+00  0.0000E+00  0.8000E+01  0.8000E+01
     -2.919  0.4742E-06  0.4144E-06  0.8000E+01  0.8000E+01
     -2.771  0.2370E-04  0.2029E-04  0.8000E+01  0.8000E+01
     -2.622  0.4698E-03  0.4114E-03  0.8000E+01  0.8000E+01
     -2.474  0.8050E-02  0.7142E-02  0.8001E+01  0.8001E+01
     -2.325  0.6128E-01  0.5763E-01  0.8010E+01  0.8010E+01
     -2.176  0.1453E+00  0.1415E+00  0.8032E+01  0.8031E+01
     -2.028  0.2009E+00  0.1993E+00  0.8062E+01  0.8060E+01
     -1.879  0.2592E+00  0.2561E+00  0.8100E+01  0.8098E+01
     -1.731  0.2985E+00  0.2991E+00  0.8145E+01  0.8143E+01
     -1.582  0.3350E+00  0.3292E+00  0.8195E+01  0.8192E+01
     -1.434  0.3983E+00  0.3989E+00  0.8254E+01  0.8251E+01
     -1.285  0.4065E+00  0.4047E+00  0.8314E+01  0.8311E+01
     -1.137  0.4470E+00  0.4445E+00  0.8381E+01  0.8377E+01
     -0.988  0.5692E+00  0.5675E+00  0.8465E+01  0.8462E+01
     -0.840  0.4936E+00  0.4958E+00  0.8539E+01  0.8536E+01
     -0.691  0.6002E+00  0.5910E+00  0.8628E+01  0.8624E+01
     -0.543  0.7150E+00  0.7163E+00  0.8735E+01  0.8730E+01
     -0.394  0.6820E+00  0.6804E+00  0.8836E+01  0.8831E+01
     -0.245  0.7802E+00  0.7774E+00  0.8952E+01  0.8947E+01
     -0.097  0.9323E+00  0.9263E+00  0.9091E+01  0.9085E+01
      0.052  0.9517E+00  0.9553E+00  0.9232E+01  0.9227E+01
      0.200  0.7866E+00  0.7869E+00  0.9349E+01  0.9344E+01
      0.349  0.1035E+01  0.1020E+01  0.9504E+01  0.9496E+01
      0.497  0.9787E+00  0.9837E+00  0.9649E+01  0.9643E+01
      0.646  0.9829E+00  0.9810E+00  0.9795E+01  0.9788E+01
      0.794  0.8552E+00  0.8526E+00  0.9923E+01  0.9915E+01
      0.943  0.1410E+01  0.1369E+01  0.1013E+02  0.1012E+02
      1.091  0.2418E+01  0.2401E+01  0.1049E+02  0.1048E+02
      1.240  0.2972E+01  0.2985E+01  0.1093E+02  0.1092E+02
      1.389  0.2263E+01  0.2305E+01  0.1127E+02  0.1126E+02
      1.537  0.1535E+01  0.1543E+01  0.1150E+02  0.1149E+02
      1.686  0.1260E+01  0.1262E+01  0.1169E+02  0.1168E+02
      1.834  0.1431E+01  0.1411E+01  0.1190E+02  0.1189E+02
      1.983  0.1958E+01  0.1937E+01  0.1219E+02  0.1218E+02
      2.131  0.2484E+01  0.2482E+01  0.1256E+02  0.1255E+02
      2.280  0.3138E+01  0.3150E+01  0.1303E+02  0.1302E+02
      2.428  0.2978E+01  0.3003E+01  0.1347E+02  0.1346E+02
      2.577  0.1883E+01  0.1892E+01  0.1375E+02  0.1375E+02
      2.725  0.1593E+01  0.1591E+01  0.1399E+02  0.1398E+02
      2.874  0.1681E+01  0.1672E+01  0.1424E+02  0.1423E+02
      3.022  0.1987E+01  0.1979E+01  0.1454E+02  0.1453E+02
      3.171  0.2265E+01  0.2278E+01  0.1487E+02  0.1487E+02
      3.320  0.1847E+01  0.1866E+01  0.1515E+02  0.1514E+02
      3.468  0.1516E+01  0.1508E+01  0.1537E+02  0.1537E+02
      3.617  0.1249E+01  0.1238E+01  0.1556E+02  0.1555E+02
      3.765  0.1261E+01  0.1273E+01  0.1575E+02  0.1574E+02
      3.914  0.9758E+00  0.9921E+00  0.1589E+02  0.1589E+02
      4.062  0.4316E+00  0.4437E+00  0.1596E+02  0.1596E+02
      4.211  0.1682E+00  0.1644E+00  0.1598E+02  0.1598E+02
      4.359  0.1036E+00  0.1087E+00  0.1600E+02  0.1600E+02
      4.508  0.1084E-01  0.1454E-01  0.1600E+02  0.1600E+02
      4.656  0.0000E+00  0.3869E-03  0.1600E+02  0.1600E+02
      4.805  0.0000E+00  0.0000E+00  0.1600E+02  0.1600E+02
      4.953  0.0000E+00  0.0000E+00  0.1600E+02  0.1600E+02
      5.102  0.0000E+00  0.0000E+00  0.1600E+02  0.1600E+02
      5.251  0.0000E+00  0.0000E+00  0.1600E+02  0.1600E+02
      5.399  0.0000E+00  0.0000E+00  0.1600E+02  0.1600E+02
      5.548  0.0000E+00  0.0000E+00  0.1600E+02  0.1600E+02
      5.696  0.0000E+00  0.0000E+00  0.1600E+02  0.1600E+02
      5.845  0.0000E+00  0.0000E+00  0.1600E+02  0.1600E+02
      5.993  0.0000E+00  0.0000E+00  0.1600E+02  0.1600E+02
      6.142  0.0000E+00  0.0000E+00  0.1600E+02  0.1600E+02
      6.290  0.0000E+00  0.0000E+00  0.1600E+02  0.1600E+02
      6.29032582    -38.27170477  301      0.86636163      1.00000000
    -38.272  0.0000E+00  0.0000E+00  0.0000E+00  0.0000E+00  0.0000E+00  0.0000E+00  0.0000E+00  0.0000E+00  0.0000E+00  0.0000E+00  0.0000E+00  0.0000E+00  0.0000E+00  0.0000E+00  0.0000E+00  0.0000E+00  0.0000E+00  0.0000E+00
    -38.123  0.0000E+00  0.0000E+00  0.0000E+00  0.0000E+00  0.0000E+00  0.0000E+00  0.0000E+00  0.0000E+00  0.0000E+00  0.0000E+00  0.0000E+00  0.0000E+00  0.0000E+00  0.0000E+00  0.0000E+00  0.0000E+00  0.0000E+00  0.0000E+00
    -37.975  0.0000E+00  0.0000E+00  0.0000E+00  0.0000E+00  0.0000E+00  0.0000E+00  0.0000E+00  0.0000E+00  0.0000E+00  0.0000E+00  0.0000E+00  0.0000E+00  0.0000E+00  0.0000E+00  0.0000E+00  0.0000E+00  0.0000E+00  0.0000E+00
    -37.826  0.0000E+00  0.0000E+00  0.0000E+00  0.0000E+00  0.0000E+00  0.0000E+00  0.0000E+00  0.0000E+00  0.0000E+00  0.0000E+00  0.0000E+00  0.0000E+00  0.0000E+00  0.0000E+00  0.0000E+00  0.0000E+00  0.0000E+00  0.0000E+00
    -37.678  0.0000E+00  0.0000E+00  0.0000E+00  0.0000E+00  0.0000E+00  0.0000E+00  0.0000E+00  0.0000E+00  0.0000E+00  0.0000E+00  0.0000E+00  0.0000E+00  0.0000E+00  0.0000E+00  0.0000E+00  0.0000E+00  0.0000E+00  0.0000E+00
    -37.529  0.0000E+00  0.0000E+00  0.0000E+00  0.0000E+00  0.0000E+00  0.0000E+00  0.0000E+00  0.0000E+00  0.0000E+00  0.0000E+00  0.0000E+00  0.0000E+00  0.0000E+00  0.0000E+00  0.0000E+00  0.0000E+00  0.0000E+00  0.0000E+00
    -37.380  0.0000E+00  0.0000E+00  0.0000E+00  0.0000E+00  0.0000E+00  0.0000E+00  0.0000E+00  0.0000E+00  0.0000E+00  0.0000E+00  0.0000E+00  0.0000E+00  0.0000E+00  0.0000E+00  0.0000E+00  0.0000E+00  0.0000E+00  0.0000E+00
    -37.232  0.0000E+00  0.0000E+00  0.0000E+00  0.0000E+00  0.0000E+00  0.0000E+00  0.0000E+00  0.0000E+00  0.0000E+00  0.0000E+00  0.0000E+00  0.0000E+00  0.0000E+00  0.0000E+00  0.0000E+00  0.0000E+00  0.0000E+00  0.0000E+00
    -37.083  0.0000E+00  0.0000E+00  0.0000E+00  0.0000E+00  0.0000E+00  0.0000E+00  0.0000E+00  0.0000E+00  0.0000E+00  0.0000E+00  0.0000E+00  0.0000E+00  0.0000E+00  0.0000E+00  0.0000E+00  0.0000E+00  0.0000E+00  0.0000E+00
    -36.935  0.0000E+00  0.0000E+00  0.0000E+00  0.0000E+00  0.0000E+00  0.0000E+00  0.0000E+00  0.0000E+00  0.0000E+00  0.0000E+00  0.0000E+00  0.0000E+00  0.0000E+00  0.0000E+00  0.0000E+00  0.0000E+00  0.0000E+00  0.0000E+00
    -36.786  0.1233E-03  0.1216E-03  0.8503E-12  0.8260E-12  0.7060E-12  0.6844E-12  0.8503E-12  0.8260E-12  0.2135E-12  0.2123E-12  0.1390E-12  0.1365E-12  0.7078E-12  0.8751E-12  0.1390E-12  0.1365E-12  0.2135E-12  0.2123E-12
    -36.638  0.2281E-02  0.2250E-02  0.1573E-10  0.1528E-10  0.1306E-10  0.1266E-10  0.1573E-10  0.1528E-10  0.3950E-11  0.3928E-11  0.2572E-11  0.2525E-11  0.1309E-10  0.1619E-10  0.2572E-11  0.2525E-11  0.3950E-11  0.3928E-11
    -36.489  0.4418E-01  0.4359E-01  0.3047E-09  0.2960E-09  0.2530E-09  0.2453E-09  0.3047E-09  0.2960E-09  0.7650E-10  0.7609E-10  0.4983E-10  0.4892E-10  0.2536E-09  0.3136E-09  0.4983E-10  0.4892E-10  0.7650E-10  0.7609E-10
    -36.341  0.7571E+00  0.7483E+00  0.5212E-08  0.5072E-08  0.4327E-08  0.4202E-08  0.5212E-08  0.5072E-08  0.1312E-08  0.1307E-08  0.8547E-09  0.8404E-09  0.4345E-08  0.5382E-08  0.8547E-09  0.8404E-09  0.1312E-08  0.1307E-08
    -36.192  0.4013E+01  0.4005E+01  0.2735E-07  0.2688E-07  0.2268E-07  0.2224E-07  0.2735E-07  0.2688E-07  0.6972E-08  0.7013E-08  0.4555E-08  0.4523E-08  0.2299E-07  0.2875E-07  0.4555E-08  0.4523E-08  0.6972E-08  0.7013E-08
    -36.044  0.1658E+01  0.1674E+01  0.1116E-07  0.1110E-07  0.9245E-08  0.9176E-08  0.1116E-07  0.1110E-07  0.2889E-08  0.2940E-08  0.1893E-08  0.1902E-08  0.9474E-08  0.1199E-07  0.1893E-08  0.1902E-08  0.2889E-08  0.2940E-08
    -35.895  0.1163E+00  0.1179E+00  0.7803E-09  0.7790E-09  0.6459E-09  0.6434E-09  0.7803E-09  0.7790E-09  0.2029E-09  0.2072E-09  0.1331E-09  0.1342E-09  0.6642E-09  0.8436E-09  0.1331E-09  0.1342E-09  0.2029E-09  0.2072E-09
    -35.747  0.0000E+00  0.0000E+00  0.0000E+00  0.0000E+00  0.0000E+00  0.0000E+00  0.0000E+00  0.0000E+00  0.0000E+00  0.0000E+00  0.0000E+00  0.0000E+00  0.0000E+00  0.0000E+00  0.0000E+00  0.0000E+00  0.0000E+00  0.0000E+00
    -35.598  0.0000E+00  0.0000E+00  0.0000E+00  0.0000E+00  0.0000E+00  0.0000E+00  0.0000E+00  0.0000E+00  0.0000E+00  0.0000E+00  0.0000E+00  0.0000E+00  0.0000E+00  0.0000E+00  0.0000E+00  0.0000E+00  0.0000E+00  0.0000E+00
    -35.449  0.0000E+00  0.0000E+00  0.0000E+00  0.0000E+00  0.0000E+00  0.0000E+00  0.0000E+00  0.0000E+00  0.0000E+00  0.0000E+00  0.0000E+00  0.0000E+00  0.0000E+00  0.0000E+00  0.0000E+00  0.0000E+00  0.0000E+00  0.0000E+00
    -35.301  0.0000E+00  0.0000E+00  0.0000E+00  0.0000E+00  0.0000E+00  0.0000E+00  0.0000E+00  0.0000E+00  0.0000E+00  0.0000E+00  0.0000E+00  0.0000E+00  0.0000E+00  0.0000E+00  0.0000E+00  0.0000E+00  0.0000E+00  0.0000E+00
    -35.152  0.0000E+00  0.0000E+00  0.0000E+00  0.0000E+00  0.0000E+00  0.0000E+00  0.0000E+00  0.0000E+00  0.0000E+00  0.0000E+00  0.0000E+00  0.0000E+00  0.0000E+00  0.0000E+00  0.0000E+00  0.0000E+00  0.0000E+00  0.0000E+00
    -35.004  0.0000E+00  0.0000E+00  0.0000E+00  0.0000E+00  0.0000E+00  0.0000E+00  0.0000E+00  0.0000E+00  0.0000E+00  0.0000E+00  0.0000E+00  0.0000E+00  0.0000E+00  0.0000E+00  0.0000E+00  0.0000E+00  0.0000E+00  0.0000E+00
    -34.855  0.0000E+00  0.0000E+00  0.0000E+00  0.0000E+00  0.0000E+00  0.0000E+00  0.0000E+00  0.0000E+00  0.0000E+00  0.0000E+00  0.0000E+00  0.0000E+00  0.0000E+00  0.0000E+00  0.0000E+00  0.0000E+00  0.0000E+00  0.0000E+00
    -34.707  0.0000E+00  0.0000E+00  0.0000E+00  0.0000E+00  0.0000E+00  0.0000E+00  0.0000E+00  0.0000E+00  0.0000E+00  0.0000E+00  0.0000E+00  0.0000E+00  0.0000E+00  0.0000E+00  0.0000E+00  0.0000E+00  0.0000E+00  0.0000E+00
    -34.558  0.0000E+00  0.0000E+00  0.0000E+00  0.0000E+00  0.0000E+00  0.0000E+00  0.0000E+00  0.0000E+00  0.0000E+00  0.0000E+00  0.0000E+00  0.0000E+00  0.0000E+00  0.0000E+00  0.0000E+00  0.0000E+00  0.0000E+00  0.0000E+00
    -34.410  0.0000E+00  0.0000E+00  0.0000E+00  0.0000E+00  0.0000E+00  0.0000E+00  0.0000E+00  0.0000E+00  0.0000E+00  0.0000E+00  0.0000E+00  0.0000E+00  0.0000E+00  0.0000E+00  0.0000E+00  0.0000E+00  0.0000E+00  0.0000E+00
    -34.261  0.0000E+00  0.0000E+00  0.0000E+00  0.0000E+00  0.0000E+00  0.0000E+00  0.0000E+00  0.0000E+00  0.0000E+00  0.0000E+00  0.0000E+00  0.0000E+00  0.0000E+00  0.0000E+00  0.0000E+00  0.0000E+00  0.0000E+00  0.0000E+00
    -34.113  0.0000E+00  0.0000E+00  0.0000E+00  0.0000E+00  0.0000E+00  0.0000E+00  0.0000E+00  0.0000E+00  0.0000E+00  0.0000E+00  0.0000E+00  0.0000E+00  0.0000E+00  0.0000E+00  0.0000E+00  0.0000E+00  0.0000E+00  0.0000E+00
    -33.964  0.0000E+00  0.0000E+00  0.0000E+00  0.0000E+00  0.0000E+00  0.0000E+00  0.0000E+00  0.0000E+00  0.0000E+00  0.0000E+00  0.0000E+00  0.0000E+00  0.0000E+00  0.0000E+00  0.0000E+00  0.0000E+00  0.0000E+00  0.0000E+00
    -33.816  0.0000E+00  0.0000E+00  0.0000E+00  0.0000E+00  0.0000E+00  0.0000E+00  0.0000E+00  0.0000E+00  0.0000E+00  0.0000E+00  0.0000E+00  0.0000E+00  0.0000E+00  0.0000E+00  0.0000E+00  0.0000E+00  0.0000E+00  0.0000E+00
    -33.667  0.0000E+00  0.0000E+00  0.0000E+00  0.0000E+00  0.0000E+00  0.0000E+00  0.0000E+00  0.0000E+00  0.0000E+00  0.0000E+00  0.0000E+00  0.0000E+00  0.0000E+00  0.0000E+00  0.0000E+00  0.0000E+00  0.0000E+00  0.0000E+00
    -33.518  0.0000E+00  0.0000E+00  0.0000E+00  0.0000E+00  0.0000E+00  0.0000E+00  0.0000E+00  0.0000E+00  0.0000E+00  0.0000E+00  0.0000E+00  0.0000E+00  0.0000E+00  0.0000E+00  0.0000E+00  0.0000E+00  0.0000E+00  0.0000E+00
    -33.370  0.0000E+00  0.0000E+00  0.0000E+00  0.0000E+00  0.0000E+00  0.0000E+00  0.0000E+00  0.0000E+00  0.0000E+00  0.0000E+00  0.0000E+00  0.0000E+00  0.0000E+00  0.0000E+00  0.0000E+00  0.0000E+00  0.0000E+00  0.0000E+00
    -33.221  0.0000E+00  0.0000E+00  0.0000E+00  0.0000E+00  0.0000E+00  0.0000E+00  0.0000E+00  0.0000E+00  0.0000E+00  0.0000E+00  0.0000E+00  0.0000E+00  0.0000E+00  0.0000E+00  0.0000E+00  0.0000E+00  0.0000E+00  0.0000E+00
    -33.073  0.0000E+00  0.0000E+00  0.0000E+00  0.0000E+00  0.0000E+00  0.0000E+00  0.0000E+00  0.0000E+00  0.0000E+00  0.0000E+00  0.0000E+00  0.0000E+00  0.0000E+00  0.0000E+00  0.0000E+00  0.0000E+00  0.0000E+00  0.0000E+00
    -32.924  0.0000E+00  0.0000E+00  0.0000E+00  0.0000E+00  0.0000E+00  0.0000E+00  0.0000E+00  0.0000E+00  0.0000E+00  0.0000E+00  0.0000E+00  0.0000E+00  0.0000E+00  0.0000E+00  0.0000E+00  0.0000E+00  0.0000E+00  0.0000E+00
    -32.776  0.0000E+00  0.0000E+00  0.0000E+00  0.0000E+00  0.0000E+00  0.0000E+00  0.0000E+00  0.0000E+00  0.0000E+00  0.0000E+00  0.0000E+00  0.0000E+00  0.0000E+00  0.0000E+00  0.0000E+00  0.0000E+00  0.0000E+00  0.0000E+00
    -32.627  0.0000E+00  0.0000E+00  0.0000E+00  0.0000E+00  0.0000E+00  0.0000E+00  0.0000E+00  0.0000E+00  0.0000E+00  0.0000E+00  0.0000E+00  0.0000E+00  0.0000E+00  0.0000E+00  0.0000E+00  0.0000E+00  0.0000E+00  0.0000E+00
    -32.479  0.0000E+00  0.0000E+00  0.0000E+00  0.0000E+00  0.0000E+00  0.0000E+00  0.0000E+00  0.0000E+00  0.0000E+00  0.0000E+00  0.0000E+00  0.0000E+00  0.0000E+00  0.0000E+00  0.0000E+00  0.0000E+00  0.0000E+00  0.0000E+00
    -32.330  0.0000E+00  0.0000E+00  0.0000E+00  0.0000E+00  0.0000E+00  0.0000E+00  0.0000E+00  0.0000E+00  0.0000E+00  0.0000E+00  0.0000E+00  0.0000E+00  0.0000E+00  0.0000E+00  0.0000E+00  0.0000E+00  0.0000E+00  0.0000E+00
    -32.182  0.0000E+00  0.0000E+00  0.0000E+00  0.0000E+00  0.0000E+00  0.0000E+00  0.0000E+00  0.0000E+00  0.0000E+00  0.0000E+00  0.0000E+00  0.0000E+00  0.0000E+00  0.0000E+00  0.0000E+00  0.0000E+00  0.0000E+00  0.0000E+00
    -32.033  0.0000E+00  0.0000E+00  0.0000E+00  0.0000E+00  0.0000E+00  0.0000E+00  0.0000E+00  0.0000E+00  0.0000E+00  0.0000E+00  0.0000E+00  0.0000E+00  0.0000E+00  0.0000E+00  0.0000E+00  0.0000E+00  0.0000E+00  0.0000E+00
    -31.884  0.0000E+00  0.0000E+00  0.0000E+00  0.0000E+00  0.0000E+00  0.0000E+00  0.0000E+00  0.0000E+00  0.0000E+00  0.0000E+00  0.0000E+00  0.0000E+00  0.0000E+00  0.0000E+00  0.0000E+00  0.0000E+00  0.0000E+00  0.0000E+00
    -31.736  0.0000E+00  0.0000E+00  0.0000E+00  0.0000E+00  0.0000E+00  0.0000E+00  0.0000E+00  0.0000E+00  0.0000E+00  0.0000E+00  0.0000E+00  0.0000E+00  0.0000E+00  0.0000E+00  0.0000E+00  0.0000E+00  0.0000E+00  0.0000E+00
    -31.587  0.0000E+00  0.0000E+00  0.0000E+00  0.0000E+00  0.0000E+00  0.0000E+00  0.0000E+00  0.0000E+00  0.0000E+00  0.0000E+00  0.0000E+00  0.0000E+00  0.0000E+00  0.0000E+00  0.0000E+00  0.0000E+00  0.0000E+00  0.0000E+00
    -31.439  0.0000E+00  0.0000E+00  0.0000E+00  0.0000E+00  0.0000E+00  0.0000E+00  0.0000E+00  0.0000E+00  0.0000E+00  0.0000E+00  0.0000E+00  0.0000E+00  0.0000E+00  0.0000E+00  0.0000E+00  0.0000E+00  0.0000E+00  0.0000E+00
    -31.290  0.0000E+00  0.0000E+00  0.0000E+00  0.0000E+00  0.0000E+00  0.0000E+00  0.0000E+00  0.0000E+00  0.0000E+00  0.0000E+00  0.0000E+00  0.0000E+00  0.0000E+00  0.0000E+00  0.0000E+00  0.0000E+00  0.0000E+00  0.0000E+00
    -31.142  0.0000E+00  0.0000E+00  0.0000E+00  0.0000E+00  0.0000E+00  0.0000E+00  0.0000E+00  0.0000E+00  0.0000E+00  0.0000E+00  0.0000E+00  0.0000E+00  0.0000E+00  0.0000E+00  0.0000E+00  0.0000E+00  0.0000E+00  0.0000E+00
    -30.993  0.0000E+00  0.0000E+00  0.0000E+00  0.0000E+00  0.0000E+00  0.0000E+00  0.0000E+00  0.0000E+00  0.0000E+00  0.0000E+00  0.0000E+00  0.0000E+00  0.0000E+00  0.0000E+00  0.0000E+00  0.0000E+00  0.0000E+00  0.0000E+00
    -30.845  0.0000E+00  0.0000E+00  0.0000E+00  0.0000E+00  0.0000E+00  0.0000E+00  0.0000E+00  0.0000E+00  0.0000E+00  0.0000E+00  0.0000E+00  0.0000E+00  0.0000E+00  0.0000E+00  0.0000E+00  0.0000E+00  0.0000E+00  0.0000E+00