   2   2   1   0
  0.7349656E+02  0.4683902E-09  0.4683901E-09  0.7736612E-09  0.5000000E-15
  1.000000000000000E-004
  CAR 
 unknown system                          
      5.94708386    -38.53387936  301      0.71000515      1.00000000
    -38.534  0.0000E+00  0.0000E+00  0.0000E+00  0.0000E+00
    -38.386  0.0000E+00  0.0000E+00  0.0000E+00  0.0000E+00
    -38.237  0.0000E+00  0.0000E+00  0.0000E+00  0.0000E+00
    -38.089  0.0000E+00  0.0000E+00  0.0000E+00  0.0000E+00
    -37.941  0.0000E+00  0.0000E+00  0.0000E+00  0.0000E+00
    -37.793  0.0000E+00  0.0000E+00  0.0000E+00  0.0000E+00
    -37.644  0.0000E+00  0.0000E+00  0.0000E+00  0.0000E+00
    -37.496  0.0000E+00  0.0000E+00  0.0000E+00  0.0000E+00
    -37.348  0.0000E+00  0.0000E+00  0.0000E+00  0.0000E+00
    -37.199  0.0000E+00  0.0000E+00  0.0000E+00  0.0000E+00
    -37.051  0.2626E-03  0.2593E-03  0.3894E-04  0.3844E-04
    -36.903  0.4831E-02  0.4770E-02  0.7553E-03  0.7457E-03
    -36.755  0.9306E-01  0.9188E-01  0.1455E-01  0.1437E-01
    -36.606  0.1581E+01  0.1564E+01  0.2490E+00  0.2462E+00
    -36.458  0.8221E+01  0.8206E+01  0.1468E+01  0.1463E+01
    -36.310  0.3341E+01  0.3372E+01  0.1963E+01  0.1963E+01
    -36.162  0.2344E+00  0.2374E+00  0.1998E+01  0.1998E+01
    -36.013  0.0000E+00  0.0000E+00  0.2000E+01  0.2000E+01
    -35.865  0.0000E+00  0.0000E+00  0.2000E+01  0.2000E+01
    -35.717  0.0000E+00  0.0000E+00  0.2000E+01  0.2000E+01
    -35.568  0.0000E+00  0.0000E+00  0.2000E+01  0.2000E+01
    -35.420  0.0000E+00  0.0000E+00  0.2000E+01  0.2000E+01
    -35.272  0.0000E+00  0.0000E+00  0.2000E+01  0.2000E+01
    -35.124  0.0000E+00  0.0000E+00  0.2000E+01  0.2000E+01
    -34.975  0.0000E+00  0.0000E+00  0.2000E+01  0.2000E+01
    -34.827  0.0000E+00  0.0000E+00  0.2000E+01  0.2000E+01
    -34.679  0.0000E+00  0.0000E+00  0.2000E+01  0.2000E+01
    -34.531  0.0000E+00  0.0000E+00  0.2000E+01  0.2000E+01
    -34.382  0.0000E+00  0.0000E+00  0.2000E+01  0.2000E+01
    -34.234  0.0000E+00  0.0000E+00  0.2000E+01  0.2000E+01
    -34.086  0.0000E+00  0.0000E+00  0.2000E+01  0.2000E+01
    -33.938  0.0000E+00  0.0000E+00  0.2000E+01  0.2000E+01
    -33.789  0.0000E+00  0.0000E+00  0.2000E+01  0.2000E+01
    -33.641  0.0000E+00  0.0000E+00  0.2000E+01  0.2000E+01
    -33.493  0.0000E+00  0.0000E+00  0.2000E+01  0.2000E+01
    -33.344  0.0000E+00  0.0000E+00  0.2000E+01  0.2000E+01
    -33.196  0.0000E+00  0.0000E+00  0.2000E+01  0.2000E+01
    -33.048  0.0000E+00  0.0000E+00  0.2000E+01  0.2000E+01
    -32.900  0.0000E+00  0.0000E+00  0.2000E+01  0.2000E+01
    -32.751  0.0000E+00  0.0000E+00  0.2000E+01  0.2000E+01
    -32.603  0.0000E+00  0.0000E+00  0.2000E+01  0.2000E+01
    -32.455  0.0000E+00  0.0000E+00  0.2000E+01  0.2000E+01
    -32.307  0.0000E+00  0.0000E+00  0.2000E+01  0.2000E+01
    -32.158  0.0000E+00  0.0000E+00  0.2000E+01  0.2000E+01
    -32.010  0.0000E+00  0.0000E+00  0.2000E+01  0.2000E+01
    -31.862  0.0000E+00  0.0000E+00  0.2000E+01  0.2000E+01
    -31.713  0.0000E+00  0.0000E+00  0.2000E+01  0.2000E+01
    -31.565  0.0000E+00  0.0000E+00  0.2000E+01  0.2000E+01
    -31.417  0.0000E+00  0.0000E+00  0.2000E+01  0.2000E+01
    -31.269  0.0000E+00  0.0000E+00  0.2000E+01  0.2000E+01
    -31.120  0.0000E+00  0.0000E+00  0.2000E+01  0.2000E+01
    -30.972  0.0000E+00  0.0000E+00  0.2000E+01  0.2000E+01
    -30.824  0.0000E+00  0.0000E+00  0.2000E+01  0.2000E+01
    -30.676  0.0000E+00  0.0000E+00  0.2000E+01  0.2000E+01
    -30.527  0.0000E+00  0.0000E+00  0.2000E+01  0.2000E+01
    -30.379  0.0000E+00  0.0000E+00  0.2000E+01  0.2000E+01
    -30.231  0.0000E+00  0.0000E+00  0.2000E+01  0.2000E+01
    -30.082  0.0000E+00  0.0000E+00  0.2000E+01  0.2000E+01
    -29.934  0.0000E+00  0.0000E+00  0.2000E+01  0.2000E+01
    -29.786  0.0000E+00  0.0000E+00  0.2000E+01  0.2000E+01
    -29.638  0.0000E+00  0.0000E+00  0.2000E+01  0.2000E+01
    -29.489  0.0000E+00  0.0000E+00  0.2000E+01  0.2000E+01
    -29.341  0.0000E+00  0.0000E+00  0.2000E+01  0.2000E+01
    -29.193  0.0000E+00  0.0000E+00  0.2000E+01  0.2000E+01
    -29.045  0.0000E+00  0.0000E+00  0.2000E+01  0.2000E+01
    -28.896  0.0000E+00  0.0000E+00  0.2000E+01  0.2000E+01
    -28.748  0.0000E+00  0.0000E+00  0.2000E+01  0.2000E+01
    -28.600  0.0000E+00  0.0000E+00  0.2000E+01  0.2000E+01
    -28.452  0.0000E+00  0.0000E+00  0.2000E+01  0.2000E+01
    -28.303  0.0000E+00  0.0000E+00  0.2000E+01  0.2000E+01
    -28.155  0.0000E+00  0.0000E+00  0.2000E+01  0.2000E+01
    -28.007  0.0000E+00  0.0000E+00  0.2000E+01  0.2000E+01
    -27.858  0.0000E+00  0.0000E+00  0.2000E+01  0.2000E+01
    -27.710  0.0000E+00  0.0000E+00  0.2000E+01  0.2000E+01
    -27.562  0.0000E+00  0.0000E+00  0.2000E+01  0.2000E+01
    -27.414  0.0000E+00  0.0000E+00  0.2000E+01  0.2000E+01
    -27.265  0.0000E+00  0.0000E+00  0.2000E+01  0.2000E+01
    -27.117  0.0000E+00  0.0000E+00  0.2000E+01  0.2000E+01
    -26.969  0.0000E+00  0.0000E+00  0.2000E+01  0.2000E+01
    -26.821  0.0000E+00  0.0000E+00  0.2000E+01  0.2000E+01
    -26.672  0.0000E+00  0.0000E+00  0.2000E+01  0.2000E+01
    -26.524  0.0000E+00  0.0000E+00  0.2000E+01  0.2000E+01
    -26.376  0.0000E+00  0.0000E+00  0.2000E+01  0.2000E+01
    -26.227  0.0000E+00  0.0000E+00  0.2000E+01  0.2000E+01
    -26.079  0.0000E+00  0.0000E+00  0.2000E+01  0.2000E+01
    -25.931  0.0000E+00  0.0000E+00  0.2000E+01  0.2000E+01
    -25.783  0.0000E+00  0.0000E+00  0.2000E+01  0.2000E+01
    -25.634  0.0000E+00  0.0000E+00  0.2000E+01  0.2000E+01
    -25.486  0.0000E+00  0.0000E+00  0.2000E+01  0.2000E+01
    -25.338  0.0000E+00  0.0000E+00  0.2000E+01  0.2000E+01
    -25.190  0.0000E+00  0.0000E+00  0.2000E+01  0.2000E+01
    -25.041  0.0000E+00  0.0000E+00  0.2000E+01  0.2000E+01
    -24.893  0.0000E+00  0.0000E+00  0.2000E+01  0.2000E+01
    -24.745  0.0000E+00  0.0000E+00  0.2000E+01  0.2000E+01
    -24.597  0.0000E+00  0.0000E+00  0.2000E+01  0.2000E+01
    -24.448  0.0000E+00  0.0000E+00  0.2000E+01  0.2000E+01
    -24.300  0.0000E+00  0.0000E+00  0.2000E+01  0.2000E+01
    -24.152  0.0000E+00  0.0000E+00  0.2000E+01  0.2000E+01
    -24.003  0.0000E+00  0.0000E+00  0.2000E+01  0.2000E+01
    -23.855  0.0000E+00  0.0000E+00  0.2000E+01  0.2000E+01
    -23.707  0.0000E+00  0.0000E+00  0.2000E+01  0.2000E+01
    -23.559  0.0000E+00  0.0000E+00  0.2000E+01  0.2000E+01
    -23.410  0.0000E+00  0.0000E+00  0.2000E+01  0.2000E+01
    -23.262  0.0000E+00  0.0000E+00  0.2000E+01  0.2000E+01
    -23.114  0.0000E+00  0.0000E+00  0.2000E+01  0.2000E+01
    -22.966  0.0000E+00  0.0000E+00  0.2000E+01  0.2000E+01
    -22.817  0.0000E+00  0.0000E+00  0.2000E+01  0.2000E+01
    -22.669  0.0000E+00  0.0000E+00  0.2000E+01  0.2000E+01
    -22.521  0.0000E+00  0.0000E+00  0.2000E+01  0.2000E+01
    -22.372  0.0000E+00  0.0000E+00  0.2000E+01  0.2000E+01
    -22.224  0.0000E+00  0.0000E+00  0.2000E+01  0.2000E+01
    -22.076  0.0000E+00  0.0000E+00  0.2000E+01  0.2000E+01
    -21.928  0.0000E+00  0.0000E+00  0.2000E+01  0.2000E+01
    -21.779  0.0000E+00  0.0000E+00  0.2000E+01  0.2000E+01
    -21.631  0.0000E+00  0.0000E+00  0.2000E+01  0.2000E+01
    -21.483  0.0000E+00  0.0000E+00  0.2000E+01  0.2000E+01
    -21.335  0.0000E+00  0.0000E+00  0.2000E+01  0.2000E+01
    -21.186  0.0000E+00  0.0000E+00  0.2000E+01  0.2000E+01
    -21.038  0.0000E+00  0.0000E+00  0.2000E+01  0.2000E+01
    -20.890  0.0000E+00  0.0000E+00  0.2000E+01  0.2000E+01
    -20.741  0.0000E+00  0.0000E+00  0.2000E+01  0.2000E+01
    -20.593  0.0000E+00  0.0000E+00  0.2000E+01  0.2000E+01
    -20.445  0.0000E+00  0.0000E+00  0.2000E+01  0.2000E+01
    -20.297  0.0000E+00  0.0000E+00  0.2000E+01  0.2000E+01
    -20.148  0.0000E+00  0.0000E+00  0.2000E+01  0.2000E+01
    -20.000  0.0000E+00  0.0000E+00  0.2000E+01  0.2000E+01
    -19.852  0.0000E+00  0.0000E+00  0.2000E+01  0.2000E+01
    -19.704  0.0000E+00  0.0000E+00  0.2000E+01  0.2000E+01
    -19.555  0.0000E+00  0.0000E+00  0.2000E+01  0.2000E+01
    -19.407  0.0000E+00  0.0000E+00  0.2000E+01  0.2000E+01
    -19.259  0.0000E+00  0.0000E+00  0.2000E+01  0.2000E+01
    -19.111  0.0000E+00  0.0000E+00  0.2000E+01  0.2000E+01
    -18.962  0.1477E-02  0.1453E-02  0.2000E+01  0.2000E+01
    -18.814  0.2715E-01  0.2672E-01  0.2004E+01  0.2004E+01
    -18.666  0.5188E+00  0.5108E+00  0.2081E+01  0.2080E+01
    -18.517  0.7793E+01  0.7699E+01  0.3237E+01  0.3221E+01
    -18.369  0.2502E+02  0.2503E+02  0.6946E+01  0.6932E+01
    -18.221  0.6661E+01  0.6747E+01  0.7934E+01  0.7933E+01
    -18.073  0.3957E+00  0.4060E+00  0.7997E+01  0.7997E+01
    -17.924  0.0000E+00  0.0000E+00  0.8000E+01  0.8000E+01
    -17.776  0.0000E+00  0.0000E+00  0.8000E+01  0.8000E+01
    -17.628  0.0000E+00  0.0000E+00  0.8000E+01  0.8000E+01
    -17.480  0.0000E+00  0.0000E+00  0.8000E+01  0.8000E+01
    -17.331  0.0000E+00  0.0000E+00  0.8000E+01  0.8000E+01
    -17.183  0.0000E+00  0.0000E+00  0.8000E+01  0.8000E+01
    -17.035  0.0000E+00  0.0000E+00  0.8000E+01  0.8000E+01
    -16.886  0.0000E+00  0.0000E+00  0.8000E+01  0.8000E+01
    -16.738  0.0000E+00  0.0000E+00  0.8000E+01  0.8000E+01
    -16.590  0.0000E+00  0.0000E+00  0.8000E+01  0.8000E+01
    -16.442  0.0000E+00  0.0000E+00  0.8000E+01  0.8000E+01
    -16.293  0.0000E+00  0.0000E+00  0.8000E+01  0.8000E+01
    -16.145  0.0000E+00  0.0000E+00  0.8000E+01  0.8000E+01
    -15.997  0.0000E+00  0.0000E+00  0.8000E+01  0.8000E+01
    -15.849  0.0000E+00  0.0000E+00  0.8000E+01  0.8000E+01
    -15.700  0.0000E+00  0.0000E+00  0.8000E+01  0.8000E+01
    -15.552  0.0000E+00  0.0000E+00  0.8000E+01  0.8000E+01
    -15.404  0.0000E+00  0.0000E+00  0.8000E+01  0.8000E+01
    -15.256  0.0000E+00  0.0000E+00  0.8000E+01  0.8000E+01
    -15.107  0.0000E+00  0.0000E+00  0.8000E+01  0.8000E+01
    -14.959  0.0000E+00  0.0000E+00  0.8000E+01  0.8000E+01
    -14.811  0.0000E+00  0.0000E+00  0.8000E+01  0.8000E+01
    -14.662  0.0000E+00  0.0000E+00  0.8000E+01  0.8000E+01
    -14.514  0.0000E+00  0.0000E+00  0.8000E+01  0.8000E+01
    -14.366  0.0000E+00  0.0000E+00  0.8000E+01  0.8000E+01
    -14.218  0.0000E+00  0.0000E+00  0.8000E+01  0.8000E+01
    -14.069  0.0000E+00  0.0000E+00  0.8000E+01  0.8000E+01
    -13.921  0.0000E+00  0.0000E+00  0.8000E+01  0.8000E+01
    -13.773  0.0000E+00  0.0000E+00  0.8000E+01  0.8000E+01
    -13.625  0.0000E+00  0.0000E+00  0.8000E+01  0.8000E+01
    -13.476  0.0000E+00  0.0000E+00  0.8000E+01  0.8000E+01
    -13.328  0.0000E+00  0.0000E+00  0.8000E+01  0.8000E+01
    -13.180  0.0000E+00  0.0000E+00  0.8000E+01  0.8000E+01
    -13.031  0.0000E+00  0.0000E+00  0.8000E+01  0.8000E+01
    -12.883  0.0000E+00  0.0000E+00  0.8000E+01  0.8000E+01
    -12.735  0.0000E+00  0.0000E+00  0.8000E+01  0.8000E+01
    -12.587  0.0000E+00  0.0000E+00  0.8000E+01  0.8000E+01
    -12.438  0.0000E+00  0.0000E+00  0.8000E+01  0.8000E+01
    -12.290  0.0000E+00  0.0000E+00  0.8000E+01  0.8000E+01
    -12.142  0.0000E+00  0.0000E+00  0.8000E+01  0.8000E+01
    -11.994  0.0000E+00  0.0000E+00  0.8000E+01  0.8000E+01
    -11.845  0.0000E+00  0.0000E+00  0.8000E+01  0.8000E+01
    -11.697  0.0000E+00  0.0000E+00  0.8000E+01  0.8000E+01
    -11.549  0.0000E+00  0.0000E+00  0.8000E+01  0.8000E+01
    -11.400  0.0000E+00  0.0000E+00  0.8000E+01  0.8000E+01
    -11.252  0.0000E+00  0.0000E+00  0.8000E+01  0.8000E+01
    -11.104  0.0000E+00  0.0000E+00  0.8000E+01  0.8000E+01
    -10.956  0.0000E+00  0.0000E+00  0.8000E+01  0.8000E+01
    -10.807  0.0000E+00  0.0000E+00  0.8000E+01  0.8000E+01
    -10.659  0.0000E+00  0.0000E+00  0.8000E+01  0.8000E+01
    -10.511  0.0000E+00  0.0000E+00  0.8000E+01  0.8000E+01
    -10.363  0.0000E+00  0.0000E+00  0.8000E+01  0.8000E+01
    -10.214  0.0000E+00  0.0000E+00  0.8000E+01  0.8000E+01
    -10.066  0.0000E+00  0.0000E+00  0.8000E+01  0.8000E+01
     -9.918  0.0000E+00  0.0000E+00  0.8000E+01  0.8000E+01
     -9.770  0.0000E+00  0.0000E+00  0.8000E+01  0.8000E+01
     -9.621  0.0000E+00  0.0000E+00  0.8000E+01  0.8000E+01
     -9.473  0.0000E+00  0.0000E+00  0.8000E+01  0.8000E+01
     -9.325  0.0000E+00  0.0000E+00  0.8000E+01  0.8000E+01
     -9.176  0.0000E+00  0.0000E+00  0.8000E+01  0.8000E+01
     -9.028  0.0000E+00  0.0000E+00  0.8000E+01  0.8000E+01
     -8.880  0.0000E+00  0.0000E+00  0.8000E+01  0.8000E+01
     -8.732  0.0000E+00  0.0000E+00  0.8000E+01  0.8000E+01
     -8.583  0.0000E+00  0.0000E+00  0.8000E+01  0.8000E+01
     -8.435  0.0000E+00  0.0000E+00  0.8000E+01  0.8000E+01
     -8.287  0.0000E+00  0.0000E+00  0.8000E+01  0.8000E+01
     -8.139  0.0000E+00  0.0000E+00  0.8000E+01  0.8000E+01
     -7.990  0.0000E+00  0.0000E+00  0.8000E+01  0.8000E+01
     -7.842  0.0000E+00  0.0000E+00  0.8000E+01  0.8000E+01
     -7.694  0.0000E+00  0.0000E+00  0.8000E+01  0.8000E+01
     -7.545  0.0000E+00  0.0000E+00  0.8000E+01  0.8000E+01
     -7.397  0.0000E+00  0.0000E+00  0.8000E+01  0.8000E+01
     -7.249  0.0000E+00  0.0000E+00  0.8000E+01  0.8000E+01
     -7.101  0.0000E+00  0.0000E+00  0.8000E+01  0.8000E+01
     -6.952  0.0000E+00  0.0000E+00  0.8000E+01  0.8000E+01
     -6.804  0.0000E+00  0.0000E+00  0.8000E+01  0.8000E+01
     -6.656  0.0000E+00  0.0000E+00  0.8000E+01  0.8000E+01
     -6.508  0.0000E+00  0.0000E+00  0.8000E+01  0.8000E+01
     -6.359  0.0000E+00  0.0000E+00  0.8000E+01  0.8000E+01
     -6.211  0.0000E+00  0.0000E+00  0.8000E+01  0.8000E+01
     -6.063  0.0000E+00  0.0000E+00  0.8000E+01  0.8000E+01
     -5.915  0.0000E+00  0.0000E+00  0.8000E+01  0.8000E+01
     -5.766  0.0000E+00  0.0000E+00  0.8000E+01  0.8000E+01
     -5.618  0.0000E+00  0.0000E+00  0.8000E+01  0.8000E+01
     -5.470  0.0000E+00  0.0000E+00  0.8000E+01  0.8000E+01
     -5.321  0.0000E+00  0.0000E+00  0.8000E+01  0.8000E+01
     -5.173  0.0000E+00  0.0000E+00  0.8000E+01  0.8000E+01
     -5.025  0.0000E+00  0.0000E+00  0.8000E+01  0.8000E+01
     -4.877  0.0000E+00  0.0000E+00  0.8000E+01  0.8000E+01
     -4.728  0.0000E+00  0.0000E+00  0.8000E+01  0.8000E+01
     -4.580  0.0000E+00  0.0000E+00  0.8000E+01  0.8000E+01
     -4.432  0.0000E+00  0.0000E+00  0.8000E+01  0.8000E+01
     -4.284  0.0000E+00  0.0000E+00  0.8000E+01  0.8000E+01
     -4.135  0.0000E+00  0.0000E+00  0.8000E+01  0.8000E+01
     -3.987  0.0000E+00  0.0000E+00  0.8000E+01  0.8000E+01
     -3.839  0.0000E+00  0.0000E+00  0.8000E+01  0.8000E+01
     -3.690  0.0000E+00  0.0000E+00  0.8000E+01  0.8000E+01
     -3.542  0.0000E+00  0.0000E+00  0.8000E+01  0.8000E+01
     -3.394  0.0000E+00  0.0000E+00  0.8000E+01  0.8000E+01
     -3.246  0.0000E+00  0.0000E+00  0.8000E+01  0.8000E+01
     -3.097  0.0000E+00  0.0000E+00  0.8000E+01  0.8000E+01
     -2.949  0.1794E-05  0.1575E-05  0.8000E+01  0.8000E+01
     -2.801  0.5281E-04  0.4638E-04  0.8000E+01  0.8000E+01
     -2.653  0.1005E-02  0.8839E-03  0.8000E+01  0.8000E+01
     -2.504  0.1555E-01  0.1398E-01  0.8002E+01  0.8002E+01
     -2.356  0.8628E-01  0.8233E-01  0.8015E+01  0.8014E+01
     -2.208  0.1746E+00  0.1714E+00  0.8041E+01  0.8040E+01
     -2.059  0.2274E+00  0.2248E+00  0.8075E+01  0.8073E+01
     -1.911  0.2957E+00  0.2931E+00  0.8119E+01  0.8117E+01
     -1.763  0.3087E+00  0.3081E+00  0.8165E+01  0.8162E+01
     -1.615  0.3999E+00  0.3963E+00  0.8224E+01  0.8221E+01
     -1.466  0.4102E+00  0.4100E+00  0.8285E+01  0.8282E+01
     -1.318  0.4439E+00  0.4419E+00  0.8351E+01  0.8348E+01
     -1.170  0.5394E+00  0.5327E+00  0.8431E+01  0.8427E+01
     -1.022  0.5465E+00  0.5519E+00  0.8512E+01  0.8509E+01
     -0.873  0.5477E+00  0.5409E+00  0.8593E+01  0.8589E+01
     -0.725  0.7257E+00  0.7224E+00  0.8701E+01  0.8697E+01
     -0.577  0.6954E+00  0.6968E+00  0.8804E+01  0.8800E+01
     -0.429  0.7688E+00  0.7659E+00  0.8919E+01  0.8914E+01
     -0.280  0.9040E+00  0.8972E+00  0.9053E+01  0.9047E+01
     -0.132  0.9777E+00  0.9791E+00  0.9198E+01  0.9193E+01
      0.016  0.8232E+00  0.8296E+00  0.9320E+01  0.9316E+01
      0.165  0.9672E+00  0.9496E+00  0.9464E+01  0.9457E+01
      0.313  0.1034E+01  0.1042E+01  0.9618E+01  0.9612E+01
      0.461  0.9853E+00  0.9804E+00  0.9764E+01  0.9757E+01
      0.609  0.8889E+00  0.8933E+00  0.9896E+01  0.9890E+01
      0.758  0.1245E+01  0.1205E+01  0.1008E+02  0.1007E+02
      0.906  0.2195E+01  0.2172E+01  0.1041E+02  0.1039E+02
      1.054  0.2836E+01  0.2834E+01  0.1083E+02  0.1081E+02
      1.202  0.2555E+01  0.2593E+01  0.1121E+02  0.1120E+02
      1.351  0.1673E+01  0.1691E+01  0.1146E+02  0.1145E+02
      1.499  0.1372E+01  0.1379E+01  0.1166E+02  0.1165E+02
      1.647  0.1440E+01  0.1423E+01  0.1187E+02  0.1187E+02
      1.796  0.2019E+01  0.1998E+01  0.1217E+02  0.1216E+02
      1.944  0.2573E+01  0.2569E+01  0.1256E+02  0.1254E+02
      2.092  0.3310E+01  0.3320E+01  0.1305E+02  0.1304E+02
      2.240  0.2987E+01  0.3015E+01  0.1349E+02  0.1348E+02
      2.389  0.1916E+01  0.1924E+01  0.1378E+02  0.1377E+02
      2.537  0.1649E+01  0.1648E+01  0.1402E+02  0.1402E+02
      2.685  0.1802E+01  0.1795E+01  0.1429E+02  0.1428E+02
      2.833  0.2184E+01  0.2174E+01  0.1461E+02  0.1461E+02
      2.982  0.2323E+01  0.2328E+01  0.1496E+02  0.1495E+02
      3.130  0.1883E+01  0.1896E+01  0.1524E+02  0.1523E+02
      3.278  0.1547E+01  0.1551E+01  0.1547E+02  0.1546E+02
      3.426  0.1372E+01  0.1386E+01  0.1567E+02  0.1567E+02
      3.575  0.1237E+01  0.1257E+01  0.1586E+02  0.1586E+02
      3.723  0.6194E+00  0.6105E+00  0.1595E+02  0.1595E+02
      3.871  0.2081E+00  0.2097E+00  0.1598E+02  0.1598E+02
      4.020  0.1146E+00  0.1210E+00  0.1600E+02  0.1600E+02
      4.168  0.1363E-01  0.1537E-01  0.1600E+02  0.1600E+02
      4.316  0.0000E+00  0.1954E-03  0.1600E+02  0.1600E+02
      4.464  0.0000E+00  0.0000E+00  0.1600E+02  0.1600E+02
      4.613  0.0000E+00  0.0000E+00  0.1600E+02  0.1600E+02
      4.761  0.0000E+00  0.0000E+00  0.1600E+02  0.1600E+02
      4.909  0.0000E+00  0.0000E+00  0.1600E+02  0.1600E+02
      5.057  0.0000E+00  0.0000E+00  0.1600E+02  0.1600E+02
      5.206  0.0000E+00  0.0000E+00  0.1600E+02  0.1600E+02
      5.354  0.0000E+00  0.0000E+00  0.1600E+02  0.1600E+02
      5.502  0.0000E+00  0.0000E+00  0.1600E+02  0.1600E+02
      5.651  0.0000E+00  0.0000E+00  0.1600E+02  0.1600E+02
      5.799  0.0000E+00  0.0000E+00  0.1600E+02  0.1600E+02
      5.947  0.0000E+00  0.0000E+00  0.1600E+02  0.1600E+02
      5.94708386    -38.53387936  301      0.71000515      1.00000000
    -38.534  0.0000E+00  0.0000E+00  0.0000E+00  0.0000E+00  0.0000E+00  0.0000E+00  0.0000E+00  0.0000E+00  0.0000E+00  0.0000E+00  0.0000E+00  0.0000E+00  0.0000E+00  0.0000E+00  0.0000E+00  0.0000E+00  0.0000E+00  0.0000E+00
    -38.386  0.0000E+00  0.0000E+00  0.0000E+00  0.0000E+00  0.0000E+00  0.0000E+00  0.0000E+00  0.0000E+00  0.0000E+00  0.0000E+00  0.0000E+00  0.0000E+00  0.0000E+00  0.0000E+00  0.0000E+00  0.0000E+00  0.0000E+00  0.0000E+00
    -38.237  0.0000E+00  0.0000E+00  0.0000E+00  0.0000E+00  0.0000E+00  0.0000E+00  0.0000E+00  0.0000E+00  0.0000E+00  0.0000E+00  0.0000E+00  0.0000E+00  0.0000E+00  0.0000E+00  0.0000E+00  0.0000E+00  0.0000E+00  0.0000E+00
    -38.089  0.0000E+00  0.0000E+00  0.0000E+00  0.0000E+00  0.0000E+00  0.0000E+00  0.0000E+00  0.0000E+00  0.0000E+00  0.0000E+00  0.0000E+00  0.0000E+00  0.0000E+00  0.0000E+00  0.0000E+00  0.0000E+00  0.0000E+00  0.0000E+00
    -37.941  0.0000E+00  0.0000E+00  0.0000E+00  0.0000E+00  0.0000E+00  0.0000E+00  0.0000E+00  0.0000E+00  0.0000E+00  0.0000E+00  0.0000E+00  0.0000E+00  0.0000E+00  0.0000E+00  0.0000E+00  0.0000E+00  0.0000E+00  0.0000E+00
    -37.793  0.0000E+00  0.0000E+00  0.0000E+00  0.0000E+00  0.0000E+00  0.0000E+00  0.0000E+00  0.0000E+00  0.0000E+00  0.0000E+00  0.0000E+00  0.0000E+00  0.0000E+00  0.0000E+00  0.0000E+00  0.0000E+00  0.0000E+00  0.0000E+00
    -37.644  0.0000E+00  0.0000E+00  0.0000E+00  0.0000E+00  0.0000E+00  0.0000E+00  0.0000E+00  0.0000E+00  0.0000E+00  0.0000E+00  0.0000E+00  0.0000E+00  0.0000E+00  0.0000E+00  0.0000E+00  0.0000E+00  0.0000E+00  0.0000E+00
    -37.496  0.0000E+00  0.0000E+00  0.0000E+00  0.0000E+00  0.0000E+00  0.0000E+00  0.0000E+00  0.0000E+00  0.0000E+00  0.0000E+00  0.0000E+00  0.0000E+00  0.0000E+00  0.0000E+00  0.0000E+00  0.0000E+00  0.0000E+00  0.0000E+00
    -37.348  0.0000E+00  0.0000E+00  0.0000E+00  0.0000E+00  0.0000E+00  0.0000E+00  0.0000E+00  0.0000E+00  0.0000E+00  0.0000E+00  0.0000E+00  0.0000E+00  0.0000E+00  0.0000E+00  0.0000E+00  0.0000E+00  0.0000E+00  0.0000E+00
    -37.199  0.0000E+00  0.0000E+00  0.0000E+00  0.0000E+00  0.0000E+00  0.0000E+00  0.0000E+00  0.0000E+00  0.0000E+00  0.0000E+00  0.0000E+00  0.0000E+00  0.0000E+00  0.0000E+00  0.0000E+00  0.0000E+00  0.0000E+00  0.0000E+00
    -37.051  0.1287E-03  0.1271E-03  0.4760E-12  0.4581E-12  0.3929E-12  0.3785E-12  0.4760E-12  0.4581E-12  0.1275E-12  0.1268E-12  0.8294E-13  0.8184E-13  0.4095E-12  0.5165E-12  0.8294E-13  0.8184E-13  0.1275E-12  0.1268E-12
    -36.903  0.2367E-02  0.2337E-02  0.8756E-11  0.8426E-11  0.7228E-11  0.6963E-11  0.8756E-11  0.8426E-11  0.2345E-11  0.2332E-11  0.1526E-11  0.1505E-11  0.7533E-11  0.9501E-11  0.1526E-11  0.1505E-11  0.2345E-11  0.2332E-11
    -36.755  0.4560E-01  0.4502E-01  0.1686E-09  0.1623E-09  0.1392E-09  0.1341E-09  0.1686E-09  0.1623E-09  0.4517E-10  0.4493E-10  0.2939E-10  0.2900E-10  0.1451E-09  0.1830E-09  0.2939E-10  0.2900E-10  0.4517E-10  0.4493E-10
    -36.606  0.7749E+00  0.7663E+00  0.2862E-08  0.2759E-08  0.2362E-08  0.2279E-08  0.2862E-08  0.2759E-08  0.7678E-09  0.7650E-09  0.4997E-09  0.4939E-09  0.2465E-08  0.3114E-08  0.4997E-09  0.4939E-09  0.7678E-09  0.7650E-09
    -36.458  0.4028E+01  0.4021E+01  0.1476E-07  0.1437E-07  0.1218E-07  0.1186E-07  0.1476E-07  0.1437E-07  0.4000E-08  0.4022E-08  0.2609E-08  0.2603E-08  0.1280E-07  0.1632E-07  0.2609E-08  0.2603E-08  0.4000E-08  0.4022E-08
    -36.310  0.1637E+01  0.1652E+01  0.5946E-08  0.5852E-08  0.4899E-08  0.4826E-08  0.5946E-08  0.5852E-08  0.1630E-08  0.1657E-08  0.1065E-08  0.1075E-08  0.5192E-08  0.6694E-08  0.1065E-08  0.1075E-08  0.1630E-08  0.1657E-08
    -36.162  0.1149E+00  0.1163E+00  0.4160E-09  0.4109E-09  0.3427E-09  0.3387E-09  0.4160E-09  0.4109E-09  0.1144E-09  0.1167E-09  0.7483E-10  0.7576E-10  0.3641E-09  0.4710E-09  0.7483E-10  0.7576E-10  0.1144E-09  0.1167E-09
    -36.013  0.0000E+00  0.0000E+00  0.0000E+00  0.0000E+00  0.0000E+00  0.0000E+00  0.0000E+00  0.0000E+00  0.0000E+00  0.0000E+00  0.0000E+00  0.0000E+00  0.0000E+00  0.0000E+00  0.0000E+00  0.0000E+00  0.0000E+00  0.0000E+00
    -35.865  0.0000E+00  0.0000E+00  0.0000E+00  0.0000E+00  0.0000E+00  0.0000E+00  0.0000E+00  0.0000E+00  0.0000E+00  0.0000E+00  0.0000E+00  0.0000E+00  0.0000E+00  0.0000E+00  0.0000E+00  0.0000E+00  0.0000E+00  0.0000E+00
    -35.717  0.0000E+00  0.0000E+00  0.0000E+00  0.0000E+00  0.0000E+00  0.0000E+00  0.0000E+00  0.0000E+00  0.0000E+00  0.0000E+00  0.0000E+00  0.0000E+00  0.0000E+00  0.0000E+00  0.0000E+00  0.0000E+00  0.0000E+00  0.0000E+00
    -35.568  0.0000E+00  0.0000E+00  0.0000E+00  0.0000E+00  0.0000E+00  0.0000E+00  0.0000E+00  0.0000E+00  0.0000E+00  0.0000E+00  0.0000E+00  0.0000E+00  0.0000E+00  0.0000E+00  0.0000E+00  0.0000E+00  0.0000E+00  0.0000E+00
    -35.420  0.0000E+00  0.0000E+00  0.0000E+00  0.0000E+00  0.0000E+00  0.0000E+00  0.0000E+00  0.0000E+00  0.0000E+00  0.0000E+00  0.0000E+00  0.0000E+00  0.0000E+00  0.0000E+00  0.0000E+00  0.0000E+00  0.0000E+00  0.0000E+00
    -35.272  0.0000E+00  0.0000E+00  0.0000E+00  0.0000E+00  0.0000E+00  0.0000E+00  0.0000E+00  0.0000E+00  0.0000E+00  0.0000E+00  0.0000E+00  0.0000E+00  0.0000E+00  0.0000E+00  0.0000E+00  0.0000E+00  0.0000E+00  0.0000E+00
    -35.124  0.0000E+00  0.0000E+00  0.0000E+00  0.0000E+00  0.0000E+00  0.0000E+00  0.0000E+00  0.0000E+00  0.0000E+00  0.0000E+00  0.0000E+00  0.0000E+00  0.0000E+00  0.0000E+00  0.0000E+00  0.0000E+00  0.0000E+00  0.0000E+00
    -34.975  0.0000E+00  0.0000E+00  0.0000E+00  0.0000E+00  0.0000E+00  0.0000E+00  0.0000E+00  0.0000E+00  0.0000E+00  0.0000E+00  0.0000E+00  0.0000E+00  0.0000E+00  0.0000E+00  0.0000E+00  0.0000E+00  0.0000E+00  0.0000E+00
    -34.827  0.0000E+00  0.0000E+00  0.0000E+00  0.0000E+00  0.0000E+00  0.0000E+00  0.0000E+00  0.0000E+00  0.0000E+00  0.0000E+00  0.0000E+00  0.0000E+00  0.0000E+00  0.0000E+00  0.0000E+00  0.0000E+00  0.0000E+00  0.0000E+00
    -34.679  0.0000E+00  0.0000E+00  0.0000E+00  0.0000E+00  0.0000E+00  0.0000E+00  0.0000E+00  0.0000E+00  0.0000E+00  0.0000E+00  0.0000E+00  0.0000E+00  0.0000E+00  0.0000E+00  0.0000E+00  0.0000E+00  0.0000E+00  0.0000E+00
    -34.531  0.0000E+00  0.0000E+00  0.0000E+00  0.0000E+00  0.0000E+00  0.0000E+00  0.0000E+00  0.0000E+00  0.0000E+00  0.0000E+00  0.0000E+00  0.0000E+00  0.0000E+00  0.0000E+00  0.0000E+00  0.0000E+00  0.0000E+00  0.0000E+00
    -34.382  0.0000E+00  0.0000E+00  0.0000E+00  0.0000E+00  0.0000E+00  0.0000E+00  0.0000E+00  0.0000E+00  0.0000E+00  0.0000E+00  0.0000E+00  0.0000E+00  0.0000E+00  0.0000E+00  0.0000E+00  0.0000E+00  0.0000E+00  0.0000E+00
    -34.234  0.0000E+00  0.0000E+00  0.0000E+00  0.0000E+00  0.0000E+00  0.0000E+00  0.0000E+00  0.0000E+00  0.0000E+00  0.0000E+00  0.0000E+00  0.0000E+00  0.0000E+00  0.0000E+00  0.0000E+00  0.0000E+00  0.0000E+00  0.0000E+00
    -34.086  0.0000E+00  0.0000E+00  0.0000E+00  0.0000E+00  0.0000E+00  0.0000E+00  0.0000E+00  0.0000E+00  0.0000E+00  0.0000E+00  0.0000E+00  0.0000E+00  0.0000E+00  0.0000E+00  0.0000E+00  0.0000E+00  0.0000E+00  0.0000E+00
    -33.938  0.0000E+00  0.0000E+00  0.0000E+00  0.0000E+00  0.0000E+00  0.0000E+00  0.0000E+00  0.0000E+00  0.0000E+00  0.0000E+00  0.0000E+00  0.0000E+00  0.0000E+00  0.0000E+00  0.0000E+00  0.0000E+00  0.0000E+00  0.0000E+00
    -33.789  0.0000E+00  0.0000E+00  0.0000E+00  0.0000E+00  0.0000E+00  0.0000E+00  0.0000E+00  0.0000E+00  0.0000E+00  0.0000E+00  0.0000E+00  0.0000E+00  0.0000E+00  0.0000E+00  0.0000E+00  0.0000E+00  0.0000E+00  0.0000E+00
    -33.641  0.0000E+00  0.0000E+00  0.0000E+00  0.0000E+00  0.0000E+00  0.0000E+00  0.0000E+00  0.0000E+00  0.0000E+00  0.0000E+00  0.0000E+00  0.0000E+00  0.0000E+00  0.0000E+00  0.0000E+00  0.0000E+00  0.0000E+00  0.0000E+00
    -33.493  0.0000E+00  0.0000E+00  0.0000E+00  0.0000E+00  0.0000E+00  0.0000E+00  0.0000E+00  0.0000E+00  0.0000E+00  0.0000E+00  0.0000E+00  0.0000E+00  0.0000E+00  0.0000E+00  0.0000E+00  0.0000E+00  0.0000E+00  0.0000E+00
    -33.344  0.0000E+00  0.0000E+00  0.0000E+00  0.0000E+00  0.0000E+00  0.0000E+00  0.0000E+00  0.0000E+00  0.0000E+00  0.0000E+00  0.0000E+00  0.0000E+00  0.0000E+00  0.0000E+00  0.0000E+00  0.0000E+00  0.0000E+00  0.0000E+00
    -33.196  0.0000E+00  0.0000E+00  0.0000E+00  0.0000E+00  0.0000E+00  0.0000E+00  0.0000E+00  0.0000E+00  0.0000E+00  0.0000E+00  0.0000E+00  0.0000E+00  0.0000E+00  0.0000E+00  0.0000E+00  0.0000E+00  0.0000E+00  0.0000E+00
    -33.048  0.0000E+00  0.0000E+00  0.0000E+00  0.0000E+00  0.0000E+00  0.0000E+00  0.0000E+00  0.0000E+00  0.0000E+00  0.0000E+00  0.0000E+00  0.0000E+00  0.0000E+00  0.0000E+00  0.0000E+00  0.0000E+00  0.0000E+00  0.0000E+00
    -32.900  0.0000E+00  0.0000E+00  0.0000E+00  0.0000E+00  0.0000E+00  0.0000E+00  0.0000E+00  0.0000E+00  0.0000E+00  0.0000E+00  0.0000E+00  0.0000E+00  0.0000E+00  0.0000E+00  0.0000E+00  0.0000E+00  0.0000E+00  0.0000E+00
    -32.751  0.0000E+00  0.0000E+00  0.0000E+00  0.0000E+00  0.0000E+00  0.0000E+00  0.0000E+00  0.0000E+00  0.0000E+00  0.0000E+00  0.0000E+00  0.0000E+00  0.0000E+00  0.0000E+00  0.0000E+00  0.0000E+00  0.0000E+00  0.0000E+00
    -32.603  0.0000E+00  0.0000E+00  0.0000E+00  0.0000E+00  0.0000E+00  0.0000E+00  0.0000E+00  0.0000E+00  0.0000E+00  0.0000E+00  0.0000E+00  0.0000E+00  0.0000E+00  0.0000E+00  0.0000E+00  0.0000E+00  0.0000E+00  0.0000E+00
    -32.455  0.0000E+00  0.0000E+00  0.0000E+00  0.0000E+00  0.0000E+00  0.0000E+00  0.0000E+00  0.0000E+00  0.0000E+00  0.0000E+00  0.0000E+00  0.0000E+00  0.0000E+00  0.0000E+00  0.0000E+00  0.0000E+00  0.0000E+00  0.0000E+00
    -32.307  0.0000E+00  0.0000E+00  0.0000E+00  0.0000E+00  0.0000E+00  0.0000E+00  0.0000E+00  0.0000E+00  0.0000E+00  0.0000E+00  0.0000E+00  0.0000E+00  0.0000E+00  0.0000E+00  0.0000E+00  0.0000E+00  0.0000E+00  0.0000E+00
    -32.158  0.0000E+00  0.0000E+00  0.0000E+00  0.0000E+00  0.0000E+00  0.0000E+00  0.0000E+00  0.0000E+00  0.0000E+00  0.0000E+00  0.0000E+00  0.0000E+00  0.0000E+00  0.0000E+00  0.0000E+00  0.0000E+00  0.0000E+00  0.0000E+00
    -32.010  0.0000E+00  0.0000E+00  0.0000E+00  0.0000E+00  0.0000E+00  0.0000E+00  0.0000E+00  0.0000E+00  0.0000E+00  0.0000E+00  0.0000E+00  0.0000E+00  0.0000E+00  0.0000E+00  0.0000E+00  0.0000E+00  0.0000E+00  0.0000E+00
    -31.862  0.0000E+00  0.0000E+00  0.0000E+00  0.0000E+00  0.0000E+00  0.0000E+00  0.0000E+00  0.0000E+00  0.0000E+00  0.0000E+00  0.0000E+00  0.0000E+00  0.0000E+00  0.0000E+00  0.0000E+00  0.0000E+00  0.0000E+00  0.0000E+00
    -31.713  0.0000E+00  0.0000E+00  0.0000E+00  0.0000E+00  0.0000E+00  0.0000E+00  0.0000E+00  0.0000E+00  0.0000E+00  0.0000E+00  0.0000E+00  0.0000E+00  0.0000E+00  0.0000E+00  0.0000E+00  0.0000E+00  0.0000E+00  0.0000E+00
    -31.565  0.0000E+00  0.0000E+00  0.0000E+00  0.0000E+00  0.0000E+00  0.0000E+00  0.0000E+00  0.0000E+00  0.0000E+00  0.0000E+00  0.0000E+00  0.0000E+00  0.0000E+00  0.0000E+00  0.0000E+00  0.0000E+00  0.0000E+00  0.0000E+00
    -31.417  0.0000E+00  0.0000E+00  0.0000E+00  0.0000E+00  0.0000E+00  0.0000E+00  0.0000E+00  0.0000E+00  0.0000E+00  0.0000E+00  0.0000E+00  0.0000E+00  0.0000E+00  0.0000E+00  0.0000E+00  0.0000E+00  0.0000E+00  0.0000E+00
    -31.269  0.0000E+00  0.0000E+00  0.0000E+00  0.0000E+00  0.0000E+00  0.0000E+00  0.0000E+00  0.0000E+00  0.0000E+00  0.0000E+00  0.0000E+00  0.0000E+00  0.0000E+00  0.0000E+00  0.0000E+00  0.0000E+00  0.0000E+00  0.0000E+00
    -31.120  0.0000E+00  0.0000E+00  0.0000E+00  0.0000E+00  0.0000E+00  0.0000E+00  0.0000E+00  0.0000E+00  0.0000E+00  0.0000E+00  0.0000E+00  0.0000E+00  0.0000E+00  0.0000E+00  0.0000E+00  0.0000E+00  0.0000E+00  0.0000E+00