   2   2   1   0
  0.5197173E+02  0.4172931E-09  0.4172930E-09  0.6892618E-09  0.5000000E-15
  1.000000000000000E-004
  CAR 
 unknown system                          
      8.21601671    -36.76734902  301      1.80111677      1.00000000
    -36.767  0.0000E+00  0.0000E+00  0.0000E+00  0.0000E+00
    -36.617  0.0000E+00  0.0000E+00  0.0000E+00  0.0000E+00
    -36.467  0.0000E+00  0.0000E+00  0.0000E+00  0.0000E+00
    -36.318  0.0000E+00  0.0000E+00  0.0000E+00  0.0000E+00
    -36.168  0.0000E+00  0.0000E+00  0.0000E+00  0.0000E+00
    -36.018  0.0000E+00  0.0000E+00  0.0000E+00  0.0000E+00
    -35.868  0.0000E+00  0.0000E+00  0.0000E+00  0.0000E+00
    -35.718  0.0000E+00  0.0000E+00  0.0000E+00  0.0000E+00
    -35.568  0.0000E+00  0.0000E+00  0.0000E+00  0.0000E+00
    -35.418  0.0000E+00  0.0000E+00  0.0000E+00  0.0000E+00
    -35.268  0.6449E-05  0.1563E-05  0.9670E-06  0.2343E-06
    -35.118  0.3427E-02  0.3246E-02  0.5148E-03  0.4870E-03
    -34.968  0.6511E-01  0.6161E-01  0.1028E-01  0.9725E-02
    -34.818  0.1183E+01  0.1125E+01  0.1876E+00  0.1784E+00
    -34.668  0.7733E+01  0.7630E+01  0.1347E+01  0.1323E+01
    -34.518  0.4039E+01  0.4185E+01  0.1953E+01  0.1950E+01
    -34.368  0.2994E+00  0.3161E+00  0.1998E+01  0.1997E+01
    -34.218  0.0000E+00  0.0000E+00  0.2000E+01  0.2000E+01
    -34.068  0.0000E+00  0.0000E+00  0.2000E+01  0.2000E+01
    -33.918  0.0000E+00  0.0000E+00  0.2000E+01  0.2000E+01
    -33.768  0.0000E+00  0.0000E+00  0.2000E+01  0.2000E+01
    -33.619  0.0000E+00  0.0000E+00  0.2000E+01  0.2000E+01
    -33.469  0.0000E+00  0.0000E+00  0.2000E+01  0.2000E+01
    -33.319  0.0000E+00  0.0000E+00  0.2000E+01  0.2000E+01
    -33.169  0.0000E+00  0.0000E+00  0.2000E+01  0.2000E+01
    -33.019  0.0000E+00  0.0000E+00  0.2000E+01  0.2000E+01
    -32.869  0.0000E+00  0.0000E+00  0.2000E+01  0.2000E+01
    -32.719  0.0000E+00  0.0000E+00  0.2000E+01  0.2000E+01
    -32.569  0.0000E+00  0.0000E+00  0.2000E+01  0.2000E+01
    -32.419  0.0000E+00  0.0000E+00  0.2000E+01  0.2000E+01
    -32.269  0.0000E+00  0.0000E+00  0.2000E+01  0.2000E+01
    -32.119  0.0000E+00  0.0000E+00  0.2000E+01  0.2000E+01
    -31.969  0.0000E+00  0.0000E+00  0.2000E+01  0.2000E+01
    -31.819  0.0000E+00  0.0000E+00  0.2000E+01  0.2000E+01
    -31.669  0.0000E+00  0.0000E+00  0.2000E+01  0.2000E+01
    -31.519  0.0000E+00  0.0000E+00  0.2000E+01  0.2000E+01
    -31.369  0.0000E+00  0.0000E+00  0.2000E+01  0.2000E+01
    -31.219  0.0000E+00  0.0000E+00  0.2000E+01  0.2000E+01
    -31.069  0.0000E+00  0.0000E+00  0.2000E+01  0.2000E+01
    -30.920  0.0000E+00  0.0000E+00  0.2000E+01  0.2000E+01
    -30.770  0.0000E+00  0.0000E+00  0.2000E+01  0.2000E+01
    -30.620  0.0000E+00  0.0000E+00  0.2000E+01  0.2000E+01
    -30.470  0.0000E+00  0.0000E+00  0.2000E+01  0.2000E+01
    -30.320  0.0000E+00  0.0000E+00  0.2000E+01  0.2000E+01
    -30.170  0.0000E+00  0.0000E+00  0.2000E+01  0.2000E+01
    -30.020  0.0000E+00  0.0000E+00  0.2000E+01  0.2000E+01
    -29.870  0.0000E+00  0.0000E+00  0.2000E+01  0.2000E+01
    -29.720  0.0000E+00  0.0000E+00  0.2000E+01  0.2000E+01
    -29.570  0.0000E+00  0.0000E+00  0.2000E+01  0.2000E+01
    -29.420  0.0000E+00  0.0000E+00  0.2000E+01  0.2000E+01
    -29.270  0.0000E+00  0.0000E+00  0.2000E+01  0.2000E+01
    -29.120  0.0000E+00  0.0000E+00  0.2000E+01  0.2000E+01
    -28.970  0.0000E+00  0.0000E+00  0.2000E+01  0.2000E+01
    -28.820  0.0000E+00  0.0000E+00  0.2000E+01  0.2000E+01
    -28.670  0.0000E+00  0.0000E+00  0.2000E+01  0.2000E+01
    -28.520  0.0000E+00  0.0000E+00  0.2000E+01  0.2000E+01
    -28.370  0.0000E+00  0.0000E+00  0.2000E+01  0.2000E+01
    -28.221  0.0000E+00  0.0000E+00  0.2000E+01  0.2000E+01
    -28.071  0.0000E+00  0.0000E+00  0.2000E+01  0.2000E+01
    -27.921  0.0000E+00  0.0000E+00  0.2000E+01  0.2000E+01
    -27.771  0.0000E+00  0.0000E+00  0.2000E+01  0.2000E+01
    -27.621  0.0000E+00  0.0000E+00  0.2000E+01  0.2000E+01
    -27.471  0.0000E+00  0.0000E+00  0.2000E+01  0.2000E+01
    -27.321  0.0000E+00  0.0000E+00  0.2000E+01  0.2000E+01
    -27.171  0.0000E+00  0.0000E+00  0.2000E+01  0.2000E+01
    -27.021  0.0000E+00  0.0000E+00  0.2000E+01  0.2000E+01
    -26.871  0.0000E+00  0.0000E+00  0.2000E+01  0.2000E+01
    -26.721  0.0000E+00  0.0000E+00  0.2000E+01  0.2000E+01
    -26.571  0.0000E+00  0.0000E+00  0.2000E+01  0.2000E+01
    -26.421  0.0000E+00  0.0000E+00  0.2000E+01  0.2000E+01
    -26.271  0.0000E+00  0.0000E+00  0.2000E+01  0.2000E+01
    -26.121  0.0000E+00  0.0000E+00  0.2000E+01  0.2000E+01
    -25.971  0.0000E+00  0.0000E+00  0.2000E+01  0.2000E+01
    -25.821  0.0000E+00  0.0000E+00  0.2000E+01  0.2000E+01
    -25.671  0.0000E+00  0.0000E+00  0.2000E+01  0.2000E+01
    -25.522  0.0000E+00  0.0000E+00  0.2000E+01  0.2000E+01
    -25.372  0.0000E+00  0.0000E+00  0.2000E+01  0.2000E+01
    -25.222  0.0000E+00  0.0000E+00  0.2000E+01  0.2000E+01
    -25.072  0.0000E+00  0.0000E+00  0.2000E+01  0.2000E+01
    -24.922  0.0000E+00  0.0000E+00  0.2000E+01  0.2000E+01
    -24.772  0.0000E+00  0.0000E+00  0.2000E+01  0.2000E+01
    -24.622  0.0000E+00  0.0000E+00  0.2000E+01  0.2000E+01
    -24.472  0.0000E+00  0.0000E+00  0.2000E+01  0.2000E+01
    -24.322  0.0000E+00  0.0000E+00  0.2000E+01  0.2000E+01
    -24.172  0.0000E+00  0.0000E+00  0.2000E+01  0.2000E+01
    -24.022  0.0000E+00  0.0000E+00  0.2000E+01  0.2000E+01
    -23.872  0.0000E+00  0.0000E+00  0.2000E+01  0.2000E+01
    -23.722  0.0000E+00  0.0000E+00  0.2000E+01  0.2000E+01
    -23.572  0.0000E+00  0.0000E+00  0.2000E+01  0.2000E+01
    -23.422  0.0000E+00  0.0000E+00  0.2000E+01  0.2000E+01
    -23.272  0.0000E+00  0.0000E+00  0.2000E+01  0.2000E+01
    -23.122  0.0000E+00  0.0000E+00  0.2000E+01  0.2000E+01
    -22.972  0.0000E+00  0.0000E+00  0.2000E+01  0.2000E+01
    -22.823  0.0000E+00  0.0000E+00  0.2000E+01  0.2000E+01
    -22.673  0.0000E+00  0.0000E+00  0.2000E+01  0.2000E+01
    -22.523  0.0000E+00  0.0000E+00  0.2000E+01  0.2000E+01
    -22.373  0.0000E+00  0.0000E+00  0.2000E+01  0.2000E+01
    -22.223  0.0000E+00  0.0000E+00  0.2000E+01  0.2000E+01
    -22.073  0.0000E+00  0.0000E+00  0.2000E+01  0.2000E+01
    -21.923  0.0000E+00  0.0000E+00  0.2000E+01  0.2000E+01
    -21.773  0.0000E+00  0.0000E+00  0.2000E+01  0.2000E+01
    -21.623  0.0000E+00  0.0000E+00  0.2000E+01  0.2000E+01
    -21.473  0.0000E+00  0.0000E+00  0.2000E+01  0.2000E+01
    -21.323  0.0000E+00  0.0000E+00  0.2000E+01  0.2000E+01
    -21.173  0.0000E+00  0.0000E+00  0.2000E+01  0.2000E+01
    -21.023  0.0000E+00  0.0000E+00  0.2000E+01  0.2000E+01
    -20.873  0.0000E+00  0.0000E+00  0.2000E+01  0.2000E+01
    -20.723  0.0000E+00  0.0000E+00  0.2000E+01  0.2000E+01
    -20.573  0.0000E+00  0.0000E+00  0.2000E+01  0.2000E+01
    -20.423  0.0000E+00  0.0000E+00  0.2000E+01  0.2000E+01
    -20.273  0.0000E+00  0.0000E+00  0.2000E+01  0.2000E+01
    -20.124  0.0000E+00  0.0000E+00  0.2000E+01  0.2000E+01
    -19.974  0.0000E+00  0.0000E+00  0.2000E+01  0.2000E+01
    -19.824  0.0000E+00  0.0000E+00  0.2000E+01  0.2000E+01
    -19.674  0.0000E+00  0.0000E+00  0.2000E+01  0.2000E+01
    -19.524  0.0000E+00  0.0000E+00  0.2000E+01  0.2000E+01
    -19.374  0.0000E+00  0.0000E+00  0.2000E+01  0.2000E+01
    -19.224  0.0000E+00  0.0000E+00  0.2000E+01  0.2000E+01
    -19.074  0.0000E+00  0.0000E+00  0.2000E+01  0.2000E+01
    -18.924  0.0000E+00  0.0000E+00  0.2000E+01  0.2000E+01
    -18.774  0.0000E+00  0.0000E+00  0.2000E+01  0.2000E+01
    -18.624  0.0000E+00  0.0000E+00  0.2000E+01  0.2000E+01
    -18.474  0.0000E+00  0.0000E+00  0.2000E+01  0.2000E+01
    -18.324  0.0000E+00  0.0000E+00  0.2000E+01  0.2000E+01
    -18.174  0.0000E+00  0.0000E+00  0.2000E+01  0.2000E+01
    -18.024  0.0000E+00  0.0000E+00  0.2000E+01  0.2000E+01
    -17.874  0.0000E+00  0.0000E+00  0.2000E+01  0.2000E+01
    -17.724  0.0000E+00  0.0000E+00  0.2000E+01  0.2000E+01
    -17.574  0.0000E+00  0.0000E+00  0.2000E+01  0.2000E+01
    -17.425  0.0000E+00  0.0000E+00  0.2000E+01  0.2000E+01
    -17.275  0.7913E-03  0.7394E-03  0.2000E+01  0.2000E+01
    -17.125  0.1806E-01  0.1699E-01  0.2003E+01  0.2003E+01
    -16.975  0.3505E+00  0.3301E+00  0.2055E+01  0.2052E+01
    -16.825  0.4864E+01  0.4653E+01  0.2785E+01  0.2750E+01
    -16.675  0.1816E+02  0.1792E+02  0.5508E+01  0.5436E+01
    -16.525  0.1464E+02  0.1500E+02  0.7703E+01  0.7685E+01
    -16.375  0.1836E+01  0.1953E+01  0.7984E+01  0.7983E+01
    -16.225  0.2290E-01  0.2863E-01  0.8000E+01  0.8000E+01
    -16.075  0.0000E+00  0.0000E+00  0.8000E+01  0.8000E+01
    -15.925  0.0000E+00  0.0000E+00  0.8000E+01  0.8000E+01
    -15.775  0.0000E+00  0.0000E+00  0.8000E+01  0.8000E+01
    -15.625  0.0000E+00  0.0000E+00  0.8000E+01  0.8000E+01
    -15.475  0.0000E+00  0.0000E+00  0.8000E+01  0.8000E+01
    -15.325  0.0000E+00  0.0000E+00  0.8000E+01  0.8000E+01
    -15.175  0.0000E+00  0.0000E+00  0.8000E+01  0.8000E+01
    -15.025  0.0000E+00  0.0000E+00  0.8000E+01  0.8000E+01
    -14.875  0.0000E+00  0.0000E+00  0.8000E+01  0.8000E+01
    -14.725  0.0000E+00  0.0000E+00  0.8000E+01  0.8000E+01
    -14.576  0.0000E+00  0.0000E+00  0.8000E+01  0.8000E+01
    -14.426  0.0000E+00  0.0000E+00  0.8000E+01  0.8000E+01
    -14.276  0.0000E+00  0.0000E+00  0.8000E+01  0.8000E+01
    -14.126  0.0000E+00  0.0000E+00  0.8000E+01  0.8000E+01
    -13.976  0.0000E+00  0.0000E+00  0.8000E+01  0.8000E+01
    -13.826  0.0000E+00  0.0000E+00  0.8000E+01  0.8000E+01
    -13.676  0.0000E+00  0.0000E+00  0.8000E+01  0.8000E+01
    -13.526  0.0000E+00  0.0000E+00  0.8000E+01  0.8000E+01
    -13.376  0.0000E+00  0.0000E+00  0.8000E+01  0.8000E+01
    -13.226  0.0000E+00  0.0000E+00  0.8000E+01  0.8000E+01
    -13.076  0.0000E+00  0.0000E+00  0.8000E+01  0.8000E+01
    -12.926  0.0000E+00  0.0000E+00  0.8000E+01  0.8000E+01
    -12.776  0.0000E+00  0.0000E+00  0.8000E+01  0.8000E+01
    -12.626  0.0000E+00  0.0000E+00  0.8000E+01  0.8000E+01
    -12.476  0.0000E+00  0.0000E+00  0.8000E+01  0.8000E+01
    -12.326  0.0000E+00  0.0000E+00  0.8000E+01  0.8000E+01
    -12.176  0.0000E+00  0.0000E+00  0.8000E+01  0.8000E+01
    -12.026  0.0000E+00  0.0000E+00  0.8000E+01  0.8000E+01
    -11.877  0.0000E+00  0.0000E+00  0.8000E+01  0.8000E+01
    -11.727  0.0000E+00  0.0000E+00  0.8000E+01  0.8000E+01
    -11.577  0.0000E+00  0.0000E+00  0.8000E+01  0.8000E+01
    -11.427  0.0000E+00  0.0000E+00  0.8000E+01  0.8000E+01
    -11.277  0.0000E+00  0.0000E+00  0.8000E+01  0.8000E+01
    -11.127  0.0000E+00  0.0000E+00  0.8000E+01  0.8000E+01
    -10.977  0.0000E+00  0.0000E+00  0.8000E+01  0.8000E+01
    -10.827  0.0000E+00  0.0000E+00  0.8000E+01  0.8000E+01
    -10.677  0.0000E+00  0.0000E+00  0.8000E+01  0.8000E+01
    -10.527  0.0000E+00  0.0000E+00  0.8000E+01  0.8000E+01
    -10.377  0.0000E+00  0.0000E+00  0.8000E+01  0.8000E+01
    -10.227  0.0000E+00  0.0000E+00  0.8000E+01  0.8000E+01
    -10.077  0.0000E+00  0.0000E+00  0.8000E+01  0.8000E+01
     -9.927  0.0000E+00  0.0000E+00  0.8000E+01  0.8000E+01
     -9.777  0.0000E+00  0.0000E+00  0.8000E+01  0.8000E+01
     -9.627  0.0000E+00  0.0000E+00  0.8000E+01  0.8000E+01
     -9.477  0.0000E+00  0.0000E+00  0.8000E+01  0.8000E+01
     -9.327  0.0000E+00  0.0000E+00  0.8000E+01  0.8000E+01
     -9.178  0.0000E+00  0.0000E+00  0.8000E+01  0.8000E+01
     -9.028  0.0000E+00  0.0000E+00  0.8000E+01  0.8000E+01
     -8.878  0.0000E+00  0.0000E+00  0.8000E+01  0.8000E+01
     -8.728  0.0000E+00  0.0000E+00  0.8000E+01  0.8000E+01
     -8.578  0.0000E+00  0.0000E+00  0.8000E+01  0.8000E+01
     -8.428  0.0000E+00  0.0000E+00  0.8000E+01  0.8000E+01
     -8.278  0.0000E+00  0.0000E+00  0.8000E+01  0.8000E+01
     -8.128  0.0000E+00  0.0000E+00  0.8000E+01  0.8000E+01
     -7.978  0.0000E+00  0.0000E+00  0.8000E+01  0.8000E+01
     -7.828  0.0000E+00  0.0000E+00  0.8000E+01  0.8000E+01
     -7.678  0.0000E+00  0.0000E+00  0.8000E+01  0.8000E+01
     -7.528  0.0000E+00  0.0000E+00  0.8000E+01  0.8000E+01
     -7.378  0.0000E+00  0.0000E+00  0.8000E+01  0.8000E+01
     -7.228  0.0000E+00  0.0000E+00  0.8000E+01  0.8000E+01
     -7.078  0.0000E+00  0.0000E+00  0.8000E+01  0.8000E+01
     -6.928  0.0000E+00  0.0000E+00  0.8000E+01  0.8000E+01
     -6.778  0.0000E+00  0.0000E+00  0.8000E+01  0.8000E+01
     -6.628  0.0000E+00  0.0000E+00  0.8000E+01  0.8000E+01
     -6.479  0.0000E+00  0.0000E+00  0.8000E+01  0.8000E+01
     -6.329  0.0000E+00  0.0000E+00  0.8000E+01  0.8000E+01
     -6.179  0.0000E+00  0.0000E+00  0.8000E+01  0.8000E+01
     -6.029  0.0000E+00  0.0000E+00  0.8000E+01  0.8000E+01
     -5.879  0.0000E+00  0.0000E+00  0.8000E+01  0.8000E+01
     -5.729  0.0000E+00  0.0000E+00  0.8000E+01  0.8000E+01
     -5.579  0.0000E+00  0.0000E+00  0.8000E+01  0.8000E+01
     -5.429  0.0000E+00  0.0000E+00  0.8000E+01  0.8000E+01
     -5.279  0.0000E+00  0.0000E+00  0.8000E+01  0.8000E+01
     -5.129  0.0000E+00  0.0000E+00  0.8000E+01  0.8000E+01
     -4.979  0.0000E+00  0.0000E+00  0.8000E+01  0.8000E+01
     -4.829  0.0000E+00  0.0000E+00  0.8000E+01  0.8000E+01
     -4.679  0.0000E+00  0.0000E+00  0.8000E+01  0.8000E+01
     -4.529  0.0000E+00  0.0000E+00  0.8000E+01  0.8000E+01
     -4.379  0.0000E+00  0.0000E+00  0.8000E+01  0.8000E+01
     -4.229  0.0000E+00  0.0000E+00  0.8000E+01  0.8000E+01
     -4.079  0.0000E+00  0.0000E+00  0.8000E+01  0.8000E+01
     -3.929  0.0000E+00  0.0000E+00  0.8000E+01  0.8000E+01
     -3.780  0.0000E+00  0.0000E+00  0.8000E+01  0.8000E+01
     -3.630  0.0000E+00  0.0000E+00  0.8000E+01  0.8000E+01
     -3.480  0.0000E+00  0.0000E+00  0.8000E+01  0.8000E+01
     -3.330  0.0000E+00  0.0000E+00  0.8000E+01  0.8000E+01
     -3.180  0.0000E+00  0.0000E+00  0.8000E+01  0.8000E+01
     -3.030  0.0000E+00  0.0000E+00  0.8000E+01  0.8000E+01
     -2.880  0.0000E+00  0.0000E+00  0.8000E+01  0.8000E+01
     -2.730  0.0000E+00  0.0000E+00  0.8000E+01  0.8000E+01
     -2.580  0.0000E+00  0.0000E+00  0.8000E+01  0.8000E+01
     -2.430  0.6392E-06  0.4245E-06  0.8000E+01  0.8000E+01
     -2.280  0.2509E-04  0.1665E-04  0.8000E+01  0.8000E+01
     -2.130  0.4968E-03  0.3311E-03  0.8000E+01  0.8000E+01
     -1.980  0.8082E-02  0.5710E-02  0.8001E+01  0.8001E+01
     -1.830  0.5165E-01  0.4361E-01  0.8009E+01  0.8007E+01
     -1.680  0.1015E+00  0.9410E-01  0.8024E+01  0.8022E+01
     -1.530  0.1494E+00  0.1469E+00  0.8047E+01  0.8044E+01
     -1.380  0.1691E+00  0.1634E+00  0.8072E+01  0.8068E+01
     -1.230  0.2163E+00  0.2103E+00  0.8105E+01  0.8100E+01
     -1.081  0.2453E+00  0.2486E+00  0.8141E+01  0.8137E+01
     -0.931  0.2354E+00  0.2234E+00  0.8177E+01  0.8171E+01
     -0.781  0.3362E+00  0.3327E+00  0.8227E+01  0.8220E+01
     -0.631  0.3178E+00  0.3190E+00  0.8275E+01  0.8268E+01
     -0.481  0.3444E+00  0.3382E+00  0.8327E+01  0.8319E+01
     -0.331  0.3689E+00  0.3630E+00  0.8382E+01  0.8374E+01
     -0.181  0.5087E+00  0.4978E+00  0.8458E+01  0.8448E+01
     -0.031  0.4320E+00  0.4428E+00  0.8523E+01  0.8515E+01
      0.119  0.4419E+00  0.4292E+00  0.8590E+01  0.8579E+01
      0.269  0.6503E+00  0.6291E+00  0.8687E+01  0.8674E+01
      0.419  0.6361E+00  0.6490E+00  0.8783E+01  0.8771E+01
      0.569  0.6971E+00  0.6834E+00  0.8887E+01  0.8874E+01
      0.719  0.7845E+00  0.7749E+00  0.9005E+01  0.8990E+01
      0.869  0.9554E+00  0.9277E+00  0.9149E+01  0.9130E+01
      1.019  0.9619E+00  0.9807E+00  0.9293E+01  0.9277E+01
      1.169  0.7766E+00  0.7576E+00  0.9410E+01  0.9391E+01
      1.319  0.1000E+01  0.9787E+00  0.9560E+01  0.9538E+01
      1.469  0.9377E+00  0.9329E+00  0.9701E+01  0.9678E+01
      1.618  0.9279E+00  0.9552E+00  0.9841E+01  0.9821E+01
      1.768  0.9034E+00  0.8036E+00  0.9977E+01  0.9942E+01
      1.918  0.1553E+01  0.1481E+01  0.1021E+02  0.1016E+02
      2.068  0.2471E+01  0.2560E+01  0.1058E+02  0.1055E+02
      2.218  0.2943E+01  0.3025E+01  0.1102E+02  0.1100E+02
      2.368  0.2052E+01  0.2106E+01  0.1133E+02  0.1132E+02
      2.518  0.1354E+01  0.1349E+01  0.1153E+02  0.1152E+02
      2.668  0.9846E+00  0.9933E+00  0.1168E+02  0.1167E+02
      2.818  0.1096E+01  0.1052E+01  0.1185E+02  0.1183E+02
      2.968  0.1239E+01  0.1183E+01  0.1203E+02  0.1201E+02
      3.118  0.1844E+01  0.1759E+01  0.1231E+02  0.1227E+02
      3.268  0.2216E+01  0.2250E+01  0.1264E+02  0.1261E+02
      3.418  0.2250E+01  0.2301E+01  0.1298E+02  0.1296E+02
      3.568  0.2582E+01  0.2639E+01  0.1337E+02  0.1335E+02
      3.718  0.1834E+01  0.1874E+01  0.1364E+02  0.1363E+02
      3.868  0.1440E+01  0.1431E+01  0.1386E+02  0.1385E+02
      4.018  0.1353E+01  0.1318E+01  0.1407E+02  0.1405E+02
      4.168  0.1469E+01  0.1447E+01  0.1429E+02  0.1426E+02
      4.317  0.1566E+01  0.1554E+01  0.1452E+02  0.1450E+02
      4.467  0.1739E+01  0.1728E+01  0.1478E+02  0.1476E+02
      4.617  0.1515E+01  0.1571E+01  0.1501E+02  0.1499E+02
      4.767  0.1218E+01  0.1233E+01  0.1519E+02  0.1518E+02
      4.917  0.1052E+01  0.1066E+01  0.1535E+02  0.1534E+02
      5.067  0.8085E+00  0.8264E+00  0.1547E+02  0.1546E+02
      5.217  0.7102E+00  0.7150E+00  0.1558E+02  0.1557E+02
      5.367  0.6671E+00  0.6785E+00  0.1568E+02  0.1567E+02
      5.517  0.5996E+00  0.6114E+00  0.1577E+02  0.1577E+02
      5.667  0.5589E+00  0.5460E+00  0.1585E+02  0.1585E+02
      5.817  0.5295E+00  0.5442E+00  0.1593E+02  0.1593E+02
      5.967  0.2306E+00  0.2443E+00  0.1597E+02  0.1597E+02
      6.117  0.1082E+00  0.1241E+00  0.1599E+02  0.1599E+02
      6.267  0.8698E-01  0.8708E-01  0.1600E+02  0.1600E+02
      6.417  0.1109E-01  0.1021E-01  0.1600E+02  0.1600E+02
      6.567  0.1834E-03  0.0000E+00  0.1600E+02  0.1600E+02
      6.717  0.0000E+00  0.0000E+00  0.1600E+02  0.1600E+02
      6.867  0.0000E+00  0.0000E+00  0.1600E+02  0.1600E+02
      7.016  0.0000E+00  0.0000E+00  0.1600E+02  0.1600E+02
      7.166  0.0000E+00  0.0000E+00  0.1600E+02  0.1600E+02
      7.316  0.0000E+00  0.0000E+00  0.1600E+02  0.1600E+02
      7.466  0.0000E+00  0.0000E+00  0.1600E+02  0.1600E+02
      7.616  0.0000E+00  0.0000E+00  0.1600E+02  0.1600E+02
      7.766  0.0000E+00  0.0000E+00  0.1600E+02  0.1600E+02
      7.916  0.0000E+00  0.0000E+00  0.1600E+02  0.1600E+02
      8.066  0.0000E+00  0.0000E+00  0.1600E+02  0.1600E+02
      8.216  0.0000E+00  0.0000E+00  0.1600E+02  0.1600E+02
      8.21601671    -36.76734902  301      1.80111677      1.00000000
    -36.767  0.0000E+00  0.0000E+00  0.0000E+00  0.0000E+00  0.0000E+00  0.0000E+00  0.0000E+00  0.0000E+00  0.0000E+00  0.0000E+00  0.0000E+00  0.0000E+00  0.0000E+00  0.0000E+00  0.0000E+00  0.0000E+00  0.0000E+00  0.0000E+00
    -36.617  0.0000E+00  0.0000E+00  0.0000E+00  0.0000E+00  0.0000E+00  0.0000E+00  0.0000E+00  0.0000E+00  0.0000E+00  0.0000E+00  0.0000E+00  0.0000E+00  0.0000E+00  0.0000E+00  0.0000E+00  0.0000E+00  0.0000E+00  0.0000E+00
    -36.467  0.0000E+00  0.0000E+00  0.0000E+00  0.0000E+00  0.0000E+00  0.0000E+00  0.0000E+00  0.0000E+00  0.0000E+00  0.0000E+00  0.0000E+00  0.0000E+00  0.0000E+00  0.0000E+00  0.0000E+00  0.0000E+00  0.0000E+00  0.0000E+00
    -36.318  0.0000E+00  0.0000E+00  0.0000E+00  0.0000E+00  0.0000E+00  0.0000E+00  0.0000E+00  0.0000E+00  0.0000E+00  0.0000E+00  0.0000E+00  0.0000E+00  0.0000E+00  0.0000E+00  0.0000E+00  0.0000E+00  0.0000E+00  0.0000E+00
    -36.168  0.0000E+00  0.0000E+00  0.0000E+00  0.0000E+00  0.0000E+00  0.0000E+00  0.0000E+00  0.0000E+00  0.0000E+00  0.0000E+00  0.0000E+00  0.0000E+00  0.0000E+00  0.0000E+00  0.0000E+00  0.0000E+00  0.0000E+00  0.0000E+00
    -36.018  0.0000E+00  0.0000E+00  0.0000E+00  0.0000E+00  0.0000E+00  0.0000E+00  0.0000E+00  0.0000E+00  0.0000E+00  0.0000E+00  0.0000E+00  0.0000E+00  0.0000E+00  0.0000E+00  0.0000E+00  0.0000E+00  0.0000E+00  0.0000E+00
    -35.868  0.0000E+00  0.0000E+00  0.0000E+00  0.0000E+00  0.0000E+00  0.0000E+00  0.0000E+00  0.0000E+00  0.0000E+00  0.0000E+00  0.0000E+00  0.0000E+00  0.0000E+00  0.0000E+00  0.0000E+00  0.0000E+00  0.0000E+00  0.0000E+00
    -35.718  0.0000E+00  0.0000E+00  0.0000E+00  0.0000E+00  0.0000E+00  0.0000E+00  0.0000E+00  0.0000E+00  0.0000E+00  0.0000E+00  0.0000E+00  0.0000E+00  0.0000E+00  0.0000E+00  0.0000E+00  0.0000E+00  0.0000E+00  0.0000E+00
    -35.568  0.0000E+00  0.0000E+00  0.0000E+00  0.0000E+00  0.0000E+00  0.0000E+00  0.0000E+00  0.0000E+00  0.0000E+00  0.0000E+00  0.0000E+00  0.0000E+00  0.0000E+00  0.0000E+00  0.0000E+00  0.0000E+00  0.0000E+00  0.0000E+00
    -35.418  0.0000E+00  0.0000E+00  0.0000E+00  0.0000E+00  0.0000E+00  0.0000E+00  0.0000E+00  0.0000E+00  0.0000E+00  0.0000E+00  0.0000E+00  0.0000E+00  0.0000E+00  0.0000E+00  0.0000E+00  0.0000E+00  0.0000E+00  0.0000E+00
    -35.268  0.3154E-05  0.7642E-06  0.4347E-12  0.4723E-13  0.3627E-12  0.3664E-13  0.4347E-12  0.4723E-13  0.8548E-14  0.4822E-15  0.3766E-14  0.1696E-15  0.6483E-13  0.2979E-13  0.3766E-14  0.1696E-15  0.8548E-14  0.4822E-15
    -35.118  0.1678E-02  0.1590E-02  0.2249E-09  0.2130E-09  0.1943E-09  0.1832E-09  0.2249E-09  0.2130E-09  0.5620E-10  0.5329E-10  0.3652E-10  0.3411E-10  0.8762E-10  0.1097E-09  0.3652E-10  0.3411E-10  0.5620E-10  0.5329E-10
    -34.968  0.3189E-01  0.3017E-01  0.4272E-08  0.4040E-08  0.3690E-08  0.3474E-08  0.4272E-08  0.4040E-08  0.1066E-08  0.1011E-08  0.6927E-09  0.6471E-09  0.1663E-08  0.2081E-08  0.6927E-09  0.6471E-09  0.1066E-08  0.1011E-08
    -34.818  0.5793E+00  0.5509E+00  0.7717E-07  0.7337E-07  0.6664E-07  0.6307E-07  0.7717E-07  0.7337E-07  0.1941E-07  0.1850E-07  0.1263E-07  0.1186E-07  0.3019E-07  0.3797E-07  0.1263E-07  0.1186E-07  0.1941E-07  0.1850E-07
    -34.668  0.3787E+01  0.3737E+01  0.4850E-06  0.4789E-06  0.4175E-06  0.4103E-06  0.4850E-06  0.4789E-06  0.1287E-06  0.1272E-06  0.8461E-07  0.8240E-07  0.1963E-06  0.2558E-06  0.8461E-07  0.8240E-07  0.1287E-06  0.1272E-06
    -34.518  0.1978E+01  0.2050E+01  0.2404E-06  0.2493E-06  0.2061E-06  0.2127E-06  0.2404E-06  0.2493E-06  0.6808E-07  0.7072E-07  0.4538E-07  0.4643E-07  0.1013E-06  0.1386E-06  0.4538E-07  0.4643E-07  0.6808E-07  0.7072E-07
    -34.368  0.1467E+00  0.1548E+00  0.1749E-07  0.1846E-07  0.1497E-07  0.1572E-07  0.1749E-07  0.1846E-07  0.5065E-08  0.5361E-08  0.3392E-08  0.3537E-08  0.7474E-08  0.1041E-07  0.3392E-08  0.3537E-08  0.5065E-08  0.5361E-08
    -34.218  0.0000E+00  0.0000E+00  0.0000E+00  0.0000E+00  0.0000E+00  0.0000E+00  0.0000E+00  0.0000E+00  0.0000E+00  0.0000E+00  0.0000E+00  0.0000E+00  0.0000E+00  0.0000E+00  0.0000E+00  0.0000E+00  0.0000E+00  0.0000E+00
    -34.068  0.0000E+00  0.0000E+00  0.0000E+00  0.0000E+00  0.0000E+00  0.0000E+00  0.0000E+00  0.0000E+00  0.0000E+00  0.0000E+00  0.0000E+00  0.0000E+00  0.0000E+00  0.0000E+00  0.0000E+00  0.0000E+00  0.0000E+00  0.0000E+00
    -33.918  0.0000E+00  0.0000E+00  0.0000E+00  0.0000E+00  0.0000E+00  0.0000E+00  0.0000E+00  0.0000E+00  0.0000E+00  0.0000E+00  0.0000E+00  0.0000E+00  0.0000E+00  0.0000E+00  0.0000E+00  0.0000E+00  0.0000E+00  0.0000E+00
    -33.768  0.0000E+00  0.0000E+00  0.0000E+00  0.0000E+00  0.0000E+00  0.0000E+00  0.0000E+00  0.0000E+00  0.0000E+00  0.0000E+00  0.0000E+00  0.0000E+00  0.0000E+00  0.0000E+00  0.0000E+00  0.0000E+00  0.0000E+00  0.0000E+00
    -33.619  0.0000E+00  0.0000E+00  0.0000E+00  0.0000E+00  0.0000E+00  0.0000E+00  0.0000E+00  0.0000E+00  0.0000E+00  0.0000E+00  0.0000E+00  0.0000E+00  0.0000E+00  0.0000E+00  0.0000E+00  0.0000E+00  0.0000E+00  0.0000E+00
    -33.469  0.0000E+00  0.0000E+00  0.0000E+00  0.0000E+00  0.0000E+00  0.0000E+00  0.0000E+00  0.0000E+00  0.0000E+00  0.0000E+00  0.0000E+00  0.0000E+00  0.0000E+00  0.0000E+00  0.0000E+00  0.0000E+00  0.0000E+00  0.0000E+00
    -33.319  0.0000E+00  0.0000E+00  0.0000E+00  0.0000E+00  0.0000E+00  0.0000E+00  0.0000E+00  0.0000E+00  0.0000E+00  0.0000E+00  0.0000E+00  0.0000E+00  0.0000E+00  0.0000E+00  0.0000E+00  0.0000E+00  0.0000E+00  0.0000E+00
    -33.169  0.0000E+00  0.0000E+00  0.0000E+00  0.0000E+00  0.0000E+00  0.0000E+00  0.0000E+00  0.0000E+00  0.0000E+00  0.0000E+00  0.0000E+00  0.0000E+00  0.0000E+00  0.0000E+00  0.0000E+00  0.0000E+00  0.0000E+00  0.0000E+00
    -33.019  0.0000E+00  0.0000E+00  0.0000E+00  0.0000E+00  0.0000E+00  0.0000E+00  0.0000E+00  0.0000E+00  0.0000E+00  0.0000E+00  0.0000E+00  0.0000E+00  0.0000E+00  0.0000E+00  0.0000E+00  0.0000E+00  0.0000E+00  0.0000E+00
    -32.869  0.0000E+00  0.0000E+00  0.0000E+00  0.0000E+00  0.0000E+00  0.0000E+00  0.0000E+00  0.0000E+00  0.0000E+00  0.0000E+00  0.0000E+00  0.0000E+00  0.0000E+00  0.0000E+00  0.0000E+00  0.0000E+00  0.0000E+00  0.0000E+00
    -32.719  0.0000E+00  0.0000E+00  0.0000E+00  0.0000E+00  0.0000E+00  0.0000E+00  0.0000E+00  0.0000E+00  0.0000E+00  0.0000E+00  0.0000E+00  0.0000E+00  0.0000E+00  0.0000E+00  0.0000E+00  0.0000E+00  0.0000E+00  0.0000E+00
    -32.569  0.0000E+00  0.0000E+00  0.0000E+00  0.0000E+00  0.0000E+00  0.0000E+00  0.0000E+00  0.0000E+00  0.0000E+00  0.0000E+00  0.0000E+00  0.0000E+00  0.0000E+00  0.0000E+00  0.0000E+00  0.0000E+00  0.0000E+00  0.0000E+00
    -32.419  0.0000E+00  0.0000E+00  0.0000E+00  0.0000E+00  0.0000E+00  0.0000E+00  0.0000E+00  0.0000E+00  0.0000E+00  0.0000E+00  0.0000E+00  0.0000E+00  0.0000E+00  0.0000E+00  0.0000E+00  0.0000E+00  0.0000E+00  0.0000E+00
    -32.269  0.0000E+00  0.0000E+00  0.0000E+00  0.0000E+00  0.0000E+00  0.0000E+00  0.0000E+00  0.0000E+00  0.0000E+00  0.0000E+00  0.0000E+00  0.0000E+00  0.0000E+00  0.0000E+00  0.0000E+00  0.0000E+00  0.0000E+00  0.0000E+00
    -32.119  0.0000E+00  0.0000E+00  0.0000E+00  0.0000E+00  0.0000E+00  0.0000E+00  0.0000E+00  0.0000E+00  0.0000E+00  0.0000E+00  0.0000E+00  0.0000E+00  0.0000E+00  0.0000E+00  0.0000E+00  0.0000E+00  0.0000E+00  0.0000E+00
    -31.969  0.0000E+00  0.0000E+00  0.0000E+00  0.0000E+00  0.0000E+00  0.0000E+00  0.0000E+00  0.0000E+00  0.0000E+00  0.0000E+00  0.0000E+00  0.0000E+00  0.0000E+00  0.0000E+00  0.0000E+00  0.0000E+00  0.0000E+00  0.0000E+00
    -31.819  0.0000E+00  0.0000E+00  0.0000E+00  0.0000E+00  0.0000E+00  0.0000E+00  0.0000E+00  0.0000E+00  0.0000E+00  0.0000E+00  0.0000E+00  0.0000E+00  0.0000E+00  0.0000E+00  0.0000E+00  0.0000E+00  0.0000E+00  0.0000E+00
    -31.669  0.0000E+00  0.0000E+00  0.0000E+00  0.0000E+00  0.0000E+00  0.0000E+00  0.0000E+00  0.0000E+00  0.0000E+00  0.0000E+00  0.0000E+00  0.0000E+00  0.0000E+00  0.0000E+00  0.0000E+00  0.0000E+00  0.0000E+00  0.0000E+00
    -31.519  0.0000E+00  0.0000E+00  0.0000E+00  0.0000E+00  0.0000E+00  0.0000E+00  0.0000E+00  0.0000E+00  0.0000E+00  0.0000E+00  0.0000E+00  0.0000E+00  0.0000E+00  0.0000E+00  0.0000E+00  0.0000E+00  0.0000E+00  0.0000E+00
    -31.369  0.0000E+00  0.0000E+00  0.0000E+00  0.0000E+00  0.0000E+00  0.0000E+00  0.0000E+00  0.0000E+00  0.0000E+00  0.0000E+00  0.0000E+00  0.0000E+00  0.0000E+00  0.0000E+00  0.0000E+00  0.0000E+00  0.0000E+00  0.0000E+00
    -31.219  0.0000E+00  0.0000E+00  0.0000E+00  0.0000E+00  0.0000E+00  0.0000E+00  0.0000E+00  0.0000E+00  0.0000E+00  0.0000E+00  0.0000E+00  0.0000E+00  0.0000E+00  0.0000E+00  0.0000E+00  0.0000E+00  0.0000E+00  0.0000E+00
    -31.069  0.0000E+00  0.0000E+00  0.0000E+00  0.0000E+00  0.0000E+00  0.0000E+00  0.0000E+00  0.0000E+00  0.0000E+00  0.0000E+00  0.0000E+00  0.0000E+00  0.0000E+00  0.0000E+00  0.0000E+00  0.0000E+00  0.0000E+00  0.0000E+00
    -30.920  0.0000E+00  0.0000E+00  0.0000E+00  0.0000E+00  0.0000E+00  0.0000E+00  0.0000E+00  0.0000E+00  0.0000E+00  0.0000E+00  0.0000E+00  0.0000E+00  0.0000E+00  0.0000E+00  0.0000E+00  0.0000E+00  0.0000E+00  0.0000E+00
    -30.770  0.0000E+00  0.0000E+00  0.0000E+00  0.0000E+00  0.0000E+00  0.0000E+00  0.0000E+00  0.0000E+00  0.0000E+00  0.0000E+00  0.0000E+00  0.0000E+00  0.0000E+00  0.0000E+00  0.0000E+00  0.0000E+00  0.0000E+00  0.0000E+00
    -30.620  0.0000E+00  0.0000E+00  0.0000E+00  0.0000E+00  0.0000E+00  0.0000E+00  0.0000E+00  0.0000E+00  0.0000E+00  0.0000E+00  0.0000E+00  0.0000E+00  0.0000E+00  0.0000E+00  0.0000E+00  0.0000E+00  0.0000E+00  0.0000E+00
    -30.470  0.0000E+00  0.0000E+00  0.0000E+00  0.0000E+00  0.0000E+00  0.0000E+00  0.0000E+00  0.0000E+00  0.0000E+00  0.0000E+00  0.0000E+00  0.0000E+00  0.0000E+00  0.0000E+00  0.0000E+00  0.0000E+00  0.0000E+00  0.0000E+00
    -30.320  0.0000E+00  0.0000E+00  0.0000E+00  0.0000E+00  0.0000E+00  0.0000E+00  0.0000E+00  0.0000E+00  0.0000E+00  0.0000E+00  0.0000E+00  0.0000E+00  0.0000E+00  0.0000E+00  0.0000E+00  0.0000E+00  0.0000E+00  0.0000E+00
    -30.170  0.0000E+00  0.0000E+00  0.0000E+00  0.0000E+00  0.0000E+00  0.0000E+00  0.0000E+00  0.0000E+00  0.0000E+00  0.0000E+00  0.0000E+00  0.0000E+00  0.0000E+00  0.0000E+00  0.0000E+00  0.0000E+00  0.0000E+00  0.0000E+00
    -30.020  0.0000E+00  0.0000E+00  0.0000E+00  0.0000E+00  0.0000E+00  0.0000E+00  0.0000E+00  0.0000E+00  0.0000E+00  0.0000E+00  0.0000E+00  0.0000E+00  0.0000E+00  0.0000E+00  0.0000E+00  0.0000E+00  0.0000E+00  0.0000E+00
    -29.870  0.0000E+00  0.0000E+00  0.0000E+00  0.0000E+00  0.0000E+00  0.0000E+00  0.0000E+00  0.0000E+00  0.0000E+00  0.0000E+00  0.0000E+00  0.0000E+00  0.0000E+00  0.0000E+00  0.0000E+00  0.0000E+00  0.0000E+00  0.0000E+00
    -29.720  0.0000E+00  0.0000E+00  0.0000E+00  0.0000E+00  0.0000E+00  0.0000E+00  0.0000E+00  0.0000E+00  0.0000E+00  0.0000E+00  0.0000E+00  0.0000E+00  0.0000E+00  0.0000E+00  0.0000E+00  0.0000E+00  0.0000E+00  0.0000E+00
    -29.570  0.0000E+00  0.0000E+00  0.0000E+00  0.0000E+00  0.0000E+00  0.0000E+00  0.0000E+00  0.0000E+00  0.0000E+00  0.0000E+00  0.0000E+00  0.0000E+00  0.0000E+00  0.0000E+00  0.0000E+00  0.0000E+00  0.0000E+00  0.0000E+00
    -29.420  0.0000E+00  0.0000E+00  0.0000E+00  0.0000E+00  0.0000E+00  0.0000E+00  0.0000E+00  0.0000E+00  0.0000E+00  0.0000E+00  0.0000E+00  0.0000E+00  0.0000E+00  0.0000E+00  0.0000E+00  0.0000E+00  0.0000E+00  0.0000E+00
    -29.270  0.0000E+00  0.0000E+00  0.0000E+00  0.0000E+00  0.0000E+00  0.0000E+00  0.0000E+00  0.0000E+00  0.0000E+00  0.0000E+00  0.0000E+00  0.0000E+00  0.0000E+00  0.0000E+00  0.0000E+00  0.0000E+00  0.0000E+00  0.0000E+00