   2   2   1   0
  0.5039694E+02  0.4130350E-09  0.4130349E-09  0.6822286E-09  0.5000000E-15
  1.000000000000000E-004
  CAR 
 unknown system                          
      8.45565638    -36.60043383  301      1.90860470      1.00000000
    -36.600  0.0000E+00  0.0000E+00  0.0000E+00  0.0000E+00
    -36.450  0.0000E+00  0.0000E+00  0.0000E+00  0.0000E+00
    -36.300  0.0000E+00  0.0000E+00  0.0000E+00  0.0000E+00
    -36.150  0.0000E+00  0.0000E+00  0.0000E+00  0.0000E+00
    -36.000  0.0000E+00  0.0000E+00  0.0000E+00  0.0000E+00
    -35.849  0.0000E+00  0.0000E+00  0.0000E+00  0.0000E+00
    -35.699  0.0000E+00  0.0000E+00  0.0000E+00  0.0000E+00
    -35.549  0.0000E+00  0.0000E+00  0.0000E+00  0.0000E+00
    -35.399  0.0000E+00  0.0000E+00  0.0000E+00  0.0000E+00
    -35.249  0.0000E+00  0.0000E+00  0.0000E+00  0.0000E+00
    -35.099  0.3976E-05  0.2213E-06  0.5971E-06  0.3324E-07
    -34.948  0.3200E-02  0.3017E-02  0.4812E-03  0.4531E-03
    -34.798  0.6109E-01  0.5754E-01  0.9656E-02  0.9095E-02
    -34.648  0.1121E+01  0.1061E+01  0.1780E+00  0.1685E+00
    -34.498  0.7621E+01  0.7504E+01  0.1322E+01  0.1295E+01
    -34.348  0.4180E+01  0.4340E+01  0.1950E+01  0.1947E+01
    -34.197  0.3145E+00  0.3335E+00  0.1997E+01  0.1997E+01
    -34.047  0.0000E+00  0.0000E+00  0.2000E+01  0.2000E+01
    -33.897  0.0000E+00  0.0000E+00  0.2000E+01  0.2000E+01
    -33.747  0.0000E+00  0.0000E+00  0.2000E+01  0.2000E+01
    -33.597  0.0000E+00  0.0000E+00  0.2000E+01  0.2000E+01
    -33.447  0.0000E+00  0.0000E+00  0.2000E+01  0.2000E+01
    -33.296  0.0000E+00  0.0000E+00  0.2000E+01  0.2000E+01
    -33.146  0.0000E+00  0.0000E+00  0.2000E+01  0.2000E+01
    -32.996  0.0000E+00  0.0000E+00  0.2000E+01  0.2000E+01
    -32.846  0.0000E+00  0.0000E+00  0.2000E+01  0.2000E+01
    -32.696  0.0000E+00  0.0000E+00  0.2000E+01  0.2000E+01
    -32.545  0.0000E+00  0.0000E+00  0.2000E+01  0.2000E+01
    -32.395  0.0000E+00  0.0000E+00  0.2000E+01  0.2000E+01
    -32.245  0.0000E+00  0.0000E+00  0.2000E+01  0.2000E+01
    -32.095  0.0000E+00  0.0000E+00  0.2000E+01  0.2000E+01
    -31.945  0.0000E+00  0.0000E+00  0.2000E+01  0.2000E+01
    -31.794  0.0000E+00  0.0000E+00  0.2000E+01  0.2000E+01
    -31.644  0.0000E+00  0.0000E+00  0.2000E+01  0.2000E+01
    -31.494  0.0000E+00  0.0000E+00  0.2000E+01  0.2000E+01
    -31.344  0.0000E+00  0.0000E+00  0.2000E+01  0.2000E+01
    -31.194  0.0000E+00  0.0000E+00  0.2000E+01  0.2000E+01
    -31.044  0.0000E+00  0.0000E+00  0.2000E+01  0.2000E+01
    -30.893  0.0000E+00  0.0000E+00  0.2000E+01  0.2000E+01
    -30.743  0.0000E+00  0.0000E+00  0.2000E+01  0.2000E+01
    -30.593  0.0000E+00  0.0000E+00  0.2000E+01  0.2000E+01
    -30.443  0.0000E+00  0.0000E+00  0.2000E+01  0.2000E+01
    -30.293  0.0000E+00  0.0000E+00  0.2000E+01  0.2000E+01
    -30.142  0.0000E+00  0.0000E+00  0.2000E+01  0.2000E+01
    -29.992  0.0000E+00  0.0000E+00  0.2000E+01  0.2000E+01
    -29.842  0.0000E+00  0.0000E+00  0.2000E+01  0.2000E+01
    -29.692  0.0000E+00  0.0000E+00  0.2000E+01  0.2000E+01
    -29.542  0.0000E+00  0.0000E+00  0.2000E+01  0.2000E+01
    -29.391  0.0000E+00  0.0000E+00  0.2000E+01  0.2000E+01
    -29.241  0.0000E+00  0.0000E+00  0.2000E+01  0.2000E+01
    -29.091  0.0000E+00  0.0000E+00  0.2000E+01  0.2000E+01
    -28.941  0.0000E+00  0.0000E+00  0.2000E+01  0.2000E+01
    -28.791  0.0000E+00  0.0000E+00  0.2000E+01  0.2000E+01
    -28.641  0.0000E+00  0.0000E+00  0.2000E+01  0.2000E+01
    -28.490  0.0000E+00  0.0000E+00  0.2000E+01  0.2000E+01
    -28.340  0.0000E+00  0.0000E+00  0.2000E+01  0.2000E+01
    -28.190  0.0000E+00  0.0000E+00  0.2000E+01  0.2000E+01
    -28.040  0.0000E+00  0.0000E+00  0.2000E+01  0.2000E+01
    -27.890  0.0000E+00  0.0000E+00  0.2000E+01  0.2000E+01
    -27.739  0.0000E+00  0.0000E+00  0.2000E+01  0.2000E+01
    -27.589  0.0000E+00  0.0000E+00  0.2000E+01  0.2000E+01
    -27.439  0.0000E+00  0.0000E+00  0.2000E+01  0.2000E+01
    -27.289  0.0000E+00  0.0000E+00  0.2000E+01  0.2000E+01
    -27.139  0.0000E+00  0.0000E+00  0.2000E+01  0.2000E+01
    -26.988  0.0000E+00  0.0000E+00  0.2000E+01  0.2000E+01
    -26.838  0.0000E+00  0.0000E+00  0.2000E+01  0.2000E+01
    -26.688  0.0000E+00  0.0000E+00  0.2000E+01  0.2000E+01
    -26.538  0.0000E+00  0.0000E+00  0.2000E+01  0.2000E+01
    -26.388  0.0000E+00  0.0000E+00  0.2000E+01  0.2000E+01
    -26.238  0.0000E+00  0.0000E+00  0.2000E+01  0.2000E+01
    -26.087  0.0000E+00  0.0000E+00  0.2000E+01  0.2000E+01
    -25.937  0.0000E+00  0.0000E+00  0.2000E+01  0.2000E+01
    -25.787  0.0000E+00  0.0000E+00  0.2000E+01  0.2000E+01
    -25.637  0.0000E+00  0.0000E+00  0.2000E+01  0.2000E+01
    -25.487  0.0000E+00  0.0000E+00  0.2000E+01  0.2000E+01
    -25.336  0.0000E+00  0.0000E+00  0.2000E+01  0.2000E+01
    -25.186  0.0000E+00  0.0000E+00  0.2000E+01  0.2000E+01
    -25.036  0.0000E+00  0.0000E+00  0.2000E+01  0.2000E+01
    -24.886  0.0000E+00  0.0000E+00  0.2000E+01  0.2000E+01
    -24.736  0.0000E+00  0.0000E+00  0.2000E+01  0.2000E+01
    -24.585  0.0000E+00  0.0000E+00  0.2000E+01  0.2000E+01
    -24.435  0.0000E+00  0.0000E+00  0.2000E+01  0.2000E+01
    -24.285  0.0000E+00  0.0000E+00  0.2000E+01  0.2000E+01
    -24.135  0.0000E+00  0.0000E+00  0.2000E+01  0.2000E+01
    -23.985  0.0000E+00  0.0000E+00  0.2000E+01  0.2000E+01
    -23.835  0.0000E+00  0.0000E+00  0.2000E+01  0.2000E+01
    -23.684  0.0000E+00  0.0000E+00  0.2000E+01  0.2000E+01
    -23.534  0.0000E+00  0.0000E+00  0.2000E+01  0.2000E+01
    -23.384  0.0000E+00  0.0000E+00  0.2000E+01  0.2000E+01
    -23.234  0.0000E+00  0.0000E+00  0.2000E+01  0.2000E+01
    -23.084  0.0000E+00  0.0000E+00  0.2000E+01  0.2000E+01
    -22.933  0.0000E+00  0.0000E+00  0.2000E+01  0.2000E+01
    -22.783  0.0000E+00  0.0000E+00  0.2000E+01  0.2000E+01
    -22.633  0.0000E+00  0.0000E+00  0.2000E+01  0.2000E+01
    -22.483  0.0000E+00  0.0000E+00  0.2000E+01  0.2000E+01
    -22.333  0.0000E+00  0.0000E+00  0.2000E+01  0.2000E+01
    -22.182  0.0000E+00  0.0000E+00  0.2000E+01  0.2000E+01
    -22.032  0.0000E+00  0.0000E+00  0.2000E+01  0.2000E+01
    -21.882  0.0000E+00  0.0000E+00  0.2000E+01  0.2000E+01
    -21.732  0.0000E+00  0.0000E+00  0.2000E+01  0.2000E+01
    -21.582  0.0000E+00  0.0000E+00  0.2000E+01  0.2000E+01
    -21.432  0.0000E+00  0.0000E+00  0.2000E+01  0.2000E+01
    -21.281  0.0000E+00  0.0000E+00  0.2000E+01  0.2000E+01
    -21.131  0.0000E+00  0.0000E+00  0.2000E+01  0.2000E+01
    -20.981  0.0000E+00  0.0000E+00  0.2000E+01  0.2000E+01
    -20.831  0.0000E+00  0.0000E+00  0.2000E+01  0.2000E+01
    -20.681  0.0000E+00  0.0000E+00  0.2000E+01  0.2000E+01
    -20.530  0.0000E+00  0.0000E+00  0.2000E+01  0.2000E+01
    -20.380  0.0000E+00  0.0000E+00  0.2000E+01  0.2000E+01
    -20.230  0.0000E+00  0.0000E+00  0.2000E+01  0.2000E+01
    -20.080  0.0000E+00  0.0000E+00  0.2000E+01  0.2000E+01
    -19.930  0.0000E+00  0.0000E+00  0.2000E+01  0.2000E+01
    -19.779  0.0000E+00  0.0000E+00  0.2000E+01  0.2000E+01
    -19.629  0.0000E+00  0.0000E+00  0.2000E+01  0.2000E+01
    -19.479  0.0000E+00  0.0000E+00  0.2000E+01  0.2000E+01
    -19.329  0.0000E+00  0.0000E+00  0.2000E+01  0.2000E+01
    -19.179  0.0000E+00  0.0000E+00  0.2000E+01  0.2000E+01
    -19.029  0.0000E+00  0.0000E+00  0.2000E+01  0.2000E+01
    -18.878  0.0000E+00  0.0000E+00  0.2000E+01  0.2000E+01
    -18.728  0.0000E+00  0.0000E+00  0.2000E+01  0.2000E+01
    -18.578  0.0000E+00  0.0000E+00  0.2000E+01  0.2000E+01
    -18.428  0.0000E+00  0.0000E+00  0.2000E+01  0.2000E+01
    -18.278  0.0000E+00  0.0000E+00  0.2000E+01  0.2000E+01
    -18.127  0.0000E+00  0.0000E+00  0.2000E+01  0.2000E+01
    -17.977  0.0000E+00  0.0000E+00  0.2000E+01  0.2000E+01
    -17.827  0.0000E+00  0.0000E+00  0.2000E+01  0.2000E+01
    -17.677  0.0000E+00  0.0000E+00  0.2000E+01  0.2000E+01
    -17.527  0.0000E+00  0.0000E+00  0.2000E+01  0.2000E+01
    -17.377  0.0000E+00  0.0000E+00  0.2000E+01  0.2000E+01
    -17.226  0.5694E-05  0.3623E-05  0.2000E+01  0.2000E+01
    -17.076  0.1975E-02  0.1838E-02  0.2000E+01  0.2000E+01
    -16.926  0.4095E-01  0.3832E-01  0.2006E+01  0.2006E+01
    -16.776  0.7729E+00  0.7255E+00  0.2123E+01  0.2115E+01
    -16.626  0.7764E+01  0.7480E+01  0.3289E+01  0.3238E+01
    -16.475  0.1902E+02  0.1888E+02  0.6145E+01  0.6074E+01
    -16.325  0.1117E+02  0.1156E+02  0.7823E+01  0.7810E+01
    -16.175  0.1090E+01  0.1169E+01  0.7991E+01  0.7990E+01
    -16.025  0.5448E-03  0.2156E-02  0.8000E+01  0.8000E+01
    -15.875  0.0000E+00  0.0000E+00  0.8000E+01  0.8000E+01
    -15.724  0.0000E+00  0.0000E+00  0.8000E+01  0.8000E+01
    -15.574  0.0000E+00  0.0000E+00  0.8000E+01  0.8000E+01
    -15.424  0.0000E+00  0.0000E+00  0.8000E+01  0.8000E+01
    -15.274  0.0000E+00  0.0000E+00  0.8000E+01  0.8000E+01
    -15.124  0.0000E+00  0.0000E+00  0.8000E+01  0.8000E+01
    -14.974  0.0000E+00  0.0000E+00  0.8000E+01  0.8000E+01
    -14.823  0.0000E+00  0.0000E+00  0.8000E+01  0.8000E+01
    -14.673  0.0000E+00  0.0000E+00  0.8000E+01  0.8000E+01
    -14.523  0.0000E+00  0.0000E+00  0.8000E+01  0.8000E+01
    -14.373  0.0000E+00  0.0000E+00  0.8000E+01  0.8000E+01
    -14.223  0.0000E+00  0.0000E+00  0.8000E+01  0.8000E+01
    -14.072  0.0000E+00  0.0000E+00  0.8000E+01  0.8000E+01
    -13.922  0.0000E+00  0.0000E+00  0.8000E+01  0.8000E+01
    -13.772  0.0000E+00  0.0000E+00  0.8000E+01  0.8000E+01
    -13.622  0.0000E+00  0.0000E+00  0.8000E+01  0.8000E+01
    -13.472  0.0000E+00  0.0000E+00  0.8000E+01  0.8000E+01
    -13.321  0.0000E+00  0.0000E+00  0.8000E+01  0.8000E+01
    -13.171  0.0000E+00  0.0000E+00  0.8000E+01  0.8000E+01
    -13.021  0.0000E+00  0.0000E+00  0.8000E+01  0.8000E+01
    -12.871  0.0000E+00  0.0000E+00  0.8000E+01  0.8000E+01
    -12.721  0.0000E+00  0.0000E+00  0.8000E+01  0.8000E+01
    -12.571  0.0000E+00  0.0000E+00  0.8000E+01  0.8000E+01
    -12.420  0.0000E+00  0.0000E+00  0.8000E+01  0.8000E+01
    -12.270  0.0000E+00  0.0000E+00  0.8000E+01  0.8000E+01
    -12.120  0.0000E+00  0.0000E+00  0.8000E+01  0.8000E+01
    -11.970  0.0000E+00  0.0000E+00  0.8000E+01  0.8000E+01
    -11.820  0.0000E+00  0.0000E+00  0.8000E+01  0.8000E+01
    -11.669  0.0000E+00  0.0000E+00  0.8000E+01  0.8000E+01
    -11.519  0.0000E+00  0.0000E+00  0.8000E+01  0.8000E+01
    -11.369  0.0000E+00  0.0000E+00  0.8000E+01  0.8000E+01
    -11.219  0.0000E+00  0.0000E+00  0.8000E+01  0.8000E+01
    -11.069  0.0000E+00  0.0000E+00  0.8000E+01  0.8000E+01
    -10.918  0.0000E+00  0.0000E+00  0.8000E+01  0.8000E+01
    -10.768  0.0000E+00  0.0000E+00  0.8000E+01  0.8000E+01
    -10.618  0.0000E+00  0.0000E+00  0.8000E+01  0.8000E+01
    -10.468  0.0000E+00  0.0000E+00  0.8000E+01  0.8000E+01
    -10.318  0.0000E+00  0.0000E+00  0.8000E+01  0.8000E+01
    -10.168  0.0000E+00  0.0000E+00  0.8000E+01  0.8000E+01
    -10.017  0.0000E+00  0.0000E+00  0.8000E+01  0.8000E+01
     -9.867  0.0000E+00  0.0000E+00  0.8000E+01  0.8000E+01
     -9.717  0.0000E+00  0.0000E+00  0.8000E+01  0.8000E+01
     -9.567  0.0000E+00  0.0000E+00  0.8000E+01  0.8000E+01
     -9.417  0.0000E+00  0.0000E+00  0.8000E+01  0.8000E+01
     -9.266  0.0000E+00  0.0000E+00  0.8000E+01  0.8000E+01
     -9.116  0.0000E+00  0.0000E+00  0.8000E+01  0.8000E+01
     -8.966  0.0000E+00  0.0000E+00  0.8000E+01  0.8000E+01
     -8.816  0.0000E+00  0.0000E+00  0.8000E+01  0.8000E+01
     -8.666  0.0000E+00  0.0000E+00  0.8000E+01  0.8000E+01
     -8.515  0.0000E+00  0.0000E+00  0.8000E+01  0.8000E+01
     -8.365  0.0000E+00  0.0000E+00  0.8000E+01  0.8000E+01
     -8.215  0.0000E+00  0.0000E+00  0.8000E+01  0.8000E+01
     -8.065  0.0000E+00  0.0000E+00  0.8000E+01  0.8000E+01
     -7.915  0.0000E+00  0.0000E+00  0.8000E+01  0.8000E+01
     -7.765  0.0000E+00  0.0000E+00  0.8000E+01  0.8000E+01
     -7.614  0.0000E+00  0.0000E+00  0.8000E+01  0.8000E+01
     -7.464  0.0000E+00  0.0000E+00  0.8000E+01  0.8000E+01
     -7.314  0.0000E+00  0.0000E+00  0.8000E+01  0.8000E+01
     -7.164  0.0000E+00  0.0000E+00  0.8000E+01  0.8000E+01
     -7.014  0.0000E+00  0.0000E+00  0.8000E+01  0.8000E+01
     -6.863  0.0000E+00  0.0000E+00  0.8000E+01  0.8000E+01
     -6.713  0.0000E+00  0.0000E+00  0.8000E+01  0.8000E+01
     -6.563  0.0000E+00  0.0000E+00  0.8000E+01  0.8000E+01
     -6.413  0.0000E+00  0.0000E+00  0.8000E+01  0.8000E+01
     -6.263  0.0000E+00  0.0000E+00  0.8000E+01  0.8000E+01
     -6.112  0.0000E+00  0.0000E+00  0.8000E+01  0.8000E+01
     -5.962  0.0000E+00  0.0000E+00  0.8000E+01  0.8000E+01
     -5.812  0.0000E+00  0.0000E+00  0.8000E+01  0.8000E+01
     -5.662  0.0000E+00  0.0000E+00  0.8000E+01  0.8000E+01
     -5.512  0.0000E+00  0.0000E+00  0.8000E+01  0.8000E+01
     -5.362  0.0000E+00  0.0000E+00  0.8000E+01  0.8000E+01
     -5.211  0.0000E+00  0.0000E+00  0.8000E+01  0.8000E+01
     -5.061  0.0000E+00  0.0000E+00  0.8000E+01  0.8000E+01
     -4.911  0.0000E+00  0.0000E+00  0.8000E+01  0.8000E+01
     -4.761  0.0000E+00  0.0000E+00  0.8000E+01  0.8000E+01
     -4.611  0.0000E+00  0.0000E+00  0.8000E+01  0.8000E+01
     -4.460  0.0000E+00  0.0000E+00  0.8000E+01  0.8000E+01
     -4.310  0.0000E+00  0.0000E+00  0.8000E+01  0.8000E+01
     -4.160  0.0000E+00  0.0000E+00  0.8000E+01  0.8000E+01
     -4.010  0.0000E+00  0.0000E+00  0.8000E+01  0.8000E+01
     -3.860  0.0000E+00  0.0000E+00  0.8000E+01  0.8000E+01
     -3.709  0.0000E+00  0.0000E+00  0.8000E+01  0.8000E+01
     -3.559  0.0000E+00  0.0000E+00  0.8000E+01  0.8000E+01
     -3.409  0.0000E+00  0.0000E+00  0.8000E+01  0.8000E+01
     -3.259  0.0000E+00  0.0000E+00  0.8000E+01  0.8000E+01
     -3.109  0.0000E+00  0.0000E+00  0.8000E+01  0.8000E+01
     -2.959  0.0000E+00  0.0000E+00  0.8000E+01  0.8000E+01
     -2.808  0.0000E+00  0.0000E+00  0.8000E+01  0.8000E+01
     -2.658  0.0000E+00  0.0000E+00  0.8000E+01  0.8000E+01
     -2.508  0.0000E+00  0.0000E+00  0.8000E+01  0.8000E+01
     -2.358  0.7177E-06  0.4691E-06  0.8000E+01  0.8000E+01
     -2.208  0.2750E-04  0.1795E-04  0.8000E+01  0.8000E+01
     -2.057  0.5444E-03  0.3574E-03  0.8000E+01  0.8000E+01
     -1.907  0.8661E-02  0.6075E-02  0.8001E+01  0.8001E+01
     -1.757  0.5226E-01  0.4420E-01  0.8009E+01  0.8008E+01
     -1.607  0.9861E-01  0.9132E-01  0.8024E+01  0.8021E+01
     -1.457  0.1456E+00  0.1431E+00  0.8046E+01  0.8043E+01
     -1.306  0.1622E+00  0.1568E+00  0.8070E+01  0.8066E+01
     -1.156  0.2077E+00  0.2018E+00  0.8102E+01  0.8097E+01
     -1.006  0.2428E+00  0.2438E+00  0.8138E+01  0.8133E+01
     -0.856  0.2171E+00  0.2101E+00  0.8171E+01  0.8165E+01
     -0.706  0.3276E+00  0.3191E+00  0.8220E+01  0.8213E+01
     -0.556  0.3113E+00  0.3143E+00  0.8267E+01  0.8260E+01
     -0.405  0.3295E+00  0.3238E+00  0.8316E+01  0.8309E+01
     -0.255  0.3543E+00  0.3527E+00  0.8370E+01  0.8362E+01
     -0.105  0.4828E+00  0.4613E+00  0.8442E+01  0.8431E+01
      0.045  0.4449E+00  0.4612E+00  0.8509E+01  0.8501E+01
      0.195  0.4139E+00  0.4101E+00  0.8572E+01  0.8563E+01
      0.346  0.6029E+00  0.5703E+00  0.8662E+01  0.8648E+01
      0.496  0.6562E+00  0.6704E+00  0.8761E+01  0.8749E+01
      0.646  0.6684E+00  0.6527E+00  0.8861E+01  0.8847E+01
      0.796  0.7625E+00  0.7605E+00  0.8976E+01  0.8962E+01
      0.946  0.9251E+00  0.8980E+00  0.9115E+01  0.9097E+01
      1.096  0.1010E+01  0.1004E+01  0.9267E+01  0.9248E+01
      1.247  0.7788E+00  0.7890E+00  0.9384E+01  0.9366E+01
      1.397  0.9507E+00  0.9110E+00  0.9527E+01  0.9504E+01
      1.547  0.9607E+00  0.9678E+00  0.9672E+01  0.9649E+01
      1.697  0.9601E+00  0.9547E+00  0.9816E+01  0.9793E+01
      1.847  0.8511E+00  0.8074E+00  0.9945E+01  0.9914E+01
      1.998  0.1405E+01  0.1306E+01  0.1016E+02  0.1011E+02
      2.148  0.2164E+01  0.2222E+01  0.1048E+02  0.1044E+02
      2.298  0.2835E+01  0.2952E+01  0.1091E+02  0.1089E+02
      2.448  0.2401E+01  0.2447E+01  0.1127E+02  0.1126E+02
      2.598  0.1480E+01  0.1482E+01  0.1149E+02  0.1148E+02
      2.749  0.1048E+01  0.1061E+01  0.1165E+02  0.1164E+02
      2.899  0.1002E+01  0.9615E+00  0.1180E+02  0.1179E+02
      3.049  0.1135E+01  0.1106E+01  0.1197E+02  0.1195E+02
      3.199  0.1593E+01  0.1487E+01  0.1221E+02  0.1218E+02
      3.349  0.2171E+01  0.2153E+01  0.1254E+02  0.1250E+02
      3.499  0.2116E+01  0.2180E+01  0.1286E+02  0.1283E+02
      3.650  0.2469E+01  0.2525E+01  0.1323E+02  0.1321E+02
      3.800  0.2148E+01  0.2191E+01  0.1355E+02  0.1354E+02
      3.950  0.1491E+01  0.1501E+01  0.1378E+02  0.1376E+02
      4.100  0.1342E+01  0.1319E+01  0.1398E+02  0.1396E+02
      4.250  0.1390E+01  0.1363E+01  0.1419E+02  0.1417E+02
      4.401  0.1526E+01  0.1516E+01  0.1442E+02  0.1440E+02
      4.551  0.1596E+01  0.1569E+01  0.1466E+02  0.1463E+02
      4.701  0.1671E+01  0.1698E+01  0.1491E+02  0.1489E+02
      4.851  0.1273E+01  0.1305E+01  0.1510E+02  0.1508E+02
      5.001  0.1121E+01  0.1141E+01  0.1527E+02  0.1525E+02
      5.152  0.9037E+00  0.9302E+00  0.1541E+02  0.1540E+02
      5.302  0.7015E+00  0.7148E+00  0.1551E+02  0.1550E+02
      5.452  0.6979E+00  0.7039E+00  0.1562E+02  0.1561E+02
      5.602  0.6064E+00  0.6201E+00  0.1571E+02  0.1570E+02
      5.752  0.5156E+00  0.5357E+00  0.1579E+02  0.1578E+02
      5.902  0.5510E+00  0.5408E+00  0.1587E+02  0.1586E+02
      6.053  0.4681E+00  0.4805E+00  0.1594E+02  0.1594E+02
      6.203  0.1979E+00  0.2029E+00  0.1597E+02  0.1597E+02
      6.353  0.1109E+00  0.1247E+00  0.1599E+02  0.1599E+02
      6.503  0.8643E-01  0.8128E-01  0.1600E+02  0.1600E+02
      6.653  0.1059E-01  0.8840E-02  0.1600E+02  0.1600E+02
      6.804  0.1817E-03  0.0000E+00  0.1600E+02  0.1600E+02
      6.954  0.0000E+00  0.0000E+00  0.1600E+02  0.1600E+02
      7.104  0.0000E+00  0.0000E+00  0.1600E+02  0.1600E+02
      7.254  0.0000E+00  0.0000E+00  0.1600E+02  0.1600E+02
      7.404  0.0000E+00  0.0000E+00  0.1600E+02  0.1600E+02
      7.555  0.0000E+00  0.0000E+00  0.1600E+02  0.1600E+02
      7.705  0.0000E+00  0.0000E+00  0.1600E+02  0.1600E+02
      7.855  0.0000E+00  0.0000E+00  0.1600E+02  0.1600E+02
      8.005  0.0000E+00  0.0000E+00  0.1600E+02  0.1600E+02
      8.155  0.0000E+00  0.0000E+00  0.1600E+02  0.1600E+02
      8.305  0.0000E+00  0.0000E+00  0.1600E+02  0.1600E+02
      8.456  0.0000E+00  0.0000E+00  0.1600E+02  0.1600E+02
      8.45565638    -36.60043383  301      1.90860470      1.00000000
    -36.600  0.0000E+00  0.0000E+00  0.0000E+00  0.0000E+00  0.0000E+00  0.0000E+00  0.0000E+00  0.0000E+00  0.0000E+00  0.0000E+00  0.0000E+00  0.0000E+00  0.0000E+00  0.0000E+00  0.0000E+00  0.0000E+00  0.0000E+00  0.0000E+00
    -36.450  0.0000E+00  0.0000E+00  0.0000E+00  0.0000E+00  0.0000E+00  0.0000E+00  0.0000E+00  0.0000E+00  0.0000E+00  0.0000E+00  0.0000E+00  0.0000E+00  0.0000E+00  0.0000E+00  0.0000E+00  0.0000E+00  0.0000E+00  0.0000E+00
    -36.300  0.0000E+00  0.0000E+00  0.0000E+00  0.0000E+00  0.0000E+00  0.0000E+00  0.0000E+00  0.0000E+00  0.0000E+00  0.0000E+00  0.0000E+00  0.0000E+00  0.0000E+00  0.0000E+00  0.0000E+00  0.0000E+00  0.0000E+00  0.0000E+00
    -36.150  0.0000E+00  0.0000E+00  0.0000E+00  0.0000E+00  0.0000E+00  0.0000E+00  0.0000E+00  0.0000E+00  0.0000E+00  0.0000E+00  0.0000E+00  0.0000E+00  0.0000E+00  0.0000E+00  0.0000E+00  0.0000E+00  0.0000E+00  0.0000E+00
    -36.000  0.0000E+00  0.0000E+00  0.0000E+00  0.0000E+00  0.0000E+00  0.0000E+00  0.0000E+00  0.0000E+00  0.0000E+00  0.0000E+00  0.0000E+00  0.0000E+00  0.0000E+00  0.0000E+00  0.0000E+00  0.0000E+00  0.0000E+00  0.0000E+00
    -35.849  0.0000E+00  0.0000E+00  0.0000E+00  0.0000E+00  0.0000E+00  0.0000E+00  0.0000E+00  0.0000E+00  0.0000E+00  0.0000E+00  0.0000E+00  0.0000E+00  0.0000E+00  0.0000E+00  0.0000E+00  0.0000E+00  0.0000E+00  0.0000E+00
    -35.699  0.0000E+00  0.0000E+00  0.0000E+00  0.0000E+00  0.0000E+00  0.0000E+00  0.0000E+00  0.0000E+00  0.0000E+00  0.0000E+00  0.0000E+00  0.0000E+00  0.0000E+00  0.0000E+00  0.0000E+00  0.0000E+00  0.0000E+00  0.0000E+00
    -35.549  0.0000E+00  0.0000E+00  0.0000E+00  0.0000E+00  0.0000E+00  0.0000E+00  0.0000E+00  0.0000E+00  0.0000E+00  0.0000E+00  0.0000E+00  0.0000E+00  0.0000E+00  0.0000E+00  0.0000E+00  0.0000E+00  0.0000E+00  0.0000E+00
    -35.399  0.0000E+00  0.0000E+00  0.0000E+00  0.0000E+00  0.0000E+00  0.0000E+00  0.0000E+00  0.0000E+00  0.0000E+00  0.0000E+00  0.0000E+00  0.0000E+00  0.0000E+00  0.0000E+00  0.0000E+00  0.0000E+00  0.0000E+00  0.0000E+00
    -35.249  0.0000E+00  0.0000E+00  0.0000E+00  0.0000E+00  0.0000E+00  0.0000E+00  0.0000E+00  0.0000E+00  0.0000E+00  0.0000E+00  0.0000E+00  0.0000E+00  0.0000E+00  0.0000E+00  0.0000E+00  0.0000E+00  0.0000E+00  0.0000E+00
    -35.099  0.1944E-05  0.1082E-06  0.2707E-12  0.1425E-17  0.2634E-12  0.7328E-14  0.2707E-12  0.1425E-17  0.4111E-14  0.6192E-22  0.1753E-14  0.1009E-21  0.4740E-13  0.5536E-14  0.1753E-14  0.1009E-21  0.4111E-14  0.6192E-22
    -34.948  0.1567E-02  0.1477E-02  0.2843E-09  0.2679E-09  0.2460E-09  0.2307E-09  0.2843E-09  0.2679E-09  0.6944E-10  0.6557E-10  0.4514E-10  0.4199E-10  0.1040E-09  0.1255E-09  0.4514E-10  0.4199E-10  0.6944E-10  0.6557E-10
    -34.798  0.2992E-01  0.2818E-01  0.5424E-08  0.5108E-08  0.4694E-08  0.4398E-08  0.5424E-08  0.5108E-08  0.1324E-08  0.1251E-08  0.8610E-09  0.8010E-09  0.1984E-08  0.2393E-08  0.8610E-09  0.8010E-09  0.1324E-08  0.1251E-08
    -34.648  0.5488E+00  0.5196E+00  0.9889E-07  0.9366E-07  0.8555E-07  0.8059E-07  0.9889E-07  0.9366E-07  0.2436E-07  0.2312E-07  0.1586E-07  0.1483E-07  0.3638E-07  0.4411E-07  0.1586E-07  0.1483E-07  0.2436E-07  0.2312E-07
    -34.498  0.3732E+01  0.3675E+01  0.6430E-06  0.6338E-06  0.5544E-06  0.5435E-06  0.6430E-06  0.6338E-06  0.1684E-06  0.1662E-06  0.1109E-06  0.1078E-06  0.2461E-06  0.3097E-06  0.1109E-06  0.1078E-06  0.1684E-06  0.1662E-06
    -34.348  0.2047E+01  0.2126E+01  0.3319E-06  0.3450E-06  0.2849E-06  0.2944E-06  0.3319E-06  0.3450E-06  0.9373E-07  0.9757E-07  0.6274E-07  0.6434E-07  0.1332E-06  0.1767E-06  0.6274E-07  0.6434E-07  0.9373E-07  0.9757E-07
    -34.197  0.1541E+00  0.1633E+00  0.2441E-07  0.2588E-07  0.2092E-07  0.2205E-07  0.2441E-07  0.2588E-07  0.7079E-08  0.7526E-08  0.4766E-08  0.4993E-08  0.9959E-08  0.1348E-07  0.4766E-08  0.4993E-08  0.7079E-08  0.7526E-08
    -34.047  0.0000E+00  0.0000E+00  0.0000E+00  0.0000E+00  0.0000E+00  0.0000E+00  0.0000E+00  0.0000E+00  0.0000E+00  0.0000E+00  0.0000E+00  0.0000E+00  0.0000E+00  0.0000E+00  0.0000E+00  0.0000E+00  0.0000E+00  0.0000E+00
    -33.897  0.0000E+00  0.0000E+00  0.0000E+00  0.0000E+00  0.0000E+00  0.0000E+00  0.0000E+00  0.0000E+00  0.0000E+00  0.0000E+00  0.0000E+00  0.0000E+00  0.0000E+00  0.0000E+00  0.0000E+00  0.0000E+00  0.0000E+00  0.0000E+00
    -33.747  0.0000E+00  0.0000E+00  0.0000E+00  0.0000E+00  0.0000E+00  0.0000E+00  0.0000E+00  0.0000E+00  0.0000E+00  0.0000E+00  0.0000E+00  0.0000E+00  0.0000E+00  0.0000E+00  0.0000E+00  0.0000E+00  0.0000E+00  0.0000E+00
    -33.597  0.0000E+00  0.0000E+00  0.0000E+00  0.0000E+00  0.0000E+00  0.0000E+00  0.0000E+00  0.0000E+00  0.0000E+00  0.0000E+00  0.0000E+00  0.0000E+00  0.0000E+00  0.0000E+00  0.0000E+00  0.0000E+00  0.0000E+00  0.0000E+00
    -33.447  0.0000E+00  0.0000E+00  0.0000E+00  0.0000E+00  0.0000E+00  0.0000E+00  0.0000E+00  0.0000E+00  0.0000E+00  0.0000E+00  0.0000E+00  0.0000E+00  0.0000E+00  0.0000E+00  0.0000E+00  0.0000E+00  0.0000E+00  0.0000E+00
    -33.296  0.0000E+00  0.0000E+00  0.0000E+00  0.0000E+00  0.0000E+00  0.0000E+00  0.0000E+00  0.0000E+00  0.0000E+00  0.0000E+00  0.0000E+00  0.0000E+00  0.0000E+00  0.0000E+00  0.0000E+00  0.0000E+00  0.0000E+00  0.0000E+00
    -33.146  0.0000E+00  0.0000E+00  0.0000E+00  0.0000E+00  0.0000E+00  0.0000E+00  0.0000E+00  0.0000E+00  0.0000E+00  0.0000E+00  0.0000E+00  0.0000E+00  0.0000E+00  0.0000E+00  0.0000E+00  0.0000E+00  0.0000E+00  0.0000E+00
    -32.996  0.0000E+00  0.0000E+00  0.0000E+00  0.0000E+00  0.0000E+00  0.0000E+00  0.0000E+00  0.0000E+00  0.0000E+00  0.0000E+00  0.0000E+00  0.0000E+00  0.0000E+00  0.0000E+00  0.0000E+00  0.0000E+00  0.0000E+00  0.0000E+00
    -32.846  0.0000E+00  0.0000E+00  0.0000E+00  0.0000E+00  0.0000E+00  0.0000E+00  0.0000E+00  0.0000E+00  0.0000E+00  0.0000E+00  0.0000E+00  0.0000E+00  0.0000E+00  0.0000E+00  0.0000E+00  0.0000E+00  0.0000E+00  0.0000E+00
    -32.696  0.0000E+00  0.0000E+00  0.0000E+00  0.0000E+00  0.0000E+00  0.0000E+00  0.0000E+00  0.0000E+00  0.0000E+00  0.0000E+00  0.0000E+00  0.0000E+00  0.0000E+00  0.0000E+00  0.0000E+00  0.0000E+00  0.0000E+00  0.0000E+00
    -32.545  0.0000E+00  0.0000E+00  0.0000E+00  0.0000E+00  0.0000E+00  0.0000E+00  0.0000E+00  0.0000E+00  0.0000E+00  0.0000E+00  0.0000E+00  0.0000E+00  0.0000E+00  0.0000E+00  0.0000E+00  0.0000E+00  0.0000E+00  0.0000E+00
    -32.395  0.0000E+00  0.0000E+00  0.0000E+00  0.0000E+00  0.0000E+00  0.0000E+00  0.0000E+00  0.0000E+00  0.0000E+00  0.0000E+00  0.0000E+00  0.0000E+00  0.0000E+00  0.0000E+00  0.0000E+00  0.0000E+00  0.0000E+00  0.0000E+00
    -32.245  0.0000E+00  0.0000E+00  0.0000E+00  0.0000E+00  0.0000E+00  0.0000E+00  0.0000E+00  0.0000E+00  0.0000E+00  0.0000E+00  0.0000E+00  0.0000E+00  0.0000E+00  0.0000E+00  0.0000E+00  0.0000E+00  0.0000E+00  0.0000E+00
    -32.095  0.0000E+00  0.0000E+00  0.0000E+00  0.0000E+00  0.0000E+00  0.0000E+00  0.0000E+00  0.0000E+00  0.0000E+00  0.0000E+00  0.0000E+00  0.0000E+00  0.0000E+00  0.0000E+00  0.0000E+00  0.0000E+00  0.0000E+00  0.0000E+00
    -31.945  0.0000E+00  0.0000E+00  0.0000E+00  0.0000E+00  0.0000E+00  0.0000E+00  0.0000E+00  0.0000E+00  0.0000E+00  0.0000E+00  0.0000E+00  0.0000E+00  0.0000E+00  0.0000E+00  0.0000E+00  0.0000E+00  0.0000E+00  0.0000E+00
    -31.794  0.0000E+00  0.0000E+00  0.0000E+00  0.0000E+00  0.0000E+00  0.0000E+00  0.0000E+00  0.0000E+00  0.0000E+00  0.0000E+00  0.0000E+00  0.0000E+00  0.0000E+00  0.0000E+00  0.0000E+00  0.0000E+00  0.0000E+00  0.0000E+00
    -31.644  0.0000E+00  0.0000E+00  0.0000E+00  0.0000E+00  0.0000E+00  0.0000E+00  0.0000E+00  0.0000E+00  0.0000E+00  0.0000E+00  0.0000E+00  0.0000E+00  0.0000E+00  0.0000E+00  0.0000E+00  0.0000E+00  0.0000E+00  0.0000E+00
    -31.494  0.0000E+00  0.0000E+00  0.0000E+00  0.0000E+00  0.0000E+00  0.0000E+00  0.0000E+00  0.0000E+00  0.0000E+00  0.0000E+00  0.0000E+00  0.0000E+00  0.0000E+00  0.0000E+00  0.0000E+00  0.0000E+00  0.0000E+00  0.0000E+00
    -31.344  0.0000E+00  0.0000E+00  0.0000E+00  0.0000E+00  0.0000E+00  0.0000E+00  0.0000E+00  0.0000E+00  0.0000E+00  0.0000E+00  0.0000E+00  0.0000E+00  0.0000E+00  0.0000E+00  0.0000E+00  0.0000E+00  0.0000E+00  0.0000E+00
    -31.194  0.0000E+00  0.0000E+00  0.0000E+00  0.0000E+00  0.0000E+00  0.0000E+00  0.0000E+00  0.0000E+00  0.0000E+00  0.0000E+00  0.0000E+00  0.0000E+00  0.0000E+00  0.0000E+00  0.0000E+00  0.0000E+00  0.0000E+00  0.0000E+00
    -31.044  0.0000E+00  0.0000E+00  0.0000E+00  0.0000E+00  0.0000E+00  0.0000E+00  0.0000E+00  0.0000E+00  0.0000E+00  0.0000E+00  0.0000E+00  0.0000E+00  0.0000E+00  0.0000E+00  0.0000E+00  0.0000E+00  0.0000E+00  0.0000E+00
    -30.893  0.0000E+00  0.0000E+00  0.0000E+00  0.0000E+00  0.0000E+00  0.0000E+00  0.0000E+00  0.0000E+00  0.0000E+00  0.0000E+00  0.0000E+00  0.0000E+00  0.0000E+00  0.0000E+00  0.0000E+00  0.0000E+00  0.0000E+00  0.0000E+00
    -30.743  0.0000E+00  0.0000E+00  0.0000E+00  0.0000E+00  0.0000E+00  0.0000E+00  0.0000E+00  0.0000E+00  0.0000E+00  0.0000E+00  0.0000E+00  0.0000E+00  0.0000E+00  0.0000E+00  0.0000E+00  0.0000E+00  0.0000E+00  0.0000E+00
    -30.593  0.0000E+00  0.0000E+00  0.0000E+00  0.0000E+00  0.0000E+00  0.0000E+00  0.0000E+00  0.0000E+00  0.0000E+00  0.0000E+00  0.0000E+00  0.0000E+00  0.0000E+00  0.0000E+00  0.0000E+00  0.0000E+00  0.0000E+00  0.0000E+00
    -30.443  0.0000E+00  0.0000E+00  0.0000E+00  0.0000E+00  0.0000E+00  0.0000E+00  0.0000E+00  0.0000E+00  0.0000E+00  0.0000E+00  0.0000E+00  0.0000E+00  0.0000E+00  0.0000E+00  0.0000E+00  0.0000E+00  0.0000E+00  0.0000E+00
    -30.293  0.0000E+00  0.0000E+00  0.0000E+00  0.0000E+00  0.0000E+00  0.0000E+00  0.0000E+00  0.0000E+00  0.0000E+00  0.0000E+00  0.0000E+00  0.0000E+00  0.0000E+00  0.0000E+00  0.0000E+00  0.0000E+00  0.0000E+00  0.0000E+00
    -30.142  0.0000E+00  0.0000E+00  0.0000E+00  0.0000E+00  0.0000E+00  0.0000E+00  0.0000E+00  0.0000E+00  0.0000E+00  0.0000E+00  0.0000E+00  0.0000E+00  0.0000E+00  0.0000E+00  0.0000E+00  0.0000E+00  0.0000E+00  0.0000E+00
    -29.992  0.0000E+00  0.0000E+00  0.0000E+00  0.0000E+00  0.0000E+00  0.0000E+00  0.0000E+00  0.0000E+00  0.0000E+00  0.0000E+00  0.0000E+00  0.0000E+00  0.0000E+00  0.0000E+00  0.0000E+00  0.0000E+00  0.0000E+00  0.0000E+00
    -29.842  0.0000E+00  0.0000E+00  0.0000E+00  0.0000E+00  0.0000E+00  0.0000E+00  0.0000E+00  0.0000E+00  0.0000E+00  0.0000E+00  0.0000E+00  0.0000E+00  0.0000E+00  0.0000E+00  0.0000E+00  0.0000E+00  0.0000E+00  0.0000E+00
    -29.692  0.0000E+00  0.0000E+00  0.0000E+00  0.0000E+00  0.0000E+00  0.0000E+00  0.0000E+00  0.0000E+00  0.0000E+00  0.0000E+00  0.0000E+00  0.0000E+00  0.0000E+00  0.0000E+00  0.0000E+00  0.0000E+00  0.0000E+00  0.0000E+00
    -29.542  0.0000E+00  0.0000E+00  0.0000E+00  0.0000E+00  0.0000E+00  0.0000E+00  0.0000E+00  0.0000E+00  0.0000E+00  0.0000E+00  0.0000E+00  0.0000E+00  0.0000E+00  0.0000E+00  0.0000E+00  0.0000E+00  0.0000E+00  0.0000E+00
    -29.391  0.0000E+00  0.0000E+00  0.0000E+00  0.0000E+00  0.0000E+00  0.0000E+00  0.0000E+00  0.0000E+00  0.0000E+00  0.0000E+00  0.0000E+00  0.0000E+00  0.0000E+00  0.0000E+00  0.0000E+00  0.0000E+00  0.0000E+00  0.0000E+00
    -29.241  0.0000E+00  0.0000E+00  0.0000E+00  0.0000E+00  0.0000E+00  0.0000E+00  0.0000E+00  0.0000E+00  0.0000E+00  0.0000E+00  0.0000E+00  0.0000E+00  0.0000E+00  0.0000E+00  0.0000E+00  0.0000E+00  0.0000E+00  0.0000E+00
    -29.091  0.0000E+00  0.0000E+00  0.0000E+00  0.0000E+00  0.0000E+00  0.0000E+00  0.0000E+00  0.0000E+00  0.0000E+00  0.0000E+00  0.0000E+00  0.0000E+00  0.0000E+00  0.0000E+00  0.0000E+00  0.0000E+00  0.0000E+00  0.0000E+00