   2   2   1   0
  0.6033935E+02  0.4385835E-09  0.4385835E-09  0.7244283E-09  0.5000000E-15
  1.000000000000000E-004
  CAR 
 unknown system                          
      7.17273541    -37.55819492  301      1.30107383      1.00000000
    -37.558  0.0000E+00  0.0000E+00  0.0000E+00  0.0000E+00
    -37.409  0.0000E+00  0.0000E+00  0.0000E+00  0.0000E+00
    -37.260  0.0000E+00  0.0000E+00  0.0000E+00  0.0000E+00
    -37.111  0.0000E+00  0.0000E+00  0.0000E+00  0.0000E+00
    -36.962  0.0000E+00  0.0000E+00  0.0000E+00  0.0000E+00
    -36.813  0.0000E+00  0.0000E+00  0.0000E+00  0.0000E+00
    -36.664  0.0000E+00  0.0000E+00  0.0000E+00  0.0000E+00
    -36.514  0.0000E+00  0.0000E+00  0.0000E+00  0.0000E+00
    -36.365  0.0000E+00  0.0000E+00  0.0000E+00  0.0000E+00
    -36.216  0.0000E+00  0.0000E+00  0.0000E+00  0.0000E+00
    -36.067  0.4548E-04  0.3754E-04  0.6781E-05  0.5597E-05
    -35.918  0.4291E-02  0.4239E-02  0.6466E-03  0.6377E-03
    -35.769  0.8070E-01  0.7959E-01  0.1268E-01  0.1251E-01
    -35.620  0.1414E+01  0.1397E+01  0.2235E+00  0.2208E+00
    -35.471  0.8058E+01  0.8038E+01  0.1425E+01  0.1419E+01
    -35.322  0.3587E+01  0.3622E+01  0.1960E+01  0.1959E+01
    -35.173  0.2551E+00  0.2586E+00  0.1998E+01  0.1998E+01
    -35.023  0.0000E+00  0.0000E+00  0.2000E+01  0.2000E+01
    -34.874  0.0000E+00  0.0000E+00  0.2000E+01  0.2000E+01
    -34.725  0.0000E+00  0.0000E+00  0.2000E+01  0.2000E+01
    -34.576  0.0000E+00  0.0000E+00  0.2000E+01  0.2000E+01
    -34.427  0.0000E+00  0.0000E+00  0.2000E+01  0.2000E+01
    -34.278  0.0000E+00  0.0000E+00  0.2000E+01  0.2000E+01
    -34.129  0.0000E+00  0.0000E+00  0.2000E+01  0.2000E+01
    -33.980  0.0000E+00  0.0000E+00  0.2000E+01  0.2000E+01
    -33.831  0.0000E+00  0.0000E+00  0.2000E+01  0.2000E+01
    -33.682  0.0000E+00  0.0000E+00  0.2000E+01  0.2000E+01
    -33.532  0.0000E+00  0.0000E+00  0.2000E+01  0.2000E+01
    -33.383  0.0000E+00  0.0000E+00  0.2000E+01  0.2000E+01
    -33.234  0.0000E+00  0.0000E+00  0.2000E+01  0.2000E+01
    -33.085  0.0000E+00  0.0000E+00  0.2000E+01  0.2000E+01
    -32.936  0.0000E+00  0.0000E+00  0.2000E+01  0.2000E+01
    -32.787  0.0000E+00  0.0000E+00  0.2000E+01  0.2000E+01
    -32.638  0.0000E+00  0.0000E+00  0.2000E+01  0.2000E+01
    -32.489  0.0000E+00  0.0000E+00  0.2000E+01  0.2000E+01
    -32.340  0.0000E+00  0.0000E+00  0.2000E+01  0.2000E+01
    -32.190  0.0000E+00  0.0000E+00  0.2000E+01  0.2000E+01
    -32.041  0.0000E+00  0.0000E+00  0.2000E+01  0.2000E+01
    -31.892  0.0000E+00  0.0000E+00  0.2000E+01  0.2000E+01
    -31.743  0.0000E+00  0.0000E+00  0.2000E+01  0.2000E+01
    -31.594  0.0000E+00  0.0000E+00  0.2000E+01  0.2000E+01
    -31.445  0.0000E+00  0.0000E+00  0.2000E+01  0.2000E+01
    -31.296  0.0000E+00  0.0000E+00  0.2000E+01  0.2000E+01
    -31.147  0.0000E+00  0.0000E+00  0.2000E+01  0.2000E+01
    -30.998  0.0000E+00  0.0000E+00  0.2000E+01  0.2000E+01
    -30.849  0.0000E+00  0.0000E+00  0.2000E+01  0.2000E+01
    -30.699  0.0000E+00  0.0000E+00  0.2000E+01  0.2000E+01
    -30.550  0.0000E+00  0.0000E+00  0.2000E+01  0.2000E+01
    -30.401  0.0000E+00  0.0000E+00  0.2000E+01  0.2000E+01
    -30.252  0.0000E+00  0.0000E+00  0.2000E+01  0.2000E+01
    -30.103  0.0000E+00  0.0000E+00  0.2000E+01  0.2000E+01
    -29.954  0.0000E+00  0.0000E+00  0.2000E+01  0.2000E+01
    -29.805  0.0000E+00  0.0000E+00  0.2000E+01  0.2000E+01
    -29.656  0.0000E+00  0.0000E+00  0.2000E+01  0.2000E+01
    -29.507  0.0000E+00  0.0000E+00  0.2000E+01  0.2000E+01
    -29.358  0.0000E+00  0.0000E+00  0.2000E+01  0.2000E+01
    -29.208  0.0000E+00  0.0000E+00  0.2000E+01  0.2000E+01
    -29.059  0.0000E+00  0.0000E+00  0.2000E+01  0.2000E+01
    -28.910  0.0000E+00  0.0000E+00  0.2000E+01  0.2000E+01
    -28.761  0.0000E+00  0.0000E+00  0.2000E+01  0.2000E+01
    -28.612  0.0000E+00  0.0000E+00  0.2000E+01  0.2000E+01
    -28.463  0.0000E+00  0.0000E+00  0.2000E+01  0.2000E+01
    -28.314  0.0000E+00  0.0000E+00  0.2000E+01  0.2000E+01
    -28.165  0.0000E+00  0.0000E+00  0.2000E+01  0.2000E+01
    -28.016  0.0000E+00  0.0000E+00  0.2000E+01  0.2000E+01
    -27.866  0.0000E+00  0.0000E+00  0.2000E+01  0.2000E+01
    -27.717  0.0000E+00  0.0000E+00  0.2000E+01  0.2000E+01
    -27.568  0.0000E+00  0.0000E+00  0.2000E+01  0.2000E+01
    -27.419  0.0000E+00  0.0000E+00  0.2000E+01  0.2000E+01
    -27.270  0.0000E+00  0.0000E+00  0.2000E+01  0.2000E+01
    -27.121  0.0000E+00  0.0000E+00  0.2000E+01  0.2000E+01
    -26.972  0.0000E+00  0.0000E+00  0.2000E+01  0.2000E+01
    -26.823  0.0000E+00  0.0000E+00  0.2000E+01  0.2000E+01
    -26.674  0.0000E+00  0.0000E+00  0.2000E+01  0.2000E+01
    -26.525  0.0000E+00  0.0000E+00  0.2000E+01  0.2000E+01
    -26.375  0.0000E+00  0.0000E+00  0.2000E+01  0.2000E+01
    -26.226  0.0000E+00  0.0000E+00  0.2000E+01  0.2000E+01
    -26.077  0.0000E+00  0.0000E+00  0.2000E+01  0.2000E+01
    -25.928  0.0000E+00  0.0000E+00  0.2000E+01  0.2000E+01
    -25.779  0.0000E+00  0.0000E+00  0.2000E+01  0.2000E+01
    -25.630  0.0000E+00  0.0000E+00  0.2000E+01  0.2000E+01
    -25.481  0.0000E+00  0.0000E+00  0.2000E+01  0.2000E+01
    -25.332  0.0000E+00  0.0000E+00  0.2000E+01  0.2000E+01
    -25.183  0.0000E+00  0.0000E+00  0.2000E+01  0.2000E+01
    -25.034  0.0000E+00  0.0000E+00  0.2000E+01  0.2000E+01
    -24.884  0.0000E+00  0.0000E+00  0.2000E+01  0.2000E+01
    -24.735  0.0000E+00  0.0000E+00  0.2000E+01  0.2000E+01
    -24.586  0.0000E+00  0.0000E+00  0.2000E+01  0.2000E+01
    -24.437  0.0000E+00  0.0000E+00  0.2000E+01  0.2000E+01
    -24.288  0.0000E+00  0.0000E+00  0.2000E+01  0.2000E+01
    -24.139  0.0000E+00  0.0000E+00  0.2000E+01  0.2000E+01
    -23.990  0.0000E+00  0.0000E+00  0.2000E+01  0.2000E+01
    -23.841  0.0000E+00  0.0000E+00  0.2000E+01  0.2000E+01
    -23.692  0.0000E+00  0.0000E+00  0.2000E+01  0.2000E+01
    -23.543  0.0000E+00  0.0000E+00  0.2000E+01  0.2000E+01
    -23.393  0.0000E+00  0.0000E+00  0.2000E+01  0.2000E+01
    -23.244  0.0000E+00  0.0000E+00  0.2000E+01  0.2000E+01
    -23.095  0.0000E+00  0.0000E+00  0.2000E+01  0.2000E+01
    -22.946  0.0000E+00  0.0000E+00  0.2000E+01  0.2000E+01
    -22.797  0.0000E+00  0.0000E+00  0.2000E+01  0.2000E+01
    -22.648  0.0000E+00  0.0000E+00  0.2000E+01  0.2000E+01
    -22.499  0.0000E+00  0.0000E+00  0.2000E+01  0.2000E+01
    -22.350  0.0000E+00  0.0000E+00  0.2000E+01  0.2000E+01
    -22.201  0.0000E+00  0.0000E+00  0.2000E+01  0.2000E+01
    -22.051  0.0000E+00  0.0000E+00  0.2000E+01  0.2000E+01
    -21.902  0.0000E+00  0.0000E+00  0.2000E+01  0.2000E+01
    -21.753  0.0000E+00  0.0000E+00  0.2000E+01  0.2000E+01
    -21.604  0.0000E+00  0.0000E+00  0.2000E+01  0.2000E+01
    -21.455  0.0000E+00  0.0000E+00  0.2000E+01  0.2000E+01
    -21.306  0.0000E+00  0.0000E+00  0.2000E+01  0.2000E+01
    -21.157  0.0000E+00  0.0000E+00  0.2000E+01  0.2000E+01
    -21.008  0.0000E+00  0.0000E+00  0.2000E+01  0.2000E+01
    -20.859  0.0000E+00  0.0000E+00  0.2000E+01  0.2000E+01
    -20.710  0.0000E+00  0.0000E+00  0.2000E+01  0.2000E+01
    -20.560  0.0000E+00  0.0000E+00  0.2000E+01  0.2000E+01
    -20.411  0.0000E+00  0.0000E+00  0.2000E+01  0.2000E+01
    -20.262  0.0000E+00  0.0000E+00  0.2000E+01  0.2000E+01
    -20.113  0.0000E+00  0.0000E+00  0.2000E+01  0.2000E+01
    -19.964  0.0000E+00  0.0000E+00  0.2000E+01  0.2000E+01
    -19.815  0.0000E+00  0.0000E+00  0.2000E+01  0.2000E+01
    -19.666  0.0000E+00  0.0000E+00  0.2000E+01  0.2000E+01
    -19.517  0.0000E+00  0.0000E+00  0.2000E+01  0.2000E+01
    -19.368  0.0000E+00  0.0000E+00  0.2000E+01  0.2000E+01
    -19.219  0.0000E+00  0.0000E+00  0.2000E+01  0.2000E+01
    -19.069  0.0000E+00  0.0000E+00  0.2000E+01  0.2000E+01
    -18.920  0.0000E+00  0.0000E+00  0.2000E+01  0.2000E+01
    -18.771  0.0000E+00  0.0000E+00  0.2000E+01  0.2000E+01
    -18.622  0.0000E+00  0.0000E+00  0.2000E+01  0.2000E+01
    -18.473  0.0000E+00  0.0000E+00  0.2000E+01  0.2000E+01
    -18.324  0.0000E+00  0.0000E+00  0.2000E+01  0.2000E+01
    -18.175  0.0000E+00  0.0000E+00  0.2000E+01  0.2000E+01
    -18.026  0.8226E-03  0.8033E-03  0.2000E+01  0.2000E+01
    -17.877  0.1989E-01  0.1955E-01  0.2003E+01  0.2003E+01
    -17.727  0.3816E+00  0.3752E+00  0.2060E+01  0.2059E+01
    -17.578  0.5792E+01  0.5714E+01  0.2924E+01  0.2911E+01
    -17.429  0.2296E+02  0.2291E+02  0.6348E+01  0.6327E+01
    -17.280  0.1024E+02  0.1036E+02  0.7874E+01  0.7872E+01
    -17.131  0.7630E+00  0.7797E+00  0.7994E+01  0.7994E+01
    -16.982  0.0000E+00  0.0000E+00  0.8000E+01  0.8000E+01
    -16.833  0.0000E+00  0.0000E+00  0.8000E+01  0.8000E+01
    -16.684  0.0000E+00  0.0000E+00  0.8000E+01  0.8000E+01
    -16.535  0.0000E+00  0.0000E+00  0.8000E+01  0.8000E+01
    -16.386  0.0000E+00  0.0000E+00  0.8000E+01  0.8000E+01
    -16.236  0.0000E+00  0.0000E+00  0.8000E+01  0.8000E+01
    -16.087  0.0000E+00  0.0000E+00  0.8000E+01  0.8000E+01
    -15.938  0.0000E+00  0.0000E+00  0.8000E+01  0.8000E+01
    -15.789  0.0000E+00  0.0000E+00  0.8000E+01  0.8000E+01
    -15.640  0.0000E+00  0.0000E+00  0.8000E+01  0.8000E+01
    -15.491  0.0000E+00  0.0000E+00  0.8000E+01  0.8000E+01
    -15.342  0.0000E+00  0.0000E+00  0.8000E+01  0.8000E+01
    -15.193  0.0000E+00  0.0000E+00  0.8000E+01  0.8000E+01
    -15.044  0.0000E+00  0.0000E+00  0.8000E+01  0.8000E+01
    -14.895  0.0000E+00  0.0000E+00  0.8000E+01  0.8000E+01
    -14.745  0.0000E+00  0.0000E+00  0.8000E+01  0.8000E+01
    -14.596  0.0000E+00  0.0000E+00  0.8000E+01  0.8000E+01
    -14.447  0.0000E+00  0.0000E+00  0.8000E+01  0.8000E+01
    -14.298  0.0000E+00  0.0000E+00  0.8000E+01  0.8000E+01
    -14.149  0.0000E+00  0.0000E+00  0.8000E+01  0.8000E+01
    -14.000  0.0000E+00  0.0000E+00  0.8000E+01  0.8000E+01
    -13.851  0.0000E+00  0.0000E+00  0.8000E+01  0.8000E+01
    -13.702  0.0000E+00  0.0000E+00  0.8000E+01  0.8000E+01
    -13.553  0.0000E+00  0.0000E+00  0.8000E+01  0.8000E+01
    -13.403  0.0000E+00  0.0000E+00  0.8000E+01  0.8000E+01
    -13.254  0.0000E+00  0.0000E+00  0.8000E+01  0.8000E+01
    -13.105  0.0000E+00  0.0000E+00  0.8000E+01  0.8000E+01
    -12.956  0.0000E+00  0.0000E+00  0.8000E+01  0.8000E+01
    -12.807  0.0000E+00  0.0000E+00  0.8000E+01  0.8000E+01
    -12.658  0.0000E+00  0.0000E+00  0.8000E+01  0.8000E+01
    -12.509  0.0000E+00  0.0000E+00  0.8000E+01  0.8000E+01
    -12.360  0.0000E+00  0.0000E+00  0.8000E+01  0.8000E+01
    -12.211  0.0000E+00  0.0000E+00  0.8000E+01  0.8000E+01
    -12.062  0.0000E+00  0.0000E+00  0.8000E+01  0.8000E+01
    -11.912  0.0000E+00  0.0000E+00  0.8000E+01  0.8000E+01
    -11.763  0.0000E+00  0.0000E+00  0.8000E+01  0.8000E+01
    -11.614  0.0000E+00  0.0000E+00  0.8000E+01  0.8000E+01
    -11.465  0.0000E+00  0.0000E+00  0.8000E+01  0.8000E+01
    -11.316  0.0000E+00  0.0000E+00  0.8000E+01  0.8000E+01
    -11.167  0.0000E+00  0.0000E+00  0.8000E+01  0.8000E+01
    -11.018  0.0000E+00  0.0000E+00  0.8000E+01  0.8000E+01
    -10.869  0.0000E+00  0.0000E+00  0.8000E+01  0.8000E+01
    -10.720  0.0000E+00  0.0000E+00  0.8000E+01  0.8000E+01
    -10.571  0.0000E+00  0.0000E+00  0.8000E+01  0.8000E+01
    -10.421  0.0000E+00  0.0000E+00  0.8000E+01  0.8000E+01
    -10.272  0.0000E+00  0.0000E+00  0.8000E+01  0.8000E+01
    -10.123  0.0000E+00  0.0000E+00  0.8000E+01  0.8000E+01
     -9.974  0.0000E+00  0.0000E+00  0.8000E+01  0.8000E+01
     -9.825  0.0000E+00  0.0000E+00  0.8000E+01  0.8000E+01
     -9.676  0.0000E+00  0.0000E+00  0.8000E+01  0.8000E+01
     -9.527  0.0000E+00  0.0000E+00  0.8000E+01  0.8000E+01
     -9.378  0.0000E+00  0.0000E+00  0.8000E+01  0.8000E+01
     -9.229  0.0000E+00  0.0000E+00  0.8000E+01  0.8000E+01
     -9.080  0.0000E+00  0.0000E+00  0.8000E+01  0.8000E+01
     -8.930  0.0000E+00  0.0000E+00  0.8000E+01  0.8000E+01
     -8.781  0.0000E+00  0.0000E+00  0.8000E+01  0.8000E+01
     -8.632  0.0000E+00  0.0000E+00  0.8000E+01  0.8000E+01
     -8.483  0.0000E+00  0.0000E+00  0.8000E+01  0.8000E+01
     -8.334  0.0000E+00  0.0000E+00  0.8000E+01  0.8000E+01
     -8.185  0.0000E+00  0.0000E+00  0.8000E+01  0.8000E+01
     -8.036  0.0000E+00  0.0000E+00  0.8000E+01  0.8000E+01
     -7.887  0.0000E+00  0.0000E+00  0.8000E+01  0.8000E+01
     -7.738  0.0000E+00  0.0000E+00  0.8000E+01  0.8000E+01
     -7.588  0.0000E+00  0.0000E+00  0.8000E+01  0.8000E+01
     -7.439  0.0000E+00  0.0000E+00  0.8000E+01  0.8000E+01
     -7.290  0.0000E+00  0.0000E+00  0.8000E+01  0.8000E+01
     -7.141  0.0000E+00  0.0000E+00  0.8000E+01  0.8000E+01
     -6.992  0.0000E+00  0.0000E+00  0.8000E+01  0.8000E+01
     -6.843  0.0000E+00  0.0000E+00  0.8000E+01  0.8000E+01
     -6.694  0.0000E+00  0.0000E+00  0.8000E+01  0.8000E+01
     -6.545  0.0000E+00  0.0000E+00  0.8000E+01  0.8000E+01
     -6.396  0.0000E+00  0.0000E+00  0.8000E+01  0.8000E+01
     -6.247  0.0000E+00  0.0000E+00  0.8000E+01  0.8000E+01
     -6.097  0.0000E+00  0.0000E+00  0.8000E+01  0.8000E+01
     -5.948  0.0000E+00  0.0000E+00  0.8000E+01  0.8000E+01
     -5.799  0.0000E+00  0.0000E+00  0.8000E+01  0.8000E+01
     -5.650  0.0000E+00  0.0000E+00  0.8000E+01  0.8000E+01
     -5.501  0.0000E+00  0.0000E+00  0.8000E+01  0.8000E+01
     -5.352  0.0000E+00  0.0000E+00  0.8000E+01  0.8000E+01
     -5.203  0.0000E+00  0.0000E+00  0.8000E+01  0.8000E+01
     -5.054  0.0000E+00  0.0000E+00  0.8000E+01  0.8000E+01
     -4.905  0.0000E+00  0.0000E+00  0.8000E+01  0.8000E+01
     -4.756  0.0000E+00  0.0000E+00  0.8000E+01  0.8000E+01
     -4.606  0.0000E+00  0.0000E+00  0.8000E+01  0.8000E+01
     -4.457  0.0000E+00  0.0000E+00  0.8000E+01  0.8000E+01
     -4.308  0.0000E+00  0.0000E+00  0.8000E+01  0.8000E+01
     -4.159  0.0000E+00  0.0000E+00  0.8000E+01  0.8000E+01
     -4.010  0.0000E+00  0.0000E+00  0.8000E+01  0.8000E+01
     -3.861  0.0000E+00  0.0000E+00  0.8000E+01  0.8000E+01
     -3.712  0.0000E+00  0.0000E+00  0.8000E+01  0.8000E+01
     -3.563  0.0000E+00  0.0000E+00  0.8000E+01  0.8000E+01
     -3.414  0.0000E+00  0.0000E+00  0.8000E+01  0.8000E+01
     -3.264  0.0000E+00  0.0000E+00  0.8000E+01  0.8000E+01
     -3.115  0.0000E+00  0.0000E+00  0.8000E+01  0.8000E+01
     -2.966  0.0000E+00  0.0000E+00  0.8000E+01  0.8000E+01
     -2.817  0.0000E+00  0.0000E+00  0.8000E+01  0.8000E+01
     -2.668  0.2080E-05  0.1786E-05  0.8000E+01  0.8000E+01
     -2.519  0.5514E-04  0.4651E-04  0.8000E+01  0.8000E+01
     -2.370  0.1067E-02  0.9192E-03  0.8000E+01  0.8000E+01
     -2.221  0.1557E-01  0.1384E-01  0.8002E+01  0.8002E+01
     -2.072  0.7500E-01  0.7159E-01  0.8014E+01  0.8013E+01
     -1.923  0.1425E+00  0.1391E+00  0.8035E+01  0.8034E+01
     -1.773  0.1788E+00  0.1775E+00  0.8062E+01  0.8060E+01
     -1.624  0.2285E+00  0.2254E+00  0.8096E+01  0.8094E+01
     -1.475  0.2726E+00  0.2729E+00  0.8136E+01  0.8134E+01
     -1.326  0.2672E+00  0.2631E+00  0.8176E+01  0.8174E+01
     -1.177  0.3654E+00  0.3642E+00  0.8231E+01  0.8228E+01
     -1.028  0.3553E+00  0.3551E+00  0.8284E+01  0.8281E+01
     -0.879  0.3875E+00  0.3854E+00  0.8342E+01  0.8339E+01
     -0.730  0.4462E+00  0.4388E+00  0.8408E+01  0.8404E+01
     -0.581  0.5260E+00  0.5309E+00  0.8487E+01  0.8483E+01
     -0.432  0.4472E+00  0.4470E+00  0.8554E+01  0.8550E+01
     -0.282  0.5936E+00  0.5829E+00  0.8642E+01  0.8637E+01
     -0.133  0.6790E+00  0.6827E+00  0.8744E+01  0.8739E+01
      0.016  0.6534E+00  0.6503E+00  0.8841E+01  0.8836E+01
      0.165  0.7501E+00  0.7489E+00  0.8953E+01  0.8948E+01
      0.314  0.9057E+00  0.8981E+00  0.9089E+01  0.9082E+01
      0.463  0.9593E+00  0.9579E+00  0.9232E+01  0.9225E+01
      0.612  0.7802E+00  0.7840E+00  0.9348E+01  0.9343E+01
      0.761  0.9810E+00  0.9616E+00  0.9495E+01  0.9486E+01
      0.910  0.9755E+00  0.9810E+00  0.9641E+01  0.9633E+01
      1.060  0.9586E+00  0.9554E+00  0.9784E+01  0.9775E+01
      1.209  0.8165E+00  0.8139E+00  0.9906E+01  0.9897E+01
      1.358  0.1236E+01  0.1193E+01  0.1009E+02  0.1008E+02
      1.507  0.2344E+01  0.2330E+01  0.1044E+02  0.1042E+02
      1.656  0.3137E+01  0.3176E+01  0.1091E+02  0.1090E+02
      1.805  0.2307E+01  0.2345E+01  0.1125E+02  0.1125E+02
      1.954  0.1454E+01  0.1456E+01  0.1147E+02  0.1146E+02
      2.103  0.1156E+01  0.1163E+01  0.1164E+02  0.1164E+02
      2.252  0.1173E+01  0.1155E+01  0.1182E+02  0.1181E+02
      2.401  0.1495E+01  0.1467E+01  0.1204E+02  0.1203E+02
      2.551  0.1997E+01  0.1979E+01  0.1234E+02  0.1233E+02
      2.700  0.2440E+01  0.2454E+01  0.1271E+02  0.1269E+02
      2.849  0.2827E+01  0.2845E+01  0.1313E+02  0.1312E+02
      2.998  0.2608E+01  0.2632E+01  0.1352E+02  0.1351E+02
      3.147  0.1658E+01  0.1662E+01  0.1376E+02  0.1376E+02
      3.296  0.1461E+01  0.1455E+01  0.1398E+02  0.1398E+02
      3.445  0.1502E+01  0.1492E+01  0.1421E+02  0.1420E+02
      3.594  0.1722E+01  0.1715E+01  0.1447E+02  0.1446E+02
      3.743  0.1972E+01  0.1963E+01  0.1476E+02  0.1475E+02
      3.892  0.1775E+01  0.1789E+01  0.1503E+02  0.1502E+02
      4.042  0.1417E+01  0.1436E+01  0.1524E+02  0.1523E+02
      4.191  0.1094E+01  0.1107E+01  0.1540E+02  0.1540E+02
      4.340  0.8407E+00  0.8803E+00  0.1553E+02  0.1553E+02
      4.489  0.9895E+00  0.9735E+00  0.1567E+02  0.1568E+02
      4.638  0.9147E+00  0.8949E+00  0.1581E+02  0.1581E+02
      4.787  0.6356E+00  0.6726E+00  0.1591E+02  0.1591E+02
      4.936  0.3448E+00  0.3427E+00  0.1596E+02  0.1596E+02
      5.085  0.1702E+00  0.1497E+00  0.1598E+02  0.1598E+02
      5.234  0.9622E-01  0.9744E-01  0.1600E+02  0.1600E+02
      5.383  0.1017E-01  0.1183E-01  0.1600E+02  0.1600E+02
      5.533  0.0000E+00  0.1893E-03  0.1600E+02  0.1600E+02
      5.682  0.0000E+00  0.0000E+00  0.1600E+02  0.1600E+02
      5.831  0.0000E+00  0.0000E+00  0.1600E+02  0.1600E+02
      5.980  0.0000E+00  0.0000E+00  0.1600E+02  0.1600E+02
      6.129  0.0000E+00  0.0000E+00  0.1600E+02  0.1600E+02
      6.278  0.0000E+00  0.0000E+00  0.1600E+02  0.1600E+02
      6.427  0.0000E+00  0.0000E+00  0.1600E+02  0.1600E+02
      6.576  0.0000E+00  0.0000E+00  0.1600E+02  0.1600E+02
      6.725  0.0000E+00  0.0000E+00  0.1600E+02  0.1600E+02
      6.875  0.0000E+00  0.0000E+00  0.1600E+02  0.1600E+02
      7.024  0.0000E+00  0.0000E+00  0.1600E+02  0.1600E+02
      7.173  0.0000E+00  0.0000E+00  0.1600E+02  0.1600E+02
      7.17273541    -37.55819492  301      1.30107383      1.00000000
    -37.558  0.0000E+00  0.0000E+00  0.0000E+00  0.0000E+00  0.0000E+00  0.0000E+00  0.0000E+00  0.0000E+00  0.0000E+00  0.0000E+00  0.0000E+00  0.0000E+00  0.0000E+00  0.0000E+00  0.0000E+00  0.0000E+00  0.0000E+00  0.0000E+00
    -37.409  0.0000E+00  0.0000E+00  0.0000E+00  0.0000E+00  0.0000E+00  0.0000E+00  0.0000E+00  0.0000E+00  0.0000E+00  0.0000E+00  0.0000E+00  0.0000E+00  0.0000E+00  0.0000E+00  0.0000E+00  0.0000E+00  0.0000E+00  0.0000E+00
    -37.260  0.0000E+00  0.0000E+00  0.0000E+00  0.0000E+00  0.0000E+00  0.0000E+00  0.0000E+00  0.0000E+00  0.0000E+00  0.0000E+00  0.0000E+00  0.0000E+00  0.0000E+00  0.0000E+00  0.0000E+00  0.0000E+00  0.0000E+00  0.0000E+00
    -37.111  0.0000E+00  0.0000E+00  0.0000E+00  0.0000E+00  0.0000E+00  0.0000E+00  0.0000E+00  0.0000E+00  0.0000E+00  0.0000E+00  0.0000E+00  0.0000E+00  0.0000E+00  0.0000E+00  0.0000E+00  0.0000E+00  0.0000E+00  0.0000E+00
    -36.962  0.0000E+00  0.0000E+00  0.0000E+00  0.0000E+00  0.0000E+00  0.0000E+00  0.0000E+00  0.0000E+00  0.0000E+00  0.0000E+00  0.0000E+00  0.0000E+00  0.0000E+00  0.0000E+00  0.0000E+00  0.0000E+00  0.0000E+00  0.0000E+00
    -36.813  0.0000E+00  0.0000E+00  0.0000E+00  0.0000E+00  0.0000E+00  0.0000E+00  0.0000E+00  0.0000E+00  0.0000E+00  0.0000E+00  0.0000E+00  0.0000E+00  0.0000E+00  0.0000E+00  0.0000E+00  0.0000E+00  0.0000E+00  0.0000E+00
    -36.664  0.0000E+00  0.0000E+00  0.0000E+00  0.0000E+00  0.0000E+00  0.0000E+00  0.0000E+00  0.0000E+00  0.0000E+00  0.0000E+00  0.0000E+00  0.0000E+00  0.0000E+00  0.0000E+00  0.0000E+00  0.0000E+00  0.0000E+00  0.0000E+00
    -36.514  0.0000E+00  0.0000E+00  0.0000E+00  0.0000E+00  0.0000E+00  0.0000E+00  0.0000E+00  0.0000E+00  0.0000E+00  0.0000E+00  0.0000E+00  0.0000E+00  0.0000E+00  0.0000E+00  0.0000E+00  0.0000E+00  0.0000E+00  0.0000E+00
    -36.365  0.0000E+00  0.0000E+00  0.0000E+00  0.0000E+00  0.0000E+00  0.0000E+00  0.0000E+00  0.0000E+00  0.0000E+00  0.0000E+00  0.0000E+00  0.0000E+00  0.0000E+00  0.0000E+00  0.0000E+00  0.0000E+00  0.0000E+00  0.0000E+00
    -36.216  0.0000E+00  0.0000E+00  0.0000E+00  0.0000E+00  0.0000E+00  0.0000E+00  0.0000E+00  0.0000E+00  0.0000E+00  0.0000E+00  0.0000E+00  0.0000E+00  0.0000E+00  0.0000E+00  0.0000E+00  0.0000E+00  0.0000E+00  0.0000E+00
    -36.067  0.2227E-04  0.1838E-04  0.1300E-11  0.1047E-11  0.1159E-11  0.9719E-12  0.1300E-11  0.1047E-11  0.8419E-13  0.5876E-13  0.4168E-13  0.3055E-13  0.3945E-12  0.4093E-12  0.4168E-13  0.3055E-13  0.8419E-13  0.5876E-13
    -35.918  0.2102E-02  0.2077E-02  0.6363E-10  0.6316E-10  0.5467E-10  0.5363E-10  0.6363E-10  0.6316E-10  0.1621E-10  0.1609E-10  0.1045E-10  0.1028E-10  0.3913E-10  0.4772E-10  0.1045E-10  0.1028E-10  0.1621E-10  0.1609E-10
    -35.769  0.3954E-01  0.3899E-01  0.1208E-08  0.1195E-08  0.1039E-08  0.1016E-08  0.1208E-08  0.1195E-08  0.3032E-09  0.3006E-09  0.1953E-09  0.1919E-09  0.7355E-09  0.8956E-09  0.1953E-09  0.1919E-09  0.3032E-09  0.3006E-09
    -35.620  0.6928E+00  0.6843E+00  0.2110E-07  0.2090E-07  0.1814E-07  0.1777E-07  0.2110E-07  0.2090E-07  0.5320E-08  0.5282E-08  0.3429E-08  0.3375E-08  0.1288E-07  0.1571E-07  0.3429E-08  0.3375E-08  0.5320E-08  0.5282E-08
    -35.471  0.3948E+01  0.3938E+01  0.1178E-06  0.1179E-06  0.1011E-06  0.1000E-06  0.1178E-06  0.1179E-06  0.3050E-07  0.3058E-07  0.1976E-07  0.1965E-07  0.7311E-07  0.9005E-07  0.1976E-07  0.1965E-07  0.3050E-07  0.3058E-07
    -35.322  0.1757E+01  0.1774E+01  0.5116E-07  0.5180E-07  0.4380E-07  0.4387E-07  0.5116E-07  0.5180E-07  0.1367E-07  0.1387E-07  0.8913E-08  0.8967E-08  0.3237E-07  0.4036E-07  0.8913E-08  0.8967E-08  0.1367E-07  0.1387E-07
    -35.173  0.1250E+00  0.1267E+00  0.3608E-08  0.3668E-08  0.3087E-08  0.3105E-08  0.3608E-08  0.3668E-08  0.9738E-09  0.9919E-09  0.6363E-09  0.6428E-09  0.2297E-08  0.2876E-08  0.6363E-09  0.6428E-09  0.9738E-09  0.9919E-09
    -35.023  0.0000E+00  0.0000E+00  0.0000E+00  0.0000E+00  0.0000E+00  0.0000E+00  0.0000E+00  0.0000E+00  0.0000E+00  0.0000E+00  0.0000E+00  0.0000E+00  0.0000E+00  0.0000E+00  0.0000E+00  0.0000E+00  0.0000E+00  0.0000E+00
    -34.874  0.0000E+00  0.0000E+00  0.0000E+00  0.0000E+00  0.0000E+00  0.0000E+00  0.0000E+00  0.0000E+00  0.0000E+00  0.0000E+00  0.0000E+00  0.0000E+00  0.0000E+00  0.0000E+00  0.0000E+00  0.0000E+00  0.0000E+00  0.0000E+00
    -34.725  0.0000E+00  0.0000E+00  0.0000E+00  0.0000E+00  0.0000E+00  0.0000E+00  0.0000E+00  0.0000E+00  0.0000E+00  0.0000E+00  0.0000E+00  0.0000E+00  0.0000E+00  0.0000E+00  0.0000E+00  0.0000E+00  0.0000E+00  0.0000E+00
    -34.576  0.0000E+00  0.0000E+00  0.0000E+00  0.0000E+00  0.0000E+00  0.0000E+00  0.0000E+00  0.0000E+00  0.0000E+00  0.0000E+00  0.0000E+00  0.0000E+00  0.0000E+00  0.0000E+00  0.0000E+00  0.0000E+00  0.0000E+00  0.0000E+00
    -34.427  0.0000E+00  0.0000E+00  0.0000E+00  0.0000E+00  0.0000E+00  0.0000E+00  0.0000E+00  0.0000E+00  0.0000E+00  0.0000E+00  0.0000E+00  0.0000E+00  0.0000E+00  0.0000E+00  0.0000E+00  0.0000E+00  0.0000E+00  0.0000E+00
    -34.278  0.0000E+00  0.0000E+00  0.0000E+00  0.0000E+00  0.0000E+00  0.0000E+00  0.0000E+00  0.0000E+00  0.0000E+00  0.0000E+00  0.0000E+00  0.0000E+00  0.0000E+00  0.0000E+00  0.0000E+00  0.0000E+00  0.0000E+00  0.0000E+00
    -34.129  0.0000E+00  0.0000E+00  0.0000E+00  0.0000E+00  0.0000E+00  0.0000E+00  0.0000E+00  0.0000E+00  0.0000E+00  0.0000E+00  0.0000E+00  0.0000E+00  0.0000E+00  0.0000E+00  0.0000E+00  0.0000E+00  0.0000E+00  0.0000E+00
    -33.980  0.0000E+00  0.0000E+00  0.0000E+00  0.0000E+00  0.0000E+00  0.0000E+00  0.0000E+00  0.0000E+00  0.0000E+00  0.0000E+00  0.0000E+00  0.0000E+00  0.0000E+00  0.0000E+00  0.0000E+00  0.0000E+00  0.0000E+00  0.0000E+00
    -33.831  0.0000E+00  0.0000E+00  0.0000E+00  0.0000E+00  0.0000E+00  0.0000E+00  0.0000E+00  0.0000E+00  0.0000E+00  0.0000E+00  0.0000E+00  0.0000E+00  0.0000E+00  0.0000E+00  0.0000E+00  0.0000E+00  0.0000E+00  0.0000E+00
    -33.682  0.0000E+00  0.0000E+00  0.0000E+00  0.0000E+00  0.0000E+00  0.0000E+00  0.0000E+00  0.0000E+00  0.0000E+00  0.0000E+00  0.0000E+00  0.0000E+00  0.0000E+00  0.0000E+00  0.0000E+00  0.0000E+00  0.0000E+00  0.0000E+00
    -33.532  0.0000E+00  0.0000E+00  0.0000E+00  0.0000E+00  0.0000E+00  0.0000E+00  0.0000E+00  0.0000E+00  0.0000E+00  0.0000E+00  0.0000E+00  0.0000E+00  0.0000E+00  0.0000E+00  0.0000E+00  0.0000E+00  0.0000E+00  0.0000E+00
    -33.383  0.0000E+00  0.0000E+00  0.0000E+00  0.0000E+00  0.0000E+00  0.0000E+00  0.0000E+00  0.0000E+00  0.0000E+00  0.0000E+00  0.0000E+00  0.0000E+00  0.0000E+00  0.0000E+00  0.0000E+00  0.0000E+00  0.0000E+00  0.0000E+00
    -33.234  0.0000E+00  0.0000E+00  0.0000E+00  0.0000E+00  0.0000E+00  0.0000E+00  0.0000E+00  0.0000E+00  0.0000E+00  0.0000E+00  0.0000E+00  0.0000E+00  0.0000E+00  0.0000E+00  0.0000E+00  0.0000E+00  0.0000E+00  0.0000E+00
    -33.085  0.0000E+00  0.0000E+00  0.0000E+00  0.0000E+00  0.0000E+00  0.0000E+00  0.0000E+00  0.0000E+00  0.0000E+00  0.0000E+00  0.0000E+00  0.0000E+00  0.0000E+00  0.0000E+00  0.0000E+00  0.0000E+00  0.0000E+00  0.0000E+00
    -32.936  0.0000E+00  0.0000E+00  0.0000E+00  0.0000E+00  0.0000E+00  0.0000E+00  0.0000E+00  0.0000E+00  0.0000E+00  0.0000E+00  0.0000E+00  0.0000E+00  0.0000E+00  0.0000E+00  0.0000E+00  0.0000E+00  0.0000E+00  0.0000E+00
    -32.787  0.0000E+00  0.0000E+00  0.0000E+00  0.0000E+00  0.0000E+00  0.0000E+00  0.0000E+00  0.0000E+00  0.0000E+00  0.0000E+00  0.0000E+00  0.0000E+00  0.0000E+00  0.0000E+00  0.0000E+00  0.0000E+00  0.0000E+00  0.0000E+00
    -32.638  0.0000E+00  0.0000E+00  0.0000E+00  0.0000E+00  0.0000E+00  0.0000E+00  0.0000E+00  0.0000E+00  0.0000E+00  0.0000E+00  0.0000E+00  0.0000E+00  0.0000E+00  0.0000E+00  0.0000E+00  0.0000E+00  0.0000E+00  0.0000E+00
    -32.489  0.0000E+00  0.0000E+00  0.0000E+00  0.0000E+00  0.0000E+00  0.0000E+00  0.0000E+00  0.0000E+00  0.0000E+00  0.0000E+00  0.0000E+00  0.0000E+00  0.0000E+00  0.0000E+00  0.0000E+00  0.0000E+00  0.0000E+00  0.0000E+00
    -32.340  0.0000E+00  0.0000E+00  0.0000E+00  0.0000E+00  0.0000E+00  0.0000E+00  0.0000E+00  0.0000E+00  0.0000E+00  0.0000E+00  0.0000E+00  0.0000E+00  0.0000E+00  0.0000E+00  0.0000E+00  0.0000E+00  0.0000E+00  0.0000E+00
    -32.190  0.0000E+00  0.0000E+00  0.0000E+00  0.0000E+00  0.0000E+00  0.0000E+00  0.0000E+00  0.0000E+00  0.0000E+00  0.0000E+00  0.0000E+00  0.0000E+00  0.0000E+00  0.0000E+00  0.0000E+00  0.0000E+00  0.0000E+00  0.0000E+00
    -32.041  0.0000E+00  0.0000E+00  0.0000E+00  0.0000E+00  0.0000E+00  0.0000E+00  0.0000E+00  0.0000E+00  0.0000E+00  0.0000E+00  0.0000E+00  0.0000E+00  0.0000E+00  0.0000E+00  0.0000E+00  0.0000E+00  0.0000E+00  0.0000E+00
    -31.892  0.0000E+00  0.0000E+00  0.0000E+00  0.0000E+00  0.0000E+00  0.0000E+00  0.0000E+00  0.0000E+00  0.0000E+00  0.0000E+00  0.0000E+00  0.0000E+00  0.0000E+00  0.0000E+00  0.0000E+00  0.0000E+00  0.0000E+00  0.0000E+00
    -31.743  0.0000E+00  0.0000E+00  0.0000E+00  0.0000E+00  0.0000E+00  0.0000E+00  0.0000E+00  0.0000E+00  0.0000E+00  0.0000E+00  0.0000E+00  0.0000E+00  0.0000E+00  0.0000E+00  0.0000E+00  0.0000E+00  0.0000E+00  0.0000E+00
    -31.594  0.0000E+00  0.0000E+00  0.0000E+00  0.0000E+00  0.0000E+00  0.0000E+00  0.0000E+00  0.0000E+00  0.0000E+00  0.0000E+00  0.0000E+00  0.0000E+00  0.0000E+00  0.0000E+00  0.0000E+00  0.0000E+00  0.0000E+00  0.0000E+00
    -31.445  0.0000E+00  0.0000E+00  0.0000E+00  0.0000E+00  0.0000E+00  0.0000E+00  0.0000E+00  0.0000E+00  0.0000E+00  0.0000E+00  0.0000E+00  0.0000E+00  0.0000E+00  0.0000E+00  0.0000E+00  0.0000E+00  0.0000E+00  0.0000E+00
    -31.296  0.0000E+00  0.0000E+00  0.0000E+00  0.0000E+00  0.0000E+00  0.0000E+00  0.0000E+00  0.0000E+00  0.0000E+00  0.0000E+00  0.0000E+00  0.0000E+00  0.0000E+00  0.0000E+00  0.0000E+00  0.0000E+00  0.0000E+00  0.0000E+00
    -31.147  0.0000E+00  0.0000E+00  0.0000E+00  0.0000E+00  0.0000E+00  0.0000E+00  0.0000E+00  0.0000E+00  0.0000E+00  0.0000E+00  0.0000E+00  0.0000E+00  0.0000E+00  0.0000E+00  0.0000E+00  0.0000E+00  0.0000E+00  0.0000E+00
    -30.998  0.0000E+00  0.0000E+00  0.0000E+00  0.0000E+00  0.0000E+00  0.0000E+00  0.0000E+00  0.0000E+00  0.0000E+00  0.0000E+00  0.0000E+00  0.0000E+00  0.0000E+00  0.0000E+00  0.0000E+00  0.0000E+00  0.0000E+00  0.0000E+00
    -30.849  0.0000E+00  0.0000E+00  0.0000E+00  0.0000E+00  0.0000E+00  0.0000E+00  0.0000E+00  0.0000E+00  0.0000E+00  0.0000E+00  0.0000E+00  0.0000E+00  0.0000E+00  0.0000E+00  0.0000E+00  0.0000E+00  0.0000E+00  0.0000E+00
    -30.699  0.0000E+00  0.0000E+00  0.0000E+00  0.0000E+00  0.0000E+00  0.0000E+00  0.0000E+00  0.0000E+00  0.0000E+00  0.0000E+00  0.0000E+00  0.0000E+00  0.0000E+00  0.0000E+00  0.0000E+00  0.0000E+00  0.0000E+00  0.0000E+00
    -30.550  0.0000E+00  0.0000E+00  0.0000E+00  0.0000E+00  0.0000E+00  0.0000E+00  0.0000E+00  0.0000E+00  0.0000E+00  0.0000E+00  0.0000E+00  0.0000E+00  0.0000E+00  0.0000E+00  0.0000E+00  0.0000E+00  0.0000E+00  0.0000E+00
    -30.401  0.0000E+00  0.0000E+00  0.0000E+00  0.0000E+00  0.0000E+00  0.0000E+00  0.0000E+00  0.0000E+00  0.0000E+00  0.0000E+00  0.0000E+00  0.0000E+00  0.0000E+00  0.0000E+00  0.0000E+00  0.0000E+00  0.0000E+00  0.0000E+00
    -30.252  0.0000E+00  0.0000E+00  0.0000E+00  0.0000E+00  0.0000E+00  0.0000E+00  0.0000E+00  0.0000E+00  0.0000E+00  0.0000E+00  0.0000E+00  0.0000E+00  0.0000E+00  0.0000E+00  0.0000E+00  0.0000E+00  0.0000E+00  0.0000E+00
    -30.103  0.0000E+00  0.0000E+00  0.0000E+00  0.0000E+00  0.0000E+00  0.0000E+00  0.0000E+00  0.0000E+00  0.0000E+00  0.0000E+00  0.0000E+00  0.0000E+00  0.0000E+00  0.0000E+00  0.0000E+00  0.0000E+00  0.0000E+00  0.0000E+00