   2   2   1   0
  0.5859890E+02  0.4343254E-09  0.4343254E-09  0.7173950E-09  0.5000000E-15
  1.000000000000000E-004
  CAR 
 unknown system                          
      7.41197961    -37.40876930  301      1.39577378      1.00000000
    -37.409  0.0000E+00  0.0000E+00  0.0000E+00  0.0000E+00
    -37.259  0.0000E+00  0.0000E+00  0.0000E+00  0.0000E+00
    -37.110  0.0000E+00  0.0000E+00  0.0000E+00  0.0000E+00
    -36.961  0.0000E+00  0.0000E+00  0.0000E+00  0.0000E+00
    -36.811  0.0000E+00  0.0000E+00  0.0000E+00  0.0000E+00
    -36.662  0.0000E+00  0.0000E+00  0.0000E+00  0.0000E+00
    -36.512  0.0000E+00  0.0000E+00  0.0000E+00  0.0000E+00
    -36.363  0.0000E+00  0.0000E+00  0.0000E+00  0.0000E+00
    -36.214  0.0000E+00  0.0000E+00  0.0000E+00  0.0000E+00
    -36.064  0.0000E+00  0.0000E+00  0.0000E+00  0.0000E+00
    -35.915  0.2833E-04  0.1835E-04  0.4233E-05  0.2741E-05
    -35.765  0.4118E-02  0.4045E-02  0.6195E-03  0.6070E-03
    -35.616  0.7767E-01  0.7611E-01  0.1222E-01  0.1198E-01
    -35.467  0.1374E+01  0.1349E+01  0.2175E+00  0.2136E+00
    -35.317  0.8012E+01  0.7982E+01  0.1415E+01  0.1406E+01
    -35.168  0.3645E+01  0.3696E+01  0.1959E+01  0.1958E+01
    -35.018  0.2596E+00  0.2649E+00  0.1998E+01  0.1998E+01
    -34.869  0.0000E+00  0.0000E+00  0.2000E+01  0.2000E+01
    -34.720  0.0000E+00  0.0000E+00  0.2000E+01  0.2000E+01
    -34.570  0.0000E+00  0.0000E+00  0.2000E+01  0.2000E+01
    -34.421  0.0000E+00  0.0000E+00  0.2000E+01  0.2000E+01
    -34.271  0.0000E+00  0.0000E+00  0.2000E+01  0.2000E+01
    -34.122  0.0000E+00  0.0000E+00  0.2000E+01  0.2000E+01
    -33.973  0.0000E+00  0.0000E+00  0.2000E+01  0.2000E+01
    -33.823  0.0000E+00  0.0000E+00  0.2000E+01  0.2000E+01
    -33.674  0.0000E+00  0.0000E+00  0.2000E+01  0.2000E+01
    -33.524  0.0000E+00  0.0000E+00  0.2000E+01  0.2000E+01
    -33.375  0.0000E+00  0.0000E+00  0.2000E+01  0.2000E+01
    -33.225  0.0000E+00  0.0000E+00  0.2000E+01  0.2000E+01
    -33.076  0.0000E+00  0.0000E+00  0.2000E+01  0.2000E+01
    -32.927  0.0000E+00  0.0000E+00  0.2000E+01  0.2000E+01
    -32.777  0.0000E+00  0.0000E+00  0.2000E+01  0.2000E+01
    -32.628  0.0000E+00  0.0000E+00  0.2000E+01  0.2000E+01
    -32.478  0.0000E+00  0.0000E+00  0.2000E+01  0.2000E+01
    -32.329  0.0000E+00  0.0000E+00  0.2000E+01  0.2000E+01
    -32.180  0.0000E+00  0.0000E+00  0.2000E+01  0.2000E+01
    -32.030  0.0000E+00  0.0000E+00  0.2000E+01  0.2000E+01
    -31.881  0.0000E+00  0.0000E+00  0.2000E+01  0.2000E+01
    -31.731  0.0000E+00  0.0000E+00  0.2000E+01  0.2000E+01
    -31.582  0.0000E+00  0.0000E+00  0.2000E+01  0.2000E+01
    -31.433  0.0000E+00  0.0000E+00  0.2000E+01  0.2000E+01
    -31.283  0.0000E+00  0.0000E+00  0.2000E+01  0.2000E+01
    -31.134  0.0000E+00  0.0000E+00  0.2000E+01  0.2000E+01
    -30.984  0.0000E+00  0.0000E+00  0.2000E+01  0.2000E+01
    -30.835  0.0000E+00  0.0000E+00  0.2000E+01  0.2000E+01
    -30.686  0.0000E+00  0.0000E+00  0.2000E+01  0.2000E+01
    -30.536  0.0000E+00  0.0000E+00  0.2000E+01  0.2000E+01
    -30.387  0.0000E+00  0.0000E+00  0.2000E+01  0.2000E+01
    -30.237  0.0000E+00  0.0000E+00  0.2000E+01  0.2000E+01
    -30.088  0.0000E+00  0.0000E+00  0.2000E+01  0.2000E+01
    -29.939  0.0000E+00  0.0000E+00  0.2000E+01  0.2000E+01
    -29.789  0.0000E+00  0.0000E+00  0.2000E+01  0.2000E+01
    -29.640  0.0000E+00  0.0000E+00  0.2000E+01  0.2000E+01
    -29.490  0.0000E+00  0.0000E+00  0.2000E+01  0.2000E+01
    -29.341  0.0000E+00  0.0000E+00  0.2000E+01  0.2000E+01
    -29.192  0.0000E+00  0.0000E+00  0.2000E+01  0.2000E+01
    -29.042  0.0000E+00  0.0000E+00  0.2000E+01  0.2000E+01
    -28.893  0.0000E+00  0.0000E+00  0.2000E+01  0.2000E+01
    -28.743  0.0000E+00  0.0000E+00  0.2000E+01  0.2000E+01
    -28.594  0.0000E+00  0.0000E+00  0.2000E+01  0.2000E+01
    -28.445  0.0000E+00  0.0000E+00  0.2000E+01  0.2000E+01
    -28.295  0.0000E+00  0.0000E+00  0.2000E+01  0.2000E+01
    -28.146  0.0000E+00  0.0000E+00  0.2000E+01  0.2000E+01
    -27.996  0.0000E+00  0.0000E+00  0.2000E+01  0.2000E+01
    -27.847  0.0000E+00  0.0000E+00  0.2000E+01  0.2000E+01
    -27.698  0.0000E+00  0.0000E+00  0.2000E+01  0.2000E+01
    -27.548  0.0000E+00  0.0000E+00  0.2000E+01  0.2000E+01
    -27.399  0.0000E+00  0.0000E+00  0.2000E+01  0.2000E+01
    -27.249  0.0000E+00  0.0000E+00  0.2000E+01  0.2000E+01
    -27.100  0.0000E+00  0.0000E+00  0.2000E+01  0.2000E+01
    -26.951  0.0000E+00  0.0000E+00  0.2000E+01  0.2000E+01
    -26.801  0.0000E+00  0.0000E+00  0.2000E+01  0.2000E+01
    -26.652  0.0000E+00  0.0000E+00  0.2000E+01  0.2000E+01
    -26.502  0.0000E+00  0.0000E+00  0.2000E+01  0.2000E+01
    -26.353  0.0000E+00  0.0000E+00  0.2000E+01  0.2000E+01
    -26.204  0.0000E+00  0.0000E+00  0.2000E+01  0.2000E+01
    -26.054  0.0000E+00  0.0000E+00  0.2000E+01  0.2000E+01
    -25.905  0.0000E+00  0.0000E+00  0.2000E+01  0.2000E+01
    -25.755  0.0000E+00  0.0000E+00  0.2000E+01  0.2000E+01
    -25.606  0.0000E+00  0.0000E+00  0.2000E+01  0.2000E+01
    -25.457  0.0000E+00  0.0000E+00  0.2000E+01  0.2000E+01
    -25.307  0.0000E+00  0.0000E+00  0.2000E+01  0.2000E+01
    -25.158  0.0000E+00  0.0000E+00  0.2000E+01  0.2000E+01
    -25.008  0.0000E+00  0.0000E+00  0.2000E+01  0.2000E+01
    -24.859  0.0000E+00  0.0000E+00  0.2000E+01  0.2000E+01
    -24.710  0.0000E+00  0.0000E+00  0.2000E+01  0.2000E+01
    -24.560  0.0000E+00  0.0000E+00  0.2000E+01  0.2000E+01
    -24.411  0.0000E+00  0.0000E+00  0.2000E+01  0.2000E+01
    -24.261  0.0000E+00  0.0000E+00  0.2000E+01  0.2000E+01
    -24.112  0.0000E+00  0.0000E+00  0.2000E+01  0.2000E+01
    -23.963  0.0000E+00  0.0000E+00  0.2000E+01  0.2000E+01
    -23.813  0.0000E+00  0.0000E+00  0.2000E+01  0.2000E+01
    -23.664  0.0000E+00  0.0000E+00  0.2000E+01  0.2000E+01
    -23.514  0.0000E+00  0.0000E+00  0.2000E+01  0.2000E+01
    -23.365  0.0000E+00  0.0000E+00  0.2000E+01  0.2000E+01
    -23.216  0.0000E+00  0.0000E+00  0.2000E+01  0.2000E+01
    -23.066  0.0000E+00  0.0000E+00  0.2000E+01  0.2000E+01
    -22.917  0.0000E+00  0.0000E+00  0.2000E+01  0.2000E+01
    -22.767  0.0000E+00  0.0000E+00  0.2000E+01  0.2000E+01
    -22.618  0.0000E+00  0.0000E+00  0.2000E+01  0.2000E+01
    -22.469  0.0000E+00  0.0000E+00  0.2000E+01  0.2000E+01
    -22.319  0.0000E+00  0.0000E+00  0.2000E+01  0.2000E+01
    -22.170  0.0000E+00  0.0000E+00  0.2000E+01  0.2000E+01
    -22.020  0.0000E+00  0.0000E+00  0.2000E+01  0.2000E+01
    -21.871  0.0000E+00  0.0000E+00  0.2000E+01  0.2000E+01
    -21.722  0.0000E+00  0.0000E+00  0.2000E+01  0.2000E+01
    -21.572  0.0000E+00  0.0000E+00  0.2000E+01  0.2000E+01
    -21.423  0.0000E+00  0.0000E+00  0.2000E+01  0.2000E+01
    -21.273  0.0000E+00  0.0000E+00  0.2000E+01  0.2000E+01
    -21.124  0.0000E+00  0.0000E+00  0.2000E+01  0.2000E+01
    -20.974  0.0000E+00  0.0000E+00  0.2000E+01  0.2000E+01
    -20.825  0.0000E+00  0.0000E+00  0.2000E+01  0.2000E+01
    -20.676  0.0000E+00  0.0000E+00  0.2000E+01  0.2000E+01
    -20.526  0.0000E+00  0.0000E+00  0.2000E+01  0.2000E+01
    -20.377  0.0000E+00  0.0000E+00  0.2000E+01  0.2000E+01
    -20.227  0.0000E+00  0.0000E+00  0.2000E+01  0.2000E+01
    -20.078  0.0000E+00  0.0000E+00  0.2000E+01  0.2000E+01
    -19.929  0.0000E+00  0.0000E+00  0.2000E+01  0.2000E+01
    -19.779  0.0000E+00  0.0000E+00  0.2000E+01  0.2000E+01
    -19.630  0.0000E+00  0.0000E+00  0.2000E+01  0.2000E+01
    -19.480  0.0000E+00  0.0000E+00  0.2000E+01  0.2000E+01
    -19.331  0.0000E+00  0.0000E+00  0.2000E+01  0.2000E+01
    -19.182  0.0000E+00  0.0000E+00  0.2000E+01  0.2000E+01
    -19.032  0.0000E+00  0.0000E+00  0.2000E+01  0.2000E+01
    -18.883  0.0000E+00  0.0000E+00  0.2000E+01  0.2000E+01
    -18.733  0.0000E+00  0.0000E+00  0.2000E+01  0.2000E+01
    -18.584  0.0000E+00  0.0000E+00  0.2000E+01  0.2000E+01
    -18.435  0.0000E+00  0.0000E+00  0.2000E+01  0.2000E+01
    -18.285  0.0000E+00  0.0000E+00  0.2000E+01  0.2000E+01
    -18.136  0.0000E+00  0.0000E+00  0.2000E+01  0.2000E+01
    -17.986  0.0000E+00  0.0000E+00  0.2000E+01  0.2000E+01
    -17.837  0.2383E-02  0.2323E-02  0.2000E+01  0.2000E+01
    -17.688  0.4594E-01  0.4499E-01  0.2007E+01  0.2007E+01
    -17.538  0.8740E+00  0.8563E+00  0.2138E+01  0.2135E+01
    -17.389  0.1020E+02  0.1006E+02  0.3661E+01  0.3639E+01
    -17.239  0.2272E+02  0.2275E+02  0.7055E+01  0.7038E+01
    -17.090  0.5924E+01  0.6029E+01  0.7940E+01  0.7939E+01
    -16.941  0.3306E+00  0.3408E+00  0.7997E+01  0.7997E+01
    -16.791  0.0000E+00  0.0000E+00  0.8000E+01  0.8000E+01
    -16.642  0.0000E+00  0.0000E+00  0.8000E+01  0.8000E+01
    -16.492  0.0000E+00  0.0000E+00  0.8000E+01  0.8000E+01
    -16.343  0.0000E+00  0.0000E+00  0.8000E+01  0.8000E+01
    -16.194  0.0000E+00  0.0000E+00  0.8000E+01  0.8000E+01
    -16.044  0.0000E+00  0.0000E+00  0.8000E+01  0.8000E+01
    -15.895  0.0000E+00  0.0000E+00  0.8000E+01  0.8000E+01
    -15.745  0.0000E+00  0.0000E+00  0.8000E+01  0.8000E+01
    -15.596  0.0000E+00  0.0000E+00  0.8000E+01  0.8000E+01
    -15.447  0.0000E+00  0.0000E+00  0.8000E+01  0.8000E+01
    -15.297  0.0000E+00  0.0000E+00  0.8000E+01  0.8000E+01
    -15.148  0.0000E+00  0.0000E+00  0.8000E+01  0.8000E+01
    -14.998  0.0000E+00  0.0000E+00  0.8000E+01  0.8000E+01
    -14.849  0.0000E+00  0.0000E+00  0.8000E+01  0.8000E+01
    -14.700  0.0000E+00  0.0000E+00  0.8000E+01  0.8000E+01
    -14.550  0.0000E+00  0.0000E+00  0.8000E+01  0.8000E+01
    -14.401  0.0000E+00  0.0000E+00  0.8000E+01  0.8000E+01
    -14.251  0.0000E+00  0.0000E+00  0.8000E+01  0.8000E+01
    -14.102  0.0000E+00  0.0000E+00  0.8000E+01  0.8000E+01
    -13.953  0.0000E+00  0.0000E+00  0.8000E+01  0.8000E+01
    -13.803  0.0000E+00  0.0000E+00  0.8000E+01  0.8000E+01
    -13.654  0.0000E+00  0.0000E+00  0.8000E+01  0.8000E+01
    -13.504  0.0000E+00  0.0000E+00  0.8000E+01  0.8000E+01
    -13.355  0.0000E+00  0.0000E+00  0.8000E+01  0.8000E+01
    -13.206  0.0000E+00  0.0000E+00  0.8000E+01  0.8000E+01
    -13.056  0.0000E+00  0.0000E+00  0.8000E+01  0.8000E+01
    -12.907  0.0000E+00  0.0000E+00  0.8000E+01  0.8000E+01
    -12.757  0.0000E+00  0.0000E+00  0.8000E+01  0.8000E+01
    -12.608  0.0000E+00  0.0000E+00  0.8000E+01  0.8000E+01
    -12.459  0.0000E+00  0.0000E+00  0.8000E+01  0.8000E+01
    -12.309  0.0000E+00  0.0000E+00  0.8000E+01  0.8000E+01
    -12.160  0.0000E+00  0.0000E+00  0.8000E+01  0.8000E+01
    -12.010  0.0000E+00  0.0000E+00  0.8000E+01  0.8000E+01
    -11.861  0.0000E+00  0.0000E+00  0.8000E+01  0.8000E+01
    -11.712  0.0000E+00  0.0000E+00  0.8000E+01  0.8000E+01
    -11.562  0.0000E+00  0.0000E+00  0.8000E+01  0.8000E+01
    -11.413  0.0000E+00  0.0000E+00  0.8000E+01  0.8000E+01
    -11.263  0.0000E+00  0.0000E+00  0.8000E+01  0.8000E+01
    -11.114  0.0000E+00  0.0000E+00  0.8000E+01  0.8000E+01
    -10.965  0.0000E+00  0.0000E+00  0.8000E+01  0.8000E+01
    -10.815  0.0000E+00  0.0000E+00  0.8000E+01  0.8000E+01
    -10.666  0.0000E+00  0.0000E+00  0.8000E+01  0.8000E+01
    -10.516  0.0000E+00  0.0000E+00  0.8000E+01  0.8000E+01
    -10.367  0.0000E+00  0.0000E+00  0.8000E+01  0.8000E+01
    -10.218  0.0000E+00  0.0000E+00  0.8000E+01  0.8000E+01
    -10.068  0.0000E+00  0.0000E+00  0.8000E+01  0.8000E+01
     -9.919  0.0000E+00  0.0000E+00  0.8000E+01  0.8000E+01
     -9.769  0.0000E+00  0.0000E+00  0.8000E+01  0.8000E+01
     -9.620  0.0000E+00  0.0000E+00  0.8000E+01  0.8000E+01
     -9.471  0.0000E+00  0.0000E+00  0.8000E+01  0.8000E+01
     -9.321  0.0000E+00  0.0000E+00  0.8000E+01  0.8000E+01
     -9.172  0.0000E+00  0.0000E+00  0.8000E+01  0.8000E+01
     -9.022  0.0000E+00  0.0000E+00  0.8000E+01  0.8000E+01
     -8.873  0.0000E+00  0.0000E+00  0.8000E+01  0.8000E+01
     -8.723  0.0000E+00  0.0000E+00  0.8000E+01  0.8000E+01
     -8.574  0.0000E+00  0.0000E+00  0.8000E+01  0.8000E+01
     -8.425  0.0000E+00  0.0000E+00  0.8000E+01  0.8000E+01
     -8.275  0.0000E+00  0.0000E+00  0.8000E+01  0.8000E+01
     -8.126  0.0000E+00  0.0000E+00  0.8000E+01  0.8000E+01
     -7.976  0.0000E+00  0.0000E+00  0.8000E+01  0.8000E+01
     -7.827  0.0000E+00  0.0000E+00  0.8000E+01  0.8000E+01
     -7.678  0.0000E+00  0.0000E+00  0.8000E+01  0.8000E+01
     -7.528  0.0000E+00  0.0000E+00  0.8000E+01  0.8000E+01
     -7.379  0.0000E+00  0.0000E+00  0.8000E+01  0.8000E+01
     -7.229  0.0000E+00  0.0000E+00  0.8000E+01  0.8000E+01
     -7.080  0.0000E+00  0.0000E+00  0.8000E+01  0.8000E+01
     -6.931  0.0000E+00  0.0000E+00  0.8000E+01  0.8000E+01
     -6.781  0.0000E+00  0.0000E+00  0.8000E+01  0.8000E+01
     -6.632  0.0000E+00  0.0000E+00  0.8000E+01  0.8000E+01
     -6.482  0.0000E+00  0.0000E+00  0.8000E+01  0.8000E+01
     -6.333  0.0000E+00  0.0000E+00  0.8000E+01  0.8000E+01
     -6.184  0.0000E+00  0.0000E+00  0.8000E+01  0.8000E+01
     -6.034  0.0000E+00  0.0000E+00  0.8000E+01  0.8000E+01
     -5.885  0.0000E+00  0.0000E+00  0.8000E+01  0.8000E+01
     -5.735  0.0000E+00  0.0000E+00  0.8000E+01  0.8000E+01
     -5.586  0.0000E+00  0.0000E+00  0.8000E+01  0.8000E+01
     -5.437  0.0000E+00  0.0000E+00  0.8000E+01  0.8000E+01
     -5.287  0.0000E+00  0.0000E+00  0.8000E+01  0.8000E+01
     -5.138  0.0000E+00  0.0000E+00  0.8000E+01  0.8000E+01
     -4.988  0.0000E+00  0.0000E+00  0.8000E+01  0.8000E+01
     -4.839  0.0000E+00  0.0000E+00  0.8000E+01  0.8000E+01
     -4.690  0.0000E+00  0.0000E+00  0.8000E+01  0.8000E+01
     -4.540  0.0000E+00  0.0000E+00  0.8000E+01  0.8000E+01
     -4.391  0.0000E+00  0.0000E+00  0.8000E+01  0.8000E+01
     -4.241  0.0000E+00  0.0000E+00  0.8000E+01  0.8000E+01
     -4.092  0.0000E+00  0.0000E+00  0.8000E+01  0.8000E+01
     -3.943  0.0000E+00  0.0000E+00  0.8000E+01  0.8000E+01
     -3.793  0.0000E+00  0.0000E+00  0.8000E+01  0.8000E+01
     -3.644  0.0000E+00  0.0000E+00  0.8000E+01  0.8000E+01
     -3.494  0.0000E+00  0.0000E+00  0.8000E+01  0.8000E+01
     -3.345  0.0000E+00  0.0000E+00  0.8000E+01  0.8000E+01
     -3.196  0.0000E+00  0.0000E+00  0.8000E+01  0.8000E+01
     -3.046  0.0000E+00  0.0000E+00  0.8000E+01  0.8000E+01
     -2.897  0.0000E+00  0.0000E+00  0.8000E+01  0.8000E+01
     -2.747  0.0000E+00  0.0000E+00  0.8000E+01  0.8000E+01
     -2.598  0.4162E-05  0.2692E-05  0.8000E+01  0.8000E+01
     -2.449  0.8173E-04  0.7071E-04  0.8000E+01  0.8000E+01
     -2.299  0.1588E-02  0.1364E-02  0.8000E+01  0.8000E+01
     -2.150  0.2086E-01  0.1865E-01  0.8003E+01  0.8003E+01
     -2.000  0.8177E-01  0.7855E-01  0.8016E+01  0.8015E+01
     -1.851  0.1464E+00  0.1432E+00  0.8037E+01  0.8036E+01
     -1.702  0.1765E+00  0.1750E+00  0.8064E+01  0.8062E+01
     -1.552  0.2268E+00  0.2239E+00  0.8098E+01  0.8096E+01
     -1.403  0.2675E+00  0.2678E+00  0.8138E+01  0.8136E+01
     -1.253  0.2614E+00  0.2569E+00  0.8177E+01  0.8174E+01
     -1.104  0.3595E+00  0.3584E+00  0.8231E+01  0.8228E+01
     -0.955  0.3477E+00  0.3475E+00  0.8283E+01  0.8280E+01
     -0.805  0.3793E+00  0.3771E+00  0.8339E+01  0.8336E+01
     -0.656  0.4301E+00  0.4230E+00  0.8404E+01  0.8400E+01
     -0.506  0.5251E+00  0.5289E+00  0.8482E+01  0.8479E+01
     -0.357  0.4399E+00  0.4407E+00  0.8548E+01  0.8545E+01
     -0.208  0.5647E+00  0.5533E+00  0.8633E+01  0.8628E+01
     -0.058  0.6801E+00  0.6821E+00  0.8734E+01  0.8730E+01
      0.091  0.6412E+00  0.6390E+00  0.8830E+01  0.8825E+01
      0.241  0.7390E+00  0.7383E+00  0.8941E+01  0.8936E+01
      0.390  0.8837E+00  0.8756E+00  0.9073E+01  0.9067E+01
      0.539  0.9650E+00  0.9611E+00  0.9217E+01  0.9211E+01
      0.689  0.8027E+00  0.8109E+00  0.9338E+01  0.9332E+01
      0.838  0.9342E+00  0.9124E+00  0.9477E+01  0.9468E+01
      0.988  0.9938E+00  0.1000E+01  0.9626E+01  0.9618E+01
      1.137  0.9517E+00  0.9451E+00  0.9769E+01  0.9760E+01
      1.286  0.8177E+00  0.8217E+00  0.9891E+01  0.9883E+01
      1.436  0.1154E+01  0.1107E+01  0.1006E+02  0.1005E+02
      1.585  0.2172E+01  0.2152E+01  0.1039E+02  0.1037E+02
      1.735  0.3138E+01  0.3182E+01  0.1086E+02  0.1085E+02
      1.884  0.2460E+01  0.2494E+01  0.1123E+02  0.1122E+02
      2.033  0.1480E+01  0.1485E+01  0.1145E+02  0.1144E+02
      2.183  0.1180E+01  0.1189E+01  0.1163E+02  0.1162E+02
      2.332  0.1104E+01  0.1086E+01  0.1179E+02  0.1178E+02
      2.482  0.1388E+01  0.1365E+01  0.1200E+02  0.1199E+02
      2.631  0.1869E+01  0.1841E+01  0.1228E+02  0.1226E+02
      2.781  0.2327E+01  0.2337E+01  0.1263E+02  0.1261E+02
      2.930  0.2632E+01  0.2650E+01  0.1302E+02  0.1301E+02
      3.079  0.2760E+01  0.2785E+01  0.1343E+02  0.1343E+02
      3.229  0.1804E+01  0.1817E+01  0.1370E+02  0.1370E+02
      3.378  0.1473E+01  0.1468E+01  0.1392E+02  0.1392E+02
      3.528  0.1429E+01  0.1418E+01  0.1414E+02  0.1413E+02
      3.677  0.1634E+01  0.1628E+01  0.1438E+02  0.1437E+02
      3.826  0.1822E+01  0.1811E+01  0.1466E+02  0.1465E+02
      3.976  0.1886E+01  0.1899E+01  0.1494E+02  0.1493E+02
      4.125  0.1463E+01  0.1461E+01  0.1516E+02  0.1515E+02
      4.275  0.1227E+01  0.1249E+01  0.1534E+02  0.1534E+02
      4.424  0.9284E+00  0.9399E+00  0.1548E+02  0.1548E+02
      4.573  0.8388E+00  0.8419E+00  0.1561E+02  0.1560E+02
      4.723  0.8303E+00  0.8594E+00  0.1573E+02  0.1573E+02
      4.872  0.7853E+00  0.7694E+00  0.1585E+02  0.1585E+02
      5.022  0.5730E+00  0.5609E+00  0.1593E+02  0.1593E+02
      5.171  0.2132E+00  0.2441E+00  0.1597E+02  0.1597E+02
      5.320  0.1396E+00  0.1511E+00  0.1599E+02  0.1599E+02
      5.470  0.7761E-01  0.6058E-01  0.1600E+02  0.1600E+02
      5.619  0.9506E-02  0.4652E-02  0.1600E+02  0.1600E+02
      5.769  0.3744E-03  0.0000E+00  0.1600E+02  0.1600E+02
      5.918  0.0000E+00  0.0000E+00  0.1600E+02  0.1600E+02
      6.067  0.0000E+00  0.0000E+00  0.1600E+02  0.1600E+02
      6.217  0.0000E+00  0.0000E+00  0.1600E+02  0.1600E+02
      6.366  0.0000E+00  0.0000E+00  0.1600E+02  0.1600E+02
      6.516  0.0000E+00  0.0000E+00  0.1600E+02  0.1600E+02
      6.665  0.0000E+00  0.0000E+00  0.1600E+02  0.1600E+02
      6.814  0.0000E+00  0.0000E+00  0.1600E+02  0.1600E+02
      6.964  0.0000E+00  0.0000E+00  0.1600E+02  0.1600E+02
      7.113  0.0000E+00  0.0000E+00  0.1600E+02  0.1600E+02
      7.263  0.0000E+00  0.0000E+00  0.1600E+02  0.1600E+02
      7.412  0.0000E+00  0.0000E+00  0.1600E+02  0.1600E+02
      7.41197961    -37.40876930  301      1.39577378      1.00000000
    -37.409  0.0000E+00  0.0000E+00  0.0000E+00  0.0000E+00  0.0000E+00  0.0000E+00  0.0000E+00  0.0000E+00  0.0000E+00  0.0000E+00  0.0000E+00  0.0000E+00  0.0000E+00  0.0000E+00  0.0000E+00  0.0000E+00  0.0000E+00  0.0000E+00
    -37.259  0.0000E+00  0.0000E+00  0.0000E+00  0.0000E+00  0.0000E+00  0.0000E+00  0.0000E+00  0.0000E+00  0.0000E+00  0.0000E+00  0.0000E+00  0.0000E+00  0.0000E+00  0.0000E+00  0.0000E+00  0.0000E+00  0.0000E+00  0.0000E+00
    -37.110  0.0000E+00  0.0000E+00  0.0000E+00  0.0000E+00  0.0000E+00  0.0000E+00  0.0000E+00  0.0000E+00  0.0000E+00  0.0000E+00  0.0000E+00  0.0000E+00  0.0000E+00  0.0000E+00  0.0000E+00  0.0000E+00  0.0000E+00  0.0000E+00
    -36.961  0.0000E+00  0.0000E+00  0.0000E+00  0.0000E+00  0.0000E+00  0.0000E+00  0.0000E+00  0.0000E+00  0.0000E+00  0.0000E+00  0.0000E+00  0.0000E+00  0.0000E+00  0.0000E+00  0.0000E+00  0.0000E+00  0.0000E+00  0.0000E+00
    -36.811  0.0000E+00  0.0000E+00  0.0000E+00  0.0000E+00  0.0000E+00  0.0000E+00  0.0000E+00  0.0000E+00  0.0000E+00  0.0000E+00  0.0000E+00  0.0000E+00  0.0000E+00  0.0000E+00  0.0000E+00  0.0000E+00  0.0000E+00  0.0000E+00
    -36.662  0.0000E+00  0.0000E+00  0.0000E+00  0.0000E+00  0.0000E+00  0.0000E+00  0.0000E+00  0.0000E+00  0.0000E+00  0.0000E+00  0.0000E+00  0.0000E+00  0.0000E+00  0.0000E+00  0.0000E+00  0.0000E+00  0.0000E+00  0.0000E+00
    -36.512  0.0000E+00  0.0000E+00  0.0000E+00  0.0000E+00  0.0000E+00  0.0000E+00  0.0000E+00  0.0000E+00  0.0000E+00  0.0000E+00  0.0000E+00  0.0000E+00  0.0000E+00  0.0000E+00  0.0000E+00  0.0000E+00  0.0000E+00  0.0000E+00
    -36.363  0.0000E+00  0.0000E+00  0.0000E+00  0.0000E+00  0.0000E+00  0.0000E+00  0.0000E+00  0.0000E+00  0.0000E+00  0.0000E+00  0.0000E+00  0.0000E+00  0.0000E+00  0.0000E+00  0.0000E+00  0.0000E+00  0.0000E+00  0.0000E+00
    -36.214  0.0000E+00  0.0000E+00  0.0000E+00  0.0000E+00  0.0000E+00  0.0000E+00  0.0000E+00  0.0000E+00  0.0000E+00  0.0000E+00  0.0000E+00  0.0000E+00  0.0000E+00  0.0000E+00  0.0000E+00  0.0000E+00  0.0000E+00  0.0000E+00
    -36.064  0.0000E+00  0.0000E+00  0.0000E+00  0.0000E+00  0.0000E+00  0.0000E+00  0.0000E+00  0.0000E+00  0.0000E+00  0.0000E+00  0.0000E+00  0.0000E+00  0.0000E+00  0.0000E+00  0.0000E+00  0.0000E+00  0.0000E+00  0.0000E+00
    -35.915  0.1387E-04  0.8980E-05  0.1011E-11  0.5907E-12  0.9335E-12  0.5312E-12  0.1011E-11  0.5907E-12  0.5012E-13  0.2193E-13  0.2223E-13  0.9873E-14  0.2770E-12  0.2000E-12  0.2223E-13  0.9873E-14  0.5012E-13  0.2193E-13
    -35.765  0.2017E-02  0.1981E-02  0.8297E-10  0.8169E-10  0.7113E-10  0.7030E-10  0.8297E-10  0.8169E-10  0.2164E-10  0.2101E-10  0.1377E-10  0.1341E-10  0.4718E-10  0.5558E-10  0.1377E-10  0.1341E-10  0.2164E-10  0.2101E-10
    -35.616  0.3805E-01  0.3728E-01  0.1573E-08  0.1541E-08  0.1349E-08  0.1327E-08  0.1573E-08  0.1541E-08  0.4062E-09  0.3940E-09  0.2584E-09  0.2514E-09  0.8888E-09  0.1045E-08  0.2584E-09  0.2514E-09  0.4062E-09  0.3940E-09
    -35.467  0.6729E+00  0.6609E+00  0.2772E-07  0.2722E-07  0.2378E-07  0.2342E-07  0.2772E-07  0.2722E-07  0.7194E-08  0.6993E-08  0.4580E-08  0.4466E-08  0.1571E-07  0.1851E-07  0.4580E-08  0.4466E-08  0.7194E-08  0.6993E-08
    -35.317  0.3925E+01  0.3910E+01  0.1580E-06  0.1574E-06  0.1352E-06  0.1352E-06  0.1580E-06  0.1574E-06  0.4227E-07  0.4167E-07  0.2708E-07  0.2678E-07  0.9122E-07  0.1090E-06  0.2708E-07  0.2678E-07  0.4227E-07  0.4167E-07
    -35.168  0.1786E+01  0.1811E+01  0.6983E-07  0.7081E-07  0.5962E-07  0.6065E-07  0.6983E-07  0.7081E-07  0.1937E-07  0.1944E-07  0.1251E-07  0.1259E-07  0.4123E-07  0.5017E-07  0.1251E-07  0.1259E-07  0.1937E-07  0.1944E-07
    -35.018  0.1272E+00  0.1297E+00  0.4927E-08  0.5025E-08  0.4203E-08  0.4300E-08  0.4927E-08  0.5025E-08  0.1383E-08  0.1396E-08  0.8951E-09  0.9066E-09  0.2930E-08  0.3587E-08  0.8952E-09  0.9066E-09  0.1383E-08  0.1396E-08
    -34.869  0.0000E+00  0.0000E+00  0.0000E+00  0.0000E+00  0.0000E+00  0.0000E+00  0.0000E+00  0.0000E+00  0.0000E+00  0.0000E+00  0.0000E+00  0.0000E+00  0.0000E+00  0.0000E+00  0.0000E+00  0.0000E+00  0.0000E+00  0.0000E+00
    -34.720  0.0000E+00  0.0000E+00  0.0000E+00  0.0000E+00  0.0000E+00  0.0000E+00  0.0000E+00  0.0000E+00  0.0000E+00  0.0000E+00  0.0000E+00  0.0000E+00  0.0000E+00  0.0000E+00  0.0000E+00  0.0000E+00  0.0000E+00  0.0000E+00
    -34.570  0.0000E+00  0.0000E+00  0.0000E+00  0.0000E+00  0.0000E+00  0.0000E+00  0.0000E+00  0.0000E+00  0.0000E+00  0.0000E+00  0.0000E+00  0.0000E+00  0.0000E+00  0.0000E+00  0.0000E+00  0.0000E+00  0.0000E+00  0.0000E+00
    -34.421  0.0000E+00  0.0000E+00  0.0000E+00  0.0000E+00  0.0000E+00  0.0000E+00  0.0000E+00  0.0000E+00  0.0000E+00  0.0000E+00  0.0000E+00  0.0000E+00  0.0000E+00  0.0000E+00  0.0000E+00  0.0000E+00  0.0000E+00  0.0000E+00
    -34.271  0.0000E+00  0.0000E+00  0.0000E+00  0.0000E+00  0.0000E+00  0.0000E+00  0.0000E+00  0.0000E+00  0.0000E+00  0.0000E+00  0.0000E+00  0.0000E+00  0.0000E+00  0.0000E+00  0.0000E+00  0.0000E+00  0.0000E+00  0.0000E+00
    -34.122  0.0000E+00  0.0000E+00  0.0000E+00  0.0000E+00  0.0000E+00  0.0000E+00  0.0000E+00  0.0000E+00  0.0000E+00  0.0000E+00  0.0000E+00  0.0000E+00  0.0000E+00  0.0000E+00  0.0000E+00  0.0000E+00  0.0000E+00  0.0000E+00
    -33.973  0.0000E+00  0.0000E+00  0.0000E+00  0.0000E+00  0.0000E+00  0.0000E+00  0.0000E+00  0.0000E+00  0.0000E+00  0.0000E+00  0.0000E+00  0.0000E+00  0.0000E+00  0.0000E+00  0.0000E+00  0.0000E+00  0.0000E+00  0.0000E+00
    -33.823  0.0000E+00  0.0000E+00  0.0000E+00  0.0000E+00  0.0000E+00  0.0000E+00  0.0000E+00  0.0000E+00  0.0000E+00  0.0000E+00  0.0000E+00  0.0000E+00  0.0000E+00  0.0000E+00  0.0000E+00  0.0000E+00  0.0000E+00  0.0000E+00
    -33.674  0.0000E+00  0.0000E+00  0.0000E+00  0.0000E+00  0.0000E+00  0.0000E+00  0.0000E+00  0.0000E+00  0.0000E+00  0.0000E+00  0.0000E+00  0.0000E+00  0.0000E+00  0.0000E+00  0.0000E+00  0.0000E+00  0.0000E+00  0.0000E+00
    -33.524  0.0000E+00  0.0000E+00  0.0000E+00  0.0000E+00  0.0000E+00  0.0000E+00  0.0000E+00  0.0000E+00  0.0000E+00  0.0000E+00  0.0000E+00  0.0000E+00  0.0000E+00  0.0000E+00  0.0000E+00  0.0000E+00  0.0000E+00  0.0000E+00
    -33.375  0.0000E+00  0.0000E+00  0.0000E+00  0.0000E+00  0.0000E+00  0.0000E+00  0.0000E+00  0.0000E+00  0.0000E+00  0.0000E+00  0.0000E+00  0.0000E+00  0.0000E+00  0.0000E+00  0.0000E+00  0.0000E+00  0.0000E+00  0.0000E+00
    -33.225  0.0000E+00  0.0000E+00  0.0000E+00  0.0000E+00  0.0000E+00  0.0000E+00  0.0000E+00  0.0000E+00  0.0000E+00  0.0000E+00  0.0000E+00  0.0000E+00  0.0000E+00  0.0000E+00  0.0000E+00  0.0000E+00  0.0000E+00  0.0000E+00
    -33.076  0.0000E+00  0.0000E+00  0.0000E+00  0.0000E+00  0.0000E+00  0.0000E+00  0.0000E+00  0.0000E+00  0.0000E+00  0.0000E+00  0.0000E+00  0.0000E+00  0.0000E+00  0.0000E+00  0.0000E+00  0.0000E+00  0.0000E+00  0.0000E+00
    -32.927  0.0000E+00  0.0000E+00  0.0000E+00  0.0000E+00  0.0000E+00  0.0000E+00  0.0000E+00  0.0000E+00  0.0000E+00  0.0000E+00  0.0000E+00  0.0000E+00  0.0000E+00  0.0000E+00  0.0000E+00  0.0000E+00  0.0000E+00  0.0000E+00
    -32.777  0.0000E+00  0.0000E+00  0.0000E+00  0.0000E+00  0.0000E+00  0.0000E+00  0.0000E+00  0.0000E+00  0.0000E+00  0.0000E+00  0.0000E+00  0.0000E+00  0.0000E+00  0.0000E+00  0.0000E+00  0.0000E+00  0.0000E+00  0.0000E+00
    -32.628  0.0000E+00  0.0000E+00  0.0000E+00  0.0000E+00  0.0000E+00  0.0000E+00  0.0000E+00  0.0000E+00  0.0000E+00  0.0000E+00  0.0000E+00  0.0000E+00  0.0000E+00  0.0000E+00  0.0000E+00  0.0000E+00  0.0000E+00  0.0000E+00
    -32.478  0.0000E+00  0.0000E+00  0.0000E+00  0.0000E+00  0.0000E+00  0.0000E+00  0.0000E+00  0.0000E+00  0.0000E+00  0.0000E+00  0.0000E+00  0.0000E+00  0.0000E+00  0.0000E+00  0.0000E+00  0.0000E+00  0.0000E+00  0.0000E+00
    -32.329  0.0000E+00  0.0000E+00  0.0000E+00  0.0000E+00  0.0000E+00  0.0000E+00  0.0000E+00  0.0000E+00  0.0000E+00  0.0000E+00  0.0000E+00  0.0000E+00  0.0000E+00  0.0000E+00  0.0000E+00  0.0000E+00  0.0000E+00  0.0000E+00
    -32.180  0.0000E+00  0.0000E+00  0.0000E+00  0.0000E+00  0.0000E+00  0.0000E+00  0.0000E+00  0.0000E+00  0.0000E+00  0.0000E+00  0.0000E+00  0.0000E+00  0.0000E+00  0.0000E+00  0.0000E+00  0.0000E+00  0.0000E+00  0.0000E+00
    -32.030  0.0000E+00  0.0000E+00  0.0000E+00  0.0000E+00  0.0000E+00  0.0000E+00  0.0000E+00  0.0000E+00  0.0000E+00  0.0000E+00  0.0000E+00  0.0000E+00  0.0000E+00  0.0000E+00  0.0000E+00  0.0000E+00  0.0000E+00  0.0000E+00
    -31.881  0.0000E+00  0.0000E+00  0.0000E+00  0.0000E+00  0.0000E+00  0.0000E+00  0.0000E+00  0.0000E+00  0.0000E+00  0.0000E+00  0.0000E+00  0.0000E+00  0.0000E+00  0.0000E+00  0.0000E+00  0.0000E+00  0.0000E+00  0.0000E+00
    -31.731  0.0000E+00  0.0000E+00  0.0000E+00  0.0000E+00  0.0000E+00  0.0000E+00  0.0000E+00  0.0000E+00  0.0000E+00  0.0000E+00  0.0000E+00  0.0000E+00  0.0000E+00  0.0000E+00  0.0000E+00  0.0000E+00  0.0000E+00  0.0000E+00
    -31.582  0.0000E+00  0.0000E+00  0.0000E+00  0.0000E+00  0.0000E+00  0.0000E+00  0.0000E+00  0.0000E+00  0.0000E+00  0.0000E+00  0.0000E+00  0.0000E+00  0.0000E+00  0.0000E+00  0.0000E+00  0.0000E+00  0.0000E+00  0.0000E+00
    -31.433  0.0000E+00  0.0000E+00  0.0000E+00  0.0000E+00  0.0000E+00  0.0000E+00  0.0000E+00  0.0000E+00  0.0000E+00  0.0000E+00  0.0000E+00  0.0000E+00  0.0000E+00  0.0000E+00  0.0000E+00  0.0000E+00  0.0000E+00  0.0000E+00
    -31.283  0.0000E+00  0.0000E+00  0.0000E+00  0.0000E+00  0.0000E+00  0.0000E+00  0.0000E+00  0.0000E+00  0.0000E+00  0.0000E+00  0.0000E+00  0.0000E+00  0.0000E+00  0.0000E+00  0.0000E+00  0.0000E+00  0.0000E+00  0.0000E+00
    -31.134  0.0000E+00  0.0000E+00  0.0000E+00  0.0000E+00  0.0000E+00  0.0000E+00  0.0000E+00  0.0000E+00  0.0000E+00  0.0000E+00  0.0000E+00  0.0000E+00  0.0000E+00  0.0000E+00  0.0000E+00  0.0000E+00  0.0000E+00  0.0000E+00
    -30.984  0.0000E+00  0.0000E+00  0.0000E+00  0.0000E+00  0.0000E+00  0.0000E+00  0.0000E+00  0.0000E+00  0.0000E+00  0.0000E+00  0.0000E+00  0.0000E+00  0.0000E+00  0.0000E+00  0.0000E+00  0.0000E+00  0.0000E+00  0.0000E+00
    -30.835  0.0000E+00  0.0000E+00  0.0000E+00  0.0000E+00  0.0000E+00  0.0000E+00  0.0000E+00  0.0000E+00  0.0000E+00  0.0000E+00  0.0000E+00  0.0000E+00  0.0000E+00  0.0000E+00  0.0000E+00  0.0000E+00  0.0000E+00  0.0000E+00
    -30.686  0.0000E+00  0.0000E+00  0.0000E+00  0.0000E+00  0.0000E+00  0.0000E+00  0.0000E+00  0.0000E+00  0.0000E+00  0.0000E+00  0.0000E+00  0.0000E+00  0.0000E+00  0.0000E+00  0.0000E+00  0.0000E+00  0.0000E+00  0.0000E+00
    -30.536  0.0000E+00  0.0000E+00  0.0000E+00  0.0000E+00  0.0000E+00  0.0000E+00  0.0000E+00  0.0000E+00  0.0000E+00  0.0000E+00  0.0000E+00  0.0000E+00  0.0000E+00  0.0000E+00  0.0000E+00  0.0000E+00  0.0000E+00  0.0000E+00
    -30.387  0.0000E+00  0.0000E+00  0.0000E+00  0.0000E+00  0.0000E+00  0.0000E+00  0.0000E+00  0.0000E+00  0.0000E+00  0.0000E+00  0.0000E+00  0.0000E+00  0.0000E+00  0.0000E+00  0.0000E+00  0.0000E+00  0.0000E+00  0.0000E+00
    -30.237  0.0000E+00  0.0000E+00  0.0000E+00  0.0000E+00  0.0000E+00  0.0000E+00  0.0000E+00  0.0000E+00  0.0000E+00  0.0000E+00  0.0000E+00  0.0000E+00  0.0000E+00  0.0000E+00  0.0000E+00  0.0000E+00  0.0000E+00  0.0000E+00
    -30.088  0.0000E+00  0.0000E+00  0.0000E+00  0.0000E+00  0.0000E+00  0.0000E+00  0.0000E+00  0.0000E+00  0.0000E+00  0.0000E+00  0.0000E+00  0.0000E+00  0.0000E+00  0.0000E+00  0.0000E+00  0.0000E+00  0.0000E+00  0.0000E+00
    -29.939  0.0000E+00  0.0000E+00  0.0000E+00  0.0000E+00  0.0000E+00  0.0000E+00  0.0000E+00  0.0000E+00  0.0000E+00  0.0000E+00  0.0000E+00  0.0000E+00  0.0000E+00  0.0000E+00  0.0000E+00  0.0000E+00  0.0000E+00  0.0000E+00