   2   2   1   0
  0.6211392E+02  0.4428416E-09  0.4428416E-09  0.7314615E-09  0.5000000E-15
  1.000000000000000E-004
  CAR 
 unknown system                          
      6.98579674    -37.70720857  301      1.20900315      1.00000000
    -37.707  0.0000E+00  0.0000E+00  0.0000E+00  0.0000E+00
    -37.558  0.0000E+00  0.0000E+00  0.0000E+00  0.0000E+00
    -37.409  0.0000E+00  0.0000E+00  0.0000E+00  0.0000E+00
    -37.260  0.0000E+00  0.0000E+00  0.0000E+00  0.0000E+00
    -37.111  0.0000E+00  0.0000E+00  0.0000E+00  0.0000E+00
    -36.962  0.0000E+00  0.0000E+00  0.0000E+00  0.0000E+00
    -36.813  0.0000E+00  0.0000E+00  0.0000E+00  0.0000E+00
    -36.664  0.0000E+00  0.0000E+00  0.0000E+00  0.0000E+00
    -36.515  0.0000E+00  0.0000E+00  0.0000E+00  0.0000E+00
    -36.366  0.0000E+00  0.0000E+00  0.0000E+00  0.0000E+00
    -36.217  0.7886E-04  0.6196E-04  0.1175E-04  0.9230E-05
    -36.068  0.4394E-02  0.4354E-02  0.6664E-03  0.6579E-03
    -35.919  0.8301E-01  0.8195E-01  0.1303E-01  0.1287E-01
    -35.771  0.1447E+01  0.1431E+01  0.2286E+00  0.2260E+00
    -35.622  0.8094E+01  0.8077E+01  0.1434E+01  0.1429E+01
    -35.473  0.3532E+01  0.3564E+01  0.1961E+01  0.1960E+01
    -35.324  0.2501E+00  0.2533E+00  0.1998E+01  0.1998E+01
    -35.175  0.0000E+00  0.0000E+00  0.2000E+01  0.2000E+01
    -35.026  0.0000E+00  0.0000E+00  0.2000E+01  0.2000E+01
    -34.877  0.0000E+00  0.0000E+00  0.2000E+01  0.2000E+01
    -34.728  0.0000E+00  0.0000E+00  0.2000E+01  0.2000E+01
    -34.579  0.0000E+00  0.0000E+00  0.2000E+01  0.2000E+01
    -34.430  0.0000E+00  0.0000E+00  0.2000E+01  0.2000E+01
    -34.281  0.0000E+00  0.0000E+00  0.2000E+01  0.2000E+01
    -34.132  0.0000E+00  0.0000E+00  0.2000E+01  0.2000E+01
    -33.983  0.0000E+00  0.0000E+00  0.2000E+01  0.2000E+01
    -33.834  0.0000E+00  0.0000E+00  0.2000E+01  0.2000E+01
    -33.685  0.0000E+00  0.0000E+00  0.2000E+01  0.2000E+01
    -33.536  0.0000E+00  0.0000E+00  0.2000E+01  0.2000E+01
    -33.387  0.0000E+00  0.0000E+00  0.2000E+01  0.2000E+01
    -33.238  0.0000E+00  0.0000E+00  0.2000E+01  0.2000E+01
    -33.089  0.0000E+00  0.0000E+00  0.2000E+01  0.2000E+01
    -32.940  0.0000E+00  0.0000E+00  0.2000E+01  0.2000E+01
    -32.791  0.0000E+00  0.0000E+00  0.2000E+01  0.2000E+01
    -32.642  0.0000E+00  0.0000E+00  0.2000E+01  0.2000E+01
    -32.493  0.0000E+00  0.0000E+00  0.2000E+01  0.2000E+01
    -32.344  0.0000E+00  0.0000E+00  0.2000E+01  0.2000E+01
    -32.195  0.0000E+00  0.0000E+00  0.2000E+01  0.2000E+01
    -32.046  0.0000E+00  0.0000E+00  0.2000E+01  0.2000E+01
    -31.897  0.0000E+00  0.0000E+00  0.2000E+01  0.2000E+01
    -31.748  0.0000E+00  0.0000E+00  0.2000E+01  0.2000E+01
    -31.599  0.0000E+00  0.0000E+00  0.2000E+01  0.2000E+01
    -31.450  0.0000E+00  0.0000E+00  0.2000E+01  0.2000E+01
    -31.301  0.0000E+00  0.0000E+00  0.2000E+01  0.2000E+01
    -31.152  0.0000E+00  0.0000E+00  0.2000E+01  0.2000E+01
    -31.003  0.0000E+00  0.0000E+00  0.2000E+01  0.2000E+01
    -30.854  0.0000E+00  0.0000E+00  0.2000E+01  0.2000E+01
    -30.705  0.0000E+00  0.0000E+00  0.2000E+01  0.2000E+01
    -30.556  0.0000E+00  0.0000E+00  0.2000E+01  0.2000E+01
    -30.407  0.0000E+00  0.0000E+00  0.2000E+01  0.2000E+01
    -30.258  0.0000E+00  0.0000E+00  0.2000E+01  0.2000E+01
    -30.109  0.0000E+00  0.0000E+00  0.2000E+01  0.2000E+01
    -29.960  0.0000E+00  0.0000E+00  0.2000E+01  0.2000E+01
    -29.811  0.0000E+00  0.0000E+00  0.2000E+01  0.2000E+01
    -29.662  0.0000E+00  0.0000E+00  0.2000E+01  0.2000E+01
    -29.513  0.0000E+00  0.0000E+00  0.2000E+01  0.2000E+01
    -29.365  0.0000E+00  0.0000E+00  0.2000E+01  0.2000E+01
    -29.216  0.0000E+00  0.0000E+00  0.2000E+01  0.2000E+01
    -29.067  0.0000E+00  0.0000E+00  0.2000E+01  0.2000E+01
    -28.918  0.0000E+00  0.0000E+00  0.2000E+01  0.2000E+01
    -28.769  0.0000E+00  0.0000E+00  0.2000E+01  0.2000E+01
    -28.620  0.0000E+00  0.0000E+00  0.2000E+01  0.2000E+01
    -28.471  0.0000E+00  0.0000E+00  0.2000E+01  0.2000E+01
    -28.322  0.0000E+00  0.0000E+00  0.2000E+01  0.2000E+01
    -28.173  0.0000E+00  0.0000E+00  0.2000E+01  0.2000E+01
    -28.024  0.0000E+00  0.0000E+00  0.2000E+01  0.2000E+01
    -27.875  0.0000E+00  0.0000E+00  0.2000E+01  0.2000E+01
    -27.726  0.0000E+00  0.0000E+00  0.2000E+01  0.2000E+01
    -27.577  0.0000E+00  0.0000E+00  0.2000E+01  0.2000E+01
    -27.428  0.0000E+00  0.0000E+00  0.2000E+01  0.2000E+01
    -27.279  0.0000E+00  0.0000E+00  0.2000E+01  0.2000E+01
    -27.130  0.0000E+00  0.0000E+00  0.2000E+01  0.2000E+01
    -26.981  0.0000E+00  0.0000E+00  0.2000E+01  0.2000E+01
    -26.832  0.0000E+00  0.0000E+00  0.2000E+01  0.2000E+01
    -26.683  0.0000E+00  0.0000E+00  0.2000E+01  0.2000E+01
    -26.534  0.0000E+00  0.0000E+00  0.2000E+01  0.2000E+01
    -26.385  0.0000E+00  0.0000E+00  0.2000E+01  0.2000E+01
    -26.236  0.0000E+00  0.0000E+00  0.2000E+01  0.2000E+01
    -26.087  0.0000E+00  0.0000E+00  0.2000E+01  0.2000E+01
    -25.938  0.0000E+00  0.0000E+00  0.2000E+01  0.2000E+01
    -25.789  0.0000E+00  0.0000E+00  0.2000E+01  0.2000E+01
    -25.640  0.0000E+00  0.0000E+00  0.2000E+01  0.2000E+01
    -25.491  0.0000E+00  0.0000E+00  0.2000E+01  0.2000E+01
    -25.342  0.0000E+00  0.0000E+00  0.2000E+01  0.2000E+01
    -25.193  0.0000E+00  0.0000E+00  0.2000E+01  0.2000E+01
    -25.044  0.0000E+00  0.0000E+00  0.2000E+01  0.2000E+01
    -24.895  0.0000E+00  0.0000E+00  0.2000E+01  0.2000E+01
    -24.746  0.0000E+00  0.0000E+00  0.2000E+01  0.2000E+01
    -24.597  0.0000E+00  0.0000E+00  0.2000E+01  0.2000E+01
    -24.448  0.0000E+00  0.0000E+00  0.2000E+01  0.2000E+01
    -24.299  0.0000E+00  0.0000E+00  0.2000E+01  0.2000E+01
    -24.150  0.0000E+00  0.0000E+00  0.2000E+01  0.2000E+01
    -24.001  0.0000E+00  0.0000E+00  0.2000E+01  0.2000E+01
    -23.852  0.0000E+00  0.0000E+00  0.2000E+01  0.2000E+01
    -23.703  0.0000E+00  0.0000E+00  0.2000E+01  0.2000E+01
    -23.554  0.0000E+00  0.0000E+00  0.2000E+01  0.2000E+01
    -23.405  0.0000E+00  0.0000E+00  0.2000E+01  0.2000E+01
    -23.256  0.0000E+00  0.0000E+00  0.2000E+01  0.2000E+01
    -23.107  0.0000E+00  0.0000E+00  0.2000E+01  0.2000E+01
    -22.959  0.0000E+00  0.0000E+00  0.2000E+01  0.2000E+01
    -22.810  0.0000E+00  0.0000E+00  0.2000E+01  0.2000E+01
    -22.661  0.0000E+00  0.0000E+00  0.2000E+01  0.2000E+01
    -22.512  0.0000E+00  0.0000E+00  0.2000E+01  0.2000E+01
    -22.363  0.0000E+00  0.0000E+00  0.2000E+01  0.2000E+01
    -22.214  0.0000E+00  0.0000E+00  0.2000E+01  0.2000E+01
    -22.065  0.0000E+00  0.0000E+00  0.2000E+01  0.2000E+01
    -21.916  0.0000E+00  0.0000E+00  0.2000E+01  0.2000E+01
    -21.767  0.0000E+00  0.0000E+00  0.2000E+01  0.2000E+01
    -21.618  0.0000E+00  0.0000E+00  0.2000E+01  0.2000E+01
    -21.469  0.0000E+00  0.0000E+00  0.2000E+01  0.2000E+01
    -21.320  0.0000E+00  0.0000E+00  0.2000E+01  0.2000E+01
    -21.171  0.0000E+00  0.0000E+00  0.2000E+01  0.2000E+01
    -21.022  0.0000E+00  0.0000E+00  0.2000E+01  0.2000E+01
    -20.873  0.0000E+00  0.0000E+00  0.2000E+01  0.2000E+01
    -20.724  0.0000E+00  0.0000E+00  0.2000E+01  0.2000E+01
    -20.575  0.0000E+00  0.0000E+00  0.2000E+01  0.2000E+01
    -20.426  0.0000E+00  0.0000E+00  0.2000E+01  0.2000E+01
    -20.277  0.0000E+00  0.0000E+00  0.2000E+01  0.2000E+01
    -20.128  0.0000E+00  0.0000E+00  0.2000E+01  0.2000E+01
    -19.979  0.0000E+00  0.0000E+00  0.2000E+01  0.2000E+01
    -19.830  0.0000E+00  0.0000E+00  0.2000E+01  0.2000E+01
    -19.681  0.0000E+00  0.0000E+00  0.2000E+01  0.2000E+01
    -19.532  0.0000E+00  0.0000E+00  0.2000E+01  0.2000E+01
    -19.383  0.0000E+00  0.0000E+00  0.2000E+01  0.2000E+01
    -19.234  0.0000E+00  0.0000E+00  0.2000E+01  0.2000E+01
    -19.085  0.0000E+00  0.0000E+00  0.2000E+01  0.2000E+01
    -18.936  0.0000E+00  0.0000E+00  0.2000E+01  0.2000E+01
    -18.787  0.0000E+00  0.0000E+00  0.2000E+01  0.2000E+01
    -18.638  0.0000E+00  0.0000E+00  0.2000E+01  0.2000E+01
    -18.489  0.0000E+00  0.0000E+00  0.2000E+01  0.2000E+01
    -18.340  0.0000E+00  0.0000E+00  0.2000E+01  0.2000E+01
    -18.191  0.4382E-03  0.4282E-03  0.2000E+01  0.2000E+01
    -18.042  0.1308E-01  0.1287E-01  0.2002E+01  0.2002E+01
    -17.893  0.2500E+00  0.2460E+00  0.2039E+01  0.2039E+01
    -17.744  0.4148E+01  0.4092E+01  0.2657E+01  0.2648E+01
    -17.595  0.2194E+02  0.2186E+02  0.5926E+01  0.5905E+01
    -17.446  0.1275E+02  0.1287E+02  0.7825E+01  0.7823E+01
    -17.297  0.1108E+01  0.1127E+01  0.7991E+01  0.7991E+01
    -17.148  0.0000E+00  0.0000E+00  0.8000E+01  0.8000E+01
    -16.999  0.0000E+00  0.0000E+00  0.8000E+01  0.8000E+01
    -16.850  0.0000E+00  0.0000E+00  0.8000E+01  0.8000E+01
    -16.701  0.0000E+00  0.0000E+00  0.8000E+01  0.8000E+01
    -16.553  0.0000E+00  0.0000E+00  0.8000E+01  0.8000E+01
    -16.404  0.0000E+00  0.0000E+00  0.8000E+01  0.8000E+01
    -16.255  0.0000E+00  0.0000E+00  0.8000E+01  0.8000E+01
    -16.106  0.0000E+00  0.0000E+00  0.8000E+01  0.8000E+01
    -15.957  0.0000E+00  0.0000E+00  0.8000E+01  0.8000E+01
    -15.808  0.0000E+00  0.0000E+00  0.8000E+01  0.8000E+01
    -15.659  0.0000E+00  0.0000E+00  0.8000E+01  0.8000E+01
    -15.510  0.0000E+00  0.0000E+00  0.8000E+01  0.8000E+01
    -15.361  0.0000E+00  0.0000E+00  0.8000E+01  0.8000E+01
    -15.212  0.0000E+00  0.0000E+00  0.8000E+01  0.8000E+01
    -15.063  0.0000E+00  0.0000E+00  0.8000E+01  0.8000E+01
    -14.914  0.0000E+00  0.0000E+00  0.8000E+01  0.8000E+01
    -14.765  0.0000E+00  0.0000E+00  0.8000E+01  0.8000E+01
    -14.616  0.0000E+00  0.0000E+00  0.8000E+01  0.8000E+01
    -14.467  0.0000E+00  0.0000E+00  0.8000E+01  0.8000E+01
    -14.318  0.0000E+00  0.0000E+00  0.8000E+01  0.8000E+01
    -14.169  0.0000E+00  0.0000E+00  0.8000E+01  0.8000E+01
    -14.020  0.0000E+00  0.0000E+00  0.8000E+01  0.8000E+01
    -13.871  0.0000E+00  0.0000E+00  0.8000E+01  0.8000E+01
    -13.722  0.0000E+00  0.0000E+00  0.8000E+01  0.8000E+01
    -13.573  0.0000E+00  0.0000E+00  0.8000E+01  0.8000E+01
    -13.424  0.0000E+00  0.0000E+00  0.8000E+01  0.8000E+01
    -13.275  0.0000E+00  0.0000E+00  0.8000E+01  0.8000E+01
    -13.126  0.0000E+00  0.0000E+00  0.8000E+01  0.8000E+01
    -12.977  0.0000E+00  0.0000E+00  0.8000E+01  0.8000E+01
    -12.828  0.0000E+00  0.0000E+00  0.8000E+01  0.8000E+01
    -12.679  0.0000E+00  0.0000E+00  0.8000E+01  0.8000E+01
    -12.530  0.0000E+00  0.0000E+00  0.8000E+01  0.8000E+01
    -12.381  0.0000E+00  0.0000E+00  0.8000E+01  0.8000E+01
    -12.232  0.0000E+00  0.0000E+00  0.8000E+01  0.8000E+01
    -12.083  0.0000E+00  0.0000E+00  0.8000E+01  0.8000E+01
    -11.934  0.0000E+00  0.0000E+00  0.8000E+01  0.8000E+01
    -11.785  0.0000E+00  0.0000E+00  0.8000E+01  0.8000E+01
    -11.636  0.0000E+00  0.0000E+00  0.8000E+01  0.8000E+01
    -11.487  0.0000E+00  0.0000E+00  0.8000E+01  0.8000E+01
    -11.338  0.0000E+00  0.0000E+00  0.8000E+01  0.8000E+01
    -11.189  0.0000E+00  0.0000E+00  0.8000E+01  0.8000E+01
    -11.040  0.0000E+00  0.0000E+00  0.8000E+01  0.8000E+01
    -10.891  0.0000E+00  0.0000E+00  0.8000E+01  0.8000E+01
    -10.742  0.0000E+00  0.0000E+00  0.8000E+01  0.8000E+01
    -10.593  0.0000E+00  0.0000E+00  0.8000E+01  0.8000E+01
    -10.444  0.0000E+00  0.0000E+00  0.8000E+01  0.8000E+01
    -10.295  0.0000E+00  0.0000E+00  0.8000E+01  0.8000E+01
    -10.147  0.0000E+00  0.0000E+00  0.8000E+01  0.8000E+01
     -9.998  0.0000E+00  0.0000E+00  0.8000E+01  0.8000E+01
     -9.849  0.0000E+00  0.0000E+00  0.8000E+01  0.8000E+01
     -9.700  0.0000E+00  0.0000E+00  0.8000E+01  0.8000E+01
     -9.551  0.0000E+00  0.0000E+00  0.8000E+01  0.8000E+01
     -9.402  0.0000E+00  0.0000E+00  0.8000E+01  0.8000E+01
     -9.253  0.0000E+00  0.0000E+00  0.8000E+01  0.8000E+01
     -9.104  0.0000E+00  0.0000E+00  0.8000E+01  0.8000E+01
     -8.955  0.0000E+00  0.0000E+00  0.8000E+01  0.8000E+01
     -8.806  0.0000E+00  0.0000E+00  0.8000E+01  0.8000E+01
     -8.657  0.0000E+00  0.0000E+00  0.8000E+01  0.8000E+01
     -8.508  0.0000E+00  0.0000E+00  0.8000E+01  0.8000E+01
     -8.359  0.0000E+00  0.0000E+00  0.8000E+01  0.8000E+01
     -8.210  0.0000E+00  0.0000E+00  0.8000E+01  0.8000E+01
     -8.061  0.0000E+00  0.0000E+00  0.8000E+01  0.8000E+01
     -7.912  0.0000E+00  0.0000E+00  0.8000E+01  0.8000E+01
     -7.763  0.0000E+00  0.0000E+00  0.8000E+01  0.8000E+01
     -7.614  0.0000E+00  0.0000E+00  0.8000E+01  0.8000E+01
     -7.465  0.0000E+00  0.0000E+00  0.8000E+01  0.8000E+01
     -7.316  0.0000E+00  0.0000E+00  0.8000E+01  0.8000E+01
     -7.167  0.0000E+00  0.0000E+00  0.8000E+01  0.8000E+01
     -7.018  0.0000E+00  0.0000E+00  0.8000E+01  0.8000E+01
     -6.869  0.0000E+00  0.0000E+00  0.8000E+01  0.8000E+01
     -6.720  0.0000E+00  0.0000E+00  0.8000E+01  0.8000E+01
     -6.571  0.0000E+00  0.0000E+00  0.8000E+01  0.8000E+01
     -6.422  0.0000E+00  0.0000E+00  0.8000E+01  0.8000E+01
     -6.273  0.0000E+00  0.0000E+00  0.8000E+01  0.8000E+01
     -6.124  0.0000E+00  0.0000E+00  0.8000E+01  0.8000E+01
     -5.975  0.0000E+00  0.0000E+00  0.8000E+01  0.8000E+01
     -5.826  0.0000E+00  0.0000E+00  0.8000E+01  0.8000E+01
     -5.677  0.0000E+00  0.0000E+00  0.8000E+01  0.8000E+01
     -5.528  0.0000E+00  0.0000E+00  0.8000E+01  0.8000E+01
     -5.379  0.0000E+00  0.0000E+00  0.8000E+01  0.8000E+01
     -5.230  0.0000E+00  0.0000E+00  0.8000E+01  0.8000E+01
     -5.081  0.0000E+00  0.0000E+00  0.8000E+01  0.8000E+01
     -4.932  0.0000E+00  0.0000E+00  0.8000E+01  0.8000E+01
     -4.783  0.0000E+00  0.0000E+00  0.8000E+01  0.8000E+01
     -4.634  0.0000E+00  0.0000E+00  0.8000E+01  0.8000E+01
     -4.485  0.0000E+00  0.0000E+00  0.8000E+01  0.8000E+01
     -4.336  0.0000E+00  0.0000E+00  0.8000E+01  0.8000E+01
     -4.187  0.0000E+00  0.0000E+00  0.8000E+01  0.8000E+01
     -4.038  0.0000E+00  0.0000E+00  0.8000E+01  0.8000E+01
     -3.890  0.0000E+00  0.0000E+00  0.8000E+01  0.8000E+01
     -3.741  0.0000E+00  0.0000E+00  0.8000E+01  0.8000E+01
     -3.592  0.0000E+00  0.0000E+00  0.8000E+01  0.8000E+01
     -3.443  0.0000E+00  0.0000E+00  0.8000E+01  0.8000E+01
     -3.294  0.0000E+00  0.0000E+00  0.8000E+01  0.8000E+01
     -3.145  0.0000E+00  0.0000E+00  0.8000E+01  0.8000E+01
     -2.996  0.0000E+00  0.0000E+00  0.8000E+01  0.8000E+01
     -2.847  0.0000E+00  0.0000E+00  0.8000E+01  0.8000E+01
     -2.698  0.3901E-05  0.2513E-05  0.8000E+01  0.8000E+01
     -2.549  0.7754E-04  0.6743E-04  0.8000E+01  0.8000E+01
     -2.400  0.1488E-02  0.1299E-02  0.8000E+01  0.8000E+01
     -2.251  0.2025E-01  0.1828E-01  0.8003E+01  0.8003E+01
     -2.102  0.8477E-01  0.8154E-01  0.8016E+01  0.8015E+01
     -1.953  0.1546E+00  0.1517E+00  0.8039E+01  0.8038E+01
     -1.804  0.1893E+00  0.1875E+00  0.8067E+01  0.8066E+01
     -1.655  0.2449E+00  0.2421E+00  0.8104E+01  0.8102E+01
     -1.506  0.2750E+00  0.2762E+00  0.8145E+01  0.8143E+01
     -1.357  0.3003E+00  0.2942E+00  0.8189E+01  0.8187E+01
     -1.208  0.3714E+00  0.3723E+00  0.8245E+01  0.8242E+01
     -1.059  0.3681E+00  0.3671E+00  0.8300E+01  0.8297E+01
     -0.910  0.4024E+00  0.4010E+00  0.8360E+01  0.8357E+01
     -0.761  0.5063E+00  0.4990E+00  0.8435E+01  0.8431E+01
     -0.612  0.4966E+00  0.5022E+00  0.8509E+01  0.8506E+01
     -0.463  0.4752E+00  0.4705E+00  0.8580E+01  0.8576E+01
     -0.314  0.6658E+00  0.6595E+00  0.8680E+01  0.8675E+01
     -0.165  0.6584E+00  0.6624E+00  0.8778E+01  0.8774E+01
     -0.016  0.6997E+00  0.6962E+00  0.8882E+01  0.8878E+01
      0.133  0.7966E+00  0.7925E+00  0.9001E+01  0.8996E+01
      0.282  0.9487E+00  0.9437E+00  0.9143E+01  0.9137E+01
      0.431  0.9116E+00  0.9182E+00  0.9279E+01  0.9274E+01
      0.580  0.7888E+00  0.7772E+00  0.9397E+01  0.9390E+01
      0.729  0.1060E+01  0.1057E+01  0.9555E+01  0.9548E+01
      0.878  0.9370E+00  0.9332E+00  0.9695E+01  0.9687E+01
      1.027  0.9330E+00  0.9414E+00  0.9834E+01  0.9827E+01
      1.176  0.8756E+00  0.8520E+00  0.9965E+01  0.9955E+01
      1.325  0.1622E+01  0.1581E+01  0.1021E+02  0.1019E+02
      1.474  0.2798E+01  0.2814E+01  0.1062E+02  0.1061E+02
      1.623  0.2979E+01  0.3005E+01  0.1107E+02  0.1106E+02
      1.772  0.1834E+01  0.1863E+01  0.1134E+02  0.1134E+02
      1.921  0.1380E+01  0.1382E+01  0.1155E+02  0.1154E+02
      2.070  0.1101E+01  0.1096E+01  0.1171E+02  0.1171E+02
      2.219  0.1344E+01  0.1326E+01  0.1191E+02  0.1191E+02
      2.368  0.1765E+01  0.1736E+01  0.1218E+02  0.1216E+02
      2.516  0.2261E+01  0.2261E+01  0.1251E+02  0.1250E+02
      2.665  0.2702E+01  0.2718E+01  0.1292E+02  0.1291E+02
      2.814  0.2965E+01  0.2987E+01  0.1336E+02  0.1335E+02
      2.963  0.2036E+01  0.2051E+01  0.1366E+02  0.1366E+02
      3.112  0.1539E+01  0.1536E+01  0.1389E+02  0.1389E+02
      3.261  0.1465E+01  0.1456E+01  0.1411E+02  0.1411E+02
      3.410  0.1678E+01  0.1670E+01  0.1436E+02  0.1436E+02
      3.559  0.1914E+01  0.1904E+01  0.1465E+02  0.1464E+02
      3.708  0.1978E+01  0.1993E+01  0.1494E+02  0.1494E+02
      3.857  0.1520E+01  0.1556E+01  0.1517E+02  0.1517E+02
      4.006  0.1288E+01  0.1285E+01  0.1536E+02  0.1536E+02
      4.155  0.9809E+00  0.9688E+00  0.1551E+02  0.1551E+02
      4.304  0.9876E+00  0.9994E+00  0.1566E+02  0.1566E+02
      4.453  0.9665E+00  0.9470E+00  0.1580E+02  0.1580E+02
      4.602  0.7069E+00  0.7240E+00  0.1591E+02  0.1590E+02
      4.751  0.3468E+00  0.3690E+00  0.1596E+02  0.1596E+02
      4.900  0.1548E+00  0.1592E+00  0.1598E+02  0.1598E+02
      5.049  0.9998E-01  0.9451E-01  0.1600E+02  0.1600E+02
      5.198  0.1189E-01  0.9834E-02  0.1600E+02  0.1600E+02
      5.347  0.1903E-03  0.0000E+00  0.1600E+02  0.1600E+02
      5.496  0.0000E+00  0.0000E+00  0.1600E+02  0.1600E+02
      5.645  0.0000E+00  0.0000E+00  0.1600E+02  0.1600E+02
      5.794  0.0000E+00  0.0000E+00  0.1600E+02  0.1600E+02
      5.943  0.0000E+00  0.0000E+00  0.1600E+02  0.1600E+02
      6.092  0.0000E+00  0.0000E+00  0.1600E+02  0.1600E+02
      6.241  0.0000E+00  0.0000E+00  0.1600E+02  0.1600E+02
      6.390  0.0000E+00  0.0000E+00  0.1600E+02  0.1600E+02
      6.539  0.0000E+00  0.0000E+00  0.1600E+02  0.1600E+02
      6.688  0.0000E+00  0.0000E+00  0.1600E+02  0.1600E+02
      6.837  0.0000E+00  0.0000E+00  0.1600E+02  0.1600E+02
      6.986  0.0000E+00  0.0000E+00  0.1600E+02  0.1600E+02
      6.98579674    -37.70720857  301      1.20900315      1.00000000
    -37.707  0.0000E+00  0.0000E+00  0.0000E+00  0.0000E+00  0.0000E+00  0.0000E+00  0.0000E+00  0.0000E+00  0.0000E+00  0.0000E+00  0.0000E+00  0.0000E+00  0.0000E+00  0.0000E+00  0.0000E+00  0.0000E+00  0.0000E+00  0.0000E+00
    -37.558  0.0000E+00  0.0000E+00  0.0000E+00  0.0000E+00  0.0000E+00  0.0000E+00  0.0000E+00  0.0000E+00  0.0000E+00  0.0000E+00  0.0000E+00  0.0000E+00  0.0000E+00  0.0000E+00  0.0000E+00  0.0000E+00  0.0000E+00  0.0000E+00
    -37.409  0.0000E+00  0.0000E+00  0.0000E+00  0.0000E+00  0.0000E+00  0.0000E+00  0.0000E+00  0.0000E+00  0.0000E+00  0.0000E+00  0.0000E+00  0.0000E+00  0.0000E+00  0.0000E+00  0.0000E+00  0.0000E+00  0.0000E+00  0.0000E+00
    -37.260  0.0000E+00  0.0000E+00  0.0000E+00  0.0000E+00  0.0000E+00  0.0000E+00  0.0000E+00  0.0000E+00  0.0000E+00  0.0000E+00  0.0000E+00  0.0000E+00  0.0000E+00  0.0000E+00  0.0000E+00  0.0000E+00  0.0000E+00  0.0000E+00
    -37.111  0.0000E+00  0.0000E+00  0.0000E+00  0.0000E+00  0.0000E+00  0.0000E+00  0.0000E+00  0.0000E+00  0.0000E+00  0.0000E+00  0.0000E+00  0.0000E+00  0.0000E+00  0.0000E+00  0.0000E+00  0.0000E+00  0.0000E+00  0.0000E+00
    -36.962  0.0000E+00  0.0000E+00  0.0000E+00  0.0000E+00  0.0000E+00  0.0000E+00  0.0000E+00  0.0000E+00  0.0000E+00  0.0000E+00  0.0000E+00  0.0000E+00  0.0000E+00  0.0000E+00  0.0000E+00  0.0000E+00  0.0000E+00  0.0000E+00
    -36.813  0.0000E+00  0.0000E+00  0.0000E+00  0.0000E+00  0.0000E+00  0.0000E+00  0.0000E+00  0.0000E+00  0.0000E+00  0.0000E+00  0.0000E+00  0.0000E+00  0.0000E+00  0.0000E+00  0.0000E+00  0.0000E+00  0.0000E+00  0.0000E+00
    -36.664  0.0000E+00  0.0000E+00  0.0000E+00  0.0000E+00  0.0000E+00  0.0000E+00  0.0000E+00  0.0000E+00  0.0000E+00  0.0000E+00  0.0000E+00  0.0000E+00  0.0000E+00  0.0000E+00  0.0000E+00  0.0000E+00  0.0000E+00  0.0000E+00
    -36.515  0.0000E+00  0.0000E+00  0.0000E+00  0.0000E+00  0.0000E+00  0.0000E+00  0.0000E+00  0.0000E+00  0.0000E+00  0.0000E+00  0.0000E+00  0.0000E+00  0.0000E+00  0.0000E+00  0.0000E+00  0.0000E+00  0.0000E+00  0.0000E+00
    -36.366  0.0000E+00  0.0000E+00  0.0000E+00  0.0000E+00  0.0000E+00  0.0000E+00  0.0000E+00  0.0000E+00  0.0000E+00  0.0000E+00  0.0000E+00  0.0000E+00  0.0000E+00  0.0000E+00  0.0000E+00  0.0000E+00  0.0000E+00  0.0000E+00
    -36.217  0.3863E-04  0.3034E-04  0.1578E-11  0.1305E-11  0.1431E-11  0.1165E-11  0.1578E-11  0.1305E-11  0.1543E-12  0.1090E-12  0.8087E-13  0.5361E-13  0.7238E-12  0.6173E-12  0.8087E-13  0.5361E-13  0.1543E-12  0.1090E-12
    -36.068  0.2153E-02  0.2133E-02  0.4857E-10  0.4829E-10  0.4147E-10  0.4086E-10  0.4857E-10  0.4829E-10  0.1227E-10  0.1222E-10  0.7924E-11  0.7801E-11  0.3206E-10  0.3898E-10  0.7924E-11  0.7801E-11  0.1227E-10  0.1222E-10
    -35.919  0.4067E-01  0.4015E-01  0.9305E-09  0.9202E-09  0.7960E-09  0.7797E-09  0.9305E-09  0.9202E-09  0.2305E-09  0.2288E-09  0.1486E-09  0.1458E-09  0.6083E-09  0.7348E-09  0.1486E-09  0.1458E-09  0.2305E-09  0.2288E-09
    -35.771  0.7089E+00  0.7009E+00  0.1617E-07  0.1602E-07  0.1383E-07  0.1357E-07  0.1617E-07  0.1602E-07  0.4022E-08  0.3999E-08  0.2594E-08  0.2549E-08  0.1060E-07  0.1282E-07  0.2594E-08  0.2549E-08  0.4022E-08  0.3999E-08
    -35.622  0.3966E+01  0.3957E+01  0.8890E-07  0.8886E-07  0.7591E-07  0.7517E-07  0.8890E-07  0.8886E-07  0.2262E-07  0.2270E-07  0.1465E-07  0.1453E-07  0.5908E-07  0.7213E-07  0.1465E-07  0.1453E-07  0.2262E-07  0.2270E-07
    -35.473  0.1731E+01  0.1746E+01  0.3797E-07  0.3838E-07  0.3237E-07  0.3241E-07  0.3797E-07  0.3838E-07  0.9930E-08  0.1007E-07  0.6467E-08  0.6486E-08  0.2567E-07  0.3169E-07  0.6467E-08  0.6486E-08  0.9930E-08  0.1007E-07
    -35.324  0.1226E+00  0.1241E+00  0.2670E-08  0.2709E-08  0.2275E-08  0.2286E-08  0.2670E-08  0.2709E-08  0.7043E-09  0.7171E-09  0.4595E-09  0.4625E-09  0.1815E-08  0.2249E-08  0.4595E-09  0.4625E-09  0.7043E-09  0.7171E-09
    -35.175  0.0000E+00  0.0000E+00  0.0000E+00  0.0000E+00  0.0000E+00  0.0000E+00  0.0000E+00  0.0000E+00  0.0000E+00  0.0000E+00  0.0000E+00  0.0000E+00  0.0000E+00  0.0000E+00  0.0000E+00  0.0000E+00  0.0000E+00  0.0000E+00
    -35.026  0.0000E+00  0.0000E+00  0.0000E+00  0.0000E+00  0.0000E+00  0.0000E+00  0.0000E+00  0.0000E+00  0.0000E+00  0.0000E+00  0.0000E+00  0.0000E+00  0.0000E+00  0.0000E+00  0.0000E+00  0.0000E+00  0.0000E+00  0.0000E+00
    -34.877  0.0000E+00  0.0000E+00  0.0000E+00  0.0000E+00  0.0000E+00  0.0000E+00  0.0000E+00  0.0000E+00  0.0000E+00  0.0000E+00  0.0000E+00  0.0000E+00  0.0000E+00  0.0000E+00  0.0000E+00  0.0000E+00  0.0000E+00  0.0000E+00
    -34.728  0.0000E+00  0.0000E+00  0.0000E+00  0.0000E+00  0.0000E+00  0.0000E+00  0.0000E+00  0.0000E+00  0.0000E+00  0.0000E+00  0.0000E+00  0.0000E+00  0.0000E+00  0.0000E+00  0.0000E+00  0.0000E+00  0.0000E+00  0.0000E+00
    -34.579  0.0000E+00  0.0000E+00  0.0000E+00  0.0000E+00  0.0000E+00  0.0000E+00  0.0000E+00  0.0000E+00  0.0000E+00  0.0000E+00  0.0000E+00  0.0000E+00  0.0000E+00  0.0000E+00  0.0000E+00  0.0000E+00  0.0000E+00  0.0000E+00
    -34.430  0.0000E+00  0.0000E+00  0.0000E+00  0.0000E+00  0.0000E+00  0.0000E+00  0.0000E+00  0.0000E+00  0.0000E+00  0.0000E+00  0.0000E+00  0.0000E+00  0.0000E+00  0.0000E+00  0.0000E+00  0.0000E+00  0.0000E+00  0.0000E+00
    -34.281  0.0000E+00  0.0000E+00  0.0000E+00  0.0000E+00  0.0000E+00  0.0000E+00  0.0000E+00  0.0000E+00  0.0000E+00  0.0000E+00  0.0000E+00  0.0000E+00  0.0000E+00  0.0000E+00  0.0000E+00  0.0000E+00  0.0000E+00  0.0000E+00
    -34.132  0.0000E+00  0.0000E+00  0.0000E+00  0.0000E+00  0.0000E+00  0.0000E+00  0.0000E+00  0.0000E+00  0.0000E+00  0.0000E+00  0.0000E+00  0.0000E+00  0.0000E+00  0.0000E+00  0.0000E+00  0.0000E+00  0.0000E+00  0.0000E+00
    -33.983  0.0000E+00  0.0000E+00  0.0000E+00  0.0000E+00  0.0000E+00  0.0000E+00  0.0000E+00  0.0000E+00  0.0000E+00  0.0000E+00  0.0000E+00  0.0000E+00  0.0000E+00  0.0000E+00  0.0000E+00  0.0000E+00  0.0000E+00  0.0000E+00
    -33.834  0.0000E+00  0.0000E+00  0.0000E+00  0.0000E+00  0.0000E+00  0.0000E+00  0.0000E+00  0.0000E+00  0.0000E+00  0.0000E+00  0.0000E+00  0.0000E+00  0.0000E+00  0.0000E+00  0.0000E+00  0.0000E+00  0.0000E+00  0.0000E+00
    -33.685  0.0000E+00  0.0000E+00  0.0000E+00  0.0000E+00  0.0000E+00  0.0000E+00  0.0000E+00  0.0000E+00  0.0000E+00  0.0000E+00  0.0000E+00  0.0000E+00  0.0000E+00  0.0000E+00  0.0000E+00  0.0000E+00  0.0000E+00  0.0000E+00
    -33.536  0.0000E+00  0.0000E+00  0.0000E+00  0.0000E+00  0.0000E+00  0.0000E+00  0.0000E+00  0.0000E+00  0.0000E+00  0.0000E+00  0.0000E+00  0.0000E+00  0.0000E+00  0.0000E+00  0.0000E+00  0.0000E+00  0.0000E+00  0.0000E+00
    -33.387  0.0000E+00  0.0000E+00  0.0000E+00  0.0000E+00  0.0000E+00  0.0000E+00  0.0000E+00  0.0000E+00  0.0000E+00  0.0000E+00  0.0000E+00  0.0000E+00  0.0000E+00  0.0000E+00  0.0000E+00  0.0000E+00  0.0000E+00  0.0000E+00
    -33.238  0.0000E+00  0.0000E+00  0.0000E+00  0.0000E+00  0.0000E+00  0.0000E+00  0.0000E+00  0.0000E+00  0.0000E+00  0.0000E+00  0.0000E+00  0.0000E+00  0.0000E+00  0.0000E+00  0.0000E+00  0.0000E+00  0.0000E+00  0.0000E+00
    -33.089  0.0000E+00  0.0000E+00  0.0000E+00  0.0000E+00  0.0000E+00  0.0000E+00  0.0000E+00  0.0000E+00  0.0000E+00  0.0000E+00  0.0000E+00  0.0000E+00  0.0000E+00  0.0000E+00  0.0000E+00  0.0000E+00  0.0000E+00  0.0000E+00
    -32.940  0.0000E+00  0.0000E+00  0.0000E+00  0.0000E+00  0.0000E+00  0.0000E+00  0.0000E+00  0.0000E+00  0.0000E+00  0.0000E+00  0.0000E+00  0.0000E+00  0.0000E+00  0.0000E+00  0.0000E+00  0.0000E+00  0.0000E+00  0.0000E+00
    -32.791  0.0000E+00  0.0000E+00  0.0000E+00  0.0000E+00  0.0000E+00  0.0000E+00  0.0000E+00  0.0000E+00  0.0000E+00  0.0000E+00  0.0000E+00  0.0000E+00  0.0000E+00  0.0000E+00  0.0000E+00  0.0000E+00  0.0000E+00  0.0000E+00
    -32.642  0.0000E+00  0.0000E+00  0.0000E+00  0.0000E+00  0.0000E+00  0.0000E+00  0.0000E+00  0.0000E+00  0.0000E+00  0.0000E+00  0.0000E+00  0.0000E+00  0.0000E+00  0.0000E+00  0.0000E+00  0.0000E+00  0.0000E+00  0.0000E+00
    -32.493  0.0000E+00  0.0000E+00  0.0000E+00  0.0000E+00  0.0000E+00  0.0000E+00  0.0000E+00  0.0000E+00  0.0000E+00  0.0000E+00  0.0000E+00  0.0000E+00  0.0000E+00  0.0000E+00  0.0000E+00  0.0000E+00  0.0000E+00  0.0000E+00
    -32.344  0.0000E+00  0.0000E+00  0.0000E+00  0.0000E+00  0.0000E+00  0.0000E+00  0.0000E+00  0.0000E+00  0.0000E+00  0.0000E+00  0.0000E+00  0.0000E+00  0.0000E+00  0.0000E+00  0.0000E+00  0.0000E+00  0.0000E+00  0.0000E+00
    -32.195  0.0000E+00  0.0000E+00  0.0000E+00  0.0000E+00  0.0000E+00  0.0000E+00  0.0000E+00  0.0000E+00  0.0000E+00  0.0000E+00  0.0000E+00  0.0000E+00  0.0000E+00  0.0000E+00  0.0000E+00  0.0000E+00  0.0000E+00  0.0000E+00
    -32.046  0.0000E+00  0.0000E+00  0.0000E+00  0.0000E+00  0.0000E+00  0.0000E+00  0.0000E+00  0.0000E+00  0.0000E+00  0.0000E+00  0.0000E+00  0.0000E+00  0.0000E+00  0.0000E+00  0.0000E+00  0.0000E+00  0.0000E+00  0.0000E+00
    -31.897  0.0000E+00  0.0000E+00  0.0000E+00  0.0000E+00  0.0000E+00  0.0000E+00  0.0000E+00  0.0000E+00  0.0000E+00  0.0000E+00  0.0000E+00  0.0000E+00  0.0000E+00  0.0000E+00  0.0000E+00  0.0000E+00  0.0000E+00  0.0000E+00
    -31.748  0.0000E+00  0.0000E+00  0.0000E+00  0.0000E+00  0.0000E+00  0.0000E+00  0.0000E+00  0.0000E+00  0.0000E+00  0.0000E+00  0.0000E+00  0.0000E+00  0.0000E+00  0.0000E+00  0.0000E+00  0.0000E+00  0.0000E+00  0.0000E+00
    -31.599  0.0000E+00  0.0000E+00  0.0000E+00  0.0000E+00  0.0000E+00  0.0000E+00  0.0000E+00  0.0000E+00  0.0000E+00  0.0000E+00  0.0000E+00  0.0000E+00  0.0000E+00  0.0000E+00  0.0000E+00  0.0000E+00  0.0000E+00  0.0000E+00
    -31.450  0.0000E+00  0.0000E+00  0.0000E+00  0.0000E+00  0.0000E+00  0.0000E+00  0.0000E+00  0.0000E+00  0.0000E+00  0.0000E+00  0.0000E+00  0.0000E+00  0.0000E+00  0.0000E+00  0.0000E+00  0.0000E+00  0.0000E+00  0.0000E+00
    -31.301  0.0000E+00  0.0000E+00  0.0000E+00  0.0000E+00  0.0000E+00  0.0000E+00  0.0000E+00  0.0000E+00  0.0000E+00  0.0000E+00  0.0000E+00  0.0000E+00  0.0000E+00  0.0000E+00  0.0000E+00  0.0000E+00  0.0000E+00  0.0000E+00
    -31.152  0.0000E+00  0.0000E+00  0.0000E+00  0.0000E+00  0.0000E+00  0.0000E+00  0.0000E+00  0.0000E+00  0.0000E+00  0.0000E+00  0.0000E+00  0.0000E+00  0.0000E+00  0.0000E+00  0.0000E+00  0.0000E+00  0.0000E+00  0.0000E+00
    -31.003  0.0000E+00  0.0000E+00  0.0000E+00  0.0000E+00  0.0000E+00  0.0000E+00  0.0000E+00  0.0000E+00  0.0000E+00  0.0000E+00  0.0000E+00  0.0000E+00  0.0000E+00  0.0000E+00  0.0000E+00  0.0000E+00  0.0000E+00  0.0000E+00
    -30.854  0.0000E+00  0.0000E+00  0.0000E+00  0.0000E+00  0.0000E+00  0.0000E+00  0.0000E+00  0.0000E+00  0.0000E+00  0.0000E+00  0.0000E+00  0.0000E+00  0.0000E+00  0.0000E+00  0.0000E+00  0.0000E+00  0.0000E+00  0.0000E+00
    -30.705  0.0000E+00  0.0000E+00  0.0000E+00  0.0000E+00  0.0000E+00  0.0000E+00  0.0000E+00  0.0000E+00  0.0000E+00  0.0000E+00  0.0000E+00  0.0000E+00  0.0000E+00  0.0000E+00  0.0000E+00  0.0000E+00  0.0000E+00  0.0000E+00
    -30.556  0.0000E+00  0.0000E+00  0.0000E+00  0.0000E+00  0.0000E+00  0.0000E+00  0.0000E+00  0.0000E+00  0.0000E+00  0.0000E+00  0.0000E+00  0.0000E+00  0.0000E+00  0.0000E+00  0.0000E+00  0.0000E+00  0.0000E+00  0.0000E+00
    -30.407  0.0000E+00  0.0000E+00  0.0000E+00  0.0000E+00  0.0000E+00  0.0000E+00  0.0000E+00  0.0000E+00  0.0000E+00  0.0000E+00  0.0000E+00  0.0000E+00  0.0000E+00  0.0000E+00  0.0000E+00  0.0000E+00  0.0000E+00  0.0000E+00
    -30.258  0.0000E+00  0.0000E+00  0.0000E+00  0.0000E+00  0.0000E+00  0.0000E+00  0.0000E+00  0.0000E+00  0.0000E+00  0.0000E+00  0.0000E+00  0.0000E+00  0.0000E+00  0.0000E+00  0.0000E+00  0.0000E+00  0.0000E+00  0.0000E+00