   2   2   1   0
  0.4299841E+02  0.3917445E-09  0.3917445E-09  0.6470621E-09  0.5000000E-15
  1.000000000000000E-004
  CAR 
 unknown system                          
      9.77129261    -35.72413445  301      2.47663332      1.00000000
    -35.724  0.0000E+00  0.0000E+00  0.0000E+00  0.0000E+00
    -35.572  0.0000E+00  0.0000E+00  0.0000E+00  0.0000E+00
    -35.421  0.0000E+00  0.0000E+00  0.0000E+00  0.0000E+00
    -35.269  0.0000E+00  0.0000E+00  0.0000E+00  0.0000E+00
    -35.118  0.0000E+00  0.0000E+00  0.0000E+00  0.0000E+00
    -34.966  0.0000E+00  0.0000E+00  0.0000E+00  0.0000E+00
    -34.814  0.0000E+00  0.0000E+00  0.0000E+00  0.0000E+00
    -34.663  0.0000E+00  0.0000E+00  0.0000E+00  0.0000E+00
    -34.511  0.0000E+00  0.0000E+00  0.0000E+00  0.0000E+00
    -34.359  0.0000E+00  0.0000E+00  0.0000E+00  0.0000E+00
    -34.208  0.7032E-07  0.0000E+00  0.1066E-07  0.0000E+00
    -34.056  0.1933E-02  0.1825E-02  0.2931E-03  0.2768E-03
    -33.904  0.3807E-01  0.3595E-01  0.6066E-02  0.5729E-02
    -33.753  0.7400E+00  0.7014E+00  0.1183E+00  0.1121E+00
    -33.601  0.6575E+01  0.6431E+01  0.1115E+01  0.1087E+01
    -33.449  0.5338E+01  0.5494E+01  0.1925E+01  0.1921E+01
    -33.298  0.4708E+00  0.4973E+00  0.1996E+01  0.1996E+01
    -33.146  0.0000E+00  0.0000E+00  0.2000E+01  0.2000E+01
    -32.994  0.0000E+00  0.0000E+00  0.2000E+01  0.2000E+01
    -32.843  0.0000E+00  0.0000E+00  0.2000E+01  0.2000E+01
    -32.691  0.0000E+00  0.0000E+00  0.2000E+01  0.2000E+01
    -32.539  0.0000E+00  0.0000E+00  0.2000E+01  0.2000E+01
    -32.388  0.0000E+00  0.0000E+00  0.2000E+01  0.2000E+01
    -32.236  0.0000E+00  0.0000E+00  0.2000E+01  0.2000E+01
    -32.085  0.0000E+00  0.0000E+00  0.2000E+01  0.2000E+01
    -31.933  0.0000E+00  0.0000E+00  0.2000E+01  0.2000E+01
    -31.781  0.0000E+00  0.0000E+00  0.2000E+01  0.2000E+01
    -31.630  0.0000E+00  0.0000E+00  0.2000E+01  0.2000E+01
    -31.478  0.0000E+00  0.0000E+00  0.2000E+01  0.2000E+01
    -31.326  0.0000E+00  0.0000E+00  0.2000E+01  0.2000E+01
    -31.175  0.0000E+00  0.0000E+00  0.2000E+01  0.2000E+01
    -31.023  0.0000E+00  0.0000E+00  0.2000E+01  0.2000E+01
    -30.871  0.0000E+00  0.0000E+00  0.2000E+01  0.2000E+01
    -30.720  0.0000E+00  0.0000E+00  0.2000E+01  0.2000E+01
    -30.568  0.0000E+00  0.0000E+00  0.2000E+01  0.2000E+01
    -30.416  0.0000E+00  0.0000E+00  0.2000E+01  0.2000E+01
    -30.265  0.0000E+00  0.0000E+00  0.2000E+01  0.2000E+01
    -30.113  0.0000E+00  0.0000E+00  0.2000E+01  0.2000E+01
    -29.961  0.0000E+00  0.0000E+00  0.2000E+01  0.2000E+01
    -29.810  0.0000E+00  0.0000E+00  0.2000E+01  0.2000E+01
    -29.658  0.0000E+00  0.0000E+00  0.2000E+01  0.2000E+01
    -29.506  0.0000E+00  0.0000E+00  0.2000E+01  0.2000E+01
    -29.355  0.0000E+00  0.0000E+00  0.2000E+01  0.2000E+01
    -29.203  0.0000E+00  0.0000E+00  0.2000E+01  0.2000E+01
    -29.051  0.0000E+00  0.0000E+00  0.2000E+01  0.2000E+01
    -28.900  0.0000E+00  0.0000E+00  0.2000E+01  0.2000E+01
    -28.748  0.0000E+00  0.0000E+00  0.2000E+01  0.2000E+01
    -28.597  0.0000E+00  0.0000E+00  0.2000E+01  0.2000E+01
    -28.445  0.0000E+00  0.0000E+00  0.2000E+01  0.2000E+01
    -28.293  0.0000E+00  0.0000E+00  0.2000E+01  0.2000E+01
    -28.142  0.0000E+00  0.0000E+00  0.2000E+01  0.2000E+01
    -27.990  0.0000E+00  0.0000E+00  0.2000E+01  0.2000E+01
    -27.838  0.0000E+00  0.0000E+00  0.2000E+01  0.2000E+01
    -27.687  0.0000E+00  0.0000E+00  0.2000E+01  0.2000E+01
    -27.535  0.0000E+00  0.0000E+00  0.2000E+01  0.2000E+01
    -27.383  0.0000E+00  0.0000E+00  0.2000E+01  0.2000E+01
    -27.232  0.0000E+00  0.0000E+00  0.2000E+01  0.2000E+01
    -27.080  0.0000E+00  0.0000E+00  0.2000E+01  0.2000E+01
    -26.928  0.0000E+00  0.0000E+00  0.2000E+01  0.2000E+01
    -26.777  0.0000E+00  0.0000E+00  0.2000E+01  0.2000E+01
    -26.625  0.0000E+00  0.0000E+00  0.2000E+01  0.2000E+01
    -26.473  0.0000E+00  0.0000E+00  0.2000E+01  0.2000E+01
    -26.322  0.0000E+00  0.0000E+00  0.2000E+01  0.2000E+01
    -26.170  0.0000E+00  0.0000E+00  0.2000E+01  0.2000E+01
    -26.018  0.0000E+00  0.0000E+00  0.2000E+01  0.2000E+01
    -25.867  0.0000E+00  0.0000E+00  0.2000E+01  0.2000E+01
    -25.715  0.0000E+00  0.0000E+00  0.2000E+01  0.2000E+01
    -25.563  0.0000E+00  0.0000E+00  0.2000E+01  0.2000E+01
    -25.412  0.0000E+00  0.0000E+00  0.2000E+01  0.2000E+01
    -25.260  0.0000E+00  0.0000E+00  0.2000E+01  0.2000E+01
    -25.109  0.0000E+00  0.0000E+00  0.2000E+01  0.2000E+01
    -24.957  0.0000E+00  0.0000E+00  0.2000E+01  0.2000E+01
    -24.805  0.0000E+00  0.0000E+00  0.2000E+01  0.2000E+01
    -24.654  0.0000E+00  0.0000E+00  0.2000E+01  0.2000E+01
    -24.502  0.0000E+00  0.0000E+00  0.2000E+01  0.2000E+01
    -24.350  0.0000E+00  0.0000E+00  0.2000E+01  0.2000E+01
    -24.199  0.0000E+00  0.0000E+00  0.2000E+01  0.2000E+01
    -24.047  0.0000E+00  0.0000E+00  0.2000E+01  0.2000E+01
    -23.895  0.0000E+00  0.0000E+00  0.2000E+01  0.2000E+01
    -23.744  0.0000E+00  0.0000E+00  0.2000E+01  0.2000E+01
    -23.592  0.0000E+00  0.0000E+00  0.2000E+01  0.2000E+01
    -23.440  0.0000E+00  0.0000E+00  0.2000E+01  0.2000E+01
    -23.289  0.0000E+00  0.0000E+00  0.2000E+01  0.2000E+01
    -23.137  0.0000E+00  0.0000E+00  0.2000E+01  0.2000E+01
    -22.985  0.0000E+00  0.0000E+00  0.2000E+01  0.2000E+01
    -22.834  0.0000E+00  0.0000E+00  0.2000E+01  0.2000E+01
    -22.682  0.0000E+00  0.0000E+00  0.2000E+01  0.2000E+01
    -22.530  0.0000E+00  0.0000E+00  0.2000E+01  0.2000E+01
    -22.379  0.0000E+00  0.0000E+00  0.2000E+01  0.2000E+01
    -22.227  0.0000E+00  0.0000E+00  0.2000E+01  0.2000E+01
    -22.076  0.0000E+00  0.0000E+00  0.2000E+01  0.2000E+01
    -21.924  0.0000E+00  0.0000E+00  0.2000E+01  0.2000E+01
    -21.772  0.0000E+00  0.0000E+00  0.2000E+01  0.2000E+01
    -21.621  0.0000E+00  0.0000E+00  0.2000E+01  0.2000E+01
    -21.469  0.0000E+00  0.0000E+00  0.2000E+01  0.2000E+01
    -21.317  0.0000E+00  0.0000E+00  0.2000E+01  0.2000E+01
    -21.166  0.0000E+00  0.0000E+00  0.2000E+01  0.2000E+01
    -21.014  0.0000E+00  0.0000E+00  0.2000E+01  0.2000E+01
    -20.862  0.0000E+00  0.0000E+00  0.2000E+01  0.2000E+01
    -20.711  0.0000E+00  0.0000E+00  0.2000E+01  0.2000E+01
    -20.559  0.0000E+00  0.0000E+00  0.2000E+01  0.2000E+01
    -20.407  0.0000E+00  0.0000E+00  0.2000E+01  0.2000E+01
    -20.256  0.0000E+00  0.0000E+00  0.2000E+01  0.2000E+01
    -20.104  0.0000E+00  0.0000E+00  0.2000E+01  0.2000E+01
    -19.952  0.0000E+00  0.0000E+00  0.2000E+01  0.2000E+01
    -19.801  0.0000E+00  0.0000E+00  0.2000E+01  0.2000E+01
    -19.649  0.0000E+00  0.0000E+00  0.2000E+01  0.2000E+01
    -19.497  0.0000E+00  0.0000E+00  0.2000E+01  0.2000E+01
    -19.346  0.0000E+00  0.0000E+00  0.2000E+01  0.2000E+01
    -19.194  0.0000E+00  0.0000E+00  0.2000E+01  0.2000E+01
    -19.042  0.0000E+00  0.0000E+00  0.2000E+01  0.2000E+01
    -18.891  0.0000E+00  0.0000E+00  0.2000E+01  0.2000E+01
    -18.739  0.0000E+00  0.0000E+00  0.2000E+01  0.2000E+01
    -18.588  0.0000E+00  0.0000E+00  0.2000E+01  0.2000E+01
    -18.436  0.0000E+00  0.0000E+00  0.2000E+01  0.2000E+01
    -18.284  0.0000E+00  0.0000E+00  0.2000E+01  0.2000E+01
    -18.133  0.0000E+00  0.0000E+00  0.2000E+01  0.2000E+01
    -17.981  0.0000E+00  0.0000E+00  0.2000E+01  0.2000E+01
    -17.829  0.0000E+00  0.0000E+00  0.2000E+01  0.2000E+01
    -17.678  0.0000E+00  0.0000E+00  0.2000E+01  0.2000E+01
    -17.526  0.0000E+00  0.0000E+00  0.2000E+01  0.2000E+01
    -17.374  0.0000E+00  0.0000E+00  0.2000E+01  0.2000E+01
    -17.223  0.0000E+00  0.0000E+00  0.2000E+01  0.2000E+01
    -17.071  0.0000E+00  0.0000E+00  0.2000E+01  0.2000E+01
    -16.919  0.0000E+00  0.0000E+00  0.2000E+01  0.2000E+01
    -16.768  0.0000E+00  0.0000E+00  0.2000E+01  0.2000E+01
    -16.616  0.0000E+00  0.0000E+00  0.2000E+01  0.2000E+01
    -16.464  0.0000E+00  0.0000E+00  0.2000E+01  0.2000E+01
    -16.313  0.8595E-03  0.8012E-03  0.2000E+01  0.2000E+01
    -16.161  0.1777E-01  0.1666E-01  0.2003E+01  0.2003E+01
    -16.009  0.3521E+00  0.3311E+00  0.2056E+01  0.2053E+01
    -15.858  0.3971E+01  0.3823E+01  0.2659E+01  0.2633E+01
    -15.706  0.9891E+01  0.9799E+01  0.4158E+01  0.4119E+01
    -15.554  0.1436E+02  0.1427E+02  0.6337E+01  0.6283E+01
    -15.403  0.9708E+01  0.9987E+01  0.7813E+01  0.7801E+01
    -15.251  0.1145E+01  0.1221E+01  0.7990E+01  0.7990E+01
    -15.100  0.1585E-01  0.1875E-01  0.8000E+01  0.8000E+01
    -14.948  0.0000E+00  0.0000E+00  0.8000E+01  0.8000E+01
    -14.796  0.0000E+00  0.0000E+00  0.8000E+01  0.8000E+01
    -14.645  0.0000E+00  0.0000E+00  0.8000E+01  0.8000E+01
    -14.493  0.0000E+00  0.0000E+00  0.8000E+01  0.8000E+01
    -14.341  0.0000E+00  0.0000E+00  0.8000E+01  0.8000E+01
    -14.190  0.0000E+00  0.0000E+00  0.8000E+01  0.8000E+01
    -14.038  0.0000E+00  0.0000E+00  0.8000E+01  0.8000E+01
    -13.886  0.0000E+00  0.0000E+00  0.8000E+01  0.8000E+01
    -13.735  0.0000E+00  0.0000E+00  0.8000E+01  0.8000E+01
    -13.583  0.0000E+00  0.0000E+00  0.8000E+01  0.8000E+01
    -13.431  0.0000E+00  0.0000E+00  0.8000E+01  0.8000E+01
    -13.280  0.0000E+00  0.0000E+00  0.8000E+01  0.8000E+01
    -13.128  0.0000E+00  0.0000E+00  0.8000E+01  0.8000E+01
    -12.976  0.0000E+00  0.0000E+00  0.8000E+01  0.8000E+01
    -12.825  0.0000E+00  0.0000E+00  0.8000E+01  0.8000E+01
    -12.673  0.0000E+00  0.0000E+00  0.8000E+01  0.8000E+01
    -12.521  0.0000E+00  0.0000E+00  0.8000E+01  0.8000E+01
    -12.370  0.0000E+00  0.0000E+00  0.8000E+01  0.8000E+01
    -12.218  0.0000E+00  0.0000E+00  0.8000E+01  0.8000E+01
    -12.067  0.0000E+00  0.0000E+00  0.8000E+01  0.8000E+01
    -11.915  0.0000E+00  0.0000E+00  0.8000E+01  0.8000E+01
    -11.763  0.0000E+00  0.0000E+00  0.8000E+01  0.8000E+01
    -11.612  0.0000E+00  0.0000E+00  0.8000E+01  0.8000E+01
    -11.460  0.0000E+00  0.0000E+00  0.8000E+01  0.8000E+01
    -11.308  0.0000E+00  0.0000E+00  0.8000E+01  0.8000E+01
    -11.157  0.0000E+00  0.0000E+00  0.8000E+01  0.8000E+01
    -11.005  0.0000E+00  0.0000E+00  0.8000E+01  0.8000E+01
    -10.853  0.0000E+00  0.0000E+00  0.8000E+01  0.8000E+01
    -10.702  0.0000E+00  0.0000E+00  0.8000E+01  0.8000E+01
    -10.550  0.0000E+00  0.0000E+00  0.8000E+01  0.8000E+01
    -10.398  0.0000E+00  0.0000E+00  0.8000E+01  0.8000E+01
    -10.247  0.0000E+00  0.0000E+00  0.8000E+01  0.8000E+01
    -10.095  0.0000E+00  0.0000E+00  0.8000E+01  0.8000E+01
     -9.943  0.0000E+00  0.0000E+00  0.8000E+01  0.8000E+01
     -9.792  0.0000E+00  0.0000E+00  0.8000E+01  0.8000E+01
     -9.640  0.0000E+00  0.0000E+00  0.8000E+01  0.8000E+01
     -9.488  0.0000E+00  0.0000E+00  0.8000E+01  0.8000E+01
     -9.337  0.0000E+00  0.0000E+00  0.8000E+01  0.8000E+01
     -9.185  0.0000E+00  0.0000E+00  0.8000E+01  0.8000E+01
     -9.033  0.0000E+00  0.0000E+00  0.8000E+01  0.8000E+01
     -8.882  0.0000E+00  0.0000E+00  0.8000E+01  0.8000E+01
     -8.730  0.0000E+00  0.0000E+00  0.8000E+01  0.8000E+01
     -8.579  0.0000E+00  0.0000E+00  0.8000E+01  0.8000E+01
     -8.427  0.0000E+00  0.0000E+00  0.8000E+01  0.8000E+01
     -8.275  0.0000E+00  0.0000E+00  0.8000E+01  0.8000E+01
     -8.124  0.0000E+00  0.0000E+00  0.8000E+01  0.8000E+01
     -7.972  0.0000E+00  0.0000E+00  0.8000E+01  0.8000E+01
     -7.820  0.0000E+00  0.0000E+00  0.8000E+01  0.8000E+01
     -7.669  0.0000E+00  0.0000E+00  0.8000E+01  0.8000E+01
     -7.517  0.0000E+00  0.0000E+00  0.8000E+01  0.8000E+01
     -7.365  0.0000E+00  0.0000E+00  0.8000E+01  0.8000E+01
     -7.214  0.0000E+00  0.0000E+00  0.8000E+01  0.8000E+01
     -7.062  0.0000E+00  0.0000E+00  0.8000E+01  0.8000E+01
     -6.910  0.0000E+00  0.0000E+00  0.8000E+01  0.8000E+01
     -6.759  0.0000E+00  0.0000E+00  0.8000E+01  0.8000E+01
     -6.607  0.0000E+00  0.0000E+00  0.8000E+01  0.8000E+01
     -6.455  0.0000E+00  0.0000E+00  0.8000E+01  0.8000E+01
     -6.304  0.0000E+00  0.0000E+00  0.8000E+01  0.8000E+01
     -6.152  0.0000E+00  0.0000E+00  0.8000E+01  0.8000E+01
     -6.000  0.0000E+00  0.0000E+00  0.8000E+01  0.8000E+01
     -5.849  0.0000E+00  0.0000E+00  0.8000E+01  0.8000E+01
     -5.697  0.0000E+00  0.0000E+00  0.8000E+01  0.8000E+01
     -5.546  0.0000E+00  0.0000E+00  0.8000E+01  0.8000E+01
     -5.394  0.0000E+00  0.0000E+00  0.8000E+01  0.8000E+01
     -5.242  0.0000E+00  0.0000E+00  0.8000E+01  0.8000E+01
     -5.091  0.0000E+00  0.0000E+00  0.8000E+01  0.8000E+01
     -4.939  0.0000E+00  0.0000E+00  0.8000E+01  0.8000E+01
     -4.787  0.0000E+00  0.0000E+00  0.8000E+01  0.8000E+01
     -4.636  0.0000E+00  0.0000E+00  0.8000E+01  0.8000E+01
     -4.484  0.0000E+00  0.0000E+00  0.8000E+01  0.8000E+01
     -4.332  0.0000E+00  0.0000E+00  0.8000E+01  0.8000E+01
     -4.181  0.0000E+00  0.0000E+00  0.8000E+01  0.8000E+01
     -4.029  0.0000E+00  0.0000E+00  0.8000E+01  0.8000E+01
     -3.877  0.0000E+00  0.0000E+00  0.8000E+01  0.8000E+01
     -3.726  0.0000E+00  0.0000E+00  0.8000E+01  0.8000E+01
     -3.574  0.0000E+00  0.0000E+00  0.8000E+01  0.8000E+01
     -3.422  0.0000E+00  0.0000E+00  0.8000E+01  0.8000E+01
     -3.271  0.0000E+00  0.0000E+00  0.8000E+01  0.8000E+01
     -3.119  0.0000E+00  0.0000E+00  0.8000E+01  0.8000E+01
     -2.967  0.0000E+00  0.0000E+00  0.8000E+01  0.8000E+01
     -2.816  0.0000E+00  0.0000E+00  0.8000E+01  0.8000E+01
     -2.664  0.0000E+00  0.0000E+00  0.8000E+01  0.8000E+01
     -2.512  0.0000E+00  0.0000E+00  0.8000E+01  0.8000E+01
     -2.361  0.0000E+00  0.0000E+00  0.8000E+01  0.8000E+01
     -2.209  0.0000E+00  0.0000E+00  0.8000E+01  0.8000E+01
     -2.058  0.0000E+00  0.0000E+00  0.8000E+01  0.8000E+01
     -1.906  0.2377E-05  0.1600E-05  0.8000E+01  0.8000E+01
     -1.754  0.5556E-04  0.3744E-04  0.8000E+01  0.8000E+01
     -1.603  0.1103E-02  0.7543E-03  0.8000E+01  0.8000E+01
     -1.451  0.1400E-01  0.1060E-01  0.8002E+01  0.8002E+01
     -1.299  0.5665E-01  0.5127E-01  0.8011E+01  0.8010E+01
     -1.148  0.8576E-01  0.7988E-01  0.8024E+01  0.8022E+01
     -0.996  0.1282E+00  0.1270E+00  0.8043E+01  0.8041E+01
     -0.844  0.1316E+00  0.1287E+00  0.8063E+01  0.8060E+01
     -0.693  0.1702E+00  0.1649E+00  0.8089E+01  0.8085E+01
     -0.541  0.2075E+00  0.2012E+00  0.8121E+01  0.8116E+01
     -0.389  0.1926E+00  0.2035E+00  0.8150E+01  0.8147E+01
     -0.238  0.2248E+00  0.2061E+00  0.8184E+01  0.8178E+01
     -0.086  0.3038E+00  0.3051E+00  0.8230E+01  0.8225E+01
      0.066  0.2780E+00  0.2792E+00  0.8272E+01  0.8267E+01
      0.217  0.3025E+00  0.2966E+00  0.8318E+01  0.8312E+01
      0.369  0.3206E+00  0.3210E+00  0.8367E+01  0.8361E+01
      0.521  0.4513E+00  0.4267E+00  0.8436E+01  0.8426E+01
      0.672  0.4401E+00  0.4548E+00  0.8503E+01  0.8495E+01
      0.824  0.3955E+00  0.4011E+00  0.8563E+01  0.8556E+01
      0.976  0.5197E+00  0.4809E+00  0.8642E+01  0.8629E+01
      1.127  0.7235E+00  0.7288E+00  0.8751E+01  0.8740E+01
      1.279  0.7262E+00  0.7130E+00  0.8862E+01  0.8848E+01
      1.430  0.8383E+00  0.8330E+00  0.8989E+01  0.8974E+01
      1.582  0.9167E+00  0.8920E+00  0.9128E+01  0.9110E+01
      1.734  0.1036E+01  0.1024E+01  0.9286E+01  0.9266E+01
      1.885  0.8429E+00  0.8528E+00  0.9414E+01  0.9395E+01
      2.037  0.9453E+00  0.9148E+00  0.9558E+01  0.9534E+01
      2.189  0.9778E+00  0.9662E+00  0.9706E+01  0.9681E+01
      2.340  0.1032E+01  0.9942E+00  0.9863E+01  0.9832E+01
      2.492  0.1139E+01  0.1105E+01  0.1004E+02  0.1000E+02
      2.644  0.1249E+01  0.1311E+01  0.1023E+02  0.1020E+02
      2.795  0.1656E+01  0.1721E+01  0.1048E+02  0.1046E+02
      2.947  0.2299E+01  0.2336E+01  0.1083E+02  0.1082E+02
      3.099  0.2458E+01  0.2495E+01  0.1120E+02  0.1119E+02
      3.250  0.1898E+01  0.1900E+01  0.1149E+02  0.1148E+02
      3.402  0.1089E+01  0.1077E+01  0.1165E+02  0.1165E+02
      3.554  0.9144E+00  0.8981E+00  0.1179E+02  0.1178E+02
      3.705  0.8737E+00  0.8535E+00  0.1193E+02  0.1191E+02
      3.857  0.1092E+01  0.1034E+01  0.1209E+02  0.1207E+02
      4.009  0.1842E+01  0.1743E+01  0.1237E+02  0.1234E+02
      4.160  0.2200E+01  0.2228E+01  0.1271E+02  0.1267E+02
      4.312  0.2067E+01  0.2117E+01  0.1302E+02  0.1300E+02
      4.463  0.2070E+01  0.2101E+01  0.1333E+02  0.1332E+02
      4.615  0.1722E+01  0.1761E+01  0.1360E+02  0.1358E+02
      4.767  0.1372E+01  0.1380E+01  0.1380E+02  0.1379E+02
      4.918  0.1216E+01  0.1184E+01  0.1399E+02  0.1397E+02
      5.070  0.1393E+01  0.1377E+01  0.1420E+02  0.1418E+02
      5.222  0.1430E+01  0.1432E+01  0.1442E+02  0.1440E+02
      5.373  0.1400E+01  0.1376E+01  0.1463E+02  0.1461E+02
      5.525  0.1487E+01  0.1496E+01  0.1486E+02  0.1484E+02
      5.677  0.1159E+01  0.1205E+01  0.1503E+02  0.1502E+02
      5.828  0.9959E+00  0.9972E+00  0.1518E+02  0.1517E+02
      5.980  0.8673E+00  0.8916E+00  0.1532E+02  0.1531E+02
      6.132  0.7099E+00  0.7171E+00  0.1542E+02  0.1542E+02
      6.283  0.5867E+00  0.5983E+00  0.1551E+02  0.1551E+02
      6.435  0.5954E+00  0.6029E+00  0.1560E+02  0.1560E+02
      6.587  0.4820E+00  0.4882E+00  0.1568E+02  0.1567E+02
      6.738  0.4885E+00  0.4968E+00  0.1575E+02  0.1575E+02
      6.890  0.3139E+00  0.3163E+00  0.1580E+02  0.1580E+02
      7.042  0.3865E+00  0.3994E+00  0.1586E+02  0.1586E+02
      7.193  0.3408E+00  0.3627E+00  0.1591E+02  0.1591E+02
      7.345  0.3038E+00  0.2778E+00  0.1596E+02  0.1596E+02
      7.497  0.1234E+00  0.1297E+00  0.1598E+02  0.1598E+02
      7.648  0.8016E-01  0.9098E-01  0.1599E+02  0.1599E+02
      7.800  0.6877E-01  0.6281E-01  0.1600E+02  0.1600E+02
      7.951  0.7936E-02  0.6483E-02  0.1600E+02  0.1600E+02
      8.103  0.1718E-03  0.0000E+00  0.1600E+02  0.1600E+02
      8.255  0.0000E+00  0.0000E+00  0.1600E+02  0.1600E+02
      8.406  0.0000E+00  0.0000E+00  0.1600E+02  0.1600E+02
      8.558  0.0000E+00  0.0000E+00  0.1600E+02  0.1600E+02
      8.710  0.0000E+00  0.0000E+00  0.1600E+02  0.1600E+02
      8.861  0.0000E+00  0.0000E+00  0.1600E+02  0.1600E+02
      9.013  0.0000E+00  0.0000E+00  0.1600E+02  0.1600E+02
      9.165  0.0000E+00  0.0000E+00  0.1600E+02  0.1600E+02
      9.316  0.0000E+00  0.0000E+00  0.1600E+02  0.1600E+02
      9.468  0.0000E+00  0.0000E+00  0.1600E+02  0.1600E+02
      9.620  0.0000E+00  0.0000E+00  0.1600E+02  0.1600E+02
      9.771  0.0000E+00  0.0000E+00  0.1600E+02  0.1600E+02
      9.77129261    -35.72413445  301      2.47663332      1.00000000
    -35.724  0.0000E+00  0.0000E+00  0.0000E+00  0.0000E+00  0.0000E+00  0.0000E+00  0.0000E+00  0.0000E+00  0.0000E+00  0.0000E+00  0.0000E+00  0.0000E+00  0.0000E+00  0.0000E+00  0.0000E+00  0.0000E+00  0.0000E+00  0.0000E+00
    -35.572  0.0000E+00  0.0000E+00  0.0000E+00  0.0000E+00  0.0000E+00  0.0000E+00  0.0000E+00  0.0000E+00  0.0000E+00  0.0000E+00  0.0000E+00  0.0000E+00  0.0000E+00  0.0000E+00  0.0000E+00  0.0000E+00  0.0000E+00  0.0000E+00
    -35.421  0.0000E+00  0.0000E+00  0.0000E+00  0.0000E+00  0.0000E+00  0.0000E+00  0.0000E+00  0.0000E+00  0.0000E+00  0.0000E+00  0.0000E+00  0.0000E+00  0.0000E+00  0.0000E+00  0.0000E+00  0.0000E+00  0.0000E+00  0.0000E+00
    -35.269  0.0000E+00  0.0000E+00  0.0000E+00  0.0000E+00  0.0000E+00  0.0000E+00  0.0000E+00  0.0000E+00  0.0000E+00  0.0000E+00  0.0000E+00  0.0000E+00  0.0000E+00  0.0000E+00  0.0000E+00  0.0000E+00  0.0000E+00  0.0000E+00
    -35.118  0.0000E+00  0.0000E+00  0.0000E+00  0.0000E+00  0.0000E+00  0.0000E+00  0.0000E+00  0.0000E+00  0.0000E+00  0.0000E+00  0.0000E+00  0.0000E+00  0.0000E+00  0.0000E+00  0.0000E+00  0.0000E+00  0.0000E+00  0.0000E+00
    -34.966  0.0000E+00  0.0000E+00  0.0000E+00  0.0000E+00  0.0000E+00  0.0000E+00  0.0000E+00  0.0000E+00  0.0000E+00  0.0000E+00  0.0000E+00  0.0000E+00  0.0000E+00  0.0000E+00  0.0000E+00  0.0000E+00  0.0000E+00  0.0000E+00
    -34.814  0.0000E+00  0.0000E+00  0.0000E+00  0.0000E+00  0.0000E+00  0.0000E+00  0.0000E+00  0.0000E+00  0.0000E+00  0.0000E+00  0.0000E+00  0.0000E+00  0.0000E+00  0.0000E+00  0.0000E+00  0.0000E+00  0.0000E+00  0.0000E+00
    -34.663  0.0000E+00  0.0000E+00  0.0000E+00  0.0000E+00  0.0000E+00  0.0000E+00  0.0000E+00  0.0000E+00  0.0000E+00  0.0000E+00  0.0000E+00  0.0000E+00  0.0000E+00  0.0000E+00  0.0000E+00  0.0000E+00  0.0000E+00  0.0000E+00
    -34.511  0.0000E+00  0.0000E+00  0.0000E+00  0.0000E+00  0.0000E+00  0.0000E+00  0.0000E+00  0.0000E+00  0.0000E+00  0.0000E+00  0.0000E+00  0.0000E+00  0.0000E+00  0.0000E+00  0.0000E+00  0.0000E+00  0.0000E+00  0.0000E+00
    -34.359  0.0000E+00  0.0000E+00  0.0000E+00  0.0000E+00  0.0000E+00  0.0000E+00  0.0000E+00  0.0000E+00  0.0000E+00  0.0000E+00  0.0000E+00  0.0000E+00  0.0000E+00  0.0000E+00  0.0000E+00  0.0000E+00  0.0000E+00  0.0000E+00
    -34.208  0.3430E-07  0.0000E+00  0.3432E-18  0.0000E+00  0.6486E-20  0.0000E+00  0.3432E-18  0.0000E+00  0.2783E-22  0.0000E+00  0.7628E-25  0.0000E+00  0.2138E-14  0.0000E+00  0.7628E-25  0.0000E+00  0.2783E-22  0.0000E+00
    -34.056  0.9459E-03  0.8932E-03  0.7897E-09  0.7459E-09  0.6951E-09  0.6534E-09  0.7897E-09  0.7459E-09  0.1718E-09  0.1626E-09  0.1099E-09  0.1031E-09  0.2432E-09  0.2524E-09  0.1099E-09  0.1031E-09  0.1718E-09  0.1626E-09
    -33.904  0.1863E-01  0.1760E-01  0.1555E-07  0.1469E-07  0.1368E-07  0.1287E-07  0.1555E-07  0.1469E-07  0.3385E-08  0.3204E-08  0.2166E-08  0.2031E-08  0.4791E-08  0.4971E-08  0.2166E-08  0.2031E-08  0.3385E-08  0.3204E-08
    -33.753  0.3622E+00  0.3433E+00  0.2998E-06  0.2844E-06  0.2637E-06  0.2489E-06  0.2998E-06  0.2844E-06  0.6620E-07  0.6286E-07  0.4245E-07  0.3994E-07  0.9331E-07  0.9711E-07  0.4245E-07  0.3994E-07  0.6620E-07  0.6286E-07
    -33.601  0.3218E+01  0.3148E+01  0.2466E-05  0.2419E-05  0.2156E-05  0.2104E-05  0.2466E-05  0.2419E-05  0.6113E-06  0.5988E-06  0.4005E-06  0.3886E-06  0.8310E-06  0.8899E-06  0.4005E-06  0.3886E-06  0.6113E-06  0.5988E-06
    -33.449  0.2613E+01  0.2690E+01  0.1763E-05  0.1820E-05  0.1527E-05  0.1568E-05  0.1763E-05  0.1820E-05  0.5116E-06  0.5276E-06  0.3465E-06  0.3541E-06  0.6581E-06  0.7402E-06  0.3465E-06  0.3541E-06  0.5116E-06  0.5276E-06
    -33.298  0.2305E+00  0.2435E+00  0.1463E-06  0.1548E-06  0.1262E-06  0.1327E-06  0.1463E-06  0.1548E-06  0.4533E-07  0.4799E-07  0.3117E-07  0.3273E-07  0.5680E-07  0.6552E-07  0.3117E-07  0.3273E-07  0.4533E-07  0.4799E-07
    -33.146  0.0000E+00  0.0000E+00  0.0000E+00  0.0000E+00  0.0000E+00  0.0000E+00  0.0000E+00  0.0000E+00  0.0000E+00  0.0000E+00  0.0000E+00  0.0000E+00  0.0000E+00  0.0000E+00  0.0000E+00  0.0000E+00  0.0000E+00  0.0000E+00
    -32.994  0.0000E+00  0.0000E+00  0.0000E+00  0.0000E+00  0.0000E+00  0.0000E+00  0.0000E+00  0.0000E+00  0.0000E+00  0.0000E+00  0.0000E+00  0.0000E+00  0.0000E+00  0.0000E+00  0.0000E+00  0.0000E+00  0.0000E+00  0.0000E+00
    -32.843  0.0000E+00  0.0000E+00  0.0000E+00  0.0000E+00  0.0000E+00  0.0000E+00  0.0000E+00  0.0000E+00  0.0000E+00  0.0000E+00  0.0000E+00  0.0000E+00  0.0000E+00  0.0000E+00  0.0000E+00  0.0000E+00  0.0000E+00  0.0000E+00
    -32.691  0.0000E+00  0.0000E+00  0.0000E+00  0.0000E+00  0.0000E+00  0.0000E+00  0.0000E+00  0.0000E+00  0.0000E+00  0.0000E+00  0.0000E+00  0.0000E+00  0.0000E+00  0.0000E+00  0.0000E+00  0.0000E+00  0.0000E+00  0.0000E+00
    -32.539  0.0000E+00  0.0000E+00  0.0000E+00  0.0000E+00  0.0000E+00  0.0000E+00  0.0000E+00  0.0000E+00  0.0000E+00  0.0000E+00  0.0000E+00  0.0000E+00  0.0000E+00  0.0000E+00  0.0000E+00  0.0000E+00  0.0000E+00  0.0000E+00
    -32.388  0.0000E+00  0.0000E+00  0.0000E+00  0.0000E+00  0.0000E+00  0.0000E+00  0.0000E+00  0.0000E+00  0.0000E+00  0.0000E+00  0.0000E+00  0.0000E+00  0.0000E+00  0.0000E+00  0.0000E+00  0.0000E+00  0.0000E+00  0.0000E+00
    -32.236  0.0000E+00  0.0000E+00  0.0000E+00  0.0000E+00  0.0000E+00  0.0000E+00  0.0000E+00  0.0000E+00  0.0000E+00  0.0000E+00  0.0000E+00  0.0000E+00  0.0000E+00  0.0000E+00  0.0000E+00  0.0000E+00  0.0000E+00  0.0000E+00
    -32.085  0.0000E+00  0.0000E+00  0.0000E+00  0.0000E+00  0.0000E+00  0.0000E+00  0.0000E+00  0.0000E+00  0.0000E+00  0.0000E+00  0.0000E+00  0.0000E+00  0.0000E+00  0.0000E+00  0.0000E+00  0.0000E+00  0.0000E+00  0.0000E+00
    -31.933  0.0000E+00  0.0000E+00  0.0000E+00  0.0000E+00  0.0000E+00  0.0000E+00  0.0000E+00  0.0000E+00  0.0000E+00  0.0000E+00  0.0000E+00  0.0000E+00  0.0000E+00  0.0000E+00  0.0000E+00  0.0000E+00  0.0000E+00  0.0000E+00
    -31.781  0.0000E+00  0.0000E+00  0.0000E+00  0.0000E+00  0.0000E+00  0.0000E+00  0.0000E+00  0.0000E+00  0.0000E+00  0.0000E+00  0.0000E+00  0.0000E+00  0.0000E+00  0.0000E+00  0.0000E+00  0.0000E+00  0.0000E+00  0.0000E+00
    -31.630  0.0000E+00  0.0000E+00  0.0000E+00  0.0000E+00  0.0000E+00  0.0000E+00  0.0000E+00  0.0000E+00  0.0000E+00  0.0000E+00  0.0000E+00  0.0000E+00  0.0000E+00  0.0000E+00  0.0000E+00  0.0000E+00  0.0000E+00  0.0000E+00
    -31.478  0.0000E+00  0.0000E+00  0.0000E+00  0.0000E+00  0.0000E+00  0.0000E+00  0.0000E+00  0.0000E+00  0.0000E+00  0.0000E+00  0.0000E+00  0.0000E+00  0.0000E+00  0.0000E+00  0.0000E+00  0.0000E+00  0.0000E+00  0.0000E+00
    -31.326  0.0000E+00  0.0000E+00  0.0000E+00  0.0000E+00  0.0000E+00  0.0000E+00  0.0000E+00  0.0000E+00  0.0000E+00  0.0000E+00  0.0000E+00  0.0000E+00  0.0000E+00  0.0000E+00  0.0000E+00  0.0000E+00  0.0000E+00  0.0000E+00
    -31.175  0.0000E+00  0.0000E+00  0.0000E+00  0.0000E+00  0.0000E+00  0.0000E+00  0.0000E+00  0.0000E+00  0.0000E+00  0.0000E+00  0.0000E+00  0.0000E+00  0.0000E+00  0.0000E+00  0.0000E+00  0.0000E+00  0.0000E+00  0.0000E+00
    -31.023  0.0000E+00  0.0000E+00  0.0000E+00  0.0000E+00  0.0000E+00  0.0000E+00  0.0000E+00  0.0000E+00  0.0000E+00  0.0000E+00  0.0000E+00  0.0000E+00  0.0000E+00  0.0000E+00  0.0000E+00  0.0000E+00  0.0000E+00  0.0000E+00
    -30.871  0.0000E+00  0.0000E+00  0.0000E+00  0.0000E+00  0.0000E+00  0.0000E+00  0.0000E+00  0.0000E+00  0.0000E+00  0.0000E+00  0.0000E+00  0.0000E+00  0.0000E+00  0.0000E+00  0.0000E+00  0.0000E+00  0.0000E+00  0.0000E+00
    -30.720  0.0000E+00  0.0000E+00  0.0000E+00  0.0000E+00  0.0000E+00  0.0000E+00  0.0000E+00  0.0000E+00  0.0000E+00  0.0000E+00  0.0000E+00  0.0000E+00  0.0000E+00  0.0000E+00  0.0000E+00  0.0000E+00  0.0000E+00  0.0000E+00
    -30.568  0.0000E+00  0.0000E+00  0.0000E+00  0.0000E+00  0.0000E+00  0.0000E+00  0.0000E+00  0.0000E+00  0.0000E+00  0.0000E+00  0.0000E+00  0.0000E+00  0.0000E+00  0.0000E+00  0.0000E+00  0.0000E+00  0.0000E+00  0.0000E+00
    -30.416  0.0000E+00  0.0000E+00  0.0000E+00  0.0000E+00  0.0000E+00  0.0000E+00  0.0000E+00  0.0000E+00  0.0000E+00  0.0000E+00  0.0000E+00  0.0000E+00  0.0000E+00  0.0000E+00  0.0000E+00  0.0000E+00  0.0000E+00  0.0000E+00
    -30.265  0.0000E+00  0.0000E+00  0.0000E+00  0.0000E+00  0.0000E+00  0.0000E+00  0.0000E+00  0.0000E+00  0.0000E+00  0.0000E+00  0.0000E+00  0.0000E+00  0.0000E+00  0.0000E+00  0.0000E+00  0.0000E+00  0.0000E+00  0.0000E+00
    -30.113  0.0000E+00  0.0000E+00  0.0000E+00  0.0000E+00  0.0000E+00  0.0000E+00  0.0000E+00  0.0000E+00  0.0000E+00  0.0000E+00  0.0000E+00  0.0000E+00  0.0000E+00  0.0000E+00  0.0000E+00  0.0000E+00  0.0000E+00  0.0000E+00
    -29.961  0.0000E+00  0.0000E+00  0.0000E+00  0.0000E+00  0.0000E+00  0.0000E+00  0.0000E+00  0.0000E+00  0.0000E+00  0.0000E+00  0.0000E+00  0.0000E+00  0.0000E+00  0.0000E+00  0.0000E+00  0.0000E+00  0.0000E+00  0.0000E+00
    -29.810  0.0000E+00  0.0000E+00  0.0000E+00  0.0000E+00  0.0000E+00  0.0000E+00  0.0000E+00  0.0000E+00  0.0000E+00  0.0000E+00  0.0000E+00  0.0000E+00  0.0000E+00  0.0000E+00  0.0000E+00  0.0000E+00  0.0000E+00  0.0000E+00
    -29.658  0.0000E+00  0.0000E+00  0.0000E+00  0.0000E+00  0.0000E+00  0.0000E+00  0.0000E+00  0.0000E+00  0.0000E+00  0.0000E+00  0.0000E+00  0.0000E+00  0.0000E+00  0.0000E+00  0.0000E+00  0.0000E+00  0.0000E+00  0.0000E+00
    -29.506  0.0000E+00  0.0000E+00  0.0000E+00  0.0000E+00  0.0000E+00  0.0000E+00  0.0000E+00  0.0000E+00  0.0000E+00  0.0000E+00  0.0000E+00  0.0000E+00  0.0000E+00  0.0000E+00  0.0000E+00  0.0000E+00  0.0000E+00  0.0000E+00
    -29.355  0.0000E+00  0.0000E+00  0.0000E+00  0.0000E+00  0.0000E+00  0.0000E+00  0.0000E+00  0.0000E+00  0.0000E+00  0.0000E+00  0.0000E+00  0.0000E+00  0.0000E+00  0.0000E+00  0.0000E+00  0.0000E+00  0.0000E+00  0.0000E+00
    -29.203  0.0000E+00  0.0000E+00  0.0000E+00  0.0000E+00  0.0000E+00  0.0000E+00  0.0000E+00  0.0000E+00  0.0000E+00  0.0000E+00  0.0000E+00  0.0000E+00  0.0000E+00  0.0000E+00  0.0000E+00  0.0000E+00  0.0000E+00  0.0000E+00
    -29.051  0.0000E+00  0.0000E+00  0.0000E+00  0.0000E+00  0.0000E+00  0.0000E+00  0.0000E+00  0.0000E+00  0.0000E+00  0.0000E+00  0.0000E+00  0.0000E+00  0.0000E+00  0.0000E+00  0.0000E+00  0.0000E+00  0.0000E+00  0.0000E+00
    -28.900  0.0000E+00  0.0000E+00  0.0000E+00  0.0000E+00  0.0000E+00  0.0000E+00  0.0000E+00  0.0000E+00  0.0000E+00  0.0000E+00  0.0000E+00  0.0000E+00  0.0000E+00  0.0000E+00  0.0000E+00  0.0000E+00  0.0000E+00  0.0000E+00
    -28.748  0.0000E+00  0.0000E+00  0.0000E+00  0.0000E+00  0.0000E+00  0.0000E+00  0.0000E+00  0.0000E+00  0.0000E+00  0.0000E+00  0.0000E+00  0.0000E+00  0.0000E+00  0.0000E+00  0.0000E+00  0.0000E+00  0.0000E+00  0.0000E+00
    -28.597  0.0000E+00  0.0000E+00  0.0000E+00  0.0000E+00  0.0000E+00  0.0000E+00  0.0000E+00  0.0000E+00  0.0000E+00  0.0000E+00  0.0000E+00  0.0000E+00  0.0000E+00  0.0000E+00  0.0000E+00  0.0000E+00  0.0000E+00  0.0000E+00
    -28.445  0.0000E+00  0.0000E+00  0.0000E+00  0.0000E+00  0.0000E+00  0.0000E+00  0.0000E+00  0.0000E+00  0.0000E+00  0.0000E+00  0.0000E+00  0.0000E+00  0.0000E+00  0.0000E+00  0.0000E+00  0.0000E+00  0.0000E+00  0.0000E+00
    -28.293  0.0000E+00  0.0000E+00  0.0000E+00  0.0000E+00  0.0000E+00  0.0000E+00  0.0000E+00  0.0000E+00  0.0000E+00  0.0000E+00  0.0000E+00  0.0000E+00  0.0000E+00  0.0000E+00  0.0000E+00  0.0000E+00  0.0000E+00  0.0000E+00
    -28.142  0.0000E+00  0.0000E+00  0.0000E+00  0.0000E+00  0.0000E+00  0.0000E+00  0.0000E+00  0.0000E+00  0.0000E+00  0.0000E+00  0.0000E+00  0.0000E+00  0.0000E+00  0.0000E+00  0.0000E+00  0.0000E+00  0.0000E+00  0.0000E+00