   2   2   1   0
  0.6576677E+02  0.4513578E-09  0.4513577E-09  0.7455281E-09  0.5000000E-15
  1.000000000000000E-004
  CAR 
 unknown system                          
      6.62162905    -37.99542133  301      1.03260009      1.00000000
    -37.995  0.0000E+00  0.0000E+00  0.0000E+00  0.0000E+00
    -37.847  0.0000E+00  0.0000E+00  0.0000E+00  0.0000E+00
    -37.698  0.0000E+00  0.0000E+00  0.0000E+00  0.0000E+00
    -37.549  0.0000E+00  0.0000E+00  0.0000E+00  0.0000E+00
    -37.401  0.0000E+00  0.0000E+00  0.0000E+00  0.0000E+00
    -37.252  0.0000E+00  0.0000E+00  0.0000E+00  0.0000E+00
    -37.103  0.0000E+00  0.0000E+00  0.0000E+00  0.0000E+00
    -36.954  0.0000E+00  0.0000E+00  0.0000E+00  0.0000E+00
    -36.806  0.0000E+00  0.0000E+00  0.0000E+00  0.0000E+00
    -36.657  0.0000E+00  0.0000E+00  0.0000E+00  0.0000E+00
    -36.508  0.2410E-03  0.2091E-03  0.3584E-04  0.3109E-04
    -36.359  0.4476E-02  0.4450E-02  0.7015E-03  0.6929E-03
    -36.211  0.8704E-01  0.8598E-01  0.1365E-01  0.1348E-01
    -36.062  0.1502E+01  0.1486E+01  0.2371E+00  0.2345E+00
    -35.913  0.8151E+01  0.8135E+01  0.1449E+01  0.1444E+01
    -35.765  0.3447E+01  0.3477E+01  0.1962E+01  0.1961E+01
    -35.616  0.2428E+00  0.2457E+00  0.1998E+01  0.1998E+01
    -35.467  0.0000E+00  0.0000E+00  0.2000E+01  0.2000E+01
    -35.318  0.0000E+00  0.0000E+00  0.2000E+01  0.2000E+01
    -35.170  0.0000E+00  0.0000E+00  0.2000E+01  0.2000E+01
    -35.021  0.0000E+00  0.0000E+00  0.2000E+01  0.2000E+01
    -34.872  0.0000E+00  0.0000E+00  0.2000E+01  0.2000E+01
    -34.724  0.0000E+00  0.0000E+00  0.2000E+01  0.2000E+01
    -34.575  0.0000E+00  0.0000E+00  0.2000E+01  0.2000E+01
    -34.426  0.0000E+00  0.0000E+00  0.2000E+01  0.2000E+01
    -34.277  0.0000E+00  0.0000E+00  0.2000E+01  0.2000E+01
    -34.129  0.0000E+00  0.0000E+00  0.2000E+01  0.2000E+01
    -33.980  0.0000E+00  0.0000E+00  0.2000E+01  0.2000E+01
    -33.831  0.0000E+00  0.0000E+00  0.2000E+01  0.2000E+01
    -33.682  0.0000E+00  0.0000E+00  0.2000E+01  0.2000E+01
    -33.534  0.0000E+00  0.0000E+00  0.2000E+01  0.2000E+01
    -33.385  0.0000E+00  0.0000E+00  0.2000E+01  0.2000E+01
    -33.236  0.0000E+00  0.0000E+00  0.2000E+01  0.2000E+01
    -33.088  0.0000E+00  0.0000E+00  0.2000E+01  0.2000E+01
    -32.939  0.0000E+00  0.0000E+00  0.2000E+01  0.2000E+01
    -32.790  0.0000E+00  0.0000E+00  0.2000E+01  0.2000E+01
    -32.641  0.0000E+00  0.0000E+00  0.2000E+01  0.2000E+01
    -32.493  0.0000E+00  0.0000E+00  0.2000E+01  0.2000E+01
    -32.344  0.0000E+00  0.0000E+00  0.2000E+01  0.2000E+01
    -32.195  0.0000E+00  0.0000E+00  0.2000E+01  0.2000E+01
    -32.046  0.0000E+00  0.0000E+00  0.2000E+01  0.2000E+01
    -31.898  0.0000E+00  0.0000E+00  0.2000E+01  0.2000E+01
    -31.749  0.0000E+00  0.0000E+00  0.2000E+01  0.2000E+01
    -31.600  0.0000E+00  0.0000E+00  0.2000E+01  0.2000E+01
    -31.452  0.0000E+00  0.0000E+00  0.2000E+01  0.2000E+01
    -31.303  0.0000E+00  0.0000E+00  0.2000E+01  0.2000E+01
    -31.154  0.0000E+00  0.0000E+00  0.2000E+01  0.2000E+01
    -31.005  0.0000E+00  0.0000E+00  0.2000E+01  0.2000E+01
    -30.857  0.0000E+00  0.0000E+00  0.2000E+01  0.2000E+01
    -30.708  0.0000E+00  0.0000E+00  0.2000E+01  0.2000E+01
    -30.559  0.0000E+00  0.0000E+00  0.2000E+01  0.2000E+01
    -30.411  0.0000E+00  0.0000E+00  0.2000E+01  0.2000E+01
    -30.262  0.0000E+00  0.0000E+00  0.2000E+01  0.2000E+01
    -30.113  0.0000E+00  0.0000E+00  0.2000E+01  0.2000E+01
    -29.964  0.0000E+00  0.0000E+00  0.2000E+01  0.2000E+01
    -29.816  0.0000E+00  0.0000E+00  0.2000E+01  0.2000E+01
    -29.667  0.0000E+00  0.0000E+00  0.2000E+01  0.2000E+01
    -29.518  0.0000E+00  0.0000E+00  0.2000E+01  0.2000E+01
    -29.369  0.0000E+00  0.0000E+00  0.2000E+01  0.2000E+01
    -29.221  0.0000E+00  0.0000E+00  0.2000E+01  0.2000E+01
    -29.072  0.0000E+00  0.0000E+00  0.2000E+01  0.2000E+01
    -28.923  0.0000E+00  0.0000E+00  0.2000E+01  0.2000E+01
    -28.775  0.0000E+00  0.0000E+00  0.2000E+01  0.2000E+01
    -28.626  0.0000E+00  0.0000E+00  0.2000E+01  0.2000E+01
    -28.477  0.0000E+00  0.0000E+00  0.2000E+01  0.2000E+01
    -28.328  0.0000E+00  0.0000E+00  0.2000E+01  0.2000E+01
    -28.180  0.0000E+00  0.0000E+00  0.2000E+01  0.2000E+01
    -28.031  0.0000E+00  0.0000E+00  0.2000E+01  0.2000E+01
    -27.882  0.0000E+00  0.0000E+00  0.2000E+01  0.2000E+01
    -27.733  0.0000E+00  0.0000E+00  0.2000E+01  0.2000E+01
    -27.585  0.0000E+00  0.0000E+00  0.2000E+01  0.2000E+01
    -27.436  0.0000E+00  0.0000E+00  0.2000E+01  0.2000E+01
    -27.287  0.0000E+00  0.0000E+00  0.2000E+01  0.2000E+01
    -27.139  0.0000E+00  0.0000E+00  0.2000E+01  0.2000E+01
    -26.990  0.0000E+00  0.0000E+00  0.2000E+01  0.2000E+01
    -26.841  0.0000E+00  0.0000E+00  0.2000E+01  0.2000E+01
    -26.692  0.0000E+00  0.0000E+00  0.2000E+01  0.2000E+01
    -26.544  0.0000E+00  0.0000E+00  0.2000E+01  0.2000E+01
    -26.395  0.0000E+00  0.0000E+00  0.2000E+01  0.2000E+01
    -26.246  0.0000E+00  0.0000E+00  0.2000E+01  0.2000E+01
    -26.098  0.0000E+00  0.0000E+00  0.2000E+01  0.2000E+01
    -25.949  0.0000E+00  0.0000E+00  0.2000E+01  0.2000E+01
    -25.800  0.0000E+00  0.0000E+00  0.2000E+01  0.2000E+01
    -25.651  0.0000E+00  0.0000E+00  0.2000E+01  0.2000E+01
    -25.503  0.0000E+00  0.0000E+00  0.2000E+01  0.2000E+01
    -25.354  0.0000E+00  0.0000E+00  0.2000E+01  0.2000E+01
    -25.205  0.0000E+00  0.0000E+00  0.2000E+01  0.2000E+01
    -25.056  0.0000E+00  0.0000E+00  0.2000E+01  0.2000E+01
    -24.908  0.0000E+00  0.0000E+00  0.2000E+01  0.2000E+01
    -24.759  0.0000E+00  0.0000E+00  0.2000E+01  0.2000E+01
    -24.610  0.0000E+00  0.0000E+00  0.2000E+01  0.2000E+01
    -24.462  0.0000E+00  0.0000E+00  0.2000E+01  0.2000E+01
    -24.313  0.0000E+00  0.0000E+00  0.2000E+01  0.2000E+01
    -24.164  0.0000E+00  0.0000E+00  0.2000E+01  0.2000E+01
    -24.015  0.0000E+00  0.0000E+00  0.2000E+01  0.2000E+01
    -23.867  0.0000E+00  0.0000E+00  0.2000E+01  0.2000E+01
    -23.718  0.0000E+00  0.0000E+00  0.2000E+01  0.2000E+01
    -23.569  0.0000E+00  0.0000E+00  0.2000E+01  0.2000E+01
    -23.421  0.0000E+00  0.0000E+00  0.2000E+01  0.2000E+01
    -23.272  0.0000E+00  0.0000E+00  0.2000E+01  0.2000E+01
    -23.123  0.0000E+00  0.0000E+00  0.2000E+01  0.2000E+01
    -22.974  0.0000E+00  0.0000E+00  0.2000E+01  0.2000E+01
    -22.826  0.0000E+00  0.0000E+00  0.2000E+01  0.2000E+01
    -22.677  0.0000E+00  0.0000E+00  0.2000E+01  0.2000E+01
    -22.528  0.0000E+00  0.0000E+00  0.2000E+01  0.2000E+01
    -22.379  0.0000E+00  0.0000E+00  0.2000E+01  0.2000E+01
    -22.231  0.0000E+00  0.0000E+00  0.2000E+01  0.2000E+01
    -22.082  0.0000E+00  0.0000E+00  0.2000E+01  0.2000E+01
    -21.933  0.0000E+00  0.0000E+00  0.2000E+01  0.2000E+01
    -21.785  0.0000E+00  0.0000E+00  0.2000E+01  0.2000E+01
    -21.636  0.0000E+00  0.0000E+00  0.2000E+01  0.2000E+01
    -21.487  0.0000E+00  0.0000E+00  0.2000E+01  0.2000E+01
    -21.338  0.0000E+00  0.0000E+00  0.2000E+01  0.2000E+01
    -21.190  0.0000E+00  0.0000E+00  0.2000E+01  0.2000E+01
    -21.041  0.0000E+00  0.0000E+00  0.2000E+01  0.2000E+01
    -20.892  0.0000E+00  0.0000E+00  0.2000E+01  0.2000E+01
    -20.743  0.0000E+00  0.0000E+00  0.2000E+01  0.2000E+01
    -20.595  0.0000E+00  0.0000E+00  0.2000E+01  0.2000E+01
    -20.446  0.0000E+00  0.0000E+00  0.2000E+01  0.2000E+01
    -20.297  0.0000E+00  0.0000E+00  0.2000E+01  0.2000E+01
    -20.149  0.0000E+00  0.0000E+00  0.2000E+01  0.2000E+01
    -20.000  0.0000E+00  0.0000E+00  0.2000E+01  0.2000E+01
    -19.851  0.0000E+00  0.0000E+00  0.2000E+01  0.2000E+01
    -19.702  0.0000E+00  0.0000E+00  0.2000E+01  0.2000E+01
    -19.554  0.0000E+00  0.0000E+00  0.2000E+01  0.2000E+01
    -19.405  0.0000E+00  0.0000E+00  0.2000E+01  0.2000E+01
    -19.256  0.0000E+00  0.0000E+00  0.2000E+01  0.2000E+01
    -19.108  0.0000E+00  0.0000E+00  0.2000E+01  0.2000E+01
    -18.959  0.0000E+00  0.0000E+00  0.2000E+01  0.2000E+01
    -18.810  0.0000E+00  0.0000E+00  0.2000E+01  0.2000E+01
    -18.661  0.0000E+00  0.0000E+00  0.2000E+01  0.2000E+01
    -18.513  0.2110E-04  0.2066E-04  0.2000E+01  0.2000E+01
    -18.364  0.5955E-02  0.5860E-02  0.2001E+01  0.2001E+01
    -18.215  0.1106E+00  0.1089E+00  0.2017E+01  0.2017E+01
    -18.066  0.2017E+01  0.1987E+01  0.2317E+01  0.2313E+01
    -17.918  0.1760E+02  0.1748E+02  0.4935E+01  0.4912E+01
    -17.769  0.1834E+02  0.1845E+02  0.7662E+01  0.7657E+01
    -17.620  0.2148E+01  0.2182E+01  0.7982E+01  0.7981E+01
    -17.472  0.2755E-04  0.1958E-03  0.8000E+01  0.8000E+01
    -17.323  0.0000E+00  0.0000E+00  0.8000E+01  0.8000E+01
    -17.174  0.0000E+00  0.0000E+00  0.8000E+01  0.8000E+01
    -17.025  0.0000E+00  0.0000E+00  0.8000E+01  0.8000E+01
    -16.877  0.0000E+00  0.0000E+00  0.8000E+01  0.8000E+01
    -16.728  0.0000E+00  0.0000E+00  0.8000E+01  0.8000E+01
    -16.579  0.0000E+00  0.0000E+00  0.8000E+01  0.8000E+01
    -16.431  0.0000E+00  0.0000E+00  0.8000E+01  0.8000E+01
    -16.282  0.0000E+00  0.0000E+00  0.8000E+01  0.8000E+01
    -16.133  0.0000E+00  0.0000E+00  0.8000E+01  0.8000E+01
    -15.984  0.0000E+00  0.0000E+00  0.8000E+01  0.8000E+01
    -15.836  0.0000E+00  0.0000E+00  0.8000E+01  0.8000E+01
    -15.687  0.0000E+00  0.0000E+00  0.8000E+01  0.8000E+01
    -15.538  0.0000E+00  0.0000E+00  0.8000E+01  0.8000E+01
    -15.389  0.0000E+00  0.0000E+00  0.8000E+01  0.8000E+01
    -15.241  0.0000E+00  0.0000E+00  0.8000E+01  0.8000E+01
    -15.092  0.0000E+00  0.0000E+00  0.8000E+01  0.8000E+01
    -14.943  0.0000E+00  0.0000E+00  0.8000E+01  0.8000E+01
    -14.795  0.0000E+00  0.0000E+00  0.8000E+01  0.8000E+01
    -14.646  0.0000E+00  0.0000E+00  0.8000E+01  0.8000E+01
    -14.497  0.0000E+00  0.0000E+00  0.8000E+01  0.8000E+01
    -14.348  0.0000E+00  0.0000E+00  0.8000E+01  0.8000E+01
    -14.200  0.0000E+00  0.0000E+00  0.8000E+01  0.8000E+01
    -14.051  0.0000E+00  0.0000E+00  0.8000E+01  0.8000E+01
    -13.902  0.0000E+00  0.0000E+00  0.8000E+01  0.8000E+01
    -13.753  0.0000E+00  0.0000E+00  0.8000E+01  0.8000E+01
    -13.605  0.0000E+00  0.0000E+00  0.8000E+01  0.8000E+01
    -13.456  0.0000E+00  0.0000E+00  0.8000E+01  0.8000E+01
    -13.307  0.0000E+00  0.0000E+00  0.8000E+01  0.8000E+01
    -13.159  0.0000E+00  0.0000E+00  0.8000E+01  0.8000E+01
    -13.010  0.0000E+00  0.0000E+00  0.8000E+01  0.8000E+01
    -12.861  0.0000E+00  0.0000E+00  0.8000E+01  0.8000E+01
    -12.712  0.0000E+00  0.0000E+00  0.8000E+01  0.8000E+01
    -12.564  0.0000E+00  0.0000E+00  0.8000E+01  0.8000E+01
    -12.415  0.0000E+00  0.0000E+00  0.8000E+01  0.8000E+01
    -12.266  0.0000E+00  0.0000E+00  0.8000E+01  0.8000E+01
    -12.118  0.0000E+00  0.0000E+00  0.8000E+01  0.8000E+01
    -11.969  0.0000E+00  0.0000E+00  0.8000E+01  0.8000E+01
    -11.820  0.0000E+00  0.0000E+00  0.8000E+01  0.8000E+01
    -11.671  0.0000E+00  0.0000E+00  0.8000E+01  0.8000E+01
    -11.523  0.0000E+00  0.0000E+00  0.8000E+01  0.8000E+01
    -11.374  0.0000E+00  0.0000E+00  0.8000E+01  0.8000E+01
    -11.225  0.0000E+00  0.0000E+00  0.8000E+01  0.8000E+01
    -11.076  0.0000E+00  0.0000E+00  0.8000E+01  0.8000E+01
    -10.928  0.0000E+00  0.0000E+00  0.8000E+01  0.8000E+01
    -10.779  0.0000E+00  0.0000E+00  0.8000E+01  0.8000E+01
    -10.630  0.0000E+00  0.0000E+00  0.8000E+01  0.8000E+01
    -10.482  0.0000E+00  0.0000E+00  0.8000E+01  0.8000E+01
    -10.333  0.0000E+00  0.0000E+00  0.8000E+01  0.8000E+01
    -10.184  0.0000E+00  0.0000E+00  0.8000E+01  0.8000E+01
    -10.035  0.0000E+00  0.0000E+00  0.8000E+01  0.8000E+01
     -9.887  0.0000E+00  0.0000E+00  0.8000E+01  0.8000E+01
     -9.738  0.0000E+00  0.0000E+00  0.8000E+01  0.8000E+01
     -9.589  0.0000E+00  0.0000E+00  0.8000E+01  0.8000E+01
     -9.441  0.0000E+00  0.0000E+00  0.8000E+01  0.8000E+01
     -9.292  0.0000E+00  0.0000E+00  0.8000E+01  0.8000E+01
     -9.143  0.0000E+00  0.0000E+00  0.8000E+01  0.8000E+01
     -8.994  0.0000E+00  0.0000E+00  0.8000E+01  0.8000E+01
     -8.846  0.0000E+00  0.0000E+00  0.8000E+01  0.8000E+01
     -8.697  0.0000E+00  0.0000E+00  0.8000E+01  0.8000E+01
     -8.548  0.0000E+00  0.0000E+00  0.8000E+01  0.8000E+01
     -8.399  0.0000E+00  0.0000E+00  0.8000E+01  0.8000E+01
     -8.251  0.0000E+00  0.0000E+00  0.8000E+01  0.8000E+01
     -8.102  0.0000E+00  0.0000E+00  0.8000E+01  0.8000E+01
     -7.953  0.0000E+00  0.0000E+00  0.8000E+01  0.8000E+01
     -7.805  0.0000E+00  0.0000E+00  0.8000E+01  0.8000E+01
     -7.656  0.0000E+00  0.0000E+00  0.8000E+01  0.8000E+01
     -7.507  0.0000E+00  0.0000E+00  0.8000E+01  0.8000E+01
     -7.358  0.0000E+00  0.0000E+00  0.8000E+01  0.8000E+01
     -7.210  0.0000E+00  0.0000E+00  0.8000E+01  0.8000E+01
     -7.061  0.0000E+00  0.0000E+00  0.8000E+01  0.8000E+01
     -6.912  0.0000E+00  0.0000E+00  0.8000E+01  0.8000E+01
     -6.763  0.0000E+00  0.0000E+00  0.8000E+01  0.8000E+01
     -6.615  0.0000E+00  0.0000E+00  0.8000E+01  0.8000E+01
     -6.466  0.0000E+00  0.0000E+00  0.8000E+01  0.8000E+01
     -6.317  0.0000E+00  0.0000E+00  0.8000E+01  0.8000E+01
     -6.169  0.0000E+00  0.0000E+00  0.8000E+01  0.8000E+01
     -6.020  0.0000E+00  0.0000E+00  0.8000E+01  0.8000E+01
     -5.871  0.0000E+00  0.0000E+00  0.8000E+01  0.8000E+01
     -5.722  0.0000E+00  0.0000E+00  0.8000E+01  0.8000E+01
     -5.574  0.0000E+00  0.0000E+00  0.8000E+01  0.8000E+01
     -5.425  0.0000E+00  0.0000E+00  0.8000E+01  0.8000E+01
     -5.276  0.0000E+00  0.0000E+00  0.8000E+01  0.8000E+01
     -5.128  0.0000E+00  0.0000E+00  0.8000E+01  0.8000E+01
     -4.979  0.0000E+00  0.0000E+00  0.8000E+01  0.8000E+01
     -4.830  0.0000E+00  0.0000E+00  0.8000E+01  0.8000E+01
     -4.681  0.0000E+00  0.0000E+00  0.8000E+01  0.8000E+01
     -4.533  0.0000E+00  0.0000E+00  0.8000E+01  0.8000E+01
     -4.384  0.0000E+00  0.0000E+00  0.8000E+01  0.8000E+01
     -4.235  0.0000E+00  0.0000E+00  0.8000E+01  0.8000E+01
     -4.086  0.0000E+00  0.0000E+00  0.8000E+01  0.8000E+01
     -3.938  0.0000E+00  0.0000E+00  0.8000E+01  0.8000E+01
     -3.789  0.0000E+00  0.0000E+00  0.8000E+01  0.8000E+01
     -3.640  0.0000E+00  0.0000E+00  0.8000E+01  0.8000E+01
     -3.492  0.0000E+00  0.0000E+00  0.8000E+01  0.8000E+01
     -3.343  0.0000E+00  0.0000E+00  0.8000E+01  0.8000E+01
     -3.194  0.0000E+00  0.0000E+00  0.8000E+01  0.8000E+01
     -3.045  0.0000E+00  0.0000E+00  0.8000E+01  0.8000E+01
     -2.897  0.8961E-07  0.7849E-07  0.8000E+01  0.8000E+01
     -2.748  0.7836E-05  0.6863E-05  0.8000E+01  0.8000E+01
     -2.599  0.1589E-03  0.1392E-03  0.8000E+01  0.8000E+01
     -2.451  0.2957E-02  0.2607E-02  0.8000E+01  0.8000E+01
     -2.302  0.3341E-01  0.3073E-01  0.8005E+01  0.8005E+01
     -2.153  0.1077E+00  0.1043E+00  0.8021E+01  0.8020E+01
     -2.004  0.1765E+00  0.1746E+00  0.8048E+01  0.8046E+01
     -1.856  0.2169E+00  0.2142E+00  0.8080E+01  0.8078E+01
     -1.707  0.2782E+00  0.2760E+00  0.8121E+01  0.8119E+01
     -1.558  0.2781E+00  0.2781E+00  0.8163E+01  0.8161E+01
     -1.409  0.3696E+00  0.3654E+00  0.8218E+01  0.8215E+01
     -1.261  0.3779E+00  0.3783E+00  0.8274E+01  0.8272E+01
     -1.112  0.4040E+00  0.4029E+00  0.8334E+01  0.8332E+01
     -0.963  0.4591E+00  0.4534E+00  0.8403E+01  0.8399E+01
     -0.815  0.5505E+00  0.5535E+00  0.8485E+01  0.8482E+01
     -0.666  0.4720E+00  0.4715E+00  0.8555E+01  0.8552E+01
     -0.517  0.6264E+00  0.6175E+00  0.8649E+01  0.8644E+01
     -0.368  0.6915E+00  0.6952E+00  0.8752E+01  0.8748E+01
     -0.220  0.6799E+00  0.6769E+00  0.8853E+01  0.8848E+01
     -0.071  0.7790E+00  0.7766E+00  0.8969E+01  0.8964E+01
      0.078  0.9372E+00  0.9320E+00  0.9108E+01  0.9103E+01
      0.227  0.9389E+00  0.9429E+00  0.9248E+01  0.9243E+01
      0.375  0.7755E+00  0.7723E+00  0.9364E+01  0.9358E+01
      0.524  0.1050E+01  0.1037E+01  0.9520E+01  0.9513E+01
      0.673  0.9576E+00  0.9596E+00  0.9663E+01  0.9656E+01
      0.821  0.9686E+00  0.9695E+00  0.9807E+01  0.9800E+01
      0.970  0.8445E+00  0.8363E+00  0.9933E+01  0.9925E+01
      1.119  0.1446E+01  0.1405E+01  0.1015E+02  0.1013E+02
      1.268  0.2549E+01  0.2542E+01  0.1053E+02  0.1051E+02
      1.416  0.3031E+01  0.3052E+01  0.1098E+02  0.1097E+02
      1.565  0.2112E+01  0.2148E+01  0.1129E+02  0.1129E+02
      1.714  0.1465E+01  0.1468E+01  0.1151E+02  0.1151E+02
      1.862  0.1184E+01  0.1185E+01  0.1169E+02  0.1168E+02
      2.011  0.1363E+01  0.1345E+01  0.1189E+02  0.1188E+02
      2.160  0.1830E+01  0.1804E+01  0.1216E+02  0.1215E+02
      2.309  0.2322E+01  0.2321E+01  0.1251E+02  0.1250E+02
      2.457  0.2890E+01  0.2903E+01  0.1294E+02  0.1293E+02
      2.606  0.3044E+01  0.3066E+01  0.1339E+02  0.1339E+02
      2.755  0.1992E+01  0.2005E+01  0.1369E+02  0.1369E+02
      2.904  0.1573E+01  0.1570E+01  0.1393E+02  0.1392E+02
      3.052  0.1544E+01  0.1536E+01  0.1416E+02  0.1415E+02
      3.201  0.1796E+01  0.1789E+01  0.1442E+02  0.1442E+02
      3.350  0.2111E+01  0.2104E+01  0.1474E+02  0.1473E+02
      3.498  0.1948E+01  0.1965E+01  0.1503E+02  0.1502E+02
      3.647  0.1551E+01  0.1565E+01  0.1526E+02  0.1526E+02
      3.796  0.1202E+01  0.1185E+01  0.1544E+02  0.1543E+02
      3.945  0.1113E+01  0.1114E+01  0.1561E+02  0.1560E+02
      4.093  0.1091E+01  0.1134E+01  0.1577E+02  0.1577E+02
      4.242  0.8394E+00  0.8402E+00  0.1589E+02  0.1589E+02
      4.391  0.4266E+00  0.4227E+00  0.1596E+02  0.1596E+02
      4.540  0.1732E+00  0.1633E+00  0.1598E+02  0.1598E+02
      4.688  0.9961E-01  0.1107E+00  0.1600E+02  0.1600E+02
      4.837  0.1056E-01  0.1441E-01  0.1600E+02  0.1600E+02
      4.986  0.0000E+00  0.3842E-03  0.1600E+02  0.1600E+02
      5.134  0.0000E+00  0.0000E+00  0.1600E+02  0.1600E+02
      5.283  0.0000E+00  0.0000E+00  0.1600E+02  0.1600E+02
      5.432  0.0000E+00  0.0000E+00  0.1600E+02  0.1600E+02
      5.581  0.0000E+00  0.0000E+00  0.1600E+02  0.1600E+02
      5.729  0.0000E+00  0.0000E+00  0.1600E+02  0.1600E+02
      5.878  0.0000E+00  0.0000E+00  0.1600E+02  0.1600E+02
      6.027  0.0000E+00  0.0000E+00  0.1600E+02  0.1600E+02
      6.175  0.0000E+00  0.0000E+00  0.1600E+02  0.1600E+02
      6.324  0.0000E+00  0.0000E+00  0.1600E+02  0.1600E+02
      6.473  0.0000E+00  0.0000E+00  0.1600E+02  0.1600E+02
      6.622  0.0000E+00  0.0000E+00  0.1600E+02  0.1600E+02
      6.62162905    -37.99542133  301      1.03260009      1.00000000
    -37.995  0.0000E+00  0.0000E+00  0.0000E+00  0.0000E+00  0.0000E+00  0.0000E+00  0.0000E+00  0.0000E+00  0.0000E+00  0.0000E+00  0.0000E+00  0.0000E+00  0.0000E+00  0.0000E+00  0.0000E+00  0.0000E+00  0.0000E+00  0.0000E+00
    -37.847  0.0000E+00  0.0000E+00  0.0000E+00  0.0000E+00  0.0000E+00  0.0000E+00  0.0000E+00  0.0000E+00  0.0000E+00  0.0000E+00  0.0000E+00  0.0000E+00  0.0000E+00  0.0000E+00  0.0000E+00  0.0000E+00  0.0000E+00  0.0000E+00
    -37.698  0.0000E+00  0.0000E+00  0.0000E+00  0.0000E+00  0.0000E+00  0.0000E+00  0.0000E+00  0.0000E+00  0.0000E+00  0.0000E+00  0.0000E+00  0.0000E+00  0.0000E+00  0.0000E+00  0.0000E+00  0.0000E+00  0.0000E+00  0.0000E+00
    -37.549  0.0000E+00  0.0000E+00  0.0000E+00  0.0000E+00  0.0000E+00  0.0000E+00  0.0000E+00  0.0000E+00  0.0000E+00  0.0000E+00  0.0000E+00  0.0000E+00  0.0000E+00  0.0000E+00  0.0000E+00  0.0000E+00  0.0000E+00  0.0000E+00
    -37.401  0.0000E+00  0.0000E+00  0.0000E+00  0.0000E+00  0.0000E+00  0.0000E+00  0.0000E+00  0.0000E+00  0.0000E+00  0.0000E+00  0.0000E+00  0.0000E+00  0.0000E+00  0.0000E+00  0.0000E+00  0.0000E+00  0.0000E+00  0.0000E+00
    -37.252  0.0000E+00  0.0000E+00  0.0000E+00  0.0000E+00  0.0000E+00  0.0000E+00  0.0000E+00  0.0000E+00  0.0000E+00  0.0000E+00  0.0000E+00  0.0000E+00  0.0000E+00  0.0000E+00  0.0000E+00  0.0000E+00  0.0000E+00  0.0000E+00
    -37.103  0.0000E+00  0.0000E+00  0.0000E+00  0.0000E+00  0.0000E+00  0.0000E+00  0.0000E+00  0.0000E+00  0.0000E+00  0.0000E+00  0.0000E+00  0.0000E+00  0.0000E+00  0.0000E+00  0.0000E+00  0.0000E+00  0.0000E+00  0.0000E+00
    -36.954  0.0000E+00  0.0000E+00  0.0000E+00  0.0000E+00  0.0000E+00  0.0000E+00  0.0000E+00  0.0000E+00  0.0000E+00  0.0000E+00  0.0000E+00  0.0000E+00  0.0000E+00  0.0000E+00  0.0000E+00  0.0000E+00  0.0000E+00  0.0000E+00
    -36.806  0.0000E+00  0.0000E+00  0.0000E+00  0.0000E+00  0.0000E+00  0.0000E+00  0.0000E+00  0.0000E+00  0.0000E+00  0.0000E+00  0.0000E+00  0.0000E+00  0.0000E+00  0.0000E+00  0.0000E+00  0.0000E+00  0.0000E+00  0.0000E+00
    -36.657  0.0000E+00  0.0000E+00  0.0000E+00  0.0000E+00  0.0000E+00  0.0000E+00  0.0000E+00  0.0000E+00  0.0000E+00  0.0000E+00  0.0000E+00  0.0000E+00  0.0000E+00  0.0000E+00  0.0000E+00  0.0000E+00  0.0000E+00  0.0000E+00
    -36.508  0.1181E-03  0.1024E-03  0.1498E-11  0.1423E-11  0.1263E-11  0.1221E-11  0.1498E-11  0.1423E-11  0.3661E-12  0.3308E-12  0.2369E-12  0.2183E-12  0.1131E-11  0.1271E-11  0.2369E-12  0.2183E-12  0.3661E-12  0.3308E-12
    -36.359  0.2193E-02  0.2180E-02  0.2783E-10  0.2747E-10  0.2346E-10  0.2298E-10  0.2783E-10  0.2747E-10  0.6799E-11  0.6801E-11  0.4401E-11  0.4328E-11  0.2100E-10  0.2563E-10  0.4401E-11  0.4328E-11  0.6799E-11  0.6801E-11
    -36.211  0.4265E-01  0.4213E-01  0.5410E-09  0.5332E-09  0.4562E-09  0.4466E-09  0.5410E-09  0.5332E-09  0.1322E-09  0.1316E-09  0.8558E-10  0.8390E-10  0.4083E-09  0.4964E-09  0.8558E-10  0.8390E-10  0.1322E-09  0.1316E-09
    -36.062  0.7362E+00  0.7282E+00  0.9319E-08  0.9197E-08  0.7855E-08  0.7703E-08  0.9319E-08  0.9197E-08  0.2284E-08  0.2277E-08  0.1479E-08  0.1452E-08  0.7045E-08  0.8578E-08  0.1479E-08  0.1452E-08  0.2284E-08  0.2277E-08
    -35.913  0.3993E+01  0.3986E+01  0.4989E-07  0.4968E-07  0.4200E-07  0.4155E-07  0.4989E-07  0.4968E-07  0.1244E-07  0.1251E-07  0.8083E-08  0.8006E-08  0.3812E-07  0.4683E-07  0.8083E-08  0.8006E-08  0.1244E-07  0.1251E-07
    -35.765  0.1689E+01  0.1704E+01  0.2076E-07  0.2090E-07  0.1745E-07  0.1746E-07  0.2076E-07  0.2090E-07  0.5284E-08  0.5370E-08  0.3447E-08  0.3451E-08  0.1607E-07  0.1995E-07  0.3447E-08  0.3451E-08  0.5284E-08  0.5370E-08
    -35.616  0.1190E+00  0.1204E+00  0.1455E-08  0.1470E-08  0.1222E-08  0.1227E-08  0.1455E-08  0.1470E-08  0.3726E-09  0.3800E-09  0.2434E-09  0.2445E-09  0.1131E-08  0.1409E-08  0.2434E-09  0.2445E-09  0.3726E-09  0.3800E-09
    -35.467  0.0000E+00  0.0000E+00  0.0000E+00  0.0000E+00  0.0000E+00  0.0000E+00  0.0000E+00  0.0000E+00  0.0000E+00  0.0000E+00  0.0000E+00  0.0000E+00  0.0000E+00  0.0000E+00  0.0000E+00  0.0000E+00  0.0000E+00  0.0000E+00
    -35.318  0.0000E+00  0.0000E+00  0.0000E+00  0.0000E+00  0.0000E+00  0.0000E+00  0.0000E+00  0.0000E+00  0.0000E+00  0.0000E+00  0.0000E+00  0.0000E+00  0.0000E+00  0.0000E+00  0.0000E+00  0.0000E+00  0.0000E+00  0.0000E+00
    -35.170  0.0000E+00  0.0000E+00  0.0000E+00  0.0000E+00  0.0000E+00  0.0000E+00  0.0000E+00  0.0000E+00  0.0000E+00  0.0000E+00  0.0000E+00  0.0000E+00  0.0000E+00  0.0000E+00  0.0000E+00  0.0000E+00  0.0000E+00  0.0000E+00
    -35.021  0.0000E+00  0.0000E+00  0.0000E+00  0.0000E+00  0.0000E+00  0.0000E+00  0.0000E+00  0.0000E+00  0.0000E+00  0.0000E+00  0.0000E+00  0.0000E+00  0.0000E+00  0.0000E+00  0.0000E+00  0.0000E+00  0.0000E+00  0.0000E+00
    -34.872  0.0000E+00  0.0000E+00  0.0000E+00  0.0000E+00  0.0000E+00  0.0000E+00  0.0000E+00  0.0000E+00  0.0000E+00  0.0000E+00  0.0000E+00  0.0000E+00  0.0000E+00  0.0000E+00  0.0000E+00  0.0000E+00  0.0000E+00  0.0000E+00
    -34.724  0.0000E+00  0.0000E+00  0.0000E+00  0.0000E+00  0.0000E+00  0.0000E+00  0.0000E+00  0.0000E+00  0.0000E+00  0.0000E+00  0.0000E+00  0.0000E+00  0.0000E+00  0.0000E+00  0.0000E+00  0.0000E+00  0.0000E+00  0.0000E+00
    -34.575  0.0000E+00  0.0000E+00  0.0000E+00  0.0000E+00  0.0000E+00  0.0000E+00  0.0000E+00  0.0000E+00  0.0000E+00  0.0000E+00  0.0000E+00  0.0000E+00  0.0000E+00  0.0000E+00  0.0000E+00  0.0000E+00  0.0000E+00  0.0000E+00
    -34.426  0.0000E+00  0.0000E+00  0.0000E+00  0.0000E+00  0.0000E+00  0.0000E+00  0.0000E+00  0.0000E+00  0.0000E+00  0.0000E+00  0.0000E+00  0.0000E+00  0.0000E+00  0.0000E+00  0.0000E+00  0.0000E+00  0.0000E+00  0.0000E+00
    -34.277  0.0000E+00  0.0000E+00  0.0000E+00  0.0000E+00  0.0000E+00  0.0000E+00  0.0000E+00  0.0000E+00  0.0000E+00  0.0000E+00  0.0000E+00  0.0000E+00  0.0000E+00  0.0000E+00  0.0000E+00  0.0000E+00  0.0000E+00  0.0000E+00
    -34.129  0.0000E+00  0.0000E+00  0.0000E+00  0.0000E+00  0.0000E+00  0.0000E+00  0.0000E+00  0.0000E+00  0.0000E+00  0.0000E+00  0.0000E+00  0.0000E+00  0.0000E+00  0.0000E+00  0.0000E+00  0.0000E+00  0.0000E+00  0.0000E+00
    -33.980  0.0000E+00  0.0000E+00  0.0000E+00  0.0000E+00  0.0000E+00  0.0000E+00  0.0000E+00  0.0000E+00  0.0000E+00  0.0000E+00  0.0000E+00  0.0000E+00  0.0000E+00  0.0000E+00  0.0000E+00  0.0000E+00  0.0000E+00  0.0000E+00
    -33.831  0.0000E+00  0.0000E+00  0.0000E+00  0.0000E+00  0.0000E+00  0.0000E+00  0.0000E+00  0.0000E+00  0.0000E+00  0.0000E+00  0.0000E+00  0.0000E+00  0.0000E+00  0.0000E+00  0.0000E+00  0.0000E+00  0.0000E+00  0.0000E+00
    -33.682  0.0000E+00  0.0000E+00  0.0000E+00  0.0000E+00  0.0000E+00  0.0000E+00  0.0000E+00  0.0000E+00  0.0000E+00  0.0000E+00  0.0000E+00  0.0000E+00  0.0000E+00  0.0000E+00  0.0000E+00  0.0000E+00  0.0000E+00  0.0000E+00
    -33.534  0.0000E+00  0.0000E+00  0.0000E+00  0.0000E+00  0.0000E+00  0.0000E+00  0.0000E+00  0.0000E+00  0.0000E+00  0.0000E+00  0.0000E+00  0.0000E+00  0.0000E+00  0.0000E+00  0.0000E+00  0.0000E+00  0.0000E+00  0.0000E+00
    -33.385  0.0000E+00  0.0000E+00  0.0000E+00  0.0000E+00  0.0000E+00  0.0000E+00  0.0000E+00  0.0000E+00  0.0000E+00  0.0000E+00  0.0000E+00  0.0000E+00  0.0000E+00  0.0000E+00  0.0000E+00  0.0000E+00  0.0000E+00  0.0000E+00
    -33.236  0.0000E+00  0.0000E+00  0.0000E+00  0.0000E+00  0.0000E+00  0.0000E+00  0.0000E+00  0.0000E+00  0.0000E+00  0.0000E+00  0.0000E+00  0.0000E+00  0.0000E+00  0.0000E+00  0.0000E+00  0.0000E+00  0.0000E+00  0.0000E+00
    -33.088  0.0000E+00  0.0000E+00  0.0000E+00  0.0000E+00  0.0000E+00  0.0000E+00  0.0000E+00  0.0000E+00  0.0000E+00  0.0000E+00  0.0000E+00  0.0000E+00  0.0000E+00  0.0000E+00  0.0000E+00  0.0000E+00  0.0000E+00  0.0000E+00
    -32.939  0.0000E+00  0.0000E+00  0.0000E+00  0.0000E+00  0.0000E+00  0.0000E+00  0.0000E+00  0.0000E+00  0.0000E+00  0.0000E+00  0.0000E+00  0.0000E+00  0.0000E+00  0.0000E+00  0.0000E+00  0.0000E+00  0.0000E+00  0.0000E+00
    -32.790  0.0000E+00  0.0000E+00  0.0000E+00  0.0000E+00  0.0000E+00  0.0000E+00  0.0000E+00  0.0000E+00  0.0000E+00  0.0000E+00  0.0000E+00  0.0000E+00  0.0000E+00  0.0000E+00  0.0000E+00  0.0000E+00  0.0000E+00  0.0000E+00
    -32.641  0.0000E+00  0.0000E+00  0.0000E+00  0.0000E+00  0.0000E+00  0.0000E+00  0.0000E+00  0.0000E+00  0.0000E+00  0.0000E+00  0.0000E+00  0.0000E+00  0.0000E+00  0.0000E+00  0.0000E+00  0.0000E+00  0.0000E+00  0.0000E+00
    -32.493  0.0000E+00  0.0000E+00  0.0000E+00  0.0000E+00  0.0000E+00  0.0000E+00  0.0000E+00  0.0000E+00  0.0000E+00  0.0000E+00  0.0000E+00  0.0000E+00  0.0000E+00  0.0000E+00  0.0000E+00  0.0000E+00  0.0000E+00  0.0000E+00
    -32.344  0.0000E+00  0.0000E+00  0.0000E+00  0.0000E+00  0.0000E+00  0.0000E+00  0.0000E+00  0.0000E+00  0.0000E+00  0.0000E+00  0.0000E+00  0.0000E+00  0.0000E+00  0.0000E+00  0.0000E+00  0.0000E+00  0.0000E+00  0.0000E+00
    -32.195  0.0000E+00  0.0000E+00  0.0000E+00  0.0000E+00  0.0000E+00  0.0000E+00  0.0000E+00  0.0000E+00  0.0000E+00  0.0000E+00  0.0000E+00  0.0000E+00  0.0000E+00  0.0000E+00  0.0000E+00  0.0000E+00  0.0000E+00  0.0000E+00
    -32.046  0.0000E+00  0.0000E+00  0.0000E+00  0.0000E+00  0.0000E+00  0.0000E+00  0.0000E+00  0.0000E+00  0.0000E+00  0.0000E+00  0.0000E+00  0.0000E+00  0.0000E+00  0.0000E+00  0.0000E+00  0.0000E+00  0.0000E+00  0.0000E+00
    -31.898  0.0000E+00  0.0000E+00  0.0000E+00  0.0000E+00  0.0000E+00  0.0000E+00  0.0000E+00  0.0000E+00  0.0000E+00  0.0000E+00  0.0000E+00  0.0000E+00  0.0000E+00  0.0000E+00  0.0000E+00  0.0000E+00  0.0000E+00  0.0000E+00
    -31.749  0.0000E+00  0.0000E+00  0.0000E+00  0.0000E+00  0.0000E+00  0.0000E+00  0.0000E+00  0.0000E+00  0.0000E+00  0.0000E+00  0.0000E+00  0.0000E+00  0.0000E+00  0.0000E+00  0.0000E+00  0.0000E+00  0.0000E+00  0.0000E+00
    -31.600  0.0000E+00  0.0000E+00  0.0000E+00  0.0000E+00  0.0000E+00  0.0000E+00  0.0000E+00  0.0000E+00  0.0000E+00  0.0000E+00  0.0000E+00  0.0000E+00  0.0000E+00  0.0000E+00  0.0000E+00  0.0000E+00  0.0000E+00  0.0000E+00
    -31.452  0.0000E+00  0.0000E+00  0.0000E+00  0.0000E+00  0.0000E+00  0.0000E+00  0.0000E+00  0.0000E+00  0.0000E+00  0.0000E+00  0.0000E+00  0.0000E+00  0.0000E+00  0.0000E+00  0.0000E+00  0.0000E+00  0.0000E+00  0.0000E+00
    -31.303  0.0000E+00  0.0000E+00  0.0000E+00  0.0000E+00  0.0000E+00  0.0000E+00  0.0000E+00  0.0000E+00  0.0000E+00  0.0000E+00  0.0000E+00  0.0000E+00  0.0000E+00  0.0000E+00  0.0000E+00  0.0000E+00  0.0000E+00  0.0000E+00
    -31.154  0.0000E+00  0.0000E+00  0.0000E+00  0.0000E+00  0.0000E+00  0.0000E+00  0.0000E+00  0.0000E+00  0.0000E+00  0.0000E+00  0.0000E+00  0.0000E+00  0.0000E+00  0.0000E+00  0.0000E+00  0.0000E+00  0.0000E+00  0.0000E+00
    -31.005  0.0000E+00  0.0000E+00  0.0000E+00  0.0000E+00  0.0000E+00  0.0000E+00  0.0000E+00  0.0000E+00  0.0000E+00  0.0000E+00  0.0000E+00  0.0000E+00  0.0000E+00  0.0000E+00  0.0000E+00  0.0000E+00  0.0000E+00  0.0000E+00
    -30.857  0.0000E+00  0.0000E+00  0.0000E+00  0.0000E+00  0.0000E+00  0.0000E+00  0.0000E+00  0.0000E+00  0.0000E+00  0.0000E+00  0.0000E+00  0.0000E+00  0.0000E+00  0.0000E+00  0.0000E+00  0.0000E+00  0.0000E+00  0.0000E+00
    -30.708  0.0000E+00  0.0000E+00  0.0000E+00  0.0000E+00  0.0000E+00  0.0000E+00  0.0000E+00  0.0000E+00  0.0000E+00  0.0000E+00  0.0000E+00  0.0000E+00  0.0000E+00  0.0000E+00  0.0000E+00  0.0000E+00  0.0000E+00  0.0000E+00
    -30.559  0.0000E+00  0.0000E+00  0.0000E+00  0.0000E+00  0.0000E+00  0.0000E+00  0.0000E+00  0.0000E+00  0.0000E+00  0.0000E+00  0.0000E+00  0.0000E+00  0.0000E+00  0.0000E+00  0.0000E+00  0.0000E+00  0.0000E+00  0.0000E+00