   2   2   1   0
  0.5357899E+02  0.4215512E-09  0.4215511E-09  0.6962951E-09  0.5000000E-15
  1.000000000000000E-004
  CAR 
 unknown system                          
      7.98790464    -36.93151639  301      1.69593447      1.00000000
    -36.932  0.0000E+00  0.0000E+00  0.0000E+00  0.0000E+00
    -36.782  0.0000E+00  0.0000E+00  0.0000E+00  0.0000E+00
    -36.632  0.0000E+00  0.0000E+00  0.0000E+00  0.0000E+00
    -36.482  0.0000E+00  0.0000E+00  0.0000E+00  0.0000E+00
    -36.333  0.0000E+00  0.0000E+00  0.0000E+00  0.0000E+00
    -36.183  0.0000E+00  0.0000E+00  0.0000E+00  0.0000E+00
    -36.033  0.0000E+00  0.0000E+00  0.0000E+00  0.0000E+00
    -35.883  0.0000E+00  0.0000E+00  0.0000E+00  0.0000E+00
    -35.734  0.0000E+00  0.0000E+00  0.0000E+00  0.0000E+00
    -35.584  0.0000E+00  0.0000E+00  0.0000E+00  0.0000E+00
    -35.434  0.9291E-05  0.3987E-05  0.1391E-05  0.5970E-06
    -35.284  0.3638E-02  0.3479E-02  0.5461E-03  0.5215E-03
    -35.135  0.6884E-01  0.6575E-01  0.1085E-01  0.1037E-01
    -34.985  0.1239E+01  0.1189E+01  0.1964E+00  0.1884E+00
    -34.835  0.7825E+01  0.7745E+01  0.1368E+01  0.1348E+01
    -34.686  0.3918E+01  0.4038E+01  0.1955E+01  0.1953E+01
    -34.536  0.2870E+00  0.3002E+00  0.1998E+01  0.1998E+01
    -34.386  0.0000E+00  0.0000E+00  0.2000E+01  0.2000E+01
    -34.236  0.0000E+00  0.0000E+00  0.2000E+01  0.2000E+01
    -34.087  0.0000E+00  0.0000E+00  0.2000E+01  0.2000E+01
    -33.937  0.0000E+00  0.0000E+00  0.2000E+01  0.2000E+01
    -33.787  0.0000E+00  0.0000E+00  0.2000E+01  0.2000E+01
    -33.637  0.0000E+00  0.0000E+00  0.2000E+01  0.2000E+01
    -33.488  0.0000E+00  0.0000E+00  0.2000E+01  0.2000E+01
    -33.338  0.0000E+00  0.0000E+00  0.2000E+01  0.2000E+01
    -33.188  0.0000E+00  0.0000E+00  0.2000E+01  0.2000E+01
    -33.038  0.0000E+00  0.0000E+00  0.2000E+01  0.2000E+01
    -32.889  0.0000E+00  0.0000E+00  0.2000E+01  0.2000E+01
    -32.739  0.0000E+00  0.0000E+00  0.2000E+01  0.2000E+01
    -32.589  0.0000E+00  0.0000E+00  0.2000E+01  0.2000E+01
    -32.440  0.0000E+00  0.0000E+00  0.2000E+01  0.2000E+01
    -32.290  0.0000E+00  0.0000E+00  0.2000E+01  0.2000E+01
    -32.140  0.0000E+00  0.0000E+00  0.2000E+01  0.2000E+01
    -31.990  0.0000E+00  0.0000E+00  0.2000E+01  0.2000E+01
    -31.841  0.0000E+00  0.0000E+00  0.2000E+01  0.2000E+01
    -31.691  0.0000E+00  0.0000E+00  0.2000E+01  0.2000E+01
    -31.541  0.0000E+00  0.0000E+00  0.2000E+01  0.2000E+01
    -31.391  0.0000E+00  0.0000E+00  0.2000E+01  0.2000E+01
    -31.242  0.0000E+00  0.0000E+00  0.2000E+01  0.2000E+01
    -31.092  0.0000E+00  0.0000E+00  0.2000E+01  0.2000E+01
    -30.942  0.0000E+00  0.0000E+00  0.2000E+01  0.2000E+01
    -30.793  0.0000E+00  0.0000E+00  0.2000E+01  0.2000E+01
    -30.643  0.0000E+00  0.0000E+00  0.2000E+01  0.2000E+01
    -30.493  0.0000E+00  0.0000E+00  0.2000E+01  0.2000E+01
    -30.343  0.0000E+00  0.0000E+00  0.2000E+01  0.2000E+01
    -30.194  0.0000E+00  0.0000E+00  0.2000E+01  0.2000E+01
    -30.044  0.0000E+00  0.0000E+00  0.2000E+01  0.2000E+01
    -29.894  0.0000E+00  0.0000E+00  0.2000E+01  0.2000E+01
    -29.744  0.0000E+00  0.0000E+00  0.2000E+01  0.2000E+01
    -29.595  0.0000E+00  0.0000E+00  0.2000E+01  0.2000E+01
    -29.445  0.0000E+00  0.0000E+00  0.2000E+01  0.2000E+01
    -29.295  0.0000E+00  0.0000E+00  0.2000E+01  0.2000E+01
    -29.145  0.0000E+00  0.0000E+00  0.2000E+01  0.2000E+01
    -28.996  0.0000E+00  0.0000E+00  0.2000E+01  0.2000E+01
    -28.846  0.0000E+00  0.0000E+00  0.2000E+01  0.2000E+01
    -28.696  0.0000E+00  0.0000E+00  0.2000E+01  0.2000E+01
    -28.547  0.0000E+00  0.0000E+00  0.2000E+01  0.2000E+01
    -28.397  0.0000E+00  0.0000E+00  0.2000E+01  0.2000E+01
    -28.247  0.0000E+00  0.0000E+00  0.2000E+01  0.2000E+01
    -28.097  0.0000E+00  0.0000E+00  0.2000E+01  0.2000E+01
    -27.948  0.0000E+00  0.0000E+00  0.2000E+01  0.2000E+01
    -27.798  0.0000E+00  0.0000E+00  0.2000E+01  0.2000E+01
    -27.648  0.0000E+00  0.0000E+00  0.2000E+01  0.2000E+01
    -27.498  0.0000E+00  0.0000E+00  0.2000E+01  0.2000E+01
    -27.349  0.0000E+00  0.0000E+00  0.2000E+01  0.2000E+01
    -27.199  0.0000E+00  0.0000E+00  0.2000E+01  0.2000E+01
    -27.049  0.0000E+00  0.0000E+00  0.2000E+01  0.2000E+01
    -26.900  0.0000E+00  0.0000E+00  0.2000E+01  0.2000E+01
    -26.750  0.0000E+00  0.0000E+00  0.2000E+01  0.2000E+01
    -26.600  0.0000E+00  0.0000E+00  0.2000E+01  0.2000E+01
    -26.450  0.0000E+00  0.0000E+00  0.2000E+01  0.2000E+01
    -26.301  0.0000E+00  0.0000E+00  0.2000E+01  0.2000E+01
    -26.151  0.0000E+00  0.0000E+00  0.2000E+01  0.2000E+01
    -26.001  0.0000E+00  0.0000E+00  0.2000E+01  0.2000E+01
    -25.851  0.0000E+00  0.0000E+00  0.2000E+01  0.2000E+01
    -25.702  0.0000E+00  0.0000E+00  0.2000E+01  0.2000E+01
    -25.552  0.0000E+00  0.0000E+00  0.2000E+01  0.2000E+01
    -25.402  0.0000E+00  0.0000E+00  0.2000E+01  0.2000E+01
    -25.252  0.0000E+00  0.0000E+00  0.2000E+01  0.2000E+01
    -25.103  0.0000E+00  0.0000E+00  0.2000E+01  0.2000E+01
    -24.953  0.0000E+00  0.0000E+00  0.2000E+01  0.2000E+01
    -24.803  0.0000E+00  0.0000E+00  0.2000E+01  0.2000E+01
    -24.654  0.0000E+00  0.0000E+00  0.2000E+01  0.2000E+01
    -24.504  0.0000E+00  0.0000E+00  0.2000E+01  0.2000E+01
    -24.354  0.0000E+00  0.0000E+00  0.2000E+01  0.2000E+01
    -24.204  0.0000E+00  0.0000E+00  0.2000E+01  0.2000E+01
    -24.055  0.0000E+00  0.0000E+00  0.2000E+01  0.2000E+01
    -23.905  0.0000E+00  0.0000E+00  0.2000E+01  0.2000E+01
    -23.755  0.0000E+00  0.0000E+00  0.2000E+01  0.2000E+01
    -23.605  0.0000E+00  0.0000E+00  0.2000E+01  0.2000E+01
    -23.456  0.0000E+00  0.0000E+00  0.2000E+01  0.2000E+01
    -23.306  0.0000E+00  0.0000E+00  0.2000E+01  0.2000E+01
    -23.156  0.0000E+00  0.0000E+00  0.2000E+01  0.2000E+01
    -23.006  0.0000E+00  0.0000E+00  0.2000E+01  0.2000E+01
    -22.857  0.0000E+00  0.0000E+00  0.2000E+01  0.2000E+01
    -22.707  0.0000E+00  0.0000E+00  0.2000E+01  0.2000E+01
    -22.557  0.0000E+00  0.0000E+00  0.2000E+01  0.2000E+01
    -22.408  0.0000E+00  0.0000E+00  0.2000E+01  0.2000E+01
    -22.258  0.0000E+00  0.0000E+00  0.2000E+01  0.2000E+01
    -22.108  0.0000E+00  0.0000E+00  0.2000E+01  0.2000E+01
    -21.958  0.0000E+00  0.0000E+00  0.2000E+01  0.2000E+01
    -21.809  0.0000E+00  0.0000E+00  0.2000E+01  0.2000E+01
    -21.659  0.0000E+00  0.0000E+00  0.2000E+01  0.2000E+01
    -21.509  0.0000E+00  0.0000E+00  0.2000E+01  0.2000E+01
    -21.359  0.0000E+00  0.0000E+00  0.2000E+01  0.2000E+01
    -21.210  0.0000E+00  0.0000E+00  0.2000E+01  0.2000E+01
    -21.060  0.0000E+00  0.0000E+00  0.2000E+01  0.2000E+01
    -20.910  0.0000E+00  0.0000E+00  0.2000E+01  0.2000E+01
    -20.761  0.0000E+00  0.0000E+00  0.2000E+01  0.2000E+01
    -20.611  0.0000E+00  0.0000E+00  0.2000E+01  0.2000E+01
    -20.461  0.0000E+00  0.0000E+00  0.2000E+01  0.2000E+01
    -20.311  0.0000E+00  0.0000E+00  0.2000E+01  0.2000E+01
    -20.162  0.0000E+00  0.0000E+00  0.2000E+01  0.2000E+01
    -20.012  0.0000E+00  0.0000E+00  0.2000E+01  0.2000E+01
    -19.862  0.0000E+00  0.0000E+00  0.2000E+01  0.2000E+01
    -19.712  0.0000E+00  0.0000E+00  0.2000E+01  0.2000E+01
    -19.563  0.0000E+00  0.0000E+00  0.2000E+01  0.2000E+01
    -19.413  0.0000E+00  0.0000E+00  0.2000E+01  0.2000E+01
    -19.263  0.0000E+00  0.0000E+00  0.2000E+01  0.2000E+01
    -19.113  0.0000E+00  0.0000E+00  0.2000E+01  0.2000E+01
    -18.964  0.0000E+00  0.0000E+00  0.2000E+01  0.2000E+01
    -18.814  0.0000E+00  0.0000E+00  0.2000E+01  0.2000E+01
    -18.664  0.0000E+00  0.0000E+00  0.2000E+01  0.2000E+01
    -18.515  0.0000E+00  0.0000E+00  0.2000E+01  0.2000E+01
    -18.365  0.0000E+00  0.0000E+00  0.2000E+01  0.2000E+01
    -18.215  0.0000E+00  0.0000E+00  0.2000E+01  0.2000E+01
    -18.065  0.0000E+00  0.0000E+00  0.2000E+01  0.2000E+01
    -17.916  0.0000E+00  0.0000E+00  0.2000E+01  0.2000E+01
    -17.766  0.0000E+00  0.0000E+00  0.2000E+01  0.2000E+01
    -17.616  0.0000E+00  0.0000E+00  0.2000E+01  0.2000E+01
    -17.466  0.3285E-03  0.3103E-03  0.2000E+01  0.2000E+01
    -17.317  0.8774E-02  0.8347E-02  0.2001E+01  0.2001E+01
    -17.167  0.1709E+00  0.1626E+00  0.2027E+01  0.2026E+01
    -17.017  0.2834E+01  0.2717E+01  0.2451E+01  0.2432E+01
    -16.868  0.1612E+02  0.1585E+02  0.4866E+01  0.4805E+01
    -16.718  0.1782E+02  0.1808E+02  0.7534E+01  0.7512E+01
    -16.568  0.2927E+01  0.3069E+01  0.7974E+01  0.7972E+01
    -16.418  0.1019E+00  0.1151E+00  0.7999E+01  0.7999E+01
    -16.269  0.0000E+00  0.0000E+00  0.8000E+01  0.8000E+01
    -16.119  0.0000E+00  0.0000E+00  0.8000E+01  0.8000E+01
    -15.969  0.0000E+00  0.0000E+00  0.8000E+01  0.8000E+01
    -15.819  0.0000E+00  0.0000E+00  0.8000E+01  0.8000E+01
    -15.670  0.0000E+00  0.0000E+00  0.8000E+01  0.8000E+01
    -15.520  0.0000E+00  0.0000E+00  0.8000E+01  0.8000E+01
    -15.370  0.0000E+00  0.0000E+00  0.8000E+01  0.8000E+01
    -15.220  0.0000E+00  0.0000E+00  0.8000E+01  0.8000E+01
    -15.071  0.0000E+00  0.0000E+00  0.8000E+01  0.8000E+01
    -14.921  0.0000E+00  0.0000E+00  0.8000E+01  0.8000E+01
    -14.771  0.0000E+00  0.0000E+00  0.8000E+01  0.8000E+01
    -14.622  0.0000E+00  0.0000E+00  0.8000E+01  0.8000E+01
    -14.472  0.0000E+00  0.0000E+00  0.8000E+01  0.8000E+01
    -14.322  0.0000E+00  0.0000E+00  0.8000E+01  0.8000E+01
    -14.172  0.0000E+00  0.0000E+00  0.8000E+01  0.8000E+01
    -14.023  0.0000E+00  0.0000E+00  0.8000E+01  0.8000E+01
    -13.873  0.0000E+00  0.0000E+00  0.8000E+01  0.8000E+01
    -13.723  0.0000E+00  0.0000E+00  0.8000E+01  0.8000E+01
    -13.573  0.0000E+00  0.0000E+00  0.8000E+01  0.8000E+01
    -13.424  0.0000E+00  0.0000E+00  0.8000E+01  0.8000E+01
    -13.274  0.0000E+00  0.0000E+00  0.8000E+01  0.8000E+01
    -13.124  0.0000E+00  0.0000E+00  0.8000E+01  0.8000E+01
    -12.974  0.0000E+00  0.0000E+00  0.8000E+01  0.8000E+01
    -12.825  0.0000E+00  0.0000E+00  0.8000E+01  0.8000E+01
    -12.675  0.0000E+00  0.0000E+00  0.8000E+01  0.8000E+01
    -12.525  0.0000E+00  0.0000E+00  0.8000E+01  0.8000E+01
    -12.376  0.0000E+00  0.0000E+00  0.8000E+01  0.8000E+01
    -12.226  0.0000E+00  0.0000E+00  0.8000E+01  0.8000E+01
    -12.076  0.0000E+00  0.0000E+00  0.8000E+01  0.8000E+01
    -11.926  0.0000E+00  0.0000E+00  0.8000E+01  0.8000E+01
    -11.777  0.0000E+00  0.0000E+00  0.8000E+01  0.8000E+01
    -11.627  0.0000E+00  0.0000E+00  0.8000E+01  0.8000E+01
    -11.477  0.0000E+00  0.0000E+00  0.8000E+01  0.8000E+01
    -11.327  0.0000E+00  0.0000E+00  0.8000E+01  0.8000E+01
    -11.178  0.0000E+00  0.0000E+00  0.8000E+01  0.8000E+01
    -11.028  0.0000E+00  0.0000E+00  0.8000E+01  0.8000E+01
    -10.878  0.0000E+00  0.0000E+00  0.8000E+01  0.8000E+01
    -10.729  0.0000E+00  0.0000E+00  0.8000E+01  0.8000E+01
    -10.579  0.0000E+00  0.0000E+00  0.8000E+01  0.8000E+01
    -10.429  0.0000E+00  0.0000E+00  0.8000E+01  0.8000E+01
    -10.279  0.0000E+00  0.0000E+00  0.8000E+01  0.8000E+01
    -10.130  0.0000E+00  0.0000E+00  0.8000E+01  0.8000E+01
     -9.980  0.0000E+00  0.0000E+00  0.8000E+01  0.8000E+01
     -9.830  0.0000E+00  0.0000E+00  0.8000E+01  0.8000E+01
     -9.680  0.0000E+00  0.0000E+00  0.8000E+01  0.8000E+01
     -9.531  0.0000E+00  0.0000E+00  0.8000E+01  0.8000E+01
     -9.381  0.0000E+00  0.0000E+00  0.8000E+01  0.8000E+01
     -9.231  0.0000E+00  0.0000E+00  0.8000E+01  0.8000E+01
     -9.081  0.0000E+00  0.0000E+00  0.8000E+01  0.8000E+01
     -8.932  0.0000E+00  0.0000E+00  0.8000E+01  0.8000E+01
     -8.782  0.0000E+00  0.0000E+00  0.8000E+01  0.8000E+01
     -8.632  0.0000E+00  0.0000E+00  0.8000E+01  0.8000E+01
     -8.483  0.0000E+00  0.0000E+00  0.8000E+01  0.8000E+01
     -8.333  0.0000E+00  0.0000E+00  0.8000E+01  0.8000E+01
     -8.183  0.0000E+00  0.0000E+00  0.8000E+01  0.8000E+01
     -8.033  0.0000E+00  0.0000E+00  0.8000E+01  0.8000E+01
     -7.884  0.0000E+00  0.0000E+00  0.8000E+01  0.8000E+01
     -7.734  0.0000E+00  0.0000E+00  0.8000E+01  0.8000E+01
     -7.584  0.0000E+00  0.0000E+00  0.8000E+01  0.8000E+01
     -7.434  0.0000E+00  0.0000E+00  0.8000E+01  0.8000E+01
     -7.285  0.0000E+00  0.0000E+00  0.8000E+01  0.8000E+01
     -7.135  0.0000E+00  0.0000E+00  0.8000E+01  0.8000E+01
     -6.985  0.0000E+00  0.0000E+00  0.8000E+01  0.8000E+01
     -6.836  0.0000E+00  0.0000E+00  0.8000E+01  0.8000E+01
     -6.686  0.0000E+00  0.0000E+00  0.8000E+01  0.8000E+01
     -6.536  0.0000E+00  0.0000E+00  0.8000E+01  0.8000E+01
     -6.386  0.0000E+00  0.0000E+00  0.8000E+01  0.8000E+01
     -6.237  0.0000E+00  0.0000E+00  0.8000E+01  0.8000E+01
     -6.087  0.0000E+00  0.0000E+00  0.8000E+01  0.8000E+01
     -5.937  0.0000E+00  0.0000E+00  0.8000E+01  0.8000E+01
     -5.787  0.0000E+00  0.0000E+00  0.8000E+01  0.8000E+01
     -5.638  0.0000E+00  0.0000E+00  0.8000E+01  0.8000E+01
     -5.488  0.0000E+00  0.0000E+00  0.8000E+01  0.8000E+01
     -5.338  0.0000E+00  0.0000E+00  0.8000E+01  0.8000E+01
     -5.188  0.0000E+00  0.0000E+00  0.8000E+01  0.8000E+01
     -5.039  0.0000E+00  0.0000E+00  0.8000E+01  0.8000E+01
     -4.889  0.0000E+00  0.0000E+00  0.8000E+01  0.8000E+01
     -4.739  0.0000E+00  0.0000E+00  0.8000E+01  0.8000E+01
     -4.590  0.0000E+00  0.0000E+00  0.8000E+01  0.8000E+01
     -4.440  0.0000E+00  0.0000E+00  0.8000E+01  0.8000E+01
     -4.290  0.0000E+00  0.0000E+00  0.8000E+01  0.8000E+01
     -4.140  0.0000E+00  0.0000E+00  0.8000E+01  0.8000E+01
     -3.991  0.0000E+00  0.0000E+00  0.8000E+01  0.8000E+01
     -3.841  0.0000E+00  0.0000E+00  0.8000E+01  0.8000E+01
     -3.691  0.0000E+00  0.0000E+00  0.8000E+01  0.8000E+01
     -3.541  0.0000E+00  0.0000E+00  0.8000E+01  0.8000E+01
     -3.392  0.0000E+00  0.0000E+00  0.8000E+01  0.8000E+01
     -3.242  0.0000E+00  0.0000E+00  0.8000E+01  0.8000E+01
     -3.092  0.0000E+00  0.0000E+00  0.8000E+01  0.8000E+01
     -2.942  0.0000E+00  0.0000E+00  0.8000E+01  0.8000E+01
     -2.793  0.0000E+00  0.0000E+00  0.8000E+01  0.8000E+01
     -2.643  0.0000E+00  0.0000E+00  0.8000E+01  0.8000E+01
     -2.493  0.6140E-06  0.4322E-06  0.8000E+01  0.8000E+01
     -2.344  0.2469E-04  0.1736E-04  0.8000E+01  0.8000E+01
     -2.194  0.4885E-03  0.3449E-03  0.8000E+01  0.8000E+01
     -2.044  0.8019E-02  0.5940E-02  0.8001E+01  0.8001E+01
     -1.894  0.5243E-01  0.4530E-01  0.8009E+01  0.8008E+01
     -1.745  0.1058E+00  0.9892E-01  0.8025E+01  0.8023E+01
     -1.595  0.1537E+00  0.1516E+00  0.8048E+01  0.8045E+01
     -1.445  0.1772E+00  0.1718E+00  0.8075E+01  0.8071E+01
     -1.295  0.2263E+00  0.2209E+00  0.8108E+01  0.8104E+01
     -1.146  0.2457E+00  0.2504E+00  0.8145E+01  0.8142E+01
     -0.996  0.2595E+00  0.2448E+00  0.8184E+01  0.8178E+01
     -0.846  0.3410E+00  0.3422E+00  0.8235E+01  0.8230E+01
     -0.697  0.3263E+00  0.3258E+00  0.8284E+01  0.8278E+01
     -0.547  0.3589E+00  0.3542E+00  0.8338E+01  0.8332E+01
     -0.397  0.3978E+00  0.3851E+00  0.8398E+01  0.8389E+01
     -0.247  0.5134E+00  0.5171E+00  0.8475E+01  0.8467E+01
     -0.098  0.4246E+00  0.4295E+00  0.8538E+01  0.8531E+01
      0.052  0.4959E+00  0.4763E+00  0.8613E+01  0.8603E+01
      0.202  0.6736E+00  0.6676E+00  0.8714E+01  0.8703E+01
      0.352  0.6259E+00  0.6294E+00  0.8808E+01  0.8797E+01
      0.501  0.7213E+00  0.7175E+00  0.8916E+01  0.8905E+01
      0.651  0.8311E+00  0.8144E+00  0.9041E+01  0.9027E+01
      0.801  0.9751E+00  0.9529E+00  0.9187E+01  0.9170E+01
      0.951  0.8838E+00  0.9134E+00  0.9319E+01  0.9307E+01
      1.100  0.8312E+00  0.7919E+00  0.9444E+01  0.9426E+01
      1.250  0.1016E+01  0.1016E+01  0.9597E+01  0.9578E+01
      1.400  0.9359E+00  0.9158E+00  0.9737E+01  0.9716E+01
      1.549  0.8619E+00  0.9006E+00  0.9866E+01  0.9851E+01
      1.699  0.1031E+01  0.9096E+00  0.1002E+02  0.9988E+01
      1.849  0.1775E+01  0.1730E+01  0.1029E+02  0.1025E+02
      1.999  0.2818E+01  0.2924E+01  0.1071E+02  0.1068E+02
      2.148  0.2829E+01  0.2886E+01  0.1113E+02  0.1112E+02
      2.298  0.1707E+01  0.1741E+01  0.1139E+02  0.1138E+02
      2.448  0.1262E+01  0.1265E+01  0.1158E+02  0.1157E+02
      2.598  0.9698E+00  0.9584E+00  0.1173E+02  0.1171E+02
      2.747  0.1188E+01  0.1158E+01  0.1190E+02  0.1189E+02
      2.897  0.1443E+01  0.1363E+01  0.1212E+02  0.1209E+02
      3.047  0.2060E+01  0.2022E+01  0.1243E+02  0.1239E+02
      3.196  0.2233E+01  0.2288E+01  0.1276E+02  0.1274E+02
      3.346  0.2524E+01  0.2569E+01  0.1314E+02  0.1312E+02
      3.496  0.2417E+01  0.2461E+01  0.1350E+02  0.1349E+02
      3.646  0.1591E+01  0.1607E+01  0.1374E+02  0.1373E+02
      3.795  0.1398E+01  0.1382E+01  0.1395E+02  0.1394E+02
      3.945  0.1396E+01  0.1371E+01  0.1416E+02  0.1415E+02
      4.095  0.1567E+01  0.1554E+01  0.1440E+02  0.1438E+02
      4.245  0.1675E+01  0.1654E+01  0.1465E+02  0.1463E+02
      4.394  0.1755E+01  0.1787E+01  0.1491E+02  0.1490E+02
      4.544  0.1331E+01  0.1380E+01  0.1511E+02  0.1510E+02
      4.694  0.1193E+01  0.1198E+01  0.1529E+02  0.1528E+02
      4.844  0.9327E+00  0.9424E+00  0.1543E+02  0.1542E+02
      4.993  0.7363E+00  0.7348E+00  0.1554E+02  0.1553E+02
      5.143  0.7319E+00  0.7398E+00  0.1565E+02  0.1565E+02
      5.293  0.6525E+00  0.6800E+00  0.1575E+02  0.1575E+02
      5.442  0.5810E+00  0.5949E+00  0.1584E+02  0.1584E+02
      5.592  0.5843E+00  0.5694E+00  0.1593E+02  0.1592E+02
      5.742  0.2622E+00  0.2707E+00  0.1596E+02  0.1596E+02
      5.892  0.1173E+00  0.1239E+00  0.1598E+02  0.1598E+02
      6.041  0.1001E+00  0.1019E+00  0.1600E+02  0.1600E+02
      6.191  0.1286E-01  0.1325E-01  0.1600E+02  0.1600E+02
      6.341  0.1849E-03  0.0000E+00  0.1600E+02  0.1600E+02
      6.491  0.0000E+00  0.0000E+00  0.1600E+02  0.1600E+02
      6.640  0.0000E+00  0.0000E+00  0.1600E+02  0.1600E+02
      6.790  0.0000E+00  0.0000E+00  0.1600E+02  0.1600E+02
      6.940  0.0000E+00  0.0000E+00  0.1600E+02  0.1600E+02
      7.090  0.0000E+00  0.0000E+00  0.1600E+02  0.1600E+02
      7.239  0.0000E+00  0.0000E+00  0.1600E+02  0.1600E+02
      7.389  0.0000E+00  0.0000E+00  0.1600E+02  0.1600E+02
      7.539  0.0000E+00  0.0000E+00  0.1600E+02  0.1600E+02
      7.688  0.0000E+00  0.0000E+00  0.1600E+02  0.1600E+02
      7.838  0.0000E+00  0.0000E+00  0.1600E+02  0.1600E+02
      7.988  0.0000E+00  0.0000E+00  0.1600E+02  0.1600E+02
      7.98790464    -36.93151639  301      1.69593447      1.00000000
    -36.932  0.0000E+00  0.0000E+00  0.0000E+00  0.0000E+00  0.0000E+00  0.0000E+00  0.0000E+00  0.0000E+00  0.0000E+00  0.0000E+00  0.0000E+00  0.0000E+00  0.0000E+00  0.0000E+00  0.0000E+00  0.0000E+00  0.0000E+00  0.0000E+00
    -36.782  0.0000E+00  0.0000E+00  0.0000E+00  0.0000E+00  0.0000E+00  0.0000E+00  0.0000E+00  0.0000E+00  0.0000E+00  0.0000E+00  0.0000E+00  0.0000E+00  0.0000E+00  0.0000E+00  0.0000E+00  0.0000E+00  0.0000E+00  0.0000E+00
    -36.632  0.0000E+00  0.0000E+00  0.0000E+00  0.0000E+00  0.0000E+00  0.0000E+00  0.0000E+00  0.0000E+00  0.0000E+00  0.0000E+00  0.0000E+00  0.0000E+00  0.0000E+00  0.0000E+00  0.0000E+00  0.0000E+00  0.0000E+00  0.0000E+00
    -36.482  0.0000E+00  0.0000E+00  0.0000E+00  0.0000E+00  0.0000E+00  0.0000E+00  0.0000E+00  0.0000E+00  0.0000E+00  0.0000E+00  0.0000E+00  0.0000E+00  0.0000E+00  0.0000E+00  0.0000E+00  0.0000E+00  0.0000E+00  0.0000E+00
    -36.333  0.0000E+00  0.0000E+00  0.0000E+00  0.0000E+00  0.0000E+00  0.0000E+00  0.0000E+00  0.0000E+00  0.0000E+00  0.0000E+00  0.0000E+00  0.0000E+00  0.0000E+00  0.0000E+00  0.0000E+00  0.0000E+00  0.0000E+00  0.0000E+00
    -36.183  0.0000E+00  0.0000E+00  0.0000E+00  0.0000E+00  0.0000E+00  0.0000E+00  0.0000E+00  0.0000E+00  0.0000E+00  0.0000E+00  0.0000E+00  0.0000E+00  0.0000E+00  0.0000E+00  0.0000E+00  0.0000E+00  0.0000E+00  0.0000E+00
    -36.033  0.0000E+00  0.0000E+00  0.0000E+00  0.0000E+00  0.0000E+00  0.0000E+00  0.0000E+00  0.0000E+00  0.0000E+00  0.0000E+00  0.0000E+00  0.0000E+00  0.0000E+00  0.0000E+00  0.0000E+00  0.0000E+00  0.0000E+00  0.0000E+00
    -35.883  0.0000E+00  0.0000E+00  0.0000E+00  0.0000E+00  0.0000E+00  0.0000E+00  0.0000E+00  0.0000E+00  0.0000E+00  0.0000E+00  0.0000E+00  0.0000E+00  0.0000E+00  0.0000E+00  0.0000E+00  0.0000E+00  0.0000E+00  0.0000E+00
    -35.734  0.0000E+00  0.0000E+00  0.0000E+00  0.0000E+00  0.0000E+00  0.0000E+00  0.0000E+00  0.0000E+00  0.0000E+00  0.0000E+00  0.0000E+00  0.0000E+00  0.0000E+00  0.0000E+00  0.0000E+00  0.0000E+00  0.0000E+00  0.0000E+00
    -35.584  0.0000E+00  0.0000E+00  0.0000E+00  0.0000E+00  0.0000E+00  0.0000E+00  0.0000E+00  0.0000E+00  0.0000E+00  0.0000E+00  0.0000E+00  0.0000E+00  0.0000E+00  0.0000E+00  0.0000E+00  0.0000E+00  0.0000E+00  0.0000E+00
    -35.434  0.4545E-05  0.1950E-05  0.5294E-12  0.1491E-12  0.5030E-12  0.1479E-12  0.5294E-12  0.1491E-12  0.1327E-13  0.2366E-14  0.5478E-14  0.9446E-15  0.9766E-13  0.6898E-13  0.5478E-14  0.9446E-15  0.1327E-13  0.2366E-14
    -35.284  0.1782E-02  0.1704E-02  0.1769E-09  0.1690E-09  0.1525E-09  0.1454E-09  0.1769E-09  0.1690E-09  0.4518E-10  0.4310E-10  0.2926E-10  0.2755E-10  0.7466E-10  0.9394E-10  0.2926E-10  0.2755E-10  0.4518E-10  0.4310E-10
    -35.135  0.3371E-01  0.3220E-01  0.3347E-08  0.3193E-08  0.2886E-08  0.2747E-08  0.3347E-08  0.3193E-08  0.8531E-09  0.8138E-09  0.5524E-09  0.5202E-09  0.1411E-08  0.1775E-08  0.5524E-09  0.5202E-09  0.8531E-09  0.8138E-09
    -34.985  0.6070E+00  0.5824E+00  0.5996E-07  0.5747E-07  0.5168E-07  0.4943E-07  0.5996E-07  0.5747E-07  0.1539E-07  0.1475E-07  0.9980E-08  0.9438E-08  0.2539E-07  0.3207E-07  0.9980E-08  0.9438E-08  0.1539E-07  0.1475E-07
    -34.835  0.3833E+01  0.3793E+01  0.3657E-06  0.3618E-06  0.3143E-06  0.3102E-06  0.3657E-06  0.3618E-06  0.9832E-07  0.9718E-07  0.6434E-07  0.6277E-07  0.1594E-06  0.2076E-06  0.6434E-07  0.6277E-07  0.9832E-07  0.9718E-07
    -34.686  0.1919E+01  0.1978E+01  0.1751E-06  0.1804E-06  0.1499E-06  0.1540E-06  0.1751E-06  0.1804E-06  0.4979E-07  0.5126E-07  0.3297E-07  0.3350E-07  0.7902E-07  0.1071E-06  0.3297E-07  0.3350E-07  0.4979E-07  0.5126E-07
    -34.536  0.1406E+00  0.1471E+00  0.1262E-07  0.1319E-07  0.1079E-07  0.1125E-07  0.1262E-07  0.1319E-07  0.3659E-08  0.3824E-08  0.2433E-08  0.2509E-08  0.5764E-08  0.7931E-08  0.2433E-08  0.2509E-08  0.3659E-08  0.3824E-08
    -34.386  0.0000E+00  0.0000E+00  0.0000E+00  0.0000E+00  0.0000E+00  0.0000E+00  0.0000E+00  0.0000E+00  0.0000E+00  0.0000E+00  0.0000E+00  0.0000E+00  0.0000E+00  0.0000E+00  0.0000E+00  0.0000E+00  0.0000E+00  0.0000E+00
    -34.236  0.0000E+00  0.0000E+00  0.0000E+00  0.0000E+00  0.0000E+00  0.0000E+00  0.0000E+00  0.0000E+00  0.0000E+00  0.0000E+00  0.0000E+00  0.0000E+00  0.0000E+00  0.0000E+00  0.0000E+00  0.0000E+00  0.0000E+00  0.0000E+00
    -34.087  0.0000E+00  0.0000E+00  0.0000E+00  0.0000E+00  0.0000E+00  0.0000E+00  0.0000E+00  0.0000E+00  0.0000E+00  0.0000E+00  0.0000E+00  0.0000E+00  0.0000E+00  0.0000E+00  0.0000E+00  0.0000E+00  0.0000E+00  0.0000E+00
    -33.937  0.0000E+00  0.0000E+00  0.0000E+00  0.0000E+00  0.0000E+00  0.0000E+00  0.0000E+00  0.0000E+00  0.0000E+00  0.0000E+00  0.0000E+00  0.0000E+00  0.0000E+00  0.0000E+00  0.0000E+00  0.0000E+00  0.0000E+00  0.0000E+00
    -33.787  0.0000E+00  0.0000E+00  0.0000E+00  0.0000E+00  0.0000E+00  0.0000E+00  0.0000E+00  0.0000E+00  0.0000E+00  0.0000E+00  0.0000E+00  0.0000E+00  0.0000E+00  0.0000E+00  0.0000E+00  0.0000E+00  0.0000E+00  0.0000E+00
    -33.637  0.0000E+00  0.0000E+00  0.0000E+00  0.0000E+00  0.0000E+00  0.0000E+00  0.0000E+00  0.0000E+00  0.0000E+00  0.0000E+00  0.0000E+00  0.0000E+00  0.0000E+00  0.0000E+00  0.0000E+00  0.0000E+00  0.0000E+00  0.0000E+00
    -33.488  0.0000E+00  0.0000E+00  0.0000E+00  0.0000E+00  0.0000E+00  0.0000E+00  0.0000E+00  0.0000E+00  0.0000E+00  0.0000E+00  0.0000E+00  0.0000E+00  0.0000E+00  0.0000E+00  0.0000E+00  0.0000E+00  0.0000E+00  0.0000E+00
    -33.338  0.0000E+00  0.0000E+00  0.0000E+00  0.0000E+00  0.0000E+00  0.0000E+00  0.0000E+00  0.0000E+00  0.0000E+00  0.0000E+00  0.0000E+00  0.0000E+00  0.0000E+00  0.0000E+00  0.0000E+00  0.0000E+00  0.0000E+00  0.0000E+00
    -33.188  0.0000E+00  0.0000E+00  0.0000E+00  0.0000E+00  0.0000E+00  0.0000E+00  0.0000E+00  0.0000E+00  0.0000E+00  0.0000E+00  0.0000E+00  0.0000E+00  0.0000E+00  0.0000E+00  0.0000E+00  0.0000E+00  0.0000E+00  0.0000E+00
    -33.038  0.0000E+00  0.0000E+00  0.0000E+00  0.0000E+00  0.0000E+00  0.0000E+00  0.0000E+00  0.0000E+00  0.0000E+00  0.0000E+00  0.0000E+00  0.0000E+00  0.0000E+00  0.0000E+00  0.0000E+00  0.0000E+00  0.0000E+00  0.0000E+00
    -32.889  0.0000E+00  0.0000E+00  0.0000E+00  0.0000E+00  0.0000E+00  0.0000E+00  0.0000E+00  0.0000E+00  0.0000E+00  0.0000E+00  0.0000E+00  0.0000E+00  0.0000E+00  0.0000E+00  0.0000E+00  0.0000E+00  0.0000E+00  0.0000E+00
    -32.739  0.0000E+00  0.0000E+00  0.0000E+00  0.0000E+00  0.0000E+00  0.0000E+00  0.0000E+00  0.0000E+00  0.0000E+00  0.0000E+00  0.0000E+00  0.0000E+00  0.0000E+00  0.0000E+00  0.0000E+00  0.0000E+00  0.0000E+00  0.0000E+00
    -32.589  0.0000E+00  0.0000E+00  0.0000E+00  0.0000E+00  0.0000E+00  0.0000E+00  0.0000E+00  0.0000E+00  0.0000E+00  0.0000E+00  0.0000E+00  0.0000E+00  0.0000E+00  0.0000E+00  0.0000E+00  0.0000E+00  0.0000E+00  0.0000E+00
    -32.440  0.0000E+00  0.0000E+00  0.0000E+00  0.0000E+00  0.0000E+00  0.0000E+00  0.0000E+00  0.0000E+00  0.0000E+00  0.0000E+00  0.0000E+00  0.0000E+00  0.0000E+00  0.0000E+00  0.0000E+00  0.0000E+00  0.0000E+00  0.0000E+00
    -32.290  0.0000E+00  0.0000E+00  0.0000E+00  0.0000E+00  0.0000E+00  0.0000E+00  0.0000E+00  0.0000E+00  0.0000E+00  0.0000E+00  0.0000E+00  0.0000E+00  0.0000E+00  0.0000E+00  0.0000E+00  0.0000E+00  0.0000E+00  0.0000E+00
    -32.140  0.0000E+00  0.0000E+00  0.0000E+00  0.0000E+00  0.0000E+00  0.0000E+00  0.0000E+00  0.0000E+00  0.0000E+00  0.0000E+00  0.0000E+00  0.0000E+00  0.0000E+00  0.0000E+00  0.0000E+00  0.0000E+00  0.0000E+00  0.0000E+00
    -31.990  0.0000E+00  0.0000E+00  0.0000E+00  0.0000E+00  0.0000E+00  0.0000E+00  0.0000E+00  0.0000E+00  0.0000E+00  0.0000E+00  0.0000E+00  0.0000E+00  0.0000E+00  0.0000E+00  0.0000E+00  0.0000E+00  0.0000E+00  0.0000E+00
    -31.841  0.0000E+00  0.0000E+00  0.0000E+00  0.0000E+00  0.0000E+00  0.0000E+00  0.0000E+00  0.0000E+00  0.0000E+00  0.0000E+00  0.0000E+00  0.0000E+00  0.0000E+00  0.0000E+00  0.0000E+00  0.0000E+00  0.0000E+00  0.0000E+00
    -31.691  0.0000E+00  0.0000E+00  0.0000E+00  0.0000E+00  0.0000E+00  0.0000E+00  0.0000E+00  0.0000E+00  0.0000E+00  0.0000E+00  0.0000E+00  0.0000E+00  0.0000E+00  0.0000E+00  0.0000E+00  0.0000E+00  0.0000E+00  0.0000E+00
    -31.541  0.0000E+00  0.0000E+00  0.0000E+00  0.0000E+00  0.0000E+00  0.0000E+00  0.0000E+00  0.0000E+00  0.0000E+00  0.0000E+00  0.0000E+00  0.0000E+00  0.0000E+00  0.0000E+00  0.0000E+00  0.0000E+00  0.0000E+00  0.0000E+00
    -31.391  0.0000E+00  0.0000E+00  0.0000E+00  0.0000E+00  0.0000E+00  0.0000E+00  0.0000E+00  0.0000E+00  0.0000E+00  0.0000E+00  0.0000E+00  0.0000E+00  0.0000E+00  0.0000E+00  0.0000E+00  0.0000E+00  0.0000E+00  0.0000E+00
    -31.242  0.0000E+00  0.0000E+00  0.0000E+00  0.0000E+00  0.0000E+00  0.0000E+00  0.0000E+00  0.0000E+00  0.0000E+00  0.0000E+00  0.0000E+00  0.0000E+00  0.0000E+00  0.0000E+00  0.0000E+00  0.0000E+00  0.0000E+00  0.0000E+00
    -31.092  0.0000E+00  0.0000E+00  0.0000E+00  0.0000E+00  0.0000E+00  0.0000E+00  0.0000E+00  0.0000E+00  0.0000E+00  0.0000E+00  0.0000E+00  0.0000E+00  0.0000E+00  0.0000E+00  0.0000E+00  0.0000E+00  0.0000E+00  0.0000E+00
    -30.942  0.0000E+00  0.0000E+00  0.0000E+00  0.0000E+00  0.0000E+00  0.0000E+00  0.0000E+00  0.0000E+00  0.0000E+00  0.0000E+00  0.0000E+00  0.0000E+00  0.0000E+00  0.0000E+00  0.0000E+00  0.0000E+00  0.0000E+00  0.0000E+00
    -30.793  0.0000E+00  0.0000E+00  0.0000E+00  0.0000E+00  0.0000E+00  0.0000E+00  0.0000E+00  0.0000E+00  0.0000E+00  0.0000E+00  0.0000E+00  0.0000E+00  0.0000E+00  0.0000E+00  0.0000E+00  0.0000E+00  0.0000E+00  0.0000E+00
    -30.643  0.0000E+00  0.0000E+00  0.0000E+00  0.0000E+00  0.0000E+00  0.0000E+00  0.0000E+00  0.0000E+00  0.0000E+00  0.0000E+00  0.0000E+00  0.0000E+00  0.0000E+00  0.0000E+00  0.0000E+00  0.0000E+00  0.0000E+00  0.0000E+00
    -30.493  0.0000E+00  0.0000E+00  0.0000E+00  0.0000E+00  0.0000E+00  0.0000E+00  0.0000E+00  0.0000E+00  0.0000E+00  0.0000E+00  0.0000E+00  0.0000E+00  0.0000E+00  0.0000E+00  0.0000E+00  0.0000E+00  0.0000E+00  0.0000E+00
    -30.343  0.0000E+00  0.0000E+00  0.0000E+00  0.0000E+00  0.0000E+00  0.0000E+00  0.0000E+00  0.0000E+00  0.0000E+00  0.0000E+00  0.0000E+00  0.0000E+00  0.0000E+00  0.0000E+00  0.0000E+00  0.0000E+00  0.0000E+00  0.0000E+00
    -30.194  0.0000E+00  0.0000E+00  0.0000E+00  0.0000E+00  0.0000E+00  0.0000E+00  0.0000E+00  0.0000E+00  0.0000E+00  0.0000E+00  0.0000E+00  0.0000E+00  0.0000E+00  0.0000E+00  0.0000E+00  0.0000E+00  0.0000E+00  0.0000E+00
    -30.044  0.0000E+00  0.0000E+00  0.0000E+00  0.0000E+00  0.0000E+00  0.0000E+00  0.0000E+00  0.0000E+00  0.0000E+00  0.0000E+00  0.0000E+00  0.0000E+00  0.0000E+00  0.0000E+00  0.0000E+00  0.0000E+00  0.0000E+00  0.0000E+00
    -29.894  0.0000E+00  0.0000E+00  0.0000E+00  0.0000E+00  0.0000E+00  0.0000E+00  0.0000E+00  0.0000E+00  0.0000E+00  0.0000E+00  0.0000E+00  0.0000E+00  0.0000E+00  0.0000E+00  0.0000E+00  0.0000E+00  0.0000E+00  0.0000E+00
    -29.744  0.0000E+00  0.0000E+00  0.0000E+00  0.0000E+00  0.0000E+00  0.0000E+00  0.0000E+00  0.0000E+00  0.0000E+00  0.0000E+00  0.0000E+00  0.0000E+00  0.0000E+00  0.0000E+00  0.0000E+00  0.0000E+00  0.0000E+00  0.0000E+00
    -29.595  0.0000E+00  0.0000E+00  0.0000E+00  0.0000E+00  0.0000E+00  0.0000E+00  0.0000E+00  0.0000E+00  0.0000E+00  0.0000E+00  0.0000E+00  0.0000E+00  0.0000E+00  0.0000E+00  0.0000E+00  0.0000E+00  0.0000E+00  0.0000E+00
    -29.445  0.0000E+00  0.0000E+00  0.0000E+00  0.0000E+00  0.0000E+00  0.0000E+00  0.0000E+00  0.0000E+00  0.0000E+00  0.0000E+00  0.0000E+00  0.0000E+00  0.0000E+00  0.0000E+00  0.0000E+00  0.0000E+00  0.0000E+00  0.0000E+00