   2   2   1   0
  0.4161148E+02  0.3874864E-09  0.3874864E-09  0.6400288E-09  0.5000000E-15
  1.000000000000000E-004
  CAR 
 unknown system                          
     10.06789430    -35.54183077  301      2.59804633      1.00000000
    -35.542  0.0000E+00  0.0000E+00  0.0000E+00  0.0000E+00
    -35.390  0.0000E+00  0.0000E+00  0.0000E+00  0.0000E+00
    -35.238  0.0000E+00  0.0000E+00  0.0000E+00  0.0000E+00
    -35.086  0.0000E+00  0.0000E+00  0.0000E+00  0.0000E+00
    -34.934  0.0000E+00  0.0000E+00  0.0000E+00  0.0000E+00
    -34.782  0.0000E+00  0.0000E+00  0.0000E+00  0.0000E+00
    -34.630  0.0000E+00  0.0000E+00  0.0000E+00  0.0000E+00
    -34.478  0.0000E+00  0.0000E+00  0.0000E+00  0.0000E+00
    -34.326  0.0000E+00  0.0000E+00  0.0000E+00  0.0000E+00
    -34.174  0.0000E+00  0.0000E+00  0.0000E+00  0.0000E+00
    -34.022  0.0000E+00  0.0000E+00  0.0000E+00  0.0000E+00
    -33.869  0.1673E-02  0.1560E-02  0.2544E-03  0.2372E-03
    -33.717  0.3323E-01  0.3099E-01  0.5306E-02  0.4949E-02
    -33.565  0.6547E+00  0.6130E+00  0.1048E+00  0.9815E-01
    -33.413  0.6221E+01  0.6040E+01  0.1051E+01  0.1016E+01
    -33.261  0.5684E+01  0.5870E+01  0.1915E+01  0.1909E+01
    -33.109  0.5329E+00  0.5695E+00  0.1996E+01  0.1995E+01
    -32.957  0.0000E+00  0.0000E+00  0.2000E+01  0.2000E+01
    -32.805  0.0000E+00  0.0000E+00  0.2000E+01  0.2000E+01
    -32.653  0.0000E+00  0.0000E+00  0.2000E+01  0.2000E+01
    -32.501  0.0000E+00  0.0000E+00  0.2000E+01  0.2000E+01
    -32.349  0.0000E+00  0.0000E+00  0.2000E+01  0.2000E+01
    -32.197  0.0000E+00  0.0000E+00  0.2000E+01  0.2000E+01
    -32.045  0.0000E+00  0.0000E+00  0.2000E+01  0.2000E+01
    -31.893  0.0000E+00  0.0000E+00  0.2000E+01  0.2000E+01
    -31.741  0.0000E+00  0.0000E+00  0.2000E+01  0.2000E+01
    -31.589  0.0000E+00  0.0000E+00  0.2000E+01  0.2000E+01
    -31.437  0.0000E+00  0.0000E+00  0.2000E+01  0.2000E+01
    -31.285  0.0000E+00  0.0000E+00  0.2000E+01  0.2000E+01
    -31.133  0.0000E+00  0.0000E+00  0.2000E+01  0.2000E+01
    -30.981  0.0000E+00  0.0000E+00  0.2000E+01  0.2000E+01
    -30.829  0.0000E+00  0.0000E+00  0.2000E+01  0.2000E+01
    -30.677  0.0000E+00  0.0000E+00  0.2000E+01  0.2000E+01
    -30.525  0.0000E+00  0.0000E+00  0.2000E+01  0.2000E+01
    -30.373  0.0000E+00  0.0000E+00  0.2000E+01  0.2000E+01
    -30.221  0.0000E+00  0.0000E+00  0.2000E+01  0.2000E+01
    -30.069  0.0000E+00  0.0000E+00  0.2000E+01  0.2000E+01
    -29.917  0.0000E+00  0.0000E+00  0.2000E+01  0.2000E+01
    -29.765  0.0000E+00  0.0000E+00  0.2000E+01  0.2000E+01
    -29.613  0.0000E+00  0.0000E+00  0.2000E+01  0.2000E+01
    -29.461  0.0000E+00  0.0000E+00  0.2000E+01  0.2000E+01
    -29.309  0.0000E+00  0.0000E+00  0.2000E+01  0.2000E+01
    -29.156  0.0000E+00  0.0000E+00  0.2000E+01  0.2000E+01
    -29.004  0.0000E+00  0.0000E+00  0.2000E+01  0.2000E+01
    -28.852  0.0000E+00  0.0000E+00  0.2000E+01  0.2000E+01
    -28.700  0.0000E+00  0.0000E+00  0.2000E+01  0.2000E+01
    -28.548  0.0000E+00  0.0000E+00  0.2000E+01  0.2000E+01
    -28.396  0.0000E+00  0.0000E+00  0.2000E+01  0.2000E+01
    -28.244  0.0000E+00  0.0000E+00  0.2000E+01  0.2000E+01
    -28.092  0.0000E+00  0.0000E+00  0.2000E+01  0.2000E+01
    -27.940  0.0000E+00  0.0000E+00  0.2000E+01  0.2000E+01
    -27.788  0.0000E+00  0.0000E+00  0.2000E+01  0.2000E+01
    -27.636  0.0000E+00  0.0000E+00  0.2000E+01  0.2000E+01
    -27.484  0.0000E+00  0.0000E+00  0.2000E+01  0.2000E+01
    -27.332  0.0000E+00  0.0000E+00  0.2000E+01  0.2000E+01
    -27.180  0.0000E+00  0.0000E+00  0.2000E+01  0.2000E+01
    -27.028  0.0000E+00  0.0000E+00  0.2000E+01  0.2000E+01
    -26.876  0.0000E+00  0.0000E+00  0.2000E+01  0.2000E+01
    -26.724  0.0000E+00  0.0000E+00  0.2000E+01  0.2000E+01
    -26.572  0.0000E+00  0.0000E+00  0.2000E+01  0.2000E+01
    -26.420  0.0000E+00  0.0000E+00  0.2000E+01  0.2000E+01
    -26.268  0.0000E+00  0.0000E+00  0.2000E+01  0.2000E+01
    -26.116  0.0000E+00  0.0000E+00  0.2000E+01  0.2000E+01
    -25.964  0.0000E+00  0.0000E+00  0.2000E+01  0.2000E+01
    -25.812  0.0000E+00  0.0000E+00  0.2000E+01  0.2000E+01
    -25.660  0.0000E+00  0.0000E+00  0.2000E+01  0.2000E+01
    -25.508  0.0000E+00  0.0000E+00  0.2000E+01  0.2000E+01
    -25.356  0.0000E+00  0.0000E+00  0.2000E+01  0.2000E+01
    -25.204  0.0000E+00  0.0000E+00  0.2000E+01  0.2000E+01
    -25.052  0.0000E+00  0.0000E+00  0.2000E+01  0.2000E+01
    -24.900  0.0000E+00  0.0000E+00  0.2000E+01  0.2000E+01
    -24.748  0.0000E+00  0.0000E+00  0.2000E+01  0.2000E+01
    -24.595  0.0000E+00  0.0000E+00  0.2000E+01  0.2000E+01
    -24.443  0.0000E+00  0.0000E+00  0.2000E+01  0.2000E+01
    -24.291  0.0000E+00  0.0000E+00  0.2000E+01  0.2000E+01
    -24.139  0.0000E+00  0.0000E+00  0.2000E+01  0.2000E+01
    -23.987  0.0000E+00  0.0000E+00  0.2000E+01  0.2000E+01
    -23.835  0.0000E+00  0.0000E+00  0.2000E+01  0.2000E+01
    -23.683  0.0000E+00  0.0000E+00  0.2000E+01  0.2000E+01
    -23.531  0.0000E+00  0.0000E+00  0.2000E+01  0.2000E+01
    -23.379  0.0000E+00  0.0000E+00  0.2000E+01  0.2000E+01
    -23.227  0.0000E+00  0.0000E+00  0.2000E+01  0.2000E+01
    -23.075  0.0000E+00  0.0000E+00  0.2000E+01  0.2000E+01
    -22.923  0.0000E+00  0.0000E+00  0.2000E+01  0.2000E+01
    -22.771  0.0000E+00  0.0000E+00  0.2000E+01  0.2000E+01
    -22.619  0.0000E+00  0.0000E+00  0.2000E+01  0.2000E+01
    -22.467  0.0000E+00  0.0000E+00  0.2000E+01  0.2000E+01
    -22.315  0.0000E+00  0.0000E+00  0.2000E+01  0.2000E+01
    -22.163  0.0000E+00  0.0000E+00  0.2000E+01  0.2000E+01
    -22.011  0.0000E+00  0.0000E+00  0.2000E+01  0.2000E+01
    -21.859  0.0000E+00  0.0000E+00  0.2000E+01  0.2000E+01
    -21.707  0.0000E+00  0.0000E+00  0.2000E+01  0.2000E+01
    -21.555  0.0000E+00  0.0000E+00  0.2000E+01  0.2000E+01
    -21.403  0.0000E+00  0.0000E+00  0.2000E+01  0.2000E+01
    -21.251  0.0000E+00  0.0000E+00  0.2000E+01  0.2000E+01
    -21.099  0.0000E+00  0.0000E+00  0.2000E+01  0.2000E+01
    -20.947  0.0000E+00  0.0000E+00  0.2000E+01  0.2000E+01
    -20.795  0.0000E+00  0.0000E+00  0.2000E+01  0.2000E+01
    -20.643  0.0000E+00  0.0000E+00  0.2000E+01  0.2000E+01
    -20.491  0.0000E+00  0.0000E+00  0.2000E+01  0.2000E+01
    -20.339  0.0000E+00  0.0000E+00  0.2000E+01  0.2000E+01
    -20.187  0.0000E+00  0.0000E+00  0.2000E+01  0.2000E+01
    -20.035  0.0000E+00  0.0000E+00  0.2000E+01  0.2000E+01
    -19.882  0.0000E+00  0.0000E+00  0.2000E+01  0.2000E+01
    -19.730  0.0000E+00  0.0000E+00  0.2000E+01  0.2000E+01
    -19.578  0.0000E+00  0.0000E+00  0.2000E+01  0.2000E+01
    -19.426  0.0000E+00  0.0000E+00  0.2000E+01  0.2000E+01
    -19.274  0.0000E+00  0.0000E+00  0.2000E+01  0.2000E+01
    -19.122  0.0000E+00  0.0000E+00  0.2000E+01  0.2000E+01
    -18.970  0.0000E+00  0.0000E+00  0.2000E+01  0.2000E+01
    -18.818  0.0000E+00  0.0000E+00  0.2000E+01  0.2000E+01
    -18.666  0.0000E+00  0.0000E+00  0.2000E+01  0.2000E+01
    -18.514  0.0000E+00  0.0000E+00  0.2000E+01  0.2000E+01
    -18.362  0.0000E+00  0.0000E+00  0.2000E+01  0.2000E+01
    -18.210  0.0000E+00  0.0000E+00  0.2000E+01  0.2000E+01
    -18.058  0.0000E+00  0.0000E+00  0.2000E+01  0.2000E+01
    -17.906  0.0000E+00  0.0000E+00  0.2000E+01  0.2000E+01
    -17.754  0.0000E+00  0.0000E+00  0.2000E+01  0.2000E+01
    -17.602  0.0000E+00  0.0000E+00  0.2000E+01  0.2000E+01
    -17.450  0.0000E+00  0.0000E+00  0.2000E+01  0.2000E+01
    -17.298  0.0000E+00  0.0000E+00  0.2000E+01  0.2000E+01
    -17.146  0.0000E+00  0.0000E+00  0.2000E+01  0.2000E+01
    -16.994  0.0000E+00  0.0000E+00  0.2000E+01  0.2000E+01
    -16.842  0.0000E+00  0.0000E+00  0.2000E+01  0.2000E+01
    -16.690  0.0000E+00  0.0000E+00  0.2000E+01  0.2000E+01
    -16.538  0.0000E+00  0.0000E+00  0.2000E+01  0.2000E+01
    -16.386  0.0000E+00  0.0000E+00  0.2000E+01  0.2000E+01
    -16.234  0.1042E-03  0.8745E-04  0.2000E+01  0.2000E+01
    -16.082  0.3337E-02  0.3080E-02  0.2001E+01  0.2000E+01
    -15.930  0.6896E-01  0.6353E-01  0.2011E+01  0.2010E+01
    -15.778  0.1191E+01  0.1111E+01  0.2192E+01  0.2179E+01
    -15.626  0.6699E+01  0.6527E+01  0.3211E+01  0.3171E+01
    -15.474  0.9964E+01  0.9873E+01  0.4725E+01  0.4672E+01
    -15.322  0.1415E+02  0.1412E+02  0.6878E+01  0.6820E+01
    -15.169  0.6718E+01  0.7043E+01  0.7902E+01  0.7893E+01
    -15.017  0.5844E+00  0.6389E+00  0.7995E+01  0.7995E+01
    -14.865  0.9404E-03  0.1881E-02  0.8000E+01  0.8000E+01
    -14.713  0.0000E+00  0.0000E+00  0.8000E+01  0.8000E+01
    -14.561  0.0000E+00  0.0000E+00  0.8000E+01  0.8000E+01
    -14.409  0.0000E+00  0.0000E+00  0.8000E+01  0.8000E+01
    -14.257  0.0000E+00  0.0000E+00  0.8000E+01  0.8000E+01
    -14.105  0.0000E+00  0.0000E+00  0.8000E+01  0.8000E+01
    -13.953  0.0000E+00  0.0000E+00  0.8000E+01  0.8000E+01
    -13.801  0.0000E+00  0.0000E+00  0.8000E+01  0.8000E+01
    -13.649  0.0000E+00  0.0000E+00  0.8000E+01  0.8000E+01
    -13.497  0.0000E+00  0.0000E+00  0.8000E+01  0.8000E+01
    -13.345  0.0000E+00  0.0000E+00  0.8000E+01  0.8000E+01
    -13.193  0.0000E+00  0.0000E+00  0.8000E+01  0.8000E+01
    -13.041  0.0000E+00  0.0000E+00  0.8000E+01  0.8000E+01
    -12.889  0.0000E+00  0.0000E+00  0.8000E+01  0.8000E+01
    -12.737  0.0000E+00  0.0000E+00  0.8000E+01  0.8000E+01
    -12.585  0.0000E+00  0.0000E+00  0.8000E+01  0.8000E+01
    -12.433  0.0000E+00  0.0000E+00  0.8000E+01  0.8000E+01
    -12.281  0.0000E+00  0.0000E+00  0.8000E+01  0.8000E+01
    -12.129  0.0000E+00  0.0000E+00  0.8000E+01  0.8000E+01
    -11.977  0.0000E+00  0.0000E+00  0.8000E+01  0.8000E+01
    -11.825  0.0000E+00  0.0000E+00  0.8000E+01  0.8000E+01
    -11.673  0.0000E+00  0.0000E+00  0.8000E+01  0.8000E+01
    -11.521  0.0000E+00  0.0000E+00  0.8000E+01  0.8000E+01
    -11.369  0.0000E+00  0.0000E+00  0.8000E+01  0.8000E+01
    -11.217  0.0000E+00  0.0000E+00  0.8000E+01  0.8000E+01
    -11.065  0.0000E+00  0.0000E+00  0.8000E+01  0.8000E+01
    -10.913  0.0000E+00  0.0000E+00  0.8000E+01  0.8000E+01
    -10.761  0.0000E+00  0.0000E+00  0.8000E+01  0.8000E+01
    -10.609  0.0000E+00  0.0000E+00  0.8000E+01  0.8000E+01
    -10.456  0.0000E+00  0.0000E+00  0.8000E+01  0.8000E+01
    -10.304  0.0000E+00  0.0000E+00  0.8000E+01  0.8000E+01
    -10.152  0.0000E+00  0.0000E+00  0.8000E+01  0.8000E+01
    -10.000  0.0000E+00  0.0000E+00  0.8000E+01  0.8000E+01
     -9.848  0.0000E+00  0.0000E+00  0.8000E+01  0.8000E+01
     -9.696  0.0000E+00  0.0000E+00  0.8000E+01  0.8000E+01
     -9.544  0.0000E+00  0.0000E+00  0.8000E+01  0.8000E+01
     -9.392  0.0000E+00  0.0000E+00  0.8000E+01  0.8000E+01
     -9.240  0.0000E+00  0.0000E+00  0.8000E+01  0.8000E+01
     -9.088  0.0000E+00  0.0000E+00  0.8000E+01  0.8000E+01
     -8.936  0.0000E+00  0.0000E+00  0.8000E+01  0.8000E+01
     -8.784  0.0000E+00  0.0000E+00  0.8000E+01  0.8000E+01
     -8.632  0.0000E+00  0.0000E+00  0.8000E+01  0.8000E+01
     -8.480  0.0000E+00  0.0000E+00  0.8000E+01  0.8000E+01
     -8.328  0.0000E+00  0.0000E+00  0.8000E+01  0.8000E+01
     -8.176  0.0000E+00  0.0000E+00  0.8000E+01  0.8000E+01
     -8.024  0.0000E+00  0.0000E+00  0.8000E+01  0.8000E+01
     -7.872  0.0000E+00  0.0000E+00  0.8000E+01  0.8000E+01
     -7.720  0.0000E+00  0.0000E+00  0.8000E+01  0.8000E+01
     -7.568  0.0000E+00  0.0000E+00  0.8000E+01  0.8000E+01
     -7.416  0.0000E+00  0.0000E+00  0.8000E+01  0.8000E+01
     -7.264  0.0000E+00  0.0000E+00  0.8000E+01  0.8000E+01
     -7.112  0.0000E+00  0.0000E+00  0.8000E+01  0.8000E+01
     -6.960  0.0000E+00  0.0000E+00  0.8000E+01  0.8000E+01
     -6.808  0.0000E+00  0.0000E+00  0.8000E+01  0.8000E+01
     -6.656  0.0000E+00  0.0000E+00  0.8000E+01  0.8000E+01
     -6.504  0.0000E+00  0.0000E+00  0.8000E+01  0.8000E+01
     -6.352  0.0000E+00  0.0000E+00  0.8000E+01  0.8000E+01
     -6.200  0.0000E+00  0.0000E+00  0.8000E+01  0.8000E+01
     -6.048  0.0000E+00  0.0000E+00  0.8000E+01  0.8000E+01
     -5.896  0.0000E+00  0.0000E+00  0.8000E+01  0.8000E+01
     -5.743  0.0000E+00  0.0000E+00  0.8000E+01  0.8000E+01
     -5.591  0.0000E+00  0.0000E+00  0.8000E+01  0.8000E+01
     -5.439  0.0000E+00  0.0000E+00  0.8000E+01  0.8000E+01
     -5.287  0.0000E+00  0.0000E+00  0.8000E+01  0.8000E+01
     -5.135  0.0000E+00  0.0000E+00  0.8000E+01  0.8000E+01
     -4.983  0.0000E+00  0.0000E+00  0.8000E+01  0.8000E+01
     -4.831  0.0000E+00  0.0000E+00  0.8000E+01  0.8000E+01
     -4.679  0.0000E+00  0.0000E+00  0.8000E+01  0.8000E+01
     -4.527  0.0000E+00  0.0000E+00  0.8000E+01  0.8000E+01
     -4.375  0.0000E+00  0.0000E+00  0.8000E+01  0.8000E+01
     -4.223  0.0000E+00  0.0000E+00  0.8000E+01  0.8000E+01
     -4.071  0.0000E+00  0.0000E+00  0.8000E+01  0.8000E+01
     -3.919  0.0000E+00  0.0000E+00  0.8000E+01  0.8000E+01
     -3.767  0.0000E+00  0.0000E+00  0.8000E+01  0.8000E+01
     -3.615  0.0000E+00  0.0000E+00  0.8000E+01  0.8000E+01
     -3.463  0.0000E+00  0.0000E+00  0.8000E+01  0.8000E+01
     -3.311  0.0000E+00  0.0000E+00  0.8000E+01  0.8000E+01
     -3.159  0.0000E+00  0.0000E+00  0.8000E+01  0.8000E+01
     -3.007  0.0000E+00  0.0000E+00  0.8000E+01  0.8000E+01
     -2.855  0.0000E+00  0.0000E+00  0.8000E+01  0.8000E+01
     -2.703  0.0000E+00  0.0000E+00  0.8000E+01  0.8000E+01
     -2.551  0.0000E+00  0.0000E+00  0.8000E+01  0.8000E+01
     -2.399  0.0000E+00  0.0000E+00  0.8000E+01  0.8000E+01
     -2.247  0.0000E+00  0.0000E+00  0.8000E+01  0.8000E+01
     -2.095  0.0000E+00  0.0000E+00  0.8000E+01  0.8000E+01
     -1.943  0.7589E-07  0.0000E+00  0.8000E+01  0.8000E+01
     -1.791  0.3333E-05  0.1996E-05  0.8000E+01  0.8000E+01
     -1.639  0.7911E-04  0.4639E-04  0.8000E+01  0.8000E+01
     -1.487  0.1544E-02  0.9306E-03  0.8000E+01  0.8000E+01
     -1.335  0.1733E-01  0.1217E-01  0.8003E+01  0.8002E+01
     -1.183  0.5897E-01  0.5283E-01  0.8012E+01  0.8010E+01
     -1.030  0.8620E-01  0.7779E-01  0.8025E+01  0.8022E+01
     -0.878  0.1246E+00  0.1241E+00  0.8044E+01  0.8041E+01
     -0.726  0.1274E+00  0.1237E+00  0.8063E+01  0.8060E+01
     -0.574  0.1653E+00  0.1582E+00  0.8089E+01  0.8084E+01
     -0.422  0.2001E+00  0.1919E+00  0.8119E+01  0.8113E+01
     -0.270  0.1926E+00  0.2069E+00  0.8148E+01  0.8144E+01
     -0.118  0.2065E+00  0.1833E+00  0.8180E+01  0.8172E+01
      0.034  0.3006E+00  0.2985E+00  0.8226E+01  0.8218E+01
      0.186  0.2723E+00  0.2762E+00  0.8267E+01  0.8260E+01
      0.338  0.2906E+00  0.2834E+00  0.8311E+01  0.8303E+01
      0.490  0.3144E+00  0.3159E+00  0.8359E+01  0.8351E+01
      0.642  0.4159E+00  0.3817E+00  0.8423E+01  0.8409E+01
      0.794  0.4576E+00  0.4758E+00  0.8492E+01  0.8482E+01
      0.946  0.4041E+00  0.4117E+00  0.8554E+01  0.8544E+01
      1.098  0.4577E+00  0.4182E+00  0.8624E+01  0.8608E+01
      1.250  0.7360E+00  0.7218E+00  0.8736E+01  0.8718E+01
      1.402  0.7560E+00  0.7501E+00  0.8851E+01  0.8832E+01
      1.554  0.8500E+00  0.8319E+00  0.8980E+01  0.8959E+01
      1.706  0.8952E+00  0.8830E+00  0.9116E+01  0.9093E+01
      1.858  0.1045E+01  0.1007E+01  0.9276E+01  0.9247E+01
      2.010  0.8779E+00  0.8977E+00  0.9409E+01  0.9384E+01
      2.162  0.9490E+00  0.9096E+00  0.9554E+01  0.9522E+01
      2.314  0.9784E+00  0.9662E+00  0.9703E+01  0.9669E+01
      2.466  0.1080E+01  0.1016E+01  0.9868E+01  0.9824E+01
      2.618  0.1179E+01  0.1155E+01  0.1005E+02  0.1000E+02
      2.770  0.1135E+01  0.1237E+01  0.1022E+02  0.1019E+02
      2.922  0.1478E+01  0.1557E+01  0.1045E+02  0.1043E+02
      3.074  0.2136E+01  0.2168E+01  0.1077E+02  0.1076E+02
      3.226  0.2389E+01  0.2430E+01  0.1113E+02  0.1113E+02
      3.378  0.2101E+01  0.2124E+01  0.1145E+02  0.1145E+02
      3.531  0.1206E+01  0.1188E+01  0.1164E+02  0.1163E+02
      3.683  0.9234E+00  0.9052E+00  0.1178E+02  0.1177E+02
      3.835  0.8275E+00  0.8050E+00  0.1191E+02  0.1189E+02
      3.987  0.9771E+00  0.9249E+00  0.1205E+02  0.1203E+02
      4.139  0.1603E+01  0.1474E+01  0.1230E+02  0.1226E+02
      4.291  0.2234E+01  0.2201E+01  0.1264E+02  0.1259E+02
      4.443  0.2090E+01  0.2163E+01  0.1296E+02  0.1292E+02
      4.595  0.1995E+01  0.2056E+01  0.1326E+02  0.1323E+02
      4.747  0.1807E+01  0.1844E+01  0.1354E+02  0.1352E+02
      4.899  0.1409E+01  0.1432E+01  0.1375E+02  0.1373E+02
      5.051  0.1192E+01  0.1181E+01  0.1393E+02  0.1391E+02
      5.203  0.1343E+01  0.1304E+01  0.1414E+02  0.1411E+02
      5.355  0.1456E+01  0.1454E+01  0.1436E+02  0.1433E+02
      5.507  0.1336E+01  0.1321E+01  0.1456E+02  0.1454E+02
      5.659  0.1455E+01  0.1447E+01  0.1478E+02  0.1476E+02
      5.811  0.1264E+01  0.1323E+01  0.1498E+02  0.1496E+02
      5.963  0.9767E+00  0.9842E+00  0.1513E+02  0.1511E+02
      6.115  0.9177E+00  0.9401E+00  0.1527E+02  0.1525E+02
      6.267  0.7232E+00  0.7497E+00  0.1538E+02  0.1537E+02
      6.419  0.6321E+00  0.6391E+00  0.1547E+02  0.1546E+02
      6.571  0.5753E+00  0.5778E+00  0.1556E+02  0.1555E+02
      6.723  0.4845E+00  0.5175E+00  0.1563E+02  0.1563E+02
      6.875  0.5044E+00  0.4981E+00  0.1571E+02  0.1571E+02
      7.027  0.4021E+00  0.4123E+00  0.1577E+02  0.1577E+02
      7.179  0.2865E+00  0.2795E+00  0.1582E+02  0.1581E+02
      7.331  0.3830E+00  0.4007E+00  0.1587E+02  0.1587E+02
      7.483  0.3104E+00  0.2969E+00  0.1592E+02  0.1592E+02
      7.635  0.2767E+00  0.2873E+00  0.1596E+02  0.1596E+02
      7.787  0.7940E-01  0.9832E-01  0.1598E+02  0.1598E+02
      7.939  0.6207E-01  0.8368E-01  0.1599E+02  0.1599E+02
      8.091  0.8090E-01  0.6069E-01  0.1600E+02  0.1600E+02
      8.244  0.1082E-01  0.6112E-02  0.1600E+02  0.1600E+02
      8.396  0.0000E+00  0.0000E+00  0.1600E+02  0.1600E+02
      8.548  0.0000E+00  0.0000E+00  0.1600E+02  0.1600E+02
      8.700  0.0000E+00  0.0000E+00  0.1600E+02  0.1600E+02
      8.852  0.0000E+00  0.0000E+00  0.1600E+02  0.1600E+02
      9.004  0.0000E+00  0.0000E+00  0.1600E+02  0.1600E+02
      9.156  0.0000E+00  0.0000E+00  0.1600E+02  0.1600E+02
      9.308  0.0000E+00  0.0000E+00  0.1600E+02  0.1600E+02
      9.460  0.0000E+00  0.0000E+00  0.1600E+02  0.1600E+02
      9.612  0.0000E+00  0.0000E+00  0.1600E+02  0.1600E+02
      9.764  0.0000E+00  0.0000E+00  0.1600E+02  0.1600E+02
      9.916  0.0000E+00  0.0000E+00  0.1600E+02  0.1600E+02
     10.068  0.0000E+00  0.0000E+00  0.1600E+02  0.1600E+02
     10.06789430    -35.54183077  301      2.59804633      1.00000000
    -35.542  0.0000E+00  0.0000E+00  0.0000E+00  0.0000E+00  0.0000E+00  0.0000E+00  0.0000E+00  0.0000E+00  0.0000E+00  0.0000E+00  0.0000E+00  0.0000E+00  0.0000E+00  0.0000E+00  0.0000E+00  0.0000E+00  0.0000E+00  0.0000E+00
    -35.390  0.0000E+00  0.0000E+00  0.0000E+00  0.0000E+00  0.0000E+00  0.0000E+00  0.0000E+00  0.0000E+00  0.0000E+00  0.0000E+00  0.0000E+00  0.0000E+00  0.0000E+00  0.0000E+00  0.0000E+00  0.0000E+00  0.0000E+00  0.0000E+00
    -35.238  0.0000E+00  0.0000E+00  0.0000E+00  0.0000E+00  0.0000E+00  0.0000E+00  0.0000E+00  0.0000E+00  0.0000E+00  0.0000E+00  0.0000E+00  0.0000E+00  0.0000E+00  0.0000E+00  0.0000E+00  0.0000E+00  0.0000E+00  0.0000E+00
    -35.086  0.0000E+00  0.0000E+00  0.0000E+00  0.0000E+00  0.0000E+00  0.0000E+00  0.0000E+00  0.0000E+00  0.0000E+00  0.0000E+00  0.0000E+00  0.0000E+00  0.0000E+00  0.0000E+00  0.0000E+00  0.0000E+00  0.0000E+00  0.0000E+00
    -34.934  0.0000E+00  0.0000E+00  0.0000E+00  0.0000E+00  0.0000E+00  0.0000E+00  0.0000E+00  0.0000E+00  0.0000E+00  0.0000E+00  0.0000E+00  0.0000E+00  0.0000E+00  0.0000E+00  0.0000E+00  0.0000E+00  0.0000E+00  0.0000E+00
    -34.782  0.0000E+00  0.0000E+00  0.0000E+00  0.0000E+00  0.0000E+00  0.0000E+00  0.0000E+00  0.0000E+00  0.0000E+00  0.0000E+00  0.0000E+00  0.0000E+00  0.0000E+00  0.0000E+00  0.0000E+00  0.0000E+00  0.0000E+00  0.0000E+00
    -34.630  0.0000E+00  0.0000E+00  0.0000E+00  0.0000E+00  0.0000E+00  0.0000E+00  0.0000E+00  0.0000E+00  0.0000E+00  0.0000E+00  0.0000E+00  0.0000E+00  0.0000E+00  0.0000E+00  0.0000E+00  0.0000E+00  0.0000E+00  0.0000E+00
    -34.478  0.0000E+00  0.0000E+00  0.0000E+00  0.0000E+00  0.0000E+00  0.0000E+00  0.0000E+00  0.0000E+00  0.0000E+00  0.0000E+00  0.0000E+00  0.0000E+00  0.0000E+00  0.0000E+00  0.0000E+00  0.0000E+00  0.0000E+00  0.0000E+00
    -34.326  0.0000E+00  0.0000E+00  0.0000E+00  0.0000E+00  0.0000E+00  0.0000E+00  0.0000E+00  0.0000E+00  0.0000E+00  0.0000E+00  0.0000E+00  0.0000E+00  0.0000E+00  0.0000E+00  0.0000E+00  0.0000E+00  0.0000E+00  0.0000E+00
    -34.174  0.0000E+00  0.0000E+00  0.0000E+00  0.0000E+00  0.0000E+00  0.0000E+00  0.0000E+00  0.0000E+00  0.0000E+00  0.0000E+00  0.0000E+00  0.0000E+00  0.0000E+00  0.0000E+00  0.0000E+00  0.0000E+00  0.0000E+00  0.0000E+00
    -34.022  0.0000E+00  0.0000E+00  0.0000E+00  0.0000E+00  0.0000E+00  0.0000E+00  0.0000E+00  0.0000E+00  0.0000E+00  0.0000E+00  0.0000E+00  0.0000E+00  0.0000E+00  0.0000E+00  0.0000E+00  0.0000E+00  0.0000E+00  0.0000E+00
    -33.869  0.8186E-03  0.7633E-03  0.9268E-09  0.8673E-09  0.8197E-09  0.7612E-09  0.9268E-09  0.8673E-09  0.1968E-09  0.1839E-09  0.1255E-09  0.1160E-09  0.2758E-09  0.2831E-09  0.1255E-09  0.1160E-09  0.1968E-09  0.1839E-09
    -33.717  0.1626E-01  0.1516E-01  0.1840E-07  0.1722E-07  0.1627E-07  0.1511E-07  0.1840E-07  0.1722E-07  0.3911E-08  0.3654E-08  0.2493E-08  0.2306E-08  0.5479E-08  0.5623E-08  0.2493E-08  0.2306E-08  0.3911E-08  0.3654E-08
    -33.565  0.3204E+00  0.3000E+00  0.3596E-06  0.3381E-06  0.3178E-06  0.2965E-06  0.3596E-06  0.3381E-06  0.7759E-07  0.7275E-07  0.4959E-07  0.4602E-07  0.1083E-06  0.1115E-06  0.4959E-07  0.4602E-07  0.7759E-07  0.7275E-07
    -33.413  0.3045E+01  0.2956E+01  0.3144E-05  0.3074E-05  0.2761E-05  0.2678E-05  0.3144E-05  0.3074E-05  0.7724E-06  0.7505E-06  0.5056E-06  0.4857E-06  0.1037E-05  0.1102E-05  0.5056E-06  0.4857E-06  0.7724E-06  0.7505E-06
    -33.261  0.2783E+01  0.2874E+01  0.2481E-05  0.2580E-05  0.2156E-05  0.2224E-05  0.2481E-05  0.2580E-05  0.7317E-06  0.7572E-06  0.4979E-06  0.5091E-06  0.9224E-06  0.1040E-05  0.4979E-06  0.5091E-06  0.7317E-06  0.7572E-06
    -33.109  0.2609E+00  0.2788E+00  0.2158E-06  0.2316E-06  0.1865E-06  0.1985E-06  0.2158E-06  0.2316E-06  0.6890E-07  0.7383E-07  0.4778E-07  0.5060E-07  0.8411E-07  0.9807E-07  0.4778E-07  0.5060E-07  0.6890E-07  0.7383E-07
    -32.957  0.0000E+00  0.0000E+00  0.0000E+00  0.0000E+00  0.0000E+00  0.0000E+00  0.0000E+00  0.0000E+00  0.0000E+00  0.0000E+00  0.0000E+00  0.0000E+00  0.0000E+00  0.0000E+00  0.0000E+00  0.0000E+00  0.0000E+00  0.0000E+00
    -32.805  0.0000E+00  0.0000E+00  0.0000E+00  0.0000E+00  0.0000E+00  0.0000E+00  0.0000E+00  0.0000E+00  0.0000E+00  0.0000E+00  0.0000E+00  0.0000E+00  0.0000E+00  0.0000E+00  0.0000E+00  0.0000E+00  0.0000E+00  0.0000E+00
    -32.653  0.0000E+00  0.0000E+00  0.0000E+00  0.0000E+00  0.0000E+00  0.0000E+00  0.0000E+00  0.0000E+00  0.0000E+00  0.0000E+00  0.0000E+00  0.0000E+00  0.0000E+00  0.0000E+00  0.0000E+00  0.0000E+00  0.0000E+00  0.0000E+00
    -32.501  0.0000E+00  0.0000E+00  0.0000E+00  0.0000E+00  0.0000E+00  0.0000E+00  0.0000E+00  0.0000E+00  0.0000E+00  0.0000E+00  0.0000E+00  0.0000E+00  0.0000E+00  0.0000E+00  0.0000E+00  0.0000E+00  0.0000E+00  0.0000E+00
    -32.349  0.0000E+00  0.0000E+00  0.0000E+00  0.0000E+00  0.0000E+00  0.0000E+00  0.0000E+00  0.0000E+00  0.0000E+00  0.0000E+00  0.0000E+00  0.0000E+00  0.0000E+00  0.0000E+00  0.0000E+00  0.0000E+00  0.0000E+00  0.0000E+00
    -32.197  0.0000E+00  0.0000E+00  0.0000E+00  0.0000E+00  0.0000E+00  0.0000E+00  0.0000E+00  0.0000E+00  0.0000E+00  0.0000E+00  0.0000E+00  0.0000E+00  0.0000E+00  0.0000E+00  0.0000E+00  0.0000E+00  0.0000E+00  0.0000E+00
    -32.045  0.0000E+00  0.0000E+00  0.0000E+00  0.0000E+00  0.0000E+00  0.0000E+00  0.0000E+00  0.0000E+00  0.0000E+00  0.0000E+00  0.0000E+00  0.0000E+00  0.0000E+00  0.0000E+00  0.0000E+00  0.0000E+00  0.0000E+00  0.0000E+00
    -31.893  0.0000E+00  0.0000E+00  0.0000E+00  0.0000E+00  0.0000E+00  0.0000E+00  0.0000E+00  0.0000E+00  0.0000E+00  0.0000E+00  0.0000E+00  0.0000E+00  0.0000E+00  0.0000E+00  0.0000E+00  0.0000E+00  0.0000E+00  0.0000E+00
    -31.741  0.0000E+00  0.0000E+00  0.0000E+00  0.0000E+00  0.0000E+00  0.0000E+00  0.0000E+00  0.0000E+00  0.0000E+00  0.0000E+00  0.0000E+00  0.0000E+00  0.0000E+00  0.0000E+00  0.0000E+00  0.0000E+00  0.0000E+00  0.0000E+00
    -31.589  0.0000E+00  0.0000E+00  0.0000E+00  0.0000E+00  0.0000E+00  0.0000E+00  0.0000E+00  0.0000E+00  0.0000E+00  0.0000E+00  0.0000E+00  0.0000E+00  0.0000E+00  0.0000E+00  0.0000E+00  0.0000E+00  0.0000E+00  0.0000E+00
    -31.437  0.0000E+00  0.0000E+00  0.0000E+00  0.0000E+00  0.0000E+00  0.0000E+00  0.0000E+00  0.0000E+00  0.0000E+00  0.0000E+00  0.0000E+00  0.0000E+00  0.0000E+00  0.0000E+00  0.0000E+00  0.0000E+00  0.0000E+00  0.0000E+00
    -31.285  0.0000E+00  0.0000E+00  0.0000E+00  0.0000E+00  0.0000E+00  0.0000E+00  0.0000E+00  0.0000E+00  0.0000E+00  0.0000E+00  0.0000E+00  0.0000E+00  0.0000E+00  0.0000E+00  0.0000E+00  0.0000E+00  0.0000E+00  0.0000E+00
    -31.133  0.0000E+00  0.0000E+00  0.0000E+00  0.0000E+00  0.0000E+00  0.0000E+00  0.0000E+00  0.0000E+00  0.0000E+00  0.0000E+00  0.0000E+00  0.0000E+00  0.0000E+00  0.0000E+00  0.0000E+00  0.0000E+00  0.0000E+00  0.0000E+00
    -30.981  0.0000E+00  0.0000E+00  0.0000E+00  0.0000E+00  0.0000E+00  0.0000E+00  0.0000E+00  0.0000E+00  0.0000E+00  0.0000E+00  0.0000E+00  0.0000E+00  0.0000E+00  0.0000E+00  0.0000E+00  0.0000E+00  0.0000E+00  0.0000E+00
    -30.829  0.0000E+00  0.0000E+00  0.0000E+00  0.0000E+00  0.0000E+00  0.0000E+00  0.0000E+00  0.0000E+00  0.0000E+00  0.0000E+00  0.0000E+00  0.0000E+00  0.0000E+00  0.0000E+00  0.0000E+00  0.0000E+00  0.0000E+00  0.0000E+00
    -30.677  0.0000E+00  0.0000E+00  0.0000E+00  0.0000E+00  0.0000E+00  0.0000E+00  0.0000E+00  0.0000E+00  0.0000E+00  0.0000E+00  0.0000E+00  0.0000E+00  0.0000E+00  0.0000E+00  0.0000E+00  0.0000E+00  0.0000E+00  0.0000E+00
    -30.525  0.0000E+00  0.0000E+00  0.0000E+00  0.0000E+00  0.0000E+00  0.0000E+00  0.0000E+00  0.0000E+00  0.0000E+00  0.0000E+00  0.0000E+00  0.0000E+00  0.0000E+00  0.0000E+00  0.0000E+00  0.0000E+00  0.0000E+00  0.0000E+00
    -30.373  0.0000E+00  0.0000E+00  0.0000E+00  0.0000E+00  0.0000E+00  0.0000E+00  0.0000E+00  0.0000E+00  0.0000E+00  0.0000E+00  0.0000E+00  0.0000E+00  0.0000E+00  0.0000E+00  0.0000E+00  0.0000E+00  0.0000E+00  0.0000E+00
    -30.221  0.0000E+00  0.0000E+00  0.0000E+00  0.0000E+00  0.0000E+00  0.0000E+00  0.0000E+00  0.0000E+00  0.0000E+00  0.0000E+00  0.0000E+00  0.0000E+00  0.0000E+00  0.0000E+00  0.0000E+00  0.0000E+00  0.0000E+00  0.0000E+00
    -30.069  0.0000E+00  0.0000E+00  0.0000E+00  0.0000E+00  0.0000E+00  0.0000E+00  0.0000E+00  0.0000E+00  0.0000E+00  0.0000E+00  0.0000E+00  0.0000E+00  0.0000E+00  0.0000E+00  0.0000E+00  0.0000E+00  0.0000E+00  0.0000E+00
    -29.917  0.0000E+00  0.0000E+00  0.0000E+00  0.0000E+00  0.0000E+00  0.0000E+00  0.0000E+00  0.0000E+00  0.0000E+00  0.0000E+00  0.0000E+00  0.0000E+00  0.0000E+00  0.0000E+00  0.0000E+00  0.0000E+00  0.0000E+00  0.0000E+00
    -29.765  0.0000E+00  0.0000E+00  0.0000E+00  0.0000E+00  0.0000E+00  0.0000E+00  0.0000E+00  0.0000E+00  0.0000E+00  0.0000E+00  0.0000E+00  0.0000E+00  0.0000E+00  0.0000E+00  0.0000E+00  0.0000E+00  0.0000E+00  0.0000E+00
    -29.613  0.0000E+00  0.0000E+00  0.0000E+00  0.0000E+00  0.0000E+00  0.0000E+00  0.0000E+00  0.0000E+00  0.0000E+00  0.0000E+00  0.0000E+00  0.0000E+00  0.0000E+00  0.0000E+00  0.0000E+00  0.0000E+00  0.0000E+00  0.0000E+00
    -29.461  0.0000E+00  0.0000E+00  0.0000E+00  0.0000E+00  0.0000E+00  0.0000E+00  0.0000E+00  0.0000E+00  0.0000E+00  0.0000E+00  0.0000E+00  0.0000E+00  0.0000E+00  0.0000E+00  0.0000E+00  0.0000E+00  0.0000E+00  0.0000E+00
    -29.309  0.0000E+00  0.0000E+00  0.0000E+00  0.0000E+00  0.0000E+00  0.0000E+00  0.0000E+00  0.0000E+00  0.0000E+00  0.0000E+00  0.0000E+00  0.0000E+00  0.0000E+00  0.0000E+00  0.0000E+00  0.0000E+00  0.0000E+00  0.0000E+00
    -29.156  0.0000E+00  0.0000E+00  0.0000E+00  0.0000E+00  0.0000E+00  0.0000E+00  0.0000E+00  0.0000E+00  0.0000E+00  0.0000E+00  0.0000E+00  0.0000E+00  0.0000E+00  0.0000E+00  0.0000E+00  0.0000E+00  0.0000E+00  0.0000E+00
    -29.004  0.0000E+00  0.0000E+00  0.0000E+00  0.0000E+00  0.0000E+00  0.0000E+00  0.0000E+00  0.0000E+00  0.0000E+00  0.0000E+00  0.0000E+00  0.0000E+00  0.0000E+00  0.0000E+00  0.0000E+00  0.0000E+00  0.0000E+00  0.0000E+00
    -28.852  0.0000E+00  0.0000E+00  0.0000E+00  0.0000E+00  0.0000E+00  0.0000E+00  0.0000E+00  0.0000E+00  0.0000E+00  0.0000E+00  0.0000E+00  0.0000E+00  0.0000E+00  0.0000E+00  0.0000E+00  0.0000E+00  0.0000E+00  0.0000E+00
    -28.700  0.0000E+00  0.0000E+00  0.0000E+00  0.0000E+00  0.0000E+00  0.0000E+00  0.0000E+00  0.0000E+00  0.0000E+00  0.0000E+00  0.0000E+00  0.0000E+00  0.0000E+00  0.0000E+00  0.0000E+00  0.0000E+00  0.0000E+00  0.0000E+00
    -28.548  0.0000E+00  0.0000E+00  0.0000E+00  0.0000E+00  0.0000E+00  0.0000E+00  0.0000E+00  0.0000E+00  0.0000E+00  0.0000E+00  0.0000E+00  0.0000E+00  0.0000E+00  0.0000E+00  0.0000E+00  0.0000E+00  0.0000E+00  0.0000E+00
    -28.396  0.0000E+00  0.0000E+00  0.0000E+00  0.0000E+00  0.0000E+00  0.0000E+00  0.0000E+00  0.0000E+00  0.0000E+00  0.0000E+00  0.0000E+00  0.0000E+00  0.0000E+00  0.0000E+00  0.0000E+00  0.0000E+00  0.0000E+00  0.0000E+00
    -28.244  0.0000E+00  0.0000E+00  0.0000E+00  0.0000E+00  0.0000E+00  0.0000E+00  0.0000E+00  0.0000E+00  0.0000E+00  0.0000E+00  0.0000E+00  0.0000E+00  0.0000E+00  0.0000E+00  0.0000E+00  0.0000E+00  0.0000E+00  0.0000E+00
    -28.092  0.0000E+00  0.0000E+00  0.0000E+00  0.0000E+00  0.0000E+00  0.0000E+00  0.0000E+00  0.0000E+00  0.0000E+00  0.0000E+00  0.0000E+00  0.0000E+00  0.0000E+00  0.0000E+00  0.0000E+00  0.0000E+00  0.0000E+00  0.0000E+00
    -27.940  0.0000E+00  0.0000E+00  0.0000E+00  0.0000E+00  0.0000E+00  0.0000E+00  0.0000E+00  0.0000E+00  0.0000E+00  0.0000E+00  0.0000E+00  0.0000E+00  0.0000E+00  0.0000E+00  0.0000E+00  0.0000E+00  0.0000E+00  0.0000E+00