 vasp.6.1.0 28Jan20 (build Jun 11 2020 16:13:15) complex                        
  
 executed on             LinuxIFC date 2021.04.16  00:03:13
 running on    4 total cores
 distrk:  each k-point on    4 cores,    1 groups
 distr:  one band on NCORE=   1 cores,    4 groups


--------------------------------------------------------------------------------------------------------


 INCAR:
 POTCAR:    PAW_PBE Sr_sv 07Sep2000               
 POTCAR:    PAW_PBE Sr_sv 07Sep2000               
   SHA256 =  a8389d3481648516ee67182ee030b298d280b37e29cbbf2d8595f040d757c710 Sr_sv/POTCAR          
   COPYR  = (c) Copyright 07Sep2000 Georg Kresse                                                    
   COPYR  = This file is part of the software VASP. Any use, copying, and all other rights are regul
   COPYR  = If you do not have a valid VASP license, you may not use, copy or distribute this file. 
   VRHFIN =Sr: 4s4p5s                                                                               
   LEXCH  = PE                                                                                      
   EATOM  =   843.0319 eV,   61.9611 Ry                                                             
                                                                                                    
   TITEL  = PAW_PBE Sr_sv 07Sep2000                                                                 
   LULTRA =        F    use ultrasoft PP ?                                                          
   IUNSCR =        1    unscreen: 0-lin 1-nonlin 2-no                                               
   RPACOR =    2.200    partial core radius                                                         
   POMASS =   87.620; ZVAL   =   10.000    mass and valenz                                          
   RCORE  =    2.500    outmost cutoff radius                                                       
   RWIGS  =    4.040; RWIGS  =    2.138    wigner-seitz radius (au A)                               
   ENMAX  =  229.353; ENMIN  =  172.014 eV                                                          
   RCLOC  =    2.201    cutoff for local pot                                                        
   LCOR   =        T    correct aug charges                                                         
   LPAW   =        T    paw PP                                                                      
   EAUG   =  366.804                                                                                
   DEXC   =    0.000                                                                                
   RMAX   =    2.547    core radius for proj-oper                                                   
   RAUG   =    1.300    factor for augmentation sphere                                              
   RDEP   =    2.562    radius for radial grids                                                     
   RDEPT  =    2.128    core radius for aug-charge                                                  
                                                                                                    
   Atomic configuration                                                                             
   10 entries                                                                                       
     n  l   j            E        occ.                                                              
     1  0  0.50    -15934.8930   2.0000                                                             
     2  0  0.50     -2157.6250   2.0000                                                             
     2  1  1.50     -1917.0034   6.0000                                                             
     3  0  0.50      -333.7288   2.0000                                                             
     3  1  1.50      -256.0992   6.0000                                                             
     3  2  2.50      -127.9971  10.0000                                                             
     4  0  0.50       -40.8953   2.0000                                                             
     5  0  0.50        -3.5257   1.9990                                                             
     4  1  1.50       -22.8179   6.0000                                                             
     4  2  1.50        -1.2815   0.0010                                                             
   Description                                                                                      
     l       E           TYP  RCUT    TYP  RCUT                                                     
     0    -40.8953213     23  2.480                                                                 
     0     -3.5257161     23  2.480                                                                 
     1    -22.8178632     23  2.500                                                                 
     1    -24.1784458     23  2.500                                                                 
     2     -1.2814598     23  2.500                                                                 
     2      0.2279365     23  2.500                                                                 
  local pseudopotential read in
  partial core-charges read in
  partial kinetic energy density read in
  atomic valenz-charges read in
  non local Contribution for L=           0  read in
    real space projection operators read in
  non local Contribution for L=           0  read in
    real space projection operators read in
  non local Contribution for L=           1  read in
    real space projection operators read in
  non local Contribution for L=           1  read in
    real space projection operators read in
  non local Contribution for L=           2  read in
    real space projection operators read in
  non local Contribution for L=           2  read in
    real space projection operators read in
    PAW grid and wavefunctions read in
 
   number of l-projection  operators is LMAX  =           6
   number of lm-projection operators is LMMAX =          18
 
  PAW_PBE Sr_sv 07Sep2000               :
 energy of atom  1       EATOM= -843.0319
 kinetic energy error for atom=    0.0010 (will be added to EATOM!!)
 
 
 POSCAR: Sr2
  positions in direct lattice
  velocities in cartesian coordinates
 exchange correlation table for  LEXCH =        8
   RHO(1)=    0.500       N(1)  =     2000
   RHO(2)=  100.500       N(2)  =     4000
 


--------------------------------------------------------------------------------------------------------


 ion  position               nearest neighbor table
   1  0.333  0.667  0.250-   2 4.29   2 4.29   2 4.29   2 4.29   2 4.29   2 4.29
   2  0.667  0.333  0.750-   1 4.29   1 4.29   1 4.29   1 4.29   1 4.29   1 4.29
 
 -----------------------------------------------------------------------------
|                                                                             |
|           W    W    AA    RRRRR   N    N  II  N    N   GGGG   !!!           |
|           W    W   A  A   R    R  NN   N  II  NN   N  G    G  !!!           |
|           W    W  A    A  R    R  N N  N  II  N N  N  G       !!!           |
|           W WW W  AAAAAA  RRRRR   N  N N  II  N  N N  G  GGG   !            |
|           WW  WW  A    A  R   R   N   NN  II  N   NN  G    G                |
|           W    W  A    A  R    R  N    N  II  N    N   GGGG   !!!           |
|                                                                             |
|     The determination of the symmetry of your systems shows a strong        |
|     dependence on the tolerance parameter SYMPREC. This is often the        |
|     result of "noise" in the structural parameters (lattice vectors         |
|     and/or ionic positions). Set NWRITE=3 for more details.                 |
|                                                                             |
 -----------------------------------------------------------------------------

  LATTYP: Found a hexagonal cell.
 ALAT       =     4.2580925489
 C/A-ratio  =     1.6517452025
  
  Lattice vectors:
  
 A1 = (   4.2580925594,  -0.0000000027,   0.0000000000)
 A2 = (  -2.1290456133,   3.6876159338,   0.0000000000)
 A3 = (   0.0000000000,   0.0000000000,   7.0332839394)


Analysis of symmetry for initial positions (statically):
=====================================================================
 Subroutine PRICEL returns:
 Original cell was already a primitive cell.
 

 Routine SETGRP: Setting up the symmetry group for a 
 hexagonal supercell.


 Subroutine GETGRP returns: Found 24 space group operations
 (whereof 12 operations were pure point group operations)
 out of a pool of 24 trial point group operations.


The static configuration has the point symmetry D_3d.
 The point group associated with its full space group is D_6h.


Analysis of symmetry for dynamics (positions and initial velocities):
=====================================================================
 Subroutine PRICEL returns:
 Original cell was already a primitive cell.
 

 Routine SETGRP: Setting up the symmetry group for a 
 hexagonal supercell.


 Subroutine GETGRP returns: Found 24 space group operations
 (whereof 12 operations were pure point group operations)
 out of a pool of 24 trial point group operations.


The dynamic configuration has the point symmetry D_3d.
 The point group associated with its full space group is D_6h.


 Subroutine INISYM returns: Found 24 space group operations
 (whereof 12 operations are pure point group operations),
 and found     1 'primitive' translations


----------------------------------------------------------------------------------------

                                     Primitive cell                                     

  volume of cell :     110.4381

  direct lattice vectors                    reciprocal lattice vectors
     4.258092559 -0.000000003  0.000000000     0.234846938  0.135588915  0.000000000
    -2.129045613  3.687615934  0.000000000     0.000000000  0.271177915  0.000000000
     0.000000000  0.000000000  7.033283939     0.000000000  0.000000000  0.142181093

  length of vectors
     4.258092559  4.258091885  7.033283939     0.271177872  0.271177915  0.142181093

  position of ions in fractional coordinates (direct lattice)
     0.333333000  0.666667000  0.250000000
     0.666667000  0.333333000  0.750000000

  ion indices of the primitive-cell ions
   primitive index   ion index
                 1           1
                 2           2

----------------------------------------------------------------------------------------

 
 
 KPOINTS: k points                                

Automatic generation of k-mesh.
Space group operators:
 irot       det(A)        alpha          n_x          n_y          n_z        tau_x        tau_y        tau_z
    1     1.000000     0.000000     1.000000     0.000000     0.000000     0.000000     0.000000     0.000000
    2    -1.000000     0.000000     1.000000     0.000000     0.000000     0.000000     0.000000     0.000000
    3     1.000000   120.000000     0.000000     0.000000    -1.000000     0.000000     0.000000     0.000000
    4    -1.000000   120.000000     0.000000     0.000000    -1.000000     0.000000     0.000000     0.000000
    5     1.000000   120.000000     0.000000     0.000000     1.000000     0.000000     0.000000     0.000000
    6    -1.000000   120.000000     0.000000     0.000000     1.000000     0.000000     0.000000     0.000000
    7     1.000000   180.000000     1.000000    -0.000000     0.000000     0.000000     0.000000     0.000000
    8    -1.000000   180.000000     1.000000    -0.000000     0.000000     0.000000     0.000000     0.000000
    9     1.000000   180.000000     0.500000    -0.866025     0.000000     0.000000     0.000000     0.000000
   10    -1.000000   180.000000     0.500000    -0.866025     0.000000     0.000000     0.000000     0.000000
   11     1.000000   180.000000    -0.500000    -0.866025     0.000000     0.000000     0.000000     0.000000
   12    -1.000000   180.000000    -0.500000    -0.866025     0.000000     0.000000     0.000000     0.000000
   13     1.000000    60.000000     0.000000     0.000000    -1.000000     0.000001     0.000000    -0.500000
   14    -1.000000    60.000000     0.000000     0.000000    -1.000000     0.000000     0.000000    -0.500000
   15     1.000000   180.000000     0.000000     0.000000     1.000000     0.000000     0.000000    -0.500000
   16    -1.000000   180.000000     0.000000     0.000000     1.000000     0.000000     0.000000    -0.500000
   17     1.000000    60.000000     0.000000     0.000000     1.000000     0.000000     0.000001    -0.500000
   18    -1.000000    60.000000     0.000000     0.000000     1.000000     0.000000     0.000000    -0.500000
   19     1.000000   180.000000     0.866025    -0.500000     0.000000     0.000000     0.000000    -0.500000
   20    -1.000000   180.000000     0.866025    -0.500000     0.000000     0.000000     0.000000    -0.500000
   21     1.000000   180.000000    -0.000000    -1.000000     0.000000     0.000001     0.000000    -0.500000
   22    -1.000000   180.000000    -0.000000    -1.000000     0.000000     0.000000     0.000000    -0.500000
   23     1.000000   180.000000     0.866025     0.500000     0.000000     0.000000     0.000001    -0.500000
   24    -1.000000   180.000000     0.866025     0.500000     0.000000     0.000000     0.000000    -0.500000
 
 Subroutine IBZKPT returns following result:
 ===========================================
 
 Found    105 irreducible k-points:
 
 Following reciprocal coordinates:
            Coordinates               Weight
  0.000000  0.000000  0.000000      1.000000
  0.076923  0.000000  0.000000      6.000000
  0.153846  0.000000  0.000000      6.000000
  0.230769  0.000000  0.000000      6.000000
  0.307692  0.000000  0.000000      6.000000
  0.384615  0.000000  0.000000      6.000000
  0.461538  0.000000  0.000000      6.000000
  0.076923  0.076923  0.000000      6.000000
  0.153846  0.076923  0.000000     12.000000
  0.230769  0.076923  0.000000     12.000000
  0.307692  0.076923  0.000000     12.000000
  0.384615  0.076923  0.000000     12.000000
  0.461538  0.076923  0.000000      6.000000
  0.153846  0.153846  0.000000      6.000000
  0.230769  0.153846  0.000000     12.000000
  0.307692  0.153846  0.000000     12.000000
  0.384615  0.153846  0.000000     12.000000
  0.230769  0.230769  0.000000      6.000000
  0.307692  0.230769  0.000000     12.000000
  0.384615  0.230769  0.000000      6.000000
  0.307692  0.307692  0.000000      6.000000
  0.000000  0.000000  0.111111      2.000000
  0.076923  0.000000  0.111111     12.000000
  0.153846  0.000000  0.111111     12.000000
  0.230769  0.000000  0.111111     12.000000
  0.307692  0.000000  0.111111     12.000000
  0.384615  0.000000  0.111111     12.000000
  0.461538  0.000000  0.111111     12.000000
  0.076923  0.076923  0.111111     12.000000
  0.153846  0.076923  0.111111     24.000000
  0.230769  0.076923  0.111111     24.000000
  0.307692  0.076923  0.111111     24.000000
  0.384615  0.076923  0.111111     24.000000
  0.461538  0.076923  0.111111     12.000000
  0.153846  0.153846  0.111111     12.000000
  0.230769  0.153846  0.111111     24.000000
  0.307692  0.153846  0.111111     24.000000
  0.384615  0.153846  0.111111     24.000000
  0.230769  0.230769  0.111111     12.000000
  0.307692  0.230769  0.111111     24.000000
  0.384615  0.230769  0.111111     12.000000
  0.307692  0.307692  0.111111     12.000000
  0.000000  0.000000  0.222222      2.000000
  0.076923  0.000000  0.222222     12.000000
  0.153846  0.000000  0.222222     12.000000
  0.230769  0.000000  0.222222     12.000000
  0.307692  0.000000  0.222222     12.000000
  0.384615  0.000000  0.222222     12.000000
  0.461538  0.000000  0.222222     12.000000
  0.076923  0.076923  0.222222     12.000000
  0.153846  0.076923  0.222222     24.000000
  0.230769  0.076923  0.222222     24.000000
  0.307692  0.076923  0.222222     24.000000
  0.384615  0.076923  0.222222     24.000000
  0.461538  0.076923  0.222222     12.000000
  0.153846  0.153846  0.222222     12.000000
  0.230769  0.153846  0.222222     24.000000
  0.307692  0.153846  0.222222     24.000000
  0.384615  0.153846  0.222222     24.000000
  0.230769  0.230769  0.222222     12.000000
  0.307692  0.230769  0.222222     24.000000
  0.384615  0.230769  0.222222     12.000000
  0.307692  0.307692  0.222222     12.000000
  0.000000  0.000000  0.333333      2.000000
  0.076923  0.000000  0.333333     12.000000
  0.153846  0.000000  0.333333     12.000000
  0.230769  0.000000  0.333333     12.000000
  0.307692  0.000000  0.333333     12.000000
  0.384615  0.000000  0.333333     12.000000
  0.461538  0.000000  0.333333     12.000000
  0.076923  0.076923  0.333333     12.000000
  0.153846  0.076923  0.333333     24.000000
  0.230769  0.076923  0.333333     24.000000
  0.307692  0.076923  0.333333     24.000000
  0.384615  0.076923  0.333333     24.000000
  0.461538  0.076923  0.333333     12.000000
  0.153846  0.153846  0.333333     12.000000
  0.230769  0.153846  0.333333     24.000000
  0.307692  0.153846  0.333333     24.000000
  0.384615  0.153846  0.333333     24.000000
  0.230769  0.230769  0.333333     12.000000
  0.307692  0.230769  0.333333     24.000000
  0.384615  0.230769  0.333333     12.000000
  0.307692  0.307692  0.333333     12.000000
  0.000000  0.000000  0.444444      2.000000
  0.076923  0.000000  0.444444     12.000000
  0.153846  0.000000  0.444444     12.000000
  0.230769  0.000000  0.444444     12.000000
  0.307692  0.000000  0.444444     12.000000
  0.384615  0.000000  0.444444     12.000000
  0.461538  0.000000  0.444444     12.000000
  0.076923  0.076923  0.444444     12.000000
  0.153846  0.076923  0.444444     24.000000
  0.230769  0.076923  0.444444     24.000000
  0.307692  0.076923  0.444444     24.000000
  0.384615  0.076923  0.444444     24.000000
  0.461538  0.076923  0.444444     12.000000
  0.153846  0.153846  0.444444     12.000000
  0.230769  0.153846  0.444444     24.000000
  0.307692  0.153846  0.444444     24.000000
  0.384615  0.153846  0.444444     24.000000
  0.230769  0.230769  0.444444     12.000000
  0.307692  0.230769  0.444444     24.000000
  0.384615  0.230769  0.444444     12.000000
  0.307692  0.307692  0.444444     12.000000
 
 Following cartesian coordinates:
            Coordinates               Weight
  0.000000  0.000000  0.000000      1.000000
  0.018065  0.010430  0.000000      6.000000
  0.036130  0.020860  0.000000      6.000000
  0.054195  0.031290  0.000000      6.000000
  0.072261  0.041720  0.000000      6.000000
  0.090326  0.052150  0.000000      6.000000
  0.108391  0.062579  0.000000      6.000000
  0.018065  0.031290  0.000000      6.000000
  0.036130  0.041720  0.000000     12.000000
  0.054195  0.052150  0.000000     12.000000
  0.072261  0.062580  0.000000     12.000000
  0.090326  0.073009  0.000000     12.000000
  0.108391  0.083439  0.000000      6.000000
  0.036130  0.062580  0.000000      6.000000
  0.054195  0.073009  0.000000     12.000000
  0.072261  0.083439  0.000000     12.000000
  0.090326  0.093869  0.000000     12.000000
  0.054195  0.093869  0.000000      6.000000
  0.072261  0.104299  0.000000     12.000000
  0.090326  0.114729  0.000000      6.000000
  0.072261  0.125159  0.000000      6.000000
  0.000000  0.000000  0.015798      2.000000
  0.018065  0.010430  0.015798     12.000000
  0.036130  0.020860  0.015798     12.000000
  0.054195  0.031290  0.015798     12.000000
  0.072261  0.041720  0.015798     12.000000
  0.090326  0.052150  0.015798     12.000000
  0.108391  0.062579  0.015798     12.000000
  0.018065  0.031290  0.015798     12.000000
  0.036130  0.041720  0.015798     24.000000
  0.054195  0.052150  0.015798     24.000000
  0.072261  0.062580  0.015798     24.000000
  0.090326  0.073009  0.015798     24.000000
  0.108391  0.083439  0.015798     12.000000
  0.036130  0.062580  0.015798     12.000000
  0.054195  0.073009  0.015798     24.000000
  0.072261  0.083439  0.015798     24.000000
  0.090326  0.093869  0.015798     24.000000
  0.054195  0.093869  0.015798     12.000000
  0.072261  0.104299  0.015798     24.000000
  0.090326  0.114729  0.015798     12.000000
  0.072261  0.125159  0.015798     12.000000
  0.000000  0.000000  0.031596      2.000000
  0.018065  0.010430  0.031596     12.000000
  0.036130  0.020860  0.031596     12.000000
  0.054195  0.031290  0.031596     12.000000
  0.072261  0.041720  0.031596     12.000000
  0.090326  0.052150  0.031596     12.000000
  0.108391  0.062579  0.031596     12.000000
  0.018065  0.031290  0.031596     12.000000
  0.036130  0.041720  0.031596     24.000000
  0.054195  0.052150  0.031596     24.000000
  0.072261  0.062580  0.031596     24.000000
  0.090326  0.073009  0.031596     24.000000
  0.108391  0.083439  0.031596     12.000000
  0.036130  0.062580  0.031596     12.000000
  0.054195  0.073009  0.031596     24.000000
  0.072261  0.083439  0.031596     24.000000
  0.090326  0.093869  0.031596     24.000000
  0.054195  0.093869  0.031596     12.000000
  0.072261  0.104299  0.031596     24.000000
  0.090326  0.114729  0.031596     12.000000
  0.072261  0.125159  0.031596     12.000000
  0.000000  0.000000  0.047394      2.000000
  0.018065  0.010430  0.047394     12.000000
  0.036130  0.020860  0.047394     12.000000
  0.054195  0.031290  0.047394     12.000000
  0.072261  0.041720  0.047394     12.000000
  0.090326  0.052150  0.047394     12.000000
  0.108391  0.062579  0.047394     12.000000
  0.018065  0.031290  0.047394     12.000000
  0.036130  0.041720  0.047394     24.000000
  0.054195  0.052150  0.047394     24.000000
  0.072261  0.062580  0.047394     24.000000
  0.090326  0.073009  0.047394     24.000000
  0.108391  0.083439  0.047394     12.000000
  0.036130  0.062580  0.047394     12.000000
  0.054195  0.073009  0.047394     24.000000
  0.072261  0.083439  0.047394     24.000000
  0.090326  0.093869  0.047394     24.000000
  0.054195  0.093869  0.047394     12.000000
  0.072261  0.104299  0.047394     24.000000
  0.090326  0.114729  0.047394     12.000000
  0.072261  0.125159  0.047394     12.000000
  0.000000  0.000000  0.063192      2.000000
  0.018065  0.010430  0.063192     12.000000
  0.036130  0.020860  0.063192     12.000000
  0.054195  0.031290  0.063192     12.000000
  0.072261  0.041720  0.063192     12.000000
  0.090326  0.052150  0.063192     12.000000
  0.108391  0.062579  0.063192     12.000000
  0.018065  0.031290  0.063192     12.000000
  0.036130  0.041720  0.063192     24.000000
  0.054195  0.052150  0.063192     24.000000
  0.072261  0.062580  0.063192     24.000000
  0.090326  0.073009  0.063192     24.000000
  0.108391  0.083439  0.063192     12.000000
  0.036130  0.062580  0.063192     12.000000
  0.054195  0.073009  0.063192     24.000000
  0.072261  0.083439  0.063192     24.000000
  0.090326  0.093869  0.063192     24.000000
  0.054195  0.093869  0.063192     12.000000
  0.072261  0.104299  0.063192     24.000000
  0.090326  0.114729  0.063192     12.000000
  0.072261  0.125159  0.063192     12.000000
 
 
 Subroutine IBZKPT_HF returns following result:
 ==============================================
 
 Found   1521 k-points in 1st BZ
 the following   1521 k-points will be used (e.g. in the exchange kernel)
 Following reciprocal coordinates:   # in IRBZ
  0.000000  0.000000  0.000000    0.00065746   1 t-inv F
  0.076923  0.000000  0.000000    0.00065746   2 t-inv F
  0.153846  0.000000  0.000000    0.00065746   3 t-inv F
  0.230769  0.000000  0.000000    0.00065746   4 t-inv F
  0.307692  0.000000  0.000000    0.00065746   5 t-inv F
  0.384615  0.000000  0.000000    0.00065746   6 t-inv F
  0.461538  0.000000  0.000000    0.00065746   7 t-inv F
  0.076923  0.076923  0.000000    0.00065746   8 t-inv F
  0.153846  0.076923  0.000000    0.00065746   9 t-inv F
  0.230769  0.076923  0.000000    0.00065746  10 t-inv F
  0.307692  0.076923  0.000000    0.00065746  11 t-inv F
  0.384615  0.076923  0.000000    0.00065746  12 t-inv F
  0.461538  0.076923  0.000000    0.00065746  13 t-inv F
  0.153846  0.153846  0.000000    0.00065746  14 t-inv F
  0.230769  0.153846  0.000000    0.00065746  15 t-inv F
  0.307692  0.153846  0.000000    0.00065746  16 t-inv F
  0.384615  0.153846  0.000000    0.00065746  17 t-inv F
  0.230769  0.230769  0.000000    0.00065746  18 t-inv F
  0.307692  0.230769  0.000000    0.00065746  19 t-inv F
  0.384615  0.230769  0.000000    0.00065746  20 t-inv F
  0.307692  0.307692  0.000000    0.00065746  21 t-inv F
  0.000000  0.000000  0.111111    0.00065746  22 t-inv F
  0.076923  0.000000  0.111111    0.00065746  23 t-inv F
  0.153846  0.000000  0.111111    0.00065746  24 t-inv F
  0.230769  0.000000  0.111111    0.00065746  25 t-inv F
  0.307692  0.000000  0.111111    0.00065746  26 t-inv F
  0.384615  0.000000  0.111111    0.00065746  27 t-inv F
  0.461538  0.000000  0.111111    0.00065746  28 t-inv F
  0.076923  0.076923  0.111111    0.00065746  29 t-inv F
  0.153846  0.076923  0.111111    0.00065746  30 t-inv F
  0.230769  0.076923  0.111111    0.00065746  31 t-inv F
  0.307692  0.076923  0.111111    0.00065746  32 t-inv F
  0.384615  0.076923  0.111111    0.00065746  33 t-inv F
  0.461538  0.076923  0.111111    0.00065746  34 t-inv F
  0.153846  0.153846  0.111111    0.00065746  35 t-inv F
  0.230769  0.153846  0.111111    0.00065746  36 t-inv F
  0.307692  0.153846  0.111111    0.00065746  37 t-inv F
  0.384615  0.153846  0.111111    0.00065746  38 t-inv F
  0.230769  0.230769  0.111111    0.00065746  39 t-inv F
  0.307692  0.230769  0.111111    0.00065746  40 t-inv F
  0.384615  0.230769  0.111111    0.00065746  41 t-inv F
  0.307692  0.307692  0.111111    0.00065746  42 t-inv F
  0.000000  0.000000  0.222222    0.00065746  43 t-inv F
  0.076923  0.000000  0.222222    0.00065746  44 t-inv F
  0.153846  0.000000  0.222222    0.00065746  45 t-inv F
  0.230769  0.000000  0.222222    0.00065746  46 t-inv F
  0.307692  0.000000  0.222222    0.00065746  47 t-inv F
  0.384615  0.000000  0.222222    0.00065746  48 t-inv F
  0.461538  0.000000  0.222222    0.00065746  49 t-inv F
  0.076923  0.076923  0.222222    0.00065746  50 t-inv F
  0.153846  0.076923  0.222222    0.00065746  51 t-inv F
  0.230769  0.076923  0.222222    0.00065746  52 t-inv F
  0.307692  0.076923  0.222222    0.00065746  53 t-inv F
  0.384615  0.076923  0.222222    0.00065746  54 t-inv F
  0.461538  0.076923  0.222222    0.00065746  55 t-inv F
  0.153846  0.153846  0.222222    0.00065746  56 t-inv F
  0.230769  0.153846  0.222222    0.00065746  57 t-inv F
  0.307692  0.153846  0.222222    0.00065746  58 t-inv F
  0.384615  0.153846  0.222222    0.00065746  59 t-inv F
  0.230769  0.230769  0.222222    0.00065746  60 t-inv F
  0.307692  0.230769  0.222222    0.00065746  61 t-inv F
  0.384615  0.230769  0.222222    0.00065746  62 t-inv F
  0.307692  0.307692  0.222222    0.00065746  63 t-inv F
  0.000000  0.000000  0.333333    0.00065746  64 t-inv F
  0.076923  0.000000  0.333333    0.00065746  65 t-inv F
  0.153846  0.000000  0.333333    0.00065746  66 t-inv F
  0.230769  0.000000  0.333333    0.00065746  67 t-inv F
  0.307692  0.000000  0.333333    0.00065746  68 t-inv F
  0.384615  0.000000  0.333333    0.00065746  69 t-inv F
  0.461538  0.000000  0.333333    0.00065746  70 t-inv F
  0.076923  0.076923  0.333333    0.00065746  71 t-inv F
  0.153846  0.076923  0.333333    0.00065746  72 t-inv F
  0.230769  0.076923  0.333333    0.00065746  73 t-inv F
  0.307692  0.076923  0.333333    0.00065746  74 t-inv F
  0.384615  0.076923  0.333333    0.00065746  75 t-inv F
  0.461538  0.076923  0.333333    0.00065746  76 t-inv F
  0.153846  0.153846  0.333333    0.00065746  77 t-inv F
  0.230769  0.153846  0.333333    0.00065746  78 t-inv F
  0.307692  0.153846  0.333333    0.00065746  79 t-inv F
  0.384615  0.153846  0.333333    0.00065746  80 t-inv F
  0.230769  0.230769  0.333333    0.00065746  81 t-inv F
  0.307692  0.230769  0.333333    0.00065746  82 t-inv F
  0.384615  0.230769  0.333333    0.00065746  83 t-inv F
  0.307692  0.307692  0.333333    0.00065746  84 t-inv F
  0.000000  0.000000  0.444444    0.00065746  85 t-inv F
  0.076923  0.000000  0.444444    0.00065746  86 t-inv F
  0.153846  0.000000  0.444444    0.00065746  87 t-inv F
  0.230769  0.000000  0.444444    0.00065746  88 t-inv F
  0.307692  0.000000  0.444444    0.00065746  89 t-inv F
  0.384615  0.000000  0.444444    0.00065746  90 t-inv F
  0.461538  0.000000  0.444444    0.00065746  91 t-inv F
  0.076923  0.076923  0.444444    0.00065746  92 t-inv F
  0.153846  0.076923  0.444444    0.00065746  93 t-inv F
  0.230769  0.076923  0.444444    0.00065746  94 t-inv F
  0.307692  0.076923  0.444444    0.00065746  95 t-inv F
  0.384615  0.076923  0.444444    0.00065746  96 t-inv F
  0.461538  0.076923  0.444444    0.00065746  97 t-inv F
  0.153846  0.153846  0.444444    0.00065746  98 t-inv F
  0.230769  0.153846  0.444444    0.00065746  99 t-inv F
  0.307692  0.153846  0.444444    0.00065746 100 t-inv F
  0.384615  0.153846  0.444444    0.00065746 101 t-inv F
  0.230769  0.230769  0.444444    0.00065746 102 t-inv F
  0.307692  0.230769  0.444444    0.00065746 103 t-inv F
  0.384615  0.230769  0.444444    0.00065746 104 t-inv F
  0.307692  0.307692  0.444444    0.00065746 105 t-inv F
 -0.076923 -0.000000  0.000000    0.00065746   2 t-inv F
 -0.076923  0.076923  0.000000    0.00065746   2 t-inv F
  0.076923 -0.076923  0.000000    0.00065746   2 t-inv F
  0.000000 -0.076923  0.000000    0.00065746   2 t-inv F
 -0.000000  0.076923  0.000000    0.00065746   2 t-inv F
 -0.153846 -0.000000  0.000000    0.00065746   3 t-inv F
 -0.153846  0.153846  0.000000    0.00065746   3 t-inv F
  0.153846 -0.153846  0.000000    0.00065746   3 t-inv F
  0.000000 -0.153846  0.000000    0.00065746   3 t-inv F
 -0.000000  0.153846  0.000000    0.00065746   3 t-inv F
 -0.230769 -0.000000  0.000000    0.00065746   4 t-inv F
 -0.230769  0.230769  0.000000    0.00065746   4 t-inv F
  0.230769 -0.230769  0.000000    0.00065746   4 t-inv F
  0.000000 -0.230769  0.000000    0.00065746   4 t-inv F
 -0.000000  0.230769  0.000000    0.00065746   4 t-inv F
 -0.307692 -0.000000  0.000000    0.00065746   5 t-inv F
 -0.307692  0.307692  0.000000    0.00065746   5 t-inv F
  0.307692 -0.307692  0.000000    0.00065746   5 t-inv F
  0.000000 -0.307692  0.000000    0.00065746   5 t-inv F
 -0.000000  0.307692  0.000000    0.00065746   5 t-inv F
 -0.384615 -0.000000  0.000000    0.00065746   6 t-inv F
 -0.384615  0.384615  0.000000    0.00065746   6 t-inv F
  0.384615 -0.384615  0.000000    0.00065746   6 t-inv F
  0.000000 -0.384615  0.000000    0.00065746   6 t-inv F
 -0.000000  0.384615  0.000000    0.00065746   6 t-inv F
 -0.461538 -0.000000  0.000000    0.00065746   7 t-inv F
 -0.461538  0.461538  0.000000    0.00065746   7 t-inv F
  0.461538 -0.461538  0.000000    0.00065746   7 t-inv F
  0.000000 -0.461538  0.000000    0.00065746   7 t-inv F
 -0.000000  0.461538  0.000000    0.00065746   7 t-inv F
 -0.076923 -0.076923  0.000000    0.00065746   8 t-inv F
 -0.153846  0.076923  0.000000    0.00065746   8 t-inv F
  0.153846 -0.076923  0.000000    0.00065746   8 t-inv F
  0.076923 -0.153846  0.000000    0.00065746   8 t-inv F
 -0.076923  0.153846  0.000000    0.00065746   8 t-inv F
 -0.153846 -0.076923  0.000000    0.00065746   9 t-inv F
 -0.230769  0.153846  0.000000    0.00065746   9 t-inv F
  0.230769 -0.153846  0.000000    0.00065746   9 t-inv F
  0.076923 -0.230769  0.000000    0.00065746   9 t-inv F
 -0.076923  0.230769  0.000000    0.00065746   9 t-inv F
  0.153846 -0.230769  0.000000    0.00065746   9 t-inv F
 -0.153846  0.230769  0.000000    0.00065746   9 t-inv F
 -0.230769  0.076923  0.000000    0.00065746   9 t-inv F
  0.230769 -0.076923  0.000000    0.00065746   9 t-inv F
  0.076923  0.153846  0.000000    0.00065746   9 t-inv F
 -0.076923 -0.153846  0.000000    0.00065746   9 t-inv F
 -0.230769 -0.076923  0.000000    0.00065746  10 t-inv F
 -0.307692  0.230769  0.000000    0.00065746  10 t-inv F
  0.307692 -0.230769  0.000000    0.00065746  10 t-inv F
  0.076923 -0.307692  0.000000    0.00065746  10 t-inv F
 -0.076923  0.307692  0.000000    0.00065746  10 t-inv F
  0.230769 -0.307692  0.000000    0.00065746  10 t-inv F
 -0.230769  0.307692  0.000000    0.00065746  10 t-inv F
 -0.307692  0.076923  0.000000    0.00065746  10 t-inv F
  0.307692 -0.076923  0.000000    0.00065746  10 t-inv F
  0.076923  0.230769  0.000000    0.00065746  10 t-inv F
 -0.076923 -0.230769  0.000000    0.00065746  10 t-inv F
 -0.307692 -0.076923  0.000000    0.00065746  11 t-inv F
 -0.384615  0.307692  0.000000    0.00065746  11 t-inv F
  0.384615 -0.307692  0.000000    0.00065746  11 t-inv F
  0.076923 -0.384615  0.000000    0.00065746  11 t-inv F
 -0.076923  0.384615  0.000000    0.00065746  11 t-inv F
  0.307692 -0.384615  0.000000    0.00065746  11 t-inv F
 -0.307692  0.384615  0.000000    0.00065746  11 t-inv F
 -0.384615  0.076923  0.000000    0.00065746  11 t-inv F
  0.384615 -0.076923  0.000000    0.00065746  11 t-inv F
  0.076923  0.307692  0.000000    0.00065746  11 t-inv F
 -0.076923 -0.307692  0.000000    0.00065746  11 t-inv F
 -0.384615 -0.076923  0.000000    0.00065746  12 t-inv F
 -0.461538  0.384615  0.000000    0.00065746  12 t-inv F
  0.461538 -0.384615  0.000000    0.00065746  12 t-inv F
  0.076923 -0.461538  0.000000    0.00065746  12 t-inv F
 -0.076923  0.461538  0.000000    0.00065746  12 t-inv F
  0.384615 -0.461538  0.000000    0.00065746  12 t-inv F
 -0.384615  0.461538  0.000000    0.00065746  12 t-inv F
 -0.461538  0.076923  0.000000    0.00065746  12 t-inv F
  0.461538 -0.076923  0.000000    0.00065746  12 t-inv F
  0.076923  0.384615  0.000000    0.00065746  12 t-inv F
 -0.076923 -0.384615  0.000000    0.00065746  12 t-inv F
 -0.461538 -0.076923  0.000000    0.00065746  13 t-inv F
 -0.538462  0.461538  0.000000    0.00065746  13 t-inv F
  0.538462 -0.461538  0.000000    0.00065746  13 t-inv F
  0.076923 -0.538462  0.000000    0.00065746  13 t-inv F
 -0.076923  0.538462  0.000000    0.00065746  13 t-inv F
 -0.153846 -0.153846  0.000000    0.00065746  14 t-inv F
 -0.307692  0.153846  0.000000    0.00065746  14 t-inv F
  0.307692 -0.153846  0.000000    0.00065746  14 t-inv F
  0.153846 -0.307692  0.000000    0.00065746  14 t-inv F
 -0.153846  0.307692  0.000000    0.00065746  14 t-inv F
 -0.230769 -0.153846  0.000000    0.00065746  15 t-inv F
 -0.384615  0.230769  0.000000    0.00065746  15 t-inv F
  0.384615 -0.230769  0.000000    0.00065746  15 t-inv F
  0.153846 -0.384615  0.000000    0.00065746  15 t-inv F
 -0.153846  0.384615  0.000000    0.00065746  15 t-inv F
  0.230769 -0.384615  0.000000    0.00065746  15 t-inv F
 -0.230769  0.384615  0.000000    0.00065746  15 t-inv F
 -0.384615  0.153846  0.000000    0.00065746  15 t-inv F
  0.384615 -0.153846  0.000000    0.00065746  15 t-inv F
  0.153846  0.230769  0.000000    0.00065746  15 t-inv F
 -0.153846 -0.230769  0.000000    0.00065746  15 t-inv F
 -0.307692 -0.153846  0.000000    0.00065746  16 t-inv F
 -0.461538  0.307692  0.000000    0.00065746  16 t-inv F
  0.461538 -0.307692  0.000000    0.00065746  16 t-inv F
  0.153846 -0.461538  0.000000    0.00065746  16 t-inv F
 -0.153846  0.461538  0.000000    0.00065746  16 t-inv F
  0.307692 -0.461538  0.000000    0.00065746  16 t-inv F
 -0.307692  0.461538  0.000000    0.00065746  16 t-inv F
 -0.461538  0.153846  0.000000    0.00065746  16 t-inv F
  0.461538 -0.153846  0.000000    0.00065746  16 t-inv F
  0.153846  0.307692  0.000000    0.00065746  16 t-inv F
 -0.153846 -0.307692  0.000000    0.00065746  16 t-inv F
 -0.384615 -0.153846  0.000000    0.00065746  17 t-inv F
 -0.538462  0.384615  0.000000    0.00065746  17 t-inv F
  0.538462 -0.384615  0.000000    0.00065746  17 t-inv F
  0.153846 -0.538462  0.000000    0.00065746  17 t-inv F
 -0.153846  0.538462  0.000000    0.00065746  17 t-inv F
  0.384615 -0.538462  0.000000    0.00065746  17 t-inv F
 -0.384615  0.538462  0.000000    0.00065746  17 t-inv F
 -0.538462  0.153846  0.000000    0.00065746  17 t-inv F
  0.538462 -0.153846  0.000000    0.00065746  17 t-inv F
  0.153846  0.384615  0.000000    0.00065746  17 t-inv F
 -0.153846 -0.384615  0.000000    0.00065746  17 t-inv F
 -0.230769 -0.230769  0.000000    0.00065746  18 t-inv F
 -0.461538  0.230769  0.000000    0.00065746  18 t-inv F
  0.461538 -0.230769  0.000000    0.00065746  18 t-inv F
  0.230769 -0.461538  0.000000    0.00065746  18 t-inv F
 -0.230769  0.461538  0.000000    0.00065746  18 t-inv F
 -0.307692 -0.230769  0.000000    0.00065746  19 t-inv F
 -0.538462  0.307692  0.000000    0.00065746  19 t-inv F
  0.538462 -0.307692  0.000000    0.00065746  19 t-inv F
  0.230769 -0.538462  0.000000    0.00065746  19 t-inv F
 -0.230769  0.538462  0.000000    0.00065746  19 t-inv F
  0.307692 -0.538462  0.000000    0.00065746  19 t-inv F
 -0.307692  0.538462  0.000000    0.00065746  19 t-inv F
 -0.538462  0.230769  0.000000    0.00065746  19 t-inv F
  0.538462 -0.230769  0.000000    0.00065746  19 t-inv F
  0.230769  0.307692  0.000000    0.00065746  19 t-inv F
 -0.230769 -0.307692  0.000000    0.00065746  19 t-inv F
 -0.384615 -0.230769  0.000000    0.00065746  20 t-inv F
 -0.615385  0.384615  0.000000    0.00065746  20 t-inv F
  0.615385 -0.384615  0.000000    0.00065746  20 t-inv F
  0.230769 -0.615385  0.000000    0.00065746  20 t-inv F
 -0.230769  0.615385  0.000000    0.00065746  20 t-inv F
 -0.307692 -0.307692  0.000000    0.00065746  21 t-inv F
 -0.615385  0.307692  0.000000    0.00065746  21 t-inv F
  0.615385 -0.307692  0.000000    0.00065746  21 t-inv F
  0.307692 -0.615385  0.000000    0.00065746  21 t-inv F
 -0.307692  0.615385  0.000000    0.00065746  21 t-inv F
  0.000000  0.000000 -0.111111    0.00065746  22 t-inv F
 -0.076923 -0.000000 -0.111111    0.00065746  23 t-inv F
 -0.076923  0.076923  0.111111    0.00065746  23 t-inv F
  0.076923 -0.076923 -0.111111    0.00065746  23 t-inv F
  0.000000 -0.076923  0.111111    0.00065746  23 t-inv F
 -0.000000  0.076923 -0.111111    0.00065746  23 t-inv F
 -0.000000  0.076923  0.111111    0.00065746  23 t-inv F
  0.000000 -0.076923 -0.111111    0.00065746  23 t-inv F
 -0.076923 -0.000000  0.111111    0.00065746  23 t-inv F
  0.076923  0.000000 -0.111111    0.00065746  23 t-inv F
  0.076923 -0.076923  0.111111    0.00065746  23 t-inv F
 -0.076923  0.076923 -0.111111    0.00065746  23 t-inv F
 -0.153846 -0.000000 -0.111111    0.00065746  24 t-inv F
 -0.153846  0.153846  0.111111    0.00065746  24 t-inv F
  0.153846 -0.153846 -0.111111    0.00065746  24 t-inv F
  0.000000 -0.153846  0.111111    0.00065746  24 t-inv F
 -0.000000  0.153846 -0.111111    0.00065746  24 t-inv F
 -0.000000  0.153846  0.111111    0.00065746  24 t-inv F
  0.000000 -0.153846 -0.111111    0.00065746  24 t-inv F
 -0.153846 -0.000000  0.111111    0.00065746  24 t-inv F
  0.153846  0.000000 -0.111111    0.00065746  24 t-inv F
  0.153846 -0.153846  0.111111    0.00065746  24 t-inv F
 -0.153846  0.153846 -0.111111    0.00065746  24 t-inv F
 -0.230769 -0.000000 -0.111111    0.00065746  25 t-inv F
 -0.230769  0.230769  0.111111    0.00065746  25 t-inv F
  0.230769 -0.230769 -0.111111    0.00065746  25 t-inv F
  0.000000 -0.230769  0.111111    0.00065746  25 t-inv F
 -0.000000  0.230769 -0.111111    0.00065746  25 t-inv F
 -0.000000  0.230769  0.111111    0.00065746  25 t-inv F
  0.000000 -0.230769 -0.111111    0.00065746  25 t-inv F
 -0.230769 -0.000000  0.111111    0.00065746  25 t-inv F
  0.230769  0.000000 -0.111111    0.00065746  25 t-inv F
  0.230769 -0.230769  0.111111    0.00065746  25 t-inv F
 -0.230769  0.230769 -0.111111    0.00065746  25 t-inv F
 -0.307692 -0.000000 -0.111111    0.00065746  26 t-inv F
 -0.307692  0.307692  0.111111    0.00065746  26 t-inv F
  0.307692 -0.307692 -0.111111    0.00065746  26 t-inv F
  0.000000 -0.307692  0.111111    0.00065746  26 t-inv F
 -0.000000  0.307692 -0.111111    0.00065746  26 t-inv F
 -0.000000  0.307692  0.111111    0.00065746  26 t-inv F
  0.000000 -0.307692 -0.111111    0.00065746  26 t-inv F
 -0.307692 -0.000000  0.111111    0.00065746  26 t-inv F
  0.307692  0.000000 -0.111111    0.00065746  26 t-inv F
  0.307692 -0.307692  0.111111    0.00065746  26 t-inv F
 -0.307692  0.307692 -0.111111    0.00065746  26 t-inv F
 -0.384615 -0.000000 -0.111111    0.00065746  27 t-inv F
 -0.384615  0.384615  0.111111    0.00065746  27 t-inv F
  0.384615 -0.384615 -0.111111    0.00065746  27 t-inv F
  0.000000 -0.384615  0.111111    0.00065746  27 t-inv F
 -0.000000  0.384615 -0.111111    0.00065746  27 t-inv F
 -0.000000  0.384615  0.111111    0.00065746  27 t-inv F
  0.000000 -0.384615 -0.111111    0.00065746  27 t-inv F
 -0.384615 -0.000000  0.111111    0.00065746  27 t-inv F
  0.384615  0.000000 -0.111111    0.00065746  27 t-inv F
  0.384615 -0.384615  0.111111    0.00065746  27 t-inv F
 -0.384615  0.384615 -0.111111    0.00065746  27 t-inv F
 -0.461538 -0.000000 -0.111111    0.00065746  28 t-inv F
 -0.461538  0.461538  0.111111    0.00065746  28 t-inv F
  0.461538 -0.461538 -0.111111    0.00065746  28 t-inv F
  0.000000 -0.461538  0.111111    0.00065746  28 t-inv F
 -0.000000  0.461538 -0.111111    0.00065746  28 t-inv F
 -0.000000  0.461538  0.111111    0.00065746  28 t-inv F
  0.000000 -0.461538 -0.111111    0.00065746  28 t-inv F
 -0.461538 -0.000000  0.111111    0.00065746  28 t-inv F
  0.461538  0.000000 -0.111111    0.00065746  28 t-inv F
  0.461538 -0.461538  0.111111    0.00065746  28 t-inv F
 -0.461538  0.461538 -0.111111    0.00065746  28 t-inv F
 -0.076923 -0.076923 -0.111111    0.00065746  29 t-inv F
 -0.153846  0.076923  0.111111    0.00065746  29 t-inv F
  0.153846 -0.076923 -0.111111    0.00065746  29 t-inv F
  0.076923 -0.153846  0.111111    0.00065746  29 t-inv F
 -0.076923  0.153846 -0.111111    0.00065746  29 t-inv F
  0.076923 -0.153846 -0.111111    0.00065746  29 t-inv F
 -0.076923  0.153846  0.111111    0.00065746  29 t-inv F
 -0.153846  0.076923 -0.111111    0.00065746  29 t-inv F
  0.153846 -0.076923  0.111111    0.00065746  29 t-inv F
  0.076923  0.076923 -0.111111    0.00065746  29 t-inv F
 -0.076923 -0.076923  0.111111    0.00065746  29 t-inv F
 -0.153846 -0.076923 -0.111111    0.00065746  30 t-inv F
 -0.230769  0.153846  0.111111    0.00065746  30 t-inv F
  0.230769 -0.153846 -0.111111    0.00065746  30 t-inv F
  0.076923 -0.230769  0.111111    0.00065746  30 t-inv F
 -0.076923  0.230769 -0.111111    0.00065746  30 t-inv F
  0.153846 -0.230769 -0.111111    0.00065746  30 t-inv F
 -0.153846  0.230769  0.111111    0.00065746  30 t-inv F
 -0.230769  0.076923 -0.111111    0.00065746  30 t-inv F
  0.230769 -0.076923  0.111111    0.00065746  30 t-inv F
  0.076923  0.153846 -0.111111    0.00065746  30 t-inv F
 -0.076923 -0.153846  0.111111    0.00065746  30 t-inv F
 -0.076923  0.230769  0.111111    0.00065746  30 t-inv F
  0.076923 -0.230769 -0.111111    0.00065746  30 t-inv F
 -0.153846 -0.076923  0.111111    0.00065746  30 t-inv F
  0.153846  0.076923 -0.111111    0.00065746  30 t-inv F
  0.230769 -0.153846  0.111111    0.00065746  30 t-inv F
 -0.230769  0.153846 -0.111111    0.00065746  30 t-inv F
 -0.076923 -0.153846 -0.111111    0.00065746  30 t-inv F
  0.076923  0.153846  0.111111    0.00065746  30 t-inv F
 -0.153846  0.230769 -0.111111    0.00065746  30 t-inv F
  0.153846 -0.230769  0.111111    0.00065746  30 t-inv F
  0.230769 -0.076923 -0.111111    0.00065746  30 t-inv F
 -0.230769  0.076923  0.111111    0.00065746  30 t-inv F
 -0.230769 -0.076923 -0.111111    0.00065746  31 t-inv F
 -0.307692  0.230769  0.111111    0.00065746  31 t-inv F
  0.307692 -0.230769 -0.111111    0.00065746  31 t-inv F
  0.076923 -0.307692  0.111111    0.00065746  31 t-inv F
 -0.076923  0.307692 -0.111111    0.00065746  31 t-inv F
  0.230769 -0.307692 -0.111111    0.00065746  31 t-inv F
 -0.230769  0.307692  0.111111    0.00065746  31 t-inv F
 -0.307692  0.076923 -0.111111    0.00065746  31 t-inv F
  0.307692 -0.076923  0.111111    0.00065746  31 t-inv F
  0.076923  0.230769 -0.111111    0.00065746  31 t-inv F
 -0.076923 -0.230769  0.111111    0.00065746  31 t-inv F
 -0.076923  0.307692  0.111111    0.00065746  31 t-inv F
  0.076923 -0.307692 -0.111111    0.00065746  31 t-inv F
 -0.230769 -0.076923  0.111111    0.00065746  31 t-inv F
  0.230769  0.076923 -0.111111    0.00065746  31 t-inv F
  0.307692 -0.230769  0.111111    0.00065746  31 t-inv F
 -0.307692  0.230769 -0.111111    0.00065746  31 t-inv F
 -0.076923 -0.230769 -0.111111    0.00065746  31 t-inv F
  0.076923  0.230769  0.111111    0.00065746  31 t-inv F
 -0.230769  0.307692 -0.111111    0.00065746  31 t-inv F
  0.230769 -0.307692  0.111111    0.00065746  31 t-inv F
  0.307692 -0.076923 -0.111111    0.00065746  31 t-inv F
 -0.307692  0.076923  0.111111    0.00065746  31 t-inv F
 -0.307692 -0.076923 -0.111111    0.00065746  32 t-inv F
 -0.384615  0.307692  0.111111    0.00065746  32 t-inv F
  0.384615 -0.307692 -0.111111    0.00065746  32 t-inv F
  0.076923 -0.384615  0.111111    0.00065746  32 t-inv F
 -0.076923  0.384615 -0.111111    0.00065746  32 t-inv F
  0.307692 -0.384615 -0.111111    0.00065746  32 t-inv F
 -0.307692  0.384615  0.111111    0.00065746  32 t-inv F
 -0.384615  0.076923 -0.111111    0.00065746  32 t-inv F
  0.384615 -0.076923  0.111111    0.00065746  32 t-inv F
  0.076923  0.307692 -0.111111    0.00065746  32 t-inv F
 -0.076923 -0.307692  0.111111    0.00065746  32 t-inv F
 -0.076923  0.384615  0.111111    0.00065746  32 t-inv F
  0.076923 -0.384615 -0.111111    0.00065746  32 t-inv F
 -0.307692 -0.076923  0.111111    0.00065746  32 t-inv F
  0.307692  0.076923 -0.111111    0.00065746  32 t-inv F
  0.384615 -0.307692  0.111111    0.00065746  32 t-inv F
 -0.384615  0.307692 -0.111111    0.00065746  32 t-inv F
 -0.076923 -0.307692 -0.111111    0.00065746  32 t-inv F
  0.076923  0.307692  0.111111    0.00065746  32 t-inv F
 -0.307692  0.384615 -0.111111    0.00065746  32 t-inv F
  0.307692 -0.384615  0.111111    0.00065746  32 t-inv F
  0.384615 -0.076923 -0.111111    0.00065746  32 t-inv F
 -0.384615  0.076923  0.111111    0.00065746  32 t-inv F
 -0.384615 -0.076923 -0.111111    0.00065746  33 t-inv F
 -0.461538  0.384615  0.111111    0.00065746  33 t-inv F
  0.461538 -0.384615 -0.111111    0.00065746  33 t-inv F
  0.076923 -0.461538  0.111111    0.00065746  33 t-inv F
 -0.076923  0.461538 -0.111111    0.00065746  33 t-inv F
  0.384615 -0.461538 -0.111111    0.00065746  33 t-inv F
 -0.384615  0.461538  0.111111    0.00065746  33 t-inv F
 -0.461538  0.076923 -0.111111    0.00065746  33 t-inv F
  0.461538 -0.076923  0.111111    0.00065746  33 t-inv F
  0.076923  0.384615 -0.111111    0.00065746  33 t-inv F
 -0.076923 -0.384615  0.111111    0.00065746  33 t-inv F
 -0.076923  0.461538  0.111111    0.00065746  33 t-inv F
  0.076923 -0.461538 -0.111111    0.00065746  33 t-inv F
 -0.384615 -0.076923  0.111111    0.00065746  33 t-inv F
  0.384615  0.076923 -0.111111    0.00065746  33 t-inv F
  0.461538 -0.384615  0.111111    0.00065746  33 t-inv F
 -0.461538  0.384615 -0.111111    0.00065746  33 t-inv F
 -0.076923 -0.384615 -0.111111    0.00065746  33 t-inv F
  0.076923  0.384615  0.111111    0.00065746  33 t-inv F
 -0.384615  0.461538 -0.111111    0.00065746  33 t-inv F
  0.384615 -0.461538  0.111111    0.00065746  33 t-inv F
  0.461538 -0.076923 -0.111111    0.00065746  33 t-inv F
 -0.461538  0.076923  0.111111    0.00065746  33 t-inv F
 -0.461538 -0.076923 -0.111111    0.00065746  34 t-inv F
 -0.538462  0.461538  0.111111    0.00065746  34 t-inv F
  0.538462 -0.461538 -0.111111    0.00065746  34 t-inv F
  0.076923 -0.538462  0.111111    0.00065746  34 t-inv F
 -0.076923  0.538462 -0.111111    0.00065746  34 t-inv F
  0.461538 -0.538462 -0.111111    0.00065746  34 t-inv F
 -0.461538  0.538462  0.111111    0.00065746  34 t-inv F
 -0.538462  0.076923 -0.111111    0.00065746  34 t-inv F
  0.538462 -0.076923  0.111111    0.00065746  34 t-inv F
  0.076923  0.461538 -0.111111    0.00065746  34 t-inv F
 -0.076923 -0.461538  0.111111    0.00065746  34 t-inv F
 -0.153846 -0.153846 -0.111111    0.00065746  35 t-inv F
 -0.307692  0.153846  0.111111    0.00065746  35 t-inv F
  0.307692 -0.153846 -0.111111    0.00065746  35 t-inv F
  0.153846 -0.307692  0.111111    0.00065746  35 t-inv F
 -0.153846  0.307692 -0.111111    0.00065746  35 t-inv F
  0.153846 -0.307692 -0.111111    0.00065746  35 t-inv F
 -0.153846  0.307692  0.111111    0.00065746  35 t-inv F
 -0.307692  0.153846 -0.111111    0.00065746  35 t-inv F
  0.307692 -0.153846  0.111111    0.00065746  35 t-inv F
  0.153846  0.153846 -0.111111    0.00065746  35 t-inv F
 -0.153846 -0.153846  0.111111    0.00065746  35 t-inv F
 -0.230769 -0.153846 -0.111111    0.00065746  36 t-inv F
 -0.384615  0.230769  0.111111    0.00065746  36 t-inv F
  0.384615 -0.230769 -0.111111    0.00065746  36 t-inv F
  0.153846 -0.384615  0.111111    0.00065746  36 t-inv F
 -0.153846  0.384615 -0.111111    0.00065746  36 t-inv F
  0.230769 -0.384615 -0.111111    0.00065746  36 t-inv F
 -0.230769  0.384615  0.111111    0.00065746  36 t-inv F
 -0.384615  0.153846 -0.111111    0.00065746  36 t-inv F
  0.384615 -0.153846  0.111111    0.00065746  36 t-inv F
  0.153846  0.230769 -0.111111    0.00065746  36 t-inv F
 -0.153846 -0.230769  0.111111    0.00065746  36 t-inv F
 -0.153846  0.384615  0.111111    0.00065746  36 t-inv F
  0.153846 -0.384615 -0.111111    0.00065746  36 t-inv F
 -0.230769 -0.153846  0.111111    0.00065746  36 t-inv F
  0.230769  0.153846 -0.111111    0.00065746  36 t-inv F
  0.384615 -0.230769  0.111111    0.00065746  36 t-inv F
 -0.384615  0.230769 -0.111111    0.00065746  36 t-inv F
 -0.153846 -0.230769 -0.111111    0.00065746  36 t-inv F
  0.153846  0.230769  0.111111    0.00065746  36 t-inv F
 -0.230769  0.384615 -0.111111    0.00065746  36 t-inv F
  0.230769 -0.384615  0.111111    0.00065746  36 t-inv F
  0.384615 -0.153846 -0.111111    0.00065746  36 t-inv F
 -0.384615  0.153846  0.111111    0.00065746  36 t-inv F
 -0.307692 -0.153846 -0.111111    0.00065746  37 t-inv F
 -0.461538  0.307692  0.111111    0.00065746  37 t-inv F
  0.461538 -0.307692 -0.111111    0.00065746  37 t-inv F
  0.153846 -0.461538  0.111111    0.00065746  37 t-inv F
 -0.153846  0.461538 -0.111111    0.00065746  37 t-inv F
  0.307692 -0.461538 -0.111111    0.00065746  37 t-inv F
 -0.307692  0.461538  0.111111    0.00065746  37 t-inv F
 -0.461538  0.153846 -0.111111    0.00065746  37 t-inv F
  0.461538 -0.153846  0.111111    0.00065746  37 t-inv F
  0.153846  0.307692 -0.111111    0.00065746  37 t-inv F
 -0.153846 -0.307692  0.111111    0.00065746  37 t-inv F
 -0.153846  0.461538  0.111111    0.00065746  37 t-inv F
  0.153846 -0.461538 -0.111111    0.00065746  37 t-inv F
 -0.307692 -0.153846  0.111111    0.00065746  37 t-inv F
  0.307692  0.153846 -0.111111    0.00065746  37 t-inv F
  0.461538 -0.307692  0.111111    0.00065746  37 t-inv F
 -0.461538  0.307692 -0.111111    0.00065746  37 t-inv F
 -0.153846 -0.307692 -0.111111    0.00065746  37 t-inv F
  0.153846  0.307692  0.111111    0.00065746  37 t-inv F
 -0.307692  0.461538 -0.111111    0.00065746  37 t-inv F
  0.307692 -0.461538  0.111111    0.00065746  37 t-inv F
  0.461538 -0.153846 -0.111111    0.00065746  37 t-inv F
 -0.461538  0.153846  0.111111    0.00065746  37 t-inv F
 -0.384615 -0.153846 -0.111111    0.00065746  38 t-inv F
 -0.538462  0.384615  0.111111    0.00065746  38 t-inv F
  0.538462 -0.384615 -0.111111    0.00065746  38 t-inv F
  0.153846 -0.538462  0.111111    0.00065746  38 t-inv F
 -0.153846  0.538462 -0.111111    0.00065746  38 t-inv F
  0.384615 -0.538462 -0.111111    0.00065746  38 t-inv F
 -0.384615  0.538462  0.111111    0.00065746  38 t-inv F
 -0.538462  0.153846 -0.111111    0.00065746  38 t-inv F
  0.538462 -0.153846  0.111111    0.00065746  38 t-inv F
  0.153846  0.384615 -0.111111    0.00065746  38 t-inv F
 -0.153846 -0.384615  0.111111    0.00065746  38 t-inv F
 -0.153846  0.538462  0.111111    0.00065746  38 t-inv F
  0.153846 -0.538462 -0.111111    0.00065746  38 t-inv F
 -0.384615 -0.153846  0.111111    0.00065746  38 t-inv F
  0.384615  0.153846 -0.111111    0.00065746  38 t-inv F
  0.538462 -0.384615  0.111111    0.00065746  38 t-inv F
 -0.538462  0.384615 -0.111111    0.00065746  38 t-inv F
 -0.153846 -0.384615 -0.111111    0.00065746  38 t-inv F
  0.153846  0.384615  0.111111    0.00065746  38 t-inv F
 -0.384615  0.538462 -0.111111    0.00065746  38 t-inv F
  0.384615 -0.538462  0.111111    0.00065746  38 t-inv F
  0.538462 -0.153846 -0.111111    0.00065746  38 t-inv F
 -0.538462  0.153846  0.111111    0.00065746  38 t-inv F
 -0.230769 -0.230769 -0.111111    0.00065746  39 t-inv F
 -0.461538  0.230769  0.111111    0.00065746  39 t-inv F
  0.461538 -0.230769 -0.111111    0.00065746  39 t-inv F
  0.230769 -0.461538  0.111111    0.00065746  39 t-inv F
 -0.230769  0.461538 -0.111111    0.00065746  39 t-inv F
  0.230769 -0.461538 -0.111111    0.00065746  39 t-inv F
 -0.230769  0.461538  0.111111    0.00065746  39 t-inv F
 -0.461538  0.230769 -0.111111    0.00065746  39 t-inv F
  0.461538 -0.230769  0.111111    0.00065746  39 t-inv F
  0.230769  0.230769 -0.111111    0.00065746  39 t-inv F
 -0.230769 -0.230769  0.111111    0.00065746  39 t-inv F
 -0.307692 -0.230769 -0.111111    0.00065746  40 t-inv F
 -0.538462  0.307692  0.111111    0.00065746  40 t-inv F
  0.538462 -0.307692 -0.111111    0.00065746  40 t-inv F
  0.230769 -0.538462  0.111111    0.00065746  40 t-inv F
 -0.230769  0.538462 -0.111111    0.00065746  40 t-inv F
  0.307692 -0.538462 -0.111111    0.00065746  40 t-inv F
 -0.307692  0.538462  0.111111    0.00065746  40 t-inv F
 -0.538462  0.230769 -0.111111    0.00065746  40 t-inv F
  0.538462 -0.230769  0.111111    0.00065746  40 t-inv F
  0.230769  0.307692 -0.111111    0.00065746  40 t-inv F
 -0.230769 -0.307692  0.111111    0.00065746  40 t-inv F
 -0.230769  0.538462  0.111111    0.00065746  40 t-inv F
  0.230769 -0.538462 -0.111111    0.00065746  40 t-inv F
 -0.307692 -0.230769  0.111111    0.00065746  40 t-inv F
  0.307692  0.230769 -0.111111    0.00065746  40 t-inv F
  0.538462 -0.307692  0.111111    0.00065746  40 t-inv F
 -0.538462  0.307692 -0.111111    0.00065746  40 t-inv F
 -0.230769 -0.307692 -0.111111    0.00065746  40 t-inv F
  0.230769  0.307692  0.111111    0.00065746  40 t-inv F
 -0.307692  0.538462 -0.111111    0.00065746  40 t-inv F
  0.307692 -0.538462  0.111111    0.00065746  40 t-inv F
  0.538462 -0.230769 -0.111111    0.00065746  40 t-inv F
 -0.538462  0.230769  0.111111    0.00065746  40 t-inv F
 -0.384615 -0.230769 -0.111111    0.00065746  41 t-inv F
 -0.615385  0.384615  0.111111    0.00065746  41 t-inv F
  0.615385 -0.384615 -0.111111    0.00065746  41 t-inv F
  0.230769 -0.615385  0.111111    0.00065746  41 t-inv F
 -0.230769  0.615385 -0.111111    0.00065746  41 t-inv F
  0.384615 -0.615385 -0.111111    0.00065746  41 t-inv F
 -0.384615  0.615385  0.111111    0.00065746  41 t-inv F
 -0.615385  0.230769 -0.111111    0.00065746  41 t-inv F
  0.615385 -0.230769  0.111111    0.00065746  41 t-inv F
  0.230769  0.384615 -0.111111    0.00065746  41 t-inv F
 -0.230769 -0.384615  0.111111    0.00065746  41 t-inv F
 -0.307692 -0.307692 -0.111111    0.00065746  42 t-inv F
 -0.615385  0.307692  0.111111    0.00065746  42 t-inv F
  0.615385 -0.307692 -0.111111    0.00065746  42 t-inv F
  0.307692 -0.615385  0.111111    0.00065746  42 t-inv F
 -0.307692  0.615385 -0.111111    0.00065746  42 t-inv F
  0.307692 -0.615385 -0.111111    0.00065746  42 t-inv F
 -0.307692  0.615385  0.111111    0.00065746  42 t-inv F
 -0.615385  0.307692 -0.111111    0.00065746  42 t-inv F
  0.615385 -0.307692  0.111111    0.00065746  42 t-inv F
  0.307692  0.307692 -0.111111    0.00065746  42 t-inv F
 -0.307692 -0.307692  0.111111    0.00065746  42 t-inv F
  0.000000  0.000000 -0.222222    0.00065746  43 t-inv F
 -0.076923 -0.000000 -0.222222    0.00065746  44 t-inv F
 -0.076923  0.076923  0.222222    0.00065746  44 t-inv F
  0.076923 -0.076923 -0.222222    0.00065746  44 t-inv F
  0.000000 -0.076923  0.222222    0.00065746  44 t-inv F
 -0.000000  0.076923 -0.222222    0.00065746  44 t-inv F
 -0.000000  0.076923  0.222222    0.00065746  44 t-inv F
  0.000000 -0.076923 -0.222222    0.00065746  44 t-inv F
 -0.076923 -0.000000  0.222222    0.00065746  44 t-inv F
  0.076923  0.000000 -0.222222    0.00065746  44 t-inv F
  0.076923 -0.076923  0.222222    0.00065746  44 t-inv F
 -0.076923  0.076923 -0.222222    0.00065746  44 t-inv F
 -0.153846 -0.000000 -0.222222    0.00065746  45 t-inv F
 -0.153846  0.153846  0.222222    0.00065746  45 t-inv F
  0.153846 -0.153846 -0.222222    0.00065746  45 t-inv F
  0.000000 -0.153846  0.222222    0.00065746  45 t-inv F
 -0.000000  0.153846 -0.222222    0.00065746  45 t-inv F
 -0.000000  0.153846  0.222222    0.00065746  45 t-inv F
  0.000000 -0.153846 -0.222222    0.00065746  45 t-inv F
 -0.153846 -0.000000  0.222222    0.00065746  45 t-inv F
  0.153846  0.000000 -0.222222    0.00065746  45 t-inv F
  0.153846 -0.153846  0.222222    0.00065746  45 t-inv F
 -0.153846  0.153846 -0.222222    0.00065746  45 t-inv F
 -0.230769 -0.000000 -0.222222    0.00065746  46 t-inv F
 -0.230769  0.230769  0.222222    0.00065746  46 t-inv F
  0.230769 -0.230769 -0.222222    0.00065746  46 t-inv F
  0.000000 -0.230769  0.222222    0.00065746  46 t-inv F
 -0.000000  0.230769 -0.222222    0.00065746  46 t-inv F
 -0.000000  0.230769  0.222222    0.00065746  46 t-inv F
  0.000000 -0.230769 -0.222222    0.00065746  46 t-inv F
 -0.230769 -0.000000  0.222222    0.00065746  46 t-inv F
  0.230769  0.000000 -0.222222    0.00065746  46 t-inv F
  0.230769 -0.230769  0.222222    0.00065746  46 t-inv F
 -0.230769  0.230769 -0.222222    0.00065746  46 t-inv F
 -0.307692 -0.000000 -0.222222    0.00065746  47 t-inv F
 -0.307692  0.307692  0.222222    0.00065746  47 t-inv F
  0.307692 -0.307692 -0.222222    0.00065746  47 t-inv F
  0.000000 -0.307692  0.222222    0.00065746  47 t-inv F
 -0.000000  0.307692 -0.222222    0.00065746  47 t-inv F
 -0.000000  0.307692  0.222222    0.00065746  47 t-inv F
  0.000000 -0.307692 -0.222222    0.00065746  47 t-inv F
 -0.307692 -0.000000  0.222222    0.00065746  47 t-inv F
  0.307692  0.000000 -0.222222    0.00065746  47 t-inv F
  0.307692 -0.307692  0.222222    0.00065746  47 t-inv F
 -0.307692  0.307692 -0.222222    0.00065746  47 t-inv F
 -0.384615 -0.000000 -0.222222    0.00065746  48 t-inv F
 -0.384615  0.384615  0.222222    0.00065746  48 t-inv F
  0.384615 -0.384615 -0.222222    0.00065746  48 t-inv F
  0.000000 -0.384615  0.222222    0.00065746  48 t-inv F
 -0.000000  0.384615 -0.222222    0.00065746  48 t-inv F
 -0.000000  0.384615  0.222222    0.00065746  48 t-inv F
  0.000000 -0.384615 -0.222222    0.00065746  48 t-inv F
 -0.384615 -0.000000  0.222222    0.00065746  48 t-inv F
  0.384615  0.000000 -0.222222    0.00065746  48 t-inv F
  0.384615 -0.384615  0.222222    0.00065746  48 t-inv F
 -0.384615  0.384615 -0.222222    0.00065746  48 t-inv F
 -0.461538 -0.000000 -0.222222    0.00065746  49 t-inv F
 -0.461538  0.461538  0.222222    0.00065746  49 t-inv F
  0.461538 -0.461538 -0.222222    0.00065746  49 t-inv F
  0.000000 -0.461538  0.222222    0.00065746  49 t-inv F
 -0.000000  0.461538 -0.222222    0.00065746  49 t-inv F
 -0.000000  0.461538  0.222222    0.00065746  49 t-inv F
  0.000000 -0.461538 -0.222222    0.00065746  49 t-inv F
 -0.461538 -0.000000  0.222222    0.00065746  49 t-inv F
  0.461538  0.000000 -0.222222    0.00065746  49 t-inv F
  0.461538 -0.461538  0.222222    0.00065746  49 t-inv F
 -0.461538  0.461538 -0.222222    0.00065746  49 t-inv F
 -0.076923 -0.076923 -0.222222    0.00065746  50 t-inv F
 -0.153846  0.076923  0.222222    0.00065746  50 t-inv F
  0.153846 -0.076923 -0.222222    0.00065746  50 t-inv F
  0.076923 -0.153846  0.222222    0.00065746  50 t-inv F
 -0.076923  0.153846 -0.222222    0.00065746  50 t-inv F
  0.076923 -0.153846 -0.222222    0.00065746  50 t-inv F
 -0.076923  0.153846  0.222222    0.00065746  50 t-inv F
 -0.153846  0.076923 -0.222222    0.00065746  50 t-inv F
  0.153846 -0.076923  0.222222    0.00065746  50 t-inv F
  0.076923  0.076923 -0.222222    0.00065746  50 t-inv F
 -0.076923 -0.076923  0.222222    0.00065746  50 t-inv F
 -0.153846 -0.076923 -0.222222    0.00065746  51 t-inv F
 -0.230769  0.153846  0.222222    0.00065746  51 t-inv F
  0.230769 -0.153846 -0.222222    0.00065746  51 t-inv F
  0.076923 -0.230769  0.222222    0.00065746  51 t-inv F
 -0.076923  0.230769 -0.222222    0.00065746  51 t-inv F
  0.153846 -0.230769 -0.222222    0.00065746  51 t-inv F
 -0.153846  0.230769  0.222222    0.00065746  51 t-inv F
 -0.230769  0.076923 -0.222222    0.00065746  51 t-inv F
  0.230769 -0.076923  0.222222    0.00065746  51 t-inv F
  0.076923  0.153846 -0.222222    0.00065746  51 t-inv F
 -0.076923 -0.153846  0.222222    0.00065746  51 t-inv F
 -0.076923  0.230769  0.222222    0.00065746  51 t-inv F
  0.076923 -0.230769 -0.222222    0.00065746  51 t-inv F
 -0.153846 -0.076923  0.222222    0.00065746  51 t-inv F
  0.153846  0.076923 -0.222222    0.00065746  51 t-inv F
  0.230769 -0.153846  0.222222    0.00065746  51 t-inv F
 -0.230769  0.153846 -0.222222    0.00065746  51 t-inv F
 -0.076923 -0.153846 -0.222222    0.00065746  51 t-inv F
  0.076923  0.153846  0.222222    0.00065746  51 t-inv F
 -0.153846  0.230769 -0.222222    0.00065746  51 t-inv F
  0.153846 -0.230769  0.222222    0.00065746  51 t-inv F
  0.230769 -0.076923 -0.222222    0.00065746  51 t-inv F
 -0.230769  0.076923  0.222222    0.00065746  51 t-inv F
 -0.230769 -0.076923 -0.222222    0.00065746  52 t-inv F
 -0.307692  0.230769  0.222222    0.00065746  52 t-inv F
  0.307692 -0.230769 -0.222222    0.00065746  52 t-inv F
  0.076923 -0.307692  0.222222    0.00065746  52 t-inv F
 -0.076923  0.307692 -0.222222    0.00065746  52 t-inv F
  0.230769 -0.307692 -0.222222    0.00065746  52 t-inv F
 -0.230769  0.307692  0.222222    0.00065746  52 t-inv F
 -0.307692  0.076923 -0.222222    0.00065746  52 t-inv F
  0.307692 -0.076923  0.222222    0.00065746  52 t-inv F
  0.076923  0.230769 -0.222222    0.00065746  52 t-inv F
 -0.076923 -0.230769  0.222222    0.00065746  52 t-inv F
 -0.076923  0.307692  0.222222    0.00065746  52 t-inv F
  0.076923 -0.307692 -0.222222    0.00065746  52 t-inv F
 -0.230769 -0.076923  0.222222    0.00065746  52 t-inv F
  0.230769  0.076923 -0.222222    0.00065746  52 t-inv F
  0.307692 -0.230769  0.222222    0.00065746  52 t-inv F
 -0.307692  0.230769 -0.222222    0.00065746  52 t-inv F
 -0.076923 -0.230769 -0.222222    0.00065746  52 t-inv F
  0.076923  0.230769  0.222222    0.00065746  52 t-inv F
 -0.230769  0.307692 -0.222222    0.00065746  52 t-inv F
  0.230769 -0.307692  0.222222    0.00065746  52 t-inv F
  0.307692 -0.076923 -0.222222    0.00065746  52 t-inv F
 -0.307692  0.076923  0.222222    0.00065746  52 t-inv F
 -0.307692 -0.076923 -0.222222    0.00065746  53 t-inv F
 -0.384615  0.307692  0.222222    0.00065746  53 t-inv F
  0.384615 -0.307692 -0.222222    0.00065746  53 t-inv F
  0.076923 -0.384615  0.222222    0.00065746  53 t-inv F
 -0.076923  0.384615 -0.222222    0.00065746  53 t-inv F
  0.307692 -0.384615 -0.222222    0.00065746  53 t-inv F
 -0.307692  0.384615  0.222222    0.00065746  53 t-inv F
 -0.384615  0.076923 -0.222222    0.00065746  53 t-inv F
  0.384615 -0.076923  0.222222    0.00065746  53 t-inv F
  0.076923  0.307692 -0.222222    0.00065746  53 t-inv F
 -0.076923 -0.307692  0.222222    0.00065746  53 t-inv F
 -0.076923  0.384615  0.222222    0.00065746  53 t-inv F
  0.076923 -0.384615 -0.222222    0.00065746  53 t-inv F
 -0.307692 -0.076923  0.222222    0.00065746  53 t-inv F
  0.307692  0.076923 -0.222222    0.00065746  53 t-inv F
  0.384615 -0.307692  0.222222    0.00065746  53 t-inv F
 -0.384615  0.307692 -0.222222    0.00065746  53 t-inv F
 -0.076923 -0.307692 -0.222222    0.00065746  53 t-inv F
  0.076923  0.307692  0.222222    0.00065746  53 t-inv F
 -0.307692  0.384615 -0.222222    0.00065746  53 t-inv F
  0.307692 -0.384615  0.222222    0.00065746  53 t-inv F
  0.384615 -0.076923 -0.222222    0.00065746  53 t-inv F
 -0.384615  0.076923  0.222222    0.00065746  53 t-inv F
 -0.384615 -0.076923 -0.222222    0.00065746  54 t-inv F
 -0.461538  0.384615  0.222222    0.00065746  54 t-inv F
  0.461538 -0.384615 -0.222222    0.00065746  54 t-inv F
  0.076923 -0.461538  0.222222    0.00065746  54 t-inv F
 -0.076923  0.461538 -0.222222    0.00065746  54 t-inv F
  0.384615 -0.461538 -0.222222    0.00065746  54 t-inv F
 -0.384615  0.461538  0.222222    0.00065746  54 t-inv F
 -0.461538  0.076923 -0.222222    0.00065746  54 t-inv F
  0.461538 -0.076923  0.222222    0.00065746  54 t-inv F
  0.076923  0.384615 -0.222222    0.00065746  54 t-inv F
 -0.076923 -0.384615  0.222222    0.00065746  54 t-inv F
 -0.076923  0.461538  0.222222    0.00065746  54 t-inv F
  0.076923 -0.461538 -0.222222    0.00065746  54 t-inv F
 -0.384615 -0.076923  0.222222    0.00065746  54 t-inv F
  0.384615  0.076923 -0.222222    0.00065746  54 t-inv F
  0.461538 -0.384615  0.222222    0.00065746  54 t-inv F
 -0.461538  0.384615 -0.222222    0.00065746  54 t-inv F
 -0.076923 -0.384615 -0.222222    0.00065746  54 t-inv F
  0.076923  0.384615  0.222222    0.00065746  54 t-inv F
 -0.384615  0.461538 -0.222222    0.00065746  54 t-inv F
  0.384615 -0.461538  0.222222    0.00065746  54 t-inv F
  0.461538 -0.076923 -0.222222    0.00065746  54 t-inv F
 -0.461538  0.076923  0.222222    0.00065746  54 t-inv F
 -0.461538 -0.076923 -0.222222    0.00065746  55 t-inv F
 -0.538462  0.461538  0.222222    0.00065746  55 t-inv F
  0.538462 -0.461538 -0.222222    0.00065746  55 t-inv F
  0.076923 -0.538462  0.222222    0.00065746  55 t-inv F
 -0.076923  0.538462 -0.222222    0.00065746  55 t-inv F
  0.461538 -0.538462 -0.222222    0.00065746  55 t-inv F
 -0.461538  0.538462  0.222222    0.00065746  55 t-inv F
 -0.538462  0.076923 -0.222222    0.00065746  55 t-inv F
  0.538462 -0.076923  0.222222    0.00065746  55 t-inv F
  0.076923  0.461538 -0.222222    0.00065746  55 t-inv F
 -0.076923 -0.461538  0.222222    0.00065746  55 t-inv F
 -0.153846 -0.153846 -0.222222    0.00065746  56 t-inv F
 -0.307692  0.153846  0.222222    0.00065746  56 t-inv F
  0.307692 -0.153846 -0.222222    0.00065746  56 t-inv F
  0.153846 -0.307692  0.222222    0.00065746  56 t-inv F
 -0.153846  0.307692 -0.222222    0.00065746  56 t-inv F
  0.153846 -0.307692 -0.222222    0.00065746  56 t-inv F
 -0.153846  0.307692  0.222222    0.00065746  56 t-inv F
 -0.307692  0.153846 -0.222222    0.00065746  56 t-inv F
  0.307692 -0.153846  0.222222    0.00065746  56 t-inv F
  0.153846  0.153846 -0.222222    0.00065746  56 t-inv F
 -0.153846 -0.153846  0.222222    0.00065746  56 t-inv F
 -0.230769 -0.153846 -0.222222    0.00065746  57 t-inv F
 -0.384615  0.230769  0.222222    0.00065746  57 t-inv F
  0.384615 -0.230769 -0.222222    0.00065746  57 t-inv F
  0.153846 -0.384615  0.222222    0.00065746  57 t-inv F
 -0.153846  0.384615 -0.222222    0.00065746  57 t-inv F
  0.230769 -0.384615 -0.222222    0.00065746  57 t-inv F
 -0.230769  0.384615  0.222222    0.00065746  57 t-inv F
 -0.384615  0.153846 -0.222222    0.00065746  57 t-inv F
  0.384615 -0.153846  0.222222    0.00065746  57 t-inv F
  0.153846  0.230769 -0.222222    0.00065746  57 t-inv F
 -0.153846 -0.230769  0.222222    0.00065746  57 t-inv F
 -0.153846  0.384615  0.222222    0.00065746  57 t-inv F
  0.153846 -0.384615 -0.222222    0.00065746  57 t-inv F
 -0.230769 -0.153846  0.222222    0.00065746  57 t-inv F
  0.230769  0.153846 -0.222222    0.00065746  57 t-inv F
  0.384615 -0.230769  0.222222    0.00065746  57 t-inv F
 -0.384615  0.230769 -0.222222    0.00065746  57 t-inv F
 -0.153846 -0.230769 -0.222222    0.00065746  57 t-inv F
  0.153846  0.230769  0.222222    0.00065746  57 t-inv F
 -0.230769  0.384615 -0.222222    0.00065746  57 t-inv F
  0.230769 -0.384615  0.222222    0.00065746  57 t-inv F
  0.384615 -0.153846 -0.222222    0.00065746  57 t-inv F
 -0.384615  0.153846  0.222222    0.00065746  57 t-inv F
 -0.307692 -0.153846 -0.222222    0.00065746  58 t-inv F
 -0.461538  0.307692  0.222222    0.00065746  58 t-inv F
  0.461538 -0.307692 -0.222222    0.00065746  58 t-inv F
  0.153846 -0.461538  0.222222    0.00065746  58 t-inv F
 -0.153846  0.461538 -0.222222    0.00065746  58 t-inv F
  0.307692 -0.461538 -0.222222    0.00065746  58 t-inv F
 -0.307692  0.461538  0.222222    0.00065746  58 t-inv F
 -0.461538  0.153846 -0.222222    0.00065746  58 t-inv F
  0.461538 -0.153846  0.222222    0.00065746  58 t-inv F
  0.153846  0.307692 -0.222222    0.00065746  58 t-inv F
 -0.153846 -0.307692  0.222222    0.00065746  58 t-inv F
 -0.153846  0.461538  0.222222    0.00065746  58 t-inv F
  0.153846 -0.461538 -0.222222    0.00065746  58 t-inv F
 -0.307692 -0.153846  0.222222    0.00065746  58 t-inv F
  0.307692  0.153846 -0.222222    0.00065746  58 t-inv F
  0.461538 -0.307692  0.222222    0.00065746  58 t-inv F
 -0.461538  0.307692 -0.222222    0.00065746  58 t-inv F
 -0.153846 -0.307692 -0.222222    0.00065746  58 t-inv F
  0.153846  0.307692  0.222222    0.00065746  58 t-inv F
 -0.307692  0.461538 -0.222222    0.00065746  58 t-inv F
  0.307692 -0.461538  0.222222    0.00065746  58 t-inv F
  0.461538 -0.153846 -0.222222    0.00065746  58 t-inv F
 -0.461538  0.153846  0.222222    0.00065746  58 t-inv F
 -0.384615 -0.153846 -0.222222    0.00065746  59 t-inv F
 -0.538462  0.384615  0.222222    0.00065746  59 t-inv F
  0.538462 -0.384615 -0.222222    0.00065746  59 t-inv F
  0.153846 -0.538462  0.222222    0.00065746  59 t-inv F
 -0.153846  0.538462 -0.222222    0.00065746  59 t-inv F
  0.384615 -0.538462 -0.222222    0.00065746  59 t-inv F
 -0.384615  0.538462  0.222222    0.00065746  59 t-inv F
 -0.538462  0.153846 -0.222222    0.00065746  59 t-inv F
  0.538462 -0.153846  0.222222    0.00065746  59 t-inv F
  0.153846  0.384615 -0.222222    0.00065746  59 t-inv F
 -0.153846 -0.384615  0.222222    0.00065746  59 t-inv F
 -0.153846  0.538462  0.222222    0.00065746  59 t-inv F
  0.153846 -0.538462 -0.222222    0.00065746  59 t-inv F
 -0.384615 -0.153846  0.222222    0.00065746  59 t-inv F
  0.384615  0.153846 -0.222222    0.00065746  59 t-inv F
  0.538462 -0.384615  0.222222    0.00065746  59 t-inv F
 -0.538462  0.384615 -0.222222    0.00065746  59 t-inv F
 -0.153846 -0.384615 -0.222222    0.00065746  59 t-inv F
  0.153846  0.384615  0.222222    0.00065746  59 t-inv F
 -0.384615  0.538462 -0.222222    0.00065746  59 t-inv F
  0.384615 -0.538462  0.222222    0.00065746  59 t-inv F
  0.538462 -0.153846 -0.222222    0.00065746  59 t-inv F
 -0.538462  0.153846  0.222222    0.00065746  59 t-inv F
 -0.230769 -0.230769 -0.222222    0.00065746  60 t-inv F
 -0.461538  0.230769  0.222222    0.00065746  60 t-inv F
  0.461538 -0.230769 -0.222222    0.00065746  60 t-inv F
  0.230769 -0.461538  0.222222    0.00065746  60 t-inv F
 -0.230769  0.461538 -0.222222    0.00065746  60 t-inv F
  0.230769 -0.461538 -0.222222    0.00065746  60 t-inv F
 -0.230769  0.461538  0.222222    0.00065746  60 t-inv F
 -0.461538  0.230769 -0.222222    0.00065746  60 t-inv F
  0.461538 -0.230769  0.222222    0.00065746  60 t-inv F
  0.230769  0.230769 -0.222222    0.00065746  60 t-inv F
 -0.230769 -0.230769  0.222222    0.00065746  60 t-inv F
 -0.307692 -0.230769 -0.222222    0.00065746  61 t-inv F
 -0.538462  0.307692  0.222222    0.00065746  61 t-inv F
  0.538462 -0.307692 -0.222222    0.00065746  61 t-inv F
  0.230769 -0.538462  0.222222    0.00065746  61 t-inv F
 -0.230769  0.538462 -0.222222    0.00065746  61 t-inv F
  0.307692 -0.538462 -0.222222    0.00065746  61 t-inv F
 -0.307692  0.538462  0.222222    0.00065746  61 t-inv F
 -0.538462  0.230769 -0.222222    0.00065746  61 t-inv F
  0.538462 -0.230769  0.222222    0.00065746  61 t-inv F
  0.230769  0.307692 -0.222222    0.00065746  61 t-inv F
 -0.230769 -0.307692  0.222222    0.00065746  61 t-inv F
 -0.230769  0.538462  0.222222    0.00065746  61 t-inv F
  0.230769 -0.538462 -0.222222    0.00065746  61 t-inv F
 -0.307692 -0.230769  0.222222    0.00065746  61 t-inv F
  0.307692  0.230769 -0.222222    0.00065746  61 t-inv F
  0.538462 -0.307692  0.222222    0.00065746  61 t-inv F
 -0.538462  0.307692 -0.222222    0.00065746  61 t-inv F
 -0.230769 -0.307692 -0.222222    0.00065746  61 t-inv F
  0.230769  0.307692  0.222222    0.00065746  61 t-inv F
 -0.307692  0.538462 -0.222222    0.00065746  61 t-inv F
  0.307692 -0.538462  0.222222    0.00065746  61 t-inv F
  0.538462 -0.230769 -0.222222    0.00065746  61 t-inv F
 -0.538462  0.230769  0.222222    0.00065746  61 t-inv F
 -0.384615 -0.230769 -0.222222    0.00065746  62 t-inv F
 -0.615385  0.384615  0.222222    0.00065746  62 t-inv F
  0.615385 -0.384615 -0.222222    0.00065746  62 t-inv F
  0.230769 -0.615385  0.222222    0.00065746  62 t-inv F
 -0.230769  0.615385 -0.222222    0.00065746  62 t-inv F
  0.384615 -0.615385 -0.222222    0.00065746  62 t-inv F
 -0.384615  0.615385  0.222222    0.00065746  62 t-inv F
 -0.615385  0.230769 -0.222222    0.00065746  62 t-inv F
  0.615385 -0.230769  0.222222    0.00065746  62 t-inv F
  0.230769  0.384615 -0.222222    0.00065746  62 t-inv F
 -0.230769 -0.384615  0.222222    0.00065746  62 t-inv F
 -0.307692 -0.307692 -0.222222    0.00065746  63 t-inv F
 -0.615385  0.307692  0.222222    0.00065746  63 t-inv F
  0.615385 -0.307692 -0.222222    0.00065746  63 t-inv F
  0.307692 -0.615385  0.222222    0.00065746  63 t-inv F
 -0.307692  0.615385 -0.222222    0.00065746  63 t-inv F
  0.307692 -0.615385 -0.222222    0.00065746  63 t-inv F
 -0.307692  0.615385  0.222222    0.00065746  63 t-inv F
 -0.615385  0.307692 -0.222222    0.00065746  63 t-inv F
  0.615385 -0.307692  0.222222    0.00065746  63 t-inv F
  0.307692  0.307692 -0.222222    0.00065746  63 t-inv F
 -0.307692 -0.307692  0.222222    0.00065746  63 t-inv F
  0.000000  0.000000 -0.333333    0.00065746  64 t-inv F
 -0.076923 -0.000000 -0.333333    0.00065746  65 t-inv F
 -0.076923  0.076923  0.333333    0.00065746  65 t-inv F
  0.076923 -0.076923 -0.333333    0.00065746  65 t-inv F
  0.000000 -0.076923  0.333333    0.00065746  65 t-inv F
 -0.000000  0.076923 -0.333333    0.00065746  65 t-inv F
 -0.000000  0.076923  0.333333    0.00065746  65 t-inv F
  0.000000 -0.076923 -0.333333    0.00065746  65 t-inv F
 -0.076923 -0.000000  0.333333    0.00065746  65 t-inv F
  0.076923  0.000000 -0.333333    0.00065746  65 t-inv F
  0.076923 -0.076923  0.333333    0.00065746  65 t-inv F
 -0.076923  0.076923 -0.333333    0.00065746  65 t-inv F
 -0.153846 -0.000000 -0.333333    0.00065746  66 t-inv F
 -0.153846  0.153846  0.333333    0.00065746  66 t-inv F
  0.153846 -0.153846 -0.333333    0.00065746  66 t-inv F
  0.000000 -0.153846  0.333333    0.00065746  66 t-inv F
 -0.000000  0.153846 -0.333333    0.00065746  66 t-inv F
 -0.000000  0.153846  0.333333    0.00065746  66 t-inv F
  0.000000 -0.153846 -0.333333    0.00065746  66 t-inv F
 -0.153846 -0.000000  0.333333    0.00065746  66 t-inv F
  0.153846  0.000000 -0.333333    0.00065746  66 t-inv F
  0.153846 -0.153846  0.333333    0.00065746  66 t-inv F
 -0.153846  0.153846 -0.333333    0.00065746  66 t-inv F
 -0.230769 -0.000000 -0.333333    0.00065746  67 t-inv F
 -0.230769  0.230769  0.333333    0.00065746  67 t-inv F
  0.230769 -0.230769 -0.333333    0.00065746  67 t-inv F
  0.000000 -0.230769  0.333333    0.00065746  67 t-inv F
 -0.000000  0.230769 -0.333333    0.00065746  67 t-inv F
 -0.000000  0.230769  0.333333    0.00065746  67 t-inv F
  0.000000 -0.230769 -0.333333    0.00065746  67 t-inv F
 -0.230769 -0.000000  0.333333    0.00065746  67 t-inv F
  0.230769  0.000000 -0.333333    0.00065746  67 t-inv F
  0.230769 -0.230769  0.333333    0.00065746  67 t-inv F
 -0.230769  0.230769 -0.333333    0.00065746  67 t-inv F
 -0.307692 -0.000000 -0.333333    0.00065746  68 t-inv F
 -0.307692  0.307692  0.333333    0.00065746  68 t-inv F
  0.307692 -0.307692 -0.333333    0.00065746  68 t-inv F
  0.000000 -0.307692  0.333333    0.00065746  68 t-inv F
 -0.000000  0.307692 -0.333333    0.00065746  68 t-inv F
 -0.000000  0.307692  0.333333    0.00065746  68 t-inv F
  0.000000 -0.307692 -0.333333    0.00065746  68 t-inv F
 -0.307692 -0.000000  0.333333    0.00065746  68 t-inv F
  0.307692  0.000000 -0.333333    0.00065746  68 t-inv F
  0.307692 -0.307692  0.333333    0.00065746  68 t-inv F
 -0.307692  0.307692 -0.333333    0.00065746  68 t-inv F
 -0.384615 -0.000000 -0.333333    0.00065746  69 t-inv F
 -0.384615  0.384615  0.333333    0.00065746  69 t-inv F
  0.384615 -0.384615 -0.333333    0.00065746  69 t-inv F
  0.000000 -0.384615  0.333333    0.00065746  69 t-inv F
 -0.000000  0.384615 -0.333333    0.00065746  69 t-inv F
 -0.000000  0.384615  0.333333    0.00065746  69 t-inv F
  0.000000 -0.384615 -0.333333    0.00065746  69 t-inv F
 -0.384615 -0.000000  0.333333    0.00065746  69 t-inv F
  0.384615  0.000000 -0.333333    0.00065746  69 t-inv F
  0.384615 -0.384615  0.333333    0.00065746  69 t-inv F
 -0.384615  0.384615 -0.333333    0.00065746  69 t-inv F
 -0.461538 -0.000000 -0.333333    0.00065746  70 t-inv F
 -0.461538  0.461538  0.333333    0.00065746  70 t-inv F
  0.461538 -0.461538 -0.333333    0.00065746  70 t-inv F
  0.000000 -0.461538  0.333333    0.00065746  70 t-inv F
 -0.000000  0.461538 -0.333333    0.00065746  70 t-inv F
 -0.000000  0.461538  0.333333    0.00065746  70 t-inv F
  0.000000 -0.461538 -0.333333    0.00065746  70 t-inv F
 -0.461538 -0.000000  0.333333    0.00065746  70 t-inv F
  0.461538  0.000000 -0.333333    0.00065746  70 t-inv F
  0.461538 -0.461538  0.333333    0.00065746  70 t-inv F
 -0.461538  0.461538 -0.333333    0.00065746  70 t-inv F
 -0.076923 -0.076923 -0.333333    0.00065746  71 t-inv F
 -0.153846  0.076923  0.333333    0.00065746  71 t-inv F
  0.153846 -0.076923 -0.333333    0.00065746  71 t-inv F
  0.076923 -0.153846  0.333333    0.00065746  71 t-inv F
 -0.076923  0.153846 -0.333333    0.00065746  71 t-inv F
  0.076923 -0.153846 -0.333333    0.00065746  71 t-inv F
 -0.076923  0.153846  0.333333    0.00065746  71 t-inv F
 -0.153846  0.076923 -0.333333    0.00065746  71 t-inv F
  0.153846 -0.076923  0.333333    0.00065746  71 t-inv F
  0.076923  0.076923 -0.333333    0.00065746  71 t-inv F
 -0.076923 -0.076923  0.333333    0.00065746  71 t-inv F
 -0.153846 -0.076923 -0.333333    0.00065746  72 t-inv F
 -0.230769  0.153846  0.333333    0.00065746  72 t-inv F
  0.230769 -0.153846 -0.333333    0.00065746  72 t-inv F
  0.076923 -0.230769  0.333333    0.00065746  72 t-inv F
 -0.076923  0.230769 -0.333333    0.00065746  72 t-inv F
  0.153846 -0.230769 -0.333333    0.00065746  72 t-inv F
 -0.153846  0.230769  0.333333    0.00065746  72 t-inv F
 -0.230769  0.076923 -0.333333    0.00065746  72 t-inv F
  0.230769 -0.076923  0.333333    0.00065746  72 t-inv F
  0.076923  0.153846 -0.333333    0.00065746  72 t-inv F
 -0.076923 -0.153846  0.333333    0.00065746  72 t-inv F
 -0.076923  0.230769  0.333333    0.00065746  72 t-inv F
  0.076923 -0.230769 -0.333333    0.00065746  72 t-inv F
 -0.153846 -0.076923  0.333333    0.00065746  72 t-inv F
  0.153846  0.076923 -0.333333    0.00065746  72 t-inv F
  0.230769 -0.153846  0.333333    0.00065746  72 t-inv F
 -0.230769  0.153846 -0.333333    0.00065746  72 t-inv F
 -0.076923 -0.153846 -0.333333    0.00065746  72 t-inv F
  0.076923  0.153846  0.333333    0.00065746  72 t-inv F
 -0.153846  0.230769 -0.333333    0.00065746  72 t-inv F
  0.153846 -0.230769  0.333333    0.00065746  72 t-inv F
  0.230769 -0.076923 -0.333333    0.00065746  72 t-inv F
 -0.230769  0.076923  0.333333    0.00065746  72 t-inv F
 -0.230769 -0.076923 -0.333333    0.00065746  73 t-inv F
 -0.307692  0.230769  0.333333    0.00065746  73 t-inv F
  0.307692 -0.230769 -0.333333    0.00065746  73 t-inv F
[...]
          X           Y           Z          XY          YZ          ZX
  --------------------------------------------------------------------------------
  x    -0.00000     0.00000     0.00000    -0.83883     0.00000     0.00000
  y    -0.83883     0.83883     0.00000     0.00000     0.00000     0.00000
  z     0.00000     0.00000     0.00000    -0.00000     0.00000    -0.00000

 INTERNAL STRAIN TENSOR FOR ION    2 for displacements in x,y,z  (eV/Angst):
          X           Y           Z          XY          YZ          ZX
  --------------------------------------------------------------------------------
  x     0.00000    -0.00000    -0.00000     0.83883     0.00000     0.00000
  y     0.83883    -0.83883    -0.00000    -0.00000     0.00000     0.00000
  z    -0.00000    -0.00000     0.00000     0.00000    -0.00000     0.00000


--------------------------------------------------------------------------------------------------------


 
 Eigenvectors and eigenvalues of the dynamical matrix
 ----------------------------------------------------
 
 
   1 f  =    2.754305 THz    17.305810 2PiTHz   91.873728 cm-1    11.390895 meV
             X         Y         Z           dx          dy          dz
     -0.000002  2.458412  1.758321    -0.000000   -0.000000    0.707107  
      2.129049  1.229204  5.274963     0.000000   -0.000000   -0.707107  
 
   2 f  =    1.299309 THz     8.163800 2PiTHz   43.340283 cm-1     5.373512 meV
             X         Y         Z           dx          dy          dz
     -0.000002  2.458412  1.758321    -0.614780   -0.349350    0.000000  
      2.129049  1.229204  5.274963     0.614780    0.349350    0.000000  
 
   3 f  =    1.299309 THz     8.163798 2PiTHz   43.340274 cm-1     5.373511 meV
             X         Y         Z           dx          dy          dz
     -0.000002  2.458412  1.758321    -0.349350    0.614780   -0.000000  
      2.129049  1.229204  5.274963     0.349350   -0.614780   -0.000000  
 
   4 f  =    0.000000 THz     0.000000 2PiTHz    0.000000 cm-1     0.000000 meV
             X         Y         Z           dx          dy          dz
     -0.000002  2.458412  1.758321     0.706091    0.037580   -0.004873  
      2.129049  1.229204  5.274963     0.706091    0.037580   -0.004873  
 
   5 f/i=    0.000000 THz     0.000000 2PiTHz    0.000001 cm-1     0.000000 meV
             X         Y         Z           dx          dy          dz
     -0.000002  2.458412  1.758321     0.037546   -0.681490    0.184830  
      2.129049  1.229204  5.274963     0.037546   -0.681490    0.184830  
 
   6 f/i=    0.000000 THz     0.000000 2PiTHz    0.000001 cm-1     0.000000 meV
             X         Y         Z           dx          dy          dz
     -0.000002  2.458412  1.758321    -0.005127    0.184823    0.682506  
      2.129049  1.229204  5.274963    -0.005127    0.184823    0.682506  
 


--------------------------------------------------------------------------------------------------------



 ELASTIC MODULI CONTR FROM IONIC RELAXATION (kBar)
 Direction    XX          YY          ZZ          XY          YZ          ZX
 --------------------------------------------------------------------------------
 XX         -33.7318     33.7317      0.0000     -0.0000     -0.0000      0.0000
 YY          33.7317    -33.7317     -0.0000     -0.0000     -0.0000      0.0000
 ZZ           0.0000     -0.0000     -0.0000      0.0000      0.0000      0.0000
 XY          -0.0000     -0.0000      0.0000    -33.7317      0.0000     -0.0000
 YZ          -0.0000     -0.0000      0.0000      0.0000     -0.0000      0.0000
 ZX           0.0000      0.0000      0.0000     -0.0000      0.0000     -0.0000
 --------------------------------------------------------------------------------


 TOTAL ELASTIC MODULI (kBar)
 Direction    XX          YY          ZZ          XY          YZ          ZX
 --------------------------------------------------------------------------------
 XX         211.1286     93.1765     42.2011      0.0000     -0.0000      0.0000
 YY          93.1765    211.1285     42.2011      0.0000      0.0000      0.0000
 ZZ          42.2011     42.2011    270.7741      0.0000      0.0000      0.0000
 XY           0.0000      0.0000      0.0000     58.9760     -0.0000      0.0000
 YZ          -0.0000     -0.0000     -0.0000     -0.0000     57.2981      0.0000
 ZX           0.0000      0.0000      0.0000      0.0000      0.0000     57.2978
 --------------------------------------------------------------------------------



--------------------------------------------------------------------------------------------------------


  LATTYP: Found a hexagonal cell.
 ALAT       =     4.2580925489
 C/A-ratio  =     1.6517452025
  
  Lattice vectors:
  
 A1 = (   4.2580925594,  -0.0000000027,   0.0000000000)
 A2 = (  -2.1290456133,   3.6876159338,   0.0000000000)
 A3 = (   0.0000000000,   0.0000000000,   7.0332839394)


Analysis of symmetry for initial positions (statically):
=====================================================================
 Subroutine PRICEL returns:
 Original cell was already a primitive cell.
 

 Routine SETGRP: Setting up the symmetry group for a 
 hexagonal supercell.


 Subroutine GETGRP returns: Found 24 space group operations
 (whereof 12 operations were pure point group operations)
 out of a pool of 24 trial point group operations.


The static configuration has the point symmetry D_3d.
 The point group associated with its full space group is D_6h.


Analysis of symmetry for dynamics (positions and initial velocities):
=====================================================================
 Subroutine PRICEL returns:
 Original cell was already a primitive cell.
 

 Routine SETGRP: Setting up the symmetry group for a 
 hexagonal supercell.


 Subroutine GETGRP returns: Found 24 space group operations
 (whereof 12 operations were pure point group operations)
 out of a pool of 24 trial point group operations.


The dynamic configuration has the point symmetry D_3d.
 The point group associated with its full space group is D_6h.


 Subroutine INISYM returns: Found 24 space group operations
 (whereof 12 operations are pure point group operations),
 and found     1 'primitive' translations

 
 KPOINTS: k points                                

Automatic generation of k-mesh.
Space group operators:
 irot       det(A)        alpha          n_x          n_y          n_z        tau_x        tau_y        tau_z
    1     1.000000     0.000000     1.000000     0.000000     0.000000     0.000000     0.000000     0.000000
    2    -1.000000     0.000000     1.000000     0.000000     0.000000     0.000000     0.000000     0.000000
    3     1.000000   120.000000     0.000000     0.000000    -1.000000     0.000000     0.000000     0.000000
    4    -1.000000   120.000000     0.000000     0.000000    -1.000000     0.000000     0.000000     0.000000
    5     1.000000   120.000000     0.000000     0.000000     1.000000     0.000000     0.000000     0.000000
    6    -1.000000   120.000000     0.000000     0.000000     1.000000     0.000000     0.000000     0.000000
    7     1.000000   180.000000     1.000000    -0.000000     0.000000     0.000000     0.000000     0.000000
    8    -1.000000   180.000000     1.000000    -0.000000     0.000000     0.000000     0.000000     0.000000
    9     1.000000   180.000000     0.500000    -0.866025     0.000000     0.000000     0.000000     0.000000
   10    -1.000000   180.000000     0.500000    -0.866025     0.000000     0.000000     0.000000     0.000000
   11     1.000000   180.000000    -0.500000    -0.866025     0.000000     0.000000     0.000000     0.000000
   12    -1.000000   180.000000    -0.500000    -0.866025     0.000000     0.000000     0.000000     0.000000
   13     1.000000    60.000000     0.000000     0.000000    -1.000000     0.000001     0.000000    -0.500000
   14    -1.000000    60.000000     0.000000     0.000000    -1.000000     0.000000     0.000000    -0.500000
   15     1.000000   180.000000     0.000000     0.000000     1.000000     0.000000     0.000000    -0.500000
   16    -1.000000   180.000000     0.000000     0.000000     1.000000     0.000000     0.000000    -0.500000
   17     1.000000    60.000000     0.000000     0.000000     1.000000     0.000000     0.000001    -0.500000
   18    -1.000000    60.000000     0.000000     0.000000     1.000000     0.000000     0.000000    -0.500000
   19     1.000000   180.000000     0.866025    -0.500000     0.000000     0.000000     0.000000    -0.500000
   20    -1.000000   180.000000     0.866025    -0.500000     0.000000     0.000000     0.000000    -0.500000
   21     1.000000   180.000000    -0.000000    -1.000000     0.000000     0.000001     0.000000    -0.500000
   22    -1.000000   180.000000    -0.000000    -1.000000     0.000000     0.000000     0.000000    -0.500000
   23     1.000000   180.000000     0.866025     0.500000     0.000000     0.000000     0.000001    -0.500000
   24    -1.000000   180.000000     0.866025     0.500000     0.000000     0.000000     0.000000    -0.500000
 
 Subroutine IBZKPT returns following result:
 ===========================================
 
 Found    105 irreducible k-points:
 
 Following reciprocal coordinates:
            Coordinates               Weight
  0.000000  0.000000  0.000000      1.000000
  0.076923  0.000000  0.000000      6.000000
  0.153846  0.000000  0.000000      6.000000
  0.230769  0.000000  0.000000      6.000000
  0.307692  0.000000  0.000000      6.000000
  0.384615  0.000000  0.000000      6.000000
  0.461538  0.000000  0.000000      6.000000
  0.076923  0.076923  0.000000      6.000000
  0.153846  0.076923  0.000000     12.000000
  0.230769  0.076923  0.000000     12.000000
  0.307692  0.076923  0.000000     12.000000
  0.384615  0.076923  0.000000     12.000000
  0.461538  0.076923  0.000000      6.000000
  0.153846  0.153846  0.000000      6.000000
  0.230769  0.153846  0.000000     12.000000
  0.307692  0.153846  0.000000     12.000000
  0.384615  0.153846  0.000000     12.000000
  0.230769  0.230769  0.000000      6.000000
  0.307692  0.230769  0.000000     12.000000
  0.384615  0.230769  0.000000      6.000000
  0.307692  0.307692  0.000000      6.000000
  0.000000  0.000000  0.111111      2.000000
  0.076923  0.000000  0.111111     12.000000
  0.153846  0.000000  0.111111     12.000000
  0.230769  0.000000  0.111111     12.000000
  0.307692  0.000000  0.111111     12.000000
  0.384615  0.000000  0.111111     12.000000
  0.461538  0.000000  0.111111     12.000000
  0.076923  0.076923  0.111111     12.000000
  0.153846  0.076923  0.111111     24.000000
  0.230769  0.076923  0.111111     24.000000
  0.307692  0.076923  0.111111     24.000000
  0.384615  0.076923  0.111111     24.000000
  0.461538  0.076923  0.111111     12.000000
  0.153846  0.153846  0.111111     12.000000
  0.230769  0.153846  0.111111     24.000000
  0.307692  0.153846  0.111111     24.000000
  0.384615  0.153846  0.111111     24.000000
  0.230769  0.230769  0.111111     12.000000
  0.307692  0.230769  0.111111     24.000000
  0.384615  0.230769  0.111111     12.000000
  0.307692  0.307692  0.111111     12.000000
  0.000000  0.000000  0.222222      2.000000
  0.076923  0.000000  0.222222     12.000000
  0.153846  0.000000  0.222222     12.000000
  0.230769  0.000000  0.222222     12.000000
  0.307692  0.000000  0.222222     12.000000
  0.384615  0.000000  0.222222     12.000000
  0.461538  0.000000  0.222222     12.000000
  0.076923  0.076923  0.222222     12.000000
  0.153846  0.076923  0.222222     24.000000
  0.230769  0.076923  0.222222     24.000000
  0.307692  0.076923  0.222222     24.000000
  0.384615  0.076923  0.222222     24.000000
  0.461538  0.076923  0.222222     12.000000
  0.153846  0.153846  0.222222     12.000000
  0.230769  0.153846  0.222222     24.000000
  0.307692  0.153846  0.222222     24.000000
  0.384615  0.153846  0.222222     24.000000
  0.230769  0.230769  0.222222     12.000000
  0.307692  0.230769  0.222222     24.000000
  0.384615  0.230769  0.222222     12.000000
  0.307692  0.307692  0.222222     12.000000
  0.000000  0.000000  0.333333      2.000000
  0.076923  0.000000  0.333333     12.000000
  0.153846  0.000000  0.333333     12.000000
  0.230769  0.000000  0.333333     12.000000
  0.307692  0.000000  0.333333     12.000000
  0.384615  0.000000  0.333333     12.000000
  0.461538  0.000000  0.333333     12.000000
  0.076923  0.076923  0.333333     12.000000
  0.153846  0.076923  0.333333     24.000000
  0.230769  0.076923  0.333333     24.000000
  0.307692  0.076923  0.333333     24.000000
  0.384615  0.076923  0.333333     24.000000
  0.461538  0.076923  0.333333     12.000000
  0.153846  0.153846  0.333333     12.000000
  0.230769  0.153846  0.333333     24.000000
  0.307692  0.153846  0.333333     24.000000
  0.384615  0.153846  0.333333     24.000000
  0.230769  0.230769  0.333333     12.000000
  0.307692  0.230769  0.333333     24.000000
  0.384615  0.230769  0.333333     12.000000
  0.307692  0.307692  0.333333     12.000000
  0.000000  0.000000  0.444444      2.000000
  0.076923  0.000000  0.444444     12.000000
  0.153846  0.000000  0.444444     12.000000
  0.230769  0.000000  0.444444     12.000000
  0.307692  0.000000  0.444444     12.000000
  0.384615  0.000000  0.444444     12.000000
  0.461538  0.000000  0.444444     12.000000
  0.076923  0.076923  0.444444     12.000000
  0.153846  0.076923  0.444444     24.000000
  0.230769  0.076923  0.444444     24.000000
  0.307692  0.076923  0.444444     24.000000
  0.384615  0.076923  0.444444     24.000000
  0.461538  0.076923  0.444444     12.000000
  0.153846  0.153846  0.444444     12.000000
  0.230769  0.153846  0.444444     24.000000
  0.307692  0.153846  0.444444     24.000000
  0.384615  0.153846  0.444444     24.000000
  0.230769  0.230769  0.444444     12.000000
  0.307692  0.230769  0.444444     24.000000
  0.384615  0.230769  0.444444     12.000000
  0.307692  0.307692  0.444444     12.000000
 
 Following cartesian coordinates:
            Coordinates               Weight
  0.000000  0.000000  0.000000      1.000000
  0.018065  0.010430  0.000000      6.000000
  0.036130  0.020860  0.000000      6.000000
  0.054195  0.031290  0.000000      6.000000
  0.072261  0.041720  0.000000      6.000000
  0.090326  0.052150  0.000000      6.000000
  0.108391  0.062579  0.000000      6.000000
  0.018065  0.031290  0.000000      6.000000
  0.036130  0.041720  0.000000     12.000000
  0.054195  0.052150  0.000000     12.000000
  0.072261  0.062580  0.000000     12.000000
  0.090326  0.073009  0.000000     12.000000
  0.108391  0.083439  0.000000      6.000000
  0.036130  0.062580  0.000000      6.000000
  0.054195  0.073009  0.000000     12.000000
  0.072261  0.083439  0.000000     12.000000
  0.090326  0.093869  0.000000     12.000000
  0.054195  0.093869  0.000000      6.000000
  0.072261  0.104299  0.000000     12.000000
  0.090326  0.114729  0.000000      6.000000
  0.072261  0.125159  0.000000      6.000000
  0.000000  0.000000  0.015798      2.000000
  0.018065  0.010430  0.015798     12.000000
  0.036130  0.020860  0.015798     12.000000
  0.054195  0.031290  0.015798     12.000000
  0.072261  0.041720  0.015798     12.000000
  0.090326  0.052150  0.015798     12.000000
  0.108391  0.062579  0.015798     12.000000
  0.018065  0.031290  0.015798     12.000000
  0.036130  0.041720  0.015798     24.000000
  0.054195  0.052150  0.015798     24.000000
  0.072261  0.062580  0.015798     24.000000
  0.090326  0.073009  0.015798     24.000000
  0.108391  0.083439  0.015798     12.000000
  0.036130  0.062580  0.015798     12.000000
  0.054195  0.073009  0.015798     24.000000
  0.072261  0.083439  0.015798     24.000000
  0.090326  0.093869  0.015798     24.000000
  0.054195  0.093869  0.015798     12.000000
  0.072261  0.104299  0.015798     24.000000
  0.090326  0.114729  0.015798     12.000000
  0.072261  0.125159  0.015798     12.000000
  0.000000  0.000000  0.031596      2.000000
  0.018065  0.010430  0.031596     12.000000
  0.036130  0.020860  0.031596     12.000000
  0.054195  0.031290  0.031596     12.000000
  0.072261  0.041720  0.031596     12.000000
  0.090326  0.052150  0.031596     12.000000
  0.108391  0.062579  0.031596     12.000000
  0.018065  0.031290  0.031596     12.000000
  0.036130  0.041720  0.031596     24.000000
  0.054195  0.052150  0.031596     24.000000
  0.072261  0.062580  0.031596     24.000000
  0.090326  0.073009  0.031596     24.000000
  0.108391  0.083439  0.031596     12.000000
  0.036130  0.062580  0.031596     12.000000
  0.054195  0.073009  0.031596     24.000000
  0.072261  0.083439  0.031596     24.000000
  0.090326  0.093869  0.031596     24.000000
  0.054195  0.093869  0.031596     12.000000
  0.072261  0.104299  0.031596     24.000000
  0.090326  0.114729  0.031596     12.000000
  0.072261  0.125159  0.031596     12.000000
  0.000000  0.000000  0.047394      2.000000
  0.018065  0.010430  0.047394     12.000000
  0.036130  0.020860  0.047394     12.000000
  0.054195  0.031290  0.047394     12.000000
  0.072261  0.041720  0.047394     12.000000
  0.090326  0.052150  0.047394     12.000000
  0.108391  0.062579  0.047394     12.000000
  0.018065  0.031290  0.047394     12.000000
  0.036130  0.041720  0.047394     24.000000
  0.054195  0.052150  0.047394     24.000000
  0.072261  0.062580  0.047394     24.000000
  0.090326  0.073009  0.047394     24.000000
  0.108391  0.083439  0.047394     12.000000
  0.036130  0.062580  0.047394     12.000000
  0.054195  0.073009  0.047394     24.000000
  0.072261  0.083439  0.047394     24.000000
  0.090326  0.093869  0.047394     24.000000
  0.054195  0.093869  0.047394     12.000000
  0.072261  0.104299  0.047394     24.000000
  0.090326  0.114729  0.047394     12.000000
  0.072261  0.125159  0.047394     12.000000
  0.000000  0.000000  0.063192      2.000000
  0.018065  0.010430  0.063192     12.000000
  0.036130  0.020860  0.063192     12.000000
  0.054195  0.031290  0.063192     12.000000
  0.072261  0.041720  0.063192     12.000000
  0.090326  0.052150  0.063192     12.000000
  0.108391  0.062579  0.063192     12.000000
  0.018065  0.031290  0.063192     12.000000
  0.036130  0.041720  0.063192     24.000000
  0.054195  0.052150  0.063192     24.000000
  0.072261  0.062580  0.063192     24.000000
  0.090326  0.073009  0.063192     24.000000
  0.108391  0.083439  0.063192     12.000000
  0.036130  0.062580  0.063192     12.000000
  0.054195  0.073009  0.063192     24.000000
  0.072261  0.083439  0.063192     24.000000
  0.090326  0.093869  0.063192     24.000000
  0.054195  0.093869  0.063192     12.000000
  0.072261  0.104299  0.063192     24.000000
  0.090326  0.114729  0.063192     12.000000
  0.072261  0.125159  0.063192     12.000000
 
 writing wavefunctions
     LOOP+:  cpu time   87.6573: real time   87.7710
    4ORBIT:  cpu time    0.0000: real time    0.0000

 total amount of memory used by VASP MPI-rank0   100922. kBytes
=======================================================================

   base      :      30000. kBytes
   nonl-proj :      45577. kBytes
   fftplans  :       1680. kBytes
   grid      :       3179. kBytes
   one-center:         31. kBytes
   wavefun   :      20455. kBytes
 
  
  
 General timing and accounting informations for this job:
 ========================================================
  
                  Total CPU time used (sec):     3725.584
                            User time (sec):     1511.934
                          System time (sec):     2213.651
                         Elapsed time (sec):     3732.729
  
                   Maximum memory used (kb):      529544.
                   Average memory used (kb):           0.
  
                          Minor page faults:       502022
                          Major page faults:          328
                 Voluntary context switches:         1919
