 vasp.6.4.1 05Apr23 (build Jul 24 2024 14:19:02) complex                         
 executed on             LinuxGNU date 2024.10.23  12:33:34
 running    1 mpi-ranks, with   24 threads/rank, on    1 nodes
 distrk:  each k-point on    1 cores,    1 groups
 distr:  one band on NCORE=   1 cores,    1 groups


--------------------------------------------------------------------------------------------------------


 INCAR:
   ISTART = 0
   ALGO = Fast
   EDIFF = 0.0001
   ENCUT = 520
   IBRION = -1
   ISIF = 2
   ISMEAR = -5
   ISPIN = 2
   LASPH = True
   LMAXMIX = 6
   LORBIT = 11
   LREAL = Auto
   LWAVE = False
   MAGMOM = 2*0.6
   NELM = 100
   NSW = 0
   PREC = Accurate
   SIGMA = 0.05

 POTCAR:    PAW_PBE Nb_pv 08Apr2002               
 POTCAR:    PAW_PBE Nb_pv 08Apr2002               
   SHA256 =  bac2b60850b34f8515cf56f9feae68b678e347865051052a0e1f5d2c6a691c0a Nb_pv/POTCAR          
   COPYR  = (c) Copyright 08Apr2002 Georg Kresse                                                    
   COPYR  = This file is part of the software VASP. Any use, copying, and all other rights are regul
   COPYR  = If you do not have a valid VASP license, you may not use, copy or distribute this file. 
   VRHFIN =Nb: 4p5s4d                                                                               
   LEXCH  = PE                                                                                      
   EATOM  =  1043.3917 eV,   76.6871 Ry                                                             
                                                                                                    
   TITEL  = PAW_PBE Nb_pv 08Apr2002                                                                 
   LULTRA =        F    use ultrasoft PP ?                                                          
   IUNSCR =        1    unscreen: 0-lin 1-nonlin 2-no                                               
   RPACOR =    2.200    partial core radius                                                         
   POMASS =   92.000; ZVAL   =   11.000    mass and valenz                                          
   RCORE  =    2.750    outmost cutoff radius                                                       
   RWIGS  =    2.840; RWIGS  =    1.503    wigner-seitz radius (au A)                               
   ENMAX  =  208.608; ENMIN  =  156.456 eV                                                          
   RCLOC  =    2.201    cutoff for local pot                                                        
   LCOR   =        T    correct aug charges                                                         
   LPAW   =        T    paw PP                                                                      
   EAUG   =  355.067                                                                                
   DEXC   =    0.000                                                                                
   RMAX   =    2.804    core radius for proj-oper                                                   
   RAUG   =    1.300    factor for augmentation sphere                                              
   RDEP   =    2.776    radius for radial grids                                                     
   RDEPT  =    2.198    core radius for aug-charge                                                  
                                                                                                    
   Atomic configuration                                                                             
   11 entries                                                                                       
     n  l   j            E        occ.                                                              
     1  0  0.50    -18805.2456   2.0000                                                             
     2  0  0.50     -2630.2869   2.0000                                                             
     2  1  1.50     -2348.4045   6.0000                                                             
     3  0  0.50      -438.8756   2.0000                                                             
     3  1  1.50      -346.7587   6.0000                                                             
     3  2  2.50      -196.2559  10.0000                                                             
     4  0  0.50       -58.3859   2.0000                                                             
     4  1  1.50       -34.5141   6.0000                                                             
     4  2  2.50        -3.0408   4.0000                                                             
     5  0  0.50        -3.9816   1.0000                                                             
     4  3  2.50        -1.3606   0.0000                                                             
   Description                                                                                      
     l       E           TYP  RCUT    TYP  RCUT                                                     
     1    -34.5140617     23  2.600                                                                 
     1     -1.3605826     23  2.600                                                                 
     2     -3.0407924     23  2.600                                                                 
     2     -1.4463597     23  2.600                                                                 
     0     -3.9816219     23  2.750                                                                 
     0     20.4087390     23  2.750                                                                 
  local pseudopotential read in
  partial core-charges read in
  partial kinetic energy density read in
  atomic valenz-charges read in
  non local Contribution for L=           1  read in
    real space projection operators read in
  non local Contribution for L=           1  read in
    real space projection operators read in
  non local Contribution for L=           2  read in
    real space projection operators read in
  non local Contribution for L=           2  read in
    real space projection operators read in
  non local Contribution for L=           0  read in
    real space projection operators read in
  non local Contribution for L=           0  read in
    real space projection operators read in
    PAW grid and wavefunctions read in

   number of l-projection  operators is LMAX  =           6
   number of lm-projection operators is LMMAX =          18

 -----------------------------------------------------------------------------
|                                                                             |
|               ----> ADVICE to this user running VASP <----                  |
|                                                                             |
|     You have a (more or less) 'small supercell' and for smaller cells       |
|     it is recommended to use the reciprocal-space projection scheme!        |
|     The real-space optimization is not efficient for small cells and it     |
|     is also less accurate ...                                               |
|     Therefore, set LREAL=.FALSE. in the INCAR file.                         |
|                                                                             |
 -----------------------------------------------------------------------------

 Optimization of the real space projectors (new method)

 maximal supplied QI-value         = 13.61
 optimisation between [QCUT,QGAM] = [ 11.57, 23.27] = [ 37.45,151.59] Ry 
 Optimized for a Real-space Cutoff    1.63 Angstroem

   l    n(q)    QCUT    max X(q) W(low)/X(q) W(high)/X(q)  e(spline) 
   1     11    11.565     4.545    0.12E-04    0.18E-04    0.64E-07
   1     11    11.565     6.014    0.42E-04    0.48E-04    0.13E-06
   2     10    11.565   266.542    0.24E-03    0.87E-04    0.13E-05
   2     10    11.565   232.726    0.24E-03    0.87E-04    0.13E-05
   0     11    11.565    38.050    0.76E-04    0.32E-05    0.94E-06
   0     11    11.565    16.565    0.58E-04    0.25E-05    0.73E-06
  PAW_PBE Nb_pv 08Apr2002               :
 energy of atom  1       EATOM=-1043.3917
 kinetic energy error for atom=    0.0011 (will be added to EATOM!!)


 POSCAR: Generated POSCAR
  positions in direct lattice
  velocities in cartesian coordinates
 exchange correlation table for  LEXCH =        8
   RHO(1)=    0.500       N(1)  =     2000
   RHO(2)=  100.500       N(2)  =     4000



--------------------------------------------------------------------------------------------------------


 ion  position               nearest neighbor table
   1  0.000  0.000  0.000-   2 2.89   2 2.89   2 2.89   2 2.89   2 2.89   2 2.89   2 2.89   2 2.89

   2  0.500  0.500  0.500-   1 2.89   1 2.89   1 2.89   1 2.89   1 2.89   1 2.89   1 2.89   1 2.89


  LATTYP: Found a simple tetragonal cell.
 ALAT       =     3.3217793369
 C/A-ratio  =     1.0100000000
  
  Lattice vectors:
  
 A1 = (   0.0000000000,   3.3217793369,   0.0000000000)
 A2 = (   0.0000000000,   0.0000000000,   3.3217793369)
 A3 = (   3.3549971303,   0.0000000000,   0.0000000000)


Analysis of symmetry for initial positions (statically):
=====================================================================
 Subroutine PRICEL returns following result:
 
  LATTYP: Found a body centered tetragonal cell.
 ALAT       =     3.3217793369
 C/A-ratio  =     1.0100000000
  
  Lattice vectors:
  
 A1 = (  -1.6774985651,   1.6608896685,   1.6608896685)
 A2 = (  -1.6774985651,  -1.6608896685,  -1.6608896685)
 A3 = (   1.6774985651,  -1.6608896685,   1.6608896685)
 
   2 primitive cells build up your supercell.
 

 Routine SETGRP: Setting up the symmetry group for a 
 simple tetragonal supercell.


 Subroutine GETGRP returns: Found 16 space group operations
 (whereof 16 operations were pure point group operations)
 out of a pool of 16 trial point group operations.


The static configuration has the point symmetry D_4h.


Analysis of symmetry for dynamics (positions and initial velocities):
=====================================================================
 Subroutine PRICEL returns following result:
 
  LATTYP: Found a body centered tetragonal cell.
 ALAT       =     3.3217793369
 C/A-ratio  =     1.0100000000
  
  Lattice vectors:
  
 A1 = (  -1.6774985651,   1.6608896685,   1.6608896685)
 A2 = (  -1.6774985651,  -1.6608896685,  -1.6608896685)
 A3 = (   1.6774985651,  -1.6608896685,   1.6608896685)
 
   2 primitive cells build up your supercell.
 

 Routine SETGRP: Setting up the symmetry group for a 
 simple tetragonal supercell.


 Subroutine GETGRP returns: Found 16 space group operations
 (whereof 16 operations were pure point group operations)
 out of a pool of 16 trial point group operations.


The dynamic configuration has the point symmetry D_4h.


Analysis of structural, dynamic, and magnetic symmetry:
=====================================================================
 Subroutine PRICEL returns following result:
 
  LATTYP: Found a body centered tetragonal cell.
 ALAT       =     3.3217793369
 C/A-ratio  =     1.0100000000
  
  Lattice vectors:
  
 A1 = (  -1.6774985651,   1.6608896685,   1.6608896685)
 A2 = (  -1.6774985651,  -1.6608896685,  -1.6608896685)
 A3 = (   1.6774985651,  -1.6608896685,   1.6608896685)
 
   2 primitive cells build up your supercell.
 

 Routine SETGRP: Setting up the symmetry group for a 
 simple tetragonal supercell.


 Subroutine GETGRP returns: Found 16 space group operations
 (whereof 16 operations were pure point group operations)
 out of a pool of 16 trial point group operations.


The overall configuration has the point symmetry D_4h.


 Subroutine INISYM returns: Found 16 space group operations
 (whereof 16 operations are pure point group operations),
 and found     2 'primitive' translations


----------------------------------------------------------------------------------------

                                     Primitive cell                                     

  volume of cell :      18.5099

  direct lattice vectors                    reciprocal lattice vectors
    -1.677498565  1.660889668  1.660889668    -0.298062848  0.000000000  0.301043477
    -1.677498565 -1.660889668 -1.660889668    -0.298062848 -0.301043477 -0.000000000
     1.677498565 -1.660889668  1.660889668    -0.000000000 -0.301043477  0.301043477

  length of vectors
     2.886366300  2.886366300  2.886366300     0.423637388  0.423637388  0.425739767

  position of ions in fractional coordinates (direct lattice)
     0.000000000  0.000000000  0.000000000

  ion indices of the primitive-cell ions
   primitive index   ion index
                 1           1

----------------------------------------------------------------------------------------



 KPOINTS: pymatgen with grid density = 869 / numbe

Automatic generation of k-mesh.
 Grid dimensions read from file:
 generate k-points for:    7    7    7

 Generating k-lattice:

  Cartesian coordinates                     Fractional coordinates (reciprocal lattice)
     0.042580407 -0.000000000  0.000000000     0.142857143  0.000000000  0.000000000
     0.000000000  0.043006211  0.000000000     0.000000000  0.142857143  0.000000000
    -0.000000000 -0.000000000  0.043006211     0.000000000 -0.000000000  0.142857143

  Length of vectors
     0.042580407  0.043006211  0.043006211

  Shift w.r.t. Gamma in fractional coordinates (k-lattice)
     0.000000000  0.000000000  0.000000000

 TETIRR: Found    500 inequivalent tetrahedra from     2058
 
 Subroutine IBZKPT returns following result:
 ===========================================
 
 Found     40 irreducible k-points:
 
 Following reciprocal coordinates:
            Coordinates               Weight
  0.000000  0.000000  0.000000      1.000000
  0.142857  0.000000  0.000000      2.000000
  0.285714  0.000000  0.000000      2.000000
  0.428571  0.000000  0.000000      2.000000
  0.000000  0.142857  0.000000      4.000000
  0.142857  0.142857  0.000000      8.000000
  0.285714  0.142857  0.000000      8.000000
  0.428571  0.142857  0.000000      8.000000
  0.000000  0.285714  0.000000      4.000000
  0.142857  0.285714  0.000000      8.000000
  0.285714  0.285714  0.000000      8.000000
  0.428571  0.285714  0.000000      8.000000
  0.000000  0.428571  0.000000      4.000000
  0.142857  0.428571  0.000000      8.000000
  0.285714  0.428571  0.000000      8.000000
  0.428571  0.428571  0.000000      8.000000
  0.000000  0.142857  0.142857      4.000000
  0.142857  0.142857  0.142857      8.000000
  0.285714  0.142857  0.142857      8.000000
  0.428571  0.142857  0.142857      8.000000
  0.000000  0.285714  0.142857      8.000000
  0.142857  0.285714  0.142857     16.000000
  0.285714  0.285714  0.142857     16.000000
  0.428571  0.285714  0.142857     16.000000
  0.000000  0.428571  0.142857      8.000000
  0.142857  0.428571  0.142857     16.000000
  0.285714  0.428571  0.142857     16.000000
  0.428571  0.428571  0.142857     16.000000
  0.000000  0.285714  0.285714      4.000000
  0.142857  0.285714  0.285714      8.000000
  0.285714  0.285714  0.285714      8.000000
  0.428571  0.285714  0.285714      8.000000
  0.000000  0.428571  0.285714      8.000000
  0.142857  0.428571  0.285714     16.000000
  0.285714  0.428571  0.285714     16.000000
  0.428571  0.428571  0.285714     16.000000
  0.000000  0.428571  0.428571      4.000000
  0.142857  0.428571  0.428571      8.000000
  0.285714  0.428571  0.428571      8.000000
  0.428571  0.428571  0.428571      8.000000
 
 Following cartesian coordinates:
            Coordinates               Weight
  0.000000  0.000000  0.000000      1.000000
  0.042580  0.000000  0.000000      2.000000
  0.085161  0.000000  0.000000      2.000000
  0.127741  0.000000  0.000000      2.000000
  0.000000  0.043006  0.000000      4.000000
  0.042580  0.043006  0.000000      8.000000
  0.085161  0.043006  0.000000      8.000000
  0.127741  0.043006  0.000000      8.000000
  0.000000  0.086012  0.000000      4.000000
  0.042580  0.086012  0.000000      8.000000
  0.085161  0.086012  0.000000      8.000000
  0.127741  0.086012  0.000000      8.000000
  0.000000  0.129019  0.000000      4.000000
  0.042580  0.129019  0.000000      8.000000
  0.085161  0.129019  0.000000      8.000000
  0.127741  0.129019  0.000000      8.000000
  0.000000  0.043006  0.043006      4.000000
  0.042580  0.043006  0.043006      8.000000
  0.085161  0.043006  0.043006      8.000000
  0.127741  0.043006  0.043006      8.000000
  0.000000  0.086012  0.043006      8.000000
  0.042580  0.086012  0.043006     16.000000
  0.085161  0.086012  0.043006     16.000000
  0.127741  0.086012  0.043006     16.000000
  0.000000  0.129019  0.043006      8.000000
  0.042580  0.129019  0.043006     16.000000
  0.085161  0.129019  0.043006     16.000000
  0.127741  0.129019  0.043006     16.000000
  0.000000  0.086012  0.086012      4.000000
  0.042580  0.086012  0.086012      8.000000
  0.085161  0.086012  0.086012      8.000000
  0.127741  0.086012  0.086012      8.000000
  0.000000  0.129019  0.086012      8.000000
  0.042580  0.129019  0.086012     16.000000
  0.085161  0.129019  0.086012     16.000000
  0.127741  0.129019  0.086012     16.000000
  0.000000  0.129019  0.129019      4.000000
  0.042580  0.129019  0.129019      8.000000
  0.085161  0.129019  0.129019      8.000000
  0.127741  0.129019  0.129019      8.000000
 


--------------------------------------------------------------------------------------------------------




 Dimension of arrays:
   k-points           NKPTS =     40   k-points in BZ     NKDIM =     40   number of bands    NBANDS=     16
   number of dos      NEDOS =    301   number of ions     NIONS =      2
   non local maximal  LDIM  =      6   non local SUM 2l+1 LMDIM =     18
   total plane-waves  NPLWV =  21952
   max r-space proj   IRMAX =  10752   max aug-charges    IRDMAX=  36704
   dimension x,y,z NGX =    28 NGY =   28 NGZ =   28
   dimension x,y,z NGXF=    56 NGYF=   56 NGZF=   56
   support grid    NGXF=    56 NGYF=   56 NGZF=   56
   ions per type =               2
   NGX,Y,Z   is equivalent  to a cutoff of  13.87, 14.01, 14.01 a.u.
   NGXF,Y,Z  is equivalent  to a cutoff of  27.75, 28.03, 28.03 a.u.

 SYSTEM =  unknown system                          
 POSCAR =  Generated POSCAR                        

 Startparameter for this run:
   NWRITE =      2    write-flag & timer
   PREC   = accura    normal or accurate (medium, high low for compatibility)
   ISTART =      0    job   : 0-new  1-cont  2-samecut
   ICHARG =      2    charge: 1-file 2-atom 10-const
   ISPIN  =      2    spin polarized calculation?
   LNONCOLLINEAR =      F non collinear calculations
   LSORBIT =      F    spin-orbit coupling
   INIWAV =      1    electr: 0-lowe 1-rand  2-diag
   LASPH  =      T    aspherical Exc in radial PAW
 Electronic Relaxation 1
   ENCUT  =  520.0 eV  38.22 Ry    6.18 a.u.   6.24  6.18  6.18*2*pi/ulx,y,z
   ENINI  =  520.0     initial cutoff
   ENAUG  =  355.1 eV  augmentation charge cutoff
   NELM   =    100;   NELMIN=  2; NELMDL= -5     # of ELM steps 
   EDIFF  = 0.1E-03   stopping-criterion for ELM
   LREAL  =      T    real-space projection
   NLSPLINE    = F    spline interpolate recip. space projectors
   LCOMPAT=      F    compatible to vasp.4.4
   GGA_COMPAT  = T    GGA compatible to vasp.4.4-vasp.4.6
   LMAXPAW     = -100 max onsite density
   LMAXMIX     =    6 max onsite mixed and CHGCAR
   VOSKOWN=      0    Vosko Wilk Nusair interpolation
   ROPT   =   -0.00025
 Ionic relaxation
   EDIFFG = 0.1E-02   stopping-criterion for IOM
   NSW    =      0    number of steps for IOM
   NBLOCK =      1;   KBLOCK =      1    inner block; outer block 
   IBRION =     -1    ionic relax: 0-MD 1-quasi-New 2-CG
   NFREE  =      0    steps in history (QN), initial steepest desc. (CG)
   ISIF   =      2    stress and relaxation
   IWAVPR =     10    prediction:  0-non 1-charg 2-wave 3-comb
   ISYM   =      2    0-nonsym 1-usesym 2-fastsym
   LCORR  =      T    Harris-Foulkes like correction to forces

   POTIM  = 0.5000    time-step for ionic-motion
   TEIN   =    0.0    initial temperature
   TEBEG  =    0.0;   TEEND  =   0.0 temperature during run
   SMASS  =  -3.00    Nose mass-parameter (am)
   estimated Nose-frequenzy (Omega)   =  0.10E-29 period in steps = 0.13E+47 mass=  -0.257E-27a.u.
   SCALEE = 1.0000    scale energy and forces
   NPACO  =    256;   APACO  = 10.0  distance and # of slots for P.C.
   PSTRESS=    0.0 pullay stress

  Mass of Ions in am
   POMASS =  92.00
  Ionic Valenz
   ZVAL   =  11.00
  Atomic Wigner-Seitz radii
   RWIGS  =  -1.00
  virtual crystal weights 
   VCA    =   1.00
   NELECT =      22.0000    total number of electrons
   NUPDOWN=      -1.0000    fix difference up-down

 DOS related values:
   EMIN   =  10.00;   EMAX   =-10.00  energy-range for DOS
   EFERMI =   0.00;   METHOD = LEGACY      
   ISMEAR =    -5;   SIGMA  =   0.05  broadening in eV -4-tet -1-fermi 0-gaus

 Electronic relaxation 2 (details)
   IALGO  =     68    algorithm
   LDIAG  =      T    sub-space diagonalisation (order eigenvalues)
   LSUBROT=      F    optimize rotation matrix (better conditioning)
   TURBO    =      0    0=normal 1=particle mesh
   IRESTART =      0    0=no restart 2=restart with 2 vectors
   NREBOOT  =      0    no. of reboots
   NMIN     =      0    reboot dimension
   EREF     =   0.00    reference energy to select bands
   IMIX   =      4    mixing-type and parameters
     AMIX     =   0.40;   BMIX     =  1.00
     AMIX_MAG =   1.60;   BMIX_MAG =  1.00
     AMIN     =   0.10
     WC   =   100.;   INIMIX=   1;  MIXPRE=   1;  MAXMIX= -45

 Intra band minimization:
   WEIMIN = 0.0000     energy-eigenvalue tresh-hold
   EBREAK =  0.16E-05  absolut break condition
   DEPER  =   0.30     relativ break condition  

   TIME   =   0.40     timestep for ELM

  volume/ion in A,a.u.               =      18.51       124.91
  Fermi-wavevector in a.u.,A,eV,Ry     =   1.376378  2.600978 25.775112  1.894417
  Thomas-Fermi vector in A             =   2.501628

 Write flags
   LWAVE        =      F    write WAVECAR
   LDOWNSAMPLE  =      F    k-point downsampling of WAVECAR
   LCHARG       =      T    write CHGCAR
   LVTOT        =      F    write LOCPOT, total local potential
   LVHAR        =      F    write LOCPOT, Hartree potential only
   LELF         =      F    write electronic localiz. function (ELF)
   LORBIT       =     11    0 simple, 1 ext, 2 COOP (PROOUT), +10 PAW based schemes


 Dipole corrections
   LMONO  =      F    monopole corrections only (constant potential shift)
   LDIPOL =      F    correct potential (dipole corrections)
   IDIPOL =      0    1-x, 2-y, 3-z, 4-all directions 
   EPSILON=  1.0000000 bulk dielectric constant

 Exchange correlation treatment:
   GGA     =    --    GGA type
   LEXCH   =     8    internal setting for exchange type
   LIBXC   =     F    Libxc                    
   VOSKOWN =     0    Vosko Wilk Nusair interpolation
   LHFCALC =     F    Hartree Fock is set to
   LHFONE  =     F    Hartree Fock one center treatment
   AEXX    =    0.0000 exact exchange contribution

 Linear response parameters
   LEPSILON=     F    determine dielectric tensor
   LRPA    =     F    only Hartree local field effects (RPA)
   LNABLA  =     F    use nabla operator in PAW spheres
   LVEL    =     F    velocity operator in full k-point grid
   CSHIFT  =0.1000    complex shift for real part using Kramers Kronig
   OMEGAMAX=  -1.0    maximum frequency
   DEG_THRESHOLD= 0.2000000E-02 threshold for treating states as degnerate
   RTIME   =   -0.100 relaxation time in fs
  (WPLASMAI=    0.000 imaginary part of plasma frequency in eV, 0.658/RTIME)
   DFIELD  = 0.0000000 0.0000000 0.0000000 field for delta impulse in time

  Optional k-point grid parameters
   LKPOINTS_OPT  =     F    use optional k-point grid
   KPOINTS_OPT_MODE=     1    mode for optional k-point grid

 Orbital magnetization related:
   ORBITALMAG=     F  switch on orbital magnetization
   LCHIMAG   =     F  perturbation theory with respect to B field
   DQ        =  0.001000  dq finite difference perturbation B field
   LLRAUG    =     F  two centre corrections for induced B field
   LBONE     =     F  B-component reconstruction in AE one-centre
   LVGVCALC  =     T  calculate vGv susceptibility
   LVGVAPPL  =     F  apply vGv susceptibility instead of pGv for G=0

 Random number generation:
   RANDOM_GENERATOR = DEFAULT
   PCG_SEED         = not used


--------------------------------------------------------------------------------------------------------


 Static calculation
 charge density and potential will be updated during run
 spin polarized calculation
 RMM-DIIS sequential band-by-band and
  variant of blocked Davidson during initial phase
 perform sub-space diagonalisation
    before iterative eigenvector-optimisation
 modified Broyden-mixing scheme, WC =      100.0
 initial mixing is a Kerker type mixing with AMIX =  0.4000 and BMIX =      1.0000
 Hartree-type preconditioning will be used
 using additional bands            5
 real space projection scheme for non local part
 use partial core corrections
 calculate Harris-corrections to forces   (improved forces if not selfconsistent)
 use gradient corrections 
 use of overlap-Matrix (Vanderbilt PP)
 Fermi weights with tetrahedron method with Bloechl corrections


--------------------------------------------------------------------------------------------------------


  energy-cutoff  :      520.00
  volume of cell :       37.02
      direct lattice vectors                 reciprocal lattice vectors
     3.354997130  0.000000000  0.000000000     0.298062848 -0.000000000  0.000000000
     0.000000000  3.321779337  0.000000000     0.000000000  0.301043477  0.000000000
     0.000000000  0.000000000  3.321779337    -0.000000000 -0.000000000  0.301043477

  length of vectors
     3.354997130  3.321779337  3.321779337     0.298062848  0.301043477  0.301043477



 k-points in units of 2pi/SCALE and weight: pymatgen with grid density = 869 / numbe
   0.00000000  0.00000000  0.00000000       0.003
   0.04258041  0.00000000  0.00000000       0.006
   0.08516081  0.00000000  0.00000000       0.006
   0.12774122  0.00000000  0.00000000       0.006
   0.00000000  0.04300621  0.00000000       0.012
   0.04258041  0.04300621  0.00000000       0.023
   0.08516081  0.04300621  0.00000000       0.023
   0.12774122  0.04300621  0.00000000       0.023
   0.00000000  0.08601242  0.00000000       0.012
   0.04258041  0.08601242  0.00000000       0.023
   0.08516081  0.08601242  0.00000000       0.023
   0.12774122  0.08601242  0.00000000       0.023
   0.00000000  0.12901863  0.00000000       0.012
   0.04258041  0.12901863  0.00000000       0.023
   0.08516081  0.12901863  0.00000000       0.023
   0.12774122  0.12901863  0.00000000       0.023
   0.00000000  0.04300621  0.04300621       0.012
   0.04258041  0.04300621  0.04300621       0.023
   0.08516081  0.04300621  0.04300621       0.023
   0.12774122  0.04300621  0.04300621       0.023
   0.00000000  0.08601242  0.04300621       0.023
   0.04258041  0.08601242  0.04300621       0.047
   0.08516081  0.08601242  0.04300621       0.047
   0.12774122  0.08601242  0.04300621       0.047
   0.00000000  0.12901863  0.04300621       0.023
   0.04258041  0.12901863  0.04300621       0.047
   0.08516081  0.12901863  0.04300621       0.047
   0.12774122  0.12901863  0.04300621       0.047
   0.00000000  0.08601242  0.08601242       0.012
   0.04258041  0.08601242  0.08601242       0.023
   0.08516081  0.08601242  0.08601242       0.023
   0.12774122  0.08601242  0.08601242       0.023
   0.00000000  0.12901863  0.08601242       0.023
   0.04258041  0.12901863  0.08601242       0.047
   0.08516081  0.12901863  0.08601242       0.047
   0.12774122  0.12901863  0.08601242       0.047
   0.00000000  0.12901863  0.12901863       0.012
   0.04258041  0.12901863  0.12901863       0.023
   0.08516081  0.12901863  0.12901863       0.023
   0.12774122  0.12901863  0.12901863       0.023

 k-points in reciprocal lattice and weights: pymatgen with grid density = 869 / numbe
   0.00000000  0.00000000  0.00000000       0.003
   0.14285714  0.00000000  0.00000000       0.006
   0.28571429  0.00000000  0.00000000       0.006
   0.42857143  0.00000000  0.00000000       0.006
   0.00000000  0.14285714  0.00000000       0.012
   0.14285714  0.14285714  0.00000000       0.023
   0.28571429  0.14285714  0.00000000       0.023
   0.42857143  0.14285714  0.00000000       0.023
   0.00000000  0.28571429  0.00000000       0.012
   0.14285714  0.28571429  0.00000000       0.023
   0.28571429  0.28571429  0.00000000       0.023
   0.42857143  0.28571429  0.00000000       0.023
   0.00000000  0.42857143  0.00000000       0.012
   0.14285714  0.42857143  0.00000000       0.023
   0.28571429  0.42857143  0.00000000       0.023
   0.42857143  0.42857143  0.00000000       0.023
   0.00000000  0.14285714  0.14285714       0.012
   0.14285714  0.14285714  0.14285714       0.023
   0.28571429  0.14285714  0.14285714       0.023
   0.42857143  0.14285714  0.14285714       0.023
   0.00000000  0.28571429  0.14285714       0.023
   0.14285714  0.28571429  0.14285714       0.047
   0.28571429  0.28571429  0.14285714       0.047
   0.42857143  0.28571429  0.14285714       0.047
   0.00000000  0.42857143  0.14285714       0.023
   0.14285714  0.42857143  0.14285714       0.047
   0.28571429  0.42857143  0.14285714       0.047
   0.42857143  0.42857143  0.14285714       0.047
   0.00000000  0.28571429  0.28571429       0.012
   0.14285714  0.28571429  0.28571429       0.023
   0.28571429  0.28571429  0.28571429       0.023
   0.42857143  0.28571429  0.28571429       0.023
   0.00000000  0.42857143  0.28571429       0.023
   0.14285714  0.42857143  0.28571429       0.047
   0.28571429  0.42857143  0.28571429       0.047
   0.42857143  0.42857143  0.28571429       0.047
   0.00000000  0.42857143  0.42857143       0.012
   0.14285714  0.42857143  0.42857143       0.023
   0.28571429  0.42857143  0.42857143       0.023
   0.42857143  0.42857143  0.42857143       0.023

 position of ions in fractional coordinates (direct lattice) 
   0.00000000  0.00000000  0.00000000
   0.50000000  0.50000000  0.50000000

 position of ions in cartesian coordinates  (Angst):
   0.00000000  0.00000000  0.00000000
   1.67749857  1.66088967  1.66088967



--------------------------------------------------------------------------------------------------------


 k-point   1 :   0.0000 0.0000 0.0000  plane waves:    1021
 k-point   2 :   0.1429 0.0000 0.0000  plane waves:     989
 k-point   3 :   0.2857 0.0000 0.0000  plane waves:     996
 k-point   4 :   0.4286 0.0000 0.0000  plane waves:    1000
 k-point   5 :   0.0000 0.1429 0.0000  plane waves:     989
 k-point   6 :   0.1429 0.1429 0.0000  plane waves:     993
 k-point   7 :   0.2857 0.1429 0.0000  plane waves:     995
 k-point   8 :   0.4286 0.1429 0.0000  plane waves:    1000
 k-point   9 :   0.0000 0.2857 0.0000  plane waves:     994
 k-point  10 :   0.1429 0.2857 0.0000  plane waves:    1004
 k-point  11 :   0.2857 0.2857 0.0000  plane waves:     993
 k-point  12 :   0.4286 0.2857 0.0000  plane waves:     991
 k-point  13 :   0.0000 0.4286 0.0000  plane waves:     998
 k-point  14 :   0.1429 0.4286 0.0000  plane waves:     994
 k-point  15 :   0.2857 0.4286 0.0000  plane waves:     995
 k-point  16 :   0.4286 0.4286 0.0000  plane waves:    1000
 k-point  17 :   0.0000 0.1429 0.1429  plane waves:     985
 k-point  18 :   0.1429 0.1429 0.1429  plane waves:     991
 k-point  19 :   0.2857 0.1429 0.1429  plane waves:     995
 k-point  20 :   0.4286 0.1429 0.1429  plane waves:     995
 k-point  21 :   0.0000 0.2857 0.1429  plane waves:     995
 k-point  22 :   0.1429 0.2857 0.1429  plane waves:     996
 k-point  23 :   0.2857 0.2857 0.1429  plane waves:     995
 k-point  24 :   0.4286 0.2857 0.1429  plane waves:     998
 k-point  25 :   0.0000 0.4286 0.1429  plane waves:     995
 k-point  26 :   0.1429 0.4286 0.1429  plane waves:     995
 k-point  27 :   0.2857 0.4286 0.1429  plane waves:     999
 k-point  28 :   0.4286 0.4286 0.1429  plane waves:     997
 k-point  29 :   0.0000 0.2857 0.2857  plane waves:     993
 k-point  30 :   0.1429 0.2857 0.2857  plane waves:    1000
 k-point  31 :   0.2857 0.2857 0.2857  plane waves:     997
 k-point  32 :   0.4286 0.2857 0.2857  plane waves:     996
 k-point  33 :   0.0000 0.4286 0.2857  plane waves:     996
 k-point  34 :   0.1429 0.4286 0.2857  plane waves:    1001
 k-point  35 :   0.2857 0.4286 0.2857  plane waves:     996
 k-point  36 :   0.4286 0.4286 0.2857  plane waves:    1000
 k-point  37 :   0.0000 0.4286 0.4286  plane waves:    1012
 k-point  38 :   0.1429 0.4286 0.4286  plane waves:    1007
 k-point  39 :   0.2857 0.4286 0.4286  plane waves:     997
 k-point  40 :   0.4286 0.4286 0.4286  plane waves:    1006

 maximum and minimum number of plane-waves per node :      1021      985

 maximum number of plane-waves:      1021
 maximum index in each direction: 
   IXMAX=    6   IYMAX=    6   IZMAX=    6
   IXMIN=   -6   IYMIN=   -6   IZMIN=   -6


 serial   3D FFT for wavefunctions
 parallel 3D FFT for charge:
    minimum data exchange during FFTs selected (reduces bandwidth)


 total amount of memory used by VASP MPI-rank0    78812. kBytes
=======================================================================

   base      :      30000. kBytes
   nonlr-proj:       6135. kBytes
   fftplans  :       6192. kBytes
   grid      :      14776. kBytes
   one-center:         62. kBytes
   wavefun   :      21647. kBytes

     INWAV:  cpu time      0.0024: real time      0.0001
 Broyden mixing: mesh for mixing (old mesh)
   NGX = 13   NGY = 13   NGZ = 13
  (NGX  = 56   NGY  = 56   NGZ  = 56)
  gives a total of   2197 points

 initial charge density was supplied:
 charge density of overlapping atoms calculated
 number of electron      22.0000000 magnetization       1.2000000
 keeping initial charge density in first step


--------------------------------------------------------------------------------------------------------


 Maximum index for non-local projection operator         1126
 Maximum index for augmentation-charges        35401 (set IRDMAX)


--------------------------------------------------------------------------------------------------------


 First call to EWALD:  gamma=   0.532
 Maximum number of real-space cells 3x 3x 3
 Maximum number of reciprocal cells 3x 3x 3

    FEWALD:  cpu time      0.3738: real time      0.0133


--------------------------------------- Ionic step        1  -------------------------------------------




--------------------------------------- Iteration      1(   1)  ---------------------------------------


    POTLOK:  cpu time      2.0099: real time      0.1652
    SETDIJ:  cpu time      1.1974: real time      0.2610
     EDDAV:  cpu time    302.8268: real time     16.5188
 BZINTS: Fermi energy:   23.247906;   22.000000 electrons
         Band energy:-0.307111E+02;  BLOECHL correction:   -0.639157
       DOS:  cpu time      0.2660: real time      0.0274
    --------------------------------------------
      LOOP:  cpu time    306.3002: real time     16.9724

 eigenvalue-minimisations  :  2808
 total energy-change (2. order) : 0.2007342E+03  (-0.1161418E+04)
 number of electron      22.0000000 magnetization       1.2000000
 augmentation part       22.0000000 magnetization       1.2000000

 Free energy of the ion-electron system (eV)
  ---------------------------------------------------
  alpha Z        PSCENC =       244.57667505
  Ewald energy   TEWEN  =     -1902.56446717
  -Hartree energ DENC   =      -281.79227234
  -exchange      EXHF   =         0.00000000
  -V(xc)+E(xc)   XCENC  =        52.53566775
  PAW double counting   =      1671.32378679    -1639.41528309
  entropy T*S    EENTRO =         0.00000000
  eigenvalues    EBANDS =       -30.71110087
  atomic energy  EATOM  =      2086.78124273
  Solvation  Ediel_sol  =         0.00000000
  ---------------------------------------------------
  free energy    TOTEN  =       200.73424884 eV

  energy without entropy =      200.73424884  energy(sigma->0) =      200.73424884


--------------------------------------------------------------------------------------------------------




--------------------------------------- Iteration      1(   2)  ---------------------------------------


     EDDAV:  cpu time    994.2073: real time     47.2804
 BZINTS: Fermi energy:    7.016729;   22.000000 electrons
         Band energy:-0.242167E+03;  BLOECHL correction:   -0.342603
       DOS:  cpu time      0.1964: real time      0.0265
    --------------------------------------------
      LOOP:  cpu time    994.4038: real time     47.3069

 eigenvalue-minimisations  :  2776
 total energy-change (2. order) :-0.2114559E+03  (-0.2093028E+03)
 number of electron      22.0000000 magnetization       1.2000000
 augmentation part       22.0000000 magnetization       1.2000000

 Free energy of the ion-electron system (eV)
  ---------------------------------------------------
  alpha Z        PSCENC =       244.57667505
  Ewald energy   TEWEN  =     -1902.56446717
  -Hartree energ DENC   =      -281.79227234
  -exchange      EXHF   =         0.00000000
  -V(xc)+E(xc)   XCENC  =        52.53566775
  PAW double counting   =      1671.32378679    -1639.41528309
  entropy T*S    EENTRO =         0.00000000
  eigenvalues    EBANDS =      -242.16704731
  atomic energy  EATOM  =      2086.78124273
  Solvation  Ediel_sol  =         0.00000000
  ---------------------------------------------------
  free energy    TOTEN  =       -10.72169760 eV

  energy without entropy =      -10.72169760  energy(sigma->0) =      -10.72169760


--------------------------------------------------------------------------------------------------------




--------------------------------------- Iteration      1(   3)  ---------------------------------------


     EDDAV:  cpu time    351.6971: real time     19.5644
 BZINTS: Fermi energy:    5.397313;   22.000000 electrons
         Band energy:-0.252451E+03;  BLOECHL correction:   -0.209386
       DOS:  cpu time      0.2864: real time      0.0287
    --------------------------------------------
      LOOP:  cpu time    351.9835: real time     19.5930

 eigenvalue-minimisations  :  4256
 total energy-change (2. order) :-0.1028408E+02  (-0.9717349E+01)
 number of electron      22.0000000 magnetization       1.2000000
 augmentation part       22.0000000 magnetization       1.2000000

 Free energy of the ion-electron system (eV)
  ---------------------------------------------------
  alpha Z        PSCENC =       244.57667505
  Ewald energy   TEWEN  =     -1902.56446717
  -Hartree energ DENC   =      -281.79227234
  -exchange      EXHF   =         0.00000000
  -V(xc)+E(xc)   XCENC  =        52.53566775
  PAW double counting   =      1671.32378679    -1639.41528309
  entropy T*S    EENTRO =         0.00000000
  eigenvalues    EBANDS =      -252.45113049
  atomic energy  EATOM  =      2086.78124273
  Solvation  Ediel_sol  =         0.00000000
  ---------------------------------------------------
  free energy    TOTEN  =       -21.00578078 eV

  energy without entropy =      -21.00578078  energy(sigma->0) =      -21.00578078


--------------------------------------------------------------------------------------------------------




--------------------------------------- Iteration      1(   4)  ---------------------------------------


     EDDAV:  cpu time    277.5785: real time     15.4723
 BZINTS: Fermi energy:    5.375575;   22.000000 electrons
         Band energy:-0.252602E+03;  BLOECHL correction:   -0.206385
       DOS:  cpu time      0.2954: real time      0.0319
    --------------------------------------------
      LOOP:  cpu time    277.8739: real time     15.5042

 eigenvalue-minimisations  :  3080
 total energy-change (2. order) :-0.1513640E+00  (-0.1498258E+00)
 number of electron      22.0000000 magnetization       1.2000000
 augmentation part       22.0000000 magnetization       1.2000000

 Free energy of the ion-electron system (eV)
  ---------------------------------------------------
  alpha Z        PSCENC =       244.57667505
  Ewald energy   TEWEN  =     -1902.56446717
  -Hartree energ DENC   =      -281.79227234
  -exchange      EXHF   =         0.00000000
  -V(xc)+E(xc)   XCENC  =        52.53566775
  PAW double counting   =      1671.32378679    -1639.41528309
  entropy T*S    EENTRO =         0.00000000
  eigenvalues    EBANDS =      -252.60249447
  atomic energy  EATOM  =      2086.78124273
  Solvation  Ediel_sol  =         0.00000000
  ---------------------------------------------------
  free energy    TOTEN  =       -21.15714475 eV

  energy without entropy =      -21.15714475  energy(sigma->0) =      -21.15714475


--------------------------------------------------------------------------------------------------------




--------------------------------------- Iteration      1(   5)  ---------------------------------------


     EDDAV:  cpu time    308.8985: real time     17.5686
 BZINTS: Fermi energy:    5.372707;   22.000000 electrons
         Band energy:-0.252610E+03;  BLOECHL correction:   -0.205783
       DOS:  cpu time      0.2836: real time      0.0271
    CHARGE:  cpu time     22.3068: real time      1.2433
    MIXING:  cpu time      0.0020: real time      0.0020
    --------------------------------------------
      LOOP:  cpu time    331.4909: real time     18.8410

 eigenvalue-minimisations  :  4144
 total energy-change (2. order) :-0.7439320E-02  (-0.7145938E-02)
 number of electron      22.0000002 magnetization       0.3521583
 augmentation part        7.7533455 magnetization      -0.0538652

 Broyden mixing:
  rms(total) = 0.23577E+01    rms(broyden)= 0.23577E+01
  rms(prec ) = 0.27892E+01
  weight for this iteration     100.00

 Free energy of the ion-electron system (eV)
  ---------------------------------------------------
  alpha Z        PSCENC =       244.57667505
  Ewald energy   TEWEN  =     -1902.56446717
  -Hartree energ DENC   =      -281.79227234
  -exchange      EXHF   =         0.00000000
  -V(xc)+E(xc)   XCENC  =        52.53566775
  PAW double counting   =      1671.32378679    -1639.41528309
  entropy T*S    EENTRO =         0.00000000
  eigenvalues    EBANDS =      -252.60993379
  atomic energy  EATOM  =      2086.78124273
  Solvation  Ediel_sol  =         0.00000000
  ---------------------------------------------------
  free energy    TOTEN  =       -21.16458407 eV

  energy without entropy =      -21.16458407  energy(sigma->0) =      -21.16458407


--------------------------------------------------------------------------------------------------------




--------------------------------------- Iteration      1(   6)  ---------------------------------------


    POTLOK:  cpu time      2.1880: real time      0.1676
    SETDIJ:  cpu time      1.4153: real time      0.2771
    EDDIAG:  cpu time     54.5509: real time      3.0997
  RMM-DIIS:  cpu time    182.7979: real time      9.9090
    ORTHCH:  cpu time      1.2175: real time      0.0750
 BZINTS: Fermi energy:    5.016317;   22.000000 electrons
         Band energy:-0.266883E+03;  BLOECHL correction:   -0.208430
       DOS:  cpu time      0.3130: real time      0.0266
    CHARGE:  cpu time     17.5527: real time      0.9864
    MIXING:  cpu time      0.0016: real time      0.0016
    --------------------------------------------
      LOOP:  cpu time    260.0369: real time     14.5428

 eigenvalue-minimisations  :  2813
 total energy-change (2. order) : 0.8206527E+00  (-0.8256954E-01)
 number of electron      22.0000002 magnetization       0.1591937
 augmentation part        7.8823059 magnetization      -0.0563225

 Broyden mixing:
  rms(total) = 0.88566E+00    rms(broyden)= 0.88566E+00
  rms(prec ) = 0.11740E+01
  weight for this iteration     100.00

 eigenvalues of (default mixing * dielectric matrix)
  average eigenvalue GAMMA=   1.4877
  1.4877

 Free energy of the ion-electron system (eV)
  ---------------------------------------------------
  alpha Z        PSCENC =       244.57667505
  Ewald energy   TEWEN  =     -1902.56446717
  -Hartree energ DENC   =      -262.19258152
  -exchange      EXHF   =         0.00000000
  -V(xc)+E(xc)   XCENC  =        51.50905868
  PAW double counting   =      2173.48379359    -2145.05478121
  entropy T*S    EENTRO =         0.00000000
  eigenvalues    EBANDS =      -266.88287156
  atomic energy  EATOM  =      2086.78124273
  Solvation  Ediel_sol  =         0.00000000
  ---------------------------------------------------
  free energy    TOTEN  =       -20.34393140 eV

  energy without entropy =      -20.34393140  energy(sigma->0) =      -20.34393140


--------------------------------------------------------------------------------------------------------




--------------------------------------- Iteration      1(   7)  ---------------------------------------


    POTLOK:  cpu time      1.1718: real time      0.1180
    SETDIJ:  cpu time      1.2058: real time      0.2562
    EDDIAG:  cpu time     49.6899: real time      2.8237
  RMM-DIIS:  cpu time    179.8068: real time      9.9715
    ORTHCH:  cpu time      1.2785: real time      0.0747
 BZINTS: Fermi energy:    4.719147;   22.000000 electrons
         Band energy:-0.278774E+03;  BLOECHL correction:   -0.207315
       DOS:  cpu time      0.3006: real time      0.0355
    CHARGE:  cpu time     19.4591: real time      1.0925
    MIXING:  cpu time      0.0016: real time      0.0016
    --------------------------------------------
      LOOP:  cpu time    252.9141: real time     14.3737

 eigenvalue-minimisations  :  3479
 total energy-change (2. order) : 0.1450341E+00  (-0.2201319E+00)
 number of electron      22.0000002 magnetization       0.0361661
 augmentation part        8.0562562 magnetization       0.0345541

 Broyden mixing:
  rms(total) = 0.23894E+00    rms(broyden)= 0.23894E+00
  rms(prec ) = 0.25756E+00
  weight for this iteration     100.00

 eigenvalues of (default mixing * dielectric matrix)
  average eigenvalue GAMMA=   1.0705
  1.6028  0.5381

 Free energy of the ion-electron system (eV)
  ---------------------------------------------------
  alpha Z        PSCENC =       244.57667505
  Ewald energy   TEWEN  =     -1902.56446717
  -Hartree energ DENC   =      -246.39069710
  -exchange      EXHF   =         0.00000000
  -V(xc)+E(xc)   XCENC  =        50.72390759
  PAW double counting   =      2584.01764097    -2558.56936705
  entropy T*S    EENTRO =         0.00000000
  eigenvalues    EBANDS =      -278.77383232
  atomic energy  EATOM  =      2086.78124273
  Solvation  Ediel_sol  =         0.00000000
  ---------------------------------------------------
  free energy    TOTEN  =       -20.19889731 eV

  energy without entropy =      -20.19889731  energy(sigma->0) =      -20.19889731


--------------------------------------------------------------------------------------------------------




--------------------------------------- Iteration      1(   8)  ---------------------------------------


    POTLOK:  cpu time      1.0609: real time      0.0969
    SETDIJ:  cpu time      1.0906: real time      0.2631
    EDDIAG:  cpu time     52.4199: real time      2.9445
  RMM-DIIS:  cpu time    225.5215: real time     12.2215
    ORTHCH:  cpu time      0.8242: real time      0.0526
 BZINTS: Fermi energy:    4.730382;   22.000000 electrons
         Band energy:-0.278220E+03;  BLOECHL correction:   -0.207474
       DOS:  cpu time      0.2706: real time      0.0254
    CHARGE:  cpu time     14.6589: real time      0.8550
    MIXING:  cpu time      0.0015: real time      0.0013
    --------------------------------------------
      LOOP:  cpu time    295.8482: real time     16.4602

 eigenvalue-minimisations  :  3688
 total energy-change (2. order) :-0.1154859E-01  (-0.1100385E-01)
 number of electron      22.0000002 magnetization       0.0231048
 augmentation part        8.0631396 magnetization       0.0152865

 Broyden mixing:
  rms(total) = 0.11663E+00    rms(broyden)= 0.11663E+00
  rms(prec ) = 0.14463E+00
  weight for this iteration     100.00

 eigenvalues of (default mixing * dielectric matrix)
  average eigenvalue GAMMA=   1.0634
  1.8190  0.6857  0.6857

 Free energy of the ion-electron system (eV)
  ---------------------------------------------------
  alpha Z        PSCENC =       244.57667505
  Ewald energy   TEWEN  =     -1902.56446717
  -Hartree energ DENC   =      -246.74808739
  -exchange      EXHF   =         0.00000000
  -V(xc)+E(xc)   XCENC  =        50.73480409
  PAW double counting   =      2630.64570089    -2605.41596504
  entropy T*S    EENTRO =         0.00000000
  eigenvalues    EBANDS =      -278.22034906
  atomic energy  EATOM  =      2086.78124273
  Solvation  Ediel_sol  =         0.00000000
  ---------------------------------------------------
  free energy    TOTEN  =       -20.21044590 eV

  energy without entropy =      -20.21044590  energy(sigma->0) =      -20.21044590


--------------------------------------------------------------------------------------------------------




--------------------------------------- Iteration      1(   9)  ---------------------------------------


    POTLOK:  cpu time      1.5043: real time      0.1192
    SETDIJ:  cpu time      1.1170: real time      0.2507
    EDDIAG:  cpu time     52.2466: real time      2.9586
  RMM-DIIS:  cpu time    206.5129: real time     11.3321
    ORTHCH:  cpu time      0.6325: real time      0.0434
 BZINTS: Fermi energy:    4.739225;   22.000000 electrons
         Band energy:-0.277802E+03;  BLOECHL correction:   -0.207598
       DOS:  cpu time      0.2944: real time      0.0263
    CHARGE:  cpu time     18.2467: real time      1.0187
    MIXING:  cpu time      0.0014: real time      0.0014
    --------------------------------------------
      LOOP:  cpu time    280.5559: real time     15.7503

 eigenvalue-minimisations  :  3681
 total energy-change (2. order) : 0.1255027E-04  (-0.2491154E-02)
 number of electron      22.0000002 magnetization       0.0185981
 augmentation part        8.0634445 magnetization       0.0157462

 Broyden mixing:
  rms(total) = 0.94435E-01    rms(broyden)= 0.94435E-01
  rms(prec ) = 0.12095E+00
  weight for this iteration     100.00

 eigenvalues of (default mixing * dielectric matrix)
  average eigenvalue GAMMA=   1.0740
  2.0531  0.8235  0.8235  0.5958

 Free energy of the ion-electron system (eV)
  ---------------------------------------------------
  alpha Z        PSCENC =       244.57667505
  Ewald energy   TEWEN  =     -1902.56446717
  -Hartree energ DENC   =      -247.10921421
  -exchange      EXHF   =         0.00000000
  -V(xc)+E(xc)   XCENC  =        50.75158129
  PAW double counting   =      2669.75974694    -2644.60366372
  entropy T*S    EENTRO =         0.00000000
  eigenvalues    EBANDS =      -277.80233427
  atomic energy  EATOM  =      2086.78124273
  Solvation  Ediel_sol  =         0.00000000
  ---------------------------------------------------
  free energy    TOTEN  =       -20.21043335 eV

  energy without entropy =      -20.21043335  energy(sigma->0) =      -20.21043335


--------------------------------------------------------------------------------------------------------




--------------------------------------- Iteration      1(  10)  ---------------------------------------


    POTLOK:  cpu time      1.7462: real time      0.1423
    SETDIJ:  cpu time      1.1052: real time      0.2598
    EDDIAG:  cpu time     60.5760: real time      3.3738
  RMM-DIIS:  cpu time    168.2867: real time      9.2168
    ORTHCH:  cpu time      1.4229: real time      0.0801
 BZINTS: Fermi energy:    4.760082;   22.000000 electrons
         Band energy:-0.276873E+03;  BLOECHL correction:   -0.207913
       DOS:  cpu time      0.2934: real time      0.0251
    CHARGE:  cpu time     14.1453: real time      0.8426
    MIXING:  cpu time      0.0014: real time      0.0014
    --------------------------------------------
      LOOP:  cpu time    247.5772: real time     13.9419

 eigenvalue-minimisations  :  2959
 total energy-change (2. order) : 0.3280763E-02  (-0.5722194E-03)
 number of electron      22.0000002 magnetization      -0.0066933
 augmentation part        8.0553490 magnetization      -0.0033360

 Broyden mixing:
  rms(total) = 0.67724E-01    rms(broyden)= 0.67724E-01
  rms(prec ) = 0.75543E-01
  weight for this iteration     100.00

 eigenvalues of (default mixing * dielectric matrix)
  average eigenvalue GAMMA=   1.3460
  2.6338  1.3564  1.3564  0.6296  0.7536

 Free energy of the ion-electron system (eV)
  ---------------------------------------------------
  alpha Z        PSCENC =       244.57667505
  Ewald energy   TEWEN  =     -1902.56446717
  -Hartree energ DENC   =      -248.02292903
  -exchange      EXHF   =         0.00000000
  -V(xc)+E(xc)   XCENC  =        50.79513594
  PAW double counting   =      2742.95088567    -2717.85100929
  entropy T*S    EENTRO =         0.00000000
  eigenvalues    EBANDS =      -276.87268649
  atomic energy  EATOM  =      2086.78124273
  Solvation  Ediel_sol  =         0.00000000
  ---------------------------------------------------
  free energy    TOTEN  =       -20.20715259 eV

  energy without entropy =      -20.20715259  energy(sigma->0) =      -20.20715259


--------------------------------------------------------------------------------------------------------




--------------------------------------- Iteration      1(  11)  ---------------------------------------


    POTLOK:  cpu time      1.8788: real time      0.1504
    SETDIJ:  cpu time      1.0977: real time      0.2598
    EDDIAG:  cpu time     45.9252: real time      2.6379
  RMM-DIIS:  cpu time    196.4551: real time     10.7318
    ORTHCH:  cpu time      0.9493: real time      0.0553
 BZINTS: Fermi energy:    4.772328;   22.000000 electrons
         Band energy:-0.276317E+03;  BLOECHL correction:   -0.208086
       DOS:  cpu time      0.2367: real time      0.0262
    CHARGE:  cpu time     18.6549: real time      1.0560
    MIXING:  cpu time      0.0017: real time      0.0015
    --------------------------------------------
      LOOP:  cpu time    265.1994: real time     14.9189

 eigenvalue-minimisations  :  3357
 total energy-change (2. order) :-0.3870656E-04  (-0.5552572E-03)
 number of electron      22.0000002 magnetization      -0.0049772
 augmentation part        8.0483790 magnetization      -0.0004693

 Broyden mixing:
  rms(total) = 0.40132E-02    rms(broyden)= 0.40132E-02
  rms(prec ) = 0.46724E-02
  weight for this iteration     100.00

 eigenvalues of (default mixing * dielectric matrix)
  average eigenvalue GAMMA=   1.2683
  2.5891  1.4518  1.4518  0.7915  0.6223  0.7030

 Free energy of the ion-electron system (eV)
  ---------------------------------------------------
  alpha Z        PSCENC =       244.57667505
  Ewald energy   TEWEN  =     -1902.56446717
  -Hartree energ DENC   =      -248.52524669
  -exchange      EXHF   =         0.00000000
  -V(xc)+E(xc)   XCENC  =        50.81880435
  PAW double counting   =      2821.63685363    -2796.61381177
  entropy T*S    EENTRO =         0.00000000
  eigenvalues    EBANDS =      -276.31724142
  atomic energy  EATOM  =      2086.78124273
  Solvation  Ediel_sol  =         0.00000000
  ---------------------------------------------------
  free energy    TOTEN  =       -20.20719129 eV

  energy without entropy =      -20.20719129  energy(sigma->0) =      -20.20719129


--------------------------------------------------------------------------------------------------------




--------------------------------------- Iteration      1(  12)  ---------------------------------------


    POTLOK:  cpu time      1.1584: real time      0.0993
    SETDIJ:  cpu time      1.0774: real time      0.2472
    EDDIAG:  cpu time     48.3863: real time      2.7849
  RMM-DIIS:  cpu time    139.8753: real time      7.7511
    ORTHCH:  cpu time      0.9132: real time      0.0526
 BZINTS: Fermi energy:    4.772410;   22.000000 electrons
         Band energy:-0.276314E+03;  BLOECHL correction:   -0.208090
       DOS:  cpu time      0.2384: real time      0.0264
    --------------------------------------------
      LOOP:  cpu time    191.6489: real time     10.9615

 eigenvalue-minimisations  :  2399
 total energy-change (2. order) :-0.7453228E-04  (-0.6095164E-04)
 number of electron      22.0000002 magnetization      -0.0049772
 augmentation part        8.0483790 magnetization      -0.0004693

 Free energy of the ion-electron system (eV)
  ---------------------------------------------------
  alpha Z        PSCENC =       244.57667505
  Ewald energy   TEWEN  =     -1902.56446717
  -Hartree energ DENC   =      -248.54383983
  -exchange      EXHF   =         0.00000000
  -V(xc)+E(xc)   XCENC  =        50.81971077
  PAW double counting   =      2821.01116152    -2795.97368726
  entropy T*S    EENTRO =         0.00000000
  eigenvalues    EBANDS =      -276.31406164
  atomic energy  EATOM  =      2086.78124273
  Solvation  Ediel_sol  =         0.00000000
  ---------------------------------------------------
  free energy    TOTEN  =       -20.20726582 eV

  energy without entropy =      -20.20726582  energy(sigma->0) =      -20.20726582


--------------------------------------------------------------------------------------------------------




 average (electrostatic) potential at core
  the test charge radii are     1.2125
  (the norm of the test charge is              1.0000)
       1 -35.2785       2 -35.2785



 E-fermi :   4.7724     XC(G=0): -12.2951     alpha+bet :-12.6387

 Fermi energy:         4.7724102254

 spin component 1

 k-point     1 :       0.0000    0.0000    0.0000
  band No.  band energies     occupation 
      1     -25.8905      1.00000
      2     -25.8659      1.00000
      3     -25.8659      1.00000
      4     -25.0212      1.00000
      5     -25.0208      1.00000
      6     -25.0208      1.00000
      7      -1.1192      1.00000
      8       1.1728      1.00000
      9       1.1979      1.00000
     10       5.0878     -0.08025
     11       5.0878     -0.01894
     12       5.1941      0.00000
     13       7.8666      0.00000
     14       8.0092      0.00000
     15      10.1452      0.00000
     16      10.1769      0.00000

 k-point     2 :       0.1429    0.0000    0.0000
  band No.  band energies     occupation 
      1     -25.8899      1.00000
      2     -25.8230      1.00000
      3     -25.8230      1.00000
      4     -25.1107      1.00000
      5     -25.0612      1.00000
      6     -25.0612      1.00000
      7      -0.7195      1.00000
      8       1.4197      1.00000
      9       1.4964      1.00000
     10       5.0698      0.01750
     11       5.0698     -0.01580
     12       5.3804      0.00000
     13       7.3128      0.00000
     14       8.1924      0.00000
     15       9.0639      0.00000
     16       9.0642      0.00000

 k-point     3 :       0.2857    0.0000    0.0000
  band No.  band energies     occupation 
      1     -25.8651      1.00000
      2     -25.7032      1.00000
      3     -25.7032      1.00000
      4     -25.3320      1.00000
      5     -25.1755      1.00000
      6     -25.1755      1.00000
      7       0.3512      1.00000
      8       2.0743      1.00000
      9       2.2135      1.00000
     10       5.1223      0.33806
     11       5.1223     -0.09501
     12       5.9239      0.00000
     13       6.0014      0.00000
     14       7.4555      0.00000
     15       7.4555      0.00000
     16       8.6357      0.00000

 k-point     4 :       0.4286    0.0000    0.0000
  band No.  band energies     occupation 
      1     -25.7703      1.00000
      2     -25.5817      1.00000
      3     -25.5314      1.00000
      4     -25.5314      1.00000
      5     -25.3429      1.00000
      6     -25.3429      1.00000
      7       1.6858      1.00000
      8       2.5046      1.00000
      9       3.1249      1.00000
     10       4.4905      0.99128
     11       5.4526     -0.28397
     12       5.4526      0.00000
     13       6.2145      0.00000
     14       6.2145      0.00000
     15       6.7751      0.00000
     16       7.8378      0.00000

 k-point     5 :       0.0000    0.1429    0.0000
  band No.  band energies     occupation 
      1     -25.8705      1.00000
      2     -25.8461      1.00000
      3     -25.8226      1.00000
      4     -25.1133      1.00000
      5     -25.0625      1.00000
      6     -25.0608      1.00000
      7      -0.7115      1.00000
      8       1.4050      1.00000
      9       1.5285      1.00000
     10       5.0516      0.06110
     11       5.1553     -0.03839
     12       5.2789      0.00000
     13       7.4071      0.00000
     14       8.1189      0.00000
     15       8.9960      0.00000
     16       9.0196      0.00000

 k-point     6 :       0.1429    0.1429    0.0000
  band No.  band energies     occupation 
      1     -25.9532      1.00000
      2     -25.7832      1.00000
      3     -25.7260      1.00000
      4     -25.2714      1.00000
      5     -25.0965      1.00000
      6     -25.0223      1.00000
      7      -0.3492      1.00000
      8       1.6467      1.00000
      9       1.8084      1.00000
     10       4.7016      0.78810
     11       4.9388      0.16001
     12       5.9202     -0.00586
     13       7.4202      0.00000
     14       7.8221      0.00000
     15       8.0004      0.00000
     16       8.0804      0.00000

 k-point     7 :       0.2857    0.1429    0.0000
  band No.  band energies     occupation 
      1     -25.9900      1.00000
      2     -25.6736      1.00000
      3     -25.5631      1.00000
      4     -25.5250      1.00000
      5     -25.1979      1.00000
      6     -25.0734      1.00000
      7       0.5919      1.00000
      8       2.1473      1.00000
      9       2.5665      1.00000
     10       4.4650      1.00213
     11       4.7420      0.75823
     12       6.3538     -0.05136
     13       6.7279      0.00000
     14       6.7845      0.00000
     15       6.8633      0.00000
     16       8.4424      0.00000

 k-point     8 :       0.4286    0.1429    0.0000
  band No.  band energies     occupation 
      1     -25.9353      1.00000
      2     -25.7711      1.00000
      3     -25.5175      1.00000
      4     -25.3805      1.00000
      5     -25.3475      1.00000
      6     -25.2052      1.00000
      7       1.7002      1.00000
      8       2.3910      1.00000
      9       3.3690      1.00000
     10       4.2586      1.00378
     11       4.6196      0.89599
     12       5.2475     -0.03642
     13       6.3030      0.00000
     14       6.3880      0.00000
     15       7.8089      0.00000
     16       8.9614      0.00000

 k-point     9 :       0.0000    0.2857    0.0000
  band No.  band energies     occupation 
      1     -25.8583      1.00000
      2     -25.7222      1.00000
      3     -25.7018      1.00000
      4     -25.3406      1.00000
      5     -25.1793      1.00000
      6     -25.1740      1.00000
      7       0.3779      1.00000
      8       2.0739      1.00000
      9       2.2697      1.00000
     10       5.0646      0.44508
     11       5.1612     -0.09577
     12       5.8369      0.00000
     13       6.0779      0.00000
     14       7.3488      0.00000
     15       7.4058      0.00000
     16       8.6486      0.00000

 k-point    10 :       0.1429    0.2857    0.0000
  band No.  band energies     occupation 
      1     -25.9916      1.00000
      2     -25.6727      1.00000
      3     -25.5698      1.00000
      4     -25.5301      1.00000
      5     -25.1968      1.00000
      6     -25.0767      1.00000
      7       0.6079      1.00000
      8       2.1550      1.00000
      9       2.5944      1.00000
     10       4.4630      1.00535
     11       4.7328      0.76048
     12       6.3334     -0.05148
     13       6.7495      0.00000
     14       6.7531      0.00000
     15       6.8224      0.00000
     16       8.4572      0.00000

 k-point    11 :       0.2857    0.2857    0.0000
  band No.  band energies     occupation 
      1     -26.1170      1.00000
      2     -25.8045      1.00000
      3     -25.5926      1.00000
      4     -25.3720      1.00000
      5     -25.2627      1.00000
      6     -25.0255      1.00000
      7       1.0674      1.00000
      8       2.0898      1.00000
      9       3.5632      1.00000
     10       3.8615      1.00000
     11       4.7551      0.87772
     12       5.0153      0.06097
     13       6.3916      0.00000
     14       7.5251      0.00000
     15       8.0189      0.00000
     16       8.1911      0.00000

 k-point    12 :       0.4286    0.2857    0.0000
  band No.  band energies     occupation 
      1     -26.1391      1.00000
      2     -26.0291      1.00000
      3     -25.4809      1.00000
      4     -25.3630      1.00000
      5     -25.1974      1.00000
      6     -25.0726      1.00000
      7       1.4478      1.00000
      8       1.8013      1.00000
      9       3.7188      1.00000
     10       4.1063      1.00000
     11       4.5585      0.79969
     12       5.0276      0.01216
     13       6.8673      0.00000
     14       7.4349      0.00000
     15       8.7364      0.00000
     16       9.2621      0.00000

 k-point    13 :       0.0000    0.4286    0.0000
  band No.  band energies     occupation 
      1     -25.7755      1.00000
      2     -25.5925      1.00000
      3     -25.5449      1.00000
      4     -25.5292      1.00000
      5     -25.3509      1.00000
      6     -25.3406      1.00000
      7       1.7319      1.00000
      8       2.5656      1.00000
      9       3.1464      1.00000
     10       4.5393      0.98935
     11       5.3589     -0.17985
     12       5.4454      0.00000
     13       6.1024      0.00000
     14       6.1764      0.00000
     15       6.7110      0.00000
     16       7.8008      0.00000

 k-point    14 :       0.1429    0.4286    0.0000
  band No.  band energies     occupation 
      1     -25.9421      1.00000
      2     -25.7796      1.00000
      3     -25.5157      1.00000
      4     -25.3887      1.00000
      5     -25.3457      1.00000
      6     -25.2117      1.00000
      7       1.7241      1.00000
      8       2.4162      1.00000
      9       3.3958      1.00000
     10       4.2849      1.00295
     11       4.6036      0.91407
     12       5.2228     -0.03467
     13       6.2483      0.00000
     14       6.3338      0.00000
     15       7.7662      0.00000
     16       8.8858      0.00000

 k-point    15 :       0.2857    0.4286    0.0000
  band No.  band energies     occupation 
      1     -26.1426      1.00000
      2     -26.0329      1.00000
      3     -25.4801      1.00000
      4     -25.3622      1.00000
      5     -25.2004      1.00000
      6     -25.0753      1.00000
      7       1.4495      1.00000
      8       1.8034      1.00000
      9       3.7110      1.00000
     10       4.0970      1.00000
     11       4.5654      0.79607
     12       5.0426      0.00482
     13       6.8748      0.00000
     14       7.4010      0.00000
     15       8.8199      0.00000
     16       9.2411      0.00000

 k-point    16 :       0.4286    0.4286    0.0000
  band No.  band energies     occupation 
      1     -26.2451      1.00000
      2     -26.2065      1.00000
      3     -25.4346      1.00000
      4     -25.3925      1.00000
      5     -25.0734      1.00000
      6     -25.0282      1.00000
      7       1.2019      1.00000
      8       1.3147      1.00000
      9       3.2870      1.00000
     10       3.4172      1.00000
     11       6.0460     -0.16037
     12       6.3842     -0.07468
     13       7.5390      0.00000
     14       7.9301      0.00000
     15       8.5294      0.00000
     16       9.4895      0.00000

 k-point    17 :       0.0000    0.1429    0.1429
  band No.  band energies     occupation 
      1     -25.9424      1.00000
      2     -25.8053      1.00000
      3     -25.7180      1.00000
      4     -25.2708      1.00000
      5     -25.0989      1.00000
      6     -25.0240      1.00000
      7      -0.3411      1.00000
      8       1.6414      1.00000
      9       1.8307      1.00000
     10       4.6337      0.86739
     11       5.0169      0.05582
     12       5.8727     -0.00612
     13       7.5325      0.00000
     14       7.7596      0.00000
     15       7.9173      0.00000
     16       8.0829      0.00000

 k-point    18 :       0.1429    0.1429    0.1429
  band No.  band energies     occupation 
      1     -25.9090      1.00000
      2     -25.8962      1.00000
      3     -25.5934      1.00000
      4     -25.3989      1.00000
      5     -25.0683      1.00000
      6     -25.0663      1.00000
      7       0.0072      1.00000
      8       1.9787      1.00000
      9       2.0043      1.00000
     10       4.5137      0.99222
     11       4.5807      0.85171
     12       6.3172     -0.05433
     13       6.5274      0.00000
     14       7.6713      0.00000
     15       7.7721      0.00000
     16       9.1678      0.00000

 k-point    19 :       0.2857    0.1429    0.1429
  band No.  band energies     occupation 
      1     -25.9921      1.00000
      2     -25.7668      1.00000
      3     -25.6329      1.00000
      4     -25.4317      1.00000
      5     -25.1933      1.00000
      6     -25.0766      1.00000
      7       0.8861      1.00000
      8       2.4937      1.00000
      9       2.6600      1.00000
     10       4.2343      1.01560
     11       4.2991      1.05511
     12       5.1069      0.09839
     13       7.0722      0.00000
     14       7.5693      0.00000
     15       7.7688      0.00000
     16       8.3332      0.00000

 k-point    20 :       0.4286    0.1429    0.1429
  band No.  band energies     occupation 
      1     -25.9800      1.00000
      2     -25.8514      1.00000
      3     -25.5807      1.00000
      4     -25.3759      1.00000
      5     -25.2788      1.00000
      6     -25.1535      1.00000
      7       1.8641      1.00000
      8       2.6129      1.00000
      9       3.1808      1.00000
     10       3.8207      1.00646
     11       4.5493      0.96725
     12       4.8234      0.25710
     13       6.6010      0.00000
     14       6.8103      0.00000
     15       8.4294      0.00000
     16       8.7190      0.00000

 k-point    21 :       0.0000    0.2857    0.1429
  band No.  band energies     occupation 
      1     -25.9836      1.00000
      2     -25.6919      1.00000
      3     -25.5619      1.00000
      4     -25.5273      1.00000
      5     -25.2024      1.00000
      6     -25.0774      1.00000
      7       0.6166      1.00000
      8       2.1580      1.00000
      9       2.6066      1.00000
     10       4.3815      1.01676
     11       4.7823      0.65994
     12       6.2601     -0.05278
     13       6.7301      0.00000
     14       6.8084      0.00000
     15       6.8595      0.00000
     16       8.4543      0.00000

 k-point    22 :       0.1429    0.2857    0.1429
  band No.  band energies     occupation 
      1     -25.9894      1.00000
      2     -25.7736      1.00000
      3     -25.6358      1.00000
      4     -25.4348      1.00000
      5     -25.1926      1.00000
      6     -25.0818      1.00000
      7       0.9004      1.00000
      8       2.4852      1.00000
      9       2.6978      1.00000
     10       4.2222      1.01495
     11       4.2821      1.06826
     12       5.0898      0.09945
     13       7.1177      0.00000
     14       7.5460      0.00000
     15       7.6940      0.00000
     16       8.3433      0.00000

 k-point    23 :       0.2857    0.2857    0.1429
  band No.  band energies     occupation 
      1     -26.0625      1.00000
      2     -25.8440      1.00000
      3     -25.7239      1.00000
      4     -25.2828      1.00000
      5     -25.2572      1.00000
      6     -25.0787      1.00000
      7       1.4644      1.00000
      8       2.4936      1.00000
      9       3.5802      1.00000
     10       3.7353      1.00000
     11       4.1233      1.01359
     12       4.2004      0.92265
     13       7.3690      0.00000
     14       7.6549      0.00000
     15       8.2045      0.00000
     16       8.8849      0.00000

 k-point    24 :       0.4286    0.2857    0.1429
  band No.  band energies     occupation 
      1     -26.0992      1.00000
      2     -26.0223      1.00000
      3     -25.5705      1.00000
      4     -25.3982      1.00000
      5     -25.1689      1.00000
      6     -25.1012      1.00000
      7       1.8228      1.00000
      8       2.1454      1.00000
      9       3.5567      1.00000
     10       3.6597      1.00000
     11       4.5821      0.85752
     12       4.6486      0.62104
     13       7.2783      0.00000
     14       7.5157      0.00000
     15       8.5737      0.00000
     16       9.0517      0.00000

 k-point    25 :       0.0000    0.4286    0.1429
  band No.  band energies     occupation 
      1     -25.9359      1.00000
      2     -25.7749      1.00000
      3     -25.5306      1.00000
      4     -25.3833      1.00000
      5     -25.3557      1.00000
      6     -25.2096      1.00000
      7       1.7349      1.00000
      8       2.4269      1.00000
      9       3.3953      1.00000
     10       4.2881      1.00320
     11       4.5194      0.95494
     12       5.1421     -0.02686
     13       6.3390      0.00000
     14       6.4035      0.00000
     15       7.7598      0.00000
     16       8.9000      0.00000

 k-point    26 :       0.1429    0.4286    0.1429
  band No.  band energies     occupation 
      1     -25.9835      1.00000
      2     -25.8568      1.00000
      3     -25.5844      1.00000
      4     -25.3769      1.00000
      5     -25.2847      1.00000
      6     -25.1602      1.00000
      7       1.8782      1.00000
      8       2.6288      1.00000
      9       3.1837      1.00000
     10       3.8255      1.00569
     11       4.5171      0.97864
     12       4.8158      0.25687
     13       6.5932      0.00000
     14       6.7519      0.00000
     15       8.4785      0.00000
     16       8.8115      0.00000

 k-point    27 :       0.2857    0.4286    0.1429
  band No.  band energies     occupation 
      1     -26.1025      1.00000
      2     -26.0258      1.00000
      3     -25.5697      1.00000
      4     -25.3966      1.00000
      5     -25.1722      1.00000
      6     -25.1050      1.00000
      7       1.8176      1.00000
      8       2.1415      1.00000
      9       3.5515      1.00000
     10       3.6373      1.00000
     11       4.6125      0.84605
     12       4.6547      0.61677
     13       7.2553      0.00000
     14       7.4812      0.00000
     15       8.6854      0.00000
     16       9.1279      0.00000

 k-point    28 :       0.4286    0.4286    0.1429
  band No.  band energies     occupation 
      1     -26.1852      1.00000
      2     -26.1588      1.00000
      3     -25.4982      1.00000
      4     -25.4316      1.00000
      5     -25.1084      1.00000
      6     -25.0884      1.00000
      7       1.6088      1.00000
      8       1.6907      1.00000
      9       3.2366      1.00000
     10       3.3335      1.00000
     11       5.6615     -0.12083
     12       5.7412     -0.13768
     13       7.7703      0.00000
     14       8.0065      0.00000
     15       8.5601      0.00000
     16       8.9705      0.00000

 k-point    29 :       0.0000    0.2857    0.2857
  band No.  band energies     occupation 
      1     -26.1106      1.00000
      2     -25.8028      1.00000
      3     -25.6087      1.00000
      4     -25.3729      1.00000
      5     -25.2694      1.00000
      6     -25.0313      1.00000
      7       1.0849      1.00000
      8       2.0935      1.00000
      9       3.5995      1.00000
     10       3.7656      1.00000
     11       4.7910      0.80168
     12       4.9188      0.10200
     13       6.4337      0.00000
     14       7.6525      0.00000
     15       7.9944      0.00000
     16       8.1762      0.00000

 k-point    30 :       0.1429    0.2857    0.2857
  band No.  band energies     occupation 
      1     -26.0571      1.00000
      2     -25.8438      1.00000
      3     -25.7338      1.00000
      4     -25.2857      1.00000
      5     -25.2590      1.00000
      6     -25.0843      1.00000
      7       1.4725      1.00000
      8       2.4825      1.00000
      9       3.6146      1.00000
     10       3.6618      1.00000
     11       4.0926      1.02420
     12       4.2377      0.92526
     13       7.3490      0.00000
     14       7.7432      0.00000
     15       8.1888      0.00000
     16       8.8748      0.00000

 k-point    31 :       0.2857    0.2857    0.2857
  band No.  band energies     occupation 
      1     -25.9404      1.00000
      2     -25.9109      1.00000
      3     -25.9071      1.00000
      4     -25.2334      1.00000
      5     -25.2268      1.00000
      6     -25.1960      1.00000
      7       2.3780      1.00000
      8       3.0342      1.00000
      9       3.4835      1.00000
     10       3.5228      1.00000
     11       3.5682      1.03025
     12       3.6077      1.07711
     13       8.1402      0.00000
     14       8.1553      0.00000
     15       8.3353      0.00000
     16       8.4241      0.00000

 k-point    32 :       0.4286    0.2857    0.2857
  band No.  band energies     occupation 
      1     -26.0218      1.00000
      2     -26.0191      1.00000
      3     -25.6902      1.00000
      4     -25.4496      1.00000
      5     -25.1863      1.00000
      6     -25.1666      1.00000
      7       2.5454      1.00000
      8       2.5712      1.00000
      9       3.4261      1.00000
     10       3.5145      1.00000
     11       4.0294      1.01085
     12       4.3514      1.00506
     13       7.9744      0.00000
     14       7.9963      0.00000
     15       8.5305      0.00000
     16       8.5955      0.00000

 k-point    33 :       0.0000    0.4286    0.2857
  band No.  band energies     occupation 
      1     -26.1368      1.00000
      2     -26.0286      1.00000
      3     -25.4932      1.00000
      4     -25.3719      1.00000
      5     -25.2037      1.00000
      6     -25.0805      1.00000
      7       1.4565      1.00000
      8       1.8033      1.00000
      9       3.6109      1.00000
     10       3.9973      1.00000
     11       4.6004      0.77582
     12       5.0721     -0.01311
     13       6.9540      0.00000
     14       7.5228      0.00000
     15       8.8309      0.00000
     16       9.2433      0.00000

 k-point    34 :       0.1429    0.4286    0.2857
  band No.  band energies     occupation 
      1     -26.0983      1.00000
      2     -26.0233      1.00000
      3     -25.5777      1.00000
      4     -25.4018      1.00000
      5     -25.1757      1.00000
      6     -25.1095      1.00000
      7       1.8157      1.00000
      8       2.1299      1.00000
      9       3.4839      1.00000
     10       3.6039      1.00000
     11       4.6202      0.83716
     12       4.6858      0.56712
     13       7.3078      0.00000
     14       7.5632      0.00000
     15       8.6882      0.00000
     16       9.1571      0.00000

 k-point    35 :       0.2857    0.4286    0.2857
  band No.  band energies     occupation 
      1     -26.0241      1.00000
      2     -26.0211      1.00000
      3     -25.6898      1.00000
      4     -25.4464      1.00000
      5     -25.1929      1.00000
      6     -25.1708      1.00000
      7       2.5072      1.00000
      8       2.5396      1.00000
      9       3.4179      1.00000
     10       3.4894      1.00000
[...]
  band No.  band energies     occupation 
      1     -26.0990      1.00000
      2     -26.0239      1.00000
      3     -25.5782      1.00000
      4     -25.4024      1.00000
      5     -25.1762      1.00000
      6     -25.1100      1.00000
      7       1.8136      1.00000
      8       2.1279      1.00000
      9       3.4822      1.00000
     10       3.6022      1.00000
     11       4.6183      0.83813
     12       4.6838      0.57157
     13       7.3067      0.00000
     14       7.5623      0.00000
     15       8.6877      0.00000
     16       9.1564      0.00000

 k-point    35 :       0.2857    0.4286    0.2857
  band No.  band energies     occupation 
      1     -26.0247      1.00000
      2     -26.0217      1.00000
      3     -25.6904      1.00000
      4     -25.4470      1.00000
      5     -25.1935      1.00000
      6     -25.1713      1.00000
      7       2.5051      1.00000
      8       2.5376      1.00000
      9       3.4161      1.00000
     10       3.4875      1.00000
     11       4.0541      1.00751
     12       4.3950      0.99516
     13       7.9307      0.00000
     14       7.9850      0.00000
     15       8.6364      0.00000
     16       8.7207      0.00000

 k-point    36 :       0.4286    0.4286    0.2857
  band No.  band energies     occupation 
      1     -26.0349      1.00000
      2     -26.0176      1.00000
      3     -25.6396      1.00000
      4     -25.5055      1.00000
      5     -25.2579      1.00000
      6     -25.2187      1.00000
      7       2.5048      1.00000
      8       2.6327      1.00000
      9       3.2016      1.00000
     10       3.3850      1.00000
     11       4.6191      0.85132
     12       4.7833      0.64538
     13       8.2685      0.00000
     14       8.3315      0.00000
     15       8.6199      0.00000
     16       8.6772      0.00000

 k-point    37 :       0.0000    0.4286    0.4286
  band No.  band energies     occupation 
      1     -26.2425      1.00000
      2     -26.2045      1.00000
      3     -25.4463      1.00000
      4     -25.4029      1.00000
      5     -25.0824      1.00000
      6     -25.0378      1.00000
      7       1.1943      1.00000
      8       1.3044      1.00000
      9       3.1736      1.00000
     10       3.3037      1.00000
     11       6.1031     -0.16382
     12       6.4478     -0.06494
     13       7.6605      0.00000
     14       8.0706      0.00000
     15       8.5769      0.00000
     16       9.5688      0.00000

 k-point    38 :       0.1429    0.4286    0.4286
  band No.  band energies     occupation 
      1     -26.1836      1.00000
      2     -26.1578      1.00000
      3     -25.5058      1.00000
      4     -25.4377      1.00000
      5     -25.1171      1.00000
      6     -25.0979      1.00000
      7       1.5903      1.00000
      8       1.6684      1.00000
      9       3.1454      1.00000
     10       3.2472      1.00000
     11       5.7184     -0.14690
     12       5.8022     -0.13129
     13       7.8704      0.00000
     14       8.1260      0.00000
     15       8.6061      0.00000
     16       9.0378      0.00000

 k-point    39 :       0.2857    0.4286    0.4286
  band No.  band energies     occupation 
      1     -26.0357      1.00000
      2     -26.0179      1.00000
      3     -25.6392      1.00000
      4     -25.5020      1.00000
      5     -25.2662      1.00000
      6     -25.2244      1.00000
      7       2.4682      1.00000
      8       2.5937      1.00000
      9       3.1614      1.00000
     10       3.3454      1.00000
     11       4.6777      0.81853
     12       4.8395      0.53192
     13       8.3097      0.00000
     14       8.3864      0.00000
     15       8.6619      0.00000
     16       8.7327      0.00000

 k-point    40 :       0.4286    0.4286    0.4286
  band No.  band energies     occupation 
      1     -25.8932      1.00000
      2     -25.7773      1.00000
      3     -25.7725      1.00000
      4     -25.5089      1.00000
      5     -25.5002      1.00000
      6     -25.3799      1.00000
      7       2.9833      1.00000
      8       3.3920      1.00000
      9       3.4044      1.00000
     10       3.9238      1.00000
     11       3.9758      1.00000
     12       3.9783      1.12303
     13       8.6190      0.00000
     14       8.6285      0.00000
     15       8.6891      0.00000
     16       8.6923      0.00000


--------------------------------------------------------------------------------------------------------


 soft charge-density along one line, spin component           1
         0         1         2         3         4         5         6         7         8         9
 total charge-density along one line

 soft charge-density along one line, spin component           2
         0         1         2         3         4         5         6         7         8         9
 total charge-density along one line

 pseudopotential strength for first ion, spin component:           1
-28.167  -0.000   0.000   6.016   0.000  -0.000  -0.000  -0.000
 -0.000 -28.167   0.000   0.000   6.016  -0.000  -0.000  -0.000
  0.000   0.000 -28.167  -0.000  -0.000   6.016  -0.000  -0.000
  6.016   0.000  -0.000   4.202   0.000   0.000   0.000   0.000
  0.000   6.016  -0.000   0.000   4.202   0.000  -0.000   0.000
 -0.000  -0.000   6.016   0.000   0.000   4.202   0.000  -0.000
 -0.000  -0.000  -0.000   0.000  -0.000   0.000  -6.382   0.000
 -0.000  -0.000  -0.000   0.000   0.000  -0.000   0.000  -6.382
  0.000  -0.000  -0.000  -0.000   0.000   0.000  -0.000   0.000
 -0.000   0.000  -0.000  -0.000   0.000   0.000  -0.000   0.000
  0.000  -0.000   0.000  -0.000   0.000  -0.000  -0.000   0.000
 -0.000  -0.000  -0.000   0.000  -0.000   0.000  -7.243   0.000
 -0.000  -0.000  -0.000   0.000   0.000  -0.000   0.000  -7.243
  0.000  -0.000  -0.000  -0.000   0.000   0.000  -0.000   0.000
 -0.000   0.000  -0.000  -0.000   0.000   0.000  -0.000   0.000
  0.000  -0.000   0.000  -0.000   0.000  -0.000  -0.000   0.000
  0.000   0.000  -0.000   0.000  -0.000   0.000  -0.000   0.000
 -0.000  -0.000   0.000  -0.000  -0.000  -0.000   0.000  -0.000
 pseudopotential strength for first ion, spin component:           2
-28.167  -0.000   0.000   6.016   0.000  -0.000  -0.000  -0.000
 -0.000 -28.167   0.000   0.000   6.016  -0.000  -0.000  -0.000
  0.000   0.000 -28.168  -0.000  -0.000   6.016  -0.000  -0.000
  6.016   0.000  -0.000   4.202   0.000   0.000   0.000   0.000
  0.000   6.016  -0.000   0.000   4.202   0.000  -0.000   0.000
 -0.000  -0.000   6.016   0.000   0.000   4.202   0.000  -0.000
 -0.000  -0.000  -0.000   0.000  -0.000   0.000  -6.382   0.000
 -0.000  -0.000  -0.000   0.000   0.000  -0.000   0.000  -6.382
  0.000  -0.000  -0.000  -0.000   0.000   0.000  -0.000   0.000
 -0.000   0.000  -0.000  -0.000  -0.000   0.000  -0.000   0.000
  0.000  -0.000   0.000  -0.000   0.000  -0.000  -0.000   0.000
 -0.000  -0.000  -0.000   0.000  -0.000   0.000  -7.244   0.000
 -0.000  -0.000  -0.000   0.000   0.000  -0.000   0.000  -7.243
  0.000  -0.000  -0.000  -0.000   0.000   0.000  -0.000   0.000
 -0.000   0.000  -0.000  -0.000  -0.000   0.000  -0.000   0.000
  0.000  -0.000   0.000  -0.000   0.000  -0.000  -0.000   0.000
  0.000   0.000  -0.000  -0.000  -0.000   0.000  -0.000   0.000
 -0.000  -0.000   0.000  -0.000  -0.000  -0.000   0.000  -0.000
 total augmentation occupancy for first ion, spin component:           1
  1.993   0.000   0.000  -0.014  -0.000  -0.000  -0.000  -0.000   0.000   0.000   0.000   0.000   0.000   0.000   0.000  -0.000
  0.000   1.993   0.000  -0.000  -0.014  -0.000   0.000   0.000  -0.000  -0.000   0.000   0.000   0.000   0.000  -0.000   0.000
  0.000   0.000   1.993  -0.000  -0.000  -0.014  -0.000  -0.000   0.000   0.000   0.000  -0.000  -0.000   0.000   0.000   0.000
 -0.014  -0.000  -0.000   0.203   0.000   0.000   0.000   0.000   0.000  -0.000   0.000   0.000   0.000   0.000   0.000   0.000
 -0.000  -0.014  -0.000   0.000   0.203   0.000   0.000   0.000   0.000   0.000   0.000   0.000   0.000  -0.000   0.000   0.000
 -0.000  -0.000  -0.014   0.000   0.000   0.201   0.000   0.000   0.000   0.000   0.000   0.000   0.000   0.000   0.000   0.000
  0.000   0.000   0.000   0.000   0.000   0.000   5.877   0.000  -0.000   0.000   0.000  -3.255  -0.000   0.000  -0.000  -0.000
 -0.000   0.000   0.000   0.000   0.000   0.000   0.000   5.832   0.000   0.000  -0.000  -0.000  -3.235  -0.000  -0.000   0.000
  0.000   0.000   0.000   0.000   0.000   0.000  -0.000   0.000   5.516   0.000   0.021   0.000  -0.000  -3.236  -0.000  -0.011
 -0.000   0.000   0.000  -0.000   0.000   0.000   0.000   0.000   0.000   5.877   0.000  -0.000  -0.000  -0.000  -3.255  -0.000
 -0.000  -0.000   0.000   0.000   0.000   0.000   0.000  -0.000   0.021   0.000   5.491  -0.000   0.000  -0.011  -0.000  -3.224
 -0.000   0.000   0.000   0.000   0.000   0.000  -3.255  -0.000   0.000  -0.000  -0.000   1.841   0.000  -0.000   0.000  -0.000
  0.000   0.000   0.000   0.000   0.000   0.000  -0.000  -3.235  -0.000  -0.000   0.000   0.000   1.831   0.000   0.000  -0.000
  0.000   0.000   0.000   0.000   0.000   0.000   0.000  -0.000  -3.236  -0.000  -0.011  -0.000   0.000   1.916   0.000   0.005
  0.000   0.000   0.000   0.000   0.000   0.000  -0.000  -0.000  -0.000  -3.255  -0.000   0.000   0.000   0.000   1.841   0.000
 -0.000  -0.000   0.000   0.000   0.000   0.000  -0.000   0.000  -0.011  -0.000  -3.224  -0.000  -0.000   0.005   0.000   1.910
  0.000   0.000   0.000   0.000   0.000   0.000  -0.000   0.000   0.004  -0.000  -0.007   0.000  -0.000  -0.002   0.000   0.004
  0.000   0.000   0.000   0.000  -0.000   0.000   0.000   0.000   0.000   0.000  -0.000   0.000  -0.000  -0.000   0.000   0.000
 total augmentation occupancy for first ion, spin component:           2
  0.000   0.000   0.000   0.000   0.000   0.000   0.000  -0.000   0.000   0.000   0.000   0.000   0.000   0.000   0.000   0.000
  0.000   0.000   0.000   0.000   0.000   0.000   0.000  -0.000   0.000   0.000   0.000   0.000   0.000   0.000   0.000   0.000
  0.000   0.000   0.000   0.000   0.000   0.000   0.000   0.000  -0.000   0.000   0.000   0.000   0.000   0.000   0.000   0.000
  0.000   0.000   0.000  -0.000  -0.000  -0.000   0.000   0.000   0.000  -0.000   0.000   0.000   0.000   0.000   0.000   0.000
  0.000   0.000   0.000  -0.000  -0.000  -0.000   0.000   0.000   0.000   0.000   0.000   0.000   0.000   0.000   0.000   0.000
  0.000   0.000   0.000  -0.000  -0.000  -0.000   0.000   0.000   0.000   0.000   0.000   0.000   0.000   0.000  -0.000   0.000
  0.000   0.000   0.000   0.000   0.000   0.000  -0.003  -0.000   0.000  -0.000   0.000   0.002   0.000  -0.000   0.000  -0.000
 -0.000  -0.000  -0.000   0.000   0.000   0.000  -0.000  -0.004  -0.000  -0.000   0.000   0.000   0.002  -0.000   0.000  -0.000
  0.000  -0.000   0.000   0.000   0.000   0.000   0.000  -0.000  -0.006  -0.000  -0.000  -0.000  -0.000   0.004  -0.000   0.000
  0.000   0.000   0.000   0.000   0.000   0.000  -0.000  -0.000  -0.000  -0.003  -0.000   0.000   0.000  -0.000   0.002   0.000
  0.000   0.000   0.000   0.000   0.000   0.000   0.000   0.000  -0.000  -0.000  -0.006  -0.000  -0.000   0.000   0.000   0.004
  0.000   0.000   0.000   0.000   0.000   0.000   0.002   0.000  -0.000   0.000  -0.000  -0.001  -0.000   0.000  -0.000   0.000
  0.000   0.000  -0.000   0.000   0.000   0.000   0.000   0.002  -0.000   0.000  -0.000  -0.000  -0.001   0.000  -0.000   0.000
 -0.000   0.000   0.000   0.000   0.000   0.000  -0.000  -0.000   0.004  -0.000   0.000   0.000   0.000  -0.003   0.000  -0.000
  0.000   0.000   0.000   0.000   0.000   0.000   0.000   0.000  -0.000   0.002   0.000  -0.000  -0.000   0.000  -0.001  -0.000
  0.000   0.000   0.000   0.000   0.000   0.000  -0.000  -0.000   0.000   0.000   0.004   0.000   0.000  -0.000  -0.000  -0.003
  0.000   0.000   0.000   0.000   0.000   0.000  -0.000   0.000   0.000  -0.000  -0.000   0.000  -0.000  -0.000  -0.000   0.000
  0.000   0.000   0.000   0.000   0.000  -0.000  -0.000  -0.000  -0.000   0.000   0.000   0.000   0.000   0.000   0.000  -0.000


------------------------ aborting loop because EDIFF is reached ----------------------------------------





 total charge

# of ion       s       p       d       tot
------------------------------------------
    1        0.415   6.287   3.064   9.767
    2        0.415   6.287   3.064   9.767
--------------------------------------------------
tot          0.831  12.575   6.128  19.534



 magnetization (x)

# of ion       s       p       d       tot
------------------------------------------
    1       -0.000  -0.000  -0.001  -0.001
    2       -0.000  -0.000  -0.001  -0.001
--------------------------------------------------
tot         -0.000  -0.001  -0.002  -0.002

    CHARGE:  cpu time     13.2954: real time      0.7883
    FORLOC:  cpu time      0.0005: real time      0.0005
    FORNL :  cpu time     77.3081: real time      4.3496
    STRESS:  cpu time    234.5037: real time     13.0438
    FORCOR:  cpu time      1.1773: real time      0.1053
    FORHAR:  cpu time      0.1413: real time      0.0098
    MIXING:  cpu time      0.0014: real time      0.0014
    OFIELD:  cpu time      0.0000: real time      0.0000

  FORCE on cell =-STRESS in cart. coord.  units (eV):
  Direction    XX          YY          ZZ          XY          YZ          ZX
  --------------------------------------------------------------------------------------
  Alpha Z   244.57668   244.57668   244.57668
  Ewald    -634.82450  -633.86991  -633.86991     0.00000     0.00000     0.00000
  Hartree    82.52177    83.01060    83.01060    -0.00000    -0.00000    -0.00000
  E(xc)     -94.95993   -94.95725   -94.95725    -0.00000    -0.00000     0.00000
  Local     204.14849   202.66394   202.66394    -0.00000    -0.00000    -0.00000
  n-local   -84.58444   -87.95826   -80.87457     1.92039     0.86694    -0.32322
  augment    53.63266    53.62236    53.62236    -0.00000    -0.00000    -0.00000
  Kinetic   228.81689   222.19606   235.86504     1.50458     0.16319    -1.05473
  Fock        0.00000     0.00000     0.00000     0.00000     0.00000     0.00000
  -------------------------------------------------------------------------------------
  Total      -0.67240    -0.33946    -0.33946    -0.00000     0.00000    -0.00000
  in kB     -29.10062   -14.69131   -14.69131    -0.00000     0.00000    -0.00000
  external pressure =      -19.49 kB  Pullay stress =        0.00 kB


 VOLUME and BASIS-vectors are now :
 -----------------------------------------------------------------------------
  energy-cutoff  :      520.00
  volume of cell :       37.02
      direct lattice vectors                 reciprocal lattice vectors
     3.354997130  0.000000000  0.000000000     0.298062848 -0.000000000  0.000000000
     0.000000000  3.321779337  0.000000000     0.000000000  0.301043477  0.000000000
     0.000000000  0.000000000  3.321779337    -0.000000000 -0.000000000  0.301043477

  length of vectors
     3.354997130  3.321779337  3.321779337     0.298062848  0.301043477  0.301043477


 FORCES acting on ions
    electron-ion (+dipol)            ewald-force                    non-local-force                 convergence-correction
 -----------------------------------------------------------------------------------------------
   -.136E-13 -.117E-13 -.155E-13   -.121E-13 -.472E-14 -.296E-14   -.356E-23 -.283E-21 -.361E-21   0.615E-14 -.159E-13 0.300E-13
   0.119E-12 0.151E-11 0.162E-11   0.136E-13 0.724E-14 0.333E-14   0.390E-22 -.196E-21 -.228E-21   -.192E-13 -.515E-13 -.285E-13
 -----------------------------------------------------------------------------------------------
   0.105E-12 0.150E-11 0.160E-11   0.150E-14 0.252E-14 0.378E-15   0.355E-22 -.480E-21 -.589E-21   -.131E-13 -.673E-13 0.143E-14


 POSITION                                       TOTAL-FORCE (eV/Angst)
 -----------------------------------------------------------------------------------
      0.00000      0.00000      0.00000        -0.000000     -0.000000     -0.000000
      1.67750      1.66089      1.66089         0.000000      0.000000      0.000000
 -----------------------------------------------------------------------------------
    total drift:                                0.000000      0.000000      0.000000


--------------------------------------------------------------------------------------------------------



  FREE ENERGIE OF THE ION-ELECTRON SYSTEM (eV)
  ---------------------------------------------------
  free  energy   TOTEN  =       -20.20726582 eV

  energy  without entropy=      -20.20726582  energy(sigma->0) =      -20.20726582



--------------------------------------------------------------------------------------------------------


    POTLOK:  cpu time      2.5084: real time      0.3825


--------------------------------------------------------------------------------------------------------


     LOOP+:  cpu time   4386.6413: real time    238.3032
 -----------------------------------------------------------------------------
|                                                                             |
|           W    W    AA    RRRRR   N    N  II  N    N   GGGG   !!!           |
|           W    W   A  A   R    R  NN   N  II  NN   N  G    G  !!!           |
|           W    W  A    A  R    R  N N  N  II  N N  N  G       !!!           |
|           W WW W  AAAAAA  RRRRR   N  N N  II  N  N N  G  GGG   !            |
|           WW  WW  A    A  R   R   N   NN  II  N   NN  G    G                |
|           W    W  A    A  R    R  N    N  II  N    N   GGGG   !!!           |
|                                                                             |
|     Tetrahedron method does not include variations of the Fermi             |
|     occupations, so forces and stress will be inaccurate. We suggest        |
|     using a different smearing scheme ISMEAR = 1 or 2 for metals in         |
|     relaxations.                                                            |
|                                                                             |
 -----------------------------------------------------------------------------

    4ORBIT:  cpu time      0.0000: real time      0.0000



 total charge

# of ion       s       p       d       tot
------------------------------------------
    1        0.415   6.287   3.064   9.767
    2        0.415   6.287   3.064   9.767
--------------------------------------------------
tot          0.831  12.575   6.128  19.534



 magnetization (x)

# of ion       s       p       d       tot
------------------------------------------
    1       -0.000  -0.000  -0.001  -0.001
    2       -0.000  -0.000  -0.001  -0.001
--------------------------------------------------
tot         -0.000  -0.001  -0.002  -0.002

 BZINTS: Fermi energy:    4.772410;   22.000000 electrons
         Band energy:-0.276314E+03;  BLOECHL correction:   -0.208090

 total amount of memory used by VASP MPI-rank0    78812. kBytes
=======================================================================

   base      :      30000. kBytes
   nonlr-proj:       6135. kBytes
   fftplans  :       6192. kBytes
   grid      :      14776. kBytes
   one-center:         62. kBytes
   wavefun   :      21647. kBytes

  
  
 General timing and accounting informations for this job:
 ========================================================
  
                  Total CPU time used (sec):     4429.367
                            User time (sec):     4281.818
                          System time (sec):      147.548
                         Elapsed time (sec):      241.196
  
                   Maximum memory used (kb):      313048.
                   Average memory used (kb):          N/A
  
                          Minor page faults:      4431473
                          Major page faults:           79
                 Voluntary context switches:      1538738
