   4   4   1   0
  0.1350178E+02  0.3779929E-09  0.3779929E-09  0.3779929E-09  0.5000000E-15
  1.000000000000000E-004
  CAR 
 unknown system                          
     19.14691266     -3.36526904  301      6.05860394      1.00000000
     -3.365  0.0000E+00  0.0000E+00  0.0000E+00  0.0000E+00
     -3.290  0.0000E+00  0.0000E+00  0.0000E+00  0.0000E+00
     -3.215  0.0000E+00  0.0000E+00  0.0000E+00  0.0000E+00
     -3.140  0.0000E+00  0.0000E+00  0.0000E+00  0.0000E+00
     -3.065  0.0000E+00  0.0000E+00  0.0000E+00  0.0000E+00
     -2.990  0.0000E+00  0.0000E+00  0.0000E+00  0.0000E+00
     -2.915  0.0000E+00  0.0000E+00  0.0000E+00  0.0000E+00
     -2.840  0.0000E+00  0.0000E+00  0.0000E+00  0.0000E+00
     -2.765  0.1242E-05  0.1285E-05  0.9321E-07  0.9646E-07
     -2.690  0.1336E-04  0.1382E-04  0.1095E-05  0.1134E-05
     -2.615  0.7674E-04  0.7941E-04  0.6854E-05  0.7092E-05
     -2.540  0.3196E-03  0.3306E-03  0.3084E-04  0.3190E-04
     -2.465  0.1405E-02  0.1452E-02  0.1363E-03  0.1409E-03
     -2.390  0.5616E-02  0.5785E-02  0.5577E-03  0.5750E-03
     -2.315  0.1795E-01  0.1836E-01  0.1904E-02  0.1953E-02
     -2.240  0.3990E-01  0.4044E-01  0.4899E-02  0.4987E-02
     -2.165  0.5930E-01  0.5962E-01  0.9349E-02  0.9461E-02
     -2.090  0.7238E-01  0.7278E-01  0.1478E-01  0.1492E-01
     -2.015  0.9814E-01  0.9882E-01  0.2214E-01  0.2234E-01
     -1.939  0.1144E+00  0.1143E+00  0.3073E-01  0.3092E-01
     -1.864  0.9986E-01  0.9961E-01  0.3823E-01  0.3840E-01
     -1.789  0.1123E+00  0.1131E+00  0.4666E-01  0.4689E-01
     -1.714  0.1493E+00  0.1499E+00  0.5787E-01  0.5814E-01
     -1.639  0.1580E+00  0.1579E+00  0.6973E-01  0.6999E-01
     -1.564  0.1476E+00  0.1475E+00  0.8081E-01  0.8106E-01
     -1.489  0.1605E+00  0.1612E+00  0.9286E-01  0.9316E-01
     -1.414  0.1745E+00  0.1742E+00  0.1060E+00  0.1062E+00
     -1.339  0.1466E+00  0.1462E+00  0.1170E+00  0.1172E+00
     -1.264  0.1722E+00  0.1736E+00  0.1299E+00  0.1303E+00
     -1.189  0.2247E+00  0.2253E+00  0.1468E+00  0.1472E+00
     -1.114  0.2264E+00  0.2261E+00  0.1638E+00  0.1641E+00
     -1.039  0.2243E+00  0.2245E+00  0.1806E+00  0.1810E+00
     -0.964  0.2196E+00  0.2188E+00  0.1971E+00  0.1974E+00
     -0.889  0.1734E+00  0.1725E+00  0.2101E+00  0.2104E+00
     -0.814  0.1762E+00  0.1773E+00  0.2234E+00  0.2237E+00
     -0.739  0.2534E+00  0.2553E+00  0.2424E+00  0.2429E+00
     -0.664  0.3041E+00  0.3041E+00  0.2652E+00  0.2657E+00
     -0.589  0.2790E+00  0.2785E+00  0.2862E+00  0.2866E+00
     -0.514  0.2885E+00  0.2889E+00  0.3078E+00  0.3083E+00
     -0.439  0.2663E+00  0.2649E+00  0.3278E+00  0.3282E+00
     -0.364  0.2157E+00  0.2155E+00  0.3440E+00  0.3444E+00
     -0.289  0.2628E+00  0.2645E+00  0.3638E+00  0.3643E+00
     -0.214  0.3221E+00  0.3227E+00  0.3880E+00  0.3885E+00
     -0.139  0.3216E+00  0.3212E+00  0.4121E+00  0.4126E+00
     -0.063  0.3075E+00  0.3075E+00  0.4352E+00  0.4357E+00
      0.012  0.3089E+00  0.3087E+00  0.4584E+00  0.4589E+00
      0.087  0.3218E+00  0.3229E+00  0.4826E+00  0.4831E+00
      0.162  0.4028E+00  0.4040E+00  0.5128E+00  0.5135E+00
      0.237  0.4031E+00  0.4019E+00  0.5431E+00  0.5437E+00
      0.312  0.3581E+00  0.3577E+00  0.5700E+00  0.5705E+00
      0.387  0.3564E+00  0.3561E+00  0.5968E+00  0.5973E+00
      0.462  0.3286E+00  0.3280E+00  0.6214E+00  0.6219E+00
      0.537  0.3601E+00  0.3615E+00  0.6485E+00  0.6490E+00
      0.612  0.4273E+00  0.4279E+00  0.6806E+00  0.6812E+00
      0.687  0.4623E+00  0.4634E+00  0.7153E+00  0.7159E+00
      0.762  0.5574E+00  0.5588E+00  0.7571E+00  0.7579E+00
      0.837  0.5616E+00  0.5598E+00  0.7993E+00  0.7999E+00
      0.912  0.4605E+00  0.4589E+00  0.8338E+00  0.8344E+00
      0.987  0.4384E+00  0.4386E+00  0.8668E+00  0.8673E+00
      1.062  0.4926E+00  0.4932E+00  0.9038E+00  0.9044E+00
      1.137  0.5820E+00  0.5833E+00  0.9474E+00  0.9481E+00
      1.212  0.6851E+00  0.6855E+00  0.9989E+00  0.9996E+00
      1.287  0.7526E+00  0.7528E+00  0.1055E+01  0.1056E+01
      1.362  0.8019E+00  0.8009E+00  0.1116E+01  0.1116E+01
      1.437  0.7558E+00  0.7538E+00  0.1172E+01  0.1173E+01
      1.512  0.7995E+00  0.7995E+00  0.1232E+01  0.1233E+01
      1.587  0.1115E+01  0.1116E+01  0.1316E+01  0.1317E+01
      1.662  0.1446E+01  0.1444E+01  0.1425E+01  0.1425E+01
      1.737  0.1512E+01  0.1509E+01  0.1538E+01  0.1538E+01
      1.813  0.1686E+01  0.1683E+01  0.1665E+01  0.1665E+01
      1.888  0.2104E+01  0.2100E+01  0.1823E+01  0.1822E+01
      1.963  0.2459E+01  0.2456E+01  0.2007E+01  0.2007E+01
      2.038  0.2624E+01  0.2621E+01  0.2204E+01  0.2203E+01
      2.113  0.2804E+01  0.2799E+01  0.2415E+01  0.2413E+01
      2.188  0.2988E+01  0.2983E+01  0.2639E+01  0.2637E+01
      2.263  0.3276E+01  0.3265E+01  0.2885E+01  0.2883E+01
      2.338  0.3935E+01  0.3922E+01  0.3180E+01  0.3177E+01
      2.413  0.4534E+01  0.4521E+01  0.3521E+01  0.3516E+01
      2.488  0.5103E+01  0.5093E+01  0.3904E+01  0.3899E+01
      2.563  0.5388E+01  0.5384E+01  0.4308E+01  0.4303E+01
      2.638  0.5285E+01  0.5285E+01  0.4705E+01  0.4700E+01
      2.713  0.5152E+01  0.5151E+01  0.5092E+01  0.5086E+01
      2.788  0.5129E+01  0.5127E+01  0.5477E+01  0.5471E+01
      2.863  0.5167E+01  0.5163E+01  0.5865E+01  0.5859E+01
      2.938  0.5361E+01  0.5354E+01  0.6268E+01  0.6261E+01
      3.013  0.5828E+01  0.5815E+01  0.6705E+01  0.6698E+01
      3.088  0.6652E+01  0.6636E+01  0.7205E+01  0.7196E+01
      3.163  0.7348E+01  0.7337E+01  0.7757E+01  0.7747E+01
      3.238  0.7803E+01  0.7791E+01  0.8342E+01  0.8332E+01
      3.313  0.8538E+01  0.8519E+01  0.8984E+01  0.8972E+01
      3.388  0.9391E+01  0.9373E+01  0.9689E+01  0.9675E+01
      3.463  0.9946E+01  0.9930E+01  0.1044E+02  0.1042E+02
      3.538  0.1018E+02  0.1018E+02  0.1120E+02  0.1119E+02
      3.614  0.9306E+01  0.9331E+01  0.1190E+02  0.1189E+02
      3.689  0.7915E+01  0.7938E+01  0.1249E+02  0.1248E+02
      3.764  0.7028E+01  0.7035E+01  0.1302E+02  0.1301E+02
      3.839  0.6996E+01  0.6983E+01  0.1355E+02  0.1353E+02
      3.914  0.7764E+01  0.7741E+01  0.1413E+02  0.1412E+02
      3.989  0.8591E+01  0.8574E+01  0.1477E+02  0.1476E+02
      4.064  0.8858E+01  0.8855E+01  0.1544E+02  0.1543E+02
      4.139  0.8628E+01  0.8631E+01  0.1609E+02  0.1607E+02
      4.214  0.8343E+01  0.8343E+01  0.1671E+02  0.1670E+02
      4.289  0.8341E+01  0.8330E+01  0.1734E+02  0.1733E+02
      4.364  0.9006E+01  0.8974E+01  0.1802E+02  0.1800E+02
      4.439  0.1045E+02  0.1041E+02  0.1880E+02  0.1878E+02
      4.514  0.1136E+02  0.1137E+02  0.1965E+02  0.1963E+02
      4.589  0.9306E+01  0.9394E+01  0.2035E+02  0.2034E+02
      4.664  0.5548E+01  0.5643E+01  0.2077E+02  0.2076E+02
      4.739  0.2721E+01  0.2776E+01  0.2098E+02  0.2097E+02
      4.814  0.1280E+01  0.1301E+01  0.2107E+02  0.2107E+02
      4.889  0.9049E+00  0.9075E+00  0.2114E+02  0.2114E+02
      4.964  0.9534E+00  0.9542E+00  0.2121E+02  0.2121E+02
      5.039  0.8590E+00  0.8636E+00  0.2128E+02  0.2128E+02
      5.114  0.7076E+00  0.7101E+00  0.2133E+02  0.2133E+02
      5.189  0.7237E+00  0.7223E+00  0.2139E+02  0.2138E+02
      5.264  0.8861E+00  0.8844E+00  0.2145E+02  0.2145E+02
      5.339  0.8489E+00  0.8518E+00  0.2152E+02  0.2151E+02
      5.414  0.6814E+00  0.6844E+00  0.2157E+02  0.2157E+02
      5.490  0.5762E+00  0.5783E+00  0.2161E+02  0.2161E+02
      5.565  0.6458E+00  0.6465E+00  0.2166E+02  0.2166E+02
      5.640  0.8055E+00  0.8040E+00  0.2172E+02  0.2172E+02
      5.715  0.8738E+00  0.8723E+00  0.2178E+02  0.2178E+02
      5.790  0.7652E+00  0.7662E+00  0.2184E+02  0.2184E+02
      5.865  0.6314E+00  0.6332E+00  0.2189E+02  0.2189E+02
      5.940  0.5849E+00  0.5862E+00  0.2193E+02  0.2193E+02
      6.015  0.5827E+00  0.5830E+00  0.2198E+02  0.2198E+02
      6.090  0.5006E+00  0.5009E+00  0.2201E+02  0.2201E+02
      6.165  0.5015E+00  0.5020E+00  0.2205E+02  0.2205E+02
      6.240  0.6776E+00  0.6777E+00  0.2210E+02  0.2210E+02
      6.315  0.8637E+00  0.8637E+00  0.2217E+02  0.2217E+02
      6.390  0.9063E+00  0.9069E+00  0.2224E+02  0.2224E+02
      6.465  0.6905E+00  0.6905E+00  0.2229E+02  0.2229E+02
      6.540  0.4968E+00  0.4967E+00  0.2233E+02  0.2233E+02
      6.615  0.4600E+00  0.4599E+00  0.2236E+02  0.2236E+02
      6.690  0.4104E+00  0.4109E+00  0.2239E+02  0.2239E+02
      6.765  0.4084E+00  0.4094E+00  0.2242E+02  0.2242E+02
      6.840  0.5341E+00  0.5346E+00  0.2246E+02  0.2246E+02
      6.915  0.7129E+00  0.7132E+00  0.2252E+02  0.2252E+02
      6.990  0.8281E+00  0.8277E+00  0.2258E+02  0.2258E+02
      7.065  0.6633E+00  0.6626E+00  0.2263E+02  0.2263E+02
      7.140  0.5515E+00  0.5519E+00  0.2267E+02  0.2267E+02
      7.215  0.5668E+00  0.5677E+00  0.2271E+02  0.2271E+02
      7.290  0.5539E+00  0.5541E+00  0.2275E+02  0.2275E+02
      7.366  0.5217E+00  0.5217E+00  0.2279E+02  0.2279E+02
      7.441  0.4610E+00  0.4604E+00  0.2283E+02  0.2283E+02
      7.516  0.3898E+00  0.3893E+00  0.2286E+02  0.2286E+02
      7.591  0.3699E+00  0.3701E+00  0.2288E+02  0.2288E+02
      7.666  0.4701E+00  0.4712E+00  0.2292E+02  0.2292E+02
      7.741  0.5997E+00  0.6010E+00  0.2296E+02  0.2296E+02
      7.816  0.7247E+00  0.7259E+00  0.2302E+02  0.2302E+02
      7.891  0.7995E+00  0.7995E+00  0.2308E+02  0.2308E+02
      7.966  0.6617E+00  0.6598E+00  0.2313E+02  0.2313E+02
      8.041  0.4207E+00  0.4190E+00  0.2316E+02  0.2316E+02
      8.116  0.3362E+00  0.3364E+00  0.2318E+02  0.2319E+02
      8.191  0.4468E+00  0.4483E+00  0.2322E+02  0.2322E+02
      8.266  0.5273E+00  0.5278E+00  0.2326E+02  0.2326E+02
      8.341  0.4509E+00  0.4502E+00  0.2329E+02  0.2329E+02
      8.416  0.3333E+00  0.3325E+00  0.2332E+02  0.2332E+02
      8.491  0.3000E+00  0.2997E+00  0.2334E+02  0.2334E+02
      8.566  0.3822E+00  0.3830E+00  0.2337E+02  0.2337E+02
      8.641  0.4862E+00  0.4870E+00  0.2340E+02  0.2341E+02
      8.716  0.5144E+00  0.5145E+00  0.2344E+02  0.2344E+02
      8.791  0.4708E+00  0.4705E+00  0.2348E+02  0.2348E+02
      8.866  0.4937E+00  0.4943E+00  0.2352E+02  0.2352E+02
      8.941  0.5425E+00  0.5427E+00  0.2356E+02  0.2356E+02
      9.016  0.4657E+00  0.4645E+00  0.2359E+02  0.2359E+02
      9.091  0.3181E+00  0.3168E+00  0.2362E+02  0.2362E+02
      9.167  0.2496E+00  0.2492E+00  0.2363E+02  0.2363E+02
      9.242  0.3384E+00  0.3394E+00  0.2366E+02  0.2366E+02
      9.317  0.5370E+00  0.5382E+00  0.2370E+02  0.2370E+02
      9.392  0.5997E+00  0.5992E+00  0.2374E+02  0.2375E+02
      9.467  0.5230E+00  0.5222E+00  0.2378E+02  0.2378E+02
      9.542  0.4693E+00  0.4696E+00  0.2382E+02  0.2382E+02
      9.617  0.5515E+00  0.5532E+00  0.2386E+02  0.2386E+02
      9.692  0.7720E+00  0.7743E+00  0.2392E+02  0.2392E+02
      9.767  0.9079E+00  0.9079E+00  0.2399E+02  0.2399E+02
      9.842  0.7585E+00  0.7562E+00  0.2404E+02  0.2404E+02
      9.917  0.5419E+00  0.5411E+00  0.2408E+02  0.2408E+02
      9.992  0.5279E+00  0.5289E+00  0.2412E+02  0.2412E+02
     10.067  0.6363E+00  0.6369E+00  0.2417E+02  0.2417E+02
     10.142  0.6270E+00  0.6264E+00  0.2422E+02  0.2422E+02
     10.217  0.5741E+00  0.5737E+00  0.2426E+02  0.2426E+02
     10.292  0.5141E+00  0.5134E+00  0.2430E+02  0.2430E+02
     10.367  0.4626E+00  0.4631E+00  0.2434E+02  0.2434E+02
     10.442  0.5742E+00  0.5765E+00  0.2438E+02  0.2438E+02
     10.517  0.7824E+00  0.7846E+00  0.2444E+02  0.2444E+02
     10.592  0.8539E+00  0.8525E+00  0.2450E+02  0.2450E+02
     10.667  0.5912E+00  0.5881E+00  0.2455E+02  0.2455E+02
     10.742  0.4215E+00  0.4212E+00  0.2458E+02  0.2458E+02
     10.817  0.4278E+00  0.4285E+00  0.2461E+02  0.2461E+02
     10.892  0.4998E+00  0.5008E+00  0.2465E+02  0.2465E+02
     10.967  0.5634E+00  0.5638E+00  0.2469E+02  0.2469E+02
     11.043  0.6303E+00  0.6310E+00  0.2474E+02  0.2474E+02
     11.118  0.6758E+00  0.6760E+00  0.2479E+02  0.2479E+02
     11.193  0.6378E+00  0.6370E+00  0.2484E+02  0.2484E+02
     11.268  0.5680E+00  0.5678E+00  0.2488E+02  0.2488E+02
     11.343  0.5633E+00  0.5636E+00  0.2492E+02  0.2492E+02
     11.418  0.5650E+00  0.5648E+00  0.2496E+02  0.2496E+02
     11.493  0.5210E+00  0.5202E+00  0.2500E+02  0.2500E+02
     11.568  0.4411E+00  0.4403E+00  0.2504E+02  0.2504E+02
     11.643  0.4245E+00  0.4251E+00  0.2507E+02  0.2507E+02
     11.718  0.4918E+00  0.4926E+00  0.2510E+02  0.2510E+02
     11.793  0.4905E+00  0.4897E+00  0.2514E+02  0.2514E+02
     11.868  0.4392E+00  0.4391E+00  0.2517E+02  0.2517E+02
     11.943  0.4861E+00  0.4871E+00  0.2521E+02  0.2521E+02
     12.018  0.5345E+00  0.5348E+00  0.2525E+02  0.2525E+02
     12.093  0.5437E+00  0.5440E+00  0.2529E+02  0.2529E+02
     12.168  0.5563E+00  0.5562E+00  0.2533E+02  0.2533E+02
     12.243  0.5596E+00  0.5597E+00  0.2538E+02  0.2538E+02
     12.318  0.6155E+00  0.6164E+00  0.2542E+02  0.2542E+02
     12.393  0.6395E+00  0.6389E+00  0.2547E+02  0.2547E+02
     12.468  0.5685E+00  0.5680E+00  0.2551E+02  0.2551E+02
     12.543  0.6455E+00  0.6477E+00  0.2556E+02  0.2556E+02
     12.618  0.7728E+00  0.7731E+00  0.2562E+02  0.2562E+02
     12.693  0.6547E+00  0.6523E+00  0.2567E+02  0.2567E+02
     12.768  0.4859E+00  0.4843E+00  0.2570E+02  0.2570E+02
     12.844  0.4351E+00  0.4349E+00  0.2574E+02  0.2574E+02
     12.919  0.4885E+00  0.4898E+00  0.2577E+02  0.2577E+02
     12.994  0.6496E+00  0.6524E+00  0.2582E+02  0.2582E+02
     13.069  0.8473E+00  0.8493E+00  0.2589E+02  0.2589E+02
     13.144  0.9115E+00  0.9119E+00  0.2595E+02  0.2596E+02
     13.219  0.8965E+00  0.8958E+00  0.2602E+02  0.2602E+02
     13.294  0.7889E+00  0.7880E+00  0.2608E+02  0.2608E+02
     13.369  0.7849E+00  0.7866E+00  0.2614E+02  0.2614E+02
     13.444  0.8892E+00  0.8900E+00  0.2621E+02  0.2621E+02
     13.519  0.8637E+00  0.8618E+00  0.2627E+02  0.2627E+02
     13.594  0.7131E+00  0.7115E+00  0.2633E+02  0.2633E+02
     13.669  0.6412E+00  0.6406E+00  0.2637E+02  0.2637E+02
     13.744  0.5808E+00  0.5798E+00  0.2642E+02  0.2642E+02
     13.819  0.5854E+00  0.5851E+00  0.2646E+02  0.2646E+02
     13.894  0.6705E+00  0.6716E+00  0.2651E+02  0.2651E+02
     13.969  0.6833E+00  0.6845E+00  0.2656E+02  0.2656E+02
     14.044  0.6818E+00  0.6829E+00  0.2661E+02  0.2661E+02
     14.119  0.6562E+00  0.6548E+00  0.2666E+02  0.2666E+02
     14.194  0.6020E+00  0.6022E+00  0.2671E+02  0.2671E+02
     14.269  0.7098E+00  0.7115E+00  0.2676E+02  0.2676E+02
     14.344  0.8024E+00  0.8025E+00  0.2682E+02  0.2682E+02
     14.419  0.8562E+00  0.8565E+00  0.2689E+02  0.2689E+02
     14.494  0.9211E+00  0.9199E+00  0.2696E+02  0.2696E+02
     14.569  0.8275E+00  0.8240E+00  0.2702E+02  0.2702E+02
     14.644  0.7138E+00  0.7150E+00  0.2707E+02  0.2707E+02
     14.720  0.6971E+00  0.6993E+00  0.2712E+02  0.2712E+02
     14.795  0.6821E+00  0.6834E+00  0.2717E+02  0.2718E+02
     14.870  0.6884E+00  0.6903E+00  0.2723E+02  0.2723E+02
     14.945  0.6329E+00  0.6346E+00  0.2727E+02  0.2727E+02
     15.020  0.6387E+00  0.6381E+00  0.2732E+02  0.2732E+02
     15.095  0.7149E+00  0.7158E+00  0.2738E+02  0.2738E+02
     15.170  0.8101E+00  0.8122E+00  0.2744E+02  0.2744E+02
     15.245  0.7773E+00  0.7743E+00  0.2749E+02  0.2750E+02
     15.320  0.5643E+00  0.5641E+00  0.2754E+02  0.2754E+02
     15.395  0.3790E+00  0.4040E+00  0.2757E+02  0.2757E+02
     15.470  0.4090E+00  0.4491E+00  0.2760E+02  0.2760E+02
     15.545  0.6071E+00  0.6051E+00  0.2764E+02  0.2765E+02
     15.620  0.7576E+00  0.7490E+00  0.2770E+02  0.2770E+02
     15.695  0.6401E+00  0.6281E+00  0.2775E+02  0.2775E+02
     15.770  0.3559E+00  0.3593E+00  0.2777E+02  0.2778E+02
     15.845  0.2740E+00  0.3215E+00  0.2779E+02  0.2780E+02
     15.920  0.3284E+00  0.3461E+00  0.2782E+02  0.2783E+02
     15.995  0.3047E+00  0.2659E+00  0.2784E+02  0.2785E+02
     16.070  0.2340E+00  0.1925E+00  0.2786E+02  0.2786E+02
     16.145  0.2241E+00  0.2306E+00  0.2788E+02  0.2788E+02
     16.220  0.3020E+00  0.3475E+00  0.2790E+02  0.2791E+02
     16.295  0.3347E+00  0.3252E+00  0.2792E+02  0.2793E+02
     16.370  0.2360E+00  0.1828E+00  0.2794E+02  0.2794E+02
     16.445  0.1569E+00  0.1304E+00  0.2795E+02  0.2795E+02
     16.520  0.1322E+00  0.1256E+00  0.2796E+02  0.2796E+02
     16.596  0.7687E-01  0.7739E-01  0.2797E+02  0.2797E+02
     16.671  0.4912E-01  0.5020E-01  0.2797E+02  0.2797E+02
     16.746  0.5665E-01  0.5683E-01  0.2798E+02  0.2798E+02
     16.821  0.5252E-01  0.5197E-01  0.2798E+02  0.2798E+02
     16.896  0.3745E-01  0.3695E-01  0.2798E+02  0.2798E+02
     16.971  0.1924E-01  0.1881E-01  0.2799E+02  0.2799E+02
     17.046  0.1114E-01  0.1058E-01  0.2799E+02  0.2799E+02
     17.121  0.2202E-01  0.2068E-01  0.2799E+02  0.2799E+02
     17.196  0.4753E-01  0.4631E-01  0.2799E+02  0.2799E+02
     17.271  0.4513E-01  0.4641E-01  0.2799E+02  0.2799E+02
     17.346  0.1857E-01  0.1982E-01  0.2800E+02  0.2800E+02
     17.421  0.5040E-02  0.5418E-02  0.2800E+02  0.2800E+02
     17.496  0.1594E-02  0.1544E-02  0.2800E+02  0.2800E+02
     17.571  0.2128E-02  0.1546E-02  0.2800E+02  0.2800E+02
     17.646  0.6439E-02  0.4726E-02  0.2800E+02  0.2800E+02
     17.721  0.1265E-01  0.1138E-01  0.2800E+02  0.2800E+02
     17.796  0.1002E-01  0.1175E-01  0.2800E+02  0.2800E+02
     17.871  0.3677E-02  0.5133E-02  0.2800E+02  0.2800E+02
     17.946  0.1062E-02  0.1523E-02  0.2800E+02  0.2800E+02
     18.021  0.7385E-03  0.8647E-03  0.2800E+02  0.2800E+02
     18.096  0.1579E-02  0.1632E-02  0.2800E+02  0.2800E+02
     18.171  0.2155E-02  0.2148E-02  0.2800E+02  0.2800E+02
     18.246  0.1206E-02  0.1179E-02  0.2800E+02  0.2800E+02
     18.321  0.3654E-03  0.3541E-03  0.2800E+02  0.2800E+02
     18.397  0.8808E-04  0.8513E-04  0.2800E+02  0.2800E+02
     18.472  0.1999E-04  0.1931E-04  0.2800E+02  0.2800E+02
     18.547  0.0000E+00  0.0000E+00  0.2800E+02  0.2800E+02
     18.622  0.0000E+00  0.0000E+00  0.2800E+02  0.2800E+02
     18.697  0.0000E+00  0.0000E+00  0.2800E+02  0.2800E+02
     18.772  0.0000E+00  0.0000E+00  0.2800E+02  0.2800E+02
     18.847  0.0000E+00  0.0000E+00  0.2800E+02  0.2800E+02
     18.922  0.0000E+00  0.0000E+00  0.2800E+02  0.2800E+02
     18.997  0.0000E+00  0.0000E+00  0.2800E+02  0.2800E+02
     19.072  0.0000E+00  0.0000E+00  0.2800E+02  0.2800E+02
     19.147  0.0000E+00  0.0000E+00  0.2800E+02  0.2800E+02
     19.14691266     -3.36526904  301      6.05860394      1.00000000
     -3.365  0.0000E+00  0.0000E+00  0.0000E+00  0.0000E+00  0.0000E+00  0.0000E+00  0.0000E+00  0.0000E+00  0.0000E+00  0.0000E+00  0.0000E+00  0.0000E+00  0.0000E+00  0.0000E+00  0.0000E+00  0.0000E+00  0.0000E+00  0.0000E+00
     -3.290  0.0000E+00  0.0000E+00  0.0000E+00  0.0000E+00  0.0000E+00  0.0000E+00  0.0000E+00  0.0000E+00  0.0000E+00  0.0000E+00  0.0000E+00  0.0000E+00  0.0000E+00  0.0000E+00  0.0000E+00  0.0000E+00  0.0000E+00  0.0000E+00
     -3.215  0.0000E+00  0.0000E+00  0.0000E+00  0.0000E+00  0.0000E+00  0.0000E+00  0.0000E+00  0.0000E+00  0.0000E+00  0.0000E+00  0.0000E+00  0.0000E+00  0.0000E+00  0.0000E+00  0.0000E+00  0.0000E+00  0.0000E+00  0.0000E+00
     -3.140  0.0000E+00  0.0000E+00  0.0000E+00  0.0000E+00  0.0000E+00  0.0000E+00  0.0000E+00  0.0000E+00  0.0000E+00  0.0000E+00  0.0000E+00  0.0000E+00  0.0000E+00  0.0000E+00  0.0000E+00  0.0000E+00  0.0000E+00  0.0000E+00
     -3.065  0.0000E+00  0.0000E+00  0.0000E+00  0.0000E+00  0.0000E+00  0.0000E+00  0.0000E+00  0.0000E+00  0.0000E+00  0.0000E+00  0.0000E+00  0.0000E+00  0.0000E+00  0.0000E+00  0.0000E+00  0.0000E+00  0.0000E+00  0.0000E+00
     -2.990  0.0000E+00  0.0000E+00  0.0000E+00  0.0000E+00  0.0000E+00  0.0000E+00  0.0000E+00  0.0000E+00  0.0000E+00  0.0000E+00  0.0000E+00  0.0000E+00  0.0000E+00  0.0000E+00  0.0000E+00  0.0000E+00  0.0000E+00  0.0000E+00
     -2.915  0.0000E+00  0.0000E+00  0.0000E+00  0.0000E+00  0.0000E+00  0.0000E+00  0.0000E+00  0.0000E+00  0.0000E+00  0.0000E+00  0.0000E+00  0.0000E+00  0.0000E+00  0.0000E+00  0.0000E+00  0.0000E+00  0.0000E+00  0.0000E+00
     -2.840  0.0000E+00  0.0000E+00  0.0000E+00  0.0000E+00  0.0000E+00  0.0000E+00  0.0000E+00  0.0000E+00  0.0000E+00  0.0000E+00  0.0000E+00  0.0000E+00  0.0000E+00  0.0000E+00  0.0000E+00  0.0000E+00  0.0000E+00  0.0000E+00
     -2.765  0.1597E-06  0.1653E-06  0.1173E-20  0.1918E-21  0.1173E-20  0.1918E-21  0.1173E-20  0.1918E-21  0.5134E-16  0.4759E-16  0.5134E-16  0.4759E-16  0.8038E-16  0.2393E-16  0.5134E-16  0.4759E-16  0.8038E-16  0.2393E-16
     -2.690  0.1711E-05  0.1771E-05  0.2180E-08  0.2256E-08  0.2180E-08  0.2256E-08  0.2180E-08  0.2256E-08  0.1813E-15  0.1681E-15  0.1813E-15  0.1681E-15  0.1706E-10  0.1806E-10  0.1813E-15  0.1681E-15  0.1706E-10  0.1806E-10
     -2.615  0.9804E-05  0.1015E-04  0.2101E-07  0.2174E-07  0.2101E-07  0.2174E-07  0.2101E-07  0.2174E-07  0.1715E-09  0.1778E-09  0.1715E-09  0.1778E-09  0.1015E-09  0.1064E-09  0.1715E-09  0.1778E-09  0.1015E-09  0.1064E-09
     -2.540  0.4084E-04  0.4226E-04  0.8410E-07  0.8703E-07  0.8410E-07  0.8703E-07  0.8410E-07  0.8703E-07  0.5971E-09  0.6190E-09  0.5971E-09  0.6190E-09  0.5301E-09  0.5542E-09  0.5971E-09  0.6190E-09  0.5301E-09  0.5542E-09
     -2.465  0.1795E-03  0.1855E-03  0.3910E-06  0.4044E-06  0.3910E-06  0.4044E-06  0.3910E-06  0.4044E-06  0.3036E-08  0.3150E-08  0.3036E-08  0.3150E-08  0.2703E-08  0.2824E-08  0.3036E-08  0.3150E-08  0.2703E-08  0.2824E-08
     -2.390  0.7171E-03  0.7387E-03  0.1686E-05  0.1741E-05  0.1686E-05  0.1741E-05  0.1686E-05  0.1741E-05  0.1410E-07  0.1462E-07  0.1410E-07  0.1462E-07  0.1153E-07  0.1202E-07  0.1410E-07  0.1462E-07  0.1153E-07  0.1202E-07
     -2.315  0.2289E-02  0.2341E-02  0.6360E-05  0.6539E-05  0.6360E-05  0.6539E-05  0.6360E-05  0.6539E-05  0.5812E-07  0.6011E-07  0.5812E-07  0.6011E-07  0.4358E-07  0.4517E-07  0.5812E-07  0.6011E-07  0.4358E-07  0.4517E-07
     -2.240  0.5076E-02  0.5144E-02  0.1818E-04  0.1854E-04  0.1818E-04  0.1854E-04  0.1818E-04  0.1854E-04  0.2063E-06  0.2120E-06  0.2063E-06  0.2120E-06  0.1339E-06  0.1377E-06  0.2063E-06  0.2120E-06  0.1339E-06  0.1377E-06
     -2.165  0.7515E-02  0.7554E-02  0.3674E-04  0.3723E-04  0.3674E-04  0.3723E-04  0.3674E-04  0.3723E-04  0.5286E-06  0.5392E-06  0.5286E-06  0.5392E-06  0.3762E-06  0.3860E-06  0.5286E-06  0.5392E-06  0.3762E-06  0.3860E-06
     -2.090  0.9114E-02  0.9163E-02  0.6410E-04  0.6495E-04  0.6410E-04  0.6495E-04  0.6410E-04  0.6495E-04  0.1104E-05  0.1127E-05  0.1104E-05  0.1127E-05  0.1047E-05  0.1072E-05  0.1104E-05  0.1127E-05  0.1047E-05  0.1072E-05
     -2.015  0.1228E-01  0.1236E-01  0.1129E-03  0.1142E-03  0.1129E-03  0.1142E-03  0.1129E-03  0.1142E-03  0.2438E-05  0.2486E-05  0.2438E-05  0.2486E-05  0.2166E-05  0.2195E-05  0.2438E-05  0.2486E-05  0.2166E-05  0.2195E-05
     -1.939  0.1425E-01  0.1424E-01  0.1518E-03  0.1522E-03  0.1518E-03  0.1522E-03  0.1518E-03  0.1522E-03  0.4253E-05  0.4295E-05  0.4253E-05  0.4295E-05  0.2812E-05  0.2823E-05  0.4253E-05  0.4295E-05  0.2812E-05  0.2823E-05
     -1.864  0.1236E-01  0.1232E-01  0.1578E-03  0.1582E-03  0.1578E-03  0.1582E-03  0.1578E-03  0.1582E-03  0.5756E-05  0.5804E-05  0.5756E-05  0.5804E-05  0.3342E-05  0.3373E-05  0.5756E-05  0.5804E-05  0.3342E-05  0.3373E-05
     -1.789  0.1376E-01  0.1386E-01  0.2196E-03  0.2220E-03  0.2196E-03  0.2220E-03  0.2196E-03  0.2220E-03  0.9385E-05  0.9480E-05  0.9385E-05  0.9480E-05  0.6536E-05  0.6642E-05  0.9385E-05  0.9480E-05  0.6536E-05  0.6642E-05
     -1.714  0.1818E-01  0.1825E-01  0.3265E-03  0.3285E-03  0.3265E-03  0.3285E-03  0.3265E-03  0.3285E-03  0.1375E-04  0.1379E-04  0.1375E-04  0.1379E-04  0.1316E-04  0.1329E-04  0.1375E-04  0.1379E-04  0.1316E-04  0.1329E-04
     -1.639  0.1914E-01  0.1912E-01  0.3775E-03  0.3779E-03  0.3775E-03  0.3779E-03  0.3775E-03  0.3779E-03  0.1668E-04  0.1673E-04  0.1668E-04  0.1673E-04  0.1812E-04  0.1812E-04  0.1668E-04  0.1673E-04  0.1812E-04  0.1812E-04
     -1.564  0.1774E-01  0.1773E-01  0.3909E-03  0.3916E-03  0.3909E-03  0.3916E-03  0.3909E-03  0.3916E-03  0.2311E-04  0.2331E-04  0.2311E-04  0.2331E-04  0.1749E-04  0.1743E-04  0.2311E-04  0.2331E-04  0.1749E-04  0.1743E-04
     -1.489  0.1914E-01  0.1921E-01  0.4734E-03  0.4762E-03  0.4734E-03  0.4762E-03  0.4734E-03  0.4762E-03  0.3597E-04  0.3629E-04  0.3597E-04  0.3629E-04  0.1929E-04  0.1936E-04  0.3597E-04  0.3629E-04  0.1929E-04  0.1936E-04
     -1.414  0.2068E-01  0.2064E-01  0.5494E-03  0.5491E-03  0.5494E-03  0.5491E-03  0.5494E-03  0.5491E-03  0.4565E-04  0.4565E-04  0.4565E-04  0.4565E-04  0.2435E-04  0.2441E-04  0.4565E-04  0.4565E-04  0.2435E-04  0.2441E-04
     -1.339  0.1724E-01  0.1719E-01  0.4998E-03  0.4998E-03  0.4998E-03  0.4998E-03  0.4998E-03  0.4998E-03  0.4128E-04  0.4123E-04  0.4128E-04  0.4123E-04  0.3227E-04  0.3258E-04  0.4128E-04  0.4123E-04  0.3227E-04  0.3258E-04
     -1.264  0.2002E-01  0.2018E-01  0.6506E-03  0.6569E-03  0.6506E-03  0.6569E-03  0.6506E-03  0.6569E-03  0.5440E-04  0.5493E-04  0.5440E-04  0.5493E-04  0.5736E-04  0.5800E-04  0.5440E-04  0.5493E-04  0.5736E-04  0.5800E-04
     -1.189  0.2596E-01  0.2602E-01  0.8932E-03  0.8965E-03  0.8932E-03  0.8965E-03  0.8932E-03  0.8965E-03  0.8107E-04  0.8148E-04  0.8107E-04  0.8148E-04  0.8133E-04  0.8149E-04  0.8107E-04  0.8148E-04  0.8133E-04  0.8149E-04
     -1.114  0.2598E-01  0.2595E-01  0.9452E-03  0.9454E-03  0.9452E-03  0.9454E-03  0.9452E-03  0.9454E-03  0.9909E-04  0.9937E-04  0.9909E-04  0.9937E-04  0.8290E-04  0.8280E-04  0.9909E-04  0.9937E-04  0.8290E-04  0.8280E-04
     -1.039  0.2553E-01  0.2555E-01  0.9926E-03  0.9946E-03  0.9926E-03  0.9946E-03  0.9926E-03  0.9946E-03  0.1201E-03  0.1206E-03  0.1201E-03  0.1206E-03  0.8846E-04  0.8862E-04  0.1201E-03  0.1206E-03  0.8846E-04  0.8862E-04
     -0.964  0.2482E-01  0.2474E-01  0.1013E-02  0.1010E-02  0.1013E-02  0.1010E-02  0.1013E-02  0.1010E-02  0.1444E-03  0.1446E-03  0.1444E-03  0.1446E-03  0.8591E-04  0.8547E-04  0.1444E-03  0.1446E-03  0.8591E-04  0.8547E-04
     -0.889  0.1944E-01  0.1934E-01  0.8370E-03  0.8339E-03  0.8370E-03  0.8339E-03  0.8370E-03  0.8339E-03  0.1409E-03  0.1407E-03  0.1409E-03  0.1407E-03  0.6811E-04  0.6806E-04  0.1409E-03  0.1407E-03  0.6811E-04  0.6806E-04
     -0.814  0.1948E-01  0.1960E-01  0.9182E-03  0.9256E-03  0.9182E-03  0.9256E-03  0.9182E-03  0.9256E-03  0.1588E-03  0.1598E-03  0.1588E-03  0.1598E-03  0.1003E-03  0.1018E-03  0.1588E-03  0.1598E-03  0.1003E-03  0.1018E-03
     -0.739  0.2774E-01  0.2795E-01  0.1388E-02  0.1399E-02  0.1388E-02  0.1399E-02  0.1388E-02  0.1399E-02  0.2255E-03  0.2270E-03  0.2255E-03  0.2270E-03  0.1975E-03  0.1999E-03  0.2255E-03  0.2270E-03  0.1975E-03  0.1999E-03
     -0.664  0.3309E-01  0.3308E-01  0.1713E-02  0.1714E-02  0.1713E-02  0.1714E-02  0.1713E-02  0.1714E-02  0.2772E-03  0.2774E-03  0.2772E-03  0.2774E-03  0.2809E-03  0.2815E-03  0.2772E-03  0.2774E-03  0.2809E-03  0.2815E-03
     -0.589  0.3008E-01  0.3003E-01  0.1623E-02  0.1622E-02  0.1623E-02  0.1622E-02  0.1623E-02  0.1622E-02  0.2986E-03  0.2993E-03  0.2986E-03  0.2993E-03  0.2784E-03  0.2778E-03  0.2986E-03  0.2993E-03  0.2784E-03  0.2778E-03
     -0.514  0.3079E-01  0.3082E-01  0.1744E-02  0.1747E-02  0.1744E-02  0.1747E-02  0.1744E-02  0.1747E-02  0.3707E-03  0.3713E-03  0.3707E-03  0.3713E-03  0.2982E-03  0.2989E-03  0.3707E-03  0.3713E-03  0.2982E-03  0.2989E-03
     -0.439  0.2821E-01  0.2805E-01  0.1657E-02  0.1650E-02  0.1657E-02  0.1650E-02  0.1657E-02  0.1650E-02  0.3566E-03  0.3548E-03  0.3566E-03  0.3548E-03  0.3067E-03  0.3053E-03  0.3566E-03  0.3548E-03  0.3067E-03  0.3053E-03
     -0.364  0.2256E-01  0.2254E-01  0.1398E-02  0.1398E-02  0.1398E-02  0.1398E-02  0.1398E-02  0.1398E-02  0.3582E-03  0.3599E-03  0.3582E-03  0.3599E-03  0.2414E-03  0.2403E-03  0.3582E-03  0.3599E-03  0.2414E-03  0.2403E-03
     -0.289  0.2710E-01  0.2727E-01  0.1769E-02  0.1781E-02  0.1769E-02  0.1781E-02  0.1769E-02  0.1781E-02  0.5610E-03  0.5653E-03  0.5610E-03  0.5653E-03  0.2696E-03  0.2712E-03  0.5610E-03  0.5653E-03  0.2696E-03  0.2712E-03
     -0.214  0.3292E-01  0.3297E-01  0.2218E-02  0.2223E-02  0.2218E-02  0.2223E-02  0.2218E-02  0.2223E-02  0.7374E-03  0.7377E-03  0.7374E-03  0.7377E-03  0.3776E-03  0.3798E-03  0.7374E-03  0.7377E-03  0.3776E-03  0.3798E-03
     -0.139  0.3252E-01  0.3247E-01  0.2271E-02  0.2270E-02  0.2271E-02  0.2270E-02  0.2271E-02  0.2270E-02  0.7296E-03  0.7268E-03  0.7296E-03  0.7268E-03  0.5177E-03  0.5206E-03  0.7296E-03  0.7268E-03  0.5177E-03  0.5206E-03
     -0.063  0.3065E-01  0.3064E-01  0.2237E-02  0.2238E-02  0.2237E-02  0.2238E-02  0.2237E-02  0.2238E-02  0.6716E-03  0.6702E-03  0.6716E-03  0.6702E-03  0.7148E-03  0.7184E-03  0.6716E-03  0.6702E-03  0.7148E-03  0.7184E-03
      0.012  0.3038E-01  0.3035E-01  0.2305E-02  0.2305E-02  0.2305E-02  0.2305E-02  0.2305E-02  0.2305E-02  0.7170E-03  0.7173E-03  0.7170E-03  0.7173E-03  0.8397E-03  0.8393E-03  0.7170E-03  0.7173E-03  0.8397E-03  0.8393E-03
      0.087  0.3115E-01  0.3126E-01  0.2468E-02  0.2479E-02  0.2468E-02  0.2479E-02  0.2468E-02  0.2479E-02  0.8936E-03  0.8987E-03  0.8936E-03  0.8987E-03  0.8900E-03  0.8918E-03  0.8936E-03  0.8987E-03  0.8900E-03  0.8918E-03
      0.162  0.3854E-01  0.3866E-01  0.3160E-02  0.3171E-02  0.3160E-02  0.3171E-02  0.3160E-02  0.3171E-02  0.1306E-02  0.1311E-02  0.1306E-02  0.1311E-02  0.1049E-02  0.1049E-02  0.1306E-02  0.1311E-02  0.1049E-02  0.1049E-02
      0.237  0.3822E-01  0.3810E-01  0.3199E-02  0.3191E-02  0.3199E-02  0.3191E-02  0.3199E-02  0.3191E-02  0.1523E-02  0.1521E-02  0.1523E-02  0.1521E-02  0.9460E-03  0.9408E-03  0.1523E-02  0.1521E-02  0.9460E-03  0.9408E-03
      0.312  0.3342E-01  0.3338E-01  0.2886E-02  0.2885E-02  0.2886E-02  0.2885E-02  0.2886E-02  0.2885E-02  0.1556E-02  0.1555E-02  0.1556E-02  0.1555E-02  0.8748E-03  0.8757E-03  0.1556E-02  0.1555E-02  0.8748E-03  0.8757E-03
      0.387  0.3271E-01  0.3267E-01  0.2926E-02  0.2925E-02  0.2926E-02  0.2925E-02  0.2926E-02  0.2925E-02  0.1654E-02  0.1652E-02  0.1654E-02  0.1652E-02  0.1023E-02  0.1024E-02  0.1654E-02  0.1652E-02  0.1023E-02  0.1024E-02