   4   4   1   0
  0.1311604E+02  0.3743584E-09  0.3743584E-09  0.3743584E-09  0.5000000E-15
  1.000000000000000E-004
  CAR 
 unknown system                          
     19.69340385     -3.27198177  301      6.37528617      1.00000000
     -3.272  0.0000E+00  0.0000E+00  0.0000E+00  0.0000E+00
     -3.195  0.0000E+00  0.0000E+00  0.0000E+00  0.0000E+00
     -3.119  0.0000E+00  0.0000E+00  0.0000E+00  0.0000E+00
     -3.042  0.0000E+00  0.0000E+00  0.0000E+00  0.0000E+00
     -2.966  0.0000E+00  0.0000E+00  0.0000E+00  0.0000E+00
     -2.889  0.0000E+00  0.0000E+00  0.0000E+00  0.0000E+00
     -2.813  0.0000E+00  0.0000E+00  0.0000E+00  0.0000E+00
     -2.736  0.0000E+00  0.0000E+00  0.0000E+00  0.0000E+00
     -2.660  0.1021E-05  0.1063E-05  0.7813E-07  0.8135E-07
     -2.583  0.1114E-04  0.1160E-04  0.9306E-06  0.9691E-06
     -2.506  0.6212E-04  0.6469E-04  0.5686E-05  0.5921E-05
     -2.430  0.2850E-03  0.2967E-03  0.2750E-04  0.2863E-04
     -2.353  0.1277E-02  0.1328E-02  0.1252E-03  0.1303E-03
     -2.277  0.5265E-02  0.5454E-02  0.5283E-03  0.5477E-03
     -2.200  0.1728E-01  0.1775E-01  0.1851E-02  0.1906E-02
     -2.124  0.3904E-01  0.3965E-01  0.4839E-02  0.4942E-02
     -2.047  0.5817E-01  0.5852E-01  0.9293E-02  0.9422E-02
     -1.971  0.7058E-01  0.7102E-01  0.1470E-01  0.1486E-01
     -1.894  0.9623E-01  0.9703E-01  0.2206E-01  0.2229E-01
     -1.818  0.1129E+00  0.1128E+00  0.3070E-01  0.3092E-01
     -1.741  0.9734E-01  0.9701E-01  0.3816E-01  0.3835E-01
     -1.664  0.1093E+00  0.1103E+00  0.4653E-01  0.4679E-01
     -1.588  0.1468E+00  0.1475E+00  0.5777E-01  0.5809E-01
     -1.511  0.1554E+00  0.1552E+00  0.6967E-01  0.6997E-01
     -1.435  0.1443E+00  0.1441E+00  0.8072E-01  0.8101E-01
     -1.358  0.1573E+00  0.1580E+00  0.9276E-01  0.9311E-01
     -1.282  0.1722E+00  0.1718E+00  0.1060E+00  0.1063E+00
     -1.205  0.1427E+00  0.1423E+00  0.1169E+00  0.1172E+00
     -1.129  0.1682E+00  0.1698E+00  0.1298E+00  0.1302E+00
     -1.052  0.2215E+00  0.2222E+00  0.1467E+00  0.1472E+00
     -0.975  0.2223E+00  0.2218E+00  0.1638E+00  0.1642E+00
     -0.899  0.2203E+00  0.2205E+00  0.1807E+00  0.1811E+00
     -0.822  0.2164E+00  0.2155E+00  0.1972E+00  0.1976E+00
     -0.746  0.1690E+00  0.1680E+00  0.2102E+00  0.2105E+00
     -0.669  0.1717E+00  0.1730E+00  0.2233E+00  0.2237E+00
     -0.593  0.2497E+00  0.2519E+00  0.2425E+00  0.2430E+00
     -0.516  0.3005E+00  0.3004E+00  0.2655E+00  0.2660E+00
     -0.440  0.2733E+00  0.2728E+00  0.2864E+00  0.2869E+00
     -0.363  0.2844E+00  0.2848E+00  0.3082E+00  0.3087E+00
     -0.286  0.2609E+00  0.2593E+00  0.3282E+00  0.3286E+00
     -0.210  0.2099E+00  0.2098E+00  0.3443E+00  0.3447E+00
     -0.133  0.2598E+00  0.2618E+00  0.3642E+00  0.3648E+00
     -0.057  0.3186E+00  0.3192E+00  0.3886E+00  0.3892E+00
      0.020  0.3164E+00  0.3158E+00  0.4128E+00  0.4134E+00
      0.096  0.3027E+00  0.3027E+00  0.4360E+00  0.4366E+00
      0.173  0.3035E+00  0.3031E+00  0.4593E+00  0.4598E+00
      0.249  0.3171E+00  0.3186E+00  0.4836E+00  0.4842E+00
      0.326  0.4002E+00  0.4016E+00  0.5142E+00  0.5150E+00
      0.402  0.3951E+00  0.3937E+00  0.5445E+00  0.5451E+00
      0.479  0.3515E+00  0.3510E+00  0.5714E+00  0.5720E+00
      0.556  0.3510E+00  0.3505E+00  0.5983E+00  0.5989E+00
      0.632  0.3226E+00  0.3220E+00  0.6230E+00  0.6235E+00
      0.709  0.3604E+00  0.3622E+00  0.6507E+00  0.6513E+00
      0.785  0.4232E+00  0.4238E+00  0.6831E+00  0.6838E+00
      0.862  0.4591E+00  0.4605E+00  0.7182E+00  0.7191E+00
      0.938  0.5596E+00  0.5611E+00  0.7611E+00  0.7620E+00
      1.015  0.5483E+00  0.5460E+00  0.8031E+00  0.8038E+00
      1.091  0.4461E+00  0.4444E+00  0.8373E+00  0.8379E+00
      1.168  0.4352E+00  0.4357E+00  0.8706E+00  0.8712E+00
      1.245  0.4929E+00  0.4937E+00  0.9084E+00  0.9091E+00
      1.321  0.5889E+00  0.5905E+00  0.9535E+00  0.9543E+00
      1.398  0.6897E+00  0.6901E+00  0.1006E+01  0.1007E+01
      1.474  0.7555E+00  0.7557E+00  0.1064E+01  0.1065E+01
      1.551  0.7949E+00  0.7935E+00  0.1125E+01  0.1126E+01
      1.627  0.7392E+00  0.7371E+00  0.1182E+01  0.1182E+01
      1.704  0.8214E+00  0.8219E+00  0.1245E+01  0.1245E+01
      1.780  0.1176E+01  0.1177E+01  0.1335E+01  0.1335E+01
      1.857  0.1471E+01  0.1469E+01  0.1447E+01  0.1448E+01
      1.934  0.1510E+01  0.1507E+01  0.1563E+01  0.1563E+01
      2.010  0.1748E+01  0.1745E+01  0.1697E+01  0.1697E+01
      2.087  0.2181E+01  0.2178E+01  0.1864E+01  0.1864E+01
      2.163  0.2474E+01  0.2471E+01  0.2053E+01  0.2053E+01
      2.240  0.2587E+01  0.2583E+01  0.2252E+01  0.2251E+01
      2.316  0.2785E+01  0.2780E+01  0.2465E+01  0.2464E+01
      2.393  0.2926E+01  0.2919E+01  0.2689E+01  0.2687E+01
      2.469  0.3295E+01  0.3284E+01  0.2941E+01  0.2939E+01
      2.546  0.3944E+01  0.3931E+01  0.3243E+01  0.3240E+01
      2.622  0.4503E+01  0.4490E+01  0.3588E+01  0.3584E+01
      2.699  0.5024E+01  0.5015E+01  0.3973E+01  0.3968E+01
      2.776  0.5225E+01  0.5222E+01  0.4373E+01  0.4368E+01
      2.852  0.5068E+01  0.5068E+01  0.4761E+01  0.4756E+01
      2.929  0.4950E+01  0.4948E+01  0.5140E+01  0.5135E+01
      3.005  0.4915E+01  0.4913E+01  0.5517E+01  0.5511E+01
      3.082  0.4946E+01  0.4941E+01  0.5896E+01  0.5890E+01
      3.158  0.5122E+01  0.5115E+01  0.6288E+01  0.6282E+01
      3.235  0.5569E+01  0.5555E+01  0.6715E+01  0.6707E+01
      3.311  0.6363E+01  0.6347E+01  0.7202E+01  0.7193E+01
      3.388  0.7018E+01  0.7008E+01  0.7740E+01  0.7730E+01
      3.465  0.7407E+01  0.7396E+01  0.8307E+01  0.8296E+01
      3.541  0.8081E+01  0.8062E+01  0.8926E+01  0.8914E+01
      3.618  0.8896E+01  0.8878E+01  0.9607E+01  0.9594E+01
      3.694  0.9422E+01  0.9405E+01  0.1033E+02  0.1031E+02
      3.771  0.9775E+01  0.9767E+01  0.1108E+02  0.1106E+02
      3.847  0.9170E+01  0.9192E+01  0.1178E+02  0.1177E+02
      3.924  0.7816E+01  0.7842E+01  0.1238E+02  0.1237E+02
      4.000  0.6800E+01  0.6811E+01  0.1290E+02  0.1289E+02
      4.077  0.6548E+01  0.6540E+01  0.1340E+02  0.1339E+02
      4.153  0.7131E+01  0.7108E+01  0.1395E+02  0.1393E+02
      4.230  0.8013E+01  0.7992E+01  0.1456E+02  0.1455E+02
      4.307  0.8455E+01  0.8446E+01  0.1521E+02  0.1519E+02
      4.383  0.8364E+01  0.8367E+01  0.1585E+02  0.1584E+02
      4.460  0.8033E+01  0.8035E+01  0.1647E+02  0.1645E+02
      4.536  0.7871E+01  0.7865E+01  0.1707E+02  0.1705E+02
      4.613  0.8160E+01  0.8137E+01  0.1769E+02  0.1768E+02
      4.689  0.9234E+01  0.9189E+01  0.1840E+02  0.1838E+02
      4.766  0.1076E+02  0.1072E+02  0.1923E+02  0.1920E+02
      4.842  0.1047E+02  0.1052E+02  0.2003E+02  0.2001E+02
      4.919  0.7330E+01  0.7438E+01  0.2059E+02  0.2058E+02
      4.996  0.3942E+01  0.4026E+01  0.2089E+02  0.2089E+02
      5.072  0.1818E+01  0.1859E+01  0.2103E+02  0.2103E+02
      5.149  0.9515E+00  0.9625E+00  0.2110E+02  0.2110E+02
      5.225  0.8927E+00  0.8915E+00  0.2117E+02  0.2117E+02
      5.302  0.9425E+00  0.9455E+00  0.2125E+02  0.2125E+02
      5.378  0.7714E+00  0.7763E+00  0.2131E+02  0.2130E+02
      5.455  0.6608E+00  0.6617E+00  0.2136E+02  0.2136E+02
      5.531  0.7645E+00  0.7617E+00  0.2141E+02  0.2141E+02
      5.608  0.8932E+00  0.8936E+00  0.2148E+02  0.2148E+02
      5.685  0.7671E+00  0.7709E+00  0.2154E+02  0.2154E+02
      5.761  0.6340E+00  0.6371E+00  0.2159E+02  0.2159E+02
      5.838  0.6152E+00  0.6166E+00  0.2164E+02  0.2164E+02
      5.914  0.7188E+00  0.7178E+00  0.2169E+02  0.2169E+02
      5.991  0.7812E+00  0.7788E+00  0.2175E+02  0.2175E+02
      6.067  0.7866E+00  0.7866E+00  0.2181E+02  0.2181E+02
      6.144  0.6868E+00  0.6886E+00  0.2187E+02  0.2187E+02
      6.220  0.6181E+00  0.6200E+00  0.2191E+02  0.2191E+02
      6.297  0.5900E+00  0.5906E+00  0.2196E+02  0.2196E+02
      6.373  0.5349E+00  0.5353E+00  0.2200E+02  0.2200E+02
      6.450  0.4772E+00  0.4784E+00  0.2204E+02  0.2204E+02
      6.527  0.5839E+00  0.5842E+00  0.2208E+02  0.2208E+02
      6.603  0.7561E+00  0.7556E+00  0.2214E+02  0.2214E+02
      6.680  0.8965E+00  0.8967E+00  0.2221E+02  0.2221E+02
      6.756  0.8059E+00  0.8065E+00  0.2227E+02  0.2227E+02
      6.833  0.5251E+00  0.5252E+00  0.2231E+02  0.2231E+02
      6.909  0.4494E+00  0.4493E+00  0.2234E+02  0.2234E+02
      6.986  0.4467E+00  0.4471E+00  0.2238E+02  0.2238E+02
      7.062  0.4178E+00  0.4188E+00  0.2241E+02  0.2241E+02
      7.139  0.4653E+00  0.4659E+00  0.2245E+02  0.2245E+02
      7.216  0.5947E+00  0.5951E+00  0.2249E+02  0.2249E+02
      7.292  0.7900E+00  0.7897E+00  0.2255E+02  0.2255E+02
      7.369  0.7336E+00  0.7329E+00  0.2261E+02  0.2261E+02
      7.445  0.5588E+00  0.5591E+00  0.2265E+02  0.2265E+02
      7.522  0.5744E+00  0.5753E+00  0.2269E+02  0.2269E+02
      7.598  0.5744E+00  0.5750E+00  0.2274E+02  0.2274E+02
      7.675  0.5267E+00  0.5269E+00  0.2278E+02  0.2278E+02
      7.751  0.4679E+00  0.4675E+00  0.2281E+02  0.2282E+02
      7.828  0.3985E+00  0.3979E+00  0.2285E+02  0.2285E+02
      7.905  0.3598E+00  0.3597E+00  0.2287E+02  0.2287E+02
      7.981  0.4160E+00  0.4171E+00  0.2290E+02  0.2291E+02
      8.058  0.5613E+00  0.5627E+00  0.2295E+02  0.2295E+02
      8.134  0.6769E+00  0.6778E+00  0.2300E+02  0.2300E+02
      8.211  0.7716E+00  0.7721E+00  0.2306E+02  0.2306E+02
      8.287  0.7231E+00  0.7215E+00  0.2311E+02  0.2311E+02
      8.364  0.4708E+00  0.4689E+00  0.2315E+02  0.2315E+02
      8.440  0.3166E+00  0.3164E+00  0.2317E+02  0.2317E+02
      8.517  0.3940E+00  0.3957E+00  0.2320E+02  0.2320E+02
      8.593  0.5414E+00  0.5423E+00  0.2325E+02  0.2325E+02
      8.670  0.5057E+00  0.5051E+00  0.2328E+02  0.2329E+02
      8.747  0.3532E+00  0.3520E+00  0.2331E+02  0.2331E+02
      8.823  0.2664E+00  0.2656E+00  0.2333E+02  0.2333E+02
      8.900  0.3191E+00  0.3197E+00  0.2336E+02  0.2336E+02
      8.976  0.4393E+00  0.4403E+00  0.2339E+02  0.2339E+02
      9.053  0.5132E+00  0.5138E+00  0.2343E+02  0.2343E+02
      9.129  0.4901E+00  0.4896E+00  0.2347E+02  0.2347E+02
      9.206  0.4724E+00  0.4726E+00  0.2350E+02  0.2350E+02
      9.282  0.5289E+00  0.5295E+00  0.2354E+02  0.2354E+02
      9.359  0.5043E+00  0.5034E+00  0.2358E+02  0.2358E+02
      9.436  0.3480E+00  0.3466E+00  0.2361E+02  0.2361E+02
      9.512  0.2251E+00  0.2243E+00  0.2363E+02  0.2363E+02
      9.589  0.2186E+00  0.2192E+00  0.2364E+02  0.2364E+02
      9.665  0.3676E+00  0.3691E+00  0.2367E+02  0.2367E+02
      9.742  0.5481E+00  0.5484E+00  0.2371E+02  0.2371E+02
      9.818  0.5411E+00  0.5402E+00  0.2375E+02  0.2376E+02
      9.895  0.4656E+00  0.4655E+00  0.2379E+02  0.2379E+02
      9.971  0.4935E+00  0.4947E+00  0.2383E+02  0.2383E+02
     10.048  0.6364E+00  0.6386E+00  0.2388E+02  0.2388E+02
     10.124  0.8299E+00  0.8313E+00  0.2394E+02  0.2394E+02
     10.201  0.8314E+00  0.8302E+00  0.2400E+02  0.2400E+02
     10.278  0.6513E+00  0.6496E+00  0.2405E+02  0.2405E+02
     10.354  0.5371E+00  0.5371E+00  0.2410E+02  0.2410E+02
     10.431  0.5493E+00  0.5500E+00  0.2414E+02  0.2414E+02
     10.507  0.6207E+00  0.6210E+00  0.2419E+02  0.2419E+02
     10.584  0.5642E+00  0.5634E+00  0.2423E+02  0.2423E+02
     10.660  0.5277E+00  0.5279E+00  0.2427E+02  0.2427E+02
     10.737  0.5149E+00  0.5146E+00  0.2431E+02  0.2431E+02
     10.813  0.5173E+00  0.5183E+00  0.2435E+02  0.2435E+02
     10.890  0.6453E+00  0.6475E+00  0.2440E+02  0.2440E+02
     10.967  0.8148E+00  0.8164E+00  0.2446E+02  0.2446E+02
     11.043  0.7750E+00  0.7720E+00  0.2452E+02  0.2452E+02
     11.120  0.5041E+00  0.5018E+00  0.2456E+02  0.2456E+02
     11.196  0.4125E+00  0.4124E+00  0.2459E+02  0.2459E+02
     11.273  0.4347E+00  0.4358E+00  0.2462E+02  0.2462E+02
     11.349  0.5209E+00  0.5219E+00  0.2466E+02  0.2466E+02
     11.426  0.5734E+00  0.5740E+00  0.2471E+02  0.2471E+02
     11.502  0.6354E+00  0.6361E+00  0.2476E+02  0.2476E+02
     11.579  0.6687E+00  0.6686E+00  0.2481E+02  0.2481E+02
     11.656  0.6121E+00  0.6111E+00  0.2485E+02  0.2485E+02
     11.732  0.5600E+00  0.5600E+00  0.2490E+02  0.2490E+02
     11.809  0.5590E+00  0.5590E+00  0.2494E+02  0.2494E+02
     11.885  0.5319E+00  0.5315E+00  0.2498E+02  0.2498E+02
     11.962  0.4787E+00  0.4778E+00  0.2502E+02  0.2502E+02
     12.038  0.4252E+00  0.4250E+00  0.2505E+02  0.2505E+02
     12.115  0.4584E+00  0.4593E+00  0.2508E+02  0.2508E+02
     12.191  0.5007E+00  0.5005E+00  0.2512E+02  0.2512E+02
     12.268  0.4342E+00  0.4331E+00  0.2516E+02  0.2516E+02
     12.344  0.4223E+00  0.4233E+00  0.2519E+02  0.2519E+02
     12.421  0.5201E+00  0.5214E+00  0.2523E+02  0.2523E+02
     12.498  0.5495E+00  0.5494E+00  0.2527E+02  0.2527E+02
     12.574  0.5219E+00  0.5216E+00  0.2531E+02  0.2531E+02
     12.651  0.5245E+00  0.5247E+00  0.2535E+02  0.2535E+02
     12.727  0.5638E+00  0.5646E+00  0.2539E+02  0.2539E+02
     12.804  0.6256E+00  0.6257E+00  0.2544E+02  0.2544E+02
     12.880  0.5774E+00  0.5759E+00  0.2549E+02  0.2549E+02
     12.957  0.5477E+00  0.5489E+00  0.2553E+02  0.2553E+02
     13.033  0.7241E+00  0.7268E+00  0.2558E+02  0.2558E+02
     13.110  0.7503E+00  0.7482E+00  0.2564E+02  0.2564E+02
     13.187  0.5300E+00  0.5271E+00  0.2568E+02  0.2568E+02
     13.263  0.3984E+00  0.3976E+00  0.2571E+02  0.2571E+02
     13.340  0.3986E+00  0.3993E+00  0.2574E+02  0.2574E+02
     13.416  0.5274E+00  0.5301E+00  0.2578E+02  0.2578E+02
     13.493  0.7246E+00  0.7273E+00  0.2584E+02  0.2584E+02
     13.569  0.8784E+00  0.8803E+00  0.2591E+02  0.2591E+02
     13.646  0.9278E+00  0.9276E+00  0.2598E+02  0.2598E+02
     13.722  0.8606E+00  0.8592E+00  0.2604E+02  0.2604E+02
     13.799  0.7820E+00  0.7818E+00  0.2610E+02  0.2610E+02
     13.876  0.8155E+00  0.8160E+00  0.2616E+02  0.2617E+02
     13.952  0.8525E+00  0.8505E+00  0.2623E+02  0.2623E+02
     14.029  0.7835E+00  0.7824E+00  0.2629E+02  0.2629E+02
     14.105  0.6791E+00  0.6796E+00  0.2634E+02  0.2634E+02
     14.182  0.6108E+00  0.6102E+00  0.2639E+02  0.2639E+02
     14.258  0.5597E+00  0.5585E+00  0.2643E+02  0.2643E+02
     14.335  0.5775E+00  0.5765E+00  0.2648E+02  0.2648E+02
     14.411  0.6830E+00  0.6833E+00  0.2653E+02  0.2653E+02
     14.488  0.7017E+00  0.6989E+00  0.2658E+02  0.2658E+02
     14.564  0.6802E+00  0.6786E+00  0.2663E+02  0.2663E+02
     14.641  0.5970E+00  0.6001E+00  0.2668E+02  0.2668E+02
     14.718  0.6021E+00  0.6069E+00  0.2673E+02  0.2673E+02
     14.794  0.7514E+00  0.7548E+00  0.2678E+02  0.2678E+02
     14.871  0.8212E+00  0.8246E+00  0.2685E+02  0.2685E+02
     14.947  0.9068E+00  0.9103E+00  0.2692E+02  0.2692E+02
     15.024  0.9003E+00  0.8947E+00  0.2698E+02  0.2699E+02
     15.100  0.7094E+00  0.7053E+00  0.2704E+02  0.2704E+02
     15.177  0.6871E+00  0.6884E+00  0.2709E+02  0.2709E+02
     15.253  0.7120E+00  0.7086E+00  0.2715E+02  0.2715E+02
     15.330  0.6612E+00  0.6523E+00  0.2720E+02  0.2720E+02
     15.407  0.6695E+00  0.6563E+00  0.2725E+02  0.2725E+02
     15.483  0.6226E+00  0.6212E+00  0.2730E+02  0.2730E+02
     15.560  0.6551E+00  0.6708E+00  0.2735E+02  0.2735E+02
     15.636  0.7312E+00  0.7439E+00  0.2740E+02  0.2740E+02
     15.713  0.7669E+00  0.7752E+00  0.2746E+02  0.2746E+02
     15.789  0.6868E+00  0.6828E+00  0.2751E+02  0.2752E+02
     15.866  0.4799E+00  0.4719E+00  0.2755E+02  0.2755E+02
     15.942  0.3930E+00  0.3926E+00  0.2758E+02  0.2758E+02
     16.019  0.5369E+00  0.5393E+00  0.2762E+02  0.2762E+02
     16.095  0.7276E+00  0.7281E+00  0.2768E+02  0.2768E+02
     16.172  0.7270E+00  0.7240E+00  0.2773E+02  0.2773E+02
     16.249  0.4337E+00  0.4346E+00  0.2777E+02  0.2777E+02
     16.325  0.2723E+00  0.2848E+00  0.2779E+02  0.2779E+02
     16.402  0.3276E+00  0.3329E+00  0.2781E+02  0.2781E+02
     16.478  0.3245E+00  0.3116E+00  0.2784E+02  0.2784E+02
     16.555  0.2277E+00  0.2191E+00  0.2785E+02  0.2786E+02
     16.631  0.1879E+00  0.1866E+00  0.2787E+02  0.2787E+02
     16.708  0.2695E+00  0.2731E+00  0.2789E+02  0.2789E+02
     16.784  0.3750E+00  0.3762E+00  0.2792E+02  0.2792E+02
     16.861  0.2863E+00  0.2758E+00  0.2794E+02  0.2794E+02
     16.938  0.1609E+00  0.1431E+00  0.2795E+02  0.2795E+02
     17.014  0.1306E+00  0.1257E+00  0.2796E+02  0.2796E+02
     17.091  0.7912E-01  0.9273E-01  0.2797E+02  0.2797E+02
     17.167  0.4683E-01  0.5493E-01  0.2797E+02  0.2797E+02
     17.244  0.5300E-01  0.5518E-01  0.2798E+02  0.2798E+02
     17.320  0.4907E-01  0.4922E-01  0.2798E+02  0.2798E+02
     17.397  0.3643E-01  0.3608E-01  0.2798E+02  0.2798E+02
     17.473  0.2344E-01  0.2289E-01  0.2799E+02  0.2799E+02
     17.550  0.1136E-01  0.1006E-01  0.2799E+02  0.2799E+02
     17.627  0.1301E-01  0.8546E-02  0.2799E+02  0.2799E+02
     17.703  0.3448E-01  0.2383E-01  0.2799E+02  0.2799E+02
     17.780  0.5210E-01  0.4960E-01  0.2799E+02  0.2799E+02
     17.856  0.3055E-01  0.4142E-01  0.2800E+02  0.2800E+02
     17.933  0.9263E-02  0.1528E-01  0.2800E+02  0.2800E+02
     18.009  0.2330E-02  0.4157E-02  0.2800E+02  0.2800E+02
     18.086  0.1201E-02  0.2423E-02  0.2800E+02  0.2800E+02
     18.162  0.2989E-02  0.5946E-02  0.2800E+02  0.2800E+02
     18.239  0.9038E-02  0.1232E-01  0.2800E+02  0.2800E+02
     18.315  0.1291E-01  0.1045E-01  0.2800E+02  0.2800E+02
     18.392  0.7135E-02  0.3896E-02  0.2800E+02  0.2800E+02
     18.469  0.2205E-02  0.1095E-02  0.2800E+02  0.2800E+02
     18.545  0.9864E-03  0.7361E-03  0.2800E+02  0.2800E+02
     18.622  0.1617E-02  0.1591E-02  0.2800E+02  0.2800E+02
     18.698  0.2150E-02  0.2141E-02  0.2800E+02  0.2800E+02
     18.775  0.1180E-02  0.1148E-02  0.2800E+02  0.2800E+02
     18.851  0.3456E-03  0.3325E-03  0.2800E+02  0.2800E+02
     18.928  0.8056E-04  0.7726E-04  0.2800E+02  0.2800E+02
     19.004  0.1772E-04  0.1698E-04  0.2800E+02  0.2800E+02
     19.081  0.0000E+00  0.0000E+00  0.2800E+02  0.2800E+02
     19.158  0.0000E+00  0.0000E+00  0.2800E+02  0.2800E+02
     19.234  0.0000E+00  0.0000E+00  0.2800E+02  0.2800E+02
     19.311  0.0000E+00  0.0000E+00  0.2800E+02  0.2800E+02
     19.387  0.0000E+00  0.0000E+00  0.2800E+02  0.2800E+02
     19.464  0.0000E+00  0.0000E+00  0.2800E+02  0.2800E+02
     19.540  0.0000E+00  0.0000E+00  0.2800E+02  0.2800E+02
     19.617  0.0000E+00  0.0000E+00  0.2800E+02  0.2800E+02
     19.693  0.0000E+00  0.0000E+00  0.2800E+02  0.2800E+02
     19.69340385     -3.27198177  301      6.37528617      1.00000000
     -3.272  0.0000E+00  0.0000E+00  0.0000E+00  0.0000E+00  0.0000E+00  0.0000E+00  0.0000E+00  0.0000E+00  0.0000E+00  0.0000E+00  0.0000E+00  0.0000E+00  0.0000E+00  0.0000E+00  0.0000E+00  0.0000E+00  0.0000E+00  0.0000E+00
     -3.195  0.0000E+00  0.0000E+00  0.0000E+00  0.0000E+00  0.0000E+00  0.0000E+00  0.0000E+00  0.0000E+00  0.0000E+00  0.0000E+00  0.0000E+00  0.0000E+00  0.0000E+00  0.0000E+00  0.0000E+00  0.0000E+00  0.0000E+00  0.0000E+00
     -3.119  0.0000E+00  0.0000E+00  0.0000E+00  0.0000E+00  0.0000E+00  0.0000E+00  0.0000E+00  0.0000E+00  0.0000E+00  0.0000E+00  0.0000E+00  0.0000E+00  0.0000E+00  0.0000E+00  0.0000E+00  0.0000E+00  0.0000E+00  0.0000E+00
     -3.042  0.0000E+00  0.0000E+00  0.0000E+00  0.0000E+00  0.0000E+00  0.0000E+00  0.0000E+00  0.0000E+00  0.0000E+00  0.0000E+00  0.0000E+00  0.0000E+00  0.0000E+00  0.0000E+00  0.0000E+00  0.0000E+00  0.0000E+00  0.0000E+00
     -2.966  0.0000E+00  0.0000E+00  0.0000E+00  0.0000E+00  0.0000E+00  0.0000E+00  0.0000E+00  0.0000E+00  0.0000E+00  0.0000E+00  0.0000E+00  0.0000E+00  0.0000E+00  0.0000E+00  0.0000E+00  0.0000E+00  0.0000E+00  0.0000E+00
     -2.889  0.0000E+00  0.0000E+00  0.0000E+00  0.0000E+00  0.0000E+00  0.0000E+00  0.0000E+00  0.0000E+00  0.0000E+00  0.0000E+00  0.0000E+00  0.0000E+00  0.0000E+00  0.0000E+00  0.0000E+00  0.0000E+00  0.0000E+00  0.0000E+00
     -2.813  0.0000E+00  0.0000E+00  0.0000E+00  0.0000E+00  0.0000E+00  0.0000E+00  0.0000E+00  0.0000E+00  0.0000E+00  0.0000E+00  0.0000E+00  0.0000E+00  0.0000E+00  0.0000E+00  0.0000E+00  0.0000E+00  0.0000E+00  0.0000E+00
     -2.736  0.0000E+00  0.0000E+00  0.0000E+00  0.0000E+00  0.0000E+00  0.0000E+00  0.0000E+00  0.0000E+00  0.0000E+00  0.0000E+00  0.0000E+00  0.0000E+00  0.0000E+00  0.0000E+00  0.0000E+00  0.0000E+00  0.0000E+00  0.0000E+00
     -2.660  0.1348E-06  0.1404E-06  0.1087E-20  0.1464E-19  0.1087E-20  0.1464E-19  0.1087E-20  0.1464E-19  0.4105E-16  0.6854E-16  0.4105E-16  0.6854E-16  0.9112E-19  0.4218E-16  0.4105E-16  0.6854E-16  0.9112E-19  0.4218E-16
     -2.583  0.1466E-05  0.1527E-05  0.1888E-08  0.1966E-08  0.1888E-08  0.1966E-08  0.1888E-08  0.1966E-08  0.1487E-15  0.2483E-15  0.1487E-15  0.2483E-15  0.1488E-10  0.1562E-10  0.1487E-15  0.2483E-15  0.1488E-10  0.1562E-10
     -2.506  0.8160E-05  0.8498E-05  0.1600E-07  0.1667E-07  0.1600E-07  0.1667E-07  0.1600E-07  0.1667E-07  0.9394E-10  0.9797E-10  0.9394E-10  0.9797E-10  0.8989E-10  0.9411E-10  0.9394E-10  0.9797E-10  0.8989E-10  0.9411E-10
     -2.430  0.3742E-04  0.3895E-04  0.7880E-07  0.8205E-07  0.7880E-07  0.8205E-07  0.7880E-07  0.8205E-07  0.5777E-09  0.6015E-09  0.5777E-09  0.6015E-09  0.4771E-09  0.4989E-09  0.5777E-09  0.6015E-09  0.4771E-09  0.4989E-09
     -2.353  0.1676E-03  0.1743E-03  0.3647E-06  0.3796E-06  0.3647E-06  0.3796E-06  0.3647E-06  0.3796E-06  0.2735E-08  0.2848E-08  0.2735E-08  0.2848E-08  0.2480E-08  0.2591E-08  0.2735E-08  0.2848E-08  0.2480E-08  0.2591E-08
     -2.277  0.6908E-03  0.7156E-03  0.1622E-05  0.1686E-05  0.1622E-05  0.1686E-05  0.1622E-05  0.1686E-05  0.1304E-07  0.1358E-07  0.1304E-07  0.1358E-07  0.1091E-07  0.1138E-07  0.1304E-07  0.1358E-07  0.1091E-07  0.1138E-07
     -2.200  0.2264E-02  0.2326E-02  0.6315E-05  0.6526E-05  0.6315E-05  0.6526E-05  0.6315E-05  0.6526E-05  0.5561E-07  0.5774E-07  0.5561E-07  0.5774E-07  0.4237E-07  0.4393E-07  0.5561E-07  0.5774E-07  0.4237E-07  0.4393E-07
     -2.124  0.5102E-02  0.5183E-02  0.1844E-04  0.1887E-04  0.1844E-04  0.1887E-04  0.1844E-04  0.1887E-04  0.2030E-06  0.2092E-06  0.2030E-06  0.2092E-06  0.1313E-06  0.1352E-06  0.2030E-06  0.2092E-06  0.1313E-06  0.1352E-06
     -2.047  0.7574E-02  0.7619E-02  0.3744E-04  0.3801E-04  0.3744E-04  0.3801E-04  0.3744E-04  0.3801E-04  0.5256E-06  0.5365E-06  0.5256E-06  0.5365E-06  0.3676E-06  0.3781E-06  0.5256E-06  0.5365E-06  0.3676E-06  0.3781E-06
     -1.971  0.9128E-02  0.9184E-02  0.6528E-04  0.6631E-04  0.6528E-04  0.6631E-04  0.6528E-04  0.6631E-04  0.1097E-05  0.1120E-05  0.1097E-05  0.1120E-05  0.1050E-05  0.1077E-05  0.1097E-05  0.1120E-05  0.1050E-05  0.1077E-05
     -1.894  0.1236E-01  0.1246E-01  0.1162E-03  0.1177E-03  0.1162E-03  0.1177E-03  0.1162E-03  0.1177E-03  0.2448E-05  0.2500E-05  0.2448E-05  0.2500E-05  0.2208E-05  0.2236E-05  0.2448E-05  0.2500E-05  0.2208E-05  0.2236E-05
     -1.818  0.1444E-01  0.1442E-01  0.1570E-03  0.1574E-03  0.1570E-03  0.1574E-03  0.1570E-03  0.1574E-03  0.4307E-05  0.4349E-05  0.4307E-05  0.4349E-05  0.2859E-05  0.2863E-05  0.4307E-05  0.4349E-05  0.2859E-05  0.2863E-05
     -1.741  0.1237E-01  0.1232E-01  0.1610E-03  0.1614E-03  0.1610E-03  0.1614E-03  0.1610E-03  0.1614E-03  0.5760E-05  0.5814E-05  0.5760E-05  0.5814E-05  0.3319E-05  0.3350E-05  0.5760E-05  0.5814E-05  0.3319E-05  0.3350E-05
     -1.664  0.1375E-01  0.1387E-01  0.2244E-03  0.2273E-03  0.2244E-03  0.2273E-03  0.2244E-03  0.2273E-03  0.9435E-05  0.9560E-05  0.9435E-05  0.9560E-05  0.6516E-05  0.6645E-05  0.9435E-05  0.9560E-05  0.6516E-05  0.6645E-05
     -1.588  0.1835E-01  0.1844E-01  0.3370E-03  0.3394E-03  0.3370E-03  0.3394E-03  0.3370E-03  0.3394E-03  0.1391E-04  0.1397E-04  0.1391E-04  0.1397E-04  0.1335E-04  0.1351E-04  0.1391E-04  0.1397E-04  0.1335E-04  0.1351E-04
     -1.511  0.1932E-01  0.1929E-01  0.3896E-03  0.3900E-03  0.3896E-03  0.3900E-03  0.3896E-03  0.3900E-03  0.1674E-04  0.1682E-04  0.1674E-04  0.1682E-04  0.1851E-04  0.1852E-04  0.1674E-04  0.1682E-04  0.1851E-04  0.1852E-04
     -1.435  0.1780E-01  0.1778E-01  0.4008E-03  0.4017E-03  0.4008E-03  0.4017E-03  0.4008E-03  0.4017E-03  0.2317E-04  0.2340E-04  0.2317E-04  0.2340E-04  0.1770E-04  0.1763E-04  0.2317E-04  0.2340E-04  0.1770E-04  0.1763E-04
     -1.358  0.1923E-01  0.1932E-01  0.4868E-03  0.4903E-03  0.4868E-03  0.4903E-03  0.4868E-03  0.4903E-03  0.3635E-04  0.3670E-04  0.3635E-04  0.3670E-04  0.1944E-04  0.1954E-04  0.3635E-04  0.3670E-04  0.1944E-04  0.1954E-04
     -1.282  0.2093E-01  0.2088E-01  0.5687E-03  0.5683E-03  0.5687E-03  0.5683E-03  0.5687E-03  0.5683E-03  0.4646E-04  0.4640E-04  0.4646E-04  0.4640E-04  0.2457E-04  0.2467E-04  0.4646E-04  0.4640E-04  0.2457E-04  0.2467E-04
     -1.205  0.1721E-01  0.1715E-01  0.5101E-03  0.5099E-03  0.5101E-03  0.5099E-03  0.5101E-03  0.5099E-03  0.4134E-04  0.4122E-04  0.4134E-04  0.4122E-04  0.3228E-04  0.3266E-04  0.4134E-04  0.4122E-04  0.3228E-04  0.3266E-04
     -1.129  0.2005E-01  0.2024E-01  0.6669E-03  0.6746E-03  0.6669E-03  0.6746E-03  0.6669E-03  0.6746E-03  0.5457E-04  0.5520E-04  0.5457E-04  0.5520E-04  0.5813E-04  0.5892E-04  0.5457E-04  0.5520E-04  0.5813E-04  0.5892E-04
     -1.052  0.2624E-01  0.2631E-01  0.9238E-03  0.9276E-03  0.9238E-03  0.9276E-03  0.9238E-03  0.9276E-03  0.8202E-04  0.8248E-04  0.8202E-04  0.8248E-04  0.8302E-04  0.8321E-04  0.8202E-04  0.8248E-04  0.8302E-04  0.8321E-04
     -0.975  0.2615E-01  0.2609E-01  0.9737E-03  0.9733E-03  0.9737E-03  0.9733E-03  0.9737E-03  0.9733E-03  0.1000E-03  0.1003E-03  0.1000E-03  0.1003E-03  0.8403E-04  0.8387E-04  0.1000E-03  0.1003E-03  0.8403E-04  0.8387E-04
     -0.899  0.2570E-01  0.2572E-01  0.1023E-02  0.1026E-02  0.1023E-02  0.1026E-02  0.1023E-02  0.1026E-02  0.1213E-03  0.1218E-03  0.1213E-03  0.1218E-03  0.8993E-04  0.9008E-04  0.1213E-03  0.1218E-03  0.8993E-04  0.9008E-04
     -0.822  0.2506E-01  0.2496E-01  0.1047E-02  0.1044E-02  0.1047E-02  0.1044E-02  0.1047E-02  0.1044E-02  0.1467E-03  0.1467E-03  0.1467E-03  0.1467E-03  0.8745E-04  0.8681E-04  0.1467E-03  0.1467E-03  0.8745E-04  0.8681E-04
     -0.746  0.1942E-01  0.1929E-01  0.8555E-03  0.8516E-03  0.8555E-03  0.8516E-03  0.8555E-03  0.8516E-03  0.1420E-03  0.1414E-03  0.1420E-03  0.1414E-03  0.6795E-04  0.6776E-04  0.1420E-03  0.1414E-03  0.6795E-04  0.6776E-04
     -0.669  0.1944E-01  0.1959E-01  0.9386E-03  0.9476E-03  0.9386E-03  0.9476E-03  0.9386E-03  0.9476E-03  0.1596E-03  0.1605E-03  0.1596E-03  0.1605E-03  0.1007E-03  0.1024E-03  0.1596E-03  0.1605E-03  0.1007E-03  0.1024E-03
     -0.593  0.2800E-01  0.2824E-01  0.1435E-02  0.1449E-02  0.1435E-02  0.1449E-02  0.1435E-02  0.1449E-02  0.2281E-03  0.2296E-03  0.2281E-03  0.2296E-03  0.2013E-03  0.2040E-03  0.2281E-03  0.2296E-03  0.2013E-03  0.2040E-03
     -0.516  0.3347E-01  0.3346E-01  0.1774E-02  0.1775E-02  0.1774E-02  0.1775E-02  0.1774E-02  0.1775E-02  0.2807E-03  0.2806E-03  0.2807E-03  0.2806E-03  0.2869E-03  0.2876E-03  0.2807E-03  0.2806E-03  0.2869E-03  0.2876E-03
     -0.440  0.3017E-01  0.3011E-01  0.1667E-02  0.1666E-02  0.1667E-02  0.1666E-02  0.1667E-02  0.1666E-02  0.3009E-03  0.3016E-03  0.3009E-03  0.3016E-03  0.2816E-03  0.2810E-03  0.3009E-03  0.3016E-03  0.2816E-03  0.2810E-03
     -0.363  0.3105E-01  0.3110E-01  0.1803E-02  0.1807E-02  0.1803E-02  0.1807E-02  0.1803E-02  0.1807E-02  0.3764E-03  0.3768E-03  0.3764E-03  0.3768E-03  0.3029E-03  0.3038E-03  0.3764E-03  0.3768E-03  0.3029E-03  0.3038E-03
     -0.286  0.2828E-01  0.2809E-01  0.1703E-02  0.1694E-02  0.1703E-02  0.1694E-02  0.1703E-02  0.1694E-02  0.3576E-03  0.3552E-03  0.3576E-03  0.3552E-03  0.3112E-03  0.3096E-03  0.3576E-03  0.3552E-03  0.3112E-03  0.3096E-03
     -0.210  0.2245E-01  0.2243E-01  0.1427E-02  0.1428E-02  0.1427E-02  0.1428E-02  0.1427E-02  0.1428E-02  0.3586E-03  0.3606E-03  0.3586E-03  0.3606E-03  0.2416E-03  0.2403E-03  0.3586E-03  0.3606E-03  0.2416E-03  0.2403E-03
     -0.133  0.2740E-01  0.2761E-01  0.1833E-02  0.1848E-02  0.1833E-02  0.1848E-02  0.1833E-02  0.1848E-02  0.5710E-03  0.5760E-03  0.5710E-03  0.5760E-03  0.2729E-03  0.2746E-03  0.5710E-03  0.5760E-03  0.2729E-03  0.2746E-03
     -0.057  0.3329E-01  0.3334E-01  0.2299E-02  0.2305E-02  0.2299E-02  0.2305E-02  0.2299E-02  0.2305E-02  0.7479E-03  0.7479E-03  0.7479E-03  0.7479E-03  0.3846E-03  0.3870E-03  0.7479E-03  0.7479E-03  0.3846E-03  0.3870E-03
      0.020  0.3269E-01  0.3263E-01  0.2342E-02  0.2340E-02  0.2342E-02  0.2340E-02  0.2342E-02  0.2340E-02  0.7339E-03  0.7304E-03  0.7339E-03  0.7304E-03  0.5286E-03  0.5319E-03  0.7339E-03  0.7304E-03  0.5286E-03  0.5319E-03
      0.096  0.3081E-01  0.3081E-01  0.2307E-02  0.2309E-02  0.2307E-02  0.2309E-02  0.2307E-02  0.2309E-02  0.6742E-03  0.6725E-03  0.6742E-03  0.6725E-03  0.7327E-03  0.7366E-03  0.6742E-03  0.6725E-03  0.7327E-03  0.7366E-03
      0.173  0.3047E-01  0.3044E-01  0.2372E-02  0.2371E-02  0.2372E-02  0.2371E-02  0.2372E-02  0.2371E-02  0.7222E-03  0.7223E-03  0.7222E-03  0.7223E-03  0.8516E-03  0.8506E-03  0.7222E-03  0.7223E-03  0.8516E-03  0.8506E-03
      0.249  0.3134E-01  0.3148E-01  0.2549E-02  0.2563E-02  0.2549E-02  0.2563E-02  0.2549E-02  0.2563E-02  0.9062E-03  0.9127E-03  0.9062E-03  0.9127E-03  0.9025E-03  0.9049E-03  0.9062E-03  0.9127E-03  0.9025E-03  0.9049E-03
      0.326  0.3909E-01  0.3922E-01  0.3288E-02  0.3301E-02  0.3288E-02  0.3301E-02  0.3288E-02  0.3301E-02  0.1330E-02  0.1337E-02  0.1330E-02  0.1337E-02  0.1067E-02  0.1067E-02  0.1330E-02  0.1337E-02  0.1067E-02  0.1067E-02
      0.402  0.3823E-01  0.3809E-01  0.3283E-02  0.3273E-02  0.3283E-02  0.3273E-02  0.3283E-02  0.3273E-02  0.1535E-02  0.1533E-02  0.1535E-02  0.1533E-02  0.9450E-03  0.9388E-03  0.1535E-02  0.1533E-02  0.9450E-03  0.9388E-03
      0.479  0.3345E-01  0.3340E-01  0.2966E-02  0.2964E-02  0.2966E-02  0.2964E-02  0.2966E-02  0.2964E-02  0.1567E-02  0.1566E-02  0.1567E-02  0.1566E-02  0.8836E-03  0.8841E-03  0.1567E-02  0.1566E-02  0.8836E-03  0.8841E-03
      0.556  0.3285E-01  0.3280E-01  0.3017E-02  0.3015E-02  0.3017E-02  0.3015E-02  0.3017E-02  0.3015E-02  0.1665E-02  0.1661E-02  0.1665E-02  0.1661E-02  0.1041E-02  0.1042E-02  0.1665E-02  0.1661E-02  0.1041E-02  0.1042E-02