   4   4   1   0
  0.9654724E+01  0.3380129E-09  0.3380129E-09  0.3380129E-09  0.5000000E-15
  1.000000000000000E-004
  CAR 
 unknown system                          
     26.39798693     -1.91730437  301     10.39368995      1.00000000
     -1.917  0.0000E+00  0.0000E+00  0.0000E+00  0.0000E+00
     -1.823  0.0000E+00  0.0000E+00  0.0000E+00  0.0000E+00
     -1.729  0.0000E+00  0.0000E+00  0.0000E+00  0.0000E+00
     -1.634  0.0000E+00  0.0000E+00  0.0000E+00  0.0000E+00
     -1.540  0.0000E+00  0.0000E+00  0.0000E+00  0.0000E+00
     -1.445  0.0000E+00  0.0000E+00  0.0000E+00  0.0000E+00
     -1.351  0.0000E+00  0.0000E+00  0.0000E+00  0.0000E+00
     -1.257  0.0000E+00  0.0000E+00  0.0000E+00  0.0000E+00
     -1.162  0.0000E+00  0.0000E+00  0.0000E+00  0.0000E+00
     -1.068  0.7625E-06  0.7607E-06  0.7197E-07  0.7180E-07
     -0.973  0.9965E-05  0.9941E-05  0.1012E-05  0.1010E-05
     -0.879  0.7417E-04  0.7400E-04  0.8013E-05  0.7994E-05
     -0.785  0.4795E-03  0.4784E-03  0.5327E-04  0.5315E-04
     -0.690  0.2820E-02  0.2814E-02  0.3194E-03  0.3188E-03
     -0.596  0.1221E-01  0.1219E-01  0.1472E-02  0.1470E-02
     -0.502  0.3212E-01  0.3209E-01  0.4504E-02  0.4499E-02
     -0.407  0.4842E-01  0.4841E-01  0.9074E-02  0.9068E-02
     -0.313  0.5373E-01  0.5371E-01  0.1414E-01  0.1414E-01
     -0.218  0.7837E-01  0.7833E-01  0.2154E-01  0.2153E-01
     -0.124  0.9832E-01  0.9832E-01  0.3083E-01  0.3082E-01
     -0.030  0.7315E-01  0.7318E-01  0.3774E-01  0.3773E-01
      0.065  0.8187E-01  0.8182E-01  0.4547E-01  0.4545E-01
      0.159  0.1240E+00  0.1239E+00  0.5717E-01  0.5715E-01
      0.254  0.1302E+00  0.1302E+00  0.6946E-01  0.6945E-01
      0.348  0.1129E+00  0.1130E+00  0.8013E-01  0.8012E-01
      0.442  0.1252E+00  0.1252E+00  0.9196E-01  0.9194E-01
      0.537  0.1509E+00  0.1509E+00  0.1062E+00  0.1062E+00
      0.631  0.1061E+00  0.1062E+00  0.1162E+00  0.1162E+00
      0.725  0.1311E+00  0.1310E+00  0.1286E+00  0.1286E+00
      0.820  0.1916E+00  0.1915E+00  0.1467E+00  0.1467E+00
      0.914  0.1818E+00  0.1818E+00  0.1639E+00  0.1639E+00
      1.009  0.1818E+00  0.1818E+00  0.1811E+00  0.1810E+00
      1.103  0.1871E+00  0.1871E+00  0.1987E+00  0.1987E+00
      1.197  0.1273E+00  0.1273E+00  0.2108E+00  0.2107E+00
      1.292  0.1321E+00  0.1321E+00  0.2233E+00  0.2232E+00
      1.386  0.2202E+00  0.2201E+00  0.2441E+00  0.2440E+00
      1.481  0.2645E+00  0.2645E+00  0.2690E+00  0.2690E+00
      1.575  0.2177E+00  0.2177E+00  0.2896E+00  0.2896E+00
      1.669  0.2491E+00  0.2490E+00  0.3131E+00  0.3131E+00
      1.764  0.2041E+00  0.2042E+00  0.3324E+00  0.3324E+00
      1.858  0.1606E+00  0.1606E+00  0.3476E+00  0.3476E+00
      1.952  0.2438E+00  0.2437E+00  0.3706E+00  0.3706E+00
      2.047  0.2828E+00  0.2828E+00  0.3973E+00  0.3973E+00
      2.141  0.2680E+00  0.2681E+00  0.4227E+00  0.4226E+00
      2.236  0.2635E+00  0.2634E+00  0.4475E+00  0.4475E+00
      2.330  0.2454E+00  0.2454E+00  0.4707E+00  0.4707E+00
      2.424  0.3027E+00  0.3026E+00  0.4993E+00  0.4993E+00
      2.519  0.3642E+00  0.3642E+00  0.5337E+00  0.5337E+00
      2.613  0.3076E+00  0.3077E+00  0.5628E+00  0.5627E+00
      2.708  0.3096E+00  0.3096E+00  0.5920E+00  0.5920E+00
      2.802  0.2961E+00  0.2962E+00  0.6200E+00  0.6199E+00
      2.896  0.3239E+00  0.3238E+00  0.6506E+00  0.6505E+00
      2.991  0.3575E+00  0.3575E+00  0.6843E+00  0.6843E+00
      3.085  0.3823E+00  0.3821E+00  0.7204E+00  0.7204E+00
      3.179  0.5425E+00  0.5424E+00  0.7717E+00  0.7716E+00
      3.274  0.4810E+00  0.4812E+00  0.8171E+00  0.8170E+00
      3.368  0.3803E+00  0.3803E+00  0.8530E+00  0.8530E+00
      3.463  0.4245E+00  0.4244E+00  0.8931E+00  0.8930E+00
      3.557  0.4886E+00  0.4885E+00  0.9393E+00  0.9392E+00
      3.651  0.6398E+00  0.6397E+00  0.9997E+00  0.9996E+00
      3.746  0.7349E+00  0.7348E+00  0.1069E+01  0.1069E+01
      3.840  0.7919E+00  0.7919E+00  0.1144E+01  0.1144E+01
      3.935  0.7781E+00  0.7781E+00  0.1217E+01  0.1217E+01
      4.029  0.1017E+01  0.1016E+01  0.1313E+01  0.1313E+01
      4.123  0.1478E+01  0.1477E+01  0.1453E+01  0.1453E+01
      4.218  0.1777E+01  0.1777E+01  0.1621E+01  0.1621E+01
      4.312  0.1861E+01  0.1861E+01  0.1796E+01  0.1796E+01
      4.406  0.2065E+01  0.2065E+01  0.1991E+01  0.1991E+01
      4.501  0.1984E+01  0.1984E+01  0.2179E+01  0.2179E+01
      4.595  0.2067E+01  0.2067E+01  0.2374E+01  0.2374E+01
      4.690  0.2264E+01  0.2263E+01  0.2588E+01  0.2588E+01
      4.784  0.2434E+01  0.2434E+01  0.2818E+01  0.2818E+01
      4.878  0.2798E+01  0.2798E+01  0.3082E+01  0.3082E+01
      4.973  0.3111E+01  0.3111E+01  0.3376E+01  0.3376E+01
      5.067  0.3531E+01  0.3531E+01  0.3710E+01  0.3709E+01
      5.162  0.3653E+01  0.3654E+01  0.4055E+01  0.4054E+01
      5.256  0.3676E+01  0.3676E+01  0.4402E+01  0.4401E+01
      5.350  0.3477E+01  0.3477E+01  0.4730E+01  0.4730E+01
      5.445  0.3328E+01  0.3328E+01  0.5045E+01  0.5044E+01
      5.539  0.3291E+01  0.3291E+01  0.5356E+01  0.5355E+01
      5.633  0.3161E+01  0.3161E+01  0.5654E+01  0.5654E+01
      5.728  0.3144E+01  0.3144E+01  0.5951E+01  0.5951E+01
      5.822  0.3149E+01  0.3149E+01  0.6249E+01  0.6249E+01
      5.917  0.3249E+01  0.3249E+01  0.6556E+01  0.6556E+01
      6.011  0.3564E+01  0.3564E+01  0.6893E+01  0.6892E+01
      6.105  0.4183E+01  0.4183E+01  0.7288E+01  0.7287E+01
      6.200  0.4457E+01  0.4457E+01  0.7709E+01  0.7708E+01
      6.294  0.4363E+01  0.4363E+01  0.8121E+01  0.8120E+01
      6.389  0.4679E+01  0.4679E+01  0.8562E+01  0.8562E+01
      6.483  0.5160E+01  0.5160E+01  0.9050E+01  0.9050E+01
      6.577  0.5539E+01  0.5539E+01  0.9573E+01  0.9573E+01
      6.672  0.5632E+01  0.5632E+01  0.1011E+02  0.1010E+02
      6.766  0.5897E+01  0.5896E+01  0.1066E+02  0.1066E+02
      6.860  0.6365E+01  0.6365E+01  0.1126E+02  0.1126E+02
      6.955  0.6038E+01  0.6038E+01  0.1183E+02  0.1183E+02
      7.049  0.5030E+01  0.5031E+01  0.1231E+02  0.1231E+02
      7.144  0.4224E+01  0.4224E+01  0.1271E+02  0.1271E+02
      7.238  0.3908E+01  0.3908E+01  0.1308E+02  0.1308E+02
      7.332  0.3818E+01  0.3817E+01  0.1344E+02  0.1344E+02
      7.427  0.4196E+01  0.4195E+01  0.1384E+02  0.1383E+02
      7.521  0.4830E+01  0.4829E+01  0.1429E+02  0.1429E+02
      7.616  0.5159E+01  0.5159E+01  0.1478E+02  0.1478E+02
      7.710  0.5453E+01  0.5453E+01  0.1529E+02  0.1529E+02
      7.804  0.5194E+01  0.5194E+01  0.1578E+02  0.1578E+02
      7.899  0.4820E+01  0.4820E+01  0.1624E+02  0.1624E+02
      7.993  0.4796E+01  0.4796E+01  0.1669E+02  0.1669E+02
      8.087  0.4635E+01  0.4635E+01  0.1713E+02  0.1713E+02
      8.182  0.4692E+01  0.4691E+01  0.1757E+02  0.1757E+02
      8.276  0.5180E+01  0.5180E+01  0.1806E+02  0.1806E+02
      8.371  0.5996E+01  0.5995E+01  0.1863E+02  0.1863E+02
      8.465  0.7432E+01  0.7431E+01  0.1933E+02  0.1933E+02
      8.559  0.7527E+01  0.7528E+01  0.2004E+02  0.2004E+02
      8.654  0.5582E+01  0.5584E+01  0.2057E+02  0.2057E+02
      8.748  0.3404E+01  0.3406E+01  0.2089E+02  0.2089E+02
      8.843  0.1594E+01  0.1596E+01  0.2104E+02  0.2104E+02
      8.937  0.6425E+00  0.6428E+00  0.2110E+02  0.2110E+02
      9.031  0.4609E+00  0.4608E+00  0.2115E+02  0.2115E+02
      9.126  0.7133E+00  0.7130E+00  0.2122E+02  0.2122E+02
      9.220  0.8326E+00  0.8326E+00  0.2130E+02  0.2129E+02
      9.314  0.6547E+00  0.6548E+00  0.2136E+02  0.2136E+02
      9.409  0.5864E+00  0.5864E+00  0.2141E+02  0.2141E+02
      9.503  0.6069E+00  0.6069E+00  0.2147E+02  0.2147E+02
      9.598  0.6409E+00  0.6409E+00  0.2153E+02  0.2153E+02
      9.692  0.6116E+00  0.6116E+00  0.2159E+02  0.2159E+02
      9.786  0.6056E+00  0.6056E+00  0.2165E+02  0.2165E+02
      9.881  0.5350E+00  0.5351E+00  0.2170E+02  0.2170E+02
      9.975  0.4337E+00  0.4337E+00  0.2174E+02  0.2174E+02
     10.070  0.4163E+00  0.4163E+00  0.2178E+02  0.2178E+02
     10.164  0.5400E+00  0.5399E+00  0.2183E+02  0.2183E+02
     10.258  0.7213E+00  0.7210E+00  0.2190E+02  0.2190E+02
     10.353  0.8487E+00  0.8488E+00  0.2198E+02  0.2198E+02
     10.447  0.4955E+00  0.4959E+00  0.2202E+02  0.2202E+02
     10.541  0.3520E+00  0.3520E+00  0.2206E+02  0.2206E+02
     10.636  0.4107E+00  0.4106E+00  0.2209E+02  0.2209E+02
     10.730  0.4454E+00  0.4454E+00  0.2214E+02  0.2214E+02
     10.825  0.4922E+00  0.4920E+00  0.2218E+02  0.2218E+02
     10.919  0.6732E+00  0.6731E+00  0.2225E+02  0.2225E+02
     11.013  0.5891E+00  0.5894E+00  0.2230E+02  0.2230E+02
     11.108  0.3730E+00  0.3731E+00  0.2234E+02  0.2234E+02
     11.202  0.4278E+00  0.4277E+00  0.2238E+02  0.2238E+02
     11.296  0.5288E+00  0.5287E+00  0.2243E+02  0.2243E+02
     11.391  0.5289E+00  0.5289E+00  0.2248E+02  0.2248E+02
     11.485  0.4538E+00  0.4539E+00  0.2252E+02  0.2252E+02
     11.580  0.4583E+00  0.4582E+00  0.2256E+02  0.2256E+02
     11.674  0.5031E+00  0.5032E+00  0.2261E+02  0.2261E+02
     11.768  0.5002E+00  0.5001E+00  0.2266E+02  0.2266E+02
     11.863  0.4948E+00  0.4948E+00  0.2271E+02  0.2271E+02
     11.957  0.5103E+00  0.5103E+00  0.2275E+02  0.2275E+02
     12.052  0.5135E+00  0.5136E+00  0.2280E+02  0.2280E+02
     12.146  0.4035E+00  0.4036E+00  0.2284E+02  0.2284E+02
     12.240  0.2866E+00  0.2866E+00  0.2287E+02  0.2287E+02
     12.335  0.3519E+00  0.3516E+00  0.2290E+02  0.2290E+02
     12.429  0.5541E+00  0.5540E+00  0.2295E+02  0.2295E+02
     12.523  0.4879E+00  0.4880E+00  0.2300E+02  0.2300E+02
     12.618  0.4338E+00  0.4338E+00  0.2304E+02  0.2304E+02
     12.712  0.4223E+00  0.4223E+00  0.2308E+02  0.2308E+02
     12.807  0.4700E+00  0.4699E+00  0.2312E+02  0.2312E+02
     12.901  0.4984E+00  0.4985E+00  0.2317E+02  0.2317E+02
     12.995  0.3716E+00  0.3717E+00  0.2321E+02  0.2321E+02
     13.090  0.3317E+00  0.3317E+00  0.2324E+02  0.2324E+02
     13.184  0.4307E+00  0.4306E+00  0.2328E+02  0.2328E+02
     13.279  0.3893E+00  0.3895E+00  0.2332E+02  0.2332E+02
     13.373  0.2018E+00  0.2019E+00  0.2333E+02  0.2333E+02
     13.467  0.2416E+00  0.2415E+00  0.2336E+02  0.2336E+02
     13.562  0.3075E+00  0.3074E+00  0.2339E+02  0.2339E+02
     13.656  0.3336E+00  0.3335E+00  0.2342E+02  0.2342E+02
     13.750  0.4073E+00  0.4072E+00  0.2346E+02  0.2346E+02
     13.845  0.4662E+00  0.4661E+00  0.2350E+02  0.2350E+02
     13.939  0.4484E+00  0.4484E+00  0.2354E+02  0.2354E+02
     14.034  0.3587E+00  0.3588E+00  0.2358E+02  0.2358E+02
     14.128  0.3563E+00  0.3563E+00  0.2361E+02  0.2361E+02
     14.222  0.2574E+00  0.2575E+00  0.2363E+02  0.2363E+02
     14.317  0.1178E+00  0.1179E+00  0.2365E+02  0.2365E+02
     14.411  0.1251E+00  0.1250E+00  0.2366E+02  0.2366E+02
     14.506  0.2223E+00  0.2222E+00  0.2368E+02  0.2368E+02
     14.600  0.3108E+00  0.3107E+00  0.2371E+02  0.2371E+02
     14.694  0.2542E+00  0.2543E+00  0.2373E+02  0.2373E+02
     14.789  0.1888E+00  0.1888E+00  0.2375E+02  0.2375E+02
     14.883  0.2473E+00  0.2472E+00  0.2377E+02  0.2377E+02
     14.977  0.3237E+00  0.3237E+00  0.2380E+02  0.2380E+02
     15.072  0.2873E+00  0.2874E+00  0.2383E+02  0.2383E+02
     15.166  0.2226E+00  0.2226E+00  0.2385E+02  0.2385E+02
     15.261  0.2120E+00  0.2120E+00  0.2387E+02  0.2387E+02
     15.355  0.3109E+00  0.3108E+00  0.2390E+02  0.2390E+02
     15.449  0.4206E+00  0.4205E+00  0.2394E+02  0.2394E+02
     15.544  0.4396E+00  0.4396E+00  0.2398E+02  0.2398E+02
     15.638  0.4235E+00  0.4235E+00  0.2402E+02  0.2402E+02
     15.733  0.5310E+00  0.5309E+00  0.2407E+02  0.2407E+02
     15.827  0.5846E+00  0.5847E+00  0.2413E+02  0.2413E+02
     15.921  0.5328E+00  0.5329E+00  0.2418E+02  0.2418E+02
     16.016  0.5506E+00  0.5506E+00  0.2423E+02  0.2423E+02
     16.110  0.6343E+00  0.6343E+00  0.2429E+02  0.2429E+02
     16.204  0.6092E+00  0.6093E+00  0.2435E+02  0.2435E+02
     16.299  0.4859E+00  0.4860E+00  0.2439E+02  0.2439E+02
     16.393  0.4900E+00  0.4900E+00  0.2444E+02  0.2444E+02
     16.488  0.5980E+00  0.5979E+00  0.2450E+02  0.2450E+02
     16.582  0.5828E+00  0.5828E+00  0.2455E+02  0.2455E+02
     16.676  0.5498E+00  0.5498E+00  0.2460E+02  0.2460E+02
     16.771  0.5796E+00  0.5796E+00  0.2466E+02  0.2466E+02
     16.865  0.5467E+00  0.5468E+00  0.2471E+02  0.2471E+02
     16.960  0.4571E+00  0.4572E+00  0.2475E+02  0.2475E+02
     17.054  0.4763E+00  0.4762E+00  0.2480E+02  0.2480E+02
     17.148  0.4900E+00  0.4900E+00  0.2484E+02  0.2484E+02
     17.243  0.4535E+00  0.4534E+00  0.2489E+02  0.2489E+02
     17.337  0.5338E+00  0.5338E+00  0.2494E+02  0.2494E+02
     17.431  0.4323E+00  0.4325E+00  0.2498E+02  0.2498E+02
     17.526  0.3795E+00  0.3794E+00  0.2501E+02  0.2501E+02
     17.620  0.4854E+00  0.4854E+00  0.2506E+02  0.2506E+02
     17.715  0.5131E+00  0.5130E+00  0.2511E+02  0.2511E+02
     17.809  0.4877E+00  0.4878E+00  0.2515E+02  0.2515E+02
     17.903  0.3152E+00  0.3153E+00  0.2518E+02  0.2518E+02
     17.998  0.3090E+00  0.3089E+00  0.2521E+02  0.2521E+02
     18.092  0.4380E+00  0.4379E+00  0.2526E+02  0.2526E+02
     18.187  0.4849E+00  0.4850E+00  0.2530E+02  0.2530E+02
     18.281  0.4309E+00  0.4309E+00  0.2534E+02  0.2534E+02
     18.375  0.4794E+00  0.4793E+00  0.2539E+02  0.2539E+02
     18.470  0.5170E+00  0.5170E+00  0.2544E+02  0.2544E+02
     18.564  0.4547E+00  0.4548E+00  0.2548E+02  0.2548E+02
     18.658  0.3288E+00  0.3288E+00  0.2551E+02  0.2551E+02
     18.753  0.3790E+00  0.3789E+00  0.2555E+02  0.2555E+02
     18.847  0.4427E+00  0.4427E+00  0.2559E+02  0.2559E+02
     18.942  0.4159E+00  0.4160E+00  0.2563E+02  0.2563E+02
     19.036  0.3859E+00  0.3858E+00  0.2566E+02  0.2566E+02
     19.130  0.5203E+00  0.5202E+00  0.2571E+02  0.2571E+02
     19.225  0.4675E+00  0.4677E+00  0.2576E+02  0.2576E+02
     19.319  0.3593E+00  0.3594E+00  0.2579E+02  0.2579E+02
     19.414  0.4802E+00  0.4800E+00  0.2584E+02  0.2584E+02
     19.508  0.6512E+00  0.6511E+00  0.2590E+02  0.2590E+02
     19.602  0.6102E+00  0.6103E+00  0.2595E+02  0.2595E+02
     19.697  0.6363E+00  0.6362E+00  0.2602E+02  0.2601E+02
     19.791  0.7857E+00  0.7856E+00  0.2609E+02  0.2609E+02
     19.885  0.8208E+00  0.8208E+00  0.2617E+02  0.2617E+02
     19.980  0.6433E+00  0.6436E+00  0.2623E+02  0.2623E+02
     20.074  0.4254E+00  0.4255E+00  0.2627E+02  0.2627E+02
     20.169  0.3952E+00  0.3952E+00  0.2631E+02  0.2631E+02
     20.263  0.4398E+00  0.4397E+00  0.2635E+02  0.2635E+02
     20.357  0.6399E+00  0.6397E+00  0.2641E+02  0.2641E+02
     20.452  0.7652E+00  0.7653E+00  0.2648E+02  0.2648E+02
     20.546  0.6318E+00  0.6320E+00  0.2654E+02  0.2654E+02
     20.641  0.5898E+00  0.5897E+00  0.2659E+02  0.2659E+02
     20.735  0.6025E+00  0.6025E+00  0.2665E+02  0.2665E+02
     20.829  0.5990E+00  0.5989E+00  0.2671E+02  0.2671E+02
     20.924  0.6911E+00  0.6911E+00  0.2677E+02  0.2677E+02
     21.018  0.8341E+00  0.8340E+00  0.2685E+02  0.2685E+02
     21.112  0.8821E+00  0.8820E+00  0.2694E+02  0.2694E+02
     21.207  0.7382E+00  0.7386E+00  0.2701E+02  0.2701E+02
     21.301  0.4730E+00  0.4732E+00  0.2705E+02  0.2705E+02
     21.396  0.4068E+00  0.4069E+00  0.2709E+02  0.2709E+02
     21.490  0.4713E+00  0.4715E+00  0.2713E+02  0.2713E+02
     21.584  0.6020E+00  0.6017E+00  0.2719E+02  0.2719E+02
     21.679  0.6384E+00  0.6382E+00  0.2725E+02  0.2725E+02
     21.773  0.6794E+00  0.6793E+00  0.2731E+02  0.2731E+02
     21.868  0.6279E+00  0.6278E+00  0.2737E+02  0.2737E+02
     21.962  0.4927E+00  0.4915E+00  0.2742E+02  0.2742E+02
     22.056  0.5012E+00  0.4945E+00  0.2747E+02  0.2747E+02
     22.151  0.6084E+00  0.5923E+00  0.2753E+02  0.2752E+02
     22.245  0.6232E+00  0.6302E+00  0.2758E+02  0.2758E+02
     22.339  0.5408E+00  0.5528E+00  0.2764E+02  0.2763E+02
     22.434  0.5800E+00  0.5795E+00  0.2769E+02  0.2769E+02
     22.528  0.5369E+00  0.5327E+00  0.2774E+02  0.2774E+02
     22.623  0.3704E+00  0.3688E+00  0.2778E+02  0.2777E+02
     22.717  0.2487E+00  0.2464E+00  0.2780E+02  0.2780E+02
     22.811  0.2156E+00  0.2241E+00  0.2782E+02  0.2782E+02
     22.906  0.1977E+00  0.2047E+00  0.2784E+02  0.2784E+02
     23.000  0.2352E+00  0.2468E+00  0.2786E+02  0.2786E+02
     23.095  0.2939E+00  0.3250E+00  0.2789E+02  0.2789E+02
     23.189  0.2820E+00  0.3013E+00  0.2792E+02  0.2792E+02
     23.283  0.1890E+00  0.1877E+00  0.2793E+02  0.2794E+02
     23.378  0.1501E+00  0.1073E+00  0.2795E+02  0.2795E+02
     23.472  0.1446E+00  0.1081E+00  0.2796E+02  0.2796E+02
     23.566  0.1362E+00  0.1401E+00  0.2797E+02  0.2797E+02
     23.661  0.6273E-01  0.7303E-01  0.2798E+02  0.2798E+02
     23.755  0.2150E-01  0.2411E-01  0.2798E+02  0.2798E+02
     23.850  0.5189E-02  0.5571E-02  0.2798E+02  0.2798E+02
     23.944  0.3691E-02  0.3702E-02  0.2798E+02  0.2798E+02
     24.038  0.1242E-01  0.1250E-01  0.2798E+02  0.2798E+02
     24.133  0.1608E-01  0.1666E-01  0.2799E+02  0.2799E+02
     24.227  0.7537E-02  0.1111E-01  0.2799E+02  0.2799E+02
     24.322  0.1254E-01  0.2744E-01  0.2799E+02  0.2799E+02
     24.416  0.4137E-01  0.5139E-01  0.2799E+02  0.2799E+02
     24.510  0.4679E-01  0.2765E-01  0.2800E+02  0.2800E+02
     24.605  0.2326E-01  0.1383E-01  0.2800E+02  0.2800E+02
     24.699  0.1418E-01  0.1306E-01  0.2800E+02  0.2800E+02
     24.793  0.4450E-02  0.4701E-02  0.2800E+02  0.2800E+02
     24.888  0.7849E-03  0.9283E-03  0.2800E+02  0.2800E+02
     24.982  0.4020E-03  0.4249E-03  0.2800E+02  0.2800E+02
     25.077  0.1274E-02  0.1273E-02  0.2800E+02  0.2800E+02
     25.171  0.2092E-02  0.2093E-02  0.2800E+02  0.2800E+02
     25.265  0.9044E-03  0.9051E-03  0.2800E+02  0.2800E+02
     25.360  0.1769E-03  0.1771E-03  0.2800E+02  0.2800E+02
     25.454  0.2797E-04  0.2800E-04  0.2800E+02  0.2800E+02
     25.549  0.0000E+00  0.0000E+00  0.2800E+02  0.2800E+02
     25.643  0.0000E+00  0.0000E+00  0.2800E+02  0.2800E+02
     25.737  0.0000E+00  0.0000E+00  0.2800E+02  0.2800E+02
     25.832  0.0000E+00  0.0000E+00  0.2800E+02  0.2800E+02
     25.926  0.0000E+00  0.0000E+00  0.2800E+02  0.2800E+02
     26.020  0.0000E+00  0.0000E+00  0.2800E+02  0.2800E+02
     26.115  0.0000E+00  0.0000E+00  0.2800E+02  0.2800E+02
     26.209  0.0000E+00  0.0000E+00  0.2800E+02  0.2800E+02
     26.304  0.0000E+00  0.0000E+00  0.2800E+02  0.2800E+02
     26.398  0.0000E+00  0.0000E+00  0.2800E+02  0.2800E+02
     26.39798693     -1.91730437  301     10.39368995      1.00000000
     -1.917  0.0000E+00  0.0000E+00  0.0000E+00  0.0000E+00  0.0000E+00  0.0000E+00  0.0000E+00  0.0000E+00  0.0000E+00  0.0000E+00  0.0000E+00  0.0000E+00  0.0000E+00  0.0000E+00  0.0000E+00  0.0000E+00  0.0000E+00  0.0000E+00
     -1.823  0.0000E+00  0.0000E+00  0.0000E+00  0.0000E+00  0.0000E+00  0.0000E+00  0.0000E+00  0.0000E+00  0.0000E+00  0.0000E+00  0.0000E+00  0.0000E+00  0.0000E+00  0.0000E+00  0.0000E+00  0.0000E+00  0.0000E+00  0.0000E+00
     -1.729  0.0000E+00  0.0000E+00  0.0000E+00  0.0000E+00  0.0000E+00  0.0000E+00  0.0000E+00  0.0000E+00  0.0000E+00  0.0000E+00  0.0000E+00  0.0000E+00  0.0000E+00  0.0000E+00  0.0000E+00  0.0000E+00  0.0000E+00  0.0000E+00
     -1.634  0.0000E+00  0.0000E+00  0.0000E+00  0.0000E+00  0.0000E+00  0.0000E+00  0.0000E+00  0.0000E+00  0.0000E+00  0.0000E+00  0.0000E+00  0.0000E+00  0.0000E+00  0.0000E+00  0.0000E+00  0.0000E+00  0.0000E+00  0.0000E+00
     -1.540  0.0000E+00  0.0000E+00  0.0000E+00  0.0000E+00  0.0000E+00  0.0000E+00  0.0000E+00  0.0000E+00  0.0000E+00  0.0000E+00  0.0000E+00  0.0000E+00  0.0000E+00  0.0000E+00  0.0000E+00  0.0000E+00  0.0000E+00  0.0000E+00
     -1.445  0.0000E+00  0.0000E+00  0.0000E+00  0.0000E+00  0.0000E+00  0.0000E+00  0.0000E+00  0.0000E+00  0.0000E+00  0.0000E+00  0.0000E+00  0.0000E+00  0.0000E+00  0.0000E+00  0.0000E+00  0.0000E+00  0.0000E+00  0.0000E+00
     -1.351  0.0000E+00  0.0000E+00  0.0000E+00  0.0000E+00  0.0000E+00  0.0000E+00  0.0000E+00  0.0000E+00  0.0000E+00  0.0000E+00  0.0000E+00  0.0000E+00  0.0000E+00  0.0000E+00  0.0000E+00  0.0000E+00  0.0000E+00  0.0000E+00
     -1.257  0.0000E+00  0.0000E+00  0.0000E+00  0.0000E+00  0.0000E+00  0.0000E+00  0.0000E+00  0.0000E+00  0.0000E+00  0.0000E+00  0.0000E+00  0.0000E+00  0.0000E+00  0.0000E+00  0.0000E+00  0.0000E+00  0.0000E+00  0.0000E+00
     -1.162  0.0000E+00  0.0000E+00  0.0000E+00  0.0000E+00  0.0000E+00  0.0000E+00  0.0000E+00  0.0000E+00  0.0000E+00  0.0000E+00  0.0000E+00  0.0000E+00  0.0000E+00  0.0000E+00  0.0000E+00  0.0000E+00  0.0000E+00  0.0000E+00
     -1.068  0.1385E-06  0.1382E-06  0.3983E-21  0.1012E-21  0.3983E-21  0.1012E-21  0.3983E-21  0.1012E-21  0.5975E-16  0.4274E-16  0.5975E-16  0.4274E-16  0.2534E-17  0.2680E-16  0.5975E-16  0.4274E-16  0.2534E-17  0.2680E-16
     -0.973  0.1803E-05  0.1798E-05  0.2476E-08  0.2471E-08  0.2476E-08  0.2471E-08  0.2476E-08  0.2471E-08  0.3348E-15  0.2502E-15  0.3348E-15  0.2502E-15  0.1738E-10  0.1736E-10  0.3348E-15  0.2502E-15  0.1738E-10  0.1736E-10
     -0.879  0.1339E-04  0.1336E-04  0.2620E-07  0.2614E-07  0.2620E-07  0.2614E-07  0.2620E-07  0.2614E-07  0.1104E-09  0.1101E-09  0.1104E-09  0.1101E-09  0.1408E-09  0.1406E-09  0.1104E-09  0.1101E-09  0.1408E-09  0.1406E-09
     -0.785  0.8658E-04  0.8638E-04  0.1783E-06  0.1779E-06  0.1783E-06  0.1779E-06  0.1783E-06  0.1779E-06  0.9069E-09  0.9051E-09  0.9069E-09  0.9051E-09  0.9695E-09  0.9684E-09  0.9069E-09  0.9051E-09  0.9695E-09  0.9684E-09
     -0.690  0.5088E-03  0.5078E-03  0.1142E-05  0.1139E-05  0.1142E-05  0.1139E-05  0.1142E-05  0.1139E-05  0.5936E-08  0.5923E-08  0.5936E-08  0.5923E-08  0.6447E-08  0.6439E-08  0.5936E-08  0.5923E-08  0.6447E-08  0.6439E-08
     -0.596  0.2200E-02  0.2196E-02  0.6350E-05  0.6338E-05  0.6350E-05  0.6338E-05  0.6350E-05  0.6338E-05  0.3791E-07  0.3783E-07  0.3791E-07  0.3783E-07  0.3484E-07  0.3481E-07  0.3791E-07  0.3783E-07  0.3484E-07  0.3481E-07
     -0.502  0.5765E-02  0.5760E-02  0.2319E-04  0.2317E-04  0.2319E-04  0.2317E-04  0.2319E-04  0.2317E-04  0.1924E-06  0.1921E-06  0.1924E-06  0.1921E-06  0.1203E-06  0.1203E-06  0.1924E-06  0.1921E-06  0.1203E-06  0.1203E-06
     -0.407  0.8649E-02  0.8647E-02  0.4899E-04  0.4896E-04  0.4899E-04  0.4896E-04  0.4899E-04  0.4896E-04  0.5641E-06  0.5640E-06  0.5641E-06  0.5640E-06  0.3250E-06  0.3249E-06  0.5641E-06  0.5640E-06  0.3250E-06  0.3249E-06
     -0.313  0.9516E-02  0.9513E-02  0.8108E-04  0.8102E-04  0.8108E-04  0.8102E-04  0.8108E-04  0.8102E-04  0.1085E-05  0.1084E-05  0.1085E-05  0.1084E-05  0.1119E-05  0.1119E-05  0.1085E-05  0.1084E-05  0.1119E-05  0.1119E-05
     -0.218  0.1375E-01  0.1374E-01  0.1606E-03  0.1604E-03  0.1606E-03  0.1604E-03  0.1606E-03  0.1604E-03  0.2717E-05  0.2712E-05  0.2717E-05  0.2712E-05  0.2846E-05  0.2845E-05  0.2717E-05  0.2712E-05  0.2846E-05  0.2845E-05
     -0.124  0.1716E-01  0.1716E-01  0.2302E-03  0.2302E-03  0.2302E-03  0.2302E-03  0.2302E-03  0.2302E-03  0.5333E-05  0.5326E-05  0.5333E-05  0.5326E-05  0.3610E-05  0.3609E-05  0.5333E-05  0.5326E-05  0.3610E-05  0.3609E-05
     -0.030  0.1268E-01  0.1268E-01  0.2002E-03  0.2002E-03  0.2002E-03  0.2002E-03  0.2002E-03  0.2002E-03  0.6168E-05  0.6162E-05  0.6168E-05  0.6162E-05  0.3236E-05  0.3235E-05  0.6168E-05  0.6162E-05  0.3236E-05  0.3235E-05
      0.065  0.1399E-01  0.1399E-01  0.2849E-03  0.2847E-03  0.2849E-03  0.2847E-03  0.2849E-03  0.2847E-03  0.1077E-04  0.1076E-04  0.1077E-04  0.1076E-04  0.6685E-05  0.6677E-05  0.1077E-04  0.1076E-04  0.6685E-05  0.6677E-05
      0.159  0.2103E-01  0.2102E-01  0.4793E-03  0.4791E-03  0.4793E-03  0.4791E-03  0.4793E-03  0.4791E-03  0.1717E-04  0.1717E-04  0.1717E-04  0.1717E-04  0.1643E-04  0.1642E-04  0.1717E-04  0.1717E-04  0.1643E-04  0.1642E-04
      0.254  0.2194E-01  0.2195E-01  0.5497E-03  0.5497E-03  0.5497E-03  0.5497E-03  0.5497E-03  0.5497E-03  0.1882E-04  0.1882E-04  0.1882E-04  0.1882E-04  0.2463E-04  0.2463E-04  0.1882E-04  0.1882E-04  0.2463E-04  0.2463E-04
      0.348  0.1886E-01  0.1886E-01  0.5267E-03  0.5267E-03  0.5267E-03  0.5267E-03  0.5267E-03  0.5267E-03  0.2543E-04  0.2542E-04  0.2543E-04  0.2542E-04  0.2110E-04  0.2111E-04  0.2543E-04  0.2542E-04  0.2110E-04  0.2111E-04
      0.442  0.2066E-01  0.2066E-01  0.6562E-03  0.6558E-03  0.6562E-03  0.6558E-03  0.6562E-03  0.6558E-03  0.4276E-04  0.4272E-04  0.4276E-04  0.4272E-04  0.2230E-04  0.2229E-04  0.4276E-04  0.4272E-04  0.2230E-04  0.2229E-04
      0.537  0.2474E-01  0.2474E-01  0.8393E-03  0.8393E-03  0.8393E-03  0.8393E-03  0.8393E-03  0.8393E-03  0.6026E-04  0.6025E-04  0.6026E-04  0.6025E-04  0.2961E-04  0.2960E-04  0.6026E-04  0.6025E-04  0.2961E-04  0.2960E-04
      0.631  0.1725E-01  0.1725E-01  0.6319E-03  0.6320E-03  0.6319E-03  0.6320E-03  0.6319E-03  0.6320E-03  0.4418E-04  0.4419E-04  0.4418E-04  0.4419E-04  0.3390E-04  0.3388E-04  0.4418E-04  0.4419E-04  0.3390E-04  0.3388E-04
      0.725  0.2096E-01  0.2094E-01  0.8762E-03  0.8755E-03  0.8762E-03  0.8755E-03  0.8762E-03  0.8755E-03  0.6030E-04  0.6024E-04  0.6030E-04  0.6024E-04  0.7073E-04  0.7067E-04  0.6030E-04  0.6024E-04  0.7073E-04  0.7067E-04
      0.820  0.3041E-01  0.3041E-01  0.1338E-02  0.1338E-02  0.1338E-02  0.1338E-02  0.1338E-02  0.1338E-02  0.9921E-04  0.9918E-04  0.9921E-04  0.9918E-04  0.1089E-03  0.1089E-03  0.9921E-04  0.9918E-04  0.1089E-03  0.1089E-03
      0.914  0.2862E-01  0.2862E-01  0.1335E-02  0.1335E-02  0.1335E-02  0.1335E-02  0.1335E-02  0.1335E-02  0.1164E-03  0.1164E-03  0.1164E-03  0.1164E-03  0.1002E-03  0.1002E-03  0.1164E-03  0.1164E-03  0.1002E-03  0.1002E-03
      1.009  0.2828E-01  0.2828E-01  0.1420E-02  0.1420E-02  0.1420E-02  0.1420E-02  0.1420E-02  0.1420E-02  0.1414E-03  0.1413E-03  0.1414E-03  0.1413E-03  0.1117E-03  0.1117E-03  0.1414E-03  0.1413E-03  0.1117E-03  0.1117E-03
      1.103  0.2886E-01  0.2886E-01  0.1517E-02  0.1517E-02  0.1517E-02  0.1517E-02  0.1517E-02  0.1517E-02  0.1831E-03  0.1831E-03  0.1831E-03  0.1831E-03  0.1108E-03  0.1108E-03  0.1831E-03  0.1831E-03  0.1108E-03  0.1108E-03
      1.197  0.1945E-01  0.1946E-01  0.1071E-02  0.1072E-02  0.1071E-02  0.1072E-02  0.1071E-02  0.1072E-02  0.1600E-03  0.1601E-03  0.1600E-03  0.1601E-03  0.6763E-04  0.6765E-04  0.1600E-03  0.1601E-03  0.6763E-04  0.6765E-04
      1.292  0.1980E-01  0.1979E-01  0.1207E-02  0.1207E-02  0.1207E-02  0.1207E-02  0.1207E-02  0.1207E-02  0.1773E-03  0.1773E-03  0.1773E-03  0.1773E-03  0.1123E-03  0.1122E-03  0.1773E-03  0.1773E-03  0.1123E-03  0.1122E-03
      1.386  0.3262E-01  0.3260E-01  0.2110E-02  0.2108E-02  0.2110E-02  0.2108E-02  0.2110E-02  0.2108E-02  0.2767E-03  0.2765E-03  0.2767E-03  0.2765E-03  0.2649E-03  0.2647E-03  0.2767E-03  0.2765E-03  0.2649E-03  0.2647E-03
      1.481  0.3887E-01  0.3888E-01  0.2596E-02  0.2596E-02  0.2596E-02  0.2596E-02  0.2596E-02  0.2596E-02  0.3400E-03  0.3400E-03  0.3400E-03  0.3400E-03  0.3784E-03  0.3784E-03  0.3400E-03  0.3400E-03  0.3784E-03  0.3784E-03
      1.575  0.3159E-01  0.3159E-01  0.2208E-02  0.2208E-02  0.2208E-02  0.2208E-02  0.2208E-02  0.2208E-02  0.3499E-03  0.3498E-03  0.3499E-03  0.3498E-03  0.3275E-03  0.3275E-03  0.3499E-03  0.3498E-03  0.3275E-03  0.3275E-03
      1.669  0.3566E-01  0.3566E-01  0.2623E-02  0.2622E-02  0.2623E-02  0.2622E-02  0.2623E-02  0.2622E-02  0.4748E-03  0.4749E-03  0.4748E-03  0.4749E-03  0.3857E-03  0.3855E-03  0.4748E-03  0.4749E-03  0.3857E-03  0.3855E-03
      1.764  0.2897E-01  0.2899E-01  0.2212E-02  0.2213E-02  0.2212E-02  0.2213E-02  0.2212E-02  0.2213E-02  0.3743E-03  0.3745E-03  0.3743E-03  0.3745E-03  0.3728E-03  0.3729E-03  0.3743E-03  0.3745E-03  0.3728E-03  0.3729E-03
      1.858  0.2237E-01  0.2236E-01  0.1819E-02  0.1818E-02  0.1819E-02  0.1818E-02  0.1819E-02  0.1818E-02  0.4081E-03  0.4078E-03  0.4081E-03  0.4078E-03  0.2502E-03  0.2502E-03  0.4081E-03  0.4078E-03  0.2502E-03  0.2502E-03
      1.952  0.3344E-01  0.3343E-01  0.2832E-02  0.2831E-02  0.2832E-02  0.2831E-02  0.2832E-02  0.2831E-02  0.7729E-03  0.7727E-03  0.7729E-03  0.7727E-03  0.3431E-03  0.3430E-03  0.7729E-03  0.7727E-03  0.3431E-03  0.3430E-03
      2.047  0.3834E-01  0.3834E-01  0.3366E-02  0.3366E-02  0.3366E-02  0.3366E-02  0.3366E-02  0.3366E-02  0.9036E-03  0.9038E-03  0.9036E-03  0.9038E-03  0.5149E-03  0.5148E-03  0.9036E-03  0.9038E-03  0.5149E-03  0.5148E-03
      2.141  0.3573E-01  0.3574E-01  0.3271E-02  0.3271E-02  0.3271E-02  0.3271E-02  0.3271E-02  0.3271E-02  0.8145E-03  0.8149E-03  0.8145E-03  0.8149E-03  0.7497E-03  0.7496E-03  0.8145E-03  0.8149E-03  0.7497E-03  0.7496E-03
      2.236  0.3442E-01  0.3442E-01  0.3297E-02  0.3297E-02  0.3297E-02  0.3297E-02  0.3297E-02  0.3297E-02  0.7835E-03  0.7835E-03  0.7835E-03  0.7835E-03  0.1024E-02  0.1024E-02  0.7835E-03  0.7835E-03  0.1024E-02  0.1024E-02
      2.330  0.3152E-01  0.3152E-01  0.3131E-02  0.3131E-02  0.3131E-02  0.3131E-02  0.3131E-02  0.3131E-02  0.8614E-03  0.8614E-03  0.8614E-03  0.8614E-03  0.9847E-03  0.9850E-03  0.8614E-03  0.8614E-03  0.9847E-03  0.9850E-03
      2.424  0.3813E-01  0.3811E-01  0.3980E-02  0.3978E-02  0.3980E-02  0.3978E-02  0.3980E-02  0.3978E-02  0.1248E-02  0.1247E-02  0.1248E-02  0.1247E-02  0.1201E-02  0.1201E-02  0.1248E-02  0.1247E-02  0.1201E-02  0.1201E-02
      2.519  0.4544E-01  0.4544E-01  0.4876E-02  0.4876E-02  0.4876E-02  0.4876E-02  0.4876E-02  0.4876E-02  0.1721E-02  0.1721E-02  0.1721E-02  0.1721E-02  0.1242E-02  0.1242E-02  0.1721E-02  0.1721E-02  0.1242E-02  0.1242E-02
      2.613  0.3774E-01  0.3775E-01  0.4149E-02  0.4149E-02  0.4149E-02  0.4149E-02  0.4149E-02  0.4149E-02  0.1753E-02  0.1753E-02  0.1753E-02  0.1753E-02  0.9590E-03  0.9590E-03  0.1753E-02  0.1753E-02  0.9590E-03  0.9590E-03
      2.708  0.3709E-01  0.3709E-01  0.4242E-02  0.4242E-02  0.4242E-02  0.4242E-02  0.4242E-02  0.4242E-02  0.1919E-02  0.1919E-02  0.1919E-02  0.1919E-02  0.1162E-02  0.1161E-02  0.1919E-02  0.1919E-02  0.1162E-02  0.1161E-02
      2.802  0.3464E-01  0.3464E-01  0.4087E-02  0.4087E-02  0.4087E-02  0.4087E-02  0.4087E-02  0.4087E-02  0.1953E-02  0.1953E-02  0.1953E-02  0.1953E-02  0.1388E-02  0.1388E-02  0.1953E-02  0.1953E-02  0.1388E-02  0.1388E-02