   4   4   1   0
  0.1389501E+02  0.3816275E-09  0.3816275E-09  0.3816275E-09  0.5000000E-15
  1.000000000000000E-004
  CAR 
 unknown system                          
     18.61839123     -3.45262082  301      5.75495607      1.00000000
     -3.453  0.0000E+00  0.0000E+00  0.0000E+00  0.0000E+00
     -3.379  0.0000E+00  0.0000E+00  0.0000E+00  0.0000E+00
     -3.305  0.0000E+00  0.0000E+00  0.0000E+00  0.0000E+00
     -3.232  0.0000E+00  0.0000E+00  0.0000E+00  0.0000E+00
     -3.158  0.0000E+00  0.0000E+00  0.0000E+00  0.0000E+00
     -3.085  0.0000E+00  0.0000E+00  0.0000E+00  0.0000E+00
     -3.011  0.0000E+00  0.0000E+00  0.0000E+00  0.0000E+00
     -2.938  0.0000E+00  0.0000E+00  0.0000E+00  0.0000E+00
     -2.864  0.1531E-05  0.1547E-05  0.1126E-06  0.1138E-06
     -2.790  0.2241E-04  0.2265E-04  0.1761E-05  0.1780E-05
     -2.717  0.8518E-04  0.8611E-04  0.8027E-05  0.8116E-05
     -2.643  0.3677E-03  0.3717E-03  0.3508E-04  0.3546E-04
     -2.570  0.1569E-02  0.1585E-02  0.1505E-03  0.1521E-03
     -2.496  0.6072E-02  0.6130E-02  0.5972E-03  0.6031E-03
     -2.423  0.1885E-01  0.1898E-01  0.1984E-02  0.2000E-02
     -2.349  0.4106E-01  0.4124E-01  0.5005E-02  0.5034E-02
     -2.276  0.6059E-01  0.6070E-01  0.9463E-02  0.9499E-02
     -2.202  0.7442E-01  0.7455E-01  0.1494E-01  0.1498E-01
     -2.128  0.1004E+00  0.1006E+00  0.2232E-01  0.2239E-01
     -2.055  0.1160E+00  0.1159E+00  0.3085E-01  0.3091E-01
     -1.981  0.1023E+00  0.1022E+00  0.3839E-01  0.3844E-01
     -1.908  0.1157E+00  0.1159E+00  0.4690E-01  0.4698E-01
     -1.834  0.1520E+00  0.1522E+00  0.5809E-01  0.5818E-01
     -1.761  0.1606E+00  0.1605E+00  0.6991E-01  0.6999E-01
     -1.687  0.1509E+00  0.1508E+00  0.8101E-01  0.8109E-01
     -1.613  0.1642E+00  0.1644E+00  0.9309E-01  0.9319E-01
     -1.540  0.1768E+00  0.1767E+00  0.1061E+00  0.1062E+00
     -1.466  0.1504E+00  0.1503E+00  0.1172E+00  0.1173E+00
     -1.393  0.1769E+00  0.1774E+00  0.1302E+00  0.1303E+00
     -1.319  0.2282E+00  0.2284E+00  0.1470E+00  0.1471E+00
     -1.246  0.2303E+00  0.2302E+00  0.1640E+00  0.1641E+00
     -1.172  0.2287E+00  0.2288E+00  0.1808E+00  0.1809E+00
     -1.098  0.2225E+00  0.2222E+00  0.1972E+00  0.1973E+00
     -1.025  0.1774E+00  0.1771E+00  0.2102E+00  0.2103E+00
     -0.951  0.1813E+00  0.1817E+00  0.2236E+00  0.2237E+00
     -0.878  0.2578E+00  0.2584E+00  0.2426E+00  0.2427E+00
     -0.804  0.3080E+00  0.3080E+00  0.2652E+00  0.2654E+00
     -0.731  0.2844E+00  0.2843E+00  0.2862E+00  0.2863E+00
     -0.657  0.2929E+00  0.2930E+00  0.3077E+00  0.3079E+00
     -0.583  0.2708E+00  0.2703E+00  0.3277E+00  0.3278E+00
     -0.510  0.2217E+00  0.2216E+00  0.3440E+00  0.3441E+00
     -0.436  0.2668E+00  0.2673E+00  0.3636E+00  0.3638E+00
     -0.363  0.3260E+00  0.3262E+00  0.3876E+00  0.3878E+00
     -0.289  0.3269E+00  0.3267E+00  0.4117E+00  0.4118E+00
     -0.216  0.3125E+00  0.3125E+00  0.4347E+00  0.4349E+00
     -0.142  0.3144E+00  0.3143E+00  0.4578E+00  0.4580E+00
     -0.068  0.3270E+00  0.3273E+00  0.4819E+00  0.4821E+00
      0.005  0.4063E+00  0.4067E+00  0.5118E+00  0.5120E+00
      0.079  0.4104E+00  0.4100E+00  0.5420E+00  0.5422E+00
      0.152  0.3649E+00  0.3647E+00  0.5689E+00  0.5691E+00
      0.226  0.3619E+00  0.3618E+00  0.5955E+00  0.5957E+00
      0.299  0.3347E+00  0.3345E+00  0.6202E+00  0.6203E+00
      0.373  0.3609E+00  0.3613E+00  0.6467E+00  0.6469E+00
      0.447  0.4311E+00  0.4313E+00  0.6785E+00  0.6787E+00
      0.520  0.4669E+00  0.4671E+00  0.7128E+00  0.7131E+00
      0.594  0.5568E+00  0.5572E+00  0.7538E+00  0.7541E+00
      0.667  0.5727E+00  0.5721E+00  0.7960E+00  0.7962E+00
      0.741  0.4747E+00  0.4741E+00  0.8309E+00  0.8311E+00
      0.814  0.4431E+00  0.4431E+00  0.8635E+00  0.8637E+00
      0.888  0.4939E+00  0.4939E+00  0.8999E+00  0.9001E+00
      0.962  0.5775E+00  0.5778E+00  0.9424E+00  0.9426E+00
      1.035  0.6815E+00  0.6816E+00  0.9926E+00  0.9928E+00
      1.109  0.7514E+00  0.7514E+00  0.1048E+01  0.1048E+01
      1.182  0.8073E+00  0.8070E+00  0.1107E+01  0.1108E+01
      1.256  0.7728E+00  0.7721E+00  0.1164E+01  0.1164E+01
      1.329  0.7900E+00  0.7897E+00  0.1222E+01  0.1222E+01
      1.403  0.1067E+01  0.1067E+01  0.1301E+01  0.1301E+01
      1.477  0.1417E+01  0.1416E+01  0.1405E+01  0.1405E+01
      1.550  0.1519E+01  0.1517E+01  0.1517E+01  0.1517E+01
      1.624  0.1649E+01  0.1648E+01  0.1638E+01  0.1638E+01
      1.697  0.2037E+01  0.2035E+01  0.1788E+01  0.1788E+01
      1.771  0.2429E+01  0.2427E+01  0.1967E+01  0.1967E+01
      1.844  0.2654E+01  0.2653E+01  0.2162E+01  0.2162E+01
      1.918  0.2830E+01  0.2828E+01  0.2371E+01  0.2370E+01
      1.992  0.3047E+01  0.3045E+01  0.2595E+01  0.2594E+01
      2.065  0.3295E+01  0.3291E+01  0.2837E+01  0.2836E+01
      2.139  0.3930E+01  0.3924E+01  0.3127E+01  0.3125E+01
      2.212  0.4581E+01  0.4575E+01  0.3464E+01  0.3462E+01
      2.286  0.5183E+01  0.5178E+01  0.3845E+01  0.3843E+01
      2.359  0.5544E+01  0.5542E+01  0.4253E+01  0.4251E+01
      2.433  0.5496E+01  0.5496E+01  0.4658E+01  0.4655E+01
      2.507  0.5364E+01  0.5363E+01  0.5053E+01  0.5050E+01
      2.580  0.5347E+01  0.5346E+01  0.5446E+01  0.5444E+01
      2.654  0.5400E+01  0.5398E+01  0.5844E+01  0.5841E+01
      2.727  0.5616E+01  0.5613E+01  0.6257E+01  0.6254E+01
      2.801  0.6117E+01  0.6110E+01  0.6708E+01  0.6704E+01
      2.874  0.6975E+01  0.6968E+01  0.7221E+01  0.7217E+01
      2.948  0.7707E+01  0.7702E+01  0.7788E+01  0.7784E+01
      3.022  0.8234E+01  0.8228E+01  0.8394E+01  0.8389E+01
      3.095  0.9041E+01  0.9032E+01  0.9060E+01  0.9054E+01
      3.169  0.9928E+01  0.9920E+01  0.9790E+01  0.9784E+01
      3.242  0.1049E+02  0.1048E+02  0.1056E+02  0.1056E+02
      3.316  0.1053E+02  0.1053E+02  0.1134E+02  0.1133E+02
      3.389  0.9395E+01  0.9407E+01  0.1203E+02  0.1202E+02
      3.463  0.8025E+01  0.8034E+01  0.1262E+02  0.1262E+02
      3.537  0.7315E+01  0.7316E+01  0.1316E+02  0.1315E+02
      3.610  0.7542E+01  0.7535E+01  0.1371E+02  0.1371E+02
      3.684  0.8442E+01  0.8432E+01  0.1434E+02  0.1433E+02
      3.757  0.9143E+01  0.9139E+01  0.1501E+02  0.1500E+02
      3.831  0.9207E+01  0.9208E+01  0.1569E+02  0.1568E+02
      3.904  0.8909E+01  0.8910E+01  0.1634E+02  0.1634E+02
      3.978  0.8721E+01  0.8720E+01  0.1698E+02  0.1698E+02
      4.052  0.9000E+01  0.8992E+01  0.1765E+02  0.1764E+02
      4.125  0.1010E+02  0.1008E+02  0.1839E+02  0.1838E+02
      4.199  0.1157E+02  0.1156E+02  0.1924E+02  0.1923E+02
      4.272  0.1099E+02  0.1101E+02  0.2005E+02  0.2004E+02
      4.346  0.7498E+01  0.7540E+01  0.2060E+02  0.2060E+02
      4.419  0.3948E+01  0.3979E+01  0.2089E+02  0.2089E+02
      4.493  0.1856E+01  0.1870E+01  0.2103E+02  0.2103E+02
      4.567  0.1040E+01  0.1043E+01  0.2111E+02  0.2111E+02
      4.640  0.9538E+00  0.9538E+00  0.2118E+02  0.2118E+02
      4.714  0.9236E+00  0.9251E+00  0.2125E+02  0.2125E+02
      4.787  0.7695E+00  0.7709E+00  0.2130E+02  0.2130E+02
      4.861  0.7138E+00  0.7138E+00  0.2136E+02  0.2136E+02
      4.934  0.8440E+00  0.8430E+00  0.2142E+02  0.2142E+02
      5.008  0.9201E+00  0.9206E+00  0.2149E+02  0.2149E+02
      5.082  0.7562E+00  0.7575E+00  0.2154E+02  0.2154E+02
      5.155  0.6106E+00  0.6115E+00  0.2159E+02  0.2159E+02
      5.229  0.5653E+00  0.5657E+00  0.2163E+02  0.2163E+02
      5.302  0.7083E+00  0.7083E+00  0.2168E+02  0.2168E+02
      5.376  0.9149E+00  0.9142E+00  0.2175E+02  0.2175E+02
      5.449  0.9020E+00  0.9019E+00  0.2182E+02  0.2182E+02
      5.523  0.7076E+00  0.7081E+00  0.2187E+02  0.2187E+02
      5.596  0.5815E+00  0.5821E+00  0.2191E+02  0.2191E+02
      5.670  0.5776E+00  0.5779E+00  0.2195E+02  0.2195E+02
      5.744  0.5613E+00  0.5616E+00  0.2199E+02  0.2199E+02
      5.817  0.4861E+00  0.4862E+00  0.2203E+02  0.2203E+02
      5.891  0.5741E+00  0.5741E+00  0.2207E+02  0.2207E+02
      5.964  0.7828E+00  0.7828E+00  0.2213E+02  0.2213E+02
      6.038  0.9222E+00  0.9224E+00  0.2220E+02  0.2220E+02
      6.111  0.8442E+00  0.8444E+00  0.2226E+02  0.2226E+02
      6.185  0.6151E+00  0.6151E+00  0.2231E+02  0.2231E+02
      6.259  0.4967E+00  0.4966E+00  0.2234E+02  0.2234E+02
      6.332  0.4441E+00  0.4442E+00  0.2237E+02  0.2237E+02
      6.406  0.3698E+00  0.3701E+00  0.2240E+02  0.2240E+02
      6.479  0.4464E+00  0.4468E+00  0.2243E+02  0.2243E+02
      6.553  0.6357E+00  0.6358E+00  0.2248E+02  0.2248E+02
      6.626  0.8130E+00  0.8130E+00  0.2254E+02  0.2254E+02
      6.700  0.7951E+00  0.7950E+00  0.2260E+02  0.2260E+02
      6.774  0.6183E+00  0.6181E+00  0.2265E+02  0.2265E+02
      6.847  0.5406E+00  0.5408E+00  0.2269E+02  0.2269E+02
      6.921  0.5494E+00  0.5498E+00  0.2273E+02  0.2273E+02
      6.994  0.5482E+00  0.5483E+00  0.2277E+02  0.2277E+02
      7.068  0.5246E+00  0.5245E+00  0.2280E+02  0.2280E+02
      7.141  0.4493E+00  0.4491E+00  0.2284E+02  0.2284E+02
      7.215  0.3776E+00  0.3776E+00  0.2287E+02  0.2287E+02
      7.289  0.4042E+00  0.4043E+00  0.2290E+02  0.2290E+02
      7.362  0.5232E+00  0.5235E+00  0.2293E+02  0.2293E+02
      7.436  0.6375E+00  0.6380E+00  0.2298E+02  0.2298E+02
      7.509  0.7713E+00  0.7717E+00  0.2304E+02  0.2304E+02
      7.583  0.7838E+00  0.7837E+00  0.2310E+02  0.2310E+02
      7.656  0.5995E+00  0.5988E+00  0.2314E+02  0.2314E+02
      7.730  0.4008E+00  0.4003E+00  0.2317E+02  0.2317E+02
      7.804  0.3767E+00  0.3769E+00  0.2320E+02  0.2320E+02
      7.877  0.4675E+00  0.4679E+00  0.2323E+02  0.2323E+02
      7.951  0.4931E+00  0.4932E+00  0.2327E+02  0.2327E+02
      8.024  0.4070E+00  0.4068E+00  0.2330E+02  0.2330E+02
      8.098  0.3387E+00  0.3385E+00  0.2332E+02  0.2332E+02
      8.171  0.3525E+00  0.3524E+00  0.2335E+02  0.2335E+02
      8.245  0.4435E+00  0.4437E+00  0.2338E+02  0.2338E+02
      8.319  0.5148E+00  0.5150E+00  0.2342E+02  0.2342E+02
      8.392  0.4932E+00  0.4932E+00  0.2346E+02  0.2346E+02
      8.466  0.4703E+00  0.4704E+00  0.2349E+02  0.2349E+02
      8.539  0.5202E+00  0.5204E+00  0.2353E+02  0.2353E+02
      8.613  0.5327E+00  0.5327E+00  0.2357E+02  0.2357E+02
      8.686  0.4382E+00  0.4378E+00  0.2360E+02  0.2360E+02
      8.760  0.3415E+00  0.3410E+00  0.2362E+02  0.2362E+02
      8.834  0.3568E+00  0.3566E+00  0.2365E+02  0.2365E+02
      8.907  0.4809E+00  0.4813E+00  0.2369E+02  0.2369E+02
      8.981  0.6087E+00  0.6090E+00  0.2373E+02  0.2373E+02
      9.054  0.5965E+00  0.5962E+00  0.2378E+02  0.2378E+02
      9.128  0.5046E+00  0.5044E+00  0.2381E+02  0.2381E+02
      9.201  0.5048E+00  0.5051E+00  0.2385E+02  0.2385E+02
      9.275  0.6742E+00  0.6748E+00  0.2390E+02  0.2390E+02
      9.349  0.8781E+00  0.8787E+00  0.2396E+02  0.2396E+02
      9.422  0.8678E+00  0.8674E+00  0.2403E+02  0.2403E+02
      9.496  0.6291E+00  0.6285E+00  0.2407E+02  0.2407E+02
      9.569  0.5065E+00  0.5066E+00  0.2411E+02  0.2411E+02
      9.643  0.6197E+00  0.6201E+00  0.2416E+02  0.2416E+02
      9.716  0.6671E+00  0.6671E+00  0.2421E+02  0.2421E+02
      9.790  0.6448E+00  0.6445E+00  0.2425E+02  0.2425E+02
      9.864  0.5567E+00  0.5564E+00  0.2429E+02  0.2429E+02
      9.937  0.4415E+00  0.4415E+00  0.2433E+02  0.2433E+02
     10.011  0.4851E+00  0.4857E+00  0.2436E+02  0.2436E+02
     10.084  0.7036E+00  0.7045E+00  0.2441E+02  0.2441E+02
     10.158  0.8851E+00  0.8852E+00  0.2448E+02  0.2448E+02
     10.231  0.7125E+00  0.7117E+00  0.2453E+02  0.2453E+02
     10.305  0.4605E+00  0.4601E+00  0.2457E+02  0.2457E+02
     10.379  0.4144E+00  0.4146E+00  0.2460E+02  0.2460E+02
     10.452  0.4844E+00  0.4847E+00  0.2463E+02  0.2463E+02
     10.526  0.5603E+00  0.5601E+00  0.2467E+02  0.2467E+02
     10.599  0.6159E+00  0.6161E+00  0.2472E+02  0.2472E+02
     10.673  0.6779E+00  0.6781E+00  0.2477E+02  0.2477E+02
     10.746  0.6673E+00  0.6671E+00  0.2482E+02  0.2482E+02
     10.820  0.5789E+00  0.5788E+00  0.2486E+02  0.2486E+02
     10.894  0.5624E+00  0.5625E+00  0.2490E+02  0.2490E+02
     10.967  0.5786E+00  0.5787E+00  0.2494E+02  0.2494E+02
     11.041  0.5604E+00  0.5603E+00  0.2499E+02  0.2499E+02
     11.114  0.4892E+00  0.4889E+00  0.2502E+02  0.2502E+02
     11.188  0.4121E+00  0.4120E+00  0.2505E+02  0.2505E+02
     11.261  0.4516E+00  0.4520E+00  0.2509E+02  0.2509E+02
     11.335  0.5177E+00  0.5177E+00  0.2512E+02  0.2512E+02
     11.409  0.4835E+00  0.4833E+00  0.2516E+02  0.2516E+02
     11.482  0.4812E+00  0.4813E+00  0.2519E+02  0.2519E+02
     11.556  0.5160E+00  0.5162E+00  0.2523E+02  0.2523E+02
     11.629  0.5284E+00  0.5286E+00  0.2527E+02  0.2527E+02
     11.703  0.5890E+00  0.5891E+00  0.2531E+02  0.2531E+02
     11.776  0.6009E+00  0.6007E+00  0.2536E+02  0.2536E+02
     11.850  0.6010E+00  0.6011E+00  0.2540E+02  0.2540E+02
     11.924  0.6455E+00  0.6456E+00  0.2545E+02  0.2545E+02
     11.997  0.6196E+00  0.6193E+00  0.2550E+02  0.2550E+02
     12.071  0.6116E+00  0.6118E+00  0.2554E+02  0.2554E+02
     12.144  0.7272E+00  0.7276E+00  0.2559E+02  0.2560E+02
     12.218  0.7376E+00  0.7373E+00  0.2565E+02  0.2565E+02
     12.291  0.6095E+00  0.6089E+00  0.2569E+02  0.2569E+02
     12.365  0.5053E+00  0.5049E+00  0.2573E+02  0.2573E+02
     12.439  0.4882E+00  0.4883E+00  0.2577E+02  0.2577E+02
     12.512  0.5755E+00  0.5762E+00  0.2581E+02  0.2581E+02
     12.586  0.7887E+00  0.7895E+00  0.2587E+02  0.2587E+02
     12.659  0.8989E+00  0.8991E+00  0.2593E+02  0.2593E+02
     12.733  0.9104E+00  0.9104E+00  0.2600E+02  0.2600E+02
     12.806  0.8215E+00  0.8211E+00  0.2606E+02  0.2606E+02
     12.880  0.7551E+00  0.7555E+00  0.2612E+02  0.2612E+02
     12.953  0.8710E+00  0.8714E+00  0.2618E+02  0.2618E+02
     13.027  0.9213E+00  0.9210E+00  0.2625E+02  0.2625E+02
     13.101  0.7808E+00  0.7799E+00  0.2631E+02  0.2631E+02
     13.174  0.6656E+00  0.6652E+00  0.2636E+02  0.2636E+02
     13.248  0.6171E+00  0.6162E+00  0.2640E+02  0.2640E+02
     13.321  0.6045E+00  0.6031E+00  0.2645E+02  0.2645E+02
     13.395  0.6809E+00  0.6804E+00  0.2650E+02  0.2650E+02
     13.468  0.6880E+00  0.6881E+00  0.2655E+02  0.2655E+02
     13.542  0.6542E+00  0.6550E+00  0.2659E+02  0.2659E+02
     13.616  0.6772E+00  0.6786E+00  0.2664E+02  0.2664E+02
     13.689  0.6404E+00  0.6408E+00  0.2669E+02  0.2669E+02
     13.763  0.6736E+00  0.6739E+00  0.2674E+02  0.2674E+02
     13.836  0.7888E+00  0.7877E+00  0.2680E+02  0.2680E+02
     13.910  0.8324E+00  0.8300E+00  0.2686E+02  0.2686E+02
     13.983  0.8821E+00  0.8785E+00  0.2693E+02  0.2692E+02
     14.057  0.8983E+00  0.8887E+00  0.2699E+02  0.2699E+02
     14.131  0.8135E+00  0.8086E+00  0.2705E+02  0.2705E+02
     14.204  0.6963E+00  0.7064E+00  0.2710E+02  0.2710E+02
     14.278  0.6534E+00  0.6661E+00  0.2715E+02  0.2715E+02
     14.351  0.7302E+00  0.7467E+00  0.2720E+02  0.2721E+02
     14.425  0.6945E+00  0.7024E+00  0.2726E+02  0.2726E+02
     14.498  0.6237E+00  0.6087E+00  0.2730E+02  0.2730E+02
     14.572  0.6583E+00  0.6403E+00  0.2735E+02  0.2735E+02
     14.646  0.7787E+00  0.7480E+00  0.2741E+02  0.2740E+02
     14.719  0.8494E+00  0.8007E+00  0.2747E+02  0.2746E+02
     14.793  0.7001E+00  0.6819E+00  0.2752E+02  0.2751E+02
     14.866  0.4770E+00  0.5117E+00  0.2756E+02  0.2755E+02
     14.940  0.4160E+00  0.4543E+00  0.2759E+02  0.2758E+02
     15.013  0.4953E+00  0.5181E+00  0.2762E+02  0.2762E+02
     15.087  0.6217E+00  0.6427E+00  0.2767E+02  0.2767E+02
     15.161  0.7106E+00  0.7250E+00  0.2772E+02  0.2772E+02
     15.234  0.5359E+00  0.5265E+00  0.2776E+02  0.2776E+02
     15.308  0.3526E+00  0.3444E+00  0.2779E+02  0.2779E+02
     15.381  0.3597E+00  0.3572E+00  0.2781E+02  0.2781E+02
     15.455  0.3361E+00  0.3332E+00  0.2784E+02  0.2784E+02
     15.528  0.2256E+00  0.2255E+00  0.2785E+02  0.2786E+02
     15.602  0.1865E+00  0.1951E+00  0.2787E+02  0.2787E+02
     15.676  0.2532E+00  0.2748E+00  0.2789E+02  0.2789E+02
     15.749  0.3294E+00  0.3473E+00  0.2791E+02  0.2792E+02
     15.823  0.2970E+00  0.2812E+00  0.2793E+02  0.2794E+02
     15.896  0.2224E+00  0.1797E+00  0.2795E+02  0.2795E+02
     15.970  0.1651E+00  0.1455E+00  0.2796E+02  0.2796E+02
     16.043  0.8499E-01  0.9708E-01  0.2797E+02  0.2797E+02
     16.117  0.3668E-01  0.4545E-01  0.2797E+02  0.2797E+02
     16.191  0.3968E-01  0.4275E-01  0.2797E+02  0.2797E+02
     16.264  0.5747E-01  0.5796E-01  0.2798E+02  0.2798E+02
     16.338  0.5419E-01  0.5425E-01  0.2798E+02  0.2798E+02
     16.411  0.3476E-01  0.3438E-01  0.2798E+02  0.2798E+02
     16.485  0.1648E-01  0.1568E-01  0.2799E+02  0.2799E+02
     16.558  0.1745E-01  0.1499E-01  0.2799E+02  0.2799E+02
     16.632  0.3935E-01  0.3509E-01  0.2799E+02  0.2799E+02
     16.706  0.5156E-01  0.5238E-01  0.2799E+02  0.2799E+02
     16.779  0.2821E-01  0.3242E-01  0.2800E+02  0.2800E+02
     16.853  0.8681E-02  0.1061E-01  0.2800E+02  0.2800E+02
     16.926  0.2194E-02  0.2792E-02  0.2800E+02  0.2800E+02
     17.000  0.6995E-03  0.1153E-02  0.2800E+02  0.2800E+02
     17.073  0.8355E-03  0.2126E-02  0.2800E+02  0.2800E+02
     17.147  0.3237E-02  0.6953E-02  0.2800E+02  0.2800E+02
     17.221  0.9224E-02  0.1283E-01  0.2800E+02  0.2800E+02
     17.294  0.1298E-01  0.9763E-02  0.2800E+02  0.2800E+02
     17.368  0.7509E-02  0.3594E-02  0.2800E+02  0.2800E+02
     17.441  0.2494E-02  0.1074E-02  0.2800E+02  0.2800E+02
     17.515  0.1135E-02  0.7730E-03  0.2800E+02  0.2800E+02
     17.588  0.1689E-02  0.1610E-02  0.2800E+02  0.2800E+02
     17.662  0.2159E-02  0.2158E-02  0.2800E+02  0.2800E+02
     17.736  0.1232E-02  0.1224E-02  0.2800E+02  0.2800E+02
     17.809  0.3857E-03  0.3824E-03  0.2800E+02  0.2800E+02
     17.883  0.9606E-04  0.9519E-04  0.2800E+02  0.2800E+02
     17.956  0.2249E-04  0.2228E-04  0.2800E+02  0.2800E+02
     18.030  0.0000E+00  0.0000E+00  0.2800E+02  0.2800E+02
     18.103  0.0000E+00  0.0000E+00  0.2800E+02  0.2800E+02
     18.177  0.0000E+00  0.0000E+00  0.2800E+02  0.2800E+02
     18.251  0.0000E+00  0.0000E+00  0.2800E+02  0.2800E+02
     18.324  0.0000E+00  0.0000E+00  0.2800E+02  0.2800E+02
     18.398  0.0000E+00  0.0000E+00  0.2800E+02  0.2800E+02
     18.471  0.0000E+00  0.0000E+00  0.2800E+02  0.2800E+02
     18.545  0.0000E+00  0.0000E+00  0.2800E+02  0.2800E+02
     18.618  0.0000E+00  0.0000E+00  0.2800E+02  0.2800E+02
     18.61839123     -3.45262082  301      5.75495607      1.00000000
     -3.453  0.0000E+00  0.0000E+00  0.0000E+00  0.0000E+00  0.0000E+00  0.0000E+00  0.0000E+00  0.0000E+00  0.0000E+00  0.0000E+00  0.0000E+00  0.0000E+00  0.0000E+00  0.0000E+00  0.0000E+00  0.0000E+00  0.0000E+00  0.0000E+00
     -3.379  0.0000E+00  0.0000E+00  0.0000E+00  0.0000E+00  0.0000E+00  0.0000E+00  0.0000E+00  0.0000E+00  0.0000E+00  0.0000E+00  0.0000E+00  0.0000E+00  0.0000E+00  0.0000E+00  0.0000E+00  0.0000E+00  0.0000E+00  0.0000E+00
     -3.305  0.0000E+00  0.0000E+00  0.0000E+00  0.0000E+00  0.0000E+00  0.0000E+00  0.0000E+00  0.0000E+00  0.0000E+00  0.0000E+00  0.0000E+00  0.0000E+00  0.0000E+00  0.0000E+00  0.0000E+00  0.0000E+00  0.0000E+00  0.0000E+00
     -3.232  0.0000E+00  0.0000E+00  0.0000E+00  0.0000E+00  0.0000E+00  0.0000E+00  0.0000E+00  0.0000E+00  0.0000E+00  0.0000E+00  0.0000E+00  0.0000E+00  0.0000E+00  0.0000E+00  0.0000E+00  0.0000E+00  0.0000E+00  0.0000E+00
     -3.158  0.0000E+00  0.0000E+00  0.0000E+00  0.0000E+00  0.0000E+00  0.0000E+00  0.0000E+00  0.0000E+00  0.0000E+00  0.0000E+00  0.0000E+00  0.0000E+00  0.0000E+00  0.0000E+00  0.0000E+00  0.0000E+00  0.0000E+00  0.0000E+00
     -3.085  0.0000E+00  0.0000E+00  0.0000E+00  0.0000E+00  0.0000E+00  0.0000E+00  0.0000E+00  0.0000E+00  0.0000E+00  0.0000E+00  0.0000E+00  0.0000E+00  0.0000E+00  0.0000E+00  0.0000E+00  0.0000E+00  0.0000E+00  0.0000E+00
     -3.011  0.0000E+00  0.0000E+00  0.0000E+00  0.0000E+00  0.0000E+00  0.0000E+00  0.0000E+00  0.0000E+00  0.0000E+00  0.0000E+00  0.0000E+00  0.0000E+00  0.0000E+00  0.0000E+00  0.0000E+00  0.0000E+00  0.0000E+00  0.0000E+00
     -2.938  0.0000E+00  0.0000E+00  0.0000E+00  0.0000E+00  0.0000E+00  0.0000E+00  0.0000E+00  0.0000E+00  0.0000E+00  0.0000E+00  0.0000E+00  0.0000E+00  0.0000E+00  0.0000E+00  0.0000E+00  0.0000E+00  0.0000E+00  0.0000E+00
     -2.864  0.1917E-06  0.1938E-06  0.9684E-21  0.6781E-19  0.9684E-21  0.6781E-19  0.9684E-21  0.6781E-19  0.1979E-15  0.1729E-15  0.1979E-15  0.1729E-15  0.4191E-16  0.4135E-16  0.1979E-15  0.1729E-15  0.4191E-16  0.4135E-16
     -2.790  0.2790E-05  0.2821E-05  0.5376E-08  0.5435E-08  0.5376E-08  0.5435E-08  0.5376E-08  0.5435E-08  0.3011E-10  0.3037E-10  0.3011E-10  0.3037E-10  0.3162E-10  0.3259E-10  0.3011E-10  0.3037E-10  0.3162E-10  0.3259E-10
     -2.717  0.1060E-04  0.1072E-04  0.2145E-07  0.2168E-07  0.2145E-07  0.2168E-07  0.2145E-07  0.2168E-07  0.1764E-09  0.1779E-09  0.1764E-09  0.1779E-09  0.1060E-09  0.1093E-09  0.1764E-09  0.1779E-09  0.1060E-09  0.1093E-09
     -2.643  0.4577E-04  0.4627E-04  0.9390E-07  0.9493E-07  0.9390E-07  0.9493E-07  0.9390E-07  0.9493E-07  0.6919E-09  0.6981E-09  0.6919E-09  0.6981E-09  0.6024E-09  0.6181E-09  0.6919E-09  0.6981E-09  0.6024E-09  0.6181E-09
     -2.570  0.1952E-03  0.1972E-03  0.4253E-06  0.4299E-06  0.4253E-06  0.4299E-06  0.4253E-06  0.4299E-06  0.3447E-08  0.3481E-08  0.3447E-08  0.3481E-08  0.3017E-08  0.3091E-08  0.3447E-08  0.3481E-08  0.3017E-08  0.3091E-08
     -2.496  0.7551E-03  0.7623E-03  0.1778E-05  0.1796E-05  0.1778E-05  0.1796E-05  0.1778E-05  0.1796E-05  0.1559E-07  0.1574E-07  0.1559E-07  0.1574E-07  0.1248E-07  0.1276E-07  0.1559E-07  0.1574E-07  0.1248E-07  0.1276E-07
     -2.423  0.2341E-02  0.2358E-02  0.6491E-05  0.6549E-05  0.6491E-05  0.6549E-05  0.6491E-05  0.6549E-05  0.6208E-07  0.6263E-07  0.6208E-07  0.6263E-07  0.4579E-07  0.4669E-07  0.6208E-07  0.6263E-07  0.4579E-07  0.4669E-07
     -2.349  0.5088E-02  0.5110E-02  0.1814E-04  0.1825E-04  0.1814E-04  0.1825E-04  0.1814E-04  0.1825E-04  0.2153E-06  0.2169E-06  0.2153E-06  0.2169E-06  0.1396E-06  0.1415E-06  0.2153E-06  0.2169E-06  0.1396E-06  0.1415E-06
     -2.276  0.7479E-02  0.7492E-02  0.3626E-04  0.3642E-04  0.3626E-04  0.3642E-04  0.3626E-04  0.3642E-04  0.5378E-06  0.5408E-06  0.5378E-06  0.5408E-06  0.3877E-06  0.3918E-06  0.5378E-06  0.5408E-06  0.3877E-06  0.3918E-06
     -2.202  0.9128E-02  0.9144E-02  0.6337E-04  0.6365E-04  0.6337E-04  0.6365E-04  0.6337E-04  0.6365E-04  0.1127E-05  0.1135E-05  0.1127E-05  0.1135E-05  0.1059E-05  0.1069E-05  0.1127E-05  0.1135E-05  0.1059E-05  0.1069E-05
     -2.128  0.1224E-01  0.1226E-01  0.1104E-03  0.1108E-03  0.1104E-03  0.1108E-03  0.1104E-03  0.1108E-03  0.2455E-05  0.2472E-05  0.2455E-05  0.2472E-05  0.2145E-05  0.2158E-05  0.2455E-05  0.2472E-05  0.2145E-05  0.2158E-05
     -2.055  0.1407E-01  0.1407E-01  0.1471E-03  0.1472E-03  0.1471E-03  0.1472E-03  0.1471E-03  0.1472E-03  0.4227E-05  0.4240E-05  0.4227E-05  0.4240E-05  0.2783E-05  0.2792E-05  0.4227E-05  0.4240E-05  0.2783E-05  0.2792E-05
     -1.981  0.1234E-01  0.1233E-01  0.1549E-03  0.1551E-03  0.1549E-03  0.1551E-03  0.1549E-03  0.1551E-03  0.5780E-05  0.5793E-05  0.5780E-05  0.5793E-05  0.3387E-05  0.3401E-05  0.5780E-05  0.5793E-05  0.3387E-05  0.3401E-05
     -1.908  0.1382E-01  0.1385E-01  0.2161E-03  0.2168E-03  0.2161E-03  0.2168E-03  0.2161E-03  0.2168E-03  0.9384E-05  0.9408E-05  0.9384E-05  0.9408E-05  0.6605E-05  0.6638E-05  0.9384E-05  0.9408E-05  0.6605E-05  0.6638E-05
     -1.834  0.1805E-01  0.1807E-01  0.3175E-03  0.3181E-03  0.3175E-03  0.3181E-03  0.3175E-03  0.3181E-03  0.1363E-04  0.1363E-04  0.1363E-04  0.1363E-04  0.1304E-04  0.1307E-04  0.1363E-04  0.1363E-04  0.1304E-04  0.1307E-04
     -1.761  0.1897E-01  0.1896E-01  0.3663E-03  0.3665E-03  0.3663E-03  0.3665E-03  0.3663E-03  0.3665E-03  0.1665E-04  0.1666E-04  0.1665E-04  0.1666E-04  0.1776E-04  0.1774E-04  0.1665E-04  0.1666E-04  0.1776E-04  0.1774E-04
     -1.687  0.1769E-01  0.1768E-01  0.3817E-03  0.3819E-03  0.3817E-03  0.3819E-03  0.3817E-03  0.3819E-03  0.2317E-04  0.2324E-04  0.2317E-04  0.2324E-04  0.1727E-04  0.1724E-04  0.2317E-04  0.2324E-04  0.1727E-04  0.1724E-04
     -1.613  0.1909E-01  0.1911E-01  0.4618E-03  0.4627E-03  0.4618E-03  0.4627E-03  0.4618E-03  0.4627E-03  0.3579E-04  0.3590E-04  0.3579E-04  0.3590E-04  0.1919E-04  0.1920E-04  0.3579E-04  0.3590E-04  0.1919E-04  0.1920E-04
     -1.540  0.2044E-01  0.2042E-01  0.5310E-03  0.5309E-03  0.5310E-03  0.5309E-03  0.5310E-03  0.5309E-03  0.4491E-04  0.4492E-04  0.4491E-04  0.4492E-04  0.2417E-04  0.2417E-04  0.4491E-04  0.4492E-04  0.2417E-04  0.2417E-04
     -1.466  0.1725E-01  0.1724E-01  0.4898E-03  0.4899E-03  0.4898E-03  0.4899E-03  0.4898E-03  0.4899E-03  0.4124E-04  0.4125E-04  0.4124E-04  0.4125E-04  0.3242E-04  0.3251E-04  0.4124E-04  0.4125E-04  0.3242E-04  0.3251E-04
     -1.393  0.2008E-01  0.2012E-01  0.6377E-03  0.6396E-03  0.6377E-03  0.6396E-03  0.6377E-03  0.6396E-03  0.5452E-04  0.5472E-04  0.5452E-04  0.5472E-04  0.5693E-04  0.5715E-04  0.5452E-04  0.5472E-04  0.5693E-04  0.5715E-04
     -1.319  0.2574E-01  0.2576E-01  0.8659E-03  0.8669E-03  0.8659E-03  0.8669E-03  0.8659E-03  0.8669E-03  0.8046E-04  0.8063E-04  0.8046E-04  0.8063E-04  0.7986E-04  0.7995E-04  0.8046E-04  0.8063E-04  0.7986E-04  0.7995E-04
     -1.246  0.2581E-01  0.2580E-01  0.9178E-03  0.9179E-03  0.9178E-03  0.9179E-03  0.9178E-03  0.9179E-03  0.9844E-04  0.9856E-04  0.9844E-04  0.9856E-04  0.8179E-04  0.8179E-04  0.9844E-04  0.9856E-04  0.8179E-04  0.8179E-04
     -1.172  0.2543E-01  0.2543E-01  0.9652E-03  0.9658E-03  0.9652E-03  0.9658E-03  0.9652E-03  0.9658E-03  0.1195E-03  0.1197E-03  0.1195E-03  0.1197E-03  0.8730E-04  0.8734E-04  0.1195E-03  0.1197E-03  0.8730E-04  0.8734E-04
     -1.098  0.2456E-01  0.2453E-01  0.9791E-03  0.9783E-03  0.9791E-03  0.9783E-03  0.9791E-03  0.9783E-03  0.1429E-03  0.1428E-03  0.1429E-03  0.1428E-03  0.8445E-04  0.8430E-04  0.1429E-03  0.1428E-03  0.8445E-04  0.8430E-04
     -1.025  0.1943E-01  0.1939E-01  0.8178E-03  0.8169E-03  0.8178E-03  0.8169E-03  0.8178E-03  0.8169E-03  0.1403E-03  0.1402E-03  0.1403E-03  0.1402E-03  0.6842E-04  0.6841E-04  0.1403E-03  0.1402E-03  0.6842E-04  0.6841E-04
     -0.951  0.1959E-01  0.1963E-01  0.9019E-03  0.9042E-03  0.9019E-03  0.9042E-03  0.9019E-03  0.9042E-03  0.1590E-03  0.1593E-03  0.1590E-03  0.1593E-03  0.1009E-03  0.1014E-03  0.1590E-03  0.1593E-03  0.1009E-03  0.1014E-03
     -0.878  0.2759E-01  0.2766E-01  0.1348E-02  0.1351E-02  0.1348E-02  0.1351E-02  0.1348E-02  0.1351E-02  0.2240E-03  0.2246E-03  0.2240E-03  0.2246E-03  0.1952E-03  0.1961E-03  0.2240E-03  0.2246E-03  0.1952E-03  0.1961E-03
     -0.804  0.3275E-01  0.3275E-01  0.1655E-02  0.1656E-02  0.1655E-02  0.1656E-02  0.1655E-02  0.1656E-02  0.2744E-03  0.2747E-03  0.2744E-03  0.2747E-03  0.2757E-03  0.2762E-03  0.2744E-03  0.2747E-03  0.2757E-03  0.2762E-03
     -0.731  0.2999E-01  0.2997E-01  0.1580E-02  0.1579E-02  0.1580E-02  0.1579E-02  0.1580E-02  0.1579E-02  0.2971E-03  0.2976E-03  0.2971E-03  0.2976E-03  0.2751E-03  0.2753E-03  0.2971E-03  0.2976E-03  0.2751E-03  0.2753E-03
     -0.657  0.3057E-01  0.3058E-01  0.1690E-02  0.1691E-02  0.1690E-02  0.1691E-02  0.1690E-02  0.1691E-02  0.3663E-03  0.3668E-03  0.3663E-03  0.3668E-03  0.2943E-03  0.2948E-03  0.3663E-03  0.3668E-03  0.2943E-03  0.2948E-03
     -0.583  0.2805E-01  0.2801E-01  0.1609E-02  0.1607E-02  0.1609E-02  0.1607E-02  0.1609E-02  0.1607E-02  0.3550E-03  0.3547E-03  0.3550E-03  0.3547E-03  0.3019E-03  0.3017E-03  0.3550E-03  0.3547E-03  0.3019E-03  0.3017E-03
     -0.510  0.2269E-01  0.2268E-01  0.1371E-02  0.1371E-02  0.1371E-02  0.1371E-02  0.1371E-02  0.1371E-02  0.3595E-03  0.3602E-03  0.3595E-03  0.3602E-03  0.2411E-03  0.2409E-03  0.3595E-03  0.3602E-03  0.2411E-03  0.2409E-03
     -0.436  0.2693E-01  0.2698E-01  0.1714E-02  0.1718E-02  0.1714E-02  0.1718E-02  0.1714E-02  0.1718E-02  0.5548E-03  0.5563E-03  0.5548E-03  0.5563E-03  0.2678E-03  0.2683E-03  0.5548E-03  0.5563E-03  0.2678E-03  0.2683E-03
     -0.363  0.3260E-01  0.3262E-01  0.2143E-02  0.2145E-02  0.2143E-02  0.2145E-02  0.2143E-02  0.2145E-02  0.7285E-03  0.7288E-03  0.7285E-03  0.7288E-03  0.3726E-03  0.3733E-03  0.7285E-03  0.7288E-03  0.3726E-03  0.3733E-03
     -0.289  0.3236E-01  0.3234E-01  0.2204E-02  0.2204E-02  0.2204E-02  0.2204E-02  0.2204E-02  0.2204E-02  0.7258E-03  0.7251E-03  0.7258E-03  0.7251E-03  0.5093E-03  0.5103E-03  0.7258E-03  0.7251E-03  0.5093E-03  0.5103E-03
     -0.216  0.3051E-01  0.3051E-01  0.2171E-02  0.2171E-02  0.2171E-02  0.2171E-02  0.2171E-02  0.2171E-02  0.6698E-03  0.6694E-03  0.6698E-03  0.6694E-03  0.7007E-03  0.7018E-03  0.6698E-03  0.6694E-03  0.7007E-03  0.7018E-03
     -0.142  0.3029E-01  0.3028E-01  0.2241E-02  0.2241E-02  0.2241E-02  0.2241E-02  0.2241E-02  0.2241E-02  0.7139E-03  0.7140E-03  0.7139E-03  0.7140E-03  0.8287E-03  0.8286E-03  0.7139E-03  0.7140E-03  0.8287E-03  0.8286E-03
     -0.068  0.3103E-01  0.3106E-01  0.2396E-02  0.2399E-02  0.2396E-02  0.2399E-02  0.2396E-02  0.2399E-02  0.8859E-03  0.8874E-03  0.8859E-03  0.8874E-03  0.8802E-03  0.8806E-03  0.8859E-03  0.8874E-03  0.8802E-03  0.8806E-03
      0.005  0.3811E-01  0.3815E-01  0.3045E-02  0.3049E-02  0.3045E-02  0.3049E-02  0.3045E-02  0.3049E-02  0.1288E-02  0.1290E-02  0.1288E-02  0.1290E-02  0.1034E-02  0.1034E-02  0.1288E-02  0.1290E-02  0.1034E-02  0.1034E-02
      0.079  0.3814E-01  0.3810E-01  0.3113E-02  0.3110E-02  0.3113E-02  0.3110E-02  0.3113E-02  0.3110E-02  0.1513E-02  0.1512E-02  0.1513E-02  0.1512E-02  0.9449E-03  0.9432E-03  0.1513E-02  0.1512E-02  0.9449E-03  0.9432E-03
      0.152  0.3340E-01  0.3338E-01  0.2810E-02  0.2809E-02  0.2810E-02  0.2809E-02  0.2810E-02  0.2809E-02  0.1548E-02  0.1547E-02  0.1548E-02  0.1547E-02  0.8691E-03  0.8691E-03  0.1548E-02  0.1547E-02  0.8691E-03  0.8691E-03
      0.226  0.3259E-01  0.3258E-01  0.2840E-02  0.2839E-02  0.2840E-02  0.2839E-02  0.2840E-02  0.2839E-02  0.1646E-02  0.1645E-02  0.1646E-02  0.1645E-02  0.1008E-02  0.1008E-02  0.1646E-02  0.1645E-02  0.1008E-02  0.1008E-02