   4   4   1   0
  0.9346618E+01  0.3343784E-09  0.3343784E-09  0.3343784E-09  0.5000000E-15
  1.000000000000000E-004
  CAR 
 unknown system                          
     27.21772900     -1.72665018  301     10.90975968      1.00000000
     -1.727  0.0000E+00  0.0000E+00  0.0000E+00  0.0000E+00
     -1.630  0.0000E+00  0.0000E+00  0.0000E+00  0.0000E+00
     -1.534  0.0000E+00  0.0000E+00  0.0000E+00  0.0000E+00
     -1.437  0.0000E+00  0.0000E+00  0.0000E+00  0.0000E+00
     -1.341  0.0000E+00  0.0000E+00  0.0000E+00  0.0000E+00
     -1.244  0.0000E+00  0.0000E+00  0.0000E+00  0.0000E+00
     -1.148  0.0000E+00  0.0000E+00  0.0000E+00  0.0000E+00
     -1.051  0.0000E+00  0.0000E+00  0.0000E+00  0.0000E+00
     -0.955  0.0000E+00  0.0000E+00  0.0000E+00  0.0000E+00
     -0.858  0.6142E-06  0.6125E-06  0.5925E-07  0.5910E-07
     -0.762  0.8205E-05  0.8183E-05  0.8508E-06  0.8486E-06
     -0.665  0.6327E-04  0.6310E-04  0.6955E-05  0.6937E-05
     -0.569  0.4256E-03  0.4246E-03  0.4802E-04  0.4790E-04
     -0.472  0.2621E-02  0.2615E-02  0.3009E-03  0.3002E-03
     -0.376  0.1172E-01  0.1170E-01  0.1431E-02  0.1429E-02
     -0.279  0.3137E-01  0.3134E-01  0.4458E-02  0.4452E-02
     -0.183  0.4747E-01  0.4746E-01  0.9038E-02  0.9031E-02
     -0.086  0.5206E-01  0.5205E-01  0.1406E-01  0.1405E-01
      0.010  0.7636E-01  0.7631E-01  0.2143E-01  0.2142E-01
      0.106  0.9699E-01  0.9699E-01  0.3079E-01  0.3078E-01
      0.203  0.7109E-01  0.7112E-01  0.3765E-01  0.3765E-01
      0.299  0.7897E-01  0.7891E-01  0.4528E-01  0.4526E-01
      0.396  0.1215E+00  0.1215E+00  0.5700E-01  0.5698E-01
      0.492  0.1279E+00  0.1279E+00  0.6934E-01  0.6933E-01
      0.589  0.1102E+00  0.1102E+00  0.7998E-01  0.7996E-01
      0.685  0.1217E+00  0.1216E+00  0.9172E-01  0.9171E-01
      0.782  0.1492E+00  0.1492E+00  0.1061E+00  0.1061E+00
      0.878  0.1031E+00  0.1032E+00  0.1161E+00  0.1161E+00
      0.975  0.1269E+00  0.1268E+00  0.1283E+00  0.1283E+00
      1.071  0.1882E+00  0.1882E+00  0.1465E+00  0.1465E+00
      1.168  0.1781E+00  0.1782E+00  0.1638E+00  0.1637E+00
      1.264  0.1778E+00  0.1778E+00  0.1809E+00  0.1809E+00
      1.361  0.1848E+00  0.1848E+00  0.1987E+00  0.1987E+00
      1.457  0.1239E+00  0.1240E+00  0.2107E+00  0.2107E+00
      1.554  0.1281E+00  0.1280E+00  0.2231E+00  0.2231E+00
      1.650  0.2166E+00  0.2165E+00  0.2440E+00  0.2440E+00
      1.747  0.2613E+00  0.2613E+00  0.2692E+00  0.2692E+00
      1.843  0.2126E+00  0.2126E+00  0.2898E+00  0.2897E+00
      1.940  0.2459E+00  0.2458E+00  0.3135E+00  0.3135E+00
      2.036  0.1989E+00  0.1990E+00  0.3327E+00  0.3327E+00
      2.133  0.1566E+00  0.1566E+00  0.3478E+00  0.3478E+00
      2.229  0.2424E+00  0.2423E+00  0.3712E+00  0.3712E+00
      2.326  0.2793E+00  0.2793E+00  0.3982E+00  0.3982E+00
      2.422  0.2641E+00  0.2642E+00  0.4237E+00  0.4237E+00
      2.519  0.2602E+00  0.2602E+00  0.4488E+00  0.4488E+00
      2.615  0.2401E+00  0.2401E+00  0.4720E+00  0.4720E+00
      2.711  0.3030E+00  0.3029E+00  0.5013E+00  0.5012E+00
      2.808  0.3583E+00  0.3584E+00  0.5359E+00  0.5358E+00
      2.904  0.3009E+00  0.3009E+00  0.5649E+00  0.5649E+00
      3.001  0.3073E+00  0.3073E+00  0.5946E+00  0.5945E+00
      3.097  0.2935E+00  0.2935E+00  0.6229E+00  0.6229E+00
      3.194  0.3313E+00  0.3312E+00  0.6549E+00  0.6549E+00
      3.290  0.3468E+00  0.3468E+00  0.6884E+00  0.6883E+00
      3.387  0.3924E+00  0.3922E+00  0.7263E+00  0.7262E+00
      3.483  0.5522E+00  0.5521E+00  0.7796E+00  0.7795E+00
      3.580  0.4560E+00  0.4562E+00  0.8236E+00  0.8236E+00
      3.676  0.3787E+00  0.3787E+00  0.8602E+00  0.8601E+00
      3.773  0.4389E+00  0.4388E+00  0.9026E+00  0.9025E+00
      3.869  0.5080E+00  0.5078E+00  0.9517E+00  0.9516E+00
      3.966  0.6687E+00  0.6685E+00  0.1016E+01  0.1016E+01
      4.062  0.7655E+00  0.7654E+00  0.1090E+01  0.1090E+01
      4.159  0.7986E+00  0.7986E+00  0.1167E+01  0.1167E+01
      4.255  0.8602E+00  0.8599E+00  0.1250E+01  0.1250E+01
      4.352  0.1211E+01  0.1210E+01  0.1367E+01  0.1367E+01
      4.448  0.1684E+01  0.1684E+01  0.1530E+01  0.1530E+01
      4.545  0.1819E+01  0.1819E+01  0.1705E+01  0.1705E+01
      4.641  0.1947E+01  0.1946E+01  0.1893E+01  0.1893E+01
      4.738  0.2000E+01  0.2000E+01  0.2086E+01  0.2086E+01
      4.834  0.1955E+01  0.1955E+01  0.2275E+01  0.2275E+01
      4.931  0.2078E+01  0.2078E+01  0.2476E+01  0.2475E+01
      5.027  0.2328E+01  0.2327E+01  0.2701E+01  0.2700E+01
      5.124  0.2573E+01  0.2573E+01  0.2949E+01  0.2949E+01
      5.220  0.2867E+01  0.2866E+01  0.3226E+01  0.3225E+01
      5.316  0.3230E+01  0.3229E+01  0.3538E+01  0.3537E+01
      5.413  0.3539E+01  0.3539E+01  0.3879E+01  0.3879E+01
      5.509  0.3510E+01  0.3510E+01  0.4218E+01  0.4218E+01
      5.606  0.3488E+01  0.3488E+01  0.4555E+01  0.4554E+01
      5.702  0.3231E+01  0.3231E+01  0.4867E+01  0.4867E+01
      5.799  0.3209E+01  0.3209E+01  0.5177E+01  0.5177E+01
      5.895  0.3096E+01  0.3096E+01  0.5476E+01  0.5476E+01
      5.992  0.3012E+01  0.3012E+01  0.5767E+01  0.5766E+01
      6.088  0.3000E+01  0.3000E+01  0.6056E+01  0.6056E+01
      6.185  0.3013E+01  0.3013E+01  0.6348E+01  0.6347E+01
      6.281  0.3138E+01  0.3137E+01  0.6651E+01  0.6650E+01
      6.378  0.3532E+01  0.3531E+01  0.6992E+01  0.6991E+01
      6.474  0.4107E+01  0.4106E+01  0.7388E+01  0.7388E+01
      6.571  0.4241E+01  0.4241E+01  0.7798E+01  0.7797E+01
      6.667  0.4139E+01  0.4138E+01  0.8197E+01  0.8197E+01
      6.764  0.4527E+01  0.4526E+01  0.8634E+01  0.8634E+01
      6.860  0.4969E+01  0.4968E+01  0.9114E+01  0.9113E+01
      6.957  0.5303E+01  0.5303E+01  0.9626E+01  0.9626E+01
      7.053  0.5348E+01  0.5348E+01  0.1014E+02  0.1014E+02
      7.150  0.5629E+01  0.5629E+01  0.1069E+02  0.1069E+02
      7.246  0.6093E+01  0.6092E+01  0.1127E+02  0.1127E+02
      7.343  0.5787E+01  0.5788E+01  0.1183E+02  0.1183E+02
      7.439  0.4813E+01  0.4814E+01  0.1230E+02  0.1230E+02
      7.536  0.4031E+01  0.4031E+01  0.1269E+02  0.1269E+02
      7.632  0.3726E+01  0.3726E+01  0.1305E+02  0.1305E+02
      7.729  0.3613E+01  0.3613E+01  0.1340E+02  0.1340E+02
      7.825  0.3900E+01  0.3899E+01  0.1377E+02  0.1377E+02
      7.921  0.4514E+01  0.4513E+01  0.1421E+02  0.1421E+02
      8.018  0.4870E+01  0.4870E+01  0.1468E+02  0.1468E+02
      8.114  0.5158E+01  0.5158E+01  0.1518E+02  0.1518E+02
      8.211  0.5053E+01  0.5054E+01  0.1567E+02  0.1567E+02
      8.307  0.4600E+01  0.4600E+01  0.1611E+02  0.1611E+02
      8.404  0.4571E+01  0.4571E+01  0.1655E+02  0.1655E+02
      8.500  0.4461E+01  0.4462E+01  0.1698E+02  0.1698E+02
      8.597  0.4347E+01  0.4347E+01  0.1740E+02  0.1740E+02
      8.693  0.4708E+01  0.4708E+01  0.1786E+02  0.1786E+02
      8.790  0.5241E+01  0.5240E+01  0.1836E+02  0.1836E+02
      8.886  0.6489E+01  0.6488E+01  0.1899E+02  0.1899E+02
      8.983  0.7441E+01  0.7441E+01  0.1971E+02  0.1971E+02
      9.079  0.6489E+01  0.6491E+01  0.2033E+02  0.2033E+02
      9.176  0.4289E+01  0.4291E+01  0.2075E+02  0.2075E+02
      9.272  0.2434E+01  0.2436E+01  0.2098E+02  0.2098E+02
      9.369  0.9750E+00  0.9760E+00  0.2108E+02  0.2108E+02
      9.465  0.4547E+00  0.4549E+00  0.2112E+02  0.2112E+02
      9.562  0.5172E+00  0.5168E+00  0.2117E+02  0.2117E+02
      9.658  0.8111E+00  0.8109E+00  0.2125E+02  0.2125E+02
      9.755  0.7571E+00  0.7573E+00  0.2133E+02  0.2133E+02
      9.851  0.6024E+00  0.6025E+00  0.2138E+02  0.2138E+02
      9.948  0.5720E+00  0.5720E+00  0.2144E+02  0.2144E+02
     10.044  0.5873E+00  0.5873E+00  0.2150E+02  0.2150E+02
     10.141  0.5806E+00  0.5806E+00  0.2155E+02  0.2155E+02
     10.237  0.6121E+00  0.6121E+00  0.2161E+02  0.2161E+02
     10.334  0.5998E+00  0.6000E+00  0.2167E+02  0.2167E+02
     10.430  0.4702E+00  0.4704E+00  0.2171E+02  0.2171E+02
     10.526  0.3879E+00  0.3880E+00  0.2175E+02  0.2175E+02
     10.623  0.4272E+00  0.4271E+00  0.2179E+02  0.2179E+02
     10.719  0.6029E+00  0.6026E+00  0.2185E+02  0.2185E+02
     10.816  0.8452E+00  0.8450E+00  0.2193E+02  0.2193E+02
     10.912  0.7056E+00  0.7061E+00  0.2200E+02  0.2200E+02
     11.009  0.3618E+00  0.3619E+00  0.2204E+02  0.2204E+02
     11.105  0.3657E+00  0.3656E+00  0.2207E+02  0.2207E+02
     11.202  0.4343E+00  0.4343E+00  0.2211E+02  0.2211E+02
     11.298  0.4171E+00  0.4171E+00  0.2215E+02  0.2215E+02
     11.395  0.5307E+00  0.5305E+00  0.2221E+02  0.2220E+02
     11.491  0.6696E+00  0.6696E+00  0.2227E+02  0.2227E+02
     11.588  0.5067E+00  0.5070E+00  0.2232E+02  0.2232E+02
     11.684  0.3440E+00  0.3440E+00  0.2235E+02  0.2235E+02
     11.781  0.4763E+00  0.4761E+00  0.2240E+02  0.2240E+02
     11.877  0.5563E+00  0.5562E+00  0.2245E+02  0.2245E+02
     11.974  0.5091E+00  0.5093E+00  0.2250E+02  0.2250E+02
     12.070  0.4288E+00  0.4289E+00  0.2254E+02  0.2254E+02
     12.167  0.4460E+00  0.4459E+00  0.2259E+02  0.2259E+02
     12.263  0.4651E+00  0.4650E+00  0.2263E+02  0.2263E+02
     12.360  0.4952E+00  0.4952E+00  0.2268E+02  0.2268E+02
     12.456  0.4809E+00  0.4809E+00  0.2272E+02  0.2272E+02
     12.553  0.5149E+00  0.5148E+00  0.2277E+02  0.2277E+02
     12.649  0.4878E+00  0.4879E+00  0.2282E+02  0.2282E+02
     12.746  0.3622E+00  0.3624E+00  0.2286E+02  0.2286E+02
     12.842  0.2638E+00  0.2638E+00  0.2288E+02  0.2288E+02
     12.939  0.4458E+00  0.4455E+00  0.2292E+02  0.2292E+02
     13.035  0.5229E+00  0.5230E+00  0.2298E+02  0.2298E+02
     13.131  0.4513E+00  0.4514E+00  0.2302E+02  0.2302E+02
     13.228  0.4005E+00  0.4006E+00  0.2306E+02  0.2306E+02
     13.324  0.4123E+00  0.4122E+00  0.2310E+02  0.2310E+02
     13.421  0.4966E+00  0.4965E+00  0.2315E+02  0.2315E+02
     13.517  0.4583E+00  0.4585E+00  0.2319E+02  0.2319E+02
     13.614  0.3338E+00  0.3339E+00  0.2322E+02  0.2322E+02
     13.710  0.3323E+00  0.3321E+00  0.2325E+02  0.2325E+02
     13.807  0.4362E+00  0.4362E+00  0.2330E+02  0.2330E+02
     13.903  0.3003E+00  0.3006E+00  0.2333E+02  0.2333E+02
     14.000  0.2052E+00  0.2051E+00  0.2335E+02  0.2335E+02
     14.096  0.2790E+00  0.2789E+00  0.2337E+02  0.2337E+02
     14.193  0.3035E+00  0.3035E+00  0.2340E+02  0.2340E+02
     14.289  0.3442E+00  0.3441E+00  0.2343E+02  0.2343E+02
     14.386  0.4215E+00  0.4214E+00  0.2348E+02  0.2348E+02
     14.482  0.4703E+00  0.4703E+00  0.2352E+02  0.2352E+02
     14.579  0.4042E+00  0.4043E+00  0.2356E+02  0.2356E+02
     14.675  0.3332E+00  0.3332E+00  0.2359E+02  0.2359E+02
     14.772  0.3320E+00  0.3321E+00  0.2362E+02  0.2362E+02
     14.868  0.1790E+00  0.1792E+00  0.2364E+02  0.2364E+02
     14.965  0.9554E-01  0.9553E-01  0.2365E+02  0.2365E+02
     15.061  0.1659E+00  0.1658E+00  0.2367E+02  0.2367E+02
     15.158  0.2607E+00  0.2605E+00  0.2369E+02  0.2369E+02
     15.254  0.2989E+00  0.2989E+00  0.2372E+02  0.2372E+02
     15.351  0.2148E+00  0.2149E+00  0.2374E+02  0.2374E+02
     15.447  0.1959E+00  0.1958E+00  0.2376E+02  0.2376E+02
     15.543  0.2909E+00  0.2908E+00  0.2379E+02  0.2379E+02
     15.640  0.3017E+00  0.3017E+00  0.2382E+02  0.2382E+02
     15.736  0.2487E+00  0.2488E+00  0.2384E+02  0.2384E+02
     15.833  0.1805E+00  0.1805E+00  0.2386E+02  0.2386E+02
     15.929  0.1773E+00  0.1773E+00  0.2388E+02  0.2388E+02
     16.026  0.2315E+00  0.2314E+00  0.2390E+02  0.2390E+02
     16.122  0.3804E+00  0.3803E+00  0.2394E+02  0.2394E+02
     16.219  0.4259E+00  0.4259E+00  0.2398E+02  0.2398E+02
     16.315  0.4275E+00  0.4275E+00  0.2402E+02  0.2402E+02
     16.412  0.4980E+00  0.4978E+00  0.2407E+02  0.2407E+02
     16.508  0.5575E+00  0.5576E+00  0.2412E+02  0.2412E+02
     16.605  0.5668E+00  0.5667E+00  0.2417E+02  0.2417E+02
     16.701  0.5960E+00  0.5961E+00  0.2423E+02  0.2423E+02
     16.798  0.6022E+00  0.6021E+00  0.2429E+02  0.2429E+02
     16.894  0.6063E+00  0.6064E+00  0.2435E+02  0.2435E+02
     16.991  0.4874E+00  0.4876E+00  0.2440E+02  0.2440E+02
     17.087  0.4455E+00  0.4454E+00  0.2444E+02  0.2444E+02
     17.184  0.5880E+00  0.5878E+00  0.2450E+02  0.2450E+02
     17.280  0.6257E+00  0.6258E+00  0.2456E+02  0.2456E+02
     17.377  0.5746E+00  0.5746E+00  0.2461E+02  0.2461E+02
     17.473  0.5635E+00  0.5635E+00  0.2467E+02  0.2467E+02
     17.570  0.5454E+00  0.5455E+00  0.2472E+02  0.2472E+02
     17.666  0.4457E+00  0.4458E+00  0.2476E+02  0.2476E+02
     17.763  0.4624E+00  0.4623E+00  0.2481E+02  0.2481E+02
     17.859  0.4530E+00  0.4531E+00  0.2485E+02  0.2485E+02
     17.956  0.4655E+00  0.4654E+00  0.2489E+02  0.2489E+02
     18.052  0.5090E+00  0.5091E+00  0.2494E+02  0.2494E+02
     18.148  0.4074E+00  0.4075E+00  0.2498E+02  0.2498E+02
     18.245  0.3996E+00  0.3995E+00  0.2502E+02  0.2502E+02
     18.341  0.4944E+00  0.4943E+00  0.2507E+02  0.2507E+02
     18.438  0.5263E+00  0.5262E+00  0.2512E+02  0.2512E+02
     18.534  0.4674E+00  0.4677E+00  0.2517E+02  0.2517E+02
     18.631  0.2819E+00  0.2820E+00  0.2519E+02  0.2519E+02
     18.727  0.3194E+00  0.3193E+00  0.2522E+02  0.2522E+02
     18.824  0.4548E+00  0.4547E+00  0.2527E+02  0.2527E+02
     18.920  0.4599E+00  0.4600E+00  0.2531E+02  0.2531E+02
     19.017  0.4176E+00  0.4176E+00  0.2535E+02  0.2535E+02
     19.113  0.5035E+00  0.5034E+00  0.2540E+02  0.2540E+02
     19.210  0.4789E+00  0.4789E+00  0.2545E+02  0.2545E+02
     19.306  0.4170E+00  0.4172E+00  0.2549E+02  0.2549E+02
     19.403  0.3346E+00  0.3346E+00  0.2552E+02  0.2552E+02
     19.499  0.4003E+00  0.4003E+00  0.2556E+02  0.2556E+02
     19.596  0.4030E+00  0.4030E+00  0.2560E+02  0.2560E+02
     19.692  0.3891E+00  0.3891E+00  0.2563E+02  0.2563E+02
     19.789  0.4035E+00  0.4033E+00  0.2567E+02  0.2567E+02
     19.885  0.5195E+00  0.5195E+00  0.2572E+02  0.2572E+02
     19.982  0.4270E+00  0.4272E+00  0.2577E+02  0.2577E+02
     20.078  0.3830E+00  0.3829E+00  0.2580E+02  0.2580E+02
     20.175  0.5569E+00  0.5566E+00  0.2586E+02  0.2586E+02
     20.271  0.6187E+00  0.6187E+00  0.2592E+02  0.2592E+02
     20.368  0.5426E+00  0.5427E+00  0.2597E+02  0.2597E+02
     20.464  0.6264E+00  0.6262E+00  0.2603E+02  0.2603E+02
     20.561  0.7797E+00  0.7796E+00  0.2610E+02  0.2610E+02
     20.657  0.7710E+00  0.7712E+00  0.2618E+02  0.2618E+02
     20.753  0.5696E+00  0.5698E+00  0.2623E+02  0.2623E+02
     20.850  0.4457E+00  0.4458E+00  0.2628E+02  0.2628E+02
     20.946  0.4091E+00  0.4091E+00  0.2632E+02  0.2632E+02
     21.043  0.4563E+00  0.4561E+00  0.2636E+02  0.2636E+02
     21.139  0.6326E+00  0.6324E+00  0.2642E+02  0.2642E+02
     21.236  0.7030E+00  0.7031E+00  0.2649E+02  0.2649E+02
     21.332  0.6243E+00  0.6243E+00  0.2655E+02  0.2655E+02
     21.429  0.6055E+00  0.6055E+00  0.2661E+02  0.2661E+02
     21.525  0.6174E+00  0.6173E+00  0.2667E+02  0.2667E+02
     21.622  0.6543E+00  0.6543E+00  0.2673E+02  0.2673E+02
     21.718  0.7605E+00  0.7604E+00  0.2680E+02  0.2680E+02
     21.815  0.7987E+00  0.7988E+00  0.2688E+02  0.2688E+02
     21.911  0.7942E+00  0.7942E+00  0.2696E+02  0.2696E+02
     22.008  0.6538E+00  0.6541E+00  0.2702E+02  0.2702E+02
     22.104  0.4451E+00  0.4452E+00  0.2706E+02  0.2706E+02
     22.201  0.4402E+00  0.4403E+00  0.2711E+02  0.2711E+02
     22.297  0.5116E+00  0.5116E+00  0.2716E+02  0.2716E+02
     22.394  0.6080E+00  0.6078E+00  0.2721E+02  0.2721E+02
     22.490  0.5861E+00  0.5860E+00  0.2727E+02  0.2727E+02
     22.587  0.6585E+00  0.6585E+00  0.2734E+02  0.2733E+02
     22.683  0.6020E+00  0.6023E+00  0.2739E+02  0.2739E+02
     22.780  0.4733E+00  0.4745E+00  0.2744E+02  0.2744E+02
     22.876  0.5216E+00  0.5273E+00  0.2749E+02  0.2749E+02
     22.973  0.6647E+00  0.6698E+00  0.2755E+02  0.2755E+02
     23.069  0.5635E+00  0.5560E+00  0.2761E+02  0.2761E+02
     23.166  0.5163E+00  0.5170E+00  0.2766E+02  0.2766E+02
     23.262  0.5113E+00  0.5399E+00  0.2771E+02  0.2771E+02
     23.358  0.4301E+00  0.4685E+00  0.2775E+02  0.2776E+02
     23.455  0.3656E+00  0.2937E+00  0.2778E+02  0.2778E+02
     23.551  0.2683E+00  0.2136E+00  0.2781E+02  0.2780E+02
     23.648  0.1863E+00  0.2212E+00  0.2783E+02  0.2783E+02
     23.744  0.2162E+00  0.2367E+00  0.2785E+02  0.2785E+02
     23.841  0.2785E+00  0.2959E+00  0.2788E+02  0.2788E+02
     23.937  0.2946E+00  0.3239E+00  0.2790E+02  0.2791E+02
     24.034  0.2192E+00  0.2407E+00  0.2793E+02  0.2793E+02
     24.130  0.1604E+00  0.1424E+00  0.2794E+02  0.2795E+02
     24.227  0.1488E+00  0.9443E-01  0.2796E+02  0.2795E+02
     24.323  0.1536E+00  0.1393E+00  0.2797E+02  0.2797E+02
     24.420  0.8618E-01  0.9917E-01  0.2798E+02  0.2798E+02
     24.516  0.3010E-01  0.3475E-01  0.2798E+02  0.2798E+02
     24.613  0.7224E-02  0.7998E-02  0.2798E+02  0.2798E+02
     24.709  0.2120E-02  0.2120E-02  0.2798E+02  0.2798E+02
     24.806  0.6652E-02  0.6635E-02  0.2798E+02  0.2798E+02
     24.902  0.1658E-01  0.1655E-01  0.2798E+02  0.2798E+02
     24.999  0.1130E-01  0.1112E-01  0.2799E+02  0.2799E+02
     25.095  0.7141E-02  0.5915E-02  0.2799E+02  0.2799E+02
     25.192  0.2483E-01  0.2005E-01  0.2799E+02  0.2799E+02
     25.288  0.5132E-01  0.5225E-01  0.2799E+02  0.2799E+02
     25.385  0.2983E-01  0.4271E-01  0.2800E+02  0.2800E+02
     25.481  0.1663E-01  0.1778E-01  0.2800E+02  0.2800E+02
     25.578  0.1052E-01  0.4146E-02  0.2800E+02  0.2800E+02
     25.674  0.2550E-02  0.5410E-03  0.2800E+02  0.2800E+02
     25.771  0.6745E-03  0.3420E-03  0.2800E+02  0.2800E+02
     25.867  0.1308E-02  0.1247E-02  0.2800E+02  0.2800E+02
     25.963  0.2085E-02  0.2085E-02  0.2800E+02  0.2800E+02
     26.060  0.8752E-03  0.8763E-03  0.2800E+02  0.2800E+02
     26.156  0.1632E-03  0.1635E-03  0.2800E+02  0.2800E+02
     26.253  0.2469E-04  0.2473E-04  0.2800E+02  0.2800E+02
     26.349  0.0000E+00  0.0000E+00  0.2800E+02  0.2800E+02
     26.446  0.0000E+00  0.0000E+00  0.2800E+02  0.2800E+02
     26.542  0.0000E+00  0.0000E+00  0.2800E+02  0.2800E+02
     26.639  0.0000E+00  0.0000E+00  0.2800E+02  0.2800E+02
     26.735  0.0000E+00  0.0000E+00  0.2800E+02  0.2800E+02
     26.832  0.0000E+00  0.0000E+00  0.2800E+02  0.2800E+02
     26.928  0.0000E+00  0.0000E+00  0.2800E+02  0.2800E+02
     27.025  0.0000E+00  0.0000E+00  0.2800E+02  0.2800E+02
     27.121  0.0000E+00  0.0000E+00  0.2800E+02  0.2800E+02
     27.218  0.0000E+00  0.0000E+00  0.2800E+02  0.2800E+02
     27.21772900     -1.72665018  301     10.90975968      1.00000000
     -1.727  0.0000E+00  0.0000E+00  0.0000E+00  0.0000E+00  0.0000E+00  0.0000E+00  0.0000E+00  0.0000E+00  0.0000E+00  0.0000E+00  0.0000E+00  0.0000E+00  0.0000E+00  0.0000E+00  0.0000E+00  0.0000E+00  0.0000E+00  0.0000E+00
     -1.630  0.0000E+00  0.0000E+00  0.0000E+00  0.0000E+00  0.0000E+00  0.0000E+00  0.0000E+00  0.0000E+00  0.0000E+00  0.0000E+00  0.0000E+00  0.0000E+00  0.0000E+00  0.0000E+00  0.0000E+00  0.0000E+00  0.0000E+00  0.0000E+00
     -1.534  0.0000E+00  0.0000E+00  0.0000E+00  0.0000E+00  0.0000E+00  0.0000E+00  0.0000E+00  0.0000E+00  0.0000E+00  0.0000E+00  0.0000E+00  0.0000E+00  0.0000E+00  0.0000E+00  0.0000E+00  0.0000E+00  0.0000E+00  0.0000E+00
     -1.437  0.0000E+00  0.0000E+00  0.0000E+00  0.0000E+00  0.0000E+00  0.0000E+00  0.0000E+00  0.0000E+00  0.0000E+00  0.0000E+00  0.0000E+00  0.0000E+00  0.0000E+00  0.0000E+00  0.0000E+00  0.0000E+00  0.0000E+00  0.0000E+00
     -1.341  0.0000E+00  0.0000E+00  0.0000E+00  0.0000E+00  0.0000E+00  0.0000E+00  0.0000E+00  0.0000E+00  0.0000E+00  0.0000E+00  0.0000E+00  0.0000E+00  0.0000E+00  0.0000E+00  0.0000E+00  0.0000E+00  0.0000E+00  0.0000E+00
     -1.244  0.0000E+00  0.0000E+00  0.0000E+00  0.0000E+00  0.0000E+00  0.0000E+00  0.0000E+00  0.0000E+00  0.0000E+00  0.0000E+00  0.0000E+00  0.0000E+00  0.0000E+00  0.0000E+00  0.0000E+00  0.0000E+00  0.0000E+00  0.0000E+00
     -1.148  0.0000E+00  0.0000E+00  0.0000E+00  0.0000E+00  0.0000E+00  0.0000E+00  0.0000E+00  0.0000E+00  0.0000E+00  0.0000E+00  0.0000E+00  0.0000E+00  0.0000E+00  0.0000E+00  0.0000E+00  0.0000E+00  0.0000E+00  0.0000E+00
     -1.051  0.0000E+00  0.0000E+00  0.0000E+00  0.0000E+00  0.0000E+00  0.0000E+00  0.0000E+00  0.0000E+00  0.0000E+00  0.0000E+00  0.0000E+00  0.0000E+00  0.0000E+00  0.0000E+00  0.0000E+00  0.0000E+00  0.0000E+00  0.0000E+00
     -0.955  0.0000E+00  0.0000E+00  0.0000E+00  0.0000E+00  0.0000E+00  0.0000E+00  0.0000E+00  0.0000E+00  0.0000E+00  0.0000E+00  0.0000E+00  0.0000E+00  0.0000E+00  0.0000E+00  0.0000E+00  0.0000E+00  0.0000E+00  0.0000E+00
     -0.858  0.1157E-06  0.1154E-06  0.1011E-22  0.2154E-22  0.1011E-22  0.2154E-22  0.1011E-22  0.2154E-22  0.1749E-16  0.3641E-16  0.1749E-16  0.3641E-16  0.1022E-19  0.1753E-17  0.1749E-16  0.3641E-16  0.1022E-19  0.1753E-17
     -0.762  0.1540E-05  0.1536E-05  0.2117E-08  0.2112E-08  0.2117E-08  0.2112E-08  0.2117E-08  0.2112E-08  0.1056E-15  0.3301E-15  0.1056E-15  0.3301E-15  0.1472E-10  0.1474E-10  0.1056E-15  0.3301E-15  0.1472E-10  0.1474E-10
     -0.665  0.1186E-04  0.1182E-04  0.2302E-07  0.2296E-07  0.2302E-07  0.2296E-07  0.2302E-07  0.2296E-07  0.9366E-10  0.9334E-10  0.9366E-10  0.9334E-10  0.1235E-09  0.1235E-09  0.9366E-10  0.9334E-10  0.1235E-09  0.1235E-09
     -0.569  0.7974E-04  0.7954E-04  0.1605E-06  0.1601E-06  0.1605E-06  0.1601E-06  0.1605E-06  0.1601E-06  0.7967E-09  0.7950E-09  0.7967E-09  0.7950E-09  0.8089E-09  0.8092E-09  0.7967E-09  0.7950E-09  0.8089E-09  0.8092E-09
     -0.472  0.4907E-03  0.4896E-03  0.1092E-05  0.1089E-05  0.1092E-05  0.1089E-05  0.1092E-05  0.1089E-05  0.5433E-08  0.5421E-08  0.5433E-08  0.5421E-08  0.6160E-08  0.6161E-08  0.5433E-08  0.5421E-08  0.6160E-08  0.6161E-08
     -0.376  0.2189E-02  0.2185E-02  0.6321E-05  0.6307E-05  0.6321E-05  0.6307E-05  0.6321E-05  0.6307E-05  0.3619E-07  0.3612E-07  0.3619E-07  0.3612E-07  0.3428E-07  0.3430E-07  0.3619E-07  0.3612E-07  0.3428E-07  0.3430E-07
     -0.279  0.5842E-02  0.5836E-02  0.2374E-04  0.2371E-04  0.2374E-04  0.2371E-04  0.2374E-04  0.2371E-04  0.1919E-06  0.1916E-06  0.1919E-06  0.1916E-06  0.1202E-06  0.1202E-06  0.1919E-06  0.1916E-06  0.1202E-06  0.1202E-06
     -0.183  0.8796E-02  0.8794E-02  0.5047E-04  0.5044E-04  0.5047E-04  0.5044E-04  0.5047E-04  0.5044E-04  0.5732E-06  0.5733E-06  0.5732E-06  0.5733E-06  0.3203E-06  0.3202E-06  0.5732E-06  0.5733E-06  0.3203E-06  0.3202E-06
     -0.086  0.9564E-02  0.9561E-02  0.8271E-04  0.8265E-04  0.8271E-04  0.8265E-04  0.8271E-04  0.8265E-04  0.1087E-05  0.1086E-05  0.1087E-05  0.1086E-05  0.1123E-05  0.1123E-05  0.1087E-05  0.1086E-05  0.1123E-05  0.1123E-05
      0.010  0.1389E-01  0.1388E-01  0.1655E-03  0.1654E-03  0.1655E-03  0.1654E-03  0.1655E-03  0.1654E-03  0.2744E-05  0.2738E-05  0.2744E-05  0.2738E-05  0.2927E-05  0.2926E-05  0.2744E-05  0.2738E-05  0.2927E-05  0.2926E-05
      0.106  0.1755E-01  0.1755E-01  0.2402E-03  0.2402E-03  0.2402E-03  0.2402E-03  0.2402E-03  0.2402E-03  0.5494E-05  0.5484E-05  0.5494E-05  0.5484E-05  0.3734E-05  0.3734E-05  0.5494E-05  0.5484E-05  0.3734E-05  0.3734E-05
      0.203  0.1277E-01  0.1278E-01  0.2051E-03  0.2052E-03  0.2051E-03  0.2052E-03  0.2051E-03  0.2052E-03  0.6243E-05  0.6234E-05  0.6243E-05  0.6234E-05  0.3242E-05  0.3240E-05  0.6243E-05  0.6234E-05  0.3242E-05  0.3240E-05
      0.299  0.1399E-01  0.1398E-01  0.2906E-03  0.2904E-03  0.2906E-03  0.2904E-03  0.2906E-03  0.2904E-03  0.1092E-04  0.1091E-04  0.1092E-04  0.1091E-04  0.6668E-05  0.6658E-05  0.1092E-04  0.1091E-04  0.6668E-05  0.6658E-05
      0.396  0.2136E-01  0.2136E-01  0.4967E-03  0.4965E-03  0.4967E-03  0.4965E-03  0.4967E-03  0.4965E-03  0.1767E-04  0.1767E-04  0.1767E-04  0.1767E-04  0.1677E-04  0.1675E-04  0.1767E-04  0.1767E-04  0.1677E-04  0.1675E-04
      0.492  0.2232E-01  0.2233E-01  0.5707E-03  0.5707E-03  0.5707E-03  0.5707E-03  0.5707E-03  0.5707E-03  0.1915E-04  0.1915E-04  0.1915E-04  0.1915E-04  0.2550E-04  0.2550E-04  0.1915E-04  0.1915E-04  0.2550E-04  0.2550E-04
      0.589  0.1906E-01  0.1906E-01  0.5428E-03  0.5428E-03  0.5428E-03  0.5428E-03  0.5428E-03  0.5428E-03  0.2575E-04  0.2574E-04  0.2575E-04  0.2574E-04  0.2167E-04  0.2168E-04  0.2575E-04  0.2574E-04  0.2167E-04  0.2168E-04
      0.685  0.2080E-01  0.2079E-01  0.6742E-03  0.6738E-03  0.6742E-03  0.6738E-03  0.6742E-03  0.6738E-03  0.4346E-04  0.4342E-04  0.4346E-04  0.4342E-04  0.2263E-04  0.2263E-04  0.4346E-04  0.4342E-04  0.2263E-04  0.2263E-04
      0.782  0.2532E-01  0.2532E-01  0.8772E-03  0.8773E-03  0.8772E-03  0.8773E-03  0.8772E-03  0.8773E-03  0.6245E-04  0.6242E-04  0.6245E-04  0.6242E-04  0.3041E-04  0.3041E-04  0.6245E-04  0.6242E-04  0.3041E-04  0.3041E-04
      0.878  0.1735E-01  0.1736E-01  0.6480E-03  0.6482E-03  0.6480E-03  0.6482E-03  0.6480E-03  0.6482E-03  0.4492E-04  0.4492E-04  0.4492E-04  0.4492E-04  0.3405E-04  0.3402E-04  0.4492E-04  0.4492E-04  0.3405E-04  0.3402E-04
      0.975  0.2099E-01  0.2097E-01  0.8963E-03  0.8954E-03  0.8963E-03  0.8954E-03  0.8963E-03  0.8954E-03  0.6091E-04  0.6084E-04  0.6091E-04  0.6084E-04  0.7203E-04  0.7193E-04  0.6091E-04  0.6084E-04  0.7203E-04  0.7193E-04
      1.071  0.3092E-01  0.3091E-01  0.1390E-02  0.1390E-02  0.1390E-02  0.1390E-02  0.1390E-02  0.1390E-02  0.1016E-03  0.1016E-03  0.1016E-03  0.1016E-03  0.1126E-03  0.1125E-03  0.1016E-03  0.1016E-03  0.1126E-03  0.1125E-03
      1.168  0.2901E-01  0.2902E-01  0.1382E-02  0.1382E-02  0.1382E-02  0.1382E-02  0.1382E-02  0.1382E-02  0.1189E-03  0.1189E-03  0.1189E-03  0.1189E-03  0.1027E-03  0.1027E-03  0.1189E-03  0.1189E-03  0.1027E-03  0.1027E-03
      1.264  0.2862E-01  0.2861E-01  0.1468E-02  0.1468E-02  0.1468E-02  0.1468E-02  0.1468E-02  0.1468E-02  0.1441E-03  0.1440E-03  0.1441E-03  0.1440E-03  0.1146E-03  0.1146E-03  0.1441E-03  0.1440E-03  0.1146E-03  0.1146E-03
      1.361  0.2947E-01  0.2948E-01  0.1583E-02  0.1583E-02  0.1583E-02  0.1583E-02  0.1583E-02  0.1583E-02  0.1889E-03  0.1889E-03  0.1889E-03  0.1889E-03  0.1148E-03  0.1149E-03  0.1889E-03  0.1889E-03  0.1148E-03  0.1149E-03
      1.457  0.1958E-01  0.1959E-01  0.1101E-02  0.1101E-02  0.1101E-02  0.1101E-02  0.1101E-02  0.1101E-02  0.1635E-03  0.1636E-03  0.1635E-03  0.1636E-03  0.6806E-04  0.6809E-04  0.1635E-03  0.1636E-03  0.6806E-04  0.6809E-04
      1.554  0.1984E-01  0.1983E-01  0.1236E-02  0.1235E-02  0.1236E-02  0.1235E-02  0.1236E-02  0.1235E-02  0.1800E-03  0.1799E-03  0.1800E-03  0.1799E-03  0.1135E-03  0.1133E-03  0.1800E-03  0.1799E-03  0.1135E-03  0.1133E-03
      1.650  0.3315E-01  0.3313E-01  0.2192E-02  0.2190E-02  0.2192E-02  0.2190E-02  0.2192E-02  0.2190E-02  0.2834E-03  0.2832E-03  0.2834E-03  0.2832E-03  0.2730E-03  0.2727E-03  0.2834E-03  0.2832E-03  0.2730E-03  0.2727E-03
      1.747  0.3967E-01  0.3967E-01  0.2707E-02  0.2707E-02  0.2707E-02  0.2707E-02  0.2707E-02  0.2707E-02  0.3499E-03  0.3498E-03  0.3499E-03  0.3498E-03  0.3918E-03  0.3917E-03  0.3499E-03  0.3498E-03  0.3918E-03  0.3917E-03
      1.843  0.3184E-01  0.3185E-01  0.2276E-02  0.2275E-02  0.2276E-02  0.2275E-02  0.2276E-02  0.2275E-02  0.3579E-03  0.3578E-03  0.3579E-03  0.3578E-03  0.3345E-03  0.3344E-03  0.3579E-03  0.3578E-03  0.3345E-03  0.3344E-03
      1.940  0.3633E-01  0.3633E-01  0.2732E-02  0.2731E-02  0.2732E-02  0.2731E-02  0.2732E-02  0.2731E-02  0.4900E-03  0.4902E-03  0.4900E-03  0.4902E-03  0.3981E-03  0.3979E-03  0.4900E-03  0.4902E-03  0.3981E-03  0.3979E-03
      2.036  0.2913E-01  0.2915E-01  0.2274E-02  0.2276E-02  0.2274E-02  0.2276E-02  0.2274E-02  0.2276E-02  0.3780E-03  0.3783E-03  0.3780E-03  0.3783E-03  0.3823E-03  0.3824E-03  0.3780E-03  0.3783E-03  0.3823E-03  0.3824E-03
      2.133  0.2250E-01  0.2250E-01  0.1872E-02  0.1871E-02  0.1872E-02  0.1871E-02  0.1872E-02  0.1871E-02  0.4180E-03  0.4176E-03  0.4180E-03  0.4176E-03  0.2529E-03  0.2528E-03  0.4180E-03  0.4176E-03  0.2529E-03  0.2528E-03
      2.229  0.3429E-01  0.3428E-01  0.2968E-02  0.2966E-02  0.2968E-02  0.2966E-02  0.2968E-02  0.2966E-02  0.8038E-03  0.8035E-03  0.8038E-03  0.8035E-03  0.3539E-03  0.3536E-03  0.8038E-03  0.8035E-03  0.3539E-03  0.3536E-03
      2.326  0.3903E-01  0.3903E-01  0.3505E-02  0.3504E-02  0.3505E-02  0.3504E-02  0.3505E-02  0.3504E-02  0.9262E-03  0.9263E-03  0.9262E-03  0.9263E-03  0.5361E-03  0.5357E-03  0.9262E-03  0.9263E-03  0.5361E-03  0.5357E-03
      2.422  0.3627E-01  0.3628E-01  0.3398E-02  0.3398E-02  0.3398E-02  0.3398E-02  0.3398E-02  0.3398E-02  0.8302E-03  0.8305E-03  0.8302E-03  0.8305E-03  0.7871E-03  0.7868E-03  0.8302E-03  0.8305E-03  0.7871E-03  0.7868E-03
      2.519  0.3500E-01  0.3500E-01  0.3431E-02  0.3430E-02  0.3431E-02  0.3430E-02  0.3431E-02  0.3430E-02  0.8077E-03  0.8077E-03  0.8077E-03  0.8077E-03  0.1063E-02  0.1063E-02  0.8077E-03  0.8077E-03  0.1063E-02  0.1063E-02
      2.615  0.3172E-01  0.3173E-01  0.3224E-02  0.3224E-02  0.3224E-02  0.3224E-02  0.3224E-02  0.3224E-02  0.8908E-03  0.8907E-03  0.8908E-03  0.8907E-03  0.1002E-02  0.1003E-02  0.8908E-03  0.8907E-03  0.1002E-02  0.1003E-02
      2.711  0.3926E-01  0.3924E-01  0.4194E-02  0.4192E-02  0.4194E-02  0.4192E-02  0.4194E-02  0.4192E-02  0.1302E-02  0.1302E-02  0.1302E-02  0.1302E-02  0.1254E-02  0.1253E-02  0.1302E-02  0.1302E-02  0.1254E-02  0.1253E-02
      2.808  0.4600E-01  0.4600E-01  0.5049E-02  0.5050E-02  0.5049E-02  0.5050E-02  0.5049E-02  0.5050E-02  0.1776E-02  0.1776E-02  0.1776E-02  0.1776E-02  0.1253E-02  0.1253E-02  0.1776E-02  0.1776E-02  0.1253E-02  0.1253E-02
      2.904  0.3793E-01  0.3794E-01  0.4269E-02  0.4269E-02  0.4269E-02  0.4269E-02  0.4269E-02  0.4269E-02  0.1799E-02  0.1799E-02  0.1799E-02  0.1799E-02  0.9763E-03  0.9762E-03  0.1799E-02  0.1799E-02  0.9763E-03  0.9762E-03
      3.001  0.3780E-01  0.3780E-01  0.4426E-02  0.4425E-02  0.4426E-02  0.4425E-02  0.4426E-02  0.4425E-02  0.1984E-02  0.1984E-02  0.1984E-02  0.1984E-02  0.1215E-02  0.1214E-02  0.1984E-02  0.1984E-02  0.1215E-02  0.1214E-02
      3.097  0.3517E-01  0.3517E-01  0.4245E-02  0.4245E-02  0.4245E-02  0.4245E-02  0.4245E-02  0.4245E-02  0.2035E-02  0.2035E-02  0.2035E-02  0.2035E-02  0.1466E-02  0.1466E-02  0.2035E-02  0.2035E-02  0.1466E-02  0.1466E-02