   4   4   1   0
  0.1200303E+02  0.3634547E-09  0.3634547E-09  0.3634547E-09  0.5000000E-15
  1.000000000000000E-004
  CAR 
 unknown system                          
     21.45321146     -2.95217359  301      7.40618007      1.00000000
     -2.952  0.0000E+00  0.0000E+00  0.0000E+00  0.0000E+00
     -2.871  0.0000E+00  0.0000E+00  0.0000E+00  0.0000E+00
     -2.789  0.0000E+00  0.0000E+00  0.0000E+00  0.0000E+00
     -2.708  0.0000E+00  0.0000E+00  0.0000E+00  0.0000E+00
     -2.627  0.0000E+00  0.0000E+00  0.0000E+00  0.0000E+00
     -2.545  0.0000E+00  0.0000E+00  0.0000E+00  0.0000E+00
     -2.464  0.0000E+00  0.0000E+00  0.0000E+00  0.0000E+00
     -2.383  0.0000E+00  0.0000E+00  0.0000E+00  0.0000E+00
     -2.301  0.5715E-06  0.5822E-06  0.4649E-07  0.4736E-07
     -2.220  0.6538E-05  0.6661E-05  0.5784E-06  0.5892E-06
     -2.139  0.3938E-04  0.4012E-04  0.3782E-05  0.3853E-05
     -2.057  0.1975E-03  0.2012E-03  0.1985E-04  0.2022E-04
     -1.976  0.9780E-03  0.9958E-03  0.9942E-04  0.1012E-03
     -1.895  0.4472E-02  0.4545E-02  0.4632E-03  0.4710E-03
     -1.813  0.1578E-01  0.1598E-01  0.1747E-02  0.1771E-02
     -1.732  0.3709E-01  0.3735E-01  0.4764E-02  0.4809E-02
     -1.651  0.5523E-01  0.5536E-01  0.9257E-02  0.9313E-02
     -1.569  0.6556E-01  0.6574E-01  0.1459E-01  0.1466E-01
     -1.488  0.9125E-01  0.9161E-01  0.2201E-01  0.2211E-01
     -1.406  0.1083E+00  0.1082E+00  0.3082E-01  0.3092E-01
     -1.325  0.8959E-01  0.8942E-01  0.3811E-01  0.3819E-01
     -1.244  0.1013E+00  0.1018E+00  0.4636E-01  0.4648E-01
     -1.162  0.1402E+00  0.1405E+00  0.5777E-01  0.5791E-01
     -1.081  0.1474E+00  0.1473E+00  0.6978E-01  0.6991E-01
     -1.000  0.1343E+00  0.1342E+00  0.8071E-01  0.8084E-01
     -0.918  0.1481E+00  0.1485E+00  0.9276E-01  0.9292E-01
     -0.837  0.1651E+00  0.1649E+00  0.1062E+00  0.1063E+00
     -0.756  0.1309E+00  0.1307E+00  0.1169E+00  0.1170E+00
     -0.674  0.1578E+00  0.1585E+00  0.1297E+00  0.1299E+00
     -0.593  0.2126E+00  0.2129E+00  0.1470E+00  0.1472E+00
     -0.512  0.2097E+00  0.2096E+00  0.1641E+00  0.1643E+00
     -0.430  0.2087E+00  0.2089E+00  0.1811E+00  0.1813E+00
     -0.349  0.2065E+00  0.2061E+00  0.1979E+00  0.1980E+00
     -0.268  0.1551E+00  0.1546E+00  0.2105E+00  0.2106E+00
     -0.186  0.1596E+00  0.1603E+00  0.2235E+00  0.2237E+00
     -0.105  0.2417E+00  0.2427E+00  0.2432E+00  0.2435E+00
     -0.024  0.2895E+00  0.2894E+00  0.2668E+00  0.2670E+00
      0.058  0.2560E+00  0.2558E+00  0.2876E+00  0.2878E+00
      0.139  0.2731E+00  0.2733E+00  0.3098E+00  0.3101E+00
      0.221  0.2437E+00  0.2428E+00  0.3297E+00  0.3298E+00
      0.302  0.1933E+00  0.1934E+00  0.3454E+00  0.3456E+00
      0.383  0.2541E+00  0.2550E+00  0.3661E+00  0.3663E+00
      0.465  0.3085E+00  0.3087E+00  0.3912E+00  0.3915E+00
      0.546  0.3009E+00  0.3006E+00  0.4157E+00  0.4159E+00
      0.627  0.2892E+00  0.2892E+00  0.4392E+00  0.4395E+00
      0.709  0.2864E+00  0.2862E+00  0.4625E+00  0.4628E+00
      0.790  0.3085E+00  0.3093E+00  0.4876E+00  0.4880E+00
      0.871  0.3933E+00  0.3938E+00  0.5197E+00  0.5200E+00
      0.953  0.3682E+00  0.3675E+00  0.5496E+00  0.5499E+00
      1.034  0.3341E+00  0.3342E+00  0.5768E+00  0.5771E+00
      1.115  0.3341E+00  0.3338E+00  0.6040E+00  0.6043E+00
      1.197  0.3080E+00  0.3080E+00  0.6291E+00  0.6294E+00
      1.278  0.3690E+00  0.3697E+00  0.6591E+00  0.6595E+00
      1.359  0.4075E+00  0.4076E+00  0.6923E+00  0.6926E+00
      1.441  0.4610E+00  0.4620E+00  0.7299E+00  0.7303E+00
      1.522  0.5666E+00  0.5668E+00  0.7760E+00  0.7764E+00
      1.603  0.4955E+00  0.4941E+00  0.8163E+00  0.8166E+00
      1.685  0.4087E+00  0.4084E+00  0.8496E+00  0.8499E+00
      1.766  0.4373E+00  0.4377E+00  0.8852E+00  0.8855E+00
      1.848  0.5041E+00  0.5048E+00  0.9262E+00  0.9266E+00
      1.929  0.6271E+00  0.6280E+00  0.9773E+00  0.9777E+00
      2.010  0.7057E+00  0.7058E+00  0.1035E+01  0.1035E+01
      2.092  0.7728E+00  0.7729E+00  0.1098E+01  0.1098E+01
      2.173  0.7543E+00  0.7532E+00  0.1159E+01  0.1159E+01
      2.254  0.7279E+00  0.7279E+00  0.1218E+01  0.1219E+01
      2.336  0.9987E+00  0.1000E+01  0.1300E+01  0.1300E+01
      2.417  0.1395E+01  0.1396E+01  0.1413E+01  0.1414E+01
      2.498  0.1507E+01  0.1506E+01  0.1536E+01  0.1536E+01
      2.580  0.1640E+01  0.1641E+01  0.1669E+01  0.1670E+01
      2.661  0.2080E+01  0.2081E+01  0.1839E+01  0.1839E+01
      2.742  0.2339E+01  0.2338E+01  0.2029E+01  0.2029E+01
      2.824  0.2386E+01  0.2385E+01  0.2223E+01  0.2224E+01
      2.905  0.2559E+01  0.2558E+01  0.2431E+01  0.2432E+01
      2.986  0.2671E+01  0.2670E+01  0.2649E+01  0.2649E+01
      3.068  0.2905E+01  0.2903E+01  0.2885E+01  0.2885E+01
      3.149  0.3524E+01  0.3522E+01  0.3172E+01  0.3172E+01
      3.231  0.3972E+01  0.3970E+01  0.3495E+01  0.3495E+01
      3.312  0.4481E+01  0.4479E+01  0.3860E+01  0.3860E+01
      3.393  0.4720E+01  0.4719E+01  0.4244E+01  0.4244E+01
      3.475  0.4637E+01  0.4637E+01  0.4621E+01  0.4621E+01
      3.556  0.4420E+01  0.4420E+01  0.4981E+01  0.4981E+01
      3.637  0.4365E+01  0.4365E+01  0.5337E+01  0.5336E+01
      3.719  0.4303E+01  0.4302E+01  0.5687E+01  0.5687E+01
      3.800  0.4349E+01  0.4348E+01  0.6041E+01  0.6041E+01
      3.881  0.4496E+01  0.4494E+01  0.6407E+01  0.6407E+01
      3.963  0.4952E+01  0.4949E+01  0.6810E+01  0.6810E+01
      4.044  0.5678E+01  0.5676E+01  0.7273E+01  0.7272E+01
      4.125  0.6160E+01  0.6159E+01  0.7774E+01  0.7773E+01
      4.207  0.6379E+01  0.6378E+01  0.8294E+01  0.8292E+01
      4.288  0.6950E+01  0.6947E+01  0.8859E+01  0.8858E+01
      4.369  0.7642E+01  0.7639E+01  0.9481E+01  0.9479E+01
      4.451  0.8040E+01  0.8036E+01  0.1014E+02  0.1013E+02
      4.532  0.8462E+01  0.8458E+01  0.1082E+02  0.1082E+02
      4.613  0.8480E+01  0.8481E+01  0.1151E+02  0.1151E+02
      4.695  0.7433E+01  0.7438E+01  0.1212E+02  0.1212E+02
      4.776  0.6252E+01  0.6255E+01  0.1263E+02  0.1263E+02
      4.858  0.5621E+01  0.5622E+01  0.1309E+02  0.1309E+02
      4.939  0.5659E+01  0.5657E+01  0.1355E+02  0.1355E+02
      5.020  0.6341E+01  0.6337E+01  0.1406E+02  0.1406E+02
      5.102  0.7078E+01  0.7075E+01  0.1464E+02  0.1464E+02
      5.183  0.7418E+01  0.7417E+01  0.1524E+02  0.1524E+02
      5.264  0.7302E+01  0.7302E+01  0.1584E+02  0.1584E+02
      5.346  0.6935E+01  0.6935E+01  0.1640E+02  0.1640E+02
      5.427  0.6758E+01  0.6758E+01  0.1695E+02  0.1695E+02
      5.508  0.6823E+01  0.6820E+01  0.1751E+02  0.1751E+02
      5.590  0.7528E+01  0.7522E+01  0.1812E+02  0.1812E+02
      5.671  0.8912E+01  0.8901E+01  0.1885E+02  0.1884E+02
      5.752  0.9983E+01  0.9982E+01  0.1966E+02  0.1966E+02
      5.834  0.8416E+01  0.8431E+01  0.2035E+02  0.2034E+02
      5.915  0.5202E+01  0.5220E+01  0.2077E+02  0.2077E+02
      5.996  0.2597E+01  0.2609E+01  0.2098E+02  0.2098E+02
      6.078  0.1126E+01  0.1130E+01  0.2107E+02  0.2107E+02
      6.159  0.7617E+00  0.7626E+00  0.2114E+02  0.2114E+02
      6.241  0.8829E+00  0.8825E+00  0.2121E+02  0.2121E+02
      6.322  0.8523E+00  0.8530E+00  0.2128E+02  0.2128E+02
      6.403  0.6536E+00  0.6543E+00  0.2133E+02  0.2133E+02
      6.485  0.6126E+00  0.6128E+00  0.2138E+02  0.2138E+02
      6.566  0.7791E+00  0.7791E+00  0.2144E+02  0.2144E+02
      6.647  0.8588E+00  0.8593E+00  0.2151E+02  0.2151E+02
      6.729  0.7416E+00  0.7421E+00  0.2157E+02  0.2157E+02
      6.810  0.6423E+00  0.6427E+00  0.2163E+02  0.2163E+02
      6.891  0.6080E+00  0.6079E+00  0.2168E+02  0.2168E+02
      6.973  0.5890E+00  0.5888E+00  0.2172E+02  0.2172E+02
      7.054  0.6404E+00  0.6404E+00  0.2178E+02  0.2178E+02
      7.135  0.7174E+00  0.7177E+00  0.2183E+02  0.2183E+02
      7.217  0.6844E+00  0.6846E+00  0.2189E+02  0.2189E+02
      7.298  0.6150E+00  0.6152E+00  0.2194E+02  0.2194E+02
      7.379  0.5504E+00  0.5507E+00  0.2199E+02  0.2199E+02
      7.461  0.5390E+00  0.5394E+00  0.2203E+02  0.2203E+02
      7.542  0.5193E+00  0.5193E+00  0.2207E+02  0.2207E+02
      7.623  0.5500E+00  0.5501E+00  0.2212E+02  0.2212E+02
      7.705  0.7403E+00  0.7410E+00  0.2218E+02  0.2218E+02
      7.786  0.8636E+00  0.8633E+00  0.2225E+02  0.2225E+02
      7.868  0.5891E+00  0.5880E+00  0.2229E+02  0.2230E+02
      7.949  0.3792E+00  0.3792E+00  0.2233E+02  0.2233E+02
      8.030  0.4707E+00  0.4714E+00  0.2236E+02  0.2236E+02
      8.112  0.5055E+00  0.5055E+00  0.2241E+02  0.2241E+02
      8.193  0.4222E+00  0.4222E+00  0.2244E+02  0.2244E+02
      8.274  0.4878E+00  0.4886E+00  0.2248E+02  0.2248E+02
      8.356  0.6549E+00  0.6553E+00  0.2253E+02  0.2253E+02
      8.437  0.6958E+00  0.6953E+00  0.2259E+02  0.2259E+02
      8.518  0.5872E+00  0.5870E+00  0.2264E+02  0.2264E+02
      8.600  0.5647E+00  0.5651E+00  0.2268E+02  0.2268E+02
      8.681  0.5934E+00  0.5934E+00  0.2273E+02  0.2273E+02
      8.762  0.5335E+00  0.5332E+00  0.2277E+02  0.2278E+02
      8.844  0.4448E+00  0.4445E+00  0.2281E+02  0.2281E+02
      8.925  0.3522E+00  0.3517E+00  0.2284E+02  0.2284E+02
      9.006  0.3378E+00  0.3381E+00  0.2287E+02  0.2287E+02
      9.088  0.4194E+00  0.4204E+00  0.2290E+02  0.2290E+02
      9.169  0.5673E+00  0.5682E+00  0.2295E+02  0.2295E+02
      9.251  0.6301E+00  0.6303E+00  0.2300E+02  0.2300E+02
      9.332  0.6665E+00  0.6665E+00  0.2305E+02  0.2305E+02
      9.413  0.6545E+00  0.6537E+00  0.2311E+02  0.2311E+02
      9.495  0.4702E+00  0.4691E+00  0.2314E+02  0.2314E+02
      9.576  0.3198E+00  0.3196E+00  0.2317E+02  0.2317E+02
      9.657  0.3611E+00  0.3621E+00  0.2320E+02  0.2320E+02
      9.739  0.5589E+00  0.5599E+00  0.2325E+02  0.2325E+02
      9.820  0.5345E+00  0.5333E+00  0.2329E+02  0.2329E+02
      9.901  0.3279E+00  0.3267E+00  0.2332E+02  0.2332E+02
      9.983  0.2027E+00  0.2024E+00  0.2333E+02  0.2333E+02
     10.064  0.2635E+00  0.2644E+00  0.2335E+02  0.2335E+02
     10.145  0.3912E+00  0.3919E+00  0.2339E+02  0.2339E+02
     10.227  0.4751E+00  0.4755E+00  0.2342E+02  0.2342E+02
     10.308  0.4961E+00  0.4960E+00  0.2346E+02  0.2347E+02
     10.389  0.4784E+00  0.4786E+00  0.2350E+02  0.2350E+02
     10.471  0.4901E+00  0.4901E+00  0.2354E+02  0.2354E+02
     10.552  0.4799E+00  0.4794E+00  0.2358E+02  0.2358E+02
     10.633  0.3466E+00  0.3455E+00  0.2361E+02  0.2361E+02
     10.715  0.2107E+00  0.2102E+00  0.2363E+02  0.2363E+02
     10.796  0.1719E+00  0.1719E+00  0.2364E+02  0.2364E+02
     10.878  0.2102E+00  0.2107E+00  0.2366E+02  0.2366E+02
     10.959  0.3180E+00  0.3186E+00  0.2369E+02  0.2369E+02
     11.040  0.3453E+00  0.3449E+00  0.2371E+02  0.2371E+02
     11.122  0.3224E+00  0.3223E+00  0.2374E+02  0.2374E+02
     11.203  0.4237E+00  0.4244E+00  0.2377E+02  0.2377E+02
     11.284  0.5671E+00  0.5681E+00  0.2382E+02  0.2382E+02
     11.366  0.6948E+00  0.6952E+00  0.2388E+02  0.2388E+02
     11.447  0.6526E+00  0.6519E+00  0.2393E+02  0.2393E+02
     11.528  0.5855E+00  0.5852E+00  0.2398E+02  0.2398E+02
     11.610  0.6212E+00  0.6215E+00  0.2403E+02  0.2403E+02
     11.691  0.6279E+00  0.6277E+00  0.2408E+02  0.2408E+02
     11.772  0.5654E+00  0.5652E+00  0.2413E+02  0.2413E+02
     11.854  0.4981E+00  0.4978E+00  0.2417E+02  0.2417E+02
     11.935  0.4825E+00  0.4826E+00  0.2421E+02  0.2421E+02
     12.016  0.5063E+00  0.5069E+00  0.2425E+02  0.2425E+02
     12.098  0.5931E+00  0.5936E+00  0.2429E+02  0.2429E+02
     12.179  0.5828E+00  0.5826E+00  0.2434E+02  0.2434E+02
     12.261  0.6030E+00  0.6037E+00  0.2439E+02  0.2439E+02
     12.342  0.7156E+00  0.7161E+00  0.2445E+02  0.2445E+02
     12.423  0.7428E+00  0.7423E+00  0.2451E+02  0.2451E+02
     12.505  0.5509E+00  0.5495E+00  0.2455E+02  0.2456E+02
     12.586  0.3780E+00  0.3777E+00  0.2459E+02  0.2459E+02
     12.667  0.4401E+00  0.4412E+00  0.2462E+02  0.2462E+02
     12.749  0.5486E+00  0.5489E+00  0.2467E+02  0.2467E+02
     12.830  0.5296E+00  0.5295E+00  0.2471E+02  0.2471E+02
     12.911  0.5746E+00  0.5752E+00  0.2476E+02  0.2476E+02
     12.993  0.6482E+00  0.6483E+00  0.2481E+02  0.2481E+02
     13.074  0.6036E+00  0.6033E+00  0.2486E+02  0.2486E+02
     13.155  0.5621E+00  0.5619E+00  0.2490E+02  0.2490E+02
     13.237  0.5061E+00  0.5056E+00  0.2494E+02  0.2495E+02
     13.318  0.4756E+00  0.4757E+00  0.2498E+02  0.2498E+02
     13.399  0.4670E+00  0.4667E+00  0.2502E+02  0.2502E+02
     13.481  0.4330E+00  0.4331E+00  0.2506E+02  0.2506E+02
     13.562  0.4964E+00  0.4967E+00  0.2510E+02  0.2510E+02
     13.643  0.4634E+00  0.4625E+00  0.2513E+02  0.2514E+02
     13.725  0.3461E+00  0.3457E+00  0.2516E+02  0.2516E+02
     13.806  0.4084E+00  0.4094E+00  0.2520E+02  0.2520E+02
     13.888  0.5382E+00  0.5388E+00  0.2524E+02  0.2524E+02
     13.969  0.5385E+00  0.5380E+00  0.2528E+02  0.2528E+02
     14.050  0.4457E+00  0.4454E+00  0.2532E+02  0.2532E+02
     14.132  0.5109E+00  0.5118E+00  0.2536E+02  0.2536E+02
     14.213  0.5879E+00  0.5882E+00  0.2541E+02  0.2541E+02
     14.294  0.5463E+00  0.5454E+00  0.2545E+02  0.2545E+02
     14.376  0.4116E+00  0.4110E+00  0.2549E+02  0.2549E+02
     14.457  0.5001E+00  0.5017E+00  0.2553E+02  0.2553E+02
     14.538  0.7294E+00  0.7303E+00  0.2559E+02  0.2559E+02
     14.620  0.6658E+00  0.6645E+00  0.2564E+02  0.2564E+02
     14.701  0.4610E+00  0.4597E+00  0.2568E+02  0.2568E+02
     14.782  0.3320E+00  0.3316E+00  0.2571E+02  0.2571E+02
     14.864  0.3400E+00  0.3405E+00  0.2573E+02  0.2573E+02
     14.945  0.4500E+00  0.4511E+00  0.2577E+02  0.2577E+02
     15.026  0.6545E+00  0.6562E+00  0.2582E+02  0.2582E+02
     15.108  0.8558E+00  0.8567E+00  0.2589E+02  0.2589E+02
     15.189  0.9097E+00  0.9097E+00  0.2597E+02  0.2597E+02
     15.271  0.8875E+00  0.8875E+00  0.2604E+02  0.2604E+02
     15.352  0.8687E+00  0.8681E+00  0.2611E+02  0.2611E+02
     15.433  0.7286E+00  0.7273E+00  0.2617E+02  0.2617E+02
     15.515  0.6775E+00  0.6774E+00  0.2623E+02  0.2623E+02
     15.596  0.6927E+00  0.6926E+00  0.2628E+02  0.2628E+02
     15.677  0.6239E+00  0.6236E+00  0.2633E+02  0.2633E+02
     15.759  0.5937E+00  0.5939E+00  0.2638E+02  0.2638E+02
     15.840  0.5879E+00  0.5873E+00  0.2643E+02  0.2643E+02
     15.921  0.5582E+00  0.5576E+00  0.2647E+02  0.2647E+02
     16.003  0.6764E+00  0.6752E+00  0.2653E+02  0.2653E+02
     16.084  0.7502E+00  0.7446E+00  0.2659E+02  0.2659E+02
     16.165  0.6535E+00  0.6530E+00  0.2664E+02  0.2664E+02
     16.247  0.5171E+00  0.5218E+00  0.2669E+02  0.2669E+02
     16.328  0.5403E+00  0.5436E+00  0.2673E+02  0.2673E+02
     16.409  0.7607E+00  0.7619E+00  0.2679E+02  0.2679E+02
     16.491  0.9110E+00  0.9104E+00  0.2687E+02  0.2687E+02
     16.572  0.9579E+00  0.9589E+00  0.2694E+02  0.2694E+02
     16.653  0.7967E+00  0.7982E+00  0.2701E+02  0.2701E+02
     16.735  0.6026E+00  0.6015E+00  0.2706E+02  0.2706E+02
     16.816  0.5555E+00  0.5543E+00  0.2710E+02  0.2710E+02
     16.898  0.5904E+00  0.5899E+00  0.2715E+02  0.2715E+02
     16.979  0.6716E+00  0.6711E+00  0.2721E+02  0.2721E+02
     17.060  0.7130E+00  0.7119E+00  0.2726E+02  0.2726E+02
     17.142  0.6544E+00  0.6534E+00  0.2732E+02  0.2732E+02
     17.223  0.6656E+00  0.6612E+00  0.2737E+02  0.2737E+02
     17.304  0.6461E+00  0.6252E+00  0.2742E+02  0.2742E+02
     17.386  0.6694E+00  0.6233E+00  0.2748E+02  0.2747E+02
     17.467  0.5735E+00  0.5466E+00  0.2753E+02  0.2752E+02
     17.548  0.4088E+00  0.4349E+00  0.2756E+02  0.2755E+02
     17.630  0.4790E+00  0.5262E+00  0.2760E+02  0.2760E+02
     17.711  0.6987E+00  0.7495E+00  0.2765E+02  0.2766E+02
     17.792  0.6725E+00  0.7552E+00  0.2771E+02  0.2772E+02
     17.874  0.4545E+00  0.4913E+00  0.2775E+02  0.2776E+02
     17.955  0.3520E+00  0.2558E+00  0.2777E+02  0.2778E+02
     18.036  0.3428E+00  0.2170E+00  0.2780E+02  0.2780E+02
     18.118  0.3031E+00  0.2934E+00  0.2783E+02  0.2782E+02
     18.199  0.2484E+00  0.3047E+00  0.2785E+02  0.2785E+02
     18.281  0.1853E+00  0.2178E+00  0.2786E+02  0.2786E+02
     18.362  0.2110E+00  0.2443E+00  0.2788E+02  0.2788E+02
     18.443  0.3204E+00  0.3602E+00  0.2791E+02  0.2791E+02
     18.525  0.3197E+00  0.3102E+00  0.2793E+02  0.2794E+02
     18.606  0.2081E+00  0.1610E+00  0.2795E+02  0.2795E+02
     18.687  0.1514E+00  0.1307E+00  0.2796E+02  0.2796E+02
     18.769  0.9788E-01  0.9742E-01  0.2797E+02  0.2797E+02
     18.850  0.6083E-01  0.6237E-01  0.2797E+02  0.2797E+02
     18.931  0.5067E-01  0.5064E-01  0.2798E+02  0.2798E+02
     19.013  0.3366E-01  0.3323E-01  0.2798E+02  0.2798E+02
     19.094  0.2045E-01  0.2035E-01  0.2798E+02  0.2798E+02
     19.175  0.2027E-01  0.2046E-01  0.2798E+02  0.2798E+02
     19.257  0.1388E-01  0.1490E-01  0.2799E+02  0.2799E+02
     19.338  0.1245E-01  0.1696E-01  0.2799E+02  0.2799E+02
     19.419  0.3235E-01  0.4112E-01  0.2799E+02  0.2799E+02
     19.501  0.5191E-01  0.4896E-01  0.2799E+02  0.2799E+02
     19.582  0.2940E-01  0.2129E-01  0.2800E+02  0.2800E+02
     19.663  0.8270E-02  0.5558E-02  0.2800E+02  0.2800E+02
     19.745  0.2802E-02  0.2761E-02  0.2800E+02  0.2800E+02
     19.826  0.4964E-02  0.6686E-02  0.2800E+02  0.2800E+02
     19.908  0.1164E-01  0.1278E-01  0.2800E+02  0.2800E+02
     19.989  0.1087E-01  0.8813E-02  0.2800E+02  0.2800E+02
     20.070  0.3947E-02  0.2679E-02  0.2800E+02  0.2800E+02
     20.152  0.9964E-03  0.6737E-03  0.2800E+02  0.2800E+02
     20.233  0.6151E-03  0.5529E-03  0.2800E+02  0.2800E+02
     20.314  0.1444E-02  0.1455E-02  0.2800E+02  0.2800E+02
     20.396  0.2136E-02  0.2133E-02  0.2800E+02  0.2800E+02
     20.477  0.1101E-02  0.1091E-02  0.2800E+02  0.2800E+02
     20.558  0.2893E-03  0.2858E-03  0.2800E+02  0.2800E+02
     20.640  0.6065E-04  0.5987E-04  0.2800E+02  0.2800E+02
     20.721  0.1208E-04  0.1192E-04  0.2800E+02  0.2800E+02
     20.802  0.0000E+00  0.0000E+00  0.2800E+02  0.2800E+02
     20.884  0.0000E+00  0.0000E+00  0.2800E+02  0.2800E+02
     20.965  0.0000E+00  0.0000E+00  0.2800E+02  0.2800E+02
     21.046  0.0000E+00  0.0000E+00  0.2800E+02  0.2800E+02
     21.128  0.0000E+00  0.0000E+00  0.2800E+02  0.2800E+02
     21.209  0.0000E+00  0.0000E+00  0.2800E+02  0.2800E+02
     21.291  0.0000E+00  0.0000E+00  0.2800E+02  0.2800E+02
     21.372  0.0000E+00  0.0000E+00  0.2800E+02  0.2800E+02
     21.453  0.0000E+00  0.0000E+00  0.2800E+02  0.2800E+02
     21.45321146     -2.95217359  301      7.40618007      1.00000000
     -2.952  0.0000E+00  0.0000E+00  0.0000E+00  0.0000E+00  0.0000E+00  0.0000E+00  0.0000E+00  0.0000E+00  0.0000E+00  0.0000E+00  0.0000E+00  0.0000E+00  0.0000E+00  0.0000E+00  0.0000E+00  0.0000E+00  0.0000E+00  0.0000E+00
     -2.871  0.0000E+00  0.0000E+00  0.0000E+00  0.0000E+00  0.0000E+00  0.0000E+00  0.0000E+00  0.0000E+00  0.0000E+00  0.0000E+00  0.0000E+00  0.0000E+00  0.0000E+00  0.0000E+00  0.0000E+00  0.0000E+00  0.0000E+00  0.0000E+00
     -2.789  0.0000E+00  0.0000E+00  0.0000E+00  0.0000E+00  0.0000E+00  0.0000E+00  0.0000E+00  0.0000E+00  0.0000E+00  0.0000E+00  0.0000E+00  0.0000E+00  0.0000E+00  0.0000E+00  0.0000E+00  0.0000E+00  0.0000E+00  0.0000E+00
     -2.708  0.0000E+00  0.0000E+00  0.0000E+00  0.0000E+00  0.0000E+00  0.0000E+00  0.0000E+00  0.0000E+00  0.0000E+00  0.0000E+00  0.0000E+00  0.0000E+00  0.0000E+00  0.0000E+00  0.0000E+00  0.0000E+00  0.0000E+00  0.0000E+00
     -2.627  0.0000E+00  0.0000E+00  0.0000E+00  0.0000E+00  0.0000E+00  0.0000E+00  0.0000E+00  0.0000E+00  0.0000E+00  0.0000E+00  0.0000E+00  0.0000E+00  0.0000E+00  0.0000E+00  0.0000E+00  0.0000E+00  0.0000E+00  0.0000E+00
     -2.545  0.0000E+00  0.0000E+00  0.0000E+00  0.0000E+00  0.0000E+00  0.0000E+00  0.0000E+00  0.0000E+00  0.0000E+00  0.0000E+00  0.0000E+00  0.0000E+00  0.0000E+00  0.0000E+00  0.0000E+00  0.0000E+00  0.0000E+00  0.0000E+00
     -2.464  0.0000E+00  0.0000E+00  0.0000E+00  0.0000E+00  0.0000E+00  0.0000E+00  0.0000E+00  0.0000E+00  0.0000E+00  0.0000E+00  0.0000E+00  0.0000E+00  0.0000E+00  0.0000E+00  0.0000E+00  0.0000E+00  0.0000E+00  0.0000E+00
     -2.383  0.0000E+00  0.0000E+00  0.0000E+00  0.0000E+00  0.0000E+00  0.0000E+00  0.0000E+00  0.0000E+00  0.0000E+00  0.0000E+00  0.0000E+00  0.0000E+00  0.0000E+00  0.0000E+00  0.0000E+00  0.0000E+00  0.0000E+00  0.0000E+00
     -2.301  0.8231E-07  0.8387E-07  0.6752E-21  0.5451E-20  0.6752E-21  0.5451E-20  0.6752E-21  0.5451E-20  0.5313E-17  0.6614E-16  0.5313E-17  0.6614E-16  0.1498E-17  0.3867E-16  0.5313E-17  0.6614E-16  0.1498E-17  0.3867E-16
     -2.220  0.9381E-06  0.9557E-06  0.1243E-08  0.1267E-08  0.1243E-08  0.1267E-08  0.1243E-08  0.1267E-08  0.2222E-16  0.2705E-15  0.2222E-16  0.2705E-15  0.9464E-11  0.9676E-11  0.2222E-16  0.2705E-15  0.9464E-11  0.9676E-11
     -2.139  0.5639E-05  0.5745E-05  0.1117E-07  0.1138E-07  0.1117E-07  0.1138E-07  0.1117E-07  0.1138E-07  0.5948E-10  0.6072E-10  0.5948E-10  0.6072E-10  0.6171E-10  0.6302E-10  0.5948E-10  0.6072E-10  0.6171E-10  0.6302E-10
     -2.057  0.2828E-04  0.2881E-04  0.5817E-07  0.5926E-07  0.5817E-07  0.5926E-07  0.5817E-07  0.5926E-07  0.3958E-09  0.4024E-09  0.3958E-09  0.4024E-09  0.2903E-09  0.2965E-09  0.3958E-09  0.4024E-09  0.2903E-09  0.2965E-09
     -1.976  0.1400E-03  0.1425E-03  0.2952E-06  0.3007E-06  0.2952E-06  0.3007E-06  0.2952E-06  0.3007E-06  0.1856E-08  0.1888E-08  0.1856E-08  0.1888E-08  0.1759E-08  0.1793E-08  0.1856E-08  0.1888E-08  0.1759E-08  0.1793E-08
     -1.895  0.6397E-03  0.6501E-03  0.1506E-05  0.1533E-05  0.1506E-05  0.1533E-05  0.1506E-05  0.1533E-05  0.1080E-07  0.1097E-07  0.1080E-07  0.1097E-07  0.9656E-08  0.9831E-08  0.1080E-07  0.1097E-07  0.9656E-08  0.9831E-08
     -1.813  0.2254E-02  0.2282E-02  0.6389E-05  0.6486E-05  0.6389E-05  0.6486E-05  0.6389E-05  0.6486E-05  0.5024E-07  0.5100E-07  0.5024E-07  0.5100E-07  0.3980E-07  0.4039E-07  0.5024E-07  0.5100E-07  0.3980E-07  0.4039E-07
     -1.732  0.5283E-02  0.5320E-02  0.1976E-04  0.1997E-04  0.1976E-04  0.1997E-04  0.1976E-04  0.1997E-04  0.1995E-06  0.2017E-06  0.1995E-06  0.2017E-06  0.1269E-06  0.1282E-06  0.1995E-06  0.2017E-06  0.1269E-06  0.1282E-06
     -1.651  0.7835E-02  0.7853E-02  0.4045E-04  0.4071E-04  0.4045E-04  0.4071E-04  0.4045E-04  0.4071E-04  0.5312E-06  0.5333E-06  0.5312E-06  0.5333E-06  0.3572E-06  0.3602E-06  0.5312E-06  0.5333E-06  0.3572E-06  0.3602E-06
     -1.569  0.9234E-02  0.9257E-02  0.6994E-04  0.7042E-04  0.6994E-04  0.7042E-04  0.6994E-04  0.7042E-04  0.1092E-05  0.1095E-05  0.1092E-05  0.1095E-05  0.1076E-05  0.1084E-05  0.1092E-05  0.1095E-05  0.1076E-05  0.1084E-05
     -1.488  0.1276E-01  0.1281E-01  0.1283E-03  0.1291E-03  0.1283E-03  0.1291E-03  0.1283E-03  0.1291E-03  0.2526E-05  0.2537E-05  0.2526E-05  0.2537E-05  0.2369E-05  0.2375E-05  0.2526E-05  0.2537E-05  0.2369E-05  0.2375E-05
     -1.406  0.1507E-01  0.1506E-01  0.1748E-03  0.1749E-03  0.1748E-03  0.1749E-03  0.1748E-03  0.1749E-03  0.4532E-05  0.4536E-05  0.4532E-05  0.4536E-05  0.3016E-05  0.3009E-05  0.4532E-05  0.4536E-05  0.3016E-05  0.3009E-05
     -1.325  0.1238E-01  0.1236E-01  0.1715E-03  0.1716E-03  0.1715E-03  0.1716E-03  0.1715E-03  0.1716E-03  0.5846E-05  0.5858E-05  0.5846E-05  0.5858E-05  0.3285E-05  0.3294E-05  0.5846E-05  0.5858E-05  0.3285E-05  0.3294E-05
     -1.244  0.1385E-01  0.1391E-01  0.2423E-03  0.2438E-03  0.2423E-03  0.2438E-03  0.2423E-03  0.2438E-03  0.9797E-05  0.9854E-05  0.9797E-05  0.9854E-05  0.6622E-05  0.6684E-05  0.9797E-05  0.9854E-05  0.6622E-05  0.6684E-05
     -1.162  0.1903E-01  0.1907E-01  0.3738E-03  0.3750E-03  0.3738E-03  0.3750E-03  0.3738E-03  0.3750E-03  0.1462E-04  0.1466E-04  0.1462E-04  0.1466E-04  0.1421E-04  0.1430E-04  0.1462E-04  0.1466E-04  0.1421E-04  0.1430E-04
     -1.081  0.1990E-01  0.1988E-01  0.4294E-03  0.4295E-03  0.4294E-03  0.4295E-03  0.4294E-03  0.4295E-03  0.1718E-04  0.1723E-04  0.1718E-04  0.1723E-04  0.1995E-04  0.1998E-04  0.1718E-04  0.1723E-04  0.1995E-04  0.1998E-04
     -1.000  0.1798E-01  0.1796E-01  0.4335E-03  0.4338E-03  0.4335E-03  0.4338E-03  0.4335E-03  0.4338E-03  0.2373E-04  0.2385E-04  0.2373E-04  0.2385E-04  0.1845E-04  0.1843E-04  0.2373E-04  0.2385E-04  0.1845E-04  0.1843E-04
     -0.918  0.1964E-01  0.1969E-01  0.5337E-03  0.5355E-03  0.5337E-03  0.5355E-03  0.5337E-03  0.5355E-03  0.3811E-04  0.3831E-04  0.3811E-04  0.3831E-04  0.2020E-04  0.2026E-04  0.3811E-04  0.3831E-04  0.2020E-04  0.2026E-04
     -0.837  0.2176E-01  0.2174E-01  0.6332E-03  0.6328E-03  0.6332E-03  0.6328E-03  0.6332E-03  0.6328E-03  0.4946E-04  0.4945E-04  0.4946E-04  0.4945E-04  0.2568E-04  0.2571E-04  0.4946E-04  0.4945E-04  0.2568E-04  0.2571E-04
     -0.756  0.1711E-01  0.1708E-01  0.5424E-03  0.5420E-03  0.5424E-03  0.5420E-03  0.5424E-03  0.5420E-03  0.4167E-04  0.4163E-04  0.4167E-04  0.4163E-04  0.3284E-04  0.3300E-04  0.4167E-04  0.4163E-04  0.3284E-04  0.3300E-04
     -0.674  0.2036E-01  0.2045E-01  0.7271E-03  0.7312E-03  0.7271E-03  0.7312E-03  0.7271E-03  0.7312E-03  0.5603E-04  0.5639E-04  0.5603E-04  0.5639E-04  0.6166E-04  0.6206E-04  0.5603E-04  0.5639E-04  0.6166E-04  0.6206E-04
     -0.593  0.2726E-01  0.2729E-01  0.1029E-02  0.1030E-02  0.1029E-02  0.1030E-02  0.1029E-02  0.1030E-02  0.8595E-04  0.8623E-04  0.8595E-04  0.8623E-04  0.8914E-04  0.8926E-04  0.8595E-04  0.8623E-04  0.8914E-04  0.8926E-04
     -0.512  0.2669E-01  0.2667E-01  0.1066E-02  0.1066E-02  0.1066E-02  0.1066E-02  0.1066E-02  0.1066E-02  0.1036E-03  0.1038E-03  0.1036E-03  0.1038E-03  0.8778E-04  0.8774E-04  0.1036E-03  0.1038E-03  0.8778E-04  0.8774E-04
     -0.430  0.2631E-01  0.2633E-01  0.1126E-02  0.1127E-02  0.1126E-02  0.1127E-02  0.1126E-02  0.1127E-02  0.1260E-03  0.1264E-03  0.1260E-03  0.1264E-03  0.9513E-04  0.9529E-04  0.1260E-03  0.1264E-03  0.9513E-04  0.9529E-04
     -0.349  0.2584E-01  0.2579E-01  0.1159E-02  0.1158E-02  0.1159E-02  0.1158E-02  0.1159E-02  0.1158E-02  0.1544E-03  0.1546E-03  0.1544E-03  0.1546E-03  0.9215E-04  0.9187E-04  0.1544E-03  0.1546E-03  0.9215E-04  0.9187E-04
     -0.268  0.1924E-01  0.1918E-01  0.9096E-03  0.9074E-03  0.9096E-03  0.9074E-03  0.9096E-03  0.9074E-03  0.1449E-03  0.1448E-03  0.1449E-03  0.1448E-03  0.6732E-04  0.6724E-04  0.1449E-03  0.1448E-03  0.6732E-04  0.6724E-04
     -0.186  0.1949E-01  0.1957E-01  0.1013E-02  0.1017E-02  0.1013E-02  0.1017E-02  0.1013E-02  0.1017E-02  0.1633E-03  0.1639E-03  0.1633E-03  0.1639E-03  0.1038E-03  0.1046E-03  0.1633E-03  0.1639E-03  0.1038E-03  0.1046E-03
     -0.105  0.2921E-01  0.2933E-01  0.1609E-02  0.1616E-02  0.1609E-02  0.1616E-02  0.1609E-02  0.1616E-02  0.2394E-03  0.2403E-03  0.2394E-03  0.2403E-03  0.2174E-03  0.2186E-03  0.2394E-03  0.2403E-03  0.2174E-03  0.2186E-03
     -0.024  0.3475E-01  0.3473E-01  0.1978E-02  0.1978E-02  0.1978E-02  0.1978E-02  0.1978E-02  0.1978E-02  0.2932E-03  0.2932E-03  0.2932E-03  0.2932E-03  0.3086E-03  0.3085E-03  0.2932E-03  0.2932E-03  0.3086E-03  0.3085E-03
      0.058  0.3042E-01  0.3040E-01  0.1809E-02  0.1808E-02  0.1809E-02  0.1808E-02  0.1809E-02  0.1808E-02  0.3109E-03  0.3115E-03  0.3109E-03  0.3115E-03  0.2923E-03  0.2917E-03  0.3109E-03  0.3115E-03  0.2923E-03  0.2917E-03
      0.139  0.3208E-01  0.3210E-01  0.2004E-02  0.2007E-02  0.2004E-02  0.2007E-02  0.2004E-02  0.2007E-02  0.3979E-03  0.3984E-03  0.3979E-03  0.3984E-03  0.3213E-03  0.3217E-03  0.3979E-03  0.3984E-03  0.3213E-03  0.3217E-03
      0.221  0.2839E-01  0.2830E-01  0.1840E-02  0.1835E-02  0.1840E-02  0.1835E-02  0.1840E-02  0.1835E-02  0.3602E-03  0.3591E-03  0.3602E-03  0.3591E-03  0.3254E-03  0.3243E-03  0.3602E-03  0.3591E-03  0.3254E-03  0.3243E-03
      0.302  0.2220E-01  0.2221E-01  0.1523E-02  0.1524E-02  0.1523E-02  0.1524E-02  0.1523E-02  0.1524E-02  0.3659E-03  0.3672E-03  0.3659E-03  0.3672E-03  0.2418E-03  0.2412E-03  0.3659E-03  0.3672E-03  0.2418E-03  0.2412E-03
      0.383  0.2876E-01  0.2886E-01  0.2072E-02  0.2080E-02  0.2072E-02  0.2080E-02  0.2072E-02  0.2080E-02  0.6153E-03  0.6180E-03  0.6153E-03  0.6180E-03  0.2878E-03  0.2887E-03  0.6153E-03  0.6180E-03  0.2878E-03  0.2887E-03
      0.465  0.3458E-01  0.3459E-01  0.2571E-02  0.2574E-02  0.2571E-02  0.2574E-02  0.2571E-02  0.2574E-02  0.7854E-03  0.7854E-03  0.7854E-03  0.7854E-03  0.4130E-03  0.4142E-03  0.7854E-03  0.7854E-03  0.4130E-03  0.4142E-03
      0.546  0.3331E-01  0.3327E-01  0.2573E-02  0.2572E-02  0.2573E-02  0.2572E-02  0.2573E-02  0.2572E-02  0.7485E-03  0.7469E-03  0.7485E-03  0.7469E-03  0.5744E-03  0.5760E-03  0.7485E-03  0.7469E-03  0.5744E-03  0.5760E-03
      0.627  0.3149E-01  0.3149E-01  0.2545E-02  0.2547E-02  0.2545E-02  0.2547E-02  0.2545E-02  0.2547E-02  0.6886E-03  0.6882E-03  0.6886E-03  0.6882E-03  0.8009E-03  0.8026E-03  0.6886E-03  0.6882E-03  0.8009E-03  0.8026E-03
      0.709  0.3074E-01  0.3071E-01  0.2581E-02  0.2580E-02  0.2581E-02  0.2580E-02  0.2581E-02  0.2580E-02  0.7460E-03  0.7462E-03  0.7460E-03  0.7462E-03  0.8886E-03  0.8876E-03  0.7460E-03  0.7462E-03  0.8886E-03  0.8876E-03
      0.790  0.3254E-01  0.3263E-01  0.2860E-02  0.2869E-02  0.2860E-02  0.2869E-02  0.2860E-02  0.2869E-02  0.9728E-03  0.9764E-03  0.9728E-03  0.9764E-03  0.9579E-03  0.9594E-03  0.9728E-03  0.9764E-03  0.9579E-03  0.9594E-03
      0.871  0.4104E-01  0.4108E-01  0.3723E-02  0.3728E-02  0.3723E-02  0.3728E-02  0.3723E-02  0.3728E-02  0.1427E-02  0.1429E-02  0.1427E-02  0.1429E-02  0.1125E-02  0.1124E-02  0.1427E-02  0.1429E-02  0.1125E-02  0.1124E-02
      0.953  0.3801E-01  0.3793E-01  0.3522E-02  0.3515E-02  0.3522E-02  0.3515E-02  0.3522E-02  0.3515E-02  0.1578E-02  0.1576E-02  0.1578E-02  0.1576E-02  0.9358E-03  0.9329E-03  0.1578E-02  0.1576E-02  0.9358E-03  0.9329E-03
      1.034  0.3384E-01  0.3384E-01  0.3248E-02  0.3250E-02  0.3248E-02  0.3250E-02  0.3248E-02  0.3250E-02  0.1625E-02  0.1626E-02  0.1625E-02  0.1626E-02  0.9287E-03  0.9299E-03  0.1625E-02  0.1626E-02  0.9287E-03  0.9299E-03
      1.115  0.3325E-01  0.3322E-01  0.3303E-02  0.3301E-02  0.3303E-02  0.3301E-02  0.3303E-02  0.3301E-02  0.1709E-02  0.1707E-02  0.1709E-02  0.1707E-02  0.1109E-02  0.1110E-02  0.1709E-02  0.1707E-02  0.1109E-02  0.1110E-02