   4   4   1   0
  0.1129716E+02  0.3561856E-09  0.3561856E-09  0.3561856E-09  0.5000000E-15
  1.000000000000000E-004
  CAR 
 unknown system                          
     22.73713616     -2.70297087  301      8.16656515      1.00000000
     -2.703  0.0000E+00  0.0000E+00  0.0000E+00  0.0000E+00
     -2.618  0.0000E+00  0.0000E+00  0.0000E+00  0.0000E+00
     -2.533  0.0000E+00  0.0000E+00  0.0000E+00  0.0000E+00
     -2.449  0.0000E+00  0.0000E+00  0.0000E+00  0.0000E+00
     -2.364  0.0000E+00  0.0000E+00  0.0000E+00  0.0000E+00
     -2.279  0.0000E+00  0.0000E+00  0.0000E+00  0.0000E+00
     -2.194  0.0000E+00  0.0000E+00  0.0000E+00  0.0000E+00
     -2.109  0.0000E+00  0.0000E+00  0.0000E+00  0.0000E+00
     -2.025  0.3721E-06  0.3786E-06  0.3155E-07  0.3211E-07
     -1.940  0.4407E-05  0.4485E-05  0.4053E-06  0.4124E-06
     -1.855  0.2807E-04  0.2857E-04  0.2786E-05  0.2835E-05
     -1.770  0.1512E-03  0.1538E-03  0.1561E-04  0.1588E-04
     -1.685  0.8039E-03  0.8176E-03  0.8378E-04  0.8521E-04
     -1.601  0.3927E-02  0.3987E-02  0.4168E-03  0.4233E-03
     -1.516  0.1469E-01  0.1486E-01  0.1662E-02  0.1683E-02
     -1.431  0.3561E-01  0.3584E-01  0.4682E-02  0.4723E-02
     -1.346  0.5322E-01  0.5332E-01  0.9195E-02  0.9244E-02
     -1.261  0.6211E-01  0.6226E-01  0.1446E-01  0.1452E-01
     -1.177  0.8760E-01  0.8794E-01  0.2189E-01  0.2198E-01
     -1.092  0.1054E+00  0.1053E+00  0.3082E-01  0.3091E-01
     -1.007  0.8472E-01  0.8454E-01  0.3801E-01  0.3808E-01
     -0.922  0.9568E-01  0.9608E-01  0.4613E-01  0.4624E-01
     -0.837  0.1355E+00  0.1358E+00  0.5763E-01  0.5775E-01
     -0.753  0.1424E+00  0.1423E+00  0.6972E-01  0.6983E-01
     -0.668  0.1279E+00  0.1279E+00  0.8058E-01  0.8069E-01
     -0.583  0.1417E+00  0.1421E+00  0.9259E-01  0.9273E-01
     -0.498  0.1608E+00  0.1607E+00  0.1062E+00  0.1064E+00
     -0.413  0.1233E+00  0.1230E+00  0.1167E+00  0.1168E+00
     -0.329  0.1501E+00  0.1508E+00  0.1295E+00  0.1296E+00
     -0.244  0.2066E+00  0.2068E+00  0.1470E+00  0.1472E+00
     -0.159  0.2017E+00  0.2015E+00  0.1641E+00  0.1643E+00
     -0.074  0.2010E+00  0.2011E+00  0.1812E+00  0.1813E+00
      0.011  0.2005E+00  0.2002E+00  0.1982E+00  0.1983E+00
      0.095  0.1466E+00  0.1461E+00  0.2106E+00  0.2107E+00
      0.180  0.1516E+00  0.1522E+00  0.2235E+00  0.2237E+00
      0.265  0.2357E+00  0.2366E+00  0.2435E+00  0.2437E+00
      0.350  0.2823E+00  0.2821E+00  0.2674E+00  0.2677E+00
      0.435  0.2447E+00  0.2445E+00  0.2882E+00  0.2884E+00
      0.519  0.2659E+00  0.2661E+00  0.3108E+00  0.3110E+00
      0.604  0.2325E+00  0.2317E+00  0.3305E+00  0.3306E+00
      0.689  0.1831E+00  0.1832E+00  0.3460E+00  0.3462E+00
      0.774  0.2504E+00  0.2512E+00  0.3673E+00  0.3675E+00
      0.859  0.3014E+00  0.3015E+00  0.3928E+00  0.3931E+00
      0.943  0.2910E+00  0.2907E+00  0.4175E+00  0.4178E+00
      1.028  0.2810E+00  0.2811E+00  0.4414E+00  0.4416E+00
      1.113  0.2748E+00  0.2746E+00  0.4647E+00  0.4649E+00
      1.198  0.3044E+00  0.3053E+00  0.4905E+00  0.4908E+00
      1.283  0.3869E+00  0.3871E+00  0.5234E+00  0.5237E+00
      1.367  0.3502E+00  0.3495E+00  0.5531E+00  0.5533E+00
      1.452  0.3246E+00  0.3248E+00  0.5806E+00  0.5809E+00
      1.537  0.3225E+00  0.3222E+00  0.6080E+00  0.6082E+00
      1.622  0.3041E+00  0.3043E+00  0.6338E+00  0.6341E+00
      1.707  0.3736E+00  0.3742E+00  0.6655E+00  0.6658E+00
      1.791  0.3940E+00  0.3941E+00  0.6989E+00  0.6993E+00
      1.876  0.4732E+00  0.4744E+00  0.7391E+00  0.7395E+00
      1.961  0.5625E+00  0.5621E+00  0.7868E+00  0.7872E+00
      2.046  0.4554E+00  0.4542E+00  0.8255E+00  0.8257E+00
      2.131  0.3954E+00  0.3954E+00  0.8590E+00  0.8593E+00
      2.215  0.4454E+00  0.4458E+00  0.8968E+00  0.8971E+00
      2.300  0.5239E+00  0.5247E+00  0.9413E+00  0.9417E+00
      2.385  0.6567E+00  0.6573E+00  0.9970E+00  0.9974E+00
      2.470  0.7202E+00  0.7204E+00  0.1058E+01  0.1059E+01
      2.555  0.7808E+00  0.7805E+00  0.1124E+01  0.1125E+01
      2.639  0.7192E+00  0.7183E+00  0.1185E+01  0.1186E+01
      2.724  0.8047E+00  0.8056E+00  0.1254E+01  0.1254E+01
      2.809  0.1199E+01  0.1201E+01  0.1355E+01  0.1356E+01
      2.894  0.1507E+01  0.1507E+01  0.1483E+01  0.1484E+01
      2.979  0.1569E+01  0.1568E+01  0.1616E+01  0.1617E+01
      3.063  0.1907E+01  0.1908E+01  0.1778E+01  0.1779E+01
      3.148  0.2233E+01  0.2233E+01  0.1968E+01  0.1968E+01
      3.233  0.2256E+01  0.2256E+01  0.2159E+01  0.2159E+01
      3.318  0.2361E+01  0.2360E+01  0.2359E+01  0.2360E+01
      3.403  0.2538E+01  0.2537E+01  0.2574E+01  0.2575E+01
      3.487  0.2601E+01  0.2599E+01  0.2795E+01  0.2795E+01
      3.572  0.3154E+01  0.3154E+01  0.3063E+01  0.3063E+01
      3.657  0.3579E+01  0.3578E+01  0.3366E+01  0.3366E+01
      3.742  0.4054E+01  0.4052E+01  0.3710E+01  0.3710E+01
      3.827  0.4355E+01  0.4354E+01  0.4080E+01  0.4080E+01
      3.911  0.4412E+01  0.4411E+01  0.4454E+01  0.4454E+01
      3.996  0.4162E+01  0.4162E+01  0.4807E+01  0.4807E+01
      4.081  0.4058E+01  0.4058E+01  0.5152E+01  0.5152E+01
      4.166  0.3980E+01  0.3980E+01  0.5490E+01  0.5490E+01
      4.251  0.3935E+01  0.3935E+01  0.5824E+01  0.5823E+01
      4.335  0.3989E+01  0.3989E+01  0.6162E+01  0.6162E+01
      4.420  0.4145E+01  0.4144E+01  0.6514E+01  0.6514E+01
      4.505  0.4634E+01  0.4632E+01  0.6908E+01  0.6907E+01
      4.590  0.5316E+01  0.5314E+01  0.7359E+01  0.7358E+01
      4.675  0.5637E+01  0.5636E+01  0.7837E+01  0.7836E+01
      4.759  0.5787E+01  0.5786E+01  0.8328E+01  0.8327E+01
      4.844  0.6332E+01  0.6330E+01  0.8865E+01  0.8864E+01
      4.929  0.6941E+01  0.6939E+01  0.9454E+01  0.9453E+01
      5.014  0.7251E+01  0.7249E+01  0.1007E+02  0.1007E+02
      5.099  0.7617E+01  0.7614E+01  0.1072E+02  0.1071E+02
      5.183  0.7890E+01  0.7890E+01  0.1139E+02  0.1138E+02
      5.268  0.7115E+01  0.7118E+01  0.1199E+02  0.1199E+02
      5.353  0.5936E+01  0.5938E+01  0.1249E+02  0.1249E+02
      5.438  0.5186E+01  0.5187E+01  0.1293E+02  0.1293E+02
      5.523  0.4995E+01  0.4994E+01  0.1336E+02  0.1336E+02
      5.607  0.5380E+01  0.5378E+01  0.1381E+02  0.1381E+02
      5.692  0.6160E+01  0.6157E+01  0.1434E+02  0.1434E+02
      5.777  0.6623E+01  0.6621E+01  0.1490E+02  0.1490E+02
      5.862  0.6821E+01  0.6821E+01  0.1548E+02  0.1548E+02
      5.947  0.6484E+01  0.6484E+01  0.1603E+02  0.1603E+02
      6.031  0.6210E+01  0.6210E+01  0.1656E+02  0.1655E+02
      6.116  0.6063E+01  0.6063E+01  0.1707E+02  0.1707E+02
      6.201  0.6184E+01  0.6182E+01  0.1760E+02  0.1759E+02
      6.286  0.6890E+01  0.6885E+01  0.1818E+02  0.1818E+02
      6.371  0.8222E+01  0.8214E+01  0.1888E+02  0.1887E+02
      6.455  0.9318E+01  0.9317E+01  0.1967E+02  0.1967E+02
      6.540  0.7944E+01  0.7954E+01  0.2034E+02  0.2034E+02
      6.625  0.5001E+01  0.5014E+01  0.2077E+02  0.2077E+02
      6.710  0.2551E+01  0.2559E+01  0.2098E+02  0.2098E+02
      6.795  0.1081E+01  0.1085E+01  0.2108E+02  0.2108E+02
      6.879  0.6799E+00  0.6802E+00  0.2113E+02  0.2113E+02
      6.964  0.7878E+00  0.7874E+00  0.2120E+02  0.2120E+02
      7.049  0.8462E+00  0.8471E+00  0.2127E+02  0.2127E+02
      7.134  0.6585E+00  0.6592E+00  0.2133E+02  0.2133E+02
      7.219  0.5966E+00  0.5971E+00  0.2138E+02  0.2138E+02
      7.303  0.7470E+00  0.7471E+00  0.2144E+02  0.2144E+02
      7.388  0.8267E+00  0.8266E+00  0.2151E+02  0.2151E+02
      7.473  0.7357E+00  0.7360E+00  0.2158E+02  0.2158E+02
      7.558  0.6323E+00  0.6324E+00  0.2163E+02  0.2163E+02
      7.643  0.5626E+00  0.5627E+00  0.2168E+02  0.2168E+02
      7.727  0.5283E+00  0.5283E+00  0.2172E+02  0.2172E+02
      7.812  0.5699E+00  0.5701E+00  0.2177E+02  0.2177E+02
      7.897  0.6870E+00  0.6870E+00  0.2183E+02  0.2183E+02
      7.982  0.6634E+00  0.6635E+00  0.2189E+02  0.2189E+02
      8.067  0.6540E+00  0.6544E+00  0.2194E+02  0.2194E+02
      8.151  0.5907E+00  0.5911E+00  0.2199E+02  0.2199E+02
      8.236  0.5582E+00  0.5581E+00  0.2204E+02  0.2204E+02
      8.321  0.4442E+00  0.4439E+00  0.2208E+02  0.2208E+02
      8.406  0.4917E+00  0.4921E+00  0.2212E+02  0.2212E+02
      8.491  0.6657E+00  0.6661E+00  0.2217E+02  0.2217E+02
      8.575  0.8180E+00  0.8180E+00  0.2224E+02  0.2224E+02
      8.660  0.5937E+00  0.5926E+00  0.2229E+02  0.2229E+02
      8.745  0.3538E+00  0.3539E+00  0.2232E+02  0.2232E+02
      8.830  0.4916E+00  0.4924E+00  0.2237E+02  0.2237E+02
      8.915  0.5148E+00  0.5144E+00  0.2241E+02  0.2241E+02
      8.999  0.4190E+00  0.4192E+00  0.2245E+02  0.2245E+02
      9.084  0.4984E+00  0.4991E+00  0.2249E+02  0.2249E+02
      9.169  0.5888E+00  0.5889E+00  0.2254E+02  0.2254E+02
      9.254  0.6212E+00  0.6212E+00  0.2259E+02  0.2259E+02
      9.339  0.6052E+00  0.6052E+00  0.2264E+02  0.2264E+02
      9.423  0.5426E+00  0.5425E+00  0.2269E+02  0.2269E+02
      9.508  0.5658E+00  0.5661E+00  0.2274E+02  0.2274E+02
      9.593  0.5432E+00  0.5428E+00  0.2278E+02  0.2278E+02
      9.678  0.4122E+00  0.4117E+00  0.2282E+02  0.2282E+02
      9.763  0.3180E+00  0.3178E+00  0.2284E+02  0.2284E+02
      9.847  0.3409E+00  0.3414E+00  0.2287E+02  0.2287E+02
      9.932  0.4579E+00  0.4588E+00  0.2291E+02  0.2291E+02
     10.017  0.5941E+00  0.5947E+00  0.2296E+02  0.2296E+02
     10.102  0.5857E+00  0.5853E+00  0.2301E+02  0.2301E+02
     10.187  0.5766E+00  0.5766E+00  0.2306E+02  0.2306E+02
     10.271  0.5740E+00  0.5737E+00  0.2311E+02  0.2311E+02
     10.356  0.4610E+00  0.4603E+00  0.2315E+02  0.2315E+02
     10.441  0.3380E+00  0.3379E+00  0.2318E+02  0.2318E+02
     10.526  0.3827E+00  0.3836E+00  0.2321E+02  0.2321E+02
     10.611  0.5454E+00  0.5458E+00  0.2326E+02  0.2326E+02
     10.695  0.4891E+00  0.4881E+00  0.2330E+02  0.2330E+02
     10.780  0.2837E+00  0.2825E+00  0.2332E+02  0.2332E+02
     10.865  0.1773E+00  0.1774E+00  0.2334E+02  0.2334E+02
     10.950  0.2834E+00  0.2843E+00  0.2336E+02  0.2336E+02
     11.035  0.3827E+00  0.3830E+00  0.2339E+02  0.2339E+02
     11.119  0.4520E+00  0.4523E+00  0.2343E+02  0.2343E+02
     11.204  0.4865E+00  0.4866E+00  0.2347E+02  0.2347E+02
     11.289  0.4874E+00  0.4873E+00  0.2351E+02  0.2351E+02
     11.374  0.4535E+00  0.4533E+00  0.2355E+02  0.2355E+02
     11.459  0.4386E+00  0.4383E+00  0.2359E+02  0.2359E+02
     11.543  0.3187E+00  0.3178E+00  0.2362E+02  0.2362E+02
     11.628  0.1990E+00  0.1985E+00  0.2363E+02  0.2363E+02
     11.713  0.1517E+00  0.1516E+00  0.2365E+02  0.2365E+02
     11.798  0.1944E+00  0.1950E+00  0.2366E+02  0.2366E+02
     11.883  0.3073E+00  0.3078E+00  0.2369E+02  0.2369E+02
     11.967  0.3075E+00  0.3069E+00  0.2372E+02  0.2372E+02
     12.052  0.2126E+00  0.2123E+00  0.2373E+02  0.2373E+02
     12.137  0.2651E+00  0.2657E+00  0.2376E+02  0.2376E+02
     12.222  0.4693E+00  0.4705E+00  0.2380E+02  0.2380E+02
     12.307  0.6372E+00  0.6373E+00  0.2385E+02  0.2385E+02
     12.391  0.5909E+00  0.5903E+00  0.2390E+02  0.2390E+02
     12.476  0.5097E+00  0.5093E+00  0.2394E+02  0.2394E+02
     12.561  0.4960E+00  0.4962E+00  0.2399E+02  0.2399E+02
     12.646  0.5896E+00  0.5899E+00  0.2404E+02  0.2404E+02
     12.731  0.6295E+00  0.6294E+00  0.2409E+02  0.2409E+02
     12.815  0.5376E+00  0.5370E+00  0.2413E+02  0.2413E+02
     12.900  0.4395E+00  0.4395E+00  0.2417E+02  0.2417E+02
     12.985  0.5065E+00  0.5071E+00  0.2421E+02  0.2422E+02
     13.070  0.5699E+00  0.5701E+00  0.2426E+02  0.2426E+02
     13.155  0.5948E+00  0.5950E+00  0.2431E+02  0.2431E+02
     13.239  0.5989E+00  0.5989E+00  0.2436E+02  0.2436E+02
     13.324  0.5977E+00  0.5980E+00  0.2442E+02  0.2442E+02
     13.409  0.7015E+00  0.7019E+00  0.2447E+02  0.2448E+02
     13.494  0.6573E+00  0.6564E+00  0.2453E+02  0.2453E+02
     13.579  0.4354E+00  0.4344E+00  0.2457E+02  0.2457E+02
     13.663  0.4033E+00  0.4042E+00  0.2460E+02  0.2460E+02
     13.748  0.5689E+00  0.5696E+00  0.2465E+02  0.2465E+02
     13.833  0.5313E+00  0.5308E+00  0.2470E+02  0.2470E+02
     13.918  0.5047E+00  0.5050E+00  0.2474E+02  0.2474E+02
     14.003  0.5891E+00  0.5896E+00  0.2479E+02  0.2479E+02
     14.087  0.6136E+00  0.6134E+00  0.2484E+02  0.2484E+02
     14.172  0.5499E+00  0.5495E+00  0.2489E+02  0.2489E+02
     14.257  0.5145E+00  0.5143E+00  0.2493E+02  0.2493E+02
     14.342  0.4658E+00  0.4652E+00  0.2497E+02  0.2497E+02
     14.427  0.4588E+00  0.4587E+00  0.2501E+02  0.2501E+02
     14.512  0.4303E+00  0.4303E+00  0.2505E+02  0.2505E+02
     14.596  0.4940E+00  0.4946E+00  0.2509E+02  0.2509E+02
     14.681  0.4883E+00  0.4877E+00  0.2513E+02  0.2513E+02
     14.766  0.3451E+00  0.3445E+00  0.2516E+02  0.2516E+02
     14.851  0.3654E+00  0.3661E+00  0.2519E+02  0.2519E+02
     14.936  0.4751E+00  0.4757E+00  0.2523E+02  0.2523E+02
     15.020  0.5343E+00  0.5343E+00  0.2527E+02  0.2528E+02
     15.105  0.4571E+00  0.4566E+00  0.2531E+02  0.2531E+02
     15.190  0.4728E+00  0.4735E+00  0.2535E+02  0.2535E+02
     15.275  0.5674E+00  0.5678E+00  0.2540E+02  0.2540E+02
     15.360  0.5615E+00  0.5609E+00  0.2545E+02  0.2545E+02
     15.444  0.3976E+00  0.3966E+00  0.2548E+02  0.2548E+02
     15.529  0.3712E+00  0.3720E+00  0.2551E+02  0.2551E+02
     15.614  0.5829E+00  0.5843E+00  0.2556E+02  0.2556E+02
     15.699  0.6700E+00  0.6696E+00  0.2562E+02  0.2562E+02
     15.784  0.5036E+00  0.5024E+00  0.2566E+02  0.2566E+02
     15.868  0.3791E+00  0.3787E+00  0.2570E+02  0.2570E+02
     15.953  0.3542E+00  0.3543E+00  0.2573E+02  0.2573E+02
     16.038  0.4013E+00  0.4019E+00  0.2576E+02  0.2576E+02
     16.123  0.5032E+00  0.5037E+00  0.2580E+02  0.2580E+02
     16.208  0.6555E+00  0.6567E+00  0.2586E+02  0.2586E+02
     16.292  0.8662E+00  0.8673E+00  0.2593E+02  0.2593E+02
     16.377  0.9249E+00  0.9248E+00  0.2601E+02  0.2601E+02
     16.462  0.8700E+00  0.8695E+00  0.2608E+02  0.2608E+02
     16.547  0.7887E+00  0.7877E+00  0.2615E+02  0.2615E+02
     16.632  0.6727E+00  0.6719E+00  0.2621E+02  0.2621E+02
     16.716  0.5686E+00  0.5684E+00  0.2626E+02  0.2626E+02
     16.801  0.5555E+00  0.5556E+00  0.2630E+02  0.2630E+02
     16.886  0.5637E+00  0.5639E+00  0.2635E+02  0.2635E+02
     16.971  0.6155E+00  0.6155E+00  0.2640E+02  0.2640E+02
     17.056  0.6225E+00  0.6217E+00  0.2646E+02  0.2646E+02
     17.140  0.6587E+00  0.6571E+00  0.2651E+02  0.2651E+02
     17.225  0.7059E+00  0.7047E+00  0.2657E+02  0.2657E+02
     17.310  0.6924E+00  0.6942E+00  0.2663E+02  0.2663E+02
     17.395  0.5195E+00  0.5202E+00  0.2668E+02  0.2668E+02
     17.480  0.4908E+00  0.4918E+00  0.2672E+02  0.2672E+02
     17.564  0.6780E+00  0.6788E+00  0.2677E+02  0.2677E+02
     17.649  0.9196E+00  0.9182E+00  0.2685E+02  0.2685E+02
     17.734  0.1014E+01  0.1013E+01  0.2694E+02  0.2694E+02
     17.819  0.8084E+00  0.8097E+00  0.2701E+02  0.2701E+02
     17.904  0.5633E+00  0.5631E+00  0.2705E+02  0.2706E+02
     17.988  0.4349E+00  0.4350E+00  0.2709E+02  0.2709E+02
     18.073  0.4973E+00  0.4982E+00  0.2713E+02  0.2713E+02
     18.158  0.6619E+00  0.6630E+00  0.2719E+02  0.2719E+02
     18.243  0.7642E+00  0.7645E+00  0.2726E+02  0.2726E+02
     18.328  0.7133E+00  0.7131E+00  0.2732E+02  0.2732E+02
     18.412  0.6240E+00  0.6235E+00  0.2737E+02  0.2737E+02
     18.497  0.5541E+00  0.5559E+00  0.2742E+02  0.2742E+02
     18.582  0.6020E+00  0.6077E+00  0.2747E+02  0.2747E+02
     18.667  0.5888E+00  0.5884E+00  0.2752E+02  0.2752E+02
     18.752  0.4686E+00  0.4616E+00  0.2756E+02  0.2756E+02
     18.836  0.5400E+00  0.5361E+00  0.2760E+02  0.2760E+02
     18.921  0.7199E+00  0.7052E+00  0.2766E+02  0.2766E+02
     19.006  0.6611E+00  0.6236E+00  0.2772E+02  0.2772E+02
     19.091  0.4738E+00  0.4678E+00  0.2776E+02  0.2776E+02
     19.176  0.3107E+00  0.3221E+00  0.2779E+02  0.2778E+02
     19.260  0.2573E+00  0.2637E+00  0.2781E+02  0.2780E+02
     19.345  0.2448E+00  0.2714E+00  0.2783E+02  0.2783E+02
     19.430  0.2301E+00  0.2432E+00  0.2785E+02  0.2785E+02
     19.515  0.1818E+00  0.1924E+00  0.2786E+02  0.2786E+02
     19.600  0.2259E+00  0.2521E+00  0.2788E+02  0.2789E+02
     19.684  0.3337E+00  0.3295E+00  0.2791E+02  0.2791E+02
     19.769  0.2944E+00  0.2577E+00  0.2794E+02  0.2794E+02
     19.854  0.1549E+00  0.1489E+00  0.2795E+02  0.2795E+02
     19.939  0.1316E+00  0.1288E+00  0.2796E+02  0.2796E+02
     20.024  0.1164E+00  0.1228E+00  0.2797E+02  0.2797E+02
     20.108  0.7088E-01  0.7630E-01  0.2798E+02  0.2798E+02
     20.193  0.4147E-01  0.4269E-01  0.2798E+02  0.2798E+02
     20.278  0.1963E-01  0.1977E-01  0.2798E+02  0.2798E+02
     20.363  0.1274E-01  0.1271E-01  0.2798E+02  0.2798E+02
     20.448  0.1828E-01  0.1794E-01  0.2798E+02  0.2798E+02
     20.532  0.1376E-01  0.1181E-01  0.2799E+02  0.2799E+02
     20.617  0.1486E-01  0.6074E-02  0.2799E+02  0.2799E+02
     20.702  0.3912E-01  0.1479E-01  0.2799E+02  0.2799E+02
     20.787  0.4915E-01  0.4250E-01  0.2799E+02  0.2799E+02
     20.872  0.2104E-01  0.4658E-01  0.2800E+02  0.2799E+02
     20.956  0.6235E-02  0.1873E-01  0.2800E+02  0.2800E+02
     21.041  0.7044E-02  0.9139E-02  0.2800E+02  0.2800E+02
     21.126  0.1270E-01  0.1304E-01  0.2800E+02  0.2800E+02
     21.211  0.8552E-02  0.9515E-02  0.2800E+02  0.2800E+02
     21.296  0.2413E-02  0.2892E-02  0.2800E+02  0.2800E+02
     21.380  0.5613E-03  0.6706E-03  0.2800E+02  0.2800E+02
     21.465  0.4780E-03  0.5032E-03  0.2800E+02  0.2800E+02
     21.550  0.1398E-02  0.1408E-02  0.2800E+02  0.2800E+02
     21.635  0.2125E-02  0.2122E-02  0.2800E+02  0.2800E+02
     21.720  0.1046E-02  0.1037E-02  0.2800E+02  0.2800E+02
     21.804  0.2543E-03  0.2513E-03  0.2800E+02  0.2800E+02
     21.889  0.4944E-04  0.4882E-04  0.2800E+02  0.2800E+02
     21.974  0.9168E-05  0.9052E-05  0.2800E+02  0.2800E+02
     22.059  0.0000E+00  0.0000E+00  0.2800E+02  0.2800E+02
     22.144  0.0000E+00  0.0000E+00  0.2800E+02  0.2800E+02
     22.228  0.0000E+00  0.0000E+00  0.2800E+02  0.2800E+02
     22.313  0.0000E+00  0.0000E+00  0.2800E+02  0.2800E+02
     22.398  0.0000E+00  0.0000E+00  0.2800E+02  0.2800E+02
     22.483  0.0000E+00  0.0000E+00  0.2800E+02  0.2800E+02
     22.568  0.0000E+00  0.0000E+00  0.2800E+02  0.2800E+02
     22.652  0.0000E+00  0.0000E+00  0.2800E+02  0.2800E+02
     22.737  0.0000E+00  0.0000E+00  0.2800E+02  0.2800E+02
     22.73713616     -2.70297087  301      8.16656515      1.00000000
     -2.703  0.0000E+00  0.0000E+00  0.0000E+00  0.0000E+00  0.0000E+00  0.0000E+00  0.0000E+00  0.0000E+00  0.0000E+00  0.0000E+00  0.0000E+00  0.0000E+00  0.0000E+00  0.0000E+00  0.0000E+00  0.0000E+00  0.0000E+00  0.0000E+00
     -2.618  0.0000E+00  0.0000E+00  0.0000E+00  0.0000E+00  0.0000E+00  0.0000E+00  0.0000E+00  0.0000E+00  0.0000E+00  0.0000E+00  0.0000E+00  0.0000E+00  0.0000E+00  0.0000E+00  0.0000E+00  0.0000E+00  0.0000E+00  0.0000E+00
     -2.533  0.0000E+00  0.0000E+00  0.0000E+00  0.0000E+00  0.0000E+00  0.0000E+00  0.0000E+00  0.0000E+00  0.0000E+00  0.0000E+00  0.0000E+00  0.0000E+00  0.0000E+00  0.0000E+00  0.0000E+00  0.0000E+00  0.0000E+00  0.0000E+00
     -2.449  0.0000E+00  0.0000E+00  0.0000E+00  0.0000E+00  0.0000E+00  0.0000E+00  0.0000E+00  0.0000E+00  0.0000E+00  0.0000E+00  0.0000E+00  0.0000E+00  0.0000E+00  0.0000E+00  0.0000E+00  0.0000E+00  0.0000E+00  0.0000E+00
     -2.364  0.0000E+00  0.0000E+00  0.0000E+00  0.0000E+00  0.0000E+00  0.0000E+00  0.0000E+00  0.0000E+00  0.0000E+00  0.0000E+00  0.0000E+00  0.0000E+00  0.0000E+00  0.0000E+00  0.0000E+00  0.0000E+00  0.0000E+00  0.0000E+00
     -2.279  0.0000E+00  0.0000E+00  0.0000E+00  0.0000E+00  0.0000E+00  0.0000E+00  0.0000E+00  0.0000E+00  0.0000E+00  0.0000E+00  0.0000E+00  0.0000E+00  0.0000E+00  0.0000E+00  0.0000E+00  0.0000E+00  0.0000E+00  0.0000E+00
     -2.194  0.0000E+00  0.0000E+00  0.0000E+00  0.0000E+00  0.0000E+00  0.0000E+00  0.0000E+00  0.0000E+00  0.0000E+00  0.0000E+00  0.0000E+00  0.0000E+00  0.0000E+00  0.0000E+00  0.0000E+00  0.0000E+00  0.0000E+00  0.0000E+00
     -2.109  0.0000E+00  0.0000E+00  0.0000E+00  0.0000E+00  0.0000E+00  0.0000E+00  0.0000E+00  0.0000E+00  0.0000E+00  0.0000E+00  0.0000E+00  0.0000E+00  0.0000E+00  0.0000E+00  0.0000E+00  0.0000E+00  0.0000E+00  0.0000E+00
     -2.025  0.5701E-07  0.5801E-07  0.3086E-21  0.1181E-21  0.3086E-21  0.1181E-21  0.3086E-21  0.1181E-21  0.4393E-17  0.2258E-16  0.4393E-17  0.2258E-16  0.5056E-18  0.1269E-16  0.4393E-17  0.2258E-16  0.5056E-18  0.1269E-16
     -1.940  0.6726E-06  0.6844E-06  0.9047E-09  0.9205E-09  0.9047E-09  0.9205E-09  0.9047E-09  0.9205E-09  0.1980E-16  0.1006E-15  0.1980E-16  0.1006E-15  0.6674E-11  0.6892E-11  0.1980E-16  0.1006E-15  0.6674E-11  0.6892E-11
     -1.855  0.4276E-05  0.4351E-05  0.8483E-08  0.8632E-08  0.8483E-08  0.8632E-08  0.8483E-08  0.8632E-08  0.4263E-10  0.4319E-10  0.4263E-10  0.4319E-10  0.4624E-10  0.4746E-10  0.4263E-10  0.4319E-10  0.4624E-10  0.4746E-10
     -1.770  0.2303E-04  0.2343E-04  0.4725E-07  0.4808E-07  0.4725E-07  0.4808E-07  0.4725E-07  0.4808E-07  0.2993E-09  0.3027E-09  0.2993E-09  0.3027E-09  0.2351E-09  0.2415E-09  0.2993E-09  0.3027E-09  0.2351E-09  0.2415E-09
     -1.685  0.1224E-03  0.1245E-03  0.2571E-06  0.2616E-06  0.2571E-06  0.2616E-06  0.2571E-06  0.2616E-06  0.1519E-08  0.1536E-08  0.1519E-08  0.1536E-08  0.1486E-08  0.1522E-08  0.1519E-08  0.1536E-08  0.1486E-08  0.1522E-08
     -1.601  0.5975E-03  0.6067E-03  0.1384E-05  0.1407E-05  0.1384E-05  0.1407E-05  0.1384E-05  0.1407E-05  0.8862E-08  0.8961E-08  0.8862E-08  0.8961E-08  0.8415E-08  0.8605E-08  0.8862E-08  0.8961E-08  0.8415E-08  0.8605E-08
     -1.516  0.2231E-02  0.2257E-02  0.6373E-05  0.6464E-05  0.6373E-05  0.6464E-05  0.6373E-05  0.6464E-05  0.4688E-07  0.4737E-07  0.4688E-07  0.4737E-07  0.3800E-07  0.3871E-07  0.4688E-07  0.4737E-07  0.3800E-07  0.3871E-07
     -1.431  0.5395E-02  0.5430E-02  0.2058E-04  0.2078E-04  0.2058E-04  0.2078E-04  0.2058E-04  0.2078E-04  0.1970E-06  0.1983E-06  0.1970E-06  0.1983E-06  0.1236E-06  0.1250E-06  0.1970E-06  0.1983E-06  0.1236E-06  0.1250E-06
     -1.346  0.8027E-02  0.8042E-02  0.4251E-04  0.4275E-04  0.4251E-04  0.4275E-04  0.4251E-04  0.4275E-04  0.5368E-06  0.5376E-06  0.5368E-06  0.5376E-06  0.3473E-06  0.3500E-06  0.5368E-06  0.5376E-06  0.3473E-06  0.3500E-06
     -1.261  0.9299E-02  0.9318E-02  0.7287E-04  0.7332E-04  0.7287E-04  0.7332E-04  0.7287E-04  0.7332E-04  0.1087E-05  0.1089E-05  0.1087E-05  0.1089E-05  0.1088E-05  0.1095E-05  0.1087E-05  0.1089E-05  0.1088E-05  0.1095E-05
     -1.177  0.1301E-01  0.1306E-01  0.1366E-03  0.1373E-03  0.1366E-03  0.1373E-03  0.1366E-03  0.1373E-03  0.2575E-05  0.2587E-05  0.2575E-05  0.2587E-05  0.2486E-05  0.2492E-05  0.2575E-05  0.2587E-05  0.2486E-05  0.2492E-05
     -1.092  0.1557E-01  0.1556E-01  0.1883E-03  0.1884E-03  0.1883E-03  0.1884E-03  0.1883E-03  0.1884E-03  0.4722E-05  0.4727E-05  0.4722E-05  0.4727E-05  0.3152E-05  0.3147E-05  0.4722E-05  0.4727E-05  0.3152E-05  0.3147E-05
     -1.007  0.1244E-01  0.1241E-01  0.1789E-03  0.1790E-03  0.1789E-03  0.1790E-03  0.1789E-03  0.1790E-03  0.5926E-05  0.5935E-05  0.5926E-05  0.5935E-05  0.3264E-05  0.3274E-05  0.5926E-05  0.5935E-05  0.3264E-05  0.3274E-05
     -0.922  0.1388E-01  0.1393E-01  0.2538E-03  0.2553E-03  0.2538E-03  0.2553E-03  0.2538E-03  0.2553E-03  0.1005E-04  0.1010E-04  0.1005E-04  0.1010E-04  0.6640E-05  0.6706E-05  0.1005E-04  0.1010E-04  0.6640E-05  0.6706E-05
     -0.837  0.1952E-01  0.1956E-01  0.4004E-03  0.4016E-03  0.4004E-03  0.4016E-03  0.4004E-03  0.4016E-03  0.1522E-04  0.1524E-04  0.1522E-04  0.1524E-04  0.1477E-04  0.1488E-04  0.1522E-04  0.1524E-04  0.1477E-04  0.1488E-04
     -0.753  0.2039E-01  0.2037E-01  0.4594E-03  0.4595E-03  0.4594E-03  0.4595E-03  0.4594E-03  0.4595E-03  0.1755E-04  0.1758E-04  0.1755E-04  0.1758E-04  0.2106E-04  0.2110E-04  0.1755E-04  0.1758E-04  0.2106E-04  0.2110E-04
     -0.668  0.1817E-01  0.1815E-01  0.4572E-03  0.4575E-03  0.4572E-03  0.4575E-03  0.4572E-03  0.4575E-03  0.2409E-04  0.2421E-04  0.2409E-04  0.2421E-04  0.1905E-04  0.1904E-04  0.2409E-04  0.2421E-04  0.1905E-04  0.1904E-04
     -0.583  0.1992E-01  0.1996E-01  0.5663E-03  0.5682E-03  0.5663E-03  0.5682E-03  0.5663E-03  0.5682E-03  0.3930E-04  0.3949E-04  0.3930E-04  0.3949E-04  0.2072E-04  0.2079E-04  0.3930E-04  0.3949E-04  0.2072E-04  0.2079E-04
     -0.498  0.2246E-01  0.2244E-01  0.6832E-03  0.6829E-03  0.6832E-03  0.6829E-03  0.6832E-03  0.6829E-03  0.5192E-04  0.5192E-04  0.5192E-04  0.5192E-04  0.2656E-04  0.2657E-04  0.5192E-04  0.5192E-04  0.2656E-04  0.2657E-04
     -0.413  0.1707E-01  0.1703E-01  0.5649E-03  0.5644E-03  0.5649E-03  0.5644E-03  0.5649E-03  0.5644E-03  0.4209E-04  0.4203E-04  0.4209E-04  0.4203E-04  0.3306E-04  0.3319E-04  0.4209E-04  0.4203E-04  0.3306E-04  0.3319E-04
     -0.329  0.2050E-01  0.2060E-01  0.7669E-03  0.7711E-03  0.7669E-03  0.7711E-03  0.7669E-03  0.7711E-03  0.5700E-04  0.5734E-04  0.5700E-04  0.5734E-04  0.6397E-04  0.6431E-04  0.5700E-04  0.5734E-04  0.6397E-04  0.6431E-04
     -0.244  0.2803E-01  0.2806E-01  0.1106E-02  0.1108E-02  0.1106E-02  0.1108E-02  0.1106E-02  0.1108E-02  0.8901E-04  0.8924E-04  0.8901E-04  0.8924E-04  0.9386E-04  0.9388E-04  0.8901E-04  0.8924E-04  0.9386E-04  0.9388E-04
     -0.159  0.2716E-01  0.2714E-01  0.1135E-02  0.1135E-02  0.1135E-02  0.1135E-02  0.1135E-02  0.1135E-02  0.1066E-03  0.1067E-03  0.1066E-03  0.1067E-03  0.9077E-04  0.9067E-04  0.1066E-03  0.1067E-03  0.9077E-04  0.9067E-04
     -0.074  0.2679E-01  0.2681E-01  0.1201E-02  0.1203E-02  0.1201E-02  0.1203E-02  0.1201E-02  0.1203E-02  0.1296E-03  0.1299E-03  0.1296E-03  0.1299E-03  0.9914E-04  0.9931E-04  0.1296E-03  0.1299E-03  0.9914E-04  0.9931E-04
      0.011  0.2653E-01  0.2648E-01  0.1246E-02  0.1245E-02  0.1246E-02  0.1245E-02  0.1246E-02  0.1245E-02  0.1608E-03  0.1609E-03  0.1608E-03  0.1609E-03  0.9633E-04  0.9603E-04  0.1608E-03  0.1609E-03  0.9633E-04  0.9603E-04
      0.095  0.1922E-01  0.1915E-01  0.9504E-03  0.9480E-03  0.9504E-03  0.9480E-03  0.9504E-03  0.9480E-03  0.1480E-03  0.1478E-03  0.1480E-03  0.1478E-03  0.6705E-04  0.6697E-04  0.1480E-03  0.1478E-03  0.6705E-04  0.6697E-04
      0.180  0.1955E-01  0.1962E-01  0.1064E-02  0.1069E-02  0.1064E-02  0.1069E-02  0.1064E-02  0.1069E-02  0.1663E-03  0.1670E-03  0.1663E-03  0.1670E-03  0.1058E-03  0.1066E-03  0.1663E-03  0.1670E-03  0.1058E-03  0.1066E-03
      0.265  0.3006E-01  0.3018E-01  0.1735E-02  0.1743E-02  0.1735E-02  0.1743E-02  0.1735E-02  0.1743E-02  0.2481E-03  0.2490E-03  0.2481E-03  0.2490E-03  0.2288E-03  0.2302E-03  0.2481E-03  0.2490E-03  0.2288E-03  0.2302E-03
      0.350  0.3575E-01  0.3573E-01  0.2132E-02  0.2132E-02  0.2132E-02  0.2132E-02  0.2132E-02  0.2132E-02  0.3036E-03  0.3037E-03  0.3036E-03  0.3037E-03  0.3251E-03  0.3254E-03  0.3036E-03  0.3037E-03  0.3251E-03  0.3254E-03
      0.435  0.3066E-01  0.3063E-01  0.1911E-02  0.1910E-02  0.1911E-02  0.1910E-02  0.1911E-02  0.1910E-02  0.3190E-03  0.3197E-03  0.3190E-03  0.3197E-03  0.3005E-03  0.3005E-03  0.3190E-03  0.3197E-03  0.3005E-03  0.3005E-03
      0.519  0.3291E-01  0.3294E-01  0.2157E-02  0.2160E-02  0.2157E-02  0.2160E-02  0.2157E-02  0.2160E-02  0.4154E-03  0.4158E-03  0.4154E-03  0.4158E-03  0.3359E-03  0.3368E-03  0.4154E-03  0.4158E-03  0.3359E-03  0.3368E-03
      0.604  0.2855E-01  0.2845E-01  0.1941E-02  0.1935E-02  0.1941E-02  0.1935E-02  0.1941E-02  0.1935E-02  0.3632E-03  0.3623E-03  0.3632E-03  0.3623E-03  0.3368E-03  0.3362E-03  0.3632E-03  0.3623E-03  0.3368E-03  0.3362E-03
      0.689  0.2213E-01  0.2214E-01  0.1595E-02  0.1597E-02  0.1595E-02  0.1597E-02  0.1595E-02  0.1597E-02  0.3731E-03  0.3748E-03  0.3731E-03  0.3748E-03  0.2430E-03  0.2428E-03  0.3731E-03  0.3748E-03  0.2430E-03  0.2428E-03
      0.774  0.2982E-01  0.2992E-01  0.2253E-02  0.2261E-02  0.2253E-02  0.2261E-02  0.2253E-02  0.2261E-02  0.6503E-03  0.6533E-03  0.6503E-03  0.6533E-03  0.2996E-03  0.3009E-03  0.6503E-03  0.6533E-03  0.2996E-03  0.3009E-03
      0.859  0.3553E-01  0.3554E-01  0.2773E-02  0.2775E-02  0.2773E-02  0.2775E-02  0.2773E-02  0.2775E-02  0.8141E-03  0.8144E-03  0.8141E-03  0.8144E-03  0.4354E-03  0.4371E-03  0.8141E-03  0.8144E-03  0.4354E-03  0.4371E-03
      0.943  0.3385E-01  0.3381E-01  0.2747E-02  0.2745E-02  0.2747E-02  0.2745E-02  0.2747E-02  0.2745E-02  0.7623E-03  0.7612E-03  0.7623E-03  0.7612E-03  0.6118E-03  0.6139E-03  0.7623E-03  0.7612E-03  0.6118E-03  0.6139E-03
      1.028  0.3212E-01  0.3212E-01  0.2729E-02  0.2730E-02  0.2729E-02  0.2730E-02  0.2729E-02  0.2730E-02  0.7051E-03  0.7054E-03  0.7051E-03  0.7054E-03  0.8541E-03  0.8560E-03  0.7051E-03  0.7054E-03  0.8541E-03  0.8560E-03
      1.113  0.3094E-01  0.3091E-01  0.2728E-02  0.2727E-02  0.2728E-02  0.2727E-02  0.2728E-02  0.2727E-02  0.7681E-03  0.7689E-03  0.7681E-03  0.7689E-03  0.9140E-03  0.9134E-03  0.7681E-03  0.7689E-03  0.9140E-03  0.9134E-03
      1.198  0.3366E-01  0.3375E-01  0.3111E-02  0.3121E-02  0.3111E-02  0.3121E-02  0.3111E-02  0.3121E-02  0.1030E-02  0.1035E-02  0.1030E-02  0.1035E-02  0.1007E-02  0.1010E-02  0.1030E-02  0.1035E-02  0.1007E-02  0.1010E-02
      1.283  0.4232E-01  0.4235E-01  0.4034E-02  0.4037E-02  0.4034E-02  0.4037E-02  0.4034E-02  0.4037E-02  0.1498E-02  0.1501E-02  0.1498E-02  0.1501E-02  0.1163E-02  0.1162E-02  0.1498E-02  0.1501E-02  0.1163E-02  0.1162E-02
      1.367  0.3786E-01  0.3778E-01  0.3686E-02  0.3679E-02  0.3686E-02  0.3679E-02  0.3686E-02  0.3679E-02  0.1613E-02  0.1612E-02  0.1613E-02  0.1612E-02  0.9330E-03  0.9308E-03  0.1613E-02  0.1612E-02  0.9330E-03  0.9308E-03
      1.452  0.3438E-01  0.3439E-01  0.3475E-02  0.3477E-02  0.3475E-02  0.3477E-02  0.3475E-02  0.3477E-02  0.1682E-02  0.1683E-02  0.1682E-02  0.1683E-02  0.9725E-03  0.9743E-03  0.1682E-02  0.1683E-02  0.9725E-03  0.9743E-03
      1.537  0.3354E-01  0.3350E-01  0.3505E-02  0.3502E-02  0.3505E-02  0.3502E-02  0.3505E-02  0.3502E-02  0.1749E-02  0.1748E-02  0.1749E-02  0.1748E-02  0.1165E-02  0.1166E-02  0.1749E-02  0.1748E-02  0.1165E-02  0.1166E-02