   4   4   1   0
  0.1236674E+02  0.3670893E-09  0.3670893E-09  0.3670893E-09  0.5000000E-15
  1.000000000000000E-004
  CAR 
 unknown system                          
     20.84539640     -3.06533893  301      7.04863599      1.00000000
     -3.065  0.0000E+00  0.0000E+00  0.0000E+00  0.0000E+00
     -2.986  0.0000E+00  0.0000E+00  0.0000E+00  0.0000E+00
     -2.906  0.0000E+00  0.0000E+00  0.0000E+00  0.0000E+00
     -2.826  0.0000E+00  0.0000E+00  0.0000E+00  0.0000E+00
     -2.747  0.0000E+00  0.0000E+00  0.0000E+00  0.0000E+00
     -2.667  0.0000E+00  0.0000E+00  0.0000E+00  0.0000E+00
     -2.587  0.0000E+00  0.0000E+00  0.0000E+00  0.0000E+00
     -2.507  0.0000E+00  0.0000E+00  0.0000E+00  0.0000E+00
     -2.428  0.7016E-06  0.7156E-06  0.5592E-07  0.5703E-07
     -2.348  0.7897E-05  0.8054E-05  0.6853E-06  0.6990E-06
     -2.268  0.4632E-04  0.4724E-04  0.4377E-05  0.4464E-05
     -2.189  0.2245E-03  0.2290E-03  0.2227E-04  0.2271E-04
     -2.109  0.1084E-02  0.1105E-02  0.1087E-03  0.1108E-03
     -2.029  0.4748E-02  0.4830E-02  0.4871E-03  0.4958E-03
     -1.950  0.1634E-01  0.1656E-01  0.1790E-02  0.1815E-02
     -1.870  0.3783E-01  0.3811E-01  0.4804E-02  0.4853E-02
     -1.790  0.5626E-01  0.5640E-01  0.9288E-02  0.9349E-02
     -1.710  0.6729E-01  0.6749E-01  0.1465E-01  0.1473E-01
     -1.631  0.9304E-01  0.9343E-01  0.2207E-01  0.2217E-01
     -1.551  0.1098E+00  0.1097E+00  0.3082E-01  0.3092E-01
     -1.471  0.9209E-01  0.9192E-01  0.3816E-01  0.3825E-01
     -1.392  0.1041E+00  0.1046E+00  0.4646E-01  0.4659E-01
     -1.312  0.1425E+00  0.1428E+00  0.5782E-01  0.5797E-01
     -1.232  0.1502E+00  0.1499E+00  0.6979E-01  0.6994E-01
     -1.152  0.1375E+00  0.1374E+00  0.8077E-01  0.8090E-01
     -1.073  0.1513E+00  0.1517E+00  0.9282E-01  0.9299E-01
     -0.993  0.1674E+00  0.1672E+00  0.1062E+00  0.1063E+00
     -0.913  0.1348E+00  0.1345E+00  0.1169E+00  0.1170E+00
     -0.834  0.1615E+00  0.1623E+00  0.1298E+00  0.1300E+00
     -0.754  0.2157E+00  0.2159E+00  0.1470E+00  0.1472E+00
     -0.674  0.2138E+00  0.2136E+00  0.1640E+00  0.1642E+00
     -0.595  0.2126E+00  0.2127E+00  0.1810E+00  0.1812E+00
     -0.515  0.2096E+00  0.2092E+00  0.1977E+00  0.1979E+00
     -0.435  0.1597E+00  0.1591E+00  0.2104E+00  0.2106E+00
     -0.355  0.1637E+00  0.1644E+00  0.2235E+00  0.2237E+00
     -0.276  0.2447E+00  0.2457E+00  0.2430E+00  0.2433E+00
     -0.196  0.2932E+00  0.2931E+00  0.2664E+00  0.2667E+00
     -0.116  0.2617E+00  0.2615E+00  0.2873E+00  0.2875E+00
     -0.037  0.2768E+00  0.2771E+00  0.3093E+00  0.3096E+00
      0.043  0.2492E+00  0.2484E+00  0.3292E+00  0.3294E+00
      0.123  0.1987E+00  0.1987E+00  0.3451E+00  0.3453E+00
      0.202  0.2561E+00  0.2571E+00  0.3655E+00  0.3658E+00
      0.282  0.3120E+00  0.3122E+00  0.3904E+00  0.3907E+00
      0.362  0.3059E+00  0.3057E+00  0.4148E+00  0.4151E+00
      0.442  0.2935E+00  0.2935E+00  0.4382E+00  0.4385E+00
      0.521  0.2921E+00  0.2920E+00  0.4615E+00  0.4618E+00
      0.601  0.3111E+00  0.3120E+00  0.4863E+00  0.4866E+00
      0.681  0.3960E+00  0.3965E+00  0.5179E+00  0.5183E+00
      0.760  0.3771E+00  0.3764E+00  0.5480E+00  0.5483E+00
      0.840  0.3394E+00  0.3394E+00  0.5750E+00  0.5753E+00
      0.920  0.3397E+00  0.3395E+00  0.6021E+00  0.6024E+00
      0.999  0.3120E+00  0.3119E+00  0.6270E+00  0.6273E+00
      1.079  0.3661E+00  0.3669E+00  0.6562E+00  0.6566E+00
      1.159  0.4136E+00  0.4137E+00  0.6892E+00  0.6896E+00
      1.239  0.4588E+00  0.4598E+00  0.7258E+00  0.7262E+00
      1.318  0.5657E+00  0.5661E+00  0.7709E+00  0.7713E+00
      1.398  0.5144E+00  0.5130E+00  0.8119E+00  0.8122E+00
      1.478  0.4189E+00  0.4184E+00  0.8453E+00  0.8456E+00
      1.557  0.4352E+00  0.4356E+00  0.8800E+00  0.8804E+00
      1.637  0.4988E+00  0.4993E+00  0.9198E+00  0.9202E+00
      1.717  0.6132E+00  0.6141E+00  0.9687E+00  0.9692E+00
      1.797  0.7003E+00  0.7004E+00  0.1025E+01  0.1025E+01
      1.876  0.7663E+00  0.7665E+00  0.1086E+01  0.1086E+01
      1.956  0.7714E+00  0.7703E+00  0.1147E+01  0.1148E+01
      2.036  0.7206E+00  0.7201E+00  0.1205E+01  0.1205E+01
      2.115  0.9211E+00  0.9225E+00  0.1278E+01  0.1279E+01
      2.195  0.1324E+01  0.1325E+01  0.1384E+01  0.1384E+01
      2.275  0.1500E+01  0.1499E+01  0.1503E+01  0.1504E+01
      2.354  0.1563E+01  0.1563E+01  0.1628E+01  0.1628E+01
      2.434  0.1958E+01  0.1958E+01  0.1784E+01  0.1785E+01
      2.514  0.2319E+01  0.2319E+01  0.1969E+01  0.1969E+01
      2.594  0.2435E+01  0.2434E+01  0.2163E+01  0.2163E+01
      2.673  0.2547E+01  0.2546E+01  0.2366E+01  0.2366E+01
      2.753  0.2732E+01  0.2731E+01  0.2584E+01  0.2584E+01
      2.833  0.2857E+01  0.2855E+01  0.2812E+01  0.2812E+01
      2.912  0.3449E+01  0.3446E+01  0.3087E+01  0.3087E+01
      2.992  0.3959E+01  0.3956E+01  0.3403E+01  0.3402E+01
      3.072  0.4494E+01  0.4491E+01  0.3761E+01  0.3760E+01
      3.151  0.4841E+01  0.4839E+01  0.4147E+01  0.4146E+01
      3.231  0.4853E+01  0.4853E+01  0.4534E+01  0.4533E+01
      3.311  0.4626E+01  0.4625E+01  0.4903E+01  0.4902E+01
      3.391  0.4557E+01  0.4556E+01  0.5266E+01  0.5265E+01
      3.470  0.4501E+01  0.4500E+01  0.5625E+01  0.5624E+01
      3.550  0.4539E+01  0.4537E+01  0.5987E+01  0.5986E+01
      3.630  0.4692E+01  0.4690E+01  0.6362E+01  0.6360E+01
      3.709  0.5139E+01  0.5135E+01  0.6772E+01  0.6770E+01
      3.789  0.5886E+01  0.5882E+01  0.7241E+01  0.7239E+01
      3.869  0.6433E+01  0.6431E+01  0.7754E+01  0.7752E+01
      3.948  0.6702E+01  0.6699E+01  0.8288E+01  0.8286E+01
      4.028  0.7297E+01  0.7293E+01  0.8870E+01  0.8868E+01
      4.108  0.8030E+01  0.8026E+01  0.9511E+01  0.9508E+01
      4.188  0.8473E+01  0.8468E+01  0.1019E+02  0.1018E+02
      4.267  0.8902E+01  0.8897E+01  0.1090E+02  0.1089E+02
      4.347  0.8742E+01  0.8745E+01  0.1159E+02  0.1159E+02
      4.427  0.7571E+01  0.7578E+01  0.1220E+02  0.1219E+02
      4.506  0.6419E+01  0.6424E+01  0.1271E+02  0.1271E+02
      4.586  0.5880E+01  0.5880E+01  0.1318E+02  0.1318E+02
      4.666  0.6081E+01  0.6077E+01  0.1366E+02  0.1366E+02
      4.746  0.6879E+01  0.6873E+01  0.1421E+02  0.1421E+02
      4.825  0.7545E+01  0.7541E+01  0.1481E+02  0.1481E+02
      4.905  0.7775E+01  0.7774E+01  0.1543E+02  0.1543E+02
      4.985  0.7521E+01  0.7522E+01  0.1603E+02  0.1603E+02
      5.064  0.7207E+01  0.7207E+01  0.1661E+02  0.1661E+02
      5.144  0.7094E+01  0.7092E+01  0.1718E+02  0.1717E+02
      5.224  0.7426E+01  0.7419E+01  0.1777E+02  0.1776E+02
      5.303  0.8487E+01  0.8474E+01  0.1844E+02  0.1844E+02
      5.383  0.1002E+02  0.1000E+02  0.1924E+02  0.1924E+02
      5.463  0.9872E+01  0.9884E+01  0.2003E+02  0.2003E+02
      5.543  0.7000E+01  0.7028E+01  0.2059E+02  0.2059E+02
      5.622  0.3831E+01  0.3853E+01  0.2089E+02  0.2089E+02
      5.702  0.1739E+01  0.1751E+01  0.2103E+02  0.2103E+02
      5.782  0.8696E+00  0.8725E+00  0.2110E+02  0.2110E+02
      5.861  0.8355E+00  0.8353E+00  0.2117E+02  0.2117E+02
      5.941  0.9323E+00  0.9327E+00  0.2125E+02  0.2125E+02
      6.021  0.7525E+00  0.7537E+00  0.2131E+02  0.2131E+02
      6.100  0.6152E+00  0.6158E+00  0.2136E+02  0.2136E+02
      6.180  0.7033E+00  0.7030E+00  0.2141E+02  0.2141E+02
      6.260  0.8654E+00  0.8655E+00  0.2148E+02  0.2148E+02
      6.340  0.7931E+00  0.7942E+00  0.2154E+02  0.2154E+02
      6.419  0.6810E+00  0.6817E+00  0.2160E+02  0.2160E+02
      6.499  0.6286E+00  0.6289E+00  0.2165E+02  0.2165E+02
      6.579  0.6399E+00  0.6396E+00  0.2170E+02  0.2170E+02
      6.658  0.6465E+00  0.6460E+00  0.2175E+02  0.2175E+02
      6.738  0.7192E+00  0.7192E+00  0.2181E+02  0.2181E+02
      6.818  0.7013E+00  0.7019E+00  0.2186E+02  0.2186E+02
      6.897  0.6525E+00  0.6529E+00  0.2192E+02  0.2192E+02
      6.977  0.5722E+00  0.5724E+00  0.2196E+02  0.2196E+02
      7.057  0.5298E+00  0.5300E+00  0.2200E+02  0.2200E+02
      7.137  0.5143E+00  0.5148E+00  0.2205E+02  0.2205E+02
      7.216  0.5605E+00  0.5605E+00  0.2209E+02  0.2209E+02
      7.296  0.6659E+00  0.6661E+00  0.2214E+02  0.2214E+02
      7.376  0.8664E+00  0.8667E+00  0.2221E+02  0.2221E+02
      7.455  0.7726E+00  0.7719E+00  0.2227E+02  0.2227E+02
      7.535  0.4610E+00  0.4606E+00  0.2231E+02  0.2231E+02
      7.615  0.4162E+00  0.4164E+00  0.2234E+02  0.2234E+02
      7.694  0.4871E+00  0.4876E+00  0.2238E+02  0.2238E+02
      7.774  0.4583E+00  0.4583E+00  0.2242E+02  0.2242E+02
      7.854  0.4388E+00  0.4391E+00  0.2245E+02  0.2245E+02
      7.934  0.5774E+00  0.5782E+00  0.2250E+02  0.2250E+02
      8.013  0.7412E+00  0.7412E+00  0.2256E+02  0.2256E+02
      8.093  0.6677E+00  0.6671E+00  0.2261E+02  0.2261E+02
      8.173  0.5516E+00  0.5518E+00  0.2266E+02  0.2266E+02
      8.252  0.5900E+00  0.5904E+00  0.2270E+02  0.2270E+02
      8.332  0.5796E+00  0.5795E+00  0.2275E+02  0.2275E+02
      8.412  0.4943E+00  0.4940E+00  0.2279E+02  0.2279E+02
      8.492  0.4230E+00  0.4226E+00  0.2282E+02  0.2282E+02
      8.571  0.3478E+00  0.3475E+00  0.2285E+02  0.2285E+02
      8.651  0.3592E+00  0.3596E+00  0.2288E+02  0.2288E+02
      8.731  0.4626E+00  0.4637E+00  0.2292E+02  0.2292E+02
      8.810  0.6070E+00  0.6076E+00  0.2296E+02  0.2297E+02
      8.890  0.6647E+00  0.6650E+00  0.2302E+02  0.2302E+02
      8.970  0.7236E+00  0.7235E+00  0.2308E+02  0.2308E+02
      9.049  0.6200E+00  0.6187E+00  0.2313E+02  0.2313E+02
      9.129  0.3885E+00  0.3872E+00  0.2316E+02  0.2316E+02
      9.209  0.3045E+00  0.3048E+00  0.2318E+02  0.2318E+02
      9.289  0.4409E+00  0.4422E+00  0.2322E+02  0.2322E+02
      9.368  0.5882E+00  0.5884E+00  0.2326E+02  0.2326E+02
      9.448  0.4632E+00  0.4619E+00  0.2330E+02  0.2330E+02
      9.528  0.2774E+00  0.2765E+00  0.2332E+02  0.2332E+02
      9.607  0.2189E+00  0.2191E+00  0.2334E+02  0.2334E+02
      9.687  0.3256E+00  0.3265E+00  0.2337E+02  0.2337E+02
      9.767  0.4395E+00  0.4400E+00  0.2340E+02  0.2340E+02
      9.846  0.5073E+00  0.5075E+00  0.2344E+02  0.2344E+02
      9.926  0.4821E+00  0.4819E+00  0.2348E+02  0.2348E+02
     10.006  0.4823E+00  0.4826E+00  0.2352E+02  0.2352E+02
     10.086  0.5134E+00  0.5131E+00  0.2356E+02  0.2356E+02
     10.165  0.4516E+00  0.4507E+00  0.2359E+02  0.2359E+02
     10.245  0.2872E+00  0.2862E+00  0.2362E+02  0.2362E+02
     10.325  0.1881E+00  0.1879E+00  0.2363E+02  0.2363E+02
     10.404  0.1879E+00  0.1882E+00  0.2365E+02  0.2365E+02
     10.484  0.2773E+00  0.2780E+00  0.2367E+02  0.2367E+02
     10.564  0.3879E+00  0.3881E+00  0.2370E+02  0.2370E+02
     10.643  0.4145E+00  0.4141E+00  0.2373E+02  0.2373E+02
     10.723  0.4254E+00  0.4255E+00  0.2377E+02  0.2377E+02
     10.803  0.5003E+00  0.5012E+00  0.2381E+02  0.2381E+02
     10.883  0.6455E+00  0.6466E+00  0.2386E+02  0.2386E+02
     10.962  0.7227E+00  0.7227E+00  0.2392E+02  0.2392E+02
     11.042  0.6835E+00  0.6829E+00  0.2397E+02  0.2397E+02
     11.122  0.6443E+00  0.6441E+00  0.2402E+02  0.2402E+02
     11.201  0.6236E+00  0.6235E+00  0.2407E+02  0.2407E+02
     11.281  0.5613E+00  0.5612E+00  0.2412E+02  0.2412E+02
     11.361  0.5344E+00  0.5345E+00  0.2416E+02  0.2416E+02
     11.441  0.5244E+00  0.5241E+00  0.2420E+02  0.2420E+02
     11.520  0.4843E+00  0.4845E+00  0.2424E+02  0.2424E+02
     11.600  0.5556E+00  0.5562E+00  0.2428E+02  0.2428E+02
     11.680  0.5806E+00  0.5805E+00  0.2433E+02  0.2433E+02
     11.759  0.5841E+00  0.5846E+00  0.2438E+02  0.2438E+02
     11.839  0.7109E+00  0.7118E+00  0.2443E+02  0.2443E+02
     11.919  0.7799E+00  0.7796E+00  0.2450E+02  0.2450E+02
     11.998  0.6141E+00  0.6126E+00  0.2454E+02  0.2455E+02
     12.078  0.4144E+00  0.4137E+00  0.2458E+02  0.2458E+02
     12.158  0.4002E+00  0.4008E+00  0.2461E+02  0.2461E+02
     12.238  0.5088E+00  0.5096E+00  0.2465E+02  0.2465E+02
     12.317  0.5459E+00  0.5459E+00  0.2469E+02  0.2469E+02
     12.397  0.5704E+00  0.5707E+00  0.2474E+02  0.2474E+02
     12.477  0.6488E+00  0.6492E+00  0.2479E+02  0.2479E+02
     12.556  0.6307E+00  0.6302E+00  0.2484E+02  0.2484E+02
     12.636  0.5737E+00  0.5736E+00  0.2489E+02  0.2489E+02
     12.716  0.5420E+00  0.5417E+00  0.2493E+02  0.2493E+02
     12.795  0.4929E+00  0.4927E+00  0.2497E+02  0.2497E+02
     12.875  0.4820E+00  0.4818E+00  0.2501E+02  0.2501E+02
     12.955  0.4363E+00  0.4362E+00  0.2504E+02  0.2504E+02
     13.035  0.4608E+00  0.4613E+00  0.2508E+02  0.2508E+02
     13.114  0.4992E+00  0.4991E+00  0.2512E+02  0.2512E+02
     13.194  0.4001E+00  0.3993E+00  0.2515E+02  0.2515E+02
     13.274  0.3714E+00  0.3719E+00  0.2518E+02  0.2518E+02
     13.353  0.5033E+00  0.5042E+00  0.2522E+02  0.2522E+02
     13.433  0.5643E+00  0.5642E+00  0.2527E+02  0.2527E+02
     13.513  0.4861E+00  0.4855E+00  0.2531E+02  0.2531E+02
     13.592  0.4782E+00  0.4787E+00  0.2534E+02  0.2534E+02
     13.672  0.5627E+00  0.5633E+00  0.2539E+02  0.2539E+02
     13.752  0.5901E+00  0.5898E+00  0.2544E+02  0.2544E+02
     13.832  0.4972E+00  0.4963E+00  0.2548E+02  0.2548E+02
     13.911  0.4699E+00  0.4706E+00  0.2551E+02  0.2551E+02
     13.991  0.6808E+00  0.6825E+00  0.2557E+02  0.2557E+02
     14.071  0.7478E+00  0.7470E+00  0.2563E+02  0.2563E+02
     14.150  0.5449E+00  0.5433E+00  0.2567E+02  0.2567E+02
     14.230  0.3641E+00  0.3633E+00  0.2570E+02  0.2570E+02
     14.310  0.3284E+00  0.3286E+00  0.2573E+02  0.2573E+02
     14.389  0.4199E+00  0.4211E+00  0.2576E+02  0.2576E+02
     14.469  0.6234E+00  0.6250E+00  0.2581E+02  0.2581E+02
     14.549  0.8252E+00  0.8265E+00  0.2587E+02  0.2587E+02
     14.629  0.9241E+00  0.9243E+00  0.2595E+02  0.2595E+02
     14.708  0.8835E+00  0.8832E+00  0.2602E+02  0.2602E+02
     14.788  0.8571E+00  0.8571E+00  0.2609E+02  0.2609E+02
     14.868  0.7906E+00  0.7897E+00  0.2615E+02  0.2615E+02
     14.947  0.7239E+00  0.7238E+00  0.2621E+02  0.2621E+02
     15.027  0.7405E+00  0.7403E+00  0.2627E+02  0.2627E+02
     15.107  0.6794E+00  0.6791E+00  0.2632E+02  0.2632E+02
     15.187  0.6109E+00  0.6105E+00  0.2637E+02  0.2637E+02
     15.266  0.5826E+00  0.5823E+00  0.2642E+02  0.2642E+02
     15.346  0.5438E+00  0.5435E+00  0.2646E+02  0.2646E+02
     15.426  0.6228E+00  0.6248E+00  0.2651E+02  0.2651E+02
     15.505  0.7430E+00  0.7483E+00  0.2657E+02  0.2657E+02
     15.585  0.6845E+00  0.6899E+00  0.2662E+02  0.2662E+02
     15.665  0.5868E+00  0.5814E+00  0.2667E+02  0.2667E+02
     15.744  0.5268E+00  0.5220E+00  0.2671E+02  0.2671E+02
     15.824  0.6939E+00  0.6936E+00  0.2677E+02  0.2677E+02
     15.904  0.8501E+00  0.8491E+00  0.2684E+02  0.2684E+02
     15.984  0.9295E+00  0.9280E+00  0.2691E+02  0.2691E+02
     16.063  0.9038E+00  0.9030E+00  0.2698E+02  0.2698E+02
     16.143  0.6739E+00  0.6735E+00  0.2703E+02  0.2704E+02
     16.223  0.6126E+00  0.6140E+00  0.2708E+02  0.2708E+02
     16.302  0.6355E+00  0.6352E+00  0.2713E+02  0.2713E+02
     16.382  0.6387E+00  0.6359E+00  0.2719E+02  0.2719E+02
     16.462  0.6922E+00  0.6857E+00  0.2724E+02  0.2724E+02
     16.541  0.6510E+00  0.6523E+00  0.2729E+02  0.2729E+02
     16.621  0.6498E+00  0.6596E+00  0.2734E+02  0.2734E+02
     16.701  0.6760E+00  0.6924E+00  0.2740E+02  0.2740E+02
     16.781  0.6581E+00  0.6982E+00  0.2745E+02  0.2746E+02
     16.860  0.6117E+00  0.6574E+00  0.2750E+02  0.2751E+02
     16.940  0.4667E+00  0.4741E+00  0.2754E+02  0.2755E+02
     17.020  0.4253E+00  0.3951E+00  0.2757E+02  0.2758E+02
     17.099  0.6049E+00  0.5775E+00  0.2762E+02  0.2762E+02
     17.179  0.7306E+00  0.7518E+00  0.2768E+02  0.2768E+02
     17.259  0.5636E+00  0.6579E+00  0.2772E+02  0.2774E+02
     17.338  0.3551E+00  0.3930E+00  0.2775E+02  0.2777E+02
     17.418  0.3635E+00  0.2573E+00  0.2778E+02  0.2779E+02
     17.498  0.3798E+00  0.2966E+00  0.2781E+02  0.2781E+02
     17.578  0.3278E+00  0.3128E+00  0.2784E+02  0.2784E+02
     17.657  0.2371E+00  0.2333E+00  0.2786E+02  0.2786E+02
     17.737  0.2005E+00  0.1987E+00  0.2787E+02  0.2787E+02
     17.817  0.3005E+00  0.3039E+00  0.2790E+02  0.2790E+02
     17.896  0.3691E+00  0.3845E+00  0.2792E+02  0.2793E+02
     17.976  0.2258E+00  0.2209E+00  0.2794E+02  0.2794E+02
     18.056  0.1293E+00  0.1051E+00  0.2795E+02  0.2795E+02
     18.136  0.1262E+00  0.1166E+00  0.2796E+02  0.2796E+02
     18.215  0.8959E-01  0.1011E+00  0.2797E+02  0.2797E+02
     18.295  0.6193E-01  0.6850E-01  0.2798E+02  0.2797E+02
     18.375  0.5073E-01  0.5188E-01  0.2798E+02  0.2798E+02
     18.454  0.3330E-01  0.3332E-01  0.2798E+02  0.2798E+02
     18.534  0.2369E-01  0.2369E-01  0.2798E+02  0.2798E+02
     18.614  0.1857E-01  0.1883E-01  0.2799E+02  0.2799E+02
     18.693  0.8805E-02  0.1049E-01  0.2799E+02  0.2799E+02
     18.773  0.8811E-02  0.1595E-01  0.2799E+02  0.2799E+02
     18.853  0.2649E-01  0.4127E-01  0.2799E+02  0.2799E+02
     18.933  0.5119E-01  0.4904E-01  0.2799E+02  0.2799E+02
     19.012  0.3630E-01  0.2190E-01  0.2800E+02  0.2800E+02
     19.092  0.1183E-01  0.6020E-02  0.2800E+02  0.2800E+02
     19.172  0.4464E-02  0.3334E-02  0.2800E+02  0.2800E+02
     19.251  0.7392E-02  0.7779E-02  0.2800E+02  0.2800E+02
     19.331  0.1287E-01  0.1297E-01  0.2800E+02  0.2800E+02
     19.411  0.8715E-02  0.8013E-02  0.2800E+02  0.2800E+02
     19.490  0.2702E-02  0.2373E-02  0.2800E+02  0.2800E+02
     19.570  0.7046E-03  0.6253E-03  0.2800E+02  0.2800E+02
     19.650  0.5793E-03  0.5682E-03  0.2800E+02  0.2800E+02
     19.730  0.1467E-02  0.1479E-02  0.2800E+02  0.2800E+02
     19.809  0.2141E-02  0.2138E-02  0.2800E+02  0.2800E+02
     19.889  0.1128E-02  0.1117E-02  0.2800E+02  0.2800E+02
     19.969  0.3076E-03  0.3034E-03  0.2800E+02  0.2800E+02
     20.048  0.6687E-04  0.6590E-04  0.2800E+02  0.2800E+02
     20.128  0.1378E-04  0.1357E-04  0.2800E+02  0.2800E+02
     20.208  0.0000E+00  0.0000E+00  0.2800E+02  0.2800E+02
     20.287  0.0000E+00  0.0000E+00  0.2800E+02  0.2800E+02
     20.367  0.0000E+00  0.0000E+00  0.2800E+02  0.2800E+02
     20.447  0.0000E+00  0.0000E+00  0.2800E+02  0.2800E+02
     20.527  0.0000E+00  0.0000E+00  0.2800E+02  0.2800E+02
     20.606  0.0000E+00  0.0000E+00  0.2800E+02  0.2800E+02
     20.686  0.0000E+00  0.0000E+00  0.2800E+02  0.2800E+02
     20.766  0.0000E+00  0.0000E+00  0.2800E+02  0.2800E+02
     20.845  0.0000E+00  0.0000E+00  0.2800E+02  0.2800E+02
     20.84539640     -3.06533893  301      7.04863599      1.00000000
     -3.065  0.0000E+00  0.0000E+00  0.0000E+00  0.0000E+00  0.0000E+00  0.0000E+00  0.0000E+00  0.0000E+00  0.0000E+00  0.0000E+00  0.0000E+00  0.0000E+00  0.0000E+00  0.0000E+00  0.0000E+00  0.0000E+00  0.0000E+00  0.0000E+00
     -2.986  0.0000E+00  0.0000E+00  0.0000E+00  0.0000E+00  0.0000E+00  0.0000E+00  0.0000E+00  0.0000E+00  0.0000E+00  0.0000E+00  0.0000E+00  0.0000E+00  0.0000E+00  0.0000E+00  0.0000E+00  0.0000E+00  0.0000E+00  0.0000E+00
     -2.906  0.0000E+00  0.0000E+00  0.0000E+00  0.0000E+00  0.0000E+00  0.0000E+00  0.0000E+00  0.0000E+00  0.0000E+00  0.0000E+00  0.0000E+00  0.0000E+00  0.0000E+00  0.0000E+00  0.0000E+00  0.0000E+00  0.0000E+00  0.0000E+00
     -2.826  0.0000E+00  0.0000E+00  0.0000E+00  0.0000E+00  0.0000E+00  0.0000E+00  0.0000E+00  0.0000E+00  0.0000E+00  0.0000E+00  0.0000E+00  0.0000E+00  0.0000E+00  0.0000E+00  0.0000E+00  0.0000E+00  0.0000E+00  0.0000E+00
     -2.747  0.0000E+00  0.0000E+00  0.0000E+00  0.0000E+00  0.0000E+00  0.0000E+00  0.0000E+00  0.0000E+00  0.0000E+00  0.0000E+00  0.0000E+00  0.0000E+00  0.0000E+00  0.0000E+00  0.0000E+00  0.0000E+00  0.0000E+00  0.0000E+00
     -2.667  0.0000E+00  0.0000E+00  0.0000E+00  0.0000E+00  0.0000E+00  0.0000E+00  0.0000E+00  0.0000E+00  0.0000E+00  0.0000E+00  0.0000E+00  0.0000E+00  0.0000E+00  0.0000E+00  0.0000E+00  0.0000E+00  0.0000E+00  0.0000E+00
     -2.587  0.0000E+00  0.0000E+00  0.0000E+00  0.0000E+00  0.0000E+00  0.0000E+00  0.0000E+00  0.0000E+00  0.0000E+00  0.0000E+00  0.0000E+00  0.0000E+00  0.0000E+00  0.0000E+00  0.0000E+00  0.0000E+00  0.0000E+00  0.0000E+00
     -2.507  0.0000E+00  0.0000E+00  0.0000E+00  0.0000E+00  0.0000E+00  0.0000E+00  0.0000E+00  0.0000E+00  0.0000E+00  0.0000E+00  0.0000E+00  0.0000E+00  0.0000E+00  0.0000E+00  0.0000E+00  0.0000E+00  0.0000E+00  0.0000E+00
     -2.428  0.9811E-07  0.1001E-06  0.6340E-21  0.1941E-21  0.6340E-21  0.1941E-21  0.6340E-21  0.1941E-21  0.1100E-16  0.4867E-16  0.1100E-16  0.4867E-16  0.1748E-17  0.7172E-18  0.1100E-16  0.4867E-16  0.1748E-17  0.7172E-18
     -2.348  0.1100E-05  0.1122E-05  0.1445E-08  0.1474E-08  0.1445E-08  0.1474E-08  0.1445E-08  0.1474E-08  0.4349E-16  0.1920E-15  0.4349E-16  0.1920E-15  0.1112E-10  0.1137E-10  0.4349E-16  0.1920E-15  0.1112E-10  0.1137E-10
     -2.268  0.6439E-05  0.6568E-05  0.1273E-07  0.1298E-07  0.1273E-07  0.1298E-07  0.1273E-07  0.1298E-07  0.7003E-10  0.7175E-10  0.7003E-10  0.7175E-10  0.7063E-10  0.7222E-10  0.7003E-10  0.7175E-10  0.7063E-10  0.7222E-10
     -2.189  0.3120E-04  0.3182E-04  0.6415E-07  0.6543E-07  0.6415E-07  0.6543E-07  0.6415E-07  0.6543E-07  0.4535E-09  0.4624E-09  0.4535E-09  0.4624E-09  0.3199E-09  0.3271E-09  0.4535E-09  0.4624E-09  0.3199E-09  0.3271E-09
     -2.109  0.1506E-03  0.1535E-03  0.3284E-06  0.3349E-06  0.3284E-06  0.3349E-06  0.3284E-06  0.3349E-06  0.2270E-08  0.2314E-08  0.2270E-08  0.2314E-08  0.2190E-08  0.2233E-08  0.2270E-08  0.2314E-08  0.2190E-08  0.2233E-08
     -2.029  0.6593E-03  0.6708E-03  0.1547E-05  0.1576E-05  0.1547E-05  0.1576E-05  0.1547E-05  0.1576E-05  0.1145E-07  0.1167E-07  0.1145E-07  0.1167E-07  0.9947E-08  0.1014E-07  0.1145E-07  0.1167E-07  0.9947E-08  0.1014E-07
     -1.950  0.2266E-02  0.2296E-02  0.6397E-05  0.6500E-05  0.6397E-05  0.6500E-05  0.6397E-05  0.6500E-05  0.5231E-07  0.5322E-07  0.5231E-07  0.5322E-07  0.4079E-07  0.4143E-07  0.5231E-07  0.5322E-07  0.4079E-07  0.4143E-07
     -1.870  0.5232E-02  0.5271E-02  0.1937E-04  0.1958E-04  0.1937E-04  0.1958E-04  0.1937E-04  0.1958E-04  0.2015E-06  0.2041E-06  0.2015E-06  0.2041E-06  0.1287E-06  0.1301E-06  0.2015E-06  0.2041E-06  0.1287E-06  0.1301E-06
     -1.790  0.7748E-02  0.7769E-02  0.3949E-04  0.3976E-04  0.3949E-04  0.3976E-04  0.3949E-04  0.3976E-04  0.5305E-06  0.5333E-06  0.5305E-06  0.5333E-06  0.3622E-06  0.3654E-06  0.5305E-06  0.5333E-06  0.3622E-06  0.3654E-06
     -1.710  0.9204E-02  0.9230E-02  0.6850E-04  0.6901E-04  0.6850E-04  0.6901E-04  0.6850E-04  0.6901E-04  0.1097E-05  0.1101E-05  0.1097E-05  0.1101E-05  0.1071E-05  0.1078E-05  0.1097E-05  0.1101E-05  0.1071E-05  0.1078E-05
     -1.631  0.1264E-01  0.1269E-01  0.1244E-03  0.1251E-03  0.1244E-03  0.1251E-03  0.1244E-03  0.1251E-03  0.2511E-05  0.2519E-05  0.2511E-05  0.2519E-05  0.2318E-05  0.2319E-05  0.2511E-05  0.2519E-05  0.2318E-05  0.2319E-05
     -1.551  0.1484E-01  0.1483E-01  0.1686E-03  0.1687E-03  0.1686E-03  0.1687E-03  0.1686E-03  0.1687E-03  0.4463E-05  0.4458E-05  0.4463E-05  0.4458E-05  0.2960E-05  0.2947E-05  0.4463E-05  0.4458E-05  0.2960E-05  0.2947E-05
     -1.471  0.1236E-01  0.1234E-01  0.1679E-03  0.1681E-03  0.1679E-03  0.1681E-03  0.1679E-03  0.1681E-03  0.5829E-05  0.5832E-05  0.5829E-05  0.5832E-05  0.3301E-05  0.3307E-05  0.5829E-05  0.5832E-05  0.3301E-05  0.3307E-05
     -1.392  0.1383E-01  0.1389E-01  0.2367E-03  0.2382E-03  0.2367E-03  0.2382E-03  0.2367E-03  0.2382E-03  0.9691E-05  0.9743E-05  0.9691E-05  0.9743E-05  0.6608E-05  0.6670E-05  0.9691E-05  0.9743E-05  0.6608E-05  0.6670E-05
     -1.312  0.1880E-01  0.1884E-01  0.3613E-03  0.3626E-03  0.3613E-03  0.3626E-03  0.3613E-03  0.3626E-03  0.1437E-04  0.1440E-04  0.1437E-04  0.1440E-04  0.1393E-04  0.1403E-04  0.1437E-04  0.1440E-04  0.1393E-04  0.1403E-04
     -1.232  0.1970E-01  0.1966E-01  0.4158E-03  0.4157E-03  0.4158E-03  0.4157E-03  0.4158E-03  0.4157E-03  0.1704E-04  0.1708E-04  0.1704E-04  0.1708E-04  0.1945E-04  0.1947E-04  0.1704E-04  0.1708E-04  0.1945E-04  0.1947E-04
     -1.152  0.1790E-01  0.1788E-01  0.4222E-03  0.4226E-03  0.4222E-03  0.4226E-03  0.4222E-03  0.4226E-03  0.2355E-04  0.2367E-04  0.2355E-04  0.2367E-04  0.1816E-04  0.1815E-04  0.2355E-04  0.2367E-04  0.1816E-04  0.1815E-04
     -1.073  0.1951E-01  0.1956E-01  0.5181E-03  0.5199E-03  0.5181E-03  0.5199E-03  0.5181E-03  0.5199E-03  0.3756E-04  0.3774E-04  0.3756E-04  0.3774E-04  0.1995E-04  0.2002E-04  0.3756E-04  0.3774E-04  0.1995E-04  0.2002E-04
     -0.993  0.2145E-01  0.2143E-01  0.6104E-03  0.6101E-03  0.6104E-03  0.6101E-03  0.6104E-03  0.6101E-03  0.4837E-04  0.4832E-04  0.4837E-04  0.4832E-04  0.2530E-04  0.2535E-04  0.4837E-04  0.4832E-04  0.2530E-04  0.2535E-04
     -0.913  0.1713E-01  0.1710E-01  0.5313E-03  0.5311E-03  0.5313E-03  0.5311E-03  0.5313E-03  0.5311E-03  0.4153E-04  0.4145E-04  0.4153E-04  0.4145E-04  0.3271E-04  0.3290E-04  0.4153E-04  0.4145E-04  0.3271E-04  0.3290E-04
     -0.834  0.2028E-01  0.2037E-01  0.7076E-03  0.7117E-03  0.7076E-03  0.7117E-03  0.7076E-03  0.7117E-03  0.5562E-04  0.5595E-04  0.5562E-04  0.5595E-04  0.6055E-04  0.6098E-04  0.5562E-04  0.5595E-04  0.6055E-04  0.6098E-04
     -0.754  0.2690E-01  0.2694E-01  0.9925E-03  0.9944E-03  0.9925E-03  0.9944E-03  0.9925E-03  0.9944E-03  0.8462E-04  0.8488E-04  0.8462E-04  0.8488E-04  0.8701E-04  0.8712E-04  0.8462E-04  0.8488E-04  0.8701E-04  0.8712E-04
     -0.674  0.2648E-01  0.2646E-01  0.1034E-02  0.1034E-02  0.1034E-02  0.1034E-02  0.1034E-02  0.1034E-02  0.1024E-03  0.1026E-03  0.1024E-03  0.1026E-03  0.8643E-04  0.8638E-04  0.1024E-03  0.1026E-03  0.8643E-04  0.8638E-04
     -0.595  0.2610E-01  0.2611E-01  0.1091E-02  0.1092E-02  0.1091E-02  0.1092E-02  0.1091E-02  0.1092E-02  0.1244E-03  0.1247E-03  0.1244E-03  0.1247E-03  0.9332E-04  0.9344E-04  0.1244E-03  0.1247E-03  0.9332E-04  0.9344E-04
     -0.515  0.2554E-01  0.2549E-01  0.1119E-02  0.1118E-02  0.1119E-02  0.1118E-02  0.1119E-02  0.1118E-02  0.1517E-03  0.1517E-03  0.1517E-03  0.1517E-03  0.9035E-04  0.9002E-04  0.1517E-03  0.1517E-03  0.9035E-04  0.9002E-04
     -0.435  0.1929E-01  0.1922E-01  0.8909E-03  0.8888E-03  0.8909E-03  0.8888E-03  0.8909E-03  0.8888E-03  0.1439E-03  0.1436E-03  0.1439E-03  0.1436E-03  0.6749E-04  0.6737E-04  0.1439E-03  0.1436E-03  0.6749E-04  0.6737E-04
     -0.355  0.1947E-01  0.1955E-01  0.9879E-03  0.9928E-03  0.9879E-03  0.9928E-03  0.9879E-03  0.9928E-03  0.1620E-03  0.1625E-03  0.1620E-03  0.1625E-03  0.1029E-03  0.1037E-03  0.1620E-03  0.1625E-03  0.1029E-03  0.1037E-03
     -0.276  0.2881E-01  0.2894E-01  0.1550E-02  0.1558E-02  0.1550E-02  0.1558E-02  0.1550E-02  0.1558E-02  0.2356E-03  0.2363E-03  0.2356E-03  0.2363E-03  0.2122E-03  0.2133E-03  0.2356E-03  0.2363E-03  0.2122E-03  0.2133E-03
     -0.196  0.3429E-01  0.3428E-01  0.1907E-02  0.1907E-02  0.1907E-02  0.1907E-02  0.1907E-02  0.1907E-02  0.2887E-03  0.2886E-03  0.2887E-03  0.2886E-03  0.3012E-03  0.3010E-03  0.2887E-03  0.2886E-03  0.3012E-03  0.3010E-03
     -0.116  0.3032E-01  0.3029E-01  0.1760E-02  0.1759E-02  0.1760E-02  0.1759E-02  0.1760E-02  0.1759E-02  0.3074E-03  0.3079E-03  0.3074E-03  0.3079E-03  0.2886E-03  0.2878E-03  0.3074E-03  0.3079E-03  0.2886E-03  0.2878E-03
     -0.037  0.3171E-01  0.3174E-01  0.1934E-02  0.1937E-02  0.1934E-02  0.1937E-02  0.1934E-02  0.1937E-02  0.3903E-03  0.3907E-03  0.3903E-03  0.3907E-03  0.3149E-03  0.3151E-03  0.3903E-03  0.3907E-03  0.3149E-03  0.3151E-03
      0.043  0.2832E-01  0.2823E-01  0.1792E-02  0.1787E-02  0.1792E-02  0.1787E-02  0.1792E-02  0.1787E-02  0.3590E-03  0.3578E-03  0.3590E-03  0.3578E-03  0.3203E-03  0.3190E-03  0.3590E-03  0.3578E-03  0.3203E-03  0.3190E-03
      0.123  0.2227E-01  0.2227E-01  0.1489E-02  0.1490E-02  0.1489E-02  0.1490E-02  0.1489E-02  0.1490E-02  0.3632E-03  0.3644E-03  0.3632E-03  0.3644E-03  0.2415E-03  0.2407E-03  0.3632E-03  0.3644E-03  0.2415E-03  0.2407E-03
      0.202  0.2829E-01  0.2839E-01  0.1989E-02  0.1997E-02  0.1989E-02  0.1997E-02  0.1989E-02  0.1997E-02  0.6000E-03  0.6025E-03  0.6000E-03  0.6025E-03  0.2826E-03  0.2834E-03  0.6000E-03  0.6025E-03  0.2826E-03  0.2834E-03
      0.282  0.3413E-01  0.3416E-01  0.2477E-02  0.2480E-02  0.2477E-02  0.2480E-02  0.2477E-02  0.2480E-02  0.7724E-03  0.7721E-03  0.7724E-03  0.7721E-03  0.4032E-03  0.4043E-03  0.7724E-03  0.7721E-03  0.4032E-03  0.4043E-03
      0.362  0.3307E-01  0.3304E-01  0.2492E-02  0.2491E-02  0.2492E-02  0.2491E-02  0.2492E-02  0.2491E-02  0.7428E-03  0.7409E-03  0.7428E-03  0.7409E-03  0.5583E-03  0.5599E-03  0.7428E-03  0.7409E-03  0.5583E-03  0.5599E-03
      0.442  0.3123E-01  0.3123E-01  0.2461E-02  0.2463E-02  0.2461E-02  0.2463E-02  0.2461E-02  0.2463E-02  0.6826E-03  0.6817E-03  0.6826E-03  0.6817E-03  0.7773E-03  0.7790E-03  0.6826E-03  0.6817E-03  0.7773E-03  0.7790E-03
      0.521  0.3065E-01  0.3062E-01  0.2510E-02  0.2509E-02  0.2510E-02  0.2509E-02  0.2510E-02  0.2509E-02  0.7373E-03  0.7373E-03  0.7373E-03  0.7373E-03  0.8763E-03  0.8754E-03  0.7373E-03  0.7373E-03  0.8763E-03  0.8754E-03
      0.601  0.3209E-01  0.3217E-01  0.2749E-02  0.2758E-02  0.2749E-02  0.2758E-02  0.2749E-02  0.2758E-02  0.9488E-03  0.9522E-03  0.9488E-03  0.9522E-03  0.9377E-03  0.9390E-03  0.9488E-03  0.9522E-03  0.9377E-03  0.9390E-03
      0.681  0.4039E-01  0.4044E-01  0.3574E-02  0.3580E-02  0.3574E-02  0.3580E-02  0.3574E-02  0.3580E-02  0.1394E-02  0.1397E-02  0.1394E-02  0.1397E-02  0.1106E-02  0.1105E-02  0.1394E-02  0.1397E-02  0.1106E-02  0.1105E-02
      0.760  0.3807E-01  0.3799E-01  0.3440E-02  0.3434E-02  0.3440E-02  0.3434E-02  0.3440E-02  0.3434E-02  0.1562E-02  0.1561E-02  0.1562E-02  0.1561E-02  0.9382E-03  0.9349E-03  0.1562E-02  0.1561E-02  0.9382E-03  0.9349E-03
      0.840  0.3364E-01  0.3364E-01  0.3146E-02  0.3147E-02  0.3146E-02  0.3147E-02  0.3146E-02  0.3147E-02  0.1603E-02  0.1602E-02  0.1603E-02  0.1602E-02  0.9110E-03  0.9118E-03  0.1603E-02  0.1602E-02  0.9110E-03  0.9118E-03
      0.920  0.3310E-01  0.3307E-01  0.3205E-02  0.3203E-02  0.3205E-02  0.3203E-02  0.3205E-02  0.3203E-02  0.1692E-02  0.1690E-02  0.1692E-02  0.1690E-02  0.1085E-02  0.1085E-02  0.1692E-02  0.1690E-02  0.1085E-02  0.1085E-02