   4   4   1   0
  0.1061952E+02  0.3489165E-09  0.3489165E-09  0.3489165E-09  0.5000000E-15
  1.000000000000000E-004
  CAR 
 unknown system                          
     24.11918101     -2.41882249  301      8.99477989      1.00000000
     -2.419  0.0000E+00  0.0000E+00  0.0000E+00  0.0000E+00
     -2.330  0.0000E+00  0.0000E+00  0.0000E+00  0.0000E+00
     -2.242  0.0000E+00  0.0000E+00  0.0000E+00  0.0000E+00
     -2.153  0.0000E+00  0.0000E+00  0.0000E+00  0.0000E+00
     -2.065  0.0000E+00  0.0000E+00  0.0000E+00  0.0000E+00
     -1.977  0.0000E+00  0.0000E+00  0.0000E+00  0.0000E+00
     -1.888  0.0000E+00  0.0000E+00  0.0000E+00  0.0000E+00
     -1.800  0.0000E+00  0.0000E+00  0.0000E+00  0.0000E+00
     -1.711  0.0000E+00  0.0000E+00  0.0000E+00  0.0000E+00
     -1.623  0.3194E-05  0.3190E-05  0.2825E-06  0.2822E-06
     -1.534  0.1998E-04  0.1995E-04  0.2050E-05  0.2047E-05
     -1.446  0.1160E-03  0.1158E-03  0.1231E-04  0.1229E-04
     -1.357  0.6646E-03  0.6638E-03  0.7110E-04  0.7101E-04
     -1.269  0.3486E-02  0.3482E-02  0.3794E-03  0.3790E-03
     -1.180  0.1377E-01  0.1376E-01  0.1597E-02  0.1596E-02
     -1.092  0.3434E-01  0.3433E-01  0.4635E-02  0.4632E-02
     -1.003  0.5133E-01  0.5133E-01  0.9176E-02  0.9172E-02
     -0.915  0.5881E-01  0.5880E-01  0.1438E-01  0.1437E-01
     -0.827  0.8419E-01  0.8416E-01  0.2183E-01  0.2182E-01
     -0.738  0.1025E+00  0.1025E+00  0.3089E-01  0.3088E-01
     -0.650  0.7974E-01  0.7976E-01  0.3795E-01  0.3795E-01
     -0.561  0.9045E-01  0.9042E-01  0.4596E-01  0.4595E-01
     -0.473  0.1311E+00  0.1311E+00  0.5756E-01  0.5755E-01
     -0.384  0.1374E+00  0.1374E+00  0.6972E-01  0.6971E-01
     -0.296  0.1217E+00  0.1217E+00  0.8050E-01  0.8049E-01
     -0.207  0.1355E+00  0.1355E+00  0.9248E-01  0.9247E-01
     -0.119  0.1564E+00  0.1564E+00  0.1063E+00  0.1063E+00
     -0.030  0.1160E+00  0.1160E+00  0.1166E+00  0.1166E+00
      0.058  0.1432E+00  0.1431E+00  0.1293E+00  0.1293E+00
      0.147  0.2007E+00  0.2007E+00  0.1471E+00  0.1470E+00
      0.235  0.1936E+00  0.1936E+00  0.1642E+00  0.1642E+00
      0.323  0.1934E+00  0.1934E+00  0.1813E+00  0.1813E+00
      0.412  0.1946E+00  0.1946E+00  0.1985E+00  0.1985E+00
      0.500  0.1382E+00  0.1383E+00  0.2108E+00  0.2108E+00
      0.589  0.1443E+00  0.1442E+00  0.2236E+00  0.2235E+00
      0.677  0.2303E+00  0.2302E+00  0.2439E+00  0.2439E+00
      0.766  0.2747E+00  0.2747E+00  0.2683E+00  0.2682E+00
      0.854  0.2336E+00  0.2336E+00  0.2889E+00  0.2889E+00
      0.943  0.2592E+00  0.2592E+00  0.3119E+00  0.3118E+00
      1.031  0.2206E+00  0.2207E+00  0.3314E+00  0.3314E+00
      1.120  0.1733E+00  0.1733E+00  0.3468E+00  0.3468E+00
      1.208  0.2480E+00  0.2480E+00  0.3687E+00  0.3687E+00
      1.296  0.2938E+00  0.2938E+00  0.3948E+00  0.3947E+00
      1.385  0.2810E+00  0.2810E+00  0.4196E+00  0.4196E+00
      1.473  0.2736E+00  0.2736E+00  0.4439E+00  0.4438E+00
      1.562  0.2628E+00  0.2628E+00  0.4671E+00  0.4671E+00
      1.650  0.3030E+00  0.3030E+00  0.4940E+00  0.4939E+00
      1.739  0.3794E+00  0.3794E+00  0.5275E+00  0.5275E+00
      1.827  0.3316E+00  0.3316E+00  0.5569E+00  0.5569E+00
      1.916  0.3178E+00  0.3178E+00  0.5850E+00  0.5850E+00
      2.004  0.3108E+00  0.3108E+00  0.6125E+00  0.6125E+00
      2.093  0.3065E+00  0.3064E+00  0.6397E+00  0.6397E+00
      2.181  0.3743E+00  0.3743E+00  0.6728E+00  0.6728E+00
      2.270  0.3820E+00  0.3820E+00  0.7066E+00  0.7066E+00
      2.358  0.4980E+00  0.4979E+00  0.7507E+00  0.7507E+00
      2.446  0.5427E+00  0.5427E+00  0.7987E+00  0.7987E+00
      2.535  0.4160E+00  0.4161E+00  0.8356E+00  0.8356E+00
      2.623  0.3953E+00  0.3953E+00  0.8706E+00  0.8706E+00
      2.712  0.4579E+00  0.4578E+00  0.9111E+00  0.9111E+00
      2.800  0.5602E+00  0.5601E+00  0.9608E+00  0.9607E+00
      2.889  0.6833E+00  0.6832E+00  0.1021E+01  0.1021E+01
      2.977  0.7487E+00  0.7487E+00  0.1088E+01  0.1087E+01
      3.066  0.7671E+00  0.7672E+00  0.1155E+01  0.1155E+01
      3.154  0.7297E+00  0.7297E+00  0.1220E+01  0.1220E+01
      3.243  0.9990E+00  0.9988E+00  0.1308E+01  0.1308E+01
      3.331  0.1423E+01  0.1423E+01  0.1434E+01  0.1434E+01
      3.420  0.1613E+01  0.1613E+01  0.1577E+01  0.1577E+01
      3.508  0.1793E+01  0.1792E+01  0.1736E+01  0.1736E+01
      3.596  0.2139E+01  0.2138E+01  0.1925E+01  0.1925E+01
      3.685  0.2148E+01  0.2148E+01  0.2115E+01  0.2115E+01
      3.773  0.2195E+01  0.2195E+01  0.2309E+01  0.2309E+01
      3.862  0.2399E+01  0.2399E+01  0.2522E+01  0.2522E+01
      3.950  0.2441E+01  0.2441E+01  0.2738E+01  0.2738E+01
      4.039  0.2850E+01  0.2850E+01  0.2990E+01  0.2990E+01
      4.127  0.3296E+01  0.3296E+01  0.3282E+01  0.3282E+01
      4.216  0.3694E+01  0.3694E+01  0.3609E+01  0.3609E+01
      4.304  0.4034E+01  0.4034E+01  0.3966E+01  0.3966E+01
      4.393  0.4116E+01  0.4116E+01  0.4330E+01  0.4330E+01
      4.481  0.3959E+01  0.3960E+01  0.4681E+01  0.4681E+01
      4.570  0.3757E+01  0.3757E+01  0.5013E+01  0.5013E+01
      4.658  0.3711E+01  0.3711E+01  0.5342E+01  0.5342E+01
      4.746  0.3608E+01  0.3608E+01  0.5662E+01  0.5662E+01
      4.835  0.3608E+01  0.3608E+01  0.5981E+01  0.5981E+01
      4.923  0.3654E+01  0.3654E+01  0.6305E+01  0.6305E+01
      5.012  0.3863E+01  0.3863E+01  0.6647E+01  0.6647E+01
      5.100  0.4396E+01  0.4396E+01  0.7036E+01  0.7036E+01
      5.189  0.4995E+01  0.4995E+01  0.7478E+01  0.7478E+01
      5.277  0.5121E+01  0.5121E+01  0.7931E+01  0.7931E+01
      5.366  0.5274E+01  0.5273E+01  0.8398E+01  0.8398E+01
      5.454  0.5812E+01  0.5811E+01  0.8912E+01  0.8912E+01
      5.543  0.6331E+01  0.6331E+01  0.9473E+01  0.9473E+01
      5.631  0.6552E+01  0.6552E+01  0.1005E+02  0.1005E+02
      5.719  0.6855E+01  0.6855E+01  0.1066E+02  0.1066E+02
      5.808  0.7262E+01  0.7263E+01  0.1130E+02  0.1130E+02
      5.896  0.6724E+01  0.6724E+01  0.1190E+02  0.1190E+02
      5.985  0.5601E+01  0.5602E+01  0.1239E+02  0.1239E+02
      6.073  0.4795E+01  0.4795E+01  0.1282E+02  0.1282E+02
      6.162  0.4501E+01  0.4501E+01  0.1322E+02  0.1322E+02
      6.250  0.4623E+01  0.4622E+01  0.1363E+02  0.1363E+02
      6.339  0.5294E+01  0.5293E+01  0.1410E+02  0.1410E+02
      6.427  0.5856E+01  0.5856E+01  0.1461E+02  0.1461E+02
      6.516  0.6181E+01  0.6181E+01  0.1516E+02  0.1516E+02
      6.604  0.6132E+01  0.6133E+01  0.1570E+02  0.1570E+02
      6.693  0.5710E+01  0.5710E+01  0.1621E+02  0.1621E+02
      6.781  0.5573E+01  0.5573E+01  0.1670E+02  0.1670E+02
      6.869  0.5428E+01  0.5429E+01  0.1718E+02  0.1718E+02
      6.958  0.5632E+01  0.5632E+01  0.1768E+02  0.1768E+02
      7.046  0.6297E+01  0.6297E+01  0.1824E+02  0.1824E+02
      7.135  0.7585E+01  0.7584E+01  0.1891E+02  0.1891E+02
      7.223  0.8671E+01  0.8671E+01  0.1968E+02  0.1968E+02
      7.312  0.7466E+01  0.7467E+01  0.2034E+02  0.2034E+02
      7.400  0.4793E+01  0.4793E+01  0.2076E+02  0.2076E+02
      7.489  0.2509E+01  0.2509E+01  0.2099E+02  0.2099E+02
      7.577  0.1027E+01  0.1027E+01  0.2108E+02  0.2108E+02
      7.666  0.5920E+00  0.5920E+00  0.2113E+02  0.2113E+02
      7.754  0.6938E+00  0.6937E+00  0.2119E+02  0.2119E+02
      7.843  0.8451E+00  0.8451E+00  0.2127E+02  0.2127E+02
      7.931  0.6841E+00  0.6842E+00  0.2133E+02  0.2133E+02
      8.019  0.6142E+00  0.6141E+00  0.2138E+02  0.2138E+02
      8.108  0.6798E+00  0.6798E+00  0.2144E+02  0.2144E+02
      8.196  0.7509E+00  0.7509E+00  0.2151E+02  0.2151E+02
      8.285  0.7228E+00  0.7228E+00  0.2157E+02  0.2157E+02
      8.373  0.6112E+00  0.6113E+00  0.2163E+02  0.2163E+02
      8.462  0.5496E+00  0.5496E+00  0.2168E+02  0.2168E+02
      8.550  0.5015E+00  0.5015E+00  0.2172E+02  0.2172E+02
      8.639  0.5063E+00  0.5062E+00  0.2177E+02  0.2177E+02
      8.727  0.6049E+00  0.6048E+00  0.2182E+02  0.2182E+02
      8.816  0.6453E+00  0.6452E+00  0.2188E+02  0.2188E+02
      8.904  0.7296E+00  0.7295E+00  0.2194E+02  0.2194E+02
      8.993  0.6518E+00  0.6518E+00  0.2200E+02  0.2200E+02
      9.081  0.4936E+00  0.4937E+00  0.2204E+02  0.2204E+02
      9.169  0.3909E+00  0.3909E+00  0.2208E+02  0.2208E+02
      9.258  0.4698E+00  0.4697E+00  0.2212E+02  0.2212E+02
      9.346  0.5675E+00  0.5674E+00  0.2217E+02  0.2217E+02
      9.435  0.7508E+00  0.7508E+00  0.2224E+02  0.2224E+02
      9.523  0.6261E+00  0.6262E+00  0.2229E+02  0.2229E+02
      9.612  0.3690E+00  0.3690E+00  0.2232E+02  0.2232E+02
      9.700  0.4668E+00  0.4667E+00  0.2236E+02  0.2236E+02
      9.789  0.5091E+00  0.5092E+00  0.2241E+02  0.2241E+02
      9.877  0.4535E+00  0.4535E+00  0.2245E+02  0.2245E+02
      9.966  0.5038E+00  0.5038E+00  0.2249E+02  0.2249E+02
     10.054  0.5088E+00  0.5088E+00  0.2254E+02  0.2254E+02
     10.142  0.5693E+00  0.5692E+00  0.2259E+02  0.2259E+02
     10.231  0.6038E+00  0.6038E+00  0.2264E+02  0.2264E+02
     10.319  0.4998E+00  0.4998E+00  0.2269E+02  0.2269E+02
     10.408  0.5504E+00  0.5503E+00  0.2274E+02  0.2274E+02
     10.496  0.5425E+00  0.5426E+00  0.2278E+02  0.2278E+02
     10.585  0.4032E+00  0.4032E+00  0.2282E+02  0.2282E+02
     10.673  0.3214E+00  0.3214E+00  0.2285E+02  0.2285E+02
     10.762  0.3231E+00  0.3230E+00  0.2288E+02  0.2288E+02
     10.850  0.4861E+00  0.4860E+00  0.2292E+02  0.2292E+02
     10.939  0.5967E+00  0.5967E+00  0.2297E+02  0.2297E+02
     11.027  0.5094E+00  0.5094E+00  0.2302E+02  0.2302E+02
     11.116  0.5015E+00  0.5014E+00  0.2306E+02  0.2306E+02
     11.204  0.5198E+00  0.5198E+00  0.2311E+02  0.2311E+02
     11.292  0.4759E+00  0.4759E+00  0.2315E+02  0.2315E+02
     11.381  0.3766E+00  0.3766E+00  0.2318E+02  0.2318E+02
     11.469  0.3753E+00  0.3753E+00  0.2322E+02  0.2322E+02
     11.558  0.4797E+00  0.4796E+00  0.2326E+02  0.2326E+02
     11.646  0.4720E+00  0.4721E+00  0.2330E+02  0.2330E+02
     11.735  0.2590E+00  0.2591E+00  0.2332E+02  0.2332E+02
     11.823  0.1775E+00  0.1775E+00  0.2334E+02  0.2334E+02
     11.912  0.2970E+00  0.2969E+00  0.2337E+02  0.2337E+02
     12.000  0.3592E+00  0.3592E+00  0.2340E+02  0.2340E+02
     12.089  0.4207E+00  0.4206E+00  0.2344E+02  0.2344E+02
     12.177  0.4812E+00  0.4812E+00  0.2348E+02  0.2348E+02
     12.266  0.4800E+00  0.4801E+00  0.2352E+02  0.2352E+02
     12.354  0.4219E+00  0.4219E+00  0.2356E+02  0.2356E+02
     12.442  0.4020E+00  0.4020E+00  0.2359E+02  0.2359E+02
     12.531  0.3125E+00  0.3126E+00  0.2362E+02  0.2362E+02
     12.619  0.1904E+00  0.1905E+00  0.2364E+02  0.2364E+02
     12.708  0.1255E+00  0.1255E+00  0.2365E+02  0.2365E+02
     12.796  0.1858E+00  0.1858E+00  0.2367E+02  0.2367E+02
     12.885  0.3013E+00  0.3013E+00  0.2369E+02  0.2369E+02
     12.973  0.3011E+00  0.3011E+00  0.2372E+02  0.2372E+02
     13.062  0.2025E+00  0.2025E+00  0.2374E+02  0.2374E+02
     13.150  0.2154E+00  0.2154E+00  0.2376E+02  0.2376E+02
     13.239  0.3319E+00  0.3318E+00  0.2379E+02  0.2379E+02
     13.327  0.4249E+00  0.4249E+00  0.2382E+02  0.2382E+02
     13.416  0.4725E+00  0.4725E+00  0.2387E+02  0.2387E+02
     13.504  0.4736E+00  0.4736E+00  0.2391E+02  0.2391E+02
     13.592  0.4615E+00  0.4615E+00  0.2395E+02  0.2395E+02
     13.681  0.4557E+00  0.4556E+00  0.2399E+02  0.2399E+02
     13.769  0.5410E+00  0.5410E+00  0.2404E+02  0.2404E+02
     13.858  0.5852E+00  0.5852E+00  0.2409E+02  0.2409E+02
     13.946  0.5275E+00  0.5275E+00  0.2413E+02  0.2413E+02
     14.035  0.5012E+00  0.5012E+00  0.2418E+02  0.2418E+02
     14.123  0.5158E+00  0.5157E+00  0.2422E+02  0.2422E+02
     14.212  0.5738E+00  0.5738E+00  0.2428E+02  0.2428E+02
     14.300  0.6397E+00  0.6397E+00  0.2433E+02  0.2433E+02
     14.389  0.5596E+00  0.5597E+00  0.2438E+02  0.2438E+02
     14.477  0.5630E+00  0.5629E+00  0.2443E+02  0.2443E+02
     14.565  0.6687E+00  0.6687E+00  0.2449E+02  0.2449E+02
     14.654  0.5681E+00  0.5682E+00  0.2454E+02  0.2454E+02
     14.742  0.4223E+00  0.4223E+00  0.2458E+02  0.2458E+02
     14.831  0.5320E+00  0.5320E+00  0.2463E+02  0.2463E+02
     14.919  0.5879E+00  0.5880E+00  0.2468E+02  0.2468E+02
     15.008  0.4875E+00  0.4875E+00  0.2472E+02  0.2472E+02
     15.096  0.5000E+00  0.5000E+00  0.2477E+02  0.2477E+02
     15.185  0.5772E+00  0.5772E+00  0.2482E+02  0.2482E+02
     15.273  0.5470E+00  0.5471E+00  0.2486E+02  0.2486E+02
     15.362  0.4913E+00  0.4913E+00  0.2491E+02  0.2491E+02
     15.450  0.5202E+00  0.5202E+00  0.2495E+02  0.2495E+02
     15.539  0.4220E+00  0.4221E+00  0.2499E+02  0.2499E+02
     15.627  0.4236E+00  0.4235E+00  0.2503E+02  0.2503E+02
     15.715  0.4786E+00  0.4786E+00  0.2507E+02  0.2507E+02
     15.804  0.5175E+00  0.5175E+00  0.2512E+02  0.2512E+02
     15.892  0.3980E+00  0.3981E+00  0.2515E+02  0.2515E+02
     15.981  0.3334E+00  0.3334E+00  0.2518E+02  0.2518E+02
     16.069  0.3880E+00  0.3879E+00  0.2522E+02  0.2522E+02
     16.158  0.4958E+00  0.4957E+00  0.2526E+02  0.2526E+02
     16.246  0.4879E+00  0.4879E+00  0.2530E+02  0.2530E+02
     16.335  0.4529E+00  0.4529E+00  0.2534E+02  0.2534E+02
     16.423  0.5091E+00  0.5091E+00  0.2539E+02  0.2539E+02
     16.512  0.5687E+00  0.5687E+00  0.2544E+02  0.2544E+02
     16.600  0.4499E+00  0.4500E+00  0.2548E+02  0.2548E+02
     16.689  0.3246E+00  0.3246E+00  0.2551E+02  0.2551E+02
     16.777  0.4207E+00  0.4206E+00  0.2554E+02  0.2554E+02
     16.865  0.5740E+00  0.5739E+00  0.2560E+02  0.2560E+02
     16.954  0.5236E+00  0.5237E+00  0.2564E+02  0.2564E+02
     17.042  0.4139E+00  0.4139E+00  0.2568E+02  0.2568E+02
     17.131  0.4279E+00  0.4279E+00  0.2572E+02  0.2572E+02
     17.219  0.4165E+00  0.4165E+00  0.2575E+02  0.2575E+02
     17.308  0.4310E+00  0.4310E+00  0.2579E+02  0.2579E+02
     17.396  0.4774E+00  0.4773E+00  0.2583E+02  0.2583E+02
     17.485  0.7175E+00  0.7173E+00  0.2590E+02  0.2590E+02
     17.573  0.8500E+00  0.8500E+00  0.2597E+02  0.2597E+02
     17.662  0.8286E+00  0.8286E+00  0.2605E+02  0.2605E+02
     17.750  0.8204E+00  0.8203E+00  0.2612E+02  0.2612E+02
     17.839  0.7876E+00  0.7877E+00  0.2619E+02  0.2619E+02
     17.927  0.5880E+00  0.5882E+00  0.2624E+02  0.2624E+02
     18.015  0.4110E+00  0.4110E+00  0.2628E+02  0.2628E+02
     18.104  0.4775E+00  0.4774E+00  0.2632E+02  0.2632E+02
     18.192  0.5757E+00  0.5755E+00  0.2637E+02  0.2637E+02
     18.281  0.6679E+00  0.6676E+00  0.2643E+02  0.2643E+02
     18.369  0.7418E+00  0.7418E+00  0.2649E+02  0.2649E+02
     18.458  0.6415E+00  0.6417E+00  0.2655E+02  0.2655E+02
     18.546  0.6538E+00  0.6539E+00  0.2661E+02  0.2661E+02
     18.635  0.5781E+00  0.5782E+00  0.2666E+02  0.2666E+02
     18.723  0.4965E+00  0.4964E+00  0.2670E+02  0.2670E+02
     18.812  0.6197E+00  0.6190E+00  0.2676E+02  0.2676E+02
     18.900  0.8595E+00  0.8588E+00  0.2684E+02  0.2684E+02
     18.989  0.1036E+01  0.1037E+01  0.2693E+02  0.2693E+02
     19.077  0.8353E+00  0.8361E+00  0.2700E+02  0.2700E+02
     19.165  0.5274E+00  0.5278E+00  0.2705E+02  0.2705E+02
     19.254  0.3885E+00  0.3889E+00  0.2708E+02  0.2708E+02
     19.342  0.4357E+00  0.4381E+00  0.2712E+02  0.2712E+02
     19.431  0.6074E+00  0.6149E+00  0.2717E+02  0.2718E+02
     19.519  0.7351E+00  0.7338E+00  0.2724E+02  0.2724E+02
     19.608  0.7819E+00  0.7751E+00  0.2731E+02  0.2731E+02
     19.696  0.6223E+00  0.6200E+00  0.2736E+02  0.2736E+02
     19.785  0.4962E+00  0.4947E+00  0.2741E+02  0.2741E+02
     19.873  0.5471E+00  0.5416E+00  0.2746E+02  0.2746E+02
     19.962  0.5696E+00  0.5518E+00  0.2751E+02  0.2751E+02
     20.050  0.5403E+00  0.5308E+00  0.2756E+02  0.2755E+02
     20.138  0.5838E+00  0.6055E+00  0.2761E+02  0.2761E+02
     20.227  0.6695E+00  0.6845E+00  0.2767E+02  0.2767E+02
     20.315  0.5972E+00  0.6092E+00  0.2772E+02  0.2772E+02
     20.404  0.4661E+00  0.4659E+00  0.2776E+02  0.2776E+02
     20.492  0.3046E+00  0.3007E+00  0.2779E+02  0.2779E+02
     20.581  0.2381E+00  0.2344E+00  0.2781E+02  0.2781E+02
     20.669  0.2390E+00  0.2349E+00  0.2783E+02  0.2783E+02
     20.758  0.2255E+00  0.2257E+00  0.2785E+02  0.2785E+02
     20.846  0.2132E+00  0.2107E+00  0.2787E+02  0.2787E+02
     20.935  0.3094E+00  0.2590E+00  0.2790E+02  0.2789E+02
     21.023  0.3454E+00  0.2875E+00  0.2793E+02  0.2792E+02
     21.112  0.2027E+00  0.2397E+00  0.2794E+02  0.2794E+02
     21.200  0.1154E+00  0.1185E+00  0.2795E+02  0.2795E+02
     21.288  0.1320E+00  0.1028E+00  0.2797E+02  0.2796E+02
     21.377  0.9473E-01  0.1442E+00  0.2797E+02  0.2797E+02
     21.465  0.5184E-01  0.8934E-01  0.2798E+02  0.2798E+02
     21.554  0.2583E-01  0.3485E-01  0.2798E+02  0.2798E+02
     21.642  0.9345E-02  0.1099E-01  0.2798E+02  0.2798E+02
     21.731  0.9212E-02  0.9217E-02  0.2798E+02  0.2798E+02
     21.819  0.1742E-01  0.1748E-01  0.2798E+02  0.2798E+02
     21.908  0.1312E-01  0.1351E-01  0.2799E+02  0.2799E+02
     21.996  0.1395E-01  0.1569E-01  0.2799E+02  0.2799E+02
     22.085  0.3898E-01  0.4195E-01  0.2799E+02  0.2799E+02
     22.173  0.4816E-01  0.4622E-01  0.2799E+02  0.2800E+02
     22.262  0.1899E-01  0.1759E-01  0.2800E+02  0.2800E+02
     22.350  0.5730E-02  0.9023E-02  0.2800E+02  0.2800E+02
     22.438  0.8162E-02  0.1318E-01  0.2800E+02  0.2800E+02
     22.527  0.1280E-01  0.8364E-02  0.2800E+02  0.2800E+02
     22.615  0.6534E-02  0.2195E-02  0.2800E+02  0.2800E+02
     22.704  0.1573E-02  0.4704E-03  0.2800E+02  0.2800E+02
     22.792  0.6188E-03  0.4160E-03  0.2800E+02  0.2800E+02
     22.881  0.1350E-02  0.1349E-02  0.2800E+02  0.2800E+02
     22.969  0.2113E-02  0.2113E-02  0.2800E+02  0.2800E+02
     23.058  0.9903E-03  0.9906E-03  0.2800E+02  0.2800E+02
     23.146  0.2215E-03  0.2216E-03  0.2800E+02  0.2800E+02
     23.235  0.3977E-04  0.3979E-04  0.2800E+02  0.2800E+02
     23.323  0.0000E+00  0.0000E+00  0.2800E+02  0.2800E+02
     23.412  0.0000E+00  0.0000E+00  0.2800E+02  0.2800E+02
     23.500  0.0000E+00  0.0000E+00  0.2800E+02  0.2800E+02
     23.588  0.0000E+00  0.0000E+00  0.2800E+02  0.2800E+02
     23.677  0.0000E+00  0.0000E+00  0.2800E+02  0.2800E+02
     23.765  0.0000E+00  0.0000E+00  0.2800E+02  0.2800E+02
     23.854  0.0000E+00  0.0000E+00  0.2800E+02  0.2800E+02
     23.942  0.0000E+00  0.0000E+00  0.2800E+02  0.2800E+02
     24.031  0.0000E+00  0.0000E+00  0.2800E+02  0.2800E+02
     24.119  0.0000E+00  0.0000E+00  0.2800E+02  0.2800E+02
     24.11918101     -2.41882249  301      8.99477989      1.00000000
     -2.419  0.0000E+00  0.0000E+00  0.0000E+00  0.0000E+00  0.0000E+00  0.0000E+00  0.0000E+00  0.0000E+00  0.0000E+00  0.0000E+00  0.0000E+00  0.0000E+00  0.0000E+00  0.0000E+00  0.0000E+00  0.0000E+00  0.0000E+00  0.0000E+00
     -2.330  0.0000E+00  0.0000E+00  0.0000E+00  0.0000E+00  0.0000E+00  0.0000E+00  0.0000E+00  0.0000E+00  0.0000E+00  0.0000E+00  0.0000E+00  0.0000E+00  0.0000E+00  0.0000E+00  0.0000E+00  0.0000E+00  0.0000E+00  0.0000E+00
     -2.242  0.0000E+00  0.0000E+00  0.0000E+00  0.0000E+00  0.0000E+00  0.0000E+00  0.0000E+00  0.0000E+00  0.0000E+00  0.0000E+00  0.0000E+00  0.0000E+00  0.0000E+00  0.0000E+00  0.0000E+00  0.0000E+00  0.0000E+00  0.0000E+00
     -2.153  0.0000E+00  0.0000E+00  0.0000E+00  0.0000E+00  0.0000E+00  0.0000E+00  0.0000E+00  0.0000E+00  0.0000E+00  0.0000E+00  0.0000E+00  0.0000E+00  0.0000E+00  0.0000E+00  0.0000E+00  0.0000E+00  0.0000E+00  0.0000E+00
     -2.065  0.0000E+00  0.0000E+00  0.0000E+00  0.0000E+00  0.0000E+00  0.0000E+00  0.0000E+00  0.0000E+00  0.0000E+00  0.0000E+00  0.0000E+00  0.0000E+00  0.0000E+00  0.0000E+00  0.0000E+00  0.0000E+00  0.0000E+00  0.0000E+00
     -1.977  0.0000E+00  0.0000E+00  0.0000E+00  0.0000E+00  0.0000E+00  0.0000E+00  0.0000E+00  0.0000E+00  0.0000E+00  0.0000E+00  0.0000E+00  0.0000E+00  0.0000E+00  0.0000E+00  0.0000E+00  0.0000E+00  0.0000E+00  0.0000E+00
     -1.888  0.0000E+00  0.0000E+00  0.0000E+00  0.0000E+00  0.0000E+00  0.0000E+00  0.0000E+00  0.0000E+00  0.0000E+00  0.0000E+00  0.0000E+00  0.0000E+00  0.0000E+00  0.0000E+00  0.0000E+00  0.0000E+00  0.0000E+00  0.0000E+00
     -1.800  0.0000E+00  0.0000E+00  0.0000E+00  0.0000E+00  0.0000E+00  0.0000E+00  0.0000E+00  0.0000E+00  0.0000E+00  0.0000E+00  0.0000E+00  0.0000E+00  0.0000E+00  0.0000E+00  0.0000E+00  0.0000E+00  0.0000E+00  0.0000E+00
     -1.711  0.0000E+00  0.0000E+00  0.0000E+00  0.0000E+00  0.0000E+00  0.0000E+00  0.0000E+00  0.0000E+00  0.0000E+00  0.0000E+00  0.0000E+00  0.0000E+00  0.0000E+00  0.0000E+00  0.0000E+00  0.0000E+00  0.0000E+00  0.0000E+00
     -1.623  0.5204E-06  0.5198E-06  0.6549E-09  0.6540E-09  0.6549E-09  0.6540E-09  0.6549E-09  0.6540E-09  0.1138E-15  0.8435E-16  0.1138E-15  0.8435E-16  0.4760E-11  0.4704E-11  0.1138E-15  0.8435E-16  0.4760E-11  0.4704E-11
     -1.534  0.3248E-05  0.3244E-05  0.6429E-08  0.6421E-08  0.6429E-08  0.6421E-08  0.6429E-08  0.6421E-08  0.2994E-10  0.2990E-10  0.2994E-10  0.2990E-10  0.3490E-10  0.3462E-10  0.2994E-10  0.2990E-10  0.3490E-10  0.3462E-10
     -1.446  0.1886E-04  0.1883E-04  0.3847E-07  0.3842E-07  0.3847E-07  0.3842E-07  0.3847E-07  0.3842E-07  0.2234E-09  0.2234E-09  0.2234E-09  0.2234E-09  0.1927E-09  0.1911E-09  0.2234E-09  0.2234E-09  0.1927E-09  0.1911E-09
     -1.357  0.1080E-03  0.1079E-03  0.2253E-06  0.2250E-06  0.2253E-06  0.2250E-06  0.2253E-06  0.2250E-06  0.1230E-08  0.1231E-08  0.1230E-08  0.1231E-08  0.1276E-08  0.1267E-08  0.1230E-08  0.1231E-08  0.1276E-08  0.1267E-08
     -1.269  0.5662E-03  0.5656E-03  0.1301E-05  0.1299E-05  0.1301E-05  0.1299E-05  0.1301E-05  0.1299E-05  0.7632E-08  0.7635E-08  0.7632E-08  0.7635E-08  0.7659E-08  0.7608E-08  0.7632E-08  0.7635E-08  0.7659E-08  0.7608E-08
     -1.180  0.2233E-02  0.2231E-02  0.6425E-05  0.6418E-05  0.6425E-05  0.6418E-05  0.6425E-05  0.6418E-05  0.4332E-07  0.4334E-07  0.4332E-07  0.4334E-07  0.3691E-07  0.3671E-07  0.4332E-07  0.4334E-07  0.3691E-07  0.3671E-07
     -1.092  0.5552E-02  0.5550E-02  0.2168E-04  0.2167E-04  0.2168E-04  0.2167E-04  0.2168E-04  0.2167E-04  0.1948E-06  0.1950E-06  0.1948E-06  0.1950E-06  0.1222E-06  0.1219E-06  0.1948E-06  0.1950E-06  0.1222E-06  0.1219E-06
     -1.003  0.8261E-02  0.8260E-02  0.4506E-04  0.4505E-04  0.4506E-04  0.4505E-04  0.4506E-04  0.4505E-04  0.5450E-06  0.5463E-06  0.5450E-06  0.5463E-06  0.3398E-06  0.3399E-06  0.5450E-06  0.5463E-06  0.3398E-06  0.3399E-06
     -0.915  0.9390E-02  0.9388E-02  0.7636E-04  0.7633E-04  0.7636E-04  0.7633E-04  0.7636E-04  0.7633E-04  0.1083E-05  0.1086E-05  0.1083E-05  0.1086E-05  0.1106E-05  0.1107E-05  0.1083E-05  0.1086E-05  0.1106E-05  0.1107E-05
     -0.827  0.1333E-01  0.1332E-01  0.1462E-03  0.1462E-03  0.1462E-03  0.1462E-03  0.1462E-03  0.1462E-03  0.2629E-05  0.2635E-05  0.2629E-05  0.2635E-05  0.2620E-05  0.2623E-05  0.2629E-05  0.2635E-05  0.2620E-05  0.2623E-05
     -0.738  0.1614E-01  0.1614E-01  0.2036E-03  0.2036E-03  0.2036E-03  0.2036E-03  0.2036E-03  0.2036E-03  0.4924E-05  0.4930E-05  0.4924E-05  0.4930E-05  0.3302E-05  0.3305E-05  0.4924E-05  0.4930E-05  0.3302E-05  0.3305E-05
     -0.650  0.1247E-01  0.1247E-01  0.1868E-03  0.1868E-03  0.1868E-03  0.1868E-03  0.1868E-03  0.1868E-03  0.5995E-05  0.5996E-05  0.5995E-05  0.5996E-05  0.3244E-05  0.3244E-05  0.5995E-05  0.5996E-05  0.3244E-05  0.3244E-05
     -0.561  0.1397E-01  0.1396E-01  0.2672E-03  0.2671E-03  0.2672E-03  0.2671E-03  0.2672E-03  0.2671E-03  0.1035E-04  0.1034E-04  0.1035E-04  0.1034E-04  0.6705E-05  0.6699E-05  0.1035E-04  0.1034E-04  0.6705E-05  0.6699E-05
     -0.473  0.2011E-01  0.2010E-01  0.4307E-03  0.4306E-03  0.4307E-03  0.4306E-03  0.4307E-03  0.4306E-03  0.1590E-04  0.1590E-04  0.1590E-04  0.1590E-04  0.1547E-04  0.1545E-04  0.1590E-04  0.1590E-04  0.1547E-04  0.1545E-04
     -0.384  0.2094E-01  0.2094E-01  0.4927E-03  0.4927E-03  0.4927E-03  0.4927E-03  0.4927E-03  0.4927E-03  0.1799E-04  0.1799E-04  0.1799E-04  0.1799E-04  0.2235E-04  0.2234E-04  0.1799E-04  0.1799E-04  0.2235E-04  0.2234E-04
     -0.296  0.1839E-01  0.1839E-01  0.4832E-03  0.4832E-03  0.4832E-03  0.4832E-03  0.4832E-03  0.4832E-03  0.2462E-04  0.2461E-04  0.2462E-04  0.2461E-04  0.1972E-04  0.1972E-04  0.2462E-04  0.2461E-04  0.1972E-04  0.1972E-04
     -0.207  0.2025E-01  0.2025E-01  0.6025E-03  0.6024E-03  0.6025E-03  0.6024E-03  0.6025E-03  0.6024E-03  0.4072E-04  0.4070E-04  0.4072E-04  0.4070E-04  0.2133E-04  0.2132E-04  0.4072E-04  0.4070E-04  0.2133E-04  0.2132E-04
     -0.119  0.2323E-01  0.2323E-01  0.7389E-03  0.7390E-03  0.7389E-03  0.7390E-03  0.7389E-03  0.7390E-03  0.5479E-04  0.5478E-04  0.5479E-04  0.5478E-04  0.2759E-04  0.2758E-04  0.5479E-04  0.5478E-04  0.2759E-04  0.2758E-04
     -0.030  0.1707E-01  0.1707E-01  0.5893E-03  0.5894E-03  0.5893E-03  0.5894E-03  0.5893E-03  0.5894E-03  0.4264E-04  0.4264E-04  0.4264E-04  0.4264E-04  0.3345E-04  0.3344E-04  0.4264E-04  0.4264E-04  0.3345E-04  0.3344E-04
      0.058  0.2076E-01  0.2076E-01  0.8129E-03  0.8125E-03  0.8129E-03  0.8125E-03  0.8129E-03  0.8125E-03  0.5846E-04  0.5844E-04  0.5846E-04  0.5844E-04  0.6679E-04  0.6677E-04  0.5846E-04  0.5844E-04  0.6679E-04  0.6677E-04
      0.147  0.2892E-01  0.2892E-01  0.1193E-02  0.1193E-02  0.1193E-02  0.1193E-02  0.1193E-02  0.1193E-02  0.9280E-04  0.9279E-04  0.9280E-04  0.9279E-04  0.9925E-04  0.9927E-04  0.9280E-04  0.9279E-04  0.9925E-04  0.9927E-04
      0.235  0.2768E-01  0.2768E-01  0.1210E-02  0.1210E-02  0.1210E-02  0.1210E-02  0.1210E-02  0.1210E-02  0.1102E-03  0.1102E-03  0.1102E-03  0.1102E-03  0.9408E-04  0.9411E-04  0.1102E-03  0.1102E-03  0.9408E-04  0.9411E-04
      0.323  0.2735E-01  0.2735E-01  0.1284E-02  0.1284E-02  0.1284E-02  0.1284E-02  0.1284E-02  0.1284E-02  0.1341E-03  0.1341E-03  0.1341E-03  0.1341E-03  0.1038E-03  0.1038E-03  0.1341E-03  0.1341E-03  0.1038E-03  0.1038E-03
      0.412  0.2730E-01  0.2731E-01  0.1343E-02  0.1343E-02  0.1343E-02  0.1343E-02  0.1343E-02  0.1343E-02  0.1687E-03  0.1687E-03  0.1687E-03  0.1687E-03  0.1010E-03  0.1010E-03  0.1687E-03  0.1687E-03  0.1010E-03  0.1010E-03
      0.500  0.1921E-01  0.1922E-01  0.9934E-03  0.9936E-03  0.9934E-03  0.9936E-03  0.9934E-03  0.9936E-03  0.1518E-03  0.1519E-03  0.1518E-03  0.1519E-03  0.6703E-04  0.6703E-04  0.1518E-03  0.1519E-03  0.6703E-04  0.6703E-04
      0.589  0.1970E-01  0.1969E-01  0.1124E-02  0.1123E-02  0.1124E-02  0.1123E-02  0.1124E-02  0.1123E-02  0.1707E-03  0.1706E-03  0.1707E-03  0.1706E-03  0.1088E-03  0.1087E-03  0.1707E-03  0.1706E-03  0.1088E-03  0.1087E-03
      0.677  0.3110E-01  0.3109E-01  0.1881E-02  0.1880E-02  0.1881E-02  0.1880E-02  0.1881E-02  0.1880E-02  0.2590E-03  0.2589E-03  0.2590E-03  0.2589E-03  0.2431E-03  0.2429E-03  0.2590E-03  0.2589E-03  0.2431E-03  0.2429E-03
      0.766  0.3682E-01  0.3683E-01  0.2300E-02  0.2300E-02  0.2300E-02  0.2300E-02  0.2300E-02  0.2300E-02  0.3161E-03  0.3160E-03  0.3161E-03  0.3160E-03  0.3443E-03  0.3441E-03  0.3161E-03  0.3160E-03  0.3443E-03  0.3441E-03
      0.854  0.3095E-01  0.3095E-01  0.2022E-02  0.2022E-02  0.2022E-02  0.2022E-02  0.2022E-02  0.2022E-02  0.3300E-03  0.3300E-03  0.3300E-03  0.3300E-03  0.3101E-03  0.3100E-03  0.3300E-03  0.3300E-03  0.3101E-03  0.3100E-03
      0.943  0.3392E-01  0.3392E-01  0.2330E-02  0.2330E-02  0.2330E-02  0.2330E-02  0.2330E-02  0.2330E-02  0.4367E-03  0.4368E-03  0.4367E-03  0.4368E-03  0.3541E-03  0.3539E-03  0.4367E-03  0.4368E-03  0.3541E-03  0.3539E-03
      1.031  0.2864E-01  0.2865E-01  0.2041E-02  0.2041E-02  0.2041E-02  0.2041E-02  0.2041E-02  0.2041E-02  0.3662E-03  0.3664E-03  0.3662E-03  0.3664E-03  0.3492E-03  0.3493E-03  0.3662E-03  0.3664E-03  0.3492E-03  0.3493E-03
      1.120  0.2211E-01  0.2211E-01  0.1674E-02  0.1674E-02  0.1674E-02  0.1674E-02  0.1674E-02  0.1674E-02  0.3848E-03  0.3847E-03  0.3848E-03  0.3847E-03  0.2444E-03  0.2445E-03  0.3848E-03  0.3847E-03  0.2444E-03  0.2445E-03
      1.208  0.3117E-01  0.3117E-01  0.2468E-02  0.2468E-02  0.2468E-02  0.2468E-02  0.2468E-02  0.2468E-02  0.6949E-03  0.6947E-03  0.6949E-03  0.6947E-03  0.3155E-03  0.3155E-03  0.6949E-03  0.6947E-03  0.3155E-03  0.3155E-03
      1.296  0.3654E-01  0.3654E-01  0.2992E-02  0.2992E-02  0.2992E-02  0.2992E-02  0.2992E-02  0.2992E-02  0.8456E-03  0.8457E-03  0.8456E-03  0.8457E-03  0.4638E-03  0.4637E-03  0.8456E-03  0.8457E-03  0.4638E-03  0.4637E-03
      1.385  0.3443E-01  0.3443E-01  0.2935E-02  0.2935E-02  0.2935E-02  0.2935E-02  0.2935E-02  0.2935E-02  0.7785E-03  0.7786E-03  0.7785E-03  0.7786E-03  0.6593E-03  0.6591E-03  0.7785E-03  0.7786E-03  0.6593E-03  0.6591E-03
      1.473  0.3292E-01  0.3292E-01  0.2937E-02  0.2937E-02  0.2937E-02  0.2937E-02  0.2937E-02  0.2937E-02  0.7295E-03  0.7295E-03  0.7295E-03  0.7295E-03  0.9173E-03  0.9169E-03  0.7295E-03  0.7295E-03  0.9173E-03  0.9169E-03
      1.562  0.3113E-01  0.3113E-01  0.2882E-02  0.2882E-02  0.2882E-02  0.2882E-02  0.2882E-02  0.2882E-02  0.7982E-03  0.7981E-03  0.7982E-03  0.7981E-03  0.9406E-03  0.9404E-03  0.7982E-03  0.7981E-03  0.9406E-03  0.9404E-03
      1.650  0.3521E-01  0.3520E-01  0.3421E-02  0.3420E-02  0.3421E-02  0.3420E-02  0.3421E-02  0.3420E-02  0.1108E-02  0.1107E-02  0.1108E-02  0.1107E-02  0.1074E-02  0.1073E-02  0.1108E-02  0.1107E-02  0.1074E-02  0.1073E-02
      1.739  0.4364E-01  0.4364E-01  0.4366E-02  0.4366E-02  0.4366E-02  0.4366E-02  0.4366E-02  0.4366E-02  0.1581E-02  0.1581E-02  0.1581E-02  0.1581E-02  0.1199E-02  0.1199E-02  0.1581E-02  0.1581E-02  0.1199E-02  0.1199E-02
      1.827  0.3764E-01  0.3764E-01  0.3849E-02  0.3850E-02  0.3849E-02  0.3850E-02  0.3849E-02  0.3850E-02  0.1656E-02  0.1657E-02  0.1656E-02  0.1657E-02  0.9331E-03  0.9330E-03  0.1656E-02  0.1657E-02  0.9331E-03  0.9330E-03
      1.916  0.3528E-01  0.3528E-01  0.3751E-02  0.3751E-02  0.3751E-02  0.3751E-02  0.3751E-02  0.3751E-02  0.1761E-02  0.1761E-02  0.1761E-02  0.1761E-02  0.1036E-02  0.1036E-02  0.1761E-02  0.1761E-02  0.1036E-02  0.1036E-02
      2.004  0.3383E-01  0.3383E-01  0.3716E-02  0.3716E-02  0.3716E-02  0.3716E-02  0.3716E-02  0.3716E-02  0.1805E-02  0.1806E-02  0.1805E-02  0.1806E-02  0.1235E-02  0.1235E-02  0.1805E-02  0.1806E-02  0.1235E-02  0.1235E-02