   4   4   1   0
  0.1512036E+02  0.3925311E-09  0.3925311E-09  0.3925311E-09  0.5000000E-15
  1.000000000000000E-004
  CAR 
 unknown system                          
     17.14010791     -3.68522574  301      4.91842334      1.00000000
     -3.685  0.0000E+00  0.0000E+00  0.0000E+00  0.0000E+00
     -3.616  0.0000E+00  0.0000E+00  0.0000E+00  0.0000E+00
     -3.546  0.0000E+00  0.0000E+00  0.0000E+00  0.0000E+00
     -3.477  0.0000E+00  0.0000E+00  0.0000E+00  0.0000E+00
     -3.408  0.0000E+00  0.0000E+00  0.0000E+00  0.0000E+00
     -3.338  0.0000E+00  0.0000E+00  0.0000E+00  0.0000E+00
     -3.269  0.0000E+00  0.0000E+00  0.0000E+00  0.0000E+00
     -3.199  0.6478E-06  0.6535E-06  0.4497E-07  0.4536E-07
     -3.130  0.6604E-05  0.6661E-05  0.5034E-06  0.5078E-06
     -3.060  0.3299E-04  0.3327E-04  0.2793E-05  0.2818E-05
     -2.991  0.1297E-03  0.1309E-03  0.1180E-04  0.1190E-04
     -2.922  0.5143E-03  0.5187E-03  0.4750E-04  0.4791E-04
     -2.852  0.2021E-02  0.2038E-02  0.1878E-03  0.1894E-03
     -2.783  0.7190E-02  0.7243E-02  0.6869E-03  0.6922E-03
     -2.713  0.2080E-01  0.2092E-01  0.2131E-02  0.2145E-02
     -2.644  0.4351E-01  0.4366E-01  0.5152E-02  0.5176E-02
     -2.575  0.6397E-01  0.6407E-01  0.9592E-02  0.9623E-02
     -2.505  0.7978E-01  0.7990E-01  0.1513E-01  0.1517E-01
     -2.436  0.1058E+00  0.1059E+00  0.2247E-01  0.2252E-01
     -2.366  0.1209E+00  0.1209E+00  0.3087E-01  0.3092E-01
     -2.297  0.1103E+00  0.1103E+00  0.3853E-01  0.3857E-01
     -2.227  0.1245E+00  0.1247E+00  0.4717E-01  0.4723E-01
     -2.158  0.1593E+00  0.1595E+00  0.5823E-01  0.5830E-01
     -2.089  0.1687E+00  0.1687E+00  0.6995E-01  0.7002E-01
     -2.019  0.1611E+00  0.1611E+00  0.8114E-01  0.8121E-01
     -1.950  0.1738E+00  0.1739E+00  0.9321E-01  0.9329E-01
     -1.880  0.1846E+00  0.1845E+00  0.1060E+00  0.1061E+00
     -1.811  0.1628E+00  0.1627E+00  0.1173E+00  0.1174E+00
     -1.742  0.1888E+00  0.1891E+00  0.1304E+00  0.1305E+00
     -1.672  0.2378E+00  0.2380E+00  0.1470E+00  0.1471E+00
     -1.603  0.2428E+00  0.2427E+00  0.1638E+00  0.1639E+00
     -1.533  0.2410E+00  0.2410E+00  0.1806E+00  0.1807E+00
     -1.464  0.2329E+00  0.2327E+00  0.1967E+00  0.1968E+00
     -1.394  0.1914E+00  0.1912E+00  0.2100E+00  0.2101E+00
     -1.325  0.1951E+00  0.1953E+00  0.2236E+00  0.2237E+00
     -1.256  0.2680E+00  0.2685E+00  0.2422E+00  0.2423E+00
     -1.186  0.3192E+00  0.3193E+00  0.2644E+00  0.2645E+00
     -1.117  0.3019E+00  0.3018E+00  0.2853E+00  0.2855E+00
     -1.047  0.3060E+00  0.3061E+00  0.3066E+00  0.3067E+00
     -0.978  0.2867E+00  0.2864E+00  0.3265E+00  0.3266E+00
     -0.909  0.2400E+00  0.2399E+00  0.3432E+00  0.3433E+00
     -0.839  0.2773E+00  0.2778E+00  0.3624E+00  0.3626E+00
     -0.770  0.3367E+00  0.3369E+00  0.3858E+00  0.3860E+00
     -0.700  0.3426E+00  0.3425E+00  0.4096E+00  0.4097E+00
     -0.631  0.3287E+00  0.3287E+00  0.4324E+00  0.4326E+00
     -0.561  0.3309E+00  0.3309E+00  0.4554E+00  0.4556E+00
     -0.492  0.3420E+00  0.3422E+00  0.4792E+00  0.4793E+00
     -0.423  0.4148E+00  0.4151E+00  0.5080E+00  0.5082E+00
     -0.353  0.4328E+00  0.4326E+00  0.5380E+00  0.5382E+00
     -0.284  0.3873E+00  0.3871E+00  0.5649E+00  0.5651E+00
     -0.214  0.3791E+00  0.3790E+00  0.5913E+00  0.5914E+00
     -0.145  0.3552E+00  0.3550E+00  0.6159E+00  0.6161E+00
     -0.076  0.3652E+00  0.3655E+00  0.6413E+00  0.6415E+00
     -0.006  0.4389E+00  0.4392E+00  0.6718E+00  0.6720E+00
      0.063  0.4812E+00  0.4814E+00  0.7052E+00  0.7054E+00
      0.133  0.5559E+00  0.5563E+00  0.7438E+00  0.7440E+00
      0.202  0.6006E+00  0.6004E+00  0.7855E+00  0.7857E+00
      0.272  0.5211E+00  0.5206E+00  0.8217E+00  0.8219E+00
      0.341  0.4648E+00  0.4647E+00  0.8540E+00  0.8541E+00
      0.410  0.4994E+00  0.4995E+00  0.8887E+00  0.8888E+00
      0.480  0.5708E+00  0.5710E+00  0.9283E+00  0.9285E+00
      0.549  0.6710E+00  0.6711E+00  0.9750E+00  0.9752E+00
      0.619  0.7494E+00  0.7494E+00  0.1027E+01  0.1027E+01
      0.688  0.8185E+00  0.8184E+00  0.1084E+01  0.1084E+01
      0.758  0.8225E+00  0.8220E+00  0.1141E+01  0.1141E+01
      0.827  0.8002E+00  0.7998E+00  0.1197E+01  0.1197E+01
      0.896  0.9663E+00  0.9662E+00  0.1264E+01  0.1264E+01
      0.966  0.1314E+01  0.1314E+01  0.1355E+01  0.1355E+01
      1.035  0.1534E+01  0.1533E+01  0.1461E+01  0.1461E+01
      1.105  0.1617E+01  0.1616E+01  0.1574E+01  0.1574E+01
      1.174  0.1900E+01  0.1898E+01  0.1706E+01  0.1705E+01
      1.243  0.2306E+01  0.2304E+01  0.1866E+01  0.1865E+01
      1.313  0.2673E+01  0.2671E+01  0.2051E+01  0.2051E+01
      1.382  0.2928E+01  0.2926E+01  0.2255E+01  0.2254E+01
      1.452  0.3192E+01  0.3190E+01  0.2476E+01  0.2476E+01
      1.521  0.3461E+01  0.3459E+01  0.2717E+01  0.2716E+01
      1.591  0.3969E+01  0.3964E+01  0.2992E+01  0.2991E+01
      1.660  0.4738E+01  0.4733E+01  0.3321E+01  0.3320E+01
      1.729  0.5448E+01  0.5443E+01  0.3700E+01  0.3698E+01
      1.799  0.5987E+01  0.5984E+01  0.4115E+01  0.4113E+01
      1.868  0.6116E+01  0.6115E+01  0.4540E+01  0.4538E+01
      1.938  0.6026E+01  0.6026E+01  0.4959E+01  0.4956E+01
      2.007  0.6044E+01  0.6043E+01  0.5379E+01  0.5376E+01
      2.076  0.6167E+01  0.6165E+01  0.5807E+01  0.5804E+01
      2.146  0.6476E+01  0.6472E+01  0.6257E+01  0.6254E+01
      2.215  0.7117E+01  0.7111E+01  0.6751E+01  0.6748E+01
      2.285  0.8096E+01  0.8089E+01  0.7313E+01  0.7310E+01
      2.354  0.8953E+01  0.8947E+01  0.7935E+01  0.7931E+01
      2.424  0.9732E+01  0.9725E+01  0.8611E+01  0.8607E+01
      2.493  0.1078E+02  0.1077E+02  0.9360E+01  0.9355E+01
      2.562  0.1172E+02  0.1171E+02  0.1017E+02  0.1017E+02
      2.632  0.1204E+02  0.1204E+02  0.1101E+02  0.1100E+02
      2.701  0.1118E+02  0.1119E+02  0.1179E+02  0.1178E+02
      2.771  0.9628E+01  0.9638E+01  0.1245E+02  0.1245E+02
      2.840  0.8668E+01  0.8670E+01  0.1306E+02  0.1305E+02
      2.909  0.8746E+01  0.8740E+01  0.1366E+02  0.1366E+02
      2.979  0.9647E+01  0.9638E+01  0.1434E+02  0.1433E+02
      3.048  0.1042E+02  0.1041E+02  0.1506E+02  0.1505E+02
      3.118  0.1047E+02  0.1047E+02  0.1579E+02  0.1578E+02
      3.187  0.1020E+02  0.1020E+02  0.1649E+02  0.1649E+02
      3.257  0.1019E+02  0.1018E+02  0.1720E+02  0.1720E+02
      3.326  0.1084E+02  0.1083E+02  0.1796E+02  0.1795E+02
      3.395  0.1226E+02  0.1224E+02  0.1881E+02  0.1880E+02
      3.465  0.1274E+02  0.1275E+02  0.1969E+02  0.1968E+02
      3.534  0.9953E+01  0.9988E+01  0.2038E+02  0.2038E+02
      3.604  0.5701E+01  0.5735E+01  0.2078E+02  0.2078E+02
      3.673  0.2774E+01  0.2792E+01  0.2097E+02  0.2097E+02
      3.742  0.1455E+01  0.1461E+01  0.2107E+02  0.2107E+02
      3.812  0.1094E+01  0.1095E+01  0.2115E+02  0.2115E+02
      3.881  0.9897E+00  0.9914E+00  0.2122E+02  0.2122E+02
      3.951  0.8082E+00  0.8097E+00  0.2128E+02  0.2128E+02
      4.020  0.7524E+00  0.7527E+00  0.2133E+02  0.2133E+02
      4.090  0.8692E+00  0.8686E+00  0.2139E+02  0.2139E+02
      4.159  0.9685E+00  0.9687E+00  0.2146E+02  0.2146E+02
      4.228  0.8553E+00  0.8565E+00  0.2152E+02  0.2152E+02
      4.298  0.6780E+00  0.6789E+00  0.2156E+02  0.2156E+02
      4.367  0.5912E+00  0.5916E+00  0.2160E+02  0.2160E+02
      4.437  0.6279E+00  0.6277E+00  0.2165E+02  0.2165E+02
      4.506  0.7684E+00  0.7682E+00  0.2170E+02  0.2170E+02
      4.575  0.9469E+00  0.9472E+00  0.2177E+02  0.2177E+02
      4.645  0.9419E+00  0.9426E+00  0.2183E+02  0.2183E+02
      4.714  0.7381E+00  0.7384E+00  0.2188E+02  0.2188E+02
      4.784  0.6065E+00  0.6065E+00  0.2193E+02  0.2193E+02
      4.853  0.5734E+00  0.5735E+00  0.2197E+02  0.2197E+02
      4.923  0.5232E+00  0.5235E+00  0.2200E+02  0.2200E+02
      4.992  0.5515E+00  0.5515E+00  0.2204E+02  0.2204E+02
      5.061  0.6838E+00  0.6838E+00  0.2209E+02  0.2209E+02
      5.131  0.8349E+00  0.8351E+00  0.2215E+02  0.2215E+02
      5.200  0.8705E+00  0.8710E+00  0.2221E+02  0.2221E+02
      5.270  0.8187E+00  0.8190E+00  0.2226E+02  0.2226E+02
      5.339  0.7005E+00  0.7003E+00  0.2231E+02  0.2231E+02
      5.409  0.5622E+00  0.5619E+00  0.2235E+02  0.2235E+02
      5.478  0.4430E+00  0.4428E+00  0.2238E+02  0.2238E+02
      5.547  0.3544E+00  0.3545E+00  0.2241E+02  0.2241E+02
      5.617  0.4755E+00  0.4759E+00  0.2244E+02  0.2244E+02
      5.686  0.7299E+00  0.7303E+00  0.2249E+02  0.2249E+02
      5.756  0.8739E+00  0.8740E+00  0.2255E+02  0.2255E+02
      5.825  0.8160E+00  0.8157E+00  0.2261E+02  0.2261E+02
      5.894  0.6676E+00  0.6673E+00  0.2265E+02  0.2265E+02
      5.964  0.5110E+00  0.5110E+00  0.2269E+02  0.2269E+02
      6.033  0.4882E+00  0.4886E+00  0.2272E+02  0.2272E+02
      6.103  0.5763E+00  0.5766E+00  0.2276E+02  0.2276E+02
      6.172  0.5897E+00  0.5895E+00  0.2280E+02  0.2280E+02
      6.242  0.4842E+00  0.4840E+00  0.2284E+02  0.2284E+02
      6.311  0.3907E+00  0.3907E+00  0.2287E+02  0.2287E+02
      6.380  0.4563E+00  0.4565E+00  0.2290E+02  0.2290E+02
      6.450  0.5690E+00  0.5691E+00  0.2294E+02  0.2294E+02
      6.519  0.6310E+00  0.6313E+00  0.2298E+02  0.2298E+02
      6.589  0.7368E+00  0.7373E+00  0.2303E+02  0.2303E+02
      6.658  0.7581E+00  0.7583E+00  0.2308E+02  0.2308E+02
      6.727  0.6701E+00  0.6698E+00  0.2313E+02  0.2313E+02
      6.797  0.5384E+00  0.5378E+00  0.2317E+02  0.2317E+02
      6.866  0.4521E+00  0.4519E+00  0.2320E+02  0.2320E+02
      6.936  0.4183E+00  0.4183E+00  0.2323E+02  0.2323E+02
      7.005  0.4106E+00  0.4108E+00  0.2326E+02  0.2326E+02
      7.075  0.3950E+00  0.3952E+00  0.2328E+02  0.2328E+02
      7.144  0.3975E+00  0.3976E+00  0.2331E+02  0.2331E+02
      7.213  0.4759E+00  0.4760E+00  0.2335E+02  0.2335E+02
      7.283  0.5376E+00  0.5375E+00  0.2338E+02  0.2338E+02
      7.352  0.5367E+00  0.5366E+00  0.2342E+02  0.2342E+02
      7.422  0.4777E+00  0.4777E+00  0.2345E+02  0.2345E+02
      7.491  0.4936E+00  0.4937E+00  0.2349E+02  0.2349E+02
      7.560  0.5583E+00  0.5584E+00  0.2353E+02  0.2353E+02
      7.630  0.6125E+00  0.6124E+00  0.2357E+02  0.2357E+02
      7.699  0.6461E+00  0.6459E+00  0.2361E+02  0.2361E+02
      7.769  0.6008E+00  0.6004E+00  0.2366E+02  0.2366E+02
      7.838  0.5287E+00  0.5285E+00  0.2369E+02  0.2369E+02
      7.908  0.5527E+00  0.5529E+00  0.2373E+02  0.2373E+02
      7.977  0.6278E+00  0.6281E+00  0.2377E+02  0.2377E+02
      8.046  0.6571E+00  0.6569E+00  0.2382E+02  0.2382E+02
      8.116  0.6430E+00  0.6426E+00  0.2386E+02  0.2386E+02
      8.185  0.6391E+00  0.6392E+00  0.2391E+02  0.2391E+02
      8.255  0.6776E+00  0.6782E+00  0.2396E+02  0.2396E+02
      8.324  0.7590E+00  0.7597E+00  0.2401E+02  0.2401E+02
      8.393  0.7844E+00  0.7843E+00  0.2406E+02  0.2406E+02
      8.463  0.7020E+00  0.7014E+00  0.2411E+02  0.2411E+02
      8.532  0.6242E+00  0.6241E+00  0.2415E+02  0.2416E+02
      8.602  0.6717E+00  0.6721E+00  0.2420E+02  0.2420E+02
      8.671  0.7896E+00  0.7895E+00  0.2426E+02  0.2426E+02
      8.741  0.6578E+00  0.6571E+00  0.2430E+02  0.2430E+02
      8.810  0.4575E+00  0.4572E+00  0.2433E+02  0.2433E+02
      8.879  0.4374E+00  0.4377E+00  0.2436E+02  0.2436E+02
      8.949  0.6219E+00  0.6226E+00  0.2441E+02  0.2441E+02
      9.018  0.7979E+00  0.7984E+00  0.2446E+02  0.2446E+02
      9.088  0.7491E+00  0.7490E+00  0.2452E+02  0.2452E+02
      9.157  0.5793E+00  0.5787E+00  0.2456E+02  0.2456E+02
      9.226  0.4478E+00  0.4475E+00  0.2459E+02  0.2459E+02
      9.296  0.4888E+00  0.4891E+00  0.2462E+02  0.2462E+02
      9.365  0.6119E+00  0.6122E+00  0.2466E+02  0.2466E+02
      9.435  0.6665E+00  0.6665E+00  0.2471E+02  0.2471E+02
      9.504  0.7019E+00  0.7020E+00  0.2476E+02  0.2476E+02
      9.574  0.6984E+00  0.6983E+00  0.2481E+02  0.2481E+02
      9.643  0.5759E+00  0.5757E+00  0.2485E+02  0.2485E+02
      9.712  0.5537E+00  0.5540E+00  0.2488E+02  0.2489E+02
      9.782  0.6008E+00  0.6008E+00  0.2493E+02  0.2493E+02
      9.851  0.5788E+00  0.5788E+00  0.2497E+02  0.2497E+02
      9.921  0.5565E+00  0.5564E+00  0.2501E+02  0.2501E+02
      9.990  0.4728E+00  0.4725E+00  0.2504E+02  0.2504E+02
     10.059  0.4138E+00  0.4139E+00  0.2507E+02  0.2507E+02
     10.129  0.4996E+00  0.5001E+00  0.2510E+02  0.2510E+02
     10.198  0.5686E+00  0.5686E+00  0.2514E+02  0.2514E+02
     10.268  0.5666E+00  0.5665E+00  0.2518E+02  0.2518E+02
     10.337  0.5577E+00  0.5575E+00  0.2522E+02  0.2522E+02
     10.407  0.5377E+00  0.5377E+00  0.2526E+02  0.2526E+02
     10.476  0.6529E+00  0.6533E+00  0.2530E+02  0.2530E+02
     10.545  0.7562E+00  0.7561E+00  0.2535E+02  0.2535E+02
     10.615  0.6761E+00  0.6757E+00  0.2540E+02  0.2540E+02
     10.684  0.6051E+00  0.6052E+00  0.2544E+02  0.2544E+02
     10.754  0.6334E+00  0.6336E+00  0.2549E+02  0.2549E+02
     10.823  0.6572E+00  0.6574E+00  0.2553E+02  0.2553E+02
     10.893  0.7201E+00  0.7203E+00  0.2558E+02  0.2558E+02
     10.962  0.7687E+00  0.7687E+00  0.2564E+02  0.2564E+02
     11.031  0.7809E+00  0.7808E+00  0.2569E+02  0.2569E+02
     11.101  0.7409E+00  0.7404E+00  0.2574E+02  0.2574E+02
     11.170  0.6323E+00  0.6318E+00  0.2579E+02  0.2579E+02
     11.240  0.6184E+00  0.6184E+00  0.2583E+02  0.2583E+02
     11.309  0.7236E+00  0.7241E+00  0.2588E+02  0.2588E+02
     11.378  0.8894E+00  0.8898E+00  0.2594E+02  0.2594E+02
     11.448  0.9062E+00  0.9061E+00  0.2600E+02  0.2600E+02
     11.517  0.8109E+00  0.8106E+00  0.2606E+02  0.2606E+02
     11.587  0.7589E+00  0.7589E+00  0.2611E+02  0.2611E+02
     11.656  0.8004E+00  0.8009E+00  0.2617E+02  0.2617E+02
     11.726  0.8470E+00  0.8473E+00  0.2623E+02  0.2623E+02
     11.795  0.8344E+00  0.8341E+00  0.2629E+02  0.2629E+02
     11.864  0.7681E+00  0.7671E+00  0.2634E+02  0.2634E+02
     11.934  0.7139E+00  0.7125E+00  0.2639E+02  0.2639E+02
     12.003  0.7544E+00  0.7546E+00  0.2644E+02  0.2644E+02
     12.073  0.8100E+00  0.8111E+00  0.2650E+02  0.2650E+02
     12.142  0.6898E+00  0.6901E+00  0.2655E+02  0.2655E+02
     12.211  0.6002E+00  0.6004E+00  0.2659E+02  0.2659E+02
     12.281  0.6544E+00  0.6547E+00  0.2663E+02  0.2663E+02
     12.350  0.7231E+00  0.7232E+00  0.2668E+02  0.2668E+02
     12.420  0.7470E+00  0.7468E+00  0.2673E+02  0.2673E+02
     12.489  0.8287E+00  0.8287E+00  0.2679E+02  0.2679E+02
     12.559  0.8837E+00  0.8843E+00  0.2685E+02  0.2685E+02
     12.628  0.8172E+00  0.8181E+00  0.2691E+02  0.2691E+02
     12.697  0.8627E+00  0.8632E+00  0.2697E+02  0.2697E+02
     12.767  0.9263E+00  0.9263E+00  0.2703E+02  0.2703E+02
     12.836  0.7838E+00  0.7844E+00  0.2709E+02  0.2709E+02
     12.906  0.6318E+00  0.6359E+00  0.2713E+02  0.2713E+02
     12.975  0.6582E+00  0.6694E+00  0.2718E+02  0.2718E+02
     13.044  0.7575E+00  0.7662E+00  0.2723E+02  0.2723E+02
     13.114  0.7290E+00  0.7192E+00  0.2728E+02  0.2728E+02
     13.183  0.6814E+00  0.6717E+00  0.2733E+02  0.2733E+02
     13.253  0.7572E+00  0.7588E+00  0.2738E+02  0.2738E+02
     13.322  0.8783E+00  0.8862E+00  0.2744E+02  0.2744E+02
     13.392  0.8233E+00  0.8211E+00  0.2750E+02  0.2750E+02
     13.461  0.6431E+00  0.6344E+00  0.2754E+02  0.2755E+02
     13.530  0.5258E+00  0.5212E+00  0.2758E+02  0.2758E+02
     13.600  0.4588E+00  0.4616E+00  0.2761E+02  0.2761E+02
     13.669  0.4345E+00  0.4508E+00  0.2764E+02  0.2764E+02
     13.739  0.5173E+00  0.5541E+00  0.2768E+02  0.2768E+02
     13.808  0.5994E+00  0.6260E+00  0.2772E+02  0.2773E+02
     13.877  0.5575E+00  0.5429E+00  0.2776E+02  0.2776E+02
     13.947  0.4783E+00  0.4685E+00  0.2779E+02  0.2780E+02
     14.016  0.4111E+00  0.3928E+00  0.2782E+02  0.2782E+02
     14.086  0.3104E+00  0.2827E+00  0.2784E+02  0.2784E+02
     14.155  0.2545E+00  0.2432E+00  0.2786E+02  0.2786E+02
     14.225  0.2717E+00  0.2710E+00  0.2788E+02  0.2788E+02
     14.294  0.3113E+00  0.3154E+00  0.2790E+02  0.2790E+02
     14.363  0.3256E+00  0.3311E+00  0.2792E+02  0.2792E+02
     14.433  0.2514E+00  0.2552E+00  0.2794E+02  0.2794E+02
     14.502  0.1693E+00  0.1713E+00  0.2795E+02  0.2795E+02
     14.572  0.1359E+00  0.1317E+00  0.2796E+02  0.2796E+02
     14.641  0.7778E-01  0.6951E-01  0.2797E+02  0.2797E+02
     14.710  0.3285E-01  0.2893E-01  0.2797E+02  0.2797E+02
     14.780  0.2865E-01  0.2768E-01  0.2797E+02  0.2797E+02
     14.849  0.5398E-01  0.5395E-01  0.2798E+02  0.2798E+02
     14.919  0.6924E-01  0.6917E-01  0.2798E+02  0.2798E+02
     14.988  0.4753E-01  0.4775E-01  0.2798E+02  0.2798E+02
     15.058  0.2289E-01  0.2448E-01  0.2799E+02  0.2799E+02
     15.127  0.2115E-01  0.2602E-01  0.2799E+02  0.2799E+02
     15.196  0.4137E-01  0.4727E-01  0.2799E+02  0.2799E+02
     15.266  0.5201E-01  0.4877E-01  0.2799E+02  0.2799E+02
     15.335  0.2996E-01  0.2376E-01  0.2800E+02  0.2800E+02
     15.405  0.1012E-01  0.7435E-02  0.2800E+02  0.2800E+02
     15.474  0.2780E-02  0.2018E-02  0.2800E+02  0.2800E+02
     15.543  0.8277E-03  0.6918E-03  0.2800E+02  0.2800E+02
     15.613  0.6760E-03  0.7527E-03  0.2800E+02  0.2800E+02
     15.682  0.1883E-02  0.2747E-02  0.2800E+02  0.2800E+02
     15.752  0.6007E-02  0.7941E-02  0.2800E+02  0.2800E+02
     15.821  0.1218E-01  0.1305E-01  0.2800E+02  0.2800E+02
     15.891  0.1142E-01  0.9559E-02  0.2800E+02  0.2800E+02
     15.960  0.5161E-02  0.3698E-02  0.2800E+02  0.2800E+02
     16.029  0.1717E-02  0.1213E-02  0.2800E+02  0.2800E+02
     16.099  0.1025E-02  0.8906E-03  0.2800E+02  0.2800E+02
     16.168  0.1712E-02  0.1681E-02  0.2800E+02  0.2800E+02
     16.238  0.2171E-02  0.2170E-02  0.2800E+02  0.2800E+02
     16.307  0.1305E-02  0.1301E-02  0.2800E+02  0.2800E+02
     16.377  0.4485E-03  0.4466E-03  0.2800E+02  0.2800E+02
     16.446  0.1226E-03  0.1221E-03  0.2800E+02  0.2800E+02
     16.515  0.3133E-04  0.3118E-04  0.2800E+02  0.2800E+02
     16.585  0.7864E-05  0.7826E-05  0.2800E+02  0.2800E+02
     16.654  0.0000E+00  0.0000E+00  0.2800E+02  0.2800E+02
     16.724  0.0000E+00  0.0000E+00  0.2800E+02  0.2800E+02
     16.793  0.0000E+00  0.0000E+00  0.2800E+02  0.2800E+02
     16.862  0.0000E+00  0.0000E+00  0.2800E+02  0.2800E+02
     16.932  0.0000E+00  0.0000E+00  0.2800E+02  0.2800E+02
     17.001  0.0000E+00  0.0000E+00  0.2800E+02  0.2800E+02
     17.071  0.0000E+00  0.0000E+00  0.2800E+02  0.2800E+02
     17.140  0.0000E+00  0.0000E+00  0.2800E+02  0.2800E+02
     17.14010791     -3.68522574  301      4.91842334      1.00000000
     -3.685  0.0000E+00  0.0000E+00  0.0000E+00  0.0000E+00  0.0000E+00  0.0000E+00  0.0000E+00  0.0000E+00  0.0000E+00  0.0000E+00  0.0000E+00  0.0000E+00  0.0000E+00  0.0000E+00  0.0000E+00  0.0000E+00  0.0000E+00  0.0000E+00
     -3.616  0.0000E+00  0.0000E+00  0.0000E+00  0.0000E+00  0.0000E+00  0.0000E+00  0.0000E+00  0.0000E+00  0.0000E+00  0.0000E+00  0.0000E+00  0.0000E+00  0.0000E+00  0.0000E+00  0.0000E+00  0.0000E+00  0.0000E+00  0.0000E+00
     -3.546  0.0000E+00  0.0000E+00  0.0000E+00  0.0000E+00  0.0000E+00  0.0000E+00  0.0000E+00  0.0000E+00  0.0000E+00  0.0000E+00  0.0000E+00  0.0000E+00  0.0000E+00  0.0000E+00  0.0000E+00  0.0000E+00  0.0000E+00  0.0000E+00
     -3.477  0.0000E+00  0.0000E+00  0.0000E+00  0.0000E+00  0.0000E+00  0.0000E+00  0.0000E+00  0.0000E+00  0.0000E+00  0.0000E+00  0.0000E+00  0.0000E+00  0.0000E+00  0.0000E+00  0.0000E+00  0.0000E+00  0.0000E+00  0.0000E+00
     -3.408  0.0000E+00  0.0000E+00  0.0000E+00  0.0000E+00  0.0000E+00  0.0000E+00  0.0000E+00  0.0000E+00  0.0000E+00  0.0000E+00  0.0000E+00  0.0000E+00  0.0000E+00  0.0000E+00  0.0000E+00  0.0000E+00  0.0000E+00  0.0000E+00
     -3.338  0.0000E+00  0.0000E+00  0.0000E+00  0.0000E+00  0.0000E+00  0.0000E+00  0.0000E+00  0.0000E+00  0.0000E+00  0.0000E+00  0.0000E+00  0.0000E+00  0.0000E+00  0.0000E+00  0.0000E+00  0.0000E+00  0.0000E+00  0.0000E+00
     -3.269  0.0000E+00  0.0000E+00  0.0000E+00  0.0000E+00  0.0000E+00  0.0000E+00  0.0000E+00  0.0000E+00  0.0000E+00  0.0000E+00  0.0000E+00  0.0000E+00  0.0000E+00  0.0000E+00  0.0000E+00  0.0000E+00  0.0000E+00  0.0000E+00
     -3.199  0.7528E-07  0.7593E-07  0.2627E-21  0.3196E-20  0.2627E-21  0.3196E-20  0.2627E-21  0.3196E-20  0.9915E-16  0.5442E-16  0.9915E-16  0.5442E-16  0.7153E-17  0.9939E-18  0.9915E-16  0.5442E-16  0.7153E-17  0.9939E-18
     -3.130  0.7646E-06  0.7713E-06  0.9269E-09  0.9350E-09  0.9269E-09  0.9350E-09  0.9269E-09  0.9350E-09  0.2984E-15  0.1651E-15  0.2984E-15  0.1651E-15  0.7832E-11  0.7655E-11  0.2984E-15  0.1651E-15  0.7832E-11  0.7655E-11
     -3.060  0.3812E-05  0.3845E-05  0.7222E-08  0.7285E-08  0.7222E-08  0.7285E-08  0.7222E-08  0.7285E-08  0.4939E-10  0.4999E-10  0.4939E-10  0.4999E-10  0.4203E-10  0.4188E-10  0.4939E-10  0.4999E-10  0.4203E-10  0.4188E-10
     -2.991  0.1499E-04  0.1512E-04  0.2981E-07  0.3007E-07  0.2981E-07  0.3007E-07  0.2981E-07  0.3007E-07  0.2718E-09  0.2747E-09  0.2718E-09  0.2747E-09  0.1498E-09  0.1488E-09  0.2718E-09  0.2747E-09  0.1498E-09  0.1488E-09
     -2.922  0.5941E-04  0.5991E-04  0.1201E-06  0.1212E-06  0.1201E-06  0.1212E-06  0.1201E-06  0.1212E-06  0.9647E-09  0.9750E-09  0.9647E-09  0.9750E-09  0.8264E-09  0.8245E-09  0.9647E-09  0.9750E-09  0.8264E-09  0.8245E-09
     -2.852  0.2333E-03  0.2352E-03  0.5070E-06  0.5113E-06  0.5070E-06  0.5113E-06  0.5070E-06  0.5113E-06  0.4562E-08  0.4612E-08  0.4562E-08  0.4612E-08  0.3939E-08  0.3942E-08  0.4562E-08  0.4612E-08  0.3939E-08  0.3942E-08
     -2.783  0.8296E-03  0.8358E-03  0.1948E-05  0.1963E-05  0.1948E-05  0.1963E-05  0.1948E-05  0.1963E-05  0.1924E-07  0.1945E-07  0.1924E-07  0.1945E-07  0.1493E-07  0.1494E-07  0.1924E-07  0.1945E-07  0.1493E-07  0.1494E-07
     -2.713  0.2398E-02  0.2412E-02  0.6552E-05  0.6597E-05  0.6552E-05  0.6597E-05  0.6552E-05  0.6597E-05  0.7037E-07  0.7109E-07  0.7037E-07  0.7109E-07  0.5098E-07  0.5110E-07  0.7037E-07  0.7109E-07  0.5098E-07  0.5110E-07
     -2.644  0.5004E-02  0.5021E-02  0.1732E-04  0.1740E-04  0.1732E-04  0.1740E-04  0.1732E-04  0.1740E-04  0.2256E-06  0.2276E-06  0.2256E-06  0.2276E-06  0.1494E-06  0.1503E-06  0.2256E-06  0.2276E-06  0.1494E-06  0.1503E-06
     -2.575  0.7330E-02  0.7341E-02  0.3420E-04  0.3432E-04  0.3420E-04  0.3432E-04  0.3420E-04  0.3432E-04  0.5489E-06  0.5527E-06  0.5489E-06  0.5527E-06  0.4064E-06  0.4099E-06  0.5489E-06  0.5527E-06  0.4064E-06  0.4099E-06
     -2.505  0.9090E-02  0.9104E-02  0.5975E-04  0.5996E-04  0.5975E-04  0.5996E-04  0.5975E-04  0.5996E-04  0.1153E-05  0.1162E-05  0.1153E-05  0.1162E-05  0.1051E-05  0.1060E-05  0.1153E-05  0.1162E-05  0.1051E-05  0.1060E-05
     -2.436  0.1198E-01  0.1200E-01  0.1012E-03  0.1015E-03  0.1012E-03  0.1015E-03  0.1012E-03  0.1015E-03  0.2430E-05  0.2448E-05  0.2430E-05  0.2448E-05  0.2042E-05  0.2054E-05  0.2430E-05  0.2448E-05  0.2042E-05  0.2054E-05
     -2.366  0.1364E-01  0.1364E-01  0.1339E-03  0.1340E-03  0.1339E-03  0.1340E-03  0.1339E-03  0.1340E-03  0.4119E-05  0.4140E-05  0.4119E-05  0.4140E-05  0.2694E-05  0.2705E-05  0.4119E-05  0.4140E-05  0.2694E-05  0.2705E-05
     -2.297  0.1237E-01  0.1237E-01  0.1460E-03  0.1462E-03  0.1460E-03  0.1462E-03  0.1460E-03  0.1462E-03  0.5768E-05  0.5794E-05  0.5768E-05  0.5794E-05  0.3458E-05  0.3471E-05  0.5768E-05  0.5794E-05  0.3458E-05  0.3471E-05
     -2.227  0.1384E-01  0.1386E-01  0.2018E-03  0.2024E-03  0.2018E-03  0.2024E-03  0.2018E-03  0.2024E-03  0.9216E-05  0.9251E-05  0.9216E-05  0.9251E-05  0.6600E-05  0.6628E-05  0.9216E-05  0.9251E-05  0.6600E-05  0.6628E-05
     -2.158  0.1761E-01  0.1763E-01  0.2893E-03  0.2897E-03  0.2893E-03  0.2897E-03  0.2893E-03  0.2897E-03  0.1325E-04  0.1327E-04  0.1325E-04  0.1327E-04  0.1247E-04  0.1250E-04  0.1325E-04  0.1327E-04  0.1247E-04  0.1250E-04
     -2.089  0.1856E-01  0.1855E-01  0.3350E-03  0.3351E-03  0.3350E-03  0.3351E-03  0.3350E-03  0.3351E-03  0.1652E-04  0.1653E-04  0.1652E-04  0.1653E-04  0.1676E-04  0.1676E-04  0.1652E-04  0.1653E-04  0.1676E-04  0.1676E-04
     -2.019  0.1760E-01  0.1760E-01  0.3546E-03  0.3549E-03  0.3546E-03  0.3549E-03  0.3546E-03  0.3549E-03  0.2302E-04  0.2305E-04  0.2302E-04  0.2305E-04  0.1678E-04  0.1676E-04  0.2302E-04  0.2305E-04  0.1678E-04  0.1676E-04
     -1.950  0.1885E-01  0.1886E-01  0.4245E-03  0.4250E-03  0.4245E-03  0.4250E-03  0.4245E-03  0.4250E-03  0.3475E-04  0.3477E-04  0.3475E-04  0.3477E-04  0.1877E-04  0.1877E-04  0.3475E-04  0.3477E-04  0.1877E-04  0.1877E-04
     -1.880  0.1991E-01  0.1990E-01  0.4824E-03  0.4824E-03  0.4824E-03  0.4824E-03  0.4824E-03  0.4824E-03  0.4309E-04  0.4301E-04  0.4309E-04  0.4301E-04  0.2362E-04  0.2362E-04  0.4309E-04  0.4301E-04  0.2362E-04  0.2362E-04
     -1.811  0.1743E-01  0.1742E-01  0.4619E-03  0.4620E-03  0.4619E-03  0.4620E-03  0.4619E-03  0.4620E-03  0.4138E-04  0.4133E-04  0.4138E-04  0.4133E-04  0.3229E-04  0.3233E-04  0.4138E-04  0.4133E-04  0.3229E-04  0.3233E-04
     -1.742  0.2001E-01  0.2005E-01  0.5911E-03  0.5925E-03  0.5911E-03  0.5925E-03  0.5911E-03  0.5925E-03  0.5413E-04  0.5424E-04  0.5413E-04  0.5424E-04  0.5474E-04  0.5483E-04  0.5413E-04  0.5424E-04  0.5474E-04  0.5483E-04
     -1.672  0.2506E-01  0.2508E-01  0.7852E-03  0.7860E-03  0.7852E-03  0.7860E-03  0.7852E-03  0.7860E-03  0.7820E-04  0.7835E-04  0.7820E-04  0.7835E-04  0.7560E-04  0.7561E-04  0.7820E-04  0.7835E-04  0.7560E-04  0.7561E-04
     -1.603  0.2543E-01  0.2542E-01  0.8419E-03  0.8420E-03  0.8419E-03  0.8420E-03  0.8419E-03  0.8420E-03  0.9632E-04  0.9649E-04  0.9632E-04  0.9649E-04  0.7894E-04  0.7895E-04  0.9632E-04  0.9649E-04  0.7894E-04  0.7895E-04
     -1.533  0.2506E-01  0.2506E-01  0.8838E-03  0.8841E-03  0.8838E-03  0.8841E-03  0.8838E-03  0.8841E-03  0.1168E-03  0.1170E-03  0.1168E-03  0.1170E-03  0.8364E-04  0.8377E-04  0.1168E-03  0.1170E-03  0.8364E-04  0.8377E-04
     -1.464  0.2406E-01  0.2404E-01  0.8917E-03  0.8912E-03  0.8917E-03  0.8912E-03  0.8917E-03  0.8912E-03  0.1381E-03  0.1382E-03  0.1381E-03  0.1382E-03  0.8121E-04  0.8122E-04  0.1381E-03  0.1382E-03  0.8121E-04  0.8122E-04
     -1.394  0.1962E-01  0.1960E-01  0.7688E-03  0.7683E-03  0.7688E-03  0.7683E-03  0.7688E-03  0.7683E-03  0.1388E-03  0.1388E-03  0.1388E-03  0.1388E-03  0.6936E-04  0.6942E-04  0.1388E-03  0.1388E-03  0.6936E-04  0.6942E-04
     -1.325  0.1975E-01  0.1978E-01  0.8441E-03  0.8458E-03  0.8441E-03  0.8458E-03  0.8441E-03  0.8458E-03  0.1579E-03  0.1582E-03  0.1579E-03  0.1582E-03  0.1000E-03  0.1004E-03  0.1579E-03  0.1582E-03  0.1000E-03  0.1004E-03
     -1.256  0.2689E-01  0.2694E-01  0.1220E-02  0.1222E-02  0.1220E-02  0.1222E-02  0.1220E-02  0.1222E-02  0.2179E-03  0.2183E-03  0.2179E-03  0.2183E-03  0.1854E-03  0.1861E-03  0.2179E-03  0.2183E-03  0.1854E-03  0.1861E-03
     -1.186  0.3184E-01  0.3184E-01  0.1495E-02  0.1496E-02  0.1495E-02  0.1496E-02  0.1495E-02  0.1496E-02  0.2672E-03  0.2673E-03  0.2672E-03  0.2673E-03  0.2606E-03  0.2610E-03  0.2672E-03  0.2673E-03  0.2606E-03  0.2610E-03
     -1.117  0.2987E-01  0.2986E-01  0.1460E-02  0.1460E-02  0.1460E-02  0.1460E-02  0.1460E-02  0.1460E-02  0.2930E-03  0.2932E-03  0.2930E-03  0.2932E-03  0.2674E-03  0.2675E-03  0.2930E-03  0.2932E-03  0.2674E-03  0.2675E-03
     -1.047  0.3000E-01  0.3001E-01  0.1538E-02  0.1539E-02  0.1538E-02  0.1539E-02  0.1538E-02  0.1539E-02  0.3543E-03  0.3546E-03  0.3543E-03  0.3546E-03  0.2833E-03  0.2836E-03  0.3543E-03  0.3546E-03  0.2833E-03  0.2836E-03
     -0.978  0.2791E-01  0.2788E-01  0.1485E-02  0.1483E-02  0.1485E-02  0.1483E-02  0.1485E-02  0.1483E-02  0.3540E-03  0.3537E-03  0.3540E-03  0.3537E-03  0.2913E-03  0.2912E-03  0.3540E-03  0.3537E-03  0.2913E-03  0.2912E-03
     -0.909  0.2310E-01  0.2309E-01  0.1292E-02  0.1292E-02  0.1292E-02  0.1292E-02  0.1292E-02  0.1292E-02  0.3614E-03  0.3619E-03  0.3614E-03  0.3619E-03  0.2419E-03  0.2417E-03  0.3614E-03  0.3619E-03  0.2419E-03  0.2417E-03
     -0.839  0.2635E-01  0.2639E-01  0.1553E-02  0.1556E-02  0.1553E-02  0.1556E-02  0.1553E-02  0.1556E-02  0.5335E-03  0.5345E-03  0.5335E-03  0.5345E-03  0.2619E-03  0.2623E-03  0.5335E-03  0.5345E-03  0.2619E-03  0.2623E-03
     -0.770  0.3171E-01  0.3173E-01  0.1932E-02  0.1934E-02  0.1932E-02  0.1934E-02  0.1932E-02  0.1934E-02  0.7042E-03  0.7044E-03  0.7042E-03  0.7044E-03  0.3568E-03  0.3574E-03  0.7042E-03  0.7044E-03  0.3568E-03  0.3574E-03
     -0.700  0.3196E-01  0.3196E-01  0.2016E-02  0.2016E-02  0.2016E-02  0.2016E-02  0.2016E-02  0.2016E-02  0.7186E-03  0.7179E-03  0.7186E-03  0.7179E-03  0.4839E-03  0.4845E-03  0.7186E-03  0.7179E-03  0.4839E-03  0.4845E-03
     -0.631  0.3028E-01  0.3028E-01  0.1992E-02  0.1992E-02  0.1992E-02  0.1992E-02  0.1992E-02  0.1992E-02  0.6703E-03  0.6697E-03  0.6703E-03  0.6697E-03  0.6599E-03  0.6603E-03  0.6703E-03  0.6697E-03  0.6599E-03  0.6603E-03
     -0.561  0.3010E-01  0.3010E-01  0.2061E-02  0.2061E-02  0.2061E-02  0.2061E-02  0.2061E-02  0.2061E-02  0.7074E-03  0.7071E-03  0.7074E-03  0.7071E-03  0.7980E-03  0.7974E-03  0.7074E-03  0.7071E-03  0.7980E-03  0.7974E-03
     -0.492  0.3069E-01  0.3071E-01  0.2189E-02  0.2191E-02  0.2189E-02  0.2191E-02  0.2189E-02  0.2191E-02  0.8624E-03  0.8629E-03  0.8624E-03  0.8629E-03  0.8538E-03  0.8533E-03  0.8624E-03  0.8629E-03  0.8538E-03  0.8533E-03
     -0.423  0.3678E-01  0.3682E-01  0.2717E-02  0.2720E-02  0.2717E-02  0.2720E-02  0.2717E-02  0.2720E-02  0.1232E-02  0.1233E-02  0.1232E-02  0.1233E-02  0.9906E-03  0.9899E-03  0.1232E-02  0.1233E-02  0.9906E-03  0.9899E-03
     -0.353  0.3805E-01  0.3803E-01  0.2871E-02  0.2871E-02  0.2871E-02  0.2871E-02  0.2871E-02  0.2871E-02  0.1486E-02  0.1485E-02  0.1486E-02  0.1485E-02  0.9476E-03  0.9457E-03  0.1486E-02  0.1485E-02  0.9476E-03  0.9457E-03
     -0.284  0.3360E-01  0.3358E-01  0.2607E-02  0.2607E-02  0.2607E-02  0.2607E-02  0.2607E-02  0.2607E-02  0.1534E-02  0.1533E-02  0.1534E-02  0.1533E-02  0.8588E-03  0.8582E-03  0.1534E-02  0.1533E-02  0.8588E-03  0.8582E-03
     -0.214  0.3238E-01  0.3237E-01  0.2601E-02  0.2601E-02  0.2601E-02  0.2601E-02  0.2601E-02  0.2601E-02  0.1631E-02  0.1630E-02  0.1631E-02  0.1630E-02  0.9684E-03  0.9685E-03  0.1631E-02  0.1630E-02  0.9684E-03  0.9685E-03