   4   4   1   0
  0.1164653E+02  0.3598202E-09  0.3598202E-09  0.3598202E-09  0.5000000E-15
  1.000000000000000E-004
  CAR 
 unknown system                          
     22.08343712     -2.83156553  301      7.77851350      1.00000000
     -2.832  0.0000E+00  0.0000E+00  0.0000E+00  0.0000E+00
     -2.749  0.0000E+00  0.0000E+00  0.0000E+00  0.0000E+00
     -2.665  0.0000E+00  0.0000E+00  0.0000E+00  0.0000E+00
     -2.582  0.0000E+00  0.0000E+00  0.0000E+00  0.0000E+00
     -2.499  0.0000E+00  0.0000E+00  0.0000E+00  0.0000E+00
     -2.416  0.0000E+00  0.0000E+00  0.0000E+00  0.0000E+00
     -2.333  0.0000E+00  0.0000E+00  0.0000E+00  0.0000E+00
     -2.250  0.0000E+00  0.0000E+00  0.0000E+00  0.0000E+00
     -2.167  0.4627E-06  0.4709E-06  0.3843E-07  0.3911E-07
     -2.084  0.5385E-05  0.5480E-05  0.4856E-06  0.4942E-06
     -2.001  0.3334E-04  0.3392E-04  0.3254E-05  0.3312E-05
     -1.918  0.1732E-03  0.1762E-03  0.1764E-04  0.1795E-04
     -1.835  0.8881E-03  0.9033E-03  0.9139E-04  0.9297E-04
     -1.752  0.4190E-02  0.4255E-02  0.4394E-03  0.4463E-03
     -1.669  0.1524E-01  0.1542E-01  0.1705E-02  0.1727E-02
     -1.586  0.3635E-01  0.3659E-01  0.4724E-02  0.4766E-02
     -1.503  0.5422E-01  0.5434E-01  0.9227E-02  0.9278E-02
     -1.420  0.6384E-01  0.6399E-01  0.1453E-01  0.1459E-01
     -1.337  0.8944E-01  0.8978E-01  0.2196E-01  0.2205E-01
     -1.254  0.1068E+00  0.1067E+00  0.3083E-01  0.3091E-01
     -1.171  0.8713E-01  0.8696E-01  0.3807E-01  0.3814E-01
     -1.088  0.9855E-01  0.9895E-01  0.4625E-01  0.4636E-01
     -1.004  0.1378E+00  0.1381E+00  0.5770E-01  0.5783E-01
     -0.921  0.1449E+00  0.1448E+00  0.6975E-01  0.6987E-01
     -0.838  0.1311E+00  0.1310E+00  0.8065E-01  0.8077E-01
     -0.755  0.1449E+00  0.1453E+00  0.9269E-01  0.9283E-01
     -0.672  0.1629E+00  0.1628E+00  0.1062E+00  0.1064E+00
     -0.589  0.1272E+00  0.1269E+00  0.1168E+00  0.1169E+00
     -0.506  0.1539E+00  0.1546E+00  0.1296E+00  0.1298E+00
     -0.423  0.2096E+00  0.2099E+00  0.1470E+00  0.1472E+00
     -0.340  0.2057E+00  0.2055E+00  0.1641E+00  0.1643E+00
     -0.257  0.2049E+00  0.2050E+00  0.1811E+00  0.1813E+00
     -0.174  0.2035E+00  0.2031E+00  0.1980E+00  0.1982E+00
     -0.091  0.1507E+00  0.1503E+00  0.2106E+00  0.2107E+00
     -0.008  0.1556E+00  0.1562E+00  0.2235E+00  0.2237E+00
      0.075  0.2387E+00  0.2396E+00  0.2434E+00  0.2436E+00
      0.158  0.2859E+00  0.2857E+00  0.2671E+00  0.2673E+00
      0.241  0.2502E+00  0.2501E+00  0.2879E+00  0.2881E+00
      0.324  0.2695E+00  0.2697E+00  0.3103E+00  0.3105E+00
      0.407  0.2381E+00  0.2373E+00  0.3301E+00  0.3302E+00
      0.490  0.1881E+00  0.1882E+00  0.3457E+00  0.3459E+00
      0.573  0.2521E+00  0.2529E+00  0.3667E+00  0.3669E+00
      0.657  0.3050E+00  0.3051E+00  0.3920E+00  0.3923E+00
      0.740  0.2959E+00  0.2956E+00  0.4166E+00  0.4168E+00
      0.823  0.2850E+00  0.2851E+00  0.4403E+00  0.4405E+00
      0.906  0.2806E+00  0.2804E+00  0.4636E+00  0.4638E+00
      0.989  0.3061E+00  0.3070E+00  0.4891E+00  0.4893E+00
      1.072  0.3901E+00  0.3904E+00  0.5215E+00  0.5218E+00
      1.155  0.3592E+00  0.3585E+00  0.5513E+00  0.5516E+00
      1.238  0.3294E+00  0.3291E+00  0.5787E+00  0.5790E+00
      1.321  0.3283E+00  0.3280E+00  0.6060E+00  0.6062E+00
      1.404  0.3054E+00  0.3055E+00  0.6314E+00  0.6316E+00
      1.487  0.3714E+00  0.3721E+00  0.6623E+00  0.6626E+00
      1.570  0.4008E+00  0.4009E+00  0.6956E+00  0.6959E+00
      1.653  0.4659E+00  0.4670E+00  0.7343E+00  0.7347E+00
      1.736  0.5660E+00  0.5659E+00  0.7813E+00  0.7817E+00
      1.819  0.4756E+00  0.4743E+00  0.8208E+00  0.8211E+00
      1.902  0.4006E+00  0.4004E+00  0.8541E+00  0.8544E+00
      1.985  0.4407E+00  0.4411E+00  0.8908E+00  0.8911E+00
      2.068  0.5123E+00  0.5130E+00  0.9333E+00  0.9337E+00
      2.151  0.6420E+00  0.6427E+00  0.9867E+00  0.9871E+00
      2.234  0.7119E+00  0.7120E+00  0.1046E+01  0.1046E+01
      2.318  0.7784E+00  0.7784E+00  0.1111E+01  0.1111E+01
      2.401  0.7356E+00  0.7345E+00  0.1172E+01  0.1172E+01
      2.484  0.7536E+00  0.7541E+00  0.1234E+01  0.1235E+01
      2.567  0.1093E+01  0.1095E+01  0.1325E+01  0.1326E+01
      2.650  0.1457E+01  0.1457E+01  0.1446E+01  0.1447E+01
      2.733  0.1523E+01  0.1522E+01  0.1573E+01  0.1573E+01
      2.816  0.1760E+01  0.1761E+01  0.1719E+01  0.1719E+01
      2.899  0.2180E+01  0.2180E+01  0.1900E+01  0.1901E+01
      2.982  0.2316E+01  0.2316E+01  0.2092E+01  0.2093E+01
      3.065  0.2352E+01  0.2351E+01  0.2288E+01  0.2288E+01
      3.148  0.2566E+01  0.2565E+01  0.2501E+01  0.2502E+01
      3.231  0.2609E+01  0.2608E+01  0.2718E+01  0.2718E+01
      3.314  0.3016E+01  0.3015E+01  0.2969E+01  0.2969E+01
      3.397  0.3563E+01  0.3561E+01  0.3265E+01  0.3265E+01
      3.480  0.4007E+01  0.4006E+01  0.3598E+01  0.3598E+01
      3.563  0.4437E+01  0.4436E+01  0.3966E+01  0.3966E+01
      3.646  0.4579E+01  0.4578E+01  0.4347E+01  0.4347E+01
      3.729  0.4401E+01  0.4400E+01  0.4713E+01  0.4712E+01
      3.812  0.4233E+01  0.4232E+01  0.5064E+01  0.5064E+01
      3.895  0.4173E+01  0.4172E+01  0.5411E+01  0.5411E+01
      3.979  0.4113E+01  0.4113E+01  0.5753E+01  0.5753E+01
      4.062  0.4166E+01  0.4166E+01  0.6100E+01  0.6099E+01
      4.145  0.4313E+01  0.4312E+01  0.6458E+01  0.6458E+01
      4.228  0.4784E+01  0.4782E+01  0.6856E+01  0.6855E+01
      4.311  0.5489E+01  0.5488E+01  0.7312E+01  0.7311E+01
      4.394  0.5897E+01  0.5896E+01  0.7802E+01  0.7801E+01
      4.477  0.6075E+01  0.6073E+01  0.8307E+01  0.8306E+01
      4.560  0.6628E+01  0.6626E+01  0.8858E+01  0.8856E+01
      4.643  0.7280E+01  0.7278E+01  0.9463E+01  0.9461E+01
      4.726  0.7633E+01  0.7630E+01  0.1010E+02  0.1010E+02
      4.809  0.8032E+01  0.8028E+01  0.1076E+02  0.1076E+02
      4.892  0.8193E+01  0.8193E+01  0.1145E+02  0.1144E+02
      4.975  0.7283E+01  0.7287E+01  0.1205E+02  0.1205E+02
      5.058  0.6093E+01  0.6096E+01  0.1256E+02  0.1256E+02
      5.141  0.5394E+01  0.5395E+01  0.1301E+02  0.1300E+02
      5.224  0.5300E+01  0.5299E+01  0.1345E+02  0.1344E+02
      5.307  0.5838E+01  0.5835E+01  0.1393E+02  0.1393E+02
      5.390  0.6615E+01  0.6612E+01  0.1448E+02  0.1448E+02
      5.473  0.7027E+01  0.7025E+01  0.1507E+02  0.1506E+02
      5.556  0.7077E+01  0.7078E+01  0.1565E+02  0.1565E+02
      5.640  0.6692E+01  0.6692E+01  0.1621E+02  0.1621E+02
      5.723  0.6476E+01  0.6476E+01  0.1675E+02  0.1675E+02
      5.806  0.6383E+01  0.6381E+01  0.1728E+02  0.1728E+02
      5.889  0.6776E+01  0.6772E+01  0.1784E+02  0.1784E+02
      5.972  0.7792E+01  0.7785E+01  0.1849E+02  0.1849E+02
      6.055  0.9312E+01  0.9305E+01  0.1926E+02  0.1926E+02
      6.138  0.9273E+01  0.9279E+01  0.2003E+02  0.2003E+02
      6.221  0.6657E+01  0.6672E+01  0.2059E+02  0.2059E+02
      6.304  0.3719E+01  0.3731E+01  0.2090E+02  0.2090E+02
      6.387  0.1681E+01  0.1688E+01  0.2104E+02  0.2104E+02
      6.470  0.8131E+00  0.8148E+00  0.2111E+02  0.2111E+02
      6.553  0.7545E+00  0.7541E+00  0.2117E+02  0.2117E+02
      6.636  0.8826E+00  0.8827E+00  0.2124E+02  0.2124E+02
      6.719  0.7511E+00  0.7519E+00  0.2130E+02  0.2130E+02
      6.802  0.5971E+00  0.5976E+00  0.2135E+02  0.2135E+02
      6.885  0.6638E+00  0.6641E+00  0.2141E+02  0.2141E+02
      6.968  0.8421E+00  0.8422E+00  0.2148E+02  0.2148E+02
      7.051  0.8036E+00  0.8038E+00  0.2155E+02  0.2155E+02
      7.134  0.6871E+00  0.6874E+00  0.2160E+02  0.2160E+02
      7.217  0.6003E+00  0.6004E+00  0.2165E+02  0.2165E+02
      7.301  0.5711E+00  0.5710E+00  0.2170E+02  0.2170E+02
      7.384  0.5550E+00  0.5549E+00  0.2175E+02  0.2175E+02
      7.467  0.6726E+00  0.6728E+00  0.2180E+02  0.2180E+02
      7.550  0.6987E+00  0.6987E+00  0.2186E+02  0.2186E+02
      7.633  0.6577E+00  0.6579E+00  0.2192E+02  0.2192E+02
      7.716  0.5898E+00  0.5901E+00  0.2196E+02  0.2196E+02
      7.799  0.5632E+00  0.5637E+00  0.2201E+02  0.2201E+02
      7.882  0.5253E+00  0.5251E+00  0.2206E+02  0.2206E+02
      7.965  0.4758E+00  0.4758E+00  0.2209E+02  0.2209E+02
      8.048  0.5960E+00  0.5966E+00  0.2214E+02  0.2214E+02
      8.131  0.8085E+00  0.8089E+00  0.2221E+02  0.2221E+02
      8.214  0.7602E+00  0.7594E+00  0.2227E+02  0.2227E+02
      8.297  0.4265E+00  0.4258E+00  0.2231E+02  0.2231E+02
      8.380  0.4009E+00  0.4016E+00  0.2234E+02  0.2234E+02
      8.463  0.5343E+00  0.5346E+00  0.2239E+02  0.2239E+02
      8.546  0.4557E+00  0.4553E+00  0.2243E+02  0.2243E+02
      8.629  0.4319E+00  0.4324E+00  0.2246E+02  0.2246E+02
      8.712  0.5658E+00  0.5664E+00  0.2251E+02  0.2251E+02
      8.795  0.6560E+00  0.6559E+00  0.2256E+02  0.2256E+02
      8.878  0.6323E+00  0.6320E+00  0.2262E+02  0.2262E+02
      8.962  0.5648E+00  0.5649E+00  0.2266E+02  0.2266E+02
      9.045  0.5694E+00  0.5695E+00  0.2271E+02  0.2271E+02
      9.128  0.5725E+00  0.5724E+00  0.2276E+02  0.2276E+02
      9.211  0.4825E+00  0.4820E+00  0.2280E+02  0.2280E+02
      9.294  0.3769E+00  0.3763E+00  0.2283E+02  0.2283E+02
      9.377  0.3144E+00  0.3145E+00  0.2286E+02  0.2286E+02
      9.460  0.3841E+00  0.3848E+00  0.2289E+02  0.2289E+02
      9.543  0.5141E+00  0.5150E+00  0.2293E+02  0.2293E+02
      9.626  0.6141E+00  0.6143E+00  0.2298E+02  0.2298E+02
      9.709  0.6132E+00  0.6131E+00  0.2303E+02  0.2303E+02
      9.792  0.6296E+00  0.6294E+00  0.2308E+02  0.2308E+02
      9.875  0.5486E+00  0.5477E+00  0.2313E+02  0.2313E+02
      9.958  0.3775E+00  0.3769E+00  0.2316E+02  0.2316E+02
     10.041  0.3214E+00  0.3218E+00  0.2319E+02  0.2319E+02
     10.124  0.4714E+00  0.4727E+00  0.2323E+02  0.2323E+02
     10.207  0.5767E+00  0.5763E+00  0.2327E+02  0.2328E+02
     10.290  0.4056E+00  0.4044E+00  0.2331E+02  0.2331E+02
     10.373  0.2223E+00  0.2216E+00  0.2333E+02  0.2333E+02
     10.456  0.2082E+00  0.2088E+00  0.2334E+02  0.2334E+02
     10.539  0.3409E+00  0.3417E+00  0.2337E+02  0.2337E+02
     10.623  0.4286E+00  0.4290E+00  0.2341E+02  0.2341E+02
     10.706  0.4871E+00  0.4873E+00  0.2345E+02  0.2345E+02
     10.789  0.4863E+00  0.4863E+00  0.2349E+02  0.2349E+02
     10.872  0.4804E+00  0.4803E+00  0.2353E+02  0.2353E+02
     10.955  0.4711E+00  0.4710E+00  0.2357E+02  0.2357E+02
     11.038  0.4078E+00  0.4070E+00  0.2360E+02  0.2360E+02
     11.121  0.2538E+00  0.2530E+00  0.2362E+02  0.2362E+02
     11.204  0.1765E+00  0.1763E+00  0.2364E+02  0.2364E+02
     11.287  0.1684E+00  0.1686E+00  0.2365E+02  0.2365E+02
     11.370  0.2566E+00  0.2573E+00  0.2367E+02  0.2367E+02
     11.453  0.3353E+00  0.3353E+00  0.2370E+02  0.2370E+02
     11.536  0.2728E+00  0.2721E+00  0.2372E+02  0.2372E+02
     11.619  0.2708E+00  0.2711E+00  0.2375E+02  0.2375E+02
     11.702  0.4438E+00  0.4448E+00  0.2378E+02  0.2378E+02
     11.785  0.6317E+00  0.6325E+00  0.2384E+02  0.2384E+02
     11.868  0.6639E+00  0.6635E+00  0.2389E+02  0.2389E+02
     11.951  0.5679E+00  0.5672E+00  0.2394E+02  0.2394E+02
     12.034  0.5279E+00  0.5280E+00  0.2398E+02  0.2398E+02
     12.117  0.6100E+00  0.6103E+00  0.2403E+02  0.2403E+02
     12.200  0.6263E+00  0.6263E+00  0.2408E+02  0.2409E+02
     12.284  0.5617E+00  0.5613E+00  0.2413E+02  0.2413E+02
     12.367  0.4544E+00  0.4541E+00  0.2417E+02  0.2417E+02
     12.450  0.4802E+00  0.4807E+00  0.2421E+02  0.2421E+02
     12.533  0.5474E+00  0.5480E+00  0.2425E+02  0.2426E+02
     12.616  0.6012E+00  0.6013E+00  0.2430E+02  0.2431E+02
     12.699  0.5842E+00  0.5842E+00  0.2435E+02  0.2435E+02
     12.782  0.6132E+00  0.6136E+00  0.2440E+02  0.2440E+02
     12.865  0.7067E+00  0.7072E+00  0.2446E+02  0.2446E+02
     12.948  0.7055E+00  0.7044E+00  0.2452E+02  0.2452E+02
     13.031  0.4858E+00  0.4845E+00  0.2456E+02  0.2456E+02
     13.114  0.3713E+00  0.3716E+00  0.2459E+02  0.2459E+02
     13.197  0.5070E+00  0.5080E+00  0.2464E+02  0.2464E+02
     13.280  0.5557E+00  0.5554E+00  0.2468E+02  0.2468E+02
     13.363  0.5102E+00  0.5103E+00  0.2472E+02  0.2472E+02
     13.446  0.5866E+00  0.5872E+00  0.2477E+02  0.2477E+02
     13.529  0.6320E+00  0.6319E+00  0.2482E+02  0.2483E+02
     13.612  0.5811E+00  0.5808E+00  0.2487E+02  0.2487E+02
     13.695  0.5376E+00  0.5373E+00  0.2492E+02  0.2492E+02
     13.778  0.4768E+00  0.4765E+00  0.2496E+02  0.2496E+02
     13.861  0.4720E+00  0.4721E+00  0.2500E+02  0.2500E+02
     13.945  0.4448E+00  0.4444E+00  0.2503E+02  0.2503E+02
     14.028  0.4545E+00  0.4551E+00  0.2507E+02  0.2507E+02
     14.111  0.5122E+00  0.5121E+00  0.2511E+02  0.2511E+02
     14.194  0.3982E+00  0.3973E+00  0.2515E+02  0.2515E+02
     14.277  0.3368E+00  0.3372E+00  0.2518E+02  0.2518E+02
     14.360  0.4554E+00  0.4562E+00  0.2521E+02  0.2521E+02
     14.443  0.5430E+00  0.5432E+00  0.2526E+02  0.2526E+02
     14.526  0.4956E+00  0.4949E+00  0.2530E+02  0.2530E+02
     14.609  0.4425E+00  0.4429E+00  0.2534E+02  0.2534E+02
     14.692  0.5514E+00  0.5521E+00  0.2538E+02  0.2538E+02
     14.775  0.5849E+00  0.5847E+00  0.2543E+02  0.2543E+02
     14.858  0.4748E+00  0.4736E+00  0.2547E+02  0.2547E+02
     14.941  0.3677E+00  0.3679E+00  0.2550E+02  0.2550E+02
     15.024  0.5521E+00  0.5538E+00  0.2555E+02  0.2555E+02
     15.107  0.7173E+00  0.7174E+00  0.2561E+02  0.2561E+02
     15.190  0.5808E+00  0.5791E+00  0.2565E+02  0.2565E+02
     15.273  0.4042E+00  0.4034E+00  0.2569E+02  0.2569E+02
     15.356  0.3305E+00  0.3304E+00  0.2572E+02  0.2572E+02
     15.439  0.3692E+00  0.3698E+00  0.2575E+02  0.2575E+02
     15.522  0.4788E+00  0.4799E+00  0.2579E+02  0.2579E+02
     15.606  0.6734E+00  0.6747E+00  0.2584E+02  0.2584E+02
     15.689  0.8513E+00  0.8521E+00  0.2591E+02  0.2591E+02
     15.772  0.9156E+00  0.9154E+00  0.2599E+02  0.2599E+02
     15.855  0.9004E+00  0.9004E+00  0.2606E+02  0.2606E+02
     15.938  0.8277E+00  0.8266E+00  0.2613E+02  0.2613E+02
     16.021  0.6871E+00  0.6862E+00  0.2619E+02  0.2619E+02
     16.104  0.6335E+00  0.6335E+00  0.2624E+02  0.2624E+02
     16.187  0.6287E+00  0.6286E+00  0.2629E+02  0.2629E+02
     16.270  0.5774E+00  0.5773E+00  0.2634E+02  0.2634E+02
     16.353  0.6035E+00  0.6039E+00  0.2639E+02  0.2639E+02
     16.436  0.5925E+00  0.5922E+00  0.2644E+02  0.2644E+02
     16.519  0.6067E+00  0.6070E+00  0.2649E+02  0.2649E+02
     16.602  0.7069E+00  0.7063E+00  0.2655E+02  0.2655E+02
     16.685  0.7310E+00  0.7300E+00  0.2661E+02  0.2661E+02
     16.768  0.5921E+00  0.5923E+00  0.2666E+02  0.2666E+02
     16.851  0.4763E+00  0.4769E+00  0.2670E+02  0.2670E+02
     16.934  0.6009E+00  0.6026E+00  0.2675E+02  0.2675E+02
     17.017  0.8335E+00  0.8344E+00  0.2682E+02  0.2682E+02
     17.100  0.9791E+00  0.9777E+00  0.2690E+02  0.2690E+02
     17.183  0.9200E+00  0.9184E+00  0.2698E+02  0.2698E+02
     17.267  0.6832E+00  0.6834E+00  0.2703E+02  0.2703E+02
     17.350  0.5162E+00  0.5157E+00  0.2708E+02  0.2708E+02
     17.433  0.4965E+00  0.4953E+00  0.2712E+02  0.2712E+02
     17.516  0.6051E+00  0.6041E+00  0.2717E+02  0.2717E+02
     17.599  0.7302E+00  0.7310E+00  0.2723E+02  0.2723E+02
     17.682  0.7139E+00  0.7145E+00  0.2729E+02  0.2729E+02
     17.765  0.6595E+00  0.6611E+00  0.2734E+02  0.2734E+02
     17.848  0.6106E+00  0.6129E+00  0.2739E+02  0.2739E+02
     17.931  0.5829E+00  0.5891E+00  0.2744E+02  0.2744E+02
     18.014  0.5902E+00  0.6069E+00  0.2749E+02  0.2749E+02
     18.097  0.4992E+00  0.5152E+00  0.2753E+02  0.2754E+02
     18.180  0.4784E+00  0.4651E+00  0.2757E+02  0.2758E+02
     18.263  0.6590E+00  0.6365E+00  0.2763E+02  0.2763E+02
     18.346  0.7614E+00  0.7245E+00  0.2769E+02  0.2769E+02
     18.429  0.6029E+00  0.5730E+00  0.2774E+02  0.2774E+02
     18.512  0.3551E+00  0.3996E+00  0.2777E+02  0.2777E+02
     18.595  0.2242E+00  0.2890E+00  0.2779E+02  0.2779E+02
     18.678  0.2631E+00  0.2772E+00  0.2781E+02  0.2782E+02
     18.761  0.3042E+00  0.2628E+00  0.2784E+02  0.2784E+02
     18.844  0.2332E+00  0.2093E+00  0.2786E+02  0.2786E+02
     18.928  0.2104E+00  0.1882E+00  0.2787E+02  0.2787E+02
     19.011  0.2992E+00  0.2740E+00  0.2790E+02  0.2789E+02
     19.094  0.3041E+00  0.3173E+00  0.2792E+02  0.2792E+02
     19.177  0.2214E+00  0.2284E+00  0.2794E+02  0.2794E+02
     19.260  0.1631E+00  0.1356E+00  0.2796E+02  0.2795E+02
     19.343  0.1304E+00  0.1326E+00  0.2797E+02  0.2796E+02
     19.426  0.7907E-01  0.1123E+00  0.2797E+02  0.2797E+02
     19.509  0.5530E-01  0.6991E-01  0.2798E+02  0.2798E+02
     19.592  0.3547E-01  0.3907E-01  0.2798E+02  0.2798E+02
     19.675  0.1857E-01  0.1926E-01  0.2798E+02  0.2798E+02
     19.758  0.1734E-01  0.1729E-01  0.2798E+02  0.2798E+02
     19.841  0.1775E-01  0.1699E-01  0.2799E+02  0.2799E+02
     19.924  0.1242E-01  0.8956E-02  0.2799E+02  0.2799E+02
     20.007  0.2524E-01  0.1295E-01  0.2799E+02  0.2799E+02
     20.090  0.5071E-01  0.3770E-01  0.2799E+02  0.2799E+02
     20.173  0.3642E-01  0.5001E-01  0.2800E+02  0.2799E+02
     20.256  0.1124E-01  0.2310E-01  0.2800E+02  0.2800E+02
     20.339  0.3926E-02  0.7021E-02  0.2800E+02  0.2800E+02
     20.422  0.6864E-02  0.7122E-02  0.2800E+02  0.2800E+02
     20.505  0.1277E-01  0.1285E-01  0.2800E+02  0.2800E+02
     20.589  0.8561E-02  0.9000E-02  0.2800E+02  0.2800E+02
     20.672  0.2487E-02  0.2699E-02  0.2800E+02  0.2800E+02
     20.755  0.6019E-03  0.6522E-03  0.2800E+02  0.2800E+02
     20.838  0.5095E-03  0.5237E-03  0.2800E+02  0.2800E+02
     20.921  0.1421E-02  0.1431E-02  0.2800E+02  0.2800E+02
     21.004  0.2130E-02  0.2128E-02  0.2800E+02  0.2800E+02
     21.087  0.1074E-02  0.1065E-02  0.2800E+02  0.2800E+02
     21.170  0.2715E-03  0.2684E-03  0.2800E+02  0.2800E+02
     21.253  0.5484E-04  0.5418E-04  0.2800E+02  0.2800E+02
     21.336  0.1054E-04  0.1041E-04  0.2800E+02  0.2800E+02
     21.419  0.0000E+00  0.0000E+00  0.2800E+02  0.2800E+02
     21.502  0.0000E+00  0.0000E+00  0.2800E+02  0.2800E+02
     21.585  0.0000E+00  0.0000E+00  0.2800E+02  0.2800E+02
     21.668  0.0000E+00  0.0000E+00  0.2800E+02  0.2800E+02
     21.751  0.0000E+00  0.0000E+00  0.2800E+02  0.2800E+02
     21.834  0.0000E+00  0.0000E+00  0.2800E+02  0.2800E+02
     21.917  0.0000E+00  0.0000E+00  0.2800E+02  0.2800E+02
     22.000  0.0000E+00  0.0000E+00  0.2800E+02  0.2800E+02
     22.083  0.0000E+00  0.0000E+00  0.2800E+02  0.2800E+02
     22.08343712     -2.83156553  301      7.77851350      1.00000000
     -2.832  0.0000E+00  0.0000E+00  0.0000E+00  0.0000E+00  0.0000E+00  0.0000E+00  0.0000E+00  0.0000E+00  0.0000E+00  0.0000E+00  0.0000E+00  0.0000E+00  0.0000E+00  0.0000E+00  0.0000E+00  0.0000E+00  0.0000E+00  0.0000E+00
     -2.749  0.0000E+00  0.0000E+00  0.0000E+00  0.0000E+00  0.0000E+00  0.0000E+00  0.0000E+00  0.0000E+00  0.0000E+00  0.0000E+00  0.0000E+00  0.0000E+00  0.0000E+00  0.0000E+00  0.0000E+00  0.0000E+00  0.0000E+00  0.0000E+00
     -2.665  0.0000E+00  0.0000E+00  0.0000E+00  0.0000E+00  0.0000E+00  0.0000E+00  0.0000E+00  0.0000E+00  0.0000E+00  0.0000E+00  0.0000E+00  0.0000E+00  0.0000E+00  0.0000E+00  0.0000E+00  0.0000E+00  0.0000E+00  0.0000E+00
     -2.582  0.0000E+00  0.0000E+00  0.0000E+00  0.0000E+00  0.0000E+00  0.0000E+00  0.0000E+00  0.0000E+00  0.0000E+00  0.0000E+00  0.0000E+00  0.0000E+00  0.0000E+00  0.0000E+00  0.0000E+00  0.0000E+00  0.0000E+00  0.0000E+00
     -2.499  0.0000E+00  0.0000E+00  0.0000E+00  0.0000E+00  0.0000E+00  0.0000E+00  0.0000E+00  0.0000E+00  0.0000E+00  0.0000E+00  0.0000E+00  0.0000E+00  0.0000E+00  0.0000E+00  0.0000E+00  0.0000E+00  0.0000E+00  0.0000E+00
     -2.416  0.0000E+00  0.0000E+00  0.0000E+00  0.0000E+00  0.0000E+00  0.0000E+00  0.0000E+00  0.0000E+00  0.0000E+00  0.0000E+00  0.0000E+00  0.0000E+00  0.0000E+00  0.0000E+00  0.0000E+00  0.0000E+00  0.0000E+00  0.0000E+00
     -2.333  0.0000E+00  0.0000E+00  0.0000E+00  0.0000E+00  0.0000E+00  0.0000E+00  0.0000E+00  0.0000E+00  0.0000E+00  0.0000E+00  0.0000E+00  0.0000E+00  0.0000E+00  0.0000E+00  0.0000E+00  0.0000E+00  0.0000E+00  0.0000E+00
     -2.250  0.0000E+00  0.0000E+00  0.0000E+00  0.0000E+00  0.0000E+00  0.0000E+00  0.0000E+00  0.0000E+00  0.0000E+00  0.0000E+00  0.0000E+00  0.0000E+00  0.0000E+00  0.0000E+00  0.0000E+00  0.0000E+00  0.0000E+00  0.0000E+00
     -2.167  0.6871E-07  0.6993E-07  0.3496E-21  0.2008E-21  0.3496E-21  0.2008E-21  0.3496E-21  0.2008E-21  0.5685E-17  0.5312E-16  0.5685E-17  0.5312E-16  0.5015E-18  0.3775E-18  0.5685E-17  0.5312E-16  0.5015E-18  0.3775E-18
     -2.084  0.7965E-06  0.8105E-06  0.1064E-08  0.1082E-08  0.1064E-08  0.1082E-08  0.1064E-08  0.1082E-08  0.2440E-16  0.2339E-15  0.2440E-16  0.2339E-15  0.7931E-11  0.8179E-11  0.2440E-16  0.2339E-15  0.7931E-11  0.8179E-11
     -2.001  0.4921E-05  0.5008E-05  0.9762E-08  0.9935E-08  0.9762E-08  0.9935E-08  0.9762E-08  0.9935E-08  0.5066E-10  0.5132E-10  0.5066E-10  0.5132E-10  0.5340E-10  0.5474E-10  0.5066E-10  0.5132E-10  0.5340E-10  0.5474E-10
     -1.918  0.2556E-04  0.2601E-04  0.5254E-07  0.5347E-07  0.5254E-07  0.5347E-07  0.5254E-07  0.5347E-07  0.3457E-09  0.3496E-09  0.3457E-09  0.3496E-09  0.2610E-09  0.2677E-09  0.3457E-09  0.3496E-09  0.2610E-09  0.2677E-09
     -1.835  0.1311E-03  0.1333E-03  0.2760E-06  0.2808E-06  0.2760E-06  0.2808E-06  0.2760E-06  0.2808E-06  0.1686E-08  0.1705E-08  0.1686E-08  0.1705E-08  0.1614E-08  0.1652E-08  0.1686E-08  0.1705E-08  0.1614E-08  0.1652E-08
     -1.752  0.6179E-03  0.6274E-03  0.1437E-05  0.1461E-05  0.1437E-05  0.1461E-05  0.1437E-05  0.1461E-05  0.9562E-08  0.9667E-08  0.9562E-08  0.9667E-08  0.8898E-08  0.9089E-08  0.9562E-08  0.9667E-08  0.8898E-08  0.9089E-08
     -1.669  0.2244E-02  0.2270E-02  0.6392E-05  0.6484E-05  0.6392E-05  0.6484E-05  0.6392E-05  0.6484E-05  0.4891E-07  0.4942E-07  0.4891E-07  0.4942E-07  0.3890E-07  0.3959E-07  0.4891E-07  0.4942E-07  0.3890E-07  0.3959E-07
     -1.586  0.5338E-02  0.5373E-02  0.2017E-04  0.2036E-04  0.2017E-04  0.2036E-04  0.2017E-04  0.2036E-04  0.1985E-06  0.1999E-06  0.1985E-06  0.1999E-06  0.1250E-06  0.1264E-06  0.1985E-06  0.1999E-06  0.1250E-06  0.1264E-06
     -1.503  0.7928E-02  0.7944E-02  0.4146E-04  0.4170E-04  0.4146E-04  0.4170E-04  0.4146E-04  0.4170E-04  0.5340E-06  0.5350E-06  0.5340E-06  0.5350E-06  0.3522E-06  0.3550E-06  0.5340E-06  0.5350E-06  0.3522E-06  0.3550E-06
     -1.420  0.9265E-02  0.9286E-02  0.7140E-04  0.7185E-04  0.7140E-04  0.7185E-04  0.7140E-04  0.7185E-04  0.1089E-05  0.1092E-05  0.1089E-05  0.1092E-05  0.1082E-05  0.1090E-05  0.1089E-05  0.1092E-05  0.1082E-05  0.1090E-05
     -1.337  0.1288E-01  0.1293E-01  0.1324E-03  0.1331E-03  0.1324E-03  0.1331E-03  0.1324E-03  0.1331E-03  0.2549E-05  0.2564E-05  0.2549E-05  0.2564E-05  0.2426E-05  0.2432E-05  0.2549E-05  0.2564E-05  0.2426E-05  0.2432E-05
     -1.254  0.1531E-01  0.1530E-01  0.1813E-03  0.1815E-03  0.1813E-03  0.1815E-03  0.1813E-03  0.1815E-03  0.4620E-05  0.4636E-05  0.4620E-05  0.4636E-05  0.3081E-05  0.3078E-05  0.4620E-05  0.4636E-05  0.3081E-05  0.3078E-05
     -1.171  0.1240E-01  0.1238E-01  0.1751E-03  0.1752E-03  0.1751E-03  0.1752E-03  0.1751E-03  0.1752E-03  0.5878E-05  0.5899E-05  0.5878E-05  0.5899E-05  0.3273E-05  0.3284E-05  0.5878E-05  0.5899E-05  0.3273E-05  0.3284E-05
     -1.088  0.1387E-01  0.1392E-01  0.2481E-03  0.2495E-03  0.2481E-03  0.2495E-03  0.2481E-03  0.2495E-03  0.9913E-05  0.9971E-05  0.9913E-05  0.9971E-05  0.6635E-05  0.6696E-05  0.9913E-05  0.9971E-05  0.6635E-05  0.6696E-05
     -1.004  0.1927E-01  0.1930E-01  0.3868E-03  0.3880E-03  0.3868E-03  0.3880E-03  0.3868E-03  0.3880E-03  0.1490E-04  0.1493E-04  0.1490E-04  0.1493E-04  0.1449E-04  0.1458E-04  0.1490E-04  0.1493E-04  0.1449E-04  0.1458E-04
     -0.921  0.2013E-01  0.2012E-01  0.4440E-03  0.4441E-03  0.4440E-03  0.4441E-03  0.4440E-03  0.4441E-03  0.1735E-04  0.1739E-04  0.1735E-04  0.1739E-04  0.2049E-04  0.2052E-04  0.1735E-04  0.1739E-04  0.2049E-04  0.2052E-04
     -0.838  0.1807E-01  0.1805E-01  0.4452E-03  0.4454E-03  0.4452E-03  0.4454E-03  0.4452E-03  0.4454E-03  0.2391E-04  0.2402E-04  0.2391E-04  0.2402E-04  0.1874E-04  0.1872E-04  0.2391E-04  0.2402E-04  0.1874E-04  0.1872E-04
     -0.755  0.1978E-01  0.1982E-01  0.5498E-03  0.5516E-03  0.5498E-03  0.5516E-03  0.5498E-03  0.5516E-03  0.3869E-04  0.3888E-04  0.3869E-04  0.3888E-04  0.2046E-04  0.2051E-04  0.3869E-04  0.3888E-04  0.2046E-04  0.2051E-04
     -0.672  0.2210E-01  0.2207E-01  0.6574E-03  0.6571E-03  0.6574E-03  0.6571E-03  0.6574E-03  0.6571E-03  0.5064E-04  0.5063E-04  0.5064E-04  0.5063E-04  0.2610E-04  0.2612E-04  0.5064E-04  0.5063E-04  0.2610E-04  0.2612E-04
     -0.589  0.1710E-01  0.1706E-01  0.5537E-03  0.5533E-03  0.5537E-03  0.5533E-03  0.5537E-03  0.5533E-03  0.4186E-04  0.4181E-04  0.4186E-04  0.4181E-04  0.3297E-04  0.3311E-04  0.4186E-04  0.4181E-04  0.3297E-04  0.3311E-04
     -0.506  0.2042E-01  0.2051E-01  0.7466E-03  0.7506E-03  0.7466E-03  0.7506E-03  0.7466E-03  0.7506E-03  0.5650E-04  0.5683E-04  0.5650E-04  0.5683E-04  0.6278E-04  0.6314E-04  0.5650E-04  0.5683E-04  0.6278E-04  0.6314E-04
     -0.423  0.2763E-01  0.2766E-01  0.1066E-02  0.1068E-02  0.1066E-02  0.1068E-02  0.1066E-02  0.1068E-02  0.8742E-04  0.8767E-04  0.8742E-04  0.8767E-04  0.9143E-04  0.9149E-04  0.8742E-04  0.8767E-04  0.9143E-04  0.9149E-04
     -0.340  0.2692E-01  0.2689E-01  0.1100E-02  0.1099E-02  0.1100E-02  0.1099E-02  0.1100E-02  0.1099E-02  0.1050E-03  0.1052E-03  0.1050E-03  0.1052E-03  0.8922E-04  0.8917E-04  0.1050E-03  0.1052E-03  0.8922E-04  0.8917E-04
     -0.257  0.2655E-01  0.2656E-01  0.1163E-02  0.1164E-02  0.1163E-02  0.1164E-02  0.1163E-02  0.1164E-02  0.1277E-03  0.1281E-03  0.1277E-03  0.1281E-03  0.9707E-04  0.9724E-04  0.1277E-03  0.1281E-03  0.9707E-04  0.9724E-04
     -0.174  0.2617E-01  0.2612E-01  0.1201E-02  0.1200E-02  0.1201E-02  0.1200E-02  0.1201E-02  0.1200E-02  0.1575E-03  0.1576E-03  0.1575E-03  0.1576E-03  0.9414E-04  0.9386E-04  0.1575E-03  0.1576E-03  0.9414E-04  0.9386E-04
     -0.091  0.1921E-01  0.1915E-01  0.9291E-03  0.9269E-03  0.9291E-03  0.9269E-03  0.9291E-03  0.9269E-03  0.1464E-03  0.1463E-03  0.1464E-03  0.1463E-03  0.6709E-04  0.6702E-04  0.1464E-03  0.1463E-03  0.6709E-04  0.6702E-04
     -0.008  0.1952E-01  0.1959E-01  0.1038E-02  0.1043E-02  0.1038E-02  0.1043E-02  0.1038E-02  0.1043E-02  0.1647E-03  0.1654E-03  0.1647E-03  0.1654E-03  0.1047E-03  0.1056E-03  0.1647E-03  0.1654E-03  0.1047E-03  0.1056E-03
      0.075  0.2962E-01  0.2974E-01  0.1671E-02  0.1678E-02  0.1671E-02  0.1678E-02  0.1671E-02  0.1678E-02  0.2436E-03  0.2446E-03  0.2436E-03  0.2446E-03  0.2229E-03  0.2242E-03  0.2436E-03  0.2446E-03  0.2229E-03  0.2242E-03
      0.158  0.3523E-01  0.3522E-01  0.2053E-02  0.2053E-02  0.2053E-02  0.2053E-02  0.2053E-02  0.2053E-02  0.2981E-03  0.2983E-03  0.2981E-03  0.2983E-03  0.3166E-03  0.3166E-03  0.2981E-03  0.2983E-03  0.3166E-03  0.3166E-03
      0.241  0.3052E-01  0.3050E-01  0.1858E-02  0.1858E-02  0.1858E-02  0.1858E-02  0.1858E-02  0.1858E-02  0.3146E-03  0.3153E-03  0.3146E-03  0.3153E-03  0.2963E-03  0.2958E-03  0.3146E-03  0.3153E-03  0.2963E-03  0.2958E-03
      0.324  0.3248E-01  0.3250E-01  0.2079E-02  0.2081E-02  0.2079E-02  0.2081E-02  0.2079E-02  0.2081E-02  0.4063E-03  0.4068E-03  0.4063E-03  0.4068E-03  0.3283E-03  0.3288E-03  0.4063E-03  0.4068E-03  0.3283E-03  0.3288E-03
      0.407  0.2847E-01  0.2837E-01  0.1890E-02  0.1884E-02  0.1890E-02  0.1884E-02  0.1890E-02  0.1884E-02  0.3616E-03  0.3606E-03  0.3616E-03  0.3606E-03  0.3309E-03  0.3299E-03  0.3616E-03  0.3606E-03  0.3309E-03  0.3299E-03
      0.490  0.2216E-01  0.2217E-01  0.1558E-02  0.1559E-02  0.1558E-02  0.1559E-02  0.1558E-02  0.1559E-02  0.3691E-03  0.3707E-03  0.3691E-03  0.3707E-03  0.2423E-03  0.2419E-03  0.3691E-03  0.3707E-03  0.2423E-03  0.2419E-03
      0.573  0.2925E-01  0.2935E-01  0.2159E-02  0.2167E-02  0.2159E-02  0.2167E-02  0.2159E-02  0.2167E-02  0.6320E-03  0.6348E-03  0.6320E-03  0.6348E-03  0.2932E-03  0.2943E-03  0.6320E-03  0.6348E-03  0.2932E-03  0.2943E-03
      0.657  0.3504E-01  0.3506E-01  0.2670E-02  0.2672E-02  0.2670E-02  0.2672E-02  0.2670E-02  0.2672E-02  0.7993E-03  0.7995E-03  0.7993E-03  0.7995E-03  0.4237E-03  0.4252E-03  0.7993E-03  0.7995E-03  0.4237E-03  0.4252E-03
      0.740  0.3357E-01  0.3353E-01  0.2658E-02  0.2657E-02  0.2658E-02  0.2657E-02  0.2658E-02  0.2657E-02  0.7549E-03  0.7537E-03  0.7549E-03  0.7537E-03  0.5921E-03  0.5941E-03  0.7549E-03  0.7537E-03  0.5921E-03  0.5941E-03
      0.823  0.3179E-01  0.3179E-01  0.2634E-02  0.2636E-02  0.2634E-02  0.2636E-02  0.2634E-02  0.2636E-02  0.6960E-03  0.6960E-03  0.6960E-03  0.6960E-03  0.8266E-03  0.8284E-03  0.6960E-03  0.6960E-03  0.8266E-03  0.8284E-03
      0.906  0.3084E-01  0.3081E-01  0.2654E-02  0.2653E-02  0.2654E-02  0.2653E-02  0.2654E-02  0.2653E-02  0.7563E-03  0.7567E-03  0.7563E-03  0.7567E-03  0.9012E-03  0.9005E-03  0.7563E-03  0.7567E-03  0.9012E-03  0.9005E-03
      0.989  0.3305E-01  0.3313E-01  0.2979E-02  0.2989E-02  0.2979E-02  0.2989E-02  0.2979E-02  0.2989E-02  0.9995E-03  0.1003E-02  0.9995E-03  0.1003E-02  0.9810E-03  0.9829E-03  0.9995E-03  0.1003E-02  0.9810E-03  0.9829E-03
      1.072  0.4165E-01  0.4169E-01  0.3874E-02  0.3878E-02  0.3874E-02  0.3878E-02  0.3874E-02  0.3878E-02  0.1461E-02  0.1463E-02  0.1461E-02  0.1463E-02  0.1144E-02  0.1143E-02  0.1461E-02  0.1463E-02  0.1144E-02  0.1143E-02
      1.155  0.3794E-01  0.3786E-01  0.3603E-02  0.3597E-02  0.3603E-02  0.3597E-02  0.3603E-02  0.3597E-02  0.1595E-02  0.1593E-02  0.1595E-02  0.1593E-02  0.9339E-03  0.9315E-03  0.1595E-02  0.1593E-02  0.9339E-03  0.9315E-03
      1.238  0.3411E-01  0.3407E-01  0.3359E-02  0.3357E-02  0.3359E-02  0.3357E-02  0.3359E-02  0.3357E-02  0.1652E-02  0.1651E-02  0.1652E-02  0.1651E-02  0.9496E-03  0.9506E-03  0.1652E-02  0.1651E-02  0.9496E-03  0.9506E-03
      1.321  0.3340E-01  0.3336E-01  0.3403E-02  0.3400E-02  0.3403E-02  0.3400E-02  0.3403E-02  0.3400E-02  0.1727E-02  0.1726E-02  0.1727E-02  0.1726E-02  0.1136E-02  0.1137E-02  0.1727E-02  0.1726E-02  0.1136E-02  0.1137E-02