   4   4   1   0
  0.1273771E+02  0.3707238E-09  0.3707238E-09  0.3707238E-09  0.5000000E-15
  1.000000000000000E-004
  CAR 
 unknown system                          
     20.25927418     -3.17185946  301      6.70502972      1.00000000
     -3.172  0.0000E+00  0.0000E+00  0.0000E+00  0.0000E+00
     -3.094  0.0000E+00  0.0000E+00  0.0000E+00  0.0000E+00
     -3.016  0.0000E+00  0.0000E+00  0.0000E+00  0.0000E+00
     -2.938  0.0000E+00  0.0000E+00  0.0000E+00  0.0000E+00
     -2.859  0.0000E+00  0.0000E+00  0.0000E+00  0.0000E+00
     -2.781  0.0000E+00  0.0000E+00  0.0000E+00  0.0000E+00
     -2.703  0.0000E+00  0.0000E+00  0.0000E+00  0.0000E+00
     -2.625  0.0000E+00  0.0000E+00  0.0000E+00  0.0000E+00
     -2.547  0.8478E-06  0.8744E-06  0.6621E-07  0.6830E-07
     -2.469  0.9393E-05  0.9688E-05  0.7998E-06  0.8250E-06
     -2.391  0.5371E-04  0.5539E-04  0.4994E-05  0.5151E-05
     -2.313  0.2518E-03  0.2622E-03  0.2466E-04  0.2563E-04
     -2.235  0.1178E-02  0.1211E-02  0.1167E-03  0.1202E-03
     -2.157  0.4999E-02  0.5136E-02  0.5072E-03  0.5214E-03
     -2.078  0.1680E-01  0.1715E-01  0.1819E-02  0.1861E-02
     -2.000  0.3842E-01  0.3888E-01  0.4820E-02  0.4897E-02
     -1.922  0.5721E-01  0.5746E-01  0.9288E-02  0.9385E-02
     -1.844  0.6893E-01  0.6926E-01  0.1467E-01  0.1479E-01
     -1.766  0.9462E-01  0.9523E-01  0.2206E-01  0.2223E-01
     -1.688  0.1113E+00  0.1112E+00  0.3076E-01  0.3092E-01
     -1.610  0.9471E-01  0.9445E-01  0.3816E-01  0.3830E-01
     -1.532  0.1067E+00  0.1074E+00  0.4650E-01  0.4669E-01
     -1.454  0.1446E+00  0.1452E+00  0.5779E-01  0.5803E-01
     -1.375  0.1528E+00  0.1526E+00  0.6973E-01  0.6996E-01
     -1.297  0.1408E+00  0.1406E+00  0.8075E-01  0.8096E-01
     -1.219  0.1543E+00  0.1548E+00  0.9279E-01  0.9306E-01
     -1.141  0.1698E+00  0.1695E+00  0.1061E+00  0.1063E+00
     -1.063  0.1387E+00  0.1384E+00  0.1169E+00  0.1171E+00
     -0.985  0.1648E+00  0.1661E+00  0.1298E+00  0.1301E+00
     -0.907  0.2186E+00  0.2191E+00  0.1469E+00  0.1472E+00
     -0.829  0.2179E+00  0.2177E+00  0.1639E+00  0.1642E+00
     -0.751  0.2165E+00  0.2166E+00  0.1808E+00  0.1812E+00
     -0.673  0.2130E+00  0.2123E+00  0.1975E+00  0.1978E+00
     -0.594  0.1643E+00  0.1635E+00  0.2103E+00  0.2105E+00
     -0.516  0.1678E+00  0.1688E+00  0.2234E+00  0.2237E+00
     -0.438  0.2472E+00  0.2488E+00  0.2427E+00  0.2432E+00
     -0.360  0.2968E+00  0.2967E+00  0.2659E+00  0.2664E+00
     -0.282  0.2675E+00  0.2671E+00  0.2868E+00  0.2872E+00
     -0.204  0.2805E+00  0.2809E+00  0.3088E+00  0.3092E+00
     -0.126  0.2551E+00  0.2538E+00  0.3287E+00  0.3290E+00
     -0.048  0.2042E+00  0.2042E+00  0.3447E+00  0.3450E+00
      0.030  0.2579E+00  0.2594E+00  0.3648E+00  0.3653E+00
      0.108  0.3153E+00  0.3157E+00  0.3895E+00  0.3899E+00
      0.187  0.3112E+00  0.3107E+00  0.4138E+00  0.4142E+00
      0.265  0.2980E+00  0.2980E+00  0.4371E+00  0.4375E+00
      0.343  0.2978E+00  0.2976E+00  0.4604E+00  0.4608E+00
      0.421  0.3139E+00  0.3151E+00  0.4849E+00  0.4854E+00
      0.499  0.3981E+00  0.3991E+00  0.5160E+00  0.5166E+00
      0.577  0.3862E+00  0.3851E+00  0.5462E+00  0.5467E+00
      0.655  0.3451E+00  0.3450E+00  0.5732E+00  0.5737E+00
      0.733  0.3455E+00  0.3450E+00  0.6002E+00  0.6006E+00
      0.811  0.3170E+00  0.3167E+00  0.6249E+00  0.6254E+00
      0.890  0.3630E+00  0.3643E+00  0.6533E+00  0.6539E+00
      0.968  0.4188E+00  0.4191E+00  0.6861E+00  0.6866E+00
      1.046  0.4581E+00  0.4593E+00  0.7219E+00  0.7225E+00
      1.124  0.5629E+00  0.5638E+00  0.7659E+00  0.7666E+00
      1.202  0.5323E+00  0.5303E+00  0.8074E+00  0.8080E+00
      1.280  0.4320E+00  0.4302E+00  0.8412E+00  0.8417E+00
      1.358  0.4344E+00  0.4348E+00  0.8751E+00  0.8757E+00
      1.436  0.4951E+00  0.4958E+00  0.9138E+00  0.9144E+00
      1.514  0.6001E+00  0.6014E+00  0.9608E+00  0.9614E+00
      1.592  0.6954E+00  0.6956E+00  0.1015E+01  0.1016E+01
      1.671  0.7604E+00  0.7605E+00  0.1075E+01  0.1075E+01
      1.749  0.7852E+00  0.7839E+00  0.1136E+01  0.1136E+01
      1.827  0.7261E+00  0.7248E+00  0.1193E+01  0.1193E+01
      1.905  0.8624E+00  0.8637E+00  0.1260E+01  0.1261E+01
      1.983  0.1249E+01  0.1251E+01  0.1358E+01  0.1358E+01
      2.061  0.1490E+01  0.1488E+01  0.1474E+01  0.1475E+01
      2.139  0.1524E+01  0.1522E+01  0.1593E+01  0.1594E+01
      2.217  0.1842E+01  0.1841E+01  0.1737E+01  0.1737E+01
      2.295  0.2262E+01  0.2260E+01  0.1914E+01  0.1914E+01
      2.374  0.2468E+01  0.2466E+01  0.2107E+01  0.2107E+01
      2.452  0.2558E+01  0.2556E+01  0.2307E+01  0.2306E+01
      2.530  0.2769E+01  0.2766E+01  0.2523E+01  0.2523E+01
      2.608  0.2874E+01  0.2870E+01  0.2748E+01  0.2747E+01
      2.686  0.3364E+01  0.3357E+01  0.3011E+01  0.3009E+01
      2.764  0.3957E+01  0.3949E+01  0.3320E+01  0.3318E+01
      2.842  0.4497E+01  0.4490E+01  0.3671E+01  0.3669E+01
      2.920  0.4942E+01  0.4937E+01  0.4057E+01  0.4054E+01
      2.998  0.5048E+01  0.5047E+01  0.4452E+01  0.4449E+01
      3.076  0.4843E+01  0.4844E+01  0.4830E+01  0.4827E+01
      3.155  0.4750E+01  0.4749E+01  0.5202E+01  0.5198E+01
      3.233  0.4705E+01  0.4704E+01  0.5569E+01  0.5566E+01
      3.311  0.4738E+01  0.4735E+01  0.5940E+01  0.5936E+01
      3.389  0.4902E+01  0.4898E+01  0.6323E+01  0.6319E+01
      3.467  0.5346E+01  0.5337E+01  0.6741E+01  0.6736E+01
      3.545  0.6115E+01  0.6105E+01  0.7219E+01  0.7213E+01
      3.623  0.6718E+01  0.6713E+01  0.7744E+01  0.7738E+01
      3.701  0.7046E+01  0.7039E+01  0.8294E+01  0.8288E+01
      3.779  0.7676E+01  0.7665E+01  0.8894E+01  0.8887E+01
      3.857  0.8449E+01  0.8438E+01  0.9554E+01  0.9546E+01
      3.936  0.8935E+01  0.8925E+01  0.1025E+02  0.1024E+02
      4.014  0.9344E+01  0.9336E+01  0.1098E+02  0.1097E+02
      4.092  0.8971E+01  0.8982E+01  0.1168E+02  0.1168E+02
      4.170  0.7692E+01  0.7709E+01  0.1229E+02  0.1228E+02
      4.248  0.6596E+01  0.6605E+01  0.1280E+02  0.1279E+02
      4.326  0.6184E+01  0.6182E+01  0.1328E+02  0.1328E+02
      4.404  0.6575E+01  0.6563E+01  0.1380E+02  0.1379E+02
      4.482  0.7444E+01  0.7430E+01  0.1438E+02  0.1437E+02
      4.560  0.8012E+01  0.8004E+01  0.1501E+02  0.1500E+02
      4.639  0.8087E+01  0.8087E+01  0.1564E+02  0.1563E+02
      4.717  0.7760E+01  0.7762E+01  0.1625E+02  0.1624E+02
      4.795  0.7510E+01  0.7509E+01  0.1683E+02  0.1682E+02
      4.873  0.7544E+01  0.7535E+01  0.1742E+02  0.1741E+02
      4.951  0.8225E+01  0.8203E+01  0.1806E+02  0.1805E+02
      5.029  0.9649E+01  0.9616E+01  0.1882E+02  0.1880E+02
      5.107  0.1067E+02  0.1067E+02  0.1965E+02  0.1964E+02
      5.185  0.8884E+01  0.8939E+01  0.2035E+02  0.2034E+02
      5.263  0.5397E+01  0.5460E+01  0.2077E+02  0.2076E+02
      5.341  0.2664E+01  0.2703E+01  0.2098E+02  0.2098E+02
      5.420  0.1198E+01  0.1213E+01  0.2107E+02  0.2107E+02
      5.498  0.8241E+00  0.8264E+00  0.2114E+02  0.2114E+02
      5.576  0.9336E+00  0.9333E+00  0.2121E+02  0.2121E+02
      5.654  0.8708E+00  0.8738E+00  0.2128E+02  0.2128E+02
      5.732  0.6743E+00  0.6763E+00  0.2133E+02  0.2133E+02
      5.810  0.6549E+00  0.6544E+00  0.2138E+02  0.2138E+02
      5.888  0.8289E+00  0.8275E+00  0.2145E+02  0.2145E+02
      5.966  0.8490E+00  0.8508E+00  0.2151E+02  0.2151E+02
      6.044  0.7089E+00  0.7112E+00  0.2157E+02  0.2157E+02
      6.122  0.6293E+00  0.6308E+00  0.2162E+02  0.2162E+02
      6.201  0.6596E+00  0.6596E+00  0.2167E+02  0.2167E+02
      6.279  0.6915E+00  0.6904E+00  0.2172E+02  0.2172E+02
      6.357  0.7380E+00  0.7370E+00  0.2178E+02  0.2178E+02
      6.435  0.7252E+00  0.7259E+00  0.2184E+02  0.2184E+02
      6.513  0.6648E+00  0.6661E+00  0.2189E+02  0.2189E+02
      6.591  0.6109E+00  0.6116E+00  0.2194E+02  0.2194E+02
      6.669  0.5537E+00  0.5539E+00  0.2198E+02  0.2198E+02
      6.747  0.4986E+00  0.4992E+00  0.2202E+02  0.2202E+02
      6.825  0.5263E+00  0.5270E+00  0.2206E+02  0.2206E+02
      6.904  0.6443E+00  0.6440E+00  0.2211E+02  0.2211E+02
      6.982  0.8003E+00  0.8003E+00  0.2217E+02  0.2217E+02
      7.060  0.8906E+00  0.8908E+00  0.2224E+02  0.2224E+02
      7.138  0.6223E+00  0.6222E+00  0.2229E+02  0.2229E+02
      7.216  0.4311E+00  0.4310E+00  0.2233E+02  0.2233E+02
      7.294  0.4515E+00  0.4517E+00  0.2236E+02  0.2236E+02
      7.372  0.4567E+00  0.4573E+00  0.2240E+02  0.2240E+02
      7.450  0.4389E+00  0.4394E+00  0.2243E+02  0.2243E+02
      7.528  0.4992E+00  0.4997E+00  0.2247E+02  0.2247E+02
      7.606  0.6899E+00  0.6903E+00  0.2252E+02  0.2253E+02
      7.685  0.7753E+00  0.7746E+00  0.2259E+02  0.2259E+02
      7.763  0.5991E+00  0.5988E+00  0.2263E+02  0.2263E+02
      7.841  0.5599E+00  0.5605E+00  0.2268E+02  0.2268E+02
      7.919  0.5943E+00  0.5948E+00  0.2272E+02  0.2272E+02
      7.997  0.5484E+00  0.5484E+00  0.2277E+02  0.2277E+02
      8.075  0.4753E+00  0.4751E+00  0.2280E+02  0.2280E+02
      8.153  0.4070E+00  0.4065E+00  0.2283E+02  0.2283E+02
      8.231  0.3557E+00  0.3553E+00  0.2286E+02  0.2286E+02
      8.309  0.3793E+00  0.3800E+00  0.2289E+02  0.2289E+02
      8.387  0.5150E+00  0.5163E+00  0.2293E+02  0.2293E+02
      8.466  0.6395E+00  0.6400E+00  0.2298E+02  0.2298E+02
      8.544  0.7171E+00  0.7175E+00  0.2304E+02  0.2304E+02
      8.622  0.7504E+00  0.7496E+00  0.2310E+02  0.2310E+02
      8.700  0.5440E+00  0.5423E+00  0.2314E+02  0.2314E+02
      8.778  0.3336E+00  0.3330E+00  0.2317E+02  0.2317E+02
      8.856  0.3353E+00  0.3363E+00  0.2319E+02  0.2319E+02
      8.934  0.5141E+00  0.5154E+00  0.2323E+02  0.2323E+02
      9.012  0.5591E+00  0.5586E+00  0.2328E+02  0.2328E+02
      9.090  0.3977E+00  0.3965E+00  0.2331E+02  0.2331E+02
      9.169  0.2574E+00  0.2566E+00  0.2333E+02  0.2333E+02
      9.247  0.2617E+00  0.2621E+00  0.2335E+02  0.2335E+02
      9.325  0.3847E+00  0.3856E+00  0.2338E+02  0.2338E+02
      9.403  0.4842E+00  0.4850E+00  0.2342E+02  0.2342E+02
      9.481  0.5104E+00  0.5102E+00  0.2345E+02  0.2346E+02
      9.559  0.4684E+00  0.4683E+00  0.2349E+02  0.2349E+02
      9.637  0.5025E+00  0.5030E+00  0.2353E+02  0.2353E+02
      9.715  0.5238E+00  0.5235E+00  0.2357E+02  0.2357E+02
      9.793  0.3981E+00  0.3969E+00  0.2360E+02  0.2360E+02
      9.871  0.2448E+00  0.2439E+00  0.2362E+02  0.2362E+02
      9.950  0.1847E+00  0.1847E+00  0.2364E+02  0.2364E+02
     10.028  0.2389E+00  0.2397E+00  0.2366E+02  0.2366E+02
     10.106  0.3927E+00  0.3936E+00  0.2369E+02  0.2369E+02
     10.184  0.5011E+00  0.5010E+00  0.2373E+02  0.2373E+02
     10.262  0.4707E+00  0.4703E+00  0.2376E+02  0.2376E+02
     10.340  0.4576E+00  0.4583E+00  0.2380E+02  0.2380E+02
     10.418  0.5632E+00  0.5645E+00  0.2384E+02  0.2384E+02
     10.496  0.7142E+00  0.7153E+00  0.2390E+02  0.2390E+02
     10.574  0.7908E+00  0.7907E+00  0.2396E+02  0.2396E+02
     10.653  0.7159E+00  0.7150E+00  0.2402E+02  0.2402E+02
     10.731  0.6155E+00  0.6151E+00  0.2406E+02  0.2406E+02
     10.809  0.5566E+00  0.5565E+00  0.2411E+02  0.2411E+02
     10.887  0.5467E+00  0.5471E+00  0.2415E+02  0.2415E+02
     10.965  0.5828E+00  0.5826E+00  0.2420E+02  0.2420E+02
     11.043  0.5056E+00  0.5052E+00  0.2423E+02  0.2423E+02
     11.121  0.5233E+00  0.5239E+00  0.2428E+02  0.2428E+02
     11.199  0.5486E+00  0.5487E+00  0.2432E+02  0.2432E+02
     11.277  0.5646E+00  0.5653E+00  0.2436E+02  0.2436E+02
     11.355  0.6842E+00  0.6857E+00  0.2442E+02  0.2442E+02
     11.434  0.8130E+00  0.8135E+00  0.2448E+02  0.2448E+02
     11.512  0.6831E+00  0.6807E+00  0.2453E+02  0.2453E+02
     11.590  0.4576E+00  0.4563E+00  0.2457E+02  0.2457E+02
     11.668  0.3974E+00  0.3976E+00  0.2460E+02  0.2460E+02
     11.746  0.4625E+00  0.4637E+00  0.2464E+02  0.2464E+02
     11.824  0.5405E+00  0.5408E+00  0.2468E+02  0.2468E+02
     11.902  0.5773E+00  0.5777E+00  0.2472E+02  0.2472E+02
     11.980  0.6375E+00  0.6382E+00  0.2477E+02  0.2477E+02
     12.058  0.6577E+00  0.6572E+00  0.2482E+02  0.2483E+02
     12.136  0.5872E+00  0.5867E+00  0.2487E+02  0.2487E+02
     12.215  0.5578E+00  0.5578E+00  0.2491E+02  0.2491E+02
     12.293  0.5304E+00  0.5300E+00  0.2496E+02  0.2496E+02
     12.371  0.5003E+00  0.5001E+00  0.2499E+02  0.2500E+02
     12.449  0.4501E+00  0.4495E+00  0.2503E+02  0.2503E+02
     12.527  0.4365E+00  0.4368E+00  0.2506E+02  0.2506E+02
     12.605  0.4887E+00  0.4893E+00  0.2510E+02  0.2510E+02
     12.683  0.4671E+00  0.4661E+00  0.2514E+02  0.2514E+02
     12.761  0.3817E+00  0.3815E+00  0.2517E+02  0.2517E+02
     12.839  0.4501E+00  0.4516E+00  0.2520E+02  0.2520E+02
     12.918  0.5575E+00  0.5580E+00  0.2525E+02  0.2525E+02
     12.996  0.5323E+00  0.5317E+00  0.2529E+02  0.2529E+02
     13.074  0.4847E+00  0.4847E+00  0.2533E+02  0.2533E+02
     13.152  0.5299E+00  0.5305E+00  0.2537E+02  0.2537E+02
     13.230  0.5902E+00  0.5907E+00  0.2541E+02  0.2541E+02
     13.308  0.5824E+00  0.5815E+00  0.2546E+02  0.2546E+02
     13.386  0.5021E+00  0.5017E+00  0.2550E+02  0.2550E+02
     13.464  0.5954E+00  0.5977E+00  0.2555E+02  0.2555E+02
     13.542  0.7781E+00  0.7787E+00  0.2561E+02  0.2561E+02
     13.620  0.6523E+00  0.6498E+00  0.2566E+02  0.2566E+02
     13.699  0.4279E+00  0.4262E+00  0.2569E+02  0.2569E+02
     13.777  0.3478E+00  0.3477E+00  0.2572E+02  0.2572E+02
     13.855  0.3954E+00  0.3967E+00  0.2575E+02  0.2575E+02
     13.933  0.5837E+00  0.5861E+00  0.2579E+02  0.2580E+02
     14.011  0.7754E+00  0.7772E+00  0.2586E+02  0.2586E+02
     14.089  0.9141E+00  0.9152E+00  0.2593E+02  0.2593E+02
     14.167  0.9119E+00  0.9110E+00  0.2600E+02  0.2600E+02
     14.245  0.8390E+00  0.8386E+00  0.2606E+02  0.2606E+02
     14.323  0.8013E+00  0.8013E+00  0.2613E+02  0.2613E+02
     14.401  0.7907E+00  0.7905E+00  0.2619E+02  0.2619E+02
     14.480  0.7890E+00  0.7879E+00  0.2625E+02  0.2625E+02
     14.558  0.7258E+00  0.7254E+00  0.2631E+02  0.2631E+02
     14.636  0.6496E+00  0.6492E+00  0.2636E+02  0.2636E+02
     14.714  0.5843E+00  0.5839E+00  0.2640E+02  0.2640E+02
     14.792  0.5499E+00  0.5492E+00  0.2645E+02  0.2645E+02
     14.870  0.5852E+00  0.5867E+00  0.2649E+02  0.2649E+02
     14.948  0.7150E+00  0.7197E+00  0.2655E+02  0.2655E+02
     15.026  0.7073E+00  0.7136E+00  0.2660E+02  0.2660E+02
     15.104  0.6408E+00  0.6390E+00  0.2665E+02  0.2665E+02
     15.183  0.5487E+00  0.5422E+00  0.2670E+02  0.2670E+02
     15.261  0.6374E+00  0.6370E+00  0.2675E+02  0.2675E+02
     15.339  0.7976E+00  0.7974E+00  0.2681E+02  0.2681E+02
     15.417  0.8705E+00  0.8693E+00  0.2688E+02  0.2688E+02
     15.495  0.9422E+00  0.9415E+00  0.2695E+02  0.2695E+02
     15.573  0.7888E+00  0.7863E+00  0.2701E+02  0.2701E+02
     15.651  0.6366E+00  0.6379E+00  0.2706E+02  0.2706E+02
     15.729  0.6913E+00  0.6927E+00  0.2711E+02  0.2712E+02
     15.807  0.6602E+00  0.6575E+00  0.2717E+02  0.2717E+02
     15.885  0.6522E+00  0.6493E+00  0.2722E+02  0.2722E+02
     15.964  0.6562E+00  0.6568E+00  0.2727E+02  0.2727E+02
     16.042  0.6320E+00  0.6365E+00  0.2732E+02  0.2732E+02
     16.120  0.6912E+00  0.6926E+00  0.2737E+02  0.2737E+02
     16.198  0.7084E+00  0.7069E+00  0.2743E+02  0.2743E+02
     16.276  0.6989E+00  0.6957E+00  0.2748E+02  0.2748E+02
     16.354  0.5890E+00  0.5857E+00  0.2753E+02  0.2753E+02
     16.432  0.4278E+00  0.4296E+00  0.2756E+02  0.2756E+02
     16.510  0.4571E+00  0.4667E+00  0.2760E+02  0.2760E+02
     16.588  0.6554E+00  0.6857E+00  0.2765E+02  0.2765E+02
     16.667  0.7231E+00  0.7854E+00  0.2771E+02  0.2771E+02
     16.745  0.5381E+00  0.5518E+00  0.2775E+02  0.2776E+02
     16.823  0.3632E+00  0.2921E+00  0.2778E+02  0.2778E+02
     16.901  0.3400E+00  0.2921E+00  0.2780E+02  0.2780E+02
     16.979  0.3248E+00  0.3218E+00  0.2783E+02  0.2783E+02
     17.057  0.2554E+00  0.2565E+00  0.2785E+02  0.2785E+02
     17.135  0.1964E+00  0.1819E+00  0.2786E+02  0.2786E+02
     17.213  0.2428E+00  0.1909E+00  0.2788E+02  0.2788E+02
     17.291  0.3766E+00  0.2939E+00  0.2791E+02  0.2790E+02
     17.369  0.3223E+00  0.3448E+00  0.2794E+02  0.2793E+02
     17.448  0.1513E+00  0.2245E+00  0.2795E+02  0.2794E+02
     17.526  0.1147E+00  0.1343E+00  0.2796E+02  0.2795E+02
     17.604  0.1108E+00  0.1248E+00  0.2797E+02  0.2796E+02
     17.682  0.6718E-01  0.8324E-01  0.2797E+02  0.2797E+02
     17.760  0.5618E-01  0.6157E-01  0.2798E+02  0.2798E+02
     17.838  0.4867E-01  0.4999E-01  0.2798E+02  0.2798E+02
     17.916  0.3436E-01  0.3452E-01  0.2798E+02  0.2798E+02
     17.994  0.2543E-01  0.2531E-01  0.2798E+02  0.2798E+02
     18.072  0.1462E-01  0.1443E-01  0.2799E+02  0.2799E+02
     18.150  0.8979E-02  0.8849E-02  0.2799E+02  0.2799E+02
     18.229  0.2054E-01  0.2033E-01  0.2799E+02  0.2799E+02
     18.307  0.4711E-01  0.4693E-01  0.2799E+02  0.2799E+02
     18.385  0.4437E-01  0.4457E-01  0.2800E+02  0.2800E+02
     18.463  0.1721E-01  0.1739E-01  0.2800E+02  0.2800E+02
     18.541  0.4566E-02  0.4638E-02  0.2800E+02  0.2800E+02
     18.619  0.2354E-02  0.2454E-02  0.2800E+02  0.2800E+02
     18.697  0.5652E-02  0.5915E-02  0.2800E+02  0.2800E+02
     18.775  0.1218E-01  0.1235E-01  0.2800E+02  0.2800E+02
     18.853  0.1051E-01  0.1022E-01  0.2800E+02  0.2800E+02
     18.932  0.3846E-02  0.3650E-02  0.2800E+02  0.2800E+02
     19.010  0.1040E-02  0.9881E-03  0.2800E+02  0.2800E+02
     19.088  0.6785E-03  0.6786E-03  0.2800E+02  0.2800E+02
     19.166  0.1489E-02  0.1512E-02  0.2800E+02  0.2800E+02
     19.244  0.2146E-02  0.2140E-02  0.2800E+02  0.2800E+02
     19.322  0.1154E-02  0.1132E-02  0.2800E+02  0.2800E+02
     19.400  0.3264E-03  0.3177E-03  0.2800E+02  0.2800E+02
     19.478  0.7350E-04  0.7140E-04  0.2800E+02  0.2800E+02
     19.556  0.1565E-04  0.1520E-04  0.2800E+02  0.2800E+02
     19.634  0.0000E+00  0.0000E+00  0.2800E+02  0.2800E+02
     19.713  0.0000E+00  0.0000E+00  0.2800E+02  0.2800E+02
     19.791  0.0000E+00  0.0000E+00  0.2800E+02  0.2800E+02
     19.869  0.0000E+00  0.0000E+00  0.2800E+02  0.2800E+02
     19.947  0.0000E+00  0.0000E+00  0.2800E+02  0.2800E+02
     20.025  0.0000E+00  0.0000E+00  0.2800E+02  0.2800E+02
     20.103  0.0000E+00  0.0000E+00  0.2800E+02  0.2800E+02
     20.181  0.0000E+00  0.0000E+00  0.2800E+02  0.2800E+02
     20.259  0.0000E+00  0.0000E+00  0.2800E+02  0.2800E+02
     20.25927418     -3.17185946  301      6.70502972      1.00000000
     -3.172  0.0000E+00  0.0000E+00  0.0000E+00  0.0000E+00  0.0000E+00  0.0000E+00  0.0000E+00  0.0000E+00  0.0000E+00  0.0000E+00  0.0000E+00  0.0000E+00  0.0000E+00  0.0000E+00  0.0000E+00  0.0000E+00  0.0000E+00  0.0000E+00
     -3.094  0.0000E+00  0.0000E+00  0.0000E+00  0.0000E+00  0.0000E+00  0.0000E+00  0.0000E+00  0.0000E+00  0.0000E+00  0.0000E+00  0.0000E+00  0.0000E+00  0.0000E+00  0.0000E+00  0.0000E+00  0.0000E+00  0.0000E+00  0.0000E+00
     -3.016  0.0000E+00  0.0000E+00  0.0000E+00  0.0000E+00  0.0000E+00  0.0000E+00  0.0000E+00  0.0000E+00  0.0000E+00  0.0000E+00  0.0000E+00  0.0000E+00  0.0000E+00  0.0000E+00  0.0000E+00  0.0000E+00  0.0000E+00  0.0000E+00
     -2.938  0.0000E+00  0.0000E+00  0.0000E+00  0.0000E+00  0.0000E+00  0.0000E+00  0.0000E+00  0.0000E+00  0.0000E+00  0.0000E+00  0.0000E+00  0.0000E+00  0.0000E+00  0.0000E+00  0.0000E+00  0.0000E+00  0.0000E+00  0.0000E+00
     -2.859  0.0000E+00  0.0000E+00  0.0000E+00  0.0000E+00  0.0000E+00  0.0000E+00  0.0000E+00  0.0000E+00  0.0000E+00  0.0000E+00  0.0000E+00  0.0000E+00  0.0000E+00  0.0000E+00  0.0000E+00  0.0000E+00  0.0000E+00  0.0000E+00
     -2.781  0.0000E+00  0.0000E+00  0.0000E+00  0.0000E+00  0.0000E+00  0.0000E+00  0.0000E+00  0.0000E+00  0.0000E+00  0.0000E+00  0.0000E+00  0.0000E+00  0.0000E+00  0.0000E+00  0.0000E+00  0.0000E+00  0.0000E+00  0.0000E+00
     -2.703  0.0000E+00  0.0000E+00  0.0000E+00  0.0000E+00  0.0000E+00  0.0000E+00  0.0000E+00  0.0000E+00  0.0000E+00  0.0000E+00  0.0000E+00  0.0000E+00  0.0000E+00  0.0000E+00  0.0000E+00  0.0000E+00  0.0000E+00  0.0000E+00
     -2.625  0.0000E+00  0.0000E+00  0.0000E+00  0.0000E+00  0.0000E+00  0.0000E+00  0.0000E+00  0.0000E+00  0.0000E+00  0.0000E+00  0.0000E+00  0.0000E+00  0.0000E+00  0.0000E+00  0.0000E+00  0.0000E+00  0.0000E+00  0.0000E+00
     -2.547  0.1152E-06  0.1188E-06  0.3753E-21  0.1717E-19  0.3753E-21  0.1717E-19  0.3753E-21  0.1717E-19  0.7683E-16  0.9111E-16  0.7683E-16  0.9111E-16  0.4317E-16  0.3920E-16  0.7683E-16  0.9111E-16  0.4317E-16  0.3920E-16
     -2.469  0.1271E-05  0.1311E-05  0.1654E-08  0.1706E-08  0.1654E-08  0.1706E-08  0.1654E-08  0.1706E-08  0.2901E-15  0.3432E-15  0.2901E-15  0.3432E-15  0.1288E-10  0.1330E-10  0.2901E-15  0.3432E-15  0.1288E-10  0.1330E-10
     -2.391  0.7255E-05  0.7483E-05  0.1429E-07  0.1474E-07  0.1429E-07  0.1474E-07  0.1429E-07  0.1474E-07  0.8130E-10  0.8404E-10  0.8130E-10  0.8404E-10  0.7979E-10  0.8237E-10  0.8130E-10  0.8404E-10  0.7979E-10  0.8237E-10
     -2.313  0.3401E-04  0.3540E-04  0.6980E-07  0.7462E-07  0.6980E-07  0.7462E-07  0.6980E-07  0.7462E-07  0.5128E-09  0.5284E-09  0.5128E-09  0.5284E-09  0.3482E-09  0.4453E-09  0.5128E-09  0.5284E-09  0.3482E-09  0.4453E-09
     -2.235  0.1591E-03  0.1636E-03  0.3476E-06  0.3557E-06  0.3476E-06  0.3557E-06  0.3476E-06  0.3557E-06  0.2493E-08  0.2572E-08  0.2493E-08  0.2572E-08  0.2375E-08  0.2363E-08  0.2493E-08  0.2572E-08  0.2375E-08  0.2363E-08
     -2.157  0.6746E-03  0.6930E-03  0.1584E-05  0.1631E-05  0.1584E-05  0.1631E-05  0.1584E-05  0.1631E-05  0.1223E-07  0.1260E-07  0.1223E-07  0.1260E-07  0.1041E-07  0.1072E-07  0.1223E-07  0.1260E-07  0.1041E-07  0.1072E-07
     -2.078  0.2264E-02  0.2311E-02  0.6352E-05  0.6513E-05  0.6352E-05  0.6513E-05  0.6352E-05  0.6513E-05  0.5393E-07  0.5548E-07  0.5393E-07  0.5548E-07  0.4153E-07  0.4259E-07  0.5393E-07  0.5548E-07  0.4153E-07  0.4259E-07
     -2.000  0.5164E-02  0.5226E-02  0.1888E-04  0.1922E-04  0.1888E-04  0.1922E-04  0.1888E-04  0.1922E-04  0.2021E-06  0.2067E-06  0.2021E-06  0.2067E-06  0.1299E-06  0.1325E-06  0.2021E-06  0.2067E-06  0.1299E-06  0.1325E-06
     -1.922  0.7658E-02  0.7691E-02  0.3843E-04  0.3886E-04  0.3843E-04  0.3886E-04  0.3843E-04  0.3886E-04  0.5274E-06  0.5352E-06  0.5274E-06  0.5352E-06  0.3646E-06  0.3721E-06  0.5274E-06  0.5352E-06  0.3646E-06  0.3721E-06
     -1.844  0.9165E-02  0.9207E-02  0.6687E-04  0.6766E-04  0.6687E-04  0.6766E-04  0.6687E-04  0.6766E-04  0.1096E-05  0.1113E-05  0.1096E-05  0.1113E-05  0.1059E-05  0.1080E-05  0.1096E-05  0.1113E-05  0.1059E-05  0.1080E-05
     -1.766  0.1249E-01  0.1257E-01  0.1201E-03  0.1213E-03  0.1201E-03  0.1213E-03  0.1201E-03  0.1213E-03  0.2474E-05  0.2516E-05  0.2474E-05  0.2516E-05  0.2257E-05  0.2282E-05  0.2474E-05  0.2516E-05  0.2257E-05  0.2282E-05
     -1.688  0.1463E-01  0.1462E-01  0.1626E-03  0.1629E-03  0.1626E-03  0.1629E-03  0.1626E-03  0.1629E-03  0.4379E-05  0.4412E-05  0.4379E-05  0.4412E-05  0.2905E-05  0.2910E-05  0.4379E-05  0.4412E-05  0.2905E-05  0.2910E-05
     -1.610  0.1237E-01  0.1233E-01  0.1644E-03  0.1647E-03  0.1644E-03  0.1647E-03  0.1644E-03  0.1647E-03  0.5793E-05  0.5827E-05  0.5793E-05  0.5827E-05  0.3309E-05  0.3332E-05  0.5793E-05  0.5827E-05  0.3309E-05  0.3332E-05
     -1.532  0.1379E-01  0.1388E-01  0.2304E-03  0.2327E-03  0.2304E-03  0.2327E-03  0.2304E-03  0.2327E-03  0.9558E-05  0.9644E-05  0.9558E-05  0.9644E-05  0.6560E-05  0.6658E-05  0.9558E-05  0.9644E-05  0.6560E-05  0.6658E-05
     -1.454  0.1857E-01  0.1863E-01  0.3489E-03  0.3508E-03  0.3489E-03  0.3508E-03  0.3489E-03  0.3508E-03  0.1413E-04  0.1417E-04  0.1413E-04  0.1417E-04  0.1363E-04  0.1377E-04  0.1413E-04  0.1417E-04  0.1363E-04  0.1377E-04
     -1.375  0.1951E-01  0.1948E-01  0.4024E-03  0.4026E-03  0.4024E-03  0.4026E-03  0.4024E-03  0.4026E-03  0.1688E-04  0.1694E-04  0.1688E-04  0.1694E-04  0.1896E-04  0.1898E-04  0.1688E-04  0.1694E-04  0.1896E-04  0.1898E-04
     -1.297  0.1783E-01  0.1781E-01  0.4112E-03  0.4118E-03  0.4112E-03  0.4118E-03  0.4112E-03  0.4118E-03  0.2335E-04  0.2352E-04  0.2335E-04  0.2352E-04  0.1792E-04  0.1788E-04  0.2335E-04  0.2352E-04  0.1792E-04  0.1788E-04
     -1.219  0.1936E-01  0.1943E-01  0.5021E-03  0.5049E-03  0.5021E-03  0.5049E-03  0.5021E-03  0.5049E-03  0.3694E-04  0.3720E-04  0.3694E-04  0.3720E-04  0.1969E-04  0.1976E-04  0.3694E-04  0.3720E-04  0.1969E-04  0.1976E-04
     -1.141  0.2118E-01  0.2114E-01  0.5890E-03  0.5886E-03  0.5890E-03  0.5886E-03  0.5890E-03  0.5886E-03  0.4739E-04  0.4732E-04  0.4739E-04  0.4732E-04  0.2493E-04  0.2499E-04  0.4739E-04  0.4732E-04  0.2493E-04  0.2499E-04
     -1.063  0.1717E-01  0.1712E-01  0.5206E-03  0.5204E-03  0.5206E-03  0.5204E-03  0.5206E-03  0.5204E-03  0.4143E-04  0.4132E-04  0.4143E-04  0.4132E-04  0.3249E-04  0.3278E-04  0.4143E-04  0.4132E-04  0.3249E-04  0.3278E-04
     -0.985  0.2015E-01  0.2030E-01  0.6868E-03  0.6929E-03  0.6868E-03  0.6929E-03  0.6868E-03  0.6929E-03  0.5506E-04  0.5557E-04  0.5506E-04  0.5557E-04  0.5931E-04  0.5993E-04  0.5506E-04  0.5557E-04  0.5931E-04  0.5993E-04
     -0.907  0.2656E-01  0.2662E-01  0.9574E-03  0.9603E-03  0.9574E-03  0.9603E-03  0.9574E-03  0.9603E-03  0.8327E-04  0.8365E-04  0.8327E-04  0.8365E-04  0.8496E-04  0.8512E-04  0.8327E-04  0.8365E-04  0.8496E-04  0.8512E-04
     -0.829  0.2630E-01  0.2627E-01  0.1003E-02  0.1003E-02  0.1003E-02  0.1003E-02  0.1003E-02  0.1003E-02  0.1011E-03  0.1014E-03  0.1011E-03  0.1014E-03  0.8518E-04  0.8508E-04  0.1011E-03  0.1014E-03  0.8518E-04  0.8508E-04
     -0.751  0.2589E-01  0.2591E-01  0.1056E-02  0.1058E-02  0.1056E-02  0.1058E-02  0.1056E-02  0.1058E-02  0.1228E-03  0.1232E-03  0.1228E-03  0.1232E-03  0.9157E-04  0.9171E-04  0.1228E-03  0.1232E-03  0.9157E-04  0.9171E-04
     -0.673  0.2529E-01  0.2521E-01  0.1082E-02  0.1080E-02  0.1082E-02  0.1080E-02  0.1082E-02  0.1080E-02  0.1491E-03  0.1490E-03  0.1491E-03  0.1490E-03  0.8884E-04  0.8834E-04  0.1491E-03  0.1490E-03  0.8884E-04  0.8834E-04
     -0.594  0.1935E-01  0.1925E-01  0.8731E-03  0.8699E-03  0.8731E-03  0.8699E-03  0.8731E-03  0.8699E-03  0.1429E-03  0.1424E-03  0.1429E-03  0.1424E-03  0.6771E-04  0.6755E-04  0.1429E-03  0.1424E-03  0.6771E-04  0.6755E-04
     -0.516  0.1946E-01  0.1958E-01  0.9632E-03  0.9704E-03  0.9632E-03  0.9704E-03  0.9632E-03  0.9704E-03  0.1607E-03  0.1614E-03  0.1607E-03  0.1614E-03  0.1018E-03  0.1031E-03  0.1607E-03  0.1614E-03  0.1018E-03  0.1031E-03
     -0.438  0.2839E-01  0.2858E-01  0.1491E-02  0.1502E-02  0.1491E-02  0.1502E-02  0.1491E-02  0.1502E-02  0.2317E-03  0.2327E-03  0.2317E-03  0.2327E-03  0.2065E-03  0.2086E-03  0.2317E-03  0.2327E-03  0.2065E-03  0.2086E-03
     -0.360  0.3387E-01  0.3385E-01  0.1839E-02  0.1840E-02  0.1839E-02  0.1840E-02  0.1839E-02  0.1840E-02  0.2845E-03  0.2843E-03  0.2845E-03  0.2843E-03  0.2938E-03  0.2942E-03  0.2845E-03  0.2843E-03  0.2938E-03  0.2942E-03
     -0.282  0.3024E-01  0.3019E-01  0.1713E-02  0.1712E-02  0.1713E-02  0.1712E-02  0.1713E-02  0.1712E-02  0.3039E-03  0.3044E-03  0.3039E-03  0.3044E-03  0.2849E-03  0.2845E-03  0.3039E-03  0.3044E-03  0.2849E-03  0.2845E-03
     -0.204  0.3136E-01  0.3140E-01  0.1866E-02  0.1870E-02  0.1866E-02  0.1870E-02  0.1866E-02  0.1870E-02  0.3830E-03  0.3833E-03  0.3830E-03  0.3833E-03  0.3086E-03  0.3093E-03  0.3830E-03  0.3833E-03  0.3086E-03  0.3093E-03
     -0.126  0.2830E-01  0.2816E-01  0.1747E-02  0.1740E-02  0.1747E-02  0.1740E-02  0.1747E-02  0.1740E-02  0.3582E-03  0.3563E-03  0.3582E-03  0.3563E-03  0.3156E-03  0.3141E-03  0.3582E-03  0.3563E-03  0.3156E-03  0.3141E-03
     -0.048  0.2235E-01  0.2235E-01  0.1457E-02  0.1459E-02  0.1457E-02  0.1459E-02  0.1457E-02  0.1459E-02  0.3605E-03  0.3623E-03  0.3605E-03  0.3623E-03  0.2415E-03  0.2404E-03  0.3605E-03  0.3623E-03  0.2415E-03  0.2404E-03
      0.030  0.2782E-01  0.2798E-01  0.1908E-02  0.1921E-02  0.1908E-02  0.1921E-02  0.1908E-02  0.1921E-02  0.5848E-03  0.5887E-03  0.5848E-03  0.5887E-03  0.2774E-03  0.2788E-03  0.5848E-03  0.5887E-03  0.2774E-03  0.2788E-03
      0.108  0.3370E-01  0.3374E-01  0.2386E-02  0.2391E-02  0.2386E-02  0.2391E-02  0.2386E-02  0.2391E-02  0.7598E-03  0.7597E-03  0.7598E-03  0.7597E-03  0.3935E-03  0.3953E-03  0.7598E-03  0.7597E-03  0.3935E-03  0.3953E-03
      0.187  0.3287E-01  0.3283E-01  0.2416E-02  0.2414E-02  0.2416E-02  0.2414E-02  0.2416E-02  0.2414E-02  0.7383E-03  0.7354E-03  0.7383E-03  0.7354E-03  0.5428E-03  0.5452E-03  0.7383E-03  0.7354E-03  0.5428E-03  0.5452E-03
      0.265  0.3101E-01  0.3101E-01  0.2382E-02  0.2384E-02  0.2382E-02  0.2384E-02  0.2382E-02  0.2384E-02  0.6779E-03  0.6767E-03  0.6779E-03  0.6767E-03  0.7543E-03  0.7569E-03  0.6779E-03  0.6767E-03  0.7543E-03  0.7569E-03
      0.343  0.3056E-01  0.3053E-01  0.2440E-02  0.2439E-02  0.2440E-02  0.2439E-02  0.2440E-02  0.2439E-02  0.7292E-03  0.7293E-03  0.7292E-03  0.7293E-03  0.8641E-03  0.8627E-03  0.7292E-03  0.7293E-03  0.8641E-03  0.8627E-03
      0.421  0.3168E-01  0.3179E-01  0.2645E-02  0.2657E-02  0.2645E-02  0.2657E-02  0.2645E-02  0.2657E-02  0.9260E-03  0.9311E-03  0.9260E-03  0.9311E-03  0.9191E-03  0.9207E-03  0.9260E-03  0.9311E-03  0.9191E-03  0.9207E-03
      0.499  0.3973E-01  0.3982E-01  0.3428E-02  0.3437E-02  0.3428E-02  0.3437E-02  0.3428E-02  0.3437E-02  0.1361E-02  0.1366E-02  0.1361E-02  0.1366E-02  0.1086E-02  0.1085E-02  0.1361E-02  0.1366E-02  0.1086E-02  0.1085E-02
      0.577  0.3816E-01  0.3804E-01  0.3362E-02  0.3353E-02  0.3362E-02  0.3353E-02  0.3362E-02  0.3353E-02  0.1548E-02  0.1546E-02  0.1548E-02  0.1546E-02  0.9420E-03  0.9368E-03  0.1548E-02  0.1546E-02  0.9420E-03  0.9368E-03
      0.655  0.3351E-01  0.3349E-01  0.3052E-02  0.3052E-02  0.3052E-02  0.3052E-02  0.3052E-02  0.3052E-02  0.1583E-02  0.1583E-02  0.1583E-02  0.1583E-02  0.8954E-03  0.8965E-03  0.1583E-02  0.1583E-02  0.8954E-03  0.8965E-03
      0.733  0.3298E-01  0.3293E-01  0.3110E-02  0.3108E-02  0.3110E-02  0.3108E-02  0.3110E-02  0.3108E-02  0.1678E-02  0.1675E-02  0.1678E-02  0.1675E-02  0.1062E-02  0.1063E-02  0.1678E-02  0.1675E-02  0.1062E-02  0.1063E-02