   4   4   1   0
  0.1554428E+02  0.3961657E-09  0.3961657E-09  0.3961657E-09  0.5000000E-15
  1.000000000000000E-004
  CAR 
 unknown system                          
     16.67992356     -3.75347145  301      4.65939941      1.00000000
     -3.753  0.0000E+00  0.0000E+00  0.0000E+00  0.0000E+00
     -3.685  0.0000E+00  0.0000E+00  0.0000E+00  0.0000E+00
     -3.617  0.0000E+00  0.0000E+00  0.0000E+00  0.0000E+00
     -3.549  0.0000E+00  0.0000E+00  0.0000E+00  0.0000E+00
     -3.481  0.0000E+00  0.0000E+00  0.0000E+00  0.0000E+00
     -3.413  0.0000E+00  0.0000E+00  0.0000E+00  0.0000E+00
     -3.345  0.0000E+00  0.0000E+00  0.0000E+00  0.0000E+00
     -3.277  0.7862E-06  0.7921E-06  0.5355E-07  0.5395E-07
     -3.209  0.7918E-05  0.7976E-05  0.5928E-06  0.5972E-06
     -3.140  0.3876E-04  0.3905E-04  0.3233E-05  0.3257E-05
     -3.072  0.1483E-03  0.1494E-03  0.1333E-04  0.1343E-04
     -3.004  0.5724E-03  0.5766E-03  0.5232E-04  0.5271E-04
     -2.936  0.2207E-02  0.2222E-02  0.2026E-03  0.2041E-03
     -2.868  0.7579E-02  0.7627E-02  0.7188E-03  0.7236E-03
     -2.800  0.2149E-01  0.2159E-01  0.2182E-02  0.2194E-02
     -2.732  0.4436E-01  0.4449E-01  0.5204E-02  0.5225E-02
     -2.664  0.6513E-01  0.6522E-01  0.9640E-02  0.9667E-02
     -2.596  0.8159E-01  0.8170E-01  0.1520E-01  0.1523E-01
     -2.527  0.1076E+00  0.1077E+00  0.2253E-01  0.2257E-01
     -2.459  0.1226E+00  0.1226E+00  0.3088E-01  0.3092E-01
     -2.391  0.1130E+00  0.1130E+00  0.3858E-01  0.3862E-01
     -2.323  0.1274E+00  0.1276E+00  0.4726E-01  0.4731E-01
     -2.255  0.1618E+00  0.1619E+00  0.5828E-01  0.5834E-01
     -2.187  0.1715E+00  0.1714E+00  0.6996E-01  0.7002E-01
     -2.119  0.1645E+00  0.1645E+00  0.8118E-01  0.8124E-01
     -2.051  0.1770E+00  0.1771E+00  0.9325E-01  0.9332E-01
     -1.983  0.1873E+00  0.1873E+00  0.1060E+00  0.1061E+00
     -1.914  0.1670E+00  0.1669E+00  0.1174E+00  0.1174E+00
     -1.846  0.1928E+00  0.1931E+00  0.1305E+00  0.1306E+00
     -1.778  0.2411E+00  0.2413E+00  0.1470E+00  0.1471E+00
     -1.710  0.2469E+00  0.2469E+00  0.1638E+00  0.1639E+00
     -1.642  0.2451E+00  0.2451E+00  0.1805E+00  0.1806E+00
     -1.574  0.2364E+00  0.2362E+00  0.1966E+00  0.1967E+00
     -1.506  0.1961E+00  0.1960E+00  0.2100E+00  0.2100E+00
     -1.438  0.1998E+00  0.2001E+00  0.2236E+00  0.2237E+00
     -1.370  0.2716E+00  0.2720E+00  0.2421E+00  0.2422E+00
     -1.301  0.3230E+00  0.3231E+00  0.2641E+00  0.2642E+00
     -1.233  0.3076E+00  0.3075E+00  0.2851E+00  0.2852E+00
     -1.165  0.3108E+00  0.3108E+00  0.3063E+00  0.3064E+00
     -1.097  0.2920E+00  0.2917E+00  0.3261E+00  0.3262E+00
     -1.029  0.2462E+00  0.2461E+00  0.3429E+00  0.3430E+00
     -0.961  0.2812E+00  0.2816E+00  0.3621E+00  0.3622E+00
     -0.893  0.3403E+00  0.3405E+00  0.3853E+00  0.3854E+00
     -0.825  0.3478E+00  0.3478E+00  0.4090E+00  0.4091E+00
     -0.757  0.3342E+00  0.3341E+00  0.4318E+00  0.4319E+00
     -0.688  0.3364E+00  0.3364E+00  0.4547E+00  0.4548E+00
     -0.620  0.3476E+00  0.3478E+00  0.4784E+00  0.4785E+00
     -0.552  0.4179E+00  0.4183E+00  0.5069E+00  0.5070E+00
     -0.484  0.4397E+00  0.4395E+00  0.5368E+00  0.5370E+00
     -0.416  0.3952E+00  0.3950E+00  0.5638E+00  0.5639E+00
     -0.348  0.3850E+00  0.3849E+00  0.5900E+00  0.5901E+00
     -0.280  0.3622E+00  0.3620E+00  0.6147E+00  0.6148E+00
     -0.212  0.3684E+00  0.3686E+00  0.6398E+00  0.6399E+00
     -0.144  0.4410E+00  0.4413E+00  0.6699E+00  0.6700E+00
     -0.075  0.4866E+00  0.4867E+00  0.7030E+00  0.7032E+00
     -0.007  0.5572E+00  0.5575E+00  0.7410E+00  0.7412E+00
      0.061  0.6078E+00  0.6076E+00  0.7824E+00  0.7826E+00
      0.129  0.5361E+00  0.5357E+00  0.8189E+00  0.8191E+00
      0.197  0.4741E+00  0.4740E+00  0.8512E+00  0.8513E+00
      0.265  0.5027E+00  0.5027E+00  0.8855E+00  0.8856E+00
      0.333  0.5715E+00  0.5716E+00  0.9245E+00  0.9246E+00
      0.401  0.6697E+00  0.6698E+00  0.9701E+00  0.9702E+00
      0.469  0.7499E+00  0.7499E+00  0.1021E+01  0.1021E+01
      0.538  0.8218E+00  0.8217E+00  0.1077E+01  0.1077E+01
      0.606  0.8364E+00  0.8360E+00  0.1134E+01  0.1134E+01
      0.674  0.8124E+00  0.8120E+00  0.1190E+01  0.1190E+01
      0.742  0.9502E+00  0.9499E+00  0.1254E+01  0.1254E+01
      0.810  0.1285E+01  0.1284E+01  0.1342E+01  0.1342E+01
      0.878  0.1534E+01  0.1533E+01  0.1446E+01  0.1446E+01
      0.946  0.1624E+01  0.1623E+01  0.1557E+01  0.1557E+01
      1.014  0.1879E+01  0.1877E+01  0.1685E+01  0.1685E+01
      1.082  0.2276E+01  0.2274E+01  0.1840E+01  0.1840E+01
      1.151  0.2665E+01  0.2662E+01  0.2022E+01  0.2021E+01
      1.219  0.2960E+01  0.2957E+01  0.2223E+01  0.2222E+01
      1.287  0.3241E+01  0.3239E+01  0.2444E+01  0.2443E+01
      1.355  0.3534E+01  0.3531E+01  0.2685E+01  0.2684E+01
      1.423  0.4021E+01  0.4015E+01  0.2959E+01  0.2957E+01
      1.491  0.4806E+01  0.4800E+01  0.3286E+01  0.3284E+01
      1.559  0.5558E+01  0.5552E+01  0.3665E+01  0.3663E+01
      1.627  0.6139E+01  0.6135E+01  0.4083E+01  0.4081E+01
      1.695  0.6320E+01  0.6320E+01  0.4514E+01  0.4511E+01
      1.764  0.6257E+01  0.6256E+01  0.4940E+01  0.4938E+01
      1.832  0.6293E+01  0.6292E+01  0.5369E+01  0.5366E+01
      1.900  0.6449E+01  0.6446E+01  0.5809E+01  0.5806E+01
      1.968  0.6806E+01  0.6801E+01  0.6272E+01  0.6269E+01
      2.036  0.7512E+01  0.7504E+01  0.6784E+01  0.6780E+01
      2.104  0.8539E+01  0.8531E+01  0.7366E+01  0.7362E+01
      2.172  0.9444E+01  0.9437E+01  0.8010E+01  0.8005E+01
      2.240  0.1032E+02  0.1031E+02  0.8713E+01  0.8708E+01
      2.308  0.1145E+02  0.1144E+02  0.9494E+01  0.9487E+01
      2.377  0.1236E+02  0.1235E+02  0.1034E+02  0.1033E+02
      2.445  0.1245E+02  0.1245E+02  0.1118E+02  0.1118E+02
      2.513  0.1127E+02  0.1128E+02  0.1195E+02  0.1195E+02
      2.581  0.9749E+01  0.9758E+01  0.1262E+02  0.1261E+02
      2.649  0.9050E+01  0.9049E+01  0.1323E+02  0.1323E+02
      2.717  0.9442E+01  0.9433E+01  0.1388E+02  0.1387E+02
      2.785  0.1042E+02  0.1041E+02  0.1459E+02  0.1458E+02
      2.853  0.1097E+02  0.1097E+02  0.1534E+02  0.1533E+02
      2.921  0.1084E+02  0.1084E+02  0.1607E+02  0.1607E+02
      2.990  0.1064E+02  0.1064E+02  0.1680E+02  0.1679E+02
      3.058  0.1091E+02  0.1091E+02  0.1754E+02  0.1754E+02
      3.126  0.1200E+02  0.1199E+02  0.1836E+02  0.1835E+02
      3.194  0.1324E+02  0.1323E+02  0.1926E+02  0.1925E+02
      3.262  0.1200E+02  0.1202E+02  0.2008E+02  0.2007E+02
      3.330  0.7871E+01  0.7914E+01  0.2062E+02  0.2061E+02
      3.398  0.4035E+01  0.4064E+01  0.2089E+02  0.2089E+02
      3.466  0.1984E+01  0.1996E+01  0.2103E+02  0.2103E+02
      3.534  0.1254E+01  0.1257E+01  0.2111E+02  0.2111E+02
      3.603  0.1081E+01  0.1082E+01  0.2119E+02  0.2119E+02
      3.671  0.9017E+00  0.9036E+00  0.2125E+02  0.2125E+02
      3.739  0.7504E+00  0.7513E+00  0.2130E+02  0.2130E+02
      3.807  0.8168E+00  0.8163E+00  0.2136E+02  0.2136E+02
      3.875  0.9710E+00  0.9705E+00  0.2142E+02  0.2142E+02
      3.943  0.9398E+00  0.9408E+00  0.2149E+02  0.2149E+02
      4.011  0.7569E+00  0.7582E+00  0.2154E+02  0.2154E+02
      4.079  0.6217E+00  0.6225E+00  0.2158E+02  0.2158E+02
      4.147  0.6178E+00  0.6177E+00  0.2162E+02  0.2162E+02
      4.216  0.7087E+00  0.7082E+00  0.2167E+02  0.2167E+02
      4.284  0.8536E+00  0.8534E+00  0.2173E+02  0.2173E+02
      4.352  0.9414E+00  0.9420E+00  0.2179E+02  0.2179E+02
      4.420  0.8530E+00  0.8540E+00  0.2185E+02  0.2185E+02
      4.488  0.7013E+00  0.7015E+00  0.2190E+02  0.2190E+02
      4.556  0.6303E+00  0.6302E+00  0.2194E+02  0.2194E+02
      4.624  0.5595E+00  0.5596E+00  0.2198E+02  0.2198E+02
      4.692  0.5248E+00  0.5248E+00  0.2202E+02  0.2202E+02
      4.760  0.6108E+00  0.6107E+00  0.2206E+02  0.2206E+02
      4.829  0.7650E+00  0.7650E+00  0.2211E+02  0.2211E+02
      4.897  0.8590E+00  0.8593E+00  0.2217E+02  0.2217E+02
      4.965  0.8325E+00  0.8330E+00  0.2223E+02  0.2223E+02
      5.033  0.7798E+00  0.7802E+00  0.2228E+02  0.2228E+02
      5.101  0.6832E+00  0.6832E+00  0.2233E+02  0.2233E+02
      5.169  0.5491E+00  0.5489E+00  0.2236E+02  0.2236E+02
      5.237  0.4086E+00  0.4086E+00  0.2239E+02  0.2239E+02
      5.305  0.3869E+00  0.3870E+00  0.2242E+02  0.2242E+02
      5.373  0.5753E+00  0.5755E+00  0.2246E+02  0.2246E+02
      5.442  0.8017E+00  0.8020E+00  0.2251E+02  0.2251E+02
      5.510  0.8790E+00  0.8790E+00  0.2257E+02  0.2257E+02
      5.578  0.7942E+00  0.7940E+00  0.2263E+02  0.2263E+02
      5.646  0.6131E+00  0.6131E+00  0.2267E+02  0.2267E+02
      5.714  0.4792E+00  0.4794E+00  0.2270E+02  0.2270E+02
      5.782  0.5024E+00  0.5028E+00  0.2273E+02  0.2273E+02
      5.850  0.6115E+00  0.6117E+00  0.2278E+02  0.2278E+02
      5.918  0.5842E+00  0.5840E+00  0.2282E+02  0.2282E+02
      5.986  0.4478E+00  0.4477E+00  0.2285E+02  0.2285E+02
      6.055  0.4054E+00  0.4055E+00  0.2287E+02  0.2287E+02
      6.123  0.5179E+00  0.5180E+00  0.2291E+02  0.2291E+02
      6.191  0.6072E+00  0.6072E+00  0.2295E+02  0.2295E+02
      6.259  0.6581E+00  0.6583E+00  0.2300E+02  0.2300E+02
      6.327  0.7374E+00  0.7378E+00  0.2305E+02  0.2305E+02
      6.395  0.7291E+00  0.7292E+00  0.2310E+02  0.2310E+02
      6.463  0.6544E+00  0.6542E+00  0.2314E+02  0.2314E+02
      6.531  0.5474E+00  0.5469E+00  0.2318E+02  0.2318E+02
      6.599  0.4546E+00  0.4544E+00  0.2321E+02  0.2321E+02
      6.668  0.4038E+00  0.4038E+00  0.2324E+02  0.2324E+02
      6.736  0.3861E+00  0.3863E+00  0.2326E+02  0.2326E+02
      6.804  0.3870E+00  0.3872E+00  0.2329E+02  0.2329E+02
      6.872  0.4369E+00  0.4371E+00  0.2332E+02  0.2332E+02
      6.940  0.5404E+00  0.5403E+00  0.2336E+02  0.2336E+02
      7.008  0.5781E+00  0.5778E+00  0.2340E+02  0.2340E+02
      7.076  0.5252E+00  0.5250E+00  0.2343E+02  0.2343E+02
      7.144  0.4875E+00  0.4876E+00  0.2346E+02  0.2346E+02
      7.212  0.5518E+00  0.5518E+00  0.2350E+02  0.2350E+02
      7.281  0.6378E+00  0.6377E+00  0.2355E+02  0.2355E+02
      7.349  0.6816E+00  0.6816E+00  0.2359E+02  0.2359E+02
      7.417  0.6707E+00  0.6707E+00  0.2364E+02  0.2364E+02
      7.485  0.6135E+00  0.6131E+00  0.2368E+02  0.2368E+02
      7.553  0.5642E+00  0.5641E+00  0.2372E+02  0.2372E+02
      7.621  0.5883E+00  0.5885E+00  0.2376E+02  0.2376E+02
      7.689  0.6670E+00  0.6672E+00  0.2380E+02  0.2380E+02
      7.757  0.7088E+00  0.7086E+00  0.2385E+02  0.2385E+02
      7.825  0.6743E+00  0.6740E+00  0.2390E+02  0.2390E+02
      7.894  0.6250E+00  0.6252E+00  0.2394E+02  0.2394E+02
      7.962  0.6467E+00  0.6472E+00  0.2398E+02  0.2398E+02
      8.030  0.7538E+00  0.7543E+00  0.2404E+02  0.2404E+02
      8.098  0.8102E+00  0.8100E+00  0.2409E+02  0.2409E+02
      8.166  0.7134E+00  0.7129E+00  0.2414E+02  0.2414E+02
      8.234  0.6389E+00  0.6389E+00  0.2418E+02  0.2418E+02
      8.302  0.7614E+00  0.7617E+00  0.2423E+02  0.2423E+02
      8.370  0.7613E+00  0.7610E+00  0.2429E+02  0.2429E+02
      8.438  0.5554E+00  0.5550E+00  0.2432E+02  0.2432E+02
      8.507  0.4352E+00  0.4351E+00  0.2435E+02  0.2435E+02
      8.575  0.5405E+00  0.5408E+00  0.2439E+02  0.2439E+02
      8.643  0.7209E+00  0.7214E+00  0.2444E+02  0.2444E+02
      8.711  0.7425E+00  0.7428E+00  0.2449E+02  0.2449E+02
      8.779  0.6519E+00  0.6518E+00  0.2454E+02  0.2454E+02
      8.847  0.5271E+00  0.5267E+00  0.2457E+02  0.2457E+02
      8.915  0.4789E+00  0.4788E+00  0.2460E+02  0.2460E+02
      8.983  0.5713E+00  0.5715E+00  0.2464E+02  0.2464E+02
      9.051  0.6707E+00  0.6708E+00  0.2469E+02  0.2469E+02
      9.120  0.7049E+00  0.7049E+00  0.2474E+02  0.2474E+02
      9.188  0.7294E+00  0.7294E+00  0.2479E+02  0.2479E+02
      9.256  0.6318E+00  0.6315E+00  0.2483E+02  0.2483E+02
      9.324  0.5392E+00  0.5393E+00  0.2487E+02  0.2487E+02
      9.392  0.5892E+00  0.5894E+00  0.2491E+02  0.2491E+02
      9.460  0.5947E+00  0.5946E+00  0.2495E+02  0.2495E+02
      9.528  0.5681E+00  0.5682E+00  0.2499E+02  0.2499E+02
      9.596  0.5300E+00  0.5299E+00  0.2502E+02  0.2502E+02
      9.664  0.4422E+00  0.4420E+00  0.2505E+02  0.2505E+02
      9.733  0.4529E+00  0.4531E+00  0.2508E+02  0.2508E+02
      9.801  0.5542E+00  0.5544E+00  0.2512E+02  0.2512E+02
      9.869  0.5984E+00  0.5984E+00  0.2516E+02  0.2516E+02
      9.937  0.5995E+00  0.5994E+00  0.2520E+02  0.2520E+02
     10.005  0.5773E+00  0.5771E+00  0.2524E+02  0.2524E+02
     10.073  0.6243E+00  0.6244E+00  0.2528E+02  0.2528E+02
     10.141  0.7542E+00  0.7544E+00  0.2534E+02  0.2534E+02
     10.209  0.7438E+00  0.7436E+00  0.2539E+02  0.2539E+02
     10.277  0.6369E+00  0.6367E+00  0.2543E+02  0.2543E+02
     10.346  0.6127E+00  0.6128E+00  0.2547E+02  0.2547E+02
     10.414  0.6381E+00  0.6383E+00  0.2551E+02  0.2551E+02
     10.482  0.7012E+00  0.7014E+00  0.2556E+02  0.2556E+02
     10.550  0.7703E+00  0.7703E+00  0.2561E+02  0.2562E+02
     10.618  0.7958E+00  0.7958E+00  0.2567E+02  0.2567E+02
     10.686  0.8199E+00  0.8197E+00  0.2573E+02  0.2573E+02
     10.754  0.7498E+00  0.7493E+00  0.2578E+02  0.2578E+02
     10.822  0.6585E+00  0.6582E+00  0.2582E+02  0.2582E+02
     10.890  0.6822E+00  0.6824E+00  0.2587E+02  0.2587E+02
     10.959  0.8381E+00  0.8385E+00  0.2592E+02  0.2592E+02
     11.027  0.8862E+00  0.8864E+00  0.2599E+02  0.2599E+02
     11.095  0.8392E+00  0.8392E+00  0.2604E+02  0.2604E+02
     11.163  0.7993E+00  0.7990E+00  0.2610E+02  0.2610E+02
     11.231  0.7227E+00  0.7228E+00  0.2615E+02  0.2615E+02
     11.299  0.7642E+00  0.7649E+00  0.2620E+02  0.2620E+02
     11.367  0.8560E+00  0.8561E+00  0.2626E+02  0.2626E+02
     11.435  0.8284E+00  0.8282E+00  0.2631E+02  0.2631E+02
     11.503  0.7723E+00  0.7722E+00  0.2637E+02  0.2637E+02
     11.572  0.7880E+00  0.7878E+00  0.2642E+02  0.2642E+02
     11.640  0.8376E+00  0.8375E+00  0.2648E+02  0.2648E+02
     11.708  0.7533E+00  0.7531E+00  0.2653E+02  0.2653E+02
     11.776  0.6251E+00  0.6249E+00  0.2657E+02  0.2657E+02
     11.844  0.6370E+00  0.6370E+00  0.2661E+02  0.2661E+02
     11.912  0.7119E+00  0.7120E+00  0.2666E+02  0.2666E+02
     11.980  0.7618E+00  0.7618E+00  0.2671E+02  0.2671E+02
     12.048  0.8234E+00  0.8238E+00  0.2677E+02  0.2677E+02
     12.116  0.8974E+00  0.8995E+00  0.2683E+02  0.2683E+02
     12.185  0.8410E+00  0.8442E+00  0.2689E+02  0.2689E+02
     12.253  0.8109E+00  0.8112E+00  0.2694E+02  0.2694E+02
     12.321  0.9038E+00  0.9027E+00  0.2701E+02  0.2701E+02
     12.389  0.8543E+00  0.8562E+00  0.2706E+02  0.2706E+02
     12.457  0.7069E+00  0.7109E+00  0.2711E+02  0.2711E+02
     12.525  0.6292E+00  0.6433E+00  0.2715E+02  0.2716E+02
     12.593  0.6677E+00  0.7036E+00  0.2720E+02  0.2720E+02
     12.661  0.7176E+00  0.7500E+00  0.2725E+02  0.2726E+02
     12.729  0.7505E+00  0.7343E+00  0.2730E+02  0.2731E+02
     12.798  0.7895E+00  0.7452E+00  0.2735E+02  0.2736E+02
     12.866  0.8875E+00  0.8537E+00  0.2741E+02  0.2741E+02
     12.934  0.8937E+00  0.8819E+00  0.2748E+02  0.2747E+02
     13.002  0.7294E+00  0.7358E+00  0.2753E+02  0.2753E+02
     13.070  0.5964E+00  0.6023E+00  0.2757E+02  0.2757E+02
     13.138  0.5014E+00  0.5063E+00  0.2760E+02  0.2760E+02
     13.206  0.4188E+00  0.4302E+00  0.2763E+02  0.2763E+02
     13.274  0.4168E+00  0.4352E+00  0.2766E+02  0.2766E+02
     13.342  0.5413E+00  0.5392E+00  0.2769E+02  0.2770E+02
     13.411  0.6013E+00  0.5806E+00  0.2774E+02  0.2774E+02
     13.479  0.5618E+00  0.5417E+00  0.2777E+02  0.2777E+02
     13.547  0.4957E+00  0.4740E+00  0.2781E+02  0.2781E+02
     13.615  0.3667E+00  0.3783E+00  0.2783E+02  0.2783E+02
     13.683  0.2727E+00  0.2956E+00  0.2785E+02  0.2785E+02
     13.751  0.2822E+00  0.2879E+00  0.2787E+02  0.2787E+02
     13.819  0.3108E+00  0.3153E+00  0.2789E+02  0.2789E+02
     13.887  0.3327E+00  0.3411E+00  0.2791E+02  0.2792E+02
     13.955  0.3057E+00  0.3016E+00  0.2793E+02  0.2794E+02
     14.024  0.2019E+00  0.1932E+00  0.2795E+02  0.2795E+02
     14.092  0.1497E+00  0.1459E+00  0.2796E+02  0.2796E+02
     14.160  0.1060E+00  0.1023E+00  0.2797E+02  0.2797E+02
     14.228  0.4738E-01  0.4491E-01  0.2797E+02  0.2797E+02
     14.296  0.2199E-01  0.2094E-01  0.2797E+02  0.2797E+02
     14.364  0.3090E-01  0.3010E-01  0.2797E+02  0.2797E+02
     14.432  0.6023E-01  0.5966E-01  0.2798E+02  0.2798E+02
     14.500  0.6764E-01  0.6838E-01  0.2798E+02  0.2798E+02
     14.568  0.4217E-01  0.4375E-01  0.2798E+02  0.2798E+02
     14.637  0.2200E-01  0.2543E-01  0.2799E+02  0.2799E+02
     14.705  0.2604E-01  0.3360E-01  0.2799E+02  0.2799E+02
     14.773  0.4757E-01  0.5253E-01  0.2799E+02  0.2799E+02
     14.841  0.4874E-01  0.4204E-01  0.2799E+02  0.2800E+02
     14.909  0.2413E-01  0.1747E-01  0.2800E+02  0.2800E+02
     14.977  0.7759E-02  0.5231E-02  0.2800E+02  0.2800E+02
     15.045  0.2164E-02  0.1426E-02  0.2800E+02  0.2800E+02
     15.113  0.7417E-03  0.4821E-03  0.2800E+02  0.2800E+02
     15.181  0.7289E-03  0.4659E-03  0.2800E+02  0.2800E+02
     15.250  0.2608E-02  0.1720E-02  0.2800E+02  0.2800E+02
     15.318  0.7542E-02  0.5490E-02  0.2800E+02  0.2800E+02
     15.386  0.1293E-01  0.1169E-01  0.2800E+02  0.2800E+02
     15.454  0.1020E-01  0.1207E-01  0.2800E+02  0.2800E+02
     15.522  0.4215E-02  0.5981E-02  0.2800E+02  0.2800E+02
     15.590  0.1424E-02  0.2085E-02  0.2800E+02  0.2800E+02
     15.658  0.9743E-03  0.1164E-02  0.2800E+02  0.2800E+02
     15.726  0.1713E-02  0.1765E-02  0.2800E+02  0.2800E+02
     15.794  0.2175E-02  0.2174E-02  0.2800E+02  0.2800E+02
     15.863  0.1328E-02  0.1325E-02  0.2800E+02  0.2800E+02
     15.931  0.4701E-03  0.4687E-03  0.2800E+02  0.2800E+02
     15.999  0.1324E-03  0.1320E-03  0.2800E+02  0.2800E+02
     16.067  0.3478E-04  0.3466E-04  0.2800E+02  0.2800E+02
     16.135  0.8966E-05  0.8935E-05  0.2800E+02  0.2800E+02
     16.203  0.0000E+00  0.0000E+00  0.2800E+02  0.2800E+02
     16.271  0.0000E+00  0.0000E+00  0.2800E+02  0.2800E+02
     16.339  0.0000E+00  0.0000E+00  0.2800E+02  0.2800E+02
     16.407  0.0000E+00  0.0000E+00  0.2800E+02  0.2800E+02
     16.476  0.0000E+00  0.0000E+00  0.2800E+02  0.2800E+02
     16.544  0.0000E+00  0.0000E+00  0.2800E+02  0.2800E+02
     16.612  0.0000E+00  0.0000E+00  0.2800E+02  0.2800E+02
     16.680  0.0000E+00  0.0000E+00  0.2800E+02  0.2800E+02
     16.67992356     -3.75347145  301      4.65939941      1.00000000
     -3.753  0.0000E+00  0.0000E+00  0.0000E+00  0.0000E+00  0.0000E+00  0.0000E+00  0.0000E+00  0.0000E+00  0.0000E+00  0.0000E+00  0.0000E+00  0.0000E+00  0.0000E+00  0.0000E+00  0.0000E+00  0.0000E+00  0.0000E+00  0.0000E+00
     -3.685  0.0000E+00  0.0000E+00  0.0000E+00  0.0000E+00  0.0000E+00  0.0000E+00  0.0000E+00  0.0000E+00  0.0000E+00  0.0000E+00  0.0000E+00  0.0000E+00  0.0000E+00  0.0000E+00  0.0000E+00  0.0000E+00  0.0000E+00  0.0000E+00
     -3.617  0.0000E+00  0.0000E+00  0.0000E+00  0.0000E+00  0.0000E+00  0.0000E+00  0.0000E+00  0.0000E+00  0.0000E+00  0.0000E+00  0.0000E+00  0.0000E+00  0.0000E+00  0.0000E+00  0.0000E+00  0.0000E+00  0.0000E+00  0.0000E+00
     -3.549  0.0000E+00  0.0000E+00  0.0000E+00  0.0000E+00  0.0000E+00  0.0000E+00  0.0000E+00  0.0000E+00  0.0000E+00  0.0000E+00  0.0000E+00  0.0000E+00  0.0000E+00  0.0000E+00  0.0000E+00  0.0000E+00  0.0000E+00  0.0000E+00
     -3.481  0.0000E+00  0.0000E+00  0.0000E+00  0.0000E+00  0.0000E+00  0.0000E+00  0.0000E+00  0.0000E+00  0.0000E+00  0.0000E+00  0.0000E+00  0.0000E+00  0.0000E+00  0.0000E+00  0.0000E+00  0.0000E+00  0.0000E+00  0.0000E+00
     -3.413  0.0000E+00  0.0000E+00  0.0000E+00  0.0000E+00  0.0000E+00  0.0000E+00  0.0000E+00  0.0000E+00  0.0000E+00  0.0000E+00  0.0000E+00  0.0000E+00  0.0000E+00  0.0000E+00  0.0000E+00  0.0000E+00  0.0000E+00  0.0000E+00
     -3.345  0.0000E+00  0.0000E+00  0.0000E+00  0.0000E+00  0.0000E+00  0.0000E+00  0.0000E+00  0.0000E+00  0.0000E+00  0.0000E+00  0.0000E+00  0.0000E+00  0.0000E+00  0.0000E+00  0.0000E+00  0.0000E+00  0.0000E+00  0.0000E+00
     -3.277  0.8924E-07  0.8990E-07  0.8583E-21  0.6274E-20  0.8583E-21  0.6274E-20  0.8583E-21  0.6274E-20  0.1058E-15  0.7546E-16  0.1058E-15  0.7546E-16  0.8223E-16  0.1731E-17  0.1058E-15  0.7546E-16  0.8223E-16  0.1731E-17
     -3.209  0.8954E-06  0.9021E-06  0.1071E-08  0.1079E-08  0.1071E-08  0.1079E-08  0.1071E-08  0.1079E-08  0.3075E-15  0.2196E-15  0.3075E-15  0.2196E-15  0.9189E-11  0.8999E-11  0.3075E-15  0.2196E-15  0.9189E-11  0.8999E-11
     -3.140  0.4375E-05  0.4407E-05  0.8216E-08  0.8278E-08  0.8216E-08  0.8278E-08  0.8216E-08  0.8278E-08  0.5795E-10  0.5859E-10  0.5795E-10  0.5859E-10  0.4827E-10  0.4816E-10  0.5795E-10  0.5859E-10  0.4827E-10  0.4816E-10
     -3.072  0.1673E-04  0.1686E-04  0.3305E-07  0.3330E-07  0.3305E-07  0.3330E-07  0.3305E-07  0.3330E-07  0.3125E-09  0.3154E-09  0.3125E-09  0.3154E-09  0.1666E-09  0.1658E-09  0.3125E-09  0.3154E-09  0.1666E-09  0.1658E-09
     -3.004  0.6458E-04  0.6505E-04  0.1298E-06  0.1308E-06  0.1298E-06  0.1308E-06  0.1298E-06  0.1308E-06  0.1074E-08  0.1084E-08  0.1074E-08  0.1084E-08  0.9133E-09  0.9120E-09  0.1074E-08  0.1084E-08  0.9133E-09  0.9120E-09
     -2.936  0.2488E-03  0.2505E-03  0.5524E-06  0.5565E-06  0.5524E-06  0.5565E-06  0.5524E-06  0.5565E-06  0.5612E-08  0.5665E-08  0.5612E-08  0.5665E-08  0.4521E-08  0.4530E-08  0.5612E-08  0.5665E-08  0.4521E-08  0.4530E-08
     -2.868  0.8542E-03  0.8596E-03  0.1989E-05  0.2003E-05  0.1989E-05  0.2003E-05  0.1989E-05  0.2003E-05  0.2005E-07  0.2023E-07  0.2005E-07  0.2023E-07  0.1560E-07  0.1563E-07  0.2005E-07  0.2023E-07  0.1560E-07  0.1563E-07
     -2.800  0.2419E-02  0.2431E-02  0.6571E-05  0.6610E-05  0.6571E-05  0.6610E-05  0.6571E-05  0.6610E-05  0.7338E-07  0.7402E-07  0.7338E-07  0.7402E-07  0.5283E-07  0.5298E-07  0.7338E-07  0.7402E-07  0.5283E-07  0.5298E-07
     -2.732  0.4984E-02  0.4998E-02  0.1708E-04  0.1715E-04  0.1708E-04  0.1715E-04  0.1708E-04  0.1715E-04  0.2302E-06  0.2319E-06  0.2302E-06  0.2319E-06  0.1532E-06  0.1541E-06  0.2302E-06  0.2319E-06  0.1532E-06  0.1541E-06
     -2.664  0.7291E-02  0.7301E-02  0.3358E-04  0.3369E-04  0.3358E-04  0.3369E-04  0.3358E-04  0.3369E-04  0.5548E-06  0.5580E-06  0.5548E-06  0.5580E-06  0.4133E-06  0.4166E-06  0.5548E-06  0.5580E-06  0.4133E-06  0.4166E-06
     -2.596  0.9083E-02  0.9095E-02  0.5861E-04  0.5879E-04  0.5861E-04  0.5879E-04  0.5861E-04  0.5879E-04  0.1165E-05  0.1172E-05  0.1165E-05  0.1172E-05  0.1050E-05  0.1058E-05  0.1165E-05  0.1172E-05  0.1050E-05  0.1058E-05
     -2.527  0.1191E-01  0.1193E-01  0.9845E-04  0.9868E-04  0.9845E-04  0.9868E-04  0.9845E-04  0.9868E-04  0.2431E-05  0.2444E-05  0.2431E-05  0.2444E-05  0.2015E-05  0.2027E-05  0.2431E-05  0.2444E-05  0.2015E-05  0.2027E-05
     -2.459  0.1352E-01  0.1352E-01  0.1299E-03  0.1300E-03  0.1299E-03  0.1300E-03  0.1299E-03  0.1300E-03  0.4093E-05  0.4109E-05  0.4093E-05  0.4109E-05  0.2669E-05  0.2681E-05  0.4093E-05  0.4109E-05  0.2669E-05  0.2681E-05
     -2.391  0.1239E-01  0.1239E-01  0.1432E-03  0.1434E-03  0.1432E-03  0.1434E-03  0.1432E-03  0.1434E-03  0.5777E-05  0.5798E-05  0.5777E-05  0.5798E-05  0.3482E-05  0.3498E-05  0.5777E-05  0.5798E-05  0.3482E-05  0.3498E-05
     -2.323  0.1386E-01  0.1387E-01  0.1974E-03  0.1978E-03  0.1974E-03  0.1978E-03  0.1974E-03  0.1978E-03  0.9177E-05  0.9207E-05  0.9177E-05  0.9207E-05  0.6596E-05  0.6627E-05  0.9177E-05  0.9207E-05  0.6596E-05  0.6627E-05
     -2.255  0.1749E-01  0.1751E-01  0.2807E-03  0.2811E-03  0.2807E-03  0.2811E-03  0.2807E-03  0.2811E-03  0.1315E-04  0.1317E-04  0.1315E-04  0.1317E-04  0.1230E-04  0.1233E-04  0.1315E-04  0.1317E-04  0.1230E-04  0.1233E-04
     -2.187  0.1845E-01  0.1844E-01  0.3254E-03  0.3255E-03  0.3254E-03  0.3255E-03  0.3254E-03  0.3255E-03  0.1650E-04  0.1652E-04  0.1650E-04  0.1652E-04  0.1647E-04  0.1649E-04  0.1650E-04  0.1652E-04  0.1647E-04  0.1649E-04
     -2.119  0.1759E-01  0.1758E-01  0.3462E-03  0.3464E-03  0.3462E-03  0.3464E-03  0.3462E-03  0.3464E-03  0.2301E-04  0.2303E-04  0.2301E-04  0.2303E-04  0.1664E-04  0.1664E-04  0.2301E-04  0.2303E-04  0.1664E-04  0.1664E-04
     -2.051  0.1878E-01  0.1879E-01  0.4130E-03  0.4135E-03  0.4130E-03  0.4135E-03  0.4130E-03  0.4135E-03  0.3449E-04  0.3447E-04  0.3449E-04  0.3447E-04  0.1867E-04  0.1867E-04  0.3449E-04  0.3447E-04  0.1867E-04  0.1867E-04
     -1.983  0.1977E-01  0.1976E-01  0.4679E-03  0.4679E-03  0.4679E-03  0.4679E-03  0.4679E-03  0.4679E-03  0.4261E-04  0.4250E-04  0.4261E-04  0.4250E-04  0.2351E-04  0.2349E-04  0.4261E-04  0.4250E-04  0.2351E-04  0.2349E-04
     -1.914  0.1749E-01  0.1749E-01  0.4530E-03  0.4531E-03  0.4530E-03  0.4531E-03  0.4530E-03  0.4531E-03  0.4149E-04  0.4142E-04  0.4149E-04  0.4142E-04  0.3229E-04  0.3230E-04  0.4149E-04  0.4142E-04  0.3229E-04  0.3230E-04
     -1.846  0.2001E-01  0.2004E-01  0.5767E-03  0.5778E-03  0.5767E-03  0.5778E-03  0.5767E-03  0.5778E-03  0.5408E-04  0.5415E-04  0.5408E-04  0.5415E-04  0.5411E-04  0.5414E-04  0.5408E-04  0.5415E-04  0.5411E-04  0.5414E-04
     -1.778  0.2487E-01  0.2489E-01  0.7609E-03  0.7616E-03  0.7609E-03  0.7616E-03  0.7609E-03  0.7616E-03  0.7765E-04  0.7774E-04  0.7765E-04  0.7774E-04  0.7439E-04  0.7433E-04  0.7765E-04  0.7774E-04  0.7439E-04  0.7433E-04
     -1.710  0.2533E-01  0.2532E-01  0.8185E-03  0.8186E-03  0.8185E-03  0.8186E-03  0.8185E-03  0.8186E-03  0.9583E-04  0.9595E-04  0.9583E-04  0.9595E-04  0.7814E-04  0.7810E-04  0.9583E-04  0.9595E-04  0.7814E-04  0.7810E-04
     -1.642  0.2496E-01  0.2496E-01  0.8589E-03  0.8592E-03  0.8589E-03  0.8592E-03  0.8589E-03  0.8592E-03  0.1161E-03  0.1163E-03  0.1161E-03  0.1163E-03  0.8268E-04  0.8274E-04  0.1161E-03  0.1163E-03  0.8268E-04  0.8274E-04
     -1.574  0.2392E-01  0.2390E-01  0.8652E-03  0.8648E-03  0.8652E-03  0.8648E-03  0.8652E-03  0.8648E-03  0.1368E-03  0.1370E-03  0.1368E-03  0.1370E-03  0.8032E-04  0.8032E-04  0.1368E-03  0.1370E-03  0.8032E-04  0.8032E-04
     -1.506  0.1970E-01  0.1968E-01  0.7533E-03  0.7529E-03  0.7533E-03  0.7529E-03  0.7533E-03  0.7529E-03  0.1385E-03  0.1385E-03  0.1385E-03  0.1385E-03  0.6973E-04  0.6980E-04  0.1385E-03  0.1385E-03  0.6973E-04  0.6980E-04
     -1.438  0.1983E-01  0.1985E-01  0.8266E-03  0.8280E-03  0.8266E-03  0.8280E-03  0.8266E-03  0.8280E-03  0.1579E-03  0.1581E-03  0.1579E-03  0.1581E-03  0.9987E-04  0.1003E-03  0.1579E-03  0.1581E-03  0.9987E-04  0.1003E-03
     -1.370  0.2671E-01  0.2675E-01  0.1182E-02  0.1184E-02  0.1182E-02  0.1184E-02  0.1182E-02  0.1184E-02  0.2162E-03  0.2167E-03  0.2162E-03  0.2167E-03  0.1825E-03  0.1832E-03  0.2162E-03  0.2167E-03  0.1825E-03  0.1832E-03
     -1.301  0.3158E-01  0.3158E-01  0.1447E-02  0.1447E-02  0.1447E-02  0.1447E-02  0.1447E-02  0.1447E-02  0.2651E-03  0.2654E-03  0.2651E-03  0.2654E-03  0.2560E-03  0.2565E-03  0.2651E-03  0.2654E-03  0.2560E-03  0.2565E-03
     -1.233  0.2984E-01  0.2983E-01  0.1423E-02  0.1423E-02  0.1423E-02  0.1423E-02  0.1423E-02  0.1423E-02  0.2919E-03  0.2922E-03  0.2919E-03  0.2922E-03  0.2648E-03  0.2651E-03  0.2919E-03  0.2922E-03  0.2648E-03  0.2651E-03
     -1.165  0.2988E-01  0.2988E-01  0.1493E-02  0.1493E-02  0.1493E-02  0.1493E-02  0.1493E-02  0.1493E-02  0.3512E-03  0.3515E-03  0.3512E-03  0.3515E-03  0.2801E-03  0.2805E-03  0.3512E-03  0.3515E-03  0.2801E-03  0.2805E-03
     -1.097  0.2787E-01  0.2785E-01  0.1446E-02  0.1445E-02  0.1446E-02  0.1445E-02  0.1446E-02  0.1445E-02  0.3538E-03  0.3536E-03  0.3538E-03  0.3536E-03  0.2881E-03  0.2881E-03  0.3538E-03  0.3536E-03  0.2881E-03  0.2881E-03
     -1.029  0.2325E-01  0.2324E-01  0.1267E-02  0.1267E-02  0.1267E-02  0.1267E-02  0.1267E-02  0.1267E-02  0.3627E-03  0.3631E-03  0.3627E-03  0.3631E-03  0.2421E-03  0.2420E-03  0.3627E-03  0.3631E-03  0.2421E-03  0.2420E-03
     -0.961  0.2622E-01  0.2625E-01  0.1506E-02  0.1508E-02  0.1506E-02  0.1508E-02  0.1506E-02  0.1508E-02  0.5282E-03  0.5290E-03  0.5282E-03  0.5290E-03  0.2605E-03  0.2609E-03  0.5282E-03  0.5290E-03  0.2605E-03  0.2609E-03
     -0.893  0.3146E-01  0.3148E-01  0.1868E-02  0.1869E-02  0.1868E-02  0.1869E-02  0.1868E-02  0.1869E-02  0.6973E-03  0.6975E-03  0.6973E-03  0.6975E-03  0.3526E-03  0.3530E-03  0.6973E-03  0.6975E-03  0.3526E-03  0.3530E-03
     -0.825  0.3186E-01  0.3185E-01  0.1957E-02  0.1958E-02  0.1957E-02  0.1958E-02  0.1957E-02  0.1958E-02  0.7168E-03  0.7162E-03  0.7168E-03  0.7162E-03  0.4771E-03  0.4775E-03  0.7168E-03  0.7162E-03  0.4771E-03  0.4775E-03
     -0.757  0.3024E-01  0.3024E-01  0.1937E-02  0.1937E-02  0.1937E-02  0.1937E-02  0.1937E-02  0.1937E-02  0.6714E-03  0.6707E-03  0.6714E-03  0.6707E-03  0.6485E-03  0.6487E-03  0.6714E-03  0.6707E-03  0.6485E-03  0.6487E-03
     -0.688  0.3007E-01  0.3007E-01  0.2005E-02  0.2005E-02  0.2005E-02  0.2005E-02  0.2005E-02  0.2005E-02  0.7069E-03  0.7065E-03  0.7069E-03  0.7065E-03  0.7886E-03  0.7879E-03  0.7069E-03  0.7065E-03  0.7886E-03  0.7879E-03
     -0.620  0.3065E-01  0.3067E-01  0.2128E-02  0.2130E-02  0.2128E-02  0.2130E-02  0.2128E-02  0.2130E-02  0.8581E-03  0.8583E-03  0.8581E-03  0.8583E-03  0.8470E-03  0.8464E-03  0.8581E-03  0.8583E-03  0.8470E-03  0.8464E-03
     -0.552  0.3642E-01  0.3645E-01  0.2620E-02  0.2622E-02  0.2620E-02  0.2622E-02  0.2620E-02  0.2622E-02  0.1217E-02  0.1217E-02  0.1217E-02  0.1217E-02  0.9782E-03  0.9775E-03  0.1217E-02  0.1217E-02  0.9782E-03  0.9775E-03
     -0.484  0.3799E-01  0.3798E-01  0.2792E-02  0.2792E-02  0.2792E-02  0.2792E-02  0.2792E-02  0.2792E-02  0.1479E-02  0.1477E-02  0.1479E-02  0.1477E-02  0.9475E-03  0.9457E-03  0.1479E-02  0.1477E-02  0.9475E-03  0.9457E-03
     -0.416  0.3371E-01  0.3369E-01  0.2546E-02  0.2545E-02  0.2546E-02  0.2545E-02  0.2546E-02  0.2545E-02  0.1533E-02  0.1532E-02  0.1533E-02  0.1532E-02  0.8582E-03  0.8575E-03  0.1533E-02  0.1532E-02  0.8582E-03  0.8575E-03
     -0.348  0.3234E-01  0.3233E-01  0.2528E-02  0.2528E-02  0.2528E-02  0.2528E-02  0.2528E-02  0.2528E-02  0.1628E-02  0.1627E-02  0.1628E-02  0.1627E-02  0.9582E-03  0.9581E-03  0.1628E-02  0.1627E-02  0.9582E-03  0.9581E-03