 vasp.6.4.1 05Apr23 (build Jul 24 2024 14:19:02) complex                         
 executed on             LinuxGNU date 2024.10.23  15:33:40
 running    1 mpi-ranks, with   24 threads/rank, on    1 nodes
 distrk:  each k-point on    1 cores,    1 groups
 distr:  one band on NCORE=   1 cores,    1 groups


--------------------------------------------------------------------------------------------------------


 INCAR:
   ISTART = 0
   ALGO = Fast
   EDIFF = 0.0001
   ENCUT = 520
   IBRION = -1
   ISIF = 2
   ISMEAR = -5
   ISPIN = 2
   LASPH = True
   LMAXMIX = 6
   LORBIT = 11
   LREAL = Auto
   LWAVE = False
   MAGMOM = 2*0.6
   NELM = 100
   NSW = 0
   PREC = Accurate
   SIGMA = 0.05

 POTCAR:    PAW_PBE Nb_pv 08Apr2002               
 POTCAR:    PAW_PBE Nb_pv 08Apr2002               
   SHA256 =  bac2b60850b34f8515cf56f9feae68b678e347865051052a0e1f5d2c6a691c0a Nb_pv/POTCAR          
   COPYR  = (c) Copyright 08Apr2002 Georg Kresse                                                    
   COPYR  = This file is part of the software VASP. Any use, copying, and all other rights are regul
   COPYR  = If you do not have a valid VASP license, you may not use, copy or distribute this file. 
   VRHFIN =Nb: 4p5s4d                                                                               
   LEXCH  = PE                                                                                      
   EATOM  =  1043.3917 eV,   76.6871 Ry                                                             
                                                                                                    
   TITEL  = PAW_PBE Nb_pv 08Apr2002                                                                 
   LULTRA =        F    use ultrasoft PP ?                                                          
   IUNSCR =        1    unscreen: 0-lin 1-nonlin 2-no                                               
   RPACOR =    2.200    partial core radius                                                         
   POMASS =   92.000; ZVAL   =   11.000    mass and valenz                                          
   RCORE  =    2.750    outmost cutoff radius                                                       
   RWIGS  =    2.840; RWIGS  =    1.503    wigner-seitz radius (au A)                               
   ENMAX  =  208.608; ENMIN  =  156.456 eV                                                          
   RCLOC  =    2.201    cutoff for local pot                                                        
   LCOR   =        T    correct aug charges                                                         
   LPAW   =        T    paw PP                                                                      
   EAUG   =  355.067                                                                                
   DEXC   =    0.000                                                                                
   RMAX   =    2.804    core radius for proj-oper                                                   
   RAUG   =    1.300    factor for augmentation sphere                                              
   RDEP   =    2.776    radius for radial grids                                                     
   RDEPT  =    2.198    core radius for aug-charge                                                  
                                                                                                    
   Atomic configuration                                                                             
   11 entries                                                                                       
     n  l   j            E        occ.                                                              
     1  0  0.50    -18805.2456   2.0000                                                             
     2  0  0.50     -2630.2869   2.0000                                                             
     2  1  1.50     -2348.4045   6.0000                                                             
     3  0  0.50      -438.8756   2.0000                                                             
     3  1  1.50      -346.7587   6.0000                                                             
     3  2  2.50      -196.2559  10.0000                                                             
     4  0  0.50       -58.3859   2.0000                                                             
     4  1  1.50       -34.5141   6.0000                                                             
     4  2  2.50        -3.0408   4.0000                                                             
     5  0  0.50        -3.9816   1.0000                                                             
     4  3  2.50        -1.3606   0.0000                                                             
   Description                                                                                      
     l       E           TYP  RCUT    TYP  RCUT                                                     
     1    -34.5140617     23  2.600                                                                 
     1     -1.3605826     23  2.600                                                                 
     2     -3.0407924     23  2.600                                                                 
     2     -1.4463597     23  2.600                                                                 
     0     -3.9816219     23  2.750                                                                 
     0     20.4087390     23  2.750                                                                 
  local pseudopotential read in
  partial core-charges read in
  partial kinetic energy density read in
  atomic valenz-charges read in
  non local Contribution for L=           1  read in
    real space projection operators read in
  non local Contribution for L=           1  read in
    real space projection operators read in
  non local Contribution for L=           2  read in
    real space projection operators read in
  non local Contribution for L=           2  read in
    real space projection operators read in
  non local Contribution for L=           0  read in
    real space projection operators read in
  non local Contribution for L=           0  read in
    real space projection operators read in
    PAW grid and wavefunctions read in

   number of l-projection  operators is LMAX  =           6
   number of lm-projection operators is LMMAX =          18

 -----------------------------------------------------------------------------
|                                                                             |
|               ----> ADVICE to this user running VASP <----                  |
|                                                                             |
|     You have a (more or less) 'small supercell' and for smaller cells       |
|     it is recommended to use the reciprocal-space projection scheme!        |
|     The real-space optimization is not efficient for small cells and it     |
|     is also less accurate ...                                               |
|     Therefore, set LREAL=.FALSE. in the INCAR file.                         |
|                                                                             |
 -----------------------------------------------------------------------------

 Optimization of the real space projectors (new method)

 maximal supplied QI-value         = 13.61
 optimisation between [QCUT,QGAM] = [ 11.57, 23.27] = [ 37.45,151.59] Ry 
 Optimized for a Real-space Cutoff    1.63 Angstroem

   l    n(q)    QCUT    max X(q) W(low)/X(q) W(high)/X(q)  e(spline) 
   1     11    11.565     4.545    0.12E-04    0.18E-04    0.64E-07
   1     11    11.565     6.014    0.42E-04    0.48E-04    0.13E-06
   2     10    11.565   266.542    0.24E-03    0.87E-04    0.13E-05
   2     10    11.565   232.726    0.24E-03    0.87E-04    0.13E-05
   0     11    11.565    38.050    0.76E-04    0.32E-05    0.94E-06
   0     11    11.565    16.565    0.58E-04    0.25E-05    0.73E-06
  PAW_PBE Nb_pv 08Apr2002               :
 energy of atom  1       EATOM=-1043.3917
 kinetic energy error for atom=    0.0011 (will be added to EATOM!!)


 POSCAR: Generated POSCAR
  positions in direct lattice
  velocities in cartesian coordinates
 exchange correlation table for  LEXCH =        8
   RHO(1)=    0.500       N(1)  =     2000
   RHO(2)=  100.500       N(2)  =     4000



--------------------------------------------------------------------------------------------------------


 ion  position               nearest neighbor table
   1  0.000  0.000  0.000-   2 2.88   2 2.88   2 2.88   2 2.88   2 2.88   2 2.88   2 2.88   2 2.88

   2  0.500  0.500  0.500-   1 2.88   1 2.88   1 2.88   1 2.88   1 2.88   1 2.88   1 2.88   1 2.88


  LATTYP: Found a simple orthorhombic cell.
 ALAT       =     3.2886711696
 B/A-ratio  =     1.0101010101
 C/A-ratio  =     1.0202020202
  
  Lattice vectors:
  
 A1 = (  -3.2886711696,   0.0000000000,   0.0000000000)
 A2 = (   0.0000000000,   0.0000000000,   3.3218900703)
 A3 = (   0.0000000000,   3.3551089710,   0.0000000000)


Analysis of symmetry for initial positions (statically):
=====================================================================
 Subroutine PRICEL returns following result:
 
  LATTYP: Found a body centered orthorhombic cell.
 ALAT       =     3.2886711696
 B/A-ratio  =     1.0101010101
 C/A-ratio  =     1.0202020202
  
  Lattice vectors:
  
 A1 = (   1.6443355848,   1.6775544855,   1.6609450351)
 A2 = (  -1.6443355848,   1.6775544855,  -1.6609450351)
 A3 = (  -1.6443355848,  -1.6775544855,   1.6609450351)
 
   2 primitive cells build up your supercell.
 

 Routine SETGRP: Setting up the symmetry group for a 
 simple orthorhombic supercell.


 Subroutine GETGRP returns: Found  8 space group operations
 (whereof  8 operations were pure point group operations)
 out of a pool of  8 trial point group operations.


The static configuration has the point symmetry D_2h.


Analysis of symmetry for dynamics (positions and initial velocities):
=====================================================================
 Subroutine PRICEL returns following result:
 
  LATTYP: Found a body centered orthorhombic cell.
 ALAT       =     3.2886711696
 B/A-ratio  =     1.0101010101
 C/A-ratio  =     1.0202020202
  
  Lattice vectors:
  
 A1 = (   1.6443355848,   1.6775544855,   1.6609450351)
 A2 = (  -1.6443355848,   1.6775544855,  -1.6609450351)
 A3 = (  -1.6443355848,  -1.6775544855,   1.6609450351)
 
   2 primitive cells build up your supercell.
 

 Routine SETGRP: Setting up the symmetry group for a 
 simple orthorhombic supercell.


 Subroutine GETGRP returns: Found  8 space group operations
 (whereof  8 operations were pure point group operations)
 out of a pool of  8 trial point group operations.


The dynamic configuration has the point symmetry D_2h.


Analysis of structural, dynamic, and magnetic symmetry:
=====================================================================
 Subroutine PRICEL returns following result:
 
  LATTYP: Found a body centered orthorhombic cell.
 ALAT       =     3.2886711696
 B/A-ratio  =     1.0101010101
 C/A-ratio  =     1.0202020202
  
  Lattice vectors:
  
 A1 = (   1.6443355848,   1.6775544855,   1.6609450351)
 A2 = (  -1.6443355848,   1.6775544855,  -1.6609450351)
 A3 = (  -1.6443355848,  -1.6775544855,   1.6609450351)
 
   2 primitive cells build up your supercell.
 

 Routine SETGRP: Setting up the symmetry group for a 
 simple orthorhombic supercell.


 Subroutine GETGRP returns: Found  8 space group operations
 (whereof  8 operations were pure point group operations)
 out of a pool of  8 trial point group operations.


The overall configuration has the point symmetry D_2h.


 Subroutine INISYM returns: Found  8 space group operations
 (whereof  8 operations are pure point group operations),
 and found     2 'primitive' translations


----------------------------------------------------------------------------------------

                                     Primitive cell                                     

  volume of cell :      18.3266

  direct lattice vectors                    reciprocal lattice vectors
     1.644335585  1.677554485  1.660945035     0.000000000  0.298052912  0.301033441
    -1.644335585  1.677554485 -1.660945035    -0.304074183  0.298052912  0.000000000
    -1.644335585 -1.677554485  1.660945035    -0.304074183  0.000000000  0.301033441

  length of vectors
     2.876937083  2.876937083  2.876937083     0.423623266  0.425789440  0.427881107

  position of ions in fractional coordinates (direct lattice)
     0.000000000  0.000000000  0.000000000

  ion indices of the primitive-cell ions
   primitive index   ion index
                 1           1

----------------------------------------------------------------------------------------



 KPOINTS: pymatgen with grid density = 869 / numbe

Automatic generation of k-mesh.
 Grid dimensions read from file:
 generate k-points for:    7    7    7

 Generating k-lattice:

  Cartesian coordinates                     Fractional coordinates (reciprocal lattice)
     0.043439169 -0.000000000  0.000000000     0.142857143  0.000000000  0.000000000
     0.000000000  0.042578987  0.000000000     0.000000000  0.142857143  0.000000000
    -0.000000000 -0.000000000  0.043004777     0.000000000  0.000000000  0.142857143

  Length of vectors
     0.043439169  0.042578987  0.043004777

  Shift w.r.t. Gamma in fractional coordinates (k-lattice)
     0.000000000  0.000000000  0.000000000

 TETIRR: Found   1000 inequivalent tetrahedra from     2058
 
 Subroutine IBZKPT returns following result:
 ===========================================
 
 Found     64 irreducible k-points:
 
 Following reciprocal coordinates:
            Coordinates               Weight
  0.000000  0.000000  0.000000      1.000000
  0.142857  0.000000  0.000000      2.000000
  0.285714  0.000000  0.000000      2.000000
  0.428571  0.000000  0.000000      2.000000
  0.000000  0.142857  0.000000      2.000000
  0.142857  0.142857  0.000000      4.000000
  0.285714  0.142857  0.000000      4.000000
  0.428571  0.142857  0.000000      4.000000
  0.000000  0.285714  0.000000      2.000000
  0.142857  0.285714  0.000000      4.000000
  0.285714  0.285714  0.000000      4.000000
  0.428571  0.285714  0.000000      4.000000
  0.000000  0.428571  0.000000      2.000000
  0.142857  0.428571  0.000000      4.000000
  0.285714  0.428571  0.000000      4.000000
  0.428571  0.428571  0.000000      4.000000
  0.000000  0.000000  0.142857      2.000000
  0.142857  0.000000  0.142857      4.000000
  0.285714  0.000000  0.142857      4.000000
  0.428571  0.000000  0.142857      4.000000
  0.000000  0.142857  0.142857      4.000000
  0.142857  0.142857  0.142857      8.000000
  0.285714  0.142857  0.142857      8.000000
  0.428571  0.142857  0.142857      8.000000
  0.000000  0.285714  0.142857      4.000000
  0.142857  0.285714  0.142857      8.000000
  0.285714  0.285714  0.142857      8.000000
  0.428571  0.285714  0.142857      8.000000
  0.000000  0.428571  0.142857      4.000000
  0.142857  0.428571  0.142857      8.000000
  0.285714  0.428571  0.142857      8.000000
  0.428571  0.428571  0.142857      8.000000
  0.000000  0.000000  0.285714      2.000000
  0.142857  0.000000  0.285714      4.000000
  0.285714  0.000000  0.285714      4.000000
  0.428571  0.000000  0.285714      4.000000
  0.000000  0.142857  0.285714      4.000000
  0.142857  0.142857  0.285714      8.000000
  0.285714  0.142857  0.285714      8.000000
  0.428571  0.142857  0.285714      8.000000
  0.000000  0.285714  0.285714      4.000000
  0.142857  0.285714  0.285714      8.000000
  0.285714  0.285714  0.285714      8.000000
  0.428571  0.285714  0.285714      8.000000
  0.000000  0.428571  0.285714      4.000000
  0.142857  0.428571  0.285714      8.000000
  0.285714  0.428571  0.285714      8.000000
  0.428571  0.428571  0.285714      8.000000
  0.000000  0.000000  0.428571      2.000000
  0.142857  0.000000  0.428571      4.000000
  0.285714  0.000000  0.428571      4.000000
  0.428571  0.000000  0.428571      4.000000
  0.000000  0.142857  0.428571      4.000000
  0.142857  0.142857  0.428571      8.000000
  0.285714  0.142857  0.428571      8.000000
  0.428571  0.142857  0.428571      8.000000
  0.000000  0.285714  0.428571      4.000000
  0.142857  0.285714  0.428571      8.000000
  0.285714  0.285714  0.428571      8.000000
  0.428571  0.285714  0.428571      8.000000
  0.000000  0.428571  0.428571      4.000000
  0.142857  0.428571  0.428571      8.000000
  0.285714  0.428571  0.428571      8.000000
  0.428571  0.428571  0.428571      8.000000
 
 Following cartesian coordinates:
            Coordinates               Weight
  0.000000  0.000000  0.000000      1.000000
  0.043439  0.000000  0.000000      2.000000
  0.086878  0.000000  0.000000      2.000000
  0.130318  0.000000  0.000000      2.000000
  0.000000  0.042579  0.000000      2.000000
  0.043439  0.042579  0.000000      4.000000
  0.086878  0.042579  0.000000      4.000000
  0.130318  0.042579  0.000000      4.000000
  0.000000  0.085158  0.000000      2.000000
  0.043439  0.085158  0.000000      4.000000
  0.086878  0.085158  0.000000      4.000000
  0.130318  0.085158  0.000000      4.000000
  0.000000  0.127737  0.000000      2.000000
  0.043439  0.127737  0.000000      4.000000
  0.086878  0.127737  0.000000      4.000000
  0.130318  0.127737  0.000000      4.000000
  0.000000  0.000000  0.043005      2.000000
  0.043439  0.000000  0.043005      4.000000
  0.086878  0.000000  0.043005      4.000000
  0.130318  0.000000  0.043005      4.000000
  0.000000  0.042579  0.043005      4.000000
  0.043439  0.042579  0.043005      8.000000
  0.086878  0.042579  0.043005      8.000000
  0.130318  0.042579  0.043005      8.000000
  0.000000  0.085158  0.043005      4.000000
  0.043439  0.085158  0.043005      8.000000
  0.086878  0.085158  0.043005      8.000000
  0.130318  0.085158  0.043005      8.000000
  0.000000  0.127737  0.043005      4.000000
  0.043439  0.127737  0.043005      8.000000
  0.086878  0.127737  0.043005      8.000000
  0.130318  0.127737  0.043005      8.000000
  0.000000  0.000000  0.086010      2.000000
  0.043439  0.000000  0.086010      4.000000
  0.086878  0.000000  0.086010      4.000000
  0.130318  0.000000  0.086010      4.000000
  0.000000  0.042579  0.086010      4.000000
  0.043439  0.042579  0.086010      8.000000
  0.086878  0.042579  0.086010      8.000000
  0.130318  0.042579  0.086010      8.000000
  0.000000  0.085158  0.086010      4.000000
  0.043439  0.085158  0.086010      8.000000
  0.086878  0.085158  0.086010      8.000000
  0.130318  0.085158  0.086010      8.000000
  0.000000  0.127737  0.086010      4.000000
  0.043439  0.127737  0.086010      8.000000
  0.086878  0.127737  0.086010      8.000000
  0.130318  0.127737  0.086010      8.000000
  0.000000  0.000000  0.129014      2.000000
  0.043439  0.000000  0.129014      4.000000
  0.086878  0.000000  0.129014      4.000000
  0.130318  0.000000  0.129014      4.000000
  0.000000  0.042579  0.129014      4.000000
  0.043439  0.042579  0.129014      8.000000
  0.086878  0.042579  0.129014      8.000000
  0.130318  0.042579  0.129014      8.000000
  0.000000  0.085158  0.129014      4.000000
  0.043439  0.085158  0.129014      8.000000
  0.086878  0.085158  0.129014      8.000000
  0.130318  0.085158  0.129014      8.000000
  0.000000  0.127737  0.129014      4.000000
  0.043439  0.127737  0.129014      8.000000
  0.086878  0.127737  0.129014      8.000000
  0.130318  0.127737  0.129014      8.000000
 


--------------------------------------------------------------------------------------------------------




 Dimension of arrays:
   k-points           NKPTS =     64   k-points in BZ     NKDIM =     64   number of bands    NBANDS=     16
   number of dos      NEDOS =    301   number of ions     NIONS =      2
   non local maximal  LDIM  =      6   non local SUM 2l+1 LMDIM =     18
   total plane-waves  NPLWV =  18816
   max r-space proj   IRMAX =   9315   max aug-charges    IRDMAX=  31802
   dimension x,y,z NGX =    24 NGY =   28 NGZ =   28
   dimension x,y,z NGXF=    48 NGYF=   56 NGZF=   56
   support grid    NGXF=    48 NGYF=   56 NGZF=   56
   ions per type =               2
   NGX,Y,Z   is equivalent  to a cutoff of  12.13, 13.87, 14.01 a.u.
   NGXF,Y,Z  is equivalent  to a cutoff of  24.26, 27.75, 28.03 a.u.

 SYSTEM =  unknown system                          
 POSCAR =  Generated POSCAR                        

 Startparameter for this run:
   NWRITE =      2    write-flag & timer
   PREC   = accura    normal or accurate (medium, high low for compatibility)
   ISTART =      0    job   : 0-new  1-cont  2-samecut
   ICHARG =      2    charge: 1-file 2-atom 10-const
   ISPIN  =      2    spin polarized calculation?
   LNONCOLLINEAR =      F non collinear calculations
   LSORBIT =      F    spin-orbit coupling
   INIWAV =      1    electr: 0-lowe 1-rand  2-diag
   LASPH  =      T    aspherical Exc in radial PAW
 Electronic Relaxation 1
   ENCUT  =  520.0 eV  38.22 Ry    6.18 a.u.   6.11  6.24  6.18*2*pi/ulx,y,z
   ENINI  =  520.0     initial cutoff
   ENAUG  =  355.1 eV  augmentation charge cutoff
   NELM   =    100;   NELMIN=  2; NELMDL= -5     # of ELM steps 
   EDIFF  = 0.1E-03   stopping-criterion for ELM
   LREAL  =      T    real-space projection
   NLSPLINE    = F    spline interpolate recip. space projectors
   LCOMPAT=      F    compatible to vasp.4.4
   GGA_COMPAT  = T    GGA compatible to vasp.4.4-vasp.4.6
   LMAXPAW     = -100 max onsite density
   LMAXMIX     =    6 max onsite mixed and CHGCAR
   VOSKOWN=      0    Vosko Wilk Nusair interpolation
   ROPT   =   -0.00025
 Ionic relaxation
   EDIFFG = 0.1E-02   stopping-criterion for IOM
   NSW    =      0    number of steps for IOM
   NBLOCK =      1;   KBLOCK =      1    inner block; outer block 
   IBRION =     -1    ionic relax: 0-MD 1-quasi-New 2-CG
   NFREE  =      0    steps in history (QN), initial steepest desc. (CG)
   ISIF   =      2    stress and relaxation
   IWAVPR =     10    prediction:  0-non 1-charg 2-wave 3-comb
   ISYM   =      2    0-nonsym 1-usesym 2-fastsym
   LCORR  =      T    Harris-Foulkes like correction to forces

   POTIM  = 0.5000    time-step for ionic-motion
   TEIN   =    0.0    initial temperature
   TEBEG  =    0.0;   TEEND  =   0.0 temperature during run
   SMASS  =  -3.00    Nose mass-parameter (am)
   estimated Nose-frequenzy (Omega)   =  0.10E-29 period in steps = 0.13E+47 mass=  -0.247E-27a.u.
   SCALEE = 1.0000    scale energy and forces
   NPACO  =    256;   APACO  = 10.0  distance and # of slots for P.C.
   PSTRESS=    0.0 pullay stress

  Mass of Ions in am
   POMASS =  92.00
  Ionic Valenz
   ZVAL   =  11.00
  Atomic Wigner-Seitz radii
   RWIGS  =  -1.00
  virtual crystal weights 
   VCA    =   1.00
   NELECT =      22.0000    total number of electrons
   NUPDOWN=      -1.0000    fix difference up-down

 DOS related values:
   EMIN   =  10.00;   EMAX   =-10.00  energy-range for DOS
   EFERMI =   0.00;   METHOD = LEGACY      
   ISMEAR =    -5;   SIGMA  =   0.05  broadening in eV -4-tet -1-fermi 0-gaus

 Electronic relaxation 2 (details)
   IALGO  =     68    algorithm
   LDIAG  =      T    sub-space diagonalisation (order eigenvalues)
   LSUBROT=      F    optimize rotation matrix (better conditioning)
   TURBO    =      0    0=normal 1=particle mesh
   IRESTART =      0    0=no restart 2=restart with 2 vectors
   NREBOOT  =      0    no. of reboots
   NMIN     =      0    reboot dimension
   EREF     =   0.00    reference energy to select bands
   IMIX   =      4    mixing-type and parameters
     AMIX     =   0.40;   BMIX     =  1.00
     AMIX_MAG =   1.60;   BMIX_MAG =  1.00
     AMIN     =   0.10
     WC   =   100.;   INIMIX=   1;  MIXPRE=   1;  MAXMIX= -45

 Intra band minimization:
   WEIMIN = 0.0000     energy-eigenvalue tresh-hold
   EBREAK =  0.16E-05  absolut break condition
   DEPER  =   0.30     relativ break condition  

   TIME   =   0.40     timestep for ELM

  volume/ion in A,a.u.               =      18.33       123.67
  Fermi-wavevector in a.u.,A,eV,Ry     =   1.380951  2.609619 25.946661  1.907026
  Thomas-Fermi vector in A             =   2.505781

 Write flags
   LWAVE        =      F    write WAVECAR
   LDOWNSAMPLE  =      F    k-point downsampling of WAVECAR
   LCHARG       =      T    write CHGCAR
   LVTOT        =      F    write LOCPOT, total local potential
   LVHAR        =      F    write LOCPOT, Hartree potential only
   LELF         =      F    write electronic localiz. function (ELF)
   LORBIT       =     11    0 simple, 1 ext, 2 COOP (PROOUT), +10 PAW based schemes


 Dipole corrections
   LMONO  =      F    monopole corrections only (constant potential shift)
   LDIPOL =      F    correct potential (dipole corrections)
   IDIPOL =      0    1-x, 2-y, 3-z, 4-all directions 
   EPSILON=  1.0000000 bulk dielectric constant

 Exchange correlation treatment:
   GGA     =    --    GGA type
   LEXCH   =     8    internal setting for exchange type
   LIBXC   =     F    Libxc                    
   VOSKOWN =     0    Vosko Wilk Nusair interpolation
   LHFCALC =     F    Hartree Fock is set to
   LHFONE  =     F    Hartree Fock one center treatment
   AEXX    =    0.0000 exact exchange contribution

 Linear response parameters
   LEPSILON=     F    determine dielectric tensor
   LRPA    =     F    only Hartree local field effects (RPA)
   LNABLA  =     F    use nabla operator in PAW spheres
   LVEL    =     F    velocity operator in full k-point grid
   CSHIFT  =0.1000    complex shift for real part using Kramers Kronig
   OMEGAMAX=  -1.0    maximum frequency
   DEG_THRESHOLD= 0.2000000E-02 threshold for treating states as degnerate
   RTIME   =   -0.100 relaxation time in fs
  (WPLASMAI=    0.000 imaginary part of plasma frequency in eV, 0.658/RTIME)
   DFIELD  = 0.0000000 0.0000000 0.0000000 field for delta impulse in time

  Optional k-point grid parameters
   LKPOINTS_OPT  =     F    use optional k-point grid
   KPOINTS_OPT_MODE=     1    mode for optional k-point grid

 Orbital magnetization related:
   ORBITALMAG=     F  switch on orbital magnetization
   LCHIMAG   =     F  perturbation theory with respect to B field
   DQ        =  0.001000  dq finite difference perturbation B field
   LLRAUG    =     F  two centre corrections for induced B field
   LBONE     =     F  B-component reconstruction in AE one-centre
   LVGVCALC  =     T  calculate vGv susceptibility
   LVGVAPPL  =     F  apply vGv susceptibility instead of pGv for G=0

 Random number generation:
   RANDOM_GENERATOR = DEFAULT
   PCG_SEED         = not used


--------------------------------------------------------------------------------------------------------


 Static calculation
 charge density and potential will be updated during run
 spin polarized calculation
 RMM-DIIS sequential band-by-band and
  variant of blocked Davidson during initial phase
 perform sub-space diagonalisation
    before iterative eigenvector-optimisation
 modified Broyden-mixing scheme, WC =      100.0
 initial mixing is a Kerker type mixing with AMIX =  0.4000 and BMIX =      1.0000
 Hartree-type preconditioning will be used
 using additional bands            5
 real space projection scheme for non local part
 use partial core corrections
 calculate Harris-corrections to forces   (improved forces if not selfconsistent)
 use gradient corrections 
 use of overlap-Matrix (Vanderbilt PP)
 Fermi weights with tetrahedron method with Bloechl corrections


--------------------------------------------------------------------------------------------------------


  energy-cutoff  :      520.00
  volume of cell :       36.65
      direct lattice vectors                 reciprocal lattice vectors
     3.288671170  0.000000000  0.000000000     0.304074183 -0.000000000  0.000000000
     0.000000000  3.355108971  0.000000000     0.000000000  0.298052912  0.000000000
     0.000000000  0.000000000  3.321890070    -0.000000000 -0.000000000  0.301033441

  length of vectors
     3.288671170  3.355108971  3.321890070     0.304074183  0.298052912  0.301033441



 k-points in units of 2pi/SCALE and weight: pymatgen with grid density = 869 / numbe
   0.00000000  0.00000000  0.00000000       0.003
   0.04343917  0.00000000  0.00000000       0.006
   0.08687834  0.00000000  0.00000000       0.006
   0.13031751  0.00000000  0.00000000       0.006
   0.00000000  0.04257899  0.00000000       0.006
   0.04343917  0.04257899  0.00000000       0.012
   0.08687834  0.04257899  0.00000000       0.012
   0.13031751  0.04257899  0.00000000       0.012
   0.00000000  0.08515797  0.00000000       0.006
   0.04343917  0.08515797  0.00000000       0.012
   0.08687834  0.08515797  0.00000000       0.012
   0.13031751  0.08515797  0.00000000       0.012
   0.00000000  0.12773696  0.00000000       0.006
   0.04343917  0.12773696  0.00000000       0.012
   0.08687834  0.12773696  0.00000000       0.012
   0.13031751  0.12773696  0.00000000       0.012
   0.00000000  0.00000000  0.04300478       0.006
   0.04343917  0.00000000  0.04300478       0.012
   0.08687834  0.00000000  0.04300478       0.012
   0.13031751  0.00000000  0.04300478       0.012
   0.00000000  0.04257899  0.04300478       0.012
   0.04343917  0.04257899  0.04300478       0.023
   0.08687834  0.04257899  0.04300478       0.023
   0.13031751  0.04257899  0.04300478       0.023
   0.00000000  0.08515797  0.04300478       0.012
   0.04343917  0.08515797  0.04300478       0.023
   0.08687834  0.08515797  0.04300478       0.023
   0.13031751  0.08515797  0.04300478       0.023
   0.00000000  0.12773696  0.04300478       0.012
   0.04343917  0.12773696  0.04300478       0.023
   0.08687834  0.12773696  0.04300478       0.023
   0.13031751  0.12773696  0.04300478       0.023
   0.00000000  0.00000000  0.08600955       0.006
   0.04343917  0.00000000  0.08600955       0.012
   0.08687834  0.00000000  0.08600955       0.012
   0.13031751  0.00000000  0.08600955       0.012
   0.00000000  0.04257899  0.08600955       0.012
   0.04343917  0.04257899  0.08600955       0.023
   0.08687834  0.04257899  0.08600955       0.023
   0.13031751  0.04257899  0.08600955       0.023
   0.00000000  0.08515797  0.08600955       0.012
   0.04343917  0.08515797  0.08600955       0.023
   0.08687834  0.08515797  0.08600955       0.023
   0.13031751  0.08515797  0.08600955       0.023
   0.00000000  0.12773696  0.08600955       0.012
   0.04343917  0.12773696  0.08600955       0.023
   0.08687834  0.12773696  0.08600955       0.023
   0.13031751  0.12773696  0.08600955       0.023
   0.00000000  0.00000000  0.12901433       0.006
   0.04343917  0.00000000  0.12901433       0.012
   0.08687834  0.00000000  0.12901433       0.012
   0.13031751  0.00000000  0.12901433       0.012
   0.00000000  0.04257899  0.12901433       0.012
   0.04343917  0.04257899  0.12901433       0.023
   0.08687834  0.04257899  0.12901433       0.023
   0.13031751  0.04257899  0.12901433       0.023
   0.00000000  0.08515797  0.12901433       0.012
   0.04343917  0.08515797  0.12901433       0.023
   0.08687834  0.08515797  0.12901433       0.023
   0.13031751  0.08515797  0.12901433       0.023
   0.00000000  0.12773696  0.12901433       0.012
   0.04343917  0.12773696  0.12901433       0.023
   0.08687834  0.12773696  0.12901433       0.023
   0.13031751  0.12773696  0.12901433       0.023

 k-points in reciprocal lattice and weights: pymatgen with grid density = 869 / numbe
   0.00000000  0.00000000  0.00000000       0.003
   0.14285714  0.00000000  0.00000000       0.006
   0.28571429  0.00000000  0.00000000       0.006
   0.42857143  0.00000000  0.00000000       0.006
   0.00000000  0.14285714  0.00000000       0.006
   0.14285714  0.14285714  0.00000000       0.012
   0.28571429  0.14285714  0.00000000       0.012
   0.42857143  0.14285714  0.00000000       0.012
   0.00000000  0.28571429  0.00000000       0.006
   0.14285714  0.28571429  0.00000000       0.012
   0.28571429  0.28571429  0.00000000       0.012
   0.42857143  0.28571429  0.00000000       0.012
   0.00000000  0.42857143  0.00000000       0.006
   0.14285714  0.42857143  0.00000000       0.012
   0.28571429  0.42857143  0.00000000       0.012
   0.42857143  0.42857143  0.00000000       0.012
   0.00000000  0.00000000  0.14285714       0.006
   0.14285714  0.00000000  0.14285714       0.012
   0.28571429  0.00000000  0.14285714       0.012
   0.42857143  0.00000000  0.14285714       0.012
   0.00000000  0.14285714  0.14285714       0.012
   0.14285714  0.14285714  0.14285714       0.023
   0.28571429  0.14285714  0.14285714       0.023
   0.42857143  0.14285714  0.14285714       0.023
   0.00000000  0.28571429  0.14285714       0.012
   0.14285714  0.28571429  0.14285714       0.023
   0.28571429  0.28571429  0.14285714       0.023
   0.42857143  0.28571429  0.14285714       0.023
   0.00000000  0.42857143  0.14285714       0.012
   0.14285714  0.42857143  0.14285714       0.023
   0.28571429  0.42857143  0.14285714       0.023
   0.42857143  0.42857143  0.14285714       0.023
   0.00000000  0.00000000  0.28571429       0.006
   0.14285714  0.00000000  0.28571429       0.012
   0.28571429  0.00000000  0.28571429       0.012
   0.42857143  0.00000000  0.28571429       0.012
   0.00000000  0.14285714  0.28571429       0.012
   0.14285714  0.14285714  0.28571429       0.023
   0.28571429  0.14285714  0.28571429       0.023
   0.42857143  0.14285714  0.28571429       0.023
   0.00000000  0.28571429  0.28571429       0.012
   0.14285714  0.28571429  0.28571429       0.023
   0.28571429  0.28571429  0.28571429       0.023
   0.42857143  0.28571429  0.28571429       0.023
   0.00000000  0.42857143  0.28571429       0.012
   0.14285714  0.42857143  0.28571429       0.023
   0.28571429  0.42857143  0.28571429       0.023
   0.42857143  0.42857143  0.28571429       0.023
   0.00000000  0.00000000  0.42857143       0.006
   0.14285714  0.00000000  0.42857143       0.012
   0.28571429  0.00000000  0.42857143       0.012
   0.42857143  0.00000000  0.42857143       0.012
   0.00000000  0.14285714  0.42857143       0.012
   0.14285714  0.14285714  0.42857143       0.023
   0.28571429  0.14285714  0.42857143       0.023
   0.42857143  0.14285714  0.42857143       0.023
   0.00000000  0.28571429  0.42857143       0.012
   0.14285714  0.28571429  0.42857143       0.023
   0.28571429  0.28571429  0.42857143       0.023
   0.42857143  0.28571429  0.42857143       0.023
   0.00000000  0.42857143  0.42857143       0.012
   0.14285714  0.42857143  0.42857143       0.023
   0.28571429  0.42857143  0.42857143       0.023
   0.42857143  0.42857143  0.42857143       0.023

 position of ions in fractional coordinates (direct lattice) 
   0.00000000  0.00000000  0.00000000
   0.50000000  0.50000000  0.50000000

 position of ions in cartesian coordinates  (Angst):
   0.00000000  0.00000000  0.00000000
   1.64433558  1.67755449  1.66094504



--------------------------------------------------------------------------------------------------------


 k-point   1 :   0.0000 0.0000 0.0000  plane waves:     997
 k-point   2 :   0.1429 0.0000 0.0000  plane waves:     984
 k-point   3 :   0.2857 0.0000 0.0000  plane waves:     972
 k-point   4 :   0.4286 0.0000 0.0000  plane waves:     994
 k-point   5 :   0.0000 0.1429 0.0000  plane waves:     985
 k-point   6 :   0.1429 0.1429 0.0000  plane waves:     984
 k-point   7 :   0.2857 0.1429 0.0000  plane waves:     991
 k-point   8 :   0.4286 0.1429 0.0000  plane waves:     988
 k-point   9 :   0.0000 0.2857 0.0000  plane waves:     986
 k-point  10 :   0.1429 0.2857 0.0000  plane waves:     984
 k-point  11 :   0.2857 0.2857 0.0000  plane waves:     990
 k-point  12 :   0.4286 0.2857 0.0000  plane waves:     987
 k-point  13 :   0.0000 0.4286 0.0000  plane waves:     998
 k-point  14 :   0.1429 0.4286 0.0000  plane waves:     987
 k-point  15 :   0.2857 0.4286 0.0000  plane waves:     981
 k-point  16 :   0.4286 0.4286 0.0000  plane waves:     987
 k-point  17 :   0.0000 0.0000 0.1429  plane waves:     981
 k-point  18 :   0.1429 0.0000 0.1429  plane waves:     983
 k-point  19 :   0.2857 0.0000 0.1429  plane waves:     984
 k-point  20 :   0.4286 0.0000 0.1429  plane waves:     983
 k-point  21 :   0.0000 0.1429 0.1429  plane waves:     981
 k-point  22 :   0.1429 0.1429 0.1429  plane waves:     981
 k-point  23 :   0.2857 0.1429 0.1429  plane waves:     986
 k-point  24 :   0.4286 0.1429 0.1429  plane waves:     988
 k-point  25 :   0.0000 0.2857 0.1429  plane waves:     987
 k-point  26 :   0.1429 0.2857 0.1429  plane waves:     986
 k-point  27 :   0.2857 0.2857 0.1429  plane waves:     985
 k-point  28 :   0.4286 0.2857 0.1429  plane waves:     988
 k-point  29 :   0.0000 0.4286 0.1429  plane waves:     988
 k-point  30 :   0.1429 0.4286 0.1429  plane waves:     984
 k-point  31 :   0.2857 0.4286 0.1429  plane waves:     989
 k-point  32 :   0.4286 0.4286 0.1429  plane waves:     986
 k-point  33 :   0.0000 0.0000 0.2857  plane waves:     988
 k-point  34 :   0.1429 0.0000 0.2857  plane waves:     986
 k-point  35 :   0.2857 0.0000 0.2857  plane waves:     986
 k-point  36 :   0.4286 0.0000 0.2857  plane waves:     989
 k-point  37 :   0.0000 0.1429 0.2857  plane waves:     994
 k-point  38 :   0.1429 0.1429 0.2857  plane waves:     988
 k-point  39 :   0.2857 0.1429 0.2857  plane waves:     989
 k-point  40 :   0.4286 0.1429 0.2857  plane waves:     987
 k-point  41 :   0.0000 0.2857 0.2857  plane waves:     983
 k-point  42 :   0.1429 0.2857 0.2857  plane waves:     986
 k-point  43 :   0.2857 0.2857 0.2857  plane waves:     987
 k-point  44 :   0.4286 0.2857 0.2857  plane waves:     990
 k-point  45 :   0.0000 0.4286 0.2857  plane waves:     975
 k-point  46 :   0.1429 0.4286 0.2857  plane waves:     983
 k-point  47 :   0.2857 0.4286 0.2857  plane waves:     986
 k-point  48 :   0.4286 0.4286 0.2857  plane waves:     994
 k-point  49 :   0.0000 0.0000 0.4286  plane waves:     986
 k-point  50 :   0.1429 0.0000 0.4286  plane waves:     988
 k-point  51 :   0.2857 0.0000 0.4286  plane waves:     989
 k-point  52 :   0.4286 0.0000 0.4286  plane waves:    1007
 k-point  53 :   0.0000 0.1429 0.4286  plane waves:     982
 k-point  54 :   0.1429 0.1429 0.4286  plane waves:     984
 k-point  55 :   0.2857 0.1429 0.4286  plane waves:     988
 k-point  56 :   0.4286 0.1429 0.4286  plane waves:     993
 k-point  57 :   0.0000 0.2857 0.4286  plane waves:     979
 k-point  58 :   0.1429 0.2857 0.4286  plane waves:     989
 k-point  59 :   0.2857 0.2857 0.4286  plane waves:     985
 k-point  60 :   0.4286 0.2857 0.4286  plane waves:     987
 k-point  61 :   0.0000 0.4286 0.4286  plane waves:     986
 k-point  62 :   0.1429 0.4286 0.4286  plane waves:     990
 k-point  63 :   0.2857 0.4286 0.4286  plane waves:     993
 k-point  64 :   0.4286 0.4286 0.4286  plane waves:     992

 maximum and minimum number of plane-waves per node :      1007      972

 maximum number of plane-waves:      1007
 maximum index in each direction: 
   IXMAX=    6   IYMAX=    6   IZMAX=    6
   IXMIN=   -6   IYMIN=   -6   IZMIN=   -6


 serial   3D FFT for wavefunctions
 parallel 3D FFT for charge:
    minimum data exchange during FFTs selected (reduces bandwidth)


 total amount of memory used by VASP MPI-rank0    87594. kBytes
=======================================================================

   base      :      30000. kBytes
   nonlr-proj:       5386. kBytes
   fftplans  :       5304. kBytes
   grid      :      12665. kBytes
   one-center:         62. kBytes
   wavefun   :      34177. kBytes

     INWAV:  cpu time      0.0001: real time      0.0001
 Broyden mixing: mesh for mixing (old mesh)
   NGX = 13   NGY = 13   NGZ = 13
  (NGX  = 48   NGY  = 56   NGZ  = 56)
  gives a total of   2197 points

 initial charge density was supplied:
 charge density of overlapping atoms calculated
 number of electron      22.0000000 magnetization       1.2000000
 keeping initial charge density in first step


--------------------------------------------------------------------------------------------------------


 Maximum index for non-local projection operator          978
 Maximum index for augmentation-charges        30683 (set IRDMAX)


--------------------------------------------------------------------------------------------------------


 First call to EWALD:  gamma=   0.534
 Maximum number of real-space cells 3x 3x 3
 Maximum number of reciprocal cells 3x 3x 3

    FEWALD:  cpu time      0.1554: real time      0.0087


--------------------------------------- Ionic step        1  -------------------------------------------




--------------------------------------- Iteration      1(   1)  ---------------------------------------


    POTLOK:  cpu time      1.4433: real time      0.1060
    SETDIJ:  cpu time      1.0589: real time      0.2537
     EDDAV:  cpu time    368.2681: real time     20.6660
 BZINTS: Fermi energy:   23.249585;   22.000000 electrons
         Band energy:-0.315786E+02;  BLOECHL correction:   -0.757057
       DOS:  cpu time      0.2245: real time      0.0527
    --------------------------------------------
      LOOP:  cpu time    370.9948: real time     21.0784

 eigenvalue-minimisations  :  4480
 total energy-change (2. order) : 0.1984484E+03  (-0.1169539E+04)
 number of electron      22.0000000 magnetization       1.2000000
 augmentation part       22.0000000 magnetization       1.2000000

 Free energy of the ion-electron system (eV)
  ---------------------------------------------------
  alpha Z        PSCENC =       247.02244180
  Ewald energy   TEWEN  =     -1908.87812676
  -Hartree energ DENC   =      -279.42445411
  -exchange      EXHF   =         0.00000000
  -V(xc)+E(xc)   XCENC  =        52.61736041
  PAW double counting   =      1671.32378679    -1639.41528309
  entropy T*S    EENTRO =         0.00000000
  eigenvalues    EBANDS =       -31.57855946
  atomic energy  EATOM  =      2086.78124273
  Solvation  Ediel_sol  =         0.00000000
  ---------------------------------------------------
  free energy    TOTEN  =       198.44840830 eV

  energy without entropy =      198.44840830  energy(sigma->0) =      198.44840830


--------------------------------------------------------------------------------------------------------




--------------------------------------- Iteration      1(   2)  ---------------------------------------


     EDDAV:  cpu time    353.1068: real time     20.0331
 BZINTS: Fermi energy:    6.988501;   22.000000 electrons
         Band energy:-0.241252E+03;  BLOECHL correction:   -0.358068
       DOS:  cpu time      0.3446: real time      0.0522
    --------------------------------------------
      LOOP:  cpu time    353.4514: real time     20.0852

 eigenvalue-minimisations  :  4432
 total energy-change (2. order) :-0.2096731E+03  (-0.2073802E+03)
 number of electron      22.0000000 magnetization       1.2000000
 augmentation part       22.0000000 magnetization       1.2000000

 Free energy of the ion-electron system (eV)
  ---------------------------------------------------
  alpha Z        PSCENC =       247.02244180
  Ewald energy   TEWEN  =     -1908.87812676
  -Hartree energ DENC   =      -279.42445411
  -exchange      EXHF   =         0.00000000
  -V(xc)+E(xc)   XCENC  =        52.61736041
  PAW double counting   =      1671.32378679    -1639.41528309
  entropy T*S    EENTRO =         0.00000000
  eigenvalues    EBANDS =      -241.25162566
  atomic energy  EATOM  =      2086.78124273
  Solvation  Ediel_sol  =         0.00000000
  ---------------------------------------------------
  free energy    TOTEN  =       -11.22465790 eV

  energy without entropy =      -11.22465790  energy(sigma->0) =      -11.22465790


--------------------------------------------------------------------------------------------------------




--------------------------------------- Iteration      1(   3)  ---------------------------------------


     EDDAV:  cpu time    475.4141: real time     27.0185
 BZINTS: Fermi energy:    5.464025;   22.000000 electrons
         Band energy:-0.251027E+03;  BLOECHL correction:   -0.210322
       DOS:  cpu time      0.3304: real time      0.0516
    --------------------------------------------
      LOOP:  cpu time    475.7446: real time     27.0701

 eigenvalue-minimisations  :  6792
 total energy-change (2. order) :-0.9775024E+01  (-0.9284870E+01)
 number of electron      22.0000000 magnetization       1.2000000
 augmentation part       22.0000000 magnetization       1.2000000

 Free energy of the ion-electron system (eV)
  ---------------------------------------------------
  alpha Z        PSCENC =       247.02244180
  Ewald energy   TEWEN  =     -1908.87812676
  -Hartree energ DENC   =      -279.42445411
  -exchange      EXHF   =         0.00000000
  -V(xc)+E(xc)   XCENC  =        52.61736041
  PAW double counting   =      1671.32378679    -1639.41528309
  entropy T*S    EENTRO =         0.00000000
  eigenvalues    EBANDS =      -251.02664998
  atomic energy  EATOM  =      2086.78124273
  Solvation  Ediel_sol  =         0.00000000
  ---------------------------------------------------
  free energy    TOTEN  =       -20.99968221 eV

  energy without entropy =      -20.99968221  energy(sigma->0) =      -20.99968221


--------------------------------------------------------------------------------------------------------




--------------------------------------- Iteration      1(   4)  ---------------------------------------


     EDDAV:  cpu time    394.6631: real time     22.2121
 BZINTS: Fermi energy:    5.444225;   22.000000 electrons
         Band energy:-0.251172E+03;  BLOECHL correction:   -0.208826
       DOS:  cpu time      0.2531: real time      0.0546
    --------------------------------------------
      LOOP:  cpu time    394.9161: real time     22.2667

 eigenvalue-minimisations  :  5064
 total energy-change (2. order) :-0.1457607E+00  (-0.1442466E+00)
 number of electron      22.0000000 magnetization       1.2000000
 augmentation part       22.0000000 magnetization       1.2000000

 Free energy of the ion-electron system (eV)
  ---------------------------------------------------
  alpha Z        PSCENC =       247.02244180
  Ewald energy   TEWEN  =     -1908.87812676
  -Hartree energ DENC   =      -279.42445411
  -exchange      EXHF   =         0.00000000
  -V(xc)+E(xc)   XCENC  =        52.61736041
  PAW double counting   =      1671.32378679    -1639.41528309
  entropy T*S    EENTRO =         0.00000000
  eigenvalues    EBANDS =      -251.17241064
  atomic energy  EATOM  =      2086.78124273
  Solvation  Ediel_sol  =         0.00000000
  ---------------------------------------------------
  free energy    TOTEN  =       -21.14544288 eV

  energy without entropy =      -21.14544288  energy(sigma->0) =      -21.14544288


--------------------------------------------------------------------------------------------------------




--------------------------------------- Iteration      1(   5)  ---------------------------------------


     EDDAV:  cpu time    568.8376: real time     31.2817
 BZINTS: Fermi energy:    5.443431;   22.000000 electrons
         Band energy:-0.251176E+03;  BLOECHL correction:   -0.208644
       DOS:  cpu time      0.3327: real time      0.0516
    CHARGE:  cpu time     31.9172: real time      1.7657
    MIXING:  cpu time      0.1611: real time      0.0068
    --------------------------------------------
      LOOP:  cpu time    601.2486: real time     33.1058

 eigenvalue-minimisations  :  6472
 total energy-change (2. order) :-0.3885224E-02  (-0.3885550E-02)
 number of electron      21.9999998 magnetization       0.3472513
 augmentation part        7.7576381 magnetization      -0.0552118

 Broyden mixing:
  rms(total) = 0.23997E+01    rms(broyden)= 0.23997E+01
  rms(prec ) = 0.28173E+01
  weight for this iteration     100.00

 Free energy of the ion-electron system (eV)
  ---------------------------------------------------
  alpha Z        PSCENC =       247.02244180
  Ewald energy   TEWEN  =     -1908.87812676
  -Hartree energ DENC   =      -279.42445411
  -exchange      EXHF   =         0.00000000
  -V(xc)+E(xc)   XCENC  =        52.61736041
  PAW double counting   =      1671.32378679    -1639.41528309
  entropy T*S    EENTRO =         0.00000000
  eigenvalues    EBANDS =      -251.17629586
  atomic energy  EATOM  =      2086.78124273
  Solvation  Ediel_sol  =         0.00000000
  ---------------------------------------------------
  free energy    TOTEN  =       -21.14932810 eV

  energy without entropy =      -21.14932810  energy(sigma->0) =      -21.14932810


--------------------------------------------------------------------------------------------------------




--------------------------------------- Iteration      1(   6)  ---------------------------------------


    POTLOK:  cpu time      1.2557: real time      0.0983
    SETDIJ:  cpu time      1.0351: real time      0.2539
    EDDIAG:  cpu time    123.8767: real time      6.6828
  RMM-DIIS:  cpu time    290.9997: real time     15.7203
    ORTHCH:  cpu time      1.2708: real time      0.0770
 BZINTS: Fermi energy:    5.093592;   22.000000 electrons
         Band energy:-0.265214E+03;  BLOECHL correction:   -0.210453
       DOS:  cpu time      0.3017: real time      0.0506
    CHARGE:  cpu time     32.6063: real time      1.7758
    MIXING:  cpu time      0.0013: real time      0.0013
    --------------------------------------------
      LOOP:  cpu time    451.3471: real time     24.6599

 eigenvalue-minimisations  :  4495
 total energy-change (2. order) : 0.8044554E+00  (-0.8025089E-01)
 number of electron      21.9999998 magnetization       0.1572455
 augmentation part        7.8847751 magnetization      -0.0556325

 Broyden mixing:
  rms(total) = 0.91258E+00    rms(broyden)= 0.91258E+00
  rms(prec ) = 0.11907E+01
  weight for this iteration     100.00

 eigenvalues of (default mixing * dielectric matrix)
  average eigenvalue GAMMA=   1.5003
  1.5003

 Free energy of the ion-electron system (eV)
  ---------------------------------------------------
  alpha Z        PSCENC =       247.02244180
  Ewald energy   TEWEN  =     -1908.87812676
  -Hartree energ DENC   =      -260.07227668
  -exchange      EXHF   =         0.00000000
  -V(xc)+E(xc)   XCENC  =        51.60220551
  PAW double counting   =      2186.65628323    -2158.24223525
  entropy T*S    EENTRO =         0.00000000
  eigenvalues    EBANDS =      -265.21440730
  atomic energy  EATOM  =      2086.78124273
  Solvation  Ediel_sol  =         0.00000000
  ---------------------------------------------------
  free energy    TOTEN  =       -20.34487272 eV

  energy without entropy =      -20.34487272  energy(sigma->0) =      -20.34487272


--------------------------------------------------------------------------------------------------------




--------------------------------------- Iteration      1(   7)  ---------------------------------------


    POTLOK:  cpu time      1.1382: real time      0.0999
    SETDIJ:  cpu time      1.0118: real time      0.2466
    EDDIAG:  cpu time     72.4090: real time      4.1394
  RMM-DIIS:  cpu time    490.0491: real time     24.8539
    ORTHCH:  cpu time      2.4641: real time      0.1394
 BZINTS: Fermi energy:    4.799605;   22.000000 electrons
         Band energy:-0.276986E+03;  BLOECHL correction:   -0.208672
       DOS:  cpu time      0.2708: real time      0.0539
    CHARGE:  cpu time     37.6980: real time      2.0268
    MIXING:  cpu time      0.0013: real time      0.0013
    --------------------------------------------
      LOOP:  cpu time    605.0424: real time     31.5612

 eigenvalue-minimisations  :  5581
 total energy-change (2. order) : 0.1465499E+00  (-0.2148581E+00)
 number of electron      21.9999998 magnetization       0.0371075
 augmentation part        8.0572352 magnetization       0.0363482

 Broyden mixing:
  rms(total) = 0.24633E+00    rms(broyden)= 0.24633E+00
  rms(prec ) = 0.26423E+00
  weight for this iteration     100.00

 eigenvalues of (default mixing * dielectric matrix)
  average eigenvalue GAMMA=   1.0742
  1.6156  0.5328

 Free energy of the ion-electron system (eV)
  ---------------------------------------------------
  alpha Z        PSCENC =       247.02244180
  Ewald energy   TEWEN  =     -1908.87812676
  -Hartree energ DENC   =      -244.35683192
  -exchange      EXHF   =         0.00000000
  -V(xc)+E(xc)   XCENC  =        50.82102006
  PAW double counting   =      2616.62472686    -2591.22630388
  entropy T*S    EENTRO =         0.00000000
  eigenvalues    EBANDS =      -276.98649170
  atomic energy  EATOM  =      2086.78124273
  Solvation  Ediel_sol  =         0.00000000
  ---------------------------------------------------
  free energy    TOTEN  =       -20.19832281 eV

  energy without entropy =      -20.19832281  energy(sigma->0) =      -20.19832281


--------------------------------------------------------------------------------------------------------




--------------------------------------- Iteration      1(   8)  ---------------------------------------


    POTLOK:  cpu time      1.2154: real time      0.1051
    SETDIJ:  cpu time      1.2086: real time      0.2675
    EDDIAG:  cpu time     73.8084: real time      4.2180
  RMM-DIIS:  cpu time    303.2567: real time     16.8042
    ORTHCH:  cpu time      1.4451: real time      0.0862
 BZINTS: Fermi energy:    4.810419;   22.000000 electrons
         Band energy:-0.276456E+03;  BLOECHL correction:   -0.208721
       DOS:  cpu time      0.2933: real time      0.0539
    CHARGE:  cpu time     26.2004: real time      1.4764
    MIXING:  cpu time      0.0018: real time      0.0018
    --------------------------------------------
      LOOP:  cpu time    407.4298: real time     23.0131

 eigenvalue-minimisations  :  5930
 total energy-change (2. order) :-0.1120113E-01  (-0.1064378E-01)
 number of electron      21.9999998 magnetization       0.0228813
 augmentation part        8.0640414 magnetization       0.0156675

 Broyden mixing:
  rms(total) = 0.11809E+00    rms(broyden)= 0.11809E+00
  rms(prec ) = 0.14593E+00
  weight for this iteration     100.00

 eigenvalues of (default mixing * dielectric matrix)
  average eigenvalue GAMMA=   1.0681
  1.8342  0.6850  0.6850

 Free energy of the ion-electron system (eV)
  ---------------------------------------------------
  alpha Z        PSCENC =       247.02244180
  Ewald energy   TEWEN  =     -1908.87812676
  -Hartree energ DENC   =      -244.69040877
  -exchange      EXHF   =         0.00000000
  -V(xc)+E(xc)   XCENC  =        50.83073537
  PAW double counting   =      2664.79315345    -2639.61280931
  entropy T*S    EENTRO =         0.00000000
  eigenvalues    EBANDS =      -276.45575246
  atomic energy  EATOM  =      2086.78124273
  Solvation  Ediel_sol  =         0.00000000
  ---------------------------------------------------
  free energy    TOTEN  =       -20.20952394 eV

  energy without entropy =      -20.20952394  energy(sigma->0) =      -20.20952394


--------------------------------------------------------------------------------------------------------




--------------------------------------- Iteration      1(   9)  ---------------------------------------


    POTLOK:  cpu time      1.5496: real time      0.1113
    SETDIJ:  cpu time      1.1070: real time      0.2778
    EDDIAG:  cpu time     89.2955: real time      4.9586
  RMM-DIIS:  cpu time    322.4043: real time     17.6292
    ORTHCH:  cpu time      1.3288: real time      0.0849
 BZINTS: Fermi energy:    4.819285;   22.000000 electrons
         Band energy:-0.276039E+03;  BLOECHL correction:   -0.208813
       DOS:  cpu time      0.3494: real time      0.0500
    CHARGE:  cpu time     27.6377: real time      1.5488
    MIXING:  cpu time      0.0013: real time      0.0013
    --------------------------------------------
      LOOP:  cpu time    443.6736: real time     24.6619

 eigenvalue-minimisations  :  5908
 total energy-change (2. order) : 0.1412796E-03  (-0.2388441E-02)
 number of electron      21.9999998 magnetization       0.0179214
 augmentation part        8.0642456 magnetization       0.0154597

 Broyden mixing:
  rms(total) = 0.95988E-01    rms(broyden)= 0.95988E-01
  rms(prec ) = 0.12220E+00
  weight for this iteration     100.00

 eigenvalues of (default mixing * dielectric matrix)
  average eigenvalue GAMMA=   1.0926
  2.0887  0.8397  0.8397  0.6022

 Free energy of the ion-electron system (eV)
  ---------------------------------------------------
  alpha Z        PSCENC =       247.02244180
  Ewald energy   TEWEN  =     -1908.87812676
  -Hartree energ DENC   =      -245.04752093
  -exchange      EXHF   =         0.00000000
  -V(xc)+E(xc)   XCENC  =        50.84730254
  PAW double counting   =      2705.31757584    -2680.21334082
  entropy T*S    EENTRO =         0.00000000
  eigenvalues    EBANDS =      -276.03895706
  atomic energy  EATOM  =      2086.78124273
  Solvation  Ediel_sol  =         0.00000000
  ---------------------------------------------------
  free energy    TOTEN  =       -20.20938266 eV

  energy without entropy =      -20.20938266  energy(sigma->0) =      -20.20938266


--------------------------------------------------------------------------------------------------------




--------------------------------------- Iteration      1(  10)  ---------------------------------------


    POTLOK:  cpu time      1.1928: real time      0.1009
    SETDIJ:  cpu time      1.0572: real time      0.2478
    EDDIAG:  cpu time     79.6997: real time      4.4422
  RMM-DIIS:  cpu time    276.1979: real time     15.0708
    ORTHCH:  cpu time      2.1636: real time      0.1214
 BZINTS: Fermi energy:    4.840757;   22.000000 electrons
         Band energy:-0.275085E+03;  BLOECHL correction:   -0.209014
       DOS:  cpu time      0.2599: real time      0.0480
    CHARGE:  cpu time     32.4355: real time      1.7978
    MIXING:  cpu time      0.1219: real time      0.0033
    --------------------------------------------
      LOOP:  cpu time    393.1285: real time     21.8321

 eigenvalue-minimisations  :  4740
 total energy-change (2. order) : 0.3486174E-02  (-0.5811402E-03)
 number of electron      21.9999998 magnetization      -0.0066147
 augmentation part        8.0559182 magnetization      -0.0029316

 Broyden mixing:
  rms(total) = 0.67774E-01    rms(broyden)= 0.67774E-01
  rms(prec ) = 0.75137E-01
  weight for this iteration     100.00

 eigenvalues of (default mixing * dielectric matrix)
  average eigenvalue GAMMA=   1.3570
  2.6445  1.3749  1.3749  0.6306  0.7602

 Free energy of the ion-electron system (eV)
  ---------------------------------------------------
  alpha Z        PSCENC =       247.02244180
  Ewald energy   TEWEN  =     -1908.87812676
  -Hartree energ DENC   =      -245.98143465
  -exchange      EXHF   =         0.00000000
  -V(xc)+E(xc)   XCENC  =        50.89183020
  PAW double counting   =      2782.48917454    -2757.44597978
  entropy T*S    EENTRO =         0.00000000
  eigenvalues    EBANDS =      -275.08504457
  atomic energy  EATOM  =      2086.78124273
  Solvation  Ediel_sol  =         0.00000000
  ---------------------------------------------------
  free energy    TOTEN  =       -20.20589649 eV

  energy without entropy =      -20.20589649  energy(sigma->0) =      -20.20589649


--------------------------------------------------------------------------------------------------------




--------------------------------------- Iteration      1(  11)  ---------------------------------------


    POTLOK:  cpu time      1.0651: real time      0.0943
    SETDIJ:  cpu time      1.0529: real time      0.2561
    EDDIAG:  cpu time     82.3415: real time      4.6236
  RMM-DIIS:  cpu time    305.7349: real time     16.6501
    ORTHCH:  cpu time      2.0372: real time      0.1172
 BZINTS: Fermi energy:    4.852427;   22.000000 electrons
         Band energy:-0.274558E+03;  BLOECHL correction:   -0.209122
       DOS:  cpu time      0.2766: real time      0.0523
    CHARGE:  cpu time     25.3582: real time      1.4560
    MIXING:  cpu time      0.0019: real time      0.0019
    --------------------------------------------
      LOOP:  cpu time    417.8683: real time     23.2516

 eigenvalue-minimisations  :  5387
 total energy-change (2. order) :-0.2653745E-04  (-0.5407564E-03)
 number of electron      21.9999998 magnetization      -0.0046804
 augmentation part        8.0492490 magnetization      -0.0003127

 Broyden mixing:
  rms(total) = 0.36691E-02    rms(broyden)= 0.36691E-02
  rms(prec ) = 0.45385E-02
  weight for this iteration     100.00

 eigenvalues of (default mixing * dielectric matrix)
  average eigenvalue GAMMA=   1.2736
  2.5876  1.4527  1.4527  0.7922  0.6246  0.7316

 Free energy of the ion-electron system (eV)
  ---------------------------------------------------
  alpha Z        PSCENC =       247.02244180
  Ewald energy   TEWEN  =     -1908.87812676
  -Hartree energ DENC   =      -246.45488102
  -exchange      EXHF   =         0.00000000
  -V(xc)+E(xc)   XCENC  =        50.91412897
  PAW double counting   =      2860.13807509    -2835.17033223
  entropy T*S    EENTRO =         0.00000000
  eigenvalues    EBANDS =      -274.55847160
  atomic energy  EATOM  =      2086.78124273
  Solvation  Ediel_sol  =         0.00000000
  ---------------------------------------------------
  free energy    TOTEN  =       -20.20592303 eV

  energy without entropy =      -20.20592303  energy(sigma->0) =      -20.20592303


--------------------------------------------------------------------------------------------------------




--------------------------------------- Iteration      1(  12)  ---------------------------------------


    POTLOK:  cpu time      2.0071: real time      0.1395
    SETDIJ:  cpu time      0.9779: real time      0.2472
    EDDIAG:  cpu time     77.4128: real time      4.3780
  RMM-DIIS:  cpu time    216.9081: real time     11.9235
    ORTHCH:  cpu time      1.5899: real time      0.0954
 BZINTS: Fermi energy:    4.852696;   22.000000 electrons
         Band energy:-0.274547E+03;  BLOECHL correction:   -0.209124
       DOS:  cpu time      0.3181: real time      0.0535
    --------------------------------------------
      LOOP:  cpu time    299.2138: real time     16.8370

 eigenvalue-minimisations  :  3869
 total energy-change (2. order) :-0.7303894E-04  (-0.5919117E-04)
 number of electron      21.9999998 magnetization      -0.0046804
 augmentation part        8.0492490 magnetization      -0.0003127

 Free energy of the ion-electron system (eV)
  ---------------------------------------------------
  alpha Z        PSCENC =       247.02244180
  Ewald energy   TEWEN  =     -1908.87812676
  -Hartree energ DENC   =      -246.48425159
  -exchange      EXHF   =         0.00000000
  -V(xc)+E(xc)   XCENC  =        50.91555745
  PAW double counting   =      2859.28494666    -2834.30067804
  entropy T*S    EENTRO =         0.00000000
  eigenvalues    EBANDS =      -274.54712830
  atomic energy  EATOM  =      2086.78124273
  Solvation  Ediel_sol  =         0.00000000
  ---------------------------------------------------
  free energy    TOTEN  =       -20.20599607 eV

  energy without entropy =      -20.20599607  energy(sigma->0) =      -20.20599607


--------------------------------------------------------------------------------------------------------




 average (electrostatic) potential at core
  the test charge radii are     1.2125
  (the norm of the test charge is              1.0000)
       1 -35.1717       2 -35.1717



 E-fermi :   4.8527     XC(G=0): -12.3455     alpha+bet :-12.7651

 Fermi energy:         4.8526957188

 spin component 1

 k-point     1 :       0.0000    0.0000    0.0000
  band No.  band energies     occupation 
      1     -25.8117      1.00000
      2     -25.7865      1.00000
      3     -25.7608      1.00000
      4     -24.9077      1.00000
      5     -24.9077      1.00000
      6     -24.9068      1.00000
      7      -1.0612      1.00000
      8       1.1854      1.00000
      9       1.2290      1.00000
     10       5.0911     -0.02648
     11       5.2028     -0.02148
     12       5.3090      0.00000
     13       7.9176      0.00000
     14       8.1717      0.00000
     15      10.2818      0.00000
     16      10.3453      0.00000

 k-point     2 :       0.1429    0.0000    0.0000
  band No.  band energies     occupation 
      1     -25.7698      1.00000
      2     -25.7652      1.00000
      3     -25.7412      1.00000
      4     -25.0050      1.00000
      5     -24.9503      1.00000
      6     -24.9490      1.00000
      7      -0.6433      1.00000
      8       1.4199      1.00000
      9       1.5787      1.00000
     10       5.1519      0.06611
     11       5.2554     -0.04141
     12       5.2878      0.00000
     13       7.5730      0.00000
     14       8.1743      0.00000
     15       9.0861      0.00000
     16       9.1108      0.00000

 k-point     3 :       0.2857    0.0000    0.0000
  band No.  band energies     occupation 
      1     -25.7671      1.00000
      2     -25.6358      1.00000
      3     -25.6150      1.00000
      4     -25.2447      1.00000
      5     -25.0712      1.00000
      6     -25.0661      1.00000
      7       0.4696      1.00000
      8       2.1050      1.00000
      9       2.3568      1.00000
     10       5.1344      0.50049
     11       5.2308     -0.06753
     12       5.8623      0.00000
     13       6.2095      0.00000
     14       7.4025      0.00000
     15       7.4599      0.00000
     16       8.7730      0.00000

 k-point     4 :       0.4286    0.0000    0.0000
  band No.  band energies     occupation 
      1     -25.6914      1.00000
      2     -25.5068      1.00000
      3     -25.4510      1.00000
      4     -25.4350      1.00000
      5     -25.2492      1.00000
      6     -25.2389      1.00000
      7       1.8437      1.00000
      8       2.6789      1.00000
      9       3.2039      1.00000
     10       4.6315      0.98850
     11       5.4044     -0.10761
     12       5.4908      0.00000
     13       6.1414      0.00000
     14       6.2155      0.00000
     15       6.7631      0.00000
     16       7.8877      0.00000

 k-point     5 :       0.0000    0.1429    0.0000
  band No.  band energies     occupation 
      1     -25.8095      1.00000
      2     -25.7421      1.00000
      3     -25.7175      1.00000
      4     -24.9993      1.00000
      5     -24.9500      1.00000
      6     -24.9478      1.00000
      7      -0.6597      1.00000
      8       1.4475      1.00000
      9       1.5153      1.00000
     10       5.0807      0.11453
     11       5.1894     -0.03279
     12       5.4957      0.00000
     13       7.3711      0.00000
     14       8.3343      0.00000
     15       9.2016      0.00000
     16       9.2236      0.00000

 k-point     6 :       0.1429    0.1429    0.0000
  band No.  band energies     occupation 
      1     -25.8658      1.00000
      2     -25.7005      1.00000
      3     -25.6301      1.00000
      4     -25.1660      1.00000
      5     -24.9863      1.00000
      6     -24.9095      1.00000
      7      -0.2803      1.00000
      8       1.6705      1.00000
      9       1.8523      1.00000
     10       4.7441      0.85299
     11       5.0404      0.12389
     12       5.9956     -0.00603
     13       7.5468      0.00000
     14       7.9134      0.00000
     15       8.0908      0.00000
     16       8.1955      0.00000

 k-point     7 :       0.2857    0.1429    0.0000
  band No.  band energies     occupation 
      1     -25.9073      1.00000
      2     -25.5849      1.00000
      3     -25.4752      1.00000
      4     -25.4363      1.00000
      5     -25.0900      1.00000
      6     -24.9678      1.00000
      7       0.6943      1.00000
      8       2.1972      1.00000
      9       2.6692      1.00000
     10       4.4995      1.00869
     11       4.8153      0.75535
     12       6.3871     -0.05186
     13       6.8219      0.00000
     14       6.8774      0.00000
     15       6.9041      0.00000
     16       8.5814      0.00000

 k-point     8 :       0.4286    0.1429    0.0000
  band No.  band energies     occupation 
      1     -25.8611      1.00000
      2     -25.6956      1.00000
      3     -25.4211      1.00000
      4     -25.2908      1.00000
      5     -25.2443      1.00000
      6     -25.1084      1.00000
      7       1.8161      1.00000
      8       2.4959      1.00000
      9       3.4716      1.00000
     10       4.3696      1.00243
     11       4.6325      0.94315
     12       5.2558     -0.03055
     13       6.3313      0.00000
     14       6.4100      0.00000
     15       7.8449      0.00000
     16       8.9897      0.00000

 k-point     9 :       0.0000    0.2857    0.0000
  band No.  band energies     occupation 
      1     -25.7807      1.00000
      2     -25.6180      1.00000
      3     -25.5966      1.00000
      4     -25.2263      1.00000
      5     -25.0693      1.00000
      6     -25.0634      1.00000
      7       0.4151      1.00000
      8       2.1050      1.00000
      9       2.2417      1.00000
     10       5.1521      0.42279
     11       5.2531     -0.14027
     12       6.0407      0.00000
     13       6.0505      0.00000
     14       7.5620      0.00000
     15       7.6196      0.00000
     16       8.7608      0.00000

 k-point    10 :       0.1429    0.2857    0.0000
  band No.  band energies     occupation 
      1     -25.9036      1.00000
      2     -25.5870      1.00000
      3     -25.4612      1.00000
      4     -25.4254      1.00000
      5     -25.0922      1.00000
      6     -24.9608      1.00000
      7       0.6620      1.00000
      8       2.1827      1.00000
      9       2.6103      1.00000
     10       4.5038      1.01412
     11       4.8331      0.74120
     12       6.4291     -0.05172
     13       6.8319      0.00000
     14       6.8867      0.00000
     15       6.9879      0.00000
     16       8.5546      0.00000

 k-point    11 :       0.2857    0.2857    0.0000
  band No.  band energies     occupation 
      1     -26.0360      1.00000
      2     -25.7161      1.00000
      3     -25.5020      1.00000
      4     -25.2704      1.00000
      5     -25.1589      1.00000
      6     -24.9147      1.00000
      7       1.1379      1.00000
      8       2.1335      1.00000
      9       3.6398      1.00000
     10       3.8872      1.00000
     11       4.8509      0.86452
     12       5.0575      0.07650
     13       6.4946      0.00000
     14       7.6720      0.00000
     15       8.1249      0.00000
     16       8.3002      0.00000

 k-point    12 :       0.4286    0.2857    0.0000
  band No.  band energies     occupation 
      1     -26.0656      1.00000
      2     -25.9536      1.00000
      3     -25.3844      1.00000
      4     -25.2618      1.00000
      5     -25.0966      1.00000
      6     -24.9680      1.00000
      7       1.5048      1.00000
      8       1.8504      1.00000
      9       3.7283      1.00000
     10       4.1191      1.00000
     11       4.6631      0.78321
     12       5.1561     -0.01085
     13       7.0002      0.00000
     14       7.5207      0.00000
     15       9.0135      0.00000
     16       9.3585      0.00000

 k-point    13 :       0.0000    0.4286    0.0000
  band No.  band energies     occupation 
      1     -25.6796      1.00000
      2     -25.4835      1.00000
      3     -25.4397      1.00000
      4     -25.4231      1.00000
      5     -25.2438      1.00000
      6     -25.2327      1.00000
      7       1.7500      1.00000
      8       2.5540      1.00000
      9       3.1593      1.00000
     10       4.5307      0.99651
     11       5.5068     -0.27465
     12       5.5966      0.00000
     13       6.2943      0.00000
     14       6.3705      0.00000
     15       6.8946      0.00000
     16       7.9588      0.00000

 k-point    14 :       0.1429    0.4286    0.0000
  band No.  band energies     occupation 
      1     -25.8466      1.00000
      2     -25.6775      1.00000
      3     -25.4249      1.00000
      4     -25.2738      1.00000
      5     -25.2482      1.00000
      6     -25.0949      1.00000
      7       1.7687      1.00000
      8       2.4461      1.00000
      9       3.4156      1.00000
     10       4.3145      1.00401
     11       4.6657      0.91390
     12       5.3069     -0.03446
     13       6.4434      0.00000
     14       6.5206      0.00000
     15       7.9332      0.00000
     16       9.0648      0.00000

 k-point    15 :       0.2857    0.4286    0.0000
  band No.  band energies     occupation 
      1     -26.0581      1.00000
      2     -25.9454      1.00000
      3     -25.3861      1.00000
      4     -25.2635      1.00000
      5     -25.0903      1.00000
      6     -24.9623      1.00000
      7       1.5017      1.00000
      8       1.8464      1.00000
      9       3.7445      1.00000
     10       4.1382      1.00000
     11       4.6493      0.79065
     12       5.1256      0.00202
     13       6.9848      0.00000
     14       7.5904      0.00000
     15       8.8414      0.00000
     16       9.4026      0.00000

 k-point    16 :       0.4286    0.4286    0.0000
  band No.  band energies     occupation 
      1     -26.1698      1.00000
      2     -26.1304      1.00000
      3     -25.3373      1.00000
      4     -25.2934      1.00000
      5     -24.9655      1.00000
      6     -24.9191      1.00000
      7       1.2404      1.00000
      8       1.3511      1.00000
      9       3.3002      1.00000
     10       3.4323      1.00000
     11       6.1712     -0.16197
     12       6.5254     -0.06803
     13       7.6818      0.00000
     14       8.0701      0.00000
     15       8.6906      0.00000
     16       9.6657      0.00000

 k-point    17 :       0.0000    0.0000    0.1429
  band No.  band energies     occupation 
      1     -25.7897      1.00000
      2     -25.7657      1.00000
      3     -25.7171      1.00000
      4     -25.0023      1.00000
      5     -24.9509      1.00000
      6     -24.9473      1.00000
      7      -0.6517      1.00000
      8       1.4317      1.00000
      9       1.5484      1.00000
     10       5.0626      0.16785
     11       5.2749     -0.05222
     12       5.3944      0.00000
     13       7.4560      0.00000
     14       8.2704      0.00000
     15       9.1322      0.00000
     16       9.1789      0.00000

 k-point    18 :       0.1429    0.0000    0.1429
  band No.  band energies     occupation 
      1     -25.8541      1.00000
      2     -25.7230      1.00000
      3     -25.6227      1.00000
      4     -25.1655      1.00000
      5     -24.9884      1.00000
      6     -24.9113      1.00000
      7      -0.2721      1.00000
      8       1.6670      1.00000
      9       1.8728      1.00000
     10       4.6789      0.92134
     11       5.1185      0.03891
     12       5.9458     -0.00634
     13       7.6647      0.00000
     14       7.8503      0.00000
     15       8.0022      0.00000
     16       8.1996      0.00000

 k-point    19 :       0.2857    0.0000    0.1429
  band No.  band energies     occupation 
      1     -25.8990      1.00000
      2     -25.6045      1.00000
      3     -25.4673      1.00000
      4     -25.4335      1.00000
      5     -25.0954      1.00000
      6     -24.9686      1.00000
      7       0.7031      1.00000
      8       2.2004      1.00000
      9       2.6810      1.00000
     10       4.4185      1.01810
     11       4.8652      0.64891
     12       6.3133     -0.05338
     13       6.7988      0.00000
     14       6.9354      0.00000
     15       6.9427      0.00000
     16       8.5790      0.00000

 k-point    20 :       0.4286    0.0000    0.1429
  band No.  band energies     occupation 
      1     -25.8548      1.00000
      2     -25.6910      1.00000
      3     -25.4363      1.00000
      4     -25.2853      1.00000
      5     -25.2543      1.00000
      6     -25.1063      1.00000
      7       1.8271      1.00000
      8       2.5068      1.00000
      9       3.4708      1.00000
     10       4.3723      1.00265
     11       4.5483      0.97917
     12       5.1748     -0.02157
     13       6.4224      0.00000
     14       6.4811      0.00000
     15       7.8391      0.00000
     16       8.9980      0.00000

 k-point    21 :       0.0000    0.1429    0.1429
  band No.  band energies     occupation 
      1     -25.8755      1.00000
      2     -25.6774      1.00000
      3     -25.6398      1.00000
      4     -25.1667      1.00000
      5     -24.9835      1.00000
      6     -24.9079      1.00000
      7      -0.2887      1.00000
      8       1.6789      1.00000
      9       1.8259      1.00000
     10       4.8208      0.76632
     11       4.9594      0.27497
     12       6.0406     -0.00579
     13       7.4439      0.00000
     14       7.9769      0.00000
     15       8.1634      0.00000
     16       8.1971      0.00000

 k-point    22 :       0.1429    0.1429    0.1429
  band No.  band energies     occupation 
      1     -25.8276      1.00000
      2     -25.8051      1.00000
      3     -25.4970      1.00000
      4     -25.2978      1.00000
      5     -24.9572      1.00000
      6     -24.9536      1.00000
      7       0.0768      1.00000
      8       2.0043      1.00000
      9       2.0491      1.00000
     10       4.5559      1.01967
     11       4.6749      0.82890
     12       6.4110     -0.05529
     13       6.6240      0.00000
     14       7.7367      0.00000
     15       7.9155      0.00000
     16       9.2602      0.00000

 k-point    23 :       0.2857    0.1429    0.1429
  band No.  band energies     occupation 
      1     -25.9047      1.00000
      2     -25.6881      1.00000
      3     -25.5446      1.00000
      4     -25.3364      1.00000
      5     -25.0839      1.00000
      6     -24.9743      1.00000
      7       0.9845      1.00000
      8       2.5205      1.00000
      9       2.7770      1.00000
     10       4.2706      1.01370
     11       4.3438      1.07268
     12       5.1555      0.10177
     13       7.2474      0.00000
     14       7.6371      0.00000
     15       7.7536      0.00000
     16       8.4662      0.00000

 k-point    24 :       0.4286    0.1429    0.1429
  band No.  band energies     occupation 
      1     -25.9036      1.00000
      2     -25.7746      1.00000
      3     -25.4909      1.00000
      4     -25.2751      1.00000
      5     -25.1838      1.00000
      6     -25.0561      1.00000
      7       1.9581      1.00000
      8       2.7045      1.00000
      9       3.2350      1.00000
     10       3.8868      1.00533
     11       4.5707      0.98578
     12       4.8878      0.25705
     13       6.6789      0.00000
     14       6.8075      0.00000
     15       8.6218      0.00000
     16       8.9960      0.00000

 k-point    25 :       0.0000    0.2857    0.1429
  band No.  band energies     occupation 
      1     -25.9117      1.00000
      2     -25.5668      1.00000
      3     -25.4697      1.00000
      4     -25.4285      1.00000
      5     -25.0861      1.00000
      6     -24.9601      1.00000
      7       0.6528      1.00000
      8       2.1797      1.00000
      9       2.5971      1.00000
     10       4.5900      1.00012
     11       4.7836      0.81428
     12       6.5041     -0.05082
     13       6.7677      0.00000
     14       6.9105      0.00000
     15       6.9536      0.00000
     16       8.5587      0.00000

 k-point    26 :       0.1429    0.2857    0.1429
[...]
  band No.  band energies     occupation 
      1     -26.0256      1.00000
      2     -25.9454      1.00000
      3     -25.4687      1.00000
      4     -25.2923      1.00000
      5     -25.0605      1.00000
      6     -24.9905      1.00000
      7       1.8752      1.00000
      8       2.1990      1.00000
      9       3.6540      1.00000
     10       3.7232      1.00000
     11       4.6790      0.85414
     12       4.7185      0.63921
     13       7.3301      0.00000
     14       7.5390      0.00000
     15       8.7698      0.00000
     16       9.2130      0.00000

 k-point    59 :       0.2857    0.2857    0.4286
  band No.  band energies     occupation 
      1     -25.9424      1.00000
      2     -25.9394      1.00000
      3     -25.5987      1.00000
      4     -25.3488      1.00000
      5     -25.0834      1.00000
      6     -25.0613      1.00000
      7       2.5780      1.00000
      8       2.5991      1.00000
      9       3.4763      1.00000
     10       3.5592      1.00000
     11       4.1298      1.00697
     12       4.4631      0.99481
     13       8.0552      0.00000
     14       8.0979      0.00000
     15       8.7243      0.00000
     16       8.8043      0.00000

 k-point    60 :       0.4286    0.2857    0.4286
  band No.  band energies     occupation 
      1     -25.9553      1.00000
      2     -25.9369      1.00000
      3     -25.5454      1.00000
      4     -25.4028      1.00000
      5     -25.1643      1.00000
      6     -25.1200      1.00000
      7       2.5073      1.00000
      8       2.6380      1.00000
      9       3.2035      1.00000
     10       3.3931      1.00000
     11       4.7906      0.79860
     12       4.9510      0.47125
     13       8.4337      0.00000
     14       8.5153      0.00000
     15       8.8079      0.00000
     16       8.8841      0.00000

 k-point    61 :       0.0000    0.4286    0.4286
  band No.  band energies     occupation 
      1     -26.1733      1.00000
      2     -26.1333      1.00000
      3     -25.3261      1.00000
      4     -25.2835      1.00000
      5     -24.9567      1.00000
      6     -24.9096      1.00000
      7       1.2440      1.00000
      8       1.3575      1.00000
      9       3.4148      1.00000
     10       3.5470      1.00000
     11       6.1093     -0.15710
     12       6.4539     -0.07950
     13       7.5616      0.00000
     14       7.9517      0.00000
     15       8.6119      0.00000
     16       9.5723      0.00000

 k-point    62 :       0.1429    0.4286    0.4286
  band No.  band energies     occupation 
      1     -26.1109      1.00000
      2     -26.0832      1.00000
      3     -25.3952      1.00000
      4     -25.3275      1.00000
      5     -24.9929      1.00000
      6     -24.9719      1.00000
      7       1.6643      1.00000
      8       1.7470      1.00000
      9       3.3494      1.00000
     10       3.4443      1.00000
     11       5.7212     -0.10469
     12       5.8040     -0.15346
     13       7.8120      0.00000
     14       8.0411      0.00000
     15       8.6454      0.00000
     16       9.0521      0.00000

 k-point    63 :       0.2857    0.4286    0.4286
  band No.  band energies     occupation 
      1     -25.9532      1.00000
      2     -25.9357      1.00000
      3     -25.5468      1.00000
      4     -25.4106      1.00000
      5     -25.1467      1.00000
      6     -25.1079      1.00000
      7       2.5828      1.00000
      8       2.7190      1.00000
      9       3.2850      1.00000
     10       3.4742      1.00000
     11       4.6706      0.86538
     12       4.8355      0.73030
     13       8.3599      0.00000
     14       8.4145      0.00000
     15       8.7106      0.00000
     16       8.7605      0.00000

 k-point    64 :       0.4286    0.4286    0.4286
  band No.  band energies     occupation 
      1     -25.8082      1.00000
      2     -25.6910      1.00000
      3     -25.6816      1.00000
      4     -25.4154      1.00000
      5     -25.3992      1.00000
      6     -25.2785      1.00000
      7       3.0400      1.00000
      8       3.4504      1.00000
      9       3.4706      1.00000
     10       3.9793      1.00000
     11       4.0619      1.00000
     12       4.0768      1.09879
     13       8.7164      0.00000
     14       8.7284      0.00000
     15       8.8378      0.00000
     16       8.8385      0.00000


--------------------------------------------------------------------------------------------------------


 soft charge-density along one line, spin component           1
         0         1         2         3         4         5         6         7         8         9
 total charge-density along one line

 soft charge-density along one line, spin component           2
         0         1         2         3         4         5         6         7         8         9
 total charge-density along one line

 pseudopotential strength for first ion, spin component:           1
-28.109   0.000   0.000   5.979  -0.000  -0.000  -0.000   0.000
  0.000 -28.109  -0.000  -0.000   5.979   0.000   0.000   0.000
  0.000  -0.000 -28.109  -0.000   0.000   5.978   0.000   0.000
  5.979  -0.000  -0.000   4.217   0.000   0.000   0.000  -0.000
 -0.000   5.979   0.000   0.000   4.217  -0.000  -0.000  -0.000
 -0.000   0.000   5.978   0.000  -0.000   4.217  -0.000  -0.000
 -0.000   0.000   0.000   0.000  -0.000  -0.000  -6.358  -0.000
  0.000   0.000   0.000  -0.000  -0.000  -0.000  -0.000  -6.358
 -0.000   0.000   0.000   0.000  -0.000  -0.000  -0.000   0.000
  0.000  -0.000   0.000  -0.000   0.000  -0.000   0.000   0.000
 -0.000   0.000   0.000   0.000  -0.000  -0.000  -0.000  -0.000
 -0.000   0.000   0.000   0.000   0.000  -0.000  -7.215  -0.000
  0.000   0.000   0.000  -0.000  -0.000   0.000  -0.000  -7.215
 -0.000   0.000   0.000   0.000  -0.000  -0.000  -0.000   0.000
  0.000  -0.000   0.000   0.000   0.000  -0.000   0.000   0.000
 -0.000   0.000   0.000   0.000  -0.000  -0.000  -0.000  -0.000
 -0.000  -0.000   0.000   0.000   0.000   0.000  -0.000  -0.000
  0.000   0.000  -0.000   0.000   0.000  -0.000   0.000   0.000
 pseudopotential strength for first ion, spin component:           2
-28.109   0.000   0.000   5.979  -0.000  -0.000  -0.000   0.000
  0.000 -28.109  -0.000  -0.000   5.979   0.000  -0.000   0.000
  0.000  -0.000 -28.109  -0.000   0.000   5.979   0.000  -0.000
  5.979  -0.000  -0.000   4.217   0.000   0.000   0.000  -0.000
 -0.000   5.979   0.000   0.000   4.217  -0.000   0.000  -0.000
 -0.000   0.000   5.979   0.000  -0.000   4.217  -0.000   0.000
 -0.000  -0.000   0.000   0.000   0.000  -0.000  -6.358  -0.000
  0.000   0.000  -0.000  -0.000  -0.000   0.000  -0.000  -6.358
 -0.000   0.000   0.000   0.000  -0.000  -0.000  -0.000   0.000
 -0.000  -0.000   0.000   0.000   0.000  -0.000   0.000   0.000
 -0.000   0.000   0.000   0.000  -0.000  -0.000  -0.000  -0.000
 -0.000  -0.000   0.000   0.000   0.000  -0.000  -7.215  -0.000
  0.000   0.000  -0.000  -0.000  -0.000   0.000  -0.000  -7.215
 -0.000   0.000   0.000   0.000  -0.000  -0.000  -0.000   0.000
 -0.000  -0.000   0.000   0.000   0.000  -0.000   0.000   0.000
 -0.000   0.000   0.000   0.000  -0.000  -0.000  -0.000  -0.000
 -0.000  -0.000   0.000   0.000   0.000   0.000  -0.000  -0.000
  0.000   0.000  -0.000   0.000   0.000  -0.000   0.000   0.000
 total augmentation occupancy for first ion, spin component:           1
  1.993   0.000   0.000  -0.013  -0.000  -0.000   0.000   0.000  -0.000   0.000   0.000  -0.000   0.000   0.000   0.000   0.000
  0.000   1.993   0.000  -0.000  -0.013  -0.000   0.000   0.000   0.000   0.000   0.000   0.000   0.000   0.000   0.000   0.000
  0.000   0.000   1.993  -0.000  -0.000  -0.013   0.000   0.000  -0.000   0.000   0.000  -0.000  -0.000  -0.000   0.000   0.000
 -0.013  -0.000  -0.000   0.203   0.000   0.000   0.000   0.000   0.000   0.000   0.000   0.000   0.000   0.000   0.000   0.000
 -0.000  -0.013  -0.000   0.000   0.204   0.000   0.000   0.000  -0.000   0.000   0.000   0.000  -0.000   0.000   0.000   0.000
 -0.000  -0.000  -0.013   0.000   0.000   0.205   0.000   0.000   0.000   0.000   0.000   0.000   0.000   0.000   0.000   0.000
  0.000   0.000   0.000   0.000  -0.000   0.000   5.986   0.000  -0.000   0.000   0.000  -3.334  -0.000   0.000  -0.000  -0.000
 -0.000   0.000   0.000   0.000   0.000   0.000   0.000   6.030   0.000   0.000  -0.000  -0.000  -3.355  -0.000  -0.000   0.000
 -0.000  -0.000   0.000   0.000   0.000   0.000  -0.000   0.000   5.627   0.000  -0.041   0.000  -0.000  -3.316  -0.000   0.020
  0.000   0.000   0.000   0.000   0.000   0.000   0.000   0.000   0.000   5.943   0.000  -0.000  -0.000  -0.000  -3.314  -0.000
  0.000   0.000   0.000   0.000   0.000   0.000   0.000  -0.000  -0.041   0.000   5.627  -0.000   0.000   0.020  -0.000  -3.316
  0.000   0.000   0.000   0.000   0.000  -0.000  -3.334  -0.000   0.000  -0.000  -0.000   1.895   0.000  -0.000   0.000  -0.000
 -0.000   0.000   0.000   0.000   0.000   0.000  -0.000  -3.355  -0.000  -0.000   0.000   0.000   1.905   0.000   0.000  -0.000
  0.000  -0.000   0.000   0.000   0.000  -0.000   0.000  -0.000  -3.316  -0.000   0.020  -0.000   0.000   1.972   0.000  -0.010
  0.000   0.000   0.000   0.000   0.000   0.000  -0.000  -0.000  -0.000  -3.314  -0.000   0.000   0.000   0.000   1.886   0.000
  0.000   0.000   0.000   0.000   0.000   0.000  -0.000   0.000   0.020  -0.000  -3.316  -0.000  -0.000  -0.010   0.000   1.973
 -0.000   0.000   0.000   0.000   0.000   0.000   0.000  -0.000  -0.001  -0.000   0.016   0.000   0.000   0.001   0.000  -0.009
 -0.000   0.000   0.000   0.000   0.000  -0.000   0.000   0.000  -0.000  -0.000   0.000   0.000   0.000   0.000  -0.000  -0.000
 total augmentation occupancy for first ion, spin component:           2
  0.000   0.000   0.000   0.000   0.000   0.000   0.000   0.000   0.000   0.000   0.000   0.000  -0.000   0.000   0.000   0.000
  0.000   0.000   0.000   0.000   0.000   0.000   0.000   0.000   0.000   0.000  -0.000   0.000   0.000  -0.000  -0.000   0.000
  0.000   0.000   0.000   0.000   0.000   0.000   0.000   0.000   0.000  -0.000   0.000   0.000   0.000   0.000   0.000  -0.000
  0.000   0.000   0.000  -0.000  -0.000  -0.000   0.000   0.000   0.000   0.000   0.000   0.000   0.000   0.000   0.000   0.000
  0.000   0.000   0.000  -0.000  -0.000  -0.000   0.000   0.000   0.000   0.000   0.000   0.000   0.000   0.000   0.000   0.000
  0.000   0.000   0.000  -0.000  -0.000  -0.000   0.000   0.000   0.000   0.000  -0.000  -0.000   0.000   0.000   0.000  -0.000
  0.000   0.000   0.000   0.000   0.000   0.000  -0.003  -0.000   0.000  -0.000   0.000   0.001   0.000  -0.000   0.000  -0.000
  0.000   0.000   0.000   0.000   0.000   0.000  -0.000  -0.002   0.000  -0.000   0.000   0.000   0.001  -0.000   0.000  -0.000
  0.000   0.000   0.000   0.000   0.000   0.000   0.000   0.000  -0.006  -0.000  -0.000  -0.000  -0.000   0.005  -0.000   0.000
  0.000  -0.000  -0.000   0.000   0.000   0.000  -0.000  -0.000  -0.000  -0.003  -0.000   0.000   0.000  -0.000   0.002   0.000
  0.000   0.000  -0.000   0.000   0.000   0.000   0.000   0.000  -0.000  -0.000  -0.005  -0.000  -0.000   0.000   0.000   0.004
 -0.000   0.000  -0.000   0.000   0.000  -0.000   0.001   0.000  -0.000   0.000  -0.000  -0.001  -0.000   0.000  -0.000   0.000
  0.000   0.000   0.000   0.000   0.000   0.000   0.000   0.001  -0.000   0.000  -0.000   0.000  -0.000   0.000  -0.000   0.000
  0.000  -0.000   0.000   0.000   0.000   0.000  -0.000  -0.000   0.005  -0.000   0.000   0.000   0.000  -0.003   0.000  -0.000
  0.000   0.000   0.000   0.000   0.000   0.000   0.000   0.000  -0.000   0.002   0.000  -0.000  -0.000   0.000  -0.001  -0.000
 -0.000   0.000   0.000   0.000   0.000   0.000  -0.000  -0.000   0.000   0.000   0.004   0.000   0.000  -0.000  -0.000  -0.003
  0.000   0.000   0.000   0.000   0.000   0.000  -0.000  -0.000   0.000  -0.000   0.000   0.000   0.000  -0.000   0.000  -0.000
  0.000   0.000   0.000   0.000   0.000   0.000   0.000   0.000   0.000   0.000  -0.000   0.000   0.000  -0.000   0.000   0.000


------------------------ aborting loop because EDIFF is reached ----------------------------------------





 total charge

# of ion       s       p       d       tot
------------------------------------------
    1        0.419   6.291   3.081   9.791
    2        0.419   6.291   3.081   9.791
--------------------------------------------------
tot          0.838  12.582   6.163  19.582



 magnetization (x)

# of ion       s       p       d       tot
------------------------------------------
    1       -0.000  -0.000  -0.001  -0.001
    2       -0.000  -0.000  -0.001  -0.001
--------------------------------------------------
tot         -0.000  -0.001  -0.002  -0.002

    CHARGE:  cpu time     27.6245: real time      1.5566
    FORLOC:  cpu time      0.0004: real time      0.0004
    FORNL :  cpu time    134.7724: real time      7.3919
    STRESS:  cpu time    370.5787: real time     20.6014
    FORCOR:  cpu time      3.1363: real time      0.2002
    FORHAR:  cpu time      0.5630: real time      0.0303
    MIXING:  cpu time      0.4330: real time      0.0158
    OFIELD:  cpu time      0.0000: real time      0.0000

  FORCE on cell =-STRESS in cart. coord.  units (eV):
  Direction    XX          YY          ZZ          XY          YZ          ZX
  --------------------------------------------------------------------------------------
  Alpha Z   247.02244   247.02244   247.02244
  Ewald    -635.15988  -637.25659  -636.46152    -0.00000    -0.00000    -0.00000
  Hartree    82.70913    81.67646    82.09562    -0.00000    -0.00000    -0.00000
  E(xc)     -95.05726   -95.06236   -95.06001    -0.00000    -0.00000    -0.00000
  Local     202.01823   205.20274   203.94594    -0.00000    -0.00000    -0.00000
  n-local   -84.39477   -84.71463   -84.56067     0.81486     0.73034     0.88489
  augment    53.55166    53.57712    53.56844    -0.00000    -0.00000    -0.00000
  Kinetic   229.57631   229.16699   229.38072     0.26663     0.28409     0.21966
  Fock        0.00000     0.00000     0.00000     0.00000     0.00000     0.00000
  -------------------------------------------------------------------------------------
  Total       0.26587    -0.38782    -0.06904    -0.00000    -0.00000     0.00000
  in kB      11.62179   -16.95233    -3.01788    -0.00000    -0.00000     0.00000
  external pressure =       -2.78 kB  Pullay stress =        0.00 kB


 VOLUME and BASIS-vectors are now :
 -----------------------------------------------------------------------------
  energy-cutoff  :      520.00
  volume of cell :       36.65
      direct lattice vectors                 reciprocal lattice vectors
     3.288671170  0.000000000  0.000000000     0.304074183 -0.000000000  0.000000000
     0.000000000  3.355108971  0.000000000     0.000000000  0.298052912  0.000000000
     0.000000000  0.000000000  3.321890070    -0.000000000 -0.000000000  0.301033441

  length of vectors
     3.288671170  3.355108971  3.321890070     0.304074183  0.298052912  0.301033441


 FORCES acting on ions
    electron-ion (+dipol)            ewald-force                    non-local-force                 convergence-correction
 -----------------------------------------------------------------------------------------------
   -.402E-14 -.125E-13 -.186E-13   -.609E-14 0.172E-14 -.240E-14   0.142E-21 0.183E-21 -.366E-22   -.350E-14 -.431E-13 -.906E-14
   0.120E-12 0.176E-12 -.121E-11   0.330E-14 -.124E-15 0.153E-14   -.167E-21 0.270E-21 0.431E-22   0.775E-14 -.237E-13 0.244E-13
 -----------------------------------------------------------------------------------------------
   0.116E-12 0.164E-12 -.122E-11   -.279E-14 0.159E-14 -.876E-15   -.250E-22 0.454E-21 0.655E-23   0.425E-14 -.668E-13 0.153E-13


 POSITION                                       TOTAL-FORCE (eV/Angst)
 -----------------------------------------------------------------------------------
      0.00000      0.00000      0.00000         0.000000     -0.000000      0.000000
      1.64434      1.67755      1.66095        -0.000000      0.000000     -0.000000
 -----------------------------------------------------------------------------------
    total drift:                                0.000000      0.000000     -0.000000


--------------------------------------------------------------------------------------------------------



  FREE ENERGIE OF THE ION-ELECTRON SYSTEM (eV)
  ---------------------------------------------------
  free  energy   TOTEN  =       -20.20599607 eV

  energy  without entropy=      -20.20599607  energy(sigma->0) =      -20.20599607



--------------------------------------------------------------------------------------------------------


    POTLOK:  cpu time      3.6472: real time      0.4199


--------------------------------------------------------------------------------------------------------


     LOOP+:  cpu time   5756.6723: real time    320.0617
 -----------------------------------------------------------------------------
|                                                                             |
|           W    W    AA    RRRRR   N    N  II  N    N   GGGG   !!!           |
|           W    W   A  A   R    R  NN   N  II  NN   N  G    G  !!!           |
|           W    W  A    A  R    R  N N  N  II  N N  N  G       !!!           |
|           W WW W  AAAAAA  RRRRR   N  N N  II  N  N N  G  GGG   !            |
|           WW  WW  A    A  R   R   N   NN  II  N   NN  G    G                |
|           W    W  A    A  R    R  N    N  II  N    N   GGGG   !!!           |
|                                                                             |
|     Tetrahedron method does not include variations of the Fermi             |
|     occupations, so forces and stress will be inaccurate. We suggest        |
|     using a different smearing scheme ISMEAR = 1 or 2 for metals in         |
|     relaxations.                                                            |
|                                                                             |
 -----------------------------------------------------------------------------

    4ORBIT:  cpu time      0.0000: real time      0.0000



 total charge

# of ion       s       p       d       tot
------------------------------------------
    1        0.419   6.291   3.081   9.791
    2        0.419   6.291   3.081   9.791
--------------------------------------------------
tot          0.838  12.582   6.163  19.582



 magnetization (x)

# of ion       s       p       d       tot
------------------------------------------
    1       -0.000  -0.000  -0.001  -0.001
    2       -0.000  -0.000  -0.001  -0.001
--------------------------------------------------
tot         -0.000  -0.001  -0.002  -0.002

 BZINTS: Fermi energy:    4.852696;   22.000000 electrons
         Band energy:-0.274547E+03;  BLOECHL correction:   -0.209124

 total amount of memory used by VASP MPI-rank0    87594. kBytes
=======================================================================

   base      :      30000. kBytes
   nonlr-proj:       5386. kBytes
   fftplans  :       5304. kBytes
   grid      :      12665. kBytes
   one-center:         62. kBytes
   wavefun   :      34177. kBytes

  
  
 General timing and accounting informations for this job:
 ========================================================
  
                  Total CPU time used (sec):     5801.376
                            User time (sec):     5588.621
                          System time (sec):      212.756
                         Elapsed time (sec):      323.380
  
                   Maximum memory used (kb):      324912.
                   Average memory used (kb):          N/A
  
                          Minor page faults:      6535485
                          Major page faults:           78
                 Voluntary context switches:      2452883
