   8   8   1   0
  0.1689236E+02  0.4073022E-09  0.4073022E-09  0.8146044E-09  0.5000000E-15
  1.000000000000000E-004
  CAR 
 unknown system                          
     14.81374796     -4.59359749  301      5.92997148      1.00000000
     -4.594  0.0000E+00  0.0000E+00  0.0000E+00  0.0000E+00
     -4.529  0.0000E+00  0.0000E+00  0.0000E+00  0.0000E+00
     -4.464  0.0000E+00  0.0000E+00  0.0000E+00  0.0000E+00
     -4.400  0.0000E+00  0.0000E+00  0.0000E+00  0.0000E+00
     -4.335  0.0000E+00  0.0000E+00  0.0000E+00  0.0000E+00
     -4.270  0.0000E+00  0.0000E+00  0.0000E+00  0.0000E+00
     -4.205  0.0000E+00  0.0000E+00  0.0000E+00  0.0000E+00
     -4.141  0.2438E-05  0.2355E-05  0.1577E-06  0.1524E-06
     -4.076  0.4432E-04  0.4280E-04  0.3025E-05  0.2921E-05
     -4.011  0.1421E-03  0.1349E-03  0.1222E-04  0.1165E-04
     -3.947  0.5210E-03  0.5057E-03  0.4592E-04  0.4436E-04
     -3.882  0.1952E-02  0.1887E-02  0.1722E-03  0.1664E-03
     -3.817  0.6759E-02  0.6540E-02  0.6095E-03  0.5895E-03
     -3.753  0.2192E-01  0.2128E-01  0.2028E-02  0.1966E-02
     -3.688  0.5837E-01  0.5706E-01  0.5804E-02  0.5658E-02
     -3.623  0.1148E+00  0.1132E+00  0.1323E-01  0.1298E-01
     -3.559  0.1698E+00  0.1684E+00  0.2421E-01  0.2387E-01
     -3.494  0.2249E+00  0.2233E+00  0.3876E-01  0.3832E-01
     -3.429  0.2709E+00  0.2702E+00  0.5629E-01  0.5580E-01
     -3.364  0.2856E+00  0.2852E+00  0.7477E-01  0.7425E-01
     -3.300  0.3241E+00  0.3226E+00  0.9573E-01  0.9512E-01
     -3.235  0.3701E+00  0.3693E+00  0.1197E+00  0.1190E+00
     -3.170  0.3896E+00  0.3891E+00  0.1449E+00  0.1442E+00
     -3.106  0.4135E+00  0.4127E+00  0.1717E+00  0.1709E+00
     -3.041  0.4325E+00  0.4323E+00  0.1996E+00  0.1989E+00
     -2.976  0.4287E+00  0.4285E+00  0.2274E+00  0.2266E+00
     -2.912  0.4684E+00  0.4664E+00  0.2577E+00  0.2568E+00
     -2.847  0.5366E+00  0.5355E+00  0.2924E+00  0.2914E+00
     -2.782  0.5427E+00  0.5431E+00  0.3276E+00  0.3266E+00
     -2.718  0.5436E+00  0.5431E+00  0.3627E+00  0.3617E+00
     -2.653  0.5537E+00  0.5538E+00  0.3986E+00  0.3976E+00
     -2.588  0.5451E+00  0.5448E+00  0.4339E+00  0.4328E+00
     -2.523  0.5827E+00  0.5810E+00  0.4716E+00  0.4704E+00
     -2.459  0.6473E+00  0.6459E+00  0.5135E+00  0.5123E+00
     -2.394  0.6753E+00  0.6750E+00  0.5572E+00  0.5559E+00
     -2.329  0.6955E+00  0.6944E+00  0.6022E+00  0.6009E+00
     -2.265  0.7247E+00  0.7245E+00  0.6491E+00  0.6478E+00
     -2.200  0.7069E+00  0.7073E+00  0.6948E+00  0.6935E+00
     -2.135  0.7343E+00  0.7326E+00  0.7424E+00  0.7410E+00
     -2.071  0.7527E+00  0.7534E+00  0.7911E+00  0.7897E+00
     -2.006  0.7188E+00  0.7185E+00  0.8376E+00  0.8362E+00
     -1.941  0.7946E+00  0.7909E+00  0.8890E+00  0.8874E+00
     -1.877  0.8865E+00  0.8852E+00  0.9464E+00  0.9447E+00
     -1.812  0.8667E+00  0.8680E+00  0.1003E+01  0.1001E+01
     -1.747  0.8340E+00  0.8339E+00  0.1057E+01  0.1055E+01
     -1.682  0.8318E+00  0.8323E+00  0.1110E+01  0.1109E+01
     -1.618  0.7860E+00  0.7867E+00  0.1161E+01  0.1160E+01
     -1.553  0.8336E+00  0.8294E+00  0.1215E+01  0.1213E+01
     -1.488  0.9510E+00  0.9486E+00  0.1277E+01  0.1275E+01
     -1.424  0.9514E+00  0.9521E+00  0.1338E+01  0.1336E+01
     -1.359  0.8881E+00  0.8910E+00  0.1396E+01  0.1394E+01
     -1.294  0.7716E+00  0.7747E+00  0.1446E+01  0.1444E+01
     -1.230  0.7458E+00  0.7449E+00  0.1494E+01  0.1493E+01
     -1.165  0.7765E+00  0.7764E+00  0.1544E+01  0.1543E+01
     -1.100  0.7362E+00  0.7388E+00  0.1592E+01  0.1591E+01
     -1.036  0.6173E+00  0.6209E+00  0.1632E+01  0.1631E+01
     -0.971  0.5249E+00  0.5266E+00  0.1666E+01  0.1665E+01
     -0.906  0.4900E+00  0.4908E+00  0.1698E+01  0.1697E+01
     -0.842  0.5004E+00  0.4992E+00  0.1730E+01  0.1729E+01
     -0.777  0.5728E+00  0.5698E+00  0.1767E+01  0.1766E+01
     -0.712  0.6560E+00  0.6539E+00  0.1810E+01  0.1808E+01
     -0.647  0.7368E+00  0.7341E+00  0.1857E+01  0.1856E+01
     -0.583  0.8397E+00  0.8383E+00  0.1912E+01  0.1910E+01
     -0.518  0.8875E+00  0.8875E+00  0.1969E+01  0.1967E+01
     -0.453  0.9356E+00  0.9331E+00  0.2030E+01  0.2028E+01
     -0.389  0.1045E+01  0.1042E+01  0.2097E+01  0.2095E+01
     -0.324  0.1088E+01  0.1088E+01  0.2168E+01  0.2166E+01
     -0.259  0.1031E+01  0.1032E+01  0.2234E+01  0.2232E+01
     -0.195  0.1041E+01  0.1040E+01  0.2302E+01  0.2300E+01
     -0.130  0.1076E+01  0.1077E+01  0.2372E+01  0.2370E+01
     -0.065  0.9633E+00  0.9680E+00  0.2434E+01  0.2432E+01
     -0.001  0.8566E+00  0.8583E+00  0.2489E+01  0.2488E+01
      0.064  0.8647E+00  0.8631E+00  0.2545E+01  0.2544E+01
      0.129  0.9340E+00  0.9320E+00  0.2606E+01  0.2604E+01
      0.194  0.9606E+00  0.9606E+00  0.2668E+01  0.2666E+01
      0.258  0.9495E+00  0.9492E+00  0.2729E+01  0.2728E+01
      0.323  0.9814E+00  0.9801E+00  0.2793E+01  0.2791E+01
      0.388  0.9842E+00  0.9863E+00  0.2857E+01  0.2855E+01
      0.452  0.8670E+00  0.8725E+00  0.2913E+01  0.2911E+01
      0.517  0.7680E+00  0.7696E+00  0.2963E+01  0.2961E+01
      0.582  0.7982E+00  0.7960E+00  0.3014E+01  0.3013E+01
      0.646  0.8500E+00  0.8500E+00  0.3069E+01  0.3068E+01
      0.711  0.8027E+00  0.8053E+00  0.3121E+01  0.3120E+01
      0.776  0.6875E+00  0.6897E+00  0.3166E+01  0.3165E+01
      0.840  0.6554E+00  0.6534E+00  0.3208E+01  0.3207E+01
      0.905  0.8671E+00  0.8591E+00  0.3264E+01  0.3263E+01
      0.970  0.1225E+01  0.1219E+01  0.3344E+01  0.3341E+01
      1.035  0.1378E+01  0.1381E+01  0.3433E+01  0.3431E+01
      1.099  0.1294E+01  0.1300E+01  0.3517E+01  0.3515E+01
      1.164  0.1186E+01  0.1190E+01  0.3593E+01  0.3592E+01
      1.229  0.1049E+01  0.1051E+01  0.3661E+01  0.3660E+01
      1.293  0.9344E+00  0.9331E+00  0.3722E+01  0.3720E+01
      1.358  0.9892E+00  0.9864E+00  0.3786E+01  0.3784E+01
      1.423  0.1090E+01  0.1091E+01  0.3856E+01  0.3855E+01
      1.487  0.1053E+01  0.1055E+01  0.3925E+01  0.3923E+01
      1.552  0.1090E+01  0.1085E+01  0.3995E+01  0.3993E+01
      1.617  0.1233E+01  0.1230E+01  0.4075E+01  0.4073E+01
      1.681  0.1272E+01  0.1272E+01  0.4157E+01  0.4155E+01
      1.746  0.1256E+01  0.1254E+01  0.4238E+01  0.4236E+01
      1.811  0.1227E+01  0.1228E+01  0.4318E+01  0.4316E+01
      1.876  0.1156E+01  0.1160E+01  0.4393E+01  0.4391E+01
      1.940  0.1096E+01  0.1098E+01  0.4464E+01  0.4462E+01
      2.005  0.1033E+01  0.1035E+01  0.4531E+01  0.4529E+01
      2.070  0.9620E+00  0.9615E+00  0.4593E+01  0.4592E+01
      2.134  0.1048E+01  0.1043E+01  0.4661E+01  0.4659E+01
      2.199  0.1154E+01  0.1153E+01  0.4735E+01  0.4734E+01
      2.264  0.1035E+01  0.1040E+01  0.4802E+01  0.4801E+01
      2.328  0.8478E+00  0.8520E+00  0.4857E+01  0.4856E+01
      2.393  0.8152E+00  0.8159E+00  0.4910E+01  0.4909E+01
      2.458  0.9752E+00  0.9708E+00  0.4973E+01  0.4972E+01
      2.522  0.1378E+01  0.1369E+01  0.5062E+01  0.5060E+01
      2.587  0.1797E+01  0.1793E+01  0.5179E+01  0.5176E+01
      2.652  0.1917E+01  0.1921E+01  0.5303E+01  0.5301E+01
      2.717  0.1773E+01  0.1779E+01  0.5418E+01  0.5416E+01
      2.781  0.1526E+01  0.1529E+01  0.5516E+01  0.5515E+01
      2.846  0.1307E+01  0.1308E+01  0.5601E+01  0.5599E+01
      2.911  0.1189E+01  0.1189E+01  0.5678E+01  0.5676E+01
      2.975  0.1192E+01  0.1194E+01  0.5755E+01  0.5754E+01
      3.040  0.1180E+01  0.1182E+01  0.5831E+01  0.5830E+01
      3.105  0.1187E+01  0.1188E+01  0.5908E+01  0.5907E+01
      3.169  0.1246E+01  0.1246E+01  0.5989E+01  0.5988E+01
      3.234  0.1286E+01  0.1285E+01  0.6072E+01  0.6071E+01
      3.299  0.1338E+01  0.1333E+01  0.6159E+01  0.6157E+01
      3.363  0.1539E+01  0.1532E+01  0.6258E+01  0.6257E+01
      3.428  0.1665E+01  0.1666E+01  0.6366E+01  0.6364E+01
      3.493  0.1535E+01  0.1541E+01  0.6466E+01  0.6464E+01
      3.557  0.1323E+01  0.1325E+01  0.6551E+01  0.6550E+01
      3.622  0.1163E+01  0.1165E+01  0.6627E+01  0.6625E+01
      3.687  0.1115E+01  0.1115E+01  0.6699E+01  0.6697E+01
      3.752  0.1293E+01  0.1288E+01  0.6782E+01  0.6781E+01
      3.816  0.1514E+01  0.1511E+01  0.6880E+01  0.6879E+01
      3.881  0.1572E+01  0.1575E+01  0.6982E+01  0.6981E+01
      3.946  0.1597E+01  0.1600E+01  0.7086E+01  0.7084E+01
      4.010  0.1719E+01  0.1718E+01  0.7197E+01  0.7195E+01
      4.075  0.1856E+01  0.1854E+01  0.7317E+01  0.7315E+01
      4.140  0.1789E+01  0.1789E+01  0.7433E+01  0.7431E+01
      4.204  0.1513E+01  0.1514E+01  0.7531E+01  0.7529E+01
      4.269  0.1382E+01  0.1382E+01  0.7620E+01  0.7619E+01
      4.334  0.1468E+01  0.1467E+01  0.7715E+01  0.7714E+01
      4.398  0.1465E+01  0.1467E+01  0.7810E+01  0.7809E+01
      4.463  0.1333E+01  0.1335E+01  0.7896E+01  0.7895E+01
      4.528  0.1224E+01  0.1223E+01  0.7976E+01  0.7974E+01
      4.593  0.1228E+01  0.1224E+01  0.8055E+01  0.8053E+01
      4.657  0.1342E+01  0.1339E+01  0.8142E+01  0.8140E+01
      4.722  0.1506E+01  0.1506E+01  0.8239E+01  0.8238E+01
      4.787  0.1541E+01  0.1547E+01  0.8339E+01  0.8338E+01
      4.851  0.1361E+01  0.1367E+01  0.8427E+01  0.8426E+01
      4.916  0.1264E+01  0.1265E+01  0.8509E+01  0.8508E+01
      4.981  0.1386E+01  0.1383E+01  0.8599E+01  0.8598E+01
      5.045  0.1462E+01  0.1462E+01  0.8694E+01  0.8692E+01
      5.110  0.1483E+01  0.1482E+01  0.8790E+01  0.8788E+01
      5.175  0.1599E+01  0.1598E+01  0.8893E+01  0.8892E+01
      5.239  0.1613E+01  0.1614E+01  0.8997E+01  0.8996E+01
      5.304  0.1576E+01  0.1577E+01  0.9099E+01  0.9098E+01
      5.369  0.1515E+01  0.1516E+01  0.9197E+01  0.9196E+01
      5.434  0.1334E+01  0.1336E+01  0.9284E+01  0.9283E+01
      5.498  0.1114E+01  0.1116E+01  0.9356E+01  0.9355E+01
      5.563  0.1031E+01  0.1029E+01  0.9423E+01  0.9422E+01
      5.628  0.1134E+01  0.1128E+01  0.9496E+01  0.9495E+01
      5.692  0.1358E+01  0.1353E+01  0.9584E+01  0.9582E+01
      5.757  0.1632E+01  0.1630E+01  0.9690E+01  0.9688E+01
      5.822  0.1847E+01  0.1849E+01  0.9809E+01  0.9807E+01
      5.886  0.1840E+01  0.1844E+01  0.9928E+01  0.9927E+01
      5.951  0.1604E+01  0.1609E+01  0.1003E+02  0.1003E+02
      6.016  0.1256E+01  0.1261E+01  0.1011E+02  0.1011E+02
      6.080  0.1031E+01  0.1034E+01  0.1018E+02  0.1018E+02
      6.145  0.1097E+01  0.1093E+01  0.1025E+02  0.1025E+02
      6.210  0.1360E+01  0.1356E+01  0.1034E+02  0.1034E+02
      6.275  0.1523E+01  0.1525E+01  0.1044E+02  0.1044E+02
      6.339  0.1398E+01  0.1401E+01  0.1053E+02  0.1053E+02
      6.404  0.1269E+01  0.1267E+01  0.1061E+02  0.1061E+02
      6.469  0.1441E+01  0.1437E+01  0.1070E+02  0.1070E+02
      6.533  0.1695E+01  0.1692E+01  0.1081E+02  0.1081E+02
      6.598  0.1795E+01  0.1795E+01  0.1093E+02  0.1093E+02
      6.663  0.1818E+01  0.1820E+01  0.1105E+02  0.1105E+02
      6.727  0.1756E+01  0.1759E+01  0.1116E+02  0.1116E+02
      6.792  0.1617E+01  0.1619E+01  0.1127E+02  0.1126E+02
      6.857  0.1410E+01  0.1410E+01  0.1136E+02  0.1136E+02
      6.921  0.1317E+01  0.1314E+01  0.1144E+02  0.1144E+02
      6.986  0.1401E+01  0.1400E+01  0.1153E+02  0.1153E+02
      7.051  0.1489E+01  0.1489E+01  0.1163E+02  0.1163E+02
      7.116  0.1482E+01  0.1482E+01  0.1173E+02  0.1172E+02
      7.180  0.1578E+01  0.1577E+01  0.1183E+02  0.1183E+02
      7.245  0.1753E+01  0.1753E+01  0.1194E+02  0.1194E+02
      7.310  0.1788E+01  0.1789E+01  0.1206E+02  0.1206E+02
      7.374  0.1684E+01  0.1685E+01  0.1217E+02  0.1216E+02
      7.439  0.1489E+01  0.1488E+01  0.1226E+02  0.1226E+02
      7.504  0.1402E+01  0.1400E+01  0.1235E+02  0.1235E+02
      7.568  0.1504E+01  0.1500E+01  0.1245E+02  0.1245E+02
      7.633  0.1723E+01  0.1718E+01  0.1256E+02  0.1256E+02
      7.698  0.1900E+01  0.1898E+01  0.1268E+02  0.1268E+02
      7.762  0.1889E+01  0.1893E+01  0.1281E+02  0.1281E+02
      7.827  0.1675E+01  0.1682E+01  0.1292E+02  0.1291E+02
      7.892  0.1460E+01  0.1462E+01  0.1301E+02  0.1301E+02
      7.956  0.1400E+01  0.1401E+01  0.1310E+02  0.1310E+02
      8.021  0.1432E+01  0.1432E+01  0.1319E+02  0.1319E+02
      8.086  0.1609E+01  0.1606E+01  0.1330E+02  0.1330E+02
      8.151  0.1839E+01  0.1836E+01  0.1342E+02  0.1341E+02
      8.215  0.1914E+01  0.1917E+01  0.1354E+02  0.1354E+02
      8.280  0.1809E+01  0.1813E+01  0.1366E+02  0.1366E+02
      8.345  0.1736E+01  0.1735E+01  0.1377E+02  0.1377E+02
      8.409  0.1781E+01  0.1781E+01  0.1389E+02  0.1388E+02
      8.474  0.1909E+01  0.1907E+01  0.1401E+02  0.1401E+02
      8.539  0.2041E+01  0.2038E+01  0.1414E+02  0.1414E+02
      8.603  0.2026E+01  0.2023E+01  0.1427E+02  0.1427E+02
      8.668  0.1923E+01  0.1925E+01  0.1440E+02  0.1439E+02
      8.733  0.1771E+01  0.1775E+01  0.1451E+02  0.1451E+02
      8.797  0.1718E+01  0.1719E+01  0.1462E+02  0.1462E+02
      8.862  0.1755E+01  0.1755E+01  0.1474E+02  0.1473E+02
      8.927  0.1795E+01  0.1794E+01  0.1485E+02  0.1485E+02
      8.992  0.1847E+01  0.1847E+01  0.1497E+02  0.1497E+02
      9.056  0.1878E+01  0.1878E+01  0.1509E+02  0.1509E+02
      9.121  0.1907E+01  0.1907E+01  0.1522E+02  0.1522E+02
      9.186  0.1852E+01  0.1852E+01  0.1534E+02  0.1534E+02
      9.250  0.1750E+01  0.1749E+01  0.1545E+02  0.1545E+02
      9.315  0.1638E+01  0.1639E+01  0.1556E+02  0.1555E+02
      9.380  0.1651E+01  0.1651E+01  0.1566E+02  0.1566E+02
      9.444  0.1840E+01  0.1836E+01  0.1578E+02  0.1578E+02
      9.509  0.2043E+01  0.2039E+01  0.1591E+02  0.1591E+02
      9.574  0.2094E+01  0.2093E+01  0.1605E+02  0.1605E+02
      9.638  0.1979E+01  0.1981E+01  0.1618E+02  0.1618E+02
      9.703  0.1777E+01  0.1780E+01  0.1629E+02  0.1629E+02
      9.768  0.1661E+01  0.1663E+01  0.1640E+02  0.1640E+02
      9.833  0.1728E+01  0.1727E+01  0.1651E+02  0.1651E+02
      9.897  0.1851E+01  0.1847E+01  0.1663E+02  0.1663E+02
      9.962  0.1968E+01  0.1963E+01  0.1676E+02  0.1676E+02
     10.027  0.2042E+01  0.2042E+01  0.1689E+02  0.1689E+02
     10.091  0.1995E+01  0.1998E+01  0.1702E+02  0.1702E+02
     10.156  0.1928E+01  0.1928E+01  0.1715E+02  0.1714E+02
     10.221  0.1929E+01  0.1929E+01  0.1727E+02  0.1727E+02
     10.285  0.1855E+01  0.1860E+01  0.1739E+02  0.1739E+02
     10.350  0.1765E+01  0.1774E+01  0.1750E+02  0.1750E+02
     10.415  0.1766E+01  0.1775E+01  0.1762E+02  0.1762E+02
     10.479  0.1785E+01  0.1785E+01  0.1773E+02  0.1773E+02
     10.544  0.1626E+01  0.1619E+01  0.1784E+02  0.1784E+02
     10.609  0.1421E+01  0.1421E+01  0.1793E+02  0.1793E+02
     10.674  0.1373E+01  0.1378E+01  0.1802E+02  0.1802E+02
     10.738  0.1416E+01  0.1417E+01  0.1811E+02  0.1811E+02
     10.803  0.1554E+01  0.1558E+01  0.1821E+02  0.1821E+02
     10.868  0.1831E+01  0.1850E+01  0.1833E+02  0.1833E+02
     10.932  0.1979E+01  0.1983E+01  0.1846E+02  0.1846E+02
     10.997  0.1809E+01  0.1796E+01  0.1858E+02  0.1858E+02
     11.062  0.1571E+01  0.1558E+01  0.1868E+02  0.1868E+02
     11.126  0.1452E+01  0.1438E+01  0.1877E+02  0.1877E+02
     11.191  0.1419E+01  0.1421E+01  0.1886E+02  0.1886E+02
     11.256  0.1381E+01  0.1388E+01  0.1895E+02  0.1895E+02
     11.320  0.1305E+01  0.1295E+01  0.1904E+02  0.1904E+02
     11.385  0.1277E+01  0.1268E+01  0.1912E+02  0.1912E+02
     11.450  0.1270E+01  0.1271E+01  0.1920E+02  0.1920E+02
     11.514  0.1129E+01  0.1126E+01  0.1928E+02  0.1927E+02
     11.579  0.9679E+00  0.9495E+00  0.1934E+02  0.1934E+02
     11.644  0.9254E+00  0.9098E+00  0.1940E+02  0.1939E+02
     11.709  0.8248E+00  0.8409E+00  0.1945E+02  0.1945E+02
     11.773  0.5643E+00  0.5881E+00  0.1949E+02  0.1949E+02
     11.838  0.3565E+00  0.3699E+00  0.1951E+02  0.1951E+02
     11.903  0.3575E+00  0.3614E+00  0.1954E+02  0.1953E+02
     11.967  0.4215E+00  0.4221E+00  0.1956E+02  0.1956E+02
     12.032  0.4362E+00  0.4364E+00  0.1959E+02  0.1959E+02
     12.097  0.4441E+00  0.4442E+00  0.1962E+02  0.1962E+02
     12.161  0.3902E+00  0.3906E+00  0.1964E+02  0.1964E+02
     12.226  0.3154E+00  0.3150E+00  0.1967E+02  0.1966E+02
     12.291  0.2977E+00  0.2959E+00  0.1968E+02  0.1968E+02
     12.355  0.3140E+00  0.3109E+00  0.1970E+02  0.1970E+02
     12.420  0.3416E+00  0.3351E+00  0.1973E+02  0.1973E+02
     12.485  0.3406E+00  0.3328E+00  0.1975E+02  0.1975E+02
     12.550  0.3281E+00  0.3318E+00  0.1977E+02  0.1977E+02
     12.614  0.3014E+00  0.3101E+00  0.1979E+02  0.1979E+02
     12.679  0.2479E+00  0.2489E+00  0.1981E+02  0.1981E+02
     12.744  0.2529E+00  0.2468E+00  0.1982E+02  0.1982E+02
     12.808  0.3149E+00  0.3026E+00  0.1984E+02  0.1984E+02
     12.873  0.3964E+00  0.3651E+00  0.1987E+02  0.1986E+02
     12.938  0.4044E+00  0.3711E+00  0.1989E+02  0.1989E+02
     13.002  0.2847E+00  0.2967E+00  0.1991E+02  0.1991E+02
     13.067  0.1697E+00  0.2122E+00  0.1992E+02  0.1992E+02
     13.132  0.8708E-01  0.1149E+00  0.1993E+02  0.1993E+02
     13.196  0.3862E-01  0.4899E-01  0.1993E+02  0.1993E+02
     13.261  0.3321E-01  0.3602E-01  0.1993E+02  0.1993E+02
     13.326  0.6958E-01  0.6983E-01  0.1994E+02  0.1994E+02
     13.391  0.1269E+00  0.1269E+00  0.1995E+02  0.1995E+02
     13.455  0.1259E+00  0.1276E+00  0.1996E+02  0.1996E+02
     13.520  0.8528E-01  0.8890E-01  0.1996E+02  0.1996E+02
     13.585  0.6894E-01  0.7449E-01  0.1997E+02  0.1997E+02
     13.649  0.6274E-01  0.6462E-01  0.1997E+02  0.1997E+02
     13.714  0.5452E-01  0.4932E-01  0.1997E+02  0.1997E+02
     13.779  0.5773E-01  0.5311E-01  0.1998E+02  0.1998E+02
     13.843  0.8134E-01  0.7981E-01  0.1998E+02  0.1998E+02
     13.908  0.1078E+00  0.1087E+00  0.1999E+02  0.1999E+02
     13.973  0.9771E-01  0.9851E-01  0.2000E+02  0.2000E+02
     14.037  0.5089E-01  0.5014E-01  0.2000E+02  0.2000E+02
     14.102  0.1786E-01  0.1732E-01  0.2000E+02  0.2000E+02
     14.167  0.5295E-02  0.5097E-02  0.2000E+02  0.2000E+02
     14.232  0.1436E-02  0.1376E-02  0.2000E+02  0.2000E+02
     14.296  0.3964E-03  0.3796E-03  0.2000E+02  0.2000E+02
     14.361  0.0000E+00  0.0000E+00  0.2000E+02  0.2000E+02
     14.426  0.0000E+00  0.0000E+00  0.2000E+02  0.2000E+02
     14.490  0.0000E+00  0.0000E+00  0.2000E+02  0.2000E+02
     14.555  0.0000E+00  0.0000E+00  0.2000E+02  0.2000E+02
     14.620  0.0000E+00  0.0000E+00  0.2000E+02  0.2000E+02
     14.684  0.0000E+00  0.0000E+00  0.2000E+02  0.2000E+02
     14.749  0.0000E+00  0.0000E+00  0.2000E+02  0.2000E+02
     14.814  0.0000E+00  0.0000E+00  0.2000E+02  0.2000E+02
     14.81374796     -4.59359749  301      5.92997148      1.00000000
     -4.594  0.0000E+00  0.0000E+00  0.0000E+00  0.0000E+00  0.0000E+00  0.0000E+00  0.0000E+00  0.0000E+00  0.0000E+00  0.0000E+00  0.0000E+00  0.0000E+00  0.0000E+00  0.0000E+00  0.0000E+00  0.0000E+00  0.0000E+00  0.0000E+00
     -4.529  0.0000E+00  0.0000E+00  0.0000E+00  0.0000E+00  0.0000E+00  0.0000E+00  0.0000E+00  0.0000E+00  0.0000E+00  0.0000E+00  0.0000E+00  0.0000E+00  0.0000E+00  0.0000E+00  0.0000E+00  0.0000E+00  0.0000E+00  0.0000E+00
     -4.464  0.0000E+00  0.0000E+00  0.0000E+00  0.0000E+00  0.0000E+00  0.0000E+00  0.0000E+00  0.0000E+00  0.0000E+00  0.0000E+00  0.0000E+00  0.0000E+00  0.0000E+00  0.0000E+00  0.0000E+00  0.0000E+00  0.0000E+00  0.0000E+00
     -4.400  0.0000E+00  0.0000E+00  0.0000E+00  0.0000E+00  0.0000E+00  0.0000E+00  0.0000E+00  0.0000E+00  0.0000E+00  0.0000E+00  0.0000E+00  0.0000E+00  0.0000E+00  0.0000E+00  0.0000E+00  0.0000E+00  0.0000E+00  0.0000E+00
     -4.335  0.0000E+00  0.0000E+00  0.0000E+00  0.0000E+00  0.0000E+00  0.0000E+00  0.0000E+00  0.0000E+00  0.0000E+00  0.0000E+00  0.0000E+00  0.0000E+00  0.0000E+00  0.0000E+00  0.0000E+00  0.0000E+00  0.0000E+00  0.0000E+00
     -4.270  0.0000E+00  0.0000E+00  0.0000E+00  0.0000E+00  0.0000E+00  0.0000E+00  0.0000E+00  0.0000E+00  0.0000E+00  0.0000E+00  0.0000E+00  0.0000E+00  0.0000E+00  0.0000E+00  0.0000E+00  0.0000E+00  0.0000E+00  0.0000E+00
     -4.205  0.0000E+00  0.0000E+00  0.0000E+00  0.0000E+00  0.0000E+00  0.0000E+00  0.0000E+00  0.0000E+00  0.0000E+00  0.0000E+00  0.0000E+00  0.0000E+00  0.0000E+00  0.0000E+00  0.0000E+00  0.0000E+00  0.0000E+00  0.0000E+00
     -4.141  0.2787E-07  0.2698E-07  0.3486E-22  0.1972E-21  0.1033E-19  0.4249E-19  0.3486E-22  0.1972E-21  0.0000E+00  0.0000E+00  0.0000E+00  0.0000E+00  0.0000E+00  0.0000E+00  0.0000E+00  0.0000E+00  0.0000E+00  0.0000E+00
     -4.076  0.4986E-06  0.4826E-06  0.2532E-08  0.2450E-08  0.2904E-08  0.2809E-08  0.2532E-08  0.2450E-08  0.0000E+00  0.0000E+00  0.0000E+00  0.0000E+00  0.0000E+00  0.0000E+00  0.0000E+00  0.0000E+00  0.0000E+00  0.0000E+00
     -4.011  0.1595E-05  0.1518E-05  0.8993E-08  0.8700E-08  0.1152E-07  0.9717E-08  0.8993E-08  0.8700E-08  0.0000E+00  0.0000E+00  0.0000E+00  0.0000E+00  0.0000E+00  0.0000E+00  0.0000E+00  0.0000E+00  0.0000E+00  0.0000E+00
     -3.947  0.5840E-05  0.5678E-05  0.3413E-07  0.3302E-07  0.4616E-07  0.4607E-07  0.3413E-07  0.3302E-07  0.0000E+00  0.0000E+00  0.0000E+00  0.0000E+00  0.0000E+00  0.0000E+00  0.0000E+00  0.0000E+00  0.0000E+00  0.0000E+00
     -3.882  0.2184E-04  0.2115E-04  0.1486E-06  0.1438E-06  0.1780E-06  0.1722E-06  0.1486E-06  0.1438E-06  0.0000E+00  0.0000E+00  0.0000E+00  0.0000E+00  0.0000E+00  0.0000E+00  0.0000E+00  0.0000E+00  0.0000E+00  0.0000E+00
     -3.817  0.7563E-04  0.7332E-04  0.5045E-06  0.4885E-06  0.6187E-06  0.5989E-06  0.5045E-06  0.4885E-06  0.0000E+00  0.0000E+00  0.0000E+00  0.0000E+00  0.0000E+00  0.0000E+00  0.0000E+00  0.0000E+00  0.0000E+00  0.0000E+00
     -3.753  0.2449E-03  0.2382E-03  0.1758E-05  0.1705E-05  0.2179E-05  0.2114E-05  0.1758E-05  0.1705E-05  0.0000E+00  0.0000E+00  0.0000E+00  0.0000E+00  0.0000E+00  0.0000E+00  0.0000E+00  0.0000E+00  0.0000E+00  0.0000E+00
     -3.688  0.6498E-03  0.6365E-03  0.5396E-05  0.5256E-05  0.6631E-05  0.6460E-05  0.5396E-05  0.5256E-05  0.0000E+00  0.0000E+00  0.0000E+00  0.0000E+00  0.0000E+00  0.0000E+00  0.0000E+00  0.0000E+00  0.0000E+00  0.0000E+00
     -3.623  0.1269E-02  0.1253E-02  0.1332E-04  0.1306E-04  0.1656E-04  0.1623E-04  0.1332E-04  0.1306E-04  0.0000E+00  0.0000E+00  0.0000E+00  0.0000E+00  0.0000E+00  0.0000E+00  0.0000E+00  0.0000E+00  0.0000E+00  0.0000E+00
     -3.559  0.1855E-02  0.1842E-02  0.2653E-04  0.2612E-04  0.3375E-04  0.3324E-04  0.2653E-04  0.2612E-04  0.0000E+00  0.0000E+00  0.0000E+00  0.0000E+00  0.0000E+00  0.0000E+00  0.0000E+00  0.0000E+00  0.0000E+00  0.0000E+00
     -3.494  0.2419E-02  0.2404E-02  0.4744E-04  0.4684E-04  0.5810E-04  0.5750E-04  0.4744E-04  0.4684E-04  0.0000E+00  0.0000E+00  0.0000E+00  0.0000E+00  0.0000E+00  0.0000E+00  0.0000E+00  0.0000E+00  0.0000E+00  0.0000E+00
     -3.429  0.2872E-02  0.2865E-02  0.7109E-04  0.7064E-04  0.8396E-04  0.8343E-04  0.7109E-04  0.7064E-04  0.0000E+00  0.0000E+00  0.0000E+00  0.0000E+00  0.0000E+00  0.0000E+00  0.0000E+00  0.0000E+00  0.0000E+00  0.0000E+00
     -3.364  0.2969E-02  0.2965E-02  0.8909E-04  0.8865E-04  0.1161E-03  0.1152E-03  0.8909E-04  0.8865E-04  0.0000E+00  0.0000E+00  0.0000E+00  0.0000E+00  0.0000E+00  0.0000E+00  0.0000E+00  0.0000E+00  0.0000E+00  0.0000E+00
     -3.300  0.3291E-02  0.3276E-02  0.1206E-03  0.1196E-03  0.1664E-03  0.1654E-03  0.1206E-03  0.1196E-03  0.0000E+00  0.0000E+00  0.0000E+00  0.0000E+00  0.0000E+00  0.0000E+00  0.0000E+00  0.0000E+00  0.0000E+00  0.0000E+00
     -3.235  0.3693E-02  0.3685E-02  0.1648E-03  0.1638E-03  0.2007E-03  0.2006E-03  0.1648E-03  0.1638E-03  0.0000E+00  0.0000E+00  0.0000E+00  0.0000E+00  0.0000E+00  0.0000E+00  0.0000E+00  0.0000E+00  0.0000E+00  0.0000E+00
     -3.170  0.3814E-02  0.3810E-02  0.2014E-03  0.2008E-03  0.2270E-03  0.2262E-03  0.2014E-03  0.2008E-03  0.0000E+00  0.0000E+00  0.0000E+00  0.0000E+00  0.0000E+00  0.0000E+00  0.0000E+00  0.0000E+00  0.0000E+00  0.0000E+00
     -3.106  0.3951E-02  0.3946E-02  0.2311E-03  0.2305E-03  0.2919E-03  0.2904E-03  0.2311E-03  0.2305E-03  0.0000E+00  0.0000E+00  0.0000E+00  0.0000E+00  0.0000E+00  0.0000E+00  0.0000E+00  0.0000E+00  0.0000E+00  0.0000E+00
     -3.041  0.4036E-02  0.4038E-02  0.2584E-03  0.2581E-03  0.3576E-03  0.3568E-03  0.2584E-03  0.2581E-03  0.0000E+00  0.0000E+00  0.0000E+00  0.0000E+00  0.0000E+00  0.0000E+00  0.0000E+00  0.0000E+00  0.0000E+00  0.0000E+00
     -2.976  0.3896E-02  0.3898E-02  0.2781E-03  0.2774E-03  0.4040E-03  0.4033E-03  0.2781E-03  0.2774E-03  0.0000E+00  0.0000E+00  0.0000E+00  0.0000E+00  0.0000E+00  0.0000E+00  0.0000E+00  0.0000E+00  0.0000E+00  0.0000E+00
     -2.912  0.4143E-02  0.4128E-02  0.3469E-03  0.3444E-03  0.4627E-03  0.4614E-03  0.3469E-03  0.3444E-03  0.0000E+00  0.0000E+00  0.0000E+00  0.0000E+00  0.0000E+00  0.0000E+00  0.0000E+00  0.0000E+00  0.0000E+00  0.0000E+00
     -2.847  0.4651E-02  0.4643E-02  0.4424E-03  0.4408E-03  0.5322E-03  0.5315E-03  0.4424E-03  0.4408E-03  0.0000E+00  0.0000E+00  0.0000E+00  0.0000E+00  0.0000E+00  0.0000E+00  0.0000E+00  0.0000E+00  0.0000E+00  0.0000E+00
     -2.782  0.4602E-02  0.4609E-02  0.4822E-03  0.4819E-03  0.5608E-03  0.5610E-03  0.4822E-03  0.4819E-03  0.0000E+00  0.0000E+00  0.0000E+00  0.0000E+00  0.0000E+00  0.0000E+00  0.0000E+00  0.0000E+00  0.0000E+00  0.0000E+00
     -2.718  0.4469E-02  0.4471E-02  0.5102E-03  0.5098E-03  0.6250E-03  0.6224E-03  0.5102E-03  0.5098E-03  0.0000E+00  0.0000E+00  0.0000E+00  0.0000E+00  0.0000E+00  0.0000E+00  0.0000E+00  0.0000E+00  0.0000E+00  0.0000E+00
     -2.653  0.4384E-02  0.4393E-02  0.5129E-03  0.5139E-03  0.7777E-03  0.7746E-03  0.5129E-03  0.5139E-03  0.0000E+00  0.0000E+00  0.0000E+00  0.0000E+00  0.0000E+00  0.0000E+00  0.0000E+00  0.0000E+00  0.0000E+00  0.0000E+00
     -2.588  0.4148E-02  0.4153E-02  0.5111E-03  0.5102E-03  0.8860E-03  0.8849E-03  0.5111E-03  0.5102E-03  0.0000E+00  0.0000E+00  0.0000E+00  0.0000E+00  0.0000E+00  0.0000E+00  0.0000E+00  0.0000E+00  0.0000E+00  0.0000E+00
     -2.523  0.4300E-02  0.4292E-02  0.6102E-03  0.6065E-03  0.9444E-03  0.9443E-03  0.6102E-03  0.6065E-03  0.0000E+00  0.0000E+00  0.0000E+00  0.0000E+00  0.0000E+00  0.0000E+00  0.0000E+00  0.0000E+00  0.0000E+00  0.0000E+00
     -2.459  0.4668E-02  0.4664E-02  0.7693E-03  0.7657E-03  0.9749E-03  0.9758E-03  0.7693E-03  0.7657E-03  0.0000E+00  0.0000E+00  0.0000E+00  0.0000E+00  0.0000E+00  0.0000E+00  0.0000E+00  0.0000E+00  0.0000E+00  0.0000E+00
     -2.394  0.4717E-02  0.4725E-02  0.8681E-03  0.8673E-03  0.1017E-02  0.1015E-02  0.8681E-03  0.8673E-03  0.0000E+00  0.0000E+00  0.0000E+00  0.0000E+00  0.0000E+00  0.0000E+00  0.0000E+00  0.0000E+00  0.0000E+00  0.0000E+00
     -2.329  0.4580E-02  0.4585E-02  0.9023E-03  0.9019E-03  0.1232E-02  0.1225E-02  0.9023E-03  0.9019E-03  0.0000E+00  0.0000E+00  0.0000E+00  0.0000E+00  0.0000E+00  0.0000E+00  0.0000E+00  0.0000E+00  0.0000E+00  0.0000E+00
     -2.265  0.4487E-02  0.4499E-02  0.9177E-03  0.9188E-03  0.1524E-02  0.1519E-02  0.9177E-03  0.9188E-03  0.0000E+00  0.0000E+00  0.0000E+00  0.0000E+00  0.0000E+00  0.0000E+00  0.0000E+00  0.0000E+00  0.0000E+00  0.0000E+00
     -2.200  0.4128E-02  0.4144E-02  0.8833E-03  0.8840E-03  0.1680E-02  0.1679E-02  0.8833E-03  0.8840E-03  0.0000E+00  0.0000E+00  0.0000E+00  0.0000E+00  0.0000E+00  0.0000E+00  0.0000E+00  0.0000E+00  0.0000E+00  0.0000E+00
     -2.135  0.4054E-02  0.4058E-02  0.9529E-03  0.9497E-03  0.1845E-02  0.1842E-02  0.9529E-03  0.9497E-03  0.0000E+00  0.0000E+00  0.0000E+00  0.0000E+00  0.0000E+00  0.0000E+00  0.0000E+00  0.0000E+00  0.0000E+00  0.0000E+00
     -2.071  0.4019E-02  0.4034E-02  0.1047E-02  0.1046E-02  0.1865E-02  0.1872E-02  0.1047E-02  0.1046E-02  0.0000E+00  0.0000E+00  0.0000E+00  0.0000E+00  0.0000E+00  0.0000E+00  0.0000E+00  0.0000E+00  0.0000E+00  0.0000E+00
     -2.006  0.3687E-02  0.3698E-02  0.1116E-02  0.1112E-02  0.1692E-02  0.1695E-02  0.1116E-02  0.1112E-02  0.0000E+00  0.0000E+00  0.0000E+00  0.0000E+00  0.0000E+00  0.0000E+00  0.0000E+00  0.0000E+00  0.0000E+00  0.0000E+00
     -1.941  0.3792E-02  0.3789E-02  0.1327E-02  0.1320E-02  0.1909E-02  0.1900E-02  0.1327E-02  0.1320E-02  0.0000E+00  0.0000E+00  0.0000E+00  0.0000E+00  0.0000E+00  0.0000E+00  0.0000E+00  0.0000E+00  0.0000E+00  0.0000E+00
     -1.877  0.4006E-02  0.4011E-02  0.1528E-02  0.1525E-02  0.2210E-02  0.2210E-02  0.1528E-02  0.1525E-02  0.0000E+00  0.0000E+00  0.0000E+00  0.0000E+00  0.0000E+00  0.0000E+00  0.0000E+00  0.0000E+00  0.0000E+00  0.0000E+00
     -1.812  0.3807E-02  0.3823E-02  0.1586E-02  0.1586E-02  0.2090E-02  0.2100E-02  0.1586E-02  0.1586E-02  0.0000E+00  0.0000E+00  0.0000E+00  0.0000E+00  0.0000E+00  0.0000E+00  0.0000E+00  0.0000E+00  0.0000E+00  0.0000E+00
     -1.747  0.3505E-02  0.3517E-02  0.1634E-02  0.1632E-02  0.1937E-02  0.1940E-02  0.1634E-02  0.1632E-02  0.0000E+00  0.0000E+00  0.0000E+00  0.0000E+00  0.0000E+00  0.0000E+00  0.0000E+00  0.0000E+00  0.0000E+00  0.0000E+00
     -1.682  0.3246E-02  0.3262E-02  0.1718E-02  0.1717E-02  0.1948E-02  0.1950E-02  0.1718E-02  0.1717E-02  0.0000E+00  0.0000E+00  0.0000E+00  0.0000E+00  0.0000E+00  0.0000E+00  0.0000E+00  0.0000E+00  0.0000E+00  0.0000E+00
     -1.618  0.2777E-02  0.2795E-02  0.1708E-02  0.1708E-02  0.1893E-02  0.1895E-02  0.1708E-02  0.1708E-02  0.0000E+00  0.0000E+00  0.0000E+00  0.0000E+00  0.0000E+00  0.0000E+00  0.0000E+00  0.0000E+00  0.0000E+00  0.0000E+00
     -1.553  0.2617E-02  0.2618E-02  0.1887E-02  0.1876E-02  0.2102E-02  0.2093E-02  0.1887E-02  0.1876E-02  0.0000E+00  0.0000E+00  0.0000E+00  0.0000E+00  0.0000E+00  0.0000E+00  0.0000E+00  0.0000E+00  0.0000E+00  0.0000E+00
     -1.488  0.2708E-02  0.2713E-02  0.2264E-02  0.2255E-02  0.2398E-02  0.2398E-02  0.2264E-02  0.2255E-02  0.0000E+00  0.0000E+00  0.0000E+00  0.0000E+00  0.0000E+00  0.0000E+00  0.0000E+00  0.0000E+00  0.0000E+00  0.0000E+00
     -1.424  0.2455E-02  0.2469E-02  0.2447E-02  0.2445E-02  0.2260E-02  0.2271E-02  0.2447E-02  0.2445E-02  0.0000E+00  0.0000E+00  0.0000E+00  0.0000E+00  0.0000E+00  0.0000E+00  0.0000E+00  0.0000E+00  0.0000E+00  0.0000E+00
     -1.359  0.2079E-02  0.2095E-02  0.2413E-02  0.2421E-02  0.2024E-02  0.2034E-02  0.2413E-02  0.2421E-02  0.0000E+00  0.0000E+00  0.0000E+00  0.0000E+00  0.0000E+00  0.0000E+00  0.0000E+00  0.0000E+00  0.0000E+00  0.0000E+00