   8   8   1   0
  0.1543137E+02  0.3952041E-09  0.3952041E-09  0.7904083E-09  0.5000000E-15
  1.000000000000000E-004
  CAR 
 unknown system                          
     16.12784842     -4.36063243  301      6.73489466      1.00000000
     -4.361  0.0000E+00  0.0000E+00  0.0000E+00  0.0000E+00
     -4.292  0.0000E+00  0.0000E+00  0.0000E+00  0.0000E+00
     -4.224  0.0000E+00  0.0000E+00  0.0000E+00  0.0000E+00
     -4.156  0.0000E+00  0.0000E+00  0.0000E+00  0.0000E+00
     -4.087  0.0000E+00  0.0000E+00  0.0000E+00  0.0000E+00
     -4.019  0.0000E+00  0.0000E+00  0.0000E+00  0.0000E+00
     -3.951  0.0000E+00  0.0000E+00  0.0000E+00  0.0000E+00
     -3.883  0.1432E-05  0.1365E-05  0.9778E-07  0.9320E-07
     -3.814  0.1683E-04  0.1604E-04  0.1247E-05  0.1189E-05
     -3.746  0.9960E-04  0.9493E-04  0.8049E-05  0.7672E-05
     -3.678  0.3540E-03  0.3374E-03  0.3222E-04  0.3072E-04
     -3.609  0.1437E-02  0.1370E-02  0.1304E-03  0.1243E-03
     -3.541  0.5416E-02  0.5173E-02  0.5002E-03  0.4776E-03
     -3.473  0.1883E-01  0.1807E-01  0.1786E-02  0.1712E-02
     -3.405  0.5340E-01  0.5175E-01  0.5433E-02  0.5246E-02
     -3.336  0.1083E+00  0.1063E+00  0.1283E-01  0.1251E-01
     -3.268  0.1603E+00  0.1587E+00  0.2378E-01  0.2334E-01
     -3.200  0.2129E+00  0.2109E+00  0.3832E-01  0.3774E-01
     -3.131  0.2585E+00  0.2576E+00  0.5597E-01  0.5533E-01
     -3.063  0.2680E+00  0.2676E+00  0.7427E-01  0.7361E-01
     -2.995  0.3049E+00  0.3029E+00  0.9510E-01  0.9429E-01
     -2.926  0.3512E+00  0.3502E+00  0.1191E+00  0.1182E+00
     -2.858  0.3678E+00  0.3672E+00  0.1442E+00  0.1433E+00
     -2.790  0.3906E+00  0.3895E+00  0.1709E+00  0.1699E+00
     -2.722  0.4104E+00  0.4102E+00  0.1990E+00  0.1980E+00
     -2.653  0.4017E+00  0.4018E+00  0.2264E+00  0.2254E+00
     -2.585  0.4378E+00  0.4351E+00  0.2563E+00  0.2552E+00
     -2.517  0.5107E+00  0.5090E+00  0.2912E+00  0.2899E+00
     -2.448  0.5139E+00  0.5146E+00  0.3263E+00  0.3251E+00
     -2.380  0.5121E+00  0.5113E+00  0.3613E+00  0.3600E+00
     -2.312  0.5255E+00  0.5260E+00  0.3972E+00  0.3960E+00
     -2.243  0.5109E+00  0.5109E+00  0.4322E+00  0.4309E+00
     -2.175  0.5450E+00  0.5428E+00  0.4694E+00  0.4680E+00
     -2.107  0.6112E+00  0.6090E+00  0.5112E+00  0.5096E+00
     -2.039  0.6389E+00  0.6387E+00  0.5548E+00  0.5533E+00
     -1.970  0.6547E+00  0.6535E+00  0.5996E+00  0.5979E+00
     -1.902  0.6892E+00  0.6889E+00  0.6467E+00  0.6450E+00
     -1.834  0.6655E+00  0.6665E+00  0.6922E+00  0.6905E+00
     -1.765  0.6899E+00  0.6877E+00  0.7393E+00  0.7375E+00
     -1.697  0.7164E+00  0.7175E+00  0.7883E+00  0.7866E+00
     -1.629  0.6696E+00  0.6698E+00  0.8340E+00  0.8323E+00
     -1.561  0.7404E+00  0.7356E+00  0.8846E+00  0.8826E+00
     -1.492  0.8430E+00  0.8411E+00  0.9422E+00  0.9401E+00
     -1.424  0.8233E+00  0.8254E+00  0.9985E+00  0.9965E+00
     -1.356  0.7840E+00  0.7842E+00  0.1052E+01  0.1050E+01
     -1.287  0.7895E+00  0.7899E+00  0.1106E+01  0.1104E+01
     -1.219  0.7382E+00  0.7401E+00  0.1156E+01  0.1155E+01
     -1.151  0.7684E+00  0.7635E+00  0.1209E+01  0.1207E+01
     -1.082  0.8999E+00  0.8964E+00  0.1270E+01  0.1268E+01
     -1.014  0.9054E+00  0.9063E+00  0.1332E+01  0.1330E+01
     -0.946  0.8525E+00  0.8556E+00  0.1391E+01  0.1388E+01
     -0.878  0.7320E+00  0.7366E+00  0.1441E+01  0.1439E+01
     -0.809  0.6950E+00  0.6937E+00  0.1488E+01  0.1486E+01
     -0.741  0.7373E+00  0.7366E+00  0.1538E+01  0.1537E+01
     -0.673  0.7118E+00  0.7147E+00  0.1587E+01  0.1585E+01
     -0.604  0.5948E+00  0.5996E+00  0.1628E+01  0.1626E+01
     -0.536  0.4979E+00  0.5000E+00  0.1662E+01  0.1661E+01
     -0.468  0.4638E+00  0.4647E+00  0.1694E+01  0.1692E+01
     -0.400  0.4651E+00  0.4642E+00  0.1725E+01  0.1724E+01
     -0.331  0.5273E+00  0.5237E+00  0.1761E+01  0.1760E+01
     -0.263  0.6117E+00  0.6088E+00  0.1803E+01  0.1802E+01
     -0.195  0.6881E+00  0.6844E+00  0.1850E+01  0.1848E+01
     -0.126  0.8007E+00  0.7980E+00  0.1905E+01  0.1903E+01
     -0.058  0.8474E+00  0.8479E+00  0.1963E+01  0.1961E+01
      0.010  0.8714E+00  0.8691E+00  0.2022E+01  0.2020E+01
      0.079  0.9805E+00  0.9764E+00  0.2089E+01  0.2087E+01
      0.147  0.1035E+01  0.1036E+01  0.2160E+01  0.2158E+01
      0.215  0.9686E+00  0.9706E+00  0.2226E+01  0.2224E+01
      0.283  0.9706E+00  0.9682E+00  0.2293E+01  0.2290E+01
      0.352  0.1033E+01  0.1033E+01  0.2363E+01  0.2361E+01
      0.420  0.9382E+00  0.9441E+00  0.2427E+01  0.2425E+01
      0.488  0.8158E+00  0.8185E+00  0.2483E+01  0.2481E+01
      0.557  0.8087E+00  0.8072E+00  0.2538E+01  0.2536E+01
      0.625  0.8761E+00  0.8734E+00  0.2598E+01  0.2596E+01
      0.693  0.9088E+00  0.9091E+00  0.2660E+01  0.2658E+01
      0.761  0.8916E+00  0.8916E+00  0.2721E+01  0.2719E+01
      0.830  0.9161E+00  0.9144E+00  0.2784E+01  0.2782E+01
      0.898  0.9392E+00  0.9403E+00  0.2848E+01  0.2846E+01
      0.966  0.8344E+00  0.8411E+00  0.2905E+01  0.2903E+01
      1.035  0.7184E+00  0.7209E+00  0.2954E+01  0.2953E+01
      1.103  0.7488E+00  0.7457E+00  0.3005E+01  0.3004E+01
      1.171  0.8133E+00  0.8127E+00  0.3061E+01  0.3059E+01
      1.240  0.7776E+00  0.7807E+00  0.3114E+01  0.3112E+01
      1.308  0.6733E+00  0.6767E+00  0.3160E+01  0.3159E+01
      1.376  0.6088E+00  0.6079E+00  0.3202E+01  0.3200E+01
      1.444  0.7735E+00  0.7636E+00  0.3255E+01  0.3252E+01
      1.513  0.1143E+01  0.1132E+01  0.3333E+01  0.3330E+01
      1.581  0.1368E+01  0.1369E+01  0.3426E+01  0.3423E+01
      1.649  0.1294E+01  0.1301E+01  0.3515E+01  0.3512E+01
      1.718  0.1145E+01  0.1150E+01  0.3593E+01  0.3591E+01
      1.786  0.9790E+00  0.9828E+00  0.3660E+01  0.3658E+01
      1.854  0.8539E+00  0.8540E+00  0.3718E+01  0.3716E+01
      1.923  0.9286E+00  0.9235E+00  0.3782E+01  0.3780E+01
      1.991  0.1071E+01  0.1070E+01  0.3855E+01  0.3853E+01
      2.059  0.1019E+01  0.1022E+01  0.3925E+01  0.3923E+01
      2.127  0.9950E+00  0.9913E+00  0.3993E+01  0.3990E+01
      2.196  0.1143E+01  0.1138E+01  0.4071E+01  0.4068E+01
      2.264  0.1216E+01  0.1216E+01  0.4154E+01  0.4151E+01
      2.332  0.1183E+01  0.1183E+01  0.4235E+01  0.4232E+01
      2.401  0.1157E+01  0.1158E+01  0.4314E+01  0.4311E+01
      2.469  0.1122E+01  0.1125E+01  0.4390E+01  0.4388E+01
      2.537  0.1116E+01  0.1117E+01  0.4467E+01  0.4464E+01
      2.605  0.1083E+01  0.1085E+01  0.4541E+01  0.4539E+01
      2.674  0.9917E+00  0.9940E+00  0.4608E+01  0.4606E+01
      2.742  0.9989E+00  0.9966E+00  0.4677E+01  0.4675E+01
      2.810  0.1054E+01  0.1053E+01  0.4749E+01  0.4747E+01
      2.879  0.9756E+00  0.9802E+00  0.4815E+01  0.4814E+01
      2.947  0.8590E+00  0.8615E+00  0.4874E+01  0.4872E+01
      3.015  0.8927E+00  0.8900E+00  0.4935E+01  0.4933E+01
      3.084  0.1091E+01  0.1084E+01  0.5010E+01  0.5007E+01
      3.152  0.1477E+01  0.1465E+01  0.5111E+01  0.5107E+01
      3.220  0.1863E+01  0.1857E+01  0.5238E+01  0.5234E+01
      3.288  0.1923E+01  0.1927E+01  0.5369E+01  0.5366E+01
      3.357  0.1640E+01  0.1651E+01  0.5481E+01  0.5479E+01
      3.425  0.1279E+01  0.1285E+01  0.5569E+01  0.5567E+01
      3.493  0.1129E+01  0.1129E+01  0.5646E+01  0.5644E+01
      3.562  0.1157E+01  0.1157E+01  0.5725E+01  0.5723E+01
      3.630  0.1179E+01  0.1179E+01  0.5806E+01  0.5803E+01
      3.698  0.1144E+01  0.1146E+01  0.5884E+01  0.5882E+01
      3.766  0.1060E+01  0.1064E+01  0.5956E+01  0.5954E+01
      3.835  0.1098E+01  0.1096E+01  0.6031E+01  0.6029E+01
      3.903  0.1292E+01  0.1287E+01  0.6120E+01  0.6117E+01
      3.971  0.1416E+01  0.1412E+01  0.6216E+01  0.6214E+01
      4.040  0.1490E+01  0.1487E+01  0.6318E+01  0.6315E+01
      4.108  0.1482E+01  0.1485E+01  0.6419E+01  0.6417E+01
      4.176  0.1284E+01  0.1290E+01  0.6507E+01  0.6505E+01
      4.245  0.1087E+01  0.1091E+01  0.6582E+01  0.6580E+01
      4.313  0.1033E+01  0.1034E+01  0.6652E+01  0.6650E+01
      4.381  0.1137E+01  0.1131E+01  0.6730E+01  0.6728E+01
      4.449  0.1345E+01  0.1339E+01  0.6822E+01  0.6819E+01
      4.518  0.1491E+01  0.1487E+01  0.6924E+01  0.6921E+01
      4.586  0.1629E+01  0.1629E+01  0.7035E+01  0.7032E+01
      4.654  0.1694E+01  0.1697E+01  0.7151E+01  0.7148E+01
      4.723  0.1715E+01  0.1717E+01  0.7268E+01  0.7265E+01
      4.791  0.1644E+01  0.1646E+01  0.7380E+01  0.7378E+01
      4.859  0.1482E+01  0.1484E+01  0.7482E+01  0.7479E+01
      4.927  0.1343E+01  0.1343E+01  0.7573E+01  0.7571E+01
      4.996  0.1355E+01  0.1354E+01  0.7666E+01  0.7664E+01
      5.064  0.1376E+01  0.1377E+01  0.7760E+01  0.7758E+01
      5.132  0.1305E+01  0.1309E+01  0.7849E+01  0.7847E+01
      5.201  0.1157E+01  0.1160E+01  0.7928E+01  0.7926E+01
      5.269  0.1113E+01  0.1110E+01  0.8004E+01  0.8002E+01
      5.337  0.1245E+01  0.1238E+01  0.8090E+01  0.8087E+01
      5.406  0.1454E+01  0.1448E+01  0.8189E+01  0.8186E+01
      5.474  0.1535E+01  0.1538E+01  0.8294E+01  0.8291E+01
      5.542  0.1347E+01  0.1356E+01  0.8386E+01  0.8384E+01
      5.610  0.1171E+01  0.1177E+01  0.8466E+01  0.8464E+01
      5.679  0.1100E+01  0.1102E+01  0.8541E+01  0.8539E+01
      5.747  0.1132E+01  0.1127E+01  0.8618E+01  0.8616E+01
      5.815  0.1279E+01  0.1274E+01  0.8706E+01  0.8704E+01
      5.884  0.1420E+01  0.1418E+01  0.8803E+01  0.8800E+01
      5.952  0.1561E+01  0.1560E+01  0.8910E+01  0.8907E+01
      6.020  0.1545E+01  0.1548E+01  0.9015E+01  0.9013E+01
      6.088  0.1451E+01  0.1454E+01  0.9114E+01  0.9112E+01
      6.157  0.1348E+01  0.1350E+01  0.9206E+01  0.9204E+01
      6.225  0.1238E+01  0.1240E+01  0.9291E+01  0.9289E+01
      6.293  0.1090E+01  0.1094E+01  0.9366E+01  0.9364E+01
      6.362  0.9804E+00  0.9799E+00  0.9433E+01  0.9431E+01
      6.430  0.1083E+01  0.1076E+01  0.9507E+01  0.9504E+01
      6.498  0.1349E+01  0.1341E+01  0.9599E+01  0.9596E+01
      6.567  0.1612E+01  0.1606E+01  0.9709E+01  0.9706E+01
      6.635  0.1808E+01  0.1809E+01  0.9833E+01  0.9829E+01
      6.703  0.1750E+01  0.1758E+01  0.9952E+01  0.9950E+01
      6.771  0.1443E+01  0.1452E+01  0.1005E+02  0.1005E+02
      6.840  0.1121E+01  0.1127E+01  0.1013E+02  0.1013E+02
      6.908  0.1003E+01  0.1003E+01  0.1020E+02  0.1019E+02
      6.976  0.1135E+01  0.1129E+01  0.1027E+02  0.1027E+02
      7.045  0.1372E+01  0.1366E+01  0.1037E+02  0.1037E+02
      7.113  0.1456E+01  0.1456E+01  0.1047E+02  0.1046E+02
      7.181  0.1336E+01  0.1338E+01  0.1056E+02  0.1056E+02
      7.250  0.1338E+01  0.1336E+01  0.1065E+02  0.1065E+02
      7.318  0.1522E+01  0.1517E+01  0.1075E+02  0.1075E+02
      7.386  0.1694E+01  0.1690E+01  0.1087E+02  0.1087E+02
      7.454  0.1750E+01  0.1751E+01  0.1099E+02  0.1099E+02
      7.523  0.1650E+01  0.1655E+01  0.1110E+02  0.1110E+02
      7.591  0.1508E+01  0.1509E+01  0.1120E+02  0.1120E+02
      7.659  0.1447E+01  0.1445E+01  0.1130E+02  0.1130E+02
      7.728  0.1416E+01  0.1415E+01  0.1140E+02  0.1140E+02
      7.796  0.1445E+01  0.1444E+01  0.1150E+02  0.1150E+02
      7.864  0.1432E+01  0.1434E+01  0.1160E+02  0.1159E+02
      7.932  0.1299E+01  0.1302E+01  0.1169E+02  0.1168E+02
      8.001  0.1264E+01  0.1265E+01  0.1177E+02  0.1177E+02
      8.069  0.1398E+01  0.1394E+01  0.1187E+02  0.1187E+02
      8.137  0.1629E+01  0.1622E+01  0.1198E+02  0.1198E+02
      8.206  0.1748E+01  0.1747E+01  0.1210E+02  0.1210E+02
      8.274  0.1542E+01  0.1548E+01  0.1220E+02  0.1220E+02
      8.342  0.1294E+01  0.1297E+01  0.1229E+02  0.1229E+02
      8.411  0.1237E+01  0.1235E+01  0.1238E+02  0.1237E+02
      8.479  0.1308E+01  0.1305E+01  0.1247E+02  0.1246E+02
      8.547  0.1391E+01  0.1388E+01  0.1256E+02  0.1256E+02
      8.615  0.1571E+01  0.1563E+01  0.1267E+02  0.1267E+02
      8.684  0.1875E+01  0.1868E+01  0.1280E+02  0.1279E+02
      8.752  0.1917E+01  0.1922E+01  0.1293E+02  0.1292E+02
      8.820  0.1670E+01  0.1678E+01  0.1304E+02  0.1304E+02
      8.889  0.1469E+01  0.1474E+01  0.1314E+02  0.1314E+02
      8.957  0.1430E+01  0.1432E+01  0.1324E+02  0.1324E+02
      9.025  0.1521E+01  0.1517E+01  0.1334E+02  0.1334E+02
      9.093  0.1694E+01  0.1691E+01  0.1346E+02  0.1346E+02
      9.162  0.1711E+01  0.1715E+01  0.1358E+02  0.1357E+02
      9.230  0.1619E+01  0.1622E+01  0.1369E+02  0.1368E+02
      9.298  0.1651E+01  0.1648E+01  0.1380E+02  0.1380E+02
      9.367  0.1819E+01  0.1814E+01  0.1392E+02  0.1392E+02
      9.435  0.1901E+01  0.1899E+01  0.1405E+02  0.1405E+02
      9.503  0.1833E+01  0.1832E+01  0.1418E+02  0.1418E+02
      9.572  0.1773E+01  0.1772E+01  0.1430E+02  0.1430E+02
      9.640  0.1735E+01  0.1737E+01  0.1442E+02  0.1442E+02
      9.708  0.1620E+01  0.1625E+01  0.1453E+02  0.1453E+02
      9.776  0.1551E+01  0.1552E+01  0.1464E+02  0.1463E+02
      9.845  0.1630E+01  0.1627E+01  0.1475E+02  0.1474E+02
      9.913  0.1763E+01  0.1761E+01  0.1487E+02  0.1487E+02
      9.981  0.1847E+01  0.1846E+01  0.1499E+02  0.1499E+02
     10.050  0.1840E+01  0.1841E+01  0.1512E+02  0.1512E+02
     10.118  0.1717E+01  0.1721E+01  0.1524E+02  0.1523E+02
     10.186  0.1524E+01  0.1527E+01  0.1534E+02  0.1534E+02
     10.254  0.1451E+01  0.1448E+01  0.1544E+02  0.1544E+02
     10.323  0.1606E+01  0.1601E+01  0.1555E+02  0.1555E+02
     10.391  0.1799E+01  0.1796E+01  0.1567E+02  0.1567E+02
     10.459  0.1934E+01  0.1930E+01  0.1581E+02  0.1580E+02
     10.528  0.2021E+01  0.2019E+01  0.1594E+02  0.1594E+02
     10.596  0.1894E+01  0.1900E+01  0.1607E+02  0.1607E+02
     10.664  0.1629E+01  0.1635E+01  0.1618E+02  0.1618E+02
     10.733  0.1544E+01  0.1543E+01  0.1629E+02  0.1629E+02
     10.801  0.1613E+01  0.1612E+01  0.1640E+02  0.1640E+02
     10.869  0.1663E+01  0.1662E+01  0.1651E+02  0.1651E+02
     10.937  0.1714E+01  0.1713E+01  0.1663E+02  0.1663E+02
     11.006  0.1702E+01  0.1703E+01  0.1675E+02  0.1674E+02
     11.074  0.1672E+01  0.1672E+01  0.1686E+02  0.1686E+02
     11.142  0.1727E+01  0.1726E+01  0.1698E+02  0.1698E+02
     11.211  0.1741E+01  0.1740E+01  0.1710E+02  0.1710E+02
     11.279  0.1764E+01  0.1759E+01  0.1722E+02  0.1722E+02
     11.347  0.1861E+01  0.1857E+01  0.1735E+02  0.1734E+02
     11.415  0.1902E+01  0.1903E+01  0.1748E+02  0.1747E+02
     11.484  0.1831E+01  0.1836E+01  0.1760E+02  0.1760E+02
     11.552  0.1695E+01  0.1701E+01  0.1772E+02  0.1771E+02
     11.620  0.1474E+01  0.1481E+01  0.1782E+02  0.1782E+02
     11.689  0.1243E+01  0.1249E+01  0.1790E+02  0.1790E+02
     11.757  0.1155E+01  0.1154E+01  0.1798E+02  0.1798E+02
     11.825  0.1292E+01  0.1284E+01  0.1807E+02  0.1807E+02
     11.894  0.1622E+01  0.1613E+01  0.1818E+02  0.1818E+02
     11.962  0.1921E+01  0.1924E+01  0.1831E+02  0.1831E+02
     12.030  0.1884E+01  0.1904E+01  0.1844E+02  0.1844E+02
     12.098  0.1668E+01  0.1684E+01  0.1856E+02  0.1855E+02
     12.167  0.1456E+01  0.1456E+01  0.1865E+02  0.1865E+02
     12.235  0.1262E+01  0.1258E+01  0.1874E+02  0.1874E+02
     12.303  0.1229E+01  0.1204E+01  0.1883E+02  0.1882E+02
     12.372  0.1328E+01  0.1282E+01  0.1892E+02  0.1891E+02
     12.440  0.1395E+01  0.1362E+01  0.1901E+02  0.1900E+02
     12.508  0.1357E+01  0.1368E+01  0.1910E+02  0.1910E+02
     12.577  0.1191E+01  0.1221E+01  0.1919E+02  0.1918E+02
     12.645  0.9131E+00  0.9467E+00  0.1925E+02  0.1924E+02
     12.713  0.7834E+00  0.8034E+00  0.1930E+02  0.1930E+02
     12.781  0.8387E+00  0.8606E+00  0.1936E+02  0.1936E+02
     12.850  0.8103E+00  0.8558E+00  0.1941E+02  0.1942E+02
     12.918  0.6736E+00  0.7043E+00  0.1946E+02  0.1946E+02
     12.986  0.5366E+00  0.5108E+00  0.1950E+02  0.1950E+02
     13.055  0.4524E+00  0.4151E+00  0.1953E+02  0.1953E+02
     13.123  0.4380E+00  0.4208E+00  0.1956E+02  0.1956E+02
     13.191  0.4507E+00  0.4467E+00  0.1959E+02  0.1959E+02
     13.259  0.4658E+00  0.4683E+00  0.1962E+02  0.1962E+02
     13.328  0.3583E+00  0.3629E+00  0.1964E+02  0.1964E+02
     13.396  0.2043E+00  0.2073E+00  0.1966E+02  0.1966E+02
     13.464  0.1224E+00  0.1216E+00  0.1967E+02  0.1967E+02
     13.533  0.1627E+00  0.1567E+00  0.1968E+02  0.1968E+02
     13.601  0.3028E+00  0.2955E+00  0.1970E+02  0.1970E+02
     13.669  0.4073E+00  0.4046E+00  0.1973E+02  0.1973E+02
     13.738  0.4452E+00  0.4460E+00  0.1976E+02  0.1976E+02
     13.806  0.3781E+00  0.3851E+00  0.1978E+02  0.1978E+02
     13.874  0.2254E+00  0.2314E+00  0.1980E+02  0.1980E+02
     13.942  0.1516E+00  0.1510E+00  0.1981E+02  0.1981E+02
     14.011  0.2427E+00  0.2347E+00  0.1983E+02  0.1982E+02
     14.079  0.4155E+00  0.4099E+00  0.1985E+02  0.1985E+02
     14.147  0.4267E+00  0.4298E+00  0.1988E+02  0.1988E+02
     14.216  0.3016E+00  0.3021E+00  0.1990E+02  0.1990E+02
     14.284  0.1808E+00  0.1815E+00  0.1992E+02  0.1991E+02
     14.352  0.1167E+00  0.1151E+00  0.1992E+02  0.1992E+02
     14.420  0.8101E-01  0.8677E-01  0.1993E+02  0.1993E+02
     14.489  0.5030E-01  0.5732E-01  0.1993E+02  0.1993E+02
     14.557  0.6548E-01  0.6704E-01  0.1994E+02  0.1994E+02
     14.625  0.1227E+00  0.1219E+00  0.1995E+02  0.1995E+02
     14.694  0.1336E+00  0.1348E+00  0.1996E+02  0.1995E+02
     14.762  0.8810E-01  0.8959E-01  0.1996E+02  0.1996E+02
     14.830  0.5161E-01  0.5188E-01  0.1996E+02  0.1996E+02
     14.899  0.3142E-01  0.2971E-01  0.1997E+02  0.1997E+02
     14.967  0.4183E-01  0.3720E-01  0.1997E+02  0.1997E+02
     15.035  0.7643E-01  0.7465E-01  0.1997E+02  0.1997E+02
     15.103  0.1054E+00  0.1124E+00  0.1998E+02  0.1998E+02
     15.172  0.1168E+00  0.1212E+00  0.1999E+02  0.1999E+02
     15.240  0.8877E-01  0.8779E-01  0.2000E+02  0.2000E+02
     15.308  0.4005E-01  0.3947E-01  0.2000E+02  0.2000E+02
     15.377  0.1262E-01  0.1253E-01  0.2000E+02  0.2000E+02
     15.445  0.3381E-02  0.3351E-02  0.2000E+02  0.2000E+02
     15.513  0.8477E-03  0.8354E-03  0.2000E+02  0.2000E+02
     15.581  0.1219E-03  0.1308E-03  0.2000E+02  0.2000E+02
     15.650  0.0000E+00  0.0000E+00  0.2000E+02  0.2000E+02
     15.718  0.0000E+00  0.0000E+00  0.2000E+02  0.2000E+02
     15.786  0.0000E+00  0.0000E+00  0.2000E+02  0.2000E+02
     15.855  0.0000E+00  0.0000E+00  0.2000E+02  0.2000E+02
     15.923  0.0000E+00  0.0000E+00  0.2000E+02  0.2000E+02
     15.991  0.0000E+00  0.0000E+00  0.2000E+02  0.2000E+02
     16.060  0.0000E+00  0.0000E+00  0.2000E+02  0.2000E+02
     16.128  0.0000E+00  0.0000E+00  0.2000E+02  0.2000E+02
     16.12784842     -4.36063243  301      6.73489466      1.00000000
     -4.361  0.0000E+00  0.0000E+00  0.0000E+00  0.0000E+00  0.0000E+00  0.0000E+00  0.0000E+00  0.0000E+00  0.0000E+00  0.0000E+00  0.0000E+00  0.0000E+00  0.0000E+00  0.0000E+00  0.0000E+00  0.0000E+00  0.0000E+00  0.0000E+00
     -4.292  0.0000E+00  0.0000E+00  0.0000E+00  0.0000E+00  0.0000E+00  0.0000E+00  0.0000E+00  0.0000E+00  0.0000E+00  0.0000E+00  0.0000E+00  0.0000E+00  0.0000E+00  0.0000E+00  0.0000E+00  0.0000E+00  0.0000E+00  0.0000E+00
     -4.224  0.0000E+00  0.0000E+00  0.0000E+00  0.0000E+00  0.0000E+00  0.0000E+00  0.0000E+00  0.0000E+00  0.0000E+00  0.0000E+00  0.0000E+00  0.0000E+00  0.0000E+00  0.0000E+00  0.0000E+00  0.0000E+00  0.0000E+00  0.0000E+00
     -4.156  0.0000E+00  0.0000E+00  0.0000E+00  0.0000E+00  0.0000E+00  0.0000E+00  0.0000E+00  0.0000E+00  0.0000E+00  0.0000E+00  0.0000E+00  0.0000E+00  0.0000E+00  0.0000E+00  0.0000E+00  0.0000E+00  0.0000E+00  0.0000E+00
     -4.087  0.0000E+00  0.0000E+00  0.0000E+00  0.0000E+00  0.0000E+00  0.0000E+00  0.0000E+00  0.0000E+00  0.0000E+00  0.0000E+00  0.0000E+00  0.0000E+00  0.0000E+00  0.0000E+00  0.0000E+00  0.0000E+00  0.0000E+00  0.0000E+00
     -4.019  0.0000E+00  0.0000E+00  0.0000E+00  0.0000E+00  0.0000E+00  0.0000E+00  0.0000E+00  0.0000E+00  0.0000E+00  0.0000E+00  0.0000E+00  0.0000E+00  0.0000E+00  0.0000E+00  0.0000E+00  0.0000E+00  0.0000E+00  0.0000E+00
     -3.951  0.0000E+00  0.0000E+00  0.0000E+00  0.0000E+00  0.0000E+00  0.0000E+00  0.0000E+00  0.0000E+00  0.0000E+00  0.0000E+00  0.0000E+00  0.0000E+00  0.0000E+00  0.0000E+00  0.0000E+00  0.0000E+00  0.0000E+00  0.0000E+00
     -3.883  0.1904E-07  0.1818E-07  0.1588E-21  0.4126E-20  0.5695E-21  0.1368E-19  0.1588E-21  0.4126E-20  0.0000E+00  0.0000E+00  0.0000E+00  0.0000E+00  0.0000E+00  0.0000E+00  0.0000E+00  0.0000E+00  0.0000E+00  0.0000E+00
     -3.814  0.2216E-06  0.2116E-06  0.6855E-09  0.6547E-09  0.8397E-09  0.8013E-09  0.6855E-09  0.6547E-09  0.0000E+00  0.0000E+00  0.0000E+00  0.0000E+00  0.0000E+00  0.0000E+00  0.0000E+00  0.0000E+00  0.0000E+00  0.0000E+00
     -3.746  0.1301E-05  0.1242E-05  0.7706E-08  0.7355E-08  0.8718E-08  0.8317E-08  0.7706E-08  0.7355E-08  0.0000E+00  0.0000E+00  0.0000E+00  0.0000E+00  0.0000E+00  0.0000E+00  0.0000E+00  0.0000E+00  0.0000E+00  0.0000E+00
     -3.678  0.4625E-05  0.4416E-05  0.2634E-07  0.2515E-07  0.3175E-07  0.3030E-07  0.2634E-07  0.2515E-07  0.0000E+00  0.0000E+00  0.0000E+00  0.0000E+00  0.0000E+00  0.0000E+00  0.0000E+00  0.0000E+00  0.0000E+00  0.0000E+00
     -3.609  0.1873E-04  0.1789E-04  0.1178E-06  0.1125E-06  0.1521E-06  0.1452E-06  0.1178E-06  0.1125E-06  0.0000E+00  0.0000E+00  0.0000E+00  0.0000E+00  0.0000E+00  0.0000E+00  0.0000E+00  0.0000E+00  0.0000E+00  0.0000E+00
     -3.541  0.7058E-04  0.6752E-04  0.4589E-06  0.4383E-06  0.5632E-06  0.5379E-06  0.4589E-06  0.4383E-06  0.0000E+00  0.0000E+00  0.0000E+00  0.0000E+00  0.0000E+00  0.0000E+00  0.0000E+00  0.0000E+00  0.0000E+00  0.0000E+00
     -3.473  0.2451E-03  0.2356E-03  0.1690E-05  0.1619E-05  0.2091E-05  0.2002E-05  0.1690E-05  0.1619E-05  0.0000E+00  0.0000E+00  0.0000E+00  0.0000E+00  0.0000E+00  0.0000E+00  0.0000E+00  0.0000E+00  0.0000E+00  0.0000E+00
     -3.405  0.6926E-03  0.6723E-03  0.5575E-05  0.5372E-05  0.6892E-05  0.6640E-05  0.5575E-05  0.5372E-05  0.0000E+00  0.0000E+00  0.0000E+00  0.0000E+00  0.0000E+00  0.0000E+00  0.0000E+00  0.0000E+00  0.0000E+00  0.0000E+00
     -3.336  0.1395E-02  0.1372E-02  0.1435E-04  0.1395E-04  0.1791E-04  0.1741E-04  0.1435E-04  0.1395E-04  0.0000E+00  0.0000E+00  0.0000E+00  0.0000E+00  0.0000E+00  0.0000E+00  0.0000E+00  0.0000E+00  0.0000E+00  0.0000E+00
     -3.268  0.2039E-02  0.2021E-02  0.2893E-04  0.2833E-04  0.3726E-04  0.3646E-04  0.2893E-04  0.2833E-04  0.0000E+00  0.0000E+00  0.0000E+00  0.0000E+00  0.0000E+00  0.0000E+00  0.0000E+00  0.0000E+00  0.0000E+00  0.0000E+00
     -3.200  0.2665E-02  0.2642E-02  0.5276E-04  0.5180E-04  0.6527E-04  0.6427E-04  0.5276E-04  0.5180E-04  0.0000E+00  0.0000E+00  0.0000E+00  0.0000E+00  0.0000E+00  0.0000E+00  0.0000E+00  0.0000E+00  0.0000E+00  0.0000E+00
     -3.131  0.3190E-02  0.3180E-02  0.8021E-04  0.7948E-04  0.9407E-04  0.9322E-04  0.8021E-04  0.7948E-04  0.0000E+00  0.0000E+00  0.0000E+00  0.0000E+00  0.0000E+00  0.0000E+00  0.0000E+00  0.0000E+00  0.0000E+00  0.0000E+00
     -3.063  0.3243E-02  0.3240E-02  0.9855E-04  0.9789E-04  0.1292E-03  0.1276E-03  0.9855E-04  0.9789E-04  0.0000E+00  0.0000E+00  0.0000E+00  0.0000E+00  0.0000E+00  0.0000E+00  0.0000E+00  0.0000E+00  0.0000E+00  0.0000E+00
     -2.995  0.3602E-02  0.3580E-02  0.1336E-03  0.1319E-03  0.1891E-03  0.1871E-03  0.1336E-03  0.1319E-03  0.0000E+00  0.0000E+00  0.0000E+00  0.0000E+00  0.0000E+00  0.0000E+00  0.0000E+00  0.0000E+00  0.0000E+00  0.0000E+00
     -2.926  0.4078E-02  0.4068E-02  0.1852E-03  0.1835E-03  0.2274E-03  0.2270E-03  0.1852E-03  0.1835E-03  0.0000E+00  0.0000E+00  0.0000E+00  0.0000E+00  0.0000E+00  0.0000E+00  0.0000E+00  0.0000E+00  0.0000E+00  0.0000E+00
     -2.858  0.4190E-02  0.4187E-02  0.2266E-03  0.2255E-03  0.2521E-03  0.2507E-03  0.2266E-03  0.2255E-03  0.0000E+00  0.0000E+00  0.0000E+00  0.0000E+00  0.0000E+00  0.0000E+00  0.0000E+00  0.0000E+00  0.0000E+00  0.0000E+00
     -2.790  0.4343E-02  0.4336E-02  0.2593E-03  0.2582E-03  0.3286E-03  0.3256E-03  0.2593E-03  0.2582E-03  0.0000E+00  0.0000E+00  0.0000E+00  0.0000E+00  0.0000E+00  0.0000E+00  0.0000E+00  0.0000E+00  0.0000E+00  0.0000E+00
     -2.722  0.4457E-02  0.4460E-02  0.2905E-03  0.2898E-03  0.4053E-03  0.4035E-03  0.2905E-03  0.2898E-03  0.0000E+00  0.0000E+00  0.0000E+00  0.0000E+00  0.0000E+00  0.0000E+00  0.0000E+00  0.0000E+00  0.0000E+00  0.0000E+00
     -2.653  0.4249E-02  0.4255E-02  0.3070E-03  0.3061E-03  0.4546E-03  0.4532E-03  0.3070E-03  0.3061E-03  0.0000E+00  0.0000E+00  0.0000E+00  0.0000E+00  0.0000E+00  0.0000E+00  0.0000E+00  0.0000E+00  0.0000E+00  0.0000E+00
     -2.585  0.4504E-02  0.4481E-02  0.3836E-03  0.3794E-03  0.5196E-03  0.5169E-03  0.3836E-03  0.3794E-03  0.0000E+00  0.0000E+00  0.0000E+00  0.0000E+00  0.0000E+00  0.0000E+00  0.0000E+00  0.0000E+00  0.0000E+00  0.0000E+00
     -2.517  0.5150E-02  0.5138E-02  0.5002E-03  0.4972E-03  0.6038E-03  0.6017E-03  0.5002E-03  0.4972E-03  0.0000E+00  0.0000E+00  0.0000E+00  0.0000E+00  0.0000E+00  0.0000E+00  0.0000E+00  0.0000E+00  0.0000E+00  0.0000E+00
     -2.448  0.5075E-02  0.5088E-02  0.5425E-03  0.5419E-03  0.6305E-03  0.6307E-03  0.5425E-03  0.5419E-03  0.0000E+00  0.0000E+00  0.0000E+00  0.0000E+00  0.0000E+00  0.0000E+00  0.0000E+00  0.0000E+00  0.0000E+00  0.0000E+00
     -2.380  0.4905E-02  0.4906E-02  0.5745E-03  0.5732E-03  0.6936E-03  0.6890E-03  0.5745E-03  0.5732E-03  0.0000E+00  0.0000E+00  0.0000E+00  0.0000E+00  0.0000E+00  0.0000E+00  0.0000E+00  0.0000E+00  0.0000E+00  0.0000E+00
     -2.312  0.4848E-02  0.4863E-02  0.5785E-03  0.5800E-03  0.8781E-03  0.8725E-03  0.5785E-03  0.5800E-03  0.0000E+00  0.0000E+00  0.0000E+00  0.0000E+00  0.0000E+00  0.0000E+00  0.0000E+00  0.0000E+00  0.0000E+00  0.0000E+00
     -2.243  0.4527E-02  0.4536E-02  0.5627E-03  0.5615E-03  0.1002E-02  0.1000E-02  0.5627E-03  0.5615E-03  0.0000E+00  0.0000E+00  0.0000E+00  0.0000E+00  0.0000E+00  0.0000E+00  0.0000E+00  0.0000E+00  0.0000E+00  0.0000E+00
     -2.175  0.4680E-02  0.4669E-02  0.6713E-03  0.6654E-03  0.1067E-02  0.1066E-02  0.6713E-03  0.6654E-03  0.0000E+00  0.0000E+00  0.0000E+00  0.0000E+00  0.0000E+00  0.0000E+00  0.0000E+00  0.0000E+00  0.0000E+00  0.0000E+00
     -2.107  0.5138E-02  0.5127E-02  0.8607E-03  0.8541E-03  0.1100E-02  0.1101E-02  0.8607E-03  0.8541E-03  0.0000E+00  0.0000E+00  0.0000E+00  0.0000E+00  0.0000E+00  0.0000E+00  0.0000E+00  0.0000E+00  0.0000E+00  0.0000E+00
     -2.039  0.5218E-02  0.5229E-02  0.9801E-03  0.9785E-03  0.1129E-02  0.1126E-02  0.9801E-03  0.9785E-03  0.0000E+00  0.0000E+00  0.0000E+00  0.0000E+00  0.0000E+00  0.0000E+00  0.0000E+00  0.0000E+00  0.0000E+00  0.0000E+00
     -1.970  0.5036E-02  0.5044E-02  0.1014E-02  0.1013E-02  0.1370E-02  0.1359E-02  0.1014E-02  0.1013E-02  0.0000E+00  0.0000E+00  0.0000E+00  0.0000E+00  0.0000E+00  0.0000E+00  0.0000E+00  0.0000E+00  0.0000E+00  0.0000E+00
     -1.902  0.4982E-02  0.4994E-02  0.1039E-02  0.1040E-02  0.1723E-02  0.1715E-02  0.1039E-02  0.1040E-02  0.0000E+00  0.0000E+00  0.0000E+00  0.0000E+00  0.0000E+00  0.0000E+00  0.0000E+00  0.0000E+00  0.0000E+00  0.0000E+00
     -1.834  0.4539E-02  0.4561E-02  0.9836E-03  0.9851E-03  0.1892E-02  0.1890E-02  0.9836E-03  0.9851E-03  0.0000E+00  0.0000E+00  0.0000E+00  0.0000E+00  0.0000E+00  0.0000E+00  0.0000E+00  0.0000E+00  0.0000E+00  0.0000E+00
     -1.765  0.4440E-02  0.4437E-02  0.1057E-02  0.1051E-02  0.2086E-02  0.2080E-02  0.1057E-02  0.1051E-02  0.0000E+00  0.0000E+00  0.0000E+00  0.0000E+00  0.0000E+00  0.0000E+00  0.0000E+00  0.0000E+00  0.0000E+00  0.0000E+00
     -1.697  0.4468E-02  0.4485E-02  0.1174E-02  0.1173E-02  0.2136E-02  0.2145E-02  0.1174E-02  0.1173E-02  0.0000E+00  0.0000E+00  0.0000E+00  0.0000E+00  0.0000E+00  0.0000E+00  0.0000E+00  0.0000E+00  0.0000E+00  0.0000E+00
     -1.629  0.4034E-02  0.4048E-02  0.1229E-02  0.1224E-02  0.1877E-02  0.1883E-02  0.1229E-02  0.1224E-02  0.0000E+00  0.0000E+00  0.0000E+00  0.0000E+00  0.0000E+00  0.0000E+00  0.0000E+00  0.0000E+00  0.0000E+00  0.0000E+00
     -1.561  0.4141E-02  0.4130E-02  0.1469E-02  0.1458E-02  0.2116E-02  0.2100E-02  0.1469E-02  0.1458E-02  0.0000E+00  0.0000E+00  0.0000E+00  0.0000E+00  0.0000E+00  0.0000E+00  0.0000E+00  0.0000E+00  0.0000E+00  0.0000E+00
     -1.492  0.4451E-02  0.4451E-02  0.1720E-02  0.1715E-02  0.2524E-02  0.2520E-02  0.1720E-02  0.1715E-02  0.0000E+00  0.0000E+00  0.0000E+00  0.0000E+00  0.0000E+00  0.0000E+00  0.0000E+00  0.0000E+00  0.0000E+00  0.0000E+00
     -1.424  0.4238E-02  0.4257E-02  0.1781E-02  0.1781E-02  0.2386E-02  0.2399E-02  0.1781E-02  0.1781E-02  0.0000E+00  0.0000E+00  0.0000E+00  0.0000E+00  0.0000E+00  0.0000E+00  0.0000E+00  0.0000E+00  0.0000E+00  0.0000E+00
     -1.356  0.3875E-02  0.3890E-02  0.1821E-02  0.1818E-02  0.2173E-02  0.2177E-02  0.1821E-02  0.1818E-02  0.0000E+00  0.0000E+00  0.0000E+00  0.0000E+00  0.0000E+00  0.0000E+00  0.0000E+00  0.0000E+00  0.0000E+00  0.0000E+00
     -1.287  0.3632E-02  0.3649E-02  0.1931E-02  0.1928E-02  0.2208E-02  0.2211E-02  0.1931E-02  0.1928E-02  0.0000E+00  0.0000E+00  0.0000E+00  0.0000E+00  0.0000E+00  0.0000E+00  0.0000E+00  0.0000E+00  0.0000E+00  0.0000E+00
     -1.219  0.3087E-02  0.3113E-02  0.1903E-02  0.1905E-02  0.2115E-02  0.2119E-02  0.1903E-02  0.1905E-02  0.0000E+00  0.0000E+00  0.0000E+00  0.0000E+00  0.0000E+00  0.0000E+00  0.0000E+00  0.0000E+00  0.0000E+00  0.0000E+00
     -1.151  0.2852E-02  0.2850E-02  0.2057E-02  0.2042E-02  0.2327E-02  0.2311E-02  0.2057E-02  0.2042E-02  0.0000E+00  0.0000E+00  0.0000E+00  0.0000E+00  0.0000E+00  0.0000E+00  0.0000E+00  0.0000E+00  0.0000E+00  0.0000E+00
     -1.082  0.3029E-02  0.3032E-02  0.2526E-02  0.2511E-02  0.2744E-02  0.2740E-02  0.2526E-02  0.2511E-02  0.0000E+00  0.0000E+00  0.0000E+00  0.0000E+00  0.0000E+00  0.0000E+00  0.0000E+00  0.0000E+00  0.0000E+00  0.0000E+00
     -1.014  0.2763E-02  0.2780E-02  0.2755E-02  0.2750E-02  0.2599E-02  0.2613E-02  0.2755E-02  0.2750E-02  0.0000E+00  0.0000E+00  0.0000E+00  0.0000E+00  0.0000E+00  0.0000E+00  0.0000E+00  0.0000E+00  0.0000E+00  0.0000E+00
     -0.946  0.2353E-02  0.2373E-02  0.2764E-02  0.2773E-02  0.2321E-02  0.2334E-02  0.2764E-02  0.2773E-02  0.0000E+00  0.0000E+00  0.0000E+00  0.0000E+00  0.0000E+00  0.0000E+00  0.0000E+00  0.0000E+00  0.0000E+00  0.0000E+00