   8   8   1   0
  0.1361789E+02  0.3790734E-09  0.3790734E-09  0.7581467E-09  0.5000000E-15
  1.000000000000000E-004
  CAR 
 unknown system                          
     18.18364973     -3.98388666  301      7.94558220      1.00000000
     -3.984  0.0000E+00  0.0000E+00  0.0000E+00  0.0000E+00
     -3.910  0.0000E+00  0.0000E+00  0.0000E+00  0.0000E+00
     -3.836  0.0000E+00  0.0000E+00  0.0000E+00  0.0000E+00
     -3.762  0.0000E+00  0.0000E+00  0.0000E+00  0.0000E+00
     -3.688  0.0000E+00  0.0000E+00  0.0000E+00  0.0000E+00
     -3.614  0.0000E+00  0.0000E+00  0.0000E+00  0.0000E+00
     -3.541  0.0000E+00  0.0000E+00  0.0000E+00  0.0000E+00
     -3.467  0.0000E+00  0.0000E+00  0.0000E+00  0.0000E+00
     -3.393  0.8521E-05  0.4609E-05  0.6296E-06  0.3406E-06
     -3.319  0.4631E-04  0.4664E-04  0.4052E-05  0.3787E-05
     -3.245  0.2054E-03  0.1920E-03  0.1923E-04  0.1797E-04
     -3.171  0.9070E-03  0.8483E-03  0.8625E-04  0.8065E-04
     -3.097  0.3898E-02  0.3652E-02  0.3743E-03  0.3505E-03
     -3.023  0.1518E-01  0.1431E-01  0.1496E-02  0.1408E-02
     -2.949  0.4732E-01  0.4525E-01  0.4992E-02  0.4752E-02
     -2.876  0.1008E+00  0.9825E-01  0.1244E-01  0.1201E-01
     -2.802  0.1490E+00  0.1470E+00  0.2345E-01  0.2287E-01
     -2.728  0.1984E+00  0.1958E+00  0.3811E-01  0.3734E-01
     -2.654  0.2436E+00  0.2426E+00  0.5611E-01  0.5527E-01
     -2.580  0.2460E+00  0.2458E+00  0.7429E-01  0.7343E-01
     -2.506  0.2829E+00  0.2802E+00  0.9520E-01  0.9414E-01
     -2.432  0.3289E+00  0.3278E+00  0.1195E+00  0.1184E+00
     -2.358  0.3409E+00  0.3403E+00  0.1447E+00  0.1435E+00
     -2.284  0.3634E+00  0.3620E+00  0.1716E+00  0.1703E+00
     -2.210  0.3836E+00  0.3836E+00  0.1999E+00  0.1986E+00
     -2.137  0.3678E+00  0.3683E+00  0.2271E+00  0.2259E+00
     -2.063  0.4051E+00  0.4014E+00  0.2571E+00  0.2556E+00
     -1.989  0.4820E+00  0.4800E+00  0.2927E+00  0.2910E+00
     -1.915  0.4756E+00  0.4770E+00  0.3279E+00  0.3263E+00
     -1.841  0.4754E+00  0.4740E+00  0.3630E+00  0.3613E+00
     -1.767  0.4907E+00  0.4915E+00  0.3993E+00  0.3977E+00
     -1.693  0.4689E+00  0.4690E+00  0.4340E+00  0.4324E+00
     -1.619  0.5050E+00  0.5022E+00  0.4713E+00  0.4695E+00
     -1.545  0.5727E+00  0.5700E+00  0.5137E+00  0.5116E+00
     -1.472  0.5941E+00  0.5943E+00  0.5576E+00  0.5556E+00
     -1.398  0.6105E+00  0.6084E+00  0.6027E+00  0.6006E+00
     -1.324  0.6465E+00  0.6466E+00  0.6505E+00  0.6484E+00
     -1.250  0.6109E+00  0.6123E+00  0.6957E+00  0.6936E+00
     -1.176  0.6452E+00  0.6418E+00  0.7434E+00  0.7411E+00
     -1.102  0.6653E+00  0.6678E+00  0.7926E+00  0.7905E+00
     -1.028  0.6072E+00  0.6072E+00  0.8375E+00  0.8354E+00
     -0.954  0.6970E+00  0.6905E+00  0.8891E+00  0.8864E+00
     -0.880  0.7963E+00  0.7948E+00  0.9479E+00  0.9452E+00
     -0.807  0.7563E+00  0.7596E+00  0.1004E+01  0.1001E+01
     -0.733  0.7220E+00  0.7213E+00  0.1057E+01  0.1055E+01
     -0.659  0.7349E+00  0.7358E+00  0.1112E+01  0.1109E+01
     -0.585  0.6693E+00  0.6721E+00  0.1161E+01  0.1159E+01
     -0.511  0.7161E+00  0.7091E+00  0.1214E+01  0.1211E+01
     -0.437  0.8529E+00  0.8498E+00  0.1277E+01  0.1274E+01
     -0.363  0.8376E+00  0.8392E+00  0.1339E+01  0.1336E+01
     -0.289  0.7868E+00  0.7911E+00  0.1397E+01  0.1395E+01
     -0.215  0.6558E+00  0.6612E+00  0.1446E+01  0.1444E+01
     -0.142  0.6406E+00  0.6379E+00  0.1493E+01  0.1491E+01
     -0.068  0.6926E+00  0.6919E+00  0.1544E+01  0.1542E+01
      0.006  0.6586E+00  0.6628E+00  0.1593E+01  0.1591E+01
      0.080  0.5315E+00  0.5375E+00  0.1632E+01  0.1631E+01
      0.154  0.4487E+00  0.4505E+00  0.1666E+01  0.1664E+01
      0.228  0.4261E+00  0.4268E+00  0.1697E+01  0.1696E+01
      0.302  0.4303E+00  0.4289E+00  0.1729E+01  0.1727E+01
      0.376  0.4952E+00  0.4909E+00  0.1766E+01  0.1764E+01
      0.450  0.5732E+00  0.5702E+00  0.1808E+01  0.1806E+01
      0.524  0.6504E+00  0.6451E+00  0.1856E+01  0.1853E+01
      0.597  0.7725E+00  0.7686E+00  0.1913E+01  0.1910E+01
      0.671  0.7963E+00  0.7976E+00  0.1972E+01  0.1969E+01
      0.745  0.8146E+00  0.8110E+00  0.2032E+01  0.2029E+01
      0.819  0.9394E+00  0.9342E+00  0.2102E+01  0.2098E+01
      0.893  0.9580E+00  0.9607E+00  0.2172E+01  0.2169E+01
      0.967  0.8762E+00  0.8785E+00  0.2237E+01  0.2234E+01
      1.041  0.9100E+00  0.9058E+00  0.2305E+01  0.2301E+01
      1.115  0.9734E+00  0.9746E+00  0.2377E+01  0.2373E+01
      1.189  0.8522E+00  0.8598E+00  0.2440E+01  0.2437E+01
      1.262  0.7457E+00  0.7480E+00  0.2495E+01  0.2492E+01
      1.336  0.7557E+00  0.7533E+00  0.2551E+01  0.2548E+01
      1.410  0.8305E+00  0.8275E+00  0.2612E+01  0.2609E+01
      1.484  0.8400E+00  0.8410E+00  0.2674E+01  0.2671E+01
      1.558  0.8248E+00  0.8245E+00  0.2735E+01  0.2732E+01
      1.632  0.8585E+00  0.8562E+00  0.2799E+01  0.2796E+01
      1.706  0.8695E+00  0.8722E+00  0.2863E+01  0.2860E+01
      1.780  0.7365E+00  0.7447E+00  0.2917E+01  0.2915E+01
      1.854  0.6493E+00  0.6494E+00  0.2965E+01  0.2963E+01
      1.927  0.7240E+00  0.7191E+00  0.3019E+01  0.3016E+01
      2.001  0.7725E+00  0.7736E+00  0.3076E+01  0.3074E+01
      2.075  0.7038E+00  0.7078E+00  0.3128E+01  0.3126E+01
      2.149  0.6028E+00  0.6070E+00  0.3173E+01  0.3171E+01
      2.223  0.5783E+00  0.5745E+00  0.3215E+01  0.3213E+01
      2.297  0.8161E+00  0.8000E+00  0.3276E+01  0.3273E+01
      2.371  0.1213E+01  0.1199E+01  0.3366E+01  0.3361E+01
      2.445  0.1341E+01  0.1344E+01  0.3465E+01  0.3461E+01
      2.519  0.1191E+01  0.1199E+01  0.3553E+01  0.3549E+01
      2.592  0.1007E+01  0.1015E+01  0.3627E+01  0.3624E+01
      2.666  0.8229E+00  0.8286E+00  0.3688E+01  0.3685E+01
      2.740  0.7904E+00  0.7862E+00  0.3746E+01  0.3744E+01
      2.814  0.9687E+00  0.9609E+00  0.3818E+01  0.3815E+01
      2.888  0.1028E+01  0.1031E+01  0.3894E+01  0.3891E+01
      2.962  0.9031E+00  0.9067E+00  0.3961E+01  0.3958E+01
      3.036  0.9470E+00  0.9394E+00  0.4031E+01  0.4028E+01
      3.110  0.1118E+01  0.1113E+01  0.4114E+01  0.4110E+01
      3.184  0.1134E+01  0.1136E+01  0.4197E+01  0.4194E+01
      3.258  0.1095E+01  0.1095E+01  0.4278E+01  0.4275E+01
      3.331  0.1112E+01  0.1112E+01  0.4361E+01  0.4357E+01
      3.405  0.1164E+01  0.1162E+01  0.4447E+01  0.4443E+01
      3.479  0.1155E+01  0.1161E+01  0.4532E+01  0.4529E+01
      3.553  0.9567E+00  0.9657E+00  0.4603E+01  0.4600E+01
      3.627  0.8907E+00  0.8881E+00  0.4669E+01  0.4666E+01
      3.701  0.1022E+01  0.1017E+01  0.4744E+01  0.4741E+01
      3.775  0.1004E+01  0.1009E+01  0.4819E+01  0.4816E+01
      3.849  0.9070E+00  0.9089E+00  0.4886E+01  0.4883E+01
      3.923  0.9378E+00  0.9344E+00  0.4955E+01  0.4952E+01
      3.996  0.1084E+01  0.1075E+01  0.5035E+01  0.5031E+01
      4.070  0.1407E+01  0.1391E+01  0.5139E+01  0.5134E+01
      4.144  0.1778E+01  0.1769E+01  0.5271E+01  0.5265E+01
      4.218  0.1767E+01  0.1774E+01  0.5401E+01  0.5396E+01
      4.292  0.1490E+01  0.1502E+01  0.5511E+01  0.5507E+01
      4.366  0.1229E+01  0.1237E+01  0.5602E+01  0.5599E+01
      4.440  0.1100E+01  0.1103E+01  0.5684E+01  0.5680E+01
      4.514  0.1099E+01  0.1099E+01  0.5765E+01  0.5762E+01
      4.588  0.1054E+01  0.1059E+01  0.5843E+01  0.5840E+01
      4.661  0.8774E+00  0.8829E+00  0.5908E+01  0.5905E+01
      4.735  0.8762E+00  0.8708E+00  0.5973E+01  0.5970E+01
      4.809  0.1133E+01  0.1120E+01  0.6056E+01  0.6053E+01
      4.883  0.1367E+01  0.1365E+01  0.6157E+01  0.6153E+01
      4.957  0.1340E+01  0.1340E+01  0.6257E+01  0.6253E+01
      5.031  0.1398E+01  0.1393E+01  0.6360E+01  0.6356E+01
      5.105  0.1349E+01  0.1357E+01  0.6460E+01  0.6456E+01
      5.179  0.1080E+01  0.1094E+01  0.6539E+01  0.6537E+01
      5.253  0.8229E+00  0.8307E+00  0.6600E+01  0.6598E+01
      5.326  0.7906E+00  0.7869E+00  0.6659E+01  0.6656E+01
      5.400  0.9736E+00  0.9623E+00  0.6731E+01  0.6728E+01
      5.474  0.1242E+01  0.1231E+01  0.6823E+01  0.6819E+01
      5.548  0.1482E+01  0.1472E+01  0.6932E+01  0.6927E+01
      5.622  0.1699E+01  0.1693E+01  0.7058E+01  0.7053E+01
      5.696  0.1745E+01  0.1749E+01  0.7187E+01  0.7182E+01
      5.770  0.1537E+01  0.1548E+01  0.7300E+01  0.7296E+01
      5.844  0.1303E+01  0.1312E+01  0.7397E+01  0.7393E+01
      5.918  0.1199E+01  0.1197E+01  0.7486E+01  0.7482E+01
      5.992  0.1332E+01  0.1326E+01  0.7584E+01  0.7580E+01
      6.065  0.1347E+01  0.1352E+01  0.7684E+01  0.7680E+01
      6.139  0.1193E+01  0.1200E+01  0.7772E+01  0.7769E+01
      6.213  0.1103E+01  0.1103E+01  0.7854E+01  0.7850E+01
      6.287  0.1153E+01  0.1152E+01  0.7939E+01  0.7935E+01
      6.361  0.1129E+01  0.1130E+01  0.8022E+01  0.8019E+01
      6.435  0.1141E+01  0.1136E+01  0.8107E+01  0.8103E+01
      6.509  0.1313E+01  0.1305E+01  0.8204E+01  0.8200E+01
      6.583  0.1366E+01  0.1368E+01  0.8305E+01  0.8301E+01
      6.657  0.1263E+01  0.1270E+01  0.8398E+01  0.8395E+01
      6.730  0.1081E+01  0.1090E+01  0.8478E+01  0.8475E+01
      6.804  0.8897E+00  0.8968E+00  0.8544E+01  0.8542E+01
      6.878  0.7919E+00  0.7897E+00  0.8602E+01  0.8600E+01
      6.952  0.1026E+01  0.1010E+01  0.8678E+01  0.8675E+01
      7.026  0.1372E+01  0.1362E+01  0.8780E+01  0.8775E+01
      7.100  0.1499E+01  0.1499E+01  0.8891E+01  0.8886E+01
      7.174  0.1449E+01  0.1455E+01  0.8998E+01  0.8994E+01
      7.248  0.1318E+01  0.1323E+01  0.9095E+01  0.9092E+01
      7.322  0.1244E+01  0.1247E+01  0.9187E+01  0.9184E+01
      7.395  0.1171E+01  0.1173E+01  0.9274E+01  0.9271E+01
      7.469  0.1097E+01  0.1100E+01  0.9355E+01  0.9352E+01
      7.543  0.9971E+00  0.9986E+00  0.9429E+01  0.9426E+01
      7.617  0.1060E+01  0.1055E+01  0.9507E+01  0.9504E+01
      7.691  0.1200E+01  0.1193E+01  0.9596E+01  0.9592E+01
      7.765  0.1415E+01  0.1404E+01  0.9700E+01  0.9696E+01
      7.839  0.1661E+01  0.1654E+01  0.9823E+01  0.9818E+01
      7.913  0.1724E+01  0.1729E+01  0.9951E+01  0.9946E+01
      7.987  0.1468E+01  0.1482E+01  0.1006E+02  0.1006E+02
      8.060  0.1173E+01  0.1182E+01  0.1015E+02  0.1014E+02
      8.134  0.1003E+01  0.1007E+01  0.1022E+02  0.1022E+02
      8.208  0.1036E+01  0.1028E+01  0.1030E+02  0.1029E+02
      8.282  0.1300E+01  0.1289E+01  0.1039E+02  0.1039E+02
      8.356  0.1440E+01  0.1438E+01  0.1050E+02  0.1050E+02
      8.430  0.1394E+01  0.1399E+01  0.1060E+02  0.1060E+02
      8.504  0.1343E+01  0.1344E+01  0.1070E+02  0.1070E+02
      8.578  0.1461E+01  0.1455E+01  0.1081E+02  0.1081E+02
      8.652  0.1600E+01  0.1596E+01  0.1093E+02  0.1092E+02
      8.726  0.1583E+01  0.1586E+01  0.1105E+02  0.1104E+02
      8.799  0.1491E+01  0.1494E+01  0.1116E+02  0.1115E+02
      8.873  0.1420E+01  0.1422E+01  0.1126E+02  0.1126E+02
      8.947  0.1434E+01  0.1431E+01  0.1137E+02  0.1136E+02
      9.021  0.1519E+01  0.1518E+01  0.1148E+02  0.1147E+02
      9.095  0.1500E+01  0.1502E+01  0.1159E+02  0.1159E+02
      9.169  0.1331E+01  0.1341E+01  0.1169E+02  0.1168E+02
      9.243  0.1117E+01  0.1121E+01  0.1177E+02  0.1177E+02
      9.317  0.1176E+01  0.1172E+01  0.1186E+02  0.1185E+02
      9.391  0.1302E+01  0.1297E+01  0.1195E+02  0.1195E+02
      9.464  0.1394E+01  0.1393E+01  0.1206E+02  0.1205E+02
      9.538  0.1324E+01  0.1328E+01  0.1216E+02  0.1215E+02
      9.612  0.1202E+01  0.1206E+01  0.1224E+02  0.1224E+02
      9.686  0.1090E+01  0.1093E+01  0.1232E+02  0.1232E+02
      9.760  0.1063E+01  0.1060E+01  0.1240E+02  0.1240E+02
      9.834  0.1116E+01  0.1114E+01  0.1249E+02  0.1248E+02
      9.908  0.1226E+01  0.1218E+01  0.1258E+02  0.1257E+02
      9.982  0.1476E+01  0.1465E+01  0.1269E+02  0.1268E+02
     10.056  0.1697E+01  0.1690E+01  0.1281E+02  0.1281E+02
     10.129  0.1819E+01  0.1812E+01  0.1295E+02  0.1294E+02
     10.203  0.1830E+01  0.1833E+01  0.1308E+02  0.1308E+02
     10.277  0.1650E+01  0.1660E+01  0.1320E+02  0.1320E+02
     10.351  0.1493E+01  0.1499E+01  0.1331E+02  0.1331E+02
     10.425  0.1418E+01  0.1421E+01  0.1342E+02  0.1341E+02
     10.499  0.1471E+01  0.1467E+01  0.1353E+02  0.1352E+02
     10.573  0.1628E+01  0.1621E+01  0.1365E+02  0.1364E+02
     10.647  0.1686E+01  0.1689E+01  0.1377E+02  0.1377E+02
     10.721  0.1534E+01  0.1541E+01  0.1389E+02  0.1388E+02
     10.794  0.1500E+01  0.1497E+01  0.1400E+02  0.1399E+02
     10.868  0.1601E+01  0.1598E+01  0.1411E+02  0.1411E+02
     10.942  0.1573E+01  0.1576E+01  0.1423E+02  0.1423E+02
     11.016  0.1504E+01  0.1506E+01  0.1434E+02  0.1434E+02
     11.090  0.1497E+01  0.1494E+01  0.1445E+02  0.1445E+02
     11.164  0.1546E+01  0.1548E+01  0.1457E+02  0.1456E+02
     11.238  0.1442E+01  0.1448E+01  0.1467E+02  0.1467E+02
     11.312  0.1387E+01  0.1386E+01  0.1478E+02  0.1477E+02
     11.386  0.1476E+01  0.1467E+01  0.1489E+02  0.1488E+02
     11.459  0.1708E+01  0.1698E+01  0.1501E+02  0.1501E+02
     11.533  0.1791E+01  0.1797E+01  0.1514E+02  0.1514E+02
     11.607  0.1536E+01  0.1548E+01  0.1526E+02  0.1525E+02
     11.681  0.1401E+01  0.1400E+01  0.1536E+02  0.1536E+02
     11.755  0.1562E+01  0.1552E+01  0.1548E+02  0.1547E+02
     11.829  0.1768E+01  0.1761E+01  0.1561E+02  0.1560E+02
     11.903  0.1796E+01  0.1800E+01  0.1574E+02  0.1574E+02
     11.977  0.1632E+01  0.1638E+01  0.1586E+02  0.1586E+02
     12.051  0.1559E+01  0.1560E+01  0.1598E+02  0.1597E+02
     12.125  0.1524E+01  0.1528E+01  0.1609E+02  0.1608E+02
     12.198  0.1410E+01  0.1414E+01  0.1619E+02  0.1619E+02
     12.272  0.1383E+01  0.1381E+01  0.1630E+02  0.1629E+02
     12.346  0.1513E+01  0.1507E+01  0.1641E+02  0.1640E+02
     12.420  0.1536E+01  0.1538E+01  0.1652E+02  0.1652E+02
     12.494  0.1474E+01  0.1473E+01  0.1663E+02  0.1663E+02
     12.568  0.1514E+01  0.1513E+01  0.1674E+02  0.1674E+02
     12.642  0.1552E+01  0.1551E+01  0.1686E+02  0.1685E+02
     12.716  0.1607E+01  0.1605E+01  0.1698E+02  0.1697E+02
     12.790  0.1607E+01  0.1607E+01  0.1709E+02  0.1709E+02
     12.863  0.1616E+01  0.1614E+01  0.1721E+02  0.1721E+02
     12.937  0.1666E+01  0.1666E+01  0.1734E+02  0.1733E+02
     13.011  0.1609E+01  0.1613E+01  0.1746E+02  0.1745E+02
     13.085  0.1494E+01  0.1498E+01  0.1757E+02  0.1756E+02
     13.159  0.1348E+01  0.1353E+01  0.1767E+02  0.1766E+02
     13.233  0.1178E+01  0.1182E+01  0.1775E+02  0.1775E+02
     13.307  0.1142E+01  0.1132E+01  0.1784E+02  0.1783E+02
     13.381  0.1364E+01  0.1341E+01  0.1794E+02  0.1793E+02
     13.455  0.1688E+01  0.1681E+01  0.1806E+02  0.1806E+02
     13.528  0.1798E+01  0.1809E+01  0.1820E+02  0.1819E+02
     13.602  0.1722E+01  0.1734E+01  0.1832E+02  0.1832E+02
     13.676  0.1536E+01  0.1548E+01  0.1844E+02  0.1843E+02
     13.750  0.1361E+01  0.1364E+01  0.1854E+02  0.1853E+02
     13.824  0.1315E+01  0.1313E+01  0.1864E+02  0.1863E+02
     13.898  0.1346E+01  0.1346E+01  0.1874E+02  0.1873E+02
     13.972  0.1269E+01  0.1272E+01  0.1883E+02  0.1882E+02
     14.046  0.1088E+01  0.1092E+01  0.1891E+02  0.1891E+02
     14.120  0.1014E+01  0.1020E+01  0.1898E+02  0.1898E+02
     14.193  0.9489E+00  0.9624E+00  0.1905E+02  0.1905E+02
     14.267  0.8358E+00  0.8462E+00  0.1912E+02  0.1911E+02
     14.341  0.8939E+00  0.8968E+00  0.1918E+02  0.1918E+02
     14.415  0.1009E+01  0.1010E+01  0.1926E+02  0.1926E+02
     14.489  0.9371E+00  0.9315E+00  0.1933E+02  0.1932E+02
     14.563  0.7643E+00  0.7611E+00  0.1938E+02  0.1938E+02
     14.637  0.6102E+00  0.6168E+00  0.1943E+02  0.1943E+02
     14.711  0.5137E+00  0.5148E+00  0.1947E+02  0.1946E+02
     14.785  0.5738E+00  0.5661E+00  0.1951E+02  0.1951E+02
     14.859  0.6381E+00  0.6373E+00  0.1956E+02  0.1955E+02
     14.932  0.5450E+00  0.5493E+00  0.1960E+02  0.1959E+02
     15.006  0.4491E+00  0.4560E+00  0.1963E+02  0.1963E+02
     15.080  0.2812E+00  0.2894E+00  0.1965E+02  0.1965E+02
     15.154  0.1391E+00  0.1434E+00  0.1966E+02  0.1966E+02
     15.228  0.7332E-01  0.7456E-01  0.1967E+02  0.1967E+02
     15.302  0.9424E-01  0.9175E-01  0.1967E+02  0.1967E+02
     15.376  0.1920E+00  0.1903E+00  0.1969E+02  0.1969E+02
     15.450  0.2924E+00  0.3012E+00  0.1971E+02  0.1971E+02
     15.524  0.3729E+00  0.3933E+00  0.1974E+02  0.1974E+02
     15.597  0.3845E+00  0.3919E+00  0.1976E+02  0.1977E+02
     15.671  0.3064E+00  0.2896E+00  0.1979E+02  0.1979E+02
     15.745  0.2285E+00  0.2135E+00  0.1980E+02  0.1980E+02
     15.819  0.2516E+00  0.2430E+00  0.1982E+02  0.1982E+02
     15.893  0.3131E+00  0.3132E+00  0.1985E+02  0.1985E+02
     15.967  0.2887E+00  0.2987E+00  0.1987E+02  0.1987E+02
     16.041  0.2434E+00  0.2468E+00  0.1989E+02  0.1989E+02
     16.115  0.2208E+00  0.2158E+00  0.1990E+02  0.1990E+02
     16.189  0.1663E+00  0.1658E+00  0.1991E+02  0.1991E+02
     16.262  0.1120E+00  0.1132E+00  0.1992E+02  0.1992E+02
     16.336  0.1049E+00  0.1046E+00  0.1993E+02  0.1993E+02
     16.410  0.1163E+00  0.1136E+00  0.1994E+02  0.1994E+02
     16.484  0.1494E+00  0.1477E+00  0.1995E+02  0.1995E+02
     16.558  0.1261E+00  0.1278E+00  0.1996E+02  0.1996E+02
     16.632  0.6852E-01  0.6815E-01  0.1996E+02  0.1996E+02
     16.706  0.3578E-01  0.2660E-01  0.1997E+02  0.1997E+02
     16.780  0.3885E-01  0.1894E-01  0.1997E+02  0.1997E+02
     16.854  0.4571E-01  0.4183E-01  0.1997E+02  0.1997E+02
     16.927  0.5877E-01  0.8270E-01  0.1998E+02  0.1998E+02
     17.001  0.7184E-01  0.1025E+00  0.1998E+02  0.1998E+02
     17.075  0.5417E-01  0.8376E-01  0.1999E+02  0.1999E+02
     17.149  0.5810E-01  0.5945E-01  0.1999E+02  0.1999E+02
     17.223  0.6692E-01  0.4318E-01  0.2000E+02  0.2000E+02
     17.297  0.3676E-01  0.2056E-01  0.2000E+02  0.2000E+02
     17.371  0.1118E-01  0.5973E-02  0.2000E+02  0.2000E+02
     17.445  0.2761E-02  0.1465E-02  0.2000E+02  0.2000E+02
     17.519  0.6419E-03  0.3152E-03  0.2000E+02  0.2000E+02
     17.593  0.0000E+00  0.0000E+00  0.2000E+02  0.2000E+02
     17.666  0.0000E+00  0.0000E+00  0.2000E+02  0.2000E+02
     17.740  0.0000E+00  0.0000E+00  0.2000E+02  0.2000E+02
     17.814  0.0000E+00  0.0000E+00  0.2000E+02  0.2000E+02
     17.888  0.0000E+00  0.0000E+00  0.2000E+02  0.2000E+02
     17.962  0.0000E+00  0.0000E+00  0.2000E+02  0.2000E+02
     18.036  0.0000E+00  0.0000E+00  0.2000E+02  0.2000E+02
     18.110  0.0000E+00  0.0000E+00  0.2000E+02  0.2000E+02
     18.184  0.0000E+00  0.0000E+00  0.2000E+02  0.2000E+02
     18.18364973     -3.98388666  301      7.94558220      1.00000000
     -3.984  0.0000E+00  0.0000E+00  0.0000E+00  0.0000E+00  0.0000E+00  0.0000E+00  0.0000E+00  0.0000E+00  0.0000E+00  0.0000E+00  0.0000E+00  0.0000E+00  0.0000E+00  0.0000E+00  0.0000E+00  0.0000E+00  0.0000E+00  0.0000E+00
     -3.910  0.0000E+00  0.0000E+00  0.0000E+00  0.0000E+00  0.0000E+00  0.0000E+00  0.0000E+00  0.0000E+00  0.0000E+00  0.0000E+00  0.0000E+00  0.0000E+00  0.0000E+00  0.0000E+00  0.0000E+00  0.0000E+00  0.0000E+00  0.0000E+00
     -3.836  0.0000E+00  0.0000E+00  0.0000E+00  0.0000E+00  0.0000E+00  0.0000E+00  0.0000E+00  0.0000E+00  0.0000E+00  0.0000E+00  0.0000E+00  0.0000E+00  0.0000E+00  0.0000E+00  0.0000E+00  0.0000E+00  0.0000E+00  0.0000E+00
     -3.762  0.0000E+00  0.0000E+00  0.0000E+00  0.0000E+00  0.0000E+00  0.0000E+00  0.0000E+00  0.0000E+00  0.0000E+00  0.0000E+00  0.0000E+00  0.0000E+00  0.0000E+00  0.0000E+00  0.0000E+00  0.0000E+00  0.0000E+00  0.0000E+00
     -3.688  0.0000E+00  0.0000E+00  0.0000E+00  0.0000E+00  0.0000E+00  0.0000E+00  0.0000E+00  0.0000E+00  0.0000E+00  0.0000E+00  0.0000E+00  0.0000E+00  0.0000E+00  0.0000E+00  0.0000E+00  0.0000E+00  0.0000E+00  0.0000E+00
     -3.614  0.0000E+00  0.0000E+00  0.0000E+00  0.0000E+00  0.0000E+00  0.0000E+00  0.0000E+00  0.0000E+00  0.0000E+00  0.0000E+00  0.0000E+00  0.0000E+00  0.0000E+00  0.0000E+00  0.0000E+00  0.0000E+00  0.0000E+00  0.0000E+00
     -3.541  0.0000E+00  0.0000E+00  0.0000E+00  0.0000E+00  0.0000E+00  0.0000E+00  0.0000E+00  0.0000E+00  0.0000E+00  0.0000E+00  0.0000E+00  0.0000E+00  0.0000E+00  0.0000E+00  0.0000E+00  0.0000E+00  0.0000E+00  0.0000E+00
     -3.467  0.0000E+00  0.0000E+00  0.0000E+00  0.0000E+00  0.0000E+00  0.0000E+00  0.0000E+00  0.0000E+00  0.0000E+00  0.0000E+00  0.0000E+00  0.0000E+00  0.0000E+00  0.0000E+00  0.0000E+00  0.0000E+00  0.0000E+00  0.0000E+00
     -3.393  0.1389E-06  0.7530E-07  0.3963E-09  0.8411E-19  0.4973E-09  0.4653E-09  0.3963E-09  0.8411E-19  0.0000E+00  0.0000E+00  0.0000E+00  0.0000E+00  0.0000E+00  0.0000E+00  0.0000E+00  0.0000E+00  0.0000E+00  0.0000E+00
     -3.319  0.7499E-06  0.7555E-06  0.3820E-08  0.3946E-08  0.4509E-08  0.4218E-08  0.3820E-08  0.3946E-08  0.0000E+00  0.0000E+00  0.0000E+00  0.0000E+00  0.0000E+00  0.0000E+00  0.0000E+00  0.0000E+00  0.0000E+00  0.0000E+00
     -3.245  0.3320E-05  0.3104E-05  0.1810E-07  0.1693E-07  0.2330E-07  0.2180E-07  0.1810E-07  0.1693E-07  0.0000E+00  0.0000E+00  0.0000E+00  0.0000E+00  0.0000E+00  0.0000E+00  0.0000E+00  0.0000E+00  0.0000E+00  0.0000E+00
     -3.171  0.1464E-04  0.1370E-04  0.8511E-07  0.7964E-07  0.1107E-06  0.1036E-06  0.8511E-07  0.7964E-07  0.0000E+00  0.0000E+00  0.0000E+00  0.0000E+00  0.0000E+00  0.0000E+00  0.0000E+00  0.0000E+00  0.0000E+00  0.0000E+00
     -3.097  0.6286E-04  0.5891E-04  0.3920E-06  0.3671E-06  0.4877E-06  0.4567E-06  0.3920E-06  0.3671E-06  0.0000E+00  0.0000E+00  0.0000E+00  0.0000E+00  0.0000E+00  0.0000E+00  0.0000E+00  0.0000E+00  0.0000E+00  0.0000E+00
     -3.023  0.2445E-03  0.2306E-03  0.1604E-05  0.1507E-05  0.2010E-05  0.1888E-05  0.1604E-05  0.1507E-05  0.0000E+00  0.0000E+00  0.0000E+00  0.0000E+00  0.0000E+00  0.0000E+00  0.0000E+00  0.0000E+00  0.0000E+00  0.0000E+00
     -2.949  0.7596E-03  0.7268E-03  0.5881E-05  0.5576E-05  0.7304E-05  0.6925E-05  0.5881E-05  0.5576E-05  0.0000E+00  0.0000E+00  0.0000E+00  0.0000E+00  0.0000E+00  0.0000E+00  0.0000E+00  0.0000E+00  0.0000E+00  0.0000E+00
     -2.876  0.1606E-02  0.1567E-02  0.1616E-04  0.1556E-04  0.2031E-04  0.1952E-04  0.1616E-04  0.1556E-04  0.0000E+00  0.0000E+00  0.0000E+00  0.0000E+00  0.0000E+00  0.0000E+00  0.0000E+00  0.0000E+00  0.0000E+00  0.0000E+00
     -2.802  0.2343E-02  0.2314E-02  0.3315E-04  0.3219E-04  0.4351E-04  0.4221E-04  0.3315E-04  0.3219E-04  0.0000E+00  0.0000E+00  0.0000E+00  0.0000E+00  0.0000E+00  0.0000E+00  0.0000E+00  0.0000E+00  0.0000E+00  0.0000E+00
     -2.728  0.3066E-02  0.3029E-02  0.6209E-04  0.6044E-04  0.7798E-04  0.7629E-04  0.6209E-04  0.6044E-04  0.0000E+00  0.0000E+00  0.0000E+00  0.0000E+00  0.0000E+00  0.0000E+00  0.0000E+00  0.0000E+00  0.0000E+00  0.0000E+00
     -2.654  0.3709E-02  0.3698E-02  0.9626E-04  0.9505E-04  0.1120E-03  0.1106E-03  0.9626E-04  0.9505E-04  0.0000E+00  0.0000E+00  0.0000E+00  0.0000E+00  0.0000E+00  0.0000E+00  0.0000E+00  0.0000E+00  0.0000E+00  0.0000E+00
     -2.580  0.3671E-02  0.3674E-02  0.1147E-03  0.1138E-03  0.1523E-03  0.1496E-03  0.1147E-03  0.1138E-03  0.0000E+00  0.0000E+00  0.0000E+00  0.0000E+00  0.0000E+00  0.0000E+00  0.0000E+00  0.0000E+00  0.0000E+00  0.0000E+00
     -2.506  0.4116E-02  0.4082E-02  0.1568E-03  0.1540E-03  0.2300E-03  0.2264E-03  0.1568E-03  0.1540E-03  0.0000E+00  0.0000E+00  0.0000E+00  0.0000E+00  0.0000E+00  0.0000E+00  0.0000E+00  0.0000E+00  0.0000E+00  0.0000E+00
     -2.432  0.4704E-02  0.4694E-02  0.2213E-03  0.2185E-03  0.2733E-03  0.2728E-03  0.2213E-03  0.2185E-03  0.0000E+00  0.0000E+00  0.0000E+00  0.0000E+00  0.0000E+00  0.0000E+00  0.0000E+00  0.0000E+00  0.0000E+00  0.0000E+00
     -2.358  0.4785E-02  0.4784E-02  0.2702E-03  0.2683E-03  0.2959E-03  0.2932E-03  0.2702E-03  0.2683E-03  0.0000E+00  0.0000E+00  0.0000E+00  0.0000E+00  0.0000E+00  0.0000E+00  0.0000E+00  0.0000E+00  0.0000E+00  0.0000E+00
     -2.284  0.4974E-02  0.4964E-02  0.3075E-03  0.3055E-03  0.3963E-03  0.3908E-03  0.3075E-03  0.3055E-03  0.0000E+00  0.0000E+00  0.0000E+00  0.0000E+00  0.0000E+00  0.0000E+00  0.0000E+00  0.0000E+00  0.0000E+00  0.0000E+00
     -2.210  0.5129E-02  0.5137E-02  0.3457E-03  0.3445E-03  0.4902E-03  0.4872E-03  0.3457E-03  0.3445E-03  0.0000E+00  0.0000E+00  0.0000E+00  0.0000E+00  0.0000E+00  0.0000E+00  0.0000E+00  0.0000E+00  0.0000E+00  0.0000E+00
     -2.137  0.4787E-02  0.4803E-02  0.3562E-03  0.3550E-03  0.5427E-03  0.5402E-03  0.3562E-03  0.3550E-03  0.0000E+00  0.0000E+00  0.0000E+00  0.0000E+00  0.0000E+00  0.0000E+00  0.0000E+00  0.0000E+00  0.0000E+00  0.0000E+00
     -2.063  0.5127E-02  0.5087E-02  0.4537E-03  0.4463E-03  0.6210E-03  0.6161E-03  0.4537E-03  0.4463E-03  0.0000E+00  0.0000E+00  0.0000E+00  0.0000E+00  0.0000E+00  0.0000E+00  0.0000E+00  0.0000E+00  0.0000E+00  0.0000E+00
     -1.989  0.5984E-02  0.5967E-02  0.6039E-03  0.5992E-03  0.7312E-03  0.7273E-03  0.6039E-03  0.5992E-03  0.0000E+00  0.0000E+00  0.0000E+00  0.0000E+00  0.0000E+00  0.0000E+00  0.0000E+00  0.0000E+00  0.0000E+00  0.0000E+00
     -1.915  0.5782E-02  0.5808E-02  0.6427E-03  0.6419E-03  0.7471E-03  0.7479E-03  0.6427E-03  0.6419E-03  0.0000E+00  0.0000E+00  0.0000E+00  0.0000E+00  0.0000E+00  0.0000E+00  0.0000E+00  0.0000E+00  0.0000E+00  0.0000E+00
     -1.841  0.5600E-02  0.5596E-02  0.6845E-03  0.6817E-03  0.8249E-03  0.8160E-03  0.6845E-03  0.6817E-03  0.0000E+00  0.0000E+00  0.0000E+00  0.0000E+00  0.0000E+00  0.0000E+00  0.0000E+00  0.0000E+00  0.0000E+00  0.0000E+00
     -1.767  0.5561E-02  0.5584E-02  0.6840E-03  0.6868E-03  0.1069E-02  0.1060E-02  0.6840E-03  0.6868E-03  0.0000E+00  0.0000E+00  0.0000E+00  0.0000E+00  0.0000E+00  0.0000E+00  0.0000E+00  0.0000E+00  0.0000E+00  0.0000E+00
     -1.693  0.5099E-02  0.5110E-02  0.6512E-03  0.6491E-03  0.1206E-02  0.1202E-02  0.6512E-03  0.6491E-03  0.0000E+00  0.0000E+00  0.0000E+00  0.0000E+00  0.0000E+00  0.0000E+00  0.0000E+00  0.0000E+00  0.0000E+00  0.0000E+00
     -1.619  0.5328E-02  0.5306E-02  0.7925E-03  0.7826E-03  0.1280E-02  0.1277E-02  0.7925E-03  0.7826E-03  0.0000E+00  0.0000E+00  0.0000E+00  0.0000E+00  0.0000E+00  0.0000E+00  0.0000E+00  0.0000E+00  0.0000E+00  0.0000E+00
     -1.545  0.5928E-02  0.5907E-02  0.1036E-02  0.1025E-02  0.1310E-02  0.1311E-02  0.1036E-02  0.1025E-02  0.0000E+00  0.0000E+00  0.0000E+00  0.0000E+00  0.0000E+00  0.0000E+00  0.0000E+00  0.0000E+00  0.0000E+00  0.0000E+00
     -1.472  0.5973E-02  0.5991E-02  0.1171E-02  0.1170E-02  0.1332E-02  0.1327E-02  0.1171E-02  0.1170E-02  0.0000E+00  0.0000E+00  0.0000E+00  0.0000E+00  0.0000E+00  0.0000E+00  0.0000E+00  0.0000E+00  0.0000E+00  0.0000E+00
     -1.398  0.5749E-02  0.5751E-02  0.1203E-02  0.1200E-02  0.1667E-02  0.1645E-02  0.1203E-02  0.1200E-02  0.0000E+00  0.0000E+00  0.0000E+00  0.0000E+00  0.0000E+00  0.0000E+00  0.0000E+00  0.0000E+00  0.0000E+00  0.0000E+00
     -1.324  0.5724E-02  0.5742E-02  0.1236E-02  0.1238E-02  0.2104E-02  0.2091E-02  0.1236E-02  0.1238E-02  0.0000E+00  0.0000E+00  0.0000E+00  0.0000E+00  0.0000E+00  0.0000E+00  0.0000E+00  0.0000E+00  0.0000E+00  0.0000E+00
     -1.250  0.5095E-02  0.5124E-02  0.1141E-02  0.1143E-02  0.2268E-02  0.2263E-02  0.1141E-02  0.1143E-02  0.0000E+00  0.0000E+00  0.0000E+00  0.0000E+00  0.0000E+00  0.0000E+00  0.0000E+00  0.0000E+00  0.0000E+00  0.0000E+00
     -1.176  0.5070E-02  0.5056E-02  0.1255E-02  0.1245E-02  0.2537E-02  0.2525E-02  0.1255E-02  0.1245E-02  0.0000E+00  0.0000E+00  0.0000E+00  0.0000E+00  0.0000E+00  0.0000E+00  0.0000E+00  0.0000E+00  0.0000E+00  0.0000E+00
     -1.102  0.5109E-02  0.5134E-02  0.1392E-02  0.1391E-02  0.2541E-02  0.2559E-02  0.1392E-02  0.1391E-02  0.0000E+00  0.0000E+00  0.0000E+00  0.0000E+00  0.0000E+00  0.0000E+00  0.0000E+00  0.0000E+00  0.0000E+00  0.0000E+00
     -1.028  0.4508E-02  0.4523E-02  0.1437E-02  0.1429E-02  0.2152E-02  0.2158E-02  0.1437E-02  0.1429E-02  0.0000E+00  0.0000E+00  0.0000E+00  0.0000E+00  0.0000E+00  0.0000E+00  0.0000E+00  0.0000E+00  0.0000E+00  0.0000E+00
     -0.954  0.4767E-02  0.4740E-02  0.1767E-02  0.1748E-02  0.2573E-02  0.2541E-02  0.1767E-02  0.1748E-02  0.0000E+00  0.0000E+00  0.0000E+00  0.0000E+00  0.0000E+00  0.0000E+00  0.0000E+00  0.0000E+00  0.0000E+00  0.0000E+00
     -0.880  0.5163E-02  0.5161E-02  0.2071E-02  0.2063E-02  0.3073E-02  0.3068E-02  0.2071E-02  0.2063E-02  0.0000E+00  0.0000E+00  0.0000E+00  0.0000E+00  0.0000E+00  0.0000E+00  0.0000E+00  0.0000E+00  0.0000E+00  0.0000E+00
     -0.807  0.4804E-02  0.4831E-02  0.2100E-02  0.2101E-02  0.2785E-02  0.2808E-02  0.2100E-02  0.2101E-02  0.0000E+00  0.0000E+00  0.0000E+00  0.0000E+00  0.0000E+00  0.0000E+00  0.0000E+00  0.0000E+00  0.0000E+00  0.0000E+00
     -0.733  0.4386E-02  0.4396E-02  0.2148E-02  0.2142E-02  0.2561E-02  0.2560E-02  0.2148E-02  0.2142E-02  0.0000E+00  0.0000E+00  0.0000E+00  0.0000E+00  0.0000E+00  0.0000E+00  0.0000E+00  0.0000E+00  0.0000E+00  0.0000E+00
     -0.659  0.4146E-02  0.4168E-02  0.2301E-02  0.2297E-02  0.2640E-02  0.2645E-02  0.2301E-02  0.2297E-02  0.0000E+00  0.0000E+00  0.0000E+00  0.0000E+00  0.0000E+00  0.0000E+00  0.0000E+00  0.0000E+00  0.0000E+00  0.0000E+00
     -0.585  0.3430E-02  0.3465E-02  0.2214E-02  0.2219E-02  0.2460E-02  0.2464E-02  0.2214E-02  0.2219E-02  0.0000E+00  0.0000E+00  0.0000E+00  0.0000E+00  0.0000E+00  0.0000E+00  0.0000E+00  0.0000E+00  0.0000E+00  0.0000E+00
     -0.511  0.3246E-02  0.3234E-02  0.2442E-02  0.2415E-02  0.2817E-02  0.2785E-02  0.2442E-02  0.2415E-02  0.0000E+00  0.0000E+00  0.0000E+00  0.0000E+00  0.0000E+00  0.0000E+00  0.0000E+00  0.0000E+00  0.0000E+00  0.0000E+00
     -0.437  0.3522E-02  0.3526E-02  0.3054E-02  0.3033E-02  0.3360E-02  0.3356E-02  0.3054E-02  0.3033E-02  0.0000E+00  0.0000E+00  0.0000E+00  0.0000E+00  0.0000E+00  0.0000E+00  0.0000E+00  0.0000E+00  0.0000E+00  0.0000E+00
     -0.363  0.3128E-02  0.3151E-02  0.3287E-02  0.3279E-02  0.3056E-02  0.3078E-02  0.3287E-02  0.3279E-02  0.0000E+00  0.0000E+00  0.0000E+00  0.0000E+00  0.0000E+00  0.0000E+00  0.0000E+00  0.0000E+00  0.0000E+00  0.0000E+00
     -0.289  0.2649E-02  0.2676E-02  0.3279E-02  0.3294E-02  0.2743E-02  0.2757E-02  0.3279E-02  0.3294E-02  0.0000E+00  0.0000E+00  0.0000E+00  0.0000E+00  0.0000E+00  0.0000E+00  0.0000E+00  0.0000E+00  0.0000E+00  0.0000E+00