   8   8   1   0
  0.1952737E+02  0.4274657E-09  0.4274657E-09  0.8549314E-09  0.5000000E-15
  1.000000000000000E-004
  CAR 
 unknown system                          
     12.90467455     -4.90578869  301      4.75419457      1.00000000
     -4.906  0.0000E+00  0.0000E+00  0.0000E+00  0.0000E+00
     -4.846  0.0000E+00  0.0000E+00  0.0000E+00  0.0000E+00
     -4.787  0.0000E+00  0.0000E+00  0.0000E+00  0.0000E+00
     -4.728  0.0000E+00  0.0000E+00  0.0000E+00  0.0000E+00
     -4.668  0.0000E+00  0.0000E+00  0.0000E+00  0.0000E+00
     -4.609  0.0000E+00  0.0000E+00  0.0000E+00  0.0000E+00
     -4.550  0.1643E-05  0.1596E-05  0.9753E-07  0.9475E-07
     -4.490  0.1766E-04  0.1715E-04  0.1146E-05  0.1113E-05
     -4.431  0.8312E-04  0.8074E-04  0.6080E-05  0.5906E-05
     -4.371  0.2821E-03  0.2740E-03  0.2283E-04  0.2217E-04
     -4.312  0.9538E-03  0.9266E-03  0.7945E-04  0.7718E-04
     -4.253  0.3056E-02  0.2970E-02  0.2609E-03  0.2535E-03
     -4.193  0.9573E-02  0.9315E-02  0.8292E-03  0.8065E-03
     -4.134  0.2779E-01  0.2712E-01  0.2479E-02  0.2417E-02
     -4.075  0.6762E-01  0.6635E-01  0.6494E-02  0.6356E-02
     -4.015  0.1269E+00  0.1253E+00  0.1403E-01  0.1380E-01
     -3.956  0.1872E+00  0.1857E+00  0.2514E-01  0.2482E-01
     -3.897  0.2466E+00  0.2451E+00  0.3978E-01  0.3937E-01
     -3.837  0.2942E+00  0.2934E+00  0.5724E-01  0.5679E-01
     -3.778  0.3175E+00  0.3169E+00  0.7609E-01  0.7560E-01
     -3.718  0.3593E+00  0.3580E+00  0.9743E-01  0.9686E-01
     -3.659  0.4049E+00  0.4041E+00  0.1215E+00  0.1208E+00
     -3.600  0.4295E+00  0.4289E+00  0.1470E+00  0.1463E+00
     -3.540  0.4552E+00  0.4545E+00  0.1740E+00  0.1733E+00
     -3.481  0.4734E+00  0.4732E+00  0.2021E+00  0.2014E+00
     -3.422  0.4786E+00  0.4780E+00  0.2306E+00  0.2298E+00
     -3.362  0.5253E+00  0.5235E+00  0.2617E+00  0.2609E+00
     -3.303  0.5856E+00  0.5846E+00  0.2965E+00  0.2956E+00
     -3.243  0.5943E+00  0.5943E+00  0.3318E+00  0.3309E+00
     -3.184  0.5999E+00  0.5995E+00  0.3675E+00  0.3665E+00
     -3.125  0.6062E+00  0.6063E+00  0.4035E+00  0.4025E+00
     -3.065  0.6088E+00  0.6081E+00  0.4396E+00  0.4387E+00
     -3.006  0.6547E+00  0.6530E+00  0.4785E+00  0.4774E+00
     -2.947  0.7161E+00  0.7147E+00  0.5211E+00  0.5199E+00
     -2.887  0.7438E+00  0.7432E+00  0.5653E+00  0.5641E+00
     -2.828  0.7712E+00  0.7701E+00  0.6111E+00  0.6098E+00
     -2.769  0.7909E+00  0.7908E+00  0.6580E+00  0.6568E+00
     -2.709  0.7839E+00  0.7836E+00  0.7046E+00  0.7033E+00
     -2.650  0.8159E+00  0.8147E+00  0.7531E+00  0.7517E+00
     -2.590  0.8187E+00  0.8193E+00  0.8017E+00  0.8004E+00
     -2.531  0.8144E+00  0.8130E+00  0.8501E+00  0.8487E+00
     -2.472  0.9027E+00  0.8995E+00  0.9037E+00  0.9021E+00
     -2.412  0.9668E+00  0.9665E+00  0.9611E+00  0.9595E+00
     -2.353  0.9417E+00  0.9426E+00  0.1017E+01  0.1016E+01
     -2.294  0.9228E+00  0.9227E+00  0.1072E+01  0.1070E+01
     -2.234  0.9060E+00  0.9067E+00  0.1126E+01  0.1124E+01
     -2.175  0.8829E+00  0.8819E+00  0.1178E+01  0.1177E+01
     -2.115  0.9670E+00  0.9630E+00  0.1236E+01  0.1234E+01
     -2.056  0.1046E+01  0.1045E+01  0.1298E+01  0.1296E+01
     -1.997  0.1023E+01  0.1024E+01  0.1359E+01  0.1357E+01
     -1.937  0.9339E+00  0.9372E+00  0.1414E+01  0.1412E+01
     -1.878  0.8388E+00  0.8404E+00  0.1464E+01  0.1462E+01
     -1.819  0.8361E+00  0.8356E+00  0.1514E+01  0.1512E+01
     -1.759  0.8373E+00  0.8383E+00  0.1563E+01  0.1562E+01
     -1.700  0.7584E+00  0.7619E+00  0.1608E+01  0.1607E+01
     -1.641  0.6377E+00  0.6408E+00  0.1646E+01  0.1645E+01
     -1.581  0.5616E+00  0.5634E+00  0.1680E+01  0.1679E+01
     -1.522  0.5399E+00  0.5399E+00  0.1712E+01  0.1711E+01
     -1.462  0.5832E+00  0.5810E+00  0.1746E+01  0.1745E+01
     -1.403  0.6711E+00  0.6686E+00  0.1786E+01  0.1785E+01
     -1.344  0.7470E+00  0.7451E+00  0.1831E+01  0.1829E+01
     -1.284  0.8316E+00  0.8298E+00  0.1880E+01  0.1878E+01
     -1.225  0.9152E+00  0.9144E+00  0.1934E+01  0.1933E+01
     -1.166  0.9836E+00  0.9819E+00  0.1993E+01  0.1991E+01
     -1.106  0.1077E+01  0.1074E+01  0.2057E+01  0.2055E+01
     -1.047  0.1174E+01  0.1172E+01  0.2126E+01  0.2124E+01
     -0.987  0.1185E+01  0.1185E+01  0.2197E+01  0.2195E+01
     -0.928  0.1149E+01  0.1149E+01  0.2265E+01  0.2263E+01
     -0.869  0.1167E+01  0.1166E+01  0.2334E+01  0.2332E+01
     -0.809  0.1115E+01  0.1119E+01  0.2401E+01  0.2399E+01
     -0.750  0.9843E+00  0.9877E+00  0.2459E+01  0.2458E+01
     -0.691  0.9376E+00  0.9375E+00  0.2515E+01  0.2513E+01
     -0.631  0.9893E+00  0.9872E+00  0.2574E+01  0.2572E+01
     -0.572  0.1052E+01  0.1051E+01  0.2636E+01  0.2634E+01
     -0.513  0.1061E+01  0.1060E+01  0.2699E+01  0.2697E+01
     -0.453  0.1077E+01  0.1076E+01  0.2763E+01  0.2761E+01
     -0.394  0.1103E+01  0.1104E+01  0.2829E+01  0.2827E+01
     -0.334  0.1034E+01  0.1039E+01  0.2890E+01  0.2888E+01
     -0.275  0.9059E+00  0.9101E+00  0.2944E+01  0.2943E+01
     -0.216  0.8573E+00  0.8569E+00  0.2995E+01  0.2993E+01
     -0.156  0.9047E+00  0.9036E+00  0.3049E+01  0.3047E+01
     -0.097  0.9013E+00  0.9033E+00  0.3102E+01  0.3101E+01
     -0.038  0.7863E+00  0.7887E+00  0.3149E+01  0.3148E+01
      0.022  0.7228E+00  0.7219E+00  0.3192E+01  0.3191E+01
      0.081  0.8599E+00  0.8538E+00  0.3243E+01  0.3241E+01
      0.141  0.1172E+01  0.1166E+01  0.3312E+01  0.3311E+01
      0.200  0.1376E+01  0.1377E+01  0.3394E+01  0.3392E+01
      0.259  0.1335E+01  0.1341E+01  0.3473E+01  0.3472E+01
      0.319  0.1273E+01  0.1278E+01  0.3549E+01  0.3548E+01
      0.378  0.1246E+01  0.1248E+01  0.3623E+01  0.3622E+01
      0.437  0.1163E+01  0.1162E+01  0.3692E+01  0.3691E+01
      0.497  0.1109E+01  0.1107E+01  0.3758E+01  0.3757E+01
      0.556  0.1110E+01  0.1111E+01  0.3824E+01  0.3823E+01
      0.615  0.1108E+01  0.1110E+01  0.3890E+01  0.3889E+01
      0.675  0.1183E+01  0.1180E+01  0.3960E+01  0.3959E+01
      0.734  0.1326E+01  0.1322E+01  0.4039E+01  0.4037E+01
      0.794  0.1402E+01  0.1400E+01  0.4122E+01  0.4121E+01
      0.853  0.1434E+01  0.1432E+01  0.4207E+01  0.4206E+01
      0.912  0.1392E+01  0.1393E+01  0.4290E+01  0.4288E+01
      0.972  0.1254E+01  0.1259E+01  0.4365E+01  0.4363E+01
      1.031  0.1162E+01  0.1166E+01  0.4434E+01  0.4432E+01
      1.090  0.1099E+01  0.1103E+01  0.4499E+01  0.4498E+01
      1.150  0.1001E+01  0.1003E+01  0.4558E+01  0.4557E+01
      1.209  0.1011E+01  0.1007E+01  0.4618E+01  0.4617E+01
      1.269  0.1141E+01  0.1137E+01  0.4686E+01  0.4685E+01
      1.328  0.1143E+01  0.1143E+01  0.4754E+01  0.4753E+01
      1.387  0.9932E+00  0.9947E+00  0.4813E+01  0.4812E+01
      1.447  0.8649E+00  0.8662E+00  0.4865E+01  0.4863E+01
      1.506  0.8388E+00  0.8394E+00  0.4914E+01  0.4913E+01
      1.565  0.1012E+01  0.1009E+01  0.4974E+01  0.4973E+01
      1.625  0.1352E+01  0.1349E+01  0.5055E+01  0.5053E+01
      1.684  0.1648E+01  0.1646E+01  0.5153E+01  0.5151E+01
      1.743  0.1820E+01  0.1818E+01  0.5261E+01  0.5259E+01
      1.803  0.1793E+01  0.1794E+01  0.5367E+01  0.5366E+01
      1.862  0.1603E+01  0.1607E+01  0.5462E+01  0.5461E+01
      1.922  0.1440E+01  0.1444E+01  0.5548E+01  0.5547E+01
      1.981  0.1383E+01  0.1386E+01  0.5630E+01  0.5629E+01
      2.040  0.1275E+01  0.1278E+01  0.5706E+01  0.5705E+01
      2.100  0.1144E+01  0.1145E+01  0.5774E+01  0.5773E+01
      2.159  0.1246E+01  0.1243E+01  0.5848E+01  0.5847E+01
      2.218  0.1512E+01  0.1510E+01  0.5938E+01  0.5937E+01
      2.278  0.1670E+01  0.1670E+01  0.6037E+01  0.6036E+01
      2.337  0.1638E+01  0.1636E+01  0.6134E+01  0.6133E+01
      2.397  0.1578E+01  0.1575E+01  0.6228E+01  0.6227E+01
      2.456  0.1534E+01  0.1534E+01  0.6319E+01  0.6318E+01
      2.515  0.1487E+01  0.1490E+01  0.6407E+01  0.6406E+01
      2.575  0.1424E+01  0.1427E+01  0.6492E+01  0.6491E+01
      2.634  0.1337E+01  0.1337E+01  0.6571E+01  0.6571E+01
      2.693  0.1320E+01  0.1315E+01  0.6650E+01  0.6649E+01
      2.753  0.1378E+01  0.1376E+01  0.6732E+01  0.6730E+01
      2.812  0.1468E+01  0.1471E+01  0.6819E+01  0.6818E+01
      2.871  0.1613E+01  0.1617E+01  0.6915E+01  0.6914E+01
      2.931  0.1697E+01  0.1698E+01  0.7016E+01  0.7015E+01
      2.990  0.1708E+01  0.1707E+01  0.7117E+01  0.7116E+01
      3.050  0.1816E+01  0.1812E+01  0.7225E+01  0.7224E+01
      3.109  0.1922E+01  0.1918E+01  0.7339E+01  0.7338E+01
      3.168  0.1864E+01  0.1863E+01  0.7450E+01  0.7448E+01
      3.228  0.1678E+01  0.1681E+01  0.7549E+01  0.7548E+01
      3.287  0.1537E+01  0.1538E+01  0.7641E+01  0.7639E+01
      3.346  0.1613E+01  0.1611E+01  0.7737E+01  0.7735E+01
      3.406  0.1716E+01  0.1716E+01  0.7838E+01  0.7837E+01
      3.465  0.1605E+01  0.1604E+01  0.7934E+01  0.7932E+01
      3.524  0.1410E+01  0.1410E+01  0.8018E+01  0.8016E+01
      3.584  0.1301E+01  0.1302E+01  0.8095E+01  0.8094E+01
      3.643  0.1333E+01  0.1335E+01  0.8174E+01  0.8173E+01
      3.703  0.1511E+01  0.1511E+01  0.8264E+01  0.8263E+01
      3.762  0.1677E+01  0.1678E+01  0.8363E+01  0.8362E+01
      3.821  0.1713E+01  0.1713E+01  0.8465E+01  0.8464E+01
      3.881  0.1768E+01  0.1768E+01  0.8570E+01  0.8569E+01
      3.940  0.1806E+01  0.1808E+01  0.8677E+01  0.8677E+01
      3.999  0.1801E+01  0.1803E+01  0.8784E+01  0.8784E+01
      4.059  0.1725E+01  0.1726E+01  0.8887E+01  0.8886E+01
      4.118  0.1655E+01  0.1655E+01  0.8985E+01  0.8984E+01
      4.178  0.1700E+01  0.1699E+01  0.9086E+01  0.9085E+01
      4.237  0.1728E+01  0.1729E+01  0.9189E+01  0.9188E+01
      4.296  0.1560E+01  0.1563E+01  0.9281E+01  0.9281E+01
      4.356  0.1284E+01  0.1285E+01  0.9358E+01  0.9357E+01
      4.415  0.1188E+01  0.1185E+01  0.9428E+01  0.9428E+01
      4.474  0.1271E+01  0.1266E+01  0.9504E+01  0.9503E+01
      4.534  0.1439E+01  0.1433E+01  0.9589E+01  0.9588E+01
      4.593  0.1713E+01  0.1710E+01  0.9691E+01  0.9690E+01
      4.652  0.1954E+01  0.1957E+01  0.9807E+01  0.9806E+01
      4.712  0.1960E+01  0.1966E+01  0.9924E+01  0.9923E+01
      4.771  0.1781E+01  0.1784E+01  0.1003E+02  0.1003E+02
      4.831  0.1535E+01  0.1537E+01  0.1012E+02  0.1012E+02
      4.890  0.1341E+01  0.1343E+01  0.1020E+02  0.1020E+02
      4.949  0.1265E+01  0.1264E+01  0.1028E+02  0.1027E+02
      5.009  0.1245E+01  0.1247E+01  0.1035E+02  0.1035E+02
      5.068  0.1275E+01  0.1278E+01  0.1043E+02  0.1042E+02
      5.127  0.1373E+01  0.1374E+01  0.1051E+02  0.1051E+02
      5.187  0.1453E+01  0.1451E+01  0.1059E+02  0.1059E+02
      5.246  0.1516E+01  0.1511E+01  0.1068E+02  0.1068E+02
      5.306  0.1717E+01  0.1711E+01  0.1079E+02  0.1078E+02
      5.365  0.2004E+01  0.2001E+01  0.1090E+02  0.1090E+02
      5.424  0.2086E+01  0.2088E+01  0.1103E+02  0.1103E+02
      5.484  0.1954E+01  0.1958E+01  0.1114E+02  0.1114E+02
      5.543  0.1857E+01  0.1858E+01  0.1125E+02  0.1125E+02
      5.602  0.1810E+01  0.1809E+01  0.1136E+02  0.1136E+02
      5.662  0.1644E+01  0.1644E+01  0.1146E+02  0.1146E+02
      5.721  0.1456E+01  0.1456E+01  0.1155E+02  0.1155E+02
      5.780  0.1416E+01  0.1417E+01  0.1163E+02  0.1163E+02
      5.840  0.1576E+01  0.1577E+01  0.1172E+02  0.1172E+02
      5.899  0.1789E+01  0.1790E+01  0.1183E+02  0.1183E+02
      5.959  0.1906E+01  0.1907E+01  0.1194E+02  0.1194E+02
      6.018  0.1920E+01  0.1919E+01  0.1206E+02  0.1206E+02
      6.077  0.1882E+01  0.1880E+01  0.1217E+02  0.1217E+02
      6.137  0.1837E+01  0.1833E+01  0.1228E+02  0.1228E+02
      6.196  0.1891E+01  0.1887E+01  0.1239E+02  0.1239E+02
      6.255  0.1940E+01  0.1939E+01  0.1251E+02  0.1250E+02
      6.315  0.1860E+01  0.1863E+01  0.1262E+02  0.1262E+02
      6.374  0.1799E+01  0.1802E+01  0.1272E+02  0.1272E+02
      6.434  0.1757E+01  0.1759E+01  0.1283E+02  0.1283E+02
      6.493  0.1630E+01  0.1632E+01  0.1292E+02  0.1292E+02
      6.552  0.1558E+01  0.1559E+01  0.1302E+02  0.1302E+02
      6.612  0.1617E+01  0.1617E+01  0.1311E+02  0.1311E+02
      6.671  0.1689E+01  0.1689E+01  0.1321E+02  0.1321E+02
      6.730  0.1794E+01  0.1793E+01  0.1332E+02  0.1332E+02
      6.790  0.1938E+01  0.1938E+01  0.1344E+02  0.1343E+02
      6.849  0.1992E+01  0.1994E+01  0.1355E+02  0.1355E+02
      6.908  0.1931E+01  0.1932E+01  0.1367E+02  0.1367E+02
      6.968  0.1878E+01  0.1877E+01  0.1378E+02  0.1378E+02
      7.027  0.1919E+01  0.1917E+01  0.1389E+02  0.1389E+02
      7.087  0.2086E+01  0.2086E+01  0.1402E+02  0.1402E+02
      7.146  0.2260E+01  0.2259E+01  0.1415E+02  0.1415E+02
      7.205  0.2234E+01  0.2234E+01  0.1428E+02  0.1428E+02
      7.265  0.2102E+01  0.2104E+01  0.1441E+02  0.1441E+02
      7.324  0.1991E+01  0.1994E+01  0.1453E+02  0.1453E+02
      7.383  0.1894E+01  0.1897E+01  0.1464E+02  0.1464E+02
      7.443  0.1921E+01  0.1922E+01  0.1475E+02  0.1475E+02
      7.502  0.2000E+01  0.1999E+01  0.1487E+02  0.1487E+02
      7.562  0.1981E+01  0.1978E+01  0.1499E+02  0.1499E+02
      7.621  0.1992E+01  0.1989E+01  0.1511E+02  0.1511E+02
      7.680  0.2070E+01  0.2067E+01  0.1523E+02  0.1523E+02
      7.740  0.2160E+01  0.2159E+01  0.1536E+02  0.1536E+02
      7.799  0.2172E+01  0.2173E+01  0.1549E+02  0.1549E+02
      7.858  0.2043E+01  0.2045E+01  0.1561E+02  0.1561E+02
      7.918  0.1905E+01  0.1904E+01  0.1572E+02  0.1572E+02
      7.977  0.1930E+01  0.1928E+01  0.1584E+02  0.1584E+02
      8.036  0.2039E+01  0.2037E+01  0.1596E+02  0.1596E+02
      8.096  0.2122E+01  0.2122E+01  0.1609E+02  0.1608E+02
      8.155  0.2144E+01  0.2144E+01  0.1621E+02  0.1621E+02
      8.215  0.2120E+01  0.2119E+01  0.1634E+02  0.1634E+02
      8.274  0.2168E+01  0.2166E+01  0.1647E+02  0.1647E+02
      8.333  0.2286E+01  0.2285E+01  0.1660E+02  0.1660E+02
      8.393  0.2353E+01  0.2354E+01  0.1674E+02  0.1674E+02
      8.452  0.2283E+01  0.2284E+01  0.1688E+02  0.1688E+02
      8.511  0.2139E+01  0.2140E+01  0.1701E+02  0.1701E+02
      8.571  0.2061E+01  0.2061E+01  0.1713E+02  0.1713E+02
      8.630  0.2084E+01  0.2083E+01  0.1725E+02  0.1725E+02
      8.690  0.2052E+01  0.2051E+01  0.1737E+02  0.1737E+02
      8.749  0.1950E+01  0.1950E+01  0.1749E+02  0.1749E+02
      8.808  0.1868E+01  0.1871E+01  0.1760E+02  0.1760E+02
      8.868  0.1800E+01  0.1803E+01  0.1771E+02  0.1771E+02
      8.927  0.1724E+01  0.1724E+01  0.1781E+02  0.1781E+02
      8.986  0.1630E+01  0.1629E+01  0.1791E+02  0.1791E+02
      9.046  0.1551E+01  0.1550E+01  0.1800E+02  0.1800E+02
      9.105  0.1605E+01  0.1599E+01  0.1810E+02  0.1809E+02
      9.164  0.1892E+01  0.1883E+01  0.1821E+02  0.1821E+02
      9.224  0.2176E+01  0.2177E+01  0.1834E+02  0.1833E+02
      9.283  0.2188E+01  0.2200E+01  0.1847E+02  0.1847E+02
      9.343  0.2097E+01  0.2118E+01  0.1859E+02  0.1859E+02
      9.402  0.1966E+01  0.1988E+01  0.1871E+02  0.1871E+02
      9.461  0.1722E+01  0.1738E+01  0.1881E+02  0.1881E+02
      9.521  0.1525E+01  0.1537E+01  0.1890E+02  0.1890E+02
      9.580  0.1425E+01  0.1423E+01  0.1899E+02  0.1899E+02
      9.639  0.1349E+01  0.1333E+01  0.1907E+02  0.1907E+02
      9.699  0.1308E+01  0.1285E+01  0.1914E+02  0.1914E+02
      9.758  0.1276E+01  0.1258E+01  0.1922E+02  0.1922E+02
      9.818  0.1156E+01  0.1145E+01  0.1929E+02  0.1929E+02
      9.877  0.9780E+00  0.9622E+00  0.1935E+02  0.1934E+02
      9.936  0.8650E+00  0.8551E+00  0.1940E+02  0.1939E+02
      9.996  0.7604E+00  0.7806E+00  0.1944E+02  0.1944E+02
     10.055  0.6479E+00  0.6714E+00  0.1948E+02  0.1948E+02
     10.114  0.5991E+00  0.6054E+00  0.1952E+02  0.1952E+02
     10.174  0.5808E+00  0.5823E+00  0.1955E+02  0.1955E+02
     10.233  0.5289E+00  0.5285E+00  0.1958E+02  0.1958E+02
     10.292  0.4429E+00  0.4407E+00  0.1961E+02  0.1961E+02
     10.352  0.4015E+00  0.4048E+00  0.1963E+02  0.1963E+02
     10.411  0.4044E+00  0.4168E+00  0.1966E+02  0.1966E+02
     10.471  0.3819E+00  0.3942E+00  0.1968E+02  0.1968E+02
     10.530  0.3232E+00  0.3185E+00  0.1970E+02  0.1970E+02
     10.589  0.2941E+00  0.2829E+00  0.1972E+02  0.1972E+02
     10.649  0.3181E+00  0.3133E+00  0.1974E+02  0.1974E+02
     10.708  0.3601E+00  0.3556E+00  0.1976E+02  0.1976E+02
     10.767  0.4037E+00  0.3992E+00  0.1978E+02  0.1978E+02
     10.827  0.4084E+00  0.4080E+00  0.1980E+02  0.1981E+02
     10.886  0.3668E+00  0.3643E+00  0.1983E+02  0.1983E+02
     10.946  0.3172E+00  0.3075E+00  0.1985E+02  0.1985E+02
     11.005  0.3083E+00  0.2985E+00  0.1986E+02  0.1986E+02
     11.064  0.3512E+00  0.3536E+00  0.1988E+02  0.1988E+02
     11.124  0.3551E+00  0.3638E+00  0.1991E+02  0.1991E+02
     11.183  0.2541E+00  0.2591E+00  0.1992E+02  0.1992E+02
     11.242  0.1259E+00  0.1273E+00  0.1993E+02  0.1993E+02
     11.302  0.5079E-01  0.5108E-01  0.1993E+02  0.1993E+02
     11.361  0.2835E-01  0.2835E-01  0.1993E+02  0.1993E+02
     11.420  0.4341E-01  0.4336E-01  0.1994E+02  0.1994E+02
     11.480  0.9598E-01  0.9560E-01  0.1994E+02  0.1994E+02
     11.539  0.1565E+00  0.1562E+00  0.1995E+02  0.1995E+02
     11.599  0.1529E+00  0.1530E+00  0.1996E+02  0.1996E+02
     11.658  0.1072E+00  0.1074E+00  0.1997E+02  0.1997E+02
     11.717  0.8771E-01  0.8776E-01  0.1997E+02  0.1997E+02
     11.777  0.7612E-01  0.7641E-01  0.1998E+02  0.1998E+02
     11.836  0.4959E-01  0.5016E-01  0.1998E+02  0.1998E+02
     11.895  0.3815E-01  0.3880E-01  0.1998E+02  0.1998E+02
     11.955  0.5718E-01  0.5614E-01  0.1998E+02  0.1998E+02
     12.014  0.8744E-01  0.7965E-01  0.1999E+02  0.1999E+02
     12.074  0.8593E-01  0.7676E-01  0.1999E+02  0.1999E+02
     12.133  0.5294E-01  0.5588E-01  0.2000E+02  0.2000E+02
     12.192  0.2275E-01  0.3037E-01  0.2000E+02  0.2000E+02
     12.252  0.7915E-02  0.1215E-01  0.2000E+02  0.2000E+02
     12.311  0.2522E-02  0.4089E-02  0.2000E+02  0.2000E+02
     12.370  0.7799E-03  0.1288E-02  0.2000E+02  0.2000E+02
     12.430  0.1520E-03  0.3202E-03  0.2000E+02  0.2000E+02
     12.489  0.0000E+00  0.9803E-04  0.2000E+02  0.2000E+02
     12.548  0.0000E+00  0.0000E+00  0.2000E+02  0.2000E+02
     12.608  0.0000E+00  0.0000E+00  0.2000E+02  0.2000E+02
     12.667  0.0000E+00  0.0000E+00  0.2000E+02  0.2000E+02
     12.727  0.0000E+00  0.0000E+00  0.2000E+02  0.2000E+02
     12.786  0.0000E+00  0.0000E+00  0.2000E+02  0.2000E+02
     12.845  0.0000E+00  0.0000E+00  0.2000E+02  0.2000E+02
     12.905  0.0000E+00  0.0000E+00  0.2000E+02  0.2000E+02
     12.90467455     -4.90578869  301      4.75419457      1.00000000
     -4.906  0.0000E+00  0.0000E+00  0.0000E+00  0.0000E+00  0.0000E+00  0.0000E+00  0.0000E+00  0.0000E+00  0.0000E+00  0.0000E+00  0.0000E+00  0.0000E+00  0.0000E+00  0.0000E+00  0.0000E+00  0.0000E+00  0.0000E+00  0.0000E+00
     -4.846  0.0000E+00  0.0000E+00  0.0000E+00  0.0000E+00  0.0000E+00  0.0000E+00  0.0000E+00  0.0000E+00  0.0000E+00  0.0000E+00  0.0000E+00  0.0000E+00  0.0000E+00  0.0000E+00  0.0000E+00  0.0000E+00  0.0000E+00  0.0000E+00
     -4.787  0.0000E+00  0.0000E+00  0.0000E+00  0.0000E+00  0.0000E+00  0.0000E+00  0.0000E+00  0.0000E+00  0.0000E+00  0.0000E+00  0.0000E+00  0.0000E+00  0.0000E+00  0.0000E+00  0.0000E+00  0.0000E+00  0.0000E+00  0.0000E+00
     -4.728  0.0000E+00  0.0000E+00  0.0000E+00  0.0000E+00  0.0000E+00  0.0000E+00  0.0000E+00  0.0000E+00  0.0000E+00  0.0000E+00  0.0000E+00  0.0000E+00  0.0000E+00  0.0000E+00  0.0000E+00  0.0000E+00  0.0000E+00  0.0000E+00
     -4.668  0.0000E+00  0.0000E+00  0.0000E+00  0.0000E+00  0.0000E+00  0.0000E+00  0.0000E+00  0.0000E+00  0.0000E+00  0.0000E+00  0.0000E+00  0.0000E+00  0.0000E+00  0.0000E+00  0.0000E+00  0.0000E+00  0.0000E+00  0.0000E+00
     -4.609  0.0000E+00  0.0000E+00  0.0000E+00  0.0000E+00  0.0000E+00  0.0000E+00  0.0000E+00  0.0000E+00  0.0000E+00  0.0000E+00  0.0000E+00  0.0000E+00  0.0000E+00  0.0000E+00  0.0000E+00  0.0000E+00  0.0000E+00  0.0000E+00
     -4.550  0.1475E-07  0.1436E-07  0.2393E-21  0.1333E-21  0.6521E-20  0.4242E-20  0.2393E-21  0.1333E-21  0.0000E+00  0.0000E+00  0.0000E+00  0.0000E+00  0.0000E+00  0.0000E+00  0.0000E+00  0.0000E+00  0.0000E+00  0.0000E+00
     -4.490  0.1569E-06  0.1528E-06  0.4855E-09  0.4722E-09  0.5719E-09  0.5565E-09  0.4855E-09  0.4722E-09  0.0000E+00  0.0000E+00  0.0000E+00  0.0000E+00  0.0000E+00  0.0000E+00  0.0000E+00  0.0000E+00  0.0000E+00  0.0000E+00
     -4.431  0.7338E-06  0.7143E-06  0.3898E-08  0.3791E-08  0.4358E-08  0.4241E-08  0.3898E-08  0.3791E-08  0.0000E+00  0.0000E+00  0.0000E+00  0.0000E+00  0.0000E+00  0.0000E+00  0.0000E+00  0.0000E+00  0.0000E+00  0.0000E+00
     -4.371  0.2482E-05  0.2416E-05  0.1541E-07  0.1499E-07  0.1796E-07  0.1747E-07  0.1541E-07  0.1499E-07  0.0000E+00  0.0000E+00  0.0000E+00  0.0000E+00  0.0000E+00  0.0000E+00  0.0000E+00  0.0000E+00  0.0000E+00  0.0000E+00
     -4.312  0.8368E-05  0.8147E-05  0.5728E-07  0.5571E-07  0.7422E-07  0.7218E-07  0.5728E-07  0.5571E-07  0.0000E+00  0.0000E+00  0.0000E+00  0.0000E+00  0.0000E+00  0.0000E+00  0.0000E+00  0.0000E+00  0.0000E+00  0.0000E+00
     -4.253  0.2682E-04  0.2612E-04  0.1890E-06  0.1838E-06  0.2255E-06  0.2193E-06  0.1890E-06  0.1838E-06  0.0000E+00  0.0000E+00  0.0000E+00  0.0000E+00  0.0000E+00  0.0000E+00  0.0000E+00  0.0000E+00  0.0000E+00  0.0000E+00
     -4.193  0.8395E-04  0.8186E-04  0.6001E-06  0.5840E-06  0.7329E-06  0.7133E-06  0.6001E-06  0.5840E-06  0.0000E+00  0.0000E+00  0.0000E+00  0.0000E+00  0.0000E+00  0.0000E+00  0.0000E+00  0.0000E+00  0.0000E+00  0.0000E+00
     -4.134  0.2433E-03  0.2379E-03  0.1870E-05  0.1823E-05  0.2293E-05  0.2235E-05  0.1870E-05  0.1823E-05  0.0000E+00  0.0000E+00  0.0000E+00  0.0000E+00  0.0000E+00  0.0000E+00  0.0000E+00  0.0000E+00  0.0000E+00  0.0000E+00
     -4.075  0.5898E-03  0.5800E-03  0.5187E-05  0.5074E-05  0.6348E-05  0.6209E-05  0.5187E-05  0.5074E-05  0.0000E+00  0.0000E+00  0.0000E+00  0.0000E+00  0.0000E+00  0.0000E+00  0.0000E+00  0.0000E+00  0.0000E+00  0.0000E+00
     -4.015  0.1099E-02  0.1088E-02  0.1204E-04  0.1184E-04  0.1488E-04  0.1462E-04  0.1204E-04  0.1184E-04  0.0000E+00  0.0000E+00  0.0000E+00  0.0000E+00  0.0000E+00  0.0000E+00  0.0000E+00  0.0000E+00  0.0000E+00  0.0000E+00
     -3.956  0.1601E-02  0.1593E-02  0.2341E-04  0.2308E-04  0.2927E-04  0.2886E-04  0.2341E-04  0.2308E-04  0.0000E+00  0.0000E+00  0.0000E+00  0.0000E+00  0.0000E+00  0.0000E+00  0.0000E+00  0.0000E+00  0.0000E+00  0.0000E+00
     -3.897  0.2078E-02  0.2071E-02  0.4055E-04  0.4010E-04  0.4915E-04  0.4864E-04  0.4055E-04  0.4010E-04  0.0000E+00  0.0000E+00  0.0000E+00  0.0000E+00  0.0000E+00  0.0000E+00  0.0000E+00  0.0000E+00  0.0000E+00  0.0000E+00
     -3.837  0.2443E-02  0.2441E-02  0.5962E-04  0.5923E-04  0.7123E-04  0.7068E-04  0.5962E-04  0.5923E-04  0.0000E+00  0.0000E+00  0.0000E+00  0.0000E+00  0.0000E+00  0.0000E+00  0.0000E+00  0.0000E+00  0.0000E+00  0.0000E+00
     -3.778  0.2584E-02  0.2585E-02  0.7682E-04  0.7636E-04  0.9943E-04  0.9858E-04  0.7682E-04  0.7636E-04  0.0000E+00  0.0000E+00  0.0000E+00  0.0000E+00  0.0000E+00  0.0000E+00  0.0000E+00  0.0000E+00  0.0000E+00  0.0000E+00
     -3.718  0.2859E-02  0.2856E-02  0.1037E-03  0.1029E-03  0.1382E-03  0.1373E-03  0.1037E-03  0.1029E-03  0.0000E+00  0.0000E+00  0.0000E+00  0.0000E+00  0.0000E+00  0.0000E+00  0.0000E+00  0.0000E+00  0.0000E+00  0.0000E+00
     -3.659  0.3163E-02  0.3164E-02  0.1388E-03  0.1380E-03  0.1670E-03  0.1665E-03  0.1388E-03  0.1380E-03  0.0000E+00  0.0000E+00  0.0000E+00  0.0000E+00  0.0000E+00  0.0000E+00  0.0000E+00  0.0000E+00  0.0000E+00  0.0000E+00
     -3.600  0.3288E-02  0.3292E-02  0.1690E-03  0.1684E-03  0.1946E-03  0.1936E-03  0.1690E-03  0.1684E-03  0.0000E+00  0.0000E+00  0.0000E+00  0.0000E+00  0.0000E+00  0.0000E+00  0.0000E+00  0.0000E+00  0.0000E+00  0.0000E+00
     -3.540  0.3403E-02  0.3408E-02  0.1945E-03  0.1939E-03  0.2461E-03  0.2448E-03  0.1945E-03  0.1939E-03  0.0000E+00  0.0000E+00  0.0000E+00  0.0000E+00  0.0000E+00  0.0000E+00  0.0000E+00  0.0000E+00  0.0000E+00  0.0000E+00
     -3.481  0.3454E-02  0.3464E-02  0.2173E-03  0.2169E-03  0.2979E-03  0.2969E-03  0.2173E-03  0.2169E-03  0.0000E+00  0.0000E+00  0.0000E+00  0.0000E+00  0.0000E+00  0.0000E+00  0.0000E+00  0.0000E+00  0.0000E+00  0.0000E+00
     -3.422  0.3398E-02  0.3406E-02  0.2408E-03  0.2400E-03  0.3395E-03  0.3386E-03  0.2408E-03  0.2400E-03  0.0000E+00  0.0000E+00  0.0000E+00  0.0000E+00  0.0000E+00  0.0000E+00  0.0000E+00  0.0000E+00  0.0000E+00  0.0000E+00
     -3.362  0.3631E-02  0.3631E-02  0.2999E-03  0.2981E-03  0.3896E-03  0.3884E-03  0.2999E-03  0.2981E-03  0.0000E+00  0.0000E+00  0.0000E+00  0.0000E+00  0.0000E+00  0.0000E+00  0.0000E+00  0.0000E+00  0.0000E+00  0.0000E+00
     -3.303  0.3962E-02  0.3969E-02  0.3692E-03  0.3680E-03  0.4418E-03  0.4410E-03  0.3692E-03  0.3680E-03  0.0000E+00  0.0000E+00  0.0000E+00  0.0000E+00  0.0000E+00  0.0000E+00  0.0000E+00  0.0000E+00  0.0000E+00  0.0000E+00
     -3.243  0.3927E-02  0.3941E-02  0.4030E-03  0.4025E-03  0.4725E-03  0.4719E-03  0.4030E-03  0.4025E-03  0.0000E+00  0.0000E+00  0.0000E+00  0.0000E+00  0.0000E+00  0.0000E+00  0.0000E+00  0.0000E+00  0.0000E+00  0.0000E+00
     -3.184  0.3840E-02  0.3852E-02  0.4253E-03  0.4251E-03  0.5386E-03  0.5364E-03  0.4253E-03  0.4251E-03  0.0000E+00  0.0000E+00  0.0000E+00  0.0000E+00  0.0000E+00  0.0000E+00  0.0000E+00  0.0000E+00  0.0000E+00  0.0000E+00
     -3.125  0.3737E-02  0.3753E-02  0.4282E-03  0.4285E-03  0.6536E-03  0.6512E-03  0.4282E-03  0.4285E-03  0.0000E+00  0.0000E+00  0.0000E+00  0.0000E+00  0.0000E+00  0.0000E+00  0.0000E+00  0.0000E+00  0.0000E+00  0.0000E+00
     -3.065  0.3610E-02  0.3621E-02  0.4452E-03  0.4441E-03  0.7368E-03  0.7357E-03  0.4452E-03  0.4441E-03  0.0000E+00  0.0000E+00  0.0000E+00  0.0000E+00  0.0000E+00  0.0000E+00  0.0000E+00  0.0000E+00  0.0000E+00  0.0000E+00
     -3.006  0.3765E-02  0.3769E-02  0.5344E-03  0.5316E-03  0.7852E-03  0.7849E-03  0.5344E-03  0.5316E-03  0.0000E+00  0.0000E+00  0.0000E+00  0.0000E+00  0.0000E+00  0.0000E+00  0.0000E+00  0.0000E+00  0.0000E+00  0.0000E+00
     -2.947  0.4013E-02  0.4019E-02  0.6539E-03  0.6514E-03  0.8164E-03  0.8162E-03  0.6539E-03  0.6514E-03  0.0000E+00  0.0000E+00  0.0000E+00  0.0000E+00  0.0000E+00  0.0000E+00  0.0000E+00  0.0000E+00  0.0000E+00  0.0000E+00
     -2.887  0.4014E-02  0.4025E-02  0.7236E-03  0.7228E-03  0.8808E-03  0.8782E-03  0.7236E-03  0.7228E-03  0.0000E+00  0.0000E+00  0.0000E+00  0.0000E+00  0.0000E+00  0.0000E+00  0.0000E+00  0.0000E+00  0.0000E+00  0.0000E+00
     -2.828  0.3925E-02  0.3933E-02  0.7541E-03  0.7538E-03  0.1070E-02  0.1065E-02  0.7541E-03  0.7538E-03  0.0000E+00  0.0000E+00  0.0000E+00  0.0000E+00  0.0000E+00  0.0000E+00  0.0000E+00  0.0000E+00  0.0000E+00  0.0000E+00
     -2.769  0.3790E-02  0.3803E-02  0.7587E-03  0.7595E-03  0.1281E-02  0.1277E-02  0.7587E-03  0.7595E-03  0.0000E+00  0.0000E+00  0.0000E+00  0.0000E+00  0.0000E+00  0.0000E+00  0.0000E+00  0.0000E+00  0.0000E+00  0.0000E+00
     -2.709  0.3540E-02  0.3551E-02  0.7522E-03  0.7519E-03  0.1412E-02  0.1410E-02  0.7522E-03  0.7519E-03  0.0000E+00  0.0000E+00  0.0000E+00  0.0000E+00  0.0000E+00  0.0000E+00  0.0000E+00  0.0000E+00  0.0000E+00  0.0000E+00
     -2.650  0.3496E-02  0.3504E-02  0.8188E-03  0.8169E-03  0.1530E-02  0.1529E-02  0.8188E-03  0.8169E-03  0.0000E+00  0.0000E+00  0.0000E+00  0.0000E+00  0.0000E+00  0.0000E+00  0.0000E+00  0.0000E+00  0.0000E+00  0.0000E+00
     -2.590  0.3381E-02  0.3397E-02  0.8876E-03  0.8865E-03  0.1506E-02  0.1511E-02  0.8876E-03  0.8865E-03  0.0000E+00  0.0000E+00  0.0000E+00  0.0000E+00  0.0000E+00  0.0000E+00  0.0000E+00  0.0000E+00  0.0000E+00  0.0000E+00
     -2.531  0.3195E-02  0.3203E-02  0.9774E-03  0.9739E-03  0.1450E-02  0.1450E-02  0.9774E-03  0.9739E-03  0.0000E+00  0.0000E+00  0.0000E+00  0.0000E+00  0.0000E+00  0.0000E+00  0.0000E+00  0.0000E+00  0.0000E+00  0.0000E+00
     -2.472  0.3306E-02  0.3308E-02  0.1151E-02  0.1147E-02  0.1649E-02  0.1644E-02  0.1151E-02  0.1147E-02  0.0000E+00  0.0000E+00  0.0000E+00  0.0000E+00  0.0000E+00  0.0000E+00  0.0000E+00  0.0000E+00  0.0000E+00  0.0000E+00
     -2.412  0.3376E-02  0.3387E-02  0.1284E-02  0.1283E-02  0.1793E-02  0.1795E-02  0.1284E-02  0.1283E-02  0.0000E+00  0.0000E+00  0.0000E+00  0.0000E+00  0.0000E+00  0.0000E+00  0.0000E+00  0.0000E+00  0.0000E+00  0.0000E+00
     -2.353  0.3176E-02  0.3191E-02  0.1332E-02  0.1332E-02  0.1685E-02  0.1691E-02  0.1332E-02  0.1332E-02  0.0000E+00  0.0000E+00  0.0000E+00  0.0000E+00  0.0000E+00  0.0000E+00  0.0000E+00  0.0000E+00  0.0000E+00  0.0000E+00
     -2.294  0.2943E-02  0.2957E-02  0.1389E-02  0.1388E-02  0.1615E-02  0.1617E-02  0.1389E-02  0.1388E-02  0.0000E+00  0.0000E+00  0.0000E+00  0.0000E+00  0.0000E+00  0.0000E+00  0.0000E+00  0.0000E+00  0.0000E+00  0.0000E+00
     -2.234  0.2661E-02  0.2678E-02  0.1439E-02  0.1439E-02  0.1603E-02  0.1606E-02  0.1439E-02  0.1439E-02  0.0000E+00  0.0000E+00  0.0000E+00  0.0000E+00  0.0000E+00  0.0000E+00  0.0000E+00  0.0000E+00  0.0000E+00  0.0000E+00
     -2.175  0.2324E-02  0.2336E-02  0.1473E-02  0.1471E-02  0.1613E-02  0.1612E-02  0.1473E-02  0.1471E-02  0.0000E+00  0.0000E+00  0.0000E+00  0.0000E+00  0.0000E+00  0.0000E+00  0.0000E+00  0.0000E+00  0.0000E+00  0.0000E+00
     -2.115  0.2270E-02  0.2274E-02  0.1688E-02  0.1680E-02  0.1817E-02  0.1812E-02  0.1688E-02  0.1680E-02  0.0000E+00  0.0000E+00  0.0000E+00  0.0000E+00  0.0000E+00  0.0000E+00  0.0000E+00  0.0000E+00  0.0000E+00  0.0000E+00
     -2.056  0.2229E-02  0.2239E-02  0.1934E-02  0.1930E-02  0.1927E-02  0.1932E-02  0.1934E-02  0.1930E-02  0.0000E+00  0.0000E+00  0.0000E+00  0.0000E+00  0.0000E+00  0.0000E+00  0.0000E+00  0.0000E+00  0.0000E+00  0.0000E+00
     -1.997  0.1975E-02  0.1989E-02  0.2024E-02  0.2025E-02  0.1783E-02  0.1791E-02  0.2024E-02  0.2025E-02  0.0000E+00  0.0000E+00  0.0000E+00  0.0000E+00  0.0000E+00  0.0000E+00  0.0000E+00  0.0000E+00  0.0000E+00  0.0000E+00
     -1.937  0.1646E-02  0.1661E-02  0.1916E-02  0.1924E-02  0.1599E-02  0.1608E-02  0.1916E-02  0.1924E-02  0.0000E+00  0.0000E+00  0.0000E+00  0.0000E+00  0.0000E+00  0.0000E+00  0.0000E+00  0.0000E+00  0.0000E+00  0.0000E+00