   8   8   1   0
  0.1195236E+02  0.3629426E-09  0.3629426E-09  0.7258852E-09  0.5000000E-15
  1.000000000000000E-004
  CAR 
 unknown system                          
     20.41158542     -3.49903498  301      9.33745481      1.00000000
     -3.499  0.0000E+00  0.0000E+00  0.0000E+00  0.0000E+00
     -3.419  0.0000E+00  0.0000E+00  0.0000E+00  0.0000E+00
     -3.340  0.0000E+00  0.0000E+00  0.0000E+00  0.0000E+00
     -3.260  0.0000E+00  0.0000E+00  0.0000E+00  0.0000E+00
     -3.180  0.0000E+00  0.0000E+00  0.0000E+00  0.0000E+00
     -3.101  0.0000E+00  0.0000E+00  0.0000E+00  0.0000E+00
     -3.021  0.0000E+00  0.0000E+00  0.0000E+00  0.0000E+00
     -2.941  0.0000E+00  0.0000E+00  0.0000E+00  0.0000E+00
     -2.861  0.1329E-05  0.1198E-05  0.1059E-06  0.9545E-07
     -2.782  0.1778E-04  0.1603E-04  0.1523E-05  0.1373E-05
     -2.702  0.1226E-03  0.1105E-03  0.1130E-04  0.1018E-04
     -2.622  0.5706E-03  0.5146E-03  0.5678E-04  0.5119E-04
     -2.543  0.2762E-02  0.2497E-02  0.2769E-03  0.2502E-03
     -2.463  0.1218E-01  0.1111E-01  0.1247E-02  0.1136E-02
     -2.383  0.4188E-01  0.3908E-01  0.4585E-02  0.4251E-02
     -2.304  0.9379E-01  0.9029E-01  0.1206E-01  0.1145E-01
     -2.224  0.1381E+00  0.1356E+00  0.2307E-01  0.2226E-01
     -2.144  0.1841E+00  0.1804E+00  0.3774E-01  0.3664E-01
     -2.064  0.2296E+00  0.2283E+00  0.5604E-01  0.5484E-01
     -1.985  0.2252E+00  0.2254E+00  0.7400E-01  0.7280E-01
     -1.905  0.2616E+00  0.2575E+00  0.9485E-01  0.9333E-01
     -1.825  0.3073E+00  0.3061E+00  0.1194E+00  0.1177E+00
     -1.746  0.3152E+00  0.3145E+00  0.1445E+00  0.1428E+00
     -1.666  0.3375E+00  0.3355E+00  0.1714E+00  0.1696E+00
     -1.586  0.3592E+00  0.3592E+00  0.2000E+00  0.1982E+00
     -1.506  0.3366E+00  0.3381E+00  0.2269E+00  0.2252E+00
     -1.427  0.3717E+00  0.3661E+00  0.2565E+00  0.2544E+00
     -1.347  0.4540E+00  0.4511E+00  0.2928E+00  0.2903E+00
     -1.267  0.4404E+00  0.4432E+00  0.3279E+00  0.3257E+00
     -1.188  0.4405E+00  0.4379E+00  0.3630E+00  0.3606E+00
     -1.108  0.4605E+00  0.4619E+00  0.3997E+00  0.3974E+00
     -1.028  0.4300E+00  0.4304E+00  0.4340E+00  0.4317E+00
     -0.949  0.4650E+00  0.4610E+00  0.4711E+00  0.4685E+00
     -0.869  0.5336E+00  0.5296E+00  0.5136E+00  0.5108E+00
     -0.789  0.5530E+00  0.5537E+00  0.5578E+00  0.5549E+00
     -0.709  0.5688E+00  0.5655E+00  0.6031E+00  0.6000E+00
     -0.630  0.6083E+00  0.6086E+00  0.6516E+00  0.6486E+00
     -0.550  0.5619E+00  0.5647E+00  0.6964E+00  0.6936E+00
     -0.470  0.6009E+00  0.5951E+00  0.7444E+00  0.7411E+00
     -0.391  0.6199E+00  0.6244E+00  0.7938E+00  0.7909E+00
     -0.311  0.5494E+00  0.5495E+00  0.8376E+00  0.8347E+00
     -0.231  0.6512E+00  0.6417E+00  0.8896E+00  0.8859E+00
     -0.152  0.7501E+00  0.7486E+00  0.9494E+00  0.9456E+00
     -0.072  0.6967E+00  0.7019E+00  0.1005E+01  0.1002E+01
      0.008  0.6660E+00  0.6644E+00  0.1058E+01  0.1055E+01
      0.088  0.6879E+00  0.6891E+00  0.1113E+01  0.1109E+01
      0.167  0.6105E+00  0.6157E+00  0.1162E+01  0.1159E+01
      0.247  0.6603E+00  0.6495E+00  0.1214E+01  0.1210E+01
      0.327  0.8053E+00  0.8022E+00  0.1279E+01  0.1274E+01
      0.406  0.7758E+00  0.7782E+00  0.1340E+01  0.1336E+01
      0.486  0.7360E+00  0.7415E+00  0.1399E+01  0.1396E+01
      0.566  0.5940E+00  0.6021E+00  0.1446E+01  0.1444E+01
      0.645  0.5860E+00  0.5811E+00  0.1493E+01  0.1490E+01
      0.725  0.6494E+00  0.6475E+00  0.1545E+01  0.1542E+01
      0.805  0.6173E+00  0.6233E+00  0.1594E+01  0.1591E+01
      0.885  0.4851E+00  0.4934E+00  0.1633E+01  0.1631E+01
      0.964  0.4076E+00  0.4096E+00  0.1666E+01  0.1663E+01
      1.044  0.3914E+00  0.3920E+00  0.1697E+01  0.1695E+01
      1.124  0.3930E+00  0.3915E+00  0.1728E+01  0.1726E+01
      1.203  0.4538E+00  0.4481E+00  0.1764E+01  0.1762E+01
      1.283  0.5262E+00  0.5228E+00  0.1806E+01  0.1803E+01
      1.363  0.5905E+00  0.5837E+00  0.1853E+01  0.1850E+01
      1.442  0.7212E+00  0.7146E+00  0.1911E+01  0.1907E+01
      1.522  0.7448E+00  0.7469E+00  0.1970E+01  0.1967E+01
      1.602  0.7520E+00  0.7472E+00  0.2030E+01  0.2026E+01
      1.682  0.8839E+00  0.8761E+00  0.2101E+01  0.2096E+01
      1.761  0.8961E+00  0.9011E+00  0.2172E+01  0.2168E+01
      1.841  0.8063E+00  0.8099E+00  0.2236E+01  0.2232E+01
      1.921  0.8408E+00  0.8337E+00  0.2304E+01  0.2299E+01
      2.000  0.9211E+00  0.9219E+00  0.2377E+01  0.2372E+01
      2.080  0.7958E+00  0.8068E+00  0.2441E+01  0.2437E+01
      2.160  0.6882E+00  0.6910E+00  0.2495E+01  0.2492E+01
      2.240  0.6970E+00  0.6933E+00  0.2551E+01  0.2547E+01
      2.319  0.7787E+00  0.7746E+00  0.2613E+01  0.2609E+01
      2.399  0.7807E+00  0.7831E+00  0.2675E+01  0.2672E+01
      2.479  0.7667E+00  0.7662E+00  0.2737E+01  0.2733E+01
      2.558  0.8022E+00  0.7991E+00  0.2801E+01  0.2796E+01
      2.638  0.8168E+00  0.8202E+00  0.2866E+01  0.2862E+01
      2.718  0.6811E+00  0.6914E+00  0.2920E+01  0.2917E+01
      2.797  0.5938E+00  0.5933E+00  0.2967E+01  0.2964E+01
      2.877  0.6847E+00  0.6770E+00  0.3022E+01  0.3018E+01
      2.957  0.7331E+00  0.7357E+00  0.3081E+01  0.3077E+01
      3.037  0.6468E+00  0.6529E+00  0.3132E+01  0.3129E+01
      3.116  0.5526E+00  0.5581E+00  0.3176E+01  0.3174E+01
      3.196  0.5379E+00  0.5318E+00  0.3219E+01  0.3216E+01
      3.276  0.8004E+00  0.7751E+00  0.3283E+01  0.3278E+01
      3.355  0.1206E+01  0.1186E+01  0.3379E+01  0.3372E+01
      3.435  0.1281E+01  0.1288E+01  0.3481E+01  0.3475E+01
      3.515  0.1109E+01  0.1121E+01  0.3570E+01  0.3564E+01
      3.594  0.9159E+00  0.9296E+00  0.3643E+01  0.3639E+01
      3.674  0.7359E+00  0.7438E+00  0.3702E+01  0.3698E+01
      3.754  0.7727E+00  0.7623E+00  0.3763E+01  0.3759E+01
      3.834  0.9618E+00  0.9526E+00  0.3840E+01  0.3835E+01
      3.913  0.9495E+00  0.9578E+00  0.3916E+01  0.3911E+01
      3.993  0.8095E+00  0.8141E+00  0.3980E+01  0.3976E+01
      4.073  0.8997E+00  0.8869E+00  0.4052E+01  0.4047E+01
      4.152  0.1066E+01  0.1061E+01  0.4137E+01  0.4131E+01
      4.232  0.1061E+01  0.1064E+01  0.4222E+01  0.4216E+01
      4.312  0.1096E+01  0.1090E+01  0.4309E+01  0.4303E+01
      4.391  0.1172E+01  0.1170E+01  0.4403E+01  0.4397E+01
      4.471  0.1139E+01  0.1143E+01  0.4493E+01  0.4488E+01
      4.551  0.1004E+01  0.1015E+01  0.4573E+01  0.4569E+01
      4.631  0.8786E+00  0.8817E+00  0.4644E+01  0.4639E+01
      4.710  0.9457E+00  0.9364E+00  0.4719E+01  0.4714E+01
      4.790  0.1058E+01  0.1056E+01  0.4803E+01  0.4798E+01
      4.870  0.9950E+00  0.1002E+01  0.4883E+01  0.4878E+01
      4.949  0.9312E+00  0.9315E+00  0.4957E+01  0.4952E+01
      5.029  0.9949E+00  0.9869E+00  0.5036E+01  0.5031E+01
      5.109  0.1208E+01  0.1191E+01  0.5133E+01  0.5126E+01
      5.188  0.1471E+01  0.1454E+01  0.5250E+01  0.5242E+01
      5.268  0.1632E+01  0.1629E+01  0.5380E+01  0.5372E+01
      5.348  0.1512E+01  0.1528E+01  0.5501E+01  0.5494E+01
      5.428  0.1240E+01  0.1258E+01  0.5600E+01  0.5594E+01
      5.507  0.1080E+01  0.1084E+01  0.5686E+01  0.5680E+01
      5.587  0.1073E+01  0.1076E+01  0.5771E+01  0.5766E+01
      5.667  0.9320E+00  0.9449E+00  0.5846E+01  0.5842E+01
      5.746  0.7748E+00  0.7794E+00  0.5908E+01  0.5904E+01
      5.826  0.7951E+00  0.7891E+00  0.5971E+01  0.5967E+01
      5.906  0.9669E+00  0.9502E+00  0.6048E+01  0.6043E+01
      5.986  0.1238E+01  0.1223E+01  0.6147E+01  0.6140E+01
      6.065  0.1293E+01  0.1299E+01  0.6250E+01  0.6244E+01
      6.145  0.1205E+01  0.1208E+01  0.6346E+01  0.6340E+01
      6.225  0.1204E+01  0.1206E+01  0.6442E+01  0.6436E+01
      6.304  0.1087E+01  0.1098E+01  0.6529E+01  0.6524E+01
      6.384  0.8924E+00  0.9042E+00  0.6600E+01  0.6596E+01
      6.464  0.7535E+00  0.7591E+00  0.6660E+01  0.6657E+01
      6.543  0.7976E+00  0.7881E+00  0.6724E+01  0.6720E+01
      6.623  0.9969E+00  0.9842E+00  0.6804E+01  0.6798E+01
      6.703  0.1232E+01  0.1214E+01  0.6902E+01  0.6895E+01
      6.783  0.1425E+01  0.1421E+01  0.7015E+01  0.7008E+01
      6.862  0.1354E+01  0.1360E+01  0.7123E+01  0.7117E+01
      6.942  0.1341E+01  0.1338E+01  0.7230E+01  0.7223E+01
      7.022  0.1337E+01  0.1342E+01  0.7337E+01  0.7331E+01
      7.101  0.1223E+01  0.1229E+01  0.7435E+01  0.7429E+01
      7.181  0.1182E+01  0.1181E+01  0.7529E+01  0.7523E+01
      7.261  0.1247E+01  0.1244E+01  0.7628E+01  0.7622E+01
      7.340  0.1232E+01  0.1238E+01  0.7727E+01  0.7721E+01
      7.420  0.1109E+01  0.1116E+01  0.7815E+01  0.7810E+01
      7.500  0.1073E+01  0.1073E+01  0.7901E+01  0.7895E+01
      7.580  0.1071E+01  0.1070E+01  0.7986E+01  0.7981E+01
      7.659  0.1099E+01  0.1097E+01  0.8074E+01  0.8068E+01
      7.739  0.1073E+01  0.1077E+01  0.8159E+01  0.8154E+01
      7.819  0.1037E+01  0.1038E+01  0.8242E+01  0.8237E+01
      7.898  0.1068E+01  0.1064E+01  0.8327E+01  0.8322E+01
      7.978  0.1108E+01  0.1109E+01  0.8416E+01  0.8410E+01
      8.058  0.9581E+00  0.9726E+00  0.8492E+01  0.8488E+01
      8.137  0.7372E+00  0.7461E+00  0.8551E+01  0.8547E+01
      8.217  0.7556E+00  0.7465E+00  0.8611E+01  0.8607E+01
      8.297  0.9457E+00  0.9313E+00  0.8687E+01  0.8681E+01
      8.377  0.1209E+01  0.1190E+01  0.8783E+01  0.8776E+01
      8.456  0.1422E+01  0.1417E+01  0.8897E+01  0.8889E+01
      8.536  0.1365E+01  0.1373E+01  0.9005E+01  0.8999E+01
      8.616  0.1246E+01  0.1253E+01  0.9105E+01  0.9099E+01
      8.695  0.1170E+01  0.1176E+01  0.9198E+01  0.9192E+01
      8.775  0.1060E+01  0.1065E+01  0.9283E+01  0.9277E+01
      8.855  0.1064E+01  0.1060E+01  0.9368E+01  0.9362E+01
      8.934  0.1078E+01  0.1080E+01  0.9454E+01  0.9448E+01
      9.014  0.1061E+01  0.1062E+01  0.9538E+01  0.9533E+01
      9.094  0.1134E+01  0.1126E+01  0.9629E+01  0.9623E+01
      9.174  0.1347E+01  0.1328E+01  0.9736E+01  0.9729E+01
      9.253  0.1626E+01  0.1612E+01  0.9866E+01  0.9857E+01
      9.333  0.1646E+01  0.1654E+01  0.9997E+01  0.9989E+01
      9.413  0.1410E+01  0.1428E+01  0.1011E+02  0.1010E+02
      9.492  0.1098E+01  0.1116E+01  0.1020E+02  0.1019E+02
      9.572  0.9948E+00  0.9880E+00  0.1028E+02  0.1027E+02
      9.652  0.1240E+01  0.1223E+01  0.1038E+02  0.1037E+02
      9.732  0.1360E+01  0.1360E+01  0.1048E+02  0.1048E+02
      9.811  0.1361E+01  0.1363E+01  0.1059E+02  0.1059E+02
      9.891  0.1286E+01  0.1292E+01  0.1070E+02  0.1069E+02
      9.971  0.1308E+01  0.1301E+01  0.1080E+02  0.1079E+02
     10.050  0.1377E+01  0.1374E+01  0.1091E+02  0.1090E+02
     10.130  0.1481E+01  0.1471E+01  0.1103E+02  0.1102E+02
     10.210  0.1552E+01  0.1553E+01  0.1115E+02  0.1114E+02
     10.289  0.1483E+01  0.1489E+01  0.1127E+02  0.1126E+02
     10.369  0.1422E+01  0.1424E+01  0.1138E+02  0.1138E+02
     10.449  0.1444E+01  0.1440E+01  0.1150E+02  0.1149E+02
     10.529  0.1456E+01  0.1460E+01  0.1161E+02  0.1161E+02
     10.608  0.1292E+01  0.1307E+01  0.1172E+02  0.1171E+02
     10.688  0.1089E+01  0.1099E+01  0.1180E+02  0.1180E+02
     10.768  0.1004E+01  0.1005E+01  0.1188E+02  0.1188E+02
     10.847  0.1107E+01  0.1095E+01  0.1197E+02  0.1197E+02
     10.927  0.1290E+01  0.1285E+01  0.1208E+02  0.1207E+02
     11.007  0.1189E+01  0.1203E+01  0.1217E+02  0.1216E+02
     11.086  0.9721E+00  0.9836E+00  0.1225E+02  0.1224E+02
     11.166  0.8156E+00  0.8229E+00  0.1231E+02  0.1231E+02
     11.246  0.7704E+00  0.7688E+00  0.1237E+02  0.1237E+02
     11.326  0.9007E+00  0.8858E+00  0.1245E+02  0.1244E+02
     11.405  0.1241E+01  0.1213E+01  0.1255E+02  0.1254E+02
     11.485  0.1567E+01  0.1553E+01  0.1267E+02  0.1266E+02
     11.565  0.1626E+01  0.1628E+01  0.1280E+02  0.1279E+02
     11.644  0.1573E+01  0.1578E+01  0.1293E+02  0.1292E+02
     11.724  0.1573E+01  0.1570E+01  0.1305E+02  0.1304E+02
     11.804  0.1573E+01  0.1576E+01  0.1318E+02  0.1317E+02
     11.883  0.1479E+01  0.1482E+01  0.1329E+02  0.1329E+02
     11.963  0.1459E+01  0.1460E+01  0.1341E+02  0.1340E+02
     12.043  0.1465E+01  0.1465E+01  0.1353E+02  0.1352E+02
     12.123  0.1484E+01  0.1484E+01  0.1365E+02  0.1364E+02
     12.202  0.1439E+01  0.1441E+01  0.1376E+02  0.1375E+02
     12.282  0.1421E+01  0.1420E+01  0.1387E+02  0.1387E+02
     12.362  0.1427E+01  0.1429E+01  0.1399E+02  0.1398E+02
     12.441  0.1374E+01  0.1379E+01  0.1410E+02  0.1409E+02
     12.521  0.1378E+01  0.1378E+01  0.1421E+02  0.1420E+02
     12.601  0.1403E+01  0.1400E+01  0.1432E+02  0.1431E+02
     12.680  0.1435E+01  0.1433E+01  0.1443E+02  0.1443E+02
     12.760  0.1448E+01  0.1448E+01  0.1455E+02  0.1454E+02
     12.840  0.1358E+01  0.1369E+01  0.1466E+02  0.1465E+02
     12.920  0.1185E+01  0.1197E+01  0.1475E+02  0.1475E+02
     12.999  0.1069E+01  0.1068E+01  0.1484E+02  0.1483E+02
     13.079  0.1282E+01  0.1256E+01  0.1494E+02  0.1493E+02
     13.159  0.1631E+01  0.1617E+01  0.1507E+02  0.1506E+02
     13.238  0.1650E+01  0.1658E+01  0.1520E+02  0.1519E+02
     13.318  0.1567E+01  0.1568E+01  0.1533E+02  0.1532E+02
     13.398  0.1632E+01  0.1626E+01  0.1546E+02  0.1545E+02
     13.478  0.1722E+01  0.1718E+01  0.1559E+02  0.1558E+02
     13.557  0.1607E+01  0.1625E+01  0.1572E+02  0.1571E+02
     13.637  0.1278E+01  0.1297E+01  0.1582E+02  0.1582E+02
     13.717  0.1149E+01  0.1152E+01  0.1592E+02  0.1591E+02
     13.796  0.1189E+01  0.1183E+01  0.1601E+02  0.1600E+02
     13.876  0.1291E+01  0.1282E+01  0.1611E+02  0.1611E+02
     13.956  0.1409E+01  0.1401E+01  0.1623E+02  0.1622E+02
     14.035  0.1465E+01  0.1464E+01  0.1634E+02  0.1634E+02
     14.115  0.1424E+01  0.1429E+01  0.1646E+02  0.1645E+02
     14.195  0.1337E+01  0.1340E+01  0.1656E+02  0.1656E+02
     14.275  0.1374E+01  0.1369E+01  0.1667E+02  0.1667E+02
     14.354  0.1415E+01  0.1420E+01  0.1679E+02  0.1678E+02
     14.434  0.1255E+01  0.1272E+01  0.1689E+02  0.1688E+02
     14.514  0.1130E+01  0.1122E+01  0.1698E+02  0.1697E+02
     14.593  0.1437E+01  0.1407E+01  0.1709E+02  0.1708E+02
     14.673  0.1743E+01  0.1735E+01  0.1723E+02  0.1722E+02
     14.753  0.1641E+01  0.1656E+01  0.1736E+02  0.1735E+02
     14.832  0.1423E+01  0.1436E+01  0.1747E+02  0.1747E+02
     14.912  0.1183E+01  0.1197E+01  0.1757E+02  0.1756E+02
     14.992  0.1055E+01  0.1060E+01  0.1765E+02  0.1765E+02
     15.072  0.1060E+01  0.1057E+01  0.1774E+02  0.1773E+02
     15.151  0.1151E+01  0.1144E+01  0.1783E+02  0.1782E+02
     15.231  0.1291E+01  0.1279E+01  0.1793E+02  0.1792E+02
     15.311  0.1553E+01  0.1533E+01  0.1806E+02  0.1805E+02
     15.390  0.1755E+01  0.1749E+01  0.1820E+02  0.1819E+02
     15.470  0.1694E+01  0.1707E+01  0.1833E+02  0.1832E+02
     15.550  0.1458E+01  0.1478E+01  0.1845E+02  0.1844E+02
     15.629  0.1182E+01  0.1204E+01  0.1854E+02  0.1854E+02
     15.709  0.1005E+01  0.1021E+01  0.1862E+02  0.1862E+02
     15.789  0.9833E+00  0.9695E+00  0.1870E+02  0.1869E+02
     15.869  0.1095E+01  0.1063E+01  0.1879E+02  0.1878E+02
     15.948  0.1044E+01  0.1019E+01  0.1887E+02  0.1886E+02
     16.028  0.9761E+00  0.9629E+00  0.1895E+02  0.1894E+02
     16.108  0.9809E+00  0.9719E+00  0.1903E+02  0.1902E+02
     16.187  0.9769E+00  0.9908E+00  0.1910E+02  0.1909E+02
     16.267  0.9326E+00  0.9968E+00  0.1918E+02  0.1917E+02
     16.347  0.8167E+00  0.8460E+00  0.1924E+02  0.1924E+02
     16.426  0.7273E+00  0.6888E+00  0.1930E+02  0.1930E+02
     16.506  0.5923E+00  0.5947E+00  0.1935E+02  0.1934E+02
     16.586  0.4920E+00  0.5128E+00  0.1939E+02  0.1938E+02
     16.666  0.4960E+00  0.4990E+00  0.1943E+02  0.1942E+02
     16.745  0.5925E+00  0.5828E+00  0.1948E+02  0.1947E+02
     16.825  0.6179E+00  0.6204E+00  0.1952E+02  0.1952E+02
     16.905  0.5164E+00  0.5244E+00  0.1957E+02  0.1956E+02
     16.984  0.3846E+00  0.3993E+00  0.1960E+02  0.1959E+02
     17.064  0.2541E+00  0.2655E+00  0.1962E+02  0.1962E+02
     17.144  0.1947E+00  0.2007E+00  0.1963E+02  0.1963E+02
     17.224  0.1503E+00  0.1521E+00  0.1964E+02  0.1964E+02
     17.303  0.1737E+00  0.1678E+00  0.1966E+02  0.1966E+02
     17.383  0.2888E+00  0.2789E+00  0.1968E+02  0.1968E+02
     17.463  0.4051E+00  0.4054E+00  0.1971E+02  0.1971E+02
     17.542  0.3676E+00  0.3858E+00  0.1974E+02  0.1974E+02
     17.622  0.2865E+00  0.3023E+00  0.1977E+02  0.1977E+02
     17.702  0.2126E+00  0.2057E+00  0.1978E+02  0.1978E+02
     17.781  0.1953E+00  0.1829E+00  0.1980E+02  0.1980E+02
     17.861  0.2611E+00  0.2535E+00  0.1982E+02  0.1982E+02
     17.941  0.2716E+00  0.2768E+00  0.1984E+02  0.1984E+02
     18.021  0.1920E+00  0.2039E+00  0.1986E+02  0.1986E+02
     18.100  0.1960E+00  0.2097E+00  0.1987E+02  0.1987E+02
     18.180  0.2163E+00  0.2210E+00  0.1989E+02  0.1989E+02
     18.260  0.1554E+00  0.1477E+00  0.1990E+02  0.1990E+02
     18.339  0.1012E+00  0.1040E+00  0.1991E+02  0.1991E+02
     18.419  0.1207E+00  0.1487E+00  0.1992E+02  0.1992E+02
     18.499  0.1559E+00  0.1955E+00  0.1993E+02  0.1994E+02
     18.578  0.1964E+00  0.1798E+00  0.1995E+02  0.1995E+02
     18.658  0.1617E+00  0.1205E+00  0.1996E+02  0.1996E+02
     18.738  0.7303E-01  0.5614E-01  0.1997E+02  0.1997E+02
     18.818  0.4763E-01  0.4339E-01  0.1997E+02  0.1997E+02
     18.897  0.4593E-01  0.4435E-01  0.1997E+02  0.1997E+02
     18.977  0.6030E-01  0.5931E-01  0.1998E+02  0.1998E+02
     19.057  0.7246E-01  0.7323E-01  0.1998E+02  0.1998E+02
     19.136  0.5534E-01  0.5661E-01  0.1999E+02  0.1999E+02
     19.216  0.4624E-01  0.4538E-01  0.1999E+02  0.1999E+02
     19.296  0.3986E-01  0.3769E-01  0.2000E+02  0.2000E+02
     19.375  0.3535E-01  0.3582E-01  0.2000E+02  0.2000E+02
     19.455  0.1591E-01  0.1754E-01  0.2000E+02  0.2000E+02
     19.535  0.4136E-02  0.4731E-02  0.2000E+02  0.2000E+02
     19.615  0.8544E-03  0.9935E-03  0.2000E+02  0.2000E+02
     19.694  0.1757E-03  0.2047E-03  0.2000E+02  0.2000E+02
     19.774  0.0000E+00  0.0000E+00  0.2000E+02  0.2000E+02
     19.854  0.0000E+00  0.0000E+00  0.2000E+02  0.2000E+02
     19.933  0.0000E+00  0.0000E+00  0.2000E+02  0.2000E+02
     20.013  0.0000E+00  0.0000E+00  0.2000E+02  0.2000E+02
     20.093  0.0000E+00  0.0000E+00  0.2000E+02  0.2000E+02
     20.172  0.0000E+00  0.0000E+00  0.2000E+02  0.2000E+02
     20.252  0.0000E+00  0.0000E+00  0.2000E+02  0.2000E+02
     20.332  0.0000E+00  0.0000E+00  0.2000E+02  0.2000E+02
     20.412  0.0000E+00  0.0000E+00  0.2000E+02  0.2000E+02
     20.41158542     -3.49903498  301      9.33745481      1.00000000
     -3.499  0.0000E+00  0.0000E+00  0.0000E+00  0.0000E+00  0.0000E+00  0.0000E+00  0.0000E+00  0.0000E+00  0.0000E+00  0.0000E+00  0.0000E+00  0.0000E+00  0.0000E+00  0.0000E+00  0.0000E+00  0.0000E+00  0.0000E+00  0.0000E+00
     -3.419  0.0000E+00  0.0000E+00  0.0000E+00  0.0000E+00  0.0000E+00  0.0000E+00  0.0000E+00  0.0000E+00  0.0000E+00  0.0000E+00  0.0000E+00  0.0000E+00  0.0000E+00  0.0000E+00  0.0000E+00  0.0000E+00  0.0000E+00  0.0000E+00
     -3.340  0.0000E+00  0.0000E+00  0.0000E+00  0.0000E+00  0.0000E+00  0.0000E+00  0.0000E+00  0.0000E+00  0.0000E+00  0.0000E+00  0.0000E+00  0.0000E+00  0.0000E+00  0.0000E+00  0.0000E+00  0.0000E+00  0.0000E+00  0.0000E+00
     -3.260  0.0000E+00  0.0000E+00  0.0000E+00  0.0000E+00  0.0000E+00  0.0000E+00  0.0000E+00  0.0000E+00  0.0000E+00  0.0000E+00  0.0000E+00  0.0000E+00  0.0000E+00  0.0000E+00  0.0000E+00  0.0000E+00  0.0000E+00  0.0000E+00
     -3.180  0.0000E+00  0.0000E+00  0.0000E+00  0.0000E+00  0.0000E+00  0.0000E+00  0.0000E+00  0.0000E+00  0.0000E+00  0.0000E+00  0.0000E+00  0.0000E+00  0.0000E+00  0.0000E+00  0.0000E+00  0.0000E+00  0.0000E+00  0.0000E+00
     -3.101  0.0000E+00  0.0000E+00  0.0000E+00  0.0000E+00  0.0000E+00  0.0000E+00  0.0000E+00  0.0000E+00  0.0000E+00  0.0000E+00  0.0000E+00  0.0000E+00  0.0000E+00  0.0000E+00  0.0000E+00  0.0000E+00  0.0000E+00  0.0000E+00
     -3.021  0.0000E+00  0.0000E+00  0.0000E+00  0.0000E+00  0.0000E+00  0.0000E+00  0.0000E+00  0.0000E+00  0.0000E+00  0.0000E+00  0.0000E+00  0.0000E+00  0.0000E+00  0.0000E+00  0.0000E+00  0.0000E+00  0.0000E+00  0.0000E+00
     -2.941  0.0000E+00  0.0000E+00  0.0000E+00  0.0000E+00  0.0000E+00  0.0000E+00  0.0000E+00  0.0000E+00  0.0000E+00  0.0000E+00  0.0000E+00  0.0000E+00  0.0000E+00  0.0000E+00  0.0000E+00  0.0000E+00  0.0000E+00  0.0000E+00
     -2.861  0.2721E-07  0.2455E-07  0.1762E-22  0.3447E-20  0.1414E-19  0.3399E-19  0.1762E-22  0.3447E-20  0.0000E+00  0.0000E+00  0.0000E+00  0.0000E+00  0.0000E+00  0.0000E+00  0.0000E+00  0.0000E+00  0.0000E+00  0.0000E+00
     -2.782  0.3607E-06  0.3254E-06  0.1112E-08  0.1002E-08  0.1437E-08  0.1295E-08  0.1112E-08  0.1002E-08  0.0000E+00  0.0000E+00  0.0000E+00  0.0000E+00  0.0000E+00  0.0000E+00  0.0000E+00  0.0000E+00  0.0000E+00  0.0000E+00
     -2.702  0.2470E-05  0.2228E-05  0.1392E-07  0.1255E-07  0.1650E-07  0.1487E-07  0.1392E-07  0.1255E-07  0.0000E+00  0.0000E+00  0.0000E+00  0.0000E+00  0.0000E+00  0.0000E+00  0.0000E+00  0.0000E+00  0.0000E+00  0.0000E+00
     -2.622  0.1149E-04  0.1037E-04  0.6267E-07  0.5649E-07  0.8538E-07  0.7696E-07  0.6267E-07  0.5649E-07  0.0000E+00  0.0000E+00  0.0000E+00  0.0000E+00  0.0000E+00  0.0000E+00  0.0000E+00  0.0000E+00  0.0000E+00  0.0000E+00
     -2.543  0.5556E-04  0.5027E-04  0.3249E-06  0.2932E-06  0.4177E-06  0.3770E-06  0.3249E-06  0.2932E-06  0.0000E+00  0.0000E+00  0.0000E+00  0.0000E+00  0.0000E+00  0.0000E+00  0.0000E+00  0.0000E+00  0.0000E+00  0.0000E+00
     -2.463  0.2447E-03  0.2235E-03  0.1540E-05  0.1396E-05  0.1949E-05  0.1767E-05  0.1540E-05  0.1396E-05  0.0000E+00  0.0000E+00  0.0000E+00  0.0000E+00  0.0000E+00  0.0000E+00  0.0000E+00  0.0000E+00  0.0000E+00  0.0000E+00
     -2.383  0.8385E-03  0.7833E-03  0.6290E-05  0.5784E-05  0.7898E-05  0.7254E-05  0.6290E-05  0.5784E-05  0.0000E+00  0.0000E+00  0.0000E+00  0.0000E+00  0.0000E+00  0.0000E+00  0.0000E+00  0.0000E+00  0.0000E+00  0.0000E+00
     -2.304  0.1864E-02  0.1797E-02  0.1850E-04  0.1746E-04  0.2342E-04  0.2206E-04  0.1850E-04  0.1746E-04  0.0000E+00  0.0000E+00  0.0000E+00  0.0000E+00  0.0000E+00  0.0000E+00  0.0000E+00  0.0000E+00  0.0000E+00  0.0000E+00
     -2.224  0.2708E-02  0.2663E-02  0.3833E-04  0.3674E-04  0.5148E-04  0.4920E-04  0.3833E-04  0.3674E-04  0.0000E+00  0.0000E+00  0.0000E+00  0.0000E+00  0.0000E+00  0.0000E+00  0.0000E+00  0.0000E+00  0.0000E+00  0.0000E+00
     -2.144  0.3544E-02  0.3477E-02  0.7354E-04  0.7055E-04  0.9444E-04  0.9137E-04  0.7354E-04  0.7055E-04  0.0000E+00  0.0000E+00  0.0000E+00  0.0000E+00  0.0000E+00  0.0000E+00  0.0000E+00  0.0000E+00  0.0000E+00  0.0000E+00
     -2.064  0.4357E-02  0.4337E-02  0.1170E-03  0.1149E-03  0.1352E-03  0.1330E-03  0.1170E-03  0.1149E-03  0.0000E+00  0.0000E+00  0.0000E+00  0.0000E+00  0.0000E+00  0.0000E+00  0.0000E+00  0.0000E+00  0.0000E+00  0.0000E+00
     -1.985  0.4187E-02  0.4198E-02  0.1347E-03  0.1334E-03  0.1809E-03  0.1761E-03  0.1347E-03  0.1334E-03  0.0000E+00  0.0000E+00  0.0000E+00  0.0000E+00  0.0000E+00  0.0000E+00  0.0000E+00  0.0000E+00  0.0000E+00  0.0000E+00
     -1.905  0.4732E-02  0.4666E-02  0.1851E-03  0.1799E-03  0.2833E-03  0.2763E-03  0.1851E-03  0.1799E-03  0.0000E+00  0.0000E+00  0.0000E+00  0.0000E+00  0.0000E+00  0.0000E+00  0.0000E+00  0.0000E+00  0.0000E+00  0.0000E+00
     -1.825  0.5470E-02  0.5454E-02  0.2662E-03  0.2612E-03  0.3333E-03  0.3330E-03  0.2662E-03  0.2612E-03  0.0000E+00  0.0000E+00  0.0000E+00  0.0000E+00  0.0000E+00  0.0000E+00  0.0000E+00  0.0000E+00  0.0000E+00  0.0000E+00
     -1.746  0.5504E-02  0.5503E-02  0.3253E-03  0.3221E-03  0.3498E-03  0.3451E-03  0.3253E-03  0.3221E-03  0.0000E+00  0.0000E+00  0.0000E+00  0.0000E+00  0.0000E+00  0.0000E+00  0.0000E+00  0.0000E+00  0.0000E+00  0.0000E+00
     -1.666  0.5742E-02  0.5719E-02  0.3677E-03  0.3644E-03  0.4829E-03  0.4723E-03  0.3677E-03  0.3644E-03  0.0000E+00  0.0000E+00  0.0000E+00  0.0000E+00  0.0000E+00  0.0000E+00  0.0000E+00  0.0000E+00  0.0000E+00  0.0000E+00
     -1.586  0.5967E-02  0.5977E-02  0.4167E-03  0.4146E-03  0.6007E-03  0.5957E-03  0.4167E-03  0.4146E-03  0.0000E+00  0.0000E+00  0.0000E+00  0.0000E+00  0.0000E+00  0.0000E+00  0.0000E+00  0.0000E+00  0.0000E+00  0.0000E+00
     -1.506  0.5441E-02  0.5478E-02  0.4166E-03  0.4158E-03  0.6548E-03  0.6512E-03  0.4166E-03  0.4158E-03  0.0000E+00  0.0000E+00  0.0000E+00  0.0000E+00  0.0000E+00  0.0000E+00  0.0000E+00  0.0000E+00  0.0000E+00  0.0000E+00
     -1.427  0.5840E-02  0.5760E-02  0.5363E-03  0.5222E-03  0.7474E-03  0.7384E-03  0.5363E-03  0.5222E-03  0.0000E+00  0.0000E+00  0.0000E+00  0.0000E+00  0.0000E+00  0.0000E+00  0.0000E+00  0.0000E+00  0.0000E+00  0.0000E+00
     -1.347  0.7000E-02  0.6962E-02  0.7345E-03  0.7260E-03  0.8972E-03  0.8896E-03  0.7345E-03  0.7260E-03  0.0000E+00  0.0000E+00  0.0000E+00  0.0000E+00  0.0000E+00  0.0000E+00  0.0000E+00  0.0000E+00  0.0000E+00  0.0000E+00
     -1.267  0.6650E-02  0.6701E-02  0.7682E-03  0.7681E-03  0.8989E-03  0.9025E-03  0.7682E-03  0.7681E-03  0.0000E+00  0.0000E+00  0.0000E+00  0.0000E+00  0.0000E+00  0.0000E+00  0.0000E+00  0.0000E+00  0.0000E+00  0.0000E+00
     -1.188  0.6440E-02  0.6415E-02  0.8234E-03  0.8173E-03  0.9884E-03  0.9711E-03  0.8234E-03  0.8173E-03  0.0000E+00  0.0000E+00  0.0000E+00  0.0000E+00  0.0000E+00  0.0000E+00  0.0000E+00  0.0000E+00  0.0000E+00  0.0000E+00
     -1.108  0.6473E-02  0.6508E-02  0.8248E-03  0.8309E-03  0.1315E-02  0.1297E-02  0.8248E-03  0.8309E-03  0.0000E+00  0.0000E+00  0.0000E+00  0.0000E+00  0.0000E+00  0.0000E+00  0.0000E+00  0.0000E+00  0.0000E+00  0.0000E+00
     -1.028  0.5788E-02  0.5806E-02  0.7599E-03  0.7573E-03  0.1463E-02  0.1458E-02  0.7599E-03  0.7573E-03  0.0000E+00  0.0000E+00  0.0000E+00  0.0000E+00  0.0000E+00  0.0000E+00  0.0000E+00  0.0000E+00  0.0000E+00  0.0000E+00
     -0.949  0.6074E-02  0.6026E-02  0.9331E-03  0.9160E-03  0.1555E-02  0.1549E-02  0.9331E-03  0.9160E-03  0.0000E+00  0.0000E+00  0.0000E+00  0.0000E+00  0.0000E+00  0.0000E+00  0.0000E+00  0.0000E+00  0.0000E+00  0.0000E+00
     -0.869  0.6851E-02  0.6800E-02  0.1246E-02  0.1225E-02  0.1586E-02  0.1589E-02  0.1246E-02  0.1225E-02  0.0000E+00  0.0000E+00  0.0000E+00  0.0000E+00  0.0000E+00  0.0000E+00  0.0000E+00  0.0000E+00  0.0000E+00  0.0000E+00
     -0.789  0.6903E-02  0.6928E-02  0.1414E-02  0.1412E-02  0.1593E-02  0.1584E-02  0.1414E-02  0.1412E-02  0.0000E+00  0.0000E+00  0.0000E+00  0.0000E+00  0.0000E+00  0.0000E+00  0.0000E+00  0.0000E+00  0.0000E+00  0.0000E+00
     -0.709  0.6614E-02  0.6603E-02  0.1440E-02  0.1435E-02  0.2043E-02  0.2002E-02  0.1440E-02  0.1435E-02  0.0000E+00  0.0000E+00  0.0000E+00  0.0000E+00  0.0000E+00  0.0000E+00  0.0000E+00  0.0000E+00  0.0000E+00  0.0000E+00
     -0.630  0.6656E-02  0.6678E-02  0.1496E-02  0.1500E-02  0.2587E-02  0.2566E-02  0.1496E-02  0.1500E-02  0.0000E+00  0.0000E+00  0.0000E+00  0.0000E+00  0.0000E+00  0.0000E+00  0.0000E+00  0.0000E+00  0.0000E+00  0.0000E+00
     -0.550  0.5773E-02  0.5828E-02  0.1341E-02  0.1349E-02  0.2748E-02  0.2739E-02  0.1341E-02  0.1349E-02  0.0000E+00  0.0000E+00  0.0000E+00  0.0000E+00  0.0000E+00  0.0000E+00  0.0000E+00  0.0000E+00  0.0000E+00  0.0000E+00
     -0.470  0.5799E-02  0.5751E-02  0.1494E-02  0.1472E-02  0.3122E-02  0.3094E-02  0.1494E-02  0.1472E-02  0.0000E+00  0.0000E+00  0.0000E+00  0.0000E+00  0.0000E+00  0.0000E+00  0.0000E+00  0.0000E+00  0.0000E+00  0.0000E+00
     -0.391  0.5908E-02  0.5948E-02  0.1668E-02  0.1670E-02  0.3068E-02  0.3108E-02  0.1668E-02  0.1670E-02  0.0000E+00  0.0000E+00  0.0000E+00  0.0000E+00  0.0000E+00  0.0000E+00  0.0000E+00  0.0000E+00  0.0000E+00  0.0000E+00
     -0.311  0.5074E-02  0.5093E-02  0.1684E-02  0.1670E-02  0.2497E-02  0.2503E-02  0.1684E-02  0.1670E-02  0.0000E+00  0.0000E+00  0.0000E+00  0.0000E+00  0.0000E+00  0.0000E+00  0.0000E+00  0.0000E+00  0.0000E+00  0.0000E+00
     -0.231  0.5492E-02  0.5437E-02  0.2124E-02  0.2090E-02  0.3137E-02  0.3074E-02  0.2124E-02  0.2090E-02  0.0000E+00  0.0000E+00  0.0000E+00  0.0000E+00  0.0000E+00  0.0000E+00  0.0000E+00  0.0000E+00  0.0000E+00  0.0000E+00
     -0.152  0.6019E-02  0.6015E-02  0.2514E-02  0.2502E-02  0.3755E-02  0.3750E-02  0.2514E-02  0.2502E-02  0.0000E+00  0.0000E+00  0.0000E+00  0.0000E+00  0.0000E+00  0.0000E+00  0.0000E+00  0.0000E+00  0.0000E+00  0.0000E+00
     -0.072  0.5493E-02  0.5542E-02  0.2504E-02  0.2509E-02  0.3304E-02  0.3345E-02  0.2504E-02  0.2509E-02  0.0000E+00  0.0000E+00  0.0000E+00  0.0000E+00  0.0000E+00  0.0000E+00  0.0000E+00  0.0000E+00  0.0000E+00  0.0000E+00
      0.008  0.4998E-02  0.5007E-02  0.2553E-02  0.2540E-02  0.3075E-02  0.3064E-02  0.2553E-02  0.2540E-02  0.0000E+00  0.0000E+00  0.0000E+00  0.0000E+00  0.0000E+00  0.0000E+00  0.0000E+00  0.0000E+00  0.0000E+00  0.0000E+00
      0.088  0.4797E-02  0.4825E-02  0.2778E-02  0.2770E-02  0.3211E-02  0.3221E-02  0.2778E-02  0.2770E-02  0.0000E+00  0.0000E+00  0.0000E+00  0.0000E+00  0.0000E+00  0.0000E+00  0.0000E+00  0.0000E+00  0.0000E+00  0.0000E+00
      0.167  0.3881E-02  0.3943E-02  0.2619E-02  0.2635E-02  0.2883E-02  0.2894E-02  0.2619E-02  0.2635E-02  0.0000E+00  0.0000E+00  0.0000E+00  0.0000E+00  0.0000E+00  0.0000E+00  0.0000E+00  0.0000E+00  0.0000E+00  0.0000E+00
      0.247  0.3689E-02  0.3651E-02  0.2893E-02  0.2841E-02  0.3403E-02  0.3336E-02  0.2893E-02  0.2841E-02  0.0000E+00  0.0000E+00  0.0000E+00  0.0000E+00  0.0000E+00  0.0000E+00  0.0000E+00  0.0000E+00  0.0000E+00  0.0000E+00
      0.327  0.4120E-02  0.4125E-02  0.3700E-02  0.3668E-02  0.4147E-02  0.4143E-02  0.3700E-02  0.3668E-02  0.0000E+00  0.0000E+00  0.0000E+00  0.0000E+00  0.0000E+00  0.0000E+00  0.0000E+00  0.0000E+00  0.0000E+00  0.0000E+00
      0.406  0.3587E-02  0.3622E-02  0.3941E-02  0.3927E-02  0.3651E-02  0.3689E-02  0.3941E-02  0.3927E-02  0.0000E+00  0.0000E+00  0.0000E+00  0.0000E+00  0.0000E+00  0.0000E+00  0.0000E+00  0.0000E+00  0.0000E+00  0.0000E+00
      0.486  0.3052E-02  0.3093E-02  0.3966E-02  0.3992E-02  0.3324E-02  0.3344E-02  0.3966E-02  0.3992E-02  0.0000E+00  0.0000E+00  0.0000E+00  0.0000E+00  0.0000E+00  0.0000E+00  0.0000E+00  0.0000E+00  0.0000E+00  0.0000E+00