   8   8   1   0
  0.1318788E+02  0.3750407E-09  0.3750407E-09  0.7500813E-09  0.5000000E-15
  1.000000000000000E-004
  CAR 
 unknown system                          
     18.72979081     -3.87435837  301      8.27524146      1.00000000
     -3.874  0.0000E+00  0.0000E+00  0.0000E+00  0.0000E+00
     -3.799  0.0000E+00  0.0000E+00  0.0000E+00  0.0000E+00
     -3.724  0.0000E+00  0.0000E+00  0.0000E+00  0.0000E+00
     -3.648  0.0000E+00  0.0000E+00  0.0000E+00  0.0000E+00
     -3.573  0.0000E+00  0.0000E+00  0.0000E+00  0.0000E+00
     -3.498  0.0000E+00  0.0000E+00  0.0000E+00  0.0000E+00
     -3.422  0.0000E+00  0.0000E+00  0.0000E+00  0.0000E+00
     -3.347  0.0000E+00  0.0000E+00  0.0000E+00  0.0000E+00
     -3.272  0.4073E-05  0.2133E-05  0.3069E-06  0.1607E-06
     -3.196  0.4189E-04  0.4056E-04  0.3463E-05  0.3217E-05
     -3.121  0.1779E-03  0.1653E-03  0.1687E-04  0.1567E-04
     -3.046  0.8085E-03  0.7451E-03  0.7779E-04  0.7181E-04
     -2.970  0.3578E-02  0.3338E-02  0.3474E-03  0.3233E-03
     -2.895  0.1436E-01  0.1347E-01  0.1429E-02  0.1338E-02
     -2.819  0.4589E-01  0.4371E-01  0.4887E-02  0.4631E-02
     -2.744  0.9900E-01  0.9630E-01  0.1235E-01  0.1189E-01
     -2.669  0.1462E+00  0.1442E+00  0.2336E-01  0.2275E-01
     -2.593  0.1949E+00  0.1921E+00  0.3805E-01  0.3722E-01
     -2.518  0.2400E+00  0.2390E+00  0.5613E-01  0.5523E-01
     -2.443  0.2407E+00  0.2405E+00  0.7427E-01  0.7336E-01
     -2.367  0.2777E+00  0.2747E+00  0.9519E-01  0.9406E-01
     -2.292  0.3235E+00  0.3223E+00  0.1196E+00  0.1184E+00
     -2.217  0.3343E+00  0.3338E+00  0.1448E+00  0.1435E+00
     -2.141  0.3568E+00  0.3554E+00  0.1717E+00  0.1703E+00
     -2.066  0.3773E+00  0.3773E+00  0.2001E+00  0.1987E+00
     -1.991  0.3598E+00  0.3604E+00  0.2272E+00  0.2259E+00
     -1.915  0.3972E+00  0.3931E+00  0.2572E+00  0.2555E+00
     -1.840  0.4751E+00  0.4730E+00  0.2930E+00  0.2912E+00
     -1.765  0.4664E+00  0.4680E+00  0.3281E+00  0.3265E+00
     -1.689  0.4667E+00  0.4651E+00  0.3633E+00  0.3615E+00
     -1.614  0.4826E+00  0.4835E+00  0.3997E+00  0.3980E+00
     -1.539  0.4589E+00  0.4590E+00  0.4343E+00  0.4326E+00
     -1.463  0.4954E+00  0.4923E+00  0.4717E+00  0.4697E+00
     -1.388  0.5634E+00  0.5605E+00  0.5141E+00  0.5120E+00
     -1.313  0.5835E+00  0.5838E+00  0.5581E+00  0.5560E+00
     -1.237  0.6002E+00  0.5978E+00  0.6034E+00  0.6011E+00
     -1.162  0.6364E+00  0.6366E+00  0.6513E+00  0.6490E+00
     -1.087  0.5980E+00  0.5995E+00  0.6964E+00  0.6942E+00
     -1.011  0.6348E+00  0.6308E+00  0.7443E+00  0.7418E+00
     -0.936  0.6528E+00  0.6559E+00  0.7935E+00  0.7913E+00
     -0.860  0.5924E+00  0.5923E+00  0.8382E+00  0.8359E+00
     -0.785  0.6871E+00  0.6799E+00  0.8900E+00  0.8872E+00
     -0.710  0.7848E+00  0.7834E+00  0.9491E+00  0.9462E+00
     -0.634  0.7401E+00  0.7436E+00  0.1005E+01  0.1002E+01
     -0.559  0.7076E+00  0.7067E+00  0.1058E+01  0.1056E+01
     -0.484  0.7222E+00  0.7233E+00  0.1113E+01  0.1110E+01
     -0.408  0.6528E+00  0.6562E+00  0.1162E+01  0.1160E+01
     -0.333  0.7043E+00  0.6963E+00  0.1215E+01  0.1212E+01
     -0.258  0.8415E+00  0.8386E+00  0.1279E+01  0.1275E+01
     -0.182  0.8213E+00  0.8230E+00  0.1340E+01  0.1337E+01
     -0.107  0.7716E+00  0.7765E+00  0.1399E+01  0.1396E+01
     -0.032  0.6379E+00  0.6436E+00  0.1447E+01  0.1445E+01
      0.044  0.6280E+00  0.6248E+00  0.1494E+01  0.1492E+01
      0.119  0.6817E+00  0.6810E+00  0.1546E+01  0.1543E+01
      0.194  0.6461E+00  0.6507E+00  0.1594E+01  0.1592E+01
      0.270  0.5165E+00  0.5228E+00  0.1633E+01  0.1632E+01
      0.345  0.4374E+00  0.4392E+00  0.1666E+01  0.1665E+01
      0.420  0.4171E+00  0.4179E+00  0.1698E+01  0.1696E+01
      0.496  0.4214E+00  0.4202E+00  0.1730E+01  0.1728E+01
      0.571  0.4870E+00  0.4823E+00  0.1766E+01  0.1764E+01
      0.646  0.5628E+00  0.5598E+00  0.1809E+01  0.1806E+01
      0.722  0.6392E+00  0.6335E+00  0.1857E+01  0.1854E+01
      0.797  0.7632E+00  0.7591E+00  0.1914E+01  0.1911E+01
      0.873  0.7828E+00  0.7843E+00  0.1973E+01  0.1971E+01
      0.948  0.8008E+00  0.7968E+00  0.2034E+01  0.2031E+01
      1.023  0.9285E+00  0.9230E+00  0.2104E+01  0.2100E+01
      1.099  0.9393E+00  0.9427E+00  0.2175E+01  0.2171E+01
      1.174  0.8562E+00  0.8584E+00  0.2239E+01  0.2236E+01
      1.249  0.8959E+00  0.8908E+00  0.2307E+01  0.2303E+01
      1.325  0.9589E+00  0.9605E+00  0.2379E+01  0.2376E+01
      1.400  0.8328E+00  0.8408E+00  0.2442E+01  0.2439E+01
      1.475  0.7298E+00  0.7319E+00  0.2497E+01  0.2494E+01
      1.551  0.7426E+00  0.7397E+00  0.2553E+01  0.2550E+01
      1.626  0.8192E+00  0.8162E+00  0.2615E+01  0.2611E+01
      1.701  0.8235E+00  0.8248E+00  0.2677E+01  0.2674E+01
      1.777  0.8097E+00  0.8092E+00  0.2738E+01  0.2735E+01
      1.852  0.8454E+00  0.8429E+00  0.2802E+01  0.2798E+01
      1.927  0.8533E+00  0.8565E+00  0.2866E+01  0.2863E+01
      2.003  0.7158E+00  0.7240E+00  0.2920E+01  0.2917E+01
      2.078  0.6352E+00  0.6347E+00  0.2968E+01  0.2965E+01
      2.153  0.7183E+00  0.7130E+00  0.3022E+01  0.3019E+01
      2.229  0.7613E+00  0.7630E+00  0.3079E+01  0.3077E+01
      2.304  0.6860E+00  0.6904E+00  0.3131E+01  0.3129E+01
      2.379  0.5869E+00  0.5913E+00  0.3175E+01  0.3173E+01
      2.455  0.5722E+00  0.5675E+00  0.3218E+01  0.3216E+01
      2.530  0.8269E+00  0.8088E+00  0.3281E+01  0.3277E+01
      2.605  0.1225E+01  0.1211E+01  0.3373E+01  0.3368E+01
      2.681  0.1325E+01  0.1330E+01  0.3473E+01  0.3469E+01
      2.756  0.1162E+01  0.1171E+01  0.3561E+01  0.3557E+01
      2.832  0.9740E+00  0.9833E+00  0.3634E+01  0.3631E+01
      2.907  0.7924E+00  0.7983E+00  0.3694E+01  0.3691E+01
      2.982  0.7885E+00  0.7825E+00  0.3753E+01  0.3750E+01
      3.058  0.9769E+00  0.9690E+00  0.3827E+01  0.3823E+01
      3.133  0.1005E+01  0.1010E+01  0.3903E+01  0.3899E+01
      3.208  0.8757E+00  0.8791E+00  0.3969E+01  0.3966E+01
      3.284  0.9409E+00  0.9320E+00  0.4040E+01  0.4036E+01
      3.359  0.1109E+01  0.1105E+01  0.4123E+01  0.4119E+01
      3.434  0.1111E+01  0.1114E+01  0.4207E+01  0.4203E+01
      3.510  0.1084E+01  0.1083E+01  0.4289E+01  0.4285E+01
      3.585  0.1128E+01  0.1126E+01  0.4374E+01  0.4370E+01
      3.660  0.1182E+01  0.1181E+01  0.4463E+01  0.4459E+01
      3.736  0.1112E+01  0.1120E+01  0.4547E+01  0.4543E+01
      3.811  0.9122E+00  0.9197E+00  0.4616E+01  0.4613E+01
      3.886  0.9047E+00  0.8996E+00  0.4684E+01  0.4681E+01
      3.962  0.1034E+01  0.1031E+01  0.4762E+01  0.4758E+01
      4.037  0.9910E+00  0.9959E+00  0.4837E+01  0.4834E+01
      4.112  0.9171E+00  0.9181E+00  0.4906E+01  0.4903E+01
      4.188  0.9613E+00  0.9570E+00  0.4978E+01  0.4975E+01
      4.263  0.1129E+01  0.1118E+01  0.5064E+01  0.5059E+01
      4.338  0.1476E+01  0.1458E+01  0.5175E+01  0.5169E+01
      4.414  0.1761E+01  0.1756E+01  0.5308E+01  0.5302E+01
      4.489  0.1674E+01  0.1683E+01  0.5434E+01  0.5428E+01
      4.565  0.1411E+01  0.1423E+01  0.5540E+01  0.5536E+01
      4.640  0.1171E+01  0.1179E+01  0.5628E+01  0.5625E+01
      4.715  0.1088E+01  0.1088E+01  0.5710E+01  0.5707E+01
      4.791  0.1097E+01  0.1098E+01  0.5793E+01  0.5790E+01
      4.866  0.9596E+00  0.9691E+00  0.5866E+01  0.5863E+01
      4.941  0.8040E+00  0.8062E+00  0.5926E+01  0.5924E+01
      5.017  0.8974E+00  0.8878E+00  0.5994E+01  0.5991E+01
      5.092  0.1203E+01  0.1189E+01  0.6085E+01  0.6080E+01
      5.167  0.1368E+01  0.1369E+01  0.6188E+01  0.6183E+01
      5.243  0.1321E+01  0.1321E+01  0.6287E+01  0.6283E+01
      5.318  0.1358E+01  0.1356E+01  0.6390E+01  0.6385E+01
      5.393  0.1275E+01  0.1285E+01  0.6486E+01  0.6482E+01
      5.469  0.9962E+00  0.1011E+01  0.6561E+01  0.6558E+01
      5.544  0.7746E+00  0.7800E+00  0.6620E+01  0.6617E+01
      5.619  0.7790E+00  0.7746E+00  0.6678E+01  0.6676E+01
      5.695  0.9716E+00  0.9587E+00  0.6752E+01  0.6748E+01
      5.770  0.1249E+01  0.1237E+01  0.6846E+01  0.6841E+01
      5.845  0.1504E+01  0.1491E+01  0.6959E+01  0.6954E+01
      5.921  0.1717E+01  0.1711E+01  0.7088E+01  0.7083E+01
      5.996  0.1661E+01  0.1669E+01  0.7214E+01  0.7208E+01
      6.071  0.1447E+01  0.1458E+01  0.7323E+01  0.7318E+01
      6.147  0.1222E+01  0.1231E+01  0.7415E+01  0.7411E+01
      6.222  0.1176E+01  0.1171E+01  0.7504E+01  0.7499E+01
      6.298  0.1343E+01  0.1337E+01  0.7605E+01  0.7600E+01
      6.373  0.1323E+01  0.1330E+01  0.7705E+01  0.7701E+01
      6.448  0.1130E+01  0.1138E+01  0.7790E+01  0.7786E+01
      6.524  0.1077E+01  0.1075E+01  0.7871E+01  0.7868E+01
      6.599  0.1157E+01  0.1156E+01  0.7958E+01  0.7955E+01
      6.674  0.1124E+01  0.1127E+01  0.8043E+01  0.8040E+01
      6.750  0.1129E+01  0.1125E+01  0.8128E+01  0.8124E+01
      6.825  0.1260E+01  0.1254E+01  0.8223E+01  0.8219E+01
      6.900  0.1306E+01  0.1307E+01  0.8322E+01  0.8318E+01
      6.976  0.1229E+01  0.1236E+01  0.8415E+01  0.8411E+01
      7.051  0.1020E+01  0.1031E+01  0.8491E+01  0.8488E+01
      7.126  0.8036E+00  0.8103E+00  0.8552E+01  0.8550E+01
      7.202  0.7705E+00  0.7650E+00  0.8610E+01  0.8607E+01
      7.277  0.1045E+01  0.1028E+01  0.8689E+01  0.8685E+01
      7.352  0.1374E+01  0.1363E+01  0.8793E+01  0.8788E+01
      7.428  0.1485E+01  0.1485E+01  0.8905E+01  0.8900E+01
      7.503  0.1403E+01  0.1410E+01  0.9010E+01  0.9006E+01
      7.578  0.1293E+01  0.1297E+01  0.9108E+01  0.9104E+01
      7.654  0.1215E+01  0.1220E+01  0.9199E+01  0.9196E+01
      7.729  0.1128E+01  0.1130E+01  0.9284E+01  0.9281E+01
      7.804  0.1078E+01  0.1081E+01  0.9366E+01  0.9362E+01
      7.880  0.1018E+01  0.1018E+01  0.9443E+01  0.9439E+01
      7.955  0.1074E+01  0.1070E+01  0.9524E+01  0.9520E+01
      8.030  0.1190E+01  0.1183E+01  0.9613E+01  0.9609E+01
      8.106  0.1418E+01  0.1406E+01  0.9720E+01  0.9715E+01
      8.181  0.1664E+01  0.1656E+01  0.9846E+01  0.9840E+01
      8.257  0.1695E+01  0.1702E+01  0.9973E+01  0.9968E+01
      8.332  0.1430E+01  0.1444E+01  0.1008E+02  0.1008E+02
      8.407  0.1141E+01  0.1151E+01  0.1017E+02  0.1016E+02
      8.483  0.9585E+00  0.9616E+00  0.1024E+02  0.1024E+02
      8.558  0.1081E+01  0.1067E+01  0.1032E+02  0.1032E+02
      8.633  0.1364E+01  0.1355E+01  0.1042E+02  0.1042E+02
      8.709  0.1441E+01  0.1441E+01  0.1053E+02  0.1053E+02
      8.784  0.1365E+01  0.1370E+01  0.1064E+02  0.1063E+02
      8.859  0.1334E+01  0.1333E+01  0.1074E+02  0.1073E+02
      8.935  0.1466E+01  0.1460E+01  0.1085E+02  0.1084E+02
      9.010  0.1559E+01  0.1556E+01  0.1096E+02  0.1096E+02
      9.085  0.1552E+01  0.1554E+01  0.1108E+02  0.1108E+02
      9.161  0.1477E+01  0.1480E+01  0.1119E+02  0.1119E+02
      9.236  0.1419E+01  0.1420E+01  0.1130E+02  0.1129E+02
      9.311  0.1454E+01  0.1450E+01  0.1141E+02  0.1140E+02
      9.387  0.1517E+01  0.1516E+01  0.1152E+02  0.1152E+02
      9.462  0.1463E+01  0.1469E+01  0.1163E+02  0.1163E+02
      9.537  0.1228E+01  0.1240E+01  0.1173E+02  0.1172E+02
      9.613  0.1103E+01  0.1102E+01  0.1181E+02  0.1181E+02
      9.688  0.1180E+01  0.1178E+01  0.1190E+02  0.1189E+02
      9.763  0.1274E+01  0.1269E+01  0.1199E+02  0.1199E+02
      9.839  0.1359E+01  0.1359E+01  0.1210E+02  0.1209E+02
      9.914  0.1250E+01  0.1256E+01  0.1219E+02  0.1219E+02
      9.990  0.1088E+01  0.1096E+01  0.1227E+02  0.1227E+02
     10.065  0.9403E+00  0.9434E+00  0.1234E+02  0.1234E+02
     10.140  0.9816E+00  0.9739E+00  0.1242E+02  0.1241E+02
     10.216  0.1156E+01  0.1147E+01  0.1251E+02  0.1250E+02
     10.291  0.1332E+01  0.1322E+01  0.1261E+02  0.1260E+02
     10.366  0.1576E+01  0.1565E+01  0.1273E+02  0.1272E+02
     10.442  0.1690E+01  0.1689E+01  0.1285E+02  0.1285E+02
     10.517  0.1726E+01  0.1722E+01  0.1298E+02  0.1298E+02
     10.592  0.1765E+01  0.1765E+01  0.1312E+02  0.1311E+02
     10.668  0.1639E+01  0.1649E+01  0.1324E+02  0.1323E+02
     10.743  0.1472E+01  0.1480E+01  0.1335E+02  0.1335E+02
     10.818  0.1401E+01  0.1402E+01  0.1346E+02  0.1345E+02
     10.894  0.1494E+01  0.1487E+01  0.1357E+02  0.1356E+02
     10.969  0.1655E+01  0.1648E+01  0.1369E+02  0.1369E+02
     11.044  0.1628E+01  0.1635E+01  0.1382E+02  0.1381E+02
     11.120  0.1461E+01  0.1466E+01  0.1393E+02  0.1392E+02
     11.195  0.1471E+01  0.1469E+01  0.1404E+02  0.1403E+02
     11.270  0.1508E+01  0.1508E+01  0.1415E+02  0.1415E+02
     11.346  0.1482E+01  0.1482E+01  0.1426E+02  0.1426E+02
     11.421  0.1492E+01  0.1490E+01  0.1438E+02  0.1437E+02
     11.496  0.1543E+01  0.1540E+01  0.1449E+02  0.1449E+02
     11.572  0.1518E+01  0.1527E+01  0.1461E+02  0.1460E+02
     11.647  0.1332E+01  0.1340E+01  0.1471E+02  0.1470E+02
     11.723  0.1274E+01  0.1272E+01  0.1480E+02  0.1480E+02
     11.798  0.1412E+01  0.1400E+01  0.1491E+02  0.1490E+02
     11.873  0.1699E+01  0.1686E+01  0.1504E+02  0.1503E+02
     11.949  0.1761E+01  0.1769E+01  0.1517E+02  0.1516E+02
     12.024  0.1497E+01  0.1509E+01  0.1528E+02  0.1528E+02
     12.099  0.1449E+01  0.1443E+01  0.1539E+02  0.1539E+02
     12.175  0.1693E+01  0.1680E+01  0.1552E+02  0.1551E+02
     12.250  0.1840E+01  0.1839E+01  0.1566E+02  0.1565E+02
     12.325  0.1649E+01  0.1663E+01  0.1578E+02  0.1578E+02
     12.401  0.1412E+01  0.1417E+01  0.1589E+02  0.1588E+02
     12.476  0.1447E+01  0.1443E+01  0.1600E+02  0.1599E+02
     12.551  0.1460E+01  0.1463E+01  0.1611E+02  0.1610E+02
     12.627  0.1393E+01  0.1393E+01  0.1621E+02  0.1621E+02
     12.702  0.1452E+01  0.1447E+01  0.1632E+02  0.1632E+02
     12.777  0.1520E+01  0.1521E+01  0.1644E+02  0.1643E+02
     12.853  0.1416E+01  0.1421E+01  0.1654E+02  0.1654E+02
     12.928  0.1397E+01  0.1395E+01  0.1665E+02  0.1664E+02
     13.003  0.1447E+01  0.1445E+01  0.1676E+02  0.1675E+02
     13.079  0.1527E+01  0.1522E+01  0.1687E+02  0.1687E+02
     13.154  0.1573E+01  0.1572E+01  0.1699E+02  0.1699E+02
     13.229  0.1590E+01  0.1587E+01  0.1711E+02  0.1711E+02
     13.305  0.1653E+01  0.1649E+01  0.1724E+02  0.1723E+02
     13.380  0.1684E+01  0.1688E+01  0.1736E+02  0.1736E+02
     13.455  0.1541E+01  0.1551E+01  0.1748E+02  0.1748E+02
     13.531  0.1347E+01  0.1355E+01  0.1758E+02  0.1758E+02
     13.606  0.1170E+01  0.1174E+01  0.1767E+02  0.1767E+02
     13.682  0.1111E+01  0.1112E+01  0.1775E+02  0.1775E+02
     13.757  0.1118E+01  0.1114E+01  0.1784E+02  0.1783E+02
     13.832  0.1389E+01  0.1366E+01  0.1794E+02  0.1794E+02
     13.908  0.1794E+01  0.1774E+01  0.1808E+02  0.1807E+02
     13.983  0.1927E+01  0.1925E+01  0.1822E+02  0.1822E+02
     14.058  0.1738E+01  0.1754E+01  0.1835E+02  0.1835E+02
     14.134  0.1419E+01  0.1435E+01  0.1846E+02  0.1846E+02
     14.209  0.1207E+01  0.1204E+01  0.1855E+02  0.1855E+02
     14.284  0.1222E+01  0.1209E+01  0.1864E+02  0.1864E+02
     14.360  0.1323E+01  0.1323E+01  0.1874E+02  0.1874E+02
     14.435  0.1246E+01  0.1264E+01  0.1884E+02  0.1883E+02
     14.510  0.1080E+01  0.1095E+01  0.1892E+02  0.1892E+02
     14.586  0.9431E+00  0.9491E+00  0.1899E+02  0.1899E+02
     14.661  0.8461E+00  0.8465E+00  0.1905E+02  0.1905E+02
     14.736  0.8461E+00  0.8330E+00  0.1912E+02  0.1911E+02
     14.812  0.9465E+00  0.9321E+00  0.1919E+02  0.1918E+02
     14.887  0.9262E+00  0.9247E+00  0.1926E+02  0.1925E+02
     14.962  0.8430E+00  0.8705E+00  0.1932E+02  0.1932E+02
     15.038  0.7114E+00  0.7468E+00  0.1938E+02  0.1938E+02
     15.113  0.6176E+00  0.6169E+00  0.1942E+02  0.1942E+02
     15.188  0.5645E+00  0.5528E+00  0.1947E+02  0.1946E+02
     15.264  0.5902E+00  0.5819E+00  0.1951E+02  0.1951E+02
     15.339  0.6385E+00  0.6370E+00  0.1956E+02  0.1956E+02
     15.415  0.5541E+00  0.5636E+00  0.1960E+02  0.1960E+02
     15.490  0.3662E+00  0.3772E+00  0.1963E+02  0.1963E+02
     15.565  0.2290E+00  0.2350E+00  0.1965E+02  0.1965E+02
     15.641  0.1434E+00  0.1461E+00  0.1966E+02  0.1966E+02
     15.716  0.1037E+00  0.1023E+00  0.1966E+02  0.1966E+02
     15.791  0.1397E+00  0.1350E+00  0.1967E+02  0.1967E+02
     15.867  0.2275E+00  0.2188E+00  0.1969E+02  0.1969E+02
     15.942  0.3253E+00  0.3064E+00  0.1972E+02  0.1971E+02
     16.017  0.3962E+00  0.3654E+00  0.1975E+02  0.1974E+02
     16.093  0.3277E+00  0.3106E+00  0.1977E+02  0.1976E+02
     16.168  0.2072E+00  0.2109E+00  0.1979E+02  0.1978E+02
     16.243  0.2178E+00  0.2374E+00  0.1980E+02  0.1980E+02
     16.319  0.3180E+00  0.3448E+00  0.1983E+02  0.1982E+02
     16.394  0.3301E+00  0.3500E+00  0.1985E+02  0.1985E+02
     16.469  0.2403E+00  0.2572E+00  0.1987E+02  0.1987E+02
     16.545  0.1797E+00  0.2031E+00  0.1988E+02  0.1989E+02
     16.620  0.1744E+00  0.1877E+00  0.1990E+02  0.1990E+02
     16.695  0.1612E+00  0.1525E+00  0.1991E+02  0.1991E+02
     16.771  0.1060E+00  0.1275E+00  0.1992E+02  0.1992E+02
     16.846  0.8668E-01  0.1238E+00  0.1992E+02  0.1993E+02
     16.921  0.1562E+00  0.1374E+00  0.1994E+02  0.1994E+02
     16.997  0.2006E+00  0.1549E+00  0.1995E+02  0.1995E+02
     17.072  0.1349E+00  0.1158E+00  0.1996E+02  0.1996E+02
     17.148  0.6101E-01  0.5639E-01  0.1997E+02  0.1997E+02
     17.223  0.3740E-01  0.3403E-01  0.1997E+02  0.1997E+02
     17.298  0.4399E-01  0.4265E-01  0.1997E+02  0.1997E+02
     17.374  0.5057E-01  0.5036E-01  0.1998E+02  0.1997E+02
     17.449  0.7577E-01  0.7254E-01  0.1998E+02  0.1998E+02
     17.524  0.8237E-01  0.7978E-01  0.1999E+02  0.1999E+02
     17.600  0.6064E-01  0.6499E-01  0.1999E+02  0.1999E+02
     17.675  0.4405E-01  0.5230E-01  0.2000E+02  0.2000E+02
     17.750  0.3783E-01  0.3950E-01  0.2000E+02  0.2000E+02
     17.826  0.1920E-01  0.1763E-01  0.2000E+02  0.2000E+02
     17.901  0.5610E-02  0.4863E-02  0.2000E+02  0.2000E+02
     17.976  0.1285E-02  0.1058E-02  0.2000E+02  0.2000E+02
     18.052  0.2899E-03  0.2379E-03  0.2000E+02  0.2000E+02
     18.127  0.0000E+00  0.0000E+00  0.2000E+02  0.2000E+02
     18.202  0.0000E+00  0.0000E+00  0.2000E+02  0.2000E+02
     18.278  0.0000E+00  0.0000E+00  0.2000E+02  0.2000E+02
     18.353  0.0000E+00  0.0000E+00  0.2000E+02  0.2000E+02
     18.428  0.0000E+00  0.0000E+00  0.2000E+02  0.2000E+02
     18.504  0.0000E+00  0.0000E+00  0.2000E+02  0.2000E+02
     18.579  0.0000E+00  0.0000E+00  0.2000E+02  0.2000E+02
     18.654  0.0000E+00  0.0000E+00  0.2000E+02  0.2000E+02
     18.730  0.0000E+00  0.0000E+00  0.2000E+02  0.2000E+02
     18.72979081     -3.87435837  301      8.27524146      1.00000000
     -3.874  0.0000E+00  0.0000E+00  0.0000E+00  0.0000E+00  0.0000E+00  0.0000E+00  0.0000E+00  0.0000E+00  0.0000E+00  0.0000E+00  0.0000E+00  0.0000E+00  0.0000E+00  0.0000E+00  0.0000E+00  0.0000E+00  0.0000E+00  0.0000E+00
     -3.799  0.0000E+00  0.0000E+00  0.0000E+00  0.0000E+00  0.0000E+00  0.0000E+00  0.0000E+00  0.0000E+00  0.0000E+00  0.0000E+00  0.0000E+00  0.0000E+00  0.0000E+00  0.0000E+00  0.0000E+00  0.0000E+00  0.0000E+00  0.0000E+00
     -3.724  0.0000E+00  0.0000E+00  0.0000E+00  0.0000E+00  0.0000E+00  0.0000E+00  0.0000E+00  0.0000E+00  0.0000E+00  0.0000E+00  0.0000E+00  0.0000E+00  0.0000E+00  0.0000E+00  0.0000E+00  0.0000E+00  0.0000E+00  0.0000E+00
     -3.648  0.0000E+00  0.0000E+00  0.0000E+00  0.0000E+00  0.0000E+00  0.0000E+00  0.0000E+00  0.0000E+00  0.0000E+00  0.0000E+00  0.0000E+00  0.0000E+00  0.0000E+00  0.0000E+00  0.0000E+00  0.0000E+00  0.0000E+00  0.0000E+00
     -3.573  0.0000E+00  0.0000E+00  0.0000E+00  0.0000E+00  0.0000E+00  0.0000E+00  0.0000E+00  0.0000E+00  0.0000E+00  0.0000E+00  0.0000E+00  0.0000E+00  0.0000E+00  0.0000E+00  0.0000E+00  0.0000E+00  0.0000E+00  0.0000E+00
     -3.498  0.0000E+00  0.0000E+00  0.0000E+00  0.0000E+00  0.0000E+00  0.0000E+00  0.0000E+00  0.0000E+00  0.0000E+00  0.0000E+00  0.0000E+00  0.0000E+00  0.0000E+00  0.0000E+00  0.0000E+00  0.0000E+00  0.0000E+00  0.0000E+00
     -3.422  0.0000E+00  0.0000E+00  0.0000E+00  0.0000E+00  0.0000E+00  0.0000E+00  0.0000E+00  0.0000E+00  0.0000E+00  0.0000E+00  0.0000E+00  0.0000E+00  0.0000E+00  0.0000E+00  0.0000E+00  0.0000E+00  0.0000E+00  0.0000E+00
     -3.347  0.0000E+00  0.0000E+00  0.0000E+00  0.0000E+00  0.0000E+00  0.0000E+00  0.0000E+00  0.0000E+00  0.0000E+00  0.0000E+00  0.0000E+00  0.0000E+00  0.0000E+00  0.0000E+00  0.0000E+00  0.0000E+00  0.0000E+00  0.0000E+00
     -3.272  0.7024E-07  0.3704E-07  0.3263E-20  0.3523E-19  0.4345E-09  0.1619E-19  0.3263E-20  0.3523E-19  0.0000E+00  0.0000E+00  0.0000E+00  0.0000E+00  0.0000E+00  0.0000E+00  0.0000E+00  0.0000E+00  0.0000E+00  0.0000E+00
     -3.196  0.7162E-06  0.6936E-06  0.3723E-08  0.3462E-08  0.4014E-08  0.4134E-08  0.3723E-08  0.3462E-08  0.0000E+00  0.0000E+00  0.0000E+00  0.0000E+00  0.0000E+00  0.0000E+00  0.0000E+00  0.0000E+00  0.0000E+00  0.0000E+00
     -3.121  0.3037E-05  0.2822E-05  0.1647E-07  0.1531E-07  0.2125E-07  0.1975E-07  0.1647E-07  0.1531E-07  0.0000E+00  0.0000E+00  0.0000E+00  0.0000E+00  0.0000E+00  0.0000E+00  0.0000E+00  0.0000E+00  0.0000E+00  0.0000E+00
     -3.046  0.1378E-04  0.1271E-04  0.7938E-07  0.7088E-07  0.1035E-06  0.9468E-07  0.7938E-07  0.7088E-07  0.0000E+00  0.0000E+00  0.0000E+00  0.0000E+00  0.0000E+00  0.0000E+00  0.0000E+00  0.0000E+00  0.0000E+00  0.0000E+00
     -2.970  0.6093E-04  0.5687E-04  0.3750E-06  0.3519E-06  0.4690E-06  0.4379E-06  0.3750E-06  0.3519E-06  0.0000E+00  0.0000E+00  0.0000E+00  0.0000E+00  0.0000E+00  0.0000E+00  0.0000E+00  0.0000E+00  0.0000E+00  0.0000E+00
     -2.895  0.2443E-03  0.2292E-03  0.1585E-05  0.1480E-05  0.1993E-05  0.1861E-05  0.1585E-05  0.1480E-05  0.0000E+00  0.0000E+00  0.0000E+00  0.0000E+00  0.0000E+00  0.0000E+00  0.0000E+00  0.0000E+00  0.0000E+00  0.0000E+00
     -2.819  0.7779E-03  0.7414E-03  0.5967E-05  0.5629E-05  0.7433E-05  0.7011E-05  0.5967E-05  0.5629E-05  0.0000E+00  0.0000E+00  0.0000E+00  0.0000E+00  0.0000E+00  0.0000E+00  0.0000E+00  0.0000E+00  0.0000E+00  0.0000E+00
     -2.744  0.1666E-02  0.1622E-02  0.1670E-04  0.1603E-04  0.2102E-04  0.2013E-04  0.1670E-04  0.1603E-04  0.0000E+00  0.0000E+00  0.0000E+00  0.0000E+00  0.0000E+00  0.0000E+00  0.0000E+00  0.0000E+00  0.0000E+00  0.0000E+00
     -2.669  0.2428E-02  0.2397E-02  0.3435E-04  0.3328E-04  0.4535E-04  0.4386E-04  0.3435E-04  0.3328E-04  0.0000E+00  0.0000E+00  0.0000E+00  0.0000E+00  0.0000E+00  0.0000E+00  0.0000E+00  0.0000E+00  0.0000E+00  0.0000E+00
     -2.593  0.3179E-02  0.3137E-02  0.6476E-04  0.6289E-04  0.8176E-04  0.7982E-04  0.6476E-04  0.6289E-04  0.0000E+00  0.0000E+00  0.0000E+00  0.0000E+00  0.0000E+00  0.0000E+00  0.0000E+00  0.0000E+00  0.0000E+00  0.0000E+00
     -2.518  0.3859E-02  0.3846E-02  0.1010E-03  0.9962E-04  0.1173E-03  0.1157E-03  0.1010E-03  0.9962E-04  0.0000E+00  0.0000E+00  0.0000E+00  0.0000E+00  0.0000E+00  0.0000E+00  0.0000E+00  0.0000E+00  0.0000E+00  0.0000E+00
     -2.443  0.3792E-02  0.3795E-02  0.1193E-03  0.1183E-03  0.1590E-03  0.1559E-03  0.1193E-03  0.1183E-03  0.0000E+00  0.0000E+00  0.0000E+00  0.0000E+00  0.0000E+00  0.0000E+00  0.0000E+00  0.0000E+00  0.0000E+00  0.0000E+00
     -2.367  0.4263E-02  0.4223E-02  0.1635E-03  0.1603E-03  0.2422E-03  0.2380E-03  0.1635E-03  0.1603E-03  0.0000E+00  0.0000E+00  0.0000E+00  0.0000E+00  0.0000E+00  0.0000E+00  0.0000E+00  0.0000E+00  0.0000E+00  0.0000E+00
     -2.292  0.4884E-02  0.4872E-02  0.2317E-03  0.2285E-03  0.2868E-03  0.2862E-03  0.2317E-03  0.2285E-03  0.0000E+00  0.0000E+00  0.0000E+00  0.0000E+00  0.0000E+00  0.0000E+00  0.0000E+00  0.0000E+00  0.0000E+00  0.0000E+00
     -2.217  0.4954E-02  0.4953E-02  0.2828E-03  0.2808E-03  0.3085E-03  0.3055E-03  0.2828E-03  0.2808E-03  0.0000E+00  0.0000E+00  0.0000E+00  0.0000E+00  0.0000E+00  0.0000E+00  0.0000E+00  0.0000E+00  0.0000E+00  0.0000E+00
     -2.141  0.5155E-02  0.5142E-02  0.3214E-03  0.3192E-03  0.4162E-03  0.4100E-03  0.3214E-03  0.3192E-03  0.0000E+00  0.0000E+00  0.0000E+00  0.0000E+00  0.0000E+00  0.0000E+00  0.0000E+00  0.0000E+00  0.0000E+00  0.0000E+00
     -2.066  0.5324E-02  0.5331E-02  0.3618E-03  0.3605E-03  0.5152E-03  0.5119E-03  0.3618E-03  0.3605E-03  0.0000E+00  0.0000E+00  0.0000E+00  0.0000E+00  0.0000E+00  0.0000E+00  0.0000E+00  0.0000E+00  0.0000E+00  0.0000E+00
     -1.991  0.4940E-02  0.4957E-02  0.3702E-03  0.3690E-03  0.5684E-03  0.5656E-03  0.3702E-03  0.3690E-03  0.0000E+00  0.0000E+00  0.0000E+00  0.0000E+00  0.0000E+00  0.0000E+00  0.0000E+00  0.0000E+00  0.0000E+00  0.0000E+00
     -1.915  0.5303E-02  0.5255E-02  0.4738E-03  0.4652E-03  0.6504E-03  0.6449E-03  0.4738E-03  0.4652E-03  0.0000E+00  0.0000E+00  0.0000E+00  0.0000E+00  0.0000E+00  0.0000E+00  0.0000E+00  0.0000E+00  0.0000E+00  0.0000E+00
     -1.840  0.6226E-02  0.6203E-02  0.6341E-03  0.6289E-03  0.7688E-03  0.7644E-03  0.6341E-03  0.6289E-03  0.0000E+00  0.0000E+00  0.0000E+00  0.0000E+00  0.0000E+00  0.0000E+00  0.0000E+00  0.0000E+00  0.0000E+00  0.0000E+00
     -1.765  0.5984E-02  0.6011E-02  0.6714E-03  0.6708E-03  0.7811E-03  0.7824E-03  0.6714E-03  0.6708E-03  0.0000E+00  0.0000E+00  0.0000E+00  0.0000E+00  0.0000E+00  0.0000E+00  0.0000E+00  0.0000E+00  0.0000E+00  0.0000E+00
     -1.689  0.5801E-02  0.5791E-02  0.7166E-03  0.7133E-03  0.8634E-03  0.8531E-03  0.7166E-03  0.7133E-03  0.0000E+00  0.0000E+00  0.0000E+00  0.0000E+00  0.0000E+00  0.0000E+00  0.0000E+00  0.0000E+00  0.0000E+00  0.0000E+00
     -1.614  0.5769E-02  0.5792E-02  0.7151E-03  0.7184E-03  0.1126E-02  0.1115E-02  0.7151E-03  0.7184E-03  0.0000E+00  0.0000E+00  0.0000E+00  0.0000E+00  0.0000E+00  0.0000E+00  0.0000E+00  0.0000E+00  0.0000E+00  0.0000E+00
     -1.539  0.5261E-02  0.5271E-02  0.6764E-03  0.6742E-03  0.1265E-02  0.1261E-02  0.6764E-03  0.6742E-03  0.0000E+00  0.0000E+00  0.0000E+00  0.0000E+00  0.0000E+00  0.0000E+00  0.0000E+00  0.0000E+00  0.0000E+00  0.0000E+00
     -1.463  0.5511E-02  0.5482E-02  0.8270E-03  0.8158E-03  0.1342E-02  0.1339E-02  0.8270E-03  0.8158E-03  0.0000E+00  0.0000E+00  0.0000E+00  0.0000E+00  0.0000E+00  0.0000E+00  0.0000E+00  0.0000E+00  0.0000E+00  0.0000E+00
     -1.388  0.6153E-02  0.6125E-02  0.1087E-02  0.1074E-02  0.1372E-02  0.1373E-02  0.1087E-02  0.1074E-02  0.0000E+00  0.0000E+00  0.0000E+00  0.0000E+00  0.0000E+00  0.0000E+00  0.0000E+00  0.0000E+00  0.0000E+00  0.0000E+00
     -1.313  0.6189E-02  0.6206E-02  0.1227E-02  0.1225E-02  0.1392E-02  0.1386E-02  0.1227E-02  0.1225E-02  0.0000E+00  0.0000E+00  0.0000E+00  0.0000E+00  0.0000E+00  0.0000E+00  0.0000E+00  0.0000E+00  0.0000E+00  0.0000E+00
     -1.237  0.5955E-02  0.5951E-02  0.1258E-02  0.1254E-02  0.1756E-02  0.1731E-02  0.1258E-02  0.1254E-02  0.0000E+00  0.0000E+00  0.0000E+00  0.0000E+00  0.0000E+00  0.0000E+00  0.0000E+00  0.0000E+00  0.0000E+00  0.0000E+00
     -1.162  0.5938E-02  0.5955E-02  0.1294E-02  0.1296E-02  0.2216E-02  0.2202E-02  0.1294E-02  0.1296E-02  0.0000E+00  0.0000E+00  0.0000E+00  0.0000E+00  0.0000E+00  0.0000E+00  0.0000E+00  0.0000E+00  0.0000E+00  0.0000E+00
     -1.087  0.5250E-02  0.5281E-02  0.1186E-02  0.1189E-02  0.2378E-02  0.2372E-02  0.1186E-02  0.1189E-02  0.0000E+00  0.0000E+00  0.0000E+00  0.0000E+00  0.0000E+00  0.0000E+00  0.0000E+00  0.0000E+00  0.0000E+00  0.0000E+00
     -1.011  0.5250E-02  0.5228E-02  0.1313E-02  0.1300E-02  0.2672E-02  0.2656E-02  0.1313E-02  0.1300E-02  0.0000E+00  0.0000E+00  0.0000E+00  0.0000E+00  0.0000E+00  0.0000E+00  0.0000E+00  0.0000E+00  0.0000E+00  0.0000E+00
     -0.936  0.5288E-02  0.5318E-02  0.1454E-02  0.1454E-02  0.2657E-02  0.2679E-02  0.1454E-02  0.1454E-02  0.0000E+00  0.0000E+00  0.0000E+00  0.0000E+00  0.0000E+00  0.0000E+00  0.0000E+00  0.0000E+00  0.0000E+00  0.0000E+00
     -0.860  0.4640E-02  0.4655E-02  0.1496E-02  0.1487E-02  0.2231E-02  0.2236E-02  0.1496E-02  0.1487E-02  0.0000E+00  0.0000E+00  0.0000E+00  0.0000E+00  0.0000E+00  0.0000E+00  0.0000E+00  0.0000E+00  0.0000E+00  0.0000E+00
     -0.785  0.4947E-02  0.4913E-02  0.1854E-02  0.1832E-02  0.2710E-02  0.2672E-02  0.1854E-02  0.1832E-02  0.0000E+00  0.0000E+00  0.0000E+00  0.0000E+00  0.0000E+00  0.0000E+00  0.0000E+00  0.0000E+00  0.0000E+00  0.0000E+00
     -0.710  0.5365E-02  0.5360E-02  0.2173E-02  0.2165E-02  0.3230E-02  0.3226E-02  0.2173E-02  0.2165E-02  0.0000E+00  0.0000E+00  0.0000E+00  0.0000E+00  0.0000E+00  0.0000E+00  0.0000E+00  0.0000E+00  0.0000E+00  0.0000E+00
     -0.634  0.4962E-02  0.4989E-02  0.2192E-02  0.2194E-02  0.2898E-02  0.2923E-02  0.2192E-02  0.2194E-02  0.0000E+00  0.0000E+00  0.0000E+00  0.0000E+00  0.0000E+00  0.0000E+00  0.0000E+00  0.0000E+00  0.0000E+00  0.0000E+00
     -0.559  0.4529E-02  0.4538E-02  0.2243E-02  0.2235E-02  0.2677E-02  0.2674E-02  0.2243E-02  0.2235E-02  0.0000E+00  0.0000E+00  0.0000E+00  0.0000E+00  0.0000E+00  0.0000E+00  0.0000E+00  0.0000E+00  0.0000E+00  0.0000E+00
     -0.484  0.4292E-02  0.4316E-02  0.2409E-02  0.2405E-02  0.2767E-02  0.2773E-02  0.2409E-02  0.2405E-02  0.0000E+00  0.0000E+00  0.0000E+00  0.0000E+00  0.0000E+00  0.0000E+00  0.0000E+00  0.0000E+00  0.0000E+00  0.0000E+00
     -0.408  0.3522E-02  0.3563E-02  0.2302E-02  0.2310E-02  0.2556E-02  0.2561E-02  0.2302E-02  0.2310E-02  0.0000E+00  0.0000E+00  0.0000E+00  0.0000E+00  0.0000E+00  0.0000E+00  0.0000E+00  0.0000E+00  0.0000E+00  0.0000E+00
     -0.333  0.3359E-02  0.3340E-02  0.2556E-02  0.2523E-02  0.2964E-02  0.2925E-02  0.2556E-02  0.2523E-02  0.0000E+00  0.0000E+00  0.0000E+00  0.0000E+00  0.0000E+00  0.0000E+00  0.0000E+00  0.0000E+00  0.0000E+00  0.0000E+00
     -0.258  0.3661E-02  0.3665E-02  0.3208E-02  0.3185E-02  0.3540E-02  0.3537E-02  0.3208E-02  0.3185E-02  0.0000E+00  0.0000E+00  0.0000E+00  0.0000E+00  0.0000E+00  0.0000E+00  0.0000E+00  0.0000E+00  0.0000E+00  0.0000E+00
     -0.182  0.3229E-02  0.3254E-02  0.3440E-02  0.3431E-02  0.3186E-02  0.3210E-02  0.3440E-02  0.3431E-02  0.0000E+00  0.0000E+00  0.0000E+00  0.0000E+00  0.0000E+00  0.0000E+00  0.0000E+00  0.0000E+00  0.0000E+00  0.0000E+00
     -0.107  0.2732E-02  0.2763E-02  0.3428E-02  0.3446E-02  0.2868E-02  0.2884E-02  0.3428E-02  0.3446E-02  0.0000E+00  0.0000E+00  0.0000E+00  0.0000E+00  0.0000E+00  0.0000E+00  0.0000E+00  0.0000E+00  0.0000E+00  0.0000E+00