   8   8   1   0
  0.2182249E+02  0.4435965E-09  0.4435965E-09  0.8871930E-09  0.5000000E-15
  1.000000000000000E-004
  CAR 
 unknown system                          
     11.43775756     -5.09453436  301      3.93765429      1.00000000
     -5.095  0.0000E+00  0.0000E+00  0.0000E+00  0.0000E+00
     -5.039  0.0000E+00  0.0000E+00  0.0000E+00  0.0000E+00
     -4.984  0.0000E+00  0.0000E+00  0.0000E+00  0.0000E+00
     -4.929  0.0000E+00  0.0000E+00  0.0000E+00  0.0000E+00
     -4.874  0.0000E+00  0.0000E+00  0.0000E+00  0.0000E+00
     -4.819  0.0000E+00  0.0000E+00  0.0000E+00  0.0000E+00
     -4.764  0.3392E-05  0.3237E-05  0.1869E-06  0.1784E-06
     -4.709  0.6043E-04  0.5765E-04  0.3517E-05  0.3356E-05
     -4.654  0.1555E-03  0.1484E-03  0.1209E-04  0.1153E-04
     -4.599  0.4738E-03  0.4520E-03  0.3820E-04  0.3644E-04
     -4.543  0.1522E-02  0.1453E-02  0.1221E-03  0.1165E-03
     -4.488  0.4388E-02  0.4188E-02  0.3639E-03  0.3473E-03
     -4.433  0.1264E-01  0.1210E-01  0.1060E-02  0.1014E-02
     -4.378  0.3357E-01  0.3228E-01  0.2910E-02  0.2793E-02
     -4.323  0.7604E-01  0.7373E-01  0.7101E-02  0.6856E-02
     -4.268  0.1373E+00  0.1346E+00  0.1467E-01  0.1427E-01
     -4.213  0.2015E+00  0.1988E+00  0.2577E-01  0.2522E-01
     -4.158  0.2639E+00  0.2613E+00  0.4032E-01  0.3962E-01
     -4.103  0.3140E+00  0.3124E+00  0.5762E-01  0.5684E-01
     -4.047  0.3441E+00  0.3427E+00  0.7659E-01  0.7573E-01
     -3.992  0.3877E+00  0.3855E+00  0.9795E-01  0.9697E-01
     -3.937  0.4341E+00  0.4325E+00  0.1219E+00  0.1208E+00
     -3.882  0.4628E+00  0.4617E+00  0.1474E+00  0.1462E+00
     -3.827  0.4899E+00  0.4887E+00  0.1744E+00  0.1732E+00
     -3.772  0.5095E+00  0.5090E+00  0.2025E+00  0.2012E+00
     -3.717  0.5215E+00  0.5204E+00  0.2312E+00  0.2299E+00
     -3.662  0.5688E+00  0.5659E+00  0.2626E+00  0.2611E+00
     -3.607  0.6259E+00  0.6242E+00  0.2971E+00  0.2955E+00
     -3.552  0.6401E+00  0.6399E+00  0.3324E+00  0.3308E+00
     -3.496  0.6473E+00  0.6467E+00  0.3681E+00  0.3665E+00
     -3.441  0.6546E+00  0.6544E+00  0.4041E+00  0.4025E+00
     -3.386  0.6634E+00  0.6622E+00  0.4407E+00  0.4391E+00
     -3.331  0.7107E+00  0.7077E+00  0.4799E+00  0.4781E+00
     -3.276  0.7709E+00  0.7685E+00  0.5224E+00  0.5204E+00
     -3.221  0.8031E+00  0.8020E+00  0.5667E+00  0.5646E+00
     -3.166  0.8319E+00  0.8303E+00  0.6125E+00  0.6104E+00
     -3.111  0.8513E+00  0.8510E+00  0.6595E+00  0.6573E+00
     -3.056  0.8519E+00  0.8512E+00  0.7064E+00  0.7043E+00
     -3.000  0.8805E+00  0.8790E+00  0.7550E+00  0.7527E+00
     -2.945  0.8856E+00  0.8860E+00  0.8038E+00  0.8016E+00
     -2.890  0.8945E+00  0.8920E+00  0.8531E+00  0.8508E+00
     -2.835  0.9777E+00  0.9731E+00  0.9070E+00  0.9044E+00
     -2.780  0.1036E+01  0.1035E+01  0.9641E+00  0.9614E+00
     -2.725  0.1018E+01  0.1019E+01  0.1020E+01  0.1018E+01
     -2.670  0.1001E+01  0.1001E+01  0.1075E+01  0.1073E+01
     -2.615  0.9825E+00  0.9835E+00  0.1130E+01  0.1127E+01
     -2.560  0.9740E+00  0.9720E+00  0.1183E+01  0.1181E+01
     -2.504  0.1056E+01  0.1051E+01  0.1242E+01  0.1239E+01
     -2.449  0.1122E+01  0.1121E+01  0.1303E+01  0.1300E+01
     -2.394  0.1093E+01  0.1096E+01  0.1364E+01  0.1361E+01
     -2.339  0.9994E+00  0.1005E+01  0.1419E+01  0.1416E+01
     -2.284  0.9149E+00  0.9170E+00  0.1469E+01  0.1467E+01
     -2.229  0.9050E+00  0.9047E+00  0.1519E+01  0.1517E+01
     -2.174  0.8903E+00  0.8925E+00  0.1568E+01  0.1566E+01
     -2.119  0.8030E+00  0.8085E+00  0.1612E+01  0.1610E+01
     -2.064  0.6837E+00  0.6887E+00  0.1650E+01  0.1648E+01
     -2.009  0.6065E+00  0.6091E+00  0.1684E+01  0.1682E+01
     -1.953  0.5894E+00  0.5888E+00  0.1716E+01  0.1715E+01
     -1.898  0.6437E+00  0.6399E+00  0.1752E+01  0.1750E+01
     -1.843  0.7315E+00  0.7276E+00  0.1792E+01  0.1790E+01
     -1.788  0.8042E+00  0.8012E+00  0.1836E+01  0.1834E+01
     -1.733  0.8784E+00  0.8755E+00  0.1885E+01  0.1882E+01
     -1.678  0.9617E+00  0.9588E+00  0.1938E+01  0.1935E+01
     -1.623  0.1058E+01  0.1054E+01  0.1996E+01  0.1993E+01
     -1.568  0.1169E+01  0.1164E+01  0.2061E+01  0.2057E+01
     -1.513  0.1265E+01  0.1262E+01  0.2130E+01  0.2127E+01
     -1.457  0.1290E+01  0.1290E+01  0.2201E+01  0.2198E+01
     -1.402  0.1263E+01  0.1263E+01  0.2271E+01  0.2268E+01
     -1.347  0.1250E+01  0.1252E+01  0.2340E+01  0.2337E+01
     -1.292  0.1174E+01  0.1180E+01  0.2405E+01  0.2402E+01
     -1.237  0.1053E+01  0.1058E+01  0.2463E+01  0.2460E+01
     -1.182  0.1022E+01  0.1021E+01  0.2519E+01  0.2517E+01
     -1.127  0.1082E+01  0.1078E+01  0.2579E+01  0.2576E+01
     -1.072  0.1145E+01  0.1143E+01  0.2642E+01  0.2639E+01
     -1.017  0.1163E+01  0.1162E+01  0.2706E+01  0.2703E+01
     -0.961  0.1191E+01  0.1189E+01  0.2772E+01  0.2769E+01
     -0.906  0.1202E+01  0.1204E+01  0.2838E+01  0.2835E+01
     -0.851  0.1118E+01  0.1125E+01  0.2900E+01  0.2897E+01
     -0.796  0.9884E+00  0.9944E+00  0.2954E+01  0.2952E+01
     -0.741  0.9400E+00  0.9396E+00  0.3006E+01  0.3004E+01
     -0.686  0.9783E+00  0.9772E+00  0.3060E+01  0.3058E+01
     -0.631  0.9390E+00  0.9433E+00  0.3112E+01  0.3110E+01
     -0.576  0.8238E+00  0.8269E+00  0.3157E+01  0.3155E+01
     -0.521  0.8262E+00  0.8215E+00  0.3203E+01  0.3201E+01
     -0.465  0.1022E+01  0.1010E+01  0.3259E+01  0.3256E+01
     -0.410  0.1287E+01  0.1279E+01  0.3330E+01  0.3327E+01
     -0.355  0.1387E+01  0.1390E+01  0.3407E+01  0.3403E+01
     -0.300  0.1333E+01  0.1340E+01  0.3480E+01  0.3477E+01
     -0.245  0.1305E+01  0.1309E+01  0.3552E+01  0.3550E+01
     -0.190  0.1332E+01  0.1334E+01  0.3625E+01  0.3623E+01
     -0.135  0.1331E+01  0.1330E+01  0.3699E+01  0.3696E+01
     -0.080  0.1267E+01  0.1267E+01  0.3769E+01  0.3766E+01
     -0.025  0.1194E+01  0.1195E+01  0.3835E+01  0.3832E+01
      0.030  0.1185E+01  0.1185E+01  0.3900E+01  0.3897E+01
      0.086  0.1311E+01  0.1305E+01  0.3972E+01  0.3969E+01
      0.141  0.1462E+01  0.1456E+01  0.4053E+01  0.4050E+01
      0.196  0.1555E+01  0.1552E+01  0.4139E+01  0.4135E+01
      0.251  0.1571E+01  0.1572E+01  0.4225E+01  0.4222E+01
      0.306  0.1480E+01  0.1485E+01  0.4307E+01  0.4304E+01
      0.361  0.1312E+01  0.1320E+01  0.4379E+01  0.4377E+01
      0.416  0.1171E+01  0.1177E+01  0.4444E+01  0.4441E+01
      0.471  0.1094E+01  0.1097E+01  0.4504E+01  0.4502E+01
      0.526  0.1092E+01  0.1090E+01  0.4564E+01  0.4562E+01
      0.582  0.1194E+01  0.1187E+01  0.4630E+01  0.4627E+01
      0.637  0.1274E+01  0.1273E+01  0.4700E+01  0.4698E+01
      0.692  0.1175E+01  0.1180E+01  0.4765E+01  0.4763E+01
      0.747  0.9861E+00  0.9908E+00  0.4819E+01  0.4817E+01
      0.802  0.8500E+00  0.8520E+00  0.4866E+01  0.4864E+01
      0.857  0.8093E+00  0.8087E+00  0.4911E+01  0.4909E+01
      0.912  0.9378E+00  0.9307E+00  0.4963E+01  0.4960E+01
      0.967  0.1248E+01  0.1236E+01  0.5032E+01  0.5029E+01
      1.022  0.1596E+01  0.1587E+01  0.5120E+01  0.5116E+01
      1.078  0.1762E+01  0.1762E+01  0.5217E+01  0.5213E+01
      1.133  0.1646E+01  0.1655E+01  0.5307E+01  0.5304E+01
      1.188  0.1442E+01  0.1447E+01  0.5387E+01  0.5384E+01
      1.243  0.1392E+01  0.1391E+01  0.5464E+01  0.5461E+01
      1.298  0.1444E+01  0.1445E+01  0.5543E+01  0.5540E+01
      1.353  0.1438E+01  0.1442E+01  0.5622E+01  0.5620E+01
      1.408  0.1402E+01  0.1405E+01  0.5700E+01  0.5697E+01
      1.463  0.1419E+01  0.1420E+01  0.5778E+01  0.5776E+01
      1.518  0.1448E+01  0.1447E+01  0.5858E+01  0.5856E+01
      1.573  0.1486E+01  0.1482E+01  0.5940E+01  0.5937E+01
      1.629  0.1559E+01  0.1555E+01  0.6026E+01  0.6023E+01
      1.684  0.1645E+01  0.1644E+01  0.6116E+01  0.6114E+01
      1.739  0.1645E+01  0.1648E+01  0.6207E+01  0.6204E+01
      1.794  0.1554E+01  0.1557E+01  0.6293E+01  0.6290E+01
      1.849  0.1444E+01  0.1447E+01  0.6372E+01  0.6370E+01
      1.904  0.1358E+01  0.1361E+01  0.6447E+01  0.6445E+01
      1.959  0.1344E+01  0.1343E+01  0.6521E+01  0.6519E+01
      2.014  0.1395E+01  0.1391E+01  0.6598E+01  0.6596E+01
      2.069  0.1497E+01  0.1492E+01  0.6681E+01  0.6678E+01
      2.125  0.1606E+01  0.1605E+01  0.6770E+01  0.6767E+01
      2.180  0.1681E+01  0.1684E+01  0.6862E+01  0.6860E+01
      2.235  0.1737E+01  0.1740E+01  0.6958E+01  0.6955E+01
      2.290  0.1739E+01  0.1740E+01  0.7054E+01  0.7051E+01
      2.345  0.1708E+01  0.1704E+01  0.7148E+01  0.7145E+01
      2.400  0.1792E+01  0.1783E+01  0.7247E+01  0.7244E+01
      2.455  0.1949E+01  0.1942E+01  0.7354E+01  0.7351E+01
      2.510  0.1966E+01  0.1968E+01  0.7463E+01  0.7459E+01
      2.565  0.1822E+01  0.1829E+01  0.7563E+01  0.7560E+01
      2.621  0.1720E+01  0.1721E+01  0.7658E+01  0.7655E+01
      2.676  0.1786E+01  0.1780E+01  0.7756E+01  0.7753E+01
      2.731  0.1921E+01  0.1917E+01  0.7862E+01  0.7859E+01
      2.786  0.1869E+01  0.1875E+01  0.7965E+01  0.7962E+01
      2.841  0.1618E+01  0.1628E+01  0.8055E+01  0.8052E+01
      2.896  0.1415E+01  0.1420E+01  0.8133E+01  0.8130E+01
      2.951  0.1434E+01  0.1433E+01  0.8212E+01  0.8209E+01
      3.006  0.1632E+01  0.1626E+01  0.8302E+01  0.8299E+01
      3.061  0.1890E+01  0.1884E+01  0.8406E+01  0.8403E+01
      3.117  0.2025E+01  0.2024E+01  0.8518E+01  0.8514E+01
      3.172  0.2027E+01  0.2030E+01  0.8630E+01  0.8626E+01
      3.227  0.2020E+01  0.2024E+01  0.8741E+01  0.8738E+01
      3.282  0.1935E+01  0.1939E+01  0.8848E+01  0.8845E+01
      3.337  0.1802E+01  0.1804E+01  0.8947E+01  0.8944E+01
      3.392  0.1771E+01  0.1770E+01  0.9045E+01  0.9042E+01
      3.447  0.1827E+01  0.1827E+01  0.9145E+01  0.9143E+01
      3.502  0.1790E+01  0.1793E+01  0.9244E+01  0.9242E+01
      3.557  0.1601E+01  0.1605E+01  0.9332E+01  0.9330E+01
      3.612  0.1432E+01  0.1433E+01  0.9411E+01  0.9409E+01
      3.668  0.1423E+01  0.1418E+01  0.9490E+01  0.9487E+01
      3.723  0.1573E+01  0.1563E+01  0.9577E+01  0.9574E+01
      3.778  0.1839E+01  0.1830E+01  0.9678E+01  0.9674E+01
      3.833  0.2063E+01  0.2063E+01  0.9792E+01  0.9788E+01
      3.888  0.2080E+01  0.2088E+01  0.9906E+01  0.9903E+01
      3.943  0.1900E+01  0.1908E+01  0.1001E+02  0.1001E+02
      3.998  0.1696E+01  0.1699E+01  0.1010E+02  0.1010E+02
      4.053  0.1595E+01  0.1596E+01  0.1019E+02  0.1019E+02
      4.108  0.1534E+01  0.1537E+01  0.1028E+02  0.1027E+02
      4.164  0.1380E+01  0.1388E+01  0.1035E+02  0.1035E+02
      4.219  0.1225E+01  0.1231E+01  0.1042E+02  0.1042E+02
      4.274  0.1230E+01  0.1229E+01  0.1049E+02  0.1049E+02
      4.329  0.1405E+01  0.1397E+01  0.1057E+02  0.1056E+02
      4.384  0.1717E+01  0.1705E+01  0.1066E+02  0.1066E+02
      4.439  0.2040E+01  0.2028E+01  0.1077E+02  0.1077E+02
      4.494  0.2239E+01  0.2233E+01  0.1090E+02  0.1089E+02
      4.549  0.2251E+01  0.2253E+01  0.1102E+02  0.1102E+02
      4.604  0.2102E+01  0.2109E+01  0.1114E+02  0.1113E+02
      4.660  0.1913E+01  0.1918E+01  0.1124E+02  0.1124E+02
      4.715  0.1843E+01  0.1844E+01  0.1134E+02  0.1134E+02
      4.770  0.1859E+01  0.1861E+01  0.1145E+02  0.1144E+02
      4.825  0.1738E+01  0.1744E+01  0.1154E+02  0.1154E+02
      4.880  0.1526E+01  0.1528E+01  0.1163E+02  0.1162E+02
      4.935  0.1509E+01  0.1506E+01  0.1171E+02  0.1171E+02
      4.990  0.1743E+01  0.1739E+01  0.1181E+02  0.1180E+02
      5.045  0.2012E+01  0.2009E+01  0.1192E+02  0.1191E+02
      5.100  0.2150E+01  0.2147E+01  0.1204E+02  0.1203E+02
      5.155  0.2157E+01  0.2155E+01  0.1215E+02  0.1215E+02
      5.211  0.2108E+01  0.2107E+01  0.1227E+02  0.1227E+02
      5.266  0.2051E+01  0.2050E+01  0.1238E+02  0.1238E+02
      5.321  0.2029E+01  0.2029E+01  0.1250E+02  0.1249E+02
      5.376  0.2016E+01  0.2017E+01  0.1261E+02  0.1260E+02
      5.431  0.1962E+01  0.1966E+01  0.1271E+02  0.1271E+02
      5.486  0.1821E+01  0.1828E+01  0.1282E+02  0.1281E+02
      5.541  0.1667E+01  0.1672E+01  0.1291E+02  0.1290E+02
      5.596  0.1584E+01  0.1586E+01  0.1299E+02  0.1299E+02
      5.651  0.1612E+01  0.1611E+01  0.1308E+02  0.1308E+02
      5.707  0.1792E+01  0.1786E+01  0.1318E+02  0.1318E+02
      5.762  0.1982E+01  0.1977E+01  0.1329E+02  0.1329E+02
      5.817  0.2043E+01  0.2042E+01  0.1340E+02  0.1340E+02
      5.872  0.2034E+01  0.2036E+01  0.1352E+02  0.1351E+02
      5.927  0.2008E+01  0.2010E+01  0.1363E+02  0.1362E+02
      5.982  0.2031E+01  0.2028E+01  0.1374E+02  0.1374E+02
      6.037  0.2161E+01  0.2155E+01  0.1386E+02  0.1385E+02
      6.092  0.2292E+01  0.2290E+01  0.1398E+02  0.1398E+02
      6.147  0.2293E+01  0.2294E+01  0.1411E+02  0.1411E+02
      6.203  0.2265E+01  0.2266E+01  0.1424E+02  0.1423E+02
      6.258  0.2228E+01  0.2232E+01  0.1436E+02  0.1436E+02
      6.313  0.2070E+01  0.2077E+01  0.1447E+02  0.1447E+02
      6.368  0.1881E+01  0.1887E+01  0.1458E+02  0.1457E+02
      6.423  0.1899E+01  0.1900E+01  0.1468E+02  0.1468E+02
      6.478  0.2128E+01  0.2125E+01  0.1480E+02  0.1480E+02
      6.533  0.2359E+01  0.2353E+01  0.1493E+02  0.1493E+02
      6.588  0.2427E+01  0.2422E+01  0.1506E+02  0.1506E+02
      6.643  0.2315E+01  0.2314E+01  0.1519E+02  0.1519E+02
      6.699  0.2173E+01  0.2173E+01  0.1531E+02  0.1531E+02
      6.754  0.2144E+01  0.2144E+01  0.1543E+02  0.1543E+02
      6.809  0.2147E+01  0.2146E+01  0.1555E+02  0.1554E+02
      6.864  0.2201E+01  0.2197E+01  0.1567E+02  0.1566E+02
      6.919  0.2393E+01  0.2387E+01  0.1580E+02  0.1580E+02
      6.974  0.2527E+01  0.2526E+01  0.1594E+02  0.1594E+02
      7.029  0.2477E+01  0.2480E+01  0.1608E+02  0.1607E+02
      7.084  0.2349E+01  0.2354E+01  0.1621E+02  0.1620E+02
      7.139  0.2221E+01  0.2224E+01  0.1633E+02  0.1632E+02
      7.194  0.2206E+01  0.2204E+01  0.1645E+02  0.1645E+02
      7.250  0.2321E+01  0.2318E+01  0.1658E+02  0.1657E+02
      7.305  0.2454E+01  0.2451E+01  0.1671E+02  0.1671E+02
      7.360  0.2486E+01  0.2486E+01  0.1685E+02  0.1685E+02
      7.415  0.2359E+01  0.2363E+01  0.1698E+02  0.1698E+02
      7.470  0.2180E+01  0.2183E+01  0.1710E+02  0.1710E+02
      7.525  0.2086E+01  0.2087E+01  0.1721E+02  0.1721E+02
      7.580  0.2069E+01  0.2070E+01  0.1733E+02  0.1733E+02
      7.635  0.2095E+01  0.2095E+01  0.1744E+02  0.1744E+02
      7.690  0.2107E+01  0.2107E+01  0.1756E+02  0.1756E+02
      7.746  0.2074E+01  0.2075E+01  0.1768E+02  0.1767E+02
      7.801  0.1946E+01  0.1951E+01  0.1778E+02  0.1778E+02
      7.856  0.1763E+01  0.1768E+01  0.1788E+02  0.1788E+02
      7.911  0.1739E+01  0.1736E+01  0.1798E+02  0.1797E+02
      7.966  0.1902E+01  0.1894E+01  0.1808E+02  0.1808E+02
      8.021  0.2144E+01  0.2138E+01  0.1820E+02  0.1820E+02
      8.076  0.2339E+01  0.2341E+01  0.1833E+02  0.1832E+02
      8.131  0.2386E+01  0.2404E+01  0.1846E+02  0.1846E+02
      8.186  0.2284E+01  0.2309E+01  0.1859E+02  0.1858E+02
      8.242  0.2115E+01  0.2116E+01  0.1870E+02  0.1870E+02
      8.297  0.1955E+01  0.1931E+01  0.1881E+02  0.1881E+02
      8.352  0.1785E+01  0.1765E+01  0.1891E+02  0.1890E+02
      8.407  0.1617E+01  0.1627E+01  0.1900E+02  0.1899E+02
      8.462  0.1451E+01  0.1475E+01  0.1908E+02  0.1908E+02
      8.517  0.1338E+01  0.1341E+01  0.1915E+02  0.1915E+02
      8.572  0.1254E+01  0.1242E+01  0.1922E+02  0.1922E+02
      8.627  0.1117E+01  0.1109E+01  0.1928E+02  0.1928E+02
      8.682  0.9845E+00  0.9708E+00  0.1934E+02  0.1933E+02
      8.737  0.8861E+00  0.8655E+00  0.1939E+02  0.1938E+02
      8.793  0.7871E+00  0.7832E+00  0.1943E+02  0.1942E+02
      8.848  0.7244E+00  0.7469E+00  0.1947E+02  0.1947E+02
      8.903  0.7124E+00  0.7391E+00  0.1951E+02  0.1951E+02
      8.958  0.7303E+00  0.7449E+00  0.1955E+02  0.1955E+02
      9.013  0.7000E+00  0.7053E+00  0.1959E+02  0.1959E+02
      9.068  0.6146E+00  0.6172E+00  0.1962E+02  0.1962E+02
      9.123  0.5333E+00  0.5369E+00  0.1965E+02  0.1965E+02
      9.178  0.4409E+00  0.4450E+00  0.1967E+02  0.1967E+02
      9.233  0.3232E+00  0.3253E+00  0.1969E+02  0.1969E+02
      9.289  0.2468E+00  0.2483E+00  0.1971E+02  0.1971E+02
      9.344  0.2720E+00  0.2752E+00  0.1972E+02  0.1972E+02
      9.399  0.3551E+00  0.3591E+00  0.1974E+02  0.1974E+02
      9.454  0.4151E+00  0.4159E+00  0.1976E+02  0.1976E+02
      9.509  0.4382E+00  0.4370E+00  0.1979E+02  0.1979E+02
      9.564  0.4309E+00  0.4272E+00  0.1981E+02  0.1981E+02
      9.619  0.4006E+00  0.3968E+00  0.1983E+02  0.1983E+02
      9.674  0.3664E+00  0.3655E+00  0.1985E+02  0.1985E+02
      9.729  0.3493E+00  0.3493E+00  0.1987E+02  0.1987E+02
      9.785  0.3500E+00  0.3471E+00  0.1989E+02  0.1989E+02
      9.840  0.3202E+00  0.3160E+00  0.1991E+02  0.1991E+02
      9.895  0.2260E+00  0.2263E+00  0.1992E+02  0.1992E+02
      9.950  0.1179E+00  0.1209E+00  0.1993E+02  0.1993E+02
     10.005  0.5577E-01  0.5767E-01  0.1993E+02  0.1993E+02
     10.060  0.4394E-01  0.4422E-01  0.1993E+02  0.1993E+02
     10.115  0.7306E-01  0.7209E-01  0.1994E+02  0.1994E+02
     10.170  0.1280E+00  0.1267E+00  0.1995E+02  0.1995E+02
     10.225  0.1610E+00  0.1605E+00  0.1995E+02  0.1995E+02
     10.280  0.1434E+00  0.1435E+00  0.1996E+02  0.1996E+02
     10.336  0.1086E+00  0.1077E+00  0.1997E+02  0.1997E+02
     10.391  0.8694E-01  0.8371E-01  0.1997E+02  0.1997E+02
     10.446  0.7865E-01  0.7006E-01  0.1998E+02  0.1998E+02
     10.501  0.7984E-01  0.6205E-01  0.1998E+02  0.1998E+02
     10.556  0.8774E-01  0.6826E-01  0.1999E+02  0.1998E+02
     10.611  0.8398E-01  0.8617E-01  0.1999E+02  0.1999E+02
     10.666  0.6707E-01  0.8674E-01  0.1999E+02  0.1999E+02
     10.721  0.4831E-01  0.6493E-01  0.2000E+02  0.2000E+02
     10.776  0.2708E-01  0.3630E-01  0.2000E+02  0.2000E+02
     10.832  0.1151E-01  0.1562E-01  0.2000E+02  0.2000E+02
     10.887  0.4220E-02  0.5723E-02  0.2000E+02  0.2000E+02
     10.942  0.1451E-02  0.1972E-02  0.2000E+02  0.2000E+02
     10.997  0.4175E-03  0.6634E-03  0.2000E+02  0.2000E+02
     11.052  0.1393E-03  0.1639E-03  0.2000E+02  0.2000E+02
     11.107  0.0000E+00  0.0000E+00  0.2000E+02  0.2000E+02
     11.162  0.0000E+00  0.0000E+00  0.2000E+02  0.2000E+02
     11.217  0.0000E+00  0.0000E+00  0.2000E+02  0.2000E+02
     11.272  0.0000E+00  0.0000E+00  0.2000E+02  0.2000E+02
     11.328  0.0000E+00  0.0000E+00  0.2000E+02  0.2000E+02
     11.383  0.0000E+00  0.0000E+00  0.2000E+02  0.2000E+02
     11.438  0.0000E+00  0.0000E+00  0.2000E+02  0.2000E+02
     11.43775756     -5.09453436  301      3.93765429      1.00000000
     -5.095  0.0000E+00  0.0000E+00  0.0000E+00  0.0000E+00  0.0000E+00  0.0000E+00  0.0000E+00  0.0000E+00  0.0000E+00  0.0000E+00  0.0000E+00  0.0000E+00  0.0000E+00  0.0000E+00  0.0000E+00  0.0000E+00  0.0000E+00  0.0000E+00
     -5.039  0.0000E+00  0.0000E+00  0.0000E+00  0.0000E+00  0.0000E+00  0.0000E+00  0.0000E+00  0.0000E+00  0.0000E+00  0.0000E+00  0.0000E+00  0.0000E+00  0.0000E+00  0.0000E+00  0.0000E+00  0.0000E+00  0.0000E+00  0.0000E+00
     -4.984  0.0000E+00  0.0000E+00  0.0000E+00  0.0000E+00  0.0000E+00  0.0000E+00  0.0000E+00  0.0000E+00  0.0000E+00  0.0000E+00  0.0000E+00  0.0000E+00  0.0000E+00  0.0000E+00  0.0000E+00  0.0000E+00  0.0000E+00  0.0000E+00
     -4.929  0.0000E+00  0.0000E+00  0.0000E+00  0.0000E+00  0.0000E+00  0.0000E+00  0.0000E+00  0.0000E+00  0.0000E+00  0.0000E+00  0.0000E+00  0.0000E+00  0.0000E+00  0.0000E+00  0.0000E+00  0.0000E+00  0.0000E+00  0.0000E+00
     -4.874  0.0000E+00  0.0000E+00  0.0000E+00  0.0000E+00  0.0000E+00  0.0000E+00  0.0000E+00  0.0000E+00  0.0000E+00  0.0000E+00  0.0000E+00  0.0000E+00  0.0000E+00  0.0000E+00  0.0000E+00  0.0000E+00  0.0000E+00  0.0000E+00
     -4.819  0.0000E+00  0.0000E+00  0.0000E+00  0.0000E+00  0.0000E+00  0.0000E+00  0.0000E+00  0.0000E+00  0.0000E+00  0.0000E+00  0.0000E+00  0.0000E+00  0.0000E+00  0.0000E+00  0.0000E+00  0.0000E+00  0.0000E+00  0.0000E+00
     -4.764  0.2542E-07  0.2427E-07  0.1107E-19  0.1937E-20  0.8550E-20  0.3060E-19  0.1107E-19  0.1937E-20  0.0000E+00  0.0000E+00  0.0000E+00  0.0000E+00  0.0000E+00  0.0000E+00  0.0000E+00  0.0000E+00  0.0000E+00  0.0000E+00
     -4.709  0.4454E-06  0.4251E-06  0.2278E-08  0.2181E-08  0.2526E-08  0.2416E-08  0.2278E-08  0.2181E-08  0.0000E+00  0.0000E+00  0.0000E+00  0.0000E+00  0.0000E+00  0.0000E+00  0.0000E+00  0.0000E+00  0.0000E+00  0.0000E+00
     -4.654  0.1142E-05  0.1090E-05  0.6643E-08  0.6358E-08  0.8582E-08  0.8201E-08  0.6643E-08  0.6358E-08  0.0000E+00  0.0000E+00  0.0000E+00  0.0000E+00  0.0000E+00  0.0000E+00  0.0000E+00  0.0000E+00  0.0000E+00  0.0000E+00
     -4.599  0.3473E-05  0.3315E-05  0.2122E-07  0.2031E-07  0.2967E-07  0.2836E-07  0.2122E-07  0.2031E-07  0.0000E+00  0.0000E+00  0.0000E+00  0.0000E+00  0.0000E+00  0.0000E+00  0.0000E+00  0.0000E+00  0.0000E+00  0.0000E+00
     -4.543  0.1112E-04  0.1062E-04  0.8563E-07  0.8189E-07  0.9812E-07  0.9373E-07  0.8563E-07  0.8189E-07  0.0000E+00  0.0000E+00  0.0000E+00  0.0000E+00  0.0000E+00  0.0000E+00  0.0000E+00  0.0000E+00  0.0000E+00  0.0000E+00
     -4.488  0.3208E-04  0.3064E-04  0.2333E-06  0.2233E-06  0.2850E-06  0.2696E-06  0.2333E-06  0.2233E-06  0.0000E+00  0.0000E+00  0.0000E+00  0.0000E+00  0.0000E+00  0.0000E+00  0.0000E+00  0.0000E+00  0.0000E+00  0.0000E+00
     -4.433  0.9232E-04  0.8841E-04  0.6972E-06  0.6678E-06  0.8581E-06  0.8236E-06  0.6972E-06  0.6678E-06  0.0000E+00  0.0000E+00  0.0000E+00  0.0000E+00  0.0000E+00  0.0000E+00  0.0000E+00  0.0000E+00  0.0000E+00  0.0000E+00
     -4.378  0.2447E-03  0.2354E-03  0.1989E-05  0.1910E-05  0.2413E-05  0.2314E-05  0.1989E-05  0.1910E-05  0.0000E+00  0.0000E+00  0.0000E+00  0.0000E+00  0.0000E+00  0.0000E+00  0.0000E+00  0.0000E+00  0.0000E+00  0.0000E+00
     -4.323  0.5523E-03  0.5359E-03  0.5097E-05  0.4918E-05  0.6198E-05  0.5963E-05  0.5097E-05  0.4918E-05  0.0000E+00  0.0000E+00  0.0000E+00  0.0000E+00  0.0000E+00  0.0000E+00  0.0000E+00  0.0000E+00  0.0000E+00  0.0000E+00
     -4.268  0.9903E-03  0.9711E-03  0.1122E-04  0.1090E-04  0.1379E-04  0.1339E-04  0.1122E-04  0.1090E-04  0.0000E+00  0.0000E+00  0.0000E+00  0.0000E+00  0.0000E+00  0.0000E+00  0.0000E+00  0.0000E+00  0.0000E+00  0.0000E+00
     -4.213  0.1436E-02  0.1418E-02  0.2128E-04  0.2079E-04  0.2626E-04  0.2560E-04  0.2128E-04  0.2079E-04  0.0000E+00  0.0000E+00  0.0000E+00  0.0000E+00  0.0000E+00  0.0000E+00  0.0000E+00  0.0000E+00  0.0000E+00  0.0000E+00
     -4.158  0.1854E-02  0.1837E-02  0.3589E-04  0.3521E-04  0.4329E-04  0.4247E-04  0.3589E-04  0.3521E-04  0.0000E+00  0.0000E+00  0.0000E+00  0.0000E+00  0.0000E+00  0.0000E+00  0.0000E+00  0.0000E+00  0.0000E+00  0.0000E+00
     -4.103  0.2172E-02  0.2163E-02  0.5232E-04  0.5165E-04  0.6280E-04  0.6183E-04  0.5232E-04  0.5165E-04  0.0000E+00  0.0000E+00  0.0000E+00  0.0000E+00  0.0000E+00  0.0000E+00  0.0000E+00  0.0000E+00  0.0000E+00  0.0000E+00
     -4.047  0.2334E-02  0.2327E-02  0.6848E-04  0.6765E-04  0.8764E-04  0.8617E-04  0.6848E-04  0.6765E-04  0.0000E+00  0.0000E+00  0.0000E+00  0.0000E+00  0.0000E+00  0.0000E+00  0.0000E+00  0.0000E+00  0.0000E+00  0.0000E+00
     -3.992  0.2572E-02  0.2560E-02  0.9185E-04  0.9058E-04  0.1195E-03  0.1179E-03  0.9185E-04  0.9058E-04  0.0000E+00  0.0000E+00  0.0000E+00  0.0000E+00  0.0000E+00  0.0000E+00  0.0000E+00  0.0000E+00  0.0000E+00  0.0000E+00
     -3.937  0.2826E-02  0.2818E-02  0.1213E-03  0.1200E-03  0.1455E-03  0.1442E-03  0.1213E-03  0.1200E-03  0.0000E+00  0.0000E+00  0.0000E+00  0.0000E+00  0.0000E+00  0.0000E+00  0.0000E+00  0.0000E+00  0.0000E+00  0.0000E+00
     -3.882  0.2952E-02  0.2948E-02  0.1476E-03  0.1464E-03  0.1718E-03  0.1700E-03  0.1476E-03  0.1464E-03  0.0000E+00  0.0000E+00  0.0000E+00  0.0000E+00  0.0000E+00  0.0000E+00  0.0000E+00  0.0000E+00  0.0000E+00  0.0000E+00
     -3.827  0.3052E-02  0.3048E-02  0.1703E-03  0.1692E-03  0.2144E-03  0.2120E-03  0.1703E-03  0.1692E-03  0.0000E+00  0.0000E+00  0.0000E+00  0.0000E+00  0.0000E+00  0.0000E+00  0.0000E+00  0.0000E+00  0.0000E+00  0.0000E+00
     -3.772  0.3098E-02  0.3098E-02  0.1910E-03  0.1901E-03  0.2582E-03  0.2562E-03  0.1910E-03  0.1901E-03  0.0000E+00  0.0000E+00  0.0000E+00  0.0000E+00  0.0000E+00  0.0000E+00  0.0000E+00  0.0000E+00  0.0000E+00  0.0000E+00
     -3.717  0.3085E-02  0.3083E-02  0.2150E-03  0.2134E-03  0.2962E-03  0.2941E-03  0.2150E-03  0.2134E-03  0.0000E+00  0.0000E+00  0.0000E+00  0.0000E+00  0.0000E+00  0.0000E+00  0.0000E+00  0.0000E+00  0.0000E+00  0.0000E+00
     -3.662  0.3277E-02  0.3264E-02  0.2642E-03  0.2615E-03  0.3393E-03  0.3369E-03  0.2642E-03  0.2615E-03  0.0000E+00  0.0000E+00  0.0000E+00  0.0000E+00  0.0000E+00  0.0000E+00  0.0000E+00  0.0000E+00  0.0000E+00  0.0000E+00
     -3.607  0.3526E-02  0.3520E-02  0.3201E-03  0.3180E-03  0.3831E-03  0.3811E-03  0.3201E-03  0.3180E-03  0.0000E+00  0.0000E+00  0.0000E+00  0.0000E+00  0.0000E+00  0.0000E+00  0.0000E+00  0.0000E+00  0.0000E+00  0.0000E+00
     -3.552  0.3518E-02  0.3522E-02  0.3513E-03  0.3502E-03  0.4151E-03  0.4132E-03  0.3513E-03  0.3502E-03  0.0000E+00  0.0000E+00  0.0000E+00  0.0000E+00  0.0000E+00  0.0000E+00  0.0000E+00  0.0000E+00  0.0000E+00  0.0000E+00
     -3.496  0.3446E-02  0.3449E-02  0.3707E-03  0.3699E-03  0.4740E-03  0.4700E-03  0.3707E-03  0.3699E-03  0.0000E+00  0.0000E+00  0.0000E+00  0.0000E+00  0.0000E+00  0.0000E+00  0.0000E+00  0.0000E+00  0.0000E+00  0.0000E+00
     -3.441  0.3356E-02  0.3362E-02  0.3774E-03  0.3771E-03  0.5662E-03  0.5620E-03  0.3774E-03  0.3771E-03  0.0000E+00  0.0000E+00  0.0000E+00  0.0000E+00  0.0000E+00  0.0000E+00  0.0000E+00  0.0000E+00  0.0000E+00  0.0000E+00
     -3.386  0.3273E-02  0.3274E-02  0.3988E-03  0.3966E-03  0.6375E-03  0.6348E-03  0.3988E-03  0.3966E-03  0.0000E+00  0.0000E+00  0.0000E+00  0.0000E+00  0.0000E+00  0.0000E+00  0.0000E+00  0.0000E+00  0.0000E+00  0.0000E+00
     -3.331  0.3395E-02  0.3387E-02  0.4735E-03  0.4692E-03  0.6822E-03  0.6802E-03  0.4735E-03  0.4692E-03  0.0000E+00  0.0000E+00  0.0000E+00  0.0000E+00  0.0000E+00  0.0000E+00  0.0000E+00  0.0000E+00  0.0000E+00  0.0000E+00
     -3.276  0.3578E-02  0.3574E-02  0.5695E-03  0.5655E-03  0.7160E-03  0.7143E-03  0.5695E-03  0.5655E-03  0.0000E+00  0.0000E+00  0.0000E+00  0.0000E+00  0.0000E+00  0.0000E+00  0.0000E+00  0.0000E+00  0.0000E+00  0.0000E+00
     -3.221  0.3581E-02  0.3586E-02  0.6293E-03  0.6275E-03  0.7820E-03  0.7771E-03  0.6293E-03  0.6275E-03  0.0000E+00  0.0000E+00  0.0000E+00  0.0000E+00  0.0000E+00  0.0000E+00  0.0000E+00  0.0000E+00  0.0000E+00  0.0000E+00
     -3.166  0.3502E-02  0.3507E-02  0.6572E-03  0.6561E-03  0.9369E-03  0.9284E-03  0.6572E-03  0.6561E-03  0.0000E+00  0.0000E+00  0.0000E+00  0.0000E+00  0.0000E+00  0.0000E+00  0.0000E+00  0.0000E+00  0.0000E+00  0.0000E+00
     -3.111  0.3377E-02  0.3385E-02  0.6636E-03  0.6636E-03  0.1109E-02  0.1102E-02  0.6636E-03  0.6636E-03  0.0000E+00  0.0000E+00  0.0000E+00  0.0000E+00  0.0000E+00  0.0000E+00  0.0000E+00  0.0000E+00  0.0000E+00  0.0000E+00
     -3.056  0.3184E-02  0.3191E-02  0.6677E-03  0.6664E-03  0.1226E-02  0.1222E-02  0.6677E-03  0.6664E-03  0.0000E+00  0.0000E+00  0.0000E+00  0.0000E+00  0.0000E+00  0.0000E+00  0.0000E+00  0.0000E+00  0.0000E+00  0.0000E+00
     -3.000  0.3124E-02  0.3127E-02  0.7220E-03  0.7188E-03  0.1317E-02  0.1314E-02  0.7220E-03  0.7188E-03  0.0000E+00  0.0000E+00  0.0000E+00  0.0000E+00  0.0000E+00  0.0000E+00  0.0000E+00  0.0000E+00  0.0000E+00  0.0000E+00
     -2.945  0.3015E-02  0.3025E-02  0.7843E-03  0.7815E-03  0.1304E-02  0.1308E-02  0.7843E-03  0.7815E-03  0.0000E+00  0.0000E+00  0.0000E+00  0.0000E+00  0.0000E+00  0.0000E+00  0.0000E+00  0.0000E+00  0.0000E+00  0.0000E+00
     -2.890  0.2883E-02  0.2887E-02  0.8705E-03  0.8649E-03  0.1286E-02  0.1284E-02  0.8705E-03  0.8649E-03  0.0000E+00  0.0000E+00  0.0000E+00  0.0000E+00  0.0000E+00  0.0000E+00  0.0000E+00  0.0000E+00  0.0000E+00  0.0000E+00
     -2.835  0.2949E-02  0.2946E-02  0.1011E-02  0.1005E-02  0.1433E-02  0.1426E-02  0.1011E-02  0.1005E-02  0.0000E+00  0.0000E+00  0.0000E+00  0.0000E+00  0.0000E+00  0.0000E+00  0.0000E+00  0.0000E+00  0.0000E+00  0.0000E+00
     -2.780  0.2975E-02  0.2982E-02  0.1120E-02  0.1117E-02  0.1530E-02  0.1531E-02  0.1120E-02  0.1117E-02  0.0000E+00  0.0000E+00  0.0000E+00  0.0000E+00  0.0000E+00  0.0000E+00  0.0000E+00  0.0000E+00  0.0000E+00  0.0000E+00
     -2.725  0.2808E-02  0.2822E-02  0.1170E-02  0.1168E-02  0.1459E-02  0.1465E-02  0.1170E-02  0.1168E-02  0.0000E+00  0.0000E+00  0.0000E+00  0.0000E+00  0.0000E+00  0.0000E+00  0.0000E+00  0.0000E+00  0.0000E+00  0.0000E+00
     -2.670  0.2599E-02  0.2613E-02  0.1222E-02  0.1220E-02  0.1408E-02  0.1410E-02  0.1222E-02  0.1220E-02  0.0000E+00  0.0000E+00  0.0000E+00  0.0000E+00  0.0000E+00  0.0000E+00  0.0000E+00  0.0000E+00  0.0000E+00  0.0000E+00
     -2.615  0.2343E-02  0.2361E-02  0.1266E-02  0.1265E-02  0.1397E-02  0.1398E-02  0.1266E-02  0.1265E-02  0.0000E+00  0.0000E+00  0.0000E+00  0.0000E+00  0.0000E+00  0.0000E+00  0.0000E+00  0.0000E+00  0.0000E+00  0.0000E+00
     -2.560  0.2077E-02  0.2089E-02  0.1320E-02  0.1316E-02  0.1423E-02  0.1420E-02  0.1320E-02  0.1316E-02  0.0000E+00  0.0000E+00  0.0000E+00  0.0000E+00  0.0000E+00  0.0000E+00  0.0000E+00  0.0000E+00  0.0000E+00  0.0000E+00
     -2.504  0.2011E-02  0.2016E-02  0.1501E-02  0.1491E-02  0.1572E-02  0.1567E-02  0.1501E-02  0.1491E-02  0.0000E+00  0.0000E+00  0.0000E+00  0.0000E+00  0.0000E+00  0.0000E+00  0.0000E+00  0.0000E+00  0.0000E+00  0.0000E+00
     -2.449  0.1938E-02  0.1949E-02  0.1685E-02  0.1680E-02  0.1634E-02  0.1638E-02  0.1685E-02  0.1680E-02  0.0000E+00  0.0000E+00  0.0000E+00  0.0000E+00  0.0000E+00  0.0000E+00  0.0000E+00  0.0000E+00  0.0000E+00  0.0000E+00
     -2.394  0.1715E-02  0.1731E-02  0.1742E-02  0.1744E-02  0.1519E-02  0.1528E-02  0.1742E-02  0.1744E-02  0.0000E+00  0.0000E+00  0.0000E+00  0.0000E+00  0.0000E+00  0.0000E+00  0.0000E+00  0.0000E+00  0.0000E+00  0.0000E+00
     -2.339  0.1437E-02  0.1453E-02  0.1645E-02  0.1654E-02  0.1367E-02  0.1376E-02  0.1645E-02  0.1654E-02  0.0000E+00  0.0000E+00  0.0000E+00  0.0000E+00  0.0000E+00  0.0000E+00  0.0000E+00  0.0000E+00  0.0000E+00  0.0000E+00