   8   8   1   0
  0.1844277E+02  0.4194003E-09  0.4194003E-09  0.8388006E-09  0.5000000E-15
  1.000000000000000E-004
  CAR 
 unknown system                          
     13.63818144     -4.79151892  301      5.20152190      1.00000000
     -4.792  0.0000E+00  0.0000E+00  0.0000E+00  0.0000E+00
     -4.730  0.0000E+00  0.0000E+00  0.0000E+00  0.0000E+00
     -4.669  0.0000E+00  0.0000E+00  0.0000E+00  0.0000E+00
     -4.607  0.0000E+00  0.0000E+00  0.0000E+00  0.0000E+00
     -4.546  0.0000E+00  0.0000E+00  0.0000E+00  0.0000E+00
     -4.484  0.0000E+00  0.0000E+00  0.0000E+00  0.0000E+00
     -4.423  0.0000E+00  0.0000E+00  0.0000E+00  0.0000E+00
     -4.361  0.1386E-04  0.1349E-04  0.8514E-06  0.8286E-06
     -4.300  0.6161E-04  0.5996E-04  0.4636E-05  0.4512E-05
     -4.239  0.2129E-03  0.2072E-03  0.1771E-04  0.1724E-04
     -4.177  0.7584E-03  0.7383E-03  0.6431E-04  0.6259E-04
     -4.116  0.2563E-02  0.2496E-02  0.2218E-03  0.2159E-03
     -4.054  0.8355E-02  0.8144E-02  0.7350E-03  0.7162E-03
     -3.993  0.2531E-01  0.2474E-01  0.2290E-02  0.2236E-02
     -3.931  0.6377E-01  0.6265E-01  0.6208E-02  0.6085E-02
     -3.870  0.1218E+00  0.1205E+00  0.1369E-01  0.1349E-01
     -3.809  0.1800E+00  0.1788E+00  0.2475E-01  0.2447E-01
     -3.747  0.2377E+00  0.2364E+00  0.3935E-01  0.3899E-01
     -3.686  0.2845E+00  0.2839E+00  0.5683E-01  0.5643E-01
     -3.624  0.3044E+00  0.3039E+00  0.7553E-01  0.7510E-01
     -3.563  0.3449E+00  0.3437E+00  0.9672E-01  0.9621E-01
     -3.501  0.3905E+00  0.3897E+00  0.1207E+00  0.1202E+00
     -3.440  0.4131E+00  0.4126E+00  0.1461E+00  0.1455E+00
     -3.379  0.4381E+00  0.4374E+00  0.1730E+00  0.1724E+00
     -3.317  0.4563E+00  0.4562E+00  0.2011E+00  0.2004E+00
     -3.256  0.4578E+00  0.4575E+00  0.2292E+00  0.2285E+00
     -3.194  0.5020E+00  0.5003E+00  0.2601E+00  0.2593E+00
     -3.133  0.5653E+00  0.5644E+00  0.2948E+00  0.2940E+00
     -3.071  0.5729E+00  0.5731E+00  0.3300E+00  0.3292E+00
     -3.010  0.5769E+00  0.5764E+00  0.3655E+00  0.3646E+00
     -2.949  0.5842E+00  0.5843E+00  0.4014E+00  0.4005E+00
     -2.887  0.5822E+00  0.5817E+00  0.4372E+00  0.4363E+00
     -2.826  0.6250E+00  0.6234E+00  0.4756E+00  0.4746E+00
     -2.764  0.6878E+00  0.6865E+00  0.5179E+00  0.5168E+00
     -2.703  0.7153E+00  0.7148E+00  0.5618E+00  0.5608E+00
     -2.641  0.7402E+00  0.7391E+00  0.6073E+00  0.6062E+00
     -2.580  0.7634E+00  0.7634E+00  0.6542E+00  0.6531E+00
     -2.519  0.7517E+00  0.7515E+00  0.7004E+00  0.6993E+00
     -2.457  0.7828E+00  0.7816E+00  0.7485E+00  0.7473E+00
     -2.396  0.7907E+00  0.7913E+00  0.7971E+00  0.7960E+00
     -2.334  0.7740E+00  0.7730E+00  0.8447E+00  0.8435E+00
     -2.273  0.8585E+00  0.8555E+00  0.8975E+00  0.8961E+00
     -2.211  0.9340E+00  0.9333E+00  0.9549E+00  0.9534E+00
     -2.150  0.9102E+00  0.9111E+00  0.1011E+01  0.1009E+01
     -2.088  0.8865E+00  0.8864E+00  0.1065E+01  0.1064E+01
     -2.027  0.8752E+00  0.8758E+00  0.1119E+01  0.1118E+01
     -1.966  0.8403E+00  0.8400E+00  0.1171E+01  0.1169E+01
     -1.904  0.9123E+00  0.9085E+00  0.1227E+01  0.1225E+01
     -1.843  0.1008E+01  0.1006E+01  0.1289E+01  0.1287E+01
     -1.781  0.9946E+00  0.9955E+00  0.1350E+01  0.1348E+01
     -1.720  0.9160E+00  0.9189E+00  0.1406E+01  0.1405E+01
     -1.658  0.8096E+00  0.8114E+00  0.1456E+01  0.1455E+01
     -1.597  0.8001E+00  0.7994E+00  0.1505E+01  0.1504E+01
     -1.536  0.8145E+00  0.8149E+00  0.1555E+01  0.1554E+01
     -1.474  0.7507E+00  0.7537E+00  0.1601E+01  0.1600E+01
     -1.413  0.6292E+00  0.6322E+00  0.1640E+01  0.1639E+01
     -1.351  0.5465E+00  0.5480E+00  0.1674E+01  0.1673E+01
     -1.290  0.5178E+00  0.5182E+00  0.1706E+01  0.1705E+01
     -1.228  0.5466E+00  0.5452E+00  0.1739E+01  0.1738E+01
     -1.167  0.6304E+00  0.6281E+00  0.1778E+01  0.1777E+01
     -1.106  0.7095E+00  0.7077E+00  0.1822E+01  0.1820E+01
     -1.044  0.7943E+00  0.7924E+00  0.1870E+01  0.1869E+01
     -0.983  0.8843E+00  0.8837E+00  0.1925E+01  0.1923E+01
     -0.921  0.9400E+00  0.9392E+00  0.1983E+01  0.1981E+01
     -0.860  0.1017E+01  0.1015E+01  0.2045E+01  0.2043E+01
     -0.798  0.1122E+01  0.1120E+01  0.2114E+01  0.2112E+01
     -0.737  0.1143E+01  0.1143E+01  0.2184E+01  0.2183E+01
     -0.676  0.1098E+01  0.1098E+01  0.2252E+01  0.2250E+01
     -0.614  0.1119E+01  0.1119E+01  0.2321E+01  0.2319E+01
     -0.553  0.1105E+01  0.1107E+01  0.2388E+01  0.2387E+01
     -0.491  0.9735E+00  0.9771E+00  0.2448E+01  0.2447E+01
     -0.430  0.9001E+00  0.9007E+00  0.2504E+01  0.2502E+01
     -0.368  0.9354E+00  0.9339E+00  0.2561E+01  0.2560E+01
     -0.307  0.1004E+01  0.1002E+01  0.2623E+01  0.2621E+01
     -0.246  0.1017E+01  0.1017E+01  0.2685E+01  0.2684E+01
     -0.184  0.1021E+01  0.1020E+01  0.2748E+01  0.2747E+01
     -0.123  0.1056E+01  0.1056E+01  0.2813E+01  0.2811E+01
     -0.061  0.1017E+01  0.1020E+01  0.2876E+01  0.2874E+01
      0.000  0.8879E+00  0.8924E+00  0.2930E+01  0.2929E+01
      0.062  0.8188E+00  0.8191E+00  0.2981E+01  0.2979E+01
      0.123  0.8603E+00  0.8588E+00  0.3033E+01  0.3032E+01
      0.185  0.8872E+00  0.8883E+00  0.3088E+01  0.3087E+01
      0.246  0.7980E+00  0.8005E+00  0.3137E+01  0.3136E+01
      0.307  0.6944E+00  0.6950E+00  0.3180E+01  0.3179E+01
      0.369  0.7537E+00  0.7497E+00  0.3226E+01  0.3225E+01
      0.430  0.1043E+01  0.1036E+01  0.3290E+01  0.3289E+01
      0.492  0.1337E+01  0.1335E+01  0.3372E+01  0.3371E+01
      0.553  0.1360E+01  0.1366E+01  0.3456E+01  0.3455E+01
      0.615  0.1275E+01  0.1280E+01  0.3534E+01  0.3533E+01
      0.676  0.1217E+01  0.1219E+01  0.3609E+01  0.3608E+01
      0.737  0.1109E+01  0.1108E+01  0.3677E+01  0.3676E+01
      0.799  0.1034E+01  0.1031E+01  0.3741E+01  0.3740E+01
      0.860  0.1073E+01  0.1072E+01  0.3807E+01  0.3806E+01
      0.922  0.1097E+01  0.1100E+01  0.3874E+01  0.3873E+01
      0.983  0.1107E+01  0.1106E+01  0.3942E+01  0.3941E+01
      1.045  0.1231E+01  0.1227E+01  0.4018E+01  0.4017E+01
      1.106  0.1331E+01  0.1330E+01  0.4100E+01  0.4098E+01
      1.167  0.1353E+01  0.1352E+01  0.4183E+01  0.4181E+01
      1.229  0.1351E+01  0.1350E+01  0.4266E+01  0.4264E+01
      1.290  0.1264E+01  0.1268E+01  0.4344E+01  0.4342E+01
      1.352  0.1150E+01  0.1154E+01  0.4414E+01  0.4413E+01
      1.413  0.1101E+01  0.1103E+01  0.4482E+01  0.4481E+01
      1.475  0.1018E+01  0.1020E+01  0.4545E+01  0.4544E+01
      1.536  0.9588E+00  0.9572E+00  0.4604E+01  0.4603E+01
      1.597  0.1070E+01  0.1064E+01  0.4669E+01  0.4668E+01
      1.659  0.1171E+01  0.1168E+01  0.4741E+01  0.4740E+01
      1.720  0.1067E+01  0.1069E+01  0.4807E+01  0.4806E+01
      1.782  0.8676E+00  0.8719E+00  0.4860E+01  0.4859E+01
      1.843  0.7909E+00  0.7929E+00  0.4909E+01  0.4908E+01
      1.905  0.9532E+00  0.9503E+00  0.4967E+01  0.4966E+01
      1.966  0.1354E+01  0.1349E+01  0.5051E+01  0.5049E+01
      2.027  0.1734E+01  0.1732E+01  0.5157E+01  0.5156E+01
      2.089  0.1872E+01  0.1874E+01  0.5272E+01  0.5271E+01
      2.150  0.1784E+01  0.1787E+01  0.5382E+01  0.5381E+01
      2.212  0.1600E+01  0.1602E+01  0.5480E+01  0.5479E+01
      2.273  0.1453E+01  0.1454E+01  0.5570E+01  0.5569E+01
      2.335  0.1335E+01  0.1338E+01  0.5652E+01  0.5651E+01
      2.396  0.1189E+01  0.1191E+01  0.5725E+01  0.5724E+01
      2.457  0.1115E+01  0.1116E+01  0.5793E+01  0.5793E+01
      2.519  0.1212E+01  0.1212E+01  0.5868E+01  0.5867E+01
      2.580  0.1420E+01  0.1419E+01  0.5955E+01  0.5954E+01
      2.642  0.1545E+01  0.1543E+01  0.6050E+01  0.6049E+01
      2.703  0.1524E+01  0.1520E+01  0.6144E+01  0.6143E+01
      2.765  0.1547E+01  0.1543E+01  0.6239E+01  0.6238E+01
      2.826  0.1621E+01  0.1622E+01  0.6338E+01  0.6337E+01
      2.888  0.1560E+01  0.1564E+01  0.6434E+01  0.6433E+01
      2.949  0.1398E+01  0.1402E+01  0.6520E+01  0.6520E+01
      3.010  0.1268E+01  0.1267E+01  0.6598E+01  0.6597E+01
      3.072  0.1240E+01  0.1236E+01  0.6675E+01  0.6673E+01
      3.133  0.1322E+01  0.1321E+01  0.6756E+01  0.6755E+01
      3.195  0.1490E+01  0.1492E+01  0.6847E+01  0.6846E+01
      3.256  0.1596E+01  0.1599E+01  0.6945E+01  0.6945E+01
      3.318  0.1612E+01  0.1614E+01  0.7045E+01  0.7044E+01
      3.379  0.1711E+01  0.1711E+01  0.7150E+01  0.7149E+01
      3.440  0.1882E+01  0.1878E+01  0.7265E+01  0.7264E+01
      3.502  0.1926E+01  0.1923E+01  0.7384E+01  0.7383E+01
      3.563  0.1743E+01  0.1743E+01  0.7491E+01  0.7490E+01
      3.625  0.1503E+01  0.1504E+01  0.7583E+01  0.7582E+01
      3.686  0.1476E+01  0.1476E+01  0.7674E+01  0.7673E+01
      3.748  0.1603E+01  0.1602E+01  0.7773E+01  0.7772E+01
      3.809  0.1586E+01  0.1587E+01  0.7870E+01  0.7869E+01
      3.870  0.1425E+01  0.1424E+01  0.7958E+01  0.7957E+01
      3.932  0.1291E+01  0.1290E+01  0.8037E+01  0.8036E+01
      3.993  0.1265E+01  0.1265E+01  0.8115E+01  0.8114E+01
      4.055  0.1380E+01  0.1381E+01  0.8200E+01  0.8199E+01
      4.116  0.1575E+01  0.1577E+01  0.8297E+01  0.8296E+01
      4.178  0.1580E+01  0.1583E+01  0.8394E+01  0.8393E+01
      4.239  0.1520E+01  0.1520E+01  0.8487E+01  0.8486E+01
      4.300  0.1624E+01  0.1623E+01  0.8587E+01  0.8586E+01
      4.362  0.1676E+01  0.1678E+01  0.8690E+01  0.8689E+01
      4.423  0.1661E+01  0.1662E+01  0.8792E+01  0.8791E+01
      4.485  0.1656E+01  0.1656E+01  0.8894E+01  0.8893E+01
      4.546  0.1643E+01  0.1642E+01  0.8995E+01  0.8994E+01
      4.608  0.1670E+01  0.1669E+01  0.9097E+01  0.9097E+01
      4.669  0.1663E+01  0.1664E+01  0.9200E+01  0.9199E+01
      4.730  0.1435E+01  0.1438E+01  0.9288E+01  0.9287E+01
      4.792  0.1159E+01  0.1159E+01  0.9359E+01  0.9359E+01
      4.853  0.1127E+01  0.1123E+01  0.9428E+01  0.9428E+01
      4.915  0.1236E+01  0.1231E+01  0.9504E+01  0.9504E+01
      4.976  0.1406E+01  0.1401E+01  0.9591E+01  0.9590E+01
      5.038  0.1664E+01  0.1662E+01  0.9693E+01  0.9692E+01
      5.099  0.1893E+01  0.1896E+01  0.9810E+01  0.9808E+01
      5.161  0.1924E+01  0.1928E+01  0.9928E+01  0.9927E+01
      5.222  0.1719E+01  0.1722E+01  0.1003E+02  0.1003E+02
      5.283  0.1395E+01  0.1398E+01  0.1012E+02  0.1012E+02
      5.345  0.1181E+01  0.1182E+01  0.1019E+02  0.1019E+02
      5.406  0.1202E+01  0.1200E+01  0.1027E+02  0.1027E+02
      5.468  0.1318E+01  0.1318E+01  0.1035E+02  0.1035E+02
      5.529  0.1362E+01  0.1366E+01  0.1043E+02  0.1043E+02
      5.591  0.1388E+01  0.1389E+01  0.1052E+02  0.1052E+02
      5.652  0.1389E+01  0.1386E+01  0.1060E+02  0.1060E+02
      5.713  0.1464E+01  0.1461E+01  0.1069E+02  0.1069E+02
      5.775  0.1682E+01  0.1679E+01  0.1079E+02  0.1079E+02
      5.836  0.1890E+01  0.1888E+01  0.1091E+02  0.1091E+02
      5.898  0.1979E+01  0.1981E+01  0.1103E+02  0.1103E+02
      5.959  0.1880E+01  0.1884E+01  0.1115E+02  0.1115E+02
      6.021  0.1747E+01  0.1748E+01  0.1126E+02  0.1125E+02
      6.082  0.1616E+01  0.1613E+01  0.1135E+02  0.1135E+02
      6.143  0.1484E+01  0.1482E+01  0.1145E+02  0.1145E+02
      6.205  0.1471E+01  0.1470E+01  0.1154E+02  0.1154E+02
      6.266  0.1518E+01  0.1520E+01  0.1163E+02  0.1163E+02
      6.328  0.1566E+01  0.1568E+01  0.1173E+02  0.1173E+02
      6.389  0.1679E+01  0.1680E+01  0.1183E+02  0.1183E+02
      6.451  0.1832E+01  0.1833E+01  0.1194E+02  0.1194E+02
      6.512  0.1880E+01  0.1880E+01  0.1206E+02  0.1206E+02
      6.573  0.1788E+01  0.1788E+01  0.1217E+02  0.1217E+02
      6.635  0.1634E+01  0.1631E+01  0.1227E+02  0.1227E+02
      6.696  0.1663E+01  0.1658E+01  0.1237E+02  0.1237E+02
      6.758  0.1877E+01  0.1873E+01  0.1249E+02  0.1248E+02
      6.819  0.1969E+01  0.1971E+01  0.1261E+02  0.1261E+02
      6.881  0.1847E+01  0.1851E+01  0.1272E+02  0.1272E+02
      6.942  0.1664E+01  0.1667E+01  0.1282E+02  0.1282E+02
      7.003  0.1556E+01  0.1558E+01  0.1292E+02  0.1292E+02
      7.065  0.1507E+01  0.1508E+01  0.1301E+02  0.1301E+02
      7.126  0.1544E+01  0.1544E+01  0.1311E+02  0.1310E+02
      7.188  0.1636E+01  0.1636E+01  0.1321E+02  0.1321E+02
      7.249  0.1736E+01  0.1735E+01  0.1331E+02  0.1331E+02
      7.311  0.1891E+01  0.1891E+01  0.1343E+02  0.1343E+02
      7.372  0.1992E+01  0.1994E+01  0.1355E+02  0.1355E+02
      7.434  0.1916E+01  0.1917E+01  0.1367E+02  0.1367E+02
      7.495  0.1779E+01  0.1780E+01  0.1378E+02  0.1378E+02
      7.556  0.1796E+01  0.1794E+01  0.1389E+02  0.1389E+02
      7.618  0.2035E+01  0.2034E+01  0.1401E+02  0.1401E+02
      7.679  0.2160E+01  0.2159E+01  0.1415E+02  0.1415E+02
      7.741  0.2129E+01  0.2126E+01  0.1428E+02  0.1428E+02
      7.802  0.2086E+01  0.2086E+01  0.1441E+02  0.1441E+02
      7.864  0.1982E+01  0.1985E+01  0.1453E+02  0.1453E+02
      7.925  0.1902E+01  0.1904E+01  0.1464E+02  0.1464E+02
      7.986  0.1870E+01  0.1872E+01  0.1476E+02  0.1476E+02
      8.048  0.1818E+01  0.1818E+01  0.1487E+02  0.1487E+02
      8.109  0.1816E+01  0.1814E+01  0.1498E+02  0.1498E+02
      8.171  0.1945E+01  0.1942E+01  0.1510E+02  0.1510E+02
      8.232  0.2064E+01  0.2063E+01  0.1523E+02  0.1523E+02
      8.294  0.2079E+01  0.2078E+01  0.1536E+02  0.1536E+02
      8.355  0.2015E+01  0.2014E+01  0.1548E+02  0.1548E+02
      8.416  0.1894E+01  0.1894E+01  0.1560E+02  0.1560E+02
      8.478  0.1798E+01  0.1798E+01  0.1571E+02  0.1571E+02
      8.539  0.1823E+01  0.1822E+01  0.1582E+02  0.1582E+02
      8.601  0.1976E+01  0.1974E+01  0.1594E+02  0.1594E+02
      8.662  0.2092E+01  0.2092E+01  0.1607E+02  0.1607E+02
      8.724  0.2019E+01  0.2020E+01  0.1619E+02  0.1619E+02
      8.785  0.1941E+01  0.1940E+01  0.1631E+02  0.1631E+02
      8.846  0.2028E+01  0.2026E+01  0.1644E+02  0.1644E+02
      8.908  0.2186E+01  0.2185E+01  0.1657E+02  0.1657E+02
      8.969  0.2215E+01  0.2217E+01  0.1671E+02  0.1671E+02
      9.031  0.2148E+01  0.2150E+01  0.1684E+02  0.1684E+02
      9.092  0.2093E+01  0.2092E+01  0.1697E+02  0.1697E+02
      9.154  0.2042E+01  0.2042E+01  0.1710E+02  0.1709E+02
      9.215  0.2011E+01  0.2014E+01  0.1722E+02  0.1722E+02
      9.276  0.1934E+01  0.1938E+01  0.1734E+02  0.1734E+02
      9.338  0.1864E+01  0.1865E+01  0.1745E+02  0.1745E+02
      9.399  0.1878E+01  0.1875E+01  0.1757E+02  0.1757E+02
      9.461  0.1880E+01  0.1879E+01  0.1768E+02  0.1768E+02
      9.522  0.1742E+01  0.1741E+01  0.1779E+02  0.1779E+02
      9.584  0.1582E+01  0.1580E+01  0.1789E+02  0.1789E+02
      9.645  0.1501E+01  0.1502E+01  0.1798E+02  0.1798E+02
      9.707  0.1482E+01  0.1484E+01  0.1807E+02  0.1807E+02
      9.768  0.1657E+01  0.1656E+01  0.1817E+02  0.1817E+02
      9.829  0.1942E+01  0.1942E+01  0.1829E+02  0.1829E+02
      9.891  0.2022E+01  0.2019E+01  0.1842E+02  0.1842E+02
      9.952  0.1988E+01  0.1977E+01  0.1854E+02  0.1854E+02
     10.014  0.1910E+01  0.1900E+01  0.1866E+02  0.1865E+02
     10.075  0.1749E+01  0.1750E+01  0.1876E+02  0.1876E+02
     10.137  0.1564E+01  0.1590E+01  0.1886E+02  0.1886E+02
     10.198  0.1374E+01  0.1421E+01  0.1894E+02  0.1895E+02
     10.259  0.1262E+01  0.1301E+01  0.1902E+02  0.1903E+02
     10.321  0.1274E+01  0.1264E+01  0.1910E+02  0.1910E+02
     10.382  0.1307E+01  0.1267E+01  0.1918E+02  0.1918E+02
     10.444  0.1235E+01  0.1203E+01  0.1926E+02  0.1926E+02
     10.505  0.1047E+01  0.1037E+01  0.1932E+02  0.1932E+02
     10.567  0.8773E+00  0.8882E+00  0.1937E+02  0.1937E+02
     10.628  0.8033E+00  0.8245E+00  0.1942E+02  0.1943E+02
     10.689  0.6920E+00  0.7128E+00  0.1947E+02  0.1947E+02
     10.751  0.5589E+00  0.5549E+00  0.1950E+02  0.1950E+02
     10.812  0.5058E+00  0.4906E+00  0.1953E+02  0.1953E+02
     10.874  0.4910E+00  0.4881E+00  0.1956E+02  0.1956E+02
     10.935  0.4294E+00  0.4356E+00  0.1959E+02  0.1959E+02
     10.997  0.3952E+00  0.3979E+00  0.1961E+02  0.1961E+02
     11.058  0.4139E+00  0.4040E+00  0.1964E+02  0.1964E+02
     11.119  0.4253E+00  0.4133E+00  0.1966E+02  0.1967E+02
     11.181  0.3847E+00  0.3779E+00  0.1969E+02  0.1969E+02
     11.242  0.3133E+00  0.3110E+00  0.1971E+02  0.1971E+02
     11.304  0.2993E+00  0.3009E+00  0.1973E+02  0.1973E+02
     11.365  0.3225E+00  0.3253E+00  0.1975E+02  0.1975E+02
     11.427  0.3382E+00  0.3408E+00  0.1977E+02  0.1977E+02
     11.488  0.3562E+00  0.3565E+00  0.1979E+02  0.1979E+02
     11.549  0.3583E+00  0.3576E+00  0.1981E+02  0.1981E+02
     11.611  0.3210E+00  0.3278E+00  0.1983E+02  0.1983E+02
     11.672  0.2850E+00  0.3078E+00  0.1985E+02  0.1985E+02
     11.734  0.3038E+00  0.3410E+00  0.1987E+02  0.1987E+02
     11.795  0.3601E+00  0.3759E+00  0.1989E+02  0.1989E+02
     11.857  0.3409E+00  0.3138E+00  0.1991E+02  0.1991E+02
     11.918  0.2222E+00  0.1891E+00  0.1992E+02  0.1992E+02
     11.980  0.1002E+00  0.8399E-01  0.1993E+02  0.1993E+02
     12.041  0.3988E-01  0.3441E-01  0.1993E+02  0.1993E+02
     12.102  0.2999E-01  0.2821E-01  0.1993E+02  0.1993E+02
     12.164  0.5909E-01  0.5835E-01  0.1994E+02  0.1994E+02
     12.225  0.1190E+00  0.1187E+00  0.1994E+02  0.1994E+02
     12.287  0.1493E+00  0.1497E+00  0.1995E+02  0.1995E+02
     12.348  0.1207E+00  0.1225E+00  0.1996E+02  0.1996E+02
     12.410  0.8654E-01  0.9204E-01  0.1997E+02  0.1997E+02
     12.471  0.5959E-01  0.7413E-01  0.1997E+02  0.1997E+02
     12.532  0.3684E-01  0.6287E-01  0.1997E+02  0.1998E+02
     12.594  0.3455E-01  0.5463E-01  0.1997E+02  0.1998E+02
     12.655  0.6327E-01  0.5634E-01  0.1998E+02  0.1998E+02
     12.717  0.1049E+00  0.7933E-01  0.1999E+02  0.1999E+02
     12.778  0.1094E+00  0.8916E-01  0.1999E+02  0.1999E+02
     12.840  0.7556E-01  0.6607E-01  0.2000E+02  0.2000E+02
     12.901  0.3717E-01  0.3328E-01  0.2000E+02  0.2000E+02
     12.962  0.1375E-01  0.1230E-01  0.2000E+02  0.2000E+02
     13.024  0.4368E-02  0.3907E-02  0.2000E+02  0.2000E+02
     13.085  0.1228E-02  0.1173E-02  0.2000E+02  0.2000E+02
     13.147  0.2603E-03  0.2455E-03  0.2000E+02  0.2000E+02
     13.208  0.0000E+00  0.0000E+00  0.2000E+02  0.2000E+02
     13.270  0.0000E+00  0.0000E+00  0.2000E+02  0.2000E+02
     13.331  0.0000E+00  0.0000E+00  0.2000E+02  0.2000E+02
     13.392  0.0000E+00  0.0000E+00  0.2000E+02  0.2000E+02
     13.454  0.0000E+00  0.0000E+00  0.2000E+02  0.2000E+02
     13.515  0.0000E+00  0.0000E+00  0.2000E+02  0.2000E+02
     13.577  0.0000E+00  0.0000E+00  0.2000E+02  0.2000E+02
     13.638  0.0000E+00  0.0000E+00  0.2000E+02  0.2000E+02
     13.63818144     -4.79151892  301      5.20152190      1.00000000
     -4.792  0.0000E+00  0.0000E+00  0.0000E+00  0.0000E+00  0.0000E+00  0.0000E+00  0.0000E+00  0.0000E+00  0.0000E+00  0.0000E+00  0.0000E+00  0.0000E+00  0.0000E+00  0.0000E+00  0.0000E+00  0.0000E+00  0.0000E+00  0.0000E+00
     -4.730  0.0000E+00  0.0000E+00  0.0000E+00  0.0000E+00  0.0000E+00  0.0000E+00  0.0000E+00  0.0000E+00  0.0000E+00  0.0000E+00  0.0000E+00  0.0000E+00  0.0000E+00  0.0000E+00  0.0000E+00  0.0000E+00  0.0000E+00  0.0000E+00
     -4.669  0.0000E+00  0.0000E+00  0.0000E+00  0.0000E+00  0.0000E+00  0.0000E+00  0.0000E+00  0.0000E+00  0.0000E+00  0.0000E+00  0.0000E+00  0.0000E+00  0.0000E+00  0.0000E+00  0.0000E+00  0.0000E+00  0.0000E+00  0.0000E+00
     -4.607  0.0000E+00  0.0000E+00  0.0000E+00  0.0000E+00  0.0000E+00  0.0000E+00  0.0000E+00  0.0000E+00  0.0000E+00  0.0000E+00  0.0000E+00  0.0000E+00  0.0000E+00  0.0000E+00  0.0000E+00  0.0000E+00  0.0000E+00  0.0000E+00
     -4.546  0.0000E+00  0.0000E+00  0.0000E+00  0.0000E+00  0.0000E+00  0.0000E+00  0.0000E+00  0.0000E+00  0.0000E+00  0.0000E+00  0.0000E+00  0.0000E+00  0.0000E+00  0.0000E+00  0.0000E+00  0.0000E+00  0.0000E+00  0.0000E+00
     -4.484  0.0000E+00  0.0000E+00  0.0000E+00  0.0000E+00  0.0000E+00  0.0000E+00  0.0000E+00  0.0000E+00  0.0000E+00  0.0000E+00  0.0000E+00  0.0000E+00  0.0000E+00  0.0000E+00  0.0000E+00  0.0000E+00  0.0000E+00  0.0000E+00
     -4.423  0.0000E+00  0.0000E+00  0.0000E+00  0.0000E+00  0.0000E+00  0.0000E+00  0.0000E+00  0.0000E+00  0.0000E+00  0.0000E+00  0.0000E+00  0.0000E+00  0.0000E+00  0.0000E+00  0.0000E+00  0.0000E+00  0.0000E+00  0.0000E+00
     -4.361  0.1355E-06  0.1322E-06  0.3839E-09  0.3741E-09  0.4563E-09  0.4448E-09  0.3839E-09  0.3741E-09  0.0000E+00  0.0000E+00  0.0000E+00  0.0000E+00  0.0000E+00  0.0000E+00  0.0000E+00  0.0000E+00  0.0000E+00  0.0000E+00
     -4.300  0.5978E-06  0.5832E-06  0.3158E-08  0.3077E-08  0.3558E-08  0.3468E-08  0.3158E-08  0.3077E-08  0.0000E+00  0.0000E+00  0.0000E+00  0.0000E+00  0.0000E+00  0.0000E+00  0.0000E+00  0.0000E+00  0.0000E+00  0.0000E+00
     -4.239  0.2061E-05  0.2011E-05  0.1177E-07  0.1147E-07  0.1511E-07  0.1473E-07  0.1177E-07  0.1147E-07  0.0000E+00  0.0000E+00  0.0000E+00  0.0000E+00  0.0000E+00  0.0000E+00  0.0000E+00  0.0000E+00  0.0000E+00  0.0000E+00
     -4.177  0.7322E-05  0.7143E-05  0.4932E-07  0.4805E-07  0.5925E-07  0.5775E-07  0.4932E-07  0.4805E-07  0.0000E+00  0.0000E+00  0.0000E+00  0.0000E+00  0.0000E+00  0.0000E+00  0.0000E+00  0.0000E+00  0.0000E+00  0.0000E+00
     -4.116  0.2473E-04  0.2413E-04  0.1704E-06  0.1661E-06  0.2081E-06  0.2028E-06  0.1704E-06  0.1661E-06  0.0000E+00  0.0000E+00  0.0000E+00  0.0000E+00  0.0000E+00  0.0000E+00  0.0000E+00  0.0000E+00  0.0000E+00  0.0000E+00
     -4.054  0.8058E-04  0.7873E-04  0.5599E-06  0.5459E-06  0.6889E-06  0.6719E-06  0.5599E-06  0.5459E-06  0.0000E+00  0.0000E+00  0.0000E+00  0.0000E+00  0.0000E+00  0.0000E+00  0.0000E+00  0.0000E+00  0.0000E+00  0.0000E+00
     -3.993  0.2437E-03  0.2388E-03  0.1826E-05  0.1783E-05  0.2241E-05  0.2189E-05  0.1826E-05  0.1783E-05  0.0000E+00  0.0000E+00  0.0000E+00  0.0000E+00  0.0000E+00  0.0000E+00  0.0000E+00  0.0000E+00  0.0000E+00  0.0000E+00
     -3.931  0.6118E-03  0.6025E-03  0.5256E-05  0.5149E-05  0.6443E-05  0.6314E-05  0.5256E-05  0.5149E-05  0.0000E+00  0.0000E+00  0.0000E+00  0.0000E+00  0.0000E+00  0.0000E+00  0.0000E+00  0.0000E+00  0.0000E+00  0.0000E+00
     -3.870  0.1161E-02  0.1150E-02  0.1250E-04  0.1230E-04  0.1549E-04  0.1525E-04  0.1250E-04  0.1230E-04  0.0000E+00  0.0000E+00  0.0000E+00  0.0000E+00  0.0000E+00  0.0000E+00  0.0000E+00  0.0000E+00  0.0000E+00  0.0000E+00
     -3.809  0.1694E-02  0.1686E-02  0.2453E-04  0.2423E-04  0.3088E-04  0.3050E-04  0.2453E-04  0.2423E-04  0.0000E+00  0.0000E+00  0.0000E+00  0.0000E+00  0.0000E+00  0.0000E+00  0.0000E+00  0.0000E+00  0.0000E+00  0.0000E+00
     -3.747  0.2204E-02  0.2196E-02  0.4307E-04  0.4264E-04  0.5241E-04  0.5195E-04  0.4307E-04  0.4264E-04  0.0000E+00  0.0000E+00  0.0000E+00  0.0000E+00  0.0000E+00  0.0000E+00  0.0000E+00  0.0000E+00  0.0000E+00  0.0000E+00
     -3.686  0.2599E-02  0.2597E-02  0.6375E-04  0.6340E-04  0.7585E-04  0.7540E-04  0.6375E-04  0.6340E-04  0.0000E+00  0.0000E+00  0.0000E+00  0.0000E+00  0.0000E+00  0.0000E+00  0.0000E+00  0.0000E+00  0.0000E+00  0.0000E+00
     -3.624  0.2726E-02  0.2726E-02  0.8130E-04  0.8092E-04  0.1056E-03  0.1048E-03  0.8130E-04  0.8092E-04  0.0000E+00  0.0000E+00  0.0000E+00  0.0000E+00  0.0000E+00  0.0000E+00  0.0000E+00  0.0000E+00  0.0000E+00  0.0000E+00
     -3.563  0.3018E-02  0.3012E-02  0.1099E-03  0.1092E-03  0.1485E-03  0.1478E-03  0.1099E-03  0.1092E-03  0.0000E+00  0.0000E+00  0.0000E+00  0.0000E+00  0.0000E+00  0.0000E+00  0.0000E+00  0.0000E+00  0.0000E+00  0.0000E+00
     -3.501  0.3355E-02  0.3355E-02  0.1483E-03  0.1476E-03  0.1792E-03  0.1789E-03  0.1483E-03  0.1476E-03  0.0000E+00  0.0000E+00  0.0000E+00  0.0000E+00  0.0000E+00  0.0000E+00  0.0000E+00  0.0000E+00  0.0000E+00  0.0000E+00
     -3.440  0.3481E-02  0.3483E-02  0.1809E-03  0.1804E-03  0.2065E-03  0.2058E-03  0.1809E-03  0.1804E-03  0.0000E+00  0.0000E+00  0.0000E+00  0.0000E+00  0.0000E+00  0.0000E+00  0.0000E+00  0.0000E+00  0.0000E+00  0.0000E+00
     -3.379  0.3604E-02  0.3607E-02  0.2079E-03  0.2074E-03  0.2629E-03  0.2618E-03  0.2079E-03  0.2074E-03  0.0000E+00  0.0000E+00  0.0000E+00  0.0000E+00  0.0000E+00  0.0000E+00  0.0000E+00  0.0000E+00  0.0000E+00  0.0000E+00
     -3.317  0.3665E-02  0.3673E-02  0.2322E-03  0.2319E-03  0.3196E-03  0.3188E-03  0.2322E-03  0.2319E-03  0.0000E+00  0.0000E+00  0.0000E+00  0.0000E+00  0.0000E+00  0.0000E+00  0.0000E+00  0.0000E+00  0.0000E+00  0.0000E+00
     -3.256  0.3579E-02  0.3586E-02  0.2544E-03  0.2537E-03  0.3631E-03  0.3624E-03  0.2544E-03  0.2537E-03  0.0000E+00  0.0000E+00  0.0000E+00  0.0000E+00  0.0000E+00  0.0000E+00  0.0000E+00  0.0000E+00  0.0000E+00  0.0000E+00
     -3.194  0.3821E-02  0.3818E-02  0.3174E-03  0.3156E-03  0.4164E-03  0.4155E-03  0.3174E-03  0.3156E-03  0.0000E+00  0.0000E+00  0.0000E+00  0.0000E+00  0.0000E+00  0.0000E+00  0.0000E+00  0.0000E+00  0.0000E+00  0.0000E+00
     -3.133  0.4213E-02  0.4217E-02  0.3959E-03  0.3948E-03  0.4747E-03  0.4741E-03  0.3959E-03  0.3948E-03  0.0000E+00  0.0000E+00  0.0000E+00  0.0000E+00  0.0000E+00  0.0000E+00  0.0000E+00  0.0000E+00  0.0000E+00  0.0000E+00
     -3.071  0.4173E-02  0.4186E-02  0.4319E-03  0.4316E-03  0.5043E-03  0.5042E-03  0.4319E-03  0.4316E-03  0.0000E+00  0.0000E+00  0.0000E+00  0.0000E+00  0.0000E+00  0.0000E+00  0.0000E+00  0.0000E+00  0.0000E+00  0.0000E+00
     -3.010  0.4072E-02  0.4082E-02  0.4564E-03  0.4562E-03  0.5705E-03  0.5685E-03  0.4564E-03  0.4562E-03  0.0000E+00  0.0000E+00  0.0000E+00  0.0000E+00  0.0000E+00  0.0000E+00  0.0000E+00  0.0000E+00  0.0000E+00  0.0000E+00
     -2.949  0.3972E-02  0.3986E-02  0.4586E-03  0.4591E-03  0.6989E-03  0.6968E-03  0.4586E-03  0.4591E-03  0.0000E+00  0.0000E+00  0.0000E+00  0.0000E+00  0.0000E+00  0.0000E+00  0.0000E+00  0.0000E+00  0.0000E+00  0.0000E+00
     -2.887  0.3807E-02  0.3816E-02  0.4691E-03  0.4682E-03  0.7911E-03  0.7904E-03  0.4691E-03  0.4682E-03  0.0000E+00  0.0000E+00  0.0000E+00  0.0000E+00  0.0000E+00  0.0000E+00  0.0000E+00  0.0000E+00  0.0000E+00  0.0000E+00
     -2.826  0.3962E-02  0.3964E-02  0.5623E-03  0.5596E-03  0.8433E-03  0.8432E-03  0.5623E-03  0.5596E-03  0.0000E+00  0.0000E+00  0.0000E+00  0.0000E+00  0.0000E+00  0.0000E+00  0.0000E+00  0.0000E+00  0.0000E+00  0.0000E+00
     -2.764  0.4254E-02  0.4260E-02  0.6964E-03  0.6939E-03  0.8736E-03  0.8739E-03  0.6964E-03  0.6939E-03  0.0000E+00  0.0000E+00  0.0000E+00  0.0000E+00  0.0000E+00  0.0000E+00  0.0000E+00  0.0000E+00  0.0000E+00  0.0000E+00
     -2.703  0.4269E-02  0.4283E-02  0.7763E-03  0.7757E-03  0.9299E-03  0.9280E-03  0.7763E-03  0.7757E-03  0.0000E+00  0.0000E+00  0.0000E+00  0.0000E+00  0.0000E+00  0.0000E+00  0.0000E+00  0.0000E+00  0.0000E+00  0.0000E+00
     -2.641  0.4164E-02  0.4177E-02  0.8086E-03  0.8083E-03  0.1130E-02  0.1125E-02  0.8086E-03  0.8083E-03  0.0000E+00  0.0000E+00  0.0000E+00  0.0000E+00  0.0000E+00  0.0000E+00  0.0000E+00  0.0000E+00  0.0000E+00  0.0000E+00
     -2.580  0.4043E-02  0.4060E-02  0.8163E-03  0.8172E-03  0.1369E-02  0.1366E-02  0.8163E-03  0.8172E-03  0.0000E+00  0.0000E+00  0.0000E+00  0.0000E+00  0.0000E+00  0.0000E+00  0.0000E+00  0.0000E+00  0.0000E+00  0.0000E+00
     -2.519  0.3753E-02  0.3768E-02  0.7994E-03  0.7995E-03  0.1510E-02  0.1508E-02  0.7994E-03  0.7995E-03  0.0000E+00  0.0000E+00  0.0000E+00  0.0000E+00  0.0000E+00  0.0000E+00  0.0000E+00  0.0000E+00  0.0000E+00  0.0000E+00
     -2.457  0.3705E-02  0.3714E-02  0.8683E-03  0.8664E-03  0.1647E-02  0.1646E-02  0.8683E-03  0.8664E-03  0.0000E+00  0.0000E+00  0.0000E+00  0.0000E+00  0.0000E+00  0.0000E+00  0.0000E+00  0.0000E+00  0.0000E+00  0.0000E+00
     -2.396  0.3614E-02  0.3630E-02  0.9444E-03  0.9437E-03  0.1635E-02  0.1640E-02  0.9444E-03  0.9437E-03  0.0000E+00  0.0000E+00  0.0000E+00  0.0000E+00  0.0000E+00  0.0000E+00  0.0000E+00  0.0000E+00  0.0000E+00  0.0000E+00
     -2.334  0.3375E-02  0.3385E-02  0.1027E-02  0.1024E-02  0.1537E-02  0.1538E-02  0.1027E-02  0.1024E-02  0.0000E+00  0.0000E+00  0.0000E+00  0.0000E+00  0.0000E+00  0.0000E+00  0.0000E+00  0.0000E+00  0.0000E+00  0.0000E+00
     -2.273  0.3489E-02  0.3492E-02  0.1216E-02  0.1212E-02  0.1748E-02  0.1742E-02  0.1216E-02  0.1212E-02  0.0000E+00  0.0000E+00  0.0000E+00  0.0000E+00  0.0000E+00  0.0000E+00  0.0000E+00  0.0000E+00  0.0000E+00  0.0000E+00
     -2.211  0.3610E-02  0.3620E-02  0.1373E-02  0.1371E-02  0.1947E-02  0.1949E-02  0.1373E-02  0.1371E-02  0.0000E+00  0.0000E+00  0.0000E+00  0.0000E+00  0.0000E+00  0.0000E+00  0.0000E+00  0.0000E+00  0.0000E+00  0.0000E+00
     -2.150  0.3408E-02  0.3425E-02  0.1423E-02  0.1424E-02  0.1831E-02  0.1838E-02  0.1423E-02  0.1424E-02  0.0000E+00  0.0000E+00  0.0000E+00  0.0000E+00  0.0000E+00  0.0000E+00  0.0000E+00  0.0000E+00  0.0000E+00  0.0000E+00
     -2.088  0.3155E-02  0.3169E-02  0.1479E-02  0.1478E-02  0.1734E-02  0.1736E-02  0.1479E-02  0.1478E-02  0.0000E+00  0.0000E+00  0.0000E+00  0.0000E+00  0.0000E+00  0.0000E+00  0.0000E+00  0.0000E+00  0.0000E+00  0.0000E+00
     -2.027  0.2879E-02  0.2896E-02  0.1540E-02  0.1540E-02  0.1728E-02  0.1731E-02  0.1540E-02  0.1540E-02  0.0000E+00  0.0000E+00  0.0000E+00  0.0000E+00  0.0000E+00  0.0000E+00  0.0000E+00  0.0000E+00  0.0000E+00  0.0000E+00
     -1.966  0.2488E-02  0.2502E-02  0.1554E-02  0.1553E-02  0.1713E-02  0.1713E-02  0.1554E-02  0.1553E-02  0.0000E+00  0.0000E+00  0.0000E+00  0.0000E+00  0.0000E+00  0.0000E+00  0.0000E+00  0.0000E+00  0.0000E+00  0.0000E+00
     -1.904  0.2405E-02  0.2408E-02  0.1762E-02  0.1754E-02  0.1926E-02  0.1921E-02  0.1762E-02  0.1754E-02  0.0000E+00  0.0000E+00  0.0000E+00  0.0000E+00  0.0000E+00  0.0000E+00  0.0000E+00  0.0000E+00  0.0000E+00  0.0000E+00
     -1.843  0.2410E-02  0.2418E-02  0.2056E-02  0.2052E-02  0.2103E-02  0.2106E-02  0.2056E-02  0.2052E-02  0.0000E+00  0.0000E+00  0.0000E+00  0.0000E+00  0.0000E+00  0.0000E+00  0.0000E+00  0.0000E+00  0.0000E+00  0.0000E+00
     -1.781  0.2156E-02  0.2168E-02  0.2183E-02  0.2183E-02  0.1958E-02  0.1966E-02  0.2183E-02  0.2183E-02  0.0000E+00  0.0000E+00  0.0000E+00  0.0000E+00  0.0000E+00  0.0000E+00  0.0000E+00  0.0000E+00  0.0000E+00  0.0000E+00
     -1.720  0.1807E-02  0.1821E-02  0.2098E-02  0.2107E-02  0.1756E-02  0.1765E-02  0.2098E-02  0.2107E-02  0.0000E+00  0.0000E+00  0.0000E+00  0.0000E+00  0.0000E+00  0.0000E+00  0.0000E+00  0.0000E+00  0.0000E+00  0.0000E+00