   8   8   1   0
  0.2008526E+02  0.4314984E-09  0.4314984E-09  0.8629968E-09  0.5000000E-15
  1.000000000000000E-004
  CAR 
 unknown system                          
     12.51691031     -4.95666512  301      4.54091663      1.00000000
     -4.957  0.0000E+00  0.0000E+00  0.0000E+00  0.0000E+00
     -4.898  0.0000E+00  0.0000E+00  0.0000E+00  0.0000E+00
     -4.840  0.0000E+00  0.0000E+00  0.0000E+00  0.0000E+00
     -4.782  0.0000E+00  0.0000E+00  0.0000E+00  0.0000E+00
     -4.724  0.0000E+00  0.0000E+00  0.0000E+00  0.0000E+00
     -4.665  0.0000E+00  0.0000E+00  0.0000E+00  0.0000E+00
     -4.607  0.1988E-05  0.1925E-05  0.1158E-06  0.1121E-06
     -4.549  0.2110E-04  0.2043E-04  0.1345E-05  0.1302E-05
     -4.491  0.1112E-03  0.1077E-03  0.7823E-05  0.7575E-05
     -4.432  0.3106E-03  0.3008E-03  0.2592E-04  0.2509E-04
     -4.374  0.1074E-02  0.1040E-02  0.8849E-04  0.8570E-04
     -4.316  0.3361E-02  0.3256E-02  0.2842E-03  0.2753E-03
     -4.258  0.1028E-01  0.9972E-02  0.8829E-03  0.8562E-03
     -4.199  0.2918E-01  0.2840E-01  0.2583E-02  0.2511E-02
     -4.141  0.6965E-01  0.6820E-01  0.6640E-02  0.6483E-02
     -4.083  0.1293E+00  0.1276E+00  0.1417E-01  0.1391E-01
     -4.025  0.1906E+00  0.1889E+00  0.2528E-01  0.2492E-01
     -3.966  0.2507E+00  0.2491E+00  0.3988E-01  0.3943E-01
     -3.908  0.2989E+00  0.2980E+00  0.5729E-01  0.5678E-01
     -3.850  0.3240E+00  0.3232E+00  0.7616E-01  0.7561E-01
     -3.792  0.3661E+00  0.3646E+00  0.9749E-01  0.9684E-01
     -3.734  0.4119E+00  0.4109E+00  0.1215E+00  0.1208E+00
     -3.675  0.4375E+00  0.4368E+00  0.1470E+00  0.1462E+00
     -3.617  0.4635E+00  0.4627E+00  0.1740E+00  0.1732E+00
     -3.559  0.4821E+00  0.4818E+00  0.2021E+00  0.2013E+00
     -3.501  0.4888E+00  0.4882E+00  0.2306E+00  0.2297E+00
     -3.442  0.5356E+00  0.5336E+00  0.2618E+00  0.2608E+00
     -3.384  0.5950E+00  0.5939E+00  0.2964E+00  0.2954E+00
     -3.326  0.6055E+00  0.6055E+00  0.3317E+00  0.3307E+00
     -3.268  0.6114E+00  0.6109E+00  0.3673E+00  0.3663E+00
     -3.209  0.6178E+00  0.6178E+00  0.4033E+00  0.4023E+00
     -3.151  0.6218E+00  0.6211E+00  0.4396E+00  0.4385E+00
     -3.093  0.6677E+00  0.6658E+00  0.4785E+00  0.4773E+00
     -3.035  0.7288E+00  0.7273E+00  0.5210E+00  0.5197E+00
     -2.976  0.7581E+00  0.7574E+00  0.5652E+00  0.5638E+00
     -2.918  0.7856E+00  0.7843E+00  0.6109E+00  0.6095E+00
     -2.860  0.8055E+00  0.8053E+00  0.6579E+00  0.6564E+00
     -2.802  0.8005E+00  0.8001E+00  0.7045E+00  0.7031E+00
     -2.743  0.8309E+00  0.8297E+00  0.7529E+00  0.7514E+00
     -2.685  0.8349E+00  0.8355E+00  0.8016E+00  0.8001E+00
     -2.627  0.8333E+00  0.8317E+00  0.8502E+00  0.8486E+00
     -2.569  0.9194E+00  0.9159E+00  0.9037E+00  0.9020E+00
     -2.510  0.9833E+00  0.9827E+00  0.9610E+00  0.9592E+00
     -2.452  0.9606E+00  0.9615E+00  0.1017E+01  0.1015E+01
     -2.394  0.9417E+00  0.9416E+00  0.1072E+01  0.1070E+01
     -2.336  0.9248E+00  0.9255E+00  0.1126E+01  0.1124E+01
     -2.277  0.9044E+00  0.9033E+00  0.1178E+01  0.1177E+01
     -2.219  0.9868E+00  0.9825E+00  0.1236E+01  0.1234E+01
     -2.161  0.1064E+01  0.1063E+01  0.1298E+01  0.1296E+01
     -2.103  0.1041E+01  0.1042E+01  0.1359E+01  0.1357E+01
     -2.044  0.9516E+00  0.9553E+00  0.1414E+01  0.1412E+01
     -1.986  0.8583E+00  0.8602E+00  0.1464E+01  0.1462E+01
     -1.928  0.8526E+00  0.8520E+00  0.1514E+01  0.1512E+01
     -1.870  0.8510E+00  0.8522E+00  0.1563E+01  0.1562E+01
     -1.811  0.7717E+00  0.7755E+00  0.1608E+01  0.1607E+01
     -1.753  0.6512E+00  0.6548E+00  0.1646E+01  0.1645E+01
     -1.695  0.5735E+00  0.5753E+00  0.1680E+01  0.1679E+01
     -1.637  0.5513E+00  0.5513E+00  0.1712E+01  0.1711E+01
     -1.578  0.5958E+00  0.5934E+00  0.1747E+01  0.1745E+01
     -1.520  0.6838E+00  0.6810E+00  0.1787E+01  0.1785E+01
     -1.462  0.7593E+00  0.7573E+00  0.1831E+01  0.1829E+01
     -1.404  0.8411E+00  0.8391E+00  0.1880E+01  0.1878E+01
     -1.345  0.9245E+00  0.9234E+00  0.1934E+01  0.1932E+01
     -1.287  0.9997E+00  0.9975E+00  0.1992E+01  0.1990E+01
     -1.229  0.1097E+01  0.1093E+01  0.2056E+01  0.2054E+01
     -1.171  0.1194E+01  0.1192E+01  0.2125E+01  0.2123E+01
     -1.112  0.1211E+01  0.1211E+01  0.2196E+01  0.2194E+01
     -1.054  0.1177E+01  0.1177E+01  0.2265E+01  0.2262E+01
     -0.996  0.1187E+01  0.1187E+01  0.2334E+01  0.2332E+01
     -0.938  0.1133E+01  0.1137E+01  0.2400E+01  0.2398E+01
     -0.879  0.1004E+01  0.1008E+01  0.2458E+01  0.2457E+01
     -0.821  0.9569E+00  0.9569E+00  0.2514E+01  0.2512E+01
     -0.763  0.1009E+01  0.1006E+01  0.2573E+01  0.2571E+01
     -0.705  0.1073E+01  0.1071E+01  0.2635E+01  0.2633E+01
     -0.647  0.1084E+01  0.1084E+01  0.2699E+01  0.2697E+01
     -0.588  0.1103E+01  0.1102E+01  0.2763E+01  0.2761E+01
     -0.530  0.1127E+01  0.1128E+01  0.2829E+01  0.2827E+01
     -0.472  0.1058E+01  0.1063E+01  0.2890E+01  0.2888E+01
     -0.414  0.9297E+00  0.9344E+00  0.2944E+01  0.2943E+01
     -0.355  0.8762E+00  0.8759E+00  0.2995E+01  0.2994E+01
     -0.297  0.9206E+00  0.9193E+00  0.3049E+01  0.3048E+01
     -0.239  0.9146E+00  0.9168E+00  0.3102E+01  0.3101E+01
     -0.181  0.7980E+00  0.8007E+00  0.3149E+01  0.3148E+01
     -0.122  0.7424E+00  0.7411E+00  0.3192E+01  0.3191E+01
     -0.064  0.8868E+00  0.8797E+00  0.3244E+01  0.3242E+01
     -0.006  0.1190E+01  0.1183E+01  0.3313E+01  0.3311E+01
      0.052  0.1378E+01  0.1379E+01  0.3394E+01  0.3391E+01
      0.111  0.1335E+01  0.1342E+01  0.3471E+01  0.3470E+01
      0.169  0.1280E+01  0.1285E+01  0.3546E+01  0.3545E+01
      0.227  0.1270E+01  0.1272E+01  0.3620E+01  0.3619E+01
      0.285  0.1209E+01  0.1208E+01  0.3690E+01  0.3689E+01
      0.344  0.1150E+01  0.1147E+01  0.3757E+01  0.3756E+01
      0.402  0.1127E+01  0.1127E+01  0.3823E+01  0.3822E+01
      0.460  0.1119E+01  0.1120E+01  0.3888E+01  0.3887E+01
      0.518  0.1207E+01  0.1204E+01  0.3959E+01  0.3957E+01
      0.577  0.1353E+01  0.1349E+01  0.4038E+01  0.4036E+01
      0.635  0.1436E+01  0.1434E+01  0.4121E+01  0.4119E+01
      0.693  0.1472E+01  0.1470E+01  0.4207E+01  0.4205E+01
      0.751  0.1418E+01  0.1420E+01  0.4290E+01  0.4288E+01
      0.810  0.1277E+01  0.1282E+01  0.4364E+01  0.4362E+01
      0.868  0.1178E+01  0.1182E+01  0.4433E+01  0.4431E+01
      0.926  0.1100E+01  0.1104E+01  0.4497E+01  0.4496E+01
      0.984  0.1014E+01  0.1015E+01  0.4556E+01  0.4555E+01
      1.043  0.1043E+01  0.1039E+01  0.4617E+01  0.4615E+01
      1.101  0.1167E+01  0.1163E+01  0.4685E+01  0.4683E+01
      1.159  0.1149E+01  0.1150E+01  0.4752E+01  0.4750E+01
      1.217  0.9818E+00  0.9840E+00  0.4809E+01  0.4807E+01
      1.276  0.8551E+00  0.8552E+00  0.4859E+01  0.4857E+01
      1.334  0.8541E+00  0.8529E+00  0.4909E+01  0.4907E+01
      1.392  0.1009E+01  0.1007E+01  0.4967E+01  0.4966E+01
      1.450  0.1289E+01  0.1287E+01  0.5042E+01  0.5041E+01
      1.509  0.1574E+01  0.1572E+01  0.5134E+01  0.5132E+01
      1.567  0.1771E+01  0.1768E+01  0.5237E+01  0.5235E+01
      1.625  0.1797E+01  0.1798E+01  0.5342E+01  0.5340E+01
      1.683  0.1623E+01  0.1628E+01  0.5437E+01  0.5435E+01
      1.742  0.1446E+01  0.1451E+01  0.5521E+01  0.5520E+01
      1.800  0.1394E+01  0.1397E+01  0.5602E+01  0.5601E+01
      1.858  0.1336E+01  0.1340E+01  0.5680E+01  0.5679E+01
      1.916  0.1232E+01  0.1233E+01  0.5752E+01  0.5751E+01
      1.975  0.1264E+01  0.1261E+01  0.5826E+01  0.5824E+01
      2.033  0.1461E+01  0.1458E+01  0.5911E+01  0.5909E+01
      2.091  0.1641E+01  0.1640E+01  0.6006E+01  0.6005E+01
      2.149  0.1678E+01  0.1678E+01  0.6104E+01  0.6103E+01
      2.208  0.1634E+01  0.1632E+01  0.6199E+01  0.6198E+01
      2.266  0.1545E+01  0.1546E+01  0.6289E+01  0.6288E+01
      2.324  0.1456E+01  0.1458E+01  0.6374E+01  0.6373E+01
      2.382  0.1421E+01  0.1424E+01  0.6457E+01  0.6456E+01
      2.440  0.1375E+01  0.1376E+01  0.6537E+01  0.6536E+01
      2.499  0.1350E+01  0.1347E+01  0.6616E+01  0.6615E+01
      2.557  0.1386E+01  0.1382E+01  0.6697E+01  0.6695E+01
      2.615  0.1459E+01  0.1460E+01  0.6782E+01  0.6780E+01
      2.673  0.1580E+01  0.1584E+01  0.6874E+01  0.6873E+01
      2.732  0.1723E+01  0.1725E+01  0.6974E+01  0.6973E+01
      2.790  0.1719E+01  0.1719E+01  0.7074E+01  0.7073E+01
      2.848  0.1740E+01  0.1737E+01  0.7176E+01  0.7174E+01
      2.906  0.1872E+01  0.1866E+01  0.7285E+01  0.7283E+01
      2.965  0.1926E+01  0.1922E+01  0.7397E+01  0.7395E+01
      3.023  0.1819E+01  0.1822E+01  0.7503E+01  0.7501E+01
      3.081  0.1632E+01  0.1636E+01  0.7598E+01  0.7597E+01
      3.139  0.1578E+01  0.1578E+01  0.7690E+01  0.7689E+01
      3.198  0.1712E+01  0.1709E+01  0.7790E+01  0.7788E+01
      3.256  0.1737E+01  0.1736E+01  0.7891E+01  0.7889E+01
      3.314  0.1562E+01  0.1563E+01  0.7982E+01  0.7981E+01
      3.372  0.1388E+01  0.1391E+01  0.8063E+01  0.8062E+01
      3.431  0.1327E+01  0.1330E+01  0.8141E+01  0.8139E+01
      3.489  0.1419E+01  0.1419E+01  0.8223E+01  0.8222E+01
      3.547  0.1632E+01  0.1631E+01  0.8318E+01  0.8317E+01
      3.605  0.1770E+01  0.1770E+01  0.8422E+01  0.8420E+01
      3.664  0.1825E+01  0.1825E+01  0.8528E+01  0.8526E+01
      3.722  0.1870E+01  0.1872E+01  0.8637E+01  0.8636E+01
      3.780  0.1884E+01  0.1887E+01  0.8747E+01  0.8745E+01
      3.838  0.1796E+01  0.1799E+01  0.8851E+01  0.8850E+01
      3.897  0.1676E+01  0.1676E+01  0.8949E+01  0.8948E+01
      3.955  0.1683E+01  0.1682E+01  0.9047E+01  0.9046E+01
      4.013  0.1764E+01  0.1764E+01  0.9150E+01  0.9149E+01
      4.071  0.1699E+01  0.1702E+01  0.9249E+01  0.9248E+01
      4.130  0.1438E+01  0.1441E+01  0.9333E+01  0.9332E+01
      4.188  0.1236E+01  0.1234E+01  0.9405E+01  0.9404E+01
      4.246  0.1249E+01  0.1244E+01  0.9478E+01  0.9477E+01
      4.304  0.1399E+01  0.1392E+01  0.9559E+01  0.9558E+01
      4.363  0.1669E+01  0.1663E+01  0.9657E+01  0.9655E+01
      4.421  0.1937E+01  0.1938E+01  0.9769E+01  0.9767E+01
      4.479  0.1992E+01  0.2000E+01  0.9886E+01  0.9884E+01
      4.537  0.1865E+01  0.1870E+01  0.9994E+01  0.9993E+01
      4.596  0.1670E+01  0.1672E+01  0.1009E+02  0.1009E+02
      4.654  0.1467E+01  0.1469E+01  0.1018E+02  0.1018E+02
      4.712  0.1332E+01  0.1333E+01  0.1025E+02  0.1025E+02
      4.770  0.1256E+01  0.1257E+01  0.1033E+02  0.1033E+02
      4.829  0.1246E+01  0.1249E+01  0.1040E+02  0.1040E+02
      4.887  0.1315E+01  0.1317E+01  0.1048E+02  0.1048E+02
      4.945  0.1411E+01  0.1410E+01  0.1056E+02  0.1056E+02
      5.003  0.1509E+01  0.1505E+01  0.1065E+02  0.1065E+02
      5.062  0.1684E+01  0.1677E+01  0.1075E+02  0.1074E+02
      5.120  0.1992E+01  0.1986E+01  0.1086E+02  0.1086E+02
      5.178  0.2153E+01  0.2153E+01  0.1099E+02  0.1099E+02
      5.236  0.2065E+01  0.2070E+01  0.1111E+02  0.1111E+02
      5.294  0.1911E+01  0.1914E+01  0.1122E+02  0.1122E+02
      5.353  0.1851E+01  0.1851E+01  0.1133E+02  0.1133E+02
      5.411  0.1779E+01  0.1779E+01  0.1143E+02  0.1143E+02
      5.469  0.1559E+01  0.1561E+01  0.1152E+02  0.1152E+02
      5.527  0.1393E+01  0.1393E+01  0.1160E+02  0.1160E+02
      5.586  0.1500E+01  0.1499E+01  0.1169E+02  0.1169E+02
      5.644  0.1732E+01  0.1733E+01  0.1179E+02  0.1179E+02
      5.702  0.1904E+01  0.1905E+01  0.1190E+02  0.1190E+02
      5.760  0.1970E+01  0.1970E+01  0.1202E+02  0.1202E+02
      5.819  0.1960E+01  0.1959E+01  0.1213E+02  0.1213E+02
      5.877  0.1932E+01  0.1930E+01  0.1224E+02  0.1224E+02
      5.935  0.1952E+01  0.1947E+01  0.1236E+02  0.1236E+02
      5.993  0.1952E+01  0.1951E+01  0.1247E+02  0.1247E+02
      6.052  0.1859E+01  0.1861E+01  0.1258E+02  0.1258E+02
      6.110  0.1818E+01  0.1820E+01  0.1269E+02  0.1268E+02
      6.168  0.1835E+01  0.1837E+01  0.1279E+02  0.1279E+02
      6.226  0.1748E+01  0.1751E+01  0.1289E+02  0.1289E+02
      6.285  0.1590E+01  0.1593E+01  0.1299E+02  0.1299E+02
      6.343  0.1552E+01  0.1553E+01  0.1308E+02  0.1308E+02
      6.401  0.1653E+01  0.1652E+01  0.1317E+02  0.1317E+02
      6.459  0.1796E+01  0.1794E+01  0.1328E+02  0.1328E+02
      6.518  0.1946E+01  0.1945E+01  0.1339E+02  0.1339E+02
      6.576  0.2017E+01  0.2019E+01  0.1351E+02  0.1351E+02
      6.634  0.1972E+01  0.1974E+01  0.1362E+02  0.1362E+02
      6.692  0.1917E+01  0.1917E+01  0.1374E+02  0.1374E+02
      6.751  0.1931E+01  0.1928E+01  0.1385E+02  0.1385E+02
      6.809  0.2059E+01  0.2057E+01  0.1397E+02  0.1397E+02
      6.867  0.2250E+01  0.2249E+01  0.1410E+02  0.1410E+02
      6.925  0.2309E+01  0.2309E+01  0.1423E+02  0.1423E+02
      6.984  0.2177E+01  0.2179E+01  0.1436E+02  0.1436E+02
      7.042  0.2018E+01  0.2022E+01  0.1448E+02  0.1448E+02
      7.100  0.1897E+01  0.1901E+01  0.1459E+02  0.1459E+02
      7.158  0.1907E+01  0.1908E+01  0.1470E+02  0.1470E+02
      7.217  0.2050E+01  0.2049E+01  0.1482E+02  0.1482E+02
      7.275  0.2101E+01  0.2098E+01  0.1494E+02  0.1494E+02
      7.333  0.2054E+01  0.2050E+01  0.1506E+02  0.1506E+02
      7.391  0.2054E+01  0.2051E+01  0.1518E+02  0.1518E+02
      7.450  0.2151E+01  0.2148E+01  0.1531E+02  0.1531E+02
      7.508  0.2209E+01  0.2209E+01  0.1544E+02  0.1543E+02
      7.566  0.2137E+01  0.2140E+01  0.1556E+02  0.1556E+02
      7.624  0.2010E+01  0.2010E+01  0.1568E+02  0.1568E+02
      7.683  0.2005E+01  0.2004E+01  0.1579E+02  0.1579E+02
      7.741  0.2095E+01  0.2093E+01  0.1592E+02  0.1592E+02
      7.799  0.2156E+01  0.2154E+01  0.1604E+02  0.1604E+02
      7.857  0.2204E+01  0.2205E+01  0.1617E+02  0.1617E+02
      7.916  0.2169E+01  0.2170E+01  0.1630E+02  0.1630E+02
      7.974  0.2150E+01  0.2149E+01  0.1642E+02  0.1642E+02
      8.032  0.2249E+01  0.2246E+01  0.1655E+02  0.1655E+02
      8.090  0.2395E+01  0.2393E+01  0.1669E+02  0.1669E+02
      8.149  0.2416E+01  0.2417E+01  0.1683E+02  0.1683E+02
      8.207  0.2261E+01  0.2263E+01  0.1697E+02  0.1696E+02
      8.265  0.2110E+01  0.2111E+01  0.1709E+02  0.1709E+02
      8.323  0.2083E+01  0.2083E+01  0.1721E+02  0.1721E+02
      8.381  0.2071E+01  0.2072E+01  0.1733E+02  0.1733E+02
      8.440  0.2007E+01  0.2007E+01  0.1745E+02  0.1745E+02
      8.498  0.1928E+01  0.1928E+01  0.1756E+02  0.1756E+02
      8.556  0.1857E+01  0.1859E+01  0.1767E+02  0.1767E+02
      8.614  0.1793E+01  0.1795E+01  0.1777E+02  0.1777E+02
      8.673  0.1701E+01  0.1703E+01  0.1787E+02  0.1787E+02
      8.731  0.1595E+01  0.1599E+01  0.1796E+02  0.1796E+02
      8.789  0.1592E+01  0.1593E+01  0.1806E+02  0.1806E+02
      8.847  0.1836E+01  0.1822E+01  0.1816E+02  0.1816E+02
      8.906  0.2209E+01  0.2167E+01  0.1829E+02  0.1829E+02
      8.964  0.2324E+01  0.2265E+01  0.1843E+02  0.1842E+02
      9.022  0.2215E+01  0.2182E+01  0.1856E+02  0.1855E+02
      9.080  0.2074E+01  0.2102E+01  0.1868E+02  0.1867E+02
      9.139  0.1824E+01  0.1890E+01  0.1878E+02  0.1878E+02
      9.197  0.1610E+01  0.1663E+01  0.1888E+02  0.1888E+02
      9.255  0.1516E+01  0.1535E+01  0.1897E+02  0.1897E+02
      9.313  0.1384E+01  0.1382E+01  0.1905E+02  0.1905E+02
      9.372  0.1291E+01  0.1277E+01  0.1912E+02  0.1912E+02
      9.430  0.1261E+01  0.1244E+01  0.1920E+02  0.1920E+02
      9.488  0.1189E+01  0.1181E+01  0.1927E+02  0.1926E+02
      9.546  0.1037E+01  0.1022E+01  0.1933E+02  0.1932E+02
      9.605  0.9059E+00  0.8643E+00  0.1938E+02  0.1937E+02
      9.663  0.8021E+00  0.7616E+00  0.1943E+02  0.1942E+02
      9.721  0.6957E+00  0.7039E+00  0.1947E+02  0.1946E+02
      9.779  0.6407E+00  0.6886E+00  0.1950E+02  0.1950E+02
      9.838  0.6400E+00  0.6809E+00  0.1954E+02  0.1954E+02
      9.896  0.5985E+00  0.6185E+00  0.1958E+02  0.1958E+02
      9.954  0.4937E+00  0.5044E+00  0.1960E+02  0.1960E+02
     10.012  0.4257E+00  0.4350E+00  0.1963E+02  0.1963E+02
     10.071  0.4241E+00  0.4307E+00  0.1965E+02  0.1966E+02
     10.129  0.4073E+00  0.4023E+00  0.1968E+02  0.1968E+02
     10.187  0.3238E+00  0.3112E+00  0.1970E+02  0.1970E+02
     10.245  0.2684E+00  0.2580E+00  0.1971E+02  0.1971E+02
     10.304  0.2967E+00  0.2985E+00  0.1973E+02  0.1973E+02
     10.362  0.3467E+00  0.3582E+00  0.1975E+02  0.1975E+02
     10.420  0.4046E+00  0.4122E+00  0.1977E+02  0.1977E+02
     10.478  0.4333E+00  0.4329E+00  0.1980E+02  0.1980E+02
     10.537  0.3971E+00  0.3899E+00  0.1982E+02  0.1982E+02
     10.595  0.3409E+00  0.3289E+00  0.1984E+02  0.1984E+02
     10.653  0.3178E+00  0.3073E+00  0.1986E+02  0.1986E+02
     10.711  0.3450E+00  0.3461E+00  0.1988E+02  0.1988E+02
     10.770  0.3614E+00  0.3693E+00  0.1990E+02  0.1990E+02
     10.828  0.2822E+00  0.2892E+00  0.1992E+02  0.1992E+02
     10.886  0.1527E+00  0.1574E+00  0.1993E+02  0.1993E+02
     10.944  0.6409E-01  0.6627E-01  0.1993E+02  0.1993E+02
     11.003  0.3121E-01  0.3193E-01  0.1993E+02  0.1993E+02
     11.061  0.3792E-01  0.3811E-01  0.1993E+02  0.1993E+02
     11.119  0.8213E-01  0.8172E-01  0.1994E+02  0.1994E+02
     11.177  0.1478E+00  0.1472E+00  0.1995E+02  0.1995E+02
     11.236  0.1651E+00  0.1650E+00  0.1996E+02  0.1996E+02
     11.294  0.1223E+00  0.1223E+00  0.1997E+02  0.1997E+02
     11.352  0.9242E-01  0.9244E-01  0.1997E+02  0.1997E+02
     11.410  0.7936E-01  0.7990E-01  0.1998E+02  0.1998E+02
     11.468  0.5800E-01  0.5840E-01  0.1998E+02  0.1998E+02
     11.527  0.4671E-01  0.4667E-01  0.1998E+02  0.1998E+02
     11.585  0.6200E-01  0.6205E-01  0.1998E+02  0.1998E+02
     11.643  0.8097E-01  0.8231E-01  0.1999E+02  0.1999E+02
     11.701  0.7509E-01  0.7713E-01  0.1999E+02  0.1999E+02
     11.760  0.5484E-01  0.5486E-01  0.2000E+02  0.2000E+02
     11.818  0.3033E-01  0.2894E-01  0.2000E+02  0.2000E+02
     11.876  0.1246E-01  0.1151E-01  0.2000E+02  0.2000E+02
     11.934  0.4305E-02  0.3927E-02  0.2000E+02  0.2000E+02
     11.993  0.1390E-02  0.1262E-02  0.2000E+02  0.2000E+02
     12.051  0.3583E-03  0.3154E-03  0.2000E+02  0.2000E+02
     12.109  0.1122E-03  0.9874E-04  0.2000E+02  0.2000E+02
     12.167  0.0000E+00  0.0000E+00  0.2000E+02  0.2000E+02
     12.226  0.0000E+00  0.0000E+00  0.2000E+02  0.2000E+02
     12.284  0.0000E+00  0.0000E+00  0.2000E+02  0.2000E+02
     12.342  0.0000E+00  0.0000E+00  0.2000E+02  0.2000E+02
     12.400  0.0000E+00  0.0000E+00  0.2000E+02  0.2000E+02
     12.459  0.0000E+00  0.0000E+00  0.2000E+02  0.2000E+02
     12.517  0.0000E+00  0.0000E+00  0.2000E+02  0.2000E+02
     12.51691031     -4.95666512  301      4.54091663      1.00000000
     -4.957  0.0000E+00  0.0000E+00  0.0000E+00  0.0000E+00  0.0000E+00  0.0000E+00  0.0000E+00  0.0000E+00  0.0000E+00  0.0000E+00  0.0000E+00  0.0000E+00  0.0000E+00  0.0000E+00  0.0000E+00  0.0000E+00  0.0000E+00  0.0000E+00
     -4.898  0.0000E+00  0.0000E+00  0.0000E+00  0.0000E+00  0.0000E+00  0.0000E+00  0.0000E+00  0.0000E+00  0.0000E+00  0.0000E+00  0.0000E+00  0.0000E+00  0.0000E+00  0.0000E+00  0.0000E+00  0.0000E+00  0.0000E+00  0.0000E+00
     -4.840  0.0000E+00  0.0000E+00  0.0000E+00  0.0000E+00  0.0000E+00  0.0000E+00  0.0000E+00  0.0000E+00  0.0000E+00  0.0000E+00  0.0000E+00  0.0000E+00  0.0000E+00  0.0000E+00  0.0000E+00  0.0000E+00  0.0000E+00  0.0000E+00
     -4.782  0.0000E+00  0.0000E+00  0.0000E+00  0.0000E+00  0.0000E+00  0.0000E+00  0.0000E+00  0.0000E+00  0.0000E+00  0.0000E+00  0.0000E+00  0.0000E+00  0.0000E+00  0.0000E+00  0.0000E+00  0.0000E+00  0.0000E+00  0.0000E+00
     -4.724  0.0000E+00  0.0000E+00  0.0000E+00  0.0000E+00  0.0000E+00  0.0000E+00  0.0000E+00  0.0000E+00  0.0000E+00  0.0000E+00  0.0000E+00  0.0000E+00  0.0000E+00  0.0000E+00  0.0000E+00  0.0000E+00  0.0000E+00  0.0000E+00
     -4.665  0.0000E+00  0.0000E+00  0.0000E+00  0.0000E+00  0.0000E+00  0.0000E+00  0.0000E+00  0.0000E+00  0.0000E+00  0.0000E+00  0.0000E+00  0.0000E+00  0.0000E+00  0.0000E+00  0.0000E+00  0.0000E+00  0.0000E+00  0.0000E+00
     -4.607  0.1704E-07  0.1653E-07  0.2235E-21  0.5452E-21  0.4187E-20  0.3015E-19  0.2235E-21  0.5452E-21  0.0000E+00  0.0000E+00  0.0000E+00  0.0000E+00  0.0000E+00  0.0000E+00  0.0000E+00  0.0000E+00  0.0000E+00  0.0000E+00
     -4.549  0.1790E-06  0.1737E-06  0.5538E-09  0.5372E-09  0.6494E-09  0.6299E-09  0.5538E-09  0.5372E-09  0.0000E+00  0.0000E+00  0.0000E+00  0.0000E+00  0.0000E+00  0.0000E+00  0.0000E+00  0.0000E+00  0.0000E+00  0.0000E+00
     -4.491  0.9353E-06  0.9070E-06  0.5780E-08  0.5607E-08  0.6309E-08  0.6121E-08  0.5780E-08  0.5607E-08  0.0000E+00  0.0000E+00  0.0000E+00  0.0000E+00  0.0000E+00  0.0000E+00  0.0000E+00  0.0000E+00  0.0000E+00  0.0000E+00
     -4.432  0.2612E-05  0.2533E-05  0.1561E-07  0.1514E-07  0.1834E-07  0.1778E-07  0.1561E-07  0.1514E-07  0.0000E+00  0.0000E+00  0.0000E+00  0.0000E+00  0.0000E+00  0.0000E+00  0.0000E+00  0.0000E+00  0.0000E+00  0.0000E+00
     -4.374  0.8998E-05  0.8728E-05  0.6226E-07  0.6038E-07  0.8073E-07  0.7828E-07  0.6226E-07  0.6038E-07  0.0000E+00  0.0000E+00  0.0000E+00  0.0000E+00  0.0000E+00  0.0000E+00  0.0000E+00  0.0000E+00  0.0000E+00  0.0000E+00
     -4.316  0.2815E-04  0.2732E-04  0.2009E-06  0.1948E-06  0.2386E-06  0.2314E-06  0.2009E-06  0.1948E-06  0.0000E+00  0.0000E+00  0.0000E+00  0.0000E+00  0.0000E+00  0.0000E+00  0.0000E+00  0.0000E+00  0.0000E+00  0.0000E+00
     -4.258  0.8605E-04  0.8362E-04  0.6225E-06  0.6042E-06  0.7588E-06  0.7363E-06  0.6225E-06  0.6042E-06  0.0000E+00  0.0000E+00  0.0000E+00  0.0000E+00  0.0000E+00  0.0000E+00  0.0000E+00  0.0000E+00  0.0000E+00  0.0000E+00
     -4.199  0.2438E-03  0.2377E-03  0.1899E-05  0.1846E-05  0.2338E-05  0.2273E-05  0.1899E-05  0.1846E-05  0.0000E+00  0.0000E+00  0.0000E+00  0.0000E+00  0.0000E+00  0.0000E+00  0.0000E+00  0.0000E+00  0.0000E+00  0.0000E+00
     -4.141  0.5799E-03  0.5688E-03  0.5169E-05  0.5045E-05  0.6294E-05  0.6140E-05  0.5169E-05  0.5045E-05  0.0000E+00  0.0000E+00  0.0000E+00  0.0000E+00  0.0000E+00  0.0000E+00  0.0000E+00  0.0000E+00  0.0000E+00  0.0000E+00
     -4.083  0.1069E-02  0.1056E-02  0.1180E-04  0.1158E-04  0.1457E-04  0.1429E-04  0.1180E-04  0.1158E-04  0.0000E+00  0.0000E+00  0.0000E+00  0.0000E+00  0.0000E+00  0.0000E+00  0.0000E+00  0.0000E+00  0.0000E+00  0.0000E+00
     -4.025  0.1556E-02  0.1546E-02  0.2282E-04  0.2247E-04  0.2844E-04  0.2799E-04  0.2282E-04  0.2247E-04  0.0000E+00  0.0000E+00  0.0000E+00  0.0000E+00  0.0000E+00  0.0000E+00  0.0000E+00  0.0000E+00  0.0000E+00  0.0000E+00
     -3.966  0.2017E-02  0.2008E-02  0.3927E-04  0.3877E-04  0.4752E-04  0.4695E-04  0.3927E-04  0.3877E-04  0.0000E+00  0.0000E+00  0.0000E+00  0.0000E+00  0.0000E+00  0.0000E+00  0.0000E+00  0.0000E+00  0.0000E+00  0.0000E+00
     -3.908  0.2368E-02  0.2366E-02  0.5760E-04  0.5714E-04  0.6891E-04  0.6827E-04  0.5760E-04  0.5714E-04  0.0000E+00  0.0000E+00  0.0000E+00  0.0000E+00  0.0000E+00  0.0000E+00  0.0000E+00  0.0000E+00  0.0000E+00  0.0000E+00
     -3.850  0.2516E-02  0.2517E-02  0.7453E-04  0.7400E-04  0.9619E-04  0.9521E-04  0.7453E-04  0.7400E-04  0.0000E+00  0.0000E+00  0.0000E+00  0.0000E+00  0.0000E+00  0.0000E+00  0.0000E+00  0.0000E+00  0.0000E+00  0.0000E+00
     -3.792  0.2780E-02  0.2776E-02  0.1005E-03  0.9958E-04  0.1331E-03  0.1320E-03  0.1005E-03  0.9958E-04  0.0000E+00  0.0000E+00  0.0000E+00  0.0000E+00  0.0000E+00  0.0000E+00  0.0000E+00  0.0000E+00  0.0000E+00  0.0000E+00
     -3.734  0.3071E-02  0.3071E-02  0.1340E-03  0.1331E-03  0.1611E-03  0.1604E-03  0.1340E-03  0.1331E-03  0.0000E+00  0.0000E+00  0.0000E+00  0.0000E+00  0.0000E+00  0.0000E+00  0.0000E+00  0.0000E+00  0.0000E+00  0.0000E+00
     -3.675  0.3198E-02  0.3200E-02  0.1631E-03  0.1624E-03  0.1883E-03  0.1872E-03  0.1631E-03  0.1624E-03  0.0000E+00  0.0000E+00  0.0000E+00  0.0000E+00  0.0000E+00  0.0000E+00  0.0000E+00  0.0000E+00  0.0000E+00  0.0000E+00
     -3.617  0.3309E-02  0.3311E-02  0.1878E-03  0.1872E-03  0.2373E-03  0.2357E-03  0.1878E-03  0.1872E-03  0.0000E+00  0.0000E+00  0.0000E+00  0.0000E+00  0.0000E+00  0.0000E+00  0.0000E+00  0.0000E+00  0.0000E+00  0.0000E+00
     -3.559  0.3360E-02  0.3366E-02  0.2101E-03  0.2096E-03  0.2870E-03  0.2857E-03  0.2101E-03  0.2096E-03  0.0000E+00  0.0000E+00  0.0000E+00  0.0000E+00  0.0000E+00  0.0000E+00  0.0000E+00  0.0000E+00  0.0000E+00  0.0000E+00
     -3.501  0.3316E-02  0.3319E-02  0.2337E-03  0.2327E-03  0.3276E-03  0.3264E-03  0.2337E-03  0.2327E-03  0.0000E+00  0.0000E+00  0.0000E+00  0.0000E+00  0.0000E+00  0.0000E+00  0.0000E+00  0.0000E+00  0.0000E+00  0.0000E+00
     -3.442  0.3538E-02  0.3532E-02  0.2900E-03  0.2880E-03  0.3758E-03  0.3743E-03  0.2900E-03  0.2880E-03  0.0000E+00  0.0000E+00  0.0000E+00  0.0000E+00  0.0000E+00  0.0000E+00  0.0000E+00  0.0000E+00  0.0000E+00  0.0000E+00
     -3.384  0.3847E-02  0.3847E-02  0.3556E-03  0.3542E-03  0.4256E-03  0.4245E-03  0.3556E-03  0.3542E-03  0.0000E+00  0.0000E+00  0.0000E+00  0.0000E+00  0.0000E+00  0.0000E+00  0.0000E+00  0.0000E+00  0.0000E+00  0.0000E+00
     -3.326  0.3823E-02  0.3831E-02  0.3889E-03  0.3884E-03  0.4568E-03  0.4559E-03  0.3889E-03  0.3884E-03  0.0000E+00  0.0000E+00  0.0000E+00  0.0000E+00  0.0000E+00  0.0000E+00  0.0000E+00  0.0000E+00  0.0000E+00  0.0000E+00
     -3.268  0.3741E-02  0.3745E-02  0.4104E-03  0.4101E-03  0.5207E-03  0.5180E-03  0.4104E-03  0.4101E-03  0.0000E+00  0.0000E+00  0.0000E+00  0.0000E+00  0.0000E+00  0.0000E+00  0.0000E+00  0.0000E+00  0.0000E+00  0.0000E+00
     -3.209  0.3642E-02  0.3648E-02  0.4145E-03  0.4146E-03  0.6291E-03  0.6263E-03  0.4145E-03  0.4146E-03  0.0000E+00  0.0000E+00  0.0000E+00  0.0000E+00  0.0000E+00  0.0000E+00  0.0000E+00  0.0000E+00  0.0000E+00  0.0000E+00
     -3.151  0.3527E-02  0.3529E-02  0.4323E-03  0.4310E-03  0.7097E-03  0.7082E-03  0.4323E-03  0.4310E-03  0.0000E+00  0.0000E+00  0.0000E+00  0.0000E+00  0.0000E+00  0.0000E+00  0.0000E+00  0.0000E+00  0.0000E+00  0.0000E+00
     -3.093  0.3671E-02  0.3665E-02  0.5172E-03  0.5140E-03  0.7570E-03  0.7563E-03  0.5172E-03  0.5140E-03  0.0000E+00  0.0000E+00  0.0000E+00  0.0000E+00  0.0000E+00  0.0000E+00  0.0000E+00  0.0000E+00  0.0000E+00  0.0000E+00
     -3.035  0.3900E-02  0.3899E-02  0.6302E-03  0.6274E-03  0.7888E-03  0.7883E-03  0.6302E-03  0.6274E-03  0.0000E+00  0.0000E+00  0.0000E+00  0.0000E+00  0.0000E+00  0.0000E+00  0.0000E+00  0.0000E+00  0.0000E+00  0.0000E+00
     -2.976  0.3904E-02  0.3910E-02  0.6978E-03  0.6968E-03  0.8534E-03  0.8505E-03  0.6978E-03  0.6968E-03  0.0000E+00  0.0000E+00  0.0000E+00  0.0000E+00  0.0000E+00  0.0000E+00  0.0000E+00  0.0000E+00  0.0000E+00  0.0000E+00
     -2.918  0.3816E-02  0.3820E-02  0.7277E-03  0.7272E-03  0.1032E-02  0.1026E-02  0.7277E-03  0.7272E-03  0.0000E+00  0.0000E+00  0.0000E+00  0.0000E+00  0.0000E+00  0.0000E+00  0.0000E+00  0.0000E+00  0.0000E+00  0.0000E+00
     -2.860  0.3684E-02  0.3694E-02  0.7331E-03  0.7337E-03  0.1232E-02  0.1228E-02  0.7331E-03  0.7337E-03  0.0000E+00  0.0000E+00  0.0000E+00  0.0000E+00  0.0000E+00  0.0000E+00  0.0000E+00  0.0000E+00  0.0000E+00  0.0000E+00
     -2.802  0.3449E-02  0.3458E-02  0.7293E-03  0.7288E-03  0.1361E-02  0.1359E-02  0.7293E-03  0.7288E-03  0.0000E+00  0.0000E+00  0.0000E+00  0.0000E+00  0.0000E+00  0.0000E+00  0.0000E+00  0.0000E+00  0.0000E+00  0.0000E+00
     -2.743  0.3396E-02  0.3403E-02  0.7916E-03  0.7895E-03  0.1471E-02  0.1470E-02  0.7916E-03  0.7895E-03  0.0000E+00  0.0000E+00  0.0000E+00  0.0000E+00  0.0000E+00  0.0000E+00  0.0000E+00  0.0000E+00  0.0000E+00  0.0000E+00
     -2.685  0.3285E-02  0.3299E-02  0.8588E-03  0.8574E-03  0.1452E-02  0.1457E-02  0.8588E-03  0.8574E-03  0.0000E+00  0.0000E+00  0.0000E+00  0.0000E+00  0.0000E+00  0.0000E+00  0.0000E+00  0.0000E+00  0.0000E+00  0.0000E+00
     -2.627  0.3112E-02  0.3121E-02  0.9470E-03  0.9432E-03  0.1406E-02  0.1405E-02  0.9470E-03  0.9432E-03  0.0000E+00  0.0000E+00  0.0000E+00  0.0000E+00  0.0000E+00  0.0000E+00  0.0000E+00  0.0000E+00  0.0000E+00  0.0000E+00
     -2.569  0.3208E-02  0.3210E-02  0.1111E-02  0.1106E-02  0.1587E-02  0.1582E-02  0.1111E-02  0.1106E-02  0.0000E+00  0.0000E+00  0.0000E+00  0.0000E+00  0.0000E+00  0.0000E+00  0.0000E+00  0.0000E+00  0.0000E+00  0.0000E+00
     -2.510  0.3269E-02  0.3280E-02  0.1239E-02  0.1237E-02  0.1722E-02  0.1724E-02  0.1239E-02  0.1237E-02  0.0000E+00  0.0000E+00  0.0000E+00  0.0000E+00  0.0000E+00  0.0000E+00  0.0000E+00  0.0000E+00  0.0000E+00  0.0000E+00
     -2.452  0.3080E-02  0.3096E-02  0.1287E-02  0.1287E-02  0.1626E-02  0.1632E-02  0.1287E-02  0.1287E-02  0.0000E+00  0.0000E+00  0.0000E+00  0.0000E+00  0.0000E+00  0.0000E+00  0.0000E+00  0.0000E+00  0.0000E+00  0.0000E+00
     -2.394  0.2854E-02  0.2869E-02  0.1343E-02  0.1342E-02  0.1560E-02  0.1562E-02  0.1343E-02  0.1342E-02  0.0000E+00  0.0000E+00  0.0000E+00  0.0000E+00  0.0000E+00  0.0000E+00  0.0000E+00  0.0000E+00  0.0000E+00  0.0000E+00
     -2.336  0.2580E-02  0.2599E-02  0.1391E-02  0.1392E-02  0.1547E-02  0.1550E-02  0.1391E-02  0.1392E-02  0.0000E+00  0.0000E+00  0.0000E+00  0.0000E+00  0.0000E+00  0.0000E+00  0.0000E+00  0.0000E+00  0.0000E+00  0.0000E+00
     -2.277  0.2261E-02  0.2274E-02  0.1430E-02  0.1428E-02  0.1561E-02  0.1560E-02  0.1430E-02  0.1428E-02  0.0000E+00  0.0000E+00  0.0000E+00  0.0000E+00  0.0000E+00  0.0000E+00  0.0000E+00  0.0000E+00  0.0000E+00  0.0000E+00
     -2.219  0.2201E-02  0.2205E-02  0.1633E-02  0.1625E-02  0.1748E-02  0.1743E-02  0.1633E-02  0.1625E-02  0.0000E+00  0.0000E+00  0.0000E+00  0.0000E+00  0.0000E+00  0.0000E+00  0.0000E+00  0.0000E+00  0.0000E+00  0.0000E+00
     -2.161  0.2154E-02  0.2165E-02  0.1864E-02  0.1860E-02  0.1849E-02  0.1853E-02  0.1864E-02  0.1860E-02  0.0000E+00  0.0000E+00  0.0000E+00  0.0000E+00  0.0000E+00  0.0000E+00  0.0000E+00  0.0000E+00  0.0000E+00  0.0000E+00
     -2.103  0.1910E-02  0.1925E-02  0.1948E-02  0.1950E-02  0.1715E-02  0.1724E-02  0.1948E-02  0.1950E-02  0.0000E+00  0.0000E+00  0.0000E+00  0.0000E+00  0.0000E+00  0.0000E+00  0.0000E+00  0.0000E+00  0.0000E+00  0.0000E+00
     -2.044  0.1595E-02  0.1611E-02  0.1846E-02  0.1854E-02  0.1540E-02  0.1548E-02  0.1846E-02  0.1854E-02  0.0000E+00  0.0000E+00  0.0000E+00  0.0000E+00  0.0000E+00  0.0000E+00  0.0000E+00  0.0000E+00  0.0000E+00  0.0000E+00