 vasp.6.4.1 05Apr23 (build Jul 24 2024 14:19:02) complex                         
 executed on             LinuxGNU date 2024.10.23  15:51:49
 running    1 mpi-ranks, with   24 threads/rank, on    1 nodes
 distrk:  each k-point on    1 cores,    1 groups
 distr:  one band on NCORE=   1 cores,    1 groups


--------------------------------------------------------------------------------------------------------


 INCAR:
   ISTART = 0
   ALGO = Fast
   EDIFF = 0.0001
   ENCUT = 520
   IBRION = -1
   ISIF = 2
   ISMEAR = -5
   ISPIN = 2
   LASPH = True
   LMAXMIX = 6
   LORBIT = 11
   LREAL = Auto
   LWAVE = False
   MAGMOM = 2*0.6
   NELM = 100
   NSW = 0
   PREC = Accurate
   SIGMA = 0.05

 POTCAR:    PAW_PBE Nb_pv 08Apr2002               
 POTCAR:    PAW_PBE Nb_pv 08Apr2002               
   SHA256 =  bac2b60850b34f8515cf56f9feae68b678e347865051052a0e1f5d2c6a691c0a Nb_pv/POTCAR          
   COPYR  = (c) Copyright 08Apr2002 Georg Kresse                                                    
   COPYR  = This file is part of the software VASP. Any use, copying, and all other rights are regul
   COPYR  = If you do not have a valid VASP license, you may not use, copy or distribute this file. 
   VRHFIN =Nb: 4p5s4d                                                                               
   LEXCH  = PE                                                                                      
   EATOM  =  1043.3917 eV,   76.6871 Ry                                                             
                                                                                                    
   TITEL  = PAW_PBE Nb_pv 08Apr2002                                                                 
   LULTRA =        F    use ultrasoft PP ?                                                          
   IUNSCR =        1    unscreen: 0-lin 1-nonlin 2-no                                               
   RPACOR =    2.200    partial core radius                                                         
   POMASS =   92.000; ZVAL   =   11.000    mass and valenz                                          
   RCORE  =    2.750    outmost cutoff radius                                                       
   RWIGS  =    2.840; RWIGS  =    1.503    wigner-seitz radius (au A)                               
   ENMAX  =  208.608; ENMIN  =  156.456 eV                                                          
   RCLOC  =    2.201    cutoff for local pot                                                        
   LCOR   =        T    correct aug charges                                                         
   LPAW   =        T    paw PP                                                                      
   EAUG   =  355.067                                                                                
   DEXC   =    0.000                                                                                
   RMAX   =    2.804    core radius for proj-oper                                                   
   RAUG   =    1.300    factor for augmentation sphere                                              
   RDEP   =    2.776    radius for radial grids                                                     
   RDEPT  =    2.198    core radius for aug-charge                                                  
                                                                                                    
   Atomic configuration                                                                             
   11 entries                                                                                       
     n  l   j            E        occ.                                                              
     1  0  0.50    -18805.2456   2.0000                                                             
     2  0  0.50     -2630.2869   2.0000                                                             
     2  1  1.50     -2348.4045   6.0000                                                             
     3  0  0.50      -438.8756   2.0000                                                             
     3  1  1.50      -346.7587   6.0000                                                             
     3  2  2.50      -196.2559  10.0000                                                             
     4  0  0.50       -58.3859   2.0000                                                             
     4  1  1.50       -34.5141   6.0000                                                             
     4  2  2.50        -3.0408   4.0000                                                             
     5  0  0.50        -3.9816   1.0000                                                             
     4  3  2.50        -1.3606   0.0000                                                             
   Description                                                                                      
     l       E           TYP  RCUT    TYP  RCUT                                                     
     1    -34.5140617     23  2.600                                                                 
     1     -1.3605826     23  2.600                                                                 
     2     -3.0407924     23  2.600                                                                 
     2     -1.4463597     23  2.600                                                                 
     0     -3.9816219     23  2.750                                                                 
     0     20.4087390     23  2.750                                                                 
  local pseudopotential read in
  partial core-charges read in
  partial kinetic energy density read in
  atomic valenz-charges read in
  non local Contribution for L=           1  read in
    real space projection operators read in
  non local Contribution for L=           1  read in
    real space projection operators read in
  non local Contribution for L=           2  read in
    real space projection operators read in
  non local Contribution for L=           2  read in
    real space projection operators read in
  non local Contribution for L=           0  read in
    real space projection operators read in
  non local Contribution for L=           0  read in
    real space projection operators read in
    PAW grid and wavefunctions read in

   number of l-projection  operators is LMAX  =           6
   number of lm-projection operators is LMMAX =          18

 -----------------------------------------------------------------------------
|                                                                             |
|               ----> ADVICE to this user running VASP <----                  |
|                                                                             |
|     You have a (more or less) 'small supercell' and for smaller cells       |
|     it is recommended to use the reciprocal-space projection scheme!        |
|     The real-space optimization is not efficient for small cells and it     |
|     is also less accurate ...                                               |
|     Therefore, set LREAL=.FALSE. in the INCAR file.                         |
|                                                                             |
 -----------------------------------------------------------------------------

 Optimization of the real space projectors (new method)

 maximal supplied QI-value         = 13.61
 optimisation between [QCUT,QGAM] = [ 11.57, 23.27] = [ 37.45,151.59] Ry 
 Optimized for a Real-space Cutoff    1.63 Angstroem

   l    n(q)    QCUT    max X(q) W(low)/X(q) W(high)/X(q)  e(spline) 
   1     11    11.565     4.545    0.12E-04    0.18E-04    0.64E-07
   1     11    11.565     6.014    0.42E-04    0.48E-04    0.13E-06
   2     10    11.565   266.542    0.24E-03    0.87E-04    0.13E-05
   2     10    11.565   232.726    0.24E-03    0.87E-04    0.13E-05
   0     11    11.565    38.050    0.76E-04    0.32E-05    0.94E-06
   0     11    11.565    16.565    0.58E-04    0.25E-05    0.73E-06
  PAW_PBE Nb_pv 08Apr2002               :
 energy of atom  1       EATOM=-1043.3917
 kinetic energy error for atom=    0.0011 (will be added to EATOM!!)


 POSCAR: Generated POSCAR
  positions in direct lattice
  velocities in cartesian coordinates
 exchange correlation table for  LEXCH =        8
   RHO(1)=    0.500       N(1)  =     2000
   RHO(2)=  100.500       N(2)  =     4000



--------------------------------------------------------------------------------------------------------


 ion  position               nearest neighbor table
   1  0.000  0.000  0.000-   2 2.88   2 2.88   2 2.88   2 2.88   2 2.88   2 2.88   2 2.88   2 2.88

   2  0.500  0.500  0.500-   1 2.88   1 2.88   1 2.88   1 2.88   1 2.88   1 2.88   1 2.88   1 2.88


  LATTYP: Found a simple orthorhombic cell.
 ALAT       =     3.2557779118
 B/A-ratio  =     1.0204081633
 C/A-ratio  =     1.0408163265
  
  Lattice vectors:
  
 A1 = (   0.0000000000,   0.0000000000,  -3.2557779118)
 A2 = (   0.0000000000,   3.3222223590,   0.0000000000)
 A3 = (   3.3886668061,   0.0000000000,   0.0000000000)


Analysis of symmetry for initial positions (statically):
=====================================================================
 Subroutine PRICEL returns following result:
 
  LATTYP: Found a body centered orthorhombic cell.
 ALAT       =     3.2557779118
 B/A-ratio  =     1.0204081633
 C/A-ratio  =     1.0408163265
  
  Lattice vectors:
  
 A1 = (   1.6943334031,  -1.6611111795,  -1.6278889559)
 A2 = (   1.6943334031,   1.6611111795,   1.6278889559)
 A3 = (  -1.6943334031,  -1.6611111795,   1.6278889559)
 
   2 primitive cells build up your supercell.
 

 Routine SETGRP: Setting up the symmetry group for a 
 simple orthorhombic supercell.


 Subroutine GETGRP returns: Found  8 space group operations
 (whereof  8 operations were pure point group operations)
 out of a pool of  8 trial point group operations.


The static configuration has the point symmetry D_2h.


Analysis of symmetry for dynamics (positions and initial velocities):
=====================================================================
 Subroutine PRICEL returns following result:
 
  LATTYP: Found a body centered orthorhombic cell.
 ALAT       =     3.2557779118
 B/A-ratio  =     1.0204081633
 C/A-ratio  =     1.0408163265
  
  Lattice vectors:
  
 A1 = (   1.6943334031,  -1.6611111795,  -1.6278889559)
 A2 = (   1.6943334031,   1.6611111795,   1.6278889559)
 A3 = (  -1.6943334031,  -1.6611111795,   1.6278889559)
 
   2 primitive cells build up your supercell.
 

 Routine SETGRP: Setting up the symmetry group for a 
 simple orthorhombic supercell.


 Subroutine GETGRP returns: Found  8 space group operations
 (whereof  8 operations were pure point group operations)
 out of a pool of  8 trial point group operations.


The dynamic configuration has the point symmetry D_2h.


Analysis of structural, dynamic, and magnetic symmetry:
=====================================================================
 Subroutine PRICEL returns following result:
 
  LATTYP: Found a body centered orthorhombic cell.
 ALAT       =     3.2557779118
 B/A-ratio  =     1.0204081633
 C/A-ratio  =     1.0408163265
  
  Lattice vectors:
  
 A1 = (   1.6943334031,  -1.6611111795,  -1.6278889559)
 A2 = (   1.6943334031,   1.6611111795,   1.6278889559)
 A3 = (  -1.6943334031,  -1.6611111795,   1.6278889559)
 
   2 primitive cells build up your supercell.
 

 Routine SETGRP: Setting up the symmetry group for a 
 simple orthorhombic supercell.


 Subroutine GETGRP returns: Found  8 space group operations
 (whereof  8 operations were pure point group operations)
 out of a pool of  8 trial point group operations.


The overall configuration has the point symmetry D_2h.


 Subroutine INISYM returns: Found  8 space group operations
 (whereof  8 operations are pure point group operations),
 and found     2 'primitive' translations


----------------------------------------------------------------------------------------

                                     Primitive cell                                     

  volume of cell :      18.3266

  direct lattice vectors                    reciprocal lattice vectors
     1.694333403 -1.661111179 -1.627888956     0.295101306 -0.301003332  0.000000000
     1.694333403  1.661111179  1.627888956     0.295101306 -0.000000000  0.307146257
    -1.694333403 -1.661111179  1.627888956     0.000000000 -0.301003332  0.307146257

  length of vectors
     2.877512552  2.877512552  2.877512552     0.421530292  0.425938498  0.430048636

  position of ions in fractional coordinates (direct lattice)
     0.000000000  0.000000000  0.000000000

  ion indices of the primitive-cell ions
   primitive index   ion index
                 1           1

----------------------------------------------------------------------------------------



 KPOINTS: pymatgen with grid density = 869 / numbe

Automatic generation of k-mesh.
 Grid dimensions read from file:
 generate k-points for:    7    7    7

 Generating k-lattice:

  Cartesian coordinates                     Fractional coordinates (reciprocal lattice)
     0.042157329 -0.000000000  0.000000000     0.142857143  0.000000000  0.000000000
     0.000000000  0.043000476  0.000000000     0.000000000  0.142857143  0.000000000
    -0.000000000 -0.000000000  0.043878037     0.000000000  0.000000000  0.142857143

  Length of vectors
     0.042157329  0.043000476  0.043878037

  Shift w.r.t. Gamma in fractional coordinates (k-lattice)
     0.000000000  0.000000000  0.000000000

 TETIRR: Found   1000 inequivalent tetrahedra from     2058
 
 Subroutine IBZKPT returns following result:
 ===========================================
 
 Found     64 irreducible k-points:
 
 Following reciprocal coordinates:
            Coordinates               Weight
  0.000000  0.000000  0.000000      1.000000
  0.142857  0.000000  0.000000      2.000000
  0.285714  0.000000  0.000000      2.000000
  0.428571  0.000000  0.000000      2.000000
  0.000000  0.142857  0.000000      2.000000
  0.142857  0.142857  0.000000      4.000000
  0.285714  0.142857  0.000000      4.000000
  0.428571  0.142857  0.000000      4.000000
  0.000000  0.285714  0.000000      2.000000
  0.142857  0.285714  0.000000      4.000000
  0.285714  0.285714  0.000000      4.000000
  0.428571  0.285714  0.000000      4.000000
  0.000000  0.428571  0.000000      2.000000
  0.142857  0.428571  0.000000      4.000000
  0.285714  0.428571  0.000000      4.000000
  0.428571  0.428571  0.000000      4.000000
  0.000000  0.000000  0.142857      2.000000
  0.142857  0.000000  0.142857      4.000000
  0.285714  0.000000  0.142857      4.000000
  0.428571  0.000000  0.142857      4.000000
  0.000000  0.142857  0.142857      4.000000
  0.142857  0.142857  0.142857      8.000000
  0.285714  0.142857  0.142857      8.000000
  0.428571  0.142857  0.142857      8.000000
  0.000000  0.285714  0.142857      4.000000
  0.142857  0.285714  0.142857      8.000000
  0.285714  0.285714  0.142857      8.000000
  0.428571  0.285714  0.142857      8.000000
  0.000000  0.428571  0.142857      4.000000
  0.142857  0.428571  0.142857      8.000000
  0.285714  0.428571  0.142857      8.000000
  0.428571  0.428571  0.142857      8.000000
  0.000000  0.000000  0.285714      2.000000
  0.142857  0.000000  0.285714      4.000000
  0.285714  0.000000  0.285714      4.000000
  0.428571  0.000000  0.285714      4.000000
  0.000000  0.142857  0.285714      4.000000
  0.142857  0.142857  0.285714      8.000000
  0.285714  0.142857  0.285714      8.000000
  0.428571  0.142857  0.285714      8.000000
  0.000000  0.285714  0.285714      4.000000
  0.142857  0.285714  0.285714      8.000000
  0.285714  0.285714  0.285714      8.000000
  0.428571  0.285714  0.285714      8.000000
  0.000000  0.428571  0.285714      4.000000
  0.142857  0.428571  0.285714      8.000000
  0.285714  0.428571  0.285714      8.000000
  0.428571  0.428571  0.285714      8.000000
  0.000000  0.000000  0.428571      2.000000
  0.142857  0.000000  0.428571      4.000000
  0.285714  0.000000  0.428571      4.000000
  0.428571  0.000000  0.428571      4.000000
  0.000000  0.142857  0.428571      4.000000
  0.142857  0.142857  0.428571      8.000000
  0.285714  0.142857  0.428571      8.000000
  0.428571  0.142857  0.428571      8.000000
  0.000000  0.285714  0.428571      4.000000
  0.142857  0.285714  0.428571      8.000000
  0.285714  0.285714  0.428571      8.000000
  0.428571  0.285714  0.428571      8.000000
  0.000000  0.428571  0.428571      4.000000
  0.142857  0.428571  0.428571      8.000000
  0.285714  0.428571  0.428571      8.000000
  0.428571  0.428571  0.428571      8.000000
 
 Following cartesian coordinates:
            Coordinates               Weight
  0.000000  0.000000  0.000000      1.000000
  0.042157  0.000000  0.000000      2.000000
  0.084315  0.000000  0.000000      2.000000
  0.126472  0.000000  0.000000      2.000000
  0.000000  0.043000  0.000000      2.000000
  0.042157  0.043000  0.000000      4.000000
  0.084315  0.043000  0.000000      4.000000
  0.126472  0.043000  0.000000      4.000000
  0.000000  0.086001  0.000000      2.000000
  0.042157  0.086001  0.000000      4.000000
  0.084315  0.086001  0.000000      4.000000
  0.126472  0.086001  0.000000      4.000000
  0.000000  0.129001  0.000000      2.000000
  0.042157  0.129001  0.000000      4.000000
  0.084315  0.129001  0.000000      4.000000
  0.126472  0.129001  0.000000      4.000000
  0.000000  0.000000  0.043878      2.000000
  0.042157  0.000000  0.043878      4.000000
  0.084315  0.000000  0.043878      4.000000
  0.126472  0.000000  0.043878      4.000000
  0.000000  0.043000  0.043878      4.000000
  0.042157  0.043000  0.043878      8.000000
  0.084315  0.043000  0.043878      8.000000
  0.126472  0.043000  0.043878      8.000000
  0.000000  0.086001  0.043878      4.000000
  0.042157  0.086001  0.043878      8.000000
  0.084315  0.086001  0.043878      8.000000
  0.126472  0.086001  0.043878      8.000000
  0.000000  0.129001  0.043878      4.000000
  0.042157  0.129001  0.043878      8.000000
  0.084315  0.129001  0.043878      8.000000
  0.126472  0.129001  0.043878      8.000000
  0.000000  0.000000  0.087756      2.000000
  0.042157  0.000000  0.087756      4.000000
  0.084315  0.000000  0.087756      4.000000
  0.126472  0.000000  0.087756      4.000000
  0.000000  0.043000  0.087756      4.000000
  0.042157  0.043000  0.087756      8.000000
  0.084315  0.043000  0.087756      8.000000
  0.126472  0.043000  0.087756      8.000000
  0.000000  0.086001  0.087756      4.000000
  0.042157  0.086001  0.087756      8.000000
  0.084315  0.086001  0.087756      8.000000
  0.126472  0.086001  0.087756      8.000000
  0.000000  0.129001  0.087756      4.000000
  0.042157  0.129001  0.087756      8.000000
  0.084315  0.129001  0.087756      8.000000
  0.126472  0.129001  0.087756      8.000000
  0.000000  0.000000  0.131634      2.000000
  0.042157  0.000000  0.131634      4.000000
  0.084315  0.000000  0.131634      4.000000
  0.126472  0.000000  0.131634      4.000000
  0.000000  0.043000  0.131634      4.000000
  0.042157  0.043000  0.131634      8.000000
  0.084315  0.043000  0.131634      8.000000
  0.126472  0.043000  0.131634      8.000000
  0.000000  0.086001  0.131634      4.000000
  0.042157  0.086001  0.131634      8.000000
  0.084315  0.086001  0.131634      8.000000
  0.126472  0.086001  0.131634      8.000000
  0.000000  0.129001  0.131634      4.000000
  0.042157  0.129001  0.131634      8.000000
  0.084315  0.129001  0.131634      8.000000
  0.126472  0.129001  0.131634      8.000000
 


--------------------------------------------------------------------------------------------------------




 Dimension of arrays:
   k-points           NKPTS =     64   k-points in BZ     NKDIM =     64   number of bands    NBANDS=     16
   number of dos      NEDOS =    301   number of ions     NIONS =      2
   non local maximal  LDIM  =      6   non local SUM 2l+1 LMDIM =     18
   total plane-waves  NPLWV =  18816
   max r-space proj   IRMAX =   9315   max aug-charges    IRDMAX=  31802
   dimension x,y,z NGX =    28 NGY =   28 NGZ =   24
   dimension x,y,z NGXF=    56 NGYF=   56 NGZF=   48
   support grid    NGXF=    56 NGYF=   56 NGZF=   48
   ions per type =               2
   NGX,Y,Z   is equivalent  to a cutoff of  13.74, 14.01, 12.25 a.u.
   NGXF,Y,Z  is equivalent  to a cutoff of  27.47, 28.02, 24.51 a.u.

 SYSTEM =  unknown system                          
 POSCAR =  Generated POSCAR                        

 Startparameter for this run:
   NWRITE =      2    write-flag & timer
   PREC   = accura    normal or accurate (medium, high low for compatibility)
   ISTART =      0    job   : 0-new  1-cont  2-samecut
   ICHARG =      2    charge: 1-file 2-atom 10-const
   ISPIN  =      2    spin polarized calculation?
   LNONCOLLINEAR =      F non collinear calculations
   LSORBIT =      F    spin-orbit coupling
   INIWAV =      1    electr: 0-lowe 1-rand  2-diag
   LASPH  =      T    aspherical Exc in radial PAW
 Electronic Relaxation 1
   ENCUT  =  520.0 eV  38.22 Ry    6.18 a.u.   6.30  6.18  6.05*2*pi/ulx,y,z
   ENINI  =  520.0     initial cutoff
   ENAUG  =  355.1 eV  augmentation charge cutoff
   NELM   =    100;   NELMIN=  2; NELMDL= -5     # of ELM steps 
   EDIFF  = 0.1E-03   stopping-criterion for ELM
   LREAL  =      T    real-space projection
   NLSPLINE    = F    spline interpolate recip. space projectors
   LCOMPAT=      F    compatible to vasp.4.4
   GGA_COMPAT  = T    GGA compatible to vasp.4.4-vasp.4.6
   LMAXPAW     = -100 max onsite density
   LMAXMIX     =    6 max onsite mixed and CHGCAR
   VOSKOWN=      0    Vosko Wilk Nusair interpolation
   ROPT   =   -0.00025
 Ionic relaxation
   EDIFFG = 0.1E-02   stopping-criterion for IOM
   NSW    =      0    number of steps for IOM
   NBLOCK =      1;   KBLOCK =      1    inner block; outer block 
   IBRION =     -1    ionic relax: 0-MD 1-quasi-New 2-CG
   NFREE  =      0    steps in history (QN), initial steepest desc. (CG)
   ISIF   =      2    stress and relaxation
   IWAVPR =     10    prediction:  0-non 1-charg 2-wave 3-comb
   ISYM   =      2    0-nonsym 1-usesym 2-fastsym
   LCORR  =      T    Harris-Foulkes like correction to forces

   POTIM  = 0.5000    time-step for ionic-motion
   TEIN   =    0.0    initial temperature
   TEBEG  =    0.0;   TEEND  =   0.0 temperature during run
   SMASS  =  -3.00    Nose mass-parameter (am)
   estimated Nose-frequenzy (Omega)   =  0.10E-29 period in steps = 0.13E+47 mass=  -0.262E-27a.u.
   SCALEE = 1.0000    scale energy and forces
   NPACO  =    256;   APACO  = 10.0  distance and # of slots for P.C.
   PSTRESS=    0.0 pullay stress

  Mass of Ions in am
   POMASS =  92.00
  Ionic Valenz
   ZVAL   =  11.00
  Atomic Wigner-Seitz radii
   RWIGS  =  -1.00
  virtual crystal weights 
   VCA    =   1.00
   NELECT =      22.0000    total number of electrons
   NUPDOWN=      -1.0000    fix difference up-down

 DOS related values:
   EMIN   =  10.00;   EMAX   =-10.00  energy-range for DOS
   EFERMI =   0.00;   METHOD = LEGACY      
   ISMEAR =    -5;   SIGMA  =   0.05  broadening in eV -4-tet -1-fermi 0-gaus

 Electronic relaxation 2 (details)
   IALGO  =     68    algorithm
   LDIAG  =      T    sub-space diagonalisation (order eigenvalues)
   LSUBROT=      F    optimize rotation matrix (better conditioning)
   TURBO    =      0    0=normal 1=particle mesh
   IRESTART =      0    0=no restart 2=restart with 2 vectors
   NREBOOT  =      0    no. of reboots
   NMIN     =      0    reboot dimension
   EREF     =   0.00    reference energy to select bands
   IMIX   =      4    mixing-type and parameters
     AMIX     =   0.40;   BMIX     =  1.00
     AMIX_MAG =   1.60;   BMIX_MAG =  1.00
     AMIN     =   0.10
     WC   =   100.;   INIMIX=   1;  MIXPRE=   1;  MAXMIX= -45

 Intra band minimization:
   WEIMIN = 0.0000     energy-eigenvalue tresh-hold
   EBREAK =  0.16E-05  absolut break condition
   DEPER  =   0.30     relativ break condition  

   TIME   =   0.40     timestep for ELM

  volume/ion in A,a.u.               =      18.33       123.67
  Fermi-wavevector in a.u.,A,eV,Ry     =   1.380951  2.609619 25.946661  1.907026
  Thomas-Fermi vector in A             =   2.505781

 Write flags
   LWAVE        =      F    write WAVECAR
   LDOWNSAMPLE  =      F    k-point downsampling of WAVECAR
   LCHARG       =      T    write CHGCAR
   LVTOT        =      F    write LOCPOT, total local potential
   LVHAR        =      F    write LOCPOT, Hartree potential only
   LELF         =      F    write electronic localiz. function (ELF)
   LORBIT       =     11    0 simple, 1 ext, 2 COOP (PROOUT), +10 PAW based schemes


 Dipole corrections
   LMONO  =      F    monopole corrections only (constant potential shift)
   LDIPOL =      F    correct potential (dipole corrections)
   IDIPOL =      0    1-x, 2-y, 3-z, 4-all directions 
   EPSILON=  1.0000000 bulk dielectric constant

 Exchange correlation treatment:
   GGA     =    --    GGA type
   LEXCH   =     8    internal setting for exchange type
   LIBXC   =     F    Libxc                    
   VOSKOWN =     0    Vosko Wilk Nusair interpolation
   LHFCALC =     F    Hartree Fock is set to
   LHFONE  =     F    Hartree Fock one center treatment
   AEXX    =    0.0000 exact exchange contribution

 Linear response parameters
   LEPSILON=     F    determine dielectric tensor
   LRPA    =     F    only Hartree local field effects (RPA)
   LNABLA  =     F    use nabla operator in PAW spheres
   LVEL    =     F    velocity operator in full k-point grid
   CSHIFT  =0.1000    complex shift for real part using Kramers Kronig
   OMEGAMAX=  -1.0    maximum frequency
   DEG_THRESHOLD= 0.2000000E-02 threshold for treating states as degnerate
   RTIME   =   -0.100 relaxation time in fs
  (WPLASMAI=    0.000 imaginary part of plasma frequency in eV, 0.658/RTIME)
   DFIELD  = 0.0000000 0.0000000 0.0000000 field for delta impulse in time

  Optional k-point grid parameters
   LKPOINTS_OPT  =     F    use optional k-point grid
   KPOINTS_OPT_MODE=     1    mode for optional k-point grid

 Orbital magnetization related:
   ORBITALMAG=     F  switch on orbital magnetization
   LCHIMAG   =     F  perturbation theory with respect to B field
   DQ        =  0.001000  dq finite difference perturbation B field
   LLRAUG    =     F  two centre corrections for induced B field
   LBONE     =     F  B-component reconstruction in AE one-centre
   LVGVCALC  =     T  calculate vGv susceptibility
   LVGVAPPL  =     F  apply vGv susceptibility instead of pGv for G=0

 Random number generation:
   RANDOM_GENERATOR = DEFAULT
   PCG_SEED         = not used


--------------------------------------------------------------------------------------------------------


 Static calculation
 charge density and potential will be updated during run
 spin polarized calculation
 RMM-DIIS sequential band-by-band and
  variant of blocked Davidson during initial phase
 perform sub-space diagonalisation
    before iterative eigenvector-optimisation
 modified Broyden-mixing scheme, WC =      100.0
 initial mixing is a Kerker type mixing with AMIX =  0.4000 and BMIX =      1.0000
 Hartree-type preconditioning will be used
 using additional bands            5
 real space projection scheme for non local part
 use partial core corrections
 calculate Harris-corrections to forces   (improved forces if not selfconsistent)
 use gradient corrections 
 use of overlap-Matrix (Vanderbilt PP)
 Fermi weights with tetrahedron method with Bloechl corrections


--------------------------------------------------------------------------------------------------------


  energy-cutoff  :      520.00
  volume of cell :       36.65
      direct lattice vectors                 reciprocal lattice vectors
     3.388666806  0.000000000  0.000000000     0.295101306 -0.000000000  0.000000000
     0.000000000  3.322222359  0.000000000     0.000000000  0.301003332  0.000000000
     0.000000000  0.000000000  3.255777912    -0.000000000 -0.000000000  0.307146257

  length of vectors
     3.388666806  3.322222359  3.255777912     0.295101306  0.301003332  0.307146257



 k-points in units of 2pi/SCALE and weight: pymatgen with grid density = 869 / numbe
   0.00000000  0.00000000  0.00000000       0.003
   0.04215733  0.00000000  0.00000000       0.006
   0.08431466  0.00000000  0.00000000       0.006
   0.12647199  0.00000000  0.00000000       0.006
   0.00000000  0.04300048  0.00000000       0.006
   0.04215733  0.04300048  0.00000000       0.012
   0.08431466  0.04300048  0.00000000       0.012
   0.12647199  0.04300048  0.00000000       0.012
   0.00000000  0.08600095  0.00000000       0.006
   0.04215733  0.08600095  0.00000000       0.012
   0.08431466  0.08600095  0.00000000       0.012
   0.12647199  0.08600095  0.00000000       0.012
   0.00000000  0.12900143  0.00000000       0.006
   0.04215733  0.12900143  0.00000000       0.012
   0.08431466  0.12900143  0.00000000       0.012
   0.12647199  0.12900143  0.00000000       0.012
   0.00000000  0.00000000  0.04387804       0.006
   0.04215733  0.00000000  0.04387804       0.012
   0.08431466  0.00000000  0.04387804       0.012
   0.12647199  0.00000000  0.04387804       0.012
   0.00000000  0.04300048  0.04387804       0.012
   0.04215733  0.04300048  0.04387804       0.023
   0.08431466  0.04300048  0.04387804       0.023
   0.12647199  0.04300048  0.04387804       0.023
   0.00000000  0.08600095  0.04387804       0.012
   0.04215733  0.08600095  0.04387804       0.023
   0.08431466  0.08600095  0.04387804       0.023
   0.12647199  0.08600095  0.04387804       0.023
   0.00000000  0.12900143  0.04387804       0.012
   0.04215733  0.12900143  0.04387804       0.023
   0.08431466  0.12900143  0.04387804       0.023
   0.12647199  0.12900143  0.04387804       0.023
   0.00000000  0.00000000  0.08775607       0.006
   0.04215733  0.00000000  0.08775607       0.012
   0.08431466  0.00000000  0.08775607       0.012
   0.12647199  0.00000000  0.08775607       0.012
   0.00000000  0.04300048  0.08775607       0.012
   0.04215733  0.04300048  0.08775607       0.023
   0.08431466  0.04300048  0.08775607       0.023
   0.12647199  0.04300048  0.08775607       0.023
   0.00000000  0.08600095  0.08775607       0.012
   0.04215733  0.08600095  0.08775607       0.023
   0.08431466  0.08600095  0.08775607       0.023
   0.12647199  0.08600095  0.08775607       0.023
   0.00000000  0.12900143  0.08775607       0.012
   0.04215733  0.12900143  0.08775607       0.023
   0.08431466  0.12900143  0.08775607       0.023
   0.12647199  0.12900143  0.08775607       0.023
   0.00000000  0.00000000  0.13163411       0.006
   0.04215733  0.00000000  0.13163411       0.012
   0.08431466  0.00000000  0.13163411       0.012
   0.12647199  0.00000000  0.13163411       0.012
   0.00000000  0.04300048  0.13163411       0.012
   0.04215733  0.04300048  0.13163411       0.023
   0.08431466  0.04300048  0.13163411       0.023
   0.12647199  0.04300048  0.13163411       0.023
   0.00000000  0.08600095  0.13163411       0.012
   0.04215733  0.08600095  0.13163411       0.023
   0.08431466  0.08600095  0.13163411       0.023
   0.12647199  0.08600095  0.13163411       0.023
   0.00000000  0.12900143  0.13163411       0.012
   0.04215733  0.12900143  0.13163411       0.023
   0.08431466  0.12900143  0.13163411       0.023
   0.12647199  0.12900143  0.13163411       0.023

 k-points in reciprocal lattice and weights: pymatgen with grid density = 869 / numbe
   0.00000000  0.00000000  0.00000000       0.003
   0.14285714  0.00000000  0.00000000       0.006
   0.28571429  0.00000000  0.00000000       0.006
   0.42857143  0.00000000  0.00000000       0.006
   0.00000000  0.14285714  0.00000000       0.006
   0.14285714  0.14285714  0.00000000       0.012
   0.28571429  0.14285714  0.00000000       0.012
   0.42857143  0.14285714  0.00000000       0.012
   0.00000000  0.28571429  0.00000000       0.006
   0.14285714  0.28571429  0.00000000       0.012
   0.28571429  0.28571429  0.00000000       0.012
   0.42857143  0.28571429  0.00000000       0.012
   0.00000000  0.42857143  0.00000000       0.006
   0.14285714  0.42857143  0.00000000       0.012
   0.28571429  0.42857143  0.00000000       0.012
   0.42857143  0.42857143  0.00000000       0.012
   0.00000000  0.00000000  0.14285714       0.006
   0.14285714  0.00000000  0.14285714       0.012
   0.28571429  0.00000000  0.14285714       0.012
   0.42857143  0.00000000  0.14285714       0.012
   0.00000000  0.14285714  0.14285714       0.012
   0.14285714  0.14285714  0.14285714       0.023
   0.28571429  0.14285714  0.14285714       0.023
   0.42857143  0.14285714  0.14285714       0.023
   0.00000000  0.28571429  0.14285714       0.012
   0.14285714  0.28571429  0.14285714       0.023
   0.28571429  0.28571429  0.14285714       0.023
   0.42857143  0.28571429  0.14285714       0.023
   0.00000000  0.42857143  0.14285714       0.012
   0.14285714  0.42857143  0.14285714       0.023
   0.28571429  0.42857143  0.14285714       0.023
   0.42857143  0.42857143  0.14285714       0.023
   0.00000000  0.00000000  0.28571429       0.006
   0.14285714  0.00000000  0.28571429       0.012
   0.28571429  0.00000000  0.28571429       0.012
   0.42857143  0.00000000  0.28571429       0.012
   0.00000000  0.14285714  0.28571429       0.012
   0.14285714  0.14285714  0.28571429       0.023
   0.28571429  0.14285714  0.28571429       0.023
   0.42857143  0.14285714  0.28571429       0.023
   0.00000000  0.28571429  0.28571429       0.012
   0.14285714  0.28571429  0.28571429       0.023
   0.28571429  0.28571429  0.28571429       0.023
   0.42857143  0.28571429  0.28571429       0.023
   0.00000000  0.42857143  0.28571429       0.012
   0.14285714  0.42857143  0.28571429       0.023
   0.28571429  0.42857143  0.28571429       0.023
   0.42857143  0.42857143  0.28571429       0.023
   0.00000000  0.00000000  0.42857143       0.006
   0.14285714  0.00000000  0.42857143       0.012
   0.28571429  0.00000000  0.42857143       0.012
   0.42857143  0.00000000  0.42857143       0.012
   0.00000000  0.14285714  0.42857143       0.012
   0.14285714  0.14285714  0.42857143       0.023
   0.28571429  0.14285714  0.42857143       0.023
   0.42857143  0.14285714  0.42857143       0.023
   0.00000000  0.28571429  0.42857143       0.012
   0.14285714  0.28571429  0.42857143       0.023
   0.28571429  0.28571429  0.42857143       0.023
   0.42857143  0.28571429  0.42857143       0.023
   0.00000000  0.42857143  0.42857143       0.012
   0.14285714  0.42857143  0.42857143       0.023
   0.28571429  0.42857143  0.42857143       0.023
   0.42857143  0.42857143  0.42857143       0.023

 position of ions in fractional coordinates (direct lattice) 
   0.00000000  0.00000000  0.00000000
   0.50000000  0.50000000  0.50000000

 position of ions in cartesian coordinates  (Angst):
   0.00000000  0.00000000  0.00000000
   1.69433340  1.66111118  1.62788896



--------------------------------------------------------------------------------------------------------


 k-point   1 :   0.0000 0.0000 0.0000  plane waves:     981
 k-point   2 :   0.1429 0.0000 0.0000  plane waves:     981
 k-point   3 :   0.2857 0.0000 0.0000  plane waves:     983
 k-point   4 :   0.4286 0.0000 0.0000  plane waves:     984
 k-point   5 :   0.0000 0.1429 0.0000  plane waves:     985
 k-point   6 :   0.1429 0.1429 0.0000  plane waves:     978
 k-point   7 :   0.2857 0.1429 0.0000  plane waves:     986
 k-point   8 :   0.4286 0.1429 0.0000  plane waves:     983
 k-point   9 :   0.0000 0.2857 0.0000  plane waves:     984
 k-point  10 :   0.1429 0.2857 0.0000  plane waves:     989
 k-point  11 :   0.2857 0.2857 0.0000  plane waves:     985
 k-point  12 :   0.4286 0.2857 0.0000  plane waves:     975
 k-point  13 :   0.0000 0.4286 0.0000  plane waves:     992
 k-point  14 :   0.1429 0.4286 0.0000  plane waves:     982
 k-point  15 :   0.2857 0.4286 0.0000  plane waves:     975
 k-point  16 :   0.4286 0.4286 0.0000  plane waves:     984
 k-point  17 :   0.0000 0.0000 0.1429  plane waves:     988
 k-point  18 :   0.1429 0.0000 0.1429  plane waves:     994
 k-point  19 :   0.2857 0.0000 0.1429  plane waves:     986
 k-point  20 :   0.4286 0.0000 0.1429  plane waves:     989
 k-point  21 :   0.0000 0.1429 0.1429  plane waves:     981
 k-point  22 :   0.1429 0.1429 0.1429  plane waves:     984
 k-point  23 :   0.2857 0.1429 0.1429  plane waves:     985
 k-point  24 :   0.4286 0.1429 0.1429  plane waves:     986
 k-point  25 :   0.0000 0.2857 0.1429  plane waves:     984
 k-point  26 :   0.1429 0.2857 0.1429  plane waves:     984
 k-point  27 :   0.2857 0.2857 0.1429  plane waves:     983
 k-point  28 :   0.4286 0.2857 0.1429  plane waves:     976
 k-point  29 :   0.0000 0.4286 0.1429  plane waves:     985
 k-point  30 :   0.1429 0.4286 0.1429  plane waves:     985
 k-point  31 :   0.2857 0.4286 0.1429  plane waves:     988
 k-point  32 :   0.4286 0.4286 0.1429  plane waves:     985
 k-point  33 :   0.0000 0.0000 0.2857  plane waves:     974
 k-point  34 :   0.1429 0.0000 0.2857  plane waves:     991
 k-point  35 :   0.2857 0.0000 0.2857  plane waves:     992
 k-point  36 :   0.4286 0.0000 0.2857  plane waves:     981
 k-point  37 :   0.0000 0.1429 0.2857  plane waves:     983
 k-point  38 :   0.1429 0.1429 0.2857  plane waves:     990
 k-point  39 :   0.2857 0.1429 0.2857  plane waves:     992
 k-point  40 :   0.4286 0.1429 0.2857  plane waves:     986
 k-point  41 :   0.0000 0.2857 0.2857  plane waves:     992
 k-point  42 :   0.1429 0.2857 0.2857  plane waves:     990
 k-point  43 :   0.2857 0.2857 0.2857  plane waves:     985
 k-point  44 :   0.4286 0.2857 0.2857  plane waves:     987
 k-point  45 :   0.0000 0.4286 0.2857  plane waves:     995
 k-point  46 :   0.1429 0.4286 0.2857  plane waves:     987
 k-point  47 :   0.2857 0.4286 0.2857  plane waves:     986
 k-point  48 :   0.4286 0.4286 0.2857  plane waves:     993
 k-point  49 :   0.0000 0.0000 0.4286  plane waves:     988
 k-point  50 :   0.1429 0.0000 0.4286  plane waves:     986
 k-point  51 :   0.2857 0.0000 0.4286  plane waves:     985
 k-point  52 :   0.4286 0.0000 0.4286  plane waves:     987
 k-point  53 :   0.0000 0.1429 0.4286  plane waves:     989
 k-point  54 :   0.1429 0.1429 0.4286  plane waves:     990
 k-point  55 :   0.2857 0.1429 0.4286  plane waves:     986
 k-point  56 :   0.4286 0.1429 0.4286  plane waves:     990
 k-point  57 :   0.0000 0.2857 0.4286  plane waves:     997
 k-point  58 :   0.1429 0.2857 0.4286  plane waves:     986
 k-point  59 :   0.2857 0.2857 0.4286  plane waves:     988
 k-point  60 :   0.4286 0.2857 0.4286  plane waves:     991
 k-point  61 :   0.0000 0.4286 0.4286  plane waves:    1000
 k-point  62 :   0.1429 0.4286 0.4286  plane waves:     997
 k-point  63 :   0.2857 0.4286 0.4286  plane waves:     984
 k-point  64 :   0.4286 0.4286 0.4286  plane waves:     986

 maximum and minimum number of plane-waves per node :      1000      974

 maximum number of plane-waves:      1000
 maximum index in each direction: 
   IXMAX=    6   IYMAX=    6   IZMAX=    6
   IXMIN=   -6   IYMIN=   -6   IZMIN=   -6


 serial   3D FFT for wavefunctions
 parallel 3D FFT for charge:
    minimum data exchange during FFTs selected (reduces bandwidth)


 total amount of memory used by VASP MPI-rank0    85760. kBytes
=======================================================================

   base      :      30000. kBytes
   nonlr-proj:       3692. kBytes
   fftplans  :       5340. kBytes
   grid      :      12719. kBytes
   one-center:         62. kBytes
   wavefun   :      33947. kBytes

     INWAV:  cpu time      0.0000: real time      0.0000
 Broyden mixing: mesh for mixing (old mesh)
   NGX = 13   NGY = 13   NGZ = 13
  (NGX  = 56   NGY  = 56   NGZ  = 48)
  gives a total of   2197 points

 initial charge density was supplied:
 charge density of overlapping atoms calculated
 number of electron      22.0000000 magnetization       1.2000000
 keeping initial charge density in first step


--------------------------------------------------------------------------------------------------------


 Maximum index for non-local projection operator          565
 Maximum index for augmentation-charges        30639 (set IRDMAX)


--------------------------------------------------------------------------------------------------------


 First call to EWALD:  gamma=   0.534
 Maximum number of real-space cells 3x 3x 3
 Maximum number of reciprocal cells 3x 3x 3

    FEWALD:  cpu time      0.1346: real time      0.0070


--------------------------------------- Ionic step        1  -------------------------------------------




--------------------------------------- Iteration      1(   1)  ---------------------------------------


    POTLOK:  cpu time      1.7072: real time      0.1217
    SETDIJ:  cpu time      1.1823: real time      0.2553
     EDDAV:  cpu time    429.7178: real time     23.9311
 BZINTS: Fermi energy:   23.476207;   22.000000 electrons
         Band energy:-0.272612E+02;  BLOECHL correction:   -0.835155
       DOS:  cpu time      0.2614: real time      0.0512
    --------------------------------------------
      LOOP:  cpu time    432.8688: real time     24.3593

 eigenvalue-minimisations  :  4440
 total energy-change (2. order) : 0.2027711E+03  (-0.1166258E+04)
 number of electron      22.0000000 magnetization       1.2000000
 augmentation part       22.0000000 magnetization       1.2000000

 Free energy of the ion-electron system (eV)
  ---------------------------------------------------
  alpha Z        PSCENC =       247.02244180
  Ewald energy   TEWEN  =     -1908.84641101
  -Hartree energ DENC   =      -279.45115429
  -exchange      EXHF   =         0.00000000
  -V(xc)+E(xc)   XCENC  =        52.61762111
  PAW double counting   =      1671.32378679    -1639.41528309
  entropy T*S    EENTRO =         0.00000000
  eigenvalues    EBANDS =       -27.26119400
  atomic energy  EATOM  =      2086.78124273
  Solvation  Ediel_sol  =         0.00000000
  ---------------------------------------------------
  free energy    TOTEN  =       202.77105004 eV

  energy without entropy =      202.77105004  energy(sigma->0) =      202.77105004


--------------------------------------------------------------------------------------------------------




--------------------------------------- Iteration      1(   2)  ---------------------------------------


     EDDAV:  cpu time    421.0081: real time     23.2992
 BZINTS: Fermi energy:    7.102112;   22.000000 electrons
         Band energy:-0.240525E+03;  BLOECHL correction:   -0.306197
       DOS:  cpu time      0.2894: real time      0.0512
    --------------------------------------------
      LOOP:  cpu time    421.2975: real time     23.3505

 eigenvalue-minimisations  :  4336
 total energy-change (2. order) :-0.2132642E+03  (-0.2109455E+03)
 number of electron      22.0000000 magnetization       1.2000000
 augmentation part       22.0000000 magnetization       1.2000000

 Free energy of the ion-electron system (eV)
  ---------------------------------------------------
  alpha Z        PSCENC =       247.02244180
  Ewald energy   TEWEN  =     -1908.84641101
  -Hartree energ DENC   =      -279.45115429
  -exchange      EXHF   =         0.00000000
  -V(xc)+E(xc)   XCENC  =        52.61762111
  PAW double counting   =      1671.32378679    -1639.41528309
  entropy T*S    EENTRO =         0.00000000
  eigenvalues    EBANDS =      -240.52543494
  atomic energy  EATOM  =      2086.78124273
  Solvation  Ediel_sol  =         0.00000000
  ---------------------------------------------------
  free energy    TOTEN  =       -10.49319090 eV

  energy without entropy =      -10.49319090  energy(sigma->0) =      -10.49319090


--------------------------------------------------------------------------------------------------------




--------------------------------------- Iteration      1(   3)  ---------------------------------------


     EDDAV:  cpu time    577.1383: real time     32.1819
 BZINTS: Fermi energy:    5.472864;   22.000000 electrons
         Band energy:-0.250993E+03;  BLOECHL correction:   -0.209816
       DOS:  cpu time      0.3170: real time      0.0539
    --------------------------------------------
      LOOP:  cpu time    577.4553: real time     32.2358

 eigenvalue-minimisations  :  6720
 total energy-change (2. order) :-0.1046769E+02  (-0.9871628E+01)
 number of electron      22.0000000 magnetization       1.2000000
 augmentation part       22.0000000 magnetization       1.2000000

 Free energy of the ion-electron system (eV)
  ---------------------------------------------------
  alpha Z        PSCENC =       247.02244180
  Ewald energy   TEWEN  =     -1908.84641101
  -Hartree energ DENC   =      -279.45115429
  -exchange      EXHF   =         0.00000000
  -V(xc)+E(xc)   XCENC  =        52.61762111
  PAW double counting   =      1671.32378679    -1639.41528309
  entropy T*S    EENTRO =         0.00000000
  eigenvalues    EBANDS =      -250.99312501
  atomic energy  EATOM  =      2086.78124273
  Solvation  Ediel_sol  =         0.00000000
  ---------------------------------------------------
  free energy    TOTEN  =       -20.96088097 eV

  energy without entropy =      -20.96088097  energy(sigma->0) =      -20.96088097


--------------------------------------------------------------------------------------------------------




--------------------------------------- Iteration      1(   4)  ---------------------------------------


     EDDAV:  cpu time    483.3828: real time     26.8702
 BZINTS: Fermi energy:    5.449137;   22.000000 electrons
         Band energy:-0.251169E+03;  BLOECHL correction:   -0.207048
       DOS:  cpu time      0.2410: real time      0.0551
    --------------------------------------------
      LOOP:  cpu time    483.6238: real time     26.9253

 eigenvalue-minimisations  :  5240
 total energy-change (2. order) :-0.1759402E+00  (-0.1731384E+00)
 number of electron      22.0000000 magnetization       1.2000000
 augmentation part       22.0000000 magnetization       1.2000000

 Free energy of the ion-electron system (eV)
  ---------------------------------------------------
  alpha Z        PSCENC =       247.02244180
  Ewald energy   TEWEN  =     -1908.84641101
  -Hartree energ DENC   =      -279.45115429
  -exchange      EXHF   =         0.00000000
  -V(xc)+E(xc)   XCENC  =        52.61762111
  PAW double counting   =      1671.32378679    -1639.41528309
  entropy T*S    EENTRO =         0.00000000
  eigenvalues    EBANDS =      -251.16906524
  atomic energy  EATOM  =      2086.78124273
  Solvation  Ediel_sol  =         0.00000000
  ---------------------------------------------------
  free energy    TOTEN  =       -21.13682120 eV

  energy without entropy =      -21.13682120  energy(sigma->0) =      -21.13682120


--------------------------------------------------------------------------------------------------------




--------------------------------------- Iteration      1(   5)  ---------------------------------------


     EDDAV:  cpu time    568.8642: real time     31.5343
 BZINTS: Fermi energy:    5.448554;   22.000000 electrons
         Band energy:-0.251173E+03;  BLOECHL correction:   -0.206954
       DOS:  cpu time      0.2267: real time      0.0515
    CHARGE:  cpu time     36.6778: real time      2.0071
    MIXING:  cpu time      0.1117: real time      0.0011
    --------------------------------------------
      LOOP:  cpu time    605.8803: real time     33.5941

 eigenvalue-minimisations  :  6432
 total energy-change (2. order) :-0.4341975E-02  (-0.4358422E-02)
 number of electron      21.9999998 magnetization       0.3597958
 augmentation part        7.7575921 magnetization      -0.0480774

 Broyden mixing:
  rms(total) = 0.23990E+01    rms(broyden)= 0.23990E+01
  rms(prec ) = 0.28093E+01
  weight for this iteration     100.00

 Free energy of the ion-electron system (eV)
  ---------------------------------------------------
  alpha Z        PSCENC =       247.02244180
  Ewald energy   TEWEN  =     -1908.84641101
  -Hartree energ DENC   =      -279.45115429
  -exchange      EXHF   =         0.00000000
  -V(xc)+E(xc)   XCENC  =        52.61762111
  PAW double counting   =      1671.32378679    -1639.41528309
  entropy T*S    EENTRO =         0.00000000
  eigenvalues    EBANDS =      -251.17340722
  atomic energy  EATOM  =      2086.78124273
  Solvation  Ediel_sol  =         0.00000000
  ---------------------------------------------------
  free energy    TOTEN  =       -21.14116318 eV

  energy without entropy =      -21.14116318  energy(sigma->0) =      -21.14116318


--------------------------------------------------------------------------------------------------------




--------------------------------------- Iteration      1(   6)  ---------------------------------------


    POTLOK:  cpu time      1.4682: real time      0.1130
    SETDIJ:  cpu time      1.0453: real time      0.2454
    EDDIAG:  cpu time     76.9103: real time      4.3743
  RMM-DIIS:  cpu time   1089.4887: real time     51.1256
    ORTHCH:  cpu time      2.0353: real time      0.1192
 BZINTS: Fermi energy:    5.099130;   22.000000 electrons
         Band energy:-0.265210E+03;  BLOECHL correction:   -0.208985
       DOS:  cpu time      0.2915: real time      0.0531
    CHARGE:  cpu time     35.5394: real time      1.9615
    MIXING:  cpu time      0.0013: real time      0.0013
    --------------------------------------------
      LOOP:  cpu time   1206.7801: real time     57.9934

 eigenvalue-minimisations  :  4505
 total energy-change (2. order) : 0.8066573E+00  (-0.8031321E-01)
 number of electron      21.9999998 magnetization       0.1835882
 augmentation part        7.8845951 magnetization      -0.0437825

 Broyden mixing:
  rms(total) = 0.91266E+00    rms(broyden)= 0.91266E+00
  rms(prec ) = 0.11862E+01
  weight for this iteration     100.00

 eigenvalues of (default mixing * dielectric matrix)
  average eigenvalue GAMMA=   1.4995
  1.4995

 Free energy of the ion-electron system (eV)
  ---------------------------------------------------
  alpha Z        PSCENC =       247.02244180
  Ewald energy   TEWEN  =     -1908.84641101
  -Hartree energ DENC   =      -260.09716478
  -exchange      EXHF   =         0.00000000
  -V(xc)+E(xc)   XCENC  =        51.60282033
  PAW double counting   =      2186.55486826    -2158.14277821
  entropy T*S    EENTRO =         0.00000000
  eigenvalues    EBANDS =      -265.20952502
  atomic energy  EATOM  =      2086.78124273
  Solvation  Ediel_sol  =         0.00000000
  ---------------------------------------------------
  free energy    TOTEN  =       -20.33450590 eV

  energy without entropy =      -20.33450590  energy(sigma->0) =      -20.33450590


--------------------------------------------------------------------------------------------------------




--------------------------------------- Iteration      1(   7)  ---------------------------------------


    POTLOK:  cpu time      1.7498: real time      0.1269
    SETDIJ:  cpu time      1.0815: real time      0.2556
    EDDIAG:  cpu time    126.5222: real time      6.8110
  RMM-DIIS:  cpu time    338.7004: real time     18.2374
    ORTHCH:  cpu time      1.2997: real time      0.0854
 BZINTS: Fermi energy:    4.802707;   22.000000 electrons
         Band energy:-0.276970E+03;  BLOECHL correction:   -0.205402
       DOS:  cpu time      0.3660: real time      0.0506
    CHARGE:  cpu time     33.0588: real time      1.8453
    MIXING:  cpu time      0.0012: real time      0.0012
    --------------------------------------------
      LOOP:  cpu time    502.7796: real time     27.4134

 eigenvalue-minimisations  :  5572
 total energy-change (2. order) : 0.1476203E+00  (-0.2141569E+00)
 number of electron      21.9999998 magnetization       0.0556660
 augmentation part        8.0582806 magnetization       0.0432870

 Broyden mixing:
  rms(total) = 0.25074E+00    rms(broyden)= 0.25074E+00
  rms(prec ) = 0.26919E+00
  weight for this iteration     100.00

 eigenvalues of (default mixing * dielectric matrix)
  average eigenvalue GAMMA=   1.0721
  1.6150  0.5292

 Free energy of the ion-electron system (eV)
  ---------------------------------------------------
  alpha Z        PSCENC =       247.02244180
  Ewald energy   TEWEN  =     -1908.84641101
  -Hartree energ DENC   =      -244.38786071
  -exchange      EXHF   =         0.00000000
  -V(xc)+E(xc)   XCENC  =        50.82189544
  PAW double counting   =      2616.23339540    -2590.84177232
  entropy T*S    EENTRO =         0.00000000
  eigenvalues    EBANDS =      -276.96981698
  atomic energy  EATOM  =      2086.78124273
  Solvation  Ediel_sol  =         0.00000000
  ---------------------------------------------------
  free energy    TOTEN  =       -20.18688564 eV

  energy without entropy =      -20.18688564  energy(sigma->0) =      -20.18688564


--------------------------------------------------------------------------------------------------------




--------------------------------------- Iteration      1(   8)  ---------------------------------------


    POTLOK:  cpu time      2.0931: real time      0.1493
    SETDIJ:  cpu time      1.1542: real time      0.2550
    EDDIAG:  cpu time    121.1667: real time      6.5877
  RMM-DIIS:  cpu time    426.4640: real time     22.2770
    ORTHCH:  cpu time      1.2513: real time      0.0786
 BZINTS: Fermi energy:    4.813855;   22.000000 electrons
         Band energy:-0.276426E+03;  BLOECHL correction:   -0.205478
       DOS:  cpu time      0.2853: real time      0.0534
    CHARGE:  cpu time     31.1855: real time      1.7343
    MIXING:  cpu time      0.0015: real time      0.0015
    --------------------------------------------
      LOOP:  cpu time    583.6016: real time     31.1367

 eigenvalue-minimisations  :  5954
 total energy-change (2. order) :-0.1129999E-01  (-0.1056469E-01)
 number of electron      21.9999998 magnetization       0.0361036
 augmentation part        8.0649433 magnetization       0.0208380

 Broyden mixing:
  rms(total) = 0.11909E+00    rms(broyden)= 0.11909E+00
  rms(prec ) = 0.14780E+00
  weight for this iteration     100.00

 eigenvalues of (default mixing * dielectric matrix)
  average eigenvalue GAMMA=   1.0677
  1.8345  0.6842  0.6842

 Free energy of the ion-electron system (eV)
  ---------------------------------------------------
  alpha Z        PSCENC =       247.02244180
  Ewald energy   TEWEN  =     -1908.84641101
  -Hartree energ DENC   =      -244.74520598
  -exchange      EXHF   =         0.00000000
  -V(xc)+E(xc)   XCENC  =        50.83258434
  PAW double counting   =      2664.20254643    -2639.01919137
  entropy T*S    EENTRO =         0.00000000
  eigenvalues    EBANDS =      -276.42619258
  atomic energy  EATOM  =      2086.78124273
  Solvation  Ediel_sol  =         0.00000000
  ---------------------------------------------------
  free energy    TOTEN  =       -20.19818563 eV

  energy without entropy =      -20.19818563  energy(sigma->0) =      -20.19818563


--------------------------------------------------------------------------------------------------------




--------------------------------------- Iteration      1(   9)  ---------------------------------------


    POTLOK:  cpu time      2.2999: real time      0.1644
    SETDIJ:  cpu time      1.1088: real time      0.2512
    EDDIAG:  cpu time    144.7247: real time      7.6326
  RMM-DIIS:  cpu time    351.5005: real time     19.1373
    ORTHCH:  cpu time      1.6601: real time      0.0912
 BZINTS: Fermi energy:    4.822967;   22.000000 electrons
         Band energy:-0.276000E+03;  BLOECHL correction:   -0.205615
       DOS:  cpu time      0.2412: real time      0.0512
    CHARGE:  cpu time     35.8185: real time      1.9980
    MIXING:  cpu time      0.1114: real time      0.0014
    --------------------------------------------
      LOOP:  cpu time    537.4651: real time     29.3274

 eigenvalue-minimisations  :  5923
 total energy-change (2. order) : 0.1353282E-03  (-0.2355741E-02)
 number of electron      21.9999998 magnetization       0.0231106
 augmentation part        8.0649764 magnetization       0.0148898

 Broyden mixing:
  rms(total) = 0.98127E-01    rms(broyden)= 0.98127E-01
  rms(prec ) = 0.12466E+00
  weight for this iteration     100.00

 eigenvalues of (default mixing * dielectric matrix)
  average eigenvalue GAMMA=   1.0961
  2.0981  0.8443  0.8443  0.5978

 Free energy of the ion-electron system (eV)
  ---------------------------------------------------
  alpha Z        PSCENC =       247.02244180
  Ewald energy   TEWEN  =     -1908.84641101
  -Hartree energ DENC   =      -245.11622372
  -exchange      EXHF   =         0.00000000
  -V(xc)+E(xc)   XCENC  =        50.84981322
  PAW double counting   =      2705.04529220    -2679.93425792
  entropy T*S    EENTRO =         0.00000000
  eigenvalues    EBANDS =      -275.99994761
  atomic energy  EATOM  =      2086.78124273
  Solvation  Ediel_sol  =         0.00000000
  ---------------------------------------------------
  free energy    TOTEN  =       -20.19805031 eV

  energy without entropy =      -20.19805031  energy(sigma->0) =      -20.19805031


--------------------------------------------------------------------------------------------------------




--------------------------------------- Iteration      1(  10)  ---------------------------------------


    POTLOK:  cpu time      1.5244: real time      0.1128
    SETDIJ:  cpu time      0.9822: real time      0.2402
    EDDIAG:  cpu time     76.5362: real time      4.3603
  RMM-DIIS:  cpu time    339.6694: real time     17.8011
    ORTHCH:  cpu time      1.2853: real time      0.0798
 BZINTS: Fermi energy:    4.844880;   22.000000 electrons
         Band energy:-0.275032E+03;  BLOECHL correction:   -0.206107
       DOS:  cpu time      0.3106: real time      0.0556
    CHARGE:  cpu time     39.1643: real time      2.1435
    MIXING:  cpu time      0.0013: real time      0.0013
    --------------------------------------------
      LOOP:  cpu time    459.4737: real time     24.7946

 eigenvalue-minimisations  :  4753
 total energy-change (2. order) : 0.3242645E-02  (-0.5896442E-03)
 number of electron      21.9999998 magnetization      -0.0064696
 augmentation part        8.0564892 magnetization      -0.0048302

 Broyden mixing:
  rms(total) = 0.68024E-01    rms(broyden)= 0.68024E-01
  rms(prec ) = 0.75672E-01
  weight for this iteration     100.00

 eigenvalues of (default mixing * dielectric matrix)
  average eigenvalue GAMMA=   1.3476
  2.6170  1.3678  1.3678  0.6297  0.7559

 Free energy of the ion-electron system (eV)
  ---------------------------------------------------
  alpha Z        PSCENC =       247.02244180
  Ewald energy   TEWEN  =     -1908.84641101
  -Hartree energ DENC   =      -246.06920703
  -exchange      EXHF   =         0.00000000
  -V(xc)+E(xc)   XCENC  =        50.89528680
  PAW double counting   =      2783.74180842    -2758.68772300
  entropy T*S    EENTRO =         0.00000000
  eigenvalues    EBANDS =      -275.03224637
  atomic energy  EATOM  =      2086.78124273
  Solvation  Ediel_sol  =         0.00000000
  ---------------------------------------------------
  free energy    TOTEN  =       -20.19480766 eV

  energy without entropy =      -20.19480766  energy(sigma->0) =      -20.19480766


--------------------------------------------------------------------------------------------------------




--------------------------------------- Iteration      1(  11)  ---------------------------------------


    POTLOK:  cpu time      2.1147: real time      0.1395
    SETDIJ:  cpu time      1.1207: real time      0.2474
    EDDIAG:  cpu time     93.6369: real time      5.2061
  RMM-DIIS:  cpu time    346.1602: real time     18.6413
    ORTHCH:  cpu time      1.3479: real time      0.0833
 BZINTS: Fermi energy:    4.856949;   22.000000 electrons
         Band energy:-0.274493E+03;  BLOECHL correction:   -0.206292
       DOS:  cpu time      0.2651: real time      0.0486
    CHARGE:  cpu time     39.9067: real time      2.1749
    MIXING:  cpu time      0.0017: real time      0.0017
    --------------------------------------------
      LOOP:  cpu time    484.5539: real time     26.5429

 eigenvalue-minimisations  :  5405
 total energy-change (2. order) :-0.1132661E-03  (-0.5553406E-03)
 number of electron      21.9999998 magnetization      -0.0046774
 augmentation part        8.0496533 magnetization      -0.0003592

 Broyden mixing:
  rms(total) = 0.40012E-02    rms(broyden)= 0.40012E-02
  rms(prec ) = 0.48566E-02
  weight for this iteration     100.00

 eigenvalues of (default mixing * dielectric matrix)
  average eigenvalue GAMMA=   1.2680
  2.5861  1.4491  1.4491  0.7877  0.6203  0.7155

 Free energy of the ion-electron system (eV)
  ---------------------------------------------------
  alpha Z        PSCENC =       247.02244180
  Ewald energy   TEWEN  =     -1908.84641101
  -Hartree energ DENC   =      -246.56364351
  -exchange      EXHF   =         0.00000000
  -V(xc)+E(xc)   XCENC  =        50.91865091
  PAW double counting   =      2861.00190728    -2836.01659334
  entropy T*S    EENTRO =         0.00000000
  eigenvalues    EBANDS =      -274.49251578
  atomic energy  EATOM  =      2086.78124273
  Solvation  Ediel_sol  =         0.00000000
  ---------------------------------------------------
  free energy    TOTEN  =       -20.19492093 eV

  energy without entropy =      -20.19492093  energy(sigma->0) =      -20.19492093


--------------------------------------------------------------------------------------------------------




--------------------------------------- Iteration      1(  12)  ---------------------------------------


    POTLOK:  cpu time      1.3088: real time      0.1015
    SETDIJ:  cpu time      0.9329: real time      0.2494
    EDDIAG:  cpu time    505.1392: real time     24.9860
  RMM-DIIS:  cpu time   1927.9808: real time     85.9942
    ORTHCH:  cpu time      1.4118: real time      0.0860
 BZINTS: Fermi energy:    4.857196;   22.000000 electrons
         Band energy:-0.274482E+03;  BLOECHL correction:   -0.206300
       DOS:  cpu time      0.3257: real time      0.0547
    --------------------------------------------
      LOOP:  cpu time   2437.0991: real time    111.4717

 eigenvalue-minimisations  :  3927
 total energy-change (2. order) :-0.7876025E-04  (-0.5903591E-04)
 number of electron      21.9999998 magnetization      -0.0046774
 augmentation part        8.0496533 magnetization      -0.0003592

 Free energy of the ion-electron system (eV)
  ---------------------------------------------------
  alpha Z        PSCENC =       247.02244180
  Ewald energy   TEWEN  =     -1908.84641101
  -Hartree energ DENC   =      -246.59115532
  -exchange      EXHF   =         0.00000000
  -V(xc)+E(xc)   XCENC  =        50.91999005
  PAW double counting   =      2860.51372659    -2835.51260884
  entropy T*S    EENTRO =         0.00000000
  eigenvalues    EBANDS =      -274.48222569
  atomic energy  EATOM  =      2086.78124273
  Solvation  Ediel_sol  =         0.00000000
  ---------------------------------------------------
  free energy    TOTEN  =       -20.19499969 eV

  energy without entropy =      -20.19499969  energy(sigma->0) =      -20.19499969


--------------------------------------------------------------------------------------------------------




 average (electrostatic) potential at core
  the test charge radii are     1.2125
  (the norm of the test charge is              1.0000)
       1 -35.1672       2 -35.1672



 E-fermi :   4.8572     XC(G=0): -12.3448     alpha+bet :-12.7651

 Fermi energy:         4.8571964819

 spin component 1

 k-point     1 :       0.0000    0.0000    0.0000
  band No.  band energies     occupation 
      1     -25.8297      1.00000
      2     -25.7815      1.00000
      3     -25.7324      1.00000
      4     -24.9045      1.00000
      5     -24.9041      1.00000
      6     -24.9017      1.00000
      7      -1.0610      1.00000
      8       1.1666      1.00000
      9       1.2516      1.00000
     10       4.9905      0.12354
     11       5.2182     -0.01808
     12       5.4242      0.00000
     13       7.7819      0.00000
     14       8.2930      0.00000
     15      10.2514      0.00000
     16      10.3434      0.00000

 k-point     2 :       0.1429    0.0000    0.0000
  band No.  band energies     occupation 
      1     -25.8226      1.00000
      2     -25.7375      1.00000
      3     -25.6906      1.00000
      4     -24.9906      1.00000
      5     -24.9468      1.00000
      6     -24.9445      1.00000
      7      -0.6673      1.00000
      8       1.4560      1.00000
      9       1.4937      1.00000
     10       4.9995      0.25106
     11       5.2211     -0.05206
     12       5.6059      0.00000
     13       7.2561      0.00000
     14       8.4161      0.00000
     15       9.2502      0.00000
     16       9.2907      0.00000

 k-point     3 :       0.2857    0.0000    0.0000
  band No.  band energies     occupation 
      1     -25.7821      1.00000
      2     -25.6145      1.00000
      3     -25.5740      1.00000
      4     -25.2124      1.00000
      5     -25.0669      1.00000
      6     -25.0572      1.00000
      7       0.3889      1.00000
      8       2.1063      1.00000
      9       2.1893      1.00000
     10       5.1152      0.46710
     11       5.3206     -0.21485
     12       5.9680      0.00000
     13       6.1362      0.00000
     14       7.6138      0.00000
     15       7.7279      0.00000
     16       8.7401      0.00000

 k-point     4 :       0.4286    0.0000    0.0000
  band No.  band energies     occupation 
      1     -25.6696      1.00000
      2     -25.4680      1.00000
      3     -25.4373      1.00000
      4     -25.4063      1.00000
      5     -25.2417      1.00000
      6     -25.2218      1.00000
      7       1.7047      1.00000
      8       2.4950      1.00000
      9       3.1388      1.00000
     10       4.4810      1.00119
     11       5.5147     -0.31467
     12       5.6970      0.00000
     13       6.3333      0.00000
     14       6.4869      0.00000
     15       6.9666      0.00000
     16       8.0005      0.00000

 k-point     5 :       0.0000    0.1429    0.0000
  band No.  band energies     occupation 
      1     -25.7848      1.00000
      2     -25.7826      1.00000
      3     -25.6899      1.00000
      4     -24.9987      1.00000
      5     -24.9461      1.00000
      6     -24.9436      1.00000
      7      -0.6515      1.00000
      8       1.4268      1.00000
      9       1.5564      1.00000
     10       4.9647      0.37781
     11       5.3873     -0.07564
     12       5.4094      0.00000
     13       7.3954      0.00000
     14       8.3189      0.00000
     15       9.1103      0.00000
     16       9.2022      0.00000

 k-point     6 :       0.1429    0.1429    0.0000
  band No.  band energies     occupation 
      1     -25.8812      1.00000
      2     -25.6516      1.00000
      3     -25.6417      1.00000
      4     -25.1623      1.00000
      5     -24.9790      1.00000
      6     -24.9015      1.00000
      7      -0.2965      1.00000
      8       1.6816      1.00000
      9       1.8099      1.00000
     10       4.8853      0.70341
     11       4.8979      0.39771
     12       6.1007     -0.00569
     13       7.3196      0.00000
     14       8.0421      0.00000
     15       8.1950      0.00000
     16       8.2482      0.00000

 k-point     7 :       0.2857    0.1429    0.0000
  band No.  band energies     occupation 
      1     -25.9125      1.00000
      2     -25.5450      1.00000
      3     -25.4661      1.00000
      4     -25.4213      1.00000
      5     -25.0791      1.00000
      6     -24.9517      1.00000
      7       0.6286      1.00000
      8       2.1678      1.00000
      9       2.5626      1.00000
     10       4.6841      0.98845
     11       4.7452      0.86248
     12       6.6029     -0.05019
     13       6.6777      0.00000
     14       6.9560      0.00000
     15       6.9722      0.00000
     16       8.5487      0.00000

 k-point     8 :       0.4286    0.1429    0.0000
  band No.  band energies     occupation 
      1     -25.8477      1.00000
      2     -25.6739      1.00000
      3     -25.3927      1.00000
      4     -25.2721      1.00000
      5     -25.2263      1.00000
      6     -25.0881      1.00000
      7       1.7234      1.00000
      8       2.3993      1.00000
      9       3.3913      1.00000
     10       4.2819      1.00430
     11       4.8624      0.77295
     12       5.5028     -0.04992
     13       6.3100      0.00000
     14       6.4333      0.00000
     15       7.9944      0.00000
     16       8.9385      0.00000

 k-point     9 :       0.0000    0.2857    0.0000
  band No.  band energies     occupation 
      1     -25.7687      1.00000
      2     -25.6513      1.00000
      3     -25.5714      1.00000
      4     -25.2313      1.00000
      5     -25.0718      1.00000
      6     -25.0544      1.00000
      7       0.4417      1.00000
      8       2.1044      1.00000
      9       2.2989      1.00000
     10       5.0042      0.70002
     11       5.3971     -0.18958
     12       5.9680      0.00000
     13       6.1074      0.00000
     14       7.4014      0.00000
     15       7.6298      0.00000
     16       8.7782      0.00000

 k-point    10 :       0.1429    0.2857    0.0000
  band No.  band energies     occupation 
      1     -25.9161      1.00000
      2     -25.5432      1.00000
      3     -25.4785      1.00000
      4     -25.4315      1.00000
      5     -25.0771      1.00000
      6     -24.9578      1.00000
      7       0.6601      1.00000
      8       2.1840      1.00000
      9       2.6153      1.00000
     10       4.6797      0.99765
     11       4.7266      0.85110
     12       6.5637     -0.05053
     13       6.7128      0.00000
     14       6.8773      0.00000
     15       6.9130      0.00000
     16       8.5906      0.00000

 k-point    11 :       0.2857    0.2857    0.0000
  band No.  band energies     occupation 
      1     -26.0431      1.00000
      2     -25.7141      1.00000
      3     -25.4656      1.00000
      4     -25.2637      1.00000
      5     -25.1426      1.00000
      6     -24.8984      1.00000
      7       1.1031      1.00000
      8       2.1257      1.00000
      9       3.5687      1.00000
     10       4.0946      1.00036
     11       4.7802      0.91909
     12       5.2624      0.00900
     13       6.4117      0.00000
     14       7.4078      0.00000
     15       8.1822      0.00000
     16       8.3296      0.00000

 k-point    12 :       0.4286    0.2857    0.0000
  band No.  band energies     occupation 
      1     -26.0609      1.00000
      2     -25.9450      1.00000
      3     -25.3569      1.00000
      4     -25.2415      1.00000
      5     -25.0760      1.00000
      6     -24.9446      1.00000
      7       1.4866      1.00000
      8       1.8450      1.00000
      9       3.9674      1.00000
     10       4.3604      1.00000
     11       4.5731      0.84062
     12       5.0505      0.05712
     13       6.8150      0.00000
     14       7.3659      0.00000
     15       8.7464      0.00000
     16       9.4214      0.00000

 k-point    13 :       0.0000    0.4286    0.0000
  band No.  band energies     occupation 
      1     -25.6802      1.00000
      2     -25.4902      1.00000
      3     -25.4627      1.00000
      4     -25.4022      1.00000
      5     -25.2557      1.00000
      6     -25.2175      1.00000
      7       1.7951      1.00000
      8       2.6129      1.00000
      9       3.1807      1.00000
     10       4.5733      0.99863
     11       5.3326     -0.11304
     12       5.6836      0.00000
     13       6.1133      0.00000
     14       6.4124      0.00000
     15       6.8433      0.00000
     16       7.9349      0.00000

 k-point    14 :       0.1429    0.4286    0.0000
  band No.  band energies     occupation 
      1     -25.8609      1.00000
      2     -25.6905      1.00000
      3     -25.3894      1.00000
      4     -25.2876      1.00000
      5     -25.2228      1.00000
      6     -25.1004      1.00000
      7       1.7699      1.00000
      8       2.4481      1.00000
      9       3.4442      1.00000
     10       4.3354      1.00183
     11       4.8313      0.82351
     12       5.4549     -0.04791
     13       6.2017      0.00000
     14       6.3298      0.00000
     15       7.9131      0.00000
     16       9.0270      0.00000

 k-point    15 :       0.2857    0.4286    0.0000
  band No.  band energies     occupation 
      1     -26.0676      1.00000
      2     -25.9523      1.00000
      3     -25.3554      1.00000
      4     -25.2399      1.00000
      5     -25.0819      1.00000
      6     -24.9499      1.00000
      7       1.4900      1.00000
      8       1.8490      1.00000
      9       3.9523      1.00000
     10       4.3426      1.00000
     11       4.5869      0.83323
     12       5.0818      0.03678
     13       6.8337      0.00000
     14       7.3085      0.00000
     15       8.9007      0.00000
     16       9.3879      0.00000

 k-point    16 :       0.4286    0.4286    0.0000
  band No.  band energies     occupation 
      1     -26.1706      1.00000
      2     -26.1300      1.00000
      3     -25.3115      1.00000
      4     -25.2702      1.00000
      5     -24.9438      1.00000
      6     -24.8961      1.00000
      7       1.2526      1.00000
      8       1.3688      1.00000
      9       3.5397      1.00000
     10       3.6715      1.00000
     11       6.0537     -0.15015
     12       6.3908     -0.09015
     13       7.4319      0.00000
     14       7.7976      0.00000
     15       8.5771      0.00000
     16       9.5004      0.00000

 k-point    17 :       0.0000    0.0000    0.1429
  band No.  band energies     occupation 
      1     -25.7816      1.00000
      2     -25.7477      1.00000
      3     -25.7358      1.00000
      4     -25.0066      1.00000
      5     -24.9450      1.00000
      6     -24.9447      1.00000
      7      -0.6345      1.00000
      8       1.4082      1.00000
      9       1.6133      1.00000
     10       5.1457      0.11522
     11       5.1922     -0.02335
     12       5.3466      0.00000
     13       7.6493      0.00000
     14       8.1070      0.00000
     15       9.0156      0.00000
     16       9.0668      0.00000

 k-point    18 :       0.1429    0.0000    0.1429
  band No.  band energies     occupation 
      1     -25.8647      1.00000
      2     -25.6954      1.00000
      3     -25.6222      1.00000
      4     -25.1622      1.00000
      5     -24.9824      1.00000
      6     -24.9059      1.00000
      7      -0.2793      1.00000
      8       1.6635      1.00000
      9       1.8654      1.00000
     10       4.7339      0.90630
     11       5.0488      0.09298
     12       6.0160     -0.00625
     13       7.5081      0.00000
     14       7.9149      0.00000
     15       8.1215      0.00000
     16       8.1853      0.00000

 k-point    19 :       0.2857    0.0000    0.1429
  band No.  band energies     occupation 
      1     -25.8977      1.00000
      2     -25.5830      1.00000
      3     -25.4507      1.00000
      4     -25.4161      1.00000
      5     -25.0891      1.00000
      6     -24.9547      1.00000
      7       0.6473      1.00000
      8       2.1748      1.00000
      9       2.5892      1.00000
     10       4.5071      1.02152
     11       4.8425      0.72872
     12       6.4522     -0.05203
     13       6.8121      0.00000
     14       6.9242      0.00000
     15       7.0191      0.00000
     16       8.5388      0.00000

 k-point    20 :       0.4286    0.0000    0.1429
  band No.  band energies     occupation 
      1     -25.8354      1.00000
      2     -25.6647      1.00000
      3     -25.4219      1.00000
      4     -25.2629      1.00000
      5     -25.2455      1.00000
      6     -25.0858      1.00000
      7       1.7462      1.00000
      8       2.4229      1.00000
      9       3.3912      1.00000
     10       4.2879      1.00482
     11       4.6850      0.90077
     12       5.3349     -0.03652
     13       6.5012      0.00000
     14       6.5681      0.00000
     15       7.9802      0.00000
     16       8.9537      0.00000

 k-point    21 :       0.0000    0.1429    0.1429
  band No.  band energies     occupation 
      1     -25.8404      1.00000
      2     -25.7384      1.00000
      3     -25.6099      1.00000
      4     -25.1622      1.00000
      5     -24.9842      1.00000
      6     -24.9107      1.00000
      7      -0.2633      1.00000
      8       1.6615      1.00000
      9       1.9000      1.00000
     10       4.6147      1.01105
     11       5.2014     -0.02693
     12       5.9126     -0.00658
     13       7.7301      0.00000
     14       7.7896      0.00000
     15       7.9570      0.00000
     16       8.1989      0.00000

 k-point    22 :       0.1429    0.1429    0.1429
  band No.  band energies     occupation 
      1     -25.8334      1.00000
      2     -25.7911      1.00000
      3     -25.4913      1.00000
      4     -25.2937      1.00000
      5     -24.9568      1.00000
      6     -24.9468      1.00000
      7       0.0777      1.00000
      8       1.9858      1.00000
      9       2.0732      1.00000
     10       4.5022      1.05350
     11       4.7394      0.73992
     12       6.4109     -0.05576
     13       6.6284      0.00000
     14       7.6450      0.00000
     15       8.0040      0.00000
     16       9.1930      0.00000

 k-point    23 :       0.2857    0.1429    0.1429
  band No.  band energies     occupation 
      1     -25.9079      1.00000
      2     -25.6630      1.00000
      3     -25.5308      1.00000
      4     -25.3223      1.00000
      5     -25.0836      1.00000
      6     -24.9541      1.00000
      7       0.9427      1.00000
      8       2.5462      1.00000
      9       2.6673      1.00000
     10       4.2565      1.01902
     11       4.4561      1.02753
     12       5.2082      0.09743
     13       7.0917      0.00000
     14       7.7155      0.00000
     15       7.9800      0.00000
     16       8.4458      0.00000

 k-point    24 :       0.4286    0.1429    0.1429
  band No.  band energies     occupation 
      1     -25.8878      1.00000
      2     -25.7529      1.00000
      3     -25.4759      1.00000
      4     -25.2690      1.00000
      5     -25.1619      1.00000
      6     -25.0318      1.00000
      7       1.9181      1.00000
      8       2.6586      1.00000
      9       3.2275      1.00000
     10       3.8708      1.00479
     11       4.6721      0.95432
     12       4.9106      0.26337
     13       6.7047      0.00000
     14       6.9893      0.00000
     15       8.4588      0.00000
     16       8.7127      0.00000

 k-point    25 :       0.0000    0.2857    0.1429
  band No.  band energies     occupation 
      1     -25.8851      1.00000
      2     -25.6182      1.00000
      3     -25.4488      1.00000
      4     -25.4214      1.00000
      5     -25.0955      1.00000
      6     -24.9637      1.00000
      7       0.6961      1.00000
      8       2.1983      1.00000
      9       2.6631      1.00000
     10       4.3462      1.03189
     11       4.9232      0.52125
     12       6.2668     -0.05296
     13       6.8198      0.00000
     14       6.9556      0.00000
     15       7.0221      0.00000
     16       8.5792      0.00000

 k-point    26 :       0.1429    0.2857    0.1429
[...]
  band No.  band energies     occupation 
      1     -26.0178      1.00000
      2     -25.9433      1.00000
      3     -25.4849      1.00000
      4     -25.2984      1.00000
      5     -25.0764      1.00000
      6     -25.0113      1.00000
      7       1.8575      1.00000
      8       2.1558      1.00000
      9       3.4434      1.00000
     10       3.5803      1.00000
     11       4.7672      0.80102
     12       4.8293      0.46505
     13       7.4334      0.00000
     14       7.7100      0.00000
     15       9.0163      0.00000
     16       9.4651      0.00000

 k-point    59 :       0.2857    0.2857    0.4286
  band No.  band energies     occupation 
      1     -25.9449      1.00000
      2     -25.9420      1.00000
      3     -25.5918      1.00000
      4     -25.3364      1.00000
      5     -25.0959      1.00000
      6     -25.0679      1.00000
      7       2.5002      1.00000
      8       2.5364      1.00000
      9       3.4623      1.00000
     10       3.5100      1.00000
     11       4.1875      0.99883
     12       4.5602      0.96485
     13       7.9682      0.00000
     14       8.0786      0.00000
     15       8.9386      0.00000
     16       9.0600      0.00000

 k-point    60 :       0.4286    0.2857    0.4286
  band No.  band energies     occupation 
      1     -25.9521      1.00000
      2     -25.9346      1.00000
      3     -25.5408      1.00000
      4     -25.4018      1.00000
      5     -25.1536      1.00000
      6     -25.1120      1.00000
      7       2.5443      1.00000
      8       2.6743      1.00000
      9       3.2451      1.00000
     10       3.4290      1.00000
     11       4.7371      0.83217
     12       4.9038      0.57720
     13       8.3265      0.00000
     14       8.3946      0.00000
     15       8.8333      0.00000
     16       8.8954      0.00000

 k-point    61 :       0.0000    0.4286    0.4286
  band No.  band energies     occupation 
      1     -26.1608      1.00000
      2     -26.1227      1.00000
      3     -25.3529      1.00000
      4     -25.3066      1.00000
      5     -24.9824      1.00000
      6     -24.9373      1.00000
      7       1.2275      1.00000
      8       1.3329      1.00000
      9       3.0823      1.00000
     10       3.2140      1.00000
     11       6.2908     -0.16715
     12       6.6593     -0.04742
     13       7.9239      0.00000
     14       8.3325      0.00000
     15       8.8106      0.00000
     16       9.8351      0.00000

 k-point    62 :       0.1429    0.4286    0.4286
  band No.  band energies     occupation 
      1     -26.1016      1.00000
      2     -26.0761      1.00000
      3     -25.4101      1.00000
      4     -25.3375      1.00000
      5     -25.0172      1.00000
      6     -24.9990      1.00000
      7       1.6142      1.00000
      8       1.6856      1.00000
      9       3.0829      1.00000
     10       3.1921      1.00000
     11       5.9044     -0.18159
     12       6.0001     -0.11794
     13       8.1005      0.00000
     14       8.3649      0.00000
     15       8.8305      0.00000
     16       9.2801      0.00000

 k-point    63 :       0.2857    0.4286    0.4286
  band No.  band energies     occupation 
      1     -25.9533      1.00000
      2     -25.9348      1.00000
      3     -25.5398      1.00000
      4     -25.3940      1.00000
      5     -25.1711      1.00000
      6     -25.1236      1.00000
      7       2.4716      1.00000
      8       2.5991      1.00000
      9       3.1655      1.00000
     10       3.3543      1.00000
     11       4.8517      0.76268
     12       5.0106      0.37604
     13       8.4535      0.00000
     14       8.5455      0.00000
     15       8.8738      0.00000
     16       8.9606      0.00000

 k-point    64 :       0.4286    0.4286    0.4286
  band No.  band energies     occupation 
      1     -25.8053      1.00000
      2     -25.6944      1.00000
      3     -25.6724      1.00000
      4     -25.4216      1.00000
      5     -25.3865      1.00000
      6     -25.2749      1.00000
      7       3.0373      1.00000
      8       3.4322      1.00000
      9       3.4748      1.00000
     10       3.9324      1.00000
     11       4.0771      1.00000
     12       4.1279      1.08792
     13       8.6564      0.00000
     14       8.6742      0.00000
     15       8.8909      0.00000
     16       8.8955      0.00000


--------------------------------------------------------------------------------------------------------


 soft charge-density along one line, spin component           1
         0         1         2         3         4         5         6         7         8         9
 total charge-density along one line

 soft charge-density along one line, spin component           2
         0         1         2         3         4         5         6         7         8         9
 total charge-density along one line

 pseudopotential strength for first ion, spin component:           1
-28.106   0.000   0.000   5.977  -0.000  -0.000  -0.000  -0.000
  0.000 -28.108   0.000  -0.000   5.978  -0.000   0.000  -0.000
  0.000   0.000 -28.106  -0.000  -0.000   5.976  -0.000   0.000
  5.977  -0.000  -0.000   4.218   0.000   0.000   0.000   0.000
 -0.000   5.978  -0.000   0.000   4.218   0.000   0.000   0.000
 -0.000  -0.000   5.976   0.000   0.000   4.218   0.000   0.000
 -0.000   0.000  -0.000   0.000   0.000   0.000  -6.357   0.000
 -0.000  -0.000   0.000   0.000   0.000   0.000   0.000  -6.357
  0.000  -0.000   0.000  -0.000   0.000  -0.000  -0.000  -0.000
  0.000  -0.000  -0.000   0.000   0.000   0.000   0.000   0.000
  0.000  -0.000  -0.000  -0.000   0.000   0.000  -0.000   0.000
 -0.000   0.000  -0.000   0.000   0.000   0.000  -7.213   0.000
 -0.000  -0.000   0.000   0.000   0.000   0.000   0.000  -7.214
  0.000  -0.000   0.000  -0.000   0.000  -0.000  -0.000  -0.000
  0.000  -0.000  -0.000   0.000   0.000   0.000   0.000   0.000
  0.000  -0.000  -0.000  -0.000   0.000   0.000  -0.000   0.000
  0.000   0.000   0.000   0.000  -0.000   0.000  -0.000  -0.000
 -0.000  -0.000  -0.000  -0.000  -0.000  -0.000   0.000   0.000
 pseudopotential strength for first ion, spin component:           2
-28.106  -0.000   0.000   5.977  -0.000  -0.000  -0.000  -0.000
 -0.000 -28.108   0.000  -0.000   5.978  -0.000   0.000  -0.000
  0.000   0.000 -28.106  -0.000  -0.000   5.977  -0.000   0.000
  5.977  -0.000  -0.000   4.218   0.000   0.000   0.000   0.000
 -0.000   5.978  -0.000   0.000   4.218   0.000  -0.000   0.000
 -0.000  -0.000   5.977   0.000   0.000   4.218   0.000  -0.000
 -0.000   0.000  -0.000   0.000  -0.000   0.000  -6.357   0.000
 -0.000  -0.000   0.000   0.000   0.000  -0.000   0.000  -6.357
  0.000  -0.000   0.000  -0.000   0.000  -0.000  -0.000  -0.000
  0.000  -0.000  -0.000  -0.000   0.000   0.000  -0.000   0.000
  0.000  -0.000   0.000  -0.000   0.000  -0.000  -0.000   0.000
 -0.000   0.000  -0.000   0.000  -0.000   0.000  -7.213   0.000
 -0.000  -0.000   0.000   0.000   0.000  -0.000   0.000  -7.214
  0.000  -0.000   0.000  -0.000   0.000  -0.000  -0.000  -0.000
  0.000  -0.000  -0.000  -0.000   0.000   0.000  -0.000   0.000
  0.000  -0.000   0.000  -0.000   0.000  -0.000  -0.000   0.000
  0.000   0.000   0.000  -0.000  -0.000   0.000  -0.000  -0.000
 -0.000  -0.000  -0.000  -0.000  -0.000  -0.000   0.000   0.000
 total augmentation occupancy for first ion, spin component:           1
  1.993   0.000   0.000  -0.013  -0.000  -0.000   0.000   0.000   0.000   0.000   0.000   0.000   0.000   0.000   0.000  -0.000
  0.000   1.993   0.000  -0.000  -0.013  -0.000   0.000  -0.000   0.000   0.000   0.000   0.000   0.000   0.000   0.000   0.000
  0.000   0.000   1.993  -0.000  -0.000  -0.013   0.000  -0.000   0.000   0.000  -0.000   0.000  -0.000   0.000   0.000  -0.000
 -0.013  -0.000  -0.000   0.203   0.000   0.000   0.000  -0.000   0.000   0.000   0.000   0.000  -0.000   0.000   0.000   0.000
 -0.000  -0.013  -0.000   0.000   0.206   0.000   0.000   0.000  -0.000   0.000   0.000   0.000   0.000  -0.000   0.000   0.000
 -0.000  -0.000  -0.013   0.000   0.000   0.202   0.000   0.000   0.000  -0.000   0.000   0.000   0.000   0.000   0.000   0.000
  0.000   0.000   0.000   0.000   0.000   0.000   6.104   0.000  -0.000   0.000   0.000  -3.390  -0.000   0.000  -0.000  -0.000
  0.000  -0.000   0.000  -0.000   0.000   0.000   0.000   5.895   0.000   0.000  -0.000  -0.000  -3.293  -0.000  -0.000   0.000
  0.000   0.000   0.000   0.000   0.000   0.000  -0.000   0.000   5.696   0.000   0.041   0.000  -0.000  -3.351  -0.000  -0.020
  0.000   0.000   0.000   0.000  -0.000  -0.000   0.000   0.000   0.000   5.991   0.000  -0.000  -0.000  -0.000  -3.338  -0.000
  0.000   0.000  -0.000   0.000  -0.000   0.000   0.000  -0.000   0.041   0.000   5.552  -0.000   0.000  -0.020  -0.000  -3.280
  0.000   0.000   0.000   0.000   0.000   0.000  -3.390  -0.000   0.000  -0.000  -0.000   1.922   0.000  -0.000   0.000  -0.000
  0.000   0.000   0.000  -0.000   0.000   0.000  -0.000  -3.293  -0.000  -0.000   0.000   0.000   1.876   0.000   0.000  -0.000
  0.000  -0.000   0.000   0.000  -0.000   0.000   0.000  -0.000  -3.351  -0.000  -0.020  -0.000   0.000   1.990   0.000   0.010
  0.000   0.000   0.000   0.000  -0.000   0.000  -0.000  -0.000  -0.000  -3.338  -0.000   0.000   0.000   0.000   1.898   0.000
  0.000   0.000   0.000   0.000   0.000   0.000  -0.000   0.000  -0.020  -0.000  -3.280  -0.000  -0.000   0.010   0.000   1.955
  0.000   0.000   0.000   0.000   0.000   0.000  -0.000   0.000   0.027   0.000  -0.010  -0.000   0.000  -0.016   0.000   0.006
  0.000   0.000   0.000   0.000   0.000   0.000   0.000  -0.000   0.000   0.000  -0.000   0.000   0.000  -0.000  -0.000   0.000
 total augmentation occupancy for first ion, spin component:           2
  0.000   0.000   0.000   0.000   0.000   0.000   0.000  -0.000   0.000   0.000   0.000   0.000  -0.000   0.000  -0.000   0.000
  0.000   0.000   0.000   0.000   0.000   0.000   0.000   0.000   0.000   0.000   0.000   0.000   0.000   0.000   0.000   0.000
  0.000   0.000   0.000   0.000   0.000   0.000   0.000   0.000   0.000  -0.000  -0.000   0.000   0.000   0.000  -0.000  -0.000
  0.000   0.000   0.000  -0.000  -0.000  -0.000  -0.000   0.000   0.000  -0.000   0.000   0.000   0.000   0.000   0.000   0.000
  0.000   0.000   0.000  -0.000  -0.000  -0.000   0.000   0.000   0.000   0.000   0.000   0.000   0.000  -0.000   0.000   0.000
  0.000   0.000   0.000  -0.000  -0.000  -0.000   0.000   0.000  -0.000   0.000   0.000   0.000   0.000   0.000   0.000   0.000
  0.000   0.000   0.000   0.000   0.000   0.000  -0.003  -0.000   0.000  -0.000   0.000   0.002   0.000  -0.000   0.000  -0.000
  0.000   0.000   0.000   0.000   0.000   0.000  -0.000  -0.004  -0.000  -0.000   0.000   0.000   0.002   0.000   0.000  -0.000
  0.000   0.000   0.000   0.000   0.000  -0.000   0.000  -0.000  -0.007   0.000  -0.000  -0.000   0.000   0.005  -0.000   0.000
  0.000   0.000  -0.000  -0.000   0.000   0.000  -0.000  -0.000   0.000  -0.003  -0.000   0.000   0.000  -0.000   0.002   0.000
  0.000   0.000   0.000   0.000   0.000   0.000   0.000   0.000  -0.000  -0.000  -0.006  -0.000  -0.000   0.000   0.000   0.005
  0.000  -0.000   0.000   0.000   0.000   0.000   0.002   0.000  -0.000   0.000  -0.000  -0.001  -0.000   0.000  -0.000   0.000
 -0.000  -0.000   0.000   0.000   0.000   0.000   0.000   0.002   0.000   0.000  -0.000  -0.000  -0.001   0.000  -0.000   0.000
  0.000   0.000   0.000   0.000   0.000   0.000  -0.000   0.000   0.005  -0.000   0.000   0.000   0.000  -0.004   0.000  -0.000
 -0.000  -0.000  -0.000   0.000   0.000   0.000   0.000   0.000  -0.000   0.002   0.000  -0.000  -0.000   0.000  -0.001  -0.000
 -0.000   0.000  -0.000   0.000   0.000   0.000  -0.000  -0.000   0.000   0.000   0.005   0.000   0.000  -0.000  -0.000  -0.003
  0.000   0.000   0.000   0.000   0.000   0.000  -0.000  -0.000   0.000   0.000  -0.000   0.000  -0.000  -0.000   0.000   0.000
  0.000   0.000   0.000   0.000   0.000  -0.000  -0.000   0.000  -0.000   0.000   0.000   0.000   0.000   0.000   0.000  -0.000


------------------------ aborting loop because EDIFF is reached ----------------------------------------





 total charge

# of ion       s       p       d       tot
------------------------------------------
    1        0.419   6.290   3.084   9.792
    2        0.419   6.290   3.084   9.792
--------------------------------------------------
tot          0.837  12.580   6.167  19.585



 magnetization (x)

# of ion       s       p       d       tot
------------------------------------------
    1       -0.000  -0.000  -0.001  -0.001
    2       -0.000  -0.000  -0.001  -0.001
--------------------------------------------------
tot         -0.000  -0.000  -0.002  -0.003

    CHARGE:  cpu time     27.9892: real time      1.5939
    FORLOC:  cpu time      0.0004: real time      0.0004
    FORNL :  cpu time    124.0960: real time      6.8261
    STRESS:  cpu time    345.2669: real time     19.3156
    FORCOR:  cpu time      1.3167: real time      0.0936
    FORHAR:  cpu time      0.1472: real time      0.0098
    MIXING:  cpu time      0.0016: real time      0.0016
    OFIELD:  cpu time      0.0000: real time      0.0000

  FORCE on cell =-STRESS in cart. coord.  units (eV):
  Direction    XX          YY          ZZ          XY          YZ          ZX
  --------------------------------------------------------------------------------------
  Alpha Z   247.02244   247.02244   247.02244
  Ewald    -638.07086  -636.95753  -633.81869    -0.00000    -0.00000    -0.00000
  Hartree    81.31942    81.94041    83.32946    -0.00000    -0.00000    -0.00000
  E(xc)     -95.07194   -95.06763   -95.05917    -0.00000    -0.00000    -0.00000
  Local     206.38210   204.59847   200.16969     0.00000     0.00000    -0.00000
  n-local   -84.93613   -84.68667   -84.31460     0.61681     0.89080     0.80710
  augment    53.59415    53.57508    53.49636     0.00000     0.00000    -0.00000
  Kinetic   229.19535   229.49639   229.62651     0.38654     0.14898     0.25035
  Fock        0.00000     0.00000     0.00000     0.00000     0.00000     0.00000
  -------------------------------------------------------------------------------------
  Total      -0.56547    -0.07904     0.45200     0.00000    -0.00000     0.00000
  in kB     -24.71774    -3.45493    19.75784     0.00000    -0.00000     0.00000
  external pressure =       -2.80 kB  Pullay stress =        0.00 kB


 VOLUME and BASIS-vectors are now :
 -----------------------------------------------------------------------------
  energy-cutoff  :      520.00
  volume of cell :       36.65
      direct lattice vectors                 reciprocal lattice vectors
     3.388666806  0.000000000  0.000000000     0.295101306 -0.000000000  0.000000000
     0.000000000  3.322222359  0.000000000     0.000000000  0.301003332  0.000000000
     0.000000000  0.000000000  3.255777912    -0.000000000 -0.000000000  0.307146257

  length of vectors
     3.388666806  3.322222359  3.255777912     0.295101306  0.301003332  0.307146257


 FORCES acting on ions
    electron-ion (+dipol)            ewald-force                    non-local-force                 convergence-correction
 -----------------------------------------------------------------------------------------------
   -.958E-14 -.138E-13 -.123E-13   -.575E-14 -.696E-14 -.458E-14   -.151E-21 0.636E-23 -.308E-22   -.125E-13 -.160E-13 0.389E-13
   0.119E-12 0.151E-11 0.161E-11   0.451E-14 0.812E-14 0.365E-14   -.136E-21 0.512E-22 0.294E-23   -.111E-13 -.512E-13 -.121E-14
 -----------------------------------------------------------------------------------------------
   0.109E-12 0.150E-11 0.160E-11   -.125E-14 0.116E-14 -.930E-15   -.288E-21 0.576E-22 -.278E-22   -.236E-13 -.672E-13 0.377E-13


 POSITION                                       TOTAL-FORCE (eV/Angst)
 -----------------------------------------------------------------------------------
      0.00000      0.00000      0.00000        -0.000000      0.000000     -0.000000
      1.69433      1.66111      1.62789         0.000000     -0.000000      0.000000
 -----------------------------------------------------------------------------------
    total drift:                                0.000000      0.000000      0.000000


--------------------------------------------------------------------------------------------------------



  FREE ENERGIE OF THE ION-ELECTRON SYSTEM (eV)
  ---------------------------------------------------
  free  energy   TOTEN  =       -20.19499969 eV

  energy  without entropy=      -20.19499969  energy(sigma->0) =      -20.19499969



--------------------------------------------------------------------------------------------------------


    POTLOK:  cpu time      2.2806: real time      0.3556


--------------------------------------------------------------------------------------------------------


     LOOP+:  cpu time   9236.0291: real time    477.7569
 -----------------------------------------------------------------------------
|                                                                             |
|           W    W    AA    RRRRR   N    N  II  N    N   GGGG   !!!           |
|           W    W   A  A   R    R  NN   N  II  NN   N  G    G  !!!           |
|           W    W  A    A  R    R  N N  N  II  N N  N  G       !!!           |
|           W WW W  AAAAAA  RRRRR   N  N N  II  N  N N  G  GGG   !            |
|           WW  WW  A    A  R   R   N   NN  II  N   NN  G    G                |
|           W    W  A    A  R    R  N    N  II  N    N   GGGG   !!!           |
|                                                                             |
|     Tetrahedron method does not include variations of the Fermi             |
|     occupations, so forces and stress will be inaccurate. We suggest        |
|     using a different smearing scheme ISMEAR = 1 or 2 for metals in         |
|     relaxations.                                                            |
|                                                                             |
 -----------------------------------------------------------------------------

    4ORBIT:  cpu time      0.0000: real time      0.0000



 total charge

# of ion       s       p       d       tot
------------------------------------------
    1        0.419   6.290   3.084   9.792
    2        0.419   6.290   3.084   9.792
--------------------------------------------------
tot          0.837  12.580   6.167  19.585



 magnetization (x)

# of ion       s       p       d       tot
------------------------------------------
    1       -0.000  -0.000  -0.001  -0.001
    2       -0.000  -0.000  -0.001  -0.001
--------------------------------------------------
tot         -0.000  -0.000  -0.002  -0.003

 BZINTS: Fermi energy:    4.857196;   22.000000 electrons
         Band energy:-0.274482E+03;  BLOECHL correction:   -0.206300

 total amount of memory used by VASP MPI-rank0    85760. kBytes
=======================================================================

   base      :      30000. kBytes
   nonlr-proj:       3692. kBytes
   fftplans  :       5340. kBytes
   grid      :      12719. kBytes
   one-center:         62. kBytes
   wavefun   :      33947. kBytes

  
  
 General timing and accounting informations for this job:
 ========================================================
  
                  Total CPU time used (sec):     9290.322
                            User time (sec):     9069.416
                          System time (sec):      220.907
                         Elapsed time (sec):      481.552
  
                   Maximum memory used (kb):      338248.
                   Average memory used (kb):          N/A
  
                          Minor page faults:      5612543
                          Major page faults:           89
                 Voluntary context switches:      2447333
