   8   8   1   0
  0.1543912E+02  0.3892245E-09  0.3892245E-09  0.8152905E-09  0.5000000E-15
  1.000000000000000E-004
  CAR 
 unknown system                          
     19.58530946    -43.58820516  301      8.25241695      1.00000000
    -43.588  0.0000E+00  0.0000E+00  0.0000E+00  0.0000E+00
    -43.378  0.0000E+00  0.0000E+00  0.0000E+00  0.0000E+00
    -43.167  0.0000E+00  0.0000E+00  0.0000E+00  0.0000E+00
    -42.956  0.0000E+00  0.0000E+00  0.0000E+00  0.0000E+00
    -42.746  0.0000E+00  0.0000E+00  0.0000E+00  0.0000E+00
    -42.535  0.0000E+00  0.0000E+00  0.0000E+00  0.0000E+00
    -42.325  0.0000E+00  0.0000E+00  0.0000E+00  0.0000E+00
    -42.114  0.0000E+00  0.0000E+00  0.0000E+00  0.0000E+00
    -41.904  0.0000E+00  0.0000E+00  0.0000E+00  0.0000E+00
    -41.693  0.0000E+00  0.0000E+00  0.0000E+00  0.0000E+00
    -41.482  0.0000E+00  0.0000E+00  0.0000E+00  0.0000E+00
    -41.272  0.2792E-03  0.0000E+00  0.5879E-04  0.0000E+00
    -41.061  0.1893E-01  0.0000E+00  0.4044E-02  0.0000E+00
    -40.851  0.1198E+01  0.0000E+00  0.2563E+00  0.0000E+00
    -40.640  0.1582E+02  0.0000E+00  0.3588E+01  0.0000E+00
    -40.430  0.1069E+02  0.0000E+00  0.5840E+01  0.0000E+00
    -40.219  0.6886E+00  0.0000E+00  0.5998E+01  0.0000E+00
    -40.008  0.0000E+00  0.0000E+00  0.6000E+01  0.0000E+00
    -39.798  0.0000E+00  0.0000E+00  0.6000E+01  0.0000E+00
    -39.587  0.0000E+00  0.0000E+00  0.6000E+01  0.0000E+00
    -39.377  0.0000E+00  0.0000E+00  0.6000E+01  0.0000E+00
    -39.166  0.0000E+00  0.0000E+00  0.6000E+01  0.0000E+00
    -38.955  0.0000E+00  0.1256E-02  0.6000E+01  0.2646E-03
    -38.745  0.0000E+00  0.8325E-01  0.6000E+01  0.1779E-01
    -38.534  0.0000E+00  0.4659E+01  0.6000E+01  0.9990E+00
    -38.324  0.0000E+00  0.2174E+02  0.6000E+01  0.5576E+01
    -38.113  0.0000E+00  0.1981E+01  0.6000E+01  0.5993E+01
    -37.903  0.0000E+00  0.0000E+00  0.6000E+01  0.6000E+01
    -37.692  0.0000E+00  0.0000E+00  0.6000E+01  0.6000E+01
    -37.481  0.0000E+00  0.0000E+00  0.6000E+01  0.6000E+01
    -37.271  0.0000E+00  0.0000E+00  0.6000E+01  0.6000E+01
    -37.060  0.0000E+00  0.0000E+00  0.6000E+01  0.6000E+01
    -36.850  0.0000E+00  0.0000E+00  0.6000E+01  0.6000E+01
    -36.639  0.0000E+00  0.0000E+00  0.6000E+01  0.6000E+01
    -36.429  0.0000E+00  0.0000E+00  0.6000E+01  0.6000E+01
    -36.218  0.0000E+00  0.0000E+00  0.6000E+01  0.6000E+01
    -36.007  0.0000E+00  0.0000E+00  0.6000E+01  0.6000E+01
    -35.797  0.0000E+00  0.0000E+00  0.6000E+01  0.6000E+01
    -35.586  0.0000E+00  0.0000E+00  0.6000E+01  0.6000E+01
    -35.376  0.0000E+00  0.0000E+00  0.6000E+01  0.6000E+01
    -35.165  0.0000E+00  0.0000E+00  0.6000E+01  0.6000E+01
    -34.954  0.0000E+00  0.0000E+00  0.6000E+01  0.6000E+01
    -34.744  0.0000E+00  0.0000E+00  0.6000E+01  0.6000E+01
    -34.533  0.0000E+00  0.0000E+00  0.6000E+01  0.6000E+01
    -34.323  0.0000E+00  0.0000E+00  0.6000E+01  0.6000E+01
    -34.112  0.0000E+00  0.0000E+00  0.6000E+01  0.6000E+01
    -33.902  0.0000E+00  0.0000E+00  0.6000E+01  0.6000E+01
    -33.691  0.0000E+00  0.0000E+00  0.6000E+01  0.6000E+01
    -33.480  0.0000E+00  0.0000E+00  0.6000E+01  0.6000E+01
    -33.270  0.0000E+00  0.0000E+00  0.6000E+01  0.6000E+01
    -33.059  0.0000E+00  0.0000E+00  0.6000E+01  0.6000E+01
    -32.849  0.0000E+00  0.0000E+00  0.6000E+01  0.6000E+01
    -32.638  0.0000E+00  0.0000E+00  0.6000E+01  0.6000E+01
    -32.428  0.0000E+00  0.0000E+00  0.6000E+01  0.6000E+01
    -32.217  0.0000E+00  0.0000E+00  0.6000E+01  0.6000E+01
    -32.006  0.0000E+00  0.0000E+00  0.6000E+01  0.6000E+01
    -31.796  0.0000E+00  0.0000E+00  0.6000E+01  0.6000E+01
    -31.585  0.0000E+00  0.0000E+00  0.6000E+01  0.6000E+01
    -31.375  0.0000E+00  0.0000E+00  0.6000E+01  0.6000E+01
    -31.164  0.0000E+00  0.0000E+00  0.6000E+01  0.6000E+01
    -30.954  0.0000E+00  0.0000E+00  0.6000E+01  0.6000E+01
    -30.743  0.0000E+00  0.0000E+00  0.6000E+01  0.6000E+01
    -30.532  0.0000E+00  0.0000E+00  0.6000E+01  0.6000E+01
    -30.322  0.0000E+00  0.0000E+00  0.6000E+01  0.6000E+01
    -30.111  0.0000E+00  0.0000E+00  0.6000E+01  0.6000E+01
    -29.901  0.0000E+00  0.0000E+00  0.6000E+01  0.6000E+01
    -29.690  0.0000E+00  0.0000E+00  0.6000E+01  0.6000E+01
    -29.479  0.0000E+00  0.0000E+00  0.6000E+01  0.6000E+01
    -29.269  0.0000E+00  0.0000E+00  0.6000E+01  0.6000E+01
    -29.058  0.0000E+00  0.0000E+00  0.6000E+01  0.6000E+01
    -28.848  0.0000E+00  0.0000E+00  0.6000E+01  0.6000E+01
    -28.637  0.0000E+00  0.0000E+00  0.6000E+01  0.6000E+01
    -28.427  0.0000E+00  0.0000E+00  0.6000E+01  0.6000E+01
    -28.216  0.0000E+00  0.0000E+00  0.6000E+01  0.6000E+01
    -28.005  0.0000E+00  0.0000E+00  0.6000E+01  0.6000E+01
    -27.795  0.0000E+00  0.0000E+00  0.6000E+01  0.6000E+01
    -27.584  0.0000E+00  0.0000E+00  0.6000E+01  0.6000E+01
    -27.374  0.0000E+00  0.0000E+00  0.6000E+01  0.6000E+01
    -27.163  0.0000E+00  0.0000E+00  0.6000E+01  0.6000E+01
    -26.953  0.0000E+00  0.0000E+00  0.6000E+01  0.6000E+01
    -26.742  0.0000E+00  0.0000E+00  0.6000E+01  0.6000E+01
    -26.531  0.0000E+00  0.0000E+00  0.6000E+01  0.6000E+01
    -26.321  0.0000E+00  0.0000E+00  0.6000E+01  0.6000E+01
    -26.110  0.0000E+00  0.0000E+00  0.6000E+01  0.6000E+01
    -25.900  0.0000E+00  0.0000E+00  0.6000E+01  0.6000E+01
    -25.689  0.0000E+00  0.0000E+00  0.6000E+01  0.6000E+01
    -25.478  0.0000E+00  0.0000E+00  0.6000E+01  0.6000E+01
    -25.268  0.0000E+00  0.0000E+00  0.6000E+01  0.6000E+01
    -25.057  0.0000E+00  0.0000E+00  0.6000E+01  0.6000E+01
    -24.847  0.0000E+00  0.0000E+00  0.6000E+01  0.6000E+01
    -24.636  0.0000E+00  0.0000E+00  0.6000E+01  0.6000E+01
    -24.426  0.0000E+00  0.0000E+00  0.6000E+01  0.6000E+01
    -24.215  0.0000E+00  0.0000E+00  0.6000E+01  0.6000E+01
    -24.004  0.0000E+00  0.0000E+00  0.6000E+01  0.6000E+01
    -23.794  0.0000E+00  0.0000E+00  0.6000E+01  0.6000E+01
    -23.583  0.0000E+00  0.0000E+00  0.6000E+01  0.6000E+01
    -23.373  0.0000E+00  0.0000E+00  0.6000E+01  0.6000E+01
    -23.162  0.0000E+00  0.0000E+00  0.6000E+01  0.6000E+01
    -22.952  0.0000E+00  0.0000E+00  0.6000E+01  0.6000E+01
    -22.741  0.0000E+00  0.0000E+00  0.6000E+01  0.6000E+01
    -22.530  0.0000E+00  0.0000E+00  0.6000E+01  0.6000E+01
    -22.320  0.0000E+00  0.0000E+00  0.6000E+01  0.6000E+01
    -22.109  0.0000E+00  0.0000E+00  0.6000E+01  0.6000E+01
    -21.899  0.0000E+00  0.0000E+00  0.6000E+01  0.6000E+01
    -21.688  0.0000E+00  0.0000E+00  0.6000E+01  0.6000E+01
    -21.477  0.0000E+00  0.0000E+00  0.6000E+01  0.6000E+01
    -21.267  0.0000E+00  0.0000E+00  0.6000E+01  0.6000E+01
    -21.056  0.0000E+00  0.0000E+00  0.6000E+01  0.6000E+01
    -20.846  0.0000E+00  0.0000E+00  0.6000E+01  0.6000E+01
    -20.635  0.0000E+00  0.0000E+00  0.6000E+01  0.6000E+01
    -20.425  0.0000E+00  0.0000E+00  0.6000E+01  0.6000E+01
    -20.214  0.0000E+00  0.0000E+00  0.6000E+01  0.6000E+01
    -20.003  0.0000E+00  0.0000E+00  0.6000E+01  0.6000E+01
    -19.793  0.0000E+00  0.0000E+00  0.6000E+01  0.6000E+01
    -19.582  0.0000E+00  0.0000E+00  0.6000E+01  0.6000E+01
    -19.372  0.0000E+00  0.0000E+00  0.6000E+01  0.6000E+01
    -19.161  0.0000E+00  0.0000E+00  0.6000E+01  0.6000E+01
    -18.951  0.0000E+00  0.0000E+00  0.6000E+01  0.6000E+01
    -18.740  0.0000E+00  0.0000E+00  0.6000E+01  0.6000E+01
    -18.529  0.0000E+00  0.0000E+00  0.6000E+01  0.6000E+01
    -18.319  0.0000E+00  0.0000E+00  0.6000E+01  0.6000E+01
    -18.108  0.0000E+00  0.0000E+00  0.6000E+01  0.6000E+01
    -17.898  0.0000E+00  0.0000E+00  0.6000E+01  0.6000E+01
    -17.687  0.0000E+00  0.0000E+00  0.6000E+01  0.6000E+01
    -17.476  0.0000E+00  0.0000E+00  0.6000E+01  0.6000E+01
    -17.266  0.0000E+00  0.0000E+00  0.6000E+01  0.6000E+01
    -17.055  0.0000E+00  0.0000E+00  0.6000E+01  0.6000E+01
    -16.845  0.0000E+00  0.0000E+00  0.6000E+01  0.6000E+01
    -16.634  0.0000E+00  0.0000E+00  0.6000E+01  0.6000E+01
    -16.424  0.0000E+00  0.0000E+00  0.6000E+01  0.6000E+01
    -16.213  0.0000E+00  0.0000E+00  0.6000E+01  0.6000E+01
    -16.002  0.0000E+00  0.0000E+00  0.6000E+01  0.6000E+01
    -15.792  0.0000E+00  0.0000E+00  0.6000E+01  0.6000E+01
    -15.581  0.0000E+00  0.0000E+00  0.6000E+01  0.6000E+01
    -15.371  0.0000E+00  0.0000E+00  0.6000E+01  0.6000E+01
    -15.160  0.0000E+00  0.0000E+00  0.6000E+01  0.6000E+01
    -14.950  0.0000E+00  0.0000E+00  0.6000E+01  0.6000E+01
    -14.739  0.0000E+00  0.0000E+00  0.6000E+01  0.6000E+01
    -14.528  0.0000E+00  0.0000E+00  0.6000E+01  0.6000E+01
    -14.318  0.0000E+00  0.0000E+00  0.6000E+01  0.6000E+01
    -14.107  0.0000E+00  0.0000E+00  0.6000E+01  0.6000E+01
    -13.897  0.0000E+00  0.0000E+00  0.6000E+01  0.6000E+01
    -13.686  0.0000E+00  0.0000E+00  0.6000E+01  0.6000E+01
    -13.475  0.0000E+00  0.0000E+00  0.6000E+01  0.6000E+01
    -13.265  0.0000E+00  0.0000E+00  0.6000E+01  0.6000E+01
    -13.054  0.0000E+00  0.0000E+00  0.6000E+01  0.6000E+01
    -12.844  0.0000E+00  0.0000E+00  0.6000E+01  0.6000E+01
    -12.633  0.0000E+00  0.0000E+00  0.6000E+01  0.6000E+01
    -12.423  0.0000E+00  0.0000E+00  0.6000E+01  0.6000E+01
    -12.212  0.0000E+00  0.0000E+00  0.6000E+01  0.6000E+01
    -12.001  0.0000E+00  0.0000E+00  0.6000E+01  0.6000E+01
    -11.791  0.0000E+00  0.0000E+00  0.6000E+01  0.6000E+01
    -11.580  0.0000E+00  0.0000E+00  0.6000E+01  0.6000E+01
    -11.370  0.0000E+00  0.0000E+00  0.6000E+01  0.6000E+01
    -11.159  0.0000E+00  0.0000E+00  0.6000E+01  0.6000E+01
    -10.949  0.0000E+00  0.0000E+00  0.6000E+01  0.6000E+01
    -10.738  0.0000E+00  0.0000E+00  0.6000E+01  0.6000E+01
    -10.527  0.0000E+00  0.0000E+00  0.6000E+01  0.6000E+01
    -10.317  0.0000E+00  0.0000E+00  0.6000E+01  0.6000E+01
    -10.106  0.0000E+00  0.0000E+00  0.6000E+01  0.6000E+01
     -9.896  0.0000E+00  0.0000E+00  0.6000E+01  0.6000E+01
     -9.685  0.0000E+00  0.0000E+00  0.6000E+01  0.6000E+01
     -9.475  0.0000E+00  0.0000E+00  0.6000E+01  0.6000E+01
     -9.264  0.0000E+00  0.0000E+00  0.6000E+01  0.6000E+01
     -9.053  0.0000E+00  0.0000E+00  0.6000E+01  0.6000E+01
     -8.843  0.0000E+00  0.0000E+00  0.6000E+01  0.6000E+01
     -8.632  0.0000E+00  0.0000E+00  0.6000E+01  0.6000E+01
     -8.422  0.0000E+00  0.0000E+00  0.6000E+01  0.6000E+01
     -8.211  0.0000E+00  0.0000E+00  0.6000E+01  0.6000E+01
     -8.000  0.0000E+00  0.0000E+00  0.6000E+01  0.6000E+01
     -7.790  0.0000E+00  0.0000E+00  0.6000E+01  0.6000E+01
     -7.579  0.0000E+00  0.0000E+00  0.6000E+01  0.6000E+01
     -7.369  0.0000E+00  0.0000E+00  0.6000E+01  0.6000E+01
     -7.158  0.0000E+00  0.0000E+00  0.6000E+01  0.6000E+01
     -6.948  0.0000E+00  0.0000E+00  0.6000E+01  0.6000E+01
     -6.737  0.0000E+00  0.0000E+00  0.6000E+01  0.6000E+01
     -6.526  0.0000E+00  0.0000E+00  0.6000E+01  0.6000E+01
     -6.316  0.0000E+00  0.0000E+00  0.6000E+01  0.6000E+01
     -6.105  0.0000E+00  0.0000E+00  0.6000E+01  0.6000E+01
     -5.895  0.0000E+00  0.0000E+00  0.6000E+01  0.6000E+01
     -5.684  0.0000E+00  0.0000E+00  0.6000E+01  0.6000E+01
     -5.474  0.0000E+00  0.0000E+00  0.6000E+01  0.6000E+01
     -5.263  0.0000E+00  0.0000E+00  0.6000E+01  0.6000E+01
     -5.052  0.0000E+00  0.0000E+00  0.6000E+01  0.6000E+01
     -4.842  0.0000E+00  0.0000E+00  0.6000E+01  0.6000E+01
     -4.631  0.0000E+00  0.0000E+00  0.6000E+01  0.6000E+01
     -4.421  0.0000E+00  0.0000E+00  0.6000E+01  0.6000E+01
     -4.210  0.0000E+00  0.0000E+00  0.6000E+01  0.6000E+01
     -3.999  0.0000E+00  0.0000E+00  0.6000E+01  0.6000E+01
     -3.789  0.0000E+00  0.0000E+00  0.6000E+01  0.6000E+01
     -3.578  0.0000E+00  0.0000E+00  0.6000E+01  0.6000E+01
     -3.368  0.0000E+00  0.0000E+00  0.6000E+01  0.6000E+01
     -3.157  0.0000E+00  0.0000E+00  0.6000E+01  0.6000E+01
     -2.947  0.2004E-05  0.4040E-05  0.6000E+01  0.6000E+01
     -2.736  0.1498E-03  0.2784E-03  0.6000E+01  0.6000E+01
     -2.525  0.8625E-02  0.1451E-01  0.6002E+01  0.6003E+01
     -2.315  0.1017E+00  0.1225E+00  0.6023E+01  0.6029E+01
     -2.104  0.2246E+00  0.2373E+00  0.6071E+01  0.6079E+01
     -1.894  0.3000E+00  0.3162E+00  0.6134E+01  0.6146E+01
     -1.683  0.3683E+00  0.3722E+00  0.6212E+01  0.6224E+01
     -1.473  0.4164E+00  0.4340E+00  0.6299E+01  0.6316E+01
     -1.262  0.4832E+00  0.4896E+00  0.6402E+01  0.6419E+01
     -1.051  0.4836E+00  0.5003E+00  0.6504E+01  0.6525E+01
     -0.841  0.5972E+00  0.6255E+00  0.6630E+01  0.6657E+01
     -0.630  0.6210E+00  0.6213E+00  0.6762E+01  0.6789E+01
     -0.420  0.6204E+00  0.6635E+00  0.6894E+01  0.6930E+01
     -0.209  0.7312E+00  0.7101E+00  0.7049E+01  0.7080E+01
      0.002  0.6982E+00  0.7093E+00  0.7196E+01  0.7230E+01
      0.212  0.7253E+00  0.7042E+00  0.7350E+01  0.7379E+01
      0.423  0.8094E+00  0.8321E+00  0.7521E+01  0.7555E+01
      0.633  0.7660E+00  0.6731E+00  0.7683E+01  0.7698E+01
      0.844  0.7818E+00  0.7772E+00  0.7849E+01  0.7863E+01
      1.054  0.8881E+00  0.8990E+00  0.8037E+01  0.8053E+01
      1.265  0.9859E+00  0.9673E+00  0.8245E+01  0.8258E+01
      1.476  0.9671E+00  0.9431E+00  0.8450E+01  0.8458E+01
      1.686  0.9469E+00  0.9193E+00  0.8650E+01  0.8653E+01
      1.897  0.9099E+00  0.8675E+00  0.8843E+01  0.8837E+01
      2.107  0.8250E+00  0.7834E+00  0.9018E+01  0.9003E+01
      2.318  0.1006E+01  0.9499E+00  0.9231E+01  0.9204E+01
      2.528  0.1012E+01  0.9932E+00  0.9445E+01  0.9414E+01
      2.739  0.1225E+01  0.1152E+01  0.9704E+01  0.9658E+01
      2.950  0.1188E+01  0.1148E+01  0.9956E+01  0.9900E+01
      3.160  0.1190E+01  0.1058E+01  0.1021E+02  0.1012E+02
      3.371  0.1346E+01  0.1177E+01  0.1049E+02  0.1037E+02
      3.581  0.1213E+01  0.1228E+01  0.1075E+02  0.1063E+02
      3.792  0.1309E+01  0.1104E+01  0.1103E+02  0.1087E+02
      4.003  0.1443E+01  0.1155E+01  0.1133E+02  0.1111E+02
      4.213  0.1537E+01  0.1400E+01  0.1166E+02  0.1141E+02
      4.424  0.1501E+01  0.1360E+01  0.1198E+02  0.1169E+02
      4.634  0.1741E+01  0.1312E+01  0.1234E+02  0.1197E+02
      4.845  0.1738E+01  0.1625E+01  0.1271E+02  0.1232E+02
      5.055  0.1908E+01  0.1326E+01  0.1312E+02  0.1260E+02
      5.266  0.2313E+01  0.1408E+01  0.1360E+02  0.1289E+02
      5.477  0.2936E+01  0.1619E+01  0.1423E+02  0.1324E+02
      5.687  0.4139E+01  0.1786E+01  0.1510E+02  0.1361E+02
      5.898  0.4879E+01  0.1828E+01  0.1613E+02  0.1400E+02
      6.108  0.4565E+01  0.2236E+01  0.1710E+02  0.1447E+02
      6.319  0.5953E+01  0.2158E+01  0.1836E+02  0.1493E+02
      6.529  0.5936E+01  0.2891E+01  0.1961E+02  0.1554E+02
      6.740  0.5069E+01  0.2901E+01  0.2069E+02  0.1616E+02
      6.951  0.4025E+01  0.2728E+01  0.2154E+02  0.1673E+02
      7.161  0.2548E+01  0.2852E+01  0.2209E+02  0.1734E+02
      7.372  0.2121E+01  0.3014E+01  0.2253E+02  0.1797E+02
      7.582  0.1499E+01  0.3597E+01  0.2285E+02  0.1874E+02
      7.793  0.1480E+01  0.3302E+01  0.2317E+02  0.1943E+02
      8.003  0.1386E+01  0.2179E+01  0.2346E+02  0.1990E+02
      8.214  0.1762E+01  0.7978E+00  0.2383E+02  0.2007E+02
      8.425  0.2467E+01  0.6212E+00  0.2435E+02  0.2020E+02
      8.635  0.2900E+01  0.1488E+01  0.2497E+02  0.2051E+02
      8.846  0.2057E+01  0.3424E+01  0.2540E+02  0.2124E+02
      9.056  0.2113E+01  0.7183E+01  0.2585E+02  0.2275E+02
      9.267  0.1646E+01  0.5469E+01  0.2620E+02  0.2391E+02
      9.478  0.1505E+01  0.2944E+01  0.2652E+02  0.2454E+02
      9.688  0.1981E+01  0.3643E+01  0.2694E+02  0.2531E+02
      9.899  0.1654E+01  0.3017E+01  0.2729E+02  0.2595E+02
     10.109  0.1880E+01  0.2178E+01  0.2769E+02  0.2641E+02
     10.320  0.1981E+01  0.2120E+01  0.2811E+02  0.2686E+02
     10.530  0.2027E+01  0.2278E+01  0.2854E+02  0.2734E+02
     10.741  0.2047E+01  0.2267E+01  0.2897E+02  0.2782E+02
     10.952  0.1360E+01  0.2383E+01  0.2926E+02  0.2832E+02
     11.162  0.1888E+01  0.2609E+01  0.2966E+02  0.2887E+02
     11.373  0.1933E+01  0.2151E+01  0.3007E+02  0.2933E+02
     11.583  0.1843E+01  0.2287E+01  0.3046E+02  0.2981E+02
     11.794  0.1826E+01  0.2203E+01  0.3084E+02  0.3028E+02
     12.004  0.1412E+01  0.1933E+01  0.3114E+02  0.3069E+02
     12.215  0.1725E+01  0.1630E+01  0.3151E+02  0.3104E+02
     12.426  0.1514E+01  0.1683E+01  0.3183E+02  0.3139E+02
     12.636  0.1781E+01  0.1770E+01  0.3221E+02  0.3177E+02
     12.847  0.1984E+01  0.1557E+01  0.3262E+02  0.3210E+02
     13.057  0.2007E+01  0.2115E+01  0.3305E+02  0.3254E+02
     13.268  0.2079E+01  0.2353E+01  0.3349E+02  0.3304E+02
     13.479  0.1919E+01  0.2343E+01  0.3390E+02  0.3354E+02
     13.689  0.1856E+01  0.1938E+01  0.3429E+02  0.3395E+02
     13.900  0.1871E+01  0.2339E+01  0.3469E+02  0.3444E+02
     14.110  0.1473E+01  0.1800E+01  0.3500E+02  0.3482E+02
     14.321  0.1219E+01  0.1376E+01  0.3526E+02  0.3512E+02
     14.531  0.9976E+00  0.1324E+01  0.3547E+02  0.3540E+02
     14.742  0.5659E+00  0.7556E+00  0.3559E+02  0.3556E+02
     14.953  0.4873E+00  0.4370E+00  0.3569E+02  0.3565E+02
     15.163  0.2622E+00  0.3698E+00  0.3575E+02  0.3573E+02
     15.374  0.2660E+00  0.2452E+00  0.3581E+02  0.3578E+02
     15.584  0.2348E+00  0.2592E+00  0.3586E+02  0.3584E+02
     15.795  0.2010E+00  0.2584E+00  0.3590E+02  0.3589E+02
     16.005  0.2271E+00  0.2015E+00  0.3595E+02  0.3594E+02
     16.216  0.9172E-01  0.1650E+00  0.3597E+02  0.3597E+02
     16.427  0.1091E+00  0.8830E-01  0.3599E+02  0.3599E+02
     16.637  0.3530E-01  0.2039E-01  0.3600E+02  0.3599E+02
     16.848  0.1145E-01  0.2434E-01  0.3600E+02  0.3600E+02
     17.058  0.0000E+00  0.2028E-02  0.3600E+02  0.3600E+02
     17.269  0.0000E+00  0.0000E+00  0.3600E+02  0.3600E+02
     17.480  0.0000E+00  0.0000E+00  0.3600E+02  0.3600E+02
     17.690  0.0000E+00  0.0000E+00  0.3600E+02  0.3600E+02
     17.901  0.0000E+00  0.0000E+00  0.3600E+02  0.3600E+02
     18.111  0.0000E+00  0.0000E+00  0.3600E+02  0.3600E+02
     18.322  0.0000E+00  0.0000E+00  0.3600E+02  0.3600E+02
     18.532  0.0000E+00  0.0000E+00  0.3600E+02  0.3600E+02
     18.743  0.0000E+00  0.0000E+00  0.3600E+02  0.3600E+02
     18.954  0.0000E+00  0.0000E+00  0.3600E+02  0.3600E+02
     19.164  0.0000E+00  0.0000E+00  0.3600E+02  0.3600E+02
     19.375  0.0000E+00  0.0000E+00  0.3600E+02  0.3600E+02
     19.585  0.0000E+00  0.0000E+00  0.3600E+02  0.3600E+02
     19.58530946    -43.58820516  301      8.25241695      1.00000000
    -43.588  0.0000E+00  0.0000E+00  0.0000E+00  0.0000E+00  0.0000E+00  0.0000E+00  0.0000E+00  0.0000E+00  0.0000E+00  0.0000E+00  0.0000E+00  0.0000E+00  0.0000E+00  0.0000E+00  0.0000E+00  0.0000E+00  0.0000E+00  0.0000E+00
    -43.378  0.0000E+00  0.0000E+00  0.0000E+00  0.0000E+00  0.0000E+00  0.0000E+00  0.0000E+00  0.0000E+00  0.0000E+00  0.0000E+00  0.0000E+00  0.0000E+00  0.0000E+00  0.0000E+00  0.0000E+00  0.0000E+00  0.0000E+00  0.0000E+00
    -43.167  0.0000E+00  0.0000E+00  0.0000E+00  0.0000E+00  0.0000E+00  0.0000E+00  0.0000E+00  0.0000E+00  0.0000E+00  0.0000E+00  0.0000E+00  0.0000E+00  0.0000E+00  0.0000E+00  0.0000E+00  0.0000E+00  0.0000E+00  0.0000E+00
    -42.956  0.0000E+00  0.0000E+00  0.0000E+00  0.0000E+00  0.0000E+00  0.0000E+00  0.0000E+00  0.0000E+00  0.0000E+00  0.0000E+00  0.0000E+00  0.0000E+00  0.0000E+00  0.0000E+00  0.0000E+00  0.0000E+00  0.0000E+00  0.0000E+00
    -42.746  0.0000E+00  0.0000E+00  0.0000E+00  0.0000E+00  0.0000E+00  0.0000E+00  0.0000E+00  0.0000E+00  0.0000E+00  0.0000E+00  0.0000E+00  0.0000E+00  0.0000E+00  0.0000E+00  0.0000E+00  0.0000E+00  0.0000E+00  0.0000E+00
    -42.535  0.0000E+00  0.0000E+00  0.0000E+00  0.0000E+00  0.0000E+00  0.0000E+00  0.0000E+00  0.0000E+00  0.0000E+00  0.0000E+00  0.0000E+00  0.0000E+00  0.0000E+00  0.0000E+00  0.0000E+00  0.0000E+00  0.0000E+00  0.0000E+00
    -42.325  0.0000E+00  0.0000E+00  0.0000E+00  0.0000E+00  0.0000E+00  0.0000E+00  0.0000E+00  0.0000E+00  0.0000E+00  0.0000E+00  0.0000E+00  0.0000E+00  0.0000E+00  0.0000E+00  0.0000E+00  0.0000E+00  0.0000E+00  0.0000E+00
    -42.114  0.0000E+00  0.0000E+00  0.0000E+00  0.0000E+00  0.0000E+00  0.0000E+00  0.0000E+00  0.0000E+00  0.0000E+00  0.0000E+00  0.0000E+00  0.0000E+00  0.0000E+00  0.0000E+00  0.0000E+00  0.0000E+00  0.0000E+00  0.0000E+00
    -41.904  0.0000E+00  0.0000E+00  0.0000E+00  0.0000E+00  0.0000E+00  0.0000E+00  0.0000E+00  0.0000E+00  0.0000E+00  0.0000E+00  0.0000E+00  0.0000E+00  0.0000E+00  0.0000E+00  0.0000E+00  0.0000E+00  0.0000E+00  0.0000E+00
    -41.693  0.0000E+00  0.0000E+00  0.0000E+00  0.0000E+00  0.0000E+00  0.0000E+00  0.0000E+00  0.0000E+00  0.0000E+00  0.0000E+00  0.0000E+00  0.0000E+00  0.0000E+00  0.0000E+00  0.0000E+00  0.0000E+00  0.0000E+00  0.0000E+00
    -41.482  0.0000E+00  0.0000E+00  0.0000E+00  0.0000E+00  0.0000E+00  0.0000E+00  0.0000E+00  0.0000E+00  0.0000E+00  0.0000E+00  0.0000E+00  0.0000E+00  0.0000E+00  0.0000E+00  0.0000E+00  0.0000E+00  0.0000E+00  0.0000E+00
    -41.272  0.2775E-12  0.0000E+00  0.6940E-04  0.0000E+00  0.2369E-11  0.0000E+00  0.6940E-04  0.0000E+00  0.8186E-14  0.0000E+00  0.3809E-15  0.0000E+00  0.9815E-13  0.0000E+00  0.3809E-15  0.0000E+00  0.2903E-12  0.0000E+00
    -41.061  0.1843E-10  0.0000E+00  0.4608E-02  0.0000E+00  0.1933E-03  0.0000E+00  0.4608E-02  0.0000E+00  0.5437E-12  0.0000E+00  0.3628E-13  0.0000E+00  0.6517E-11  0.0000E+00  0.3628E-13  0.0000E+00  0.1927E-10  0.0000E+00
    -40.851  0.1165E-08  0.0000E+00  0.2914E+00  0.0000E+00  0.1281E-01  0.0000E+00  0.2914E+00  0.0000E+00  0.3438E-10  0.0000E+00  0.2328E-11  0.0000E+00  0.4121E-09  0.0000E+00  0.2328E-11  0.0000E+00  0.1219E-08  0.0000E+00
    -40.640  0.1428E-07  0.0000E+00  0.3569E+01  0.0000E+00  0.7286E+00  0.0000E+00  0.3569E+01  0.0000E+00  0.4222E-09  0.0000E+00  0.6114E-10  0.0000E+00  0.5047E-08  0.0000E+00  0.6114E-10  0.0000E+00  0.1493E-07  0.0000E+00
    -40.430  0.3408E-08  0.0000E+00  0.8412E+00  0.0000E+00  0.3632E+01  0.0000E+00  0.8412E+00  0.0000E+00  0.1023E-09  0.0000E+00  0.2112E-09  0.0000E+00  0.1197E-08  0.0000E+00  0.2112E-09  0.0000E+00  0.3522E-08  0.0000E+00
    -40.219  0.4316E-11  0.0000E+00  0.6020E-08  0.0000E+00  0.3423E+00  0.0000E+00  0.6020E-08  0.0000E+00  0.2649E-12  0.0000E+00  0.1946E-10  0.0000E+00  0.7998E-12  0.0000E+00  0.1946E-10  0.0000E+00  0.2695E-12  0.0000E+00
    -40.008  0.0000E+00  0.0000E+00  0.0000E+00  0.0000E+00  0.0000E+00  0.0000E+00  0.0000E+00  0.0000E+00  0.0000E+00  0.0000E+00  0.0000E+00  0.0000E+00  0.0000E+00  0.0000E+00  0.0000E+00  0.0000E+00  0.0000E+00  0.0000E+00
    -39.798  0.0000E+00  0.0000E+00  0.0000E+00  0.0000E+00  0.0000E+00  0.0000E+00  0.0000E+00  0.0000E+00  0.0000E+00  0.0000E+00  0.0000E+00  0.0000E+00  0.0000E+00  0.0000E+00  0.0000E+00  0.0000E+00  0.0000E+00  0.0000E+00
    -39.587  0.0000E+00  0.0000E+00  0.0000E+00  0.0000E+00  0.0000E+00  0.0000E+00  0.0000E+00  0.0000E+00  0.0000E+00  0.0000E+00  0.0000E+00  0.0000E+00  0.0000E+00  0.0000E+00  0.0000E+00  0.0000E+00  0.0000E+00  0.0000E+00
    -39.377  0.0000E+00  0.0000E+00  0.0000E+00  0.0000E+00  0.0000E+00  0.0000E+00  0.0000E+00  0.0000E+00  0.0000E+00  0.0000E+00  0.0000E+00  0.0000E+00  0.0000E+00  0.0000E+00  0.0000E+00  0.0000E+00  0.0000E+00  0.0000E+00
    -39.166  0.0000E+00  0.0000E+00  0.0000E+00  0.0000E+00  0.0000E+00  0.0000E+00  0.0000E+00  0.0000E+00  0.0000E+00  0.0000E+00  0.0000E+00  0.0000E+00  0.0000E+00  0.0000E+00  0.0000E+00  0.0000E+00  0.0000E+00  0.0000E+00
    -38.955  0.0000E+00  0.1333E-11  0.0000E+00  0.2324E-03  0.0000E+00  0.1598E-03  0.0000E+00  0.2324E-03  0.0000E+00  0.4344E-13  0.0000E+00  0.1649E-13  0.0000E+00  0.4206E-12  0.0000E+00  0.1649E-13  0.0000E+00  0.1242E-11
    -38.745  0.0000E+00  0.8830E-10  0.0000E+00  0.1540E-01  0.0000E+00  0.1060E-01  0.0000E+00  0.1540E-01  0.0000E+00  0.2877E-11  0.0000E+00  0.1093E-11  0.0000E+00  0.2786E-10  0.0000E+00  0.1093E-11  0.0000E+00  0.8226E-10
    -38.534  0.0000E+00  0.4867E-08  0.0000E+00  0.8486E+00  0.0000E+00  0.6195E+00  0.0000E+00  0.8486E+00  0.0000E+00  0.1587E-09  0.0000E+00  0.6357E-10  0.0000E+00  0.1536E-08  0.0000E+00  0.6357E-10  0.0000E+00  0.4534E-08
    -38.324  0.0000E+00  0.2045E-07  0.0000E+00  0.3565E+01  0.0000E+00  0.3677E+01  0.0000E+00  0.3565E+01  0.0000E+00  0.6702E-09  0.0000E+00  0.3671E-09  0.0000E+00  0.6462E-08  0.0000E+00  0.3671E-09  0.0000E+00  0.1906E-07
    -38.113  0.0000E+00  0.1656E-08  0.0000E+00  0.2885E+00  0.0000E+00  0.4078E+00  0.0000E+00  0.2885E+00  0.0000E+00  0.5461E-10  0.0000E+00  0.3996E-10  0.0000E+00  0.5240E-09  0.0000E+00  0.3996E-10  0.0000E+00  0.1543E-08
    -37.903  0.0000E+00  0.0000E+00  0.0000E+00  0.0000E+00  0.0000E+00  0.0000E+00  0.0000E+00  0.0000E+00  0.0000E+00  0.0000E+00  0.0000E+00  0.0000E+00  0.0000E+00  0.0000E+00  0.0000E+00  0.0000E+00  0.0000E+00  0.0000E+00
    -37.692  0.0000E+00  0.0000E+00  0.0000E+00  0.0000E+00  0.0000E+00  0.0000E+00  0.0000E+00  0.0000E+00  0.0000E+00  0.0000E+00  0.0000E+00  0.0000E+00  0.0000E+00  0.0000E+00  0.0000E+00  0.0000E+00  0.0000E+00  0.0000E+00
    -37.481  0.0000E+00  0.0000E+00  0.0000E+00  0.0000E+00  0.0000E+00  0.0000E+00  0.0000E+00  0.0000E+00  0.0000E+00  0.0000E+00  0.0000E+00  0.0000E+00  0.0000E+00  0.0000E+00  0.0000E+00  0.0000E+00  0.0000E+00  0.0000E+00
    -37.271  0.0000E+00  0.0000E+00  0.0000E+00  0.0000E+00  0.0000E+00  0.0000E+00  0.0000E+00  0.0000E+00  0.0000E+00  0.0000E+00  0.0000E+00  0.0000E+00  0.0000E+00  0.0000E+00  0.0000E+00  0.0000E+00  0.0000E+00  0.0000E+00
    -37.060  0.0000E+00  0.0000E+00  0.0000E+00  0.0000E+00  0.0000E+00  0.0000E+00  0.0000E+00  0.0000E+00  0.0000E+00  0.0000E+00  0.0000E+00  0.0000E+00  0.0000E+00  0.0000E+00  0.0000E+00  0.0000E+00  0.0000E+00  0.0000E+00
    -36.850  0.0000E+00  0.0000E+00  0.0000E+00  0.0000E+00  0.0000E+00  0.0000E+00  0.0000E+00  0.0000E+00  0.0000E+00  0.0000E+00  0.0000E+00  0.0000E+00  0.0000E+00  0.0000E+00  0.0000E+00  0.0000E+00  0.0000E+00  0.0000E+00
    -36.639  0.0000E+00  0.0000E+00  0.0000E+00  0.0000E+00  0.0000E+00  0.0000E+00  0.0000E+00  0.0000E+00  0.0000E+00  0.0000E+00  0.0000E+00  0.0000E+00  0.0000E+00  0.0000E+00  0.0000E+00  0.0000E+00  0.0000E+00  0.0000E+00
    -36.429  0.0000E+00  0.0000E+00  0.0000E+00  0.0000E+00  0.0000E+00  0.0000E+00  0.0000E+00  0.0000E+00  0.0000E+00  0.0000E+00  0.0000E+00  0.0000E+00  0.0000E+00  0.0000E+00  0.0000E+00  0.0000E+00  0.0000E+00  0.0000E+00
    -36.218  0.0000E+00  0.0000E+00  0.0000E+00  0.0000E+00  0.0000E+00  0.0000E+00  0.0000E+00  0.0000E+00  0.0000E+00  0.0000E+00  0.0000E+00  0.0000E+00  0.0000E+00  0.0000E+00  0.0000E+00  0.0000E+00  0.0000E+00  0.0000E+00
    -36.007  0.0000E+00  0.0000E+00  0.0000E+00  0.0000E+00  0.0000E+00  0.0000E+00  0.0000E+00  0.0000E+00  0.0000E+00  0.0000E+00  0.0000E+00  0.0000E+00  0.0000E+00  0.0000E+00  0.0000E+00  0.0000E+00  0.0000E+00  0.0000E+00
    -35.797  0.0000E+00  0.0000E+00  0.0000E+00  0.0000E+00  0.0000E+00  0.0000E+00  0.0000E+00  0.0000E+00  0.0000E+00  0.0000E+00  0.0000E+00  0.0000E+00  0.0000E+00  0.0000E+00  0.0000E+00  0.0000E+00  0.0000E+00  0.0000E+00
    -35.586  0.0000E+00  0.0000E+00  0.0000E+00  0.0000E+00  0.0000E+00  0.0000E+00  0.0000E+00  0.0000E+00  0.0000E+00  0.0000E+00  0.0000E+00  0.0000E+00  0.0000E+00  0.0000E+00  0.0000E+00  0.0000E+00  0.0000E+00  0.0000E+00
    -35.376  0.0000E+00  0.0000E+00  0.0000E+00  0.0000E+00  0.0000E+00  0.0000E+00  0.0000E+00  0.0000E+00  0.0000E+00  0.0000E+00  0.0000E+00  0.0000E+00  0.0000E+00  0.0000E+00  0.0000E+00  0.0000E+00  0.0000E+00  0.0000E+00
    -35.165  0.0000E+00  0.0000E+00  0.0000E+00  0.0000E+00  0.0000E+00  0.0000E+00  0.0000E+00  0.0000E+00  0.0000E+00  0.0000E+00  0.0000E+00  0.0000E+00  0.0000E+00  0.0000E+00  0.0000E+00  0.0000E+00  0.0000E+00  0.0000E+00
    -34.954  0.0000E+00  0.0000E+00  0.0000E+00  0.0000E+00  0.0000E+00  0.0000E+00  0.0000E+00  0.0000E+00  0.0000E+00  0.0000E+00  0.0000E+00  0.0000E+00  0.0000E+00  0.0000E+00  0.0000E+00  0.0000E+00  0.0000E+00  0.0000E+00
    -34.744  0.0000E+00  0.0000E+00  0.0000E+00  0.0000E+00  0.0000E+00  0.0000E+00  0.0000E+00  0.0000E+00  0.0000E+00  0.0000E+00  0.0000E+00  0.0000E+00  0.0000E+00  0.0000E+00  0.0000E+00  0.0000E+00  0.0000E+00  0.0000E+00
    -34.533  0.0000E+00  0.0000E+00  0.0000E+00  0.0000E+00  0.0000E+00  0.0000E+00  0.0000E+00  0.0000E+00  0.0000E+00  0.0000E+00  0.0000E+00  0.0000E+00  0.0000E+00  0.0000E+00  0.0000E+00  0.0000E+00  0.0000E+00  0.0000E+00
    -34.323  0.0000E+00  0.0000E+00  0.0000E+00  0.0000E+00  0.0000E+00  0.0000E+00  0.0000E+00  0.0000E+00  0.0000E+00  0.0000E+00  0.0000E+00  0.0000E+00  0.0000E+00  0.0000E+00  0.0000E+00  0.0000E+00  0.0000E+00  0.0000E+00
    -34.112  0.0000E+00  0.0000E+00  0.0000E+00  0.0000E+00  0.0000E+00  0.0000E+00  0.0000E+00  0.0000E+00  0.0000E+00  0.0000E+00  0.0000E+00  0.0000E+00  0.0000E+00  0.0000E+00  0.0000E+00  0.0000E+00  0.0000E+00  0.0000E+00
    -33.902  0.0000E+00  0.0000E+00  0.0000E+00  0.0000E+00  0.0000E+00  0.0000E+00  0.0000E+00  0.0000E+00  0.0000E+00  0.0000E+00  0.0000E+00  0.0000E+00  0.0000E+00  0.0000E+00  0.0000E+00  0.0000E+00  0.0000E+00  0.0000E+00
    -33.691  0.0000E+00  0.0000E+00  0.0000E+00  0.0000E+00  0.0000E+00  0.0000E+00  0.0000E+00  0.0000E+00  0.0000E+00  0.0000E+00  0.0000E+00  0.0000E+00  0.0000E+00  0.0000E+00  0.0000E+00  0.0000E+00  0.0000E+00  0.0000E+00
    -33.480  0.0000E+00  0.0000E+00  0.0000E+00  0.0000E+00  0.0000E+00  0.0000E+00  0.0000E+00  0.0000E+00  0.0000E+00  0.0000E+00  0.0000E+00  0.0000E+00  0.0000E+00  0.0000E+00  0.0000E+00  0.0000E+00  0.0000E+00  0.0000E+00
    -33.270  0.0000E+00  0.0000E+00  0.0000E+00  0.0000E+00  0.0000E+00  0.0000E+00  0.0000E+00  0.0000E+00  0.0000E+00  0.0000E+00  0.0000E+00  0.0000E+00  0.0000E+00  0.0000E+00  0.0000E+00  0.0000E+00  0.0000E+00  0.0000E+00
    -33.059  0.0000E+00  0.0000E+00  0.0000E+00  0.0000E+00  0.0000E+00  0.0000E+00  0.0000E+00  0.0000E+00  0.0000E+00  0.0000E+00  0.0000E+00  0.0000E+00  0.0000E+00  0.0000E+00  0.0000E+00  0.0000E+00  0.0000E+00  0.0000E+00