   8   8   1   0
  0.1370934E+02  0.3741089E-09  0.3741089E-09  0.7836287E-09  0.5000000E-15
  1.000000000000000E-004
  CAR 
 unknown system                          
     21.97505704    -42.17378862  301      9.63960435      1.00000000
    -42.174  0.0000E+00  0.0000E+00  0.0000E+00  0.0000E+00
    -41.960  0.0000E+00  0.0000E+00  0.0000E+00  0.0000E+00
    -41.746  0.0000E+00  0.0000E+00  0.0000E+00  0.0000E+00
    -41.532  0.0000E+00  0.0000E+00  0.0000E+00  0.0000E+00
    -41.318  0.0000E+00  0.0000E+00  0.0000E+00  0.0000E+00
    -41.105  0.0000E+00  0.0000E+00  0.0000E+00  0.0000E+00
    -40.891  0.0000E+00  0.0000E+00  0.0000E+00  0.0000E+00
    -40.677  0.0000E+00  0.0000E+00  0.0000E+00  0.0000E+00
    -40.463  0.0000E+00  0.0000E+00  0.0000E+00  0.0000E+00
    -40.249  0.0000E+00  0.0000E+00  0.0000E+00  0.0000E+00
    -40.035  0.0000E+00  0.0000E+00  0.0000E+00  0.0000E+00
    -39.822  0.2268E-03  0.0000E+00  0.4851E-04  0.0000E+00
    -39.608  0.1651E-01  0.0000E+00  0.3578E-02  0.0000E+00
    -39.394  0.1119E+01  0.0000E+00  0.2429E+00  0.0000E+00
    -39.180  0.1593E+02  0.0000E+00  0.3649E+01  0.0000E+00
    -38.966  0.1040E+02  0.0000E+00  0.5874E+01  0.0000E+00
    -38.753  0.5257E+00  0.0000E+00  0.5998E+01  0.0000E+00
    -38.539  0.0000E+00  0.0000E+00  0.6000E+01  0.0000E+00
    -38.325  0.0000E+00  0.0000E+00  0.6000E+01  0.0000E+00
    -38.111  0.0000E+00  0.0000E+00  0.6000E+01  0.0000E+00
    -37.897  0.0000E+00  0.1301E-03  0.6000E+01  0.2781E-04
    -37.683  0.0000E+00  0.1187E-01  0.6000E+01  0.2565E-02
    -37.470  0.0000E+00  0.8248E+00  0.6000E+01  0.1789E+00
    -37.256  0.0000E+00  0.1822E+02  0.6000E+01  0.4074E+01
    -37.042  0.0000E+00  0.8818E+01  0.6000E+01  0.5960E+01
    -36.828  0.0000E+00  0.0000E+00  0.6000E+01  0.6000E+01
    -36.614  0.0000E+00  0.0000E+00  0.6000E+01  0.6000E+01
    -36.400  0.0000E+00  0.0000E+00  0.6000E+01  0.6000E+01
    -36.187  0.0000E+00  0.0000E+00  0.6000E+01  0.6000E+01
    -35.973  0.0000E+00  0.0000E+00  0.6000E+01  0.6000E+01
    -35.759  0.0000E+00  0.0000E+00  0.6000E+01  0.6000E+01
    -35.545  0.0000E+00  0.0000E+00  0.6000E+01  0.6000E+01
    -35.331  0.0000E+00  0.0000E+00  0.6000E+01  0.6000E+01
    -35.117  0.0000E+00  0.0000E+00  0.6000E+01  0.6000E+01
    -34.904  0.0000E+00  0.0000E+00  0.6000E+01  0.6000E+01
    -34.690  0.0000E+00  0.0000E+00  0.6000E+01  0.6000E+01
    -34.476  0.0000E+00  0.0000E+00  0.6000E+01  0.6000E+01
    -34.262  0.0000E+00  0.0000E+00  0.6000E+01  0.6000E+01
    -34.048  0.0000E+00  0.0000E+00  0.6000E+01  0.6000E+01
    -33.834  0.0000E+00  0.0000E+00  0.6000E+01  0.6000E+01
    -33.621  0.0000E+00  0.0000E+00  0.6000E+01  0.6000E+01
    -33.407  0.0000E+00  0.0000E+00  0.6000E+01  0.6000E+01
    -33.193  0.0000E+00  0.0000E+00  0.6000E+01  0.6000E+01
    -32.979  0.0000E+00  0.0000E+00  0.6000E+01  0.6000E+01
    -32.765  0.0000E+00  0.0000E+00  0.6000E+01  0.6000E+01
    -32.551  0.0000E+00  0.0000E+00  0.6000E+01  0.6000E+01
    -32.338  0.0000E+00  0.0000E+00  0.6000E+01  0.6000E+01
    -32.124  0.0000E+00  0.0000E+00  0.6000E+01  0.6000E+01
    -31.910  0.0000E+00  0.0000E+00  0.6000E+01  0.6000E+01
    -31.696  0.0000E+00  0.0000E+00  0.6000E+01  0.6000E+01
    -31.482  0.0000E+00  0.0000E+00  0.6000E+01  0.6000E+01
    -31.268  0.0000E+00  0.0000E+00  0.6000E+01  0.6000E+01
    -31.055  0.0000E+00  0.0000E+00  0.6000E+01  0.6000E+01
    -30.841  0.0000E+00  0.0000E+00  0.6000E+01  0.6000E+01
    -30.627  0.0000E+00  0.0000E+00  0.6000E+01  0.6000E+01
    -30.413  0.0000E+00  0.0000E+00  0.6000E+01  0.6000E+01
    -30.199  0.0000E+00  0.0000E+00  0.6000E+01  0.6000E+01
    -29.986  0.0000E+00  0.0000E+00  0.6000E+01  0.6000E+01
    -29.772  0.0000E+00  0.0000E+00  0.6000E+01  0.6000E+01
    -29.558  0.0000E+00  0.0000E+00  0.6000E+01  0.6000E+01
    -29.344  0.0000E+00  0.0000E+00  0.6000E+01  0.6000E+01
    -29.130  0.0000E+00  0.0000E+00  0.6000E+01  0.6000E+01
    -28.916  0.0000E+00  0.0000E+00  0.6000E+01  0.6000E+01
    -28.703  0.0000E+00  0.0000E+00  0.6000E+01  0.6000E+01
    -28.489  0.0000E+00  0.0000E+00  0.6000E+01  0.6000E+01
    -28.275  0.0000E+00  0.0000E+00  0.6000E+01  0.6000E+01
    -28.061  0.0000E+00  0.0000E+00  0.6000E+01  0.6000E+01
    -27.847  0.0000E+00  0.0000E+00  0.6000E+01  0.6000E+01
    -27.633  0.0000E+00  0.0000E+00  0.6000E+01  0.6000E+01
    -27.420  0.0000E+00  0.0000E+00  0.6000E+01  0.6000E+01
    -27.206  0.0000E+00  0.0000E+00  0.6000E+01  0.6000E+01
    -26.992  0.0000E+00  0.0000E+00  0.6000E+01  0.6000E+01
    -26.778  0.0000E+00  0.0000E+00  0.6000E+01  0.6000E+01
    -26.564  0.0000E+00  0.0000E+00  0.6000E+01  0.6000E+01
    -26.350  0.0000E+00  0.0000E+00  0.6000E+01  0.6000E+01
    -26.137  0.0000E+00  0.0000E+00  0.6000E+01  0.6000E+01
    -25.923  0.0000E+00  0.0000E+00  0.6000E+01  0.6000E+01
    -25.709  0.0000E+00  0.0000E+00  0.6000E+01  0.6000E+01
    -25.495  0.0000E+00  0.0000E+00  0.6000E+01  0.6000E+01
    -25.281  0.0000E+00  0.0000E+00  0.6000E+01  0.6000E+01
    -25.067  0.0000E+00  0.0000E+00  0.6000E+01  0.6000E+01
    -24.854  0.0000E+00  0.0000E+00  0.6000E+01  0.6000E+01
    -24.640  0.0000E+00  0.0000E+00  0.6000E+01  0.6000E+01
    -24.426  0.0000E+00  0.0000E+00  0.6000E+01  0.6000E+01
    -24.212  0.0000E+00  0.0000E+00  0.6000E+01  0.6000E+01
    -23.998  0.0000E+00  0.0000E+00  0.6000E+01  0.6000E+01
    -23.784  0.0000E+00  0.0000E+00  0.6000E+01  0.6000E+01
    -23.571  0.0000E+00  0.0000E+00  0.6000E+01  0.6000E+01
    -23.357  0.0000E+00  0.0000E+00  0.6000E+01  0.6000E+01
    -23.143  0.0000E+00  0.0000E+00  0.6000E+01  0.6000E+01
    -22.929  0.0000E+00  0.0000E+00  0.6000E+01  0.6000E+01
    -22.715  0.0000E+00  0.0000E+00  0.6000E+01  0.6000E+01
    -22.501  0.0000E+00  0.0000E+00  0.6000E+01  0.6000E+01
    -22.288  0.0000E+00  0.0000E+00  0.6000E+01  0.6000E+01
    -22.074  0.0000E+00  0.0000E+00  0.6000E+01  0.6000E+01
    -21.860  0.0000E+00  0.0000E+00  0.6000E+01  0.6000E+01
    -21.646  0.0000E+00  0.0000E+00  0.6000E+01  0.6000E+01
    -21.432  0.0000E+00  0.0000E+00  0.6000E+01  0.6000E+01
    -21.218  0.0000E+00  0.0000E+00  0.6000E+01  0.6000E+01
    -21.005  0.0000E+00  0.0000E+00  0.6000E+01  0.6000E+01
    -20.791  0.0000E+00  0.0000E+00  0.6000E+01  0.6000E+01
    -20.577  0.0000E+00  0.0000E+00  0.6000E+01  0.6000E+01
    -20.363  0.0000E+00  0.0000E+00  0.6000E+01  0.6000E+01
    -20.149  0.0000E+00  0.0000E+00  0.6000E+01  0.6000E+01
    -19.936  0.0000E+00  0.0000E+00  0.6000E+01  0.6000E+01
    -19.722  0.0000E+00  0.0000E+00  0.6000E+01  0.6000E+01
    -19.508  0.0000E+00  0.0000E+00  0.6000E+01  0.6000E+01
    -19.294  0.0000E+00  0.0000E+00  0.6000E+01  0.6000E+01
    -19.080  0.0000E+00  0.0000E+00  0.6000E+01  0.6000E+01
    -18.866  0.0000E+00  0.0000E+00  0.6000E+01  0.6000E+01
    -18.653  0.0000E+00  0.0000E+00  0.6000E+01  0.6000E+01
    -18.439  0.0000E+00  0.0000E+00  0.6000E+01  0.6000E+01
    -18.225  0.0000E+00  0.0000E+00  0.6000E+01  0.6000E+01
    -18.011  0.0000E+00  0.0000E+00  0.6000E+01  0.6000E+01
    -17.797  0.0000E+00  0.0000E+00  0.6000E+01  0.6000E+01
    -17.583  0.0000E+00  0.0000E+00  0.6000E+01  0.6000E+01
    -17.370  0.0000E+00  0.0000E+00  0.6000E+01  0.6000E+01
    -17.156  0.0000E+00  0.0000E+00  0.6000E+01  0.6000E+01
    -16.942  0.0000E+00  0.0000E+00  0.6000E+01  0.6000E+01
    -16.728  0.0000E+00  0.0000E+00  0.6000E+01  0.6000E+01
    -16.514  0.0000E+00  0.0000E+00  0.6000E+01  0.6000E+01
    -16.300  0.0000E+00  0.0000E+00  0.6000E+01  0.6000E+01
    -16.087  0.0000E+00  0.0000E+00  0.6000E+01  0.6000E+01
    -15.873  0.0000E+00  0.0000E+00  0.6000E+01  0.6000E+01
    -15.659  0.0000E+00  0.0000E+00  0.6000E+01  0.6000E+01
    -15.445  0.0000E+00  0.0000E+00  0.6000E+01  0.6000E+01
    -15.231  0.0000E+00  0.0000E+00  0.6000E+01  0.6000E+01
    -15.017  0.0000E+00  0.0000E+00  0.6000E+01  0.6000E+01
    -14.804  0.0000E+00  0.0000E+00  0.6000E+01  0.6000E+01
    -14.590  0.0000E+00  0.0000E+00  0.6000E+01  0.6000E+01
    -14.376  0.0000E+00  0.0000E+00  0.6000E+01  0.6000E+01
    -14.162  0.0000E+00  0.0000E+00  0.6000E+01  0.6000E+01
    -13.948  0.0000E+00  0.0000E+00  0.6000E+01  0.6000E+01
    -13.734  0.0000E+00  0.0000E+00  0.6000E+01  0.6000E+01
    -13.521  0.0000E+00  0.0000E+00  0.6000E+01  0.6000E+01
    -13.307  0.0000E+00  0.0000E+00  0.6000E+01  0.6000E+01
    -13.093  0.0000E+00  0.0000E+00  0.6000E+01  0.6000E+01
    -12.879  0.0000E+00  0.0000E+00  0.6000E+01  0.6000E+01
    -12.665  0.0000E+00  0.0000E+00  0.6000E+01  0.6000E+01
    -12.451  0.0000E+00  0.0000E+00  0.6000E+01  0.6000E+01
    -12.238  0.0000E+00  0.0000E+00  0.6000E+01  0.6000E+01
    -12.024  0.0000E+00  0.0000E+00  0.6000E+01  0.6000E+01
    -11.810  0.0000E+00  0.0000E+00  0.6000E+01  0.6000E+01
    -11.596  0.0000E+00  0.0000E+00  0.6000E+01  0.6000E+01
    -11.382  0.0000E+00  0.0000E+00  0.6000E+01  0.6000E+01
    -11.169  0.0000E+00  0.0000E+00  0.6000E+01  0.6000E+01
    -10.955  0.0000E+00  0.0000E+00  0.6000E+01  0.6000E+01
    -10.741  0.0000E+00  0.0000E+00  0.6000E+01  0.6000E+01
    -10.527  0.0000E+00  0.0000E+00  0.6000E+01  0.6000E+01
    -10.313  0.0000E+00  0.0000E+00  0.6000E+01  0.6000E+01
    -10.099  0.0000E+00  0.0000E+00  0.6000E+01  0.6000E+01
     -9.886  0.0000E+00  0.0000E+00  0.6000E+01  0.6000E+01
     -9.672  0.0000E+00  0.0000E+00  0.6000E+01  0.6000E+01
     -9.458  0.0000E+00  0.0000E+00  0.6000E+01  0.6000E+01
     -9.244  0.0000E+00  0.0000E+00  0.6000E+01  0.6000E+01
     -9.030  0.0000E+00  0.0000E+00  0.6000E+01  0.6000E+01
     -8.816  0.0000E+00  0.0000E+00  0.6000E+01  0.6000E+01
     -8.603  0.0000E+00  0.0000E+00  0.6000E+01  0.6000E+01
     -8.389  0.0000E+00  0.0000E+00  0.6000E+01  0.6000E+01
     -8.175  0.0000E+00  0.0000E+00  0.6000E+01  0.6000E+01
     -7.961  0.0000E+00  0.0000E+00  0.6000E+01  0.6000E+01
     -7.747  0.0000E+00  0.0000E+00  0.6000E+01  0.6000E+01
     -7.533  0.0000E+00  0.0000E+00  0.6000E+01  0.6000E+01
     -7.320  0.0000E+00  0.0000E+00  0.6000E+01  0.6000E+01
     -7.106  0.0000E+00  0.0000E+00  0.6000E+01  0.6000E+01
     -6.892  0.0000E+00  0.0000E+00  0.6000E+01  0.6000E+01
     -6.678  0.0000E+00  0.0000E+00  0.6000E+01  0.6000E+01
     -6.464  0.0000E+00  0.0000E+00  0.6000E+01  0.6000E+01
     -6.250  0.0000E+00  0.0000E+00  0.6000E+01  0.6000E+01
     -6.037  0.0000E+00  0.0000E+00  0.6000E+01  0.6000E+01
     -5.823  0.0000E+00  0.0000E+00  0.6000E+01  0.6000E+01
     -5.609  0.0000E+00  0.0000E+00  0.6000E+01  0.6000E+01
     -5.395  0.0000E+00  0.0000E+00  0.6000E+01  0.6000E+01
     -5.181  0.0000E+00  0.0000E+00  0.6000E+01  0.6000E+01
     -4.967  0.0000E+00  0.0000E+00  0.6000E+01  0.6000E+01
     -4.754  0.0000E+00  0.0000E+00  0.6000E+01  0.6000E+01
     -4.540  0.0000E+00  0.0000E+00  0.6000E+01  0.6000E+01
     -4.326  0.0000E+00  0.0000E+00  0.6000E+01  0.6000E+01
     -4.112  0.0000E+00  0.0000E+00  0.6000E+01  0.6000E+01
     -3.898  0.0000E+00  0.0000E+00  0.6000E+01  0.6000E+01
     -3.684  0.0000E+00  0.0000E+00  0.6000E+01  0.6000E+01
     -3.471  0.0000E+00  0.0000E+00  0.6000E+01  0.6000E+01
     -3.257  0.0000E+00  0.0000E+00  0.6000E+01  0.6000E+01
     -3.043  0.0000E+00  0.0000E+00  0.6000E+01  0.6000E+01
     -2.829  0.0000E+00  0.0000E+00  0.6000E+01  0.6000E+01
     -2.615  0.0000E+00  0.0000E+00  0.6000E+01  0.6000E+01
     -2.402  0.3356E-05  0.2345E-05  0.6000E+01  0.6000E+01
     -2.188  0.2461E-03  0.1827E-03  0.6000E+01  0.6000E+01
     -1.974  0.1340E-01  0.1053E-01  0.6003E+01  0.6002E+01
     -1.760  0.1104E+00  0.1025E+00  0.6027E+01  0.6024E+01
     -1.546  0.2136E+00  0.2101E+00  0.6072E+01  0.6069E+01
     -1.332  0.2777E+00  0.2729E+00  0.6132E+01  0.6128E+01
     -1.119  0.3401E+00  0.3395E+00  0.6205E+01  0.6200E+01
     -0.905  0.3697E+00  0.3646E+00  0.6284E+01  0.6279E+01
     -0.691  0.4415E+00  0.4414E+00  0.6379E+01  0.6374E+01
     -0.477  0.4389E+00  0.4430E+00  0.6473E+01  0.6469E+01
     -0.263  0.5144E+00  0.5125E+00  0.6584E+01  0.6579E+01
     -0.049  0.5785E+00  0.5849E+00  0.6708E+01  0.6705E+01
      0.164  0.5583E+00  0.5649E+00  0.6828E+01  0.6826E+01
      0.378  0.6789E+00  0.6738E+00  0.6973E+01  0.6971E+01
      0.592  0.6350E+00  0.6383E+00  0.7110E+01  0.7108E+01
      0.806  0.6739E+00  0.6667E+00  0.7255E+01  0.7251E+01
      1.020  0.6543E+00  0.6455E+00  0.7395E+01  0.7389E+01
      1.234  0.8237E+00  0.7988E+00  0.7572E+01  0.7561E+01
      1.447  0.6635E+00  0.6356E+00  0.7714E+01  0.7697E+01
      1.661  0.7663E+00  0.7441E+00  0.7879E+01  0.7858E+01
      1.875  0.8503E+00  0.8216E+00  0.8062E+01  0.8034E+01
      2.089  0.9411E+00  0.9155E+00  0.8264E+01  0.8230E+01
      2.303  0.9057E+00  0.8752E+00  0.8458E+01  0.8419E+01
      2.517  0.8912E+00  0.8988E+00  0.8650E+01  0.8612E+01
      2.730  0.8605E+00  0.8375E+00  0.8836E+01  0.8792E+01
      2.944  0.7563E+00  0.7325E+00  0.8999E+01  0.8951E+01
      3.158  0.9377E+00  0.8582E+00  0.9201E+01  0.9135E+01
      3.372  0.9003E+00  0.9051E+00  0.9395E+01  0.9330E+01
      3.586  0.1126E+01  0.1021E+01  0.9636E+01  0.9549E+01
      3.800  0.1114E+01  0.1070E+01  0.9876E+01  0.9779E+01
      4.013  0.1111E+01  0.1038E+01  0.1011E+02  0.1000E+02
      4.227  0.1211E+01  0.1063E+01  0.1038E+02  0.1023E+02
      4.441  0.1240E+01  0.1187E+01  0.1064E+02  0.1049E+02
      4.655  0.1267E+01  0.1124E+01  0.1091E+02  0.1073E+02
      4.869  0.1253E+01  0.1109E+01  0.1118E+02  0.1097E+02
      5.083  0.1543E+01  0.1180E+01  0.1151E+02  0.1122E+02
      5.296  0.1389E+01  0.1444E+01  0.1181E+02  0.1153E+02
      5.510  0.1559E+01  0.1226E+01  0.1215E+02  0.1179E+02
      5.724  0.1554E+01  0.1445E+01  0.1248E+02  0.1210E+02
      5.938  0.1532E+01  0.1375E+01  0.1281E+02  0.1240E+02
      6.152  0.1696E+01  0.1182E+01  0.1318E+02  0.1265E+02
      6.366  0.2231E+01  0.1392E+01  0.1365E+02  0.1295E+02
      6.579  0.2857E+01  0.1522E+01  0.1427E+02  0.1328E+02
      6.793  0.3522E+01  0.1912E+01  0.1502E+02  0.1369E+02
      7.007  0.4302E+01  0.1900E+01  0.1595E+02  0.1410E+02
      7.221  0.3767E+01  0.2269E+01  0.1676E+02  0.1459E+02
      7.435  0.4579E+01  0.2225E+01  0.1774E+02  0.1507E+02
      7.648  0.5545E+01  0.3309E+01  0.1893E+02  0.1578E+02
      7.862  0.4044E+01  0.2563E+01  0.1980E+02  0.1633E+02
      8.076  0.2685E+01  0.2913E+01  0.2038E+02  0.1695E+02
      8.290  0.4562E+01  0.2893E+01  0.2136E+02  0.1758E+02
      8.504  0.2582E+01  0.3263E+01  0.2192E+02  0.1828E+02
      8.718  0.2260E+01  0.3554E+01  0.2241E+02  0.1904E+02
      8.931  0.1637E+01  0.2856E+01  0.2276E+02  0.1966E+02
      9.145  0.1423E+01  0.1534E+01  0.2307E+02  0.1999E+02
      9.359  0.1376E+01  0.4145E+00  0.2336E+02  0.2008E+02
      9.573  0.1395E+01  0.4887E+00  0.2366E+02  0.2018E+02
      9.787  0.1386E+01  0.1142E+01  0.2396E+02  0.2043E+02
     10.001  0.1798E+01  0.2545E+01  0.2435E+02  0.2097E+02
     10.214  0.2853E+01  0.6118E+01  0.2496E+02  0.2228E+02
     10.428  0.2327E+01  0.5863E+01  0.2546E+02  0.2354E+02
     10.642  0.2087E+01  0.2529E+01  0.2591E+02  0.2409E+02
     10.856  0.1568E+01  0.2110E+01  0.2625E+02  0.2455E+02
     11.070  0.1475E+01  0.3000E+01  0.2657E+02  0.2519E+02
     11.284  0.1672E+01  0.2889E+01  0.2693E+02  0.2581E+02
     11.497  0.1698E+01  0.1805E+01  0.2729E+02  0.2620E+02
     11.711  0.1662E+01  0.1802E+01  0.2765E+02  0.2659E+02
     11.925  0.1966E+01  0.1835E+01  0.2807E+02  0.2699E+02
     12.139  0.1768E+01  0.2042E+01  0.2845E+02  0.2743E+02
     12.353  0.1909E+01  0.2109E+01  0.2886E+02  0.2788E+02
     12.567  0.1407E+01  0.2251E+01  0.2916E+02  0.2836E+02
     12.780  0.1617E+01  0.2111E+01  0.2951E+02  0.2882E+02
     12.994  0.1748E+01  0.1805E+01  0.2989E+02  0.2921E+02
     13.208  0.1887E+01  0.2077E+01  0.3029E+02  0.2965E+02
     13.422  0.1826E+01  0.2005E+01  0.3068E+02  0.3008E+02
     13.636  0.1356E+01  0.2005E+01  0.3098E+02  0.3051E+02
     13.850  0.1398E+01  0.1496E+01  0.3128E+02  0.3084E+02
     14.063  0.1598E+01  0.1403E+01  0.3162E+02  0.3114E+02
     14.277  0.1520E+01  0.1760E+01  0.3195E+02  0.3152E+02
     14.491  0.1769E+01  0.1545E+01  0.3233E+02  0.3185E+02
     14.705  0.1824E+01  0.1643E+01  0.3272E+02  0.3220E+02
     14.919  0.1785E+01  0.1966E+01  0.3310E+02  0.3262E+02
     15.133  0.1973E+01  0.2068E+01  0.3353E+02  0.3307E+02
     15.346  0.1784E+01  0.2189E+01  0.3391E+02  0.3354E+02
     15.560  0.1914E+01  0.1804E+01  0.3432E+02  0.3393E+02
     15.774  0.1694E+01  0.2132E+01  0.3469E+02  0.3439E+02
     15.988  0.1514E+01  0.1706E+01  0.3501E+02  0.3475E+02
     16.202  0.1147E+01  0.1441E+01  0.3526E+02  0.3507E+02
     16.415  0.9123E+00  0.1178E+01  0.3546E+02  0.3532E+02
     16.629  0.5098E+00  0.9097E+00  0.3557E+02  0.3552E+02
     16.843  0.4660E+00  0.4936E+00  0.3567E+02  0.3562E+02
     17.057  0.3371E+00  0.3303E+00  0.3574E+02  0.3569E+02
     17.271  0.1928E+00  0.3265E+00  0.3578E+02  0.3576E+02
     17.485  0.2173E+00  0.1648E+00  0.3583E+02  0.3580E+02
     17.698  0.2976E+00  0.3294E+00  0.3589E+02  0.3587E+02
     17.912  0.1987E+00  0.2524E+00  0.3594E+02  0.3592E+02
     18.126  0.1110E+00  0.1357E+00  0.3596E+02  0.3595E+02
     18.340  0.1185E+00  0.1458E+00  0.3599E+02  0.3599E+02
     18.554  0.3776E-01  0.3310E-01  0.3599E+02  0.3599E+02
     18.768  0.2591E-01  0.2708E-02  0.3600E+02  0.3599E+02
     18.981  0.3498E-02  0.5421E-02  0.3600E+02  0.3599E+02
     19.195  0.0000E+00  0.2416E-01  0.3600E+02  0.3600E+02
     19.409  0.0000E+00  0.1923E-02  0.3600E+02  0.3600E+02
     19.623  0.0000E+00  0.0000E+00  0.3600E+02  0.3600E+02
     19.837  0.0000E+00  0.0000E+00  0.3600E+02  0.3600E+02
     20.051  0.0000E+00  0.0000E+00  0.3600E+02  0.3600E+02
     20.264  0.0000E+00  0.0000E+00  0.3600E+02  0.3600E+02
     20.478  0.0000E+00  0.0000E+00  0.3600E+02  0.3600E+02
     20.692  0.0000E+00  0.0000E+00  0.3600E+02  0.3600E+02
     20.906  0.0000E+00  0.0000E+00  0.3600E+02  0.3600E+02
     21.120  0.0000E+00  0.0000E+00  0.3600E+02  0.3600E+02
     21.334  0.0000E+00  0.0000E+00  0.3600E+02  0.3600E+02
     21.547  0.0000E+00  0.0000E+00  0.3600E+02  0.3600E+02
     21.761  0.0000E+00  0.0000E+00  0.3600E+02  0.3600E+02
     21.975  0.0000E+00  0.0000E+00  0.3600E+02  0.3600E+02
     21.97505704    -42.17378862  301      9.63960435      1.00000000
    -42.174  0.0000E+00  0.0000E+00  0.0000E+00  0.0000E+00  0.0000E+00  0.0000E+00  0.0000E+00  0.0000E+00  0.0000E+00  0.0000E+00  0.0000E+00  0.0000E+00  0.0000E+00  0.0000E+00  0.0000E+00  0.0000E+00  0.0000E+00  0.0000E+00
    -41.960  0.0000E+00  0.0000E+00  0.0000E+00  0.0000E+00  0.0000E+00  0.0000E+00  0.0000E+00  0.0000E+00  0.0000E+00  0.0000E+00  0.0000E+00  0.0000E+00  0.0000E+00  0.0000E+00  0.0000E+00  0.0000E+00  0.0000E+00  0.0000E+00
    -41.746  0.0000E+00  0.0000E+00  0.0000E+00  0.0000E+00  0.0000E+00  0.0000E+00  0.0000E+00  0.0000E+00  0.0000E+00  0.0000E+00  0.0000E+00  0.0000E+00  0.0000E+00  0.0000E+00  0.0000E+00  0.0000E+00  0.0000E+00  0.0000E+00
    -41.532  0.0000E+00  0.0000E+00  0.0000E+00  0.0000E+00  0.0000E+00  0.0000E+00  0.0000E+00  0.0000E+00  0.0000E+00  0.0000E+00  0.0000E+00  0.0000E+00  0.0000E+00  0.0000E+00  0.0000E+00  0.0000E+00  0.0000E+00  0.0000E+00
    -41.318  0.0000E+00  0.0000E+00  0.0000E+00  0.0000E+00  0.0000E+00  0.0000E+00  0.0000E+00  0.0000E+00  0.0000E+00  0.0000E+00  0.0000E+00  0.0000E+00  0.0000E+00  0.0000E+00  0.0000E+00  0.0000E+00  0.0000E+00  0.0000E+00
    -41.105  0.0000E+00  0.0000E+00  0.0000E+00  0.0000E+00  0.0000E+00  0.0000E+00  0.0000E+00  0.0000E+00  0.0000E+00  0.0000E+00  0.0000E+00  0.0000E+00  0.0000E+00  0.0000E+00  0.0000E+00  0.0000E+00  0.0000E+00  0.0000E+00
    -40.891  0.0000E+00  0.0000E+00  0.0000E+00  0.0000E+00  0.0000E+00  0.0000E+00  0.0000E+00  0.0000E+00  0.0000E+00  0.0000E+00  0.0000E+00  0.0000E+00  0.0000E+00  0.0000E+00  0.0000E+00  0.0000E+00  0.0000E+00  0.0000E+00
    -40.677  0.0000E+00  0.0000E+00  0.0000E+00  0.0000E+00  0.0000E+00  0.0000E+00  0.0000E+00  0.0000E+00  0.0000E+00  0.0000E+00  0.0000E+00  0.0000E+00  0.0000E+00  0.0000E+00  0.0000E+00  0.0000E+00  0.0000E+00  0.0000E+00
    -40.463  0.0000E+00  0.0000E+00  0.0000E+00  0.0000E+00  0.0000E+00  0.0000E+00  0.0000E+00  0.0000E+00  0.0000E+00  0.0000E+00  0.0000E+00  0.0000E+00  0.0000E+00  0.0000E+00  0.0000E+00  0.0000E+00  0.0000E+00  0.0000E+00
    -40.249  0.0000E+00  0.0000E+00  0.0000E+00  0.0000E+00  0.0000E+00  0.0000E+00  0.0000E+00  0.0000E+00  0.0000E+00  0.0000E+00  0.0000E+00  0.0000E+00  0.0000E+00  0.0000E+00  0.0000E+00  0.0000E+00  0.0000E+00  0.0000E+00
    -40.035  0.0000E+00  0.0000E+00  0.0000E+00  0.0000E+00  0.0000E+00  0.0000E+00  0.0000E+00  0.0000E+00  0.0000E+00  0.0000E+00  0.0000E+00  0.0000E+00  0.0000E+00  0.0000E+00  0.0000E+00  0.0000E+00  0.0000E+00  0.0000E+00
    -39.822  0.8299E-12  0.0000E+00  0.5637E-04  0.0000E+00  0.8440E-11  0.0000E+00  0.5637E-04  0.0000E+00  0.3342E-13  0.0000E+00  0.3542E-14  0.0000E+00  0.3034E-12  0.0000E+00  0.3542E-14  0.0000E+00  0.8815E-12  0.0000E+00
    -39.608  0.5888E-10  0.0000E+00  0.3999E-02  0.0000E+00  0.2059E-03  0.0000E+00  0.3999E-02  0.0000E+00  0.2374E-11  0.0000E+00  0.3052E-12  0.0000E+00  0.2153E-10  0.0000E+00  0.3052E-12  0.0000E+00  0.6253E-10  0.0000E+00
    -39.394  0.3988E-08  0.0000E+00  0.2709E+00  0.0000E+00  0.1457E-01  0.0000E+00  0.2709E+00  0.0000E+00  0.1607E-09  0.0000E+00  0.2084E-10  0.0000E+00  0.1458E-08  0.0000E+00  0.2084E-10  0.0000E+00  0.4236E-08  0.0000E+00
    -39.180  0.5202E-07  0.0000E+00  0.3532E+01  0.0000E+00  0.8532E+00  0.0000E+00  0.3532E+01  0.0000E+00  0.2085E-08  0.0000E+00  0.4457E-09  0.0000E+00  0.1904E-07  0.0000E+00  0.4457E-09  0.0000E+00  0.5530E-07  0.0000E+00
    -38.966  0.1239E-07  0.0000E+00  0.8276E+00  0.0000E+00  0.3515E+01  0.0000E+00  0.8276E+00  0.0000E+00  0.5352E-09  0.0000E+00  0.9728E-09  0.0000E+00  0.4606E-08  0.0000E+00  0.9728E-09  0.0000E+00  0.1299E-07  0.0000E+00
    -38.753  0.1682E-10  0.0000E+00  0.1978E-07  0.0000E+00  0.2613E+00  0.0000E+00  0.1978E-07  0.0000E+00  0.4116E-11  0.0000E+00  0.6839E-10  0.0000E+00  0.1186E-10  0.0000E+00  0.6839E-10  0.0000E+00  0.1371E-11  0.0000E+00
    -38.539  0.0000E+00  0.0000E+00  0.0000E+00  0.0000E+00  0.0000E+00  0.0000E+00  0.0000E+00  0.0000E+00  0.0000E+00  0.0000E+00  0.0000E+00  0.0000E+00  0.0000E+00  0.0000E+00  0.0000E+00  0.0000E+00  0.0000E+00  0.0000E+00
    -38.325  0.0000E+00  0.0000E+00  0.0000E+00  0.0000E+00  0.0000E+00  0.0000E+00  0.0000E+00  0.0000E+00  0.0000E+00  0.0000E+00  0.0000E+00  0.0000E+00  0.0000E+00  0.0000E+00  0.0000E+00  0.0000E+00  0.0000E+00  0.0000E+00
    -38.111  0.0000E+00  0.0000E+00  0.0000E+00  0.0000E+00  0.0000E+00  0.0000E+00  0.0000E+00  0.0000E+00  0.0000E+00  0.0000E+00  0.0000E+00  0.0000E+00  0.0000E+00  0.0000E+00  0.0000E+00  0.0000E+00  0.0000E+00  0.0000E+00
    -37.897  0.0000E+00  0.6280E-12  0.0000E+00  0.3232E-04  0.0000E+00  0.2018E-09  0.0000E+00  0.3232E-04  0.0000E+00  0.2491E-13  0.0000E+00  0.3448E-14  0.0000E+00  0.2417E-12  0.0000E+00  0.3448E-14  0.0000E+00  0.7031E-12
    -37.683  0.0000E+00  0.4467E-10  0.0000E+00  0.2294E-02  0.0000E+00  0.1311E-02  0.0000E+00  0.2294E-02  0.0000E+00  0.1824E-11  0.0000E+00  0.7415E-12  0.0000E+00  0.1730E-10  0.0000E+00  0.7415E-12  0.0000E+00  0.4995E-10
    -37.470  0.0000E+00  0.3104E-08  0.0000E+00  0.1594E+00  0.0000E+00  0.9124E-01  0.0000E+00  0.1594E+00  0.0000E+00  0.1267E-09  0.0000E+00  0.5158E-10  0.0000E+00  0.1202E-08  0.0000E+00  0.5158E-10  0.0000E+00  0.3471E-08
    -37.256  0.0000E+00  0.6225E-07  0.0000E+00  0.3193E+01  0.0000E+00  0.2668E+01  0.0000E+00  0.3193E+01  0.0000E+00  0.2559E-08  0.0000E+00  0.1356E-08  0.0000E+00  0.2419E-07  0.0000E+00  0.1356E-08  0.0000E+00  0.6967E-07
    -37.042  0.0000E+00  0.2479E-07  0.0000E+00  0.1269E+01  0.0000E+00  0.1844E+01  0.0000E+00  0.1269E+01  0.0000E+00  0.1043E-08  0.0000E+00  0.8382E-09  0.0000E+00  0.9706E-08  0.0000E+00  0.8382E-09  0.0000E+00  0.2776E-07
    -36.828  0.0000E+00  0.0000E+00  0.0000E+00  0.0000E+00  0.0000E+00  0.0000E+00  0.0000E+00  0.0000E+00  0.0000E+00  0.0000E+00  0.0000E+00  0.0000E+00  0.0000E+00  0.0000E+00  0.0000E+00  0.0000E+00  0.0000E+00  0.0000E+00
    -36.614  0.0000E+00  0.0000E+00  0.0000E+00  0.0000E+00  0.0000E+00  0.0000E+00  0.0000E+00  0.0000E+00  0.0000E+00  0.0000E+00  0.0000E+00  0.0000E+00  0.0000E+00  0.0000E+00  0.0000E+00  0.0000E+00  0.0000E+00  0.0000E+00
    -36.400  0.0000E+00  0.0000E+00  0.0000E+00  0.0000E+00  0.0000E+00  0.0000E+00  0.0000E+00  0.0000E+00  0.0000E+00  0.0000E+00  0.0000E+00  0.0000E+00  0.0000E+00  0.0000E+00  0.0000E+00  0.0000E+00  0.0000E+00  0.0000E+00
    -36.187  0.0000E+00  0.0000E+00  0.0000E+00  0.0000E+00  0.0000E+00  0.0000E+00  0.0000E+00  0.0000E+00  0.0000E+00  0.0000E+00  0.0000E+00  0.0000E+00  0.0000E+00  0.0000E+00  0.0000E+00  0.0000E+00  0.0000E+00  0.0000E+00
    -35.973  0.0000E+00  0.0000E+00  0.0000E+00  0.0000E+00  0.0000E+00  0.0000E+00  0.0000E+00  0.0000E+00  0.0000E+00  0.0000E+00  0.0000E+00  0.0000E+00  0.0000E+00  0.0000E+00  0.0000E+00  0.0000E+00  0.0000E+00  0.0000E+00
    -35.759  0.0000E+00  0.0000E+00  0.0000E+00  0.0000E+00  0.0000E+00  0.0000E+00  0.0000E+00  0.0000E+00  0.0000E+00  0.0000E+00  0.0000E+00  0.0000E+00  0.0000E+00  0.0000E+00  0.0000E+00  0.0000E+00  0.0000E+00  0.0000E+00
    -35.545  0.0000E+00  0.0000E+00  0.0000E+00  0.0000E+00  0.0000E+00  0.0000E+00  0.0000E+00  0.0000E+00  0.0000E+00  0.0000E+00  0.0000E+00  0.0000E+00  0.0000E+00  0.0000E+00  0.0000E+00  0.0000E+00  0.0000E+00  0.0000E+00
    -35.331  0.0000E+00  0.0000E+00  0.0000E+00  0.0000E+00  0.0000E+00  0.0000E+00  0.0000E+00  0.0000E+00  0.0000E+00  0.0000E+00  0.0000E+00  0.0000E+00  0.0000E+00  0.0000E+00  0.0000E+00  0.0000E+00  0.0000E+00  0.0000E+00
    -35.117  0.0000E+00  0.0000E+00  0.0000E+00  0.0000E+00  0.0000E+00  0.0000E+00  0.0000E+00  0.0000E+00  0.0000E+00  0.0000E+00  0.0000E+00  0.0000E+00  0.0000E+00  0.0000E+00  0.0000E+00  0.0000E+00  0.0000E+00  0.0000E+00
    -34.904  0.0000E+00  0.0000E+00  0.0000E+00  0.0000E+00  0.0000E+00  0.0000E+00  0.0000E+00  0.0000E+00  0.0000E+00  0.0000E+00  0.0000E+00  0.0000E+00  0.0000E+00  0.0000E+00  0.0000E+00  0.0000E+00  0.0000E+00  0.0000E+00
    -34.690  0.0000E+00  0.0000E+00  0.0000E+00  0.0000E+00  0.0000E+00  0.0000E+00  0.0000E+00  0.0000E+00  0.0000E+00  0.0000E+00  0.0000E+00  0.0000E+00  0.0000E+00  0.0000E+00  0.0000E+00  0.0000E+00  0.0000E+00  0.0000E+00
    -34.476  0.0000E+00  0.0000E+00  0.0000E+00  0.0000E+00  0.0000E+00  0.0000E+00  0.0000E+00  0.0000E+00  0.0000E+00  0.0000E+00  0.0000E+00  0.0000E+00  0.0000E+00  0.0000E+00  0.0000E+00  0.0000E+00  0.0000E+00  0.0000E+00
    -34.262  0.0000E+00  0.0000E+00  0.0000E+00  0.0000E+00  0.0000E+00  0.0000E+00  0.0000E+00  0.0000E+00  0.0000E+00  0.0000E+00  0.0000E+00  0.0000E+00  0.0000E+00  0.0000E+00  0.0000E+00  0.0000E+00  0.0000E+00  0.0000E+00
    -34.048  0.0000E+00  0.0000E+00  0.0000E+00  0.0000E+00  0.0000E+00  0.0000E+00  0.0000E+00  0.0000E+00  0.0000E+00  0.0000E+00  0.0000E+00  0.0000E+00  0.0000E+00  0.0000E+00  0.0000E+00  0.0000E+00  0.0000E+00  0.0000E+00
    -33.834  0.0000E+00  0.0000E+00  0.0000E+00  0.0000E+00  0.0000E+00  0.0000E+00  0.0000E+00  0.0000E+00  0.0000E+00  0.0000E+00  0.0000E+00  0.0000E+00  0.0000E+00  0.0000E+00  0.0000E+00  0.0000E+00  0.0000E+00  0.0000E+00
    -33.621  0.0000E+00  0.0000E+00  0.0000E+00  0.0000E+00  0.0000E+00  0.0000E+00  0.0000E+00  0.0000E+00  0.0000E+00  0.0000E+00  0.0000E+00  0.0000E+00  0.0000E+00  0.0000E+00  0.0000E+00  0.0000E+00  0.0000E+00  0.0000E+00
    -33.407  0.0000E+00  0.0000E+00  0.0000E+00  0.0000E+00  0.0000E+00  0.0000E+00  0.0000E+00  0.0000E+00  0.0000E+00  0.0000E+00  0.0000E+00  0.0000E+00  0.0000E+00  0.0000E+00  0.0000E+00  0.0000E+00  0.0000E+00  0.0000E+00
    -33.193  0.0000E+00  0.0000E+00  0.0000E+00  0.0000E+00  0.0000E+00  0.0000E+00  0.0000E+00  0.0000E+00  0.0000E+00  0.0000E+00  0.0000E+00  0.0000E+00  0.0000E+00  0.0000E+00  0.0000E+00  0.0000E+00  0.0000E+00  0.0000E+00
    -32.979  0.0000E+00  0.0000E+00  0.0000E+00  0.0000E+00  0.0000E+00  0.0000E+00  0.0000E+00  0.0000E+00  0.0000E+00  0.0000E+00  0.0000E+00  0.0000E+00  0.0000E+00  0.0000E+00  0.0000E+00  0.0000E+00  0.0000E+00  0.0000E+00
    -32.765  0.0000E+00  0.0000E+00  0.0000E+00  0.0000E+00  0.0000E+00  0.0000E+00  0.0000E+00  0.0000E+00  0.0000E+00  0.0000E+00  0.0000E+00  0.0000E+00  0.0000E+00  0.0000E+00  0.0000E+00  0.0000E+00  0.0000E+00  0.0000E+00
    -32.551  0.0000E+00  0.0000E+00  0.0000E+00  0.0000E+00  0.0000E+00  0.0000E+00  0.0000E+00  0.0000E+00  0.0000E+00  0.0000E+00  0.0000E+00  0.0000E+00  0.0000E+00  0.0000E+00  0.0000E+00  0.0000E+00  0.0000E+00  0.0000E+00
    -32.338  0.0000E+00  0.0000E+00  0.0000E+00  0.0000E+00  0.0000E+00  0.0000E+00  0.0000E+00  0.0000E+00  0.0000E+00  0.0000E+00  0.0000E+00  0.0000E+00  0.0000E+00  0.0000E+00  0.0000E+00  0.0000E+00  0.0000E+00  0.0000E+00
    -32.124  0.0000E+00  0.0000E+00  0.0000E+00  0.0000E+00  0.0000E+00  0.0000E+00  0.0000E+00  0.0000E+00  0.0000E+00  0.0000E+00  0.0000E+00  0.0000E+00  0.0000E+00  0.0000E+00  0.0000E+00  0.0000E+00  0.0000E+00  0.0000E+00
    -31.910  0.0000E+00  0.0000E+00  0.0000E+00  0.0000E+00  0.0000E+00  0.0000E+00  0.0000E+00  0.0000E+00  0.0000E+00  0.0000E+00  0.0000E+00  0.0000E+00  0.0000E+00  0.0000E+00  0.0000E+00  0.0000E+00  0.0000E+00  0.0000E+00
    -31.696  0.0000E+00  0.0000E+00  0.0000E+00  0.0000E+00  0.0000E+00  0.0000E+00  0.0000E+00  0.0000E+00  0.0000E+00  0.0000E+00  0.0000E+00  0.0000E+00  0.0000E+00  0.0000E+00  0.0000E+00  0.0000E+00  0.0000E+00  0.0000E+00
    -31.482  0.0000E+00  0.0000E+00  0.0000E+00  0.0000E+00  0.0000E+00  0.0000E+00  0.0000E+00  0.0000E+00  0.0000E+00  0.0000E+00  0.0000E+00  0.0000E+00  0.0000E+00  0.0000E+00  0.0000E+00  0.0000E+00  0.0000E+00  0.0000E+00