   8   8   1   0
  0.1682785E+02  0.4005611E-09  0.4005611E-09  0.8390368E-09  0.5000000E-15
  1.000000000000000E-004
  CAR 
 unknown system                          
     18.22131630    -44.86680935  301      7.27743740      1.00000000
    -44.867  0.0000E+00  0.0000E+00  0.0000E+00  0.0000E+00
    -44.657  0.0000E+00  0.0000E+00  0.0000E+00  0.0000E+00
    -44.446  0.0000E+00  0.0000E+00  0.0000E+00  0.0000E+00
    -44.236  0.0000E+00  0.0000E+00  0.0000E+00  0.0000E+00
    -44.026  0.0000E+00  0.0000E+00  0.0000E+00  0.0000E+00
    -43.815  0.0000E+00  0.0000E+00  0.0000E+00  0.0000E+00
    -43.605  0.0000E+00  0.0000E+00  0.0000E+00  0.0000E+00
    -43.395  0.0000E+00  0.0000E+00  0.0000E+00  0.0000E+00
    -43.184  0.0000E+00  0.0000E+00  0.0000E+00  0.0000E+00
    -42.974  0.0000E+00  0.0000E+00  0.0000E+00  0.0000E+00
    -42.764  0.0000E+00  0.0000E+00  0.0000E+00  0.0000E+00
    -42.554  0.2865E-03  0.0000E+00  0.6025E-04  0.0000E+00
    -42.343  0.1973E-01  0.0000E+00  0.4210E-02  0.0000E+00
    -42.133  0.1242E+01  0.0000E+00  0.2654E+00  0.0000E+00
    -41.923  0.1699E+02  0.0000E+00  0.3838E+01  0.0000E+00
    -41.712  0.9866E+01  0.0000E+00  0.5913E+01  0.0000E+00
    -41.502  0.3463E+00  0.0000E+00  0.5999E+01  0.0000E+00
    -41.292  0.0000E+00  0.0000E+00  0.6000E+01  0.0000E+00
    -41.082  0.0000E+00  0.0000E+00  0.6000E+01  0.0000E+00
    -40.871  0.0000E+00  0.0000E+00  0.6000E+01  0.0000E+00
    -40.661  0.0000E+00  0.0000E+00  0.6000E+01  0.0000E+00
    -40.451  0.0000E+00  0.0000E+00  0.6000E+01  0.0000E+00
    -40.240  0.0000E+00  0.0000E+00  0.6000E+01  0.0000E+00
    -40.030  0.0000E+00  0.0000E+00  0.6000E+01  0.0000E+00
    -39.820  0.0000E+00  0.0000E+00  0.6000E+01  0.0000E+00
    -39.609  0.0000E+00  0.0000E+00  0.6000E+01  0.0000E+00
    -39.399  0.0000E+00  0.4450E-02  0.6000E+01  0.9359E-03
    -39.189  0.0000E+00  0.2910E+00  0.6000E+01  0.6213E-01
    -38.979  0.0000E+00  0.1146E+02  0.6000E+01  0.2472E+01
    -38.768  0.0000E+00  0.1618E+02  0.6000E+01  0.5875E+01
    -38.558  0.0000E+00  0.2153E+00  0.6000E+01  0.5999E+01
    -38.348  0.0000E+00  0.0000E+00  0.6000E+01  0.6000E+01
    -38.137  0.0000E+00  0.0000E+00  0.6000E+01  0.6000E+01
    -37.927  0.0000E+00  0.0000E+00  0.6000E+01  0.6000E+01
    -37.717  0.0000E+00  0.0000E+00  0.6000E+01  0.6000E+01
    -37.507  0.0000E+00  0.0000E+00  0.6000E+01  0.6000E+01
    -37.296  0.0000E+00  0.0000E+00  0.6000E+01  0.6000E+01
    -37.086  0.0000E+00  0.0000E+00  0.6000E+01  0.6000E+01
    -36.876  0.0000E+00  0.0000E+00  0.6000E+01  0.6000E+01
    -36.665  0.0000E+00  0.0000E+00  0.6000E+01  0.6000E+01
    -36.455  0.0000E+00  0.0000E+00  0.6000E+01  0.6000E+01
    -36.245  0.0000E+00  0.0000E+00  0.6000E+01  0.6000E+01
    -36.034  0.0000E+00  0.0000E+00  0.6000E+01  0.6000E+01
    -35.824  0.0000E+00  0.0000E+00  0.6000E+01  0.6000E+01
    -35.614  0.0000E+00  0.0000E+00  0.6000E+01  0.6000E+01
    -35.404  0.0000E+00  0.0000E+00  0.6000E+01  0.6000E+01
    -35.193  0.0000E+00  0.0000E+00  0.6000E+01  0.6000E+01
    -34.983  0.0000E+00  0.0000E+00  0.6000E+01  0.6000E+01
    -34.773  0.0000E+00  0.0000E+00  0.6000E+01  0.6000E+01
    -34.562  0.0000E+00  0.0000E+00  0.6000E+01  0.6000E+01
    -34.352  0.0000E+00  0.0000E+00  0.6000E+01  0.6000E+01
    -34.142  0.0000E+00  0.0000E+00  0.6000E+01  0.6000E+01
    -33.932  0.0000E+00  0.0000E+00  0.6000E+01  0.6000E+01
    -33.721  0.0000E+00  0.0000E+00  0.6000E+01  0.6000E+01
    -33.511  0.0000E+00  0.0000E+00  0.6000E+01  0.6000E+01
    -33.301  0.0000E+00  0.0000E+00  0.6000E+01  0.6000E+01
    -33.090  0.0000E+00  0.0000E+00  0.6000E+01  0.6000E+01
    -32.880  0.0000E+00  0.0000E+00  0.6000E+01  0.6000E+01
    -32.670  0.0000E+00  0.0000E+00  0.6000E+01  0.6000E+01
    -32.459  0.0000E+00  0.0000E+00  0.6000E+01  0.6000E+01
    -32.249  0.0000E+00  0.0000E+00  0.6000E+01  0.6000E+01
    -32.039  0.0000E+00  0.0000E+00  0.6000E+01  0.6000E+01
    -31.829  0.0000E+00  0.0000E+00  0.6000E+01  0.6000E+01
    -31.618  0.0000E+00  0.0000E+00  0.6000E+01  0.6000E+01
    -31.408  0.0000E+00  0.0000E+00  0.6000E+01  0.6000E+01
    -31.198  0.0000E+00  0.0000E+00  0.6000E+01  0.6000E+01
    -30.987  0.0000E+00  0.0000E+00  0.6000E+01  0.6000E+01
    -30.777  0.0000E+00  0.0000E+00  0.6000E+01  0.6000E+01
    -30.567  0.0000E+00  0.0000E+00  0.6000E+01  0.6000E+01
    -30.357  0.0000E+00  0.0000E+00  0.6000E+01  0.6000E+01
    -30.146  0.0000E+00  0.0000E+00  0.6000E+01  0.6000E+01
    -29.936  0.0000E+00  0.0000E+00  0.6000E+01  0.6000E+01
    -29.726  0.0000E+00  0.0000E+00  0.6000E+01  0.6000E+01
    -29.515  0.0000E+00  0.0000E+00  0.6000E+01  0.6000E+01
    -29.305  0.0000E+00  0.0000E+00  0.6000E+01  0.6000E+01
    -29.095  0.0000E+00  0.0000E+00  0.6000E+01  0.6000E+01
    -28.884  0.0000E+00  0.0000E+00  0.6000E+01  0.6000E+01
    -28.674  0.0000E+00  0.0000E+00  0.6000E+01  0.6000E+01
    -28.464  0.0000E+00  0.0000E+00  0.6000E+01  0.6000E+01
    -28.254  0.0000E+00  0.0000E+00  0.6000E+01  0.6000E+01
    -28.043  0.0000E+00  0.0000E+00  0.6000E+01  0.6000E+01
    -27.833  0.0000E+00  0.0000E+00  0.6000E+01  0.6000E+01
    -27.623  0.0000E+00  0.0000E+00  0.6000E+01  0.6000E+01
    -27.412  0.0000E+00  0.0000E+00  0.6000E+01  0.6000E+01
    -27.202  0.0000E+00  0.0000E+00  0.6000E+01  0.6000E+01
    -26.992  0.0000E+00  0.0000E+00  0.6000E+01  0.6000E+01
    -26.782  0.0000E+00  0.0000E+00  0.6000E+01  0.6000E+01
    -26.571  0.0000E+00  0.0000E+00  0.6000E+01  0.6000E+01
    -26.361  0.0000E+00  0.0000E+00  0.6000E+01  0.6000E+01
    -26.151  0.0000E+00  0.0000E+00  0.6000E+01  0.6000E+01
    -25.940  0.0000E+00  0.0000E+00  0.6000E+01  0.6000E+01
    -25.730  0.0000E+00  0.0000E+00  0.6000E+01  0.6000E+01
    -25.520  0.0000E+00  0.0000E+00  0.6000E+01  0.6000E+01
    -25.309  0.0000E+00  0.0000E+00  0.6000E+01  0.6000E+01
    -25.099  0.0000E+00  0.0000E+00  0.6000E+01  0.6000E+01
    -24.889  0.0000E+00  0.0000E+00  0.6000E+01  0.6000E+01
    -24.679  0.0000E+00  0.0000E+00  0.6000E+01  0.6000E+01
    -24.468  0.0000E+00  0.0000E+00  0.6000E+01  0.6000E+01
    -24.258  0.0000E+00  0.0000E+00  0.6000E+01  0.6000E+01
    -24.048  0.0000E+00  0.0000E+00  0.6000E+01  0.6000E+01
    -23.837  0.0000E+00  0.0000E+00  0.6000E+01  0.6000E+01
    -23.627  0.0000E+00  0.0000E+00  0.6000E+01  0.6000E+01
    -23.417  0.0000E+00  0.0000E+00  0.6000E+01  0.6000E+01
    -23.207  0.0000E+00  0.0000E+00  0.6000E+01  0.6000E+01
    -22.996  0.0000E+00  0.0000E+00  0.6000E+01  0.6000E+01
    -22.786  0.0000E+00  0.0000E+00  0.6000E+01  0.6000E+01
    -22.576  0.0000E+00  0.0000E+00  0.6000E+01  0.6000E+01
    -22.365  0.0000E+00  0.0000E+00  0.6000E+01  0.6000E+01
    -22.155  0.0000E+00  0.0000E+00  0.6000E+01  0.6000E+01
    -21.945  0.0000E+00  0.0000E+00  0.6000E+01  0.6000E+01
    -21.734  0.0000E+00  0.0000E+00  0.6000E+01  0.6000E+01
    -21.524  0.0000E+00  0.0000E+00  0.6000E+01  0.6000E+01
    -21.314  0.0000E+00  0.0000E+00  0.6000E+01  0.6000E+01
    -21.104  0.0000E+00  0.0000E+00  0.6000E+01  0.6000E+01
    -20.893  0.0000E+00  0.0000E+00  0.6000E+01  0.6000E+01
    -20.683  0.0000E+00  0.0000E+00  0.6000E+01  0.6000E+01
    -20.473  0.0000E+00  0.0000E+00  0.6000E+01  0.6000E+01
    -20.262  0.0000E+00  0.0000E+00  0.6000E+01  0.6000E+01
    -20.052  0.0000E+00  0.0000E+00  0.6000E+01  0.6000E+01
    -19.842  0.0000E+00  0.0000E+00  0.6000E+01  0.6000E+01
    -19.632  0.0000E+00  0.0000E+00  0.6000E+01  0.6000E+01
    -19.421  0.0000E+00  0.0000E+00  0.6000E+01  0.6000E+01
    -19.211  0.0000E+00  0.0000E+00  0.6000E+01  0.6000E+01
    -19.001  0.0000E+00  0.0000E+00  0.6000E+01  0.6000E+01
    -18.790  0.0000E+00  0.0000E+00  0.6000E+01  0.6000E+01
    -18.580  0.0000E+00  0.0000E+00  0.6000E+01  0.6000E+01
    -18.370  0.0000E+00  0.0000E+00  0.6000E+01  0.6000E+01
    -18.160  0.0000E+00  0.0000E+00  0.6000E+01  0.6000E+01
    -17.949  0.0000E+00  0.0000E+00  0.6000E+01  0.6000E+01
    -17.739  0.0000E+00  0.0000E+00  0.6000E+01  0.6000E+01
    -17.529  0.0000E+00  0.0000E+00  0.6000E+01  0.6000E+01
    -17.318  0.0000E+00  0.0000E+00  0.6000E+01  0.6000E+01
    -17.108  0.0000E+00  0.0000E+00  0.6000E+01  0.6000E+01
    -16.898  0.0000E+00  0.0000E+00  0.6000E+01  0.6000E+01
    -16.687  0.0000E+00  0.0000E+00  0.6000E+01  0.6000E+01
    -16.477  0.0000E+00  0.0000E+00  0.6000E+01  0.6000E+01
    -16.267  0.0000E+00  0.0000E+00  0.6000E+01  0.6000E+01
    -16.057  0.0000E+00  0.0000E+00  0.6000E+01  0.6000E+01
    -15.846  0.0000E+00  0.0000E+00  0.6000E+01  0.6000E+01
    -15.636  0.0000E+00  0.0000E+00  0.6000E+01  0.6000E+01
    -15.426  0.0000E+00  0.0000E+00  0.6000E+01  0.6000E+01
    -15.215  0.0000E+00  0.0000E+00  0.6000E+01  0.6000E+01
    -15.005  0.0000E+00  0.0000E+00  0.6000E+01  0.6000E+01
    -14.795  0.0000E+00  0.0000E+00  0.6000E+01  0.6000E+01
    -14.585  0.0000E+00  0.0000E+00  0.6000E+01  0.6000E+01
    -14.374  0.0000E+00  0.0000E+00  0.6000E+01  0.6000E+01
    -14.164  0.0000E+00  0.0000E+00  0.6000E+01  0.6000E+01
    -13.954  0.0000E+00  0.0000E+00  0.6000E+01  0.6000E+01
    -13.743  0.0000E+00  0.0000E+00  0.6000E+01  0.6000E+01
    -13.533  0.0000E+00  0.0000E+00  0.6000E+01  0.6000E+01
    -13.323  0.0000E+00  0.0000E+00  0.6000E+01  0.6000E+01
    -13.112  0.0000E+00  0.0000E+00  0.6000E+01  0.6000E+01
    -12.902  0.0000E+00  0.0000E+00  0.6000E+01  0.6000E+01
    -12.692  0.0000E+00  0.0000E+00  0.6000E+01  0.6000E+01
    -12.482  0.0000E+00  0.0000E+00  0.6000E+01  0.6000E+01
    -12.271  0.0000E+00  0.0000E+00  0.6000E+01  0.6000E+01
    -12.061  0.0000E+00  0.0000E+00  0.6000E+01  0.6000E+01
    -11.851  0.0000E+00  0.0000E+00  0.6000E+01  0.6000E+01
    -11.640  0.0000E+00  0.0000E+00  0.6000E+01  0.6000E+01
    -11.430  0.0000E+00  0.0000E+00  0.6000E+01  0.6000E+01
    -11.220  0.0000E+00  0.0000E+00  0.6000E+01  0.6000E+01
    -11.010  0.0000E+00  0.0000E+00  0.6000E+01  0.6000E+01
    -10.799  0.0000E+00  0.0000E+00  0.6000E+01  0.6000E+01
    -10.589  0.0000E+00  0.0000E+00  0.6000E+01  0.6000E+01
    -10.379  0.0000E+00  0.0000E+00  0.6000E+01  0.6000E+01
    -10.168  0.0000E+00  0.0000E+00  0.6000E+01  0.6000E+01
     -9.958  0.0000E+00  0.0000E+00  0.6000E+01  0.6000E+01
     -9.748  0.0000E+00  0.0000E+00  0.6000E+01  0.6000E+01
     -9.537  0.0000E+00  0.0000E+00  0.6000E+01  0.6000E+01
     -9.327  0.0000E+00  0.0000E+00  0.6000E+01  0.6000E+01
     -9.117  0.0000E+00  0.0000E+00  0.6000E+01  0.6000E+01
     -8.907  0.0000E+00  0.0000E+00  0.6000E+01  0.6000E+01
     -8.696  0.0000E+00  0.0000E+00  0.6000E+01  0.6000E+01
     -8.486  0.0000E+00  0.0000E+00  0.6000E+01  0.6000E+01
     -8.276  0.0000E+00  0.0000E+00  0.6000E+01  0.6000E+01
     -8.065  0.0000E+00  0.0000E+00  0.6000E+01  0.6000E+01
     -7.855  0.0000E+00  0.0000E+00  0.6000E+01  0.6000E+01
     -7.645  0.0000E+00  0.0000E+00  0.6000E+01  0.6000E+01
     -7.435  0.0000E+00  0.0000E+00  0.6000E+01  0.6000E+01
     -7.224  0.0000E+00  0.0000E+00  0.6000E+01  0.6000E+01
     -7.014  0.0000E+00  0.0000E+00  0.6000E+01  0.6000E+01
     -6.804  0.0000E+00  0.0000E+00  0.6000E+01  0.6000E+01
     -6.593  0.0000E+00  0.0000E+00  0.6000E+01  0.6000E+01
     -6.383  0.0000E+00  0.0000E+00  0.6000E+01  0.6000E+01
     -6.173  0.0000E+00  0.0000E+00  0.6000E+01  0.6000E+01
     -5.962  0.0000E+00  0.0000E+00  0.6000E+01  0.6000E+01
     -5.752  0.0000E+00  0.0000E+00  0.6000E+01  0.6000E+01
     -5.542  0.0000E+00  0.0000E+00  0.6000E+01  0.6000E+01
     -5.332  0.0000E+00  0.0000E+00  0.6000E+01  0.6000E+01
     -5.121  0.0000E+00  0.0000E+00  0.6000E+01  0.6000E+01
     -4.911  0.0000E+00  0.0000E+00  0.6000E+01  0.6000E+01
     -4.701  0.0000E+00  0.0000E+00  0.6000E+01  0.6000E+01
     -4.490  0.0000E+00  0.0000E+00  0.6000E+01  0.6000E+01
     -4.280  0.0000E+00  0.0000E+00  0.6000E+01  0.6000E+01
     -4.070  0.0000E+00  0.0000E+00  0.6000E+01  0.6000E+01
     -3.860  0.0000E+00  0.0000E+00  0.6000E+01  0.6000E+01
     -3.649  0.0000E+00  0.0000E+00  0.6000E+01  0.6000E+01
     -3.439  0.0000E+00  0.4173E-07  0.6000E+01  0.6000E+01
     -3.229  0.4474E-05  0.1496E-04  0.6000E+01  0.6000E+01
     -3.018  0.3097E-03  0.1001E-02  0.6000E+01  0.6000E+01
     -2.808  0.1600E-01  0.3739E-01  0.6003E+01  0.6008E+01
     -2.598  0.1338E+00  0.1788E+00  0.6032E+01  0.6046E+01
     -2.387  0.2564E+00  0.2824E+00  0.6085E+01  0.6105E+01
     -2.177  0.3445E+00  0.3699E+00  0.6158E+01  0.6183E+01
     -1.967  0.3927E+00  0.4115E+00  0.6241E+01  0.6270E+01
     -1.757  0.4796E+00  0.5071E+00  0.6342E+01  0.6377E+01
     -1.546  0.5129E+00  0.5147E+00  0.6450E+01  0.6486E+01
     -1.336  0.5690E+00  0.6221E+00  0.6570E+01  0.6618E+01
     -1.126  0.6564E+00  0.6683E+00  0.6709E+01  0.6759E+01
     -0.915  0.6384E+00  0.6751E+00  0.6844E+01  0.6901E+01
     -0.705  0.7745E+00  0.7623E+00  0.7007E+01  0.7063E+01
     -0.495  0.7254E+00  0.7456E+00  0.7160E+01  0.7220E+01
     -0.285  0.7742E+00  0.7539E+00  0.7323E+01  0.7380E+01
     -0.074  0.8248E+00  0.8669E+00  0.7498E+01  0.7563E+01
      0.136  0.8430E+00  0.6948E+00  0.7675E+01  0.7710E+01
      0.346  0.8127E+00  0.8174E+00  0.7848E+01  0.7883E+01
      0.557  0.9389E+00  0.9695E+00  0.8046E+01  0.8088E+01
      0.767  0.1041E+01  0.1000E+01  0.8265E+01  0.8299E+01
      0.977  0.1025E+01  0.1001E+01  0.8482E+01  0.8511E+01
      1.188  0.9742E+00  0.9248E+00  0.8688E+01  0.8706E+01
      1.398  0.9427E+00  0.8753E+00  0.8888E+01  0.8891E+01
      1.608  0.9476E+00  0.9025E+00  0.9088E+01  0.9082E+01
      1.818  0.1068E+01  0.1021E+01  0.9314E+01  0.9297E+01
      2.029  0.1217E+01  0.1125E+01  0.9571E+01  0.9535E+01
      2.239  0.1288E+01  0.1228E+01  0.9843E+01  0.9795E+01
      2.449  0.1262E+01  0.1147E+01  0.1011E+02  0.1004E+02
      2.660  0.1397E+01  0.1115E+01  0.1040E+02  0.1027E+02
      2.870  0.1326E+01  0.1334E+01  0.1068E+02  0.1055E+02
      3.080  0.1339E+01  0.1082E+01  0.1097E+02  0.1078E+02
      3.290  0.1531E+01  0.1157E+01  0.1129E+02  0.1103E+02
      3.501  0.1555E+01  0.1340E+01  0.1162E+02  0.1131E+02
      3.711  0.1688E+01  0.1442E+01  0.1198E+02  0.1162E+02
      3.921  0.1891E+01  0.1246E+01  0.1238E+02  0.1188E+02
      4.132  0.2176E+01  0.1693E+01  0.1284E+02  0.1224E+02
      4.342  0.2607E+01  0.1429E+01  0.1339E+02  0.1254E+02
      4.552  0.3083E+01  0.1453E+01  0.1404E+02  0.1284E+02
      4.763  0.5406E+01  0.1661E+01  0.1518E+02  0.1319E+02
      4.973  0.6342E+01  0.1716E+01  0.1651E+02  0.1356E+02
      5.183  0.6510E+01  0.1756E+01  0.1789E+02  0.1393E+02
      5.393  0.7621E+01  0.2128E+01  0.1950E+02  0.1438E+02
      5.604  0.5271E+01  0.2088E+01  0.2062E+02  0.1482E+02
      5.814  0.4199E+01  0.2388E+01  0.2151E+02  0.1532E+02
      6.024  0.2655E+01  0.2876E+01  0.2207E+02  0.1593E+02
      6.235  0.2022E+01  0.2516E+01  0.2250E+02  0.1646E+02
      6.445  0.1401E+01  0.2798E+01  0.2280E+02  0.1705E+02
      6.655  0.1455E+01  0.2587E+01  0.2311E+02  0.1760E+02
      6.865  0.1706E+01  0.2992E+01  0.2347E+02  0.1823E+02
      7.076  0.2545E+01  0.3248E+01  0.2401E+02  0.1892E+02
      7.286  0.2686E+01  0.2600E+01  0.2457E+02  0.1947E+02
      7.496  0.2316E+01  0.1903E+01  0.2506E+02  0.1987E+02
      7.707  0.1654E+01  0.1200E+01  0.2541E+02  0.2013E+02
      7.917  0.2017E+01  0.1549E+01  0.2584E+02  0.2045E+02
      8.127  0.1534E+01  0.3396E+01  0.2616E+02  0.2117E+02
      8.338  0.1500E+01  0.6824E+01  0.2648E+02  0.2261E+02
      8.548  0.2001E+01  0.6013E+01  0.2690E+02  0.2388E+02
      8.758  0.1695E+01  0.3536E+01  0.2726E+02  0.2463E+02
      8.968  0.1960E+01  0.3798E+01  0.2768E+02  0.2543E+02
      9.179  0.1947E+01  0.3376E+01  0.2809E+02  0.2614E+02
      9.389  0.2064E+01  0.2741E+01  0.2852E+02  0.2673E+02
      9.599  0.1985E+01  0.2839E+01  0.2894E+02  0.2733E+02
      9.810  0.1553E+01  0.2681E+01  0.2927E+02  0.2789E+02
     10.020  0.1965E+01  0.2713E+01  0.2969E+02  0.2847E+02
     10.230  0.1878E+01  0.2821E+01  0.3008E+02  0.2906E+02
     10.440  0.1846E+01  0.2449E+01  0.3047E+02  0.2958E+02
     10.651  0.1888E+01  0.2544E+01  0.3087E+02  0.3012E+02
     10.861  0.1632E+01  0.2169E+01  0.3122E+02  0.3058E+02
     11.071  0.1727E+01  0.1902E+01  0.3158E+02  0.3098E+02
     11.282  0.1656E+01  0.1826E+01  0.3193E+02  0.3137E+02
     11.492  0.1852E+01  0.1763E+01  0.3233E+02  0.3174E+02
     11.702  0.2069E+01  0.1704E+01  0.3276E+02  0.3210E+02
     11.913  0.2370E+01  0.2230E+01  0.3326E+02  0.3257E+02
     12.123  0.1967E+01  0.2761E+01  0.3368E+02  0.3315E+02
     12.333  0.1957E+01  0.2334E+01  0.3409E+02  0.3365E+02
     12.543  0.1816E+01  0.2128E+01  0.3448E+02  0.3409E+02
     12.754  0.1818E+01  0.2249E+01  0.3486E+02  0.3457E+02
     12.964  0.1296E+01  0.1793E+01  0.3513E+02  0.3495E+02
     13.174  0.1116E+01  0.1368E+01  0.3537E+02  0.3524E+02
     13.385  0.8237E+00  0.1134E+01  0.3555E+02  0.3548E+02
     13.595  0.5851E+00  0.7031E+00  0.3567E+02  0.3563E+02
     13.805  0.3062E+00  0.4150E+00  0.3574E+02  0.3572E+02
     14.015  0.3324E+00  0.2697E+00  0.3581E+02  0.3578E+02
     14.226  0.2394E+00  0.2904E+00  0.3586E+02  0.3584E+02
     14.436  0.2039E+00  0.2620E+00  0.3590E+02  0.3589E+02
     14.646  0.2219E+00  0.2011E+00  0.3595E+02  0.3594E+02
     14.857  0.7783E-01  0.1435E+00  0.3596E+02  0.3597E+02
     15.067  0.1273E+00  0.9930E-01  0.3599E+02  0.3599E+02
     15.277  0.4062E-01  0.2552E-01  0.3600E+02  0.3599E+02
     15.487  0.3598E-02  0.2436E-01  0.3600E+02  0.3600E+02
     15.698  0.0000E+00  0.2037E-02  0.3600E+02  0.3600E+02
     15.908  0.0000E+00  0.0000E+00  0.3600E+02  0.3600E+02
     16.118  0.0000E+00  0.0000E+00  0.3600E+02  0.3600E+02
     16.329  0.0000E+00  0.0000E+00  0.3600E+02  0.3600E+02
     16.539  0.0000E+00  0.0000E+00  0.3600E+02  0.3600E+02
     16.749  0.0000E+00  0.0000E+00  0.3600E+02  0.3600E+02
     16.960  0.0000E+00  0.0000E+00  0.3600E+02  0.3600E+02
     17.170  0.0000E+00  0.0000E+00  0.3600E+02  0.3600E+02
     17.380  0.0000E+00  0.0000E+00  0.3600E+02  0.3600E+02
     17.590  0.0000E+00  0.0000E+00  0.3600E+02  0.3600E+02
     17.801  0.0000E+00  0.0000E+00  0.3600E+02  0.3600E+02
     18.011  0.0000E+00  0.0000E+00  0.3600E+02  0.3600E+02
     18.221  0.0000E+00  0.0000E+00  0.3600E+02  0.3600E+02
     18.22131630    -44.86680935  301      7.27743740      1.00000000
    -44.867  0.0000E+00  0.0000E+00  0.0000E+00  0.0000E+00  0.0000E+00  0.0000E+00  0.0000E+00  0.0000E+00  0.0000E+00  0.0000E+00  0.0000E+00  0.0000E+00  0.0000E+00  0.0000E+00  0.0000E+00  0.0000E+00  0.0000E+00  0.0000E+00
    -44.657  0.0000E+00  0.0000E+00  0.0000E+00  0.0000E+00  0.0000E+00  0.0000E+00  0.0000E+00  0.0000E+00  0.0000E+00  0.0000E+00  0.0000E+00  0.0000E+00  0.0000E+00  0.0000E+00  0.0000E+00  0.0000E+00  0.0000E+00  0.0000E+00
    -44.446  0.0000E+00  0.0000E+00  0.0000E+00  0.0000E+00  0.0000E+00  0.0000E+00  0.0000E+00  0.0000E+00  0.0000E+00  0.0000E+00  0.0000E+00  0.0000E+00  0.0000E+00  0.0000E+00  0.0000E+00  0.0000E+00  0.0000E+00  0.0000E+00
    -44.236  0.0000E+00  0.0000E+00  0.0000E+00  0.0000E+00  0.0000E+00  0.0000E+00  0.0000E+00  0.0000E+00  0.0000E+00  0.0000E+00  0.0000E+00  0.0000E+00  0.0000E+00  0.0000E+00  0.0000E+00  0.0000E+00  0.0000E+00  0.0000E+00
    -44.026  0.0000E+00  0.0000E+00  0.0000E+00  0.0000E+00  0.0000E+00  0.0000E+00  0.0000E+00  0.0000E+00  0.0000E+00  0.0000E+00  0.0000E+00  0.0000E+00  0.0000E+00  0.0000E+00  0.0000E+00  0.0000E+00  0.0000E+00  0.0000E+00
    -43.815  0.0000E+00  0.0000E+00  0.0000E+00  0.0000E+00  0.0000E+00  0.0000E+00  0.0000E+00  0.0000E+00  0.0000E+00  0.0000E+00  0.0000E+00  0.0000E+00  0.0000E+00  0.0000E+00  0.0000E+00  0.0000E+00  0.0000E+00  0.0000E+00
    -43.605  0.0000E+00  0.0000E+00  0.0000E+00  0.0000E+00  0.0000E+00  0.0000E+00  0.0000E+00  0.0000E+00  0.0000E+00  0.0000E+00  0.0000E+00  0.0000E+00  0.0000E+00  0.0000E+00  0.0000E+00  0.0000E+00  0.0000E+00  0.0000E+00
    -43.395  0.0000E+00  0.0000E+00  0.0000E+00  0.0000E+00  0.0000E+00  0.0000E+00  0.0000E+00  0.0000E+00  0.0000E+00  0.0000E+00  0.0000E+00  0.0000E+00  0.0000E+00  0.0000E+00  0.0000E+00  0.0000E+00  0.0000E+00  0.0000E+00
    -43.184  0.0000E+00  0.0000E+00  0.0000E+00  0.0000E+00  0.0000E+00  0.0000E+00  0.0000E+00  0.0000E+00  0.0000E+00  0.0000E+00  0.0000E+00  0.0000E+00  0.0000E+00  0.0000E+00  0.0000E+00  0.0000E+00  0.0000E+00  0.0000E+00
    -42.974  0.0000E+00  0.0000E+00  0.0000E+00  0.0000E+00  0.0000E+00  0.0000E+00  0.0000E+00  0.0000E+00  0.0000E+00  0.0000E+00  0.0000E+00  0.0000E+00  0.0000E+00  0.0000E+00  0.0000E+00  0.0000E+00  0.0000E+00  0.0000E+00
    -42.764  0.0000E+00  0.0000E+00  0.0000E+00  0.0000E+00  0.0000E+00  0.0000E+00  0.0000E+00  0.0000E+00  0.0000E+00  0.0000E+00  0.0000E+00  0.0000E+00  0.0000E+00  0.0000E+00  0.0000E+00  0.0000E+00  0.0000E+00  0.0000E+00
    -42.554  0.1055E-12  0.0000E+00  0.7124E-04  0.0000E+00  0.1154E-11  0.0000E+00  0.7124E-04  0.0000E+00  0.3221E-14  0.0000E+00  0.1881E-15  0.0000E+00  0.3272E-13  0.0000E+00  0.1881E-15  0.0000E+00  0.9698E-13  0.0000E+00
    -42.343  0.6970E-11  0.0000E+00  0.4703E-02  0.0000E+00  0.4080E-03  0.0000E+00  0.4703E-02  0.0000E+00  0.2131E-12  0.0000E+00  0.2200E-13  0.0000E+00  0.2162E-11  0.0000E+00  0.2200E-13  0.0000E+00  0.6402E-11  0.0000E+00
    -42.133  0.4379E-09  0.0000E+00  0.2954E+00  0.0000E+00  0.2680E-01  0.0000E+00  0.2954E+00  0.0000E+00  0.1339E-10  0.0000E+00  0.1410E-11  0.0000E+00  0.1358E-09  0.0000E+00  0.1410E-11  0.0000E+00  0.4022E-09  0.0000E+00
    -41.923  0.5310E-08  0.0000E+00  0.3576E+01  0.0000E+00  0.1295E+01  0.0000E+00  0.3576E+01  0.0000E+00  0.1631E-09  0.0000E+00  0.3989E-10  0.0000E+00  0.1649E-08  0.0000E+00  0.3989E-10  0.0000E+00  0.4871E-08  0.0000E+00
    -41.712  0.1271E-08  0.0000E+00  0.8372E+00  0.0000E+00  0.3231E+01  0.0000E+00  0.8372E+00  0.0000E+00  0.4135E-10  0.0000E+00  0.7813E-10  0.0000E+00  0.4015E-09  0.0000E+00  0.7813E-10  0.0000E+00  0.1142E-08  0.0000E+00
    -41.502  0.1661E-11  0.0000E+00  0.1419E-08  0.0000E+00  0.1722E+00  0.0000E+00  0.1419E-08  0.0000E+00  0.1855E-12  0.0000E+00  0.4044E-11  0.0000E+00  0.9025E-12  0.0000E+00  0.4044E-11  0.0000E+00  0.7986E-13  0.0000E+00
    -41.292  0.0000E+00  0.0000E+00  0.0000E+00  0.0000E+00  0.0000E+00  0.0000E+00  0.0000E+00  0.0000E+00  0.0000E+00  0.0000E+00  0.0000E+00  0.0000E+00  0.0000E+00  0.0000E+00  0.0000E+00  0.0000E+00  0.0000E+00  0.0000E+00
    -41.082  0.0000E+00  0.0000E+00  0.0000E+00  0.0000E+00  0.0000E+00  0.0000E+00  0.0000E+00  0.0000E+00  0.0000E+00  0.0000E+00  0.0000E+00  0.0000E+00  0.0000E+00  0.0000E+00  0.0000E+00  0.0000E+00  0.0000E+00  0.0000E+00
    -40.871  0.0000E+00  0.0000E+00  0.0000E+00  0.0000E+00  0.0000E+00  0.0000E+00  0.0000E+00  0.0000E+00  0.0000E+00  0.0000E+00  0.0000E+00  0.0000E+00  0.0000E+00  0.0000E+00  0.0000E+00  0.0000E+00  0.0000E+00  0.0000E+00
    -40.661  0.0000E+00  0.0000E+00  0.0000E+00  0.0000E+00  0.0000E+00  0.0000E+00  0.0000E+00  0.0000E+00  0.0000E+00  0.0000E+00  0.0000E+00  0.0000E+00  0.0000E+00  0.0000E+00  0.0000E+00  0.0000E+00  0.0000E+00  0.0000E+00
    -40.451  0.0000E+00  0.0000E+00  0.0000E+00  0.0000E+00  0.0000E+00  0.0000E+00  0.0000E+00  0.0000E+00  0.0000E+00  0.0000E+00  0.0000E+00  0.0000E+00  0.0000E+00  0.0000E+00  0.0000E+00  0.0000E+00  0.0000E+00  0.0000E+00
    -40.240  0.0000E+00  0.0000E+00  0.0000E+00  0.0000E+00  0.0000E+00  0.0000E+00  0.0000E+00  0.0000E+00  0.0000E+00  0.0000E+00  0.0000E+00  0.0000E+00  0.0000E+00  0.0000E+00  0.0000E+00  0.0000E+00  0.0000E+00  0.0000E+00
    -40.030  0.0000E+00  0.0000E+00  0.0000E+00  0.0000E+00  0.0000E+00  0.0000E+00  0.0000E+00  0.0000E+00  0.0000E+00  0.0000E+00  0.0000E+00  0.0000E+00  0.0000E+00  0.0000E+00  0.0000E+00  0.0000E+00  0.0000E+00  0.0000E+00
    -39.820  0.0000E+00  0.0000E+00  0.0000E+00  0.0000E+00  0.0000E+00  0.0000E+00  0.0000E+00  0.0000E+00  0.0000E+00  0.0000E+00  0.0000E+00  0.0000E+00  0.0000E+00  0.0000E+00  0.0000E+00  0.0000E+00  0.0000E+00  0.0000E+00
    -39.609  0.0000E+00  0.0000E+00  0.0000E+00  0.0000E+00  0.0000E+00  0.0000E+00  0.0000E+00  0.0000E+00  0.0000E+00  0.0000E+00  0.0000E+00  0.0000E+00  0.0000E+00  0.0000E+00  0.0000E+00  0.0000E+00  0.0000E+00  0.0000E+00
    -39.399  0.0000E+00  0.1975E-11  0.0000E+00  0.7737E-03  0.0000E+00  0.6659E-03  0.0000E+00  0.7737E-03  0.0000E+00  0.1084E-12  0.0000E+00  0.5330E-13  0.0000E+00  0.6196E-12  0.0000E+00  0.5330E-13  0.0000E+00  0.1709E-11
    -39.189  0.0000E+00  0.1291E-09  0.0000E+00  0.5057E-01  0.0000E+00  0.4359E-01  0.0000E+00  0.5057E-01  0.0000E+00  0.7089E-11  0.0000E+00  0.3488E-11  0.0000E+00  0.4050E-10  0.0000E+00  0.3488E-11  0.0000E+00  0.1117E-09
    -38.979  0.0000E+00  0.4989E-08  0.0000E+00  0.1954E+01  0.0000E+00  0.1790E+01  0.0000E+00  0.1954E+01  0.0000E+00  0.2760E-09  0.0000E+00  0.1413E-09  0.0000E+00  0.1568E-08  0.0000E+00  0.1413E-09  0.0000E+00  0.4319E-08
    -38.768  0.0000E+00  0.6717E-08  0.0000E+00  0.2631E+01  0.0000E+00  0.2787E+01  0.0000E+00  0.2631E+01  0.0000E+00  0.3786E-09  0.0000E+00  0.2134E-09  0.0000E+00  0.2124E-08  0.0000E+00  0.2134E-09  0.0000E+00  0.5824E-08
    -38.558  0.0000E+00  0.3322E-12  0.0000E+00  0.4598E-06  0.0000E+00  0.1071E+00  0.0000E+00  0.4598E-06  0.0000E+00  0.1807E-11  0.0000E+00  0.6533E-11  0.0000E+00  0.3471E-11  0.0000E+00  0.6533E-11  0.0000E+00  0.1906E-11
    -38.348  0.0000E+00  0.0000E+00  0.0000E+00  0.0000E+00  0.0000E+00  0.0000E+00  0.0000E+00  0.0000E+00  0.0000E+00  0.0000E+00  0.0000E+00  0.0000E+00  0.0000E+00  0.0000E+00  0.0000E+00  0.0000E+00  0.0000E+00  0.0000E+00
    -38.137  0.0000E+00  0.0000E+00  0.0000E+00  0.0000E+00  0.0000E+00  0.0000E+00  0.0000E+00  0.0000E+00  0.0000E+00  0.0000E+00  0.0000E+00  0.0000E+00  0.0000E+00  0.0000E+00  0.0000E+00  0.0000E+00  0.0000E+00  0.0000E+00
    -37.927  0.0000E+00  0.0000E+00  0.0000E+00  0.0000E+00  0.0000E+00  0.0000E+00  0.0000E+00  0.0000E+00  0.0000E+00  0.0000E+00  0.0000E+00  0.0000E+00  0.0000E+00  0.0000E+00  0.0000E+00  0.0000E+00  0.0000E+00  0.0000E+00
    -37.717  0.0000E+00  0.0000E+00  0.0000E+00  0.0000E+00  0.0000E+00  0.0000E+00  0.0000E+00  0.0000E+00  0.0000E+00  0.0000E+00  0.0000E+00  0.0000E+00  0.0000E+00  0.0000E+00  0.0000E+00  0.0000E+00  0.0000E+00  0.0000E+00
    -37.507  0.0000E+00  0.0000E+00  0.0000E+00  0.0000E+00  0.0000E+00  0.0000E+00  0.0000E+00  0.0000E+00  0.0000E+00  0.0000E+00  0.0000E+00  0.0000E+00  0.0000E+00  0.0000E+00  0.0000E+00  0.0000E+00  0.0000E+00  0.0000E+00
    -37.296  0.0000E+00  0.0000E+00  0.0000E+00  0.0000E+00  0.0000E+00  0.0000E+00  0.0000E+00  0.0000E+00  0.0000E+00  0.0000E+00  0.0000E+00  0.0000E+00  0.0000E+00  0.0000E+00  0.0000E+00  0.0000E+00  0.0000E+00  0.0000E+00
    -37.086  0.0000E+00  0.0000E+00  0.0000E+00  0.0000E+00  0.0000E+00  0.0000E+00  0.0000E+00  0.0000E+00  0.0000E+00  0.0000E+00  0.0000E+00  0.0000E+00  0.0000E+00  0.0000E+00  0.0000E+00  0.0000E+00  0.0000E+00  0.0000E+00
    -36.876  0.0000E+00  0.0000E+00  0.0000E+00  0.0000E+00  0.0000E+00  0.0000E+00  0.0000E+00  0.0000E+00  0.0000E+00  0.0000E+00  0.0000E+00  0.0000E+00  0.0000E+00  0.0000E+00  0.0000E+00  0.0000E+00  0.0000E+00  0.0000E+00
    -36.665  0.0000E+00  0.0000E+00  0.0000E+00  0.0000E+00  0.0000E+00  0.0000E+00  0.0000E+00  0.0000E+00  0.0000E+00  0.0000E+00  0.0000E+00  0.0000E+00  0.0000E+00  0.0000E+00  0.0000E+00  0.0000E+00  0.0000E+00  0.0000E+00
    -36.455  0.0000E+00  0.0000E+00  0.0000E+00  0.0000E+00  0.0000E+00  0.0000E+00  0.0000E+00  0.0000E+00  0.0000E+00  0.0000E+00  0.0000E+00  0.0000E+00  0.0000E+00  0.0000E+00  0.0000E+00  0.0000E+00  0.0000E+00  0.0000E+00
    -36.245  0.0000E+00  0.0000E+00  0.0000E+00  0.0000E+00  0.0000E+00  0.0000E+00  0.0000E+00  0.0000E+00  0.0000E+00  0.0000E+00  0.0000E+00  0.0000E+00  0.0000E+00  0.0000E+00  0.0000E+00  0.0000E+00  0.0000E+00  0.0000E+00
    -36.034  0.0000E+00  0.0000E+00  0.0000E+00  0.0000E+00  0.0000E+00  0.0000E+00  0.0000E+00  0.0000E+00  0.0000E+00  0.0000E+00  0.0000E+00  0.0000E+00  0.0000E+00  0.0000E+00  0.0000E+00  0.0000E+00  0.0000E+00  0.0000E+00
    -35.824  0.0000E+00  0.0000E+00  0.0000E+00  0.0000E+00  0.0000E+00  0.0000E+00  0.0000E+00  0.0000E+00  0.0000E+00  0.0000E+00  0.0000E+00  0.0000E+00  0.0000E+00  0.0000E+00  0.0000E+00  0.0000E+00  0.0000E+00  0.0000E+00
    -35.614  0.0000E+00  0.0000E+00  0.0000E+00  0.0000E+00  0.0000E+00  0.0000E+00  0.0000E+00  0.0000E+00  0.0000E+00  0.0000E+00  0.0000E+00  0.0000E+00  0.0000E+00  0.0000E+00  0.0000E+00  0.0000E+00  0.0000E+00  0.0000E+00
    -35.404  0.0000E+00  0.0000E+00  0.0000E+00  0.0000E+00  0.0000E+00  0.0000E+00  0.0000E+00  0.0000E+00  0.0000E+00  0.0000E+00  0.0000E+00  0.0000E+00  0.0000E+00  0.0000E+00  0.0000E+00  0.0000E+00  0.0000E+00  0.0000E+00
    -35.193  0.0000E+00  0.0000E+00  0.0000E+00  0.0000E+00  0.0000E+00  0.0000E+00  0.0000E+00  0.0000E+00  0.0000E+00  0.0000E+00  0.0000E+00  0.0000E+00  0.0000E+00  0.0000E+00  0.0000E+00  0.0000E+00  0.0000E+00  0.0000E+00
    -34.983  0.0000E+00  0.0000E+00  0.0000E+00  0.0000E+00  0.0000E+00  0.0000E+00  0.0000E+00  0.0000E+00  0.0000E+00  0.0000E+00  0.0000E+00  0.0000E+00  0.0000E+00  0.0000E+00  0.0000E+00  0.0000E+00  0.0000E+00  0.0000E+00
    -34.773  0.0000E+00  0.0000E+00  0.0000E+00  0.0000E+00  0.0000E+00  0.0000E+00  0.0000E+00  0.0000E+00  0.0000E+00  0.0000E+00  0.0000E+00  0.0000E+00  0.0000E+00  0.0000E+00  0.0000E+00  0.0000E+00  0.0000E+00  0.0000E+00
    -34.562  0.0000E+00  0.0000E+00  0.0000E+00  0.0000E+00  0.0000E+00  0.0000E+00  0.0000E+00  0.0000E+00  0.0000E+00  0.0000E+00  0.0000E+00  0.0000E+00  0.0000E+00  0.0000E+00  0.0000E+00  0.0000E+00  0.0000E+00  0.0000E+00
    -34.352  0.0000E+00  0.0000E+00  0.0000E+00  0.0000E+00  0.0000E+00  0.0000E+00  0.0000E+00  0.0000E+00  0.0000E+00  0.0000E+00  0.0000E+00  0.0000E+00  0.0000E+00  0.0000E+00  0.0000E+00  0.0000E+00  0.0000E+00  0.0000E+00