   8   8   1   0
  0.1499379E+02  0.3854456E-09  0.3854456E-09  0.8073750E-09  0.5000000E-15
  1.000000000000000E-004
  CAR 
 unknown system                          
     20.14644905    -43.24773025  301      8.59432326      1.00000000
    -43.248  0.0000E+00  0.0000E+00  0.0000E+00  0.0000E+00
    -43.036  0.0000E+00  0.0000E+00  0.0000E+00  0.0000E+00
    -42.825  0.0000E+00  0.0000E+00  0.0000E+00  0.0000E+00
    -42.614  0.0000E+00  0.0000E+00  0.0000E+00  0.0000E+00
    -42.402  0.0000E+00  0.0000E+00  0.0000E+00  0.0000E+00
    -42.191  0.0000E+00  0.0000E+00  0.0000E+00  0.0000E+00
    -41.980  0.0000E+00  0.0000E+00  0.0000E+00  0.0000E+00
    -41.769  0.0000E+00  0.0000E+00  0.0000E+00  0.0000E+00
    -41.557  0.0000E+00  0.0000E+00  0.0000E+00  0.0000E+00
    -41.346  0.0000E+00  0.0000E+00  0.0000E+00  0.0000E+00
    -41.135  0.0000E+00  0.0000E+00  0.0000E+00  0.0000E+00
    -40.923  0.2666E-03  0.0000E+00  0.5633E-04  0.0000E+00
    -40.712  0.1837E-01  0.0000E+00  0.3938E-02  0.0000E+00
    -40.501  0.1181E+01  0.0000E+00  0.2535E+00  0.0000E+00
    -40.289  0.1587E+02  0.0000E+00  0.3608E+01  0.0000E+00
    -40.078  0.1061E+02  0.0000E+00  0.5851E+01  0.0000E+00
    -39.867  0.6359E+00  0.0000E+00  0.5998E+01  0.0000E+00
    -39.655  0.0000E+00  0.0000E+00  0.6000E+01  0.0000E+00
    -39.444  0.0000E+00  0.0000E+00  0.6000E+01  0.0000E+00
    -39.233  0.0000E+00  0.0000E+00  0.6000E+01  0.0000E+00
    -39.021  0.0000E+00  0.0000E+00  0.6000E+01  0.0000E+00
    -38.810  0.0000E+00  0.0000E+00  0.6000E+01  0.0000E+00
    -38.599  0.0000E+00  0.7663E-02  0.6000E+01  0.1619E-02
    -38.388  0.0000E+00  0.5071E+00  0.6000E+01  0.1088E+00
    -38.176  0.0000E+00  0.1513E+02  0.6000E+01  0.3306E+01
    -37.965  0.0000E+00  0.1241E+02  0.6000E+01  0.5927E+01
    -37.754  0.0000E+00  0.0000E+00  0.6000E+01  0.6000E+01
    -37.542  0.0000E+00  0.0000E+00  0.6000E+01  0.6000E+01
    -37.331  0.0000E+00  0.0000E+00  0.6000E+01  0.6000E+01
    -37.120  0.0000E+00  0.0000E+00  0.6000E+01  0.6000E+01
    -36.908  0.0000E+00  0.0000E+00  0.6000E+01  0.6000E+01
    -36.697  0.0000E+00  0.0000E+00  0.6000E+01  0.6000E+01
    -36.486  0.0000E+00  0.0000E+00  0.6000E+01  0.6000E+01
    -36.274  0.0000E+00  0.0000E+00  0.6000E+01  0.6000E+01
    -36.063  0.0000E+00  0.0000E+00  0.6000E+01  0.6000E+01
    -35.852  0.0000E+00  0.0000E+00  0.6000E+01  0.6000E+01
    -35.640  0.0000E+00  0.0000E+00  0.6000E+01  0.6000E+01
    -35.429  0.0000E+00  0.0000E+00  0.6000E+01  0.6000E+01
    -35.218  0.0000E+00  0.0000E+00  0.6000E+01  0.6000E+01
    -35.006  0.0000E+00  0.0000E+00  0.6000E+01  0.6000E+01
    -34.795  0.0000E+00  0.0000E+00  0.6000E+01  0.6000E+01
    -34.584  0.0000E+00  0.0000E+00  0.6000E+01  0.6000E+01
    -34.373  0.0000E+00  0.0000E+00  0.6000E+01  0.6000E+01
    -34.161  0.0000E+00  0.0000E+00  0.6000E+01  0.6000E+01
    -33.950  0.0000E+00  0.0000E+00  0.6000E+01  0.6000E+01
    -33.739  0.0000E+00  0.0000E+00  0.6000E+01  0.6000E+01
    -33.527  0.0000E+00  0.0000E+00  0.6000E+01  0.6000E+01
    -33.316  0.0000E+00  0.0000E+00  0.6000E+01  0.6000E+01
    -33.105  0.0000E+00  0.0000E+00  0.6000E+01  0.6000E+01
    -32.893  0.0000E+00  0.0000E+00  0.6000E+01  0.6000E+01
    -32.682  0.0000E+00  0.0000E+00  0.6000E+01  0.6000E+01
    -32.471  0.0000E+00  0.0000E+00  0.6000E+01  0.6000E+01
    -32.259  0.0000E+00  0.0000E+00  0.6000E+01  0.6000E+01
    -32.048  0.0000E+00  0.0000E+00  0.6000E+01  0.6000E+01
    -31.837  0.0000E+00  0.0000E+00  0.6000E+01  0.6000E+01
    -31.625  0.0000E+00  0.0000E+00  0.6000E+01  0.6000E+01
    -31.414  0.0000E+00  0.0000E+00  0.6000E+01  0.6000E+01
    -31.203  0.0000E+00  0.0000E+00  0.6000E+01  0.6000E+01
    -30.992  0.0000E+00  0.0000E+00  0.6000E+01  0.6000E+01
    -30.780  0.0000E+00  0.0000E+00  0.6000E+01  0.6000E+01
    -30.569  0.0000E+00  0.0000E+00  0.6000E+01  0.6000E+01
    -30.358  0.0000E+00  0.0000E+00  0.6000E+01  0.6000E+01
    -30.146  0.0000E+00  0.0000E+00  0.6000E+01  0.6000E+01
    -29.935  0.0000E+00  0.0000E+00  0.6000E+01  0.6000E+01
    -29.724  0.0000E+00  0.0000E+00  0.6000E+01  0.6000E+01
    -29.512  0.0000E+00  0.0000E+00  0.6000E+01  0.6000E+01
    -29.301  0.0000E+00  0.0000E+00  0.6000E+01  0.6000E+01
    -29.090  0.0000E+00  0.0000E+00  0.6000E+01  0.6000E+01
    -28.878  0.0000E+00  0.0000E+00  0.6000E+01  0.6000E+01
    -28.667  0.0000E+00  0.0000E+00  0.6000E+01  0.6000E+01
    -28.456  0.0000E+00  0.0000E+00  0.6000E+01  0.6000E+01
    -28.244  0.0000E+00  0.0000E+00  0.6000E+01  0.6000E+01
    -28.033  0.0000E+00  0.0000E+00  0.6000E+01  0.6000E+01
    -27.822  0.0000E+00  0.0000E+00  0.6000E+01  0.6000E+01
    -27.610  0.0000E+00  0.0000E+00  0.6000E+01  0.6000E+01
    -27.399  0.0000E+00  0.0000E+00  0.6000E+01  0.6000E+01
    -27.188  0.0000E+00  0.0000E+00  0.6000E+01  0.6000E+01
    -26.977  0.0000E+00  0.0000E+00  0.6000E+01  0.6000E+01
    -26.765  0.0000E+00  0.0000E+00  0.6000E+01  0.6000E+01
    -26.554  0.0000E+00  0.0000E+00  0.6000E+01  0.6000E+01
    -26.343  0.0000E+00  0.0000E+00  0.6000E+01  0.6000E+01
    -26.131  0.0000E+00  0.0000E+00  0.6000E+01  0.6000E+01
    -25.920  0.0000E+00  0.0000E+00  0.6000E+01  0.6000E+01
    -25.709  0.0000E+00  0.0000E+00  0.6000E+01  0.6000E+01
    -25.497  0.0000E+00  0.0000E+00  0.6000E+01  0.6000E+01
    -25.286  0.0000E+00  0.0000E+00  0.6000E+01  0.6000E+01
    -25.075  0.0000E+00  0.0000E+00  0.6000E+01  0.6000E+01
    -24.863  0.0000E+00  0.0000E+00  0.6000E+01  0.6000E+01
    -24.652  0.0000E+00  0.0000E+00  0.6000E+01  0.6000E+01
    -24.441  0.0000E+00  0.0000E+00  0.6000E+01  0.6000E+01
    -24.229  0.0000E+00  0.0000E+00  0.6000E+01  0.6000E+01
    -24.018  0.0000E+00  0.0000E+00  0.6000E+01  0.6000E+01
    -23.807  0.0000E+00  0.0000E+00  0.6000E+01  0.6000E+01
    -23.596  0.0000E+00  0.0000E+00  0.6000E+01  0.6000E+01
    -23.384  0.0000E+00  0.0000E+00  0.6000E+01  0.6000E+01
    -23.173  0.0000E+00  0.0000E+00  0.6000E+01  0.6000E+01
    -22.962  0.0000E+00  0.0000E+00  0.6000E+01  0.6000E+01
    -22.750  0.0000E+00  0.0000E+00  0.6000E+01  0.6000E+01
    -22.539  0.0000E+00  0.0000E+00  0.6000E+01  0.6000E+01
    -22.328  0.0000E+00  0.0000E+00  0.6000E+01  0.6000E+01
    -22.116  0.0000E+00  0.0000E+00  0.6000E+01  0.6000E+01
    -21.905  0.0000E+00  0.0000E+00  0.6000E+01  0.6000E+01
    -21.694  0.0000E+00  0.0000E+00  0.6000E+01  0.6000E+01
    -21.482  0.0000E+00  0.0000E+00  0.6000E+01  0.6000E+01
    -21.271  0.0000E+00  0.0000E+00  0.6000E+01  0.6000E+01
    -21.060  0.0000E+00  0.0000E+00  0.6000E+01  0.6000E+01
    -20.848  0.0000E+00  0.0000E+00  0.6000E+01  0.6000E+01
    -20.637  0.0000E+00  0.0000E+00  0.6000E+01  0.6000E+01
    -20.426  0.0000E+00  0.0000E+00  0.6000E+01  0.6000E+01
    -20.215  0.0000E+00  0.0000E+00  0.6000E+01  0.6000E+01
    -20.003  0.0000E+00  0.0000E+00  0.6000E+01  0.6000E+01
    -19.792  0.0000E+00  0.0000E+00  0.6000E+01  0.6000E+01
    -19.581  0.0000E+00  0.0000E+00  0.6000E+01  0.6000E+01
    -19.369  0.0000E+00  0.0000E+00  0.6000E+01  0.6000E+01
    -19.158  0.0000E+00  0.0000E+00  0.6000E+01  0.6000E+01
    -18.947  0.0000E+00  0.0000E+00  0.6000E+01  0.6000E+01
    -18.735  0.0000E+00  0.0000E+00  0.6000E+01  0.6000E+01
    -18.524  0.0000E+00  0.0000E+00  0.6000E+01  0.6000E+01
    -18.313  0.0000E+00  0.0000E+00  0.6000E+01  0.6000E+01
    -18.101  0.0000E+00  0.0000E+00  0.6000E+01  0.6000E+01
    -17.890  0.0000E+00  0.0000E+00  0.6000E+01  0.6000E+01
    -17.679  0.0000E+00  0.0000E+00  0.6000E+01  0.6000E+01
    -17.467  0.0000E+00  0.0000E+00  0.6000E+01  0.6000E+01
    -17.256  0.0000E+00  0.0000E+00  0.6000E+01  0.6000E+01
    -17.045  0.0000E+00  0.0000E+00  0.6000E+01  0.6000E+01
    -16.833  0.0000E+00  0.0000E+00  0.6000E+01  0.6000E+01
    -16.622  0.0000E+00  0.0000E+00  0.6000E+01  0.6000E+01
    -16.411  0.0000E+00  0.0000E+00  0.6000E+01  0.6000E+01
    -16.200  0.0000E+00  0.0000E+00  0.6000E+01  0.6000E+01
    -15.988  0.0000E+00  0.0000E+00  0.6000E+01  0.6000E+01
    -15.777  0.0000E+00  0.0000E+00  0.6000E+01  0.6000E+01
    -15.566  0.0000E+00  0.0000E+00  0.6000E+01  0.6000E+01
    -15.354  0.0000E+00  0.0000E+00  0.6000E+01  0.6000E+01
    -15.143  0.0000E+00  0.0000E+00  0.6000E+01  0.6000E+01
    -14.932  0.0000E+00  0.0000E+00  0.6000E+01  0.6000E+01
    -14.720  0.0000E+00  0.0000E+00  0.6000E+01  0.6000E+01
    -14.509  0.0000E+00  0.0000E+00  0.6000E+01  0.6000E+01
    -14.298  0.0000E+00  0.0000E+00  0.6000E+01  0.6000E+01
    -14.086  0.0000E+00  0.0000E+00  0.6000E+01  0.6000E+01
    -13.875  0.0000E+00  0.0000E+00  0.6000E+01  0.6000E+01
    -13.664  0.0000E+00  0.0000E+00  0.6000E+01  0.6000E+01
    -13.452  0.0000E+00  0.0000E+00  0.6000E+01  0.6000E+01
    -13.241  0.0000E+00  0.0000E+00  0.6000E+01  0.6000E+01
    -13.030  0.0000E+00  0.0000E+00  0.6000E+01  0.6000E+01
    -12.819  0.0000E+00  0.0000E+00  0.6000E+01  0.6000E+01
    -12.607  0.0000E+00  0.0000E+00  0.6000E+01  0.6000E+01
    -12.396  0.0000E+00  0.0000E+00  0.6000E+01  0.6000E+01
    -12.185  0.0000E+00  0.0000E+00  0.6000E+01  0.6000E+01
    -11.973  0.0000E+00  0.0000E+00  0.6000E+01  0.6000E+01
    -11.762  0.0000E+00  0.0000E+00  0.6000E+01  0.6000E+01
    -11.551  0.0000E+00  0.0000E+00  0.6000E+01  0.6000E+01
    -11.339  0.0000E+00  0.0000E+00  0.6000E+01  0.6000E+01
    -11.128  0.0000E+00  0.0000E+00  0.6000E+01  0.6000E+01
    -10.917  0.0000E+00  0.0000E+00  0.6000E+01  0.6000E+01
    -10.705  0.0000E+00  0.0000E+00  0.6000E+01  0.6000E+01
    -10.494  0.0000E+00  0.0000E+00  0.6000E+01  0.6000E+01
    -10.283  0.0000E+00  0.0000E+00  0.6000E+01  0.6000E+01
    -10.071  0.0000E+00  0.0000E+00  0.6000E+01  0.6000E+01
     -9.860  0.0000E+00  0.0000E+00  0.6000E+01  0.6000E+01
     -9.649  0.0000E+00  0.0000E+00  0.6000E+01  0.6000E+01
     -9.438  0.0000E+00  0.0000E+00  0.6000E+01  0.6000E+01
     -9.226  0.0000E+00  0.0000E+00  0.6000E+01  0.6000E+01
     -9.015  0.0000E+00  0.0000E+00  0.6000E+01  0.6000E+01
     -8.804  0.0000E+00  0.0000E+00  0.6000E+01  0.6000E+01
     -8.592  0.0000E+00  0.0000E+00  0.6000E+01  0.6000E+01
     -8.381  0.0000E+00  0.0000E+00  0.6000E+01  0.6000E+01
     -8.170  0.0000E+00  0.0000E+00  0.6000E+01  0.6000E+01
     -7.958  0.0000E+00  0.0000E+00  0.6000E+01  0.6000E+01
     -7.747  0.0000E+00  0.0000E+00  0.6000E+01  0.6000E+01
     -7.536  0.0000E+00  0.0000E+00  0.6000E+01  0.6000E+01
     -7.324  0.0000E+00  0.0000E+00  0.6000E+01  0.6000E+01
     -7.113  0.0000E+00  0.0000E+00  0.6000E+01  0.6000E+01
     -6.902  0.0000E+00  0.0000E+00  0.6000E+01  0.6000E+01
     -6.690  0.0000E+00  0.0000E+00  0.6000E+01  0.6000E+01
     -6.479  0.0000E+00  0.0000E+00  0.6000E+01  0.6000E+01
     -6.268  0.0000E+00  0.0000E+00  0.6000E+01  0.6000E+01
     -6.056  0.0000E+00  0.0000E+00  0.6000E+01  0.6000E+01
     -5.845  0.0000E+00  0.0000E+00  0.6000E+01  0.6000E+01
     -5.634  0.0000E+00  0.0000E+00  0.6000E+01  0.6000E+01
     -5.423  0.0000E+00  0.0000E+00  0.6000E+01  0.6000E+01
     -5.211  0.0000E+00  0.0000E+00  0.6000E+01  0.6000E+01
     -5.000  0.0000E+00  0.0000E+00  0.6000E+01  0.6000E+01
     -4.789  0.0000E+00  0.0000E+00  0.6000E+01  0.6000E+01
     -4.577  0.0000E+00  0.0000E+00  0.6000E+01  0.6000E+01
     -4.366  0.0000E+00  0.0000E+00  0.6000E+01  0.6000E+01
     -4.155  0.0000E+00  0.0000E+00  0.6000E+01  0.6000E+01
     -3.943  0.0000E+00  0.0000E+00  0.6000E+01  0.6000E+01
     -3.732  0.0000E+00  0.0000E+00  0.6000E+01  0.6000E+01
     -3.521  0.0000E+00  0.0000E+00  0.6000E+01  0.6000E+01
     -3.309  0.0000E+00  0.0000E+00  0.6000E+01  0.6000E+01
     -3.098  0.0000E+00  0.0000E+00  0.6000E+01  0.6000E+01
     -2.887  0.4159E-06  0.7924E-06  0.6000E+01  0.6000E+01
     -2.675  0.4534E-04  0.6537E-04  0.6000E+01  0.6000E+01
     -2.464  0.2928E-02  0.4140E-02  0.6001E+01  0.6001E+01
     -2.253  0.6446E-01  0.7547E-01  0.6014E+01  0.6017E+01
     -2.042  0.1938E+00  0.2039E+00  0.6055E+01  0.6060E+01
     -1.830  0.2686E+00  0.2770E+00  0.6112E+01  0.6119E+01
     -1.619  0.3449E+00  0.3532E+00  0.6185E+01  0.6193E+01
     -1.408  0.3738E+00  0.3841E+00  0.6265E+01  0.6275E+01
     -1.196  0.4608E+00  0.4695E+00  0.6363E+01  0.6375E+01
     -0.985  0.4729E+00  0.4716E+00  0.6463E+01  0.6475E+01
     -0.774  0.5354E+00  0.5579E+00  0.6577E+01  0.6594E+01
     -0.562  0.6123E+00  0.6190E+00  0.6707E+01  0.6725E+01
     -0.351  0.5916E+00  0.5979E+00  0.6832E+01  0.6852E+01
     -0.140  0.7187E+00  0.7257E+00  0.6985E+01  0.7006E+01
      0.072  0.6696E+00  0.6740E+00  0.7127E+01  0.7149E+01
      0.283  0.7154E+00  0.7057E+00  0.7279E+01  0.7299E+01
      0.494  0.7090E+00  0.7188E+00  0.7429E+01  0.7451E+01
      0.706  0.8683E+00  0.8164E+00  0.7613E+01  0.7624E+01
      0.917  0.6851E+00  0.6585E+00  0.7759E+01  0.7765E+01
      1.128  0.8241E+00  0.8006E+00  0.7934E+01  0.7934E+01
      1.340  0.9250E+00  0.9348E+00  0.8130E+01  0.8133E+01
      1.551  0.9739E+00  0.9386E+00  0.8337E+01  0.8332E+01
      1.762  0.9739E+00  0.9631E+00  0.8544E+01  0.8537E+01
      1.973  0.8893E+00  0.8659E+00  0.8733E+01  0.8720E+01
      2.185  0.8538E+00  0.8328E+00  0.8914E+01  0.8897E+01
      2.396  0.9003E+00  0.8272E+00  0.9106E+01  0.9073E+01
      2.607  0.9752E+00  0.9493E+00  0.9312E+01  0.9274E+01
      2.819  0.1098E+01  0.1019E+01  0.9545E+01  0.9491E+01
      3.030  0.1177E+01  0.1137E+01  0.9794E+01  0.9732E+01
      3.241  0.1161E+01  0.1105E+01  0.1004E+02  0.9967E+01
      3.453  0.1222E+01  0.1057E+01  0.1030E+02  0.1019E+02
      3.664  0.1317E+01  0.1231E+01  0.1058E+02  0.1045E+02
      3.875  0.1221E+01  0.1153E+01  0.1084E+02  0.1070E+02
      4.087  0.1303E+01  0.1106E+01  0.1112E+02  0.1093E+02
      4.298  0.1523E+01  0.1195E+01  0.1144E+02  0.1119E+02
      4.509  0.1462E+01  0.1449E+01  0.1175E+02  0.1149E+02
      4.721  0.1578E+01  0.1255E+01  0.1209E+02  0.1176E+02
      4.932  0.1694E+01  0.1441E+01  0.1244E+02  0.1207E+02
      5.143  0.1674E+01  0.1512E+01  0.1280E+02  0.1239E+02
      5.354  0.1948E+01  0.1298E+01  0.1321E+02  0.1267E+02
      5.566  0.2349E+01  0.1435E+01  0.1371E+02  0.1297E+02
      5.777  0.3094E+01  0.1591E+01  0.1437E+02  0.1331E+02
      5.988  0.4166E+01  0.1880E+01  0.1525E+02  0.1371E+02
      6.200  0.4617E+01  0.1881E+01  0.1623E+02  0.1411E+02
      6.411  0.4416E+01  0.2241E+01  0.1717E+02  0.1458E+02
      6.622  0.5824E+01  0.2273E+01  0.1841E+02  0.1506E+02
      6.834  0.5596E+01  0.3112E+01  0.1959E+02  0.1572E+02
      7.045  0.4401E+01  0.2694E+01  0.2053E+02  0.1630E+02
      7.256  0.4366E+01  0.2888E+01  0.2146E+02  0.1691E+02
      7.468  0.2531E+01  0.2830E+01  0.2201E+02  0.1751E+02
      7.679  0.2214E+01  0.3187E+01  0.2248E+02  0.1819E+02
      7.890  0.1563E+01  0.3639E+01  0.2281E+02  0.1896E+02
      8.102  0.1450E+01  0.3035E+01  0.2312E+02  0.1961E+02
      8.313  0.1380E+01  0.1727E+01  0.2341E+02  0.1997E+02
      8.524  0.1578E+01  0.5299E+00  0.2375E+02  0.2009E+02
      8.735  0.1987E+01  0.6859E+00  0.2417E+02  0.2024E+02
      8.947  0.2888E+01  0.1647E+01  0.2478E+02  0.2058E+02
      9.158  0.2391E+01  0.3798E+01  0.2529E+02  0.2139E+02
      9.369  0.2058E+01  0.7348E+01  0.2573E+02  0.2294E+02
      9.581  0.1830E+01  0.4737E+01  0.2612E+02  0.2395E+02
      9.792  0.1460E+01  0.2650E+01  0.2643E+02  0.2452E+02
     10.003  0.1877E+01  0.3466E+01  0.2683E+02  0.2525E+02
     10.215  0.1635E+01  0.3016E+01  0.2717E+02  0.2589E+02
     10.426  0.1812E+01  0.2053E+01  0.2756E+02  0.2633E+02
     10.637  0.1890E+01  0.2038E+01  0.2796E+02  0.2676E+02
     10.849  0.1960E+01  0.2188E+01  0.2838E+02  0.2723E+02
     11.060  0.2172E+01  0.2152E+01  0.2884E+02  0.2769E+02
     11.271  0.1452E+01  0.2334E+01  0.2915E+02  0.2818E+02
     11.483  0.1615E+01  0.2421E+01  0.2949E+02  0.2870E+02
     11.694  0.1946E+01  0.2257E+01  0.2990E+02  0.2918E+02
     11.905  0.1870E+01  0.2194E+01  0.3030E+02  0.2964E+02
     12.117  0.1903E+01  0.2153E+01  0.3070E+02  0.3010E+02
     12.328  0.1435E+01  0.2065E+01  0.3101E+02  0.3054E+02
     12.539  0.1537E+01  0.1622E+01  0.3134E+02  0.3088E+02
     12.750  0.1675E+01  0.1583E+01  0.3169E+02  0.3122E+02
     12.962  0.1534E+01  0.1835E+01  0.3202E+02  0.3161E+02
     13.173  0.1881E+01  0.1490E+01  0.3242E+02  0.3192E+02
     13.384  0.1994E+01  0.1887E+01  0.3284E+02  0.3233E+02
     13.596  0.2025E+01  0.2154E+01  0.3327E+02  0.3278E+02
     13.807  0.1943E+01  0.2317E+01  0.3368E+02  0.3327E+02
     14.018  0.1860E+01  0.2113E+01  0.3408E+02  0.3372E+02
     14.230  0.1925E+01  0.2009E+01  0.3449E+02  0.3415E+02
     14.441  0.1653E+01  0.2212E+01  0.3484E+02  0.3462E+02
     14.652  0.1345E+01  0.1580E+01  0.3512E+02  0.3495E+02
     14.864  0.1075E+01  0.1271E+01  0.3535E+02  0.3523E+02
     15.075  0.8162E+00  0.1147E+01  0.3553E+02  0.3547E+02
     15.286  0.5126E+00  0.5784E+00  0.3564E+02  0.3559E+02
     15.498  0.3762E+00  0.4117E+00  0.3572E+02  0.3568E+02
     15.709  0.2595E+00  0.3433E+00  0.3577E+02  0.3575E+02
     15.920  0.2548E+00  0.2001E+00  0.3583E+02  0.3580E+02
     16.131  0.2018E+00  0.2958E+00  0.3587E+02  0.3586E+02
     16.343  0.2635E+00  0.2698E+00  0.3593E+02  0.3592E+02
     16.554  0.1277E+00  0.1522E+00  0.3595E+02  0.3595E+02
     16.765  0.1093E+00  0.1425E+00  0.3598E+02  0.3598E+02
     16.977  0.7366E-01  0.5589E-01  0.3599E+02  0.3599E+02
     17.188  0.3206E-01  0.9624E-02  0.3600E+02  0.3599E+02
     17.399  0.4629E-02  0.2430E-01  0.3600E+02  0.3600E+02
     17.611  0.0000E+00  0.2004E-02  0.3600E+02  0.3600E+02
     17.822  0.0000E+00  0.0000E+00  0.3600E+02  0.3600E+02
     18.033  0.0000E+00  0.0000E+00  0.3600E+02  0.3600E+02
     18.245  0.0000E+00  0.0000E+00  0.3600E+02  0.3600E+02
     18.456  0.0000E+00  0.0000E+00  0.3600E+02  0.3600E+02
     18.667  0.0000E+00  0.0000E+00  0.3600E+02  0.3600E+02
     18.879  0.0000E+00  0.0000E+00  0.3600E+02  0.3600E+02
     19.090  0.0000E+00  0.0000E+00  0.3600E+02  0.3600E+02
     19.301  0.0000E+00  0.0000E+00  0.3600E+02  0.3600E+02
     19.513  0.0000E+00  0.0000E+00  0.3600E+02  0.3600E+02
     19.724  0.0000E+00  0.0000E+00  0.3600E+02  0.3600E+02
     19.935  0.0000E+00  0.0000E+00  0.3600E+02  0.3600E+02
     20.146  0.0000E+00  0.0000E+00  0.3600E+02  0.3600E+02
     20.14644905    -43.24773025  301      8.59432326      1.00000000
    -43.248  0.0000E+00  0.0000E+00  0.0000E+00  0.0000E+00  0.0000E+00  0.0000E+00  0.0000E+00  0.0000E+00  0.0000E+00  0.0000E+00  0.0000E+00  0.0000E+00  0.0000E+00  0.0000E+00  0.0000E+00  0.0000E+00  0.0000E+00  0.0000E+00
    -43.036  0.0000E+00  0.0000E+00  0.0000E+00  0.0000E+00  0.0000E+00  0.0000E+00  0.0000E+00  0.0000E+00  0.0000E+00  0.0000E+00  0.0000E+00  0.0000E+00  0.0000E+00  0.0000E+00  0.0000E+00  0.0000E+00  0.0000E+00  0.0000E+00
    -42.825  0.0000E+00  0.0000E+00  0.0000E+00  0.0000E+00  0.0000E+00  0.0000E+00  0.0000E+00  0.0000E+00  0.0000E+00  0.0000E+00  0.0000E+00  0.0000E+00  0.0000E+00  0.0000E+00  0.0000E+00  0.0000E+00  0.0000E+00  0.0000E+00
    -42.614  0.0000E+00  0.0000E+00  0.0000E+00  0.0000E+00  0.0000E+00  0.0000E+00  0.0000E+00  0.0000E+00  0.0000E+00  0.0000E+00  0.0000E+00  0.0000E+00  0.0000E+00  0.0000E+00  0.0000E+00  0.0000E+00  0.0000E+00  0.0000E+00
    -42.402  0.0000E+00  0.0000E+00  0.0000E+00  0.0000E+00  0.0000E+00  0.0000E+00  0.0000E+00  0.0000E+00  0.0000E+00  0.0000E+00  0.0000E+00  0.0000E+00  0.0000E+00  0.0000E+00  0.0000E+00  0.0000E+00  0.0000E+00  0.0000E+00
    -42.191  0.0000E+00  0.0000E+00  0.0000E+00  0.0000E+00  0.0000E+00  0.0000E+00  0.0000E+00  0.0000E+00  0.0000E+00  0.0000E+00  0.0000E+00  0.0000E+00  0.0000E+00  0.0000E+00  0.0000E+00  0.0000E+00  0.0000E+00  0.0000E+00
    -41.980  0.0000E+00  0.0000E+00  0.0000E+00  0.0000E+00  0.0000E+00  0.0000E+00  0.0000E+00  0.0000E+00  0.0000E+00  0.0000E+00  0.0000E+00  0.0000E+00  0.0000E+00  0.0000E+00  0.0000E+00  0.0000E+00  0.0000E+00  0.0000E+00
    -41.769  0.0000E+00  0.0000E+00  0.0000E+00  0.0000E+00  0.0000E+00  0.0000E+00  0.0000E+00  0.0000E+00  0.0000E+00  0.0000E+00  0.0000E+00  0.0000E+00  0.0000E+00  0.0000E+00  0.0000E+00  0.0000E+00  0.0000E+00  0.0000E+00
    -41.557  0.0000E+00  0.0000E+00  0.0000E+00  0.0000E+00  0.0000E+00  0.0000E+00  0.0000E+00  0.0000E+00  0.0000E+00  0.0000E+00  0.0000E+00  0.0000E+00  0.0000E+00  0.0000E+00  0.0000E+00  0.0000E+00  0.0000E+00  0.0000E+00
    -41.346  0.0000E+00  0.0000E+00  0.0000E+00  0.0000E+00  0.0000E+00  0.0000E+00  0.0000E+00  0.0000E+00  0.0000E+00  0.0000E+00  0.0000E+00  0.0000E+00  0.0000E+00  0.0000E+00  0.0000E+00  0.0000E+00  0.0000E+00  0.0000E+00
    -41.135  0.0000E+00  0.0000E+00  0.0000E+00  0.0000E+00  0.0000E+00  0.0000E+00  0.0000E+00  0.0000E+00  0.0000E+00  0.0000E+00  0.0000E+00  0.0000E+00  0.0000E+00  0.0000E+00  0.0000E+00  0.0000E+00  0.0000E+00  0.0000E+00
    -40.923  0.3719E-12  0.0000E+00  0.6626E-04  0.0000E+00  0.3288E-11  0.0000E+00  0.6626E-04  0.0000E+00  0.1813E-13  0.0000E+00  0.2231E-14  0.0000E+00  0.1687E-12  0.0000E+00  0.2231E-14  0.0000E+00  0.4867E-12  0.0000E+00
    -40.712  0.2507E-10  0.0000E+00  0.4466E-02  0.0000E+00  0.2001E-03  0.0000E+00  0.4466E-02  0.0000E+00  0.1223E-11  0.0000E+00  0.1687E-12  0.0000E+00  0.1137E-10  0.0000E+00  0.1687E-12  0.0000E+00  0.3281E-10  0.0000E+00
    -40.501  0.1610E-08  0.0000E+00  0.2868E+00  0.0000E+00  0.1346E-01  0.0000E+00  0.2868E+00  0.0000E+00  0.7855E-10  0.0000E+00  0.1090E-10  0.0000E+00  0.7301E-09  0.0000E+00  0.1090E-10  0.0000E+00  0.2107E-08  0.0000E+00
    -40.289  0.2000E-07  0.0000E+00  0.3561E+01  0.0000E+00  0.7684E+00  0.0000E+00  0.3561E+01  0.0000E+00  0.9827E-09  0.0000E+00  0.1914E-09  0.0000E+00  0.9065E-08  0.0000E+00  0.1914E-09  0.0000E+00  0.2615E-07  0.0000E+00
    -40.078  0.4781E-08  0.0000E+00  0.8375E+00  0.0000E+00  0.3601E+01  0.0000E+00  0.8375E+00  0.0000E+00  0.2449E-09  0.0000E+00  0.3591E-09  0.0000E+00  0.2170E-08  0.0000E+00  0.3591E-09  0.0000E+00  0.6150E-08  0.0000E+00
    -39.867  0.7497E-11  0.0000E+00  0.8058E-08  0.0000E+00  0.3161E+00  0.0000E+00  0.8058E-08  0.0000E+00  0.1138E-11  0.0000E+00  0.2900E-10  0.0000E+00  0.3781E-11  0.0000E+00  0.2900E-10  0.0000E+00  0.2980E-12  0.0000E+00
    -39.655  0.0000E+00  0.0000E+00  0.0000E+00  0.0000E+00  0.0000E+00  0.0000E+00  0.0000E+00  0.0000E+00  0.0000E+00  0.0000E+00  0.0000E+00  0.0000E+00  0.0000E+00  0.0000E+00  0.0000E+00  0.0000E+00  0.0000E+00  0.0000E+00
    -39.444  0.0000E+00  0.0000E+00  0.0000E+00  0.0000E+00  0.0000E+00  0.0000E+00  0.0000E+00  0.0000E+00  0.0000E+00  0.0000E+00  0.0000E+00  0.0000E+00  0.0000E+00  0.0000E+00  0.0000E+00  0.0000E+00  0.0000E+00  0.0000E+00
    -39.233  0.0000E+00  0.0000E+00  0.0000E+00  0.0000E+00  0.0000E+00  0.0000E+00  0.0000E+00  0.0000E+00  0.0000E+00  0.0000E+00  0.0000E+00  0.0000E+00  0.0000E+00  0.0000E+00  0.0000E+00  0.0000E+00  0.0000E+00  0.0000E+00
    -39.021  0.0000E+00  0.0000E+00  0.0000E+00  0.0000E+00  0.0000E+00  0.0000E+00  0.0000E+00  0.0000E+00  0.0000E+00  0.0000E+00  0.0000E+00  0.0000E+00  0.0000E+00  0.0000E+00  0.0000E+00  0.0000E+00  0.0000E+00  0.0000E+00
    -38.810  0.0000E+00  0.0000E+00  0.0000E+00  0.0000E+00  0.0000E+00  0.0000E+00  0.0000E+00  0.0000E+00  0.0000E+00  0.0000E+00  0.0000E+00  0.0000E+00  0.0000E+00  0.0000E+00  0.0000E+00  0.0000E+00  0.0000E+00  0.0000E+00
    -38.599  0.0000E+00  0.1099E-10  0.0000E+00  0.1468E-02  0.0000E+00  0.8729E-03  0.0000E+00  0.1468E-02  0.0000E+00  0.3930E-12  0.0000E+00  0.1418E-12  0.0000E+00  0.3929E-11  0.0000E+00  0.1418E-12  0.0000E+00  0.1150E-10
    -38.388  0.0000E+00  0.7260E-09  0.0000E+00  0.9698E-01  0.0000E+00  0.5815E-01  0.0000E+00  0.9698E-01  0.0000E+00  0.2596E-10  0.0000E+00  0.9439E-11  0.0000E+00  0.2595E-09  0.0000E+00  0.9439E-11  0.0000E+00  0.7594E-09
    -38.176  0.0000E+00  0.2019E-07  0.0000E+00  0.2696E+01  0.0000E+00  0.2130E+01  0.0000E+00  0.2696E+01  0.0000E+00  0.7275E-09  0.0000E+00  0.3347E-09  0.0000E+00  0.7233E-08  0.0000E+00  0.3347E-09  0.0000E+00  0.2113E-07
    -37.965  0.0000E+00  0.1396E-07  0.0000E+00  0.1864E+01  0.0000E+00  0.2439E+01  0.0000E+00  0.1864E+01  0.0000E+00  0.5146E-09  0.0000E+00  0.3676E-09  0.0000E+00  0.5038E-08  0.0000E+00  0.3676E-09  0.0000E+00  0.1463E-07
    -37.754  0.0000E+00  0.0000E+00  0.0000E+00  0.0000E+00  0.0000E+00  0.0000E+00  0.0000E+00  0.0000E+00  0.0000E+00  0.0000E+00  0.0000E+00  0.0000E+00  0.0000E+00  0.0000E+00  0.0000E+00  0.0000E+00  0.0000E+00  0.0000E+00
    -37.542  0.0000E+00  0.0000E+00  0.0000E+00  0.0000E+00  0.0000E+00  0.0000E+00  0.0000E+00  0.0000E+00  0.0000E+00  0.0000E+00  0.0000E+00  0.0000E+00  0.0000E+00  0.0000E+00  0.0000E+00  0.0000E+00  0.0000E+00  0.0000E+00
    -37.331  0.0000E+00  0.0000E+00  0.0000E+00  0.0000E+00  0.0000E+00  0.0000E+00  0.0000E+00  0.0000E+00  0.0000E+00  0.0000E+00  0.0000E+00  0.0000E+00  0.0000E+00  0.0000E+00  0.0000E+00  0.0000E+00  0.0000E+00  0.0000E+00
    -37.120  0.0000E+00  0.0000E+00  0.0000E+00  0.0000E+00  0.0000E+00  0.0000E+00  0.0000E+00  0.0000E+00  0.0000E+00  0.0000E+00  0.0000E+00  0.0000E+00  0.0000E+00  0.0000E+00  0.0000E+00  0.0000E+00  0.0000E+00  0.0000E+00
    -36.908  0.0000E+00  0.0000E+00  0.0000E+00  0.0000E+00  0.0000E+00  0.0000E+00  0.0000E+00  0.0000E+00  0.0000E+00  0.0000E+00  0.0000E+00  0.0000E+00  0.0000E+00  0.0000E+00  0.0000E+00  0.0000E+00  0.0000E+00  0.0000E+00
    -36.697  0.0000E+00  0.0000E+00  0.0000E+00  0.0000E+00  0.0000E+00  0.0000E+00  0.0000E+00  0.0000E+00  0.0000E+00  0.0000E+00  0.0000E+00  0.0000E+00  0.0000E+00  0.0000E+00  0.0000E+00  0.0000E+00  0.0000E+00  0.0000E+00
    -36.486  0.0000E+00  0.0000E+00  0.0000E+00  0.0000E+00  0.0000E+00  0.0000E+00  0.0000E+00  0.0000E+00  0.0000E+00  0.0000E+00  0.0000E+00  0.0000E+00  0.0000E+00  0.0000E+00  0.0000E+00  0.0000E+00  0.0000E+00  0.0000E+00
    -36.274  0.0000E+00  0.0000E+00  0.0000E+00  0.0000E+00  0.0000E+00  0.0000E+00  0.0000E+00  0.0000E+00  0.0000E+00  0.0000E+00  0.0000E+00  0.0000E+00  0.0000E+00  0.0000E+00  0.0000E+00  0.0000E+00  0.0000E+00  0.0000E+00
    -36.063  0.0000E+00  0.0000E+00  0.0000E+00  0.0000E+00  0.0000E+00  0.0000E+00  0.0000E+00  0.0000E+00  0.0000E+00  0.0000E+00  0.0000E+00  0.0000E+00  0.0000E+00  0.0000E+00  0.0000E+00  0.0000E+00  0.0000E+00  0.0000E+00
    -35.852  0.0000E+00  0.0000E+00  0.0000E+00  0.0000E+00  0.0000E+00  0.0000E+00  0.0000E+00  0.0000E+00  0.0000E+00  0.0000E+00  0.0000E+00  0.0000E+00  0.0000E+00  0.0000E+00  0.0000E+00  0.0000E+00  0.0000E+00  0.0000E+00
    -35.640  0.0000E+00  0.0000E+00  0.0000E+00  0.0000E+00  0.0000E+00  0.0000E+00  0.0000E+00  0.0000E+00  0.0000E+00  0.0000E+00  0.0000E+00  0.0000E+00  0.0000E+00  0.0000E+00  0.0000E+00  0.0000E+00  0.0000E+00  0.0000E+00
    -35.429  0.0000E+00  0.0000E+00  0.0000E+00  0.0000E+00  0.0000E+00  0.0000E+00  0.0000E+00  0.0000E+00  0.0000E+00  0.0000E+00  0.0000E+00  0.0000E+00  0.0000E+00  0.0000E+00  0.0000E+00  0.0000E+00  0.0000E+00  0.0000E+00
    -35.218  0.0000E+00  0.0000E+00  0.0000E+00  0.0000E+00  0.0000E+00  0.0000E+00  0.0000E+00  0.0000E+00  0.0000E+00  0.0000E+00  0.0000E+00  0.0000E+00  0.0000E+00  0.0000E+00  0.0000E+00  0.0000E+00  0.0000E+00  0.0000E+00
    -35.006  0.0000E+00  0.0000E+00  0.0000E+00  0.0000E+00  0.0000E+00  0.0000E+00  0.0000E+00  0.0000E+00  0.0000E+00  0.0000E+00  0.0000E+00  0.0000E+00  0.0000E+00  0.0000E+00  0.0000E+00  0.0000E+00  0.0000E+00  0.0000E+00
    -34.795  0.0000E+00  0.0000E+00  0.0000E+00  0.0000E+00  0.0000E+00  0.0000E+00  0.0000E+00  0.0000E+00  0.0000E+00  0.0000E+00  0.0000E+00  0.0000E+00  0.0000E+00  0.0000E+00  0.0000E+00  0.0000E+00  0.0000E+00  0.0000E+00
    -34.584  0.0000E+00  0.0000E+00  0.0000E+00  0.0000E+00  0.0000E+00  0.0000E+00  0.0000E+00  0.0000E+00  0.0000E+00  0.0000E+00  0.0000E+00  0.0000E+00  0.0000E+00  0.0000E+00  0.0000E+00  0.0000E+00  0.0000E+00  0.0000E+00
    -34.373  0.0000E+00  0.0000E+00  0.0000E+00  0.0000E+00  0.0000E+00  0.0000E+00  0.0000E+00  0.0000E+00  0.0000E+00  0.0000E+00  0.0000E+00  0.0000E+00  0.0000E+00  0.0000E+00  0.0000E+00  0.0000E+00  0.0000E+00  0.0000E+00
    -34.161  0.0000E+00  0.0000E+00  0.0000E+00  0.0000E+00  0.0000E+00  0.0000E+00  0.0000E+00  0.0000E+00  0.0000E+00  0.0000E+00  0.0000E+00  0.0000E+00  0.0000E+00  0.0000E+00  0.0000E+00  0.0000E+00  0.0000E+00  0.0000E+00
    -33.950  0.0000E+00  0.0000E+00  0.0000E+00  0.0000E+00  0.0000E+00  0.0000E+00  0.0000E+00  0.0000E+00  0.0000E+00  0.0000E+00  0.0000E+00  0.0000E+00  0.0000E+00  0.0000E+00  0.0000E+00  0.0000E+00  0.0000E+00  0.0000E+00
    -33.739  0.0000E+00  0.0000E+00  0.0000E+00  0.0000E+00  0.0000E+00  0.0000E+00  0.0000E+00  0.0000E+00  0.0000E+00  0.0000E+00  0.0000E+00  0.0000E+00  0.0000E+00  0.0000E+00  0.0000E+00  0.0000E+00  0.0000E+00  0.0000E+00
    -33.527  0.0000E+00  0.0000E+00  0.0000E+00  0.0000E+00  0.0000E+00  0.0000E+00  0.0000E+00  0.0000E+00  0.0000E+00  0.0000E+00  0.0000E+00  0.0000E+00  0.0000E+00  0.0000E+00  0.0000E+00  0.0000E+00  0.0000E+00  0.0000E+00
    -33.316  0.0000E+00  0.0000E+00  0.0000E+00  0.0000E+00  0.0000E+00  0.0000E+00  0.0000E+00  0.0000E+00  0.0000E+00  0.0000E+00  0.0000E+00  0.0000E+00  0.0000E+00  0.0000E+00  0.0000E+00  0.0000E+00  0.0000E+00  0.0000E+00
    -33.105  0.0000E+00  0.0000E+00  0.0000E+00  0.0000E+00  0.0000E+00  0.0000E+00  0.0000E+00  0.0000E+00  0.0000E+00  0.0000E+00  0.0000E+00  0.0000E+00  0.0000E+00  0.0000E+00  0.0000E+00  0.0000E+00  0.0000E+00  0.0000E+00
    -32.893  0.0000E+00  0.0000E+00  0.0000E+00  0.0000E+00  0.0000E+00  0.0000E+00  0.0000E+00  0.0000E+00  0.0000E+00  0.0000E+00  0.0000E+00  0.0000E+00  0.0000E+00  0.0000E+00  0.0000E+00  0.0000E+00  0.0000E+00  0.0000E+00
    -32.682  0.0000E+00  0.0000E+00  0.0000E+00  0.0000E+00  0.0000E+00  0.0000E+00  0.0000E+00  0.0000E+00  0.0000E+00  0.0000E+00  0.0000E+00  0.0000E+00  0.0000E+00  0.0000E+00  0.0000E+00  0.0000E+00  0.0000E+00  0.0000E+00