   8   8   1   0
  0.1064719E+02  0.3438779E-09  0.3438779E-09  0.7203052E-09  0.5000000E-15
  1.000000000000000E-004
  CAR 
 unknown system                          
     26.77684577    -38.71681638  301     12.87550745      1.00000000
    -38.717  0.0000E+00  0.0000E+00  0.0000E+00  0.0000E+00
    -38.499  0.0000E+00  0.0000E+00  0.0000E+00  0.0000E+00
    -38.280  0.0000E+00  0.0000E+00  0.0000E+00  0.0000E+00
    -38.062  0.0000E+00  0.0000E+00  0.0000E+00  0.0000E+00
    -37.844  0.0000E+00  0.0000E+00  0.0000E+00  0.0000E+00
    -37.625  0.0000E+00  0.0000E+00  0.0000E+00  0.0000E+00
    -37.407  0.0000E+00  0.0000E+00  0.0000E+00  0.0000E+00
    -37.189  0.0000E+00  0.0000E+00  0.0000E+00  0.0000E+00
    -36.970  0.0000E+00  0.0000E+00  0.0000E+00  0.0000E+00
    -36.752  0.0000E+00  0.0000E+00  0.0000E+00  0.0000E+00
    -36.534  0.0000E+00  0.0000E+00  0.0000E+00  0.0000E+00
    -36.315  0.1566E-03  0.0000E+00  0.3419E-04  0.0000E+00
    -36.097  0.1251E-01  0.0000E+00  0.2766E-02  0.0000E+00
    -35.879  0.9362E+00  0.0000E+00  0.2072E+00  0.0000E+00
    -35.660  0.1554E+02  0.0000E+00  0.3600E+01  0.0000E+00
    -35.442  0.1046E+02  0.0000E+00  0.5885E+01  0.0000E+00
    -35.224  0.4654E+00  0.0000E+00  0.5999E+01  0.0000E+00
    -35.006  0.0000E+00  0.0000E+00  0.6000E+01  0.0000E+00
    -34.787  0.0000E+00  0.1868E-02  0.6000E+01  0.4078E-03
    -34.569  0.0000E+00  0.1444E+00  0.6000E+01  0.3194E-01
    -34.351  0.0000E+00  0.7985E+01  0.6000E+01  0.1775E+01
    -34.132  0.0000E+00  0.1854E+02  0.6000E+01  0.5823E+01
    -33.914  0.0000E+00  0.6809E+00  0.6000E+01  0.5998E+01
    -33.696  0.0000E+00  0.0000E+00  0.6000E+01  0.6000E+01
    -33.477  0.0000E+00  0.0000E+00  0.6000E+01  0.6000E+01
    -33.259  0.0000E+00  0.0000E+00  0.6000E+01  0.6000E+01
    -33.041  0.0000E+00  0.0000E+00  0.6000E+01  0.6000E+01
    -32.822  0.0000E+00  0.0000E+00  0.6000E+01  0.6000E+01
    -32.604  0.0000E+00  0.0000E+00  0.6000E+01  0.6000E+01
    -32.386  0.0000E+00  0.0000E+00  0.6000E+01  0.6000E+01
    -32.167  0.0000E+00  0.0000E+00  0.6000E+01  0.6000E+01
    -31.949  0.0000E+00  0.0000E+00  0.6000E+01  0.6000E+01
    -31.731  0.0000E+00  0.0000E+00  0.6000E+01  0.6000E+01
    -31.513  0.0000E+00  0.0000E+00  0.6000E+01  0.6000E+01
    -31.294  0.0000E+00  0.0000E+00  0.6000E+01  0.6000E+01
    -31.076  0.0000E+00  0.0000E+00  0.6000E+01  0.6000E+01
    -30.858  0.0000E+00  0.0000E+00  0.6000E+01  0.6000E+01
    -30.639  0.0000E+00  0.0000E+00  0.6000E+01  0.6000E+01
    -30.421  0.0000E+00  0.0000E+00  0.6000E+01  0.6000E+01
    -30.203  0.0000E+00  0.0000E+00  0.6000E+01  0.6000E+01
    -29.984  0.0000E+00  0.0000E+00  0.6000E+01  0.6000E+01
    -29.766  0.0000E+00  0.0000E+00  0.6000E+01  0.6000E+01
    -29.548  0.0000E+00  0.0000E+00  0.6000E+01  0.6000E+01
    -29.329  0.0000E+00  0.0000E+00  0.6000E+01  0.6000E+01
    -29.111  0.0000E+00  0.0000E+00  0.6000E+01  0.6000E+01
    -28.893  0.0000E+00  0.0000E+00  0.6000E+01  0.6000E+01
    -28.674  0.0000E+00  0.0000E+00  0.6000E+01  0.6000E+01
    -28.456  0.0000E+00  0.0000E+00  0.6000E+01  0.6000E+01
    -28.238  0.0000E+00  0.0000E+00  0.6000E+01  0.6000E+01
    -28.020  0.0000E+00  0.0000E+00  0.6000E+01  0.6000E+01
    -27.801  0.0000E+00  0.0000E+00  0.6000E+01  0.6000E+01
    -27.583  0.0000E+00  0.0000E+00  0.6000E+01  0.6000E+01
    -27.365  0.0000E+00  0.0000E+00  0.6000E+01  0.6000E+01
    -27.146  0.0000E+00  0.0000E+00  0.6000E+01  0.6000E+01
    -26.928  0.0000E+00  0.0000E+00  0.6000E+01  0.6000E+01
    -26.710  0.0000E+00  0.0000E+00  0.6000E+01  0.6000E+01
    -26.491  0.0000E+00  0.0000E+00  0.6000E+01  0.6000E+01
    -26.273  0.0000E+00  0.0000E+00  0.6000E+01  0.6000E+01
    -26.055  0.0000E+00  0.0000E+00  0.6000E+01  0.6000E+01
    -25.836  0.0000E+00  0.0000E+00  0.6000E+01  0.6000E+01
    -25.618  0.0000E+00  0.0000E+00  0.6000E+01  0.6000E+01
    -25.400  0.0000E+00  0.0000E+00  0.6000E+01  0.6000E+01
    -25.181  0.0000E+00  0.0000E+00  0.6000E+01  0.6000E+01
    -24.963  0.0000E+00  0.0000E+00  0.6000E+01  0.6000E+01
    -24.745  0.0000E+00  0.0000E+00  0.6000E+01  0.6000E+01
    -24.527  0.0000E+00  0.0000E+00  0.6000E+01  0.6000E+01
    -24.308  0.0000E+00  0.0000E+00  0.6000E+01  0.6000E+01
    -24.090  0.0000E+00  0.0000E+00  0.6000E+01  0.6000E+01
    -23.872  0.0000E+00  0.0000E+00  0.6000E+01  0.6000E+01
    -23.653  0.0000E+00  0.0000E+00  0.6000E+01  0.6000E+01
    -23.435  0.0000E+00  0.0000E+00  0.6000E+01  0.6000E+01
    -23.217  0.0000E+00  0.0000E+00  0.6000E+01  0.6000E+01
    -22.998  0.0000E+00  0.0000E+00  0.6000E+01  0.6000E+01
    -22.780  0.0000E+00  0.0000E+00  0.6000E+01  0.6000E+01
    -22.562  0.0000E+00  0.0000E+00  0.6000E+01  0.6000E+01
    -22.343  0.0000E+00  0.0000E+00  0.6000E+01  0.6000E+01
    -22.125  0.0000E+00  0.0000E+00  0.6000E+01  0.6000E+01
    -21.907  0.0000E+00  0.0000E+00  0.6000E+01  0.6000E+01
    -21.688  0.0000E+00  0.0000E+00  0.6000E+01  0.6000E+01
    -21.470  0.0000E+00  0.0000E+00  0.6000E+01  0.6000E+01
    -21.252  0.0000E+00  0.0000E+00  0.6000E+01  0.6000E+01
    -21.034  0.0000E+00  0.0000E+00  0.6000E+01  0.6000E+01
    -20.815  0.0000E+00  0.0000E+00  0.6000E+01  0.6000E+01
    -20.597  0.0000E+00  0.0000E+00  0.6000E+01  0.6000E+01
    -20.379  0.0000E+00  0.0000E+00  0.6000E+01  0.6000E+01
    -20.160  0.0000E+00  0.0000E+00  0.6000E+01  0.6000E+01
    -19.942  0.0000E+00  0.0000E+00  0.6000E+01  0.6000E+01
    -19.724  0.0000E+00  0.0000E+00  0.6000E+01  0.6000E+01
    -19.505  0.0000E+00  0.0000E+00  0.6000E+01  0.6000E+01
    -19.287  0.0000E+00  0.0000E+00  0.6000E+01  0.6000E+01
    -19.069  0.0000E+00  0.0000E+00  0.6000E+01  0.6000E+01
    -18.850  0.0000E+00  0.0000E+00  0.6000E+01  0.6000E+01
    -18.632  0.0000E+00  0.0000E+00  0.6000E+01  0.6000E+01
    -18.414  0.0000E+00  0.0000E+00  0.6000E+01  0.6000E+01
    -18.195  0.0000E+00  0.0000E+00  0.6000E+01  0.6000E+01
    -17.977  0.0000E+00  0.0000E+00  0.6000E+01  0.6000E+01
    -17.759  0.0000E+00  0.0000E+00  0.6000E+01  0.6000E+01
    -17.541  0.0000E+00  0.0000E+00  0.6000E+01  0.6000E+01
    -17.322  0.0000E+00  0.0000E+00  0.6000E+01  0.6000E+01
    -17.104  0.0000E+00  0.0000E+00  0.6000E+01  0.6000E+01
    -16.886  0.0000E+00  0.0000E+00  0.6000E+01  0.6000E+01
    -16.667  0.0000E+00  0.0000E+00  0.6000E+01  0.6000E+01
    -16.449  0.0000E+00  0.0000E+00  0.6000E+01  0.6000E+01
    -16.231  0.0000E+00  0.0000E+00  0.6000E+01  0.6000E+01
    -16.012  0.0000E+00  0.0000E+00  0.6000E+01  0.6000E+01
    -15.794  0.0000E+00  0.0000E+00  0.6000E+01  0.6000E+01
    -15.576  0.0000E+00  0.0000E+00  0.6000E+01  0.6000E+01
    -15.357  0.0000E+00  0.0000E+00  0.6000E+01  0.6000E+01
    -15.139  0.0000E+00  0.0000E+00  0.6000E+01  0.6000E+01
    -14.921  0.0000E+00  0.0000E+00  0.6000E+01  0.6000E+01
    -14.702  0.0000E+00  0.0000E+00  0.6000E+01  0.6000E+01
    -14.484  0.0000E+00  0.0000E+00  0.6000E+01  0.6000E+01
    -14.266  0.0000E+00  0.0000E+00  0.6000E+01  0.6000E+01
    -14.048  0.0000E+00  0.0000E+00  0.6000E+01  0.6000E+01
    -13.829  0.0000E+00  0.0000E+00  0.6000E+01  0.6000E+01
    -13.611  0.0000E+00  0.0000E+00  0.6000E+01  0.6000E+01
    -13.393  0.0000E+00  0.0000E+00  0.6000E+01  0.6000E+01
    -13.174  0.0000E+00  0.0000E+00  0.6000E+01  0.6000E+01
    -12.956  0.0000E+00  0.0000E+00  0.6000E+01  0.6000E+01
    -12.738  0.0000E+00  0.0000E+00  0.6000E+01  0.6000E+01
    -12.519  0.0000E+00  0.0000E+00  0.6000E+01  0.6000E+01
    -12.301  0.0000E+00  0.0000E+00  0.6000E+01  0.6000E+01
    -12.083  0.0000E+00  0.0000E+00  0.6000E+01  0.6000E+01
    -11.864  0.0000E+00  0.0000E+00  0.6000E+01  0.6000E+01
    -11.646  0.0000E+00  0.0000E+00  0.6000E+01  0.6000E+01
    -11.428  0.0000E+00  0.0000E+00  0.6000E+01  0.6000E+01
    -11.209  0.0000E+00  0.0000E+00  0.6000E+01  0.6000E+01
    -10.991  0.0000E+00  0.0000E+00  0.6000E+01  0.6000E+01
    -10.773  0.0000E+00  0.0000E+00  0.6000E+01  0.6000E+01
    -10.555  0.0000E+00  0.0000E+00  0.6000E+01  0.6000E+01
    -10.336  0.0000E+00  0.0000E+00  0.6000E+01  0.6000E+01
    -10.118  0.0000E+00  0.0000E+00  0.6000E+01  0.6000E+01
     -9.900  0.0000E+00  0.0000E+00  0.6000E+01  0.6000E+01
     -9.681  0.0000E+00  0.0000E+00  0.6000E+01  0.6000E+01
     -9.463  0.0000E+00  0.0000E+00  0.6000E+01  0.6000E+01
     -9.245  0.0000E+00  0.0000E+00  0.6000E+01  0.6000E+01
     -9.026  0.0000E+00  0.0000E+00  0.6000E+01  0.6000E+01
     -8.808  0.0000E+00  0.0000E+00  0.6000E+01  0.6000E+01
     -8.590  0.0000E+00  0.0000E+00  0.6000E+01  0.6000E+01
     -8.371  0.0000E+00  0.0000E+00  0.6000E+01  0.6000E+01
     -8.153  0.0000E+00  0.0000E+00  0.6000E+01  0.6000E+01
     -7.935  0.0000E+00  0.0000E+00  0.6000E+01  0.6000E+01
     -7.716  0.0000E+00  0.0000E+00  0.6000E+01  0.6000E+01
     -7.498  0.0000E+00  0.0000E+00  0.6000E+01  0.6000E+01
     -7.280  0.0000E+00  0.0000E+00  0.6000E+01  0.6000E+01
     -7.062  0.0000E+00  0.0000E+00  0.6000E+01  0.6000E+01
     -6.843  0.0000E+00  0.0000E+00  0.6000E+01  0.6000E+01
     -6.625  0.0000E+00  0.0000E+00  0.6000E+01  0.6000E+01
     -6.407  0.0000E+00  0.0000E+00  0.6000E+01  0.6000E+01
     -6.188  0.0000E+00  0.0000E+00  0.6000E+01  0.6000E+01
     -5.970  0.0000E+00  0.0000E+00  0.6000E+01  0.6000E+01
     -5.752  0.0000E+00  0.0000E+00  0.6000E+01  0.6000E+01
     -5.533  0.0000E+00  0.0000E+00  0.6000E+01  0.6000E+01
     -5.315  0.0000E+00  0.0000E+00  0.6000E+01  0.6000E+01
     -5.097  0.0000E+00  0.0000E+00  0.6000E+01  0.6000E+01
     -4.878  0.0000E+00  0.0000E+00  0.6000E+01  0.6000E+01
     -4.660  0.0000E+00  0.0000E+00  0.6000E+01  0.6000E+01
     -4.442  0.0000E+00  0.0000E+00  0.6000E+01  0.6000E+01
     -4.223  0.0000E+00  0.0000E+00  0.6000E+01  0.6000E+01
     -4.005  0.0000E+00  0.0000E+00  0.6000E+01  0.6000E+01
     -3.787  0.0000E+00  0.0000E+00  0.6000E+01  0.6000E+01
     -3.569  0.0000E+00  0.0000E+00  0.6000E+01  0.6000E+01
     -3.350  0.0000E+00  0.0000E+00  0.6000E+01  0.6000E+01
     -3.132  0.0000E+00  0.0000E+00  0.6000E+01  0.6000E+01
     -2.914  0.0000E+00  0.0000E+00  0.6000E+01  0.6000E+01
     -2.695  0.0000E+00  0.0000E+00  0.6000E+01  0.6000E+01
     -2.477  0.0000E+00  0.0000E+00  0.6000E+01  0.6000E+01
     -2.259  0.0000E+00  0.0000E+00  0.6000E+01  0.6000E+01
     -2.040  0.0000E+00  0.0000E+00  0.6000E+01  0.6000E+01
     -1.822  0.0000E+00  0.0000E+00  0.6000E+01  0.6000E+01
     -1.604  0.0000E+00  0.0000E+00  0.6000E+01  0.6000E+01
     -1.385  0.0000E+00  0.0000E+00  0.6000E+01  0.6000E+01
     -1.167  0.0000E+00  0.0000E+00  0.6000E+01  0.6000E+01
     -0.949  0.2755E-05  0.5747E-06  0.6000E+01  0.6000E+01
     -0.730  0.2243E-03  0.6078E-04  0.6000E+01  0.6000E+01
     -0.512  0.1237E-01  0.4209E-02  0.6003E+01  0.6001E+01
     -0.294  0.9165E-01  0.6481E-01  0.6023E+01  0.6015E+01
     -0.076  0.1756E+00  0.1522E+00  0.6061E+01  0.6048E+01
      0.143  0.2104E+00  0.1954E+00  0.6107E+01  0.6091E+01
      0.361  0.2653E+00  0.2541E+00  0.6165E+01  0.6147E+01
      0.579  0.2873E+00  0.2947E+00  0.6228E+01  0.6211E+01
      0.798  0.3442E+00  0.3071E+00  0.6304E+01  0.6279E+01
      1.016  0.3769E+00  0.3661E+00  0.6386E+01  0.6359E+01
      1.234  0.3642E+00  0.3804E+00  0.6466E+01  0.6443E+01
      1.453  0.4253E+00  0.4023E+00  0.6560E+01  0.6532E+01
      1.671  0.5079E+00  0.4937E+00  0.6671E+01  0.6640E+01
      1.889  0.4885E+00  0.4877E+00  0.6779E+01  0.6747E+01
      2.108  0.4667E+00  0.4613E+00  0.6881E+01  0.6849E+01
      2.326  0.6075E+00  0.6076E+00  0.7014E+01  0.6982E+01
      2.544  0.5392E+00  0.5464E+00  0.7132E+01  0.7102E+01
      2.763  0.5986E+00  0.5767E+00  0.7263E+01  0.7229E+01
      2.981  0.5409E+00  0.5439E+00  0.7382E+01  0.7348E+01
      3.199  0.7015E+00  0.6096E+00  0.7536E+01  0.7482E+01
      3.417  0.6470E+00  0.6996E+00  0.7678E+01  0.7635E+01
      3.636  0.6671E+00  0.6072E+00  0.7825E+01  0.7769E+01
      3.854  0.6888E+00  0.6611E+00  0.7976E+01  0.7914E+01
      4.072  0.7892E+00  0.7496E+00  0.8149E+01  0.8079E+01
      4.291  0.8277E+00  0.8452E+00  0.8331E+01  0.8265E+01
      4.509  0.8721E+00  0.7968E+00  0.8522E+01  0.8440E+01
      4.727  0.7748E+00  0.8023E+00  0.8692E+01  0.8616E+01
      4.946  0.7674E+00  0.7867E+00  0.8860E+01  0.8789E+01
      5.164  0.6619E+00  0.6407E+00  0.9005E+01  0.8930E+01
      5.382  0.8256E+00  0.7459E+00  0.9187E+01  0.9094E+01
      5.601  0.7674E+00  0.7821E+00  0.9356E+01  0.9266E+01
      5.819  0.9294E+00  0.7930E+00  0.9560E+01  0.9440E+01
      6.037  0.8906E+00  0.8839E+00  0.9755E+01  0.9634E+01
      6.255  0.1019E+01  0.9842E+00  0.9978E+01  0.9851E+01
      6.474  0.1097E+01  0.9004E+00  0.1022E+02  0.1005E+02
      6.692  0.1081E+01  0.1064E+01  0.1046E+02  0.1028E+02
      6.910  0.1171E+01  0.1048E+01  0.1071E+02  0.1051E+02
      7.129  0.1281E+01  0.1091E+01  0.1099E+02  0.1075E+02
      7.347  0.1188E+01  0.1149E+01  0.1126E+02  0.1100E+02
      7.565  0.1401E+01  0.1096E+01  0.1156E+02  0.1124E+02
      7.784  0.1311E+01  0.1356E+01  0.1185E+02  0.1154E+02
      8.002  0.1363E+01  0.1166E+01  0.1215E+02  0.1180E+02
      8.220  0.1245E+01  0.1315E+01  0.1242E+02  0.1209E+02
      8.439  0.1467E+01  0.1173E+01  0.1274E+02  0.1234E+02
      8.657  0.1168E+01  0.1097E+01  0.1300E+02  0.1259E+02
      8.875  0.1411E+01  0.1130E+01  0.1331E+02  0.1283E+02
      9.094  0.2219E+01  0.1211E+01  0.1380E+02  0.1310E+02
      9.312  0.2734E+01  0.1559E+01  0.1440E+02  0.1344E+02
      9.530  0.3041E+01  0.2273E+01  0.1506E+02  0.1394E+02
      9.748  0.3482E+01  0.2274E+01  0.1583E+02  0.1444E+02
      9.967  0.2962E+01  0.2158E+01  0.1648E+02  0.1491E+02
     10.185  0.2967E+01  0.2853E+01  0.1713E+02  0.1554E+02
     10.403  0.3800E+01  0.2844E+01  0.1796E+02  0.1616E+02
     10.622  0.4345E+01  0.2421E+01  0.1891E+02  0.1670E+02
     10.840  0.3312E+01  0.2811E+01  0.1964E+02  0.1731E+02
     11.058  0.1559E+01  0.3342E+01  0.1999E+02  0.1805E+02
     11.277  0.3480E+00  0.3471E+01  0.2007E+02  0.1881E+02
     11.495  0.1335E+01  0.2846E+01  0.2036E+02  0.1943E+02
     11.713  0.4298E+01  0.1977E+01  0.2130E+02  0.1987E+02
     11.932  0.2599E+01  0.6639E+00  0.2187E+02  0.2002E+02
     12.150  0.2128E+01  0.1927E+00  0.2234E+02  0.2006E+02
     12.368  0.1707E+01  0.2526E+00  0.2271E+02  0.2012E+02
     12.587  0.1287E+01  0.5095E+00  0.2300E+02  0.2023E+02
     12.805  0.1474E+01  0.1150E+01  0.2332E+02  0.2048E+02
     13.023  0.1092E+01  0.2191E+01  0.2356E+02  0.2096E+02
     13.241  0.1221E+01  0.5313E+01  0.2383E+02  0.2212E+02
     13.460  0.8942E+00  0.4614E+01  0.2403E+02  0.2313E+02
     13.678  0.1159E+01  0.2257E+01  0.2428E+02  0.2364E+02
     13.896  0.1330E+01  0.1574E+01  0.2457E+02  0.2398E+02
     14.115  0.2505E+01  0.1150E+01  0.2512E+02  0.2424E+02
     14.333  0.2392E+01  0.1464E+01  0.2564E+02  0.2456E+02
     14.551  0.1659E+01  0.1973E+01  0.2601E+02  0.2499E+02
     14.770  0.1246E+01  0.2225E+01  0.2628E+02  0.2548E+02
     14.988  0.1300E+01  0.1970E+01  0.2657E+02  0.2591E+02
     15.206  0.1510E+01  0.1394E+01  0.2690E+02  0.2622E+02
     15.425  0.1502E+01  0.1416E+01  0.2723E+02  0.2653E+02
     15.643  0.2047E+01  0.1451E+01  0.2768E+02  0.2685E+02
     15.861  0.1647E+01  0.1712E+01  0.2804E+02  0.2722E+02
     16.080  0.1457E+01  0.1866E+01  0.2836E+02  0.2763E+02
     16.298  0.1161E+01  0.1869E+01  0.2862E+02  0.2804E+02
     16.516  0.1233E+01  0.1796E+01  0.2889E+02  0.2844E+02
     16.734  0.1301E+01  0.1168E+01  0.2917E+02  0.2870E+02
     16.953  0.1421E+01  0.1372E+01  0.2949E+02  0.2900E+02
     17.171  0.1442E+01  0.1562E+01  0.2980E+02  0.2934E+02
     17.389  0.1710E+01  0.1595E+01  0.3018E+02  0.2969E+02
     17.608  0.1458E+01  0.1669E+01  0.3050E+02  0.3006E+02
     17.826  0.1267E+01  0.1363E+01  0.3078E+02  0.3036E+02
     18.044  0.1220E+01  0.1327E+01  0.3105E+02  0.3065E+02
     18.263  0.1464E+01  0.1264E+01  0.3137E+02  0.3093E+02
     18.481  0.1258E+01  0.1360E+01  0.3164E+02  0.3122E+02
     18.699  0.1278E+01  0.1351E+01  0.3193E+02  0.3152E+02
     18.918  0.1612E+01  0.1315E+01  0.3228E+02  0.3181E+02
     19.136  0.1465E+01  0.1537E+01  0.3260E+02  0.3215E+02
     19.354  0.1659E+01  0.1766E+01  0.3296E+02  0.3253E+02
     19.573  0.1860E+01  0.1826E+01  0.3337E+02  0.3294E+02
     19.791  0.1458E+01  0.1878E+01  0.3369E+02  0.3335E+02
     20.009  0.1809E+01  0.1634E+01  0.3409E+02  0.3371E+02
     20.227  0.1796E+01  0.1865E+01  0.3449E+02  0.3411E+02
     20.446  0.1639E+01  0.1866E+01  0.3485E+02  0.3452E+02
     20.664  0.1155E+01  0.1604E+01  0.3510E+02  0.3488E+02
     20.882  0.7898E+00  0.1019E+01  0.3528E+02  0.3510E+02
     21.101  0.5210E+00  0.7592E+00  0.3539E+02  0.3527E+02
     21.319  0.5721E+00  0.6324E+00  0.3552E+02  0.3541E+02
     21.537  0.5417E+00  0.5716E+00  0.3564E+02  0.3553E+02
     21.756  0.2728E+00  0.6302E+00  0.3570E+02  0.3567E+02
     21.974  0.1680E+00  0.9969E-01  0.3573E+02  0.3569E+02
     22.192  0.3118E+00  0.2828E+00  0.3580E+02  0.3576E+02
     22.411  0.2323E+00  0.2849E+00  0.3585E+02  0.3582E+02
     22.629  0.1592E+00  0.1836E+00  0.3589E+02  0.3586E+02
     22.847  0.2522E+00  0.2738E+00  0.3594E+02  0.3592E+02
     23.066  0.1754E+00  0.2190E+00  0.3598E+02  0.3597E+02
     23.284  0.5214E-01  0.8060E-01  0.3599E+02  0.3599E+02
     23.502  0.1291E-02  0.3366E-01  0.3599E+02  0.3599E+02
     23.720  0.2274E-01  0.5177E-02  0.3600E+02  0.3599E+02
     23.939  0.6811E-02  0.2391E-01  0.3600E+02  0.3600E+02
     24.157  0.0000E+00  0.1788E-02  0.3600E+02  0.3600E+02
     24.375  0.0000E+00  0.0000E+00  0.3600E+02  0.3600E+02
     24.594  0.0000E+00  0.0000E+00  0.3600E+02  0.3600E+02
     24.812  0.0000E+00  0.0000E+00  0.3600E+02  0.3600E+02
     25.030  0.0000E+00  0.0000E+00  0.3600E+02  0.3600E+02
     25.249  0.0000E+00  0.0000E+00  0.3600E+02  0.3600E+02
     25.467  0.0000E+00  0.0000E+00  0.3600E+02  0.3600E+02
     25.685  0.0000E+00  0.0000E+00  0.3600E+02  0.3600E+02
     25.904  0.0000E+00  0.0000E+00  0.3600E+02  0.3600E+02
     26.122  0.0000E+00  0.0000E+00  0.3600E+02  0.3600E+02
     26.340  0.0000E+00  0.0000E+00  0.3600E+02  0.3600E+02
     26.559  0.0000E+00  0.0000E+00  0.3600E+02  0.3600E+02
     26.777  0.0000E+00  0.0000E+00  0.3600E+02  0.3600E+02
     26.77684577    -38.71681638  301     12.87550745      1.00000000
    -38.717  0.0000E+00  0.0000E+00  0.0000E+00  0.0000E+00  0.0000E+00  0.0000E+00  0.0000E+00  0.0000E+00  0.0000E+00  0.0000E+00  0.0000E+00  0.0000E+00  0.0000E+00  0.0000E+00  0.0000E+00  0.0000E+00  0.0000E+00  0.0000E+00
    -38.499  0.0000E+00  0.0000E+00  0.0000E+00  0.0000E+00  0.0000E+00  0.0000E+00  0.0000E+00  0.0000E+00  0.0000E+00  0.0000E+00  0.0000E+00  0.0000E+00  0.0000E+00  0.0000E+00  0.0000E+00  0.0000E+00  0.0000E+00  0.0000E+00
    -38.280  0.0000E+00  0.0000E+00  0.0000E+00  0.0000E+00  0.0000E+00  0.0000E+00  0.0000E+00  0.0000E+00  0.0000E+00  0.0000E+00  0.0000E+00  0.0000E+00  0.0000E+00  0.0000E+00  0.0000E+00  0.0000E+00  0.0000E+00  0.0000E+00
    -38.062  0.0000E+00  0.0000E+00  0.0000E+00  0.0000E+00  0.0000E+00  0.0000E+00  0.0000E+00  0.0000E+00  0.0000E+00  0.0000E+00  0.0000E+00  0.0000E+00  0.0000E+00  0.0000E+00  0.0000E+00  0.0000E+00  0.0000E+00  0.0000E+00
    -37.844  0.0000E+00  0.0000E+00  0.0000E+00  0.0000E+00  0.0000E+00  0.0000E+00  0.0000E+00  0.0000E+00  0.0000E+00  0.0000E+00  0.0000E+00  0.0000E+00  0.0000E+00  0.0000E+00  0.0000E+00  0.0000E+00  0.0000E+00  0.0000E+00
    -37.625  0.0000E+00  0.0000E+00  0.0000E+00  0.0000E+00  0.0000E+00  0.0000E+00  0.0000E+00  0.0000E+00  0.0000E+00  0.0000E+00  0.0000E+00  0.0000E+00  0.0000E+00  0.0000E+00  0.0000E+00  0.0000E+00  0.0000E+00  0.0000E+00
    -37.407  0.0000E+00  0.0000E+00  0.0000E+00  0.0000E+00  0.0000E+00  0.0000E+00  0.0000E+00  0.0000E+00  0.0000E+00  0.0000E+00  0.0000E+00  0.0000E+00  0.0000E+00  0.0000E+00  0.0000E+00  0.0000E+00  0.0000E+00  0.0000E+00
    -37.189  0.0000E+00  0.0000E+00  0.0000E+00  0.0000E+00  0.0000E+00  0.0000E+00  0.0000E+00  0.0000E+00  0.0000E+00  0.0000E+00  0.0000E+00  0.0000E+00  0.0000E+00  0.0000E+00  0.0000E+00  0.0000E+00  0.0000E+00  0.0000E+00
    -36.970  0.0000E+00  0.0000E+00  0.0000E+00  0.0000E+00  0.0000E+00  0.0000E+00  0.0000E+00  0.0000E+00  0.0000E+00  0.0000E+00  0.0000E+00  0.0000E+00  0.0000E+00  0.0000E+00  0.0000E+00  0.0000E+00  0.0000E+00  0.0000E+00
    -36.752  0.0000E+00  0.0000E+00  0.0000E+00  0.0000E+00  0.0000E+00  0.0000E+00  0.0000E+00  0.0000E+00  0.0000E+00  0.0000E+00  0.0000E+00  0.0000E+00  0.0000E+00  0.0000E+00  0.0000E+00  0.0000E+00  0.0000E+00  0.0000E+00
    -36.534  0.0000E+00  0.0000E+00  0.0000E+00  0.0000E+00  0.0000E+00  0.0000E+00  0.0000E+00  0.0000E+00  0.0000E+00  0.0000E+00  0.0000E+00  0.0000E+00  0.0000E+00  0.0000E+00  0.0000E+00  0.0000E+00  0.0000E+00  0.0000E+00
    -36.315  0.6613E-11  0.0000E+00  0.3890E-04  0.0000E+00  0.1611E-09  0.0000E+00  0.3890E-04  0.0000E+00  0.2574E-12  0.0000E+00  0.8287E-14  0.0000E+00  0.2489E-11  0.0000E+00  0.8287E-14  0.0000E+00  0.7371E-11  0.0000E+00
    -36.097  0.5139E-09  0.0000E+00  0.3022E-02  0.0000E+00  0.1717E-03  0.0000E+00  0.3022E-02  0.0000E+00  0.2000E-10  0.0000E+00  0.1210E-11  0.0000E+00  0.1934E-09  0.0000E+00  0.1210E-11  0.0000E+00  0.5727E-09  0.0000E+00
    -35.879  0.3842E-07  0.0000E+00  0.2259E+00  0.0000E+00  0.1331E-01  0.0000E+00  0.2259E+00  0.0000E+00  0.1491E-08  0.0000E+00  0.9193E-10  0.0000E+00  0.1446E-07  0.0000E+00  0.9193E-10  0.0000E+00  0.4283E-07  0.0000E+00
    -35.660  0.5847E-06  0.0000E+00  0.3436E+01  0.0000E+00  0.8493E+00  0.0000E+00  0.3436E+01  0.0000E+00  0.2170E-07  0.0000E+00  0.3507E-08  0.0000E+00  0.2200E-06  0.0000E+00  0.3507E-08  0.0000E+00  0.6553E-06  0.0000E+00
    -35.442  0.1501E-06  0.0000E+00  0.8721E+00  0.0000E+00  0.3453E+01  0.0000E+00  0.8721E+00  0.0000E+00  0.5367E-08  0.0000E+00  0.1152E-07  0.0000E+00  0.5614E-07  0.0000E+00  0.1152E-07  0.0000E+00  0.1666E-06  0.0000E+00
    -35.224  0.1819E-09  0.0000E+00  0.4569E-06  0.0000E+00  0.2312E+00  0.0000E+00  0.4569E-06  0.0000E+00  0.1130E-10  0.0000E+00  0.7580E-09  0.0000E+00  0.4213E-10  0.0000E+00  0.7580E-09  0.0000E+00  0.7739E-12  0.0000E+00
    -35.006  0.0000E+00  0.0000E+00  0.0000E+00  0.0000E+00  0.0000E+00  0.0000E+00  0.0000E+00  0.0000E+00  0.0000E+00  0.0000E+00  0.0000E+00  0.0000E+00  0.0000E+00  0.0000E+00  0.0000E+00  0.0000E+00  0.0000E+00  0.0000E+00
    -34.787  0.0000E+00  0.6636E-10  0.0000E+00  0.3179E-03  0.0000E+00  0.2920E-03  0.0000E+00  0.3179E-03  0.0000E+00  0.2678E-11  0.0000E+00  0.1304E-11  0.0000E+00  0.2299E-10  0.0000E+00  0.1304E-11  0.0000E+00  0.6792E-10
    -34.569  0.0000E+00  0.5131E-08  0.0000E+00  0.2458E-01  0.0000E+00  0.2259E-01  0.0000E+00  0.2458E-01  0.0000E+00  0.2070E-09  0.0000E+00  0.1009E-09  0.0000E+00  0.1777E-08  0.0000E+00  0.1009E-09  0.0000E+00  0.5252E-08
    -34.351  0.0000E+00  0.2814E-06  0.0000E+00  0.1347E+01  0.0000E+00  0.1273E+01  0.0000E+00  0.1347E+01  0.0000E+00  0.1113E-07  0.0000E+00  0.5661E-08  0.0000E+00  0.9752E-07  0.0000E+00  0.5661E-08  0.0000E+00  0.2888E-06
    -34.132  0.0000E+00  0.6344E-06  0.0000E+00  0.3048E+01  0.0000E+00  0.3115E+01  0.0000E+00  0.3048E+01  0.0000E+00  0.2367E-07  0.0000E+00  0.1369E-07  0.0000E+00  0.2202E-06  0.0000E+00  0.1369E-07  0.0000E+00  0.6571E-06
    -33.914  0.0000E+00  0.2358E-07  0.0000E+00  0.9969E-01  0.0000E+00  0.1389E+00  0.0000E+00  0.9969E-01  0.0000E+00  0.5058E-09  0.0000E+00  0.5930E-09  0.0000E+00  0.8237E-08  0.0000E+00  0.5930E-09  0.0000E+00  0.2538E-07
    -33.696  0.0000E+00  0.0000E+00  0.0000E+00  0.0000E+00  0.0000E+00  0.0000E+00  0.0000E+00  0.0000E+00  0.0000E+00  0.0000E+00  0.0000E+00  0.0000E+00  0.0000E+00  0.0000E+00  0.0000E+00  0.0000E+00  0.0000E+00  0.0000E+00
    -33.477  0.0000E+00  0.0000E+00  0.0000E+00  0.0000E+00  0.0000E+00  0.0000E+00  0.0000E+00  0.0000E+00  0.0000E+00  0.0000E+00  0.0000E+00  0.0000E+00  0.0000E+00  0.0000E+00  0.0000E+00  0.0000E+00  0.0000E+00  0.0000E+00
    -33.259  0.0000E+00  0.0000E+00  0.0000E+00  0.0000E+00  0.0000E+00  0.0000E+00  0.0000E+00  0.0000E+00  0.0000E+00  0.0000E+00  0.0000E+00  0.0000E+00  0.0000E+00  0.0000E+00  0.0000E+00  0.0000E+00  0.0000E+00  0.0000E+00
    -33.041  0.0000E+00  0.0000E+00  0.0000E+00  0.0000E+00  0.0000E+00  0.0000E+00  0.0000E+00  0.0000E+00  0.0000E+00  0.0000E+00  0.0000E+00  0.0000E+00  0.0000E+00  0.0000E+00  0.0000E+00  0.0000E+00  0.0000E+00  0.0000E+00
    -32.822  0.0000E+00  0.0000E+00  0.0000E+00  0.0000E+00  0.0000E+00  0.0000E+00  0.0000E+00  0.0000E+00  0.0000E+00  0.0000E+00  0.0000E+00  0.0000E+00  0.0000E+00  0.0000E+00  0.0000E+00  0.0000E+00  0.0000E+00  0.0000E+00
    -32.604  0.0000E+00  0.0000E+00  0.0000E+00  0.0000E+00  0.0000E+00  0.0000E+00  0.0000E+00  0.0000E+00  0.0000E+00  0.0000E+00  0.0000E+00  0.0000E+00  0.0000E+00  0.0000E+00  0.0000E+00  0.0000E+00  0.0000E+00  0.0000E+00
    -32.386  0.0000E+00  0.0000E+00  0.0000E+00  0.0000E+00  0.0000E+00  0.0000E+00  0.0000E+00  0.0000E+00  0.0000E+00  0.0000E+00  0.0000E+00  0.0000E+00  0.0000E+00  0.0000E+00  0.0000E+00  0.0000E+00  0.0000E+00  0.0000E+00
    -32.167  0.0000E+00  0.0000E+00  0.0000E+00  0.0000E+00  0.0000E+00  0.0000E+00  0.0000E+00  0.0000E+00  0.0000E+00  0.0000E+00  0.0000E+00  0.0000E+00  0.0000E+00  0.0000E+00  0.0000E+00  0.0000E+00  0.0000E+00  0.0000E+00
    -31.949  0.0000E+00  0.0000E+00  0.0000E+00  0.0000E+00  0.0000E+00  0.0000E+00  0.0000E+00  0.0000E+00  0.0000E+00  0.0000E+00  0.0000E+00  0.0000E+00  0.0000E+00  0.0000E+00  0.0000E+00  0.0000E+00  0.0000E+00  0.0000E+00
    -31.731  0.0000E+00  0.0000E+00  0.0000E+00  0.0000E+00  0.0000E+00  0.0000E+00  0.0000E+00  0.0000E+00  0.0000E+00  0.0000E+00  0.0000E+00  0.0000E+00  0.0000E+00  0.0000E+00  0.0000E+00  0.0000E+00  0.0000E+00  0.0000E+00
    -31.513  0.0000E+00  0.0000E+00  0.0000E+00  0.0000E+00  0.0000E+00  0.0000E+00  0.0000E+00  0.0000E+00  0.0000E+00  0.0000E+00  0.0000E+00  0.0000E+00  0.0000E+00  0.0000E+00  0.0000E+00  0.0000E+00  0.0000E+00  0.0000E+00
    -31.294  0.0000E+00  0.0000E+00  0.0000E+00  0.0000E+00  0.0000E+00  0.0000E+00  0.0000E+00  0.0000E+00  0.0000E+00  0.0000E+00  0.0000E+00  0.0000E+00  0.0000E+00  0.0000E+00  0.0000E+00  0.0000E+00  0.0000E+00  0.0000E+00
    -31.076  0.0000E+00  0.0000E+00  0.0000E+00  0.0000E+00  0.0000E+00  0.0000E+00  0.0000E+00  0.0000E+00  0.0000E+00  0.0000E+00  0.0000E+00  0.0000E+00  0.0000E+00  0.0000E+00  0.0000E+00  0.0000E+00  0.0000E+00  0.0000E+00
    -30.858  0.0000E+00  0.0000E+00  0.0000E+00  0.0000E+00  0.0000E+00  0.0000E+00  0.0000E+00  0.0000E+00  0.0000E+00  0.0000E+00  0.0000E+00  0.0000E+00  0.0000E+00  0.0000E+00  0.0000E+00  0.0000E+00  0.0000E+00  0.0000E+00
    -30.639  0.0000E+00  0.0000E+00  0.0000E+00  0.0000E+00  0.0000E+00  0.0000E+00  0.0000E+00  0.0000E+00  0.0000E+00  0.0000E+00  0.0000E+00  0.0000E+00  0.0000E+00  0.0000E+00  0.0000E+00  0.0000E+00  0.0000E+00  0.0000E+00
    -30.421  0.0000E+00  0.0000E+00  0.0000E+00  0.0000E+00  0.0000E+00  0.0000E+00  0.0000E+00  0.0000E+00  0.0000E+00  0.0000E+00  0.0000E+00  0.0000E+00  0.0000E+00  0.0000E+00  0.0000E+00  0.0000E+00  0.0000E+00  0.0000E+00
    -30.203  0.0000E+00  0.0000E+00  0.0000E+00  0.0000E+00  0.0000E+00  0.0000E+00  0.0000E+00  0.0000E+00  0.0000E+00  0.0000E+00  0.0000E+00  0.0000E+00  0.0000E+00  0.0000E+00  0.0000E+00  0.0000E+00  0.0000E+00  0.0000E+00
    -29.984  0.0000E+00  0.0000E+00  0.0000E+00  0.0000E+00  0.0000E+00  0.0000E+00  0.0000E+00  0.0000E+00  0.0000E+00  0.0000E+00  0.0000E+00  0.0000E+00  0.0000E+00  0.0000E+00  0.0000E+00  0.0000E+00  0.0000E+00  0.0000E+00
    -29.766  0.0000E+00  0.0000E+00  0.0000E+00  0.0000E+00  0.0000E+00  0.0000E+00  0.0000E+00  0.0000E+00  0.0000E+00  0.0000E+00  0.0000E+00  0.0000E+00  0.0000E+00  0.0000E+00  0.0000E+00  0.0000E+00  0.0000E+00  0.0000E+00
    -29.548  0.0000E+00  0.0000E+00  0.0000E+00  0.0000E+00  0.0000E+00  0.0000E+00  0.0000E+00  0.0000E+00  0.0000E+00  0.0000E+00  0.0000E+00  0.0000E+00  0.0000E+00  0.0000E+00  0.0000E+00  0.0000E+00  0.0000E+00  0.0000E+00
    -29.329  0.0000E+00  0.0000E+00  0.0000E+00  0.0000E+00  0.0000E+00  0.0000E+00  0.0000E+00  0.0000E+00  0.0000E+00  0.0000E+00  0.0000E+00  0.0000E+00  0.0000E+00  0.0000E+00  0.0000E+00  0.0000E+00  0.0000E+00  0.0000E+00
    -29.111  0.0000E+00  0.0000E+00  0.0000E+00  0.0000E+00  0.0000E+00  0.0000E+00  0.0000E+00  0.0000E+00  0.0000E+00  0.0000E+00  0.0000E+00  0.0000E+00  0.0000E+00  0.0000E+00  0.0000E+00  0.0000E+00  0.0000E+00  0.0000E+00
    -28.893  0.0000E+00  0.0000E+00  0.0000E+00  0.0000E+00  0.0000E+00  0.0000E+00  0.0000E+00  0.0000E+00  0.0000E+00  0.0000E+00  0.0000E+00  0.0000E+00  0.0000E+00  0.0000E+00  0.0000E+00  0.0000E+00  0.0000E+00  0.0000E+00
    -28.674  0.0000E+00  0.0000E+00  0.0000E+00  0.0000E+00  0.0000E+00  0.0000E+00  0.0000E+00  0.0000E+00  0.0000E+00  0.0000E+00  0.0000E+00  0.0000E+00  0.0000E+00  0.0000E+00  0.0000E+00  0.0000E+00  0.0000E+00  0.0000E+00
    -28.456  0.0000E+00  0.0000E+00  0.0000E+00  0.0000E+00  0.0000E+00  0.0000E+00  0.0000E+00  0.0000E+00  0.0000E+00  0.0000E+00  0.0000E+00  0.0000E+00  0.0000E+00  0.0000E+00  0.0000E+00  0.0000E+00  0.0000E+00  0.0000E+00
    -28.238  0.0000E+00  0.0000E+00  0.0000E+00  0.0000E+00  0.0000E+00  0.0000E+00  0.0000E+00  0.0000E+00  0.0000E+00  0.0000E+00  0.0000E+00  0.0000E+00  0.0000E+00  0.0000E+00  0.0000E+00  0.0000E+00  0.0000E+00  0.0000E+00
    -28.020  0.0000E+00  0.0000E+00  0.0000E+00  0.0000E+00  0.0000E+00  0.0000E+00  0.0000E+00  0.0000E+00  0.0000E+00  0.0000E+00  0.0000E+00  0.0000E+00  0.0000E+00  0.0000E+00  0.0000E+00  0.0000E+00  0.0000E+00  0.0000E+00
    -27.801  0.0000E+00  0.0000E+00  0.0000E+00  0.0000E+00  0.0000E+00  0.0000E+00  0.0000E+00  0.0000E+00  0.0000E+00  0.0000E+00  0.0000E+00  0.0000E+00  0.0000E+00  0.0000E+00  0.0000E+00  0.0000E+00  0.0000E+00  0.0000E+00