   8   8   1   0
  0.1730861E+02  0.4043400E-09  0.4043400E-09  0.8469522E-09  0.5000000E-15
  1.000000000000000E-004
  CAR 
 unknown system                          
     17.76747856    -45.27001198  301      7.00021200      1.00000000
    -45.270  0.0000E+00  0.0000E+00  0.0000E+00  0.0000E+00
    -45.060  0.0000E+00  0.0000E+00  0.0000E+00  0.0000E+00
    -44.850  0.0000E+00  0.0000E+00  0.0000E+00  0.0000E+00
    -44.640  0.0000E+00  0.0000E+00  0.0000E+00  0.0000E+00
    -44.430  0.0000E+00  0.0000E+00  0.0000E+00  0.0000E+00
    -44.219  0.0000E+00  0.0000E+00  0.0000E+00  0.0000E+00
    -44.009  0.0000E+00  0.0000E+00  0.0000E+00  0.0000E+00
    -43.799  0.0000E+00  0.0000E+00  0.0000E+00  0.0000E+00
    -43.589  0.0000E+00  0.0000E+00  0.0000E+00  0.0000E+00
    -43.379  0.0000E+00  0.0000E+00  0.0000E+00  0.0000E+00
    -43.169  0.0000E+00  0.0000E+00  0.0000E+00  0.0000E+00
    -42.959  0.2900E-03  0.0000E+00  0.6094E-04  0.0000E+00
    -42.749  0.2024E-01  0.0000E+00  0.4315E-02  0.0000E+00
    -42.538  0.1270E+01  0.0000E+00  0.2712E+00  0.0000E+00
    -42.328  0.1769E+02  0.0000E+00  0.3987E+01  0.0000E+00
    -42.118  0.9263E+01  0.0000E+00  0.5934E+01  0.0000E+00
    -41.908  0.2490E+00  0.0000E+00  0.5999E+01  0.0000E+00
    -41.698  0.0000E+00  0.0000E+00  0.6000E+01  0.0000E+00
    -41.488  0.0000E+00  0.0000E+00  0.6000E+01  0.0000E+00
    -41.278  0.0000E+00  0.0000E+00  0.6000E+01  0.0000E+00
    -41.068  0.0000E+00  0.0000E+00  0.6000E+01  0.0000E+00
    -40.857  0.0000E+00  0.0000E+00  0.6000E+01  0.0000E+00
    -40.647  0.0000E+00  0.0000E+00  0.6000E+01  0.0000E+00
    -40.437  0.0000E+00  0.0000E+00  0.6000E+01  0.0000E+00
    -40.227  0.0000E+00  0.0000E+00  0.6000E+01  0.0000E+00
    -40.017  0.0000E+00  0.0000E+00  0.6000E+01  0.0000E+00
    -39.807  0.0000E+00  0.0000E+00  0.6000E+01  0.0000E+00
    -39.597  0.0000E+00  0.3767E-02  0.6000E+01  0.7916E-03
    -39.387  0.0000E+00  0.2459E+00  0.6000E+01  0.5246E-01
    -39.176  0.0000E+00  0.1029E+02  0.6000E+01  0.2215E+01
    -38.966  0.0000E+00  0.1729E+02  0.6000E+01  0.5848E+01
    -38.756  0.0000E+00  0.7111E+00  0.6000E+01  0.5998E+01
    -38.546  0.0000E+00  0.0000E+00  0.6000E+01  0.6000E+01
    -38.336  0.0000E+00  0.0000E+00  0.6000E+01  0.6000E+01
    -38.126  0.0000E+00  0.0000E+00  0.6000E+01  0.6000E+01
    -37.916  0.0000E+00  0.0000E+00  0.6000E+01  0.6000E+01
    -37.706  0.0000E+00  0.0000E+00  0.6000E+01  0.6000E+01
    -37.495  0.0000E+00  0.0000E+00  0.6000E+01  0.6000E+01
    -37.285  0.0000E+00  0.0000E+00  0.6000E+01  0.6000E+01
    -37.075  0.0000E+00  0.0000E+00  0.6000E+01  0.6000E+01
    -36.865  0.0000E+00  0.0000E+00  0.6000E+01  0.6000E+01
    -36.655  0.0000E+00  0.0000E+00  0.6000E+01  0.6000E+01
    -36.445  0.0000E+00  0.0000E+00  0.6000E+01  0.6000E+01
    -36.235  0.0000E+00  0.0000E+00  0.6000E+01  0.6000E+01
    -36.025  0.0000E+00  0.0000E+00  0.6000E+01  0.6000E+01
    -35.814  0.0000E+00  0.0000E+00  0.6000E+01  0.6000E+01
    -35.604  0.0000E+00  0.0000E+00  0.6000E+01  0.6000E+01
    -35.394  0.0000E+00  0.0000E+00  0.6000E+01  0.6000E+01
    -35.184  0.0000E+00  0.0000E+00  0.6000E+01  0.6000E+01
    -34.974  0.0000E+00  0.0000E+00  0.6000E+01  0.6000E+01
    -34.764  0.0000E+00  0.0000E+00  0.6000E+01  0.6000E+01
    -34.554  0.0000E+00  0.0000E+00  0.6000E+01  0.6000E+01
    -34.344  0.0000E+00  0.0000E+00  0.6000E+01  0.6000E+01
    -34.133  0.0000E+00  0.0000E+00  0.6000E+01  0.6000E+01
    -33.923  0.0000E+00  0.0000E+00  0.6000E+01  0.6000E+01
    -33.713  0.0000E+00  0.0000E+00  0.6000E+01  0.6000E+01
    -33.503  0.0000E+00  0.0000E+00  0.6000E+01  0.6000E+01
    -33.293  0.0000E+00  0.0000E+00  0.6000E+01  0.6000E+01
    -33.083  0.0000E+00  0.0000E+00  0.6000E+01  0.6000E+01
    -32.873  0.0000E+00  0.0000E+00  0.6000E+01  0.6000E+01
    -32.663  0.0000E+00  0.0000E+00  0.6000E+01  0.6000E+01
    -32.452  0.0000E+00  0.0000E+00  0.6000E+01  0.6000E+01
    -32.242  0.0000E+00  0.0000E+00  0.6000E+01  0.6000E+01
    -32.032  0.0000E+00  0.0000E+00  0.6000E+01  0.6000E+01
    -31.822  0.0000E+00  0.0000E+00  0.6000E+01  0.6000E+01
    -31.612  0.0000E+00  0.0000E+00  0.6000E+01  0.6000E+01
    -31.402  0.0000E+00  0.0000E+00  0.6000E+01  0.6000E+01
    -31.192  0.0000E+00  0.0000E+00  0.6000E+01  0.6000E+01
    -30.982  0.0000E+00  0.0000E+00  0.6000E+01  0.6000E+01
    -30.771  0.0000E+00  0.0000E+00  0.6000E+01  0.6000E+01
    -30.561  0.0000E+00  0.0000E+00  0.6000E+01  0.6000E+01
    -30.351  0.0000E+00  0.0000E+00  0.6000E+01  0.6000E+01
    -30.141  0.0000E+00  0.0000E+00  0.6000E+01  0.6000E+01
    -29.931  0.0000E+00  0.0000E+00  0.6000E+01  0.6000E+01
    -29.721  0.0000E+00  0.0000E+00  0.6000E+01  0.6000E+01
    -29.511  0.0000E+00  0.0000E+00  0.6000E+01  0.6000E+01
    -29.301  0.0000E+00  0.0000E+00  0.6000E+01  0.6000E+01
    -29.090  0.0000E+00  0.0000E+00  0.6000E+01  0.6000E+01
    -28.880  0.0000E+00  0.0000E+00  0.6000E+01  0.6000E+01
    -28.670  0.0000E+00  0.0000E+00  0.6000E+01  0.6000E+01
    -28.460  0.0000E+00  0.0000E+00  0.6000E+01  0.6000E+01
    -28.250  0.0000E+00  0.0000E+00  0.6000E+01  0.6000E+01
    -28.040  0.0000E+00  0.0000E+00  0.6000E+01  0.6000E+01
    -27.830  0.0000E+00  0.0000E+00  0.6000E+01  0.6000E+01
    -27.620  0.0000E+00  0.0000E+00  0.6000E+01  0.6000E+01
    -27.409  0.0000E+00  0.0000E+00  0.6000E+01  0.6000E+01
    -27.199  0.0000E+00  0.0000E+00  0.6000E+01  0.6000E+01
    -26.989  0.0000E+00  0.0000E+00  0.6000E+01  0.6000E+01
    -26.779  0.0000E+00  0.0000E+00  0.6000E+01  0.6000E+01
    -26.569  0.0000E+00  0.0000E+00  0.6000E+01  0.6000E+01
    -26.359  0.0000E+00  0.0000E+00  0.6000E+01  0.6000E+01
    -26.149  0.0000E+00  0.0000E+00  0.6000E+01  0.6000E+01
    -25.939  0.0000E+00  0.0000E+00  0.6000E+01  0.6000E+01
    -25.728  0.0000E+00  0.0000E+00  0.6000E+01  0.6000E+01
    -25.518  0.0000E+00  0.0000E+00  0.6000E+01  0.6000E+01
    -25.308  0.0000E+00  0.0000E+00  0.6000E+01  0.6000E+01
    -25.098  0.0000E+00  0.0000E+00  0.6000E+01  0.6000E+01
    -24.888  0.0000E+00  0.0000E+00  0.6000E+01  0.6000E+01
    -24.678  0.0000E+00  0.0000E+00  0.6000E+01  0.6000E+01
    -24.468  0.0000E+00  0.0000E+00  0.6000E+01  0.6000E+01
    -24.258  0.0000E+00  0.0000E+00  0.6000E+01  0.6000E+01
    -24.047  0.0000E+00  0.0000E+00  0.6000E+01  0.6000E+01
    -23.837  0.0000E+00  0.0000E+00  0.6000E+01  0.6000E+01
    -23.627  0.0000E+00  0.0000E+00  0.6000E+01  0.6000E+01
    -23.417  0.0000E+00  0.0000E+00  0.6000E+01  0.6000E+01
    -23.207  0.0000E+00  0.0000E+00  0.6000E+01  0.6000E+01
    -22.997  0.0000E+00  0.0000E+00  0.6000E+01  0.6000E+01
    -22.787  0.0000E+00  0.0000E+00  0.6000E+01  0.6000E+01
    -22.577  0.0000E+00  0.0000E+00  0.6000E+01  0.6000E+01
    -22.366  0.0000E+00  0.0000E+00  0.6000E+01  0.6000E+01
    -22.156  0.0000E+00  0.0000E+00  0.6000E+01  0.6000E+01
    -21.946  0.0000E+00  0.0000E+00  0.6000E+01  0.6000E+01
    -21.736  0.0000E+00  0.0000E+00  0.6000E+01  0.6000E+01
    -21.526  0.0000E+00  0.0000E+00  0.6000E+01  0.6000E+01
    -21.316  0.0000E+00  0.0000E+00  0.6000E+01  0.6000E+01
    -21.106  0.0000E+00  0.0000E+00  0.6000E+01  0.6000E+01
    -20.896  0.0000E+00  0.0000E+00  0.6000E+01  0.6000E+01
    -20.685  0.0000E+00  0.0000E+00  0.6000E+01  0.6000E+01
    -20.475  0.0000E+00  0.0000E+00  0.6000E+01  0.6000E+01
    -20.265  0.0000E+00  0.0000E+00  0.6000E+01  0.6000E+01
    -20.055  0.0000E+00  0.0000E+00  0.6000E+01  0.6000E+01
    -19.845  0.0000E+00  0.0000E+00  0.6000E+01  0.6000E+01
    -19.635  0.0000E+00  0.0000E+00  0.6000E+01  0.6000E+01
    -19.425  0.0000E+00  0.0000E+00  0.6000E+01  0.6000E+01
    -19.215  0.0000E+00  0.0000E+00  0.6000E+01  0.6000E+01
    -19.004  0.0000E+00  0.0000E+00  0.6000E+01  0.6000E+01
    -18.794  0.0000E+00  0.0000E+00  0.6000E+01  0.6000E+01
    -18.584  0.0000E+00  0.0000E+00  0.6000E+01  0.6000E+01
    -18.374  0.0000E+00  0.0000E+00  0.6000E+01  0.6000E+01
    -18.164  0.0000E+00  0.0000E+00  0.6000E+01  0.6000E+01
    -17.954  0.0000E+00  0.0000E+00  0.6000E+01  0.6000E+01
    -17.744  0.0000E+00  0.0000E+00  0.6000E+01  0.6000E+01
    -17.534  0.0000E+00  0.0000E+00  0.6000E+01  0.6000E+01
    -17.323  0.0000E+00  0.0000E+00  0.6000E+01  0.6000E+01
    -17.113  0.0000E+00  0.0000E+00  0.6000E+01  0.6000E+01
    -16.903  0.0000E+00  0.0000E+00  0.6000E+01  0.6000E+01
    -16.693  0.0000E+00  0.0000E+00  0.6000E+01  0.6000E+01
    -16.483  0.0000E+00  0.0000E+00  0.6000E+01  0.6000E+01
    -16.273  0.0000E+00  0.0000E+00  0.6000E+01  0.6000E+01
    -16.063  0.0000E+00  0.0000E+00  0.6000E+01  0.6000E+01
    -15.853  0.0000E+00  0.0000E+00  0.6000E+01  0.6000E+01
    -15.642  0.0000E+00  0.0000E+00  0.6000E+01  0.6000E+01
    -15.432  0.0000E+00  0.0000E+00  0.6000E+01  0.6000E+01
    -15.222  0.0000E+00  0.0000E+00  0.6000E+01  0.6000E+01
    -15.012  0.0000E+00  0.0000E+00  0.6000E+01  0.6000E+01
    -14.802  0.0000E+00  0.0000E+00  0.6000E+01  0.6000E+01
    -14.592  0.0000E+00  0.0000E+00  0.6000E+01  0.6000E+01
    -14.382  0.0000E+00  0.0000E+00  0.6000E+01  0.6000E+01
    -14.172  0.0000E+00  0.0000E+00  0.6000E+01  0.6000E+01
    -13.961  0.0000E+00  0.0000E+00  0.6000E+01  0.6000E+01
    -13.751  0.0000E+00  0.0000E+00  0.6000E+01  0.6000E+01
    -13.541  0.0000E+00  0.0000E+00  0.6000E+01  0.6000E+01
    -13.331  0.0000E+00  0.0000E+00  0.6000E+01  0.6000E+01
    -13.121  0.0000E+00  0.0000E+00  0.6000E+01  0.6000E+01
    -12.911  0.0000E+00  0.0000E+00  0.6000E+01  0.6000E+01
    -12.701  0.0000E+00  0.0000E+00  0.6000E+01  0.6000E+01
    -12.491  0.0000E+00  0.0000E+00  0.6000E+01  0.6000E+01
    -12.280  0.0000E+00  0.0000E+00  0.6000E+01  0.6000E+01
    -12.070  0.0000E+00  0.0000E+00  0.6000E+01  0.6000E+01
    -11.860  0.0000E+00  0.0000E+00  0.6000E+01  0.6000E+01
    -11.650  0.0000E+00  0.0000E+00  0.6000E+01  0.6000E+01
    -11.440  0.0000E+00  0.0000E+00  0.6000E+01  0.6000E+01
    -11.230  0.0000E+00  0.0000E+00  0.6000E+01  0.6000E+01
    -11.020  0.0000E+00  0.0000E+00  0.6000E+01  0.6000E+01
    -10.810  0.0000E+00  0.0000E+00  0.6000E+01  0.6000E+01
    -10.599  0.0000E+00  0.0000E+00  0.6000E+01  0.6000E+01
    -10.389  0.0000E+00  0.0000E+00  0.6000E+01  0.6000E+01
    -10.179  0.0000E+00  0.0000E+00  0.6000E+01  0.6000E+01
     -9.969  0.0000E+00  0.0000E+00  0.6000E+01  0.6000E+01
     -9.759  0.0000E+00  0.0000E+00  0.6000E+01  0.6000E+01
     -9.549  0.0000E+00  0.0000E+00  0.6000E+01  0.6000E+01
     -9.339  0.0000E+00  0.0000E+00  0.6000E+01  0.6000E+01
     -9.129  0.0000E+00  0.0000E+00  0.6000E+01  0.6000E+01
     -8.918  0.0000E+00  0.0000E+00  0.6000E+01  0.6000E+01
     -8.708  0.0000E+00  0.0000E+00  0.6000E+01  0.6000E+01
     -8.498  0.0000E+00  0.0000E+00  0.6000E+01  0.6000E+01
     -8.288  0.0000E+00  0.0000E+00  0.6000E+01  0.6000E+01
     -8.078  0.0000E+00  0.0000E+00  0.6000E+01  0.6000E+01
     -7.868  0.0000E+00  0.0000E+00  0.6000E+01  0.6000E+01
     -7.658  0.0000E+00  0.0000E+00  0.6000E+01  0.6000E+01
     -7.448  0.0000E+00  0.0000E+00  0.6000E+01  0.6000E+01
     -7.237  0.0000E+00  0.0000E+00  0.6000E+01  0.6000E+01
     -7.027  0.0000E+00  0.0000E+00  0.6000E+01  0.6000E+01
     -6.817  0.0000E+00  0.0000E+00  0.6000E+01  0.6000E+01
     -6.607  0.0000E+00  0.0000E+00  0.6000E+01  0.6000E+01
     -6.397  0.0000E+00  0.0000E+00  0.6000E+01  0.6000E+01
     -6.187  0.0000E+00  0.0000E+00  0.6000E+01  0.6000E+01
     -5.977  0.0000E+00  0.0000E+00  0.6000E+01  0.6000E+01
     -5.767  0.0000E+00  0.0000E+00  0.6000E+01  0.6000E+01
     -5.556  0.0000E+00  0.0000E+00  0.6000E+01  0.6000E+01
     -5.346  0.0000E+00  0.0000E+00  0.6000E+01  0.6000E+01
     -5.136  0.0000E+00  0.0000E+00  0.6000E+01  0.6000E+01
     -4.926  0.0000E+00  0.0000E+00  0.6000E+01  0.6000E+01
     -4.716  0.0000E+00  0.0000E+00  0.6000E+01  0.6000E+01
     -4.506  0.0000E+00  0.0000E+00  0.6000E+01  0.6000E+01
     -4.296  0.0000E+00  0.0000E+00  0.6000E+01  0.6000E+01
     -4.086  0.0000E+00  0.0000E+00  0.6000E+01  0.6000E+01
     -3.875  0.0000E+00  0.0000E+00  0.6000E+01  0.6000E+01
     -3.665  0.0000E+00  0.0000E+00  0.6000E+01  0.6000E+01
     -3.455  0.2301E-06  0.1003E-05  0.6000E+01  0.6000E+01
     -3.245  0.2625E-04  0.7664E-04  0.6000E+01  0.6000E+01
     -3.035  0.1718E-02  0.4746E-02  0.6000E+01  0.6001E+01
     -2.825  0.5195E-01  0.8616E-01  0.6011E+01  0.6019E+01
     -2.615  0.2006E+00  0.2330E+00  0.6053E+01  0.6068E+01
     -2.405  0.2978E+00  0.3245E+00  0.6116E+01  0.6136E+01
     -2.194  0.3839E+00  0.3996E+00  0.6197E+01  0.6221E+01
     -1.984  0.4349E+00  0.4663E+00  0.6289E+01  0.6319E+01
     -1.774  0.5174E+00  0.5261E+00  0.6398E+01  0.6430E+01
     -1.564  0.5270E+00  0.5607E+00  0.6510E+01  0.6548E+01
     -1.354  0.6473E+00  0.6788E+00  0.6646E+01  0.6691E+01
     -1.144  0.6615E+00  0.6599E+00  0.6786E+01  0.6831E+01
     -0.934  0.7140E+00  0.7756E+00  0.6937E+01  0.6994E+01
     -0.724  0.7600E+00  0.7427E+00  0.7097E+01  0.7151E+01
     -0.513  0.7720E+00  0.7753E+00  0.7261E+01  0.7315E+01
     -0.303  0.7825E+00  0.8208E+00  0.7426E+01  0.7488E+01
     -0.093  0.9300E+00  0.8081E+00  0.7622E+01  0.7658E+01
      0.117  0.7689E+00  0.7567E+00  0.7784E+01  0.7818E+01
      0.327  0.9202E+00  0.9203E+00  0.7978E+01  0.8012E+01
      0.537  0.1029E+01  0.1025E+01  0.8196E+01  0.8228E+01
      0.747  0.1049E+01  0.1002E+01  0.8417E+01  0.8440E+01
      0.957  0.1035E+01  0.9828E+00  0.8636E+01  0.8648E+01
      1.168  0.9758E+00  0.8971E+00  0.8842E+01  0.8838E+01
      1.378  0.9237E+00  0.8753E+00  0.9037E+01  0.9023E+01
      1.588  0.1101E+01  0.1035E+01  0.9269E+01  0.9242E+01
      1.798  0.1182E+01  0.1096E+01  0.9520E+01  0.9474E+01
      2.008  0.1334E+01  0.1259E+01  0.9801E+01  0.9740E+01
      2.218  0.1297E+01  0.1180E+01  0.1008E+02  0.9989E+01
      2.428  0.1405E+01  0.1106E+01  0.1037E+02  0.1022E+02
      2.638  0.1384E+01  0.1360E+01  0.1066E+02  0.1051E+02
      2.849  0.1336E+01  0.1087E+01  0.1095E+02  0.1074E+02
      3.059  0.1569E+01  0.1152E+01  0.1128E+02  0.1098E+02
      3.269  0.1568E+01  0.1312E+01  0.1161E+02  0.1126E+02
      3.479  0.1758E+01  0.1472E+01  0.1198E+02  0.1157E+02
      3.689  0.1968E+01  0.1218E+01  0.1240E+02  0.1183E+02
      3.899  0.2388E+01  0.1676E+01  0.1290E+02  0.1218E+02
      4.109  0.2896E+01  0.1514E+01  0.1351E+02  0.1250E+02
      4.319  0.3784E+01  0.1440E+01  0.1431E+02  0.1281E+02
      4.530  0.6809E+01  0.1675E+01  0.1574E+02  0.1316E+02
      4.740  0.6809E+01  0.1699E+01  0.1718E+02  0.1352E+02
      4.950  0.7879E+01  0.1754E+01  0.1884E+02  0.1389E+02
      5.160  0.5986E+01  0.2068E+01  0.2011E+02  0.1432E+02
      5.370  0.5221E+01  0.2093E+01  0.2121E+02  0.1477E+02
      5.580  0.3029E+01  0.2292E+01  0.2185E+02  0.1525E+02
      5.790  0.2306E+01  0.2805E+01  0.2234E+02  0.1584E+02
      6.000  0.1566E+01  0.2563E+01  0.2267E+02  0.1638E+02
      6.211  0.1320E+01  0.2740E+01  0.2295E+02  0.1696E+02
      6.421  0.1697E+01  0.2550E+01  0.2331E+02  0.1750E+02
      6.631  0.2492E+01  0.2857E+01  0.2384E+02  0.1810E+02
      6.841  0.2608E+01  0.3209E+01  0.2439E+02  0.1878E+02
      7.051  0.2385E+01  0.2682E+01  0.2489E+02  0.1935E+02
      7.261  0.1782E+01  0.2001E+01  0.2527E+02  0.1977E+02
      7.471  0.1768E+01  0.1521E+01  0.2564E+02  0.2009E+02
      7.681  0.1839E+01  0.1630E+01  0.2603E+02  0.2044E+02
      7.892  0.1430E+01  0.3419E+01  0.2633E+02  0.2116E+02
      8.102  0.1758E+01  0.6818E+01  0.2670E+02  0.2259E+02
      8.312  0.1928E+01  0.6062E+01  0.2711E+02  0.2387E+02
      8.522  0.1796E+01  0.3723E+01  0.2749E+02  0.2466E+02
      8.732  0.1971E+01  0.3899E+01  0.2791E+02  0.2549E+02
      8.942  0.2110E+01  0.3519E+01  0.2835E+02  0.2623E+02
      9.152  0.1949E+01  0.2966E+01  0.2876E+02  0.2686E+02
      9.362  0.1726E+01  0.3022E+01  0.2913E+02  0.2750E+02
      9.573  0.1798E+01  0.2779E+01  0.2951E+02  0.2808E+02
      9.783  0.1975E+01  0.2884E+01  0.2993E+02  0.2869E+02
      9.993  0.1847E+01  0.2675E+01  0.3032E+02  0.2926E+02
     10.203  0.1957E+01  0.2645E+01  0.3073E+02  0.2982E+02
     10.413  0.1779E+01  0.2432E+01  0.3110E+02  0.3033E+02
     10.623  0.1664E+01  0.2177E+01  0.3146E+02  0.3079E+02
     10.833  0.1751E+01  0.1830E+01  0.3182E+02  0.3118E+02
     11.043  0.1755E+01  0.1852E+01  0.3220E+02  0.3157E+02
     11.254  0.2018E+01  0.1689E+01  0.3262E+02  0.3192E+02
     11.464  0.2366E+01  0.1988E+01  0.3312E+02  0.3234E+02
     11.674  0.2106E+01  0.2751E+01  0.3357E+02  0.3292E+02
     11.884  0.1988E+01  0.2608E+01  0.3399E+02  0.3348E+02
     12.094  0.1847E+01  0.2131E+01  0.3438E+02  0.3393E+02
     12.304  0.1819E+01  0.2101E+01  0.3476E+02  0.3437E+02
     12.514  0.1485E+01  0.2134E+01  0.3507E+02  0.3482E+02
     12.724  0.1135E+01  0.1505E+01  0.3531E+02  0.3514E+02
     12.935  0.9099E+00  0.1261E+01  0.3551E+02  0.3541E+02
     13.145  0.6886E+00  0.8576E+00  0.3565E+02  0.3559E+02
     13.355  0.3438E+00  0.5133E+00  0.3573E+02  0.3570E+02
     13.565  0.3301E+00  0.3045E+00  0.3580E+02  0.3576E+02
     13.775  0.2674E+00  0.2954E+00  0.3585E+02  0.3583E+02
     13.985  0.1974E+00  0.2777E+00  0.3590E+02  0.3588E+02
     14.195  0.2258E+00  0.2027E+00  0.3594E+02  0.3593E+02
     14.405  0.7234E-01  0.1649E+00  0.3596E+02  0.3596E+02
     14.616  0.1459E+00  0.1044E+00  0.3599E+02  0.3598E+02
     14.826  0.4744E-01  0.4394E-01  0.3600E+02  0.3599E+02
     15.036  0.3928E-02  0.2543E-01  0.3600E+02  0.3600E+02
     15.246  0.0000E+00  0.2043E-02  0.3600E+02  0.3600E+02
     15.456  0.0000E+00  0.0000E+00  0.3600E+02  0.3600E+02
     15.666  0.0000E+00  0.0000E+00  0.3600E+02  0.3600E+02
     15.876  0.0000E+00  0.0000E+00  0.3600E+02  0.3600E+02
     16.086  0.0000E+00  0.0000E+00  0.3600E+02  0.3600E+02
     16.297  0.0000E+00  0.0000E+00  0.3600E+02  0.3600E+02
     16.507  0.0000E+00  0.0000E+00  0.3600E+02  0.3600E+02
     16.717  0.0000E+00  0.0000E+00  0.3600E+02  0.3600E+02
     16.927  0.0000E+00  0.0000E+00  0.3600E+02  0.3600E+02
     17.137  0.0000E+00  0.0000E+00  0.3600E+02  0.3600E+02
     17.347  0.0000E+00  0.0000E+00  0.3600E+02  0.3600E+02
     17.557  0.0000E+00  0.0000E+00  0.3600E+02  0.3600E+02
     17.767  0.0000E+00  0.0000E+00  0.3600E+02  0.3600E+02
     17.76747856    -45.27001198  301      7.00021200      1.00000000
    -45.270  0.0000E+00  0.0000E+00  0.0000E+00  0.0000E+00  0.0000E+00  0.0000E+00  0.0000E+00  0.0000E+00  0.0000E+00  0.0000E+00  0.0000E+00  0.0000E+00  0.0000E+00  0.0000E+00  0.0000E+00  0.0000E+00  0.0000E+00  0.0000E+00
    -45.060  0.0000E+00  0.0000E+00  0.0000E+00  0.0000E+00  0.0000E+00  0.0000E+00  0.0000E+00  0.0000E+00  0.0000E+00  0.0000E+00  0.0000E+00  0.0000E+00  0.0000E+00  0.0000E+00  0.0000E+00  0.0000E+00  0.0000E+00  0.0000E+00
    -44.850  0.0000E+00  0.0000E+00  0.0000E+00  0.0000E+00  0.0000E+00  0.0000E+00  0.0000E+00  0.0000E+00  0.0000E+00  0.0000E+00  0.0000E+00  0.0000E+00  0.0000E+00  0.0000E+00  0.0000E+00  0.0000E+00  0.0000E+00  0.0000E+00
    -44.640  0.0000E+00  0.0000E+00  0.0000E+00  0.0000E+00  0.0000E+00  0.0000E+00  0.0000E+00  0.0000E+00  0.0000E+00  0.0000E+00  0.0000E+00  0.0000E+00  0.0000E+00  0.0000E+00  0.0000E+00  0.0000E+00  0.0000E+00  0.0000E+00
    -44.430  0.0000E+00  0.0000E+00  0.0000E+00  0.0000E+00  0.0000E+00  0.0000E+00  0.0000E+00  0.0000E+00  0.0000E+00  0.0000E+00  0.0000E+00  0.0000E+00  0.0000E+00  0.0000E+00  0.0000E+00  0.0000E+00  0.0000E+00  0.0000E+00
    -44.219  0.0000E+00  0.0000E+00  0.0000E+00  0.0000E+00  0.0000E+00  0.0000E+00  0.0000E+00  0.0000E+00  0.0000E+00  0.0000E+00  0.0000E+00  0.0000E+00  0.0000E+00  0.0000E+00  0.0000E+00  0.0000E+00  0.0000E+00  0.0000E+00
    -44.009  0.0000E+00  0.0000E+00  0.0000E+00  0.0000E+00  0.0000E+00  0.0000E+00  0.0000E+00  0.0000E+00  0.0000E+00  0.0000E+00  0.0000E+00  0.0000E+00  0.0000E+00  0.0000E+00  0.0000E+00  0.0000E+00  0.0000E+00  0.0000E+00
    -43.799  0.0000E+00  0.0000E+00  0.0000E+00  0.0000E+00  0.0000E+00  0.0000E+00  0.0000E+00  0.0000E+00  0.0000E+00  0.0000E+00  0.0000E+00  0.0000E+00  0.0000E+00  0.0000E+00  0.0000E+00  0.0000E+00  0.0000E+00  0.0000E+00
    -43.589  0.0000E+00  0.0000E+00  0.0000E+00  0.0000E+00  0.0000E+00  0.0000E+00  0.0000E+00  0.0000E+00  0.0000E+00  0.0000E+00  0.0000E+00  0.0000E+00  0.0000E+00  0.0000E+00  0.0000E+00  0.0000E+00  0.0000E+00  0.0000E+00
    -43.379  0.0000E+00  0.0000E+00  0.0000E+00  0.0000E+00  0.0000E+00  0.0000E+00  0.0000E+00  0.0000E+00  0.0000E+00  0.0000E+00  0.0000E+00  0.0000E+00  0.0000E+00  0.0000E+00  0.0000E+00  0.0000E+00  0.0000E+00  0.0000E+00
    -43.169  0.0000E+00  0.0000E+00  0.0000E+00  0.0000E+00  0.0000E+00  0.0000E+00  0.0000E+00  0.0000E+00  0.0000E+00  0.0000E+00  0.0000E+00  0.0000E+00  0.0000E+00  0.0000E+00  0.0000E+00  0.0000E+00  0.0000E+00  0.0000E+00
    -42.959  0.7536E-13  0.0000E+00  0.7211E-04  0.0000E+00  0.9028E-12  0.0000E+00  0.7211E-04  0.0000E+00  0.4224E-14  0.0000E+00  0.9771E-15  0.0000E+00  0.3132E-13  0.0000E+00  0.9771E-15  0.0000E+00  0.8913E-13  0.0000E+00
    -42.749  0.4963E-11  0.0000E+00  0.4744E-02  0.0000E+00  0.5802E-03  0.0000E+00  0.4744E-02  0.0000E+00  0.2830E-12  0.0000E+00  0.8204E-13  0.0000E+00  0.2070E-11  0.0000E+00  0.8204E-13  0.0000E+00  0.5865E-11  0.0000E+00
    -42.538  0.3107E-09  0.0000E+00  0.2969E+00  0.0000E+00  0.3790E-01  0.0000E+00  0.2969E+00  0.0000E+00  0.1773E-10  0.0000E+00  0.5185E-11  0.0000E+00  0.1296E-09  0.0000E+00  0.5185E-11  0.0000E+00  0.3671E-09  0.0000E+00
    -42.328  0.3755E-08  0.0000E+00  0.3579E+01  0.0000E+00  0.1637E+01  0.0000E+00  0.3579E+01  0.0000E+00  0.2246E-09  0.0000E+00  0.9883E-10  0.0000E+00  0.1582E-08  0.0000E+00  0.9883E-10  0.0000E+00  0.4427E-08  0.0000E+00
    -42.118  0.9012E-09  0.0000E+00  0.8371E+00  0.0000E+00  0.2932E+01  0.0000E+00  0.8371E+00  0.0000E+00  0.7537E-10  0.0000E+00  0.1012E-09  0.0000E+00  0.4128E-09  0.0000E+00  0.1012E-09  0.0000E+00  0.1039E-08  0.0000E+00
    -41.908  0.1122E-11  0.0000E+00  0.7841E-09  0.0000E+00  0.1238E+00  0.0000E+00  0.7841E-09  0.0000E+00  0.1106E-11  0.0000E+00  0.3791E-11  0.0000E+00  0.2087E-11  0.0000E+00  0.3791E-11  0.0000E+00  0.1906E-12  0.0000E+00
    -41.698  0.0000E+00  0.0000E+00  0.0000E+00  0.0000E+00  0.0000E+00  0.0000E+00  0.0000E+00  0.0000E+00  0.0000E+00  0.0000E+00  0.0000E+00  0.0000E+00  0.0000E+00  0.0000E+00  0.0000E+00  0.0000E+00  0.0000E+00  0.0000E+00
    -41.488  0.0000E+00  0.0000E+00  0.0000E+00  0.0000E+00  0.0000E+00  0.0000E+00  0.0000E+00  0.0000E+00  0.0000E+00  0.0000E+00  0.0000E+00  0.0000E+00  0.0000E+00  0.0000E+00  0.0000E+00  0.0000E+00  0.0000E+00  0.0000E+00
    -41.278  0.0000E+00  0.0000E+00  0.0000E+00  0.0000E+00  0.0000E+00  0.0000E+00  0.0000E+00  0.0000E+00  0.0000E+00  0.0000E+00  0.0000E+00  0.0000E+00  0.0000E+00  0.0000E+00  0.0000E+00  0.0000E+00  0.0000E+00  0.0000E+00
    -41.068  0.0000E+00  0.0000E+00  0.0000E+00  0.0000E+00  0.0000E+00  0.0000E+00  0.0000E+00  0.0000E+00  0.0000E+00  0.0000E+00  0.0000E+00  0.0000E+00  0.0000E+00  0.0000E+00  0.0000E+00  0.0000E+00  0.0000E+00  0.0000E+00
    -40.857  0.0000E+00  0.0000E+00  0.0000E+00  0.0000E+00  0.0000E+00  0.0000E+00  0.0000E+00  0.0000E+00  0.0000E+00  0.0000E+00  0.0000E+00  0.0000E+00  0.0000E+00  0.0000E+00  0.0000E+00  0.0000E+00  0.0000E+00  0.0000E+00
    -40.647  0.0000E+00  0.0000E+00  0.0000E+00  0.0000E+00  0.0000E+00  0.0000E+00  0.0000E+00  0.0000E+00  0.0000E+00  0.0000E+00  0.0000E+00  0.0000E+00  0.0000E+00  0.0000E+00  0.0000E+00  0.0000E+00  0.0000E+00  0.0000E+00
    -40.437  0.0000E+00  0.0000E+00  0.0000E+00  0.0000E+00  0.0000E+00  0.0000E+00  0.0000E+00  0.0000E+00  0.0000E+00  0.0000E+00  0.0000E+00  0.0000E+00  0.0000E+00  0.0000E+00  0.0000E+00  0.0000E+00  0.0000E+00  0.0000E+00
    -40.227  0.0000E+00  0.0000E+00  0.0000E+00  0.0000E+00  0.0000E+00  0.0000E+00  0.0000E+00  0.0000E+00  0.0000E+00  0.0000E+00  0.0000E+00  0.0000E+00  0.0000E+00  0.0000E+00  0.0000E+00  0.0000E+00  0.0000E+00  0.0000E+00
    -40.017  0.0000E+00  0.0000E+00  0.0000E+00  0.0000E+00  0.0000E+00  0.0000E+00  0.0000E+00  0.0000E+00  0.0000E+00  0.0000E+00  0.0000E+00  0.0000E+00  0.0000E+00  0.0000E+00  0.0000E+00  0.0000E+00  0.0000E+00  0.0000E+00
    -39.807  0.0000E+00  0.0000E+00  0.0000E+00  0.0000E+00  0.0000E+00  0.0000E+00  0.0000E+00  0.0000E+00  0.0000E+00  0.0000E+00  0.0000E+00  0.0000E+00  0.0000E+00  0.0000E+00  0.0000E+00  0.0000E+00  0.0000E+00  0.0000E+00
    -39.597  0.0000E+00  0.1285E-11  0.0000E+00  0.6881E-03  0.0000E+00  0.4975E-03  0.0000E+00  0.6881E-03  0.0000E+00  0.6265E-13  0.0000E+00  0.2494E-13  0.0000E+00  0.4633E-12  0.0000E+00  0.2494E-13  0.0000E+00  0.1331E-11
    -39.387  0.0000E+00  0.8383E-10  0.0000E+00  0.4488E-01  0.0000E+00  0.3253E-01  0.0000E+00  0.4488E-01  0.0000E+00  0.4086E-11  0.0000E+00  0.1630E-11  0.0000E+00  0.3022E-10  0.0000E+00  0.1630E-11  0.0000E+00  0.8679E-10
    -39.176  0.0000E+00  0.3398E-08  0.0000E+00  0.1819E+01  0.0000E+00  0.1480E+01  0.0000E+00  0.1819E+01  0.0000E+00  0.1664E-09  0.0000E+00  0.7201E-10  0.0000E+00  0.1226E-08  0.0000E+00  0.7201E-10  0.0000E+00  0.3518E-08
    -38.966  0.0000E+00  0.5163E-08  0.0000E+00  0.2763E+01  0.0000E+00  0.3075E+01  0.0000E+00  0.2763E+01  0.0000E+00  0.2570E-09  0.0000E+00  0.1399E-09  0.0000E+00  0.1871E-08  0.0000E+00  0.1399E-09  0.0000E+00  0.5349E-08
    -38.756  0.0000E+00  0.1961E-09  0.0000E+00  0.1049E+00  0.0000E+00  0.1438E+00  0.0000E+00  0.1049E+00  0.0000E+00  0.9895E-11  0.0000E+00  0.6310E-11  0.0000E+00  0.7130E-10  0.0000E+00  0.6310E-11  0.0000E+00  0.2033E-09
    -38.546  0.0000E+00  0.0000E+00  0.0000E+00  0.0000E+00  0.0000E+00  0.0000E+00  0.0000E+00  0.0000E+00  0.0000E+00  0.0000E+00  0.0000E+00  0.0000E+00  0.0000E+00  0.0000E+00  0.0000E+00  0.0000E+00  0.0000E+00  0.0000E+00
    -38.336  0.0000E+00  0.0000E+00  0.0000E+00  0.0000E+00  0.0000E+00  0.0000E+00  0.0000E+00  0.0000E+00  0.0000E+00  0.0000E+00  0.0000E+00  0.0000E+00  0.0000E+00  0.0000E+00  0.0000E+00  0.0000E+00  0.0000E+00  0.0000E+00
    -38.126  0.0000E+00  0.0000E+00  0.0000E+00  0.0000E+00  0.0000E+00  0.0000E+00  0.0000E+00  0.0000E+00  0.0000E+00  0.0000E+00  0.0000E+00  0.0000E+00  0.0000E+00  0.0000E+00  0.0000E+00  0.0000E+00  0.0000E+00  0.0000E+00
    -37.916  0.0000E+00  0.0000E+00  0.0000E+00  0.0000E+00  0.0000E+00  0.0000E+00  0.0000E+00  0.0000E+00  0.0000E+00  0.0000E+00  0.0000E+00  0.0000E+00  0.0000E+00  0.0000E+00  0.0000E+00  0.0000E+00  0.0000E+00  0.0000E+00
    -37.706  0.0000E+00  0.0000E+00  0.0000E+00  0.0000E+00  0.0000E+00  0.0000E+00  0.0000E+00  0.0000E+00  0.0000E+00  0.0000E+00  0.0000E+00  0.0000E+00  0.0000E+00  0.0000E+00  0.0000E+00  0.0000E+00  0.0000E+00  0.0000E+00
    -37.495  0.0000E+00  0.0000E+00  0.0000E+00  0.0000E+00  0.0000E+00  0.0000E+00  0.0000E+00  0.0000E+00  0.0000E+00  0.0000E+00  0.0000E+00  0.0000E+00  0.0000E+00  0.0000E+00  0.0000E+00  0.0000E+00  0.0000E+00  0.0000E+00
    -37.285  0.0000E+00  0.0000E+00  0.0000E+00  0.0000E+00  0.0000E+00  0.0000E+00  0.0000E+00  0.0000E+00  0.0000E+00  0.0000E+00  0.0000E+00  0.0000E+00  0.0000E+00  0.0000E+00  0.0000E+00  0.0000E+00  0.0000E+00  0.0000E+00
    -37.075  0.0000E+00  0.0000E+00  0.0000E+00  0.0000E+00  0.0000E+00  0.0000E+00  0.0000E+00  0.0000E+00  0.0000E+00  0.0000E+00  0.0000E+00  0.0000E+00  0.0000E+00  0.0000E+00  0.0000E+00  0.0000E+00  0.0000E+00  0.0000E+00
    -36.865  0.0000E+00  0.0000E+00  0.0000E+00  0.0000E+00  0.0000E+00  0.0000E+00  0.0000E+00  0.0000E+00  0.0000E+00  0.0000E+00  0.0000E+00  0.0000E+00  0.0000E+00  0.0000E+00  0.0000E+00  0.0000E+00  0.0000E+00  0.0000E+00
    -36.655  0.0000E+00  0.0000E+00  0.0000E+00  0.0000E+00  0.0000E+00  0.0000E+00  0.0000E+00  0.0000E+00  0.0000E+00  0.0000E+00  0.0000E+00  0.0000E+00  0.0000E+00  0.0000E+00  0.0000E+00  0.0000E+00  0.0000E+00  0.0000E+00
    -36.445  0.0000E+00  0.0000E+00  0.0000E+00  0.0000E+00  0.0000E+00  0.0000E+00  0.0000E+00  0.0000E+00  0.0000E+00  0.0000E+00  0.0000E+00  0.0000E+00  0.0000E+00  0.0000E+00  0.0000E+00  0.0000E+00  0.0000E+00  0.0000E+00
    -36.235  0.0000E+00  0.0000E+00  0.0000E+00  0.0000E+00  0.0000E+00  0.0000E+00  0.0000E+00  0.0000E+00  0.0000E+00  0.0000E+00  0.0000E+00  0.0000E+00  0.0000E+00  0.0000E+00  0.0000E+00  0.0000E+00  0.0000E+00  0.0000E+00
    -36.025  0.0000E+00  0.0000E+00  0.0000E+00  0.0000E+00  0.0000E+00  0.0000E+00  0.0000E+00  0.0000E+00  0.0000E+00  0.0000E+00  0.0000E+00  0.0000E+00  0.0000E+00  0.0000E+00  0.0000E+00  0.0000E+00  0.0000E+00  0.0000E+00
    -35.814  0.0000E+00  0.0000E+00  0.0000E+00  0.0000E+00  0.0000E+00  0.0000E+00  0.0000E+00  0.0000E+00  0.0000E+00  0.0000E+00  0.0000E+00  0.0000E+00  0.0000E+00  0.0000E+00  0.0000E+00  0.0000E+00  0.0000E+00  0.0000E+00
    -35.604  0.0000E+00  0.0000E+00  0.0000E+00  0.0000E+00  0.0000E+00  0.0000E+00  0.0000E+00  0.0000E+00  0.0000E+00  0.0000E+00  0.0000E+00  0.0000E+00  0.0000E+00  0.0000E+00  0.0000E+00  0.0000E+00  0.0000E+00  0.0000E+00
    -35.394  0.0000E+00  0.0000E+00  0.0000E+00  0.0000E+00  0.0000E+00  0.0000E+00  0.0000E+00  0.0000E+00  0.0000E+00  0.0000E+00  0.0000E+00  0.0000E+00  0.0000E+00  0.0000E+00  0.0000E+00  0.0000E+00  0.0000E+00  0.0000E+00
    -35.184  0.0000E+00  0.0000E+00  0.0000E+00  0.0000E+00  0.0000E+00  0.0000E+00  0.0000E+00  0.0000E+00  0.0000E+00  0.0000E+00  0.0000E+00  0.0000E+00  0.0000E+00  0.0000E+00  0.0000E+00  0.0000E+00  0.0000E+00  0.0000E+00
    -34.974  0.0000E+00  0.0000E+00  0.0000E+00  0.0000E+00  0.0000E+00  0.0000E+00  0.0000E+00  0.0000E+00  0.0000E+00  0.0000E+00  0.0000E+00  0.0000E+00  0.0000E+00  0.0000E+00  0.0000E+00  0.0000E+00  0.0000E+00  0.0000E+00
    -34.764  0.0000E+00  0.0000E+00  0.0000E+00  0.0000E+00  0.0000E+00  0.0000E+00  0.0000E+00  0.0000E+00  0.0000E+00  0.0000E+00  0.0000E+00  0.0000E+00  0.0000E+00  0.0000E+00  0.0000E+00  0.0000E+00  0.0000E+00  0.0000E+00