   8   8   1   0
  0.1030003E+02  0.3400990E-09  0.3400990E-09  0.7123897E-09  0.5000000E-15
  1.000000000000000E-004
  CAR 
 unknown system                          
     27.45308737    -38.22495877  301     13.34222388      1.00000000
    -38.225  0.0000E+00  0.0000E+00  0.0000E+00  0.0000E+00
    -38.006  0.0000E+00  0.0000E+00  0.0000E+00  0.0000E+00
    -37.787  0.0000E+00  0.0000E+00  0.0000E+00  0.0000E+00
    -37.568  0.0000E+00  0.0000E+00  0.0000E+00  0.0000E+00
    -37.349  0.0000E+00  0.0000E+00  0.0000E+00  0.0000E+00
    -37.130  0.0000E+00  0.0000E+00  0.0000E+00  0.0000E+00
    -36.911  0.0000E+00  0.0000E+00  0.0000E+00  0.0000E+00
    -36.692  0.0000E+00  0.0000E+00  0.0000E+00  0.0000E+00
    -36.474  0.0000E+00  0.0000E+00  0.0000E+00  0.0000E+00
    -36.255  0.0000E+00  0.0000E+00  0.0000E+00  0.0000E+00
    -36.036  0.0000E+00  0.0000E+00  0.0000E+00  0.0000E+00
    -35.817  0.1473E-03  0.0000E+00  0.3225E-04  0.0000E+00
    -35.598  0.1192E-01  0.0000E+00  0.2642E-02  0.0000E+00
    -35.379  0.9042E+00  0.0000E+00  0.2006E+00  0.0000E+00
    -35.160  0.1543E+02  0.0000E+00  0.3579E+01  0.0000E+00
    -34.941  0.1053E+02  0.0000E+00  0.5884E+01  0.0000E+00
    -34.722  0.4677E+00  0.0000E+00  0.5999E+01  0.0000E+00
    -34.503  0.0000E+00  0.0000E+00  0.6000E+01  0.0000E+00
    -34.284  0.0000E+00  0.5607E-02  0.6000E+01  0.1228E-02
    -34.065  0.0000E+00  0.4342E+00  0.6000E+01  0.9629E-01
    -33.846  0.0000E+00  0.1500E+02  0.6000E+01  0.3381E+01
    -33.627  0.0000E+00  0.1170E+02  0.6000E+01  0.5942E+01
    -33.409  0.0000E+00  0.0000E+00  0.6000E+01  0.6000E+01
    -33.190  0.0000E+00  0.0000E+00  0.6000E+01  0.6000E+01
    -32.971  0.0000E+00  0.0000E+00  0.6000E+01  0.6000E+01
    -32.752  0.0000E+00  0.0000E+00  0.6000E+01  0.6000E+01
    -32.533  0.0000E+00  0.0000E+00  0.6000E+01  0.6000E+01
    -32.314  0.0000E+00  0.0000E+00  0.6000E+01  0.6000E+01
    -32.095  0.0000E+00  0.0000E+00  0.6000E+01  0.6000E+01
    -31.876  0.0000E+00  0.0000E+00  0.6000E+01  0.6000E+01
    -31.657  0.0000E+00  0.0000E+00  0.6000E+01  0.6000E+01
    -31.438  0.0000E+00  0.0000E+00  0.6000E+01  0.6000E+01
    -31.219  0.0000E+00  0.0000E+00  0.6000E+01  0.6000E+01
    -31.000  0.0000E+00  0.0000E+00  0.6000E+01  0.6000E+01
    -30.781  0.0000E+00  0.0000E+00  0.6000E+01  0.6000E+01
    -30.563  0.0000E+00  0.0000E+00  0.6000E+01  0.6000E+01
    -30.344  0.0000E+00  0.0000E+00  0.6000E+01  0.6000E+01
    -30.125  0.0000E+00  0.0000E+00  0.6000E+01  0.6000E+01
    -29.906  0.0000E+00  0.0000E+00  0.6000E+01  0.6000E+01
    -29.687  0.0000E+00  0.0000E+00  0.6000E+01  0.6000E+01
    -29.468  0.0000E+00  0.0000E+00  0.6000E+01  0.6000E+01
    -29.249  0.0000E+00  0.0000E+00  0.6000E+01  0.6000E+01
    -29.030  0.0000E+00  0.0000E+00  0.6000E+01  0.6000E+01
    -28.811  0.0000E+00  0.0000E+00  0.6000E+01  0.6000E+01
    -28.592  0.0000E+00  0.0000E+00  0.6000E+01  0.6000E+01
    -28.373  0.0000E+00  0.0000E+00  0.6000E+01  0.6000E+01
    -28.154  0.0000E+00  0.0000E+00  0.6000E+01  0.6000E+01
    -27.935  0.0000E+00  0.0000E+00  0.6000E+01  0.6000E+01
    -27.716  0.0000E+00  0.0000E+00  0.6000E+01  0.6000E+01
    -27.498  0.0000E+00  0.0000E+00  0.6000E+01  0.6000E+01
    -27.279  0.0000E+00  0.0000E+00  0.6000E+01  0.6000E+01
    -27.060  0.0000E+00  0.0000E+00  0.6000E+01  0.6000E+01
    -26.841  0.0000E+00  0.0000E+00  0.6000E+01  0.6000E+01
    -26.622  0.0000E+00  0.0000E+00  0.6000E+01  0.6000E+01
    -26.403  0.0000E+00  0.0000E+00  0.6000E+01  0.6000E+01
    -26.184  0.0000E+00  0.0000E+00  0.6000E+01  0.6000E+01
    -25.965  0.0000E+00  0.0000E+00  0.6000E+01  0.6000E+01
    -25.746  0.0000E+00  0.0000E+00  0.6000E+01  0.6000E+01
    -25.527  0.0000E+00  0.0000E+00  0.6000E+01  0.6000E+01
    -25.308  0.0000E+00  0.0000E+00  0.6000E+01  0.6000E+01
    -25.089  0.0000E+00  0.0000E+00  0.6000E+01  0.6000E+01
    -24.870  0.0000E+00  0.0000E+00  0.6000E+01  0.6000E+01
    -24.651  0.0000E+00  0.0000E+00  0.6000E+01  0.6000E+01
    -24.433  0.0000E+00  0.0000E+00  0.6000E+01  0.6000E+01
    -24.214  0.0000E+00  0.0000E+00  0.6000E+01  0.6000E+01
    -23.995  0.0000E+00  0.0000E+00  0.6000E+01  0.6000E+01
    -23.776  0.0000E+00  0.0000E+00  0.6000E+01  0.6000E+01
    -23.557  0.0000E+00  0.0000E+00  0.6000E+01  0.6000E+01
    -23.338  0.0000E+00  0.0000E+00  0.6000E+01  0.6000E+01
    -23.119  0.0000E+00  0.0000E+00  0.6000E+01  0.6000E+01
    -22.900  0.0000E+00  0.0000E+00  0.6000E+01  0.6000E+01
    -22.681  0.0000E+00  0.0000E+00  0.6000E+01  0.6000E+01
    -22.462  0.0000E+00  0.0000E+00  0.6000E+01  0.6000E+01
    -22.243  0.0000E+00  0.0000E+00  0.6000E+01  0.6000E+01
    -22.024  0.0000E+00  0.0000E+00  0.6000E+01  0.6000E+01
    -21.805  0.0000E+00  0.0000E+00  0.6000E+01  0.6000E+01
    -21.587  0.0000E+00  0.0000E+00  0.6000E+01  0.6000E+01
    -21.368  0.0000E+00  0.0000E+00  0.6000E+01  0.6000E+01
    -21.149  0.0000E+00  0.0000E+00  0.6000E+01  0.6000E+01
    -20.930  0.0000E+00  0.0000E+00  0.6000E+01  0.6000E+01
    -20.711  0.0000E+00  0.0000E+00  0.6000E+01  0.6000E+01
    -20.492  0.0000E+00  0.0000E+00  0.6000E+01  0.6000E+01
    -20.273  0.0000E+00  0.0000E+00  0.6000E+01  0.6000E+01
    -20.054  0.0000E+00  0.0000E+00  0.6000E+01  0.6000E+01
    -19.835  0.0000E+00  0.0000E+00  0.6000E+01  0.6000E+01
    -19.616  0.0000E+00  0.0000E+00  0.6000E+01  0.6000E+01
    -19.397  0.0000E+00  0.0000E+00  0.6000E+01  0.6000E+01
    -19.178  0.0000E+00  0.0000E+00  0.6000E+01  0.6000E+01
    -18.959  0.0000E+00  0.0000E+00  0.6000E+01  0.6000E+01
    -18.740  0.0000E+00  0.0000E+00  0.6000E+01  0.6000E+01
    -18.522  0.0000E+00  0.0000E+00  0.6000E+01  0.6000E+01
    -18.303  0.0000E+00  0.0000E+00  0.6000E+01  0.6000E+01
    -18.084  0.0000E+00  0.0000E+00  0.6000E+01  0.6000E+01
    -17.865  0.0000E+00  0.0000E+00  0.6000E+01  0.6000E+01
    -17.646  0.0000E+00  0.0000E+00  0.6000E+01  0.6000E+01
    -17.427  0.0000E+00  0.0000E+00  0.6000E+01  0.6000E+01
    -17.208  0.0000E+00  0.0000E+00  0.6000E+01  0.6000E+01
    -16.989  0.0000E+00  0.0000E+00  0.6000E+01  0.6000E+01
    -16.770  0.0000E+00  0.0000E+00  0.6000E+01  0.6000E+01
    -16.551  0.0000E+00  0.0000E+00  0.6000E+01  0.6000E+01
    -16.332  0.0000E+00  0.0000E+00  0.6000E+01  0.6000E+01
    -16.113  0.0000E+00  0.0000E+00  0.6000E+01  0.6000E+01
    -15.894  0.0000E+00  0.0000E+00  0.6000E+01  0.6000E+01
    -15.675  0.0000E+00  0.0000E+00  0.6000E+01  0.6000E+01
    -15.457  0.0000E+00  0.0000E+00  0.6000E+01  0.6000E+01
    -15.238  0.0000E+00  0.0000E+00  0.6000E+01  0.6000E+01
    -15.019  0.0000E+00  0.0000E+00  0.6000E+01  0.6000E+01
    -14.800  0.0000E+00  0.0000E+00  0.6000E+01  0.6000E+01
    -14.581  0.0000E+00  0.0000E+00  0.6000E+01  0.6000E+01
    -14.362  0.0000E+00  0.0000E+00  0.6000E+01  0.6000E+01
    -14.143  0.0000E+00  0.0000E+00  0.6000E+01  0.6000E+01
    -13.924  0.0000E+00  0.0000E+00  0.6000E+01  0.6000E+01
    -13.705  0.0000E+00  0.0000E+00  0.6000E+01  0.6000E+01
    -13.486  0.0000E+00  0.0000E+00  0.6000E+01  0.6000E+01
    -13.267  0.0000E+00  0.0000E+00  0.6000E+01  0.6000E+01
    -13.048  0.0000E+00  0.0000E+00  0.6000E+01  0.6000E+01
    -12.829  0.0000E+00  0.0000E+00  0.6000E+01  0.6000E+01
    -12.611  0.0000E+00  0.0000E+00  0.6000E+01  0.6000E+01
    -12.392  0.0000E+00  0.0000E+00  0.6000E+01  0.6000E+01
    -12.173  0.0000E+00  0.0000E+00  0.6000E+01  0.6000E+01
    -11.954  0.0000E+00  0.0000E+00  0.6000E+01  0.6000E+01
    -11.735  0.0000E+00  0.0000E+00  0.6000E+01  0.6000E+01
    -11.516  0.0000E+00  0.0000E+00  0.6000E+01  0.6000E+01
    -11.297  0.0000E+00  0.0000E+00  0.6000E+01  0.6000E+01
    -11.078  0.0000E+00  0.0000E+00  0.6000E+01  0.6000E+01
    -10.859  0.0000E+00  0.0000E+00  0.6000E+01  0.6000E+01
    -10.640  0.0000E+00  0.0000E+00  0.6000E+01  0.6000E+01
    -10.421  0.0000E+00  0.0000E+00  0.6000E+01  0.6000E+01
    -10.202  0.0000E+00  0.0000E+00  0.6000E+01  0.6000E+01
     -9.983  0.0000E+00  0.0000E+00  0.6000E+01  0.6000E+01
     -9.764  0.0000E+00  0.0000E+00  0.6000E+01  0.6000E+01
     -9.546  0.0000E+00  0.0000E+00  0.6000E+01  0.6000E+01
     -9.327  0.0000E+00  0.0000E+00  0.6000E+01  0.6000E+01
     -9.108  0.0000E+00  0.0000E+00  0.6000E+01  0.6000E+01
     -8.889  0.0000E+00  0.0000E+00  0.6000E+01  0.6000E+01
     -8.670  0.0000E+00  0.0000E+00  0.6000E+01  0.6000E+01
     -8.451  0.0000E+00  0.0000E+00  0.6000E+01  0.6000E+01
     -8.232  0.0000E+00  0.0000E+00  0.6000E+01  0.6000E+01
     -8.013  0.0000E+00  0.0000E+00  0.6000E+01  0.6000E+01
     -7.794  0.0000E+00  0.0000E+00  0.6000E+01  0.6000E+01
     -7.575  0.0000E+00  0.0000E+00  0.6000E+01  0.6000E+01
     -7.356  0.0000E+00  0.0000E+00  0.6000E+01  0.6000E+01
     -7.137  0.0000E+00  0.0000E+00  0.6000E+01  0.6000E+01
     -6.918  0.0000E+00  0.0000E+00  0.6000E+01  0.6000E+01
     -6.699  0.0000E+00  0.0000E+00  0.6000E+01  0.6000E+01
     -6.481  0.0000E+00  0.0000E+00  0.6000E+01  0.6000E+01
     -6.262  0.0000E+00  0.0000E+00  0.6000E+01  0.6000E+01
     -6.043  0.0000E+00  0.0000E+00  0.6000E+01  0.6000E+01
     -5.824  0.0000E+00  0.0000E+00  0.6000E+01  0.6000E+01
     -5.605  0.0000E+00  0.0000E+00  0.6000E+01  0.6000E+01
     -5.386  0.0000E+00  0.0000E+00  0.6000E+01  0.6000E+01
     -5.167  0.0000E+00  0.0000E+00  0.6000E+01  0.6000E+01
     -4.948  0.0000E+00  0.0000E+00  0.6000E+01  0.6000E+01
     -4.729  0.0000E+00  0.0000E+00  0.6000E+01  0.6000E+01
     -4.510  0.0000E+00  0.0000E+00  0.6000E+01  0.6000E+01
     -4.291  0.0000E+00  0.0000E+00  0.6000E+01  0.6000E+01
     -4.072  0.0000E+00  0.0000E+00  0.6000E+01  0.6000E+01
     -3.853  0.0000E+00  0.0000E+00  0.6000E+01  0.6000E+01
     -3.635  0.0000E+00  0.0000E+00  0.6000E+01  0.6000E+01
     -3.416  0.0000E+00  0.0000E+00  0.6000E+01  0.6000E+01
     -3.197  0.0000E+00  0.0000E+00  0.6000E+01  0.6000E+01
     -2.978  0.0000E+00  0.0000E+00  0.6000E+01  0.6000E+01
     -2.759  0.0000E+00  0.0000E+00  0.6000E+01  0.6000E+01
     -2.540  0.0000E+00  0.0000E+00  0.6000E+01  0.6000E+01
     -2.321  0.0000E+00  0.0000E+00  0.6000E+01  0.6000E+01
     -2.102  0.0000E+00  0.0000E+00  0.6000E+01  0.6000E+01
     -1.883  0.0000E+00  0.0000E+00  0.6000E+01  0.6000E+01
     -1.664  0.0000E+00  0.0000E+00  0.6000E+01  0.6000E+01
     -1.445  0.0000E+00  0.0000E+00  0.6000E+01  0.6000E+01
     -1.226  0.0000E+00  0.0000E+00  0.6000E+01  0.6000E+01
     -1.007  0.0000E+00  0.0000E+00  0.6000E+01  0.6000E+01
     -0.788  0.5041E-06  0.5074E-07  0.6000E+01  0.6000E+01
     -0.570  0.5318E-04  0.1306E-04  0.6000E+01  0.6000E+01
     -0.351  0.3754E-02  0.1009E-02  0.6001E+01  0.6000E+01
     -0.132  0.6097E-01  0.3297E-01  0.6014E+01  0.6007E+01
      0.087  0.1442E+00  0.1166E+00  0.6046E+01  0.6033E+01
      0.306  0.1877E+00  0.1836E+00  0.6087E+01  0.6073E+01
      0.525  0.2442E+00  0.2272E+00  0.6141E+01  0.6123E+01
      0.744  0.2864E+00  0.2739E+00  0.6204E+01  0.6183E+01
      0.963  0.2835E+00  0.2732E+00  0.6267E+01  0.6243E+01
      1.182  0.3565E+00  0.3565E+00  0.6345E+01  0.6322E+01
      1.401  0.3806E+00  0.3819E+00  0.6429E+01  0.6406E+01
      1.620  0.3801E+00  0.3561E+00  0.6512E+01  0.6484E+01
      1.839  0.4570E+00  0.4330E+00  0.6613E+01  0.6579E+01
      2.058  0.4755E+00  0.4987E+00  0.6718E+01  0.6689E+01
      2.277  0.4687E+00  0.4847E+00  0.6821E+01  0.6795E+01
      2.495  0.5628E+00  0.4897E+00  0.6944E+01  0.6903E+01
      2.714  0.5511E+00  0.5787E+00  0.7066E+01  0.7030E+01
      2.933  0.5433E+00  0.5287E+00  0.7185E+01  0.7147E+01
      3.152  0.5661E+00  0.5762E+00  0.7310E+01  0.7274E+01
      3.371  0.5381E+00  0.5262E+00  0.7429E+01  0.7389E+01
      3.590  0.7645E+00  0.7031E+00  0.7597E+01  0.7544E+01
      3.809  0.5909E+00  0.6005E+00  0.7727E+01  0.7676E+01
      4.028  0.6699E+00  0.6546E+00  0.7874E+01  0.7821E+01
      4.247  0.7123E+00  0.6510E+00  0.8031E+01  0.7964E+01
      4.466  0.8295E+00  0.7707E+00  0.8214E+01  0.8133E+01
      4.685  0.7831E+00  0.8072E+00  0.8386E+01  0.8311E+01
      4.904  0.8537E+00  0.8590E+00  0.8574E+01  0.8500E+01
      5.123  0.7772E+00  0.7491E+00  0.8745E+01  0.8665E+01
      5.341  0.7044E+00  0.7689E+00  0.8900E+01  0.8834E+01
      5.560  0.7135E+00  0.6044E+00  0.9058E+01  0.8967E+01
      5.779  0.8126E+00  0.7760E+00  0.9237E+01  0.9138E+01
      5.998  0.7459E+00  0.7623E+00  0.9401E+01  0.9305E+01
      6.217  0.9132E+00  0.8173E+00  0.9602E+01  0.9485E+01
      6.436  0.9192E+00  0.8345E+00  0.9805E+01  0.9668E+01
      6.655  0.9918E+00  0.1006E+01  0.1002E+02  0.9890E+01
      6.874  0.1116E+01  0.9084E+00  0.1027E+02  0.1009E+02
      7.093  0.1049E+01  0.1062E+01  0.1050E+02  0.1032E+02
      7.312  0.1220E+01  0.1045E+01  0.1077E+02  0.1055E+02
      7.531  0.1264E+01  0.1094E+01  0.1105E+02  0.1079E+02
      7.750  0.1189E+01  0.1135E+01  0.1131E+02  0.1104E+02
      7.969  0.1373E+01  0.1154E+01  0.1161E+02  0.1130E+02
      8.188  0.1320E+01  0.1316E+01  0.1190E+02  0.1159E+02
      8.406  0.1300E+01  0.1149E+01  0.1219E+02  0.1184E+02
      8.625  0.1285E+01  0.1305E+01  0.1247E+02  0.1213E+02
      8.844  0.1405E+01  0.1134E+01  0.1278E+02  0.1238E+02
      9.063  0.1140E+01  0.1110E+01  0.1303E+02  0.1262E+02
      9.282  0.1411E+01  0.1130E+01  0.1335E+02  0.1287E+02
      9.501  0.2234E+01  0.1155E+01  0.1384E+02  0.1313E+02
      9.720  0.2729E+01  0.1651E+01  0.1443E+02  0.1349E+02
      9.939  0.3068E+01  0.2318E+01  0.1511E+02  0.1400E+02
     10.158  0.3397E+01  0.2274E+01  0.1586E+02  0.1450E+02
     10.377  0.2865E+01  0.2218E+01  0.1649E+02  0.1499E+02
     10.596  0.2877E+01  0.2923E+01  0.1712E+02  0.1563E+02
     10.815  0.3630E+01  0.2706E+01  0.1792E+02  0.1622E+02
     11.034  0.4225E+01  0.2392E+01  0.1885E+02  0.1675E+02
     11.253  0.3384E+01  0.2790E+01  0.1960E+02  0.1737E+02
     11.471  0.1712E+01  0.3474E+01  0.1998E+02  0.1813E+02
     11.690  0.3023E+00  0.3386E+01  0.2005E+02  0.1888E+02
     11.909  0.6664E+00  0.2750E+01  0.2019E+02  0.1948E+02
     12.128  0.3616E+01  0.1862E+01  0.2098E+02  0.1990E+02
     12.347  0.3171E+01  0.5510E+00  0.2168E+02  0.2002E+02
     12.566  0.2166E+01  0.1759E+00  0.2216E+02  0.2006E+02
     12.785  0.1920E+01  0.2343E+00  0.2258E+02  0.2011E+02
     13.004  0.1322E+01  0.4697E+00  0.2287E+02  0.2021E+02
     13.223  0.1519E+01  0.1033E+01  0.2321E+02  0.2044E+02
     13.442  0.1088E+01  0.1945E+01  0.2345E+02  0.2087E+02
     13.661  0.1219E+01  0.4742E+01  0.2372E+02  0.2191E+02
     13.880  0.9664E+00  0.4901E+01  0.2393E+02  0.2298E+02
     14.099  0.1016E+01  0.2399E+01  0.2415E+02  0.2352E+02
     14.317  0.1118E+01  0.1625E+01  0.2440E+02  0.2388E+02
     14.536  0.1651E+01  0.1241E+01  0.2476E+02  0.2415E+02
     14.755  0.2696E+01  0.1127E+01  0.2536E+02  0.2440E+02
     14.974  0.1989E+01  0.1825E+01  0.2579E+02  0.2480E+02
     15.193  0.1454E+01  0.1923E+01  0.2612E+02  0.2522E+02
     15.412  0.1193E+01  0.2216E+01  0.2638E+02  0.2571E+02
     15.631  0.1315E+01  0.1564E+01  0.2667E+02  0.2606E+02
     15.850  0.1559E+01  0.1365E+01  0.2701E+02  0.2636E+02
     16.069  0.1611E+01  0.1318E+01  0.2737E+02  0.2665E+02
     16.288  0.1994E+01  0.1589E+01  0.2780E+02  0.2700E+02
     16.507  0.1552E+01  0.1761E+01  0.2815E+02  0.2739E+02
     16.726  0.1341E+01  0.1802E+01  0.2844E+02  0.2778E+02
     16.945  0.1054E+01  0.1871E+01  0.2867E+02  0.2819E+02
     17.164  0.1210E+01  0.1494E+01  0.2894E+02  0.2852E+02
     17.382  0.1346E+01  0.1131E+01  0.2924E+02  0.2877E+02
     17.601  0.1397E+01  0.1358E+01  0.2954E+02  0.2907E+02
     17.820  0.1453E+01  0.1574E+01  0.2987E+02  0.2942E+02
     18.039  0.1625E+01  0.1626E+01  0.3022E+02  0.2978E+02
     18.258  0.1378E+01  0.1543E+01  0.3053E+02  0.3012E+02
     18.477  0.1241E+01  0.1288E+01  0.3080E+02  0.3040E+02
     18.696  0.1218E+01  0.1256E+01  0.3107E+02  0.3068E+02
     18.915  0.1465E+01  0.1223E+01  0.3139E+02  0.3095E+02
     19.134  0.1169E+01  0.1342E+01  0.3165E+02  0.3124E+02
     19.353  0.1276E+01  0.1316E+01  0.3193E+02  0.3153E+02
     19.572  0.1572E+01  0.1259E+01  0.3228E+02  0.3181E+02
     19.791  0.1441E+01  0.1558E+01  0.3259E+02  0.3215E+02
     20.010  0.1723E+01  0.1745E+01  0.3297E+02  0.3253E+02
     20.229  0.1791E+01  0.1832E+01  0.3337E+02  0.3294E+02
     20.447  0.1470E+01  0.1867E+01  0.3369E+02  0.3335E+02
     20.666  0.1741E+01  0.1645E+01  0.3407E+02  0.3371E+02
     20.885  0.1851E+01  0.1815E+01  0.3448E+02  0.3411E+02
     21.104  0.1650E+01  0.1806E+01  0.3484E+02  0.3451E+02
     21.323  0.1021E+01  0.1519E+01  0.3507E+02  0.3484E+02
     21.542  0.8281E+00  0.1048E+01  0.3525E+02  0.3507E+02
     21.761  0.4620E+00  0.7210E+00  0.3536E+02  0.3523E+02
     21.980  0.5454E+00  0.6608E+00  0.3548E+02  0.3538E+02
     22.199  0.6026E+00  0.5670E+00  0.3561E+02  0.3550E+02
     22.418  0.3816E+00  0.7094E+00  0.3569E+02  0.3566E+02
     22.637  0.1333E+00  0.1627E+00  0.3572E+02  0.3570E+02
     22.856  0.3250E+00  0.1872E+00  0.3579E+02  0.3574E+02
     23.075  0.2049E+00  0.3325E+00  0.3584E+02  0.3581E+02
     23.293  0.1635E+00  0.1751E+00  0.3588E+02  0.3585E+02
     23.512  0.2703E+00  0.2611E+00  0.3594E+02  0.3591E+02
     23.731  0.1786E+00  0.2365E+00  0.3598E+02  0.3596E+02
     23.950  0.7573E-01  0.9018E-01  0.3599E+02  0.3598E+02
     24.169  0.4595E-02  0.3540E-01  0.3599E+02  0.3599E+02
     24.388  0.2003E-01  0.2997E-01  0.3600E+02  0.3599E+02
     24.607  0.9889E-02  0.2387E-01  0.3600E+02  0.3600E+02
     24.826  0.0000E+00  0.1770E-02  0.3600E+02  0.3600E+02
     25.045  0.0000E+00  0.0000E+00  0.3600E+02  0.3600E+02
     25.264  0.0000E+00  0.0000E+00  0.3600E+02  0.3600E+02
     25.483  0.0000E+00  0.0000E+00  0.3600E+02  0.3600E+02
     25.702  0.0000E+00  0.0000E+00  0.3600E+02  0.3600E+02
     25.921  0.0000E+00  0.0000E+00  0.3600E+02  0.3600E+02
     26.140  0.0000E+00  0.0000E+00  0.3600E+02  0.3600E+02
     26.358  0.0000E+00  0.0000E+00  0.3600E+02  0.3600E+02
     26.577  0.0000E+00  0.0000E+00  0.3600E+02  0.3600E+02
     26.796  0.0000E+00  0.0000E+00  0.3600E+02  0.3600E+02
     27.015  0.0000E+00  0.0000E+00  0.3600E+02  0.3600E+02
     27.234  0.0000E+00  0.0000E+00  0.3600E+02  0.3600E+02
     27.453  0.0000E+00  0.0000E+00  0.3600E+02  0.3600E+02
     27.45308737    -38.22495877  301     13.34222388      1.00000000
    -38.225  0.0000E+00  0.0000E+00  0.0000E+00  0.0000E+00  0.0000E+00  0.0000E+00  0.0000E+00  0.0000E+00  0.0000E+00  0.0000E+00  0.0000E+00  0.0000E+00  0.0000E+00  0.0000E+00  0.0000E+00  0.0000E+00  0.0000E+00  0.0000E+00
    -38.006  0.0000E+00  0.0000E+00  0.0000E+00  0.0000E+00  0.0000E+00  0.0000E+00  0.0000E+00  0.0000E+00  0.0000E+00  0.0000E+00  0.0000E+00  0.0000E+00  0.0000E+00  0.0000E+00  0.0000E+00  0.0000E+00  0.0000E+00  0.0000E+00
    -37.787  0.0000E+00  0.0000E+00  0.0000E+00  0.0000E+00  0.0000E+00  0.0000E+00  0.0000E+00  0.0000E+00  0.0000E+00  0.0000E+00  0.0000E+00  0.0000E+00  0.0000E+00  0.0000E+00  0.0000E+00  0.0000E+00  0.0000E+00  0.0000E+00
    -37.568  0.0000E+00  0.0000E+00  0.0000E+00  0.0000E+00  0.0000E+00  0.0000E+00  0.0000E+00  0.0000E+00  0.0000E+00  0.0000E+00  0.0000E+00  0.0000E+00  0.0000E+00  0.0000E+00  0.0000E+00  0.0000E+00  0.0000E+00  0.0000E+00
    -37.349  0.0000E+00  0.0000E+00  0.0000E+00  0.0000E+00  0.0000E+00  0.0000E+00  0.0000E+00  0.0000E+00  0.0000E+00  0.0000E+00  0.0000E+00  0.0000E+00  0.0000E+00  0.0000E+00  0.0000E+00  0.0000E+00  0.0000E+00  0.0000E+00
    -37.130  0.0000E+00  0.0000E+00  0.0000E+00  0.0000E+00  0.0000E+00  0.0000E+00  0.0000E+00  0.0000E+00  0.0000E+00  0.0000E+00  0.0000E+00  0.0000E+00  0.0000E+00  0.0000E+00  0.0000E+00  0.0000E+00  0.0000E+00  0.0000E+00
    -36.911  0.0000E+00  0.0000E+00  0.0000E+00  0.0000E+00  0.0000E+00  0.0000E+00  0.0000E+00  0.0000E+00  0.0000E+00  0.0000E+00  0.0000E+00  0.0000E+00  0.0000E+00  0.0000E+00  0.0000E+00  0.0000E+00  0.0000E+00  0.0000E+00
    -36.692  0.0000E+00  0.0000E+00  0.0000E+00  0.0000E+00  0.0000E+00  0.0000E+00  0.0000E+00  0.0000E+00  0.0000E+00  0.0000E+00  0.0000E+00  0.0000E+00  0.0000E+00  0.0000E+00  0.0000E+00  0.0000E+00  0.0000E+00  0.0000E+00
    -36.474  0.0000E+00  0.0000E+00  0.0000E+00  0.0000E+00  0.0000E+00  0.0000E+00  0.0000E+00  0.0000E+00  0.0000E+00  0.0000E+00  0.0000E+00  0.0000E+00  0.0000E+00  0.0000E+00  0.0000E+00  0.0000E+00  0.0000E+00  0.0000E+00
    -36.255  0.0000E+00  0.0000E+00  0.0000E+00  0.0000E+00  0.0000E+00  0.0000E+00  0.0000E+00  0.0000E+00  0.0000E+00  0.0000E+00  0.0000E+00  0.0000E+00  0.0000E+00  0.0000E+00  0.0000E+00  0.0000E+00  0.0000E+00  0.0000E+00
    -36.036  0.0000E+00  0.0000E+00  0.0000E+00  0.0000E+00  0.0000E+00  0.0000E+00  0.0000E+00  0.0000E+00  0.0000E+00  0.0000E+00  0.0000E+00  0.0000E+00  0.0000E+00  0.0000E+00  0.0000E+00  0.0000E+00  0.0000E+00  0.0000E+00
    -35.817  0.8530E-11  0.0000E+00  0.3659E-04  0.0000E+00  0.2215E-09  0.0000E+00  0.3659E-04  0.0000E+00  0.3460E-12  0.0000E+00  0.1187E-13  0.0000E+00  0.3237E-11  0.0000E+00  0.1187E-13  0.0000E+00  0.9567E-11  0.0000E+00
    -35.598  0.6712E-09  0.0000E+00  0.2878E-02  0.0000E+00  0.1637E-03  0.0000E+00  0.2878E-02  0.0000E+00  0.2723E-10  0.0000E+00  0.1698E-11  0.0000E+00  0.2547E-09  0.0000E+00  0.1698E-11  0.0000E+00  0.7527E-09  0.0000E+00
    -35.379  0.5088E-07  0.0000E+00  0.2181E+00  0.0000E+00  0.1285E-01  0.0000E+00  0.2181E+00  0.0000E+00  0.2057E-08  0.0000E+00  0.1306E-09  0.0000E+00  0.1931E-07  0.0000E+00  0.1306E-09  0.0000E+00  0.5708E-07  0.0000E+00
    -35.160  0.7971E-06  0.0000E+00  0.3416E+01  0.0000E+00  0.8334E+00  0.0000E+00  0.3416E+01  0.0000E+00  0.3047E-07  0.0000E+00  0.4946E-08  0.0000E+00  0.3025E-06  0.0000E+00  0.4946E-08  0.0000E+00  0.9004E-06  0.0000E+00
    -34.941  0.2092E-06  0.0000E+00  0.8871E+00  0.0000E+00  0.3456E+01  0.0000E+00  0.8871E+00  0.0000E+00  0.7619E-08  0.0000E+00  0.1632E-07  0.0000E+00  0.7898E-07  0.0000E+00  0.1632E-07  0.0000E+00  0.2342E-06  0.0000E+00
    -34.722  0.2712E-09  0.0000E+00  0.6624E-06  0.0000E+00  0.2323E+00  0.0000E+00  0.6624E-06  0.0000E+00  0.1822E-10  0.0000E+00  0.1075E-08  0.0000E+00  0.7029E-10  0.0000E+00  0.1075E-08  0.0000E+00  0.1705E-11  0.0000E+00
    -34.503  0.0000E+00  0.0000E+00  0.0000E+00  0.0000E+00  0.0000E+00  0.0000E+00  0.0000E+00  0.0000E+00  0.0000E+00  0.0000E+00  0.0000E+00  0.0000E+00  0.0000E+00  0.0000E+00  0.0000E+00  0.0000E+00  0.0000E+00  0.0000E+00
    -34.284  0.0000E+00  0.2675E-09  0.0000E+00  0.9469E-03  0.0000E+00  0.8913E-03  0.0000E+00  0.9469E-03  0.0000E+00  0.1121E-10  0.0000E+00  0.5623E-11  0.0000E+00  0.9430E-10  0.0000E+00  0.5623E-11  0.0000E+00  0.2779E-09
    -34.065  0.0000E+00  0.2071E-07  0.0000E+00  0.7330E-01  0.0000E+00  0.6908E-01  0.0000E+00  0.7330E-01  0.0000E+00  0.8668E-09  0.0000E+00  0.4357E-09  0.0000E+00  0.7301E-08  0.0000E+00  0.4357E-09  0.0000E+00  0.2152E-07
    -33.846  0.0000E+00  0.7073E-06  0.0000E+00  0.2502E+01  0.0000E+00  0.2449E+01  0.0000E+00  0.2502E+01  0.0000E+00  0.2832E-07  0.0000E+00  0.1532E-07  0.0000E+00  0.2496E-06  0.0000E+00  0.1532E-07  0.0000E+00  0.7397E-06
    -33.627  0.0000E+00  0.5385E-06  0.0000E+00  0.1919E+01  0.0000E+00  0.1973E+01  0.0000E+00  0.1919E+01  0.0000E+00  0.2007E-07  0.0000E+00  0.1218E-07  0.0000E+00  0.1904E-06  0.0000E+00  0.1218E-07  0.0000E+00  0.5694E-06
    -33.409  0.0000E+00  0.0000E+00  0.0000E+00  0.0000E+00  0.0000E+00  0.0000E+00  0.0000E+00  0.0000E+00  0.0000E+00  0.0000E+00  0.0000E+00  0.0000E+00  0.0000E+00  0.0000E+00  0.0000E+00  0.0000E+00  0.0000E+00  0.0000E+00
    -33.190  0.0000E+00  0.0000E+00  0.0000E+00  0.0000E+00  0.0000E+00  0.0000E+00  0.0000E+00  0.0000E+00  0.0000E+00  0.0000E+00  0.0000E+00  0.0000E+00  0.0000E+00  0.0000E+00  0.0000E+00  0.0000E+00  0.0000E+00  0.0000E+00
    -32.971  0.0000E+00  0.0000E+00  0.0000E+00  0.0000E+00  0.0000E+00  0.0000E+00  0.0000E+00  0.0000E+00  0.0000E+00  0.0000E+00  0.0000E+00  0.0000E+00  0.0000E+00  0.0000E+00  0.0000E+00  0.0000E+00  0.0000E+00  0.0000E+00
    -32.752  0.0000E+00  0.0000E+00  0.0000E+00  0.0000E+00  0.0000E+00  0.0000E+00  0.0000E+00  0.0000E+00  0.0000E+00  0.0000E+00  0.0000E+00  0.0000E+00  0.0000E+00  0.0000E+00  0.0000E+00  0.0000E+00  0.0000E+00  0.0000E+00
    -32.533  0.0000E+00  0.0000E+00  0.0000E+00  0.0000E+00  0.0000E+00  0.0000E+00  0.0000E+00  0.0000E+00  0.0000E+00  0.0000E+00  0.0000E+00  0.0000E+00  0.0000E+00  0.0000E+00  0.0000E+00  0.0000E+00  0.0000E+00  0.0000E+00
    -32.314  0.0000E+00  0.0000E+00  0.0000E+00  0.0000E+00  0.0000E+00  0.0000E+00  0.0000E+00  0.0000E+00  0.0000E+00  0.0000E+00  0.0000E+00  0.0000E+00  0.0000E+00  0.0000E+00  0.0000E+00  0.0000E+00  0.0000E+00  0.0000E+00
    -32.095  0.0000E+00  0.0000E+00  0.0000E+00  0.0000E+00  0.0000E+00  0.0000E+00  0.0000E+00  0.0000E+00  0.0000E+00  0.0000E+00  0.0000E+00  0.0000E+00  0.0000E+00  0.0000E+00  0.0000E+00  0.0000E+00  0.0000E+00  0.0000E+00
    -31.876  0.0000E+00  0.0000E+00  0.0000E+00  0.0000E+00  0.0000E+00  0.0000E+00  0.0000E+00  0.0000E+00  0.0000E+00  0.0000E+00  0.0000E+00  0.0000E+00  0.0000E+00  0.0000E+00  0.0000E+00  0.0000E+00  0.0000E+00  0.0000E+00
    -31.657  0.0000E+00  0.0000E+00  0.0000E+00  0.0000E+00  0.0000E+00  0.0000E+00  0.0000E+00  0.0000E+00  0.0000E+00  0.0000E+00  0.0000E+00  0.0000E+00  0.0000E+00  0.0000E+00  0.0000E+00  0.0000E+00  0.0000E+00  0.0000E+00
    -31.438  0.0000E+00  0.0000E+00  0.0000E+00  0.0000E+00  0.0000E+00  0.0000E+00  0.0000E+00  0.0000E+00  0.0000E+00  0.0000E+00  0.0000E+00  0.0000E+00  0.0000E+00  0.0000E+00  0.0000E+00  0.0000E+00  0.0000E+00  0.0000E+00
    -31.219  0.0000E+00  0.0000E+00  0.0000E+00  0.0000E+00  0.0000E+00  0.0000E+00  0.0000E+00  0.0000E+00  0.0000E+00  0.0000E+00  0.0000E+00  0.0000E+00  0.0000E+00  0.0000E+00  0.0000E+00  0.0000E+00  0.0000E+00  0.0000E+00
    -31.000  0.0000E+00  0.0000E+00  0.0000E+00  0.0000E+00  0.0000E+00  0.0000E+00  0.0000E+00  0.0000E+00  0.0000E+00  0.0000E+00  0.0000E+00  0.0000E+00  0.0000E+00  0.0000E+00  0.0000E+00  0.0000E+00  0.0000E+00  0.0000E+00
    -30.781  0.0000E+00  0.0000E+00  0.0000E+00  0.0000E+00  0.0000E+00  0.0000E+00  0.0000E+00  0.0000E+00  0.0000E+00  0.0000E+00  0.0000E+00  0.0000E+00  0.0000E+00  0.0000E+00  0.0000E+00  0.0000E+00  0.0000E+00  0.0000E+00
    -30.563  0.0000E+00  0.0000E+00  0.0000E+00  0.0000E+00  0.0000E+00  0.0000E+00  0.0000E+00  0.0000E+00  0.0000E+00  0.0000E+00  0.0000E+00  0.0000E+00  0.0000E+00  0.0000E+00  0.0000E+00  0.0000E+00  0.0000E+00  0.0000E+00
    -30.344  0.0000E+00  0.0000E+00  0.0000E+00  0.0000E+00  0.0000E+00  0.0000E+00  0.0000E+00  0.0000E+00  0.0000E+00  0.0000E+00  0.0000E+00  0.0000E+00  0.0000E+00  0.0000E+00  0.0000E+00  0.0000E+00  0.0000E+00  0.0000E+00
    -30.125  0.0000E+00  0.0000E+00  0.0000E+00  0.0000E+00  0.0000E+00  0.0000E+00  0.0000E+00  0.0000E+00  0.0000E+00  0.0000E+00  0.0000E+00  0.0000E+00  0.0000E+00  0.0000E+00  0.0000E+00  0.0000E+00  0.0000E+00  0.0000E+00
    -29.906  0.0000E+00  0.0000E+00  0.0000E+00  0.0000E+00  0.0000E+00  0.0000E+00  0.0000E+00  0.0000E+00  0.0000E+00  0.0000E+00  0.0000E+00  0.0000E+00  0.0000E+00  0.0000E+00  0.0000E+00  0.0000E+00  0.0000E+00  0.0000E+00
    -29.687  0.0000E+00  0.0000E+00  0.0000E+00  0.0000E+00  0.0000E+00  0.0000E+00  0.0000E+00  0.0000E+00  0.0000E+00  0.0000E+00  0.0000E+00  0.0000E+00  0.0000E+00  0.0000E+00  0.0000E+00  0.0000E+00  0.0000E+00  0.0000E+00
    -29.468  0.0000E+00  0.0000E+00  0.0000E+00  0.0000E+00  0.0000E+00  0.0000E+00  0.0000E+00  0.0000E+00  0.0000E+00  0.0000E+00  0.0000E+00  0.0000E+00  0.0000E+00  0.0000E+00  0.0000E+00  0.0000E+00  0.0000E+00  0.0000E+00
    -29.249  0.0000E+00  0.0000E+00  0.0000E+00  0.0000E+00  0.0000E+00  0.0000E+00  0.0000E+00  0.0000E+00  0.0000E+00  0.0000E+00  0.0000E+00  0.0000E+00  0.0000E+00  0.0000E+00  0.0000E+00  0.0000E+00  0.0000E+00  0.0000E+00
    -29.030  0.0000E+00  0.0000E+00  0.0000E+00  0.0000E+00  0.0000E+00  0.0000E+00  0.0000E+00  0.0000E+00  0.0000E+00  0.0000E+00  0.0000E+00  0.0000E+00  0.0000E+00  0.0000E+00  0.0000E+00  0.0000E+00  0.0000E+00  0.0000E+00
    -28.811  0.0000E+00  0.0000E+00  0.0000E+00  0.0000E+00  0.0000E+00  0.0000E+00  0.0000E+00  0.0000E+00  0.0000E+00  0.0000E+00  0.0000E+00  0.0000E+00  0.0000E+00  0.0000E+00  0.0000E+00  0.0000E+00  0.0000E+00  0.0000E+00
    -28.592  0.0000E+00  0.0000E+00  0.0000E+00  0.0000E+00  0.0000E+00  0.0000E+00  0.0000E+00  0.0000E+00  0.0000E+00  0.0000E+00  0.0000E+00  0.0000E+00  0.0000E+00  0.0000E+00  0.0000E+00  0.0000E+00  0.0000E+00  0.0000E+00
    -28.373  0.0000E+00  0.0000E+00  0.0000E+00  0.0000E+00  0.0000E+00  0.0000E+00  0.0000E+00  0.0000E+00  0.0000E+00  0.0000E+00  0.0000E+00  0.0000E+00  0.0000E+00  0.0000E+00  0.0000E+00  0.0000E+00  0.0000E+00  0.0000E+00
    -28.154  0.0000E+00  0.0000E+00  0.0000E+00  0.0000E+00  0.0000E+00  0.0000E+00  0.0000E+00  0.0000E+00  0.0000E+00  0.0000E+00  0.0000E+00  0.0000E+00  0.0000E+00  0.0000E+00  0.0000E+00  0.0000E+00  0.0000E+00  0.0000E+00
    -27.935  0.0000E+00  0.0000E+00  0.0000E+00  0.0000E+00  0.0000E+00  0.0000E+00  0.0000E+00  0.0000E+00  0.0000E+00  0.0000E+00  0.0000E+00  0.0000E+00  0.0000E+00  0.0000E+00  0.0000E+00  0.0000E+00  0.0000E+00  0.0000E+00
    -27.716  0.0000E+00  0.0000E+00  0.0000E+00  0.0000E+00  0.0000E+00  0.0000E+00  0.0000E+00  0.0000E+00  0.0000E+00  0.0000E+00  0.0000E+00  0.0000E+00  0.0000E+00  0.0000E+00  0.0000E+00  0.0000E+00  0.0000E+00  0.0000E+00
    -27.498  0.0000E+00  0.0000E+00  0.0000E+00  0.0000E+00  0.0000E+00  0.0000E+00  0.0000E+00  0.0000E+00  0.0000E+00  0.0000E+00  0.0000E+00  0.0000E+00  0.0000E+00  0.0000E+00  0.0000E+00  0.0000E+00  0.0000E+00  0.0000E+00
    -27.279  0.0000E+00  0.0000E+00  0.0000E+00  0.0000E+00  0.0000E+00  0.0000E+00  0.0000E+00  0.0000E+00  0.0000E+00  0.0000E+00  0.0000E+00  0.0000E+00  0.0000E+00  0.0000E+00  0.0000E+00  0.0000E+00  0.0000E+00  0.0000E+00