   8   8   1   0
  0.1211384E+02  0.3589934E-09  0.3589934E-09  0.7519669E-09  0.5000000E-15
  1.000000000000000E-004
  CAR 
 unknown system                          
     24.11803684    -40.54900936  301     11.15909199      1.00000000
    -40.549  0.0000E+00  0.0000E+00  0.0000E+00  0.0000E+00
    -40.333  0.0000E+00  0.0000E+00  0.0000E+00  0.0000E+00
    -40.118  0.0000E+00  0.0000E+00  0.0000E+00  0.0000E+00
    -39.902  0.0000E+00  0.0000E+00  0.0000E+00  0.0000E+00
    -39.687  0.0000E+00  0.0000E+00  0.0000E+00  0.0000E+00
    -39.471  0.0000E+00  0.0000E+00  0.0000E+00  0.0000E+00
    -39.256  0.0000E+00  0.0000E+00  0.0000E+00  0.0000E+00
    -39.040  0.0000E+00  0.0000E+00  0.0000E+00  0.0000E+00
    -38.825  0.0000E+00  0.0000E+00  0.0000E+00  0.0000E+00
    -38.609  0.0000E+00  0.0000E+00  0.0000E+00  0.0000E+00
    -38.393  0.0000E+00  0.0000E+00  0.0000E+00  0.0000E+00
    -38.178  0.1974E-03  0.0000E+00  0.4255E-04  0.0000E+00
    -37.962  0.1488E-01  0.0000E+00  0.3251E-02  0.0000E+00
    -37.747  0.1048E+01  0.0000E+00  0.2292E+00  0.0000E+00
    -37.531  0.1578E+02  0.0000E+00  0.3630E+01  0.0000E+00
    -37.316  0.1042E+02  0.0000E+00  0.5877E+01  0.0000E+00
    -37.100  0.5077E+00  0.0000E+00  0.5998E+01  0.0000E+00
    -36.885  0.0000E+00  0.0000E+00  0.6000E+01  0.0000E+00
    -36.669  0.0000E+00  0.0000E+00  0.6000E+01  0.0000E+00
    -36.453  0.0000E+00  0.6710E-03  0.6000E+01  0.1446E-03
    -36.238  0.0000E+00  0.4925E-01  0.6000E+01  0.1076E-01
    -36.022  0.0000E+00  0.3229E+01  0.6000E+01  0.7069E+00
    -35.807  0.0000E+00  0.2197E+02  0.6000E+01  0.5443E+01
    -35.591  0.0000E+00  0.2546E+01  0.6000E+01  0.5992E+01
    -35.376  0.0000E+00  0.0000E+00  0.6000E+01  0.6000E+01
    -35.160  0.0000E+00  0.0000E+00  0.6000E+01  0.6000E+01
    -34.945  0.0000E+00  0.0000E+00  0.6000E+01  0.6000E+01
    -34.729  0.0000E+00  0.0000E+00  0.6000E+01  0.6000E+01
    -34.513  0.0000E+00  0.0000E+00  0.6000E+01  0.6000E+01
    -34.298  0.0000E+00  0.0000E+00  0.6000E+01  0.6000E+01
    -34.082  0.0000E+00  0.0000E+00  0.6000E+01  0.6000E+01
    -33.867  0.0000E+00  0.0000E+00  0.6000E+01  0.6000E+01
    -33.651  0.0000E+00  0.0000E+00  0.6000E+01  0.6000E+01
    -33.436  0.0000E+00  0.0000E+00  0.6000E+01  0.6000E+01
    -33.220  0.0000E+00  0.0000E+00  0.6000E+01  0.6000E+01
    -33.005  0.0000E+00  0.0000E+00  0.6000E+01  0.6000E+01
    -32.789  0.0000E+00  0.0000E+00  0.6000E+01  0.6000E+01
    -32.573  0.0000E+00  0.0000E+00  0.6000E+01  0.6000E+01
    -32.358  0.0000E+00  0.0000E+00  0.6000E+01  0.6000E+01
    -32.142  0.0000E+00  0.0000E+00  0.6000E+01  0.6000E+01
    -31.927  0.0000E+00  0.0000E+00  0.6000E+01  0.6000E+01
    -31.711  0.0000E+00  0.0000E+00  0.6000E+01  0.6000E+01
    -31.496  0.0000E+00  0.0000E+00  0.6000E+01  0.6000E+01
    -31.280  0.0000E+00  0.0000E+00  0.6000E+01  0.6000E+01
    -31.065  0.0000E+00  0.0000E+00  0.6000E+01  0.6000E+01
    -30.849  0.0000E+00  0.0000E+00  0.6000E+01  0.6000E+01
    -30.633  0.0000E+00  0.0000E+00  0.6000E+01  0.6000E+01
    -30.418  0.0000E+00  0.0000E+00  0.6000E+01  0.6000E+01
    -30.202  0.0000E+00  0.0000E+00  0.6000E+01  0.6000E+01
    -29.987  0.0000E+00  0.0000E+00  0.6000E+01  0.6000E+01
    -29.771  0.0000E+00  0.0000E+00  0.6000E+01  0.6000E+01
    -29.556  0.0000E+00  0.0000E+00  0.6000E+01  0.6000E+01
    -29.340  0.0000E+00  0.0000E+00  0.6000E+01  0.6000E+01
    -29.124  0.0000E+00  0.0000E+00  0.6000E+01  0.6000E+01
    -28.909  0.0000E+00  0.0000E+00  0.6000E+01  0.6000E+01
    -28.693  0.0000E+00  0.0000E+00  0.6000E+01  0.6000E+01
    -28.478  0.0000E+00  0.0000E+00  0.6000E+01  0.6000E+01
    -28.262  0.0000E+00  0.0000E+00  0.6000E+01  0.6000E+01
    -28.047  0.0000E+00  0.0000E+00  0.6000E+01  0.6000E+01
    -27.831  0.0000E+00  0.0000E+00  0.6000E+01  0.6000E+01
    -27.616  0.0000E+00  0.0000E+00  0.6000E+01  0.6000E+01
    -27.400  0.0000E+00  0.0000E+00  0.6000E+01  0.6000E+01
    -27.184  0.0000E+00  0.0000E+00  0.6000E+01  0.6000E+01
    -26.969  0.0000E+00  0.0000E+00  0.6000E+01  0.6000E+01
    -26.753  0.0000E+00  0.0000E+00  0.6000E+01  0.6000E+01
    -26.538  0.0000E+00  0.0000E+00  0.6000E+01  0.6000E+01
    -26.322  0.0000E+00  0.0000E+00  0.6000E+01  0.6000E+01
    -26.107  0.0000E+00  0.0000E+00  0.6000E+01  0.6000E+01
    -25.891  0.0000E+00  0.0000E+00  0.6000E+01  0.6000E+01
    -25.676  0.0000E+00  0.0000E+00  0.6000E+01  0.6000E+01
    -25.460  0.0000E+00  0.0000E+00  0.6000E+01  0.6000E+01
    -25.244  0.0000E+00  0.0000E+00  0.6000E+01  0.6000E+01
    -25.029  0.0000E+00  0.0000E+00  0.6000E+01  0.6000E+01
    -24.813  0.0000E+00  0.0000E+00  0.6000E+01  0.6000E+01
    -24.598  0.0000E+00  0.0000E+00  0.6000E+01  0.6000E+01
    -24.382  0.0000E+00  0.0000E+00  0.6000E+01  0.6000E+01
    -24.167  0.0000E+00  0.0000E+00  0.6000E+01  0.6000E+01
    -23.951  0.0000E+00  0.0000E+00  0.6000E+01  0.6000E+01
    -23.736  0.0000E+00  0.0000E+00  0.6000E+01  0.6000E+01
    -23.520  0.0000E+00  0.0000E+00  0.6000E+01  0.6000E+01
    -23.304  0.0000E+00  0.0000E+00  0.6000E+01  0.6000E+01
    -23.089  0.0000E+00  0.0000E+00  0.6000E+01  0.6000E+01
    -22.873  0.0000E+00  0.0000E+00  0.6000E+01  0.6000E+01
    -22.658  0.0000E+00  0.0000E+00  0.6000E+01  0.6000E+01
    -22.442  0.0000E+00  0.0000E+00  0.6000E+01  0.6000E+01
    -22.227  0.0000E+00  0.0000E+00  0.6000E+01  0.6000E+01
    -22.011  0.0000E+00  0.0000E+00  0.6000E+01  0.6000E+01
    -21.796  0.0000E+00  0.0000E+00  0.6000E+01  0.6000E+01
    -21.580  0.0000E+00  0.0000E+00  0.6000E+01  0.6000E+01
    -21.364  0.0000E+00  0.0000E+00  0.6000E+01  0.6000E+01
    -21.149  0.0000E+00  0.0000E+00  0.6000E+01  0.6000E+01
    -20.933  0.0000E+00  0.0000E+00  0.6000E+01  0.6000E+01
    -20.718  0.0000E+00  0.0000E+00  0.6000E+01  0.6000E+01
    -20.502  0.0000E+00  0.0000E+00  0.6000E+01  0.6000E+01
    -20.287  0.0000E+00  0.0000E+00  0.6000E+01  0.6000E+01
    -20.071  0.0000E+00  0.0000E+00  0.6000E+01  0.6000E+01
    -19.856  0.0000E+00  0.0000E+00  0.6000E+01  0.6000E+01
    -19.640  0.0000E+00  0.0000E+00  0.6000E+01  0.6000E+01
    -19.424  0.0000E+00  0.0000E+00  0.6000E+01  0.6000E+01
    -19.209  0.0000E+00  0.0000E+00  0.6000E+01  0.6000E+01
    -18.993  0.0000E+00  0.0000E+00  0.6000E+01  0.6000E+01
    -18.778  0.0000E+00  0.0000E+00  0.6000E+01  0.6000E+01
    -18.562  0.0000E+00  0.0000E+00  0.6000E+01  0.6000E+01
    -18.347  0.0000E+00  0.0000E+00  0.6000E+01  0.6000E+01
    -18.131  0.0000E+00  0.0000E+00  0.6000E+01  0.6000E+01
    -17.916  0.0000E+00  0.0000E+00  0.6000E+01  0.6000E+01
    -17.700  0.0000E+00  0.0000E+00  0.6000E+01  0.6000E+01
    -17.484  0.0000E+00  0.0000E+00  0.6000E+01  0.6000E+01
    -17.269  0.0000E+00  0.0000E+00  0.6000E+01  0.6000E+01
    -17.053  0.0000E+00  0.0000E+00  0.6000E+01  0.6000E+01
    -16.838  0.0000E+00  0.0000E+00  0.6000E+01  0.6000E+01
    -16.622  0.0000E+00  0.0000E+00  0.6000E+01  0.6000E+01
    -16.407  0.0000E+00  0.0000E+00  0.6000E+01  0.6000E+01
    -16.191  0.0000E+00  0.0000E+00  0.6000E+01  0.6000E+01
    -15.976  0.0000E+00  0.0000E+00  0.6000E+01  0.6000E+01
    -15.760  0.0000E+00  0.0000E+00  0.6000E+01  0.6000E+01
    -15.544  0.0000E+00  0.0000E+00  0.6000E+01  0.6000E+01
    -15.329  0.0000E+00  0.0000E+00  0.6000E+01  0.6000E+01
    -15.113  0.0000E+00  0.0000E+00  0.6000E+01  0.6000E+01
    -14.898  0.0000E+00  0.0000E+00  0.6000E+01  0.6000E+01
    -14.682  0.0000E+00  0.0000E+00  0.6000E+01  0.6000E+01
    -14.467  0.0000E+00  0.0000E+00  0.6000E+01  0.6000E+01
    -14.251  0.0000E+00  0.0000E+00  0.6000E+01  0.6000E+01
    -14.036  0.0000E+00  0.0000E+00  0.6000E+01  0.6000E+01
    -13.820  0.0000E+00  0.0000E+00  0.6000E+01  0.6000E+01
    -13.604  0.0000E+00  0.0000E+00  0.6000E+01  0.6000E+01
    -13.389  0.0000E+00  0.0000E+00  0.6000E+01  0.6000E+01
    -13.173  0.0000E+00  0.0000E+00  0.6000E+01  0.6000E+01
    -12.958  0.0000E+00  0.0000E+00  0.6000E+01  0.6000E+01
    -12.742  0.0000E+00  0.0000E+00  0.6000E+01  0.6000E+01
    -12.527  0.0000E+00  0.0000E+00  0.6000E+01  0.6000E+01
    -12.311  0.0000E+00  0.0000E+00  0.6000E+01  0.6000E+01
    -12.096  0.0000E+00  0.0000E+00  0.6000E+01  0.6000E+01
    -11.880  0.0000E+00  0.0000E+00  0.6000E+01  0.6000E+01
    -11.664  0.0000E+00  0.0000E+00  0.6000E+01  0.6000E+01
    -11.449  0.0000E+00  0.0000E+00  0.6000E+01  0.6000E+01
    -11.233  0.0000E+00  0.0000E+00  0.6000E+01  0.6000E+01
    -11.018  0.0000E+00  0.0000E+00  0.6000E+01  0.6000E+01
    -10.802  0.0000E+00  0.0000E+00  0.6000E+01  0.6000E+01
    -10.587  0.0000E+00  0.0000E+00  0.6000E+01  0.6000E+01
    -10.371  0.0000E+00  0.0000E+00  0.6000E+01  0.6000E+01
    -10.155  0.0000E+00  0.0000E+00  0.6000E+01  0.6000E+01
     -9.940  0.0000E+00  0.0000E+00  0.6000E+01  0.6000E+01
     -9.724  0.0000E+00  0.0000E+00  0.6000E+01  0.6000E+01
     -9.509  0.0000E+00  0.0000E+00  0.6000E+01  0.6000E+01
     -9.293  0.0000E+00  0.0000E+00  0.6000E+01  0.6000E+01
     -9.078  0.0000E+00  0.0000E+00  0.6000E+01  0.6000E+01
     -8.862  0.0000E+00  0.0000E+00  0.6000E+01  0.6000E+01
     -8.647  0.0000E+00  0.0000E+00  0.6000E+01  0.6000E+01
     -8.431  0.0000E+00  0.0000E+00  0.6000E+01  0.6000E+01
     -8.215  0.0000E+00  0.0000E+00  0.6000E+01  0.6000E+01
     -8.000  0.0000E+00  0.0000E+00  0.6000E+01  0.6000E+01
     -7.784  0.0000E+00  0.0000E+00  0.6000E+01  0.6000E+01
     -7.569  0.0000E+00  0.0000E+00  0.6000E+01  0.6000E+01
     -7.353  0.0000E+00  0.0000E+00  0.6000E+01  0.6000E+01
     -7.138  0.0000E+00  0.0000E+00  0.6000E+01  0.6000E+01
     -6.922  0.0000E+00  0.0000E+00  0.6000E+01  0.6000E+01
     -6.707  0.0000E+00  0.0000E+00  0.6000E+01  0.6000E+01
     -6.491  0.0000E+00  0.0000E+00  0.6000E+01  0.6000E+01
     -6.275  0.0000E+00  0.0000E+00  0.6000E+01  0.6000E+01
     -6.060  0.0000E+00  0.0000E+00  0.6000E+01  0.6000E+01
     -5.844  0.0000E+00  0.0000E+00  0.6000E+01  0.6000E+01
     -5.629  0.0000E+00  0.0000E+00  0.6000E+01  0.6000E+01
     -5.413  0.0000E+00  0.0000E+00  0.6000E+01  0.6000E+01
     -5.198  0.0000E+00  0.0000E+00  0.6000E+01  0.6000E+01
     -4.982  0.0000E+00  0.0000E+00  0.6000E+01  0.6000E+01
     -4.767  0.0000E+00  0.0000E+00  0.6000E+01  0.6000E+01
     -4.551  0.0000E+00  0.0000E+00  0.6000E+01  0.6000E+01
     -4.335  0.0000E+00  0.0000E+00  0.6000E+01  0.6000E+01
     -4.120  0.0000E+00  0.0000E+00  0.6000E+01  0.6000E+01
     -3.904  0.0000E+00  0.0000E+00  0.6000E+01  0.6000E+01
     -3.689  0.0000E+00  0.0000E+00  0.6000E+01  0.6000E+01
     -3.473  0.0000E+00  0.0000E+00  0.6000E+01  0.6000E+01
     -3.258  0.0000E+00  0.0000E+00  0.6000E+01  0.6000E+01
     -3.042  0.0000E+00  0.0000E+00  0.6000E+01  0.6000E+01
     -2.827  0.0000E+00  0.0000E+00  0.6000E+01  0.6000E+01
     -2.611  0.0000E+00  0.0000E+00  0.6000E+01  0.6000E+01
     -2.395  0.0000E+00  0.0000E+00  0.6000E+01  0.6000E+01
     -2.180  0.0000E+00  0.0000E+00  0.6000E+01  0.6000E+01
     -1.964  0.0000E+00  0.0000E+00  0.6000E+01  0.6000E+01
     -1.749  0.3601E-05  0.1361E-05  0.6000E+01  0.6000E+01
     -1.533  0.2700E-03  0.1073E-03  0.6000E+01  0.6000E+01
     -1.318  0.1426E-01  0.6752E-02  0.6003E+01  0.6001E+01
     -1.102  0.1037E+00  0.8198E-01  0.6025E+01  0.6019E+01
     -0.887  0.1956E+00  0.1822E+00  0.6068E+01  0.6058E+01
     -0.671  0.2452E+00  0.2304E+00  0.6121E+01  0.6108E+01
     -0.455  0.3051E+00  0.2936E+00  0.6186E+01  0.6172E+01
     -0.240  0.3121E+00  0.3109E+00  0.6254E+01  0.6239E+01
     -0.024  0.3953E+00  0.3886E+00  0.6340E+01  0.6323E+01
      0.191  0.4189E+00  0.4223E+00  0.6431E+01  0.6414E+01
      0.407  0.4286E+00  0.4099E+00  0.6523E+01  0.6503E+01
      0.622  0.5252E+00  0.5093E+00  0.6637E+01  0.6613E+01
      0.838  0.5286E+00  0.5336E+00  0.6751E+01  0.6729E+01
      1.053  0.5019E+00  0.5150E+00  0.6861E+01  0.6840E+01
      1.269  0.6519E+00  0.6395E+00  0.7002E+01  0.6980E+01
      1.485  0.5801E+00  0.5887E+00  0.7128E+01  0.7107E+01
      1.700  0.6355E+00  0.6224E+00  0.7266E+01  0.7242E+01
      1.916  0.5946E+00  0.5908E+00  0.7395E+01  0.7369E+01
      2.131  0.7766E+00  0.7190E+00  0.7563E+01  0.7525E+01
      2.347  0.6392E+00  0.6564E+00  0.7701E+01  0.7667E+01
      2.562  0.7168E+00  0.6825E+00  0.7857E+01  0.7815E+01
      2.778  0.7684E+00  0.7137E+00  0.8023E+01  0.7970E+01
      2.993  0.8742E+00  0.8385E+00  0.8212E+01  0.8151E+01
      3.209  0.8470E+00  0.8448E+00  0.8396E+01  0.8334E+01
      3.425  0.8870E+00  0.8969E+00  0.8588E+01  0.8529E+01
      3.640  0.8227E+00  0.7865E+00  0.8767E+01  0.8699E+01
      3.856  0.7326E+00  0.7919E+00  0.8926E+01  0.8871E+01
      4.071  0.8241E+00  0.6929E+00  0.9105E+01  0.9020E+01
      4.287  0.8648E+00  0.8336E+00  0.9292E+01  0.9201E+01
      4.502  0.9042E+00  0.8338E+00  0.9488E+01  0.9382E+01
      4.718  0.9990E+00  0.9879E+00  0.9704E+01  0.9596E+01
      4.933  0.1068E+01  0.1011E+01  0.9935E+01  0.9815E+01
      5.149  0.1091E+01  0.9580E+00  0.1017E+02  0.1002E+02
      5.365  0.1155E+01  0.1067E+01  0.1042E+02  0.1025E+02
      5.580  0.1186E+01  0.1115E+01  0.1068E+02  0.1050E+02
      5.796  0.1281E+01  0.1108E+01  0.1096E+02  0.1074E+02
      6.011  0.1214E+01  0.1124E+01  0.1122E+02  0.1098E+02
      6.227  0.1486E+01  0.1117E+01  0.1154E+02  0.1122E+02
      6.442  0.1336E+01  0.1421E+01  0.1183E+02  0.1153E+02
      6.658  0.1464E+01  0.1201E+01  0.1215E+02  0.1179E+02
      6.873  0.1384E+01  0.1378E+01  0.1245E+02  0.1209E+02
      7.089  0.1474E+01  0.1271E+01  0.1277E+02  0.1236E+02
      7.305  0.1339E+01  0.1102E+01  0.1306E+02  0.1260E+02
      7.520  0.1825E+01  0.1217E+01  0.1345E+02  0.1287E+02
      7.736  0.2531E+01  0.1395E+01  0.1400E+02  0.1317E+02
      7.951  0.2964E+01  0.1744E+01  0.1464E+02  0.1355E+02
      8.167  0.3604E+01  0.2103E+01  0.1542E+02  0.1400E+02
      8.382  0.3634E+01  0.2245E+01  0.1621E+02  0.1449E+02
      8.598  0.3264E+01  0.2121E+01  0.1692E+02  0.1495E+02
      8.814  0.4118E+01  0.3111E+01  0.1781E+02  0.1562E+02
      9.029  0.4917E+01  0.2794E+01  0.1887E+02  0.1623E+02
      9.245  0.3672E+01  0.2623E+01  0.1967E+02  0.1680E+02
      9.460  0.1603E+01  0.2971E+01  0.2002E+02  0.1744E+02
      9.676  0.1734E+01  0.3217E+01  0.2040E+02  0.1814E+02
      9.891  0.4455E+01  0.3510E+01  0.2136E+02  0.1890E+02
     10.107  0.2539E+01  0.2896E+01  0.2191E+02  0.1953E+02
     10.322  0.2205E+01  0.1835E+01  0.2239E+02  0.1993E+02
     10.538  0.1629E+01  0.5083E+00  0.2274E+02  0.2004E+02
     10.754  0.1409E+01  0.2685E+00  0.2305E+02  0.2010E+02
     10.969  0.1374E+01  0.5065E+00  0.2335E+02  0.2021E+02
     11.185  0.1262E+01  0.1134E+01  0.2362E+02  0.2046E+02
     11.400  0.1216E+01  0.2405E+01  0.2388E+02  0.2098E+02
     11.616  0.1098E+01  0.5799E+01  0.2412E+02  0.2223E+02
     11.831  0.1570E+01  0.5181E+01  0.2446E+02  0.2335E+02
     12.047  0.2779E+01  0.2403E+01  0.2506E+02  0.2388E+02
     12.262  0.2470E+01  0.1518E+01  0.2560E+02  0.2421E+02
     12.478  0.1806E+01  0.1754E+01  0.2599E+02  0.2459E+02
     12.694  0.1437E+01  0.2416E+01  0.2630E+02  0.2511E+02
     12.909  0.1396E+01  0.2733E+01  0.2661E+02  0.2570E+02
     13.125  0.1485E+01  0.1640E+01  0.2693E+02  0.2606E+02
     13.340  0.1711E+01  0.1596E+01  0.2730E+02  0.2641E+02
     13.556  0.1805E+01  0.1616E+01  0.2769E+02  0.2676E+02
     13.771  0.1776E+01  0.1761E+01  0.2807E+02  0.2714E+02
     13.987  0.1596E+01  0.1872E+01  0.2842E+02  0.2754E+02
     14.202  0.1495E+01  0.2074E+01  0.2874E+02  0.2799E+02
     14.418  0.1394E+01  0.2006E+01  0.2905E+02  0.2843E+02
     14.634  0.1366E+01  0.1561E+01  0.2934E+02  0.2877E+02
     14.849  0.1670E+01  0.1647E+01  0.2970E+02  0.2912E+02
     15.065  0.1713E+01  0.1717E+01  0.3008E+02  0.2950E+02
     15.280  0.1723E+01  0.1726E+01  0.3045E+02  0.2987E+02
     15.496  0.1507E+01  0.1920E+01  0.3078E+02  0.3029E+02
     15.711  0.1323E+01  0.1506E+01  0.3106E+02  0.3061E+02
     15.927  0.1312E+01  0.1434E+01  0.3135E+02  0.3093E+02
     16.142  0.1427E+01  0.1245E+01  0.3166E+02  0.3119E+02
     16.358  0.1631E+01  0.1667E+01  0.3201E+02  0.3156E+02
     16.574  0.1593E+01  0.1551E+01  0.3236E+02  0.3189E+02
     16.789  0.1583E+01  0.1426E+01  0.3270E+02  0.3220E+02
     17.005  0.1704E+01  0.1958E+01  0.3307E+02  0.3262E+02
     17.220  0.1891E+01  0.1848E+01  0.3348E+02  0.3303E+02
     17.436  0.1741E+01  0.1989E+01  0.3385E+02  0.3346E+02
     17.651  0.1762E+01  0.1858E+01  0.3424E+02  0.3386E+02
     17.867  0.1754E+01  0.1835E+01  0.3462E+02  0.3426E+02
     18.082  0.1550E+01  0.1816E+01  0.3495E+02  0.3465E+02
     18.298  0.1269E+01  0.1622E+01  0.3523E+02  0.3500E+02
     18.514  0.7057E+00  0.1154E+01  0.3538E+02  0.3525E+02
     18.729  0.6188E+00  0.6608E+00  0.3552E+02  0.3540E+02
     18.945  0.4661E+00  0.6983E+00  0.3562E+02  0.3555E+02
     19.160  0.3210E+00  0.4447E+00  0.3569E+02  0.3565E+02
     19.376  0.2972E+00  0.3302E+00  0.3575E+02  0.3572E+02
     19.591  0.1605E+00  0.1825E+00  0.3579E+02  0.3576E+02
     19.807  0.2802E+00  0.2574E+00  0.3585E+02  0.3581E+02
     20.022  0.2255E+00  0.2519E+00  0.3590E+02  0.3587E+02
     20.238  0.1394E+00  0.2309E+00  0.3593E+02  0.3592E+02
     20.454  0.2286E+00  0.2170E+00  0.3598E+02  0.3597E+02
     20.669  0.6285E-01  0.1200E+00  0.3599E+02  0.3599E+02
     20.885  0.9551E-02  0.7955E-02  0.3599E+02  0.3599E+02
     21.100  0.2376E-01  0.5326E-02  0.3600E+02  0.3599E+02
     21.316  0.1697E-02  0.2406E-01  0.3600E+02  0.3600E+02
     21.531  0.0000E+00  0.1870E-02  0.3600E+02  0.3600E+02
     21.747  0.0000E+00  0.0000E+00  0.3600E+02  0.3600E+02
     21.962  0.0000E+00  0.0000E+00  0.3600E+02  0.3600E+02
     22.178  0.0000E+00  0.0000E+00  0.3600E+02  0.3600E+02
     22.394  0.0000E+00  0.0000E+00  0.3600E+02  0.3600E+02
     22.609  0.0000E+00  0.0000E+00  0.3600E+02  0.3600E+02
     22.825  0.0000E+00  0.0000E+00  0.3600E+02  0.3600E+02
     23.040  0.0000E+00  0.0000E+00  0.3600E+02  0.3600E+02
     23.256  0.0000E+00  0.0000E+00  0.3600E+02  0.3600E+02
     23.471  0.0000E+00  0.0000E+00  0.3600E+02  0.3600E+02
     23.687  0.0000E+00  0.0000E+00  0.3600E+02  0.3600E+02
     23.902  0.0000E+00  0.0000E+00  0.3600E+02  0.3600E+02
     24.118  0.0000E+00  0.0000E+00  0.3600E+02  0.3600E+02
     24.11803684    -40.54900936  301     11.15909199      1.00000000
    -40.549  0.0000E+00  0.0000E+00  0.0000E+00  0.0000E+00  0.0000E+00  0.0000E+00  0.0000E+00  0.0000E+00  0.0000E+00  0.0000E+00  0.0000E+00  0.0000E+00  0.0000E+00  0.0000E+00  0.0000E+00  0.0000E+00  0.0000E+00  0.0000E+00
    -40.333  0.0000E+00  0.0000E+00  0.0000E+00  0.0000E+00  0.0000E+00  0.0000E+00  0.0000E+00  0.0000E+00  0.0000E+00  0.0000E+00  0.0000E+00  0.0000E+00  0.0000E+00  0.0000E+00  0.0000E+00  0.0000E+00  0.0000E+00  0.0000E+00
    -40.118  0.0000E+00  0.0000E+00  0.0000E+00  0.0000E+00  0.0000E+00  0.0000E+00  0.0000E+00  0.0000E+00  0.0000E+00  0.0000E+00  0.0000E+00  0.0000E+00  0.0000E+00  0.0000E+00  0.0000E+00  0.0000E+00  0.0000E+00  0.0000E+00
    -39.902  0.0000E+00  0.0000E+00  0.0000E+00  0.0000E+00  0.0000E+00  0.0000E+00  0.0000E+00  0.0000E+00  0.0000E+00  0.0000E+00  0.0000E+00  0.0000E+00  0.0000E+00  0.0000E+00  0.0000E+00  0.0000E+00  0.0000E+00  0.0000E+00
    -39.687  0.0000E+00  0.0000E+00  0.0000E+00  0.0000E+00  0.0000E+00  0.0000E+00  0.0000E+00  0.0000E+00  0.0000E+00  0.0000E+00  0.0000E+00  0.0000E+00  0.0000E+00  0.0000E+00  0.0000E+00  0.0000E+00  0.0000E+00  0.0000E+00
    -39.471  0.0000E+00  0.0000E+00  0.0000E+00  0.0000E+00  0.0000E+00  0.0000E+00  0.0000E+00  0.0000E+00  0.0000E+00  0.0000E+00  0.0000E+00  0.0000E+00  0.0000E+00  0.0000E+00  0.0000E+00  0.0000E+00  0.0000E+00  0.0000E+00
    -39.256  0.0000E+00  0.0000E+00  0.0000E+00  0.0000E+00  0.0000E+00  0.0000E+00  0.0000E+00  0.0000E+00  0.0000E+00  0.0000E+00  0.0000E+00  0.0000E+00  0.0000E+00  0.0000E+00  0.0000E+00  0.0000E+00  0.0000E+00  0.0000E+00
    -39.040  0.0000E+00  0.0000E+00  0.0000E+00  0.0000E+00  0.0000E+00  0.0000E+00  0.0000E+00  0.0000E+00  0.0000E+00  0.0000E+00  0.0000E+00  0.0000E+00  0.0000E+00  0.0000E+00  0.0000E+00  0.0000E+00  0.0000E+00  0.0000E+00
    -38.825  0.0000E+00  0.0000E+00  0.0000E+00  0.0000E+00  0.0000E+00  0.0000E+00  0.0000E+00  0.0000E+00  0.0000E+00  0.0000E+00  0.0000E+00  0.0000E+00  0.0000E+00  0.0000E+00  0.0000E+00  0.0000E+00  0.0000E+00  0.0000E+00
    -38.609  0.0000E+00  0.0000E+00  0.0000E+00  0.0000E+00  0.0000E+00  0.0000E+00  0.0000E+00  0.0000E+00  0.0000E+00  0.0000E+00  0.0000E+00  0.0000E+00  0.0000E+00  0.0000E+00  0.0000E+00  0.0000E+00  0.0000E+00  0.0000E+00
    -38.393  0.0000E+00  0.0000E+00  0.0000E+00  0.0000E+00  0.0000E+00  0.0000E+00  0.0000E+00  0.0000E+00  0.0000E+00  0.0000E+00  0.0000E+00  0.0000E+00  0.0000E+00  0.0000E+00  0.0000E+00  0.0000E+00  0.0000E+00  0.0000E+00
    -38.178  0.2379E-11  0.0000E+00  0.4904E-04  0.0000E+00  0.3993E-10  0.0000E+00  0.4904E-04  0.0000E+00  0.8384E-13  0.0000E+00  0.3066E-14  0.0000E+00  0.9057E-12  0.0000E+00  0.3066E-14  0.0000E+00  0.2684E-11  0.0000E+00
    -37.962  0.1748E-09  0.0000E+00  0.3603E-02  0.0000E+00  0.1895E-03  0.0000E+00  0.3603E-02  0.0000E+00  0.6160E-11  0.0000E+00  0.3869E-12  0.0000E+00  0.6654E-10  0.0000E+00  0.3869E-12  0.0000E+00  0.1972E-09  0.0000E+00
    -37.747  0.1230E-07  0.0000E+00  0.2535E+00  0.0000E+00  0.1389E-01  0.0000E+00  0.2535E+00  0.0000E+00  0.4330E-09  0.0000E+00  0.2770E-10  0.0000E+00  0.4682E-08  0.0000E+00  0.2770E-10  0.0000E+00  0.1388E-07  0.0000E+00
    -37.531  0.1698E-06  0.0000E+00  0.3498E+01  0.0000E+00  0.8429E+00  0.0000E+00  0.3498E+01  0.0000E+00  0.5894E-08  0.0000E+00  0.9394E-09  0.0000E+00  0.6458E-07  0.0000E+00  0.9394E-09  0.0000E+00  0.1918E-06  0.0000E+00
    -37.316  0.4134E-07  0.0000E+00  0.8411E+00  0.0000E+00  0.3497E+01  0.0000E+00  0.8411E+00  0.0000E+00  0.1410E-08  0.0000E+00  0.3031E-08  0.0000E+00  0.1557E-07  0.0000E+00  0.3031E-08  0.0000E+00  0.4616E-07  0.0000E+00
    -37.100  0.4574E-10  0.0000E+00  0.1012E-06  0.0000E+00  0.2522E+00  0.0000E+00  0.1012E-06  0.0000E+00  0.1244E-11  0.0000E+00  0.2146E-09  0.0000E+00  0.5549E-11  0.0000E+00  0.2146E-09  0.0000E+00  0.3343E-12  0.0000E+00
    -36.885  0.0000E+00  0.0000E+00  0.0000E+00  0.0000E+00  0.0000E+00  0.0000E+00  0.0000E+00  0.0000E+00  0.0000E+00  0.0000E+00  0.0000E+00  0.0000E+00  0.0000E+00  0.0000E+00  0.0000E+00  0.0000E+00  0.0000E+00  0.0000E+00
    -36.669  0.0000E+00  0.0000E+00  0.0000E+00  0.0000E+00  0.0000E+00  0.0000E+00  0.0000E+00  0.0000E+00  0.0000E+00  0.0000E+00  0.0000E+00  0.0000E+00  0.0000E+00  0.0000E+00  0.0000E+00  0.0000E+00  0.0000E+00  0.0000E+00
    -36.453  0.0000E+00  0.7750E-11  0.0000E+00  0.1219E-03  0.0000E+00  0.8971E-04  0.0000E+00  0.1219E-03  0.0000E+00  0.3061E-12  0.0000E+00  0.1171E-12  0.0000E+00  0.2838E-11  0.0000E+00  0.1171E-12  0.0000E+00  0.8343E-11
    -36.238  0.0000E+00  0.5687E-09  0.0000E+00  0.8942E-02  0.0000E+00  0.6586E-02  0.0000E+00  0.8942E-02  0.0000E+00  0.2246E-10  0.0000E+00  0.8597E-11  0.0000E+00  0.2082E-09  0.0000E+00  0.8597E-11  0.0000E+00  0.6122E-09
    -36.022  0.0000E+00  0.3695E-07  0.0000E+00  0.5809E+00  0.0000E+00  0.4430E+00  0.0000E+00  0.5809E+00  0.0000E+00  0.1457E-08  0.0000E+00  0.5760E-09  0.0000E+00  0.1353E-07  0.0000E+00  0.5760E-09  0.0000E+00  0.3979E-07
    -35.807  0.0000E+00  0.2310E-06  0.0000E+00  0.3633E+01  0.0000E+00  0.3652E+01  0.0000E+00  0.3633E+01  0.0000E+00  0.9046E-08  0.0000E+00  0.4620E-08  0.0000E+00  0.8468E-07  0.0000E+00  0.4620E-08  0.0000E+00  0.2494E-06
    -35.591  0.0000E+00  0.2423E-07  0.0000E+00  0.3817E+00  0.0000E+00  0.5016E+00  0.0000E+00  0.3817E+00  0.0000E+00  0.9449E-09  0.0000E+00  0.6212E-09  0.0000E+00  0.8893E-08  0.0000E+00  0.6212E-09  0.0000E+00  0.2622E-07
    -35.376  0.0000E+00  0.0000E+00  0.0000E+00  0.0000E+00  0.0000E+00  0.0000E+00  0.0000E+00  0.0000E+00  0.0000E+00  0.0000E+00  0.0000E+00  0.0000E+00  0.0000E+00  0.0000E+00  0.0000E+00  0.0000E+00  0.0000E+00  0.0000E+00
    -35.160  0.0000E+00  0.0000E+00  0.0000E+00  0.0000E+00  0.0000E+00  0.0000E+00  0.0000E+00  0.0000E+00  0.0000E+00  0.0000E+00  0.0000E+00  0.0000E+00  0.0000E+00  0.0000E+00  0.0000E+00  0.0000E+00  0.0000E+00  0.0000E+00
    -34.945  0.0000E+00  0.0000E+00  0.0000E+00  0.0000E+00  0.0000E+00  0.0000E+00  0.0000E+00  0.0000E+00  0.0000E+00  0.0000E+00  0.0000E+00  0.0000E+00  0.0000E+00  0.0000E+00  0.0000E+00  0.0000E+00  0.0000E+00  0.0000E+00
    -34.729  0.0000E+00  0.0000E+00  0.0000E+00  0.0000E+00  0.0000E+00  0.0000E+00  0.0000E+00  0.0000E+00  0.0000E+00  0.0000E+00  0.0000E+00  0.0000E+00  0.0000E+00  0.0000E+00  0.0000E+00  0.0000E+00  0.0000E+00  0.0000E+00
    -34.513  0.0000E+00  0.0000E+00  0.0000E+00  0.0000E+00  0.0000E+00  0.0000E+00  0.0000E+00  0.0000E+00  0.0000E+00  0.0000E+00  0.0000E+00  0.0000E+00  0.0000E+00  0.0000E+00  0.0000E+00  0.0000E+00  0.0000E+00  0.0000E+00
    -34.298  0.0000E+00  0.0000E+00  0.0000E+00  0.0000E+00  0.0000E+00  0.0000E+00  0.0000E+00  0.0000E+00  0.0000E+00  0.0000E+00  0.0000E+00  0.0000E+00  0.0000E+00  0.0000E+00  0.0000E+00  0.0000E+00  0.0000E+00  0.0000E+00
    -34.082  0.0000E+00  0.0000E+00  0.0000E+00  0.0000E+00  0.0000E+00  0.0000E+00  0.0000E+00  0.0000E+00  0.0000E+00  0.0000E+00  0.0000E+00  0.0000E+00  0.0000E+00  0.0000E+00  0.0000E+00  0.0000E+00  0.0000E+00  0.0000E+00
    -33.867  0.0000E+00  0.0000E+00  0.0000E+00  0.0000E+00  0.0000E+00  0.0000E+00  0.0000E+00  0.0000E+00  0.0000E+00  0.0000E+00  0.0000E+00  0.0000E+00  0.0000E+00  0.0000E+00  0.0000E+00  0.0000E+00  0.0000E+00  0.0000E+00
    -33.651  0.0000E+00  0.0000E+00  0.0000E+00  0.0000E+00  0.0000E+00  0.0000E+00  0.0000E+00  0.0000E+00  0.0000E+00  0.0000E+00  0.0000E+00  0.0000E+00  0.0000E+00  0.0000E+00  0.0000E+00  0.0000E+00  0.0000E+00  0.0000E+00
    -33.436  0.0000E+00  0.0000E+00  0.0000E+00  0.0000E+00  0.0000E+00  0.0000E+00  0.0000E+00  0.0000E+00  0.0000E+00  0.0000E+00  0.0000E+00  0.0000E+00  0.0000E+00  0.0000E+00  0.0000E+00  0.0000E+00  0.0000E+00  0.0000E+00
    -33.220  0.0000E+00  0.0000E+00  0.0000E+00  0.0000E+00  0.0000E+00  0.0000E+00  0.0000E+00  0.0000E+00  0.0000E+00  0.0000E+00  0.0000E+00  0.0000E+00  0.0000E+00  0.0000E+00  0.0000E+00  0.0000E+00  0.0000E+00  0.0000E+00
    -33.005  0.0000E+00  0.0000E+00  0.0000E+00  0.0000E+00  0.0000E+00  0.0000E+00  0.0000E+00  0.0000E+00  0.0000E+00  0.0000E+00  0.0000E+00  0.0000E+00  0.0000E+00  0.0000E+00  0.0000E+00  0.0000E+00  0.0000E+00  0.0000E+00
    -32.789  0.0000E+00  0.0000E+00  0.0000E+00  0.0000E+00  0.0000E+00  0.0000E+00  0.0000E+00  0.0000E+00  0.0000E+00  0.0000E+00  0.0000E+00  0.0000E+00  0.0000E+00  0.0000E+00  0.0000E+00  0.0000E+00  0.0000E+00  0.0000E+00
    -32.573  0.0000E+00  0.0000E+00  0.0000E+00  0.0000E+00  0.0000E+00  0.0000E+00  0.0000E+00  0.0000E+00  0.0000E+00  0.0000E+00  0.0000E+00  0.0000E+00  0.0000E+00  0.0000E+00  0.0000E+00  0.0000E+00  0.0000E+00  0.0000E+00
    -32.358  0.0000E+00  0.0000E+00  0.0000E+00  0.0000E+00  0.0000E+00  0.0000E+00  0.0000E+00  0.0000E+00  0.0000E+00  0.0000E+00  0.0000E+00  0.0000E+00  0.0000E+00  0.0000E+00  0.0000E+00  0.0000E+00  0.0000E+00  0.0000E+00
    -32.142  0.0000E+00  0.0000E+00  0.0000E+00  0.0000E+00  0.0000E+00  0.0000E+00  0.0000E+00  0.0000E+00  0.0000E+00  0.0000E+00  0.0000E+00  0.0000E+00  0.0000E+00  0.0000E+00  0.0000E+00  0.0000E+00  0.0000E+00  0.0000E+00
    -31.927  0.0000E+00  0.0000E+00  0.0000E+00  0.0000E+00  0.0000E+00  0.0000E+00  0.0000E+00  0.0000E+00  0.0000E+00  0.0000E+00  0.0000E+00  0.0000E+00  0.0000E+00  0.0000E+00  0.0000E+00  0.0000E+00  0.0000E+00  0.0000E+00
    -31.711  0.0000E+00  0.0000E+00  0.0000E+00  0.0000E+00  0.0000E+00  0.0000E+00  0.0000E+00  0.0000E+00  0.0000E+00  0.0000E+00  0.0000E+00  0.0000E+00  0.0000E+00  0.0000E+00  0.0000E+00  0.0000E+00  0.0000E+00  0.0000E+00
    -31.496  0.0000E+00  0.0000E+00  0.0000E+00  0.0000E+00  0.0000E+00  0.0000E+00  0.0000E+00  0.0000E+00  0.0000E+00  0.0000E+00  0.0000E+00  0.0000E+00  0.0000E+00  0.0000E+00  0.0000E+00  0.0000E+00  0.0000E+00  0.0000E+00
    -31.280  0.0000E+00  0.0000E+00  0.0000E+00  0.0000E+00  0.0000E+00  0.0000E+00  0.0000E+00  0.0000E+00  0.0000E+00  0.0000E+00  0.0000E+00  0.0000E+00  0.0000E+00  0.0000E+00  0.0000E+00  0.0000E+00  0.0000E+00  0.0000E+00
    -31.065  0.0000E+00  0.0000E+00  0.0000E+00  0.0000E+00  0.0000E+00  0.0000E+00  0.0000E+00  0.0000E+00  0.0000E+00  0.0000E+00  0.0000E+00  0.0000E+00  0.0000E+00  0.0000E+00  0.0000E+00  0.0000E+00  0.0000E+00  0.0000E+00
    -30.849  0.0000E+00  0.0000E+00  0.0000E+00  0.0000E+00  0.0000E+00  0.0000E+00  0.0000E+00  0.0000E+00  0.0000E+00  0.0000E+00  0.0000E+00  0.0000E+00  0.0000E+00  0.0000E+00  0.0000E+00  0.0000E+00  0.0000E+00  0.0000E+00
    -30.633  0.0000E+00  0.0000E+00  0.0000E+00  0.0000E+00  0.0000E+00  0.0000E+00  0.0000E+00  0.0000E+00  0.0000E+00  0.0000E+00  0.0000E+00  0.0000E+00  0.0000E+00  0.0000E+00  0.0000E+00  0.0000E+00  0.0000E+00  0.0000E+00
    -30.418  0.0000E+00  0.0000E+00  0.0000E+00  0.0000E+00  0.0000E+00  0.0000E+00  0.0000E+00  0.0000E+00  0.0000E+00  0.0000E+00  0.0000E+00  0.0000E+00  0.0000E+00  0.0000E+00  0.0000E+00  0.0000E+00  0.0000E+00  0.0000E+00
    -30.202  0.0000E+00  0.0000E+00  0.0000E+00  0.0000E+00  0.0000E+00  0.0000E+00  0.0000E+00  0.0000E+00  0.0000E+00  0.0000E+00  0.0000E+00  0.0000E+00  0.0000E+00  0.0000E+00  0.0000E+00  0.0000E+00  0.0000E+00  0.0000E+00
    -29.987  0.0000E+00  0.0000E+00  0.0000E+00  0.0000E+00  0.0000E+00  0.0000E+00  0.0000E+00  0.0000E+00  0.0000E+00  0.0000E+00  0.0000E+00  0.0000E+00  0.0000E+00  0.0000E+00  0.0000E+00  0.0000E+00  0.0000E+00  0.0000E+00
    -29.771  0.0000E+00  0.0000E+00  0.0000E+00  0.0000E+00  0.0000E+00  0.0000E+00  0.0000E+00  0.0000E+00  0.0000E+00  0.0000E+00  0.0000E+00  0.0000E+00  0.0000E+00  0.0000E+00  0.0000E+00  0.0000E+00  0.0000E+00  0.0000E+00