   8   8   1   0
  0.1455711E+02  0.3816667E-09  0.3816667E-09  0.7994596E-09  0.5000000E-15
  1.000000000000000E-004
  CAR 
 unknown system                          
     20.61611277    -42.88986607  301      8.93796012      1.00000000
    -42.890  0.0000E+00  0.0000E+00  0.0000E+00  0.0000E+00
    -42.678  0.0000E+00  0.0000E+00  0.0000E+00  0.0000E+00
    -42.466  0.0000E+00  0.0000E+00  0.0000E+00  0.0000E+00
    -42.255  0.0000E+00  0.0000E+00  0.0000E+00  0.0000E+00
    -42.043  0.0000E+00  0.0000E+00  0.0000E+00  0.0000E+00
    -41.831  0.0000E+00  0.0000E+00  0.0000E+00  0.0000E+00
    -41.620  0.0000E+00  0.0000E+00  0.0000E+00  0.0000E+00
    -41.408  0.0000E+00  0.0000E+00  0.0000E+00  0.0000E+00
    -41.196  0.0000E+00  0.0000E+00  0.0000E+00  0.0000E+00
    -40.985  0.0000E+00  0.0000E+00  0.0000E+00  0.0000E+00
    -40.773  0.0000E+00  0.0000E+00  0.0000E+00  0.0000E+00
    -40.561  0.2597E-03  0.0000E+00  0.5498E-04  0.0000E+00
    -40.350  0.1805E-01  0.0000E+00  0.3876E-02  0.0000E+00
    -40.138  0.1170E+01  0.0000E+00  0.2515E+00  0.0000E+00
    -39.926  0.1591E+02  0.0000E+00  0.3620E+01  0.0000E+00
    -39.715  0.1057E+02  0.0000E+00  0.5858E+01  0.0000E+00
    -39.503  0.6030E+00  0.0000E+00  0.5998E+01  0.0000E+00
    -39.291  0.0000E+00  0.0000E+00  0.6000E+01  0.0000E+00
    -39.080  0.0000E+00  0.0000E+00  0.6000E+01  0.0000E+00
    -38.868  0.0000E+00  0.0000E+00  0.6000E+01  0.0000E+00
    -38.656  0.0000E+00  0.0000E+00  0.6000E+01  0.0000E+00
    -38.444  0.0000E+00  0.5988E-03  0.6000E+01  0.1268E-03
    -38.233  0.0000E+00  0.4064E-01  0.6000E+01  0.8729E-02
    -38.021  0.0000E+00  0.2533E+01  0.6000E+01  0.5450E+00
    -37.809  0.0000E+00  0.2198E+02  0.6000E+01  0.5197E+01
    -37.598  0.0000E+00  0.3730E+01  0.6000E+01  0.5986E+01
    -37.386  0.0000E+00  0.0000E+00  0.6000E+01  0.6000E+01
    -37.174  0.0000E+00  0.0000E+00  0.6000E+01  0.6000E+01
    -36.963  0.0000E+00  0.0000E+00  0.6000E+01  0.6000E+01
    -36.751  0.0000E+00  0.0000E+00  0.6000E+01  0.6000E+01
    -36.539  0.0000E+00  0.0000E+00  0.6000E+01  0.6000E+01
    -36.328  0.0000E+00  0.0000E+00  0.6000E+01  0.6000E+01
    -36.116  0.0000E+00  0.0000E+00  0.6000E+01  0.6000E+01
    -35.904  0.0000E+00  0.0000E+00  0.6000E+01  0.6000E+01
    -35.693  0.0000E+00  0.0000E+00  0.6000E+01  0.6000E+01
    -35.481  0.0000E+00  0.0000E+00  0.6000E+01  0.6000E+01
    -35.269  0.0000E+00  0.0000E+00  0.6000E+01  0.6000E+01
    -35.057  0.0000E+00  0.0000E+00  0.6000E+01  0.6000E+01
    -34.846  0.0000E+00  0.0000E+00  0.6000E+01  0.6000E+01
    -34.634  0.0000E+00  0.0000E+00  0.6000E+01  0.6000E+01
    -34.422  0.0000E+00  0.0000E+00  0.6000E+01  0.6000E+01
    -34.211  0.0000E+00  0.0000E+00  0.6000E+01  0.6000E+01
    -33.999  0.0000E+00  0.0000E+00  0.6000E+01  0.6000E+01
    -33.787  0.0000E+00  0.0000E+00  0.6000E+01  0.6000E+01
    -33.576  0.0000E+00  0.0000E+00  0.6000E+01  0.6000E+01
    -33.364  0.0000E+00  0.0000E+00  0.6000E+01  0.6000E+01
    -33.152  0.0000E+00  0.0000E+00  0.6000E+01  0.6000E+01
    -32.941  0.0000E+00  0.0000E+00  0.6000E+01  0.6000E+01
    -32.729  0.0000E+00  0.0000E+00  0.6000E+01  0.6000E+01
    -32.517  0.0000E+00  0.0000E+00  0.6000E+01  0.6000E+01
    -32.306  0.0000E+00  0.0000E+00  0.6000E+01  0.6000E+01
    -32.094  0.0000E+00  0.0000E+00  0.6000E+01  0.6000E+01
    -31.882  0.0000E+00  0.0000E+00  0.6000E+01  0.6000E+01
    -31.670  0.0000E+00  0.0000E+00  0.6000E+01  0.6000E+01
    -31.459  0.0000E+00  0.0000E+00  0.6000E+01  0.6000E+01
    -31.247  0.0000E+00  0.0000E+00  0.6000E+01  0.6000E+01
    -31.035  0.0000E+00  0.0000E+00  0.6000E+01  0.6000E+01
    -30.824  0.0000E+00  0.0000E+00  0.6000E+01  0.6000E+01
    -30.612  0.0000E+00  0.0000E+00  0.6000E+01  0.6000E+01
    -30.400  0.0000E+00  0.0000E+00  0.6000E+01  0.6000E+01
    -30.189  0.0000E+00  0.0000E+00  0.6000E+01  0.6000E+01
    -29.977  0.0000E+00  0.0000E+00  0.6000E+01  0.6000E+01
    -29.765  0.0000E+00  0.0000E+00  0.6000E+01  0.6000E+01
    -29.554  0.0000E+00  0.0000E+00  0.6000E+01  0.6000E+01
    -29.342  0.0000E+00  0.0000E+00  0.6000E+01  0.6000E+01
    -29.130  0.0000E+00  0.0000E+00  0.6000E+01  0.6000E+01
    -28.919  0.0000E+00  0.0000E+00  0.6000E+01  0.6000E+01
    -28.707  0.0000E+00  0.0000E+00  0.6000E+01  0.6000E+01
    -28.495  0.0000E+00  0.0000E+00  0.6000E+01  0.6000E+01
    -28.283  0.0000E+00  0.0000E+00  0.6000E+01  0.6000E+01
    -28.072  0.0000E+00  0.0000E+00  0.6000E+01  0.6000E+01
    -27.860  0.0000E+00  0.0000E+00  0.6000E+01  0.6000E+01
    -27.648  0.0000E+00  0.0000E+00  0.6000E+01  0.6000E+01
    -27.437  0.0000E+00  0.0000E+00  0.6000E+01  0.6000E+01
    -27.225  0.0000E+00  0.0000E+00  0.6000E+01  0.6000E+01
    -27.013  0.0000E+00  0.0000E+00  0.6000E+01  0.6000E+01
    -26.802  0.0000E+00  0.0000E+00  0.6000E+01  0.6000E+01
    -26.590  0.0000E+00  0.0000E+00  0.6000E+01  0.6000E+01
    -26.378  0.0000E+00  0.0000E+00  0.6000E+01  0.6000E+01
    -26.167  0.0000E+00  0.0000E+00  0.6000E+01  0.6000E+01
    -25.955  0.0000E+00  0.0000E+00  0.6000E+01  0.6000E+01
    -25.743  0.0000E+00  0.0000E+00  0.6000E+01  0.6000E+01
    -25.532  0.0000E+00  0.0000E+00  0.6000E+01  0.6000E+01
    -25.320  0.0000E+00  0.0000E+00  0.6000E+01  0.6000E+01
    -25.108  0.0000E+00  0.0000E+00  0.6000E+01  0.6000E+01
    -24.897  0.0000E+00  0.0000E+00  0.6000E+01  0.6000E+01
    -24.685  0.0000E+00  0.0000E+00  0.6000E+01  0.6000E+01
    -24.473  0.0000E+00  0.0000E+00  0.6000E+01  0.6000E+01
    -24.261  0.0000E+00  0.0000E+00  0.6000E+01  0.6000E+01
    -24.050  0.0000E+00  0.0000E+00  0.6000E+01  0.6000E+01
    -23.838  0.0000E+00  0.0000E+00  0.6000E+01  0.6000E+01
    -23.626  0.0000E+00  0.0000E+00  0.6000E+01  0.6000E+01
    -23.415  0.0000E+00  0.0000E+00  0.6000E+01  0.6000E+01
    -23.203  0.0000E+00  0.0000E+00  0.6000E+01  0.6000E+01
    -22.991  0.0000E+00  0.0000E+00  0.6000E+01  0.6000E+01
    -22.780  0.0000E+00  0.0000E+00  0.6000E+01  0.6000E+01
    -22.568  0.0000E+00  0.0000E+00  0.6000E+01  0.6000E+01
    -22.356  0.0000E+00  0.0000E+00  0.6000E+01  0.6000E+01
    -22.145  0.0000E+00  0.0000E+00  0.6000E+01  0.6000E+01
    -21.933  0.0000E+00  0.0000E+00  0.6000E+01  0.6000E+01
    -21.721  0.0000E+00  0.0000E+00  0.6000E+01  0.6000E+01
    -21.510  0.0000E+00  0.0000E+00  0.6000E+01  0.6000E+01
    -21.298  0.0000E+00  0.0000E+00  0.6000E+01  0.6000E+01
    -21.086  0.0000E+00  0.0000E+00  0.6000E+01  0.6000E+01
    -20.874  0.0000E+00  0.0000E+00  0.6000E+01  0.6000E+01
    -20.663  0.0000E+00  0.0000E+00  0.6000E+01  0.6000E+01
    -20.451  0.0000E+00  0.0000E+00  0.6000E+01  0.6000E+01
    -20.239  0.0000E+00  0.0000E+00  0.6000E+01  0.6000E+01
    -20.028  0.0000E+00  0.0000E+00  0.6000E+01  0.6000E+01
    -19.816  0.0000E+00  0.0000E+00  0.6000E+01  0.6000E+01
    -19.604  0.0000E+00  0.0000E+00  0.6000E+01  0.6000E+01
    -19.393  0.0000E+00  0.0000E+00  0.6000E+01  0.6000E+01
    -19.181  0.0000E+00  0.0000E+00  0.6000E+01  0.6000E+01
    -18.969  0.0000E+00  0.0000E+00  0.6000E+01  0.6000E+01
    -18.758  0.0000E+00  0.0000E+00  0.6000E+01  0.6000E+01
    -18.546  0.0000E+00  0.0000E+00  0.6000E+01  0.6000E+01
    -18.334  0.0000E+00  0.0000E+00  0.6000E+01  0.6000E+01
    -18.123  0.0000E+00  0.0000E+00  0.6000E+01  0.6000E+01
    -17.911  0.0000E+00  0.0000E+00  0.6000E+01  0.6000E+01
    -17.699  0.0000E+00  0.0000E+00  0.6000E+01  0.6000E+01
    -17.487  0.0000E+00  0.0000E+00  0.6000E+01  0.6000E+01
    -17.276  0.0000E+00  0.0000E+00  0.6000E+01  0.6000E+01
    -17.064  0.0000E+00  0.0000E+00  0.6000E+01  0.6000E+01
    -16.852  0.0000E+00  0.0000E+00  0.6000E+01  0.6000E+01
    -16.641  0.0000E+00  0.0000E+00  0.6000E+01  0.6000E+01
    -16.429  0.0000E+00  0.0000E+00  0.6000E+01  0.6000E+01
    -16.217  0.0000E+00  0.0000E+00  0.6000E+01  0.6000E+01
    -16.006  0.0000E+00  0.0000E+00  0.6000E+01  0.6000E+01
    -15.794  0.0000E+00  0.0000E+00  0.6000E+01  0.6000E+01
    -15.582  0.0000E+00  0.0000E+00  0.6000E+01  0.6000E+01
    -15.371  0.0000E+00  0.0000E+00  0.6000E+01  0.6000E+01
    -15.159  0.0000E+00  0.0000E+00  0.6000E+01  0.6000E+01
    -14.947  0.0000E+00  0.0000E+00  0.6000E+01  0.6000E+01
    -14.736  0.0000E+00  0.0000E+00  0.6000E+01  0.6000E+01
    -14.524  0.0000E+00  0.0000E+00  0.6000E+01  0.6000E+01
    -14.312  0.0000E+00  0.0000E+00  0.6000E+01  0.6000E+01
    -14.100  0.0000E+00  0.0000E+00  0.6000E+01  0.6000E+01
    -13.889  0.0000E+00  0.0000E+00  0.6000E+01  0.6000E+01
    -13.677  0.0000E+00  0.0000E+00  0.6000E+01  0.6000E+01
    -13.465  0.0000E+00  0.0000E+00  0.6000E+01  0.6000E+01
    -13.254  0.0000E+00  0.0000E+00  0.6000E+01  0.6000E+01
    -13.042  0.0000E+00  0.0000E+00  0.6000E+01  0.6000E+01
    -12.830  0.0000E+00  0.0000E+00  0.6000E+01  0.6000E+01
    -12.619  0.0000E+00  0.0000E+00  0.6000E+01  0.6000E+01
    -12.407  0.0000E+00  0.0000E+00  0.6000E+01  0.6000E+01
    -12.195  0.0000E+00  0.0000E+00  0.6000E+01  0.6000E+01
    -11.984  0.0000E+00  0.0000E+00  0.6000E+01  0.6000E+01
    -11.772  0.0000E+00  0.0000E+00  0.6000E+01  0.6000E+01
    -11.560  0.0000E+00  0.0000E+00  0.6000E+01  0.6000E+01
    -11.349  0.0000E+00  0.0000E+00  0.6000E+01  0.6000E+01
    -11.137  0.0000E+00  0.0000E+00  0.6000E+01  0.6000E+01
    -10.925  0.0000E+00  0.0000E+00  0.6000E+01  0.6000E+01
    -10.714  0.0000E+00  0.0000E+00  0.6000E+01  0.6000E+01
    -10.502  0.0000E+00  0.0000E+00  0.6000E+01  0.6000E+01
    -10.290  0.0000E+00  0.0000E+00  0.6000E+01  0.6000E+01
    -10.078  0.0000E+00  0.0000E+00  0.6000E+01  0.6000E+01
     -9.867  0.0000E+00  0.0000E+00  0.6000E+01  0.6000E+01
     -9.655  0.0000E+00  0.0000E+00  0.6000E+01  0.6000E+01
     -9.443  0.0000E+00  0.0000E+00  0.6000E+01  0.6000E+01
     -9.232  0.0000E+00  0.0000E+00  0.6000E+01  0.6000E+01
     -9.020  0.0000E+00  0.0000E+00  0.6000E+01  0.6000E+01
     -8.808  0.0000E+00  0.0000E+00  0.6000E+01  0.6000E+01
     -8.597  0.0000E+00  0.0000E+00  0.6000E+01  0.6000E+01
     -8.385  0.0000E+00  0.0000E+00  0.6000E+01  0.6000E+01
     -8.173  0.0000E+00  0.0000E+00  0.6000E+01  0.6000E+01
     -7.962  0.0000E+00  0.0000E+00  0.6000E+01  0.6000E+01
     -7.750  0.0000E+00  0.0000E+00  0.6000E+01  0.6000E+01
     -7.538  0.0000E+00  0.0000E+00  0.6000E+01  0.6000E+01
     -7.327  0.0000E+00  0.0000E+00  0.6000E+01  0.6000E+01
     -7.115  0.0000E+00  0.0000E+00  0.6000E+01  0.6000E+01
     -6.903  0.0000E+00  0.0000E+00  0.6000E+01  0.6000E+01
     -6.691  0.0000E+00  0.0000E+00  0.6000E+01  0.6000E+01
     -6.480  0.0000E+00  0.0000E+00  0.6000E+01  0.6000E+01
     -6.268  0.0000E+00  0.0000E+00  0.6000E+01  0.6000E+01
     -6.056  0.0000E+00  0.0000E+00  0.6000E+01  0.6000E+01
     -5.845  0.0000E+00  0.0000E+00  0.6000E+01  0.6000E+01
     -5.633  0.0000E+00  0.0000E+00  0.6000E+01  0.6000E+01
     -5.421  0.0000E+00  0.0000E+00  0.6000E+01  0.6000E+01
     -5.210  0.0000E+00  0.0000E+00  0.6000E+01  0.6000E+01
     -4.998  0.0000E+00  0.0000E+00  0.6000E+01  0.6000E+01
     -4.786  0.0000E+00  0.0000E+00  0.6000E+01  0.6000E+01
     -4.575  0.0000E+00  0.0000E+00  0.6000E+01  0.6000E+01
     -4.363  0.0000E+00  0.0000E+00  0.6000E+01  0.6000E+01
     -4.151  0.0000E+00  0.0000E+00  0.6000E+01  0.6000E+01
     -3.940  0.0000E+00  0.0000E+00  0.6000E+01  0.6000E+01
     -3.728  0.0000E+00  0.0000E+00  0.6000E+01  0.6000E+01
     -3.516  0.0000E+00  0.0000E+00  0.6000E+01  0.6000E+01
     -3.304  0.0000E+00  0.0000E+00  0.6000E+01  0.6000E+01
     -3.093  0.0000E+00  0.0000E+00  0.6000E+01  0.6000E+01
     -2.881  0.0000E+00  0.0000E+00  0.6000E+01  0.6000E+01
     -2.669  0.3979E-05  0.4456E-05  0.6000E+01  0.6000E+01
     -2.458  0.2784E-03  0.3117E-03  0.6000E+01  0.6000E+01
     -2.246  0.1452E-01  0.1589E-01  0.6003E+01  0.6003E+01
     -2.034  0.1174E+00  0.1214E+00  0.6028E+01  0.6029E+01
     -1.823  0.2250E+00  0.2279E+00  0.6076E+01  0.6077E+01
     -1.611  0.2962E+00  0.2999E+00  0.6138E+01  0.6141E+01
     -1.399  0.3558E+00  0.3580E+00  0.6214E+01  0.6217E+01
     -1.188  0.4008E+00  0.4064E+00  0.6299E+01  0.6303E+01
     -0.976  0.4644E+00  0.4690E+00  0.6398E+01  0.6403E+01
     -0.764  0.4603E+00  0.4642E+00  0.6496E+01  0.6502E+01
     -0.553  0.5638E+00  0.5799E+00  0.6616E+01  0.6625E+01
     -0.341  0.5992E+00  0.6045E+00  0.6743E+01  0.6754E+01
     -0.129  0.5823E+00  0.5942E+00  0.6867E+01  0.6880E+01
      0.083  0.7155E+00  0.7093E+00  0.7020E+01  0.7031E+01
      0.294  0.6572E+00  0.6656E+00  0.7160E+01  0.7173E+01
      0.506  0.7064E+00  0.6877E+00  0.7310E+01  0.7320E+01
      0.718  0.7187E+00  0.7250E+00  0.7463E+01  0.7474E+01
      0.929  0.8349E+00  0.7807E+00  0.7640E+01  0.7640E+01
      1.141  0.6999E+00  0.6745E+00  0.7789E+01  0.7783E+01
      1.353  0.8177E+00  0.7917E+00  0.7963E+01  0.7952E+01
      1.564  0.9172E+00  0.9234E+00  0.8159E+01  0.8148E+01
      1.776  0.9523E+00  0.9198E+00  0.8362E+01  0.8344E+01
      1.988  0.9599E+00  0.9513E+00  0.8566E+01  0.8547E+01
      2.199  0.8766E+00  0.8513E+00  0.8753E+01  0.8728E+01
      2.411  0.8223E+00  0.8192E+00  0.8927E+01  0.8902E+01
      2.623  0.9077E+00  0.8214E+00  0.9121E+01  0.9077E+01
      2.834  0.9520E+00  0.9329E+00  0.9323E+01  0.9275E+01
      3.046  0.1096E+01  0.9982E+00  0.9555E+01  0.9487E+01
      3.258  0.1150E+01  0.1115E+01  0.9799E+01  0.9724E+01
      3.469  0.1142E+01  0.1092E+01  0.1004E+02  0.9957E+01
      3.681  0.1211E+01  0.1046E+01  0.1030E+02  0.1018E+02
      3.893  0.1293E+01  0.1201E+01  0.1058E+02  0.1043E+02
      4.105  0.1220E+01  0.1166E+01  0.1083E+02  0.1068E+02
      4.316  0.1287E+01  0.1102E+01  0.1111E+02  0.1092E+02
      4.528  0.1504E+01  0.1165E+01  0.1143E+02  0.1117E+02
      4.740  0.1462E+01  0.1429E+01  0.1174E+02  0.1147E+02
      4.951  0.1535E+01  0.1289E+01  0.1207E+02  0.1174E+02
      5.163  0.1653E+01  0.1391E+01  0.1242E+02  0.1204E+02
      5.375  0.1627E+01  0.1505E+01  0.1276E+02  0.1236E+02
      5.586  0.1795E+01  0.1254E+01  0.1315E+02  0.1263E+02
      5.798  0.2254E+01  0.1387E+01  0.1362E+02  0.1292E+02
      6.010  0.2880E+01  0.1575E+01  0.1424E+02  0.1326E+02
      6.221  0.3761E+01  0.1846E+01  0.1504E+02  0.1365E+02
      6.433  0.4574E+01  0.1853E+01  0.1601E+02  0.1405E+02
      6.645  0.4094E+01  0.2263E+01  0.1688E+02  0.1453E+02
      6.856  0.5194E+01  0.2169E+01  0.1798E+02  0.1499E+02
      7.068  0.5785E+01  0.3136E+01  0.1921E+02  0.1565E+02
      7.280  0.3896E+01  0.2738E+01  0.2005E+02  0.1624E+02
      7.492  0.4775E+01  0.2832E+01  0.2106E+02  0.1684E+02
      7.703  0.3113E+01  0.2862E+01  0.2172E+02  0.1745E+02
      7.915  0.2440E+01  0.3141E+01  0.2224E+02  0.1812E+02
      8.127  0.1884E+01  0.3633E+01  0.2265E+02  0.1889E+02
      8.338  0.1403E+01  0.3109E+01  0.2295E+02  0.1955E+02
      8.550  0.1522E+01  0.1870E+01  0.2327E+02  0.1995E+02
      8.762  0.1319E+01  0.5661E+00  0.2355E+02  0.2008E+02
      8.973  0.1607E+01  0.5407E+00  0.2389E+02  0.2019E+02
      9.185  0.2052E+01  0.1296E+01  0.2433E+02  0.2047E+02
      9.397  0.2935E+01  0.2921E+01  0.2495E+02  0.2109E+02
      9.608  0.2188E+01  0.6684E+01  0.2542E+02  0.2250E+02
      9.820  0.2113E+01  0.5732E+01  0.2587E+02  0.2372E+02
     10.032  0.1655E+01  0.2534E+01  0.2622E+02  0.2427E+02
     10.243  0.1454E+01  0.2909E+01  0.2653E+02  0.2488E+02
     10.455  0.1864E+01  0.3457E+01  0.2693E+02  0.2562E+02
     10.667  0.1643E+01  0.2193E+01  0.2728E+02  0.2609E+02
     10.879  0.1745E+01  0.1921E+01  0.2765E+02  0.2650E+02
     11.090  0.1977E+01  0.1965E+01  0.2807E+02  0.2692E+02
     11.302  0.1920E+01  0.2184E+01  0.2848E+02  0.2738E+02
     11.514  0.2034E+01  0.2123E+01  0.2891E+02  0.2783E+02
     11.725  0.1386E+01  0.2348E+01  0.2921E+02  0.2833E+02
     11.937  0.1673E+01  0.2325E+01  0.2956E+02  0.2883E+02
     12.149  0.1892E+01  0.2005E+01  0.2997E+02  0.2925E+02
     12.360  0.1894E+01  0.2221E+01  0.3037E+02  0.2973E+02
     12.572  0.1819E+01  0.2081E+01  0.3076E+02  0.3017E+02
     12.784  0.1370E+01  0.1997E+01  0.3105E+02  0.3059E+02
     12.995  0.1533E+01  0.1539E+01  0.3137E+02  0.3092E+02
     13.207  0.1620E+01  0.1526E+01  0.3172E+02  0.3125E+02
     13.419  0.1564E+01  0.1849E+01  0.3205E+02  0.3164E+02
     13.630  0.1869E+01  0.1456E+01  0.3245E+02  0.3195E+02
     13.842  0.1948E+01  0.1900E+01  0.3286E+02  0.3235E+02
     14.054  0.1929E+01  0.2065E+01  0.3328E+02  0.3279E+02
     14.266  0.1955E+01  0.2222E+01  0.3369E+02  0.3326E+02
     14.477  0.1821E+01  0.2102E+01  0.3408E+02  0.3371E+02
     14.689  0.1986E+01  0.2018E+01  0.3450E+02  0.3414E+02
     14.901  0.1562E+01  0.2147E+01  0.3483E+02  0.3460E+02
     15.112  0.1376E+01  0.1536E+01  0.3513E+02  0.3492E+02
     15.324  0.1086E+01  0.1243E+01  0.3536E+02  0.3519E+02
     15.536  0.7869E+00  0.1133E+01  0.3553E+02  0.3543E+02
     15.747  0.4696E+00  0.6854E+00  0.3563E+02  0.3558E+02
     15.959  0.4024E+00  0.4559E+00  0.3571E+02  0.3567E+02
     16.171  0.2527E+00  0.3610E+00  0.3577E+02  0.3575E+02
     16.382  0.2349E+00  0.1636E+00  0.3582E+02  0.3579E+02
     16.594  0.2165E+00  0.2798E+00  0.3586E+02  0.3585E+02
     16.806  0.2856E+00  0.2664E+00  0.3592E+02  0.3590E+02
     17.017  0.1269E+00  0.1890E+00  0.3595E+02  0.3594E+02
     17.229  0.1084E+00  0.1636E+00  0.3597E+02  0.3598E+02
     17.441  0.7654E-01  0.6542E-01  0.3599E+02  0.3599E+02
     17.653  0.3216E-01  0.1189E-01  0.3600E+02  0.3599E+02
     17.864  0.9457E-02  0.2428E-01  0.3600E+02  0.3600E+02
     18.076  0.0000E+00  0.1991E-02  0.3600E+02  0.3600E+02
     18.288  0.0000E+00  0.0000E+00  0.3600E+02  0.3600E+02
     18.499  0.0000E+00  0.0000E+00  0.3600E+02  0.3600E+02
     18.711  0.0000E+00  0.0000E+00  0.3600E+02  0.3600E+02
     18.923  0.0000E+00  0.0000E+00  0.3600E+02  0.3600E+02
     19.134  0.0000E+00  0.0000E+00  0.3600E+02  0.3600E+02
     19.346  0.0000E+00  0.0000E+00  0.3600E+02  0.3600E+02
     19.558  0.0000E+00  0.0000E+00  0.3600E+02  0.3600E+02
     19.769  0.0000E+00  0.0000E+00  0.3600E+02  0.3600E+02
     19.981  0.0000E+00  0.0000E+00  0.3600E+02  0.3600E+02
     20.193  0.0000E+00  0.0000E+00  0.3600E+02  0.3600E+02
     20.404  0.0000E+00  0.0000E+00  0.3600E+02  0.3600E+02
     20.616  0.0000E+00  0.0000E+00  0.3600E+02  0.3600E+02
     20.61611277    -42.88986607  301      8.93796012      1.00000000
    -42.890  0.0000E+00  0.0000E+00  0.0000E+00  0.0000E+00  0.0000E+00  0.0000E+00  0.0000E+00  0.0000E+00  0.0000E+00  0.0000E+00  0.0000E+00  0.0000E+00  0.0000E+00  0.0000E+00  0.0000E+00  0.0000E+00  0.0000E+00  0.0000E+00
    -42.678  0.0000E+00  0.0000E+00  0.0000E+00  0.0000E+00  0.0000E+00  0.0000E+00  0.0000E+00  0.0000E+00  0.0000E+00  0.0000E+00  0.0000E+00  0.0000E+00  0.0000E+00  0.0000E+00  0.0000E+00  0.0000E+00  0.0000E+00  0.0000E+00
    -42.466  0.0000E+00  0.0000E+00  0.0000E+00  0.0000E+00  0.0000E+00  0.0000E+00  0.0000E+00  0.0000E+00  0.0000E+00  0.0000E+00  0.0000E+00  0.0000E+00  0.0000E+00  0.0000E+00  0.0000E+00  0.0000E+00  0.0000E+00  0.0000E+00
    -42.255  0.0000E+00  0.0000E+00  0.0000E+00  0.0000E+00  0.0000E+00  0.0000E+00  0.0000E+00  0.0000E+00  0.0000E+00  0.0000E+00  0.0000E+00  0.0000E+00  0.0000E+00  0.0000E+00  0.0000E+00  0.0000E+00  0.0000E+00  0.0000E+00
    -42.043  0.0000E+00  0.0000E+00  0.0000E+00  0.0000E+00  0.0000E+00  0.0000E+00  0.0000E+00  0.0000E+00  0.0000E+00  0.0000E+00  0.0000E+00  0.0000E+00  0.0000E+00  0.0000E+00  0.0000E+00  0.0000E+00  0.0000E+00  0.0000E+00
    -41.831  0.0000E+00  0.0000E+00  0.0000E+00  0.0000E+00  0.0000E+00  0.0000E+00  0.0000E+00  0.0000E+00  0.0000E+00  0.0000E+00  0.0000E+00  0.0000E+00  0.0000E+00  0.0000E+00  0.0000E+00  0.0000E+00  0.0000E+00  0.0000E+00
    -41.620  0.0000E+00  0.0000E+00  0.0000E+00  0.0000E+00  0.0000E+00  0.0000E+00  0.0000E+00  0.0000E+00  0.0000E+00  0.0000E+00  0.0000E+00  0.0000E+00  0.0000E+00  0.0000E+00  0.0000E+00  0.0000E+00  0.0000E+00  0.0000E+00
    -41.408  0.0000E+00  0.0000E+00  0.0000E+00  0.0000E+00  0.0000E+00  0.0000E+00  0.0000E+00  0.0000E+00  0.0000E+00  0.0000E+00  0.0000E+00  0.0000E+00  0.0000E+00  0.0000E+00  0.0000E+00  0.0000E+00  0.0000E+00  0.0000E+00
    -41.196  0.0000E+00  0.0000E+00  0.0000E+00  0.0000E+00  0.0000E+00  0.0000E+00  0.0000E+00  0.0000E+00  0.0000E+00  0.0000E+00  0.0000E+00  0.0000E+00  0.0000E+00  0.0000E+00  0.0000E+00  0.0000E+00  0.0000E+00  0.0000E+00
    -40.985  0.0000E+00  0.0000E+00  0.0000E+00  0.0000E+00  0.0000E+00  0.0000E+00  0.0000E+00  0.0000E+00  0.0000E+00  0.0000E+00  0.0000E+00  0.0000E+00  0.0000E+00  0.0000E+00  0.0000E+00  0.0000E+00  0.0000E+00  0.0000E+00
    -40.773  0.0000E+00  0.0000E+00  0.0000E+00  0.0000E+00  0.0000E+00  0.0000E+00  0.0000E+00  0.0000E+00  0.0000E+00  0.0000E+00  0.0000E+00  0.0000E+00  0.0000E+00  0.0000E+00  0.0000E+00  0.0000E+00  0.0000E+00  0.0000E+00
    -40.561  0.5005E-12  0.0000E+00  0.6455E-04  0.0000E+00  0.4457E-11  0.0000E+00  0.6455E-04  0.0000E+00  0.1646E-13  0.0000E+00  0.1101E-14  0.0000E+00  0.2073E-12  0.0000E+00  0.1101E-14  0.0000E+00  0.6109E-12  0.0000E+00
    -40.350  0.3399E-10  0.0000E+00  0.4383E-02  0.0000E+00  0.2064E-03  0.0000E+00  0.4383E-02  0.0000E+00  0.1120E-11  0.0000E+00  0.1020E-12  0.0000E+00  0.1408E-10  0.0000E+00  0.1020E-12  0.0000E+00  0.4149E-10  0.0000E+00
    -40.138  0.2201E-08  0.0000E+00  0.2838E+00  0.0000E+00  0.1399E-01  0.0000E+00  0.2838E+00  0.0000E+00  0.7246E-10  0.0000E+00  0.6685E-11  0.0000E+00  0.9118E-09  0.0000E+00  0.6685E-11  0.0000E+00  0.2686E-08  0.0000E+00
    -39.926  0.2758E-07  0.0000E+00  0.3556E+01  0.0000E+00  0.7981E+00  0.0000E+00  0.3556E+01  0.0000E+00  0.9099E-09  0.0000E+00  0.1656E-09  0.0000E+00  0.1143E-07  0.0000E+00  0.1656E-09  0.0000E+00  0.3365E-07  0.0000E+00
    -39.715  0.6593E-08  0.0000E+00  0.8375E+00  0.0000E+00  0.3579E+01  0.0000E+00  0.8375E+00  0.0000E+00  0.2443E-09  0.0000E+00  0.4857E-09  0.0000E+00  0.2770E-08  0.0000E+00  0.4857E-09  0.0000E+00  0.7932E-08  0.0000E+00
    -39.503  0.8862E-11  0.0000E+00  0.1058E-07  0.0000E+00  0.2997E+00  0.0000E+00  0.1058E-07  0.0000E+00  0.2739E-11  0.0000E+00  0.3947E-10  0.0000E+00  0.7226E-11  0.0000E+00  0.3947E-10  0.0000E+00  0.8659E-12  0.0000E+00
    -39.291  0.0000E+00  0.0000E+00  0.0000E+00  0.0000E+00  0.0000E+00  0.0000E+00  0.0000E+00  0.0000E+00  0.0000E+00  0.0000E+00  0.0000E+00  0.0000E+00  0.0000E+00  0.0000E+00  0.0000E+00  0.0000E+00  0.0000E+00  0.0000E+00
    -39.080  0.0000E+00  0.0000E+00  0.0000E+00  0.0000E+00  0.0000E+00  0.0000E+00  0.0000E+00  0.0000E+00  0.0000E+00  0.0000E+00  0.0000E+00  0.0000E+00  0.0000E+00  0.0000E+00  0.0000E+00  0.0000E+00  0.0000E+00  0.0000E+00
    -38.868  0.0000E+00  0.0000E+00  0.0000E+00  0.0000E+00  0.0000E+00  0.0000E+00  0.0000E+00  0.0000E+00  0.0000E+00  0.0000E+00  0.0000E+00  0.0000E+00  0.0000E+00  0.0000E+00  0.0000E+00  0.0000E+00  0.0000E+00  0.0000E+00
    -38.656  0.0000E+00  0.0000E+00  0.0000E+00  0.0000E+00  0.0000E+00  0.0000E+00  0.0000E+00  0.0000E+00  0.0000E+00  0.0000E+00  0.0000E+00  0.0000E+00  0.0000E+00  0.0000E+00  0.0000E+00  0.0000E+00  0.0000E+00  0.0000E+00
    -38.444  0.0000E+00  0.1206E-11  0.0000E+00  0.1170E-03  0.0000E+00  0.6373E-04  0.0000E+00  0.1170E-03  0.0000E+00  0.4257E-13  0.0000E+00  0.1599E-13  0.0000E+00  0.4433E-12  0.0000E+00  0.1599E-13  0.0000E+00  0.1294E-11
    -38.233  0.0000E+00  0.8186E-10  0.0000E+00  0.7937E-02  0.0000E+00  0.4328E-02  0.0000E+00  0.7937E-02  0.0000E+00  0.2889E-11  0.0000E+00  0.1086E-11  0.0000E+00  0.3008E-10  0.0000E+00  0.1086E-11  0.0000E+00  0.8778E-10
    -38.021  0.0000E+00  0.5048E-08  0.0000E+00  0.4894E+00  0.0000E+00  0.2804E+00  0.0000E+00  0.4894E+00  0.0000E+00  0.1784E-09  0.0000E+00  0.6988E-10  0.0000E+00  0.1856E-08  0.0000E+00  0.6988E-10  0.0000E+00  0.5414E-08
    -37.809  0.0000E+00  0.3805E-07  0.0000E+00  0.3687E+01  0.0000E+00  0.3551E+01  0.0000E+00  0.3687E+01  0.0000E+00  0.1375E-08  0.0000E+00  0.8352E-09  0.0000E+00  0.1410E-07  0.0000E+00  0.8352E-09  0.0000E+00  0.4086E-07
    -37.598  0.0000E+00  0.5207E-08  0.0000E+00  0.5040E+00  0.0000E+00  0.8461E+00  0.0000E+00  0.5040E+00  0.0000E+00  0.1970E-09  0.0000E+00  0.1916E-09  0.0000E+00  0.1958E-08  0.0000E+00  0.1916E-09  0.0000E+00  0.5602E-08
    -37.386  0.0000E+00  0.0000E+00  0.0000E+00  0.0000E+00  0.0000E+00  0.0000E+00  0.0000E+00  0.0000E+00  0.0000E+00  0.0000E+00  0.0000E+00  0.0000E+00  0.0000E+00  0.0000E+00  0.0000E+00  0.0000E+00  0.0000E+00  0.0000E+00
    -37.174  0.0000E+00  0.0000E+00  0.0000E+00  0.0000E+00  0.0000E+00  0.0000E+00  0.0000E+00  0.0000E+00  0.0000E+00  0.0000E+00  0.0000E+00  0.0000E+00  0.0000E+00  0.0000E+00  0.0000E+00  0.0000E+00  0.0000E+00  0.0000E+00
    -36.963  0.0000E+00  0.0000E+00  0.0000E+00  0.0000E+00  0.0000E+00  0.0000E+00  0.0000E+00  0.0000E+00  0.0000E+00  0.0000E+00  0.0000E+00  0.0000E+00  0.0000E+00  0.0000E+00  0.0000E+00  0.0000E+00  0.0000E+00  0.0000E+00
    -36.751  0.0000E+00  0.0000E+00  0.0000E+00  0.0000E+00  0.0000E+00  0.0000E+00  0.0000E+00  0.0000E+00  0.0000E+00  0.0000E+00  0.0000E+00  0.0000E+00  0.0000E+00  0.0000E+00  0.0000E+00  0.0000E+00  0.0000E+00  0.0000E+00
    -36.539  0.0000E+00  0.0000E+00  0.0000E+00  0.0000E+00  0.0000E+00  0.0000E+00  0.0000E+00  0.0000E+00  0.0000E+00  0.0000E+00  0.0000E+00  0.0000E+00  0.0000E+00  0.0000E+00  0.0000E+00  0.0000E+00  0.0000E+00  0.0000E+00
    -36.328  0.0000E+00  0.0000E+00  0.0000E+00  0.0000E+00  0.0000E+00  0.0000E+00  0.0000E+00  0.0000E+00  0.0000E+00  0.0000E+00  0.0000E+00  0.0000E+00  0.0000E+00  0.0000E+00  0.0000E+00  0.0000E+00  0.0000E+00  0.0000E+00
    -36.116  0.0000E+00  0.0000E+00  0.0000E+00  0.0000E+00  0.0000E+00  0.0000E+00  0.0000E+00  0.0000E+00  0.0000E+00  0.0000E+00  0.0000E+00  0.0000E+00  0.0000E+00  0.0000E+00  0.0000E+00  0.0000E+00  0.0000E+00  0.0000E+00
    -35.904  0.0000E+00  0.0000E+00  0.0000E+00  0.0000E+00  0.0000E+00  0.0000E+00  0.0000E+00  0.0000E+00  0.0000E+00  0.0000E+00  0.0000E+00  0.0000E+00  0.0000E+00  0.0000E+00  0.0000E+00  0.0000E+00  0.0000E+00  0.0000E+00
    -35.693  0.0000E+00  0.0000E+00  0.0000E+00  0.0000E+00  0.0000E+00  0.0000E+00  0.0000E+00  0.0000E+00  0.0000E+00  0.0000E+00  0.0000E+00  0.0000E+00  0.0000E+00  0.0000E+00  0.0000E+00  0.0000E+00  0.0000E+00  0.0000E+00
    -35.481  0.0000E+00  0.0000E+00  0.0000E+00  0.0000E+00  0.0000E+00  0.0000E+00  0.0000E+00  0.0000E+00  0.0000E+00  0.0000E+00  0.0000E+00  0.0000E+00  0.0000E+00  0.0000E+00  0.0000E+00  0.0000E+00  0.0000E+00  0.0000E+00
    -35.269  0.0000E+00  0.0000E+00  0.0000E+00  0.0000E+00  0.0000E+00  0.0000E+00  0.0000E+00  0.0000E+00  0.0000E+00  0.0000E+00  0.0000E+00  0.0000E+00  0.0000E+00  0.0000E+00  0.0000E+00  0.0000E+00  0.0000E+00  0.0000E+00
    -35.057  0.0000E+00  0.0000E+00  0.0000E+00  0.0000E+00  0.0000E+00  0.0000E+00  0.0000E+00  0.0000E+00  0.0000E+00  0.0000E+00  0.0000E+00  0.0000E+00  0.0000E+00  0.0000E+00  0.0000E+00  0.0000E+00  0.0000E+00  0.0000E+00
    -34.846  0.0000E+00  0.0000E+00  0.0000E+00  0.0000E+00  0.0000E+00  0.0000E+00  0.0000E+00  0.0000E+00  0.0000E+00  0.0000E+00  0.0000E+00  0.0000E+00  0.0000E+00  0.0000E+00  0.0000E+00  0.0000E+00  0.0000E+00  0.0000E+00
    -34.634  0.0000E+00  0.0000E+00  0.0000E+00  0.0000E+00  0.0000E+00  0.0000E+00  0.0000E+00  0.0000E+00  0.0000E+00  0.0000E+00  0.0000E+00  0.0000E+00  0.0000E+00  0.0000E+00  0.0000E+00  0.0000E+00  0.0000E+00  0.0000E+00
    -34.422  0.0000E+00  0.0000E+00  0.0000E+00  0.0000E+00  0.0000E+00  0.0000E+00  0.0000E+00  0.0000E+00  0.0000E+00  0.0000E+00  0.0000E+00  0.0000E+00  0.0000E+00  0.0000E+00  0.0000E+00  0.0000E+00  0.0000E+00  0.0000E+00
    -34.211  0.0000E+00  0.0000E+00  0.0000E+00  0.0000E+00  0.0000E+00  0.0000E+00  0.0000E+00  0.0000E+00  0.0000E+00  0.0000E+00  0.0000E+00  0.0000E+00  0.0000E+00  0.0000E+00  0.0000E+00  0.0000E+00  0.0000E+00  0.0000E+00
    -33.999  0.0000E+00  0.0000E+00  0.0000E+00  0.0000E+00  0.0000E+00  0.0000E+00  0.0000E+00  0.0000E+00  0.0000E+00  0.0000E+00  0.0000E+00  0.0000E+00  0.0000E+00  0.0000E+00  0.0000E+00  0.0000E+00  0.0000E+00  0.0000E+00
    -33.787  0.0000E+00  0.0000E+00  0.0000E+00  0.0000E+00  0.0000E+00  0.0000E+00  0.0000E+00  0.0000E+00  0.0000E+00  0.0000E+00  0.0000E+00  0.0000E+00  0.0000E+00  0.0000E+00  0.0000E+00  0.0000E+00  0.0000E+00  0.0000E+00
    -33.576  0.0000E+00  0.0000E+00  0.0000E+00  0.0000E+00  0.0000E+00  0.0000E+00  0.0000E+00  0.0000E+00  0.0000E+00  0.0000E+00  0.0000E+00  0.0000E+00  0.0000E+00  0.0000E+00  0.0000E+00  0.0000E+00  0.0000E+00  0.0000E+00
    -33.364  0.0000E+00  0.0000E+00  0.0000E+00  0.0000E+00  0.0000E+00  0.0000E+00  0.0000E+00  0.0000E+00  0.0000E+00  0.0000E+00  0.0000E+00  0.0000E+00  0.0000E+00  0.0000E+00  0.0000E+00  0.0000E+00  0.0000E+00  0.0000E+00
    -33.152  0.0000E+00  0.0000E+00  0.0000E+00  0.0000E+00  0.0000E+00  0.0000E+00  0.0000E+00  0.0000E+00  0.0000E+00  0.0000E+00  0.0000E+00  0.0000E+00  0.0000E+00  0.0000E+00  0.0000E+00  0.0000E+00  0.0000E+00  0.0000E+00
    -32.941  0.0000E+00  0.0000E+00  0.0000E+00  0.0000E+00  0.0000E+00  0.0000E+00  0.0000E+00  0.0000E+00  0.0000E+00  0.0000E+00  0.0000E+00  0.0000E+00  0.0000E+00  0.0000E+00  0.0000E+00  0.0000E+00  0.0000E+00  0.0000E+00
    -32.729  0.0000E+00  0.0000E+00  0.0000E+00  0.0000E+00  0.0000E+00  0.0000E+00  0.0000E+00  0.0000E+00  0.0000E+00  0.0000E+00  0.0000E+00  0.0000E+00  0.0000E+00  0.0000E+00  0.0000E+00  0.0000E+00  0.0000E+00  0.0000E+00
    -32.517  0.0000E+00  0.0000E+00  0.0000E+00  0.0000E+00  0.0000E+00  0.0000E+00  0.0000E+00  0.0000E+00  0.0000E+00  0.0000E+00  0.0000E+00  0.0000E+00  0.0000E+00  0.0000E+00  0.0000E+00  0.0000E+00  0.0000E+00  0.0000E+00
    -32.306  0.0000E+00  0.0000E+00  0.0000E+00  0.0000E+00  0.0000E+00  0.0000E+00  0.0000E+00  0.0000E+00  0.0000E+00  0.0000E+00  0.0000E+00  0.0000E+00  0.0000E+00  0.0000E+00  0.0000E+00  0.0000E+00  0.0000E+00  0.0000E+00