   8   8   1   0
  0.1412898E+02  0.3778878E-09  0.3778878E-09  0.7915441E-09  0.5000000E-15
  1.000000000000000E-004
  CAR 
 unknown system                          
     21.36569087    -42.53708585  301      9.28576577      1.00000000
    -42.537  0.0000E+00  0.0000E+00  0.0000E+00  0.0000E+00
    -42.324  0.0000E+00  0.0000E+00  0.0000E+00  0.0000E+00
    -42.111  0.0000E+00  0.0000E+00  0.0000E+00  0.0000E+00
    -41.898  0.0000E+00  0.0000E+00  0.0000E+00  0.0000E+00
    -41.685  0.0000E+00  0.0000E+00  0.0000E+00  0.0000E+00
    -41.472  0.0000E+00  0.0000E+00  0.0000E+00  0.0000E+00
    -41.259  0.0000E+00  0.0000E+00  0.0000E+00  0.0000E+00
    -41.046  0.0000E+00  0.0000E+00  0.0000E+00  0.0000E+00
    -40.833  0.0000E+00  0.0000E+00  0.0000E+00  0.0000E+00
    -40.620  0.0000E+00  0.0000E+00  0.0000E+00  0.0000E+00
    -40.407  0.0000E+00  0.0000E+00  0.0000E+00  0.0000E+00
    -40.194  0.2393E-03  0.0000E+00  0.5098E-04  0.0000E+00
    -39.981  0.1711E-01  0.0000E+00  0.3695E-02  0.0000E+00
    -39.768  0.1140E+01  0.0000E+00  0.2465E+00  0.0000E+00
    -39.555  0.1591E+02  0.0000E+00  0.3635E+01  0.0000E+00
    -39.342  0.1048E+02  0.0000E+00  0.5866E+01  0.0000E+00
    -39.129  0.5615E+00  0.0000E+00  0.5998E+01  0.0000E+00
    -38.916  0.0000E+00  0.0000E+00  0.6000E+01  0.0000E+00
    -38.703  0.0000E+00  0.0000E+00  0.6000E+01  0.0000E+00
    -38.490  0.0000E+00  0.0000E+00  0.6000E+01  0.0000E+00
    -38.277  0.0000E+00  0.0000E+00  0.6000E+01  0.0000E+00
    -38.064  0.0000E+00  0.3101E-02  0.6000E+01  0.6606E-03
    -37.851  0.0000E+00  0.2148E+00  0.6000E+01  0.4640E-01
    -37.638  0.0000E+00  0.9637E+01  0.6000E+01  0.2099E+01
    -37.425  0.0000E+00  0.1755E+02  0.6000E+01  0.5838E+01
    -37.212  0.0000E+00  0.3582E+00  0.6000E+01  0.5999E+01
    -36.999  0.0000E+00  0.0000E+00  0.6000E+01  0.6000E+01
    -36.786  0.0000E+00  0.0000E+00  0.6000E+01  0.6000E+01
    -36.573  0.0000E+00  0.0000E+00  0.6000E+01  0.6000E+01
    -36.360  0.0000E+00  0.0000E+00  0.6000E+01  0.6000E+01
    -36.147  0.0000E+00  0.0000E+00  0.6000E+01  0.6000E+01
    -35.934  0.0000E+00  0.0000E+00  0.6000E+01  0.6000E+01
    -35.721  0.0000E+00  0.0000E+00  0.6000E+01  0.6000E+01
    -35.508  0.0000E+00  0.0000E+00  0.6000E+01  0.6000E+01
    -35.295  0.0000E+00  0.0000E+00  0.6000E+01  0.6000E+01
    -35.082  0.0000E+00  0.0000E+00  0.6000E+01  0.6000E+01
    -34.869  0.0000E+00  0.0000E+00  0.6000E+01  0.6000E+01
    -34.656  0.0000E+00  0.0000E+00  0.6000E+01  0.6000E+01
    -34.443  0.0000E+00  0.0000E+00  0.6000E+01  0.6000E+01
    -34.230  0.0000E+00  0.0000E+00  0.6000E+01  0.6000E+01
    -34.017  0.0000E+00  0.0000E+00  0.6000E+01  0.6000E+01
    -33.804  0.0000E+00  0.0000E+00  0.6000E+01  0.6000E+01
    -33.591  0.0000E+00  0.0000E+00  0.6000E+01  0.6000E+01
    -33.378  0.0000E+00  0.0000E+00  0.6000E+01  0.6000E+01
    -33.165  0.0000E+00  0.0000E+00  0.6000E+01  0.6000E+01
    -32.952  0.0000E+00  0.0000E+00  0.6000E+01  0.6000E+01
    -32.739  0.0000E+00  0.0000E+00  0.6000E+01  0.6000E+01
    -32.526  0.0000E+00  0.0000E+00  0.6000E+01  0.6000E+01
    -32.313  0.0000E+00  0.0000E+00  0.6000E+01  0.6000E+01
    -32.100  0.0000E+00  0.0000E+00  0.6000E+01  0.6000E+01
    -31.887  0.0000E+00  0.0000E+00  0.6000E+01  0.6000E+01
    -31.674  0.0000E+00  0.0000E+00  0.6000E+01  0.6000E+01
    -31.461  0.0000E+00  0.0000E+00  0.6000E+01  0.6000E+01
    -31.248  0.0000E+00  0.0000E+00  0.6000E+01  0.6000E+01
    -31.035  0.0000E+00  0.0000E+00  0.6000E+01  0.6000E+01
    -30.822  0.0000E+00  0.0000E+00  0.6000E+01  0.6000E+01
    -30.609  0.0000E+00  0.0000E+00  0.6000E+01  0.6000E+01
    -30.396  0.0000E+00  0.0000E+00  0.6000E+01  0.6000E+01
    -30.183  0.0000E+00  0.0000E+00  0.6000E+01  0.6000E+01
    -29.970  0.0000E+00  0.0000E+00  0.6000E+01  0.6000E+01
    -29.757  0.0000E+00  0.0000E+00  0.6000E+01  0.6000E+01
    -29.544  0.0000E+00  0.0000E+00  0.6000E+01  0.6000E+01
    -29.331  0.0000E+00  0.0000E+00  0.6000E+01  0.6000E+01
    -29.118  0.0000E+00  0.0000E+00  0.6000E+01  0.6000E+01
    -28.904  0.0000E+00  0.0000E+00  0.6000E+01  0.6000E+01
    -28.691  0.0000E+00  0.0000E+00  0.6000E+01  0.6000E+01
    -28.478  0.0000E+00  0.0000E+00  0.6000E+01  0.6000E+01
    -28.265  0.0000E+00  0.0000E+00  0.6000E+01  0.6000E+01
    -28.052  0.0000E+00  0.0000E+00  0.6000E+01  0.6000E+01
    -27.839  0.0000E+00  0.0000E+00  0.6000E+01  0.6000E+01
    -27.626  0.0000E+00  0.0000E+00  0.6000E+01  0.6000E+01
    -27.413  0.0000E+00  0.0000E+00  0.6000E+01  0.6000E+01
    -27.200  0.0000E+00  0.0000E+00  0.6000E+01  0.6000E+01
    -26.987  0.0000E+00  0.0000E+00  0.6000E+01  0.6000E+01
    -26.774  0.0000E+00  0.0000E+00  0.6000E+01  0.6000E+01
    -26.561  0.0000E+00  0.0000E+00  0.6000E+01  0.6000E+01
    -26.348  0.0000E+00  0.0000E+00  0.6000E+01  0.6000E+01
    -26.135  0.0000E+00  0.0000E+00  0.6000E+01  0.6000E+01
    -25.922  0.0000E+00  0.0000E+00  0.6000E+01  0.6000E+01
    -25.709  0.0000E+00  0.0000E+00  0.6000E+01  0.6000E+01
    -25.496  0.0000E+00  0.0000E+00  0.6000E+01  0.6000E+01
    -25.283  0.0000E+00  0.0000E+00  0.6000E+01  0.6000E+01
    -25.070  0.0000E+00  0.0000E+00  0.6000E+01  0.6000E+01
    -24.857  0.0000E+00  0.0000E+00  0.6000E+01  0.6000E+01
    -24.644  0.0000E+00  0.0000E+00  0.6000E+01  0.6000E+01
    -24.431  0.0000E+00  0.0000E+00  0.6000E+01  0.6000E+01
    -24.218  0.0000E+00  0.0000E+00  0.6000E+01  0.6000E+01
    -24.005  0.0000E+00  0.0000E+00  0.6000E+01  0.6000E+01
    -23.792  0.0000E+00  0.0000E+00  0.6000E+01  0.6000E+01
    -23.579  0.0000E+00  0.0000E+00  0.6000E+01  0.6000E+01
    -23.366  0.0000E+00  0.0000E+00  0.6000E+01  0.6000E+01
    -23.153  0.0000E+00  0.0000E+00  0.6000E+01  0.6000E+01
    -22.940  0.0000E+00  0.0000E+00  0.6000E+01  0.6000E+01
    -22.727  0.0000E+00  0.0000E+00  0.6000E+01  0.6000E+01
    -22.514  0.0000E+00  0.0000E+00  0.6000E+01  0.6000E+01
    -22.301  0.0000E+00  0.0000E+00  0.6000E+01  0.6000E+01
    -22.088  0.0000E+00  0.0000E+00  0.6000E+01  0.6000E+01
    -21.875  0.0000E+00  0.0000E+00  0.6000E+01  0.6000E+01
    -21.662  0.0000E+00  0.0000E+00  0.6000E+01  0.6000E+01
    -21.449  0.0000E+00  0.0000E+00  0.6000E+01  0.6000E+01
    -21.236  0.0000E+00  0.0000E+00  0.6000E+01  0.6000E+01
    -21.023  0.0000E+00  0.0000E+00  0.6000E+01  0.6000E+01
    -20.810  0.0000E+00  0.0000E+00  0.6000E+01  0.6000E+01
    -20.597  0.0000E+00  0.0000E+00  0.6000E+01  0.6000E+01
    -20.384  0.0000E+00  0.0000E+00  0.6000E+01  0.6000E+01
    -20.171  0.0000E+00  0.0000E+00  0.6000E+01  0.6000E+01
    -19.958  0.0000E+00  0.0000E+00  0.6000E+01  0.6000E+01
    -19.745  0.0000E+00  0.0000E+00  0.6000E+01  0.6000E+01
    -19.532  0.0000E+00  0.0000E+00  0.6000E+01  0.6000E+01
    -19.319  0.0000E+00  0.0000E+00  0.6000E+01  0.6000E+01
    -19.106  0.0000E+00  0.0000E+00  0.6000E+01  0.6000E+01
    -18.893  0.0000E+00  0.0000E+00  0.6000E+01  0.6000E+01
    -18.680  0.0000E+00  0.0000E+00  0.6000E+01  0.6000E+01
    -18.467  0.0000E+00  0.0000E+00  0.6000E+01  0.6000E+01
    -18.254  0.0000E+00  0.0000E+00  0.6000E+01  0.6000E+01
    -18.041  0.0000E+00  0.0000E+00  0.6000E+01  0.6000E+01
    -17.828  0.0000E+00  0.0000E+00  0.6000E+01  0.6000E+01
    -17.615  0.0000E+00  0.0000E+00  0.6000E+01  0.6000E+01
    -17.402  0.0000E+00  0.0000E+00  0.6000E+01  0.6000E+01
    -17.189  0.0000E+00  0.0000E+00  0.6000E+01  0.6000E+01
    -16.976  0.0000E+00  0.0000E+00  0.6000E+01  0.6000E+01
    -16.763  0.0000E+00  0.0000E+00  0.6000E+01  0.6000E+01
    -16.550  0.0000E+00  0.0000E+00  0.6000E+01  0.6000E+01
    -16.337  0.0000E+00  0.0000E+00  0.6000E+01  0.6000E+01
    -16.124  0.0000E+00  0.0000E+00  0.6000E+01  0.6000E+01
    -15.911  0.0000E+00  0.0000E+00  0.6000E+01  0.6000E+01
    -15.698  0.0000E+00  0.0000E+00  0.6000E+01  0.6000E+01
    -15.485  0.0000E+00  0.0000E+00  0.6000E+01  0.6000E+01
    -15.272  0.0000E+00  0.0000E+00  0.6000E+01  0.6000E+01
    -15.059  0.0000E+00  0.0000E+00  0.6000E+01  0.6000E+01
    -14.846  0.0000E+00  0.0000E+00  0.6000E+01  0.6000E+01
    -14.633  0.0000E+00  0.0000E+00  0.6000E+01  0.6000E+01
    -14.420  0.0000E+00  0.0000E+00  0.6000E+01  0.6000E+01
    -14.207  0.0000E+00  0.0000E+00  0.6000E+01  0.6000E+01
    -13.994  0.0000E+00  0.0000E+00  0.6000E+01  0.6000E+01
    -13.781  0.0000E+00  0.0000E+00  0.6000E+01  0.6000E+01
    -13.568  0.0000E+00  0.0000E+00  0.6000E+01  0.6000E+01
    -13.355  0.0000E+00  0.0000E+00  0.6000E+01  0.6000E+01
    -13.142  0.0000E+00  0.0000E+00  0.6000E+01  0.6000E+01
    -12.929  0.0000E+00  0.0000E+00  0.6000E+01  0.6000E+01
    -12.716  0.0000E+00  0.0000E+00  0.6000E+01  0.6000E+01
    -12.503  0.0000E+00  0.0000E+00  0.6000E+01  0.6000E+01
    -12.290  0.0000E+00  0.0000E+00  0.6000E+01  0.6000E+01
    -12.077  0.0000E+00  0.0000E+00  0.6000E+01  0.6000E+01
    -11.864  0.0000E+00  0.0000E+00  0.6000E+01  0.6000E+01
    -11.651  0.0000E+00  0.0000E+00  0.6000E+01  0.6000E+01
    -11.438  0.0000E+00  0.0000E+00  0.6000E+01  0.6000E+01
    -11.225  0.0000E+00  0.0000E+00  0.6000E+01  0.6000E+01
    -11.012  0.0000E+00  0.0000E+00  0.6000E+01  0.6000E+01
    -10.799  0.0000E+00  0.0000E+00  0.6000E+01  0.6000E+01
    -10.586  0.0000E+00  0.0000E+00  0.6000E+01  0.6000E+01
    -10.373  0.0000E+00  0.0000E+00  0.6000E+01  0.6000E+01
    -10.160  0.0000E+00  0.0000E+00  0.6000E+01  0.6000E+01
     -9.947  0.0000E+00  0.0000E+00  0.6000E+01  0.6000E+01
     -9.734  0.0000E+00  0.0000E+00  0.6000E+01  0.6000E+01
     -9.521  0.0000E+00  0.0000E+00  0.6000E+01  0.6000E+01
     -9.308  0.0000E+00  0.0000E+00  0.6000E+01  0.6000E+01
     -9.095  0.0000E+00  0.0000E+00  0.6000E+01  0.6000E+01
     -8.882  0.0000E+00  0.0000E+00  0.6000E+01  0.6000E+01
     -8.669  0.0000E+00  0.0000E+00  0.6000E+01  0.6000E+01
     -8.456  0.0000E+00  0.0000E+00  0.6000E+01  0.6000E+01
     -8.243  0.0000E+00  0.0000E+00  0.6000E+01  0.6000E+01
     -8.030  0.0000E+00  0.0000E+00  0.6000E+01  0.6000E+01
     -7.817  0.0000E+00  0.0000E+00  0.6000E+01  0.6000E+01
     -7.604  0.0000E+00  0.0000E+00  0.6000E+01  0.6000E+01
     -7.391  0.0000E+00  0.0000E+00  0.6000E+01  0.6000E+01
     -7.178  0.0000E+00  0.0000E+00  0.6000E+01  0.6000E+01
     -6.965  0.0000E+00  0.0000E+00  0.6000E+01  0.6000E+01
     -6.752  0.0000E+00  0.0000E+00  0.6000E+01  0.6000E+01
     -6.539  0.0000E+00  0.0000E+00  0.6000E+01  0.6000E+01
     -6.326  0.0000E+00  0.0000E+00  0.6000E+01  0.6000E+01
     -6.113  0.0000E+00  0.0000E+00  0.6000E+01  0.6000E+01
     -5.899  0.0000E+00  0.0000E+00  0.6000E+01  0.6000E+01
     -5.686  0.0000E+00  0.0000E+00  0.6000E+01  0.6000E+01
     -5.473  0.0000E+00  0.0000E+00  0.6000E+01  0.6000E+01
     -5.260  0.0000E+00  0.0000E+00  0.6000E+01  0.6000E+01
     -5.047  0.0000E+00  0.0000E+00  0.6000E+01  0.6000E+01
     -4.834  0.0000E+00  0.0000E+00  0.6000E+01  0.6000E+01
     -4.621  0.0000E+00  0.0000E+00  0.6000E+01  0.6000E+01
     -4.408  0.0000E+00  0.0000E+00  0.6000E+01  0.6000E+01
     -4.195  0.0000E+00  0.0000E+00  0.6000E+01  0.6000E+01
     -3.982  0.0000E+00  0.0000E+00  0.6000E+01  0.6000E+01
     -3.769  0.0000E+00  0.0000E+00  0.6000E+01  0.6000E+01
     -3.556  0.0000E+00  0.0000E+00  0.6000E+01  0.6000E+01
     -3.343  0.0000E+00  0.0000E+00  0.6000E+01  0.6000E+01
     -3.130  0.0000E+00  0.0000E+00  0.6000E+01  0.6000E+01
     -2.917  0.0000E+00  0.0000E+00  0.6000E+01  0.6000E+01
     -2.704  0.3073E-07  0.2728E-07  0.6000E+01  0.6000E+01
     -2.491  0.9571E-05  0.8538E-05  0.6000E+01  0.6000E+01
     -2.278  0.6822E-03  0.6098E-03  0.6000E+01  0.6000E+01
     -2.065  0.2810E-01  0.2612E-01  0.6006E+01  0.6006E+01
     -1.852  0.1426E+00  0.1398E+00  0.6037E+01  0.6035E+01
     -1.639  0.2326E+00  0.2322E+00  0.6086E+01  0.6085E+01
     -1.426  0.3055E+00  0.3051E+00  0.6151E+01  0.6150E+01
     -1.213  0.3474E+00  0.3503E+00  0.6226E+01  0.6225E+01
     -1.000  0.4104E+00  0.4102E+00  0.6314E+01  0.6313E+01
     -0.787  0.4585E+00  0.4615E+00  0.6412E+01  0.6411E+01
     -0.574  0.4595E+00  0.4597E+00  0.6510E+01  0.6510E+01
     -0.361  0.5688E+00  0.5772E+00  0.6631E+01  0.6633E+01
     -0.148  0.5868E+00  0.5926E+00  0.6757E+01  0.6760E+01
      0.065  0.5723E+00  0.5819E+00  0.6880E+01  0.6885E+01
      0.278  0.7021E+00  0.6959E+00  0.7030E+01  0.7034E+01
      0.491  0.6492E+00  0.6536E+00  0.7169E+01  0.7174E+01
      0.704  0.6899E+00  0.6747E+00  0.7317E+01  0.7318E+01
      0.917  0.7095E+00  0.7073E+00  0.7469E+01  0.7470E+01
      1.130  0.8182E+00  0.7791E+00  0.7644E+01  0.7636E+01
      1.343  0.6966E+00  0.6626E+00  0.7793E+01  0.7778E+01
      1.556  0.8041E+00  0.7754E+00  0.7965E+01  0.7944E+01
      1.769  0.9035E+00  0.9068E+00  0.8159E+01  0.8138E+01
      1.982  0.9382E+00  0.9107E+00  0.8360E+01  0.8333E+01
      2.195  0.9482E+00  0.9415E+00  0.8563E+01  0.8534E+01
      2.408  0.8650E+00  0.8418E+00  0.8749E+01  0.8714E+01
      2.621  0.8138E+00  0.8206E+00  0.8923E+01  0.8890E+01
      2.834  0.8866E+00  0.7889E+00  0.9113E+01  0.9059E+01
      3.047  0.9360E+00  0.9136E+00  0.9313E+01  0.9254E+01
      3.260  0.1056E+01  0.9595E+00  0.9538E+01  0.9460E+01
      3.473  0.1128E+01  0.1096E+01  0.9779E+01  0.9694E+01
      3.686  0.1126E+01  0.1089E+01  0.1002E+02  0.9928E+01
      3.899  0.1192E+01  0.1027E+01  0.1028E+02  0.1015E+02
      4.112  0.1268E+01  0.1153E+01  0.1055E+02  0.1039E+02
      4.325  0.1209E+01  0.1194E+01  0.1081E+02  0.1065E+02
      4.538  0.1284E+01  0.1102E+01  0.1108E+02  0.1089E+02
      4.751  0.1458E+01  0.1129E+01  0.1139E+02  0.1113E+02
      4.964  0.1485E+01  0.1390E+01  0.1171E+02  0.1143E+02
      5.177  0.1480E+01  0.1344E+01  0.1203E+02  0.1171E+02
      5.390  0.1614E+01  0.1314E+01  0.1237E+02  0.1199E+02
      5.603  0.1599E+01  0.1507E+01  0.1271E+02  0.1232E+02
      5.816  0.1631E+01  0.1217E+01  0.1306E+02  0.1258E+02
      6.029  0.2133E+01  0.1331E+01  0.1352E+02  0.1286E+02
      6.242  0.2683E+01  0.1554E+01  0.1409E+02  0.1320E+02
      6.455  0.3430E+01  0.1760E+01  0.1483E+02  0.1357E+02
      6.668  0.4415E+01  0.1882E+01  0.1577E+02  0.1398E+02
      6.881  0.3957E+01  0.2243E+01  0.1662E+02  0.1446E+02
      7.094  0.4515E+01  0.2098E+01  0.1758E+02  0.1490E+02
      7.307  0.5720E+01  0.3073E+01  0.1881E+02  0.1556E+02
      7.520  0.4462E+01  0.2833E+01  0.1976E+02  0.1617E+02
      7.733  0.3284E+01  0.2745E+01  0.2047E+02  0.1676E+02
      7.946  0.4449E+01  0.2894E+01  0.2142E+02  0.1738E+02
      8.159  0.2516E+01  0.3094E+01  0.2197E+02  0.1804E+02
      8.372  0.2234E+01  0.3615E+01  0.2245E+02  0.1881E+02
      8.585  0.1593E+01  0.3167E+01  0.2279E+02  0.1949E+02
      8.798  0.1447E+01  0.2007E+01  0.2310E+02  0.1992E+02
      9.011  0.1349E+01  0.6301E+00  0.2339E+02  0.2006E+02
      9.224  0.1463E+01  0.4402E+00  0.2370E+02  0.2016E+02
      9.437  0.1480E+01  0.1015E+01  0.2402E+02  0.2038E+02
      9.650  0.2311E+01  0.2334E+01  0.2451E+02  0.2087E+02
      9.863  0.2850E+01  0.5619E+01  0.2512E+02  0.2207E+02
     10.076  0.2089E+01  0.6502E+01  0.2557E+02  0.2346E+02
     10.289  0.2031E+01  0.2898E+01  0.2601E+02  0.2409E+02
     10.502  0.1492E+01  0.2311E+01  0.2633E+02  0.2458E+02
     10.715  0.1567E+01  0.3206E+01  0.2666E+02  0.2527E+02
     10.928  0.1736E+01  0.2798E+01  0.2703E+02  0.2587E+02
     11.141  0.1724E+01  0.1874E+01  0.2740E+02  0.2627E+02
     11.354  0.1702E+01  0.1878E+01  0.2777E+02  0.2667E+02
     11.567  0.1942E+01  0.1947E+01  0.2818E+02  0.2709E+02
     11.780  0.1985E+01  0.2094E+01  0.2861E+02  0.2754E+02
     11.993  0.1773E+01  0.2177E+01  0.2899E+02  0.2801E+02
     12.206  0.1384E+01  0.2300E+01  0.2929E+02  0.2850E+02
     12.419  0.1762E+01  0.2193E+01  0.2966E+02  0.2897E+02
     12.632  0.1815E+01  0.1831E+01  0.3005E+02  0.2936E+02
     12.845  0.1950E+01  0.2189E+01  0.3047E+02  0.2983E+02
     13.058  0.1641E+01  0.2044E+01  0.3082E+02  0.3027E+02
     13.271  0.1354E+01  0.1855E+01  0.3111E+02  0.3066E+02
     13.484  0.1540E+01  0.1487E+01  0.3144E+02  0.3098E+02
     13.697  0.1557E+01  0.1495E+01  0.3177E+02  0.3130E+02
     13.910  0.1632E+01  0.1838E+01  0.3212E+02  0.3170E+02
     14.123  0.1853E+01  0.1457E+01  0.3252E+02  0.3201E+02
     14.336  0.1903E+01  0.1918E+01  0.3293E+02  0.3242E+02
     14.549  0.1863E+01  0.2057E+01  0.3332E+02  0.3286E+02
     14.762  0.1959E+01  0.2232E+01  0.3374E+02  0.3333E+02
     14.975  0.1774E+01  0.2059E+01  0.3412E+02  0.3378E+02
     15.188  0.1973E+01  0.2020E+01  0.3454E+02  0.3421E+02
     15.401  0.1503E+01  0.2009E+01  0.3487E+02  0.3464E+02
     15.614  0.1374E+01  0.1578E+01  0.3516E+02  0.3498E+02
     15.827  0.1038E+01  0.1202E+01  0.3539E+02  0.3523E+02
     16.040  0.6914E+00  0.1052E+01  0.3553E+02  0.3546E+02
     16.253  0.4632E+00  0.5898E+00  0.3563E+02  0.3559E+02
     16.466  0.3937E+00  0.3746E+00  0.3572E+02  0.3567E+02
     16.679  0.2394E+00  0.3755E+00  0.3577E+02  0.3575E+02
     16.892  0.2147E+00  0.1691E+00  0.3582E+02  0.3578E+02
     17.106  0.2459E+00  0.2548E+00  0.3587E+02  0.3584E+02
     17.319  0.2689E+00  0.3081E+00  0.3593E+02  0.3590E+02
     17.532  0.1237E+00  0.1760E+00  0.3595E+02  0.3594E+02
     17.745  0.1184E+00  0.1777E+00  0.3598E+02  0.3598E+02
     17.958  0.6737E-01  0.5916E-01  0.3599E+02  0.3599E+02
     18.171  0.2700E-01  0.4154E-02  0.3600E+02  0.3599E+02
     18.384  0.9177E-02  0.5467E-02  0.3600E+02  0.3599E+02
     18.597  0.0000E+00  0.2421E-01  0.3600E+02  0.3600E+02
     18.810  0.0000E+00  0.1949E-02  0.3600E+02  0.3600E+02
     19.023  0.0000E+00  0.0000E+00  0.3600E+02  0.3600E+02
     19.236  0.0000E+00  0.0000E+00  0.3600E+02  0.3600E+02
     19.449  0.0000E+00  0.0000E+00  0.3600E+02  0.3600E+02
     19.662  0.0000E+00  0.0000E+00  0.3600E+02  0.3600E+02
     19.875  0.0000E+00  0.0000E+00  0.3600E+02  0.3600E+02
     20.088  0.0000E+00  0.0000E+00  0.3600E+02  0.3600E+02
     20.301  0.0000E+00  0.0000E+00  0.3600E+02  0.3600E+02
     20.514  0.0000E+00  0.0000E+00  0.3600E+02  0.3600E+02
     20.727  0.0000E+00  0.0000E+00  0.3600E+02  0.3600E+02
     20.940  0.0000E+00  0.0000E+00  0.3600E+02  0.3600E+02
     21.153  0.0000E+00  0.0000E+00  0.3600E+02  0.3600E+02
     21.366  0.0000E+00  0.0000E+00  0.3600E+02  0.3600E+02
     21.36569087    -42.53708585  301      9.28576577      1.00000000
    -42.537  0.0000E+00  0.0000E+00  0.0000E+00  0.0000E+00  0.0000E+00  0.0000E+00  0.0000E+00  0.0000E+00  0.0000E+00  0.0000E+00  0.0000E+00  0.0000E+00  0.0000E+00  0.0000E+00  0.0000E+00  0.0000E+00  0.0000E+00  0.0000E+00
    -42.324  0.0000E+00  0.0000E+00  0.0000E+00  0.0000E+00  0.0000E+00  0.0000E+00  0.0000E+00  0.0000E+00  0.0000E+00  0.0000E+00  0.0000E+00  0.0000E+00  0.0000E+00  0.0000E+00  0.0000E+00  0.0000E+00  0.0000E+00  0.0000E+00
    -42.111  0.0000E+00  0.0000E+00  0.0000E+00  0.0000E+00  0.0000E+00  0.0000E+00  0.0000E+00  0.0000E+00  0.0000E+00  0.0000E+00  0.0000E+00  0.0000E+00  0.0000E+00  0.0000E+00  0.0000E+00  0.0000E+00  0.0000E+00  0.0000E+00
    -41.898  0.0000E+00  0.0000E+00  0.0000E+00  0.0000E+00  0.0000E+00  0.0000E+00  0.0000E+00  0.0000E+00  0.0000E+00  0.0000E+00  0.0000E+00  0.0000E+00  0.0000E+00  0.0000E+00  0.0000E+00  0.0000E+00  0.0000E+00  0.0000E+00
    -41.685  0.0000E+00  0.0000E+00  0.0000E+00  0.0000E+00  0.0000E+00  0.0000E+00  0.0000E+00  0.0000E+00  0.0000E+00  0.0000E+00  0.0000E+00  0.0000E+00  0.0000E+00  0.0000E+00  0.0000E+00  0.0000E+00  0.0000E+00  0.0000E+00
    -41.472  0.0000E+00  0.0000E+00  0.0000E+00  0.0000E+00  0.0000E+00  0.0000E+00  0.0000E+00  0.0000E+00  0.0000E+00  0.0000E+00  0.0000E+00  0.0000E+00  0.0000E+00  0.0000E+00  0.0000E+00  0.0000E+00  0.0000E+00  0.0000E+00
    -41.259  0.0000E+00  0.0000E+00  0.0000E+00  0.0000E+00  0.0000E+00  0.0000E+00  0.0000E+00  0.0000E+00  0.0000E+00  0.0000E+00  0.0000E+00  0.0000E+00  0.0000E+00  0.0000E+00  0.0000E+00  0.0000E+00  0.0000E+00  0.0000E+00
    -41.046  0.0000E+00  0.0000E+00  0.0000E+00  0.0000E+00  0.0000E+00  0.0000E+00  0.0000E+00  0.0000E+00  0.0000E+00  0.0000E+00  0.0000E+00  0.0000E+00  0.0000E+00  0.0000E+00  0.0000E+00  0.0000E+00  0.0000E+00  0.0000E+00
    -40.833  0.0000E+00  0.0000E+00  0.0000E+00  0.0000E+00  0.0000E+00  0.0000E+00  0.0000E+00  0.0000E+00  0.0000E+00  0.0000E+00  0.0000E+00  0.0000E+00  0.0000E+00  0.0000E+00  0.0000E+00  0.0000E+00  0.0000E+00  0.0000E+00
    -40.620  0.0000E+00  0.0000E+00  0.0000E+00  0.0000E+00  0.0000E+00  0.0000E+00  0.0000E+00  0.0000E+00  0.0000E+00  0.0000E+00  0.0000E+00  0.0000E+00  0.0000E+00  0.0000E+00  0.0000E+00  0.0000E+00  0.0000E+00  0.0000E+00
    -40.407  0.0000E+00  0.0000E+00  0.0000E+00  0.0000E+00  0.0000E+00  0.0000E+00  0.0000E+00  0.0000E+00  0.0000E+00  0.0000E+00  0.0000E+00  0.0000E+00  0.0000E+00  0.0000E+00  0.0000E+00  0.0000E+00  0.0000E+00  0.0000E+00
    -40.194  0.6335E-12  0.0000E+00  0.5948E-04  0.0000E+00  0.5895E-11  0.0000E+00  0.5948E-04  0.0000E+00  0.2101E-13  0.0000E+00  0.1276E-14  0.0000E+00  0.2563E-12  0.0000E+00  0.1276E-14  0.0000E+00  0.7512E-12  0.0000E+00
    -39.981  0.4420E-10  0.0000E+00  0.4150E-02  0.0000E+00  0.2032E-03  0.0000E+00  0.4150E-02  0.0000E+00  0.1468E-11  0.0000E+00  0.1288E-12  0.0000E+00  0.1789E-10  0.0000E+00  0.1288E-12  0.0000E+00  0.5241E-10  0.0000E+00
    -39.768  0.2942E-08  0.0000E+00  0.2762E+00  0.0000E+00  0.1414E-01  0.0000E+00  0.2762E+00  0.0000E+00  0.9766E-10  0.0000E+00  0.8693E-11  0.0000E+00  0.1191E-08  0.0000E+00  0.8693E-11  0.0000E+00  0.3489E-08  0.0000E+00
    -39.555  0.3775E-07  0.0000E+00  0.3542E+01  0.0000E+00  0.8222E+00  0.0000E+00  0.3542E+01  0.0000E+00  0.1248E-08  0.0000E+00  0.2366E-09  0.0000E+00  0.1528E-07  0.0000E+00  0.2366E-09  0.0000E+00  0.4476E-07  0.0000E+00
    -39.342  0.9006E-08  0.0000E+00  0.8301E+00  0.0000E+00  0.3547E+01  0.0000E+00  0.8301E+00  0.0000E+00  0.3286E-09  0.0000E+00  0.7123E-09  0.0000E+00  0.3700E-08  0.0000E+00  0.7123E-09  0.0000E+00  0.1050E-07  0.0000E+00
    -39.129  0.1375E-10  0.0000E+00  0.1407E-07  0.0000E+00  0.2791E+00  0.0000E+00  0.1407E-07  0.0000E+00  0.3271E-11  0.0000E+00  0.5465E-10  0.0000E+00  0.1006E-10  0.0000E+00  0.5465E-10  0.0000E+00  0.7686E-12  0.0000E+00
    -38.916  0.0000E+00  0.0000E+00  0.0000E+00  0.0000E+00  0.0000E+00  0.0000E+00  0.0000E+00  0.0000E+00  0.0000E+00  0.0000E+00  0.0000E+00  0.0000E+00  0.0000E+00  0.0000E+00  0.0000E+00  0.0000E+00  0.0000E+00  0.0000E+00
    -38.703  0.0000E+00  0.0000E+00  0.0000E+00  0.0000E+00  0.0000E+00  0.0000E+00  0.0000E+00  0.0000E+00  0.0000E+00  0.0000E+00  0.0000E+00  0.0000E+00  0.0000E+00  0.0000E+00  0.0000E+00  0.0000E+00  0.0000E+00  0.0000E+00
    -38.490  0.0000E+00  0.0000E+00  0.0000E+00  0.0000E+00  0.0000E+00  0.0000E+00  0.0000E+00  0.0000E+00  0.0000E+00  0.0000E+00  0.0000E+00  0.0000E+00  0.0000E+00  0.0000E+00  0.0000E+00  0.0000E+00  0.0000E+00  0.0000E+00
    -38.277  0.0000E+00  0.0000E+00  0.0000E+00  0.0000E+00  0.0000E+00  0.0000E+00  0.0000E+00  0.0000E+00  0.0000E+00  0.0000E+00  0.0000E+00  0.0000E+00  0.0000E+00  0.0000E+00  0.0000E+00  0.0000E+00  0.0000E+00  0.0000E+00
    -38.064  0.0000E+00  0.8678E-11  0.0000E+00  0.6077E-03  0.0000E+00  0.3261E-03  0.0000E+00  0.6077E-03  0.0000E+00  0.3131E-12  0.0000E+00  0.1243E-12  0.0000E+00  0.3222E-11  0.0000E+00  0.1243E-12  0.0000E+00  0.9393E-11
    -37.851  0.0000E+00  0.6004E-09  0.0000E+00  0.4205E-01  0.0000E+00  0.2266E-01  0.0000E+00  0.4205E-01  0.0000E+00  0.2166E-10  0.0000E+00  0.8625E-11  0.0000E+00  0.2229E-09  0.0000E+00  0.8625E-11  0.0000E+00  0.6499E-09
    -37.638  0.0000E+00  0.2573E-07  0.0000E+00  0.1801E+01  0.0000E+00  0.1188E+01  0.0000E+00  0.1801E+01  0.0000E+00  0.9304E-09  0.0000E+00  0.4343E-09  0.0000E+00  0.9569E-08  0.0000E+00  0.4343E-09  0.0000E+00  0.2786E-07
    -37.425  0.0000E+00  0.3896E-07  0.0000E+00  0.2725E+01  0.0000E+00  0.3275E+01  0.0000E+00  0.2725E+01  0.0000E+00  0.1438E-08  0.0000E+00  0.1097E-08  0.0000E+00  0.1461E-07  0.0000E+00  0.1097E-08  0.0000E+00  0.4224E-07
    -37.212  0.0000E+00  0.8992E-11  0.0000E+00  0.3322E-06  0.0000E+00  0.1781E+00  0.0000E+00  0.3322E-06  0.0000E+00  0.5564E-11  0.0000E+00  0.5300E-10  0.0000E+00  0.1835E-10  0.0000E+00  0.5300E-10  0.0000E+00  0.9201E-11
    -36.999  0.0000E+00  0.0000E+00  0.0000E+00  0.0000E+00  0.0000E+00  0.0000E+00  0.0000E+00  0.0000E+00  0.0000E+00  0.0000E+00  0.0000E+00  0.0000E+00  0.0000E+00  0.0000E+00  0.0000E+00  0.0000E+00  0.0000E+00  0.0000E+00
    -36.786  0.0000E+00  0.0000E+00  0.0000E+00  0.0000E+00  0.0000E+00  0.0000E+00  0.0000E+00  0.0000E+00  0.0000E+00  0.0000E+00  0.0000E+00  0.0000E+00  0.0000E+00  0.0000E+00  0.0000E+00  0.0000E+00  0.0000E+00  0.0000E+00
    -36.573  0.0000E+00  0.0000E+00  0.0000E+00  0.0000E+00  0.0000E+00  0.0000E+00  0.0000E+00  0.0000E+00  0.0000E+00  0.0000E+00  0.0000E+00  0.0000E+00  0.0000E+00  0.0000E+00  0.0000E+00  0.0000E+00  0.0000E+00  0.0000E+00
    -36.360  0.0000E+00  0.0000E+00  0.0000E+00  0.0000E+00  0.0000E+00  0.0000E+00  0.0000E+00  0.0000E+00  0.0000E+00  0.0000E+00  0.0000E+00  0.0000E+00  0.0000E+00  0.0000E+00  0.0000E+00  0.0000E+00  0.0000E+00  0.0000E+00
    -36.147  0.0000E+00  0.0000E+00  0.0000E+00  0.0000E+00  0.0000E+00  0.0000E+00  0.0000E+00  0.0000E+00  0.0000E+00  0.0000E+00  0.0000E+00  0.0000E+00  0.0000E+00  0.0000E+00  0.0000E+00  0.0000E+00  0.0000E+00  0.0000E+00
    -35.934  0.0000E+00  0.0000E+00  0.0000E+00  0.0000E+00  0.0000E+00  0.0000E+00  0.0000E+00  0.0000E+00  0.0000E+00  0.0000E+00  0.0000E+00  0.0000E+00  0.0000E+00  0.0000E+00  0.0000E+00  0.0000E+00  0.0000E+00  0.0000E+00
    -35.721  0.0000E+00  0.0000E+00  0.0000E+00  0.0000E+00  0.0000E+00  0.0000E+00  0.0000E+00  0.0000E+00  0.0000E+00  0.0000E+00  0.0000E+00  0.0000E+00  0.0000E+00  0.0000E+00  0.0000E+00  0.0000E+00  0.0000E+00  0.0000E+00
    -35.508  0.0000E+00  0.0000E+00  0.0000E+00  0.0000E+00  0.0000E+00  0.0000E+00  0.0000E+00  0.0000E+00  0.0000E+00  0.0000E+00  0.0000E+00  0.0000E+00  0.0000E+00  0.0000E+00  0.0000E+00  0.0000E+00  0.0000E+00  0.0000E+00
    -35.295  0.0000E+00  0.0000E+00  0.0000E+00  0.0000E+00  0.0000E+00  0.0000E+00  0.0000E+00  0.0000E+00  0.0000E+00  0.0000E+00  0.0000E+00  0.0000E+00  0.0000E+00  0.0000E+00  0.0000E+00  0.0000E+00  0.0000E+00  0.0000E+00
    -35.082  0.0000E+00  0.0000E+00  0.0000E+00  0.0000E+00  0.0000E+00  0.0000E+00  0.0000E+00  0.0000E+00  0.0000E+00  0.0000E+00  0.0000E+00  0.0000E+00  0.0000E+00  0.0000E+00  0.0000E+00  0.0000E+00  0.0000E+00  0.0000E+00
    -34.869  0.0000E+00  0.0000E+00  0.0000E+00  0.0000E+00  0.0000E+00  0.0000E+00  0.0000E+00  0.0000E+00  0.0000E+00  0.0000E+00  0.0000E+00  0.0000E+00  0.0000E+00  0.0000E+00  0.0000E+00  0.0000E+00  0.0000E+00  0.0000E+00
    -34.656  0.0000E+00  0.0000E+00  0.0000E+00  0.0000E+00  0.0000E+00  0.0000E+00  0.0000E+00  0.0000E+00  0.0000E+00  0.0000E+00  0.0000E+00  0.0000E+00  0.0000E+00  0.0000E+00  0.0000E+00  0.0000E+00  0.0000E+00  0.0000E+00
    -34.443  0.0000E+00  0.0000E+00  0.0000E+00  0.0000E+00  0.0000E+00  0.0000E+00  0.0000E+00  0.0000E+00  0.0000E+00  0.0000E+00  0.0000E+00  0.0000E+00  0.0000E+00  0.0000E+00  0.0000E+00  0.0000E+00  0.0000E+00  0.0000E+00
    -34.230  0.0000E+00  0.0000E+00  0.0000E+00  0.0000E+00  0.0000E+00  0.0000E+00  0.0000E+00  0.0000E+00  0.0000E+00  0.0000E+00  0.0000E+00  0.0000E+00  0.0000E+00  0.0000E+00  0.0000E+00  0.0000E+00  0.0000E+00  0.0000E+00
    -34.017  0.0000E+00  0.0000E+00  0.0000E+00  0.0000E+00  0.0000E+00  0.0000E+00  0.0000E+00  0.0000E+00  0.0000E+00  0.0000E+00  0.0000E+00  0.0000E+00  0.0000E+00  0.0000E+00  0.0000E+00  0.0000E+00  0.0000E+00  0.0000E+00
    -33.804  0.0000E+00  0.0000E+00  0.0000E+00  0.0000E+00  0.0000E+00  0.0000E+00  0.0000E+00  0.0000E+00  0.0000E+00  0.0000E+00  0.0000E+00  0.0000E+00  0.0000E+00  0.0000E+00  0.0000E+00  0.0000E+00  0.0000E+00  0.0000E+00
    -33.591  0.0000E+00  0.0000E+00  0.0000E+00  0.0000E+00  0.0000E+00  0.0000E+00  0.0000E+00  0.0000E+00  0.0000E+00  0.0000E+00  0.0000E+00  0.0000E+00  0.0000E+00  0.0000E+00  0.0000E+00  0.0000E+00  0.0000E+00  0.0000E+00
    -33.378  0.0000E+00  0.0000E+00  0.0000E+00  0.0000E+00  0.0000E+00  0.0000E+00  0.0000E+00  0.0000E+00  0.0000E+00  0.0000E+00  0.0000E+00  0.0000E+00  0.0000E+00  0.0000E+00  0.0000E+00  0.0000E+00  0.0000E+00  0.0000E+00
    -33.165  0.0000E+00  0.0000E+00  0.0000E+00  0.0000E+00  0.0000E+00  0.0000E+00  0.0000E+00  0.0000E+00  0.0000E+00  0.0000E+00  0.0000E+00  0.0000E+00  0.0000E+00  0.0000E+00  0.0000E+00  0.0000E+00  0.0000E+00  0.0000E+00
    -32.952  0.0000E+00  0.0000E+00  0.0000E+00  0.0000E+00  0.0000E+00  0.0000E+00  0.0000E+00  0.0000E+00  0.0000E+00  0.0000E+00  0.0000E+00  0.0000E+00  0.0000E+00  0.0000E+00  0.0000E+00  0.0000E+00  0.0000E+00  0.0000E+00
    -32.739  0.0000E+00  0.0000E+00  0.0000E+00  0.0000E+00  0.0000E+00  0.0000E+00  0.0000E+00  0.0000E+00  0.0000E+00  0.0000E+00  0.0000E+00  0.0000E+00  0.0000E+00  0.0000E+00  0.0000E+00  0.0000E+00  0.0000E+00  0.0000E+00
    -32.526  0.0000E+00  0.0000E+00  0.0000E+00  0.0000E+00  0.0000E+00  0.0000E+00  0.0000E+00  0.0000E+00  0.0000E+00  0.0000E+00  0.0000E+00  0.0000E+00  0.0000E+00  0.0000E+00  0.0000E+00  0.0000E+00  0.0000E+00  0.0000E+00
    -32.313  0.0000E+00  0.0000E+00  0.0000E+00  0.0000E+00  0.0000E+00  0.0000E+00  0.0000E+00  0.0000E+00  0.0000E+00  0.0000E+00  0.0000E+00  0.0000E+00  0.0000E+00  0.0000E+00  0.0000E+00  0.0000E+00  0.0000E+00  0.0000E+00
    -32.100  0.0000E+00  0.0000E+00  0.0000E+00  0.0000E+00  0.0000E+00  0.0000E+00  0.0000E+00  0.0000E+00  0.0000E+00  0.0000E+00  0.0000E+00  0.0000E+00  0.0000E+00  0.0000E+00  0.0000E+00  0.0000E+00  0.0000E+00  0.0000E+00
    -31.887  0.0000E+00  0.0000E+00  0.0000E+00  0.0000E+00  0.0000E+00  0.0000E+00  0.0000E+00  0.0000E+00  0.0000E+00  0.0000E+00  0.0000E+00  0.0000E+00  0.0000E+00  0.0000E+00  0.0000E+00  0.0000E+00  0.0000E+00  0.0000E+00