   8   8   1   0
  0.1779845E+02  0.4081189E-09  0.4081189E-09  0.8548677E-09  0.5000000E-15
  1.000000000000000E-004
  CAR 
 unknown system                          
     17.38703032    -45.63147613  301      6.73665165      1.00000000
    -45.631  0.0000E+00  0.0000E+00  0.0000E+00  0.0000E+00
    -45.421  0.0000E+00  0.0000E+00  0.0000E+00  0.0000E+00
    -45.211  0.0000E+00  0.0000E+00  0.0000E+00  0.0000E+00
    -45.001  0.0000E+00  0.0000E+00  0.0000E+00  0.0000E+00
    -44.791  0.0000E+00  0.0000E+00  0.0000E+00  0.0000E+00
    -44.581  0.0000E+00  0.0000E+00  0.0000E+00  0.0000E+00
    -44.371  0.0000E+00  0.0000E+00  0.0000E+00  0.0000E+00
    -44.161  0.0000E+00  0.0000E+00  0.0000E+00  0.0000E+00
    -43.951  0.0000E+00  0.0000E+00  0.0000E+00  0.0000E+00
    -43.741  0.0000E+00  0.0000E+00  0.0000E+00  0.0000E+00
    -43.531  0.0000E+00  0.0000E+00  0.0000E+00  0.0000E+00
    -43.321  0.2916E-03  0.0000E+00  0.6126E-04  0.0000E+00
    -43.111  0.2071E-01  0.0000E+00  0.4412E-02  0.0000E+00
    -42.901  0.1299E+01  0.0000E+00  0.2772E+00  0.0000E+00
    -42.691  0.1830E+02  0.0000E+00  0.4122E+01  0.0000E+00
    -42.481  0.8684E+01  0.0000E+00  0.5947E+01  0.0000E+00
    -42.270  0.0000E+00  0.0000E+00  0.6000E+01  0.0000E+00
    -42.060  0.0000E+00  0.0000E+00  0.6000E+01  0.0000E+00
    -41.850  0.0000E+00  0.0000E+00  0.6000E+01  0.0000E+00
    -41.640  0.0000E+00  0.0000E+00  0.6000E+01  0.0000E+00
    -41.430  0.0000E+00  0.0000E+00  0.6000E+01  0.0000E+00
    -41.220  0.0000E+00  0.0000E+00  0.6000E+01  0.0000E+00
    -41.010  0.0000E+00  0.0000E+00  0.6000E+01  0.0000E+00
    -40.800  0.0000E+00  0.0000E+00  0.6000E+01  0.0000E+00
    -40.590  0.0000E+00  0.0000E+00  0.6000E+01  0.0000E+00
    -40.380  0.0000E+00  0.0000E+00  0.6000E+01  0.0000E+00
    -40.170  0.0000E+00  0.0000E+00  0.6000E+01  0.0000E+00
    -39.960  0.0000E+00  0.1229E-03  0.6000E+01  0.2582E-04
    -39.750  0.0000E+00  0.1090E-01  0.6000E+01  0.2315E-02
    -39.540  0.0000E+00  0.7060E+00  0.6000E+01  0.1506E+00
    -39.330  0.0000E+00  0.1722E+02  0.6000E+01  0.3768E+01
    -39.120  0.0000E+00  0.1037E+02  0.6000E+01  0.5947E+01
    -38.910  0.0000E+00  0.0000E+00  0.6000E+01  0.6000E+01
    -38.699  0.0000E+00  0.0000E+00  0.6000E+01  0.6000E+01
    -38.489  0.0000E+00  0.0000E+00  0.6000E+01  0.6000E+01
    -38.279  0.0000E+00  0.0000E+00  0.6000E+01  0.6000E+01
    -38.069  0.0000E+00  0.0000E+00  0.6000E+01  0.6000E+01
    -37.859  0.0000E+00  0.0000E+00  0.6000E+01  0.6000E+01
    -37.649  0.0000E+00  0.0000E+00  0.6000E+01  0.6000E+01
    -37.439  0.0000E+00  0.0000E+00  0.6000E+01  0.6000E+01
    -37.229  0.0000E+00  0.0000E+00  0.6000E+01  0.6000E+01
    -37.019  0.0000E+00  0.0000E+00  0.6000E+01  0.6000E+01
    -36.809  0.0000E+00  0.0000E+00  0.6000E+01  0.6000E+01
    -36.599  0.0000E+00  0.0000E+00  0.6000E+01  0.6000E+01
    -36.389  0.0000E+00  0.0000E+00  0.6000E+01  0.6000E+01
    -36.179  0.0000E+00  0.0000E+00  0.6000E+01  0.6000E+01
    -35.969  0.0000E+00  0.0000E+00  0.6000E+01  0.6000E+01
    -35.759  0.0000E+00  0.0000E+00  0.6000E+01  0.6000E+01
    -35.549  0.0000E+00  0.0000E+00  0.6000E+01  0.6000E+01
    -35.338  0.0000E+00  0.0000E+00  0.6000E+01  0.6000E+01
    -35.128  0.0000E+00  0.0000E+00  0.6000E+01  0.6000E+01
    -34.918  0.0000E+00  0.0000E+00  0.6000E+01  0.6000E+01
    -34.708  0.0000E+00  0.0000E+00  0.6000E+01  0.6000E+01
    -34.498  0.0000E+00  0.0000E+00  0.6000E+01  0.6000E+01
    -34.288  0.0000E+00  0.0000E+00  0.6000E+01  0.6000E+01
    -34.078  0.0000E+00  0.0000E+00  0.6000E+01  0.6000E+01
    -33.868  0.0000E+00  0.0000E+00  0.6000E+01  0.6000E+01
    -33.658  0.0000E+00  0.0000E+00  0.6000E+01  0.6000E+01
    -33.448  0.0000E+00  0.0000E+00  0.6000E+01  0.6000E+01
    -33.238  0.0000E+00  0.0000E+00  0.6000E+01  0.6000E+01
    -33.028  0.0000E+00  0.0000E+00  0.6000E+01  0.6000E+01
    -32.818  0.0000E+00  0.0000E+00  0.6000E+01  0.6000E+01
    -32.608  0.0000E+00  0.0000E+00  0.6000E+01  0.6000E+01
    -32.398  0.0000E+00  0.0000E+00  0.6000E+01  0.6000E+01
    -32.188  0.0000E+00  0.0000E+00  0.6000E+01  0.6000E+01
    -31.977  0.0000E+00  0.0000E+00  0.6000E+01  0.6000E+01
    -31.767  0.0000E+00  0.0000E+00  0.6000E+01  0.6000E+01
    -31.557  0.0000E+00  0.0000E+00  0.6000E+01  0.6000E+01
    -31.347  0.0000E+00  0.0000E+00  0.6000E+01  0.6000E+01
    -31.137  0.0000E+00  0.0000E+00  0.6000E+01  0.6000E+01
    -30.927  0.0000E+00  0.0000E+00  0.6000E+01  0.6000E+01
    -30.717  0.0000E+00  0.0000E+00  0.6000E+01  0.6000E+01
    -30.507  0.0000E+00  0.0000E+00  0.6000E+01  0.6000E+01
    -30.297  0.0000E+00  0.0000E+00  0.6000E+01  0.6000E+01
    -30.087  0.0000E+00  0.0000E+00  0.6000E+01  0.6000E+01
    -29.877  0.0000E+00  0.0000E+00  0.6000E+01  0.6000E+01
    -29.667  0.0000E+00  0.0000E+00  0.6000E+01  0.6000E+01
    -29.457  0.0000E+00  0.0000E+00  0.6000E+01  0.6000E+01
    -29.247  0.0000E+00  0.0000E+00  0.6000E+01  0.6000E+01
    -29.037  0.0000E+00  0.0000E+00  0.6000E+01  0.6000E+01
    -28.827  0.0000E+00  0.0000E+00  0.6000E+01  0.6000E+01
    -28.616  0.0000E+00  0.0000E+00  0.6000E+01  0.6000E+01
    -28.406  0.0000E+00  0.0000E+00  0.6000E+01  0.6000E+01
    -28.196  0.0000E+00  0.0000E+00  0.6000E+01  0.6000E+01
    -27.986  0.0000E+00  0.0000E+00  0.6000E+01  0.6000E+01
    -27.776  0.0000E+00  0.0000E+00  0.6000E+01  0.6000E+01
    -27.566  0.0000E+00  0.0000E+00  0.6000E+01  0.6000E+01
    -27.356  0.0000E+00  0.0000E+00  0.6000E+01  0.6000E+01
    -27.146  0.0000E+00  0.0000E+00  0.6000E+01  0.6000E+01
    -26.936  0.0000E+00  0.0000E+00  0.6000E+01  0.6000E+01
    -26.726  0.0000E+00  0.0000E+00  0.6000E+01  0.6000E+01
    -26.516  0.0000E+00  0.0000E+00  0.6000E+01  0.6000E+01
    -26.306  0.0000E+00  0.0000E+00  0.6000E+01  0.6000E+01
    -26.096  0.0000E+00  0.0000E+00  0.6000E+01  0.6000E+01
    -25.886  0.0000E+00  0.0000E+00  0.6000E+01  0.6000E+01
    -25.676  0.0000E+00  0.0000E+00  0.6000E+01  0.6000E+01
    -25.466  0.0000E+00  0.0000E+00  0.6000E+01  0.6000E+01
    -25.255  0.0000E+00  0.0000E+00  0.6000E+01  0.6000E+01
    -25.045  0.0000E+00  0.0000E+00  0.6000E+01  0.6000E+01
    -24.835  0.0000E+00  0.0000E+00  0.6000E+01  0.6000E+01
    -24.625  0.0000E+00  0.0000E+00  0.6000E+01  0.6000E+01
    -24.415  0.0000E+00  0.0000E+00  0.6000E+01  0.6000E+01
    -24.205  0.0000E+00  0.0000E+00  0.6000E+01  0.6000E+01
    -23.995  0.0000E+00  0.0000E+00  0.6000E+01  0.6000E+01
    -23.785  0.0000E+00  0.0000E+00  0.6000E+01  0.6000E+01
    -23.575  0.0000E+00  0.0000E+00  0.6000E+01  0.6000E+01
    -23.365  0.0000E+00  0.0000E+00  0.6000E+01  0.6000E+01
    -23.155  0.0000E+00  0.0000E+00  0.6000E+01  0.6000E+01
    -22.945  0.0000E+00  0.0000E+00  0.6000E+01  0.6000E+01
    -22.735  0.0000E+00  0.0000E+00  0.6000E+01  0.6000E+01
    -22.525  0.0000E+00  0.0000E+00  0.6000E+01  0.6000E+01
    -22.315  0.0000E+00  0.0000E+00  0.6000E+01  0.6000E+01
    -22.105  0.0000E+00  0.0000E+00  0.6000E+01  0.6000E+01
    -21.895  0.0000E+00  0.0000E+00  0.6000E+01  0.6000E+01
    -21.684  0.0000E+00  0.0000E+00  0.6000E+01  0.6000E+01
    -21.474  0.0000E+00  0.0000E+00  0.6000E+01  0.6000E+01
    -21.264  0.0000E+00  0.0000E+00  0.6000E+01  0.6000E+01
    -21.054  0.0000E+00  0.0000E+00  0.6000E+01  0.6000E+01
    -20.844  0.0000E+00  0.0000E+00  0.6000E+01  0.6000E+01
    -20.634  0.0000E+00  0.0000E+00  0.6000E+01  0.6000E+01
    -20.424  0.0000E+00  0.0000E+00  0.6000E+01  0.6000E+01
    -20.214  0.0000E+00  0.0000E+00  0.6000E+01  0.6000E+01
    -20.004  0.0000E+00  0.0000E+00  0.6000E+01  0.6000E+01
    -19.794  0.0000E+00  0.0000E+00  0.6000E+01  0.6000E+01
    -19.584  0.0000E+00  0.0000E+00  0.6000E+01  0.6000E+01
    -19.374  0.0000E+00  0.0000E+00  0.6000E+01  0.6000E+01
    -19.164  0.0000E+00  0.0000E+00  0.6000E+01  0.6000E+01
    -18.954  0.0000E+00  0.0000E+00  0.6000E+01  0.6000E+01
    -18.744  0.0000E+00  0.0000E+00  0.6000E+01  0.6000E+01
    -18.534  0.0000E+00  0.0000E+00  0.6000E+01  0.6000E+01
    -18.323  0.0000E+00  0.0000E+00  0.6000E+01  0.6000E+01
    -18.113  0.0000E+00  0.0000E+00  0.6000E+01  0.6000E+01
    -17.903  0.0000E+00  0.0000E+00  0.6000E+01  0.6000E+01
    -17.693  0.0000E+00  0.0000E+00  0.6000E+01  0.6000E+01
    -17.483  0.0000E+00  0.0000E+00  0.6000E+01  0.6000E+01
    -17.273  0.0000E+00  0.0000E+00  0.6000E+01  0.6000E+01
    -17.063  0.0000E+00  0.0000E+00  0.6000E+01  0.6000E+01
    -16.853  0.0000E+00  0.0000E+00  0.6000E+01  0.6000E+01
    -16.643  0.0000E+00  0.0000E+00  0.6000E+01  0.6000E+01
    -16.433  0.0000E+00  0.0000E+00  0.6000E+01  0.6000E+01
    -16.223  0.0000E+00  0.0000E+00  0.6000E+01  0.6000E+01
    -16.013  0.0000E+00  0.0000E+00  0.6000E+01  0.6000E+01
    -15.803  0.0000E+00  0.0000E+00  0.6000E+01  0.6000E+01
    -15.593  0.0000E+00  0.0000E+00  0.6000E+01  0.6000E+01
    -15.383  0.0000E+00  0.0000E+00  0.6000E+01  0.6000E+01
    -15.173  0.0000E+00  0.0000E+00  0.6000E+01  0.6000E+01
    -14.962  0.0000E+00  0.0000E+00  0.6000E+01  0.6000E+01
    -14.752  0.0000E+00  0.0000E+00  0.6000E+01  0.6000E+01
    -14.542  0.0000E+00  0.0000E+00  0.6000E+01  0.6000E+01
    -14.332  0.0000E+00  0.0000E+00  0.6000E+01  0.6000E+01
    -14.122  0.0000E+00  0.0000E+00  0.6000E+01  0.6000E+01
    -13.912  0.0000E+00  0.0000E+00  0.6000E+01  0.6000E+01
    -13.702  0.0000E+00  0.0000E+00  0.6000E+01  0.6000E+01
    -13.492  0.0000E+00  0.0000E+00  0.6000E+01  0.6000E+01
    -13.282  0.0000E+00  0.0000E+00  0.6000E+01  0.6000E+01
    -13.072  0.0000E+00  0.0000E+00  0.6000E+01  0.6000E+01
    -12.862  0.0000E+00  0.0000E+00  0.6000E+01  0.6000E+01
    -12.652  0.0000E+00  0.0000E+00  0.6000E+01  0.6000E+01
    -12.442  0.0000E+00  0.0000E+00  0.6000E+01  0.6000E+01
    -12.232  0.0000E+00  0.0000E+00  0.6000E+01  0.6000E+01
    -12.022  0.0000E+00  0.0000E+00  0.6000E+01  0.6000E+01
    -11.812  0.0000E+00  0.0000E+00  0.6000E+01  0.6000E+01
    -11.601  0.0000E+00  0.0000E+00  0.6000E+01  0.6000E+01
    -11.391  0.0000E+00  0.0000E+00  0.6000E+01  0.6000E+01
    -11.181  0.0000E+00  0.0000E+00  0.6000E+01  0.6000E+01
    -10.971  0.0000E+00  0.0000E+00  0.6000E+01  0.6000E+01
    -10.761  0.0000E+00  0.0000E+00  0.6000E+01  0.6000E+01
    -10.551  0.0000E+00  0.0000E+00  0.6000E+01  0.6000E+01
    -10.341  0.0000E+00  0.0000E+00  0.6000E+01  0.6000E+01
    -10.131  0.0000E+00  0.0000E+00  0.6000E+01  0.6000E+01
     -9.921  0.0000E+00  0.0000E+00  0.6000E+01  0.6000E+01
     -9.711  0.0000E+00  0.0000E+00  0.6000E+01  0.6000E+01
     -9.501  0.0000E+00  0.0000E+00  0.6000E+01  0.6000E+01
     -9.291  0.0000E+00  0.0000E+00  0.6000E+01  0.6000E+01
     -9.081  0.0000E+00  0.0000E+00  0.6000E+01  0.6000E+01
     -8.871  0.0000E+00  0.0000E+00  0.6000E+01  0.6000E+01
     -8.661  0.0000E+00  0.0000E+00  0.6000E+01  0.6000E+01
     -8.451  0.0000E+00  0.0000E+00  0.6000E+01  0.6000E+01
     -8.240  0.0000E+00  0.0000E+00  0.6000E+01  0.6000E+01
     -8.030  0.0000E+00  0.0000E+00  0.6000E+01  0.6000E+01
     -7.820  0.0000E+00  0.0000E+00  0.6000E+01  0.6000E+01
     -7.610  0.0000E+00  0.0000E+00  0.6000E+01  0.6000E+01
     -7.400  0.0000E+00  0.0000E+00  0.6000E+01  0.6000E+01
     -7.190  0.0000E+00  0.0000E+00  0.6000E+01  0.6000E+01
     -6.980  0.0000E+00  0.0000E+00  0.6000E+01  0.6000E+01
     -6.770  0.0000E+00  0.0000E+00  0.6000E+01  0.6000E+01
     -6.560  0.0000E+00  0.0000E+00  0.6000E+01  0.6000E+01
     -6.350  0.0000E+00  0.0000E+00  0.6000E+01  0.6000E+01
     -6.140  0.0000E+00  0.0000E+00  0.6000E+01  0.6000E+01
     -5.930  0.0000E+00  0.0000E+00  0.6000E+01  0.6000E+01
     -5.720  0.0000E+00  0.0000E+00  0.6000E+01  0.6000E+01
     -5.510  0.0000E+00  0.0000E+00  0.6000E+01  0.6000E+01
     -5.300  0.0000E+00  0.0000E+00  0.6000E+01  0.6000E+01
     -5.090  0.0000E+00  0.0000E+00  0.6000E+01  0.6000E+01
     -4.880  0.0000E+00  0.0000E+00  0.6000E+01  0.6000E+01
     -4.669  0.0000E+00  0.0000E+00  0.6000E+01  0.6000E+01
     -4.459  0.0000E+00  0.0000E+00  0.6000E+01  0.6000E+01
     -4.249  0.0000E+00  0.0000E+00  0.6000E+01  0.6000E+01
     -4.039  0.0000E+00  0.0000E+00  0.6000E+01  0.6000E+01
     -3.829  0.0000E+00  0.0000E+00  0.6000E+01  0.6000E+01
     -3.619  0.0000E+00  0.9048E-07  0.6000E+01  0.6000E+01
     -3.409  0.7263E-05  0.1825E-04  0.6000E+01  0.6000E+01
     -3.199  0.5027E-03  0.1210E-02  0.6000E+01  0.6000E+01
     -2.989  0.2351E-01  0.4291E-01  0.6005E+01  0.6009E+01
     -2.779  0.1588E+00  0.1947E+00  0.6038E+01  0.6050E+01
     -2.569  0.2807E+00  0.3025E+00  0.6097E+01  0.6114E+01
     -2.359  0.3747E+00  0.3937E+00  0.6176E+01  0.6197E+01
     -2.149  0.4213E+00  0.4476E+00  0.6265E+01  0.6291E+01
     -1.939  0.5187E+00  0.5330E+00  0.6374E+01  0.6404E+01
     -1.729  0.5323E+00  0.5461E+00  0.6487E+01  0.6519E+01
     -1.519  0.6353E+00  0.6803E+00  0.6621E+01  0.6662E+01
     -1.308  0.6816E+00  0.6775E+00  0.6765E+01  0.6806E+01
     -1.098  0.7032E+00  0.7624E+00  0.6913E+01  0.6966E+01
     -0.888  0.7857E+00  0.7616E+00  0.7079E+01  0.7127E+01
     -0.678  0.7775E+00  0.7883E+00  0.7244E+01  0.7293E+01
     -0.468  0.7938E+00  0.8185E+00  0.7411E+01  0.7466E+01
     -0.258  0.9446E+00  0.8454E+00  0.7611E+01  0.7645E+01
     -0.048  0.7795E+00  0.7458E+00  0.7775E+01  0.7802E+01
      0.162  0.9332E+00  0.9219E+00  0.7972E+01  0.7997E+01
      0.372  0.1044E+01  0.1040E+01  0.8193E+01  0.8216E+01
      0.582  0.1068E+01  0.1019E+01  0.8419E+01  0.8432E+01
      0.792  0.1052E+01  0.1004E+01  0.8640E+01  0.8644E+01
      1.002  0.9924E+00  0.9072E+00  0.8850E+01  0.8836E+01
      1.212  0.9531E+00  0.8961E+00  0.9051E+01  0.9025E+01
      1.422  0.1122E+01  0.1053E+01  0.9288E+01  0.9248E+01
      1.632  0.1242E+01  0.1123E+01  0.9551E+01  0.9485E+01
      1.842  0.1361E+01  0.1282E+01  0.9838E+01  0.9756E+01
      2.053  0.1323E+01  0.1193E+01  0.1012E+02  0.1001E+02
      2.263  0.1484E+01  0.1126E+01  0.1043E+02  0.1025E+02
      2.473  0.1349E+01  0.1379E+01  0.1072E+02  0.1054E+02
      2.683  0.1422E+01  0.1070E+01  0.1102E+02  0.1076E+02
      2.893  0.1621E+01  0.1178E+01  0.1136E+02  0.1101E+02
      3.103  0.1576E+01  0.1348E+01  0.1169E+02  0.1130E+02
      3.313  0.1889E+01  0.1447E+01  0.1209E+02  0.1160E+02
      3.523  0.2237E+01  0.1257E+01  0.1256E+02  0.1187E+02
      3.733  0.2704E+01  0.1748E+01  0.1313E+02  0.1224E+02
      3.943  0.3360E+01  0.1455E+01  0.1384E+02  0.1254E+02
      4.153  0.5761E+01  0.1514E+01  0.1505E+02  0.1286E+02
      4.363  0.7808E+01  0.1707E+01  0.1670E+02  0.1322E+02
      4.573  0.7871E+01  0.1729E+01  0.1836E+02  0.1359E+02
      4.783  0.6914E+01  0.1764E+01  0.1982E+02  0.1396E+02
      4.993  0.5608E+01  0.2138E+01  0.2101E+02  0.1441E+02
      5.203  0.3409E+01  0.2119E+01  0.2173E+02  0.1486E+02
      5.414  0.2451E+01  0.2315E+01  0.2225E+02  0.1534E+02
      5.624  0.1660E+01  0.2842E+01  0.2260E+02  0.1594E+02
      5.834  0.1274E+01  0.2488E+01  0.2287E+02  0.1647E+02
      6.044  0.1699E+01  0.2749E+01  0.2323E+02  0.1705E+02
      6.254  0.2623E+01  0.2554E+01  0.2378E+02  0.1759E+02
      6.464  0.2462E+01  0.2921E+01  0.2430E+02  0.1821E+02
      6.674  0.2408E+01  0.3157E+01  0.2481E+02  0.1887E+02
      6.884  0.1852E+01  0.2508E+01  0.2520E+02  0.1941E+02
      7.094  0.1651E+01  0.1940E+01  0.2555E+02  0.1982E+02
      7.304  0.1944E+01  0.1629E+01  0.2596E+02  0.2016E+02
      7.514  0.1450E+01  0.2134E+01  0.2627E+02  0.2061E+02
      7.724  0.1634E+01  0.4505E+01  0.2661E+02  0.2156E+02
      7.934  0.2048E+01  0.7185E+01  0.2704E+02  0.2307E+02
      8.144  0.1773E+01  0.5241E+01  0.2742E+02  0.2418E+02
      8.354  0.1994E+01  0.3830E+01  0.2784E+02  0.2499E+02
      8.564  0.2096E+01  0.4186E+01  0.2828E+02  0.2587E+02
      8.775  0.1975E+01  0.3302E+01  0.2870E+02  0.2657E+02
      8.985  0.1776E+01  0.3178E+01  0.2907E+02  0.2725E+02
      9.195  0.1803E+01  0.3017E+01  0.2945E+02  0.2788E+02
      9.405  0.2013E+01  0.2883E+01  0.2988E+02  0.2849E+02
      9.615  0.1843E+01  0.2845E+01  0.3027E+02  0.2909E+02
      9.825  0.1959E+01  0.2687E+01  0.3068E+02  0.2966E+02
     10.035  0.1865E+01  0.2606E+01  0.3107E+02  0.3021E+02
     10.245  0.1693E+01  0.2258E+01  0.3143E+02  0.3069E+02
     10.455  0.1785E+01  0.1949E+01  0.3181E+02  0.3110E+02
     10.665  0.1750E+01  0.1883E+01  0.3218E+02  0.3150E+02
     10.875  0.2041E+01  0.1738E+01  0.3261E+02  0.3187E+02
     11.085  0.2429E+01  0.1977E+01  0.3312E+02  0.3228E+02
     11.295  0.2121E+01  0.2704E+01  0.3357E+02  0.3285E+02
     11.505  0.2033E+01  0.2704E+01  0.3400E+02  0.3342E+02
     11.715  0.1831E+01  0.2229E+01  0.3438E+02  0.3390E+02
     11.925  0.1860E+01  0.2114E+01  0.3478E+02  0.3434E+02
     12.135  0.1465E+01  0.2201E+01  0.3509E+02  0.3481E+02
     12.346  0.1155E+01  0.1603E+01  0.3533E+02  0.3515E+02
     12.556  0.9171E+00  0.1298E+01  0.3552E+02  0.3542E+02
     12.766  0.6604E+00  0.8808E+00  0.3566E+02  0.3561E+02
     12.976  0.3334E+00  0.4862E+00  0.3574E+02  0.3571E+02
     13.186  0.3436E+00  0.2455E+00  0.3581E+02  0.3577E+02
     13.396  0.2475E+00  0.3316E+00  0.3586E+02  0.3584E+02
     13.606  0.2278E+00  0.2476E+00  0.3591E+02  0.3589E+02
     13.816  0.1886E+00  0.1905E+00  0.3595E+02  0.3593E+02
     14.026  0.6905E-01  0.1713E+00  0.3596E+02  0.3596E+02
     14.236  0.1278E+00  0.8285E-01  0.3599E+02  0.3598E+02
     14.446  0.4460E-01  0.5277E-01  0.3600E+02  0.3599E+02
     14.656  0.1331E-02  0.2732E-01  0.3600E+02  0.3600E+02
     14.866  0.0000E+00  0.2045E-02  0.3600E+02  0.3600E+02
     15.076  0.0000E+00  0.0000E+00  0.3600E+02  0.3600E+02
     15.286  0.0000E+00  0.0000E+00  0.3600E+02  0.3600E+02
     15.496  0.0000E+00  0.0000E+00  0.3600E+02  0.3600E+02
     15.707  0.0000E+00  0.0000E+00  0.3600E+02  0.3600E+02
     15.917  0.0000E+00  0.0000E+00  0.3600E+02  0.3600E+02
     16.127  0.0000E+00  0.0000E+00  0.3600E+02  0.3600E+02
     16.337  0.0000E+00  0.0000E+00  0.3600E+02  0.3600E+02
     16.547  0.0000E+00  0.0000E+00  0.3600E+02  0.3600E+02
     16.757  0.0000E+00  0.0000E+00  0.3600E+02  0.3600E+02
     16.967  0.0000E+00  0.0000E+00  0.3600E+02  0.3600E+02
     17.177  0.0000E+00  0.0000E+00  0.3600E+02  0.3600E+02
     17.387  0.0000E+00  0.0000E+00  0.3600E+02  0.3600E+02
     17.38703032    -45.63147613  301      6.73665165      1.00000000
    -45.631  0.0000E+00  0.0000E+00  0.0000E+00  0.0000E+00  0.0000E+00  0.0000E+00  0.0000E+00  0.0000E+00  0.0000E+00  0.0000E+00  0.0000E+00  0.0000E+00  0.0000E+00  0.0000E+00  0.0000E+00  0.0000E+00  0.0000E+00  0.0000E+00
    -45.421  0.0000E+00  0.0000E+00  0.0000E+00  0.0000E+00  0.0000E+00  0.0000E+00  0.0000E+00  0.0000E+00  0.0000E+00  0.0000E+00  0.0000E+00  0.0000E+00  0.0000E+00  0.0000E+00  0.0000E+00  0.0000E+00  0.0000E+00  0.0000E+00
    -45.211  0.0000E+00  0.0000E+00  0.0000E+00  0.0000E+00  0.0000E+00  0.0000E+00  0.0000E+00  0.0000E+00  0.0000E+00  0.0000E+00  0.0000E+00  0.0000E+00  0.0000E+00  0.0000E+00  0.0000E+00  0.0000E+00  0.0000E+00  0.0000E+00
    -45.001  0.0000E+00  0.0000E+00  0.0000E+00  0.0000E+00  0.0000E+00  0.0000E+00  0.0000E+00  0.0000E+00  0.0000E+00  0.0000E+00  0.0000E+00  0.0000E+00  0.0000E+00  0.0000E+00  0.0000E+00  0.0000E+00  0.0000E+00  0.0000E+00
    -44.791  0.0000E+00  0.0000E+00  0.0000E+00  0.0000E+00  0.0000E+00  0.0000E+00  0.0000E+00  0.0000E+00  0.0000E+00  0.0000E+00  0.0000E+00  0.0000E+00  0.0000E+00  0.0000E+00  0.0000E+00  0.0000E+00  0.0000E+00  0.0000E+00
    -44.581  0.0000E+00  0.0000E+00  0.0000E+00  0.0000E+00  0.0000E+00  0.0000E+00  0.0000E+00  0.0000E+00  0.0000E+00  0.0000E+00  0.0000E+00  0.0000E+00  0.0000E+00  0.0000E+00  0.0000E+00  0.0000E+00  0.0000E+00  0.0000E+00
    -44.371  0.0000E+00  0.0000E+00  0.0000E+00  0.0000E+00  0.0000E+00  0.0000E+00  0.0000E+00  0.0000E+00  0.0000E+00  0.0000E+00  0.0000E+00  0.0000E+00  0.0000E+00  0.0000E+00  0.0000E+00  0.0000E+00  0.0000E+00  0.0000E+00
    -44.161  0.0000E+00  0.0000E+00  0.0000E+00  0.0000E+00  0.0000E+00  0.0000E+00  0.0000E+00  0.0000E+00  0.0000E+00  0.0000E+00  0.0000E+00  0.0000E+00  0.0000E+00  0.0000E+00  0.0000E+00  0.0000E+00  0.0000E+00  0.0000E+00
    -43.951  0.0000E+00  0.0000E+00  0.0000E+00  0.0000E+00  0.0000E+00  0.0000E+00  0.0000E+00  0.0000E+00  0.0000E+00  0.0000E+00  0.0000E+00  0.0000E+00  0.0000E+00  0.0000E+00  0.0000E+00  0.0000E+00  0.0000E+00  0.0000E+00
    -43.741  0.0000E+00  0.0000E+00  0.0000E+00  0.0000E+00  0.0000E+00  0.0000E+00  0.0000E+00  0.0000E+00  0.0000E+00  0.0000E+00  0.0000E+00  0.0000E+00  0.0000E+00  0.0000E+00  0.0000E+00  0.0000E+00  0.0000E+00  0.0000E+00
    -43.531  0.0000E+00  0.0000E+00  0.0000E+00  0.0000E+00  0.0000E+00  0.0000E+00  0.0000E+00  0.0000E+00  0.0000E+00  0.0000E+00  0.0000E+00  0.0000E+00  0.0000E+00  0.0000E+00  0.0000E+00  0.0000E+00  0.0000E+00  0.0000E+00
    -43.321  0.6316E-13  0.0000E+00  0.7251E-04  0.0000E+00  0.6288E-12  0.0000E+00  0.7251E-04  0.0000E+00  0.2134E-14  0.0000E+00  0.1936E-15  0.0000E+00  0.2075E-13  0.0000E+00  0.1936E-15  0.0000E+00  0.6116E-13  0.0000E+00
    -43.111  0.4176E-11  0.0000E+00  0.4764E-02  0.0000E+00  0.7719E-03  0.0000E+00  0.4764E-02  0.0000E+00  0.1407E-12  0.0000E+00  0.2242E-13  0.0000E+00  0.1364E-11  0.0000E+00  0.2242E-13  0.0000E+00  0.4019E-11  0.0000E+00
    -42.901  0.2611E-09  0.0000E+00  0.2978E+00  0.0000E+00  0.5022E-01  0.0000E+00  0.2978E+00  0.0000E+00  0.8795E-11  0.0000E+00  0.1426E-11  0.0000E+00  0.8528E-10  0.0000E+00  0.1426E-11  0.0000E+00  0.2512E-09  0.0000E+00
    -42.691  0.3185E-08  0.0000E+00  0.3580E+01  0.0000E+00  0.1942E+01  0.0000E+00  0.3580E+01  0.0000E+00  0.1063E-09  0.0000E+00  0.3394E-10  0.0000E+00  0.1027E-08  0.0000E+00  0.3394E-10  0.0000E+00  0.3021E-08  0.0000E+00
    -42.481  0.8194E-09  0.0000E+00  0.8363E+00  0.0000E+00  0.2646E+01  0.0000E+00  0.8363E+00  0.0000E+00  0.2620E-10  0.0000E+00  0.3547E-10  0.0000E+00  0.2438E-09  0.0000E+00  0.3547E-10  0.0000E+00  0.7071E-09  0.0000E+00
    -42.270  0.0000E+00  0.0000E+00  0.0000E+00  0.0000E+00  0.0000E+00  0.0000E+00  0.0000E+00  0.0000E+00  0.0000E+00  0.0000E+00  0.0000E+00  0.0000E+00  0.0000E+00  0.0000E+00  0.0000E+00  0.0000E+00  0.0000E+00  0.0000E+00
    -42.060  0.0000E+00  0.0000E+00  0.0000E+00  0.0000E+00  0.0000E+00  0.0000E+00  0.0000E+00  0.0000E+00  0.0000E+00  0.0000E+00  0.0000E+00  0.0000E+00  0.0000E+00  0.0000E+00  0.0000E+00  0.0000E+00  0.0000E+00  0.0000E+00
    -41.850  0.0000E+00  0.0000E+00  0.0000E+00  0.0000E+00  0.0000E+00  0.0000E+00  0.0000E+00  0.0000E+00  0.0000E+00  0.0000E+00  0.0000E+00  0.0000E+00  0.0000E+00  0.0000E+00  0.0000E+00  0.0000E+00  0.0000E+00  0.0000E+00
    -41.640  0.0000E+00  0.0000E+00  0.0000E+00  0.0000E+00  0.0000E+00  0.0000E+00  0.0000E+00  0.0000E+00  0.0000E+00  0.0000E+00  0.0000E+00  0.0000E+00  0.0000E+00  0.0000E+00  0.0000E+00  0.0000E+00  0.0000E+00  0.0000E+00
    -41.430  0.0000E+00  0.0000E+00  0.0000E+00  0.0000E+00  0.0000E+00  0.0000E+00  0.0000E+00  0.0000E+00  0.0000E+00  0.0000E+00  0.0000E+00  0.0000E+00  0.0000E+00  0.0000E+00  0.0000E+00  0.0000E+00  0.0000E+00  0.0000E+00
    -41.220  0.0000E+00  0.0000E+00  0.0000E+00  0.0000E+00  0.0000E+00  0.0000E+00  0.0000E+00  0.0000E+00  0.0000E+00  0.0000E+00  0.0000E+00  0.0000E+00  0.0000E+00  0.0000E+00  0.0000E+00  0.0000E+00  0.0000E+00  0.0000E+00
    -41.010  0.0000E+00  0.0000E+00  0.0000E+00  0.0000E+00  0.0000E+00  0.0000E+00  0.0000E+00  0.0000E+00  0.0000E+00  0.0000E+00  0.0000E+00  0.0000E+00  0.0000E+00  0.0000E+00  0.0000E+00  0.0000E+00  0.0000E+00  0.0000E+00
    -40.800  0.0000E+00  0.0000E+00  0.0000E+00  0.0000E+00  0.0000E+00  0.0000E+00  0.0000E+00  0.0000E+00  0.0000E+00  0.0000E+00  0.0000E+00  0.0000E+00  0.0000E+00  0.0000E+00  0.0000E+00  0.0000E+00  0.0000E+00  0.0000E+00
    -40.590  0.0000E+00  0.0000E+00  0.0000E+00  0.0000E+00  0.0000E+00  0.0000E+00  0.0000E+00  0.0000E+00  0.0000E+00  0.0000E+00  0.0000E+00  0.0000E+00  0.0000E+00  0.0000E+00  0.0000E+00  0.0000E+00  0.0000E+00  0.0000E+00
    -40.380  0.0000E+00  0.0000E+00  0.0000E+00  0.0000E+00  0.0000E+00  0.0000E+00  0.0000E+00  0.0000E+00  0.0000E+00  0.0000E+00  0.0000E+00  0.0000E+00  0.0000E+00  0.0000E+00  0.0000E+00  0.0000E+00  0.0000E+00  0.0000E+00
    -40.170  0.0000E+00  0.0000E+00  0.0000E+00  0.0000E+00  0.0000E+00  0.0000E+00  0.0000E+00  0.0000E+00  0.0000E+00  0.0000E+00  0.0000E+00  0.0000E+00  0.0000E+00  0.0000E+00  0.0000E+00  0.0000E+00  0.0000E+00  0.0000E+00
    -39.960  0.0000E+00  0.5109E-13  0.0000E+00  0.3057E-04  0.0000E+00  0.1591E-10  0.0000E+00  0.3057E-04  0.0000E+00  0.2307E-14  0.0000E+00  0.3336E-15  0.0000E+00  0.1778E-13  0.0000E+00  0.3336E-15  0.0000E+00  0.5209E-13
    -39.750  0.0000E+00  0.3361E-11  0.0000E+00  0.2010E-02  0.0000E+00  0.1400E-02  0.0000E+00  0.2010E-02  0.0000E+00  0.1558E-12  0.0000E+00  0.6500E-13  0.0000E+00  0.1181E-11  0.0000E+00  0.6500E-13  0.0000E+00  0.3435E-11
    -39.540  0.0000E+00  0.2182E-09  0.0000E+00  0.1304E+00  0.0000E+00  0.9031E-01  0.0000E+00  0.1304E+00  0.0000E+00  0.1011E-10  0.0000E+00  0.4201E-11  0.0000E+00  0.7664E-10  0.0000E+00  0.4201E-11  0.0000E+00  0.2229E-09
    -39.330  0.0000E+00  0.4988E-08  0.0000E+00  0.2982E+01  0.0000E+00  0.2602E+01  0.0000E+00  0.2982E+01  0.0000E+00  0.2327E-09  0.0000E+00  0.1126E-09  0.0000E+00  0.1756E-08  0.0000E+00  0.1126E-09  0.0000E+00  0.5101E-08
    -39.120  0.0000E+00  0.2651E-08  0.0000E+00  0.1585E+01  0.0000E+00  0.1989E+01  0.0000E+00  0.1585E+01  0.0000E+00  0.1254E-09  0.0000E+00  0.7857E-10  0.0000E+00  0.9380E-09  0.0000E+00  0.7857E-10  0.0000E+00  0.2714E-08
    -38.910  0.0000E+00  0.0000E+00  0.0000E+00  0.0000E+00  0.0000E+00  0.0000E+00  0.0000E+00  0.0000E+00  0.0000E+00  0.0000E+00  0.0000E+00  0.0000E+00  0.0000E+00  0.0000E+00  0.0000E+00  0.0000E+00  0.0000E+00  0.0000E+00
    -38.699  0.0000E+00  0.0000E+00  0.0000E+00  0.0000E+00  0.0000E+00  0.0000E+00  0.0000E+00  0.0000E+00  0.0000E+00  0.0000E+00  0.0000E+00  0.0000E+00  0.0000E+00  0.0000E+00  0.0000E+00  0.0000E+00  0.0000E+00  0.0000E+00
    -38.489  0.0000E+00  0.0000E+00  0.0000E+00  0.0000E+00  0.0000E+00  0.0000E+00  0.0000E+00  0.0000E+00  0.0000E+00  0.0000E+00  0.0000E+00  0.0000E+00  0.0000E+00  0.0000E+00  0.0000E+00  0.0000E+00  0.0000E+00  0.0000E+00
    -38.279  0.0000E+00  0.0000E+00  0.0000E+00  0.0000E+00  0.0000E+00  0.0000E+00  0.0000E+00  0.0000E+00  0.0000E+00  0.0000E+00  0.0000E+00  0.0000E+00  0.0000E+00  0.0000E+00  0.0000E+00  0.0000E+00  0.0000E+00  0.0000E+00
    -38.069  0.0000E+00  0.0000E+00  0.0000E+00  0.0000E+00  0.0000E+00  0.0000E+00  0.0000E+00  0.0000E+00  0.0000E+00  0.0000E+00  0.0000E+00  0.0000E+00  0.0000E+00  0.0000E+00  0.0000E+00  0.0000E+00  0.0000E+00  0.0000E+00
    -37.859  0.0000E+00  0.0000E+00  0.0000E+00  0.0000E+00  0.0000E+00  0.0000E+00  0.0000E+00  0.0000E+00  0.0000E+00  0.0000E+00  0.0000E+00  0.0000E+00  0.0000E+00  0.0000E+00  0.0000E+00  0.0000E+00  0.0000E+00  0.0000E+00
    -37.649  0.0000E+00  0.0000E+00  0.0000E+00  0.0000E+00  0.0000E+00  0.0000E+00  0.0000E+00  0.0000E+00  0.0000E+00  0.0000E+00  0.0000E+00  0.0000E+00  0.0000E+00  0.0000E+00  0.0000E+00  0.0000E+00  0.0000E+00  0.0000E+00
    -37.439  0.0000E+00  0.0000E+00  0.0000E+00  0.0000E+00  0.0000E+00  0.0000E+00  0.0000E+00  0.0000E+00  0.0000E+00  0.0000E+00  0.0000E+00  0.0000E+00  0.0000E+00  0.0000E+00  0.0000E+00  0.0000E+00  0.0000E+00  0.0000E+00
    -37.229  0.0000E+00  0.0000E+00  0.0000E+00  0.0000E+00  0.0000E+00  0.0000E+00  0.0000E+00  0.0000E+00  0.0000E+00  0.0000E+00  0.0000E+00  0.0000E+00  0.0000E+00  0.0000E+00  0.0000E+00  0.0000E+00  0.0000E+00  0.0000E+00
    -37.019  0.0000E+00  0.0000E+00  0.0000E+00  0.0000E+00  0.0000E+00  0.0000E+00  0.0000E+00  0.0000E+00  0.0000E+00  0.0000E+00  0.0000E+00  0.0000E+00  0.0000E+00  0.0000E+00  0.0000E+00  0.0000E+00  0.0000E+00  0.0000E+00
    -36.809  0.0000E+00  0.0000E+00  0.0000E+00  0.0000E+00  0.0000E+00  0.0000E+00  0.0000E+00  0.0000E+00  0.0000E+00  0.0000E+00  0.0000E+00  0.0000E+00  0.0000E+00  0.0000E+00  0.0000E+00  0.0000E+00  0.0000E+00  0.0000E+00
    -36.599  0.0000E+00  0.0000E+00  0.0000E+00  0.0000E+00  0.0000E+00  0.0000E+00  0.0000E+00  0.0000E+00  0.0000E+00  0.0000E+00  0.0000E+00  0.0000E+00  0.0000E+00  0.0000E+00  0.0000E+00  0.0000E+00  0.0000E+00  0.0000E+00
    -36.389  0.0000E+00  0.0000E+00  0.0000E+00  0.0000E+00  0.0000E+00  0.0000E+00  0.0000E+00  0.0000E+00  0.0000E+00  0.0000E+00  0.0000E+00  0.0000E+00  0.0000E+00  0.0000E+00  0.0000E+00  0.0000E+00  0.0000E+00  0.0000E+00
    -36.179  0.0000E+00  0.0000E+00  0.0000E+00  0.0000E+00  0.0000E+00  0.0000E+00  0.0000E+00  0.0000E+00  0.0000E+00  0.0000E+00  0.0000E+00  0.0000E+00  0.0000E+00  0.0000E+00  0.0000E+00  0.0000E+00  0.0000E+00  0.0000E+00
    -35.969  0.0000E+00  0.0000E+00  0.0000E+00  0.0000E+00  0.0000E+00  0.0000E+00  0.0000E+00  0.0000E+00  0.0000E+00  0.0000E+00  0.0000E+00  0.0000E+00  0.0000E+00  0.0000E+00  0.0000E+00  0.0000E+00  0.0000E+00  0.0000E+00
    -35.759  0.0000E+00  0.0000E+00  0.0000E+00  0.0000E+00  0.0000E+00  0.0000E+00  0.0000E+00  0.0000E+00  0.0000E+00  0.0000E+00  0.0000E+00  0.0000E+00  0.0000E+00  0.0000E+00  0.0000E+00  0.0000E+00  0.0000E+00  0.0000E+00
    -35.549  0.0000E+00  0.0000E+00  0.0000E+00  0.0000E+00  0.0000E+00  0.0000E+00  0.0000E+00  0.0000E+00  0.0000E+00  0.0000E+00  0.0000E+00  0.0000E+00  0.0000E+00  0.0000E+00  0.0000E+00  0.0000E+00  0.0000E+00  0.0000E+00
    -35.338  0.0000E+00  0.0000E+00  0.0000E+00  0.0000E+00  0.0000E+00  0.0000E+00  0.0000E+00  0.0000E+00  0.0000E+00  0.0000E+00  0.0000E+00  0.0000E+00  0.0000E+00  0.0000E+00  0.0000E+00  0.0000E+00  0.0000E+00  0.0000E+00
    -35.128  0.0000E+00  0.0000E+00  0.0000E+00  0.0000E+00  0.0000E+00  0.0000E+00  0.0000E+00  0.0000E+00  0.0000E+00  0.0000E+00  0.0000E+00  0.0000E+00  0.0000E+00  0.0000E+00  0.0000E+00  0.0000E+00  0.0000E+00  0.0000E+00