   8   8   1   0
  0.1880568E+02  0.4156766E-09  0.4156766E-09  0.8706986E-09  0.5000000E-15
  1.000000000000000E-004
  CAR 
 unknown system                          
     16.52326688    -46.26842448  301      6.25444829      1.00000000
    -46.268  0.0000E+00  0.0000E+00  0.0000E+00  0.0000E+00
    -46.059  0.0000E+00  0.0000E+00  0.0000E+00  0.0000E+00
    -45.850  0.0000E+00  0.0000E+00  0.0000E+00  0.0000E+00
    -45.641  0.0000E+00  0.0000E+00  0.0000E+00  0.0000E+00
    -45.431  0.0000E+00  0.0000E+00  0.0000E+00  0.0000E+00
    -45.222  0.0000E+00  0.0000E+00  0.0000E+00  0.0000E+00
    -45.013  0.0000E+00  0.0000E+00  0.0000E+00  0.0000E+00
    -44.803  0.0000E+00  0.0000E+00  0.0000E+00  0.0000E+00
    -44.594  0.0000E+00  0.0000E+00  0.0000E+00  0.0000E+00
    -44.385  0.0000E+00  0.0000E+00  0.0000E+00  0.0000E+00
    -44.175  0.0000E+00  0.0000E+00  0.0000E+00  0.0000E+00
    -43.966  0.3055E-03  0.0000E+00  0.6394E-04  0.0000E+00
    -43.757  0.2223E-01  0.0000E+00  0.4717E-02  0.0000E+00
    -43.547  0.1373E+01  0.0000E+00  0.2921E+00  0.0000E+00
    -43.338  0.1931E+02  0.0000E+00  0.4334E+01  0.0000E+00
    -43.129  0.7768E+01  0.0000E+00  0.5960E+01  0.0000E+00
    -42.920  0.0000E+00  0.0000E+00  0.6000E+01  0.0000E+00
    -42.710  0.0000E+00  0.0000E+00  0.6000E+01  0.0000E+00
    -42.501  0.0000E+00  0.0000E+00  0.6000E+01  0.0000E+00
    -42.292  0.0000E+00  0.0000E+00  0.6000E+01  0.0000E+00
    -42.082  0.0000E+00  0.0000E+00  0.6000E+01  0.0000E+00
    -41.873  0.0000E+00  0.0000E+00  0.6000E+01  0.0000E+00
    -41.664  0.0000E+00  0.0000E+00  0.6000E+01  0.0000E+00
    -41.454  0.0000E+00  0.0000E+00  0.6000E+01  0.0000E+00
    -41.245  0.0000E+00  0.0000E+00  0.6000E+01  0.0000E+00
    -41.036  0.0000E+00  0.0000E+00  0.6000E+01  0.0000E+00
    -40.826  0.0000E+00  0.0000E+00  0.6000E+01  0.0000E+00
    -40.617  0.0000E+00  0.0000E+00  0.6000E+01  0.0000E+00
    -40.408  0.0000E+00  0.0000E+00  0.6000E+01  0.0000E+00
    -40.199  0.0000E+00  0.8225E-02  0.6000E+01  0.1722E-02
    -39.989  0.0000E+00  0.5227E+00  0.6000E+01  0.1111E+00
    -39.780  0.0000E+00  0.1526E+02  0.6000E+01  0.3306E+01
    -39.571  0.0000E+00  0.1252E+02  0.6000E+01  0.5926E+01
    -39.361  0.0000E+00  0.0000E+00  0.6000E+01  0.6000E+01
    -39.152  0.0000E+00  0.0000E+00  0.6000E+01  0.6000E+01
    -38.943  0.0000E+00  0.0000E+00  0.6000E+01  0.6000E+01
    -38.733  0.0000E+00  0.0000E+00  0.6000E+01  0.6000E+01
    -38.524  0.0000E+00  0.0000E+00  0.6000E+01  0.6000E+01
    -38.315  0.0000E+00  0.0000E+00  0.6000E+01  0.6000E+01
    -38.106  0.0000E+00  0.0000E+00  0.6000E+01  0.6000E+01
    -37.896  0.0000E+00  0.0000E+00  0.6000E+01  0.6000E+01
    -37.687  0.0000E+00  0.0000E+00  0.6000E+01  0.6000E+01
    -37.478  0.0000E+00  0.0000E+00  0.6000E+01  0.6000E+01
    -37.268  0.0000E+00  0.0000E+00  0.6000E+01  0.6000E+01
    -37.059  0.0000E+00  0.0000E+00  0.6000E+01  0.6000E+01
    -36.850  0.0000E+00  0.0000E+00  0.6000E+01  0.6000E+01
    -36.640  0.0000E+00  0.0000E+00  0.6000E+01  0.6000E+01
    -36.431  0.0000E+00  0.0000E+00  0.6000E+01  0.6000E+01
    -36.222  0.0000E+00  0.0000E+00  0.6000E+01  0.6000E+01
    -36.012  0.0000E+00  0.0000E+00  0.6000E+01  0.6000E+01
    -35.803  0.0000E+00  0.0000E+00  0.6000E+01  0.6000E+01
    -35.594  0.0000E+00  0.0000E+00  0.6000E+01  0.6000E+01
    -35.385  0.0000E+00  0.0000E+00  0.6000E+01  0.6000E+01
    -35.175  0.0000E+00  0.0000E+00  0.6000E+01  0.6000E+01
    -34.966  0.0000E+00  0.0000E+00  0.6000E+01  0.6000E+01
    -34.757  0.0000E+00  0.0000E+00  0.6000E+01  0.6000E+01
    -34.547  0.0000E+00  0.0000E+00  0.6000E+01  0.6000E+01
    -34.338  0.0000E+00  0.0000E+00  0.6000E+01  0.6000E+01
    -34.129  0.0000E+00  0.0000E+00  0.6000E+01  0.6000E+01
    -33.919  0.0000E+00  0.0000E+00  0.6000E+01  0.6000E+01
    -33.710  0.0000E+00  0.0000E+00  0.6000E+01  0.6000E+01
    -33.501  0.0000E+00  0.0000E+00  0.6000E+01  0.6000E+01
    -33.291  0.0000E+00  0.0000E+00  0.6000E+01  0.6000E+01
    -33.082  0.0000E+00  0.0000E+00  0.6000E+01  0.6000E+01
    -32.873  0.0000E+00  0.0000E+00  0.6000E+01  0.6000E+01
    -32.664  0.0000E+00  0.0000E+00  0.6000E+01  0.6000E+01
    -32.454  0.0000E+00  0.0000E+00  0.6000E+01  0.6000E+01
    -32.245  0.0000E+00  0.0000E+00  0.6000E+01  0.6000E+01
    -32.036  0.0000E+00  0.0000E+00  0.6000E+01  0.6000E+01
    -31.826  0.0000E+00  0.0000E+00  0.6000E+01  0.6000E+01
    -31.617  0.0000E+00  0.0000E+00  0.6000E+01  0.6000E+01
    -31.408  0.0000E+00  0.0000E+00  0.6000E+01  0.6000E+01
    -31.198  0.0000E+00  0.0000E+00  0.6000E+01  0.6000E+01
    -30.989  0.0000E+00  0.0000E+00  0.6000E+01  0.6000E+01
    -30.780  0.0000E+00  0.0000E+00  0.6000E+01  0.6000E+01
    -30.571  0.0000E+00  0.0000E+00  0.6000E+01  0.6000E+01
    -30.361  0.0000E+00  0.0000E+00  0.6000E+01  0.6000E+01
    -30.152  0.0000E+00  0.0000E+00  0.6000E+01  0.6000E+01
    -29.943  0.0000E+00  0.0000E+00  0.6000E+01  0.6000E+01
    -29.733  0.0000E+00  0.0000E+00  0.6000E+01  0.6000E+01
    -29.524  0.0000E+00  0.0000E+00  0.6000E+01  0.6000E+01
    -29.315  0.0000E+00  0.0000E+00  0.6000E+01  0.6000E+01
    -29.105  0.0000E+00  0.0000E+00  0.6000E+01  0.6000E+01
    -28.896  0.0000E+00  0.0000E+00  0.6000E+01  0.6000E+01
    -28.687  0.0000E+00  0.0000E+00  0.6000E+01  0.6000E+01
    -28.477  0.0000E+00  0.0000E+00  0.6000E+01  0.6000E+01
    -28.268  0.0000E+00  0.0000E+00  0.6000E+01  0.6000E+01
    -28.059  0.0000E+00  0.0000E+00  0.6000E+01  0.6000E+01
    -27.850  0.0000E+00  0.0000E+00  0.6000E+01  0.6000E+01
    -27.640  0.0000E+00  0.0000E+00  0.6000E+01  0.6000E+01
    -27.431  0.0000E+00  0.0000E+00  0.6000E+01  0.6000E+01
    -27.222  0.0000E+00  0.0000E+00  0.6000E+01  0.6000E+01
    -27.012  0.0000E+00  0.0000E+00  0.6000E+01  0.6000E+01
    -26.803  0.0000E+00  0.0000E+00  0.6000E+01  0.6000E+01
    -26.594  0.0000E+00  0.0000E+00  0.6000E+01  0.6000E+01
    -26.384  0.0000E+00  0.0000E+00  0.6000E+01  0.6000E+01
    -26.175  0.0000E+00  0.0000E+00  0.6000E+01  0.6000E+01
    -25.966  0.0000E+00  0.0000E+00  0.6000E+01  0.6000E+01
    -25.756  0.0000E+00  0.0000E+00  0.6000E+01  0.6000E+01
    -25.547  0.0000E+00  0.0000E+00  0.6000E+01  0.6000E+01
    -25.338  0.0000E+00  0.0000E+00  0.6000E+01  0.6000E+01
    -25.129  0.0000E+00  0.0000E+00  0.6000E+01  0.6000E+01
    -24.919  0.0000E+00  0.0000E+00  0.6000E+01  0.6000E+01
    -24.710  0.0000E+00  0.0000E+00  0.6000E+01  0.6000E+01
    -24.501  0.0000E+00  0.0000E+00  0.6000E+01  0.6000E+01
    -24.291  0.0000E+00  0.0000E+00  0.6000E+01  0.6000E+01
    -24.082  0.0000E+00  0.0000E+00  0.6000E+01  0.6000E+01
    -23.873  0.0000E+00  0.0000E+00  0.6000E+01  0.6000E+01
    -23.663  0.0000E+00  0.0000E+00  0.6000E+01  0.6000E+01
    -23.454  0.0000E+00  0.0000E+00  0.6000E+01  0.6000E+01
    -23.245  0.0000E+00  0.0000E+00  0.6000E+01  0.6000E+01
    -23.035  0.0000E+00  0.0000E+00  0.6000E+01  0.6000E+01
    -22.826  0.0000E+00  0.0000E+00  0.6000E+01  0.6000E+01
    -22.617  0.0000E+00  0.0000E+00  0.6000E+01  0.6000E+01
    -22.408  0.0000E+00  0.0000E+00  0.6000E+01  0.6000E+01
    -22.198  0.0000E+00  0.0000E+00  0.6000E+01  0.6000E+01
    -21.989  0.0000E+00  0.0000E+00  0.6000E+01  0.6000E+01
    -21.780  0.0000E+00  0.0000E+00  0.6000E+01  0.6000E+01
    -21.570  0.0000E+00  0.0000E+00  0.6000E+01  0.6000E+01
    -21.361  0.0000E+00  0.0000E+00  0.6000E+01  0.6000E+01
    -21.152  0.0000E+00  0.0000E+00  0.6000E+01  0.6000E+01
    -20.942  0.0000E+00  0.0000E+00  0.6000E+01  0.6000E+01
    -20.733  0.0000E+00  0.0000E+00  0.6000E+01  0.6000E+01
    -20.524  0.0000E+00  0.0000E+00  0.6000E+01  0.6000E+01
    -20.315  0.0000E+00  0.0000E+00  0.6000E+01  0.6000E+01
    -20.105  0.0000E+00  0.0000E+00  0.6000E+01  0.6000E+01
    -19.896  0.0000E+00  0.0000E+00  0.6000E+01  0.6000E+01
    -19.687  0.0000E+00  0.0000E+00  0.6000E+01  0.6000E+01
    -19.477  0.0000E+00  0.0000E+00  0.6000E+01  0.6000E+01
    -19.268  0.0000E+00  0.0000E+00  0.6000E+01  0.6000E+01
    -19.059  0.0000E+00  0.0000E+00  0.6000E+01  0.6000E+01
    -18.849  0.0000E+00  0.0000E+00  0.6000E+01  0.6000E+01
    -18.640  0.0000E+00  0.0000E+00  0.6000E+01  0.6000E+01
    -18.431  0.0000E+00  0.0000E+00  0.6000E+01  0.6000E+01
    -18.221  0.0000E+00  0.0000E+00  0.6000E+01  0.6000E+01
    -18.012  0.0000E+00  0.0000E+00  0.6000E+01  0.6000E+01
    -17.803  0.0000E+00  0.0000E+00  0.6000E+01  0.6000E+01
    -17.594  0.0000E+00  0.0000E+00  0.6000E+01  0.6000E+01
    -17.384  0.0000E+00  0.0000E+00  0.6000E+01  0.6000E+01
    -17.175  0.0000E+00  0.0000E+00  0.6000E+01  0.6000E+01
    -16.966  0.0000E+00  0.0000E+00  0.6000E+01  0.6000E+01
    -16.756  0.0000E+00  0.0000E+00  0.6000E+01  0.6000E+01
    -16.547  0.0000E+00  0.0000E+00  0.6000E+01  0.6000E+01
    -16.338  0.0000E+00  0.0000E+00  0.6000E+01  0.6000E+01
    -16.128  0.0000E+00  0.0000E+00  0.6000E+01  0.6000E+01
    -15.919  0.0000E+00  0.0000E+00  0.6000E+01  0.6000E+01
    -15.710  0.0000E+00  0.0000E+00  0.6000E+01  0.6000E+01
    -15.500  0.0000E+00  0.0000E+00  0.6000E+01  0.6000E+01
    -15.291  0.0000E+00  0.0000E+00  0.6000E+01  0.6000E+01
    -15.082  0.0000E+00  0.0000E+00  0.6000E+01  0.6000E+01
    -14.873  0.0000E+00  0.0000E+00  0.6000E+01  0.6000E+01
    -14.663  0.0000E+00  0.0000E+00  0.6000E+01  0.6000E+01
    -14.454  0.0000E+00  0.0000E+00  0.6000E+01  0.6000E+01
    -14.245  0.0000E+00  0.0000E+00  0.6000E+01  0.6000E+01
    -14.035  0.0000E+00  0.0000E+00  0.6000E+01  0.6000E+01
    -13.826  0.0000E+00  0.0000E+00  0.6000E+01  0.6000E+01
    -13.617  0.0000E+00  0.0000E+00  0.6000E+01  0.6000E+01
    -13.407  0.0000E+00  0.0000E+00  0.6000E+01  0.6000E+01
    -13.198  0.0000E+00  0.0000E+00  0.6000E+01  0.6000E+01
    -12.989  0.0000E+00  0.0000E+00  0.6000E+01  0.6000E+01
    -12.780  0.0000E+00  0.0000E+00  0.6000E+01  0.6000E+01
    -12.570  0.0000E+00  0.0000E+00  0.6000E+01  0.6000E+01
    -12.361  0.0000E+00  0.0000E+00  0.6000E+01  0.6000E+01
    -12.152  0.0000E+00  0.0000E+00  0.6000E+01  0.6000E+01
    -11.942  0.0000E+00  0.0000E+00  0.6000E+01  0.6000E+01
    -11.733  0.0000E+00  0.0000E+00  0.6000E+01  0.6000E+01
    -11.524  0.0000E+00  0.0000E+00  0.6000E+01  0.6000E+01
    -11.314  0.0000E+00  0.0000E+00  0.6000E+01  0.6000E+01
    -11.105  0.0000E+00  0.0000E+00  0.6000E+01  0.6000E+01
    -10.896  0.0000E+00  0.0000E+00  0.6000E+01  0.6000E+01
    -10.686  0.0000E+00  0.0000E+00  0.6000E+01  0.6000E+01
    -10.477  0.0000E+00  0.0000E+00  0.6000E+01  0.6000E+01
    -10.268  0.0000E+00  0.0000E+00  0.6000E+01  0.6000E+01
    -10.059  0.0000E+00  0.0000E+00  0.6000E+01  0.6000E+01
     -9.849  0.0000E+00  0.0000E+00  0.6000E+01  0.6000E+01
     -9.640  0.0000E+00  0.0000E+00  0.6000E+01  0.6000E+01
     -9.431  0.0000E+00  0.0000E+00  0.6000E+01  0.6000E+01
     -9.221  0.0000E+00  0.0000E+00  0.6000E+01  0.6000E+01
     -9.012  0.0000E+00  0.0000E+00  0.6000E+01  0.6000E+01
     -8.803  0.0000E+00  0.0000E+00  0.6000E+01  0.6000E+01
     -8.593  0.0000E+00  0.0000E+00  0.6000E+01  0.6000E+01
     -8.384  0.0000E+00  0.0000E+00  0.6000E+01  0.6000E+01
     -8.175  0.0000E+00  0.0000E+00  0.6000E+01  0.6000E+01
     -7.965  0.0000E+00  0.0000E+00  0.6000E+01  0.6000E+01
     -7.756  0.0000E+00  0.0000E+00  0.6000E+01  0.6000E+01
     -7.547  0.0000E+00  0.0000E+00  0.6000E+01  0.6000E+01
     -7.338  0.0000E+00  0.0000E+00  0.6000E+01  0.6000E+01
     -7.128  0.0000E+00  0.0000E+00  0.6000E+01  0.6000E+01
     -6.919  0.0000E+00  0.0000E+00  0.6000E+01  0.6000E+01
     -6.710  0.0000E+00  0.0000E+00  0.6000E+01  0.6000E+01
     -6.500  0.0000E+00  0.0000E+00  0.6000E+01  0.6000E+01
     -6.291  0.0000E+00  0.0000E+00  0.6000E+01  0.6000E+01
     -6.082  0.0000E+00  0.0000E+00  0.6000E+01  0.6000E+01
     -5.872  0.0000E+00  0.0000E+00  0.6000E+01  0.6000E+01
     -5.663  0.0000E+00  0.0000E+00  0.6000E+01  0.6000E+01
     -5.454  0.0000E+00  0.0000E+00  0.6000E+01  0.6000E+01
     -5.245  0.0000E+00  0.0000E+00  0.6000E+01  0.6000E+01
     -5.035  0.0000E+00  0.0000E+00  0.6000E+01  0.6000E+01
     -4.826  0.0000E+00  0.0000E+00  0.6000E+01  0.6000E+01
     -4.617  0.0000E+00  0.0000E+00  0.6000E+01  0.6000E+01
     -4.407  0.0000E+00  0.0000E+00  0.6000E+01  0.6000E+01
     -4.198  0.0000E+00  0.0000E+00  0.6000E+01  0.6000E+01
     -3.989  0.0000E+00  0.0000E+00  0.6000E+01  0.6000E+01
     -3.779  0.3284E-07  0.2322E-06  0.6000E+01  0.6000E+01
     -3.570  0.1270E-04  0.2760E-04  0.6000E+01  0.6000E+01
     -3.361  0.8443E-03  0.1775E-02  0.6000E+01  0.6000E+01
     -3.151  0.3423E-01  0.5471E-01  0.6007E+01  0.6012E+01
     -2.942  0.1868E+00  0.2176E+00  0.6046E+01  0.6057E+01
     -2.733  0.3067E+00  0.3277E+00  0.6111E+01  0.6126E+01
     -2.524  0.4022E+00  0.4171E+00  0.6195E+01  0.6214E+01
     -2.314  0.4614E+00  0.4880E+00  0.6292E+01  0.6316E+01
     -2.105  0.5462E+00  0.5549E+00  0.6407E+01  0.6433E+01
     -1.896  0.5691E+00  0.6033E+00  0.6527E+01  0.6560E+01
     -1.686  0.6943E+00  0.7179E+00  0.6673E+01  0.6710E+01
     -1.477  0.6880E+00  0.7061E+00  0.6817E+01  0.6859E+01
     -1.268  0.8028E+00  0.8287E+00  0.6986E+01  0.7033E+01
     -1.058  0.7853E+00  0.7980E+00  0.7151E+01  0.7201E+01
     -0.849  0.8305E+00  0.8241E+00  0.7326E+01  0.7374E+01
     -0.640  0.9015E+00  0.9158E+00  0.7515E+01  0.7567E+01
     -0.430  0.8682E+00  0.7380E+00  0.7698E+01  0.7722E+01
     -0.221  0.9030E+00  0.8729E+00  0.7887E+01  0.7906E+01
     -0.012  0.1042E+01  0.1049E+01  0.8106E+01  0.8127E+01
      0.197  0.1114E+01  0.1054E+01  0.8340E+01  0.8348E+01
      0.407  0.1110E+01  0.1068E+01  0.8573E+01  0.8573E+01
      0.616  0.1024E+01  0.9529E+00  0.8789E+01  0.8773E+01
      0.825  0.9692E+00  0.9139E+00  0.8993E+01  0.8965E+01
      1.035  0.1156E+01  0.1069E+01  0.9236E+01  0.9190E+01
      1.244  0.1248E+01  0.1121E+01  0.9499E+01  0.9426E+01
      1.453  0.1441E+01  0.1321E+01  0.9802E+01  0.9703E+01
      1.663  0.1387E+01  0.1255E+01  0.1009E+02  0.9967E+01
      1.872  0.1525E+01  0.1151E+01  0.1041E+02  0.1021E+02
      2.081  0.1415E+01  0.1418E+01  0.1071E+02  0.1051E+02
      2.290  0.1447E+01  0.1080E+01  0.1102E+02  0.1073E+02
      2.500  0.1687E+01  0.1176E+01  0.1137E+02  0.1098E+02
      2.709  0.1642E+01  0.1358E+01  0.1172E+02  0.1127E+02
      2.918  0.2010E+01  0.1451E+01  0.1214E+02  0.1157E+02
      3.128  0.2583E+01  0.1273E+01  0.1268E+02  0.1184E+02
      3.337  0.3331E+01  0.1757E+01  0.1338E+02  0.1221E+02
      3.546  0.4744E+01  0.1498E+01  0.1438E+02  0.1253E+02
      3.756  0.8781E+01  0.1573E+01  0.1622E+02  0.1286E+02
      3.965  0.8753E+01  0.1747E+01  0.1806E+02  0.1322E+02
      4.174  0.7591E+01  0.1733E+01  0.1966E+02  0.1359E+02
      4.384  0.6061E+01  0.1789E+01  0.2094E+02  0.1396E+02
      4.593  0.3574E+01  0.2134E+01  0.2169E+02  0.1441E+02
      4.802  0.2449E+01  0.2167E+01  0.2221E+02  0.1487E+02
      5.011  0.1682E+01  0.2286E+01  0.2256E+02  0.1535E+02
      5.221  0.1258E+01  0.2814E+01  0.2283E+02  0.1594E+02
      5.430  0.2047E+01  0.2503E+01  0.2326E+02  0.1647E+02
      5.639  0.2801E+01  0.2742E+01  0.2385E+02  0.1705E+02
      5.849  0.2242E+01  0.2553E+01  0.2432E+02  0.1758E+02
      6.058  0.2388E+01  0.2929E+01  0.2482E+02  0.1820E+02
      6.267  0.1775E+01  0.3148E+01  0.2519E+02  0.1886E+02
      6.477  0.1649E+01  0.2491E+01  0.2554E+02  0.1939E+02
      6.686  0.1960E+01  0.2019E+01  0.2595E+02  0.1981E+02
      6.895  0.1494E+01  0.1950E+01  0.2627E+02  0.2022E+02
      7.105  0.1690E+01  0.2693E+01  0.2662E+02  0.2079E+02
      7.314  0.2158E+01  0.5734E+01  0.2708E+02  0.2199E+02
      7.523  0.1758E+01  0.7067E+01  0.2745E+02  0.2347E+02
      7.732  0.2069E+01  0.4988E+01  0.2788E+02  0.2453E+02
      7.942  0.2089E+01  0.4482E+01  0.2832E+02  0.2547E+02
      8.151  0.1974E+01  0.4235E+01  0.2874E+02  0.2636E+02
      8.360  0.1772E+01  0.3581E+01  0.2911E+02  0.2712E+02
      8.570  0.1946E+01  0.3259E+01  0.2952E+02  0.2780E+02
      8.779  0.2001E+01  0.3043E+01  0.2994E+02  0.2845E+02
      8.988  0.1889E+01  0.2888E+01  0.3034E+02  0.2905E+02
      9.198  0.1957E+01  0.2877E+01  0.3075E+02  0.2966E+02
      9.407  0.1951E+01  0.2723E+01  0.3116E+02  0.3023E+02
      9.616  0.1779E+01  0.2340E+01  0.3154E+02  0.3073E+02
      9.825  0.1809E+01  0.2034E+01  0.3192E+02  0.3115E+02
     10.035  0.1880E+01  0.1919E+01  0.3231E+02  0.3156E+02
     10.244  0.2298E+01  0.1858E+01  0.3280E+02  0.3195E+02
     10.453  0.2409E+01  0.2207E+01  0.3330E+02  0.3241E+02
     10.663  0.2130E+01  0.2967E+01  0.3375E+02  0.3304E+02
     10.872  0.1989E+01  0.2690E+01  0.3417E+02  0.3360E+02
     11.081  0.1816E+01  0.2271E+01  0.3455E+02  0.3408E+02
     11.291  0.1851E+01  0.2062E+01  0.3494E+02  0.3451E+02
     11.500  0.1295E+01  0.2079E+01  0.3521E+02  0.3495E+02
     11.709  0.9931E+00  0.1513E+01  0.3542E+02  0.3527E+02
     11.919  0.9021E+00  0.1133E+01  0.3561E+02  0.3551E+02
     12.128  0.4666E+00  0.7915E+00  0.3571E+02  0.3568E+02
     12.337  0.3310E+00  0.2967E+00  0.3578E+02  0.3574E+02
     12.546  0.3215E+00  0.3353E+00  0.3585E+02  0.3581E+02
     12.756  0.2076E+00  0.3047E+00  0.3589E+02  0.3588E+02
     12.965  0.2388E+00  0.2125E+00  0.3594E+02  0.3592E+02
     13.174  0.1021E+00  0.1636E+00  0.3597E+02  0.3595E+02
     13.384  0.1262E+00  0.1255E+00  0.3599E+02  0.3598E+02
     13.593  0.3015E-01  0.5905E-01  0.3600E+02  0.3599E+02
     13.802  0.6544E-02  0.2834E-01  0.3600E+02  0.3600E+02
     14.012  0.0000E+00  0.2070E-02  0.3600E+02  0.3600E+02
     14.221  0.0000E+00  0.0000E+00  0.3600E+02  0.3600E+02
     14.430  0.0000E+00  0.0000E+00  0.3600E+02  0.3600E+02
     14.640  0.0000E+00  0.0000E+00  0.3600E+02  0.3600E+02
     14.849  0.0000E+00  0.0000E+00  0.3600E+02  0.3600E+02
     15.058  0.0000E+00  0.0000E+00  0.3600E+02  0.3600E+02
     15.267  0.0000E+00  0.0000E+00  0.3600E+02  0.3600E+02
     15.477  0.0000E+00  0.0000E+00  0.3600E+02  0.3600E+02
     15.686  0.0000E+00  0.0000E+00  0.3600E+02  0.3600E+02
     15.895  0.0000E+00  0.0000E+00  0.3600E+02  0.3600E+02
     16.105  0.0000E+00  0.0000E+00  0.3600E+02  0.3600E+02
     16.314  0.0000E+00  0.0000E+00  0.3600E+02  0.3600E+02
     16.523  0.0000E+00  0.0000E+00  0.3600E+02  0.3600E+02
     16.52326688    -46.26842448  301      6.25444829      1.00000000
    -46.268  0.0000E+00  0.0000E+00  0.0000E+00  0.0000E+00  0.0000E+00  0.0000E+00  0.0000E+00  0.0000E+00  0.0000E+00  0.0000E+00  0.0000E+00  0.0000E+00  0.0000E+00  0.0000E+00  0.0000E+00  0.0000E+00  0.0000E+00  0.0000E+00
    -46.059  0.0000E+00  0.0000E+00  0.0000E+00  0.0000E+00  0.0000E+00  0.0000E+00  0.0000E+00  0.0000E+00  0.0000E+00  0.0000E+00  0.0000E+00  0.0000E+00  0.0000E+00  0.0000E+00  0.0000E+00  0.0000E+00  0.0000E+00  0.0000E+00
    -45.850  0.0000E+00  0.0000E+00  0.0000E+00  0.0000E+00  0.0000E+00  0.0000E+00  0.0000E+00  0.0000E+00  0.0000E+00  0.0000E+00  0.0000E+00  0.0000E+00  0.0000E+00  0.0000E+00  0.0000E+00  0.0000E+00  0.0000E+00  0.0000E+00
    -45.641  0.0000E+00  0.0000E+00  0.0000E+00  0.0000E+00  0.0000E+00  0.0000E+00  0.0000E+00  0.0000E+00  0.0000E+00  0.0000E+00  0.0000E+00  0.0000E+00  0.0000E+00  0.0000E+00  0.0000E+00  0.0000E+00  0.0000E+00  0.0000E+00
    -45.431  0.0000E+00  0.0000E+00  0.0000E+00  0.0000E+00  0.0000E+00  0.0000E+00  0.0000E+00  0.0000E+00  0.0000E+00  0.0000E+00  0.0000E+00  0.0000E+00  0.0000E+00  0.0000E+00  0.0000E+00  0.0000E+00  0.0000E+00  0.0000E+00
    -45.222  0.0000E+00  0.0000E+00  0.0000E+00  0.0000E+00  0.0000E+00  0.0000E+00  0.0000E+00  0.0000E+00  0.0000E+00  0.0000E+00  0.0000E+00  0.0000E+00  0.0000E+00  0.0000E+00  0.0000E+00  0.0000E+00  0.0000E+00  0.0000E+00
    -45.013  0.0000E+00  0.0000E+00  0.0000E+00  0.0000E+00  0.0000E+00  0.0000E+00  0.0000E+00  0.0000E+00  0.0000E+00  0.0000E+00  0.0000E+00  0.0000E+00  0.0000E+00  0.0000E+00  0.0000E+00  0.0000E+00  0.0000E+00  0.0000E+00
    -44.803  0.0000E+00  0.0000E+00  0.0000E+00  0.0000E+00  0.0000E+00  0.0000E+00  0.0000E+00  0.0000E+00  0.0000E+00  0.0000E+00  0.0000E+00  0.0000E+00  0.0000E+00  0.0000E+00  0.0000E+00  0.0000E+00  0.0000E+00  0.0000E+00
    -44.594  0.0000E+00  0.0000E+00  0.0000E+00  0.0000E+00  0.0000E+00  0.0000E+00  0.0000E+00  0.0000E+00  0.0000E+00  0.0000E+00  0.0000E+00  0.0000E+00  0.0000E+00  0.0000E+00  0.0000E+00  0.0000E+00  0.0000E+00  0.0000E+00
    -44.385  0.0000E+00  0.0000E+00  0.0000E+00  0.0000E+00  0.0000E+00  0.0000E+00  0.0000E+00  0.0000E+00  0.0000E+00  0.0000E+00  0.0000E+00  0.0000E+00  0.0000E+00  0.0000E+00  0.0000E+00  0.0000E+00  0.0000E+00  0.0000E+00
    -44.175  0.0000E+00  0.0000E+00  0.0000E+00  0.0000E+00  0.0000E+00  0.0000E+00  0.0000E+00  0.0000E+00  0.0000E+00  0.0000E+00  0.0000E+00  0.0000E+00  0.0000E+00  0.0000E+00  0.0000E+00  0.0000E+00  0.0000E+00  0.0000E+00
    -43.966  0.4196E-13  0.0000E+00  0.7597E-04  0.0000E+00  0.3792E-12  0.0000E+00  0.7597E-04  0.0000E+00  0.1522E-14  0.0000E+00  0.3716E-15  0.0000E+00  0.1509E-13  0.0000E+00  0.3716E-15  0.0000E+00  0.4355E-13  0.0000E+00
    -43.757  0.2774E-11  0.0000E+00  0.4915E-02  0.0000E+00  0.1227E-02  0.0000E+00  0.4915E-02  0.0000E+00  0.1010E-12  0.0000E+00  0.3946E-13  0.0000E+00  0.9844E-12  0.0000E+00  0.3946E-13  0.0000E+00  0.2818E-11  0.0000E+00
    -43.547  0.1708E-09  0.0000E+00  0.3023E+00  0.0000E+00  0.7812E-01  0.0000E+00  0.3023E+00  0.0000E+00  0.6219E-11  0.0000E+00  0.2461E-11  0.0000E+00  0.6057E-10  0.0000E+00  0.2461E-11  0.0000E+00  0.1734E-09  0.0000E+00
    -43.338  0.2100E-08  0.0000E+00  0.3588E+01  0.0000E+00  0.2428E+01  0.0000E+00  0.3588E+01  0.0000E+00  0.7673E-10  0.0000E+00  0.4808E-10  0.0000E+00  0.7283E-09  0.0000E+00  0.4808E-10  0.0000E+00  0.2058E-08  0.0000E+00
    -43.129  0.5704E-09  0.0000E+00  0.8410E+00  0.0000E+00  0.2181E+01  0.0000E+00  0.8410E+00  0.0000E+00  0.2127E-10  0.0000E+00  0.3153E-10  0.0000E+00  0.1809E-09  0.0000E+00  0.3153E-10  0.0000E+00  0.4832E-09  0.0000E+00
    -42.920  0.0000E+00  0.0000E+00  0.0000E+00  0.0000E+00  0.0000E+00  0.0000E+00  0.0000E+00  0.0000E+00  0.0000E+00  0.0000E+00  0.0000E+00  0.0000E+00  0.0000E+00  0.0000E+00  0.0000E+00  0.0000E+00  0.0000E+00  0.0000E+00
    -42.710  0.0000E+00  0.0000E+00  0.0000E+00  0.0000E+00  0.0000E+00  0.0000E+00  0.0000E+00  0.0000E+00  0.0000E+00  0.0000E+00  0.0000E+00  0.0000E+00  0.0000E+00  0.0000E+00  0.0000E+00  0.0000E+00  0.0000E+00  0.0000E+00
    -42.501  0.0000E+00  0.0000E+00  0.0000E+00  0.0000E+00  0.0000E+00  0.0000E+00  0.0000E+00  0.0000E+00  0.0000E+00  0.0000E+00  0.0000E+00  0.0000E+00  0.0000E+00  0.0000E+00  0.0000E+00  0.0000E+00  0.0000E+00  0.0000E+00
    -42.292  0.0000E+00  0.0000E+00  0.0000E+00  0.0000E+00  0.0000E+00  0.0000E+00  0.0000E+00  0.0000E+00  0.0000E+00  0.0000E+00  0.0000E+00  0.0000E+00  0.0000E+00  0.0000E+00  0.0000E+00  0.0000E+00  0.0000E+00  0.0000E+00
    -42.082  0.0000E+00  0.0000E+00  0.0000E+00  0.0000E+00  0.0000E+00  0.0000E+00  0.0000E+00  0.0000E+00  0.0000E+00  0.0000E+00  0.0000E+00  0.0000E+00  0.0000E+00  0.0000E+00  0.0000E+00  0.0000E+00  0.0000E+00  0.0000E+00
    -41.873  0.0000E+00  0.0000E+00  0.0000E+00  0.0000E+00  0.0000E+00  0.0000E+00  0.0000E+00  0.0000E+00  0.0000E+00  0.0000E+00  0.0000E+00  0.0000E+00  0.0000E+00  0.0000E+00  0.0000E+00  0.0000E+00  0.0000E+00  0.0000E+00
    -41.664  0.0000E+00  0.0000E+00  0.0000E+00  0.0000E+00  0.0000E+00  0.0000E+00  0.0000E+00  0.0000E+00  0.0000E+00  0.0000E+00  0.0000E+00  0.0000E+00  0.0000E+00  0.0000E+00  0.0000E+00  0.0000E+00  0.0000E+00  0.0000E+00
    -41.454  0.0000E+00  0.0000E+00  0.0000E+00  0.0000E+00  0.0000E+00  0.0000E+00  0.0000E+00  0.0000E+00  0.0000E+00  0.0000E+00  0.0000E+00  0.0000E+00  0.0000E+00  0.0000E+00  0.0000E+00  0.0000E+00  0.0000E+00  0.0000E+00
    -41.245  0.0000E+00  0.0000E+00  0.0000E+00  0.0000E+00  0.0000E+00  0.0000E+00  0.0000E+00  0.0000E+00  0.0000E+00  0.0000E+00  0.0000E+00  0.0000E+00  0.0000E+00  0.0000E+00  0.0000E+00  0.0000E+00  0.0000E+00  0.0000E+00
    -41.036  0.0000E+00  0.0000E+00  0.0000E+00  0.0000E+00  0.0000E+00  0.0000E+00  0.0000E+00  0.0000E+00  0.0000E+00  0.0000E+00  0.0000E+00  0.0000E+00  0.0000E+00  0.0000E+00  0.0000E+00  0.0000E+00  0.0000E+00  0.0000E+00
    -40.826  0.0000E+00  0.0000E+00  0.0000E+00  0.0000E+00  0.0000E+00  0.0000E+00  0.0000E+00  0.0000E+00  0.0000E+00  0.0000E+00  0.0000E+00  0.0000E+00  0.0000E+00  0.0000E+00  0.0000E+00  0.0000E+00  0.0000E+00  0.0000E+00
    -40.617  0.0000E+00  0.0000E+00  0.0000E+00  0.0000E+00  0.0000E+00  0.0000E+00  0.0000E+00  0.0000E+00  0.0000E+00  0.0000E+00  0.0000E+00  0.0000E+00  0.0000E+00  0.0000E+00  0.0000E+00  0.0000E+00  0.0000E+00  0.0000E+00
    -40.408  0.0000E+00  0.0000E+00  0.0000E+00  0.0000E+00  0.0000E+00  0.0000E+00  0.0000E+00  0.0000E+00  0.0000E+00  0.0000E+00  0.0000E+00  0.0000E+00  0.0000E+00  0.0000E+00  0.0000E+00  0.0000E+00  0.0000E+00  0.0000E+00
    -40.199  0.0000E+00  0.1397E-11  0.0000E+00  0.1500E-02  0.0000E+00  0.1091E-02  0.0000E+00  0.1500E-02  0.0000E+00  0.6730E-13  0.0000E+00  0.3880E-13  0.0000E+00  0.6555E-12  0.0000E+00  0.3880E-13  0.0000E+00  0.1852E-11
    -39.989  0.0000E+00  0.8862E-10  0.0000E+00  0.9520E-01  0.0000E+00  0.6964E-01  0.0000E+00  0.9520E-01  0.0000E+00  0.4271E-11  0.0000E+00  0.2470E-11  0.0000E+00  0.4159E-10  0.0000E+00  0.2470E-11  0.0000E+00  0.1175E-09
    -39.780  0.0000E+00  0.2466E-08  0.0000E+00  0.2647E+01  0.0000E+00  0.2298E+01  0.0000E+00  0.2647E+01  0.0000E+00  0.1197E-09  0.0000E+00  0.7662E-10  0.0000E+00  0.1161E-08  0.0000E+00  0.7662E-10  0.0000E+00  0.3270E-08
    -39.571  0.0000E+00  0.1825E-08  0.0000E+00  0.1957E+01  0.0000E+00  0.2313E+01  0.0000E+00  0.1957E+01  0.0000E+00  0.9021E-10  0.0000E+00  0.7010E-10  0.0000E+00  0.8653E-09  0.0000E+00  0.7010E-10  0.0000E+00  0.2421E-08
    -39.361  0.0000E+00  0.0000E+00  0.0000E+00  0.0000E+00  0.0000E+00  0.0000E+00  0.0000E+00  0.0000E+00  0.0000E+00  0.0000E+00  0.0000E+00  0.0000E+00  0.0000E+00  0.0000E+00  0.0000E+00  0.0000E+00  0.0000E+00  0.0000E+00
    -39.152  0.0000E+00  0.0000E+00  0.0000E+00  0.0000E+00  0.0000E+00  0.0000E+00  0.0000E+00  0.0000E+00  0.0000E+00  0.0000E+00  0.0000E+00  0.0000E+00  0.0000E+00  0.0000E+00  0.0000E+00  0.0000E+00  0.0000E+00  0.0000E+00
    -38.943  0.0000E+00  0.0000E+00  0.0000E+00  0.0000E+00  0.0000E+00  0.0000E+00  0.0000E+00  0.0000E+00  0.0000E+00  0.0000E+00  0.0000E+00  0.0000E+00  0.0000E+00  0.0000E+00  0.0000E+00  0.0000E+00  0.0000E+00  0.0000E+00
    -38.733  0.0000E+00  0.0000E+00  0.0000E+00  0.0000E+00  0.0000E+00  0.0000E+00  0.0000E+00  0.0000E+00  0.0000E+00  0.0000E+00  0.0000E+00  0.0000E+00  0.0000E+00  0.0000E+00  0.0000E+00  0.0000E+00  0.0000E+00  0.0000E+00
    -38.524  0.0000E+00  0.0000E+00  0.0000E+00  0.0000E+00  0.0000E+00  0.0000E+00  0.0000E+00  0.0000E+00  0.0000E+00  0.0000E+00  0.0000E+00  0.0000E+00  0.0000E+00  0.0000E+00  0.0000E+00  0.0000E+00  0.0000E+00  0.0000E+00
    -38.315  0.0000E+00  0.0000E+00  0.0000E+00  0.0000E+00  0.0000E+00  0.0000E+00  0.0000E+00  0.0000E+00  0.0000E+00  0.0000E+00  0.0000E+00  0.0000E+00  0.0000E+00  0.0000E+00  0.0000E+00  0.0000E+00  0.0000E+00  0.0000E+00
    -38.106  0.0000E+00  0.0000E+00  0.0000E+00  0.0000E+00  0.0000E+00  0.0000E+00  0.0000E+00  0.0000E+00  0.0000E+00  0.0000E+00  0.0000E+00  0.0000E+00  0.0000E+00  0.0000E+00  0.0000E+00  0.0000E+00  0.0000E+00  0.0000E+00
    -37.896  0.0000E+00  0.0000E+00  0.0000E+00  0.0000E+00  0.0000E+00  0.0000E+00  0.0000E+00  0.0000E+00  0.0000E+00  0.0000E+00  0.0000E+00  0.0000E+00  0.0000E+00  0.0000E+00  0.0000E+00  0.0000E+00  0.0000E+00  0.0000E+00
    -37.687  0.0000E+00  0.0000E+00  0.0000E+00  0.0000E+00  0.0000E+00  0.0000E+00  0.0000E+00  0.0000E+00  0.0000E+00  0.0000E+00  0.0000E+00  0.0000E+00  0.0000E+00  0.0000E+00  0.0000E+00  0.0000E+00  0.0000E+00  0.0000E+00
    -37.478  0.0000E+00  0.0000E+00  0.0000E+00  0.0000E+00  0.0000E+00  0.0000E+00  0.0000E+00  0.0000E+00  0.0000E+00  0.0000E+00  0.0000E+00  0.0000E+00  0.0000E+00  0.0000E+00  0.0000E+00  0.0000E+00  0.0000E+00  0.0000E+00
    -37.268  0.0000E+00  0.0000E+00  0.0000E+00  0.0000E+00  0.0000E+00  0.0000E+00  0.0000E+00  0.0000E+00  0.0000E+00  0.0000E+00  0.0000E+00  0.0000E+00  0.0000E+00  0.0000E+00  0.0000E+00  0.0000E+00  0.0000E+00  0.0000E+00
    -37.059  0.0000E+00  0.0000E+00  0.0000E+00  0.0000E+00  0.0000E+00  0.0000E+00  0.0000E+00  0.0000E+00  0.0000E+00  0.0000E+00  0.0000E+00  0.0000E+00  0.0000E+00  0.0000E+00  0.0000E+00  0.0000E+00  0.0000E+00  0.0000E+00
    -36.850  0.0000E+00  0.0000E+00  0.0000E+00  0.0000E+00  0.0000E+00  0.0000E+00  0.0000E+00  0.0000E+00  0.0000E+00  0.0000E+00  0.0000E+00  0.0000E+00  0.0000E+00  0.0000E+00  0.0000E+00  0.0000E+00  0.0000E+00  0.0000E+00
    -36.640  0.0000E+00  0.0000E+00  0.0000E+00  0.0000E+00  0.0000E+00  0.0000E+00  0.0000E+00  0.0000E+00  0.0000E+00  0.0000E+00  0.0000E+00  0.0000E+00  0.0000E+00  0.0000E+00  0.0000E+00  0.0000E+00  0.0000E+00  0.0000E+00
    -36.431  0.0000E+00  0.0000E+00  0.0000E+00  0.0000E+00  0.0000E+00  0.0000E+00  0.0000E+00  0.0000E+00  0.0000E+00  0.0000E+00  0.0000E+00  0.0000E+00  0.0000E+00  0.0000E+00  0.0000E+00  0.0000E+00  0.0000E+00  0.0000E+00
    -36.222  0.0000E+00  0.0000E+00  0.0000E+00  0.0000E+00  0.0000E+00  0.0000E+00  0.0000E+00  0.0000E+00  0.0000E+00  0.0000E+00  0.0000E+00  0.0000E+00  0.0000E+00  0.0000E+00  0.0000E+00  0.0000E+00  0.0000E+00  0.0000E+00
    -36.012  0.0000E+00  0.0000E+00  0.0000E+00  0.0000E+00  0.0000E+00  0.0000E+00  0.0000E+00  0.0000E+00  0.0000E+00  0.0000E+00  0.0000E+00  0.0000E+00  0.0000E+00  0.0000E+00  0.0000E+00  0.0000E+00  0.0000E+00  0.0000E+00
    -35.803  0.0000E+00  0.0000E+00  0.0000E+00  0.0000E+00  0.0000E+00  0.0000E+00  0.0000E+00  0.0000E+00  0.0000E+00  0.0000E+00  0.0000E+00  0.0000E+00  0.0000E+00  0.0000E+00  0.0000E+00  0.0000E+00  0.0000E+00  0.0000E+00