   8   8   1   0
  0.1250042E+02  0.3627723E-09  0.3627723E-09  0.7598824E-09  0.5000000E-15
  1.000000000000000E-004
  CAR 
 unknown system                          
     23.44278278    -40.96970216  301     10.76223632      1.00000000
    -40.970  0.0000E+00  0.0000E+00  0.0000E+00  0.0000E+00
    -40.755  0.0000E+00  0.0000E+00  0.0000E+00  0.0000E+00
    -40.540  0.0000E+00  0.0000E+00  0.0000E+00  0.0000E+00
    -40.326  0.0000E+00  0.0000E+00  0.0000E+00  0.0000E+00
    -40.111  0.0000E+00  0.0000E+00  0.0000E+00  0.0000E+00
    -39.896  0.0000E+00  0.0000E+00  0.0000E+00  0.0000E+00
    -39.681  0.0000E+00  0.0000E+00  0.0000E+00  0.0000E+00
    -39.467  0.0000E+00  0.0000E+00  0.0000E+00  0.0000E+00
    -39.252  0.0000E+00  0.0000E+00  0.0000E+00  0.0000E+00
    -39.037  0.0000E+00  0.0000E+00  0.0000E+00  0.0000E+00
    -38.823  0.0000E+00  0.0000E+00  0.0000E+00  0.0000E+00
    -38.608  0.2099E-03  0.0000E+00  0.4506E-04  0.0000E+00
    -38.393  0.1555E-01  0.0000E+00  0.3384E-02  0.0000E+00
    -38.178  0.1076E+01  0.0000E+00  0.2343E+00  0.0000E+00
    -37.964  0.1584E+02  0.0000E+00  0.3634E+01  0.0000E+00
    -37.749  0.1044E+02  0.0000E+00  0.5875E+01  0.0000E+00
    -37.534  0.5178E+00  0.0000E+00  0.5998E+01  0.0000E+00
    -37.320  0.0000E+00  0.0000E+00  0.6000E+01  0.0000E+00
    -37.105  0.0000E+00  0.0000E+00  0.6000E+01  0.0000E+00
    -36.890  0.0000E+00  0.1164E-03  0.6000E+01  0.2499E-04
    -36.676  0.0000E+00  0.1133E-01  0.6000E+01  0.2457E-02
    -36.461  0.0000E+00  0.8022E+00  0.6000E+01  0.1747E+00
    -36.246  0.0000E+00  0.1826E+02  0.6000E+01  0.4096E+01
    -36.031  0.0000E+00  0.8690E+01  0.6000E+01  0.5962E+01
    -35.817  0.0000E+00  0.0000E+00  0.6000E+01  0.6000E+01
    -35.602  0.0000E+00  0.0000E+00  0.6000E+01  0.6000E+01
    -35.387  0.0000E+00  0.0000E+00  0.6000E+01  0.6000E+01
    -35.173  0.0000E+00  0.0000E+00  0.6000E+01  0.6000E+01
    -34.958  0.0000E+00  0.0000E+00  0.6000E+01  0.6000E+01
    -34.743  0.0000E+00  0.0000E+00  0.6000E+01  0.6000E+01
    -34.528  0.0000E+00  0.0000E+00  0.6000E+01  0.6000E+01
    -34.314  0.0000E+00  0.0000E+00  0.6000E+01  0.6000E+01
    -34.099  0.0000E+00  0.0000E+00  0.6000E+01  0.6000E+01
    -33.884  0.0000E+00  0.0000E+00  0.6000E+01  0.6000E+01
    -33.670  0.0000E+00  0.0000E+00  0.6000E+01  0.6000E+01
    -33.455  0.0000E+00  0.0000E+00  0.6000E+01  0.6000E+01
    -33.240  0.0000E+00  0.0000E+00  0.6000E+01  0.6000E+01
    -33.025  0.0000E+00  0.0000E+00  0.6000E+01  0.6000E+01
    -32.811  0.0000E+00  0.0000E+00  0.6000E+01  0.6000E+01
    -32.596  0.0000E+00  0.0000E+00  0.6000E+01  0.6000E+01
    -32.381  0.0000E+00  0.0000E+00  0.6000E+01  0.6000E+01
    -32.167  0.0000E+00  0.0000E+00  0.6000E+01  0.6000E+01
    -31.952  0.0000E+00  0.0000E+00  0.6000E+01  0.6000E+01
    -31.737  0.0000E+00  0.0000E+00  0.6000E+01  0.6000E+01
    -31.523  0.0000E+00  0.0000E+00  0.6000E+01  0.6000E+01
    -31.308  0.0000E+00  0.0000E+00  0.6000E+01  0.6000E+01
    -31.093  0.0000E+00  0.0000E+00  0.6000E+01  0.6000E+01
    -30.878  0.0000E+00  0.0000E+00  0.6000E+01  0.6000E+01
    -30.664  0.0000E+00  0.0000E+00  0.6000E+01  0.6000E+01
    -30.449  0.0000E+00  0.0000E+00  0.6000E+01  0.6000E+01
    -30.234  0.0000E+00  0.0000E+00  0.6000E+01  0.6000E+01
    -30.020  0.0000E+00  0.0000E+00  0.6000E+01  0.6000E+01
    -29.805  0.0000E+00  0.0000E+00  0.6000E+01  0.6000E+01
    -29.590  0.0000E+00  0.0000E+00  0.6000E+01  0.6000E+01
    -29.375  0.0000E+00  0.0000E+00  0.6000E+01  0.6000E+01
    -29.161  0.0000E+00  0.0000E+00  0.6000E+01  0.6000E+01
    -28.946  0.0000E+00  0.0000E+00  0.6000E+01  0.6000E+01
    -28.731  0.0000E+00  0.0000E+00  0.6000E+01  0.6000E+01
    -28.517  0.0000E+00  0.0000E+00  0.6000E+01  0.6000E+01
    -28.302  0.0000E+00  0.0000E+00  0.6000E+01  0.6000E+01
    -28.087  0.0000E+00  0.0000E+00  0.6000E+01  0.6000E+01
    -27.872  0.0000E+00  0.0000E+00  0.6000E+01  0.6000E+01
    -27.658  0.0000E+00  0.0000E+00  0.6000E+01  0.6000E+01
    -27.443  0.0000E+00  0.0000E+00  0.6000E+01  0.6000E+01
    -27.228  0.0000E+00  0.0000E+00  0.6000E+01  0.6000E+01
    -27.014  0.0000E+00  0.0000E+00  0.6000E+01  0.6000E+01
    -26.799  0.0000E+00  0.0000E+00  0.6000E+01  0.6000E+01
    -26.584  0.0000E+00  0.0000E+00  0.6000E+01  0.6000E+01
    -26.370  0.0000E+00  0.0000E+00  0.6000E+01  0.6000E+01
    -26.155  0.0000E+00  0.0000E+00  0.6000E+01  0.6000E+01
    -25.940  0.0000E+00  0.0000E+00  0.6000E+01  0.6000E+01
    -25.725  0.0000E+00  0.0000E+00  0.6000E+01  0.6000E+01
    -25.511  0.0000E+00  0.0000E+00  0.6000E+01  0.6000E+01
    -25.296  0.0000E+00  0.0000E+00  0.6000E+01  0.6000E+01
    -25.081  0.0000E+00  0.0000E+00  0.6000E+01  0.6000E+01
    -24.867  0.0000E+00  0.0000E+00  0.6000E+01  0.6000E+01
    -24.652  0.0000E+00  0.0000E+00  0.6000E+01  0.6000E+01
    -24.437  0.0000E+00  0.0000E+00  0.6000E+01  0.6000E+01
    -24.222  0.0000E+00  0.0000E+00  0.6000E+01  0.6000E+01
    -24.008  0.0000E+00  0.0000E+00  0.6000E+01  0.6000E+01
    -23.793  0.0000E+00  0.0000E+00  0.6000E+01  0.6000E+01
    -23.578  0.0000E+00  0.0000E+00  0.6000E+01  0.6000E+01
    -23.364  0.0000E+00  0.0000E+00  0.6000E+01  0.6000E+01
    -23.149  0.0000E+00  0.0000E+00  0.6000E+01  0.6000E+01
    -22.934  0.0000E+00  0.0000E+00  0.6000E+01  0.6000E+01
    -22.719  0.0000E+00  0.0000E+00  0.6000E+01  0.6000E+01
    -22.505  0.0000E+00  0.0000E+00  0.6000E+01  0.6000E+01
    -22.290  0.0000E+00  0.0000E+00  0.6000E+01  0.6000E+01
    -22.075  0.0000E+00  0.0000E+00  0.6000E+01  0.6000E+01
    -21.861  0.0000E+00  0.0000E+00  0.6000E+01  0.6000E+01
    -21.646  0.0000E+00  0.0000E+00  0.6000E+01  0.6000E+01
    -21.431  0.0000E+00  0.0000E+00  0.6000E+01  0.6000E+01
    -21.217  0.0000E+00  0.0000E+00  0.6000E+01  0.6000E+01
    -21.002  0.0000E+00  0.0000E+00  0.6000E+01  0.6000E+01
    -20.787  0.0000E+00  0.0000E+00  0.6000E+01  0.6000E+01
    -20.572  0.0000E+00  0.0000E+00  0.6000E+01  0.6000E+01
    -20.358  0.0000E+00  0.0000E+00  0.6000E+01  0.6000E+01
    -20.143  0.0000E+00  0.0000E+00  0.6000E+01  0.6000E+01
    -19.928  0.0000E+00  0.0000E+00  0.6000E+01  0.6000E+01
    -19.714  0.0000E+00  0.0000E+00  0.6000E+01  0.6000E+01
    -19.499  0.0000E+00  0.0000E+00  0.6000E+01  0.6000E+01
    -19.284  0.0000E+00  0.0000E+00  0.6000E+01  0.6000E+01
    -19.069  0.0000E+00  0.0000E+00  0.6000E+01  0.6000E+01
    -18.855  0.0000E+00  0.0000E+00  0.6000E+01  0.6000E+01
    -18.640  0.0000E+00  0.0000E+00  0.6000E+01  0.6000E+01
    -18.425  0.0000E+00  0.0000E+00  0.6000E+01  0.6000E+01
    -18.211  0.0000E+00  0.0000E+00  0.6000E+01  0.6000E+01
    -17.996  0.0000E+00  0.0000E+00  0.6000E+01  0.6000E+01
    -17.781  0.0000E+00  0.0000E+00  0.6000E+01  0.6000E+01
    -17.566  0.0000E+00  0.0000E+00  0.6000E+01  0.6000E+01
    -17.352  0.0000E+00  0.0000E+00  0.6000E+01  0.6000E+01
    -17.137  0.0000E+00  0.0000E+00  0.6000E+01  0.6000E+01
    -16.922  0.0000E+00  0.0000E+00  0.6000E+01  0.6000E+01
    -16.708  0.0000E+00  0.0000E+00  0.6000E+01  0.6000E+01
    -16.493  0.0000E+00  0.0000E+00  0.6000E+01  0.6000E+01
    -16.278  0.0000E+00  0.0000E+00  0.6000E+01  0.6000E+01
    -16.064  0.0000E+00  0.0000E+00  0.6000E+01  0.6000E+01
    -15.849  0.0000E+00  0.0000E+00  0.6000E+01  0.6000E+01
    -15.634  0.0000E+00  0.0000E+00  0.6000E+01  0.6000E+01
    -15.419  0.0000E+00  0.0000E+00  0.6000E+01  0.6000E+01
    -15.205  0.0000E+00  0.0000E+00  0.6000E+01  0.6000E+01
    -14.990  0.0000E+00  0.0000E+00  0.6000E+01  0.6000E+01
    -14.775  0.0000E+00  0.0000E+00  0.6000E+01  0.6000E+01
    -14.561  0.0000E+00  0.0000E+00  0.6000E+01  0.6000E+01
    -14.346  0.0000E+00  0.0000E+00  0.6000E+01  0.6000E+01
    -14.131  0.0000E+00  0.0000E+00  0.6000E+01  0.6000E+01
    -13.916  0.0000E+00  0.0000E+00  0.6000E+01  0.6000E+01
    -13.702  0.0000E+00  0.0000E+00  0.6000E+01  0.6000E+01
    -13.487  0.0000E+00  0.0000E+00  0.6000E+01  0.6000E+01
    -13.272  0.0000E+00  0.0000E+00  0.6000E+01  0.6000E+01
    -13.058  0.0000E+00  0.0000E+00  0.6000E+01  0.6000E+01
    -12.843  0.0000E+00  0.0000E+00  0.6000E+01  0.6000E+01
    -12.628  0.0000E+00  0.0000E+00  0.6000E+01  0.6000E+01
    -12.414  0.0000E+00  0.0000E+00  0.6000E+01  0.6000E+01
    -12.199  0.0000E+00  0.0000E+00  0.6000E+01  0.6000E+01
    -11.984  0.0000E+00  0.0000E+00  0.6000E+01  0.6000E+01
    -11.769  0.0000E+00  0.0000E+00  0.6000E+01  0.6000E+01
    -11.555  0.0000E+00  0.0000E+00  0.6000E+01  0.6000E+01
    -11.340  0.0000E+00  0.0000E+00  0.6000E+01  0.6000E+01
    -11.125  0.0000E+00  0.0000E+00  0.6000E+01  0.6000E+01
    -10.911  0.0000E+00  0.0000E+00  0.6000E+01  0.6000E+01
    -10.696  0.0000E+00  0.0000E+00  0.6000E+01  0.6000E+01
    -10.481  0.0000E+00  0.0000E+00  0.6000E+01  0.6000E+01
    -10.266  0.0000E+00  0.0000E+00  0.6000E+01  0.6000E+01
    -10.052  0.0000E+00  0.0000E+00  0.6000E+01  0.6000E+01
     -9.837  0.0000E+00  0.0000E+00  0.6000E+01  0.6000E+01
     -9.622  0.0000E+00  0.0000E+00  0.6000E+01  0.6000E+01
     -9.408  0.0000E+00  0.0000E+00  0.6000E+01  0.6000E+01
     -9.193  0.0000E+00  0.0000E+00  0.6000E+01  0.6000E+01
     -8.978  0.0000E+00  0.0000E+00  0.6000E+01  0.6000E+01
     -8.763  0.0000E+00  0.0000E+00  0.6000E+01  0.6000E+01
     -8.549  0.0000E+00  0.0000E+00  0.6000E+01  0.6000E+01
     -8.334  0.0000E+00  0.0000E+00  0.6000E+01  0.6000E+01
     -8.119  0.0000E+00  0.0000E+00  0.6000E+01  0.6000E+01
     -7.905  0.0000E+00  0.0000E+00  0.6000E+01  0.6000E+01
     -7.690  0.0000E+00  0.0000E+00  0.6000E+01  0.6000E+01
     -7.475  0.0000E+00  0.0000E+00  0.6000E+01  0.6000E+01
     -7.261  0.0000E+00  0.0000E+00  0.6000E+01  0.6000E+01
     -7.046  0.0000E+00  0.0000E+00  0.6000E+01  0.6000E+01
     -6.831  0.0000E+00  0.0000E+00  0.6000E+01  0.6000E+01
     -6.616  0.0000E+00  0.0000E+00  0.6000E+01  0.6000E+01
     -6.402  0.0000E+00  0.0000E+00  0.6000E+01  0.6000E+01
     -6.187  0.0000E+00  0.0000E+00  0.6000E+01  0.6000E+01
     -5.972  0.0000E+00  0.0000E+00  0.6000E+01  0.6000E+01
     -5.758  0.0000E+00  0.0000E+00  0.6000E+01  0.6000E+01
     -5.543  0.0000E+00  0.0000E+00  0.6000E+01  0.6000E+01
     -5.328  0.0000E+00  0.0000E+00  0.6000E+01  0.6000E+01
     -5.113  0.0000E+00  0.0000E+00  0.6000E+01  0.6000E+01
     -4.899  0.0000E+00  0.0000E+00  0.6000E+01  0.6000E+01
     -4.684  0.0000E+00  0.0000E+00  0.6000E+01  0.6000E+01
     -4.469  0.0000E+00  0.0000E+00  0.6000E+01  0.6000E+01
     -4.255  0.0000E+00  0.0000E+00  0.6000E+01  0.6000E+01
     -4.040  0.0000E+00  0.0000E+00  0.6000E+01  0.6000E+01
     -3.825  0.0000E+00  0.0000E+00  0.6000E+01  0.6000E+01
     -3.610  0.0000E+00  0.0000E+00  0.6000E+01  0.6000E+01
     -3.396  0.0000E+00  0.0000E+00  0.6000E+01  0.6000E+01
     -3.181  0.0000E+00  0.0000E+00  0.6000E+01  0.6000E+01
     -2.966  0.0000E+00  0.0000E+00  0.6000E+01  0.6000E+01
     -2.752  0.0000E+00  0.0000E+00  0.6000E+01  0.6000E+01
     -2.537  0.0000E+00  0.0000E+00  0.6000E+01  0.6000E+01
     -2.322  0.0000E+00  0.0000E+00  0.6000E+01  0.6000E+01
     -2.108  0.2398E-07  0.0000E+00  0.6000E+01  0.6000E+01
     -1.893  0.6871E-05  0.3073E-05  0.6000E+01  0.6000E+01
     -1.678  0.5028E-03  0.2274E-03  0.6000E+01  0.6000E+01
     -1.463  0.2233E-01  0.1246E-01  0.6005E+01  0.6003E+01
     -1.249  0.1209E+00  0.1017E+00  0.6031E+01  0.6025E+01
     -1.034  0.2063E+00  0.1984E+00  0.6075E+01  0.6067E+01
     -0.819  0.2639E+00  0.2508E+00  0.6132E+01  0.6121E+01
     -0.605  0.3210E+00  0.3134E+00  0.6201E+01  0.6189E+01
     -0.390  0.3365E+00  0.3229E+00  0.6274E+01  0.6258E+01
     -0.175  0.4091E+00  0.4061E+00  0.6362E+01  0.6346E+01
      0.040  0.4181E+00  0.4277E+00  0.6453E+01  0.6438E+01
      0.254  0.4602E+00  0.4472E+00  0.6552E+01  0.6534E+01
      0.469  0.5539E+00  0.5501E+00  0.6671E+01  0.6653E+01
      0.684  0.5357E+00  0.5444E+00  0.6787E+01  0.6771E+01
      0.898  0.5522E+00  0.5312E+00  0.6906E+01  0.6886E+01
      1.113  0.6443E+00  0.6511E+00  0.7045E+01  0.7026E+01
      1.328  0.6016E+00  0.5993E+00  0.7175E+01  0.7155E+01
      1.543  0.6398E+00  0.6307E+00  0.7313E+01  0.7292E+01
      1.757  0.6333E+00  0.6143E+00  0.7451E+01  0.7424E+01
      1.972  0.8049E+00  0.7919E+00  0.7624E+01  0.7595E+01
      2.187  0.6401E+00  0.5948E+00  0.7762E+01  0.7723E+01
      2.401  0.7376E+00  0.7266E+00  0.7921E+01  0.7880E+01
      2.616  0.8263E+00  0.8007E+00  0.8100E+01  0.8053E+01
      2.831  0.9087E+00  0.8884E+00  0.8296E+01  0.8244E+01
      3.045  0.8859E+00  0.8348E+00  0.8487E+01  0.8424E+01
      3.260  0.8376E+00  0.8622E+00  0.8668E+01  0.8610E+01
      3.475  0.8304E+00  0.8169E+00  0.8848E+01  0.8787E+01
      3.690  0.7170E+00  0.7007E+00  0.9003E+01  0.8938E+01
      3.904  0.8946E+00  0.8134E+00  0.9196E+01  0.9114E+01
      4.119  0.8361E+00  0.8494E+00  0.9377E+01  0.9298E+01
      4.334  0.1054E+01  0.9272E+00  0.9605E+01  0.9497E+01
      4.548  0.1049E+01  0.9966E+00  0.9831E+01  0.9712E+01
      4.763  0.1057E+01  0.1031E+01  0.1006E+02  0.9935E+01
      4.978  0.1174E+01  0.1003E+01  0.1031E+02  0.1015E+02
      5.193  0.1174E+01  0.1100E+01  0.1057E+02  0.1039E+02
      5.407  0.1228E+01  0.1154E+01  0.1083E+02  0.1064E+02
      5.622  0.1249E+01  0.1095E+01  0.1110E+02  0.1087E+02
      5.837  0.1400E+01  0.1097E+01  0.1140E+02  0.1111E+02
      6.051  0.1441E+01  0.1336E+01  0.1171E+02  0.1140E+02
      6.266  0.1419E+01  0.1352E+01  0.1202E+02  0.1169E+02
      6.481  0.1410E+01  0.1233E+01  0.1232E+02  0.1196E+02
      6.696  0.1536E+01  0.1393E+01  0.1266E+02  0.1226E+02
      6.910  0.1337E+01  0.1190E+01  0.1294E+02  0.1252E+02
      7.125  0.1681E+01  0.1124E+01  0.1331E+02  0.1276E+02
      7.340  0.2350E+01  0.1429E+01  0.1381E+02  0.1307E+02
      7.554  0.2911E+01  0.1524E+01  0.1444E+02  0.1340E+02
      7.769  0.3403E+01  0.2097E+01  0.1517E+02  0.1385E+02
      7.984  0.3899E+01  0.2117E+01  0.1602E+02  0.1430E+02
      8.198  0.3359E+01  0.2108E+01  0.1674E+02  0.1476E+02
      8.413  0.3990E+01  0.2692E+01  0.1760E+02  0.1534E+02
      8.628  0.5080E+01  0.3210E+01  0.1870E+02  0.1603E+02
      8.843  0.4086E+01  0.2429E+01  0.1958E+02  0.1656E+02
      9.057  0.1974E+01  0.2957E+01  0.2001E+02  0.1719E+02
      9.272  0.2129E+01  0.3052E+01  0.2047E+02  0.1785E+02
      9.487  0.4381E+01  0.3539E+01  0.2141E+02  0.1862E+02
      9.701  0.2461E+01  0.3200E+01  0.2195E+02  0.1931E+02
      9.916  0.2193E+01  0.2339E+01  0.2243E+02  0.1981E+02
     10.131  0.1585E+01  0.9554E+00  0.2277E+02  0.2002E+02
     10.346  0.1441E+01  0.2835E+00  0.2308E+02  0.2008E+02
     10.560  0.1326E+01  0.4373E+00  0.2337E+02  0.2018E+02
     10.775  0.1319E+01  0.9570E+00  0.2365E+02  0.2038E+02
     10.990  0.1222E+01  0.2134E+01  0.2392E+02  0.2084E+02
     11.204  0.1195E+01  0.5074E+01  0.2417E+02  0.2193E+02
     11.419  0.1959E+01  0.6046E+01  0.2460E+02  0.2324E+02
     11.634  0.2963E+01  0.2817E+01  0.2523E+02  0.2385E+02
     11.849  0.2153E+01  0.1634E+01  0.2570E+02  0.2420E+02
     12.063  0.1779E+01  0.1877E+01  0.2608E+02  0.2461E+02
     12.278  0.1391E+01  0.2580E+01  0.2639E+02  0.2517E+02
     12.493  0.1453E+01  0.2751E+01  0.2670E+02  0.2576E+02
     12.707  0.1559E+01  0.1613E+01  0.2704E+02  0.2611E+02
     12.922  0.1728E+01  0.1647E+01  0.2741E+02  0.2647E+02
     13.137  0.1827E+01  0.1662E+01  0.2780E+02  0.2683E+02
     13.351  0.1753E+01  0.1840E+01  0.2818E+02  0.2722E+02
     13.566  0.1621E+01  0.1939E+01  0.2853E+02  0.2764E+02
     13.781  0.1609E+01  0.2158E+01  0.2888E+02  0.2811E+02
     13.996  0.1234E+01  0.1912E+01  0.2915E+02  0.2852E+02
     14.210  0.1703E+01  0.1737E+01  0.2951E+02  0.2889E+02
     14.425  0.1562E+01  0.1673E+01  0.2985E+02  0.2925E+02
     14.640  0.1862E+01  0.1761E+01  0.3025E+02  0.2963E+02
     14.854  0.1670E+01  0.1886E+01  0.3061E+02  0.3004E+02
     15.069  0.1430E+01  0.1904E+01  0.3092E+02  0.3045E+02
     15.284  0.1281E+01  0.1461E+01  0.3120E+02  0.3077E+02
     15.499  0.1397E+01  0.1264E+01  0.3150E+02  0.3104E+02
     15.713  0.1559E+01  0.1556E+01  0.3184E+02  0.3138E+02
     15.928  0.1624E+01  0.1691E+01  0.3219E+02  0.3174E+02
     16.143  0.1616E+01  0.1386E+01  0.3254E+02  0.3204E+02
     16.357  0.1704E+01  0.1801E+01  0.3291E+02  0.3243E+02
     16.572  0.1795E+01  0.1888E+01  0.3329E+02  0.3284E+02
     16.787  0.1910E+01  0.2002E+01  0.3370E+02  0.3327E+02
     17.002  0.1682E+01  0.1978E+01  0.3407E+02  0.3370E+02
     17.216  0.1875E+01  0.1893E+01  0.3447E+02  0.3411E+02
     17.431  0.1556E+01  0.1748E+01  0.3481E+02  0.3448E+02
     17.646  0.1474E+01  0.1777E+01  0.3513E+02  0.3487E+02
     17.860  0.9546E+00  0.1414E+01  0.3533E+02  0.3518E+02
     18.075  0.6788E+00  0.8128E+00  0.3548E+02  0.3535E+02
     18.290  0.4862E+00  0.7176E+00  0.3559E+02  0.3551E+02
     18.504  0.3404E+00  0.5531E+00  0.3566E+02  0.3563E+02
     18.719  0.3792E+00  0.3388E+00  0.3574E+02  0.3570E+02
     18.934  0.1409E+00  0.2335E+00  0.3577E+02  0.3575E+02
     19.149  0.2490E+00  0.1957E+00  0.3583E+02  0.3579E+02
     19.363  0.2972E+00  0.2965E+00  0.3589E+02  0.3586E+02
     19.578  0.1591E+00  0.2648E+00  0.3592E+02  0.3591E+02
     19.793  0.1864E+00  0.1725E+00  0.3597E+02  0.3595E+02
     20.007  0.1105E+00  0.1678E+00  0.3599E+02  0.3599E+02
     20.222  0.1898E-01  0.2285E-01  0.3599E+02  0.3599E+02
     20.437  0.2240E-01  0.5372E-02  0.3600E+02  0.3599E+02
     20.652  0.7709E-02  0.2411E-01  0.3600E+02  0.3600E+02
     20.866  0.0000E+00  0.1896E-02  0.3600E+02  0.3600E+02
     21.081  0.0000E+00  0.0000E+00  0.3600E+02  0.3600E+02
     21.296  0.0000E+00  0.0000E+00  0.3600E+02  0.3600E+02
     21.510  0.0000E+00  0.0000E+00  0.3600E+02  0.3600E+02
     21.725  0.0000E+00  0.0000E+00  0.3600E+02  0.3600E+02
     21.940  0.0000E+00  0.0000E+00  0.3600E+02  0.3600E+02
     22.155  0.0000E+00  0.0000E+00  0.3600E+02  0.3600E+02
     22.369  0.0000E+00  0.0000E+00  0.3600E+02  0.3600E+02
     22.584  0.0000E+00  0.0000E+00  0.3600E+02  0.3600E+02
     22.799  0.0000E+00  0.0000E+00  0.3600E+02  0.3600E+02
     23.013  0.0000E+00  0.0000E+00  0.3600E+02  0.3600E+02
     23.228  0.0000E+00  0.0000E+00  0.3600E+02  0.3600E+02
     23.443  0.0000E+00  0.0000E+00  0.3600E+02  0.3600E+02
     23.44278278    -40.96970216  301     10.76223632      1.00000000
    -40.970  0.0000E+00  0.0000E+00  0.0000E+00  0.0000E+00  0.0000E+00  0.0000E+00  0.0000E+00  0.0000E+00  0.0000E+00  0.0000E+00  0.0000E+00  0.0000E+00  0.0000E+00  0.0000E+00  0.0000E+00  0.0000E+00  0.0000E+00  0.0000E+00
    -40.755  0.0000E+00  0.0000E+00  0.0000E+00  0.0000E+00  0.0000E+00  0.0000E+00  0.0000E+00  0.0000E+00  0.0000E+00  0.0000E+00  0.0000E+00  0.0000E+00  0.0000E+00  0.0000E+00  0.0000E+00  0.0000E+00  0.0000E+00  0.0000E+00
    -40.540  0.0000E+00  0.0000E+00  0.0000E+00  0.0000E+00  0.0000E+00  0.0000E+00  0.0000E+00  0.0000E+00  0.0000E+00  0.0000E+00  0.0000E+00  0.0000E+00  0.0000E+00  0.0000E+00  0.0000E+00  0.0000E+00  0.0000E+00  0.0000E+00
    -40.326  0.0000E+00  0.0000E+00  0.0000E+00  0.0000E+00  0.0000E+00  0.0000E+00  0.0000E+00  0.0000E+00  0.0000E+00  0.0000E+00  0.0000E+00  0.0000E+00  0.0000E+00  0.0000E+00  0.0000E+00  0.0000E+00  0.0000E+00  0.0000E+00
    -40.111  0.0000E+00  0.0000E+00  0.0000E+00  0.0000E+00  0.0000E+00  0.0000E+00  0.0000E+00  0.0000E+00  0.0000E+00  0.0000E+00  0.0000E+00  0.0000E+00  0.0000E+00  0.0000E+00  0.0000E+00  0.0000E+00  0.0000E+00  0.0000E+00
    -39.896  0.0000E+00  0.0000E+00  0.0000E+00  0.0000E+00  0.0000E+00  0.0000E+00  0.0000E+00  0.0000E+00  0.0000E+00  0.0000E+00  0.0000E+00  0.0000E+00  0.0000E+00  0.0000E+00  0.0000E+00  0.0000E+00  0.0000E+00  0.0000E+00
    -39.681  0.0000E+00  0.0000E+00  0.0000E+00  0.0000E+00  0.0000E+00  0.0000E+00  0.0000E+00  0.0000E+00  0.0000E+00  0.0000E+00  0.0000E+00  0.0000E+00  0.0000E+00  0.0000E+00  0.0000E+00  0.0000E+00  0.0000E+00  0.0000E+00
    -39.467  0.0000E+00  0.0000E+00  0.0000E+00  0.0000E+00  0.0000E+00  0.0000E+00  0.0000E+00  0.0000E+00  0.0000E+00  0.0000E+00  0.0000E+00  0.0000E+00  0.0000E+00  0.0000E+00  0.0000E+00  0.0000E+00  0.0000E+00  0.0000E+00
    -39.252  0.0000E+00  0.0000E+00  0.0000E+00  0.0000E+00  0.0000E+00  0.0000E+00  0.0000E+00  0.0000E+00  0.0000E+00  0.0000E+00  0.0000E+00  0.0000E+00  0.0000E+00  0.0000E+00  0.0000E+00  0.0000E+00  0.0000E+00  0.0000E+00
    -39.037  0.0000E+00  0.0000E+00  0.0000E+00  0.0000E+00  0.0000E+00  0.0000E+00  0.0000E+00  0.0000E+00  0.0000E+00  0.0000E+00  0.0000E+00  0.0000E+00  0.0000E+00  0.0000E+00  0.0000E+00  0.0000E+00  0.0000E+00  0.0000E+00
    -38.823  0.0000E+00  0.0000E+00  0.0000E+00  0.0000E+00  0.0000E+00  0.0000E+00  0.0000E+00  0.0000E+00  0.0000E+00  0.0000E+00  0.0000E+00  0.0000E+00  0.0000E+00  0.0000E+00  0.0000E+00  0.0000E+00  0.0000E+00  0.0000E+00
    -38.608  0.1860E-11  0.0000E+00  0.5215E-04  0.0000E+00  0.2765E-10  0.0000E+00  0.5215E-04  0.0000E+00  0.6655E-13  0.0000E+00  0.3402E-14  0.0000E+00  0.7113E-12  0.0000E+00  0.3402E-14  0.0000E+00  0.2100E-11  0.0000E+00
    -38.393  0.1344E-09  0.0000E+00  0.3766E-02  0.0000E+00  0.1968E-03  0.0000E+00  0.3766E-02  0.0000E+00  0.4807E-11  0.0000E+00  0.3695E-12  0.0000E+00  0.5137E-10  0.0000E+00  0.3695E-12  0.0000E+00  0.1517E-09  0.0000E+00
    -38.178  0.9283E-08  0.0000E+00  0.2602E+00  0.0000E+00  0.1418E-01  0.0000E+00  0.2602E+00  0.0000E+00  0.3318E-09  0.0000E+00  0.2591E-10  0.0000E+00  0.3549E-08  0.0000E+00  0.2591E-10  0.0000E+00  0.1048E-07  0.0000E+00
    -37.964  0.1254E-06  0.0000E+00  0.3511E+01  0.0000E+00  0.8460E+00  0.0000E+00  0.3511E+01  0.0000E+00  0.4421E-08  0.0000E+00  0.7646E-09  0.0000E+00  0.4789E-07  0.0000E+00  0.7646E-09  0.0000E+00  0.1417E-06  0.0000E+00
    -37.749  0.3050E-07  0.0000E+00  0.8393E+00  0.0000E+00  0.3507E+01  0.0000E+00  0.8393E+00  0.0000E+00  0.1061E-08  0.0000E+00  0.2259E-08  0.0000E+00  0.1151E-07  0.0000E+00  0.2259E-08  0.0000E+00  0.3390E-07  0.0000E+00
    -37.534  0.4448E-10  0.0000E+00  0.6766E-07  0.0000E+00  0.2573E+00  0.0000E+00  0.6766E-07  0.0000E+00  0.1636E-11  0.0000E+00  0.1614E-09  0.0000E+00  0.6215E-11  0.0000E+00  0.1614E-09  0.0000E+00  0.6692E-12  0.0000E+00
    -37.320  0.0000E+00  0.0000E+00  0.0000E+00  0.0000E+00  0.0000E+00  0.0000E+00  0.0000E+00  0.0000E+00  0.0000E+00  0.0000E+00  0.0000E+00  0.0000E+00  0.0000E+00  0.0000E+00  0.0000E+00  0.0000E+00  0.0000E+00  0.0000E+00
    -37.105  0.0000E+00  0.0000E+00  0.0000E+00  0.0000E+00  0.0000E+00  0.0000E+00  0.0000E+00  0.0000E+00  0.0000E+00  0.0000E+00  0.0000E+00  0.0000E+00  0.0000E+00  0.0000E+00  0.0000E+00  0.0000E+00  0.0000E+00  0.0000E+00
    -36.890  0.0000E+00  0.1368E-11  0.0000E+00  0.2892E-04  0.0000E+00  0.1227E-08  0.0000E+00  0.2892E-04  0.0000E+00  0.5370E-13  0.0000E+00  0.3528E-14  0.0000E+00  0.5115E-12  0.0000E+00  0.3528E-14  0.0000E+00  0.1504E-11
    -36.676  0.0000E+00  0.9902E-10  0.0000E+00  0.2089E-02  0.0000E+00  0.1450E-02  0.0000E+00  0.2089E-02  0.0000E+00  0.3934E-11  0.0000E+00  0.1478E-11  0.0000E+00  0.3712E-10  0.0000E+00  0.1478E-11  0.0000E+00  0.1087E-09
    -36.461  0.0000E+00  0.7019E-08  0.0000E+00  0.1481E+00  0.0000E+00  0.1025E+00  0.0000E+00  0.1481E+00  0.0000E+00  0.2787E-09  0.0000E+00  0.1045E-09  0.0000E+00  0.2631E-08  0.0000E+00  0.1045E-09  0.0000E+00  0.7705E-08
    -36.246  0.0000E+00  0.1488E-06  0.0000E+00  0.3138E+01  0.0000E+00  0.2799E+01  0.0000E+00  0.3138E+01  0.0000E+00  0.5884E-08  0.0000E+00  0.2750E-08  0.0000E+00  0.5582E-07  0.0000E+00  0.2750E-08  0.0000E+00  0.1636E-06
    -36.031  0.0000E+00  0.6232E-07  0.0000E+00  0.1315E+01  0.0000E+00  0.1689E+01  0.0000E+00  0.1315E+01  0.0000E+00  0.2460E-08  0.0000E+00  0.1589E-08  0.0000E+00  0.2342E-07  0.0000E+00  0.1589E-08  0.0000E+00  0.6868E-07
    -35.817  0.0000E+00  0.0000E+00  0.0000E+00  0.0000E+00  0.0000E+00  0.0000E+00  0.0000E+00  0.0000E+00  0.0000E+00  0.0000E+00  0.0000E+00  0.0000E+00  0.0000E+00  0.0000E+00  0.0000E+00  0.0000E+00  0.0000E+00  0.0000E+00
    -35.602  0.0000E+00  0.0000E+00  0.0000E+00  0.0000E+00  0.0000E+00  0.0000E+00  0.0000E+00  0.0000E+00  0.0000E+00  0.0000E+00  0.0000E+00  0.0000E+00  0.0000E+00  0.0000E+00  0.0000E+00  0.0000E+00  0.0000E+00  0.0000E+00
    -35.387  0.0000E+00  0.0000E+00  0.0000E+00  0.0000E+00  0.0000E+00  0.0000E+00  0.0000E+00  0.0000E+00  0.0000E+00  0.0000E+00  0.0000E+00  0.0000E+00  0.0000E+00  0.0000E+00  0.0000E+00  0.0000E+00  0.0000E+00  0.0000E+00
    -35.173  0.0000E+00  0.0000E+00  0.0000E+00  0.0000E+00  0.0000E+00  0.0000E+00  0.0000E+00  0.0000E+00  0.0000E+00  0.0000E+00  0.0000E+00  0.0000E+00  0.0000E+00  0.0000E+00  0.0000E+00  0.0000E+00  0.0000E+00  0.0000E+00
    -34.958  0.0000E+00  0.0000E+00  0.0000E+00  0.0000E+00  0.0000E+00  0.0000E+00  0.0000E+00  0.0000E+00  0.0000E+00  0.0000E+00  0.0000E+00  0.0000E+00  0.0000E+00  0.0000E+00  0.0000E+00  0.0000E+00  0.0000E+00  0.0000E+00
    -34.743  0.0000E+00  0.0000E+00  0.0000E+00  0.0000E+00  0.0000E+00  0.0000E+00  0.0000E+00  0.0000E+00  0.0000E+00  0.0000E+00  0.0000E+00  0.0000E+00  0.0000E+00  0.0000E+00  0.0000E+00  0.0000E+00  0.0000E+00  0.0000E+00
    -34.528  0.0000E+00  0.0000E+00  0.0000E+00  0.0000E+00  0.0000E+00  0.0000E+00  0.0000E+00  0.0000E+00  0.0000E+00  0.0000E+00  0.0000E+00  0.0000E+00  0.0000E+00  0.0000E+00  0.0000E+00  0.0000E+00  0.0000E+00  0.0000E+00
    -34.314  0.0000E+00  0.0000E+00  0.0000E+00  0.0000E+00  0.0000E+00  0.0000E+00  0.0000E+00  0.0000E+00  0.0000E+00  0.0000E+00  0.0000E+00  0.0000E+00  0.0000E+00  0.0000E+00  0.0000E+00  0.0000E+00  0.0000E+00  0.0000E+00
    -34.099  0.0000E+00  0.0000E+00  0.0000E+00  0.0000E+00  0.0000E+00  0.0000E+00  0.0000E+00  0.0000E+00  0.0000E+00  0.0000E+00  0.0000E+00  0.0000E+00  0.0000E+00  0.0000E+00  0.0000E+00  0.0000E+00  0.0000E+00  0.0000E+00
    -33.884  0.0000E+00  0.0000E+00  0.0000E+00  0.0000E+00  0.0000E+00  0.0000E+00  0.0000E+00  0.0000E+00  0.0000E+00  0.0000E+00  0.0000E+00  0.0000E+00  0.0000E+00  0.0000E+00  0.0000E+00  0.0000E+00  0.0000E+00  0.0000E+00
    -33.670  0.0000E+00  0.0000E+00  0.0000E+00  0.0000E+00  0.0000E+00  0.0000E+00  0.0000E+00  0.0000E+00  0.0000E+00  0.0000E+00  0.0000E+00  0.0000E+00  0.0000E+00  0.0000E+00  0.0000E+00  0.0000E+00  0.0000E+00  0.0000E+00
    -33.455  0.0000E+00  0.0000E+00  0.0000E+00  0.0000E+00  0.0000E+00  0.0000E+00  0.0000E+00  0.0000E+00  0.0000E+00  0.0000E+00  0.0000E+00  0.0000E+00  0.0000E+00  0.0000E+00  0.0000E+00  0.0000E+00  0.0000E+00  0.0000E+00
    -33.240  0.0000E+00  0.0000E+00  0.0000E+00  0.0000E+00  0.0000E+00  0.0000E+00  0.0000E+00  0.0000E+00  0.0000E+00  0.0000E+00  0.0000E+00  0.0000E+00  0.0000E+00  0.0000E+00  0.0000E+00  0.0000E+00  0.0000E+00  0.0000E+00
    -33.025  0.0000E+00  0.0000E+00  0.0000E+00  0.0000E+00  0.0000E+00  0.0000E+00  0.0000E+00  0.0000E+00  0.0000E+00  0.0000E+00  0.0000E+00  0.0000E+00  0.0000E+00  0.0000E+00  0.0000E+00  0.0000E+00  0.0000E+00  0.0000E+00
    -32.811  0.0000E+00  0.0000E+00  0.0000E+00  0.0000E+00  0.0000E+00  0.0000E+00  0.0000E+00  0.0000E+00  0.0000E+00  0.0000E+00  0.0000E+00  0.0000E+00  0.0000E+00  0.0000E+00  0.0000E+00  0.0000E+00  0.0000E+00  0.0000E+00
    -32.596  0.0000E+00  0.0000E+00  0.0000E+00  0.0000E+00  0.0000E+00  0.0000E+00  0.0000E+00  0.0000E+00  0.0000E+00  0.0000E+00  0.0000E+00  0.0000E+00  0.0000E+00  0.0000E+00  0.0000E+00  0.0000E+00  0.0000E+00  0.0000E+00
    -32.381  0.0000E+00  0.0000E+00  0.0000E+00  0.0000E+00  0.0000E+00  0.0000E+00  0.0000E+00  0.0000E+00  0.0000E+00  0.0000E+00  0.0000E+00  0.0000E+00  0.0000E+00  0.0000E+00  0.0000E+00  0.0000E+00  0.0000E+00  0.0000E+00
    -32.167  0.0000E+00  0.0000E+00  0.0000E+00  0.0000E+00  0.0000E+00  0.0000E+00  0.0000E+00  0.0000E+00  0.0000E+00  0.0000E+00  0.0000E+00  0.0000E+00  0.0000E+00  0.0000E+00  0.0000E+00  0.0000E+00  0.0000E+00  0.0000E+00
    -31.952  0.0000E+00  0.0000E+00  0.0000E+00  0.0000E+00  0.0000E+00  0.0000E+00  0.0000E+00  0.0000E+00  0.0000E+00  0.0000E+00  0.0000E+00  0.0000E+00  0.0000E+00  0.0000E+00  0.0000E+00  0.0000E+00  0.0000E+00  0.0000E+00
    -31.737  0.0000E+00  0.0000E+00  0.0000E+00  0.0000E+00  0.0000E+00  0.0000E+00  0.0000E+00  0.0000E+00  0.0000E+00  0.0000E+00  0.0000E+00  0.0000E+00  0.0000E+00  0.0000E+00  0.0000E+00  0.0000E+00  0.0000E+00  0.0000E+00
    -31.523  0.0000E+00  0.0000E+00  0.0000E+00  0.0000E+00  0.0000E+00  0.0000E+00  0.0000E+00  0.0000E+00  0.0000E+00  0.0000E+00  0.0000E+00  0.0000E+00  0.0000E+00  0.0000E+00  0.0000E+00  0.0000E+00  0.0000E+00  0.0000E+00
    -31.308  0.0000E+00  0.0000E+00  0.0000E+00  0.0000E+00  0.0000E+00  0.0000E+00  0.0000E+00  0.0000E+00  0.0000E+00  0.0000E+00  0.0000E+00  0.0000E+00  0.0000E+00  0.0000E+00  0.0000E+00  0.0000E+00  0.0000E+00  0.0000E+00
    -31.093  0.0000E+00  0.0000E+00  0.0000E+00  0.0000E+00  0.0000E+00  0.0000E+00  0.0000E+00  0.0000E+00  0.0000E+00  0.0000E+00  0.0000E+00  0.0000E+00  0.0000E+00  0.0000E+00  0.0000E+00  0.0000E+00  0.0000E+00  0.0000E+00
    -30.878  0.0000E+00  0.0000E+00  0.0000E+00  0.0000E+00  0.0000E+00  0.0000E+00  0.0000E+00  0.0000E+00  0.0000E+00  0.0000E+00  0.0000E+00  0.0000E+00  0.0000E+00  0.0000E+00  0.0000E+00  0.0000E+00  0.0000E+00  0.0000E+00
    -30.664  0.0000E+00  0.0000E+00  0.0000E+00  0.0000E+00  0.0000E+00  0.0000E+00  0.0000E+00  0.0000E+00  0.0000E+00  0.0000E+00  0.0000E+00  0.0000E+00  0.0000E+00  0.0000E+00  0.0000E+00  0.0000E+00  0.0000E+00  0.0000E+00
    -30.449  0.0000E+00  0.0000E+00  0.0000E+00  0.0000E+00  0.0000E+00  0.0000E+00  0.0000E+00  0.0000E+00  0.0000E+00  0.0000E+00  0.0000E+00  0.0000E+00  0.0000E+00  0.0000E+00  0.0000E+00  0.0000E+00  0.0000E+00  0.0000E+00
    -30.234  0.0000E+00  0.0000E+00  0.0000E+00  0.0000E+00  0.0000E+00  0.0000E+00  0.0000E+00  0.0000E+00  0.0000E+00  0.0000E+00  0.0000E+00  0.0000E+00  0.0000E+00  0.0000E+00  0.0000E+00  0.0000E+00  0.0000E+00  0.0000E+00