   4   4   1   0
  0.1529674E+02  0.3939638E-09  0.3940953E-09  0.3940953E-09  0.5000000E-15
  1.000000000000000E-004
  CAR 
 unknown system                          
     18.82745148    -40.76646175  301     10.46122587      1.00000000
    -40.766  0.0000E+00  0.0000E+00  0.0000E+00  0.0000E+00
    -40.568  0.0000E+00  0.0000E+00  0.0000E+00  0.0000E+00
    -40.369  0.0000E+00  0.0000E+00  0.0000E+00  0.0000E+00
    -40.171  0.0000E+00  0.0000E+00  0.0000E+00  0.0000E+00
    -39.972  0.0000E+00  0.0000E+00  0.0000E+00  0.0000E+00
    -39.773  0.0000E+00  0.0000E+00  0.0000E+00  0.0000E+00
    -39.575  0.0000E+00  0.0000E+00  0.0000E+00  0.0000E+00
    -39.376  0.0000E+00  0.0000E+00  0.0000E+00  0.0000E+00
    -39.177  0.0000E+00  0.0000E+00  0.0000E+00  0.0000E+00
    -38.979  0.0000E+00  0.0000E+00  0.0000E+00  0.0000E+00
    -38.780  0.0000E+00  0.0000E+00  0.0000E+00  0.0000E+00
    -38.581  0.1251E-03  0.1244E-03  0.2484E-04  0.2472E-04
    -38.383  0.6512E-02  0.6479E-02  0.1319E-02  0.1312E-02
    -38.184  0.3233E+00  0.3218E+00  0.6555E-01  0.6523E-01
    -37.985  0.3638E+01  0.3635E+01  0.7882E+00  0.7873E+00
    -37.787  0.1041E+01  0.1045E+01  0.9950E+00  0.9949E+00
    -37.588  0.0000E+00  0.0000E+00  0.1000E+01  0.1000E+01
    -37.389  0.0000E+00  0.0000E+00  0.1000E+01  0.1000E+01
    -37.191  0.0000E+00  0.0000E+00  0.1000E+01  0.1000E+01
    -36.992  0.0000E+00  0.0000E+00  0.1000E+01  0.1000E+01
    -36.794  0.0000E+00  0.0000E+00  0.1000E+01  0.1000E+01
    -36.595  0.0000E+00  0.0000E+00  0.1000E+01  0.1000E+01
    -36.396  0.0000E+00  0.0000E+00  0.1000E+01  0.1000E+01
    -36.198  0.0000E+00  0.0000E+00  0.1000E+01  0.1000E+01
    -35.999  0.0000E+00  0.0000E+00  0.1000E+01  0.1000E+01
    -35.800  0.0000E+00  0.0000E+00  0.1000E+01  0.1000E+01
    -35.602  0.0000E+00  0.0000E+00  0.1000E+01  0.1000E+01
    -35.403  0.0000E+00  0.0000E+00  0.1000E+01  0.1000E+01
    -35.204  0.0000E+00  0.0000E+00  0.1000E+01  0.1000E+01
    -35.006  0.0000E+00  0.0000E+00  0.1000E+01  0.1000E+01
    -34.807  0.0000E+00  0.0000E+00  0.1000E+01  0.1000E+01
    -34.608  0.0000E+00  0.0000E+00  0.1000E+01  0.1000E+01
    -34.410  0.0000E+00  0.0000E+00  0.1000E+01  0.1000E+01
    -34.211  0.0000E+00  0.0000E+00  0.1000E+01  0.1000E+01
    -34.012  0.0000E+00  0.0000E+00  0.1000E+01  0.1000E+01
    -33.814  0.0000E+00  0.0000E+00  0.1000E+01  0.1000E+01
    -33.615  0.0000E+00  0.0000E+00  0.1000E+01  0.1000E+01
    -33.417  0.0000E+00  0.0000E+00  0.1000E+01  0.1000E+01
    -33.218  0.0000E+00  0.0000E+00  0.1000E+01  0.1000E+01
    -33.019  0.0000E+00  0.0000E+00  0.1000E+01  0.1000E+01
    -32.821  0.0000E+00  0.0000E+00  0.1000E+01  0.1000E+01
    -32.622  0.0000E+00  0.0000E+00  0.1000E+01  0.1000E+01
    -32.423  0.0000E+00  0.0000E+00  0.1000E+01  0.1000E+01
    -32.225  0.0000E+00  0.0000E+00  0.1000E+01  0.1000E+01
    -32.026  0.0000E+00  0.0000E+00  0.1000E+01  0.1000E+01
    -31.827  0.0000E+00  0.0000E+00  0.1000E+01  0.1000E+01
    -31.629  0.0000E+00  0.0000E+00  0.1000E+01  0.1000E+01
    -31.430  0.0000E+00  0.0000E+00  0.1000E+01  0.1000E+01
    -31.231  0.0000E+00  0.0000E+00  0.1000E+01  0.1000E+01
    -31.033  0.0000E+00  0.0000E+00  0.1000E+01  0.1000E+01
    -30.834  0.0000E+00  0.0000E+00  0.1000E+01  0.1000E+01
    -30.635  0.0000E+00  0.0000E+00  0.1000E+01  0.1000E+01
    -30.437  0.0000E+00  0.0000E+00  0.1000E+01  0.1000E+01
    -30.238  0.0000E+00  0.0000E+00  0.1000E+01  0.1000E+01
    -30.040  0.0000E+00  0.0000E+00  0.1000E+01  0.1000E+01
    -29.841  0.0000E+00  0.0000E+00  0.1000E+01  0.1000E+01
    -29.642  0.0000E+00  0.0000E+00  0.1000E+01  0.1000E+01
    -29.444  0.0000E+00  0.0000E+00  0.1000E+01  0.1000E+01
    -29.245  0.0000E+00  0.0000E+00  0.1000E+01  0.1000E+01
    -29.046  0.0000E+00  0.0000E+00  0.1000E+01  0.1000E+01
    -28.848  0.0000E+00  0.0000E+00  0.1000E+01  0.1000E+01
    -28.649  0.0000E+00  0.0000E+00  0.1000E+01  0.1000E+01
    -28.450  0.0000E+00  0.0000E+00  0.1000E+01  0.1000E+01
    -28.252  0.0000E+00  0.0000E+00  0.1000E+01  0.1000E+01
    -28.053  0.0000E+00  0.0000E+00  0.1000E+01  0.1000E+01
    -27.854  0.0000E+00  0.0000E+00  0.1000E+01  0.1000E+01
    -27.656  0.0000E+00  0.0000E+00  0.1000E+01  0.1000E+01
    -27.457  0.0000E+00  0.0000E+00  0.1000E+01  0.1000E+01
    -27.259  0.0000E+00  0.0000E+00  0.1000E+01  0.1000E+01
    -27.060  0.0000E+00  0.0000E+00  0.1000E+01  0.1000E+01
    -26.861  0.0000E+00  0.0000E+00  0.1000E+01  0.1000E+01
    -26.663  0.0000E+00  0.0000E+00  0.1000E+01  0.1000E+01
    -26.464  0.0000E+00  0.0000E+00  0.1000E+01  0.1000E+01
    -26.265  0.0000E+00  0.0000E+00  0.1000E+01  0.1000E+01
    -26.067  0.0000E+00  0.0000E+00  0.1000E+01  0.1000E+01
    -25.868  0.0000E+00  0.0000E+00  0.1000E+01  0.1000E+01
    -25.669  0.0000E+00  0.0000E+00  0.1000E+01  0.1000E+01
    -25.471  0.0000E+00  0.0000E+00  0.1000E+01  0.1000E+01
    -25.272  0.0000E+00  0.0000E+00  0.1000E+01  0.1000E+01
    -25.073  0.0000E+00  0.0000E+00  0.1000E+01  0.1000E+01
    -24.875  0.0000E+00  0.0000E+00  0.1000E+01  0.1000E+01
    -24.676  0.0000E+00  0.0000E+00  0.1000E+01  0.1000E+01
    -24.477  0.0000E+00  0.0000E+00  0.1000E+01  0.1000E+01
    -24.279  0.0000E+00  0.0000E+00  0.1000E+01  0.1000E+01
    -24.080  0.0000E+00  0.0000E+00  0.1000E+01  0.1000E+01
    -23.882  0.0000E+00  0.0000E+00  0.1000E+01  0.1000E+01
    -23.683  0.0000E+00  0.0000E+00  0.1000E+01  0.1000E+01
    -23.484  0.0000E+00  0.0000E+00  0.1000E+01  0.1000E+01
    -23.286  0.0000E+00  0.0000E+00  0.1000E+01  0.1000E+01
    -23.087  0.0000E+00  0.0000E+00  0.1000E+01  0.1000E+01
    -22.888  0.0000E+00  0.0000E+00  0.1000E+01  0.1000E+01
    -22.690  0.0000E+00  0.0000E+00  0.1000E+01  0.1000E+01
    -22.491  0.0000E+00  0.0000E+00  0.1000E+01  0.1000E+01
    -22.292  0.0000E+00  0.0000E+00  0.1000E+01  0.1000E+01
    -22.094  0.0000E+00  0.0000E+00  0.1000E+01  0.1000E+01
    -21.895  0.0000E+00  0.0000E+00  0.1000E+01  0.1000E+01
    -21.696  0.0000E+00  0.0000E+00  0.1000E+01  0.1000E+01
    -21.498  0.0000E+00  0.0000E+00  0.1000E+01  0.1000E+01
    -21.299  0.0000E+00  0.0000E+00  0.1000E+01  0.1000E+01
    -21.100  0.0000E+00  0.0000E+00  0.1000E+01  0.1000E+01
    -20.902  0.0000E+00  0.0000E+00  0.1000E+01  0.1000E+01
    -20.703  0.0000E+00  0.0000E+00  0.1000E+01  0.1000E+01
    -20.505  0.0000E+00  0.0000E+00  0.1000E+01  0.1000E+01
    -20.306  0.0000E+00  0.0000E+00  0.1000E+01  0.1000E+01
    -20.107  0.0000E+00  0.0000E+00  0.1000E+01  0.1000E+01
    -19.909  0.0000E+00  0.0000E+00  0.1000E+01  0.1000E+01
    -19.710  0.0000E+00  0.0000E+00  0.1000E+01  0.1000E+01
    -19.511  0.0000E+00  0.0000E+00  0.1000E+01  0.1000E+01
    -19.313  0.0000E+00  0.0000E+00  0.1000E+01  0.1000E+01
    -19.114  0.0000E+00  0.0000E+00  0.1000E+01  0.1000E+01
    -18.915  0.0000E+00  0.0000E+00  0.1000E+01  0.1000E+01
    -18.717  0.0000E+00  0.0000E+00  0.1000E+01  0.1000E+01
    -18.518  0.0000E+00  0.0000E+00  0.1000E+01  0.1000E+01
    -18.319  0.0000E+00  0.0000E+00  0.1000E+01  0.1000E+01
    -18.121  0.0000E+00  0.0000E+00  0.1000E+01  0.1000E+01
    -17.922  0.0000E+00  0.0000E+00  0.1000E+01  0.1000E+01
    -17.723  0.0000E+00  0.0000E+00  0.1000E+01  0.1000E+01
    -17.525  0.0000E+00  0.0000E+00  0.1000E+01  0.1000E+01
    -17.326  0.0000E+00  0.0000E+00  0.1000E+01  0.1000E+01
    -17.128  0.0000E+00  0.0000E+00  0.1000E+01  0.1000E+01
    -16.929  0.1578E-04  0.1569E-04  0.1000E+01  0.1000E+01
    -16.730  0.2658E-02  0.2642E-02  0.1001E+01  0.1001E+01
    -16.532  0.1375E+00  0.1367E+00  0.1028E+01  0.1028E+01
    -16.333  0.4396E+01  0.4379E+01  0.1901E+01  0.1898E+01
    -16.134  0.9694E+01  0.9706E+01  0.3827E+01  0.3826E+01
    -15.936  0.8344E+00  0.8392E+00  0.3997E+01  0.3997E+01
    -15.737  0.0000E+00  0.0000E+00  0.4000E+01  0.4000E+01
    -15.538  0.0000E+00  0.0000E+00  0.4000E+01  0.4000E+01
    -15.340  0.0000E+00  0.0000E+00  0.4000E+01  0.4000E+01
    -15.141  0.0000E+00  0.0000E+00  0.4000E+01  0.4000E+01
    -14.942  0.0000E+00  0.0000E+00  0.4000E+01  0.4000E+01
    -14.744  0.0000E+00  0.0000E+00  0.4000E+01  0.4000E+01
    -14.545  0.0000E+00  0.0000E+00  0.4000E+01  0.4000E+01
    -14.346  0.0000E+00  0.0000E+00  0.4000E+01  0.4000E+01
    -14.148  0.0000E+00  0.0000E+00  0.4000E+01  0.4000E+01
    -13.949  0.0000E+00  0.0000E+00  0.4000E+01  0.4000E+01
    -13.751  0.0000E+00  0.0000E+00  0.4000E+01  0.4000E+01
    -13.552  0.0000E+00  0.0000E+00  0.4000E+01  0.4000E+01
    -13.353  0.0000E+00  0.0000E+00  0.4000E+01  0.4000E+01
    -13.155  0.0000E+00  0.0000E+00  0.4000E+01  0.4000E+01
    -12.956  0.0000E+00  0.0000E+00  0.4000E+01  0.4000E+01
    -12.757  0.0000E+00  0.0000E+00  0.4000E+01  0.4000E+01
    -12.559  0.0000E+00  0.0000E+00  0.4000E+01  0.4000E+01
    -12.360  0.0000E+00  0.0000E+00  0.4000E+01  0.4000E+01
    -12.161  0.0000E+00  0.0000E+00  0.4000E+01  0.4000E+01
    -11.963  0.0000E+00  0.0000E+00  0.4000E+01  0.4000E+01
    -11.764  0.0000E+00  0.0000E+00  0.4000E+01  0.4000E+01
    -11.565  0.0000E+00  0.0000E+00  0.4000E+01  0.4000E+01
    -11.367  0.0000E+00  0.0000E+00  0.4000E+01  0.4000E+01
    -11.168  0.0000E+00  0.0000E+00  0.4000E+01  0.4000E+01
    -10.970  0.0000E+00  0.0000E+00  0.4000E+01  0.4000E+01
    -10.771  0.0000E+00  0.0000E+00  0.4000E+01  0.4000E+01
    -10.572  0.0000E+00  0.0000E+00  0.4000E+01  0.4000E+01
    -10.374  0.0000E+00  0.0000E+00  0.4000E+01  0.4000E+01
    -10.175  0.0000E+00  0.0000E+00  0.4000E+01  0.4000E+01
     -9.976  0.0000E+00  0.0000E+00  0.4000E+01  0.4000E+01
     -9.778  0.0000E+00  0.0000E+00  0.4000E+01  0.4000E+01
     -9.579  0.0000E+00  0.0000E+00  0.4000E+01  0.4000E+01
     -9.380  0.0000E+00  0.0000E+00  0.4000E+01  0.4000E+01
     -9.182  0.0000E+00  0.0000E+00  0.4000E+01  0.4000E+01
     -8.983  0.0000E+00  0.0000E+00  0.4000E+01  0.4000E+01
     -8.784  0.0000E+00  0.0000E+00  0.4000E+01  0.4000E+01
     -8.586  0.0000E+00  0.0000E+00  0.4000E+01  0.4000E+01
     -8.387  0.0000E+00  0.0000E+00  0.4000E+01  0.4000E+01
     -8.188  0.0000E+00  0.0000E+00  0.4000E+01  0.4000E+01
     -7.990  0.0000E+00  0.0000E+00  0.4000E+01  0.4000E+01
     -7.791  0.0000E+00  0.0000E+00  0.4000E+01  0.4000E+01
     -7.593  0.0000E+00  0.0000E+00  0.4000E+01  0.4000E+01
     -7.394  0.0000E+00  0.0000E+00  0.4000E+01  0.4000E+01
     -7.195  0.0000E+00  0.0000E+00  0.4000E+01  0.4000E+01
     -6.997  0.0000E+00  0.0000E+00  0.4000E+01  0.4000E+01
     -6.798  0.0000E+00  0.0000E+00  0.4000E+01  0.4000E+01
     -6.599  0.0000E+00  0.0000E+00  0.4000E+01  0.4000E+01
     -6.401  0.0000E+00  0.0000E+00  0.4000E+01  0.4000E+01
     -6.202  0.0000E+00  0.0000E+00  0.4000E+01  0.4000E+01
     -6.003  0.0000E+00  0.0000E+00  0.4000E+01  0.4000E+01
     -5.805  0.0000E+00  0.0000E+00  0.4000E+01  0.4000E+01
     -5.606  0.0000E+00  0.0000E+00  0.4000E+01  0.4000E+01
     -5.407  0.0000E+00  0.0000E+00  0.4000E+01  0.4000E+01
     -5.209  0.0000E+00  0.0000E+00  0.4000E+01  0.4000E+01
     -5.010  0.0000E+00  0.0000E+00  0.4000E+01  0.4000E+01
     -4.811  0.0000E+00  0.0000E+00  0.4000E+01  0.4000E+01
     -4.613  0.0000E+00  0.0000E+00  0.4000E+01  0.4000E+01
     -4.414  0.0000E+00  0.0000E+00  0.4000E+01  0.4000E+01
     -4.216  0.0000E+00  0.0000E+00  0.4000E+01  0.4000E+01
     -4.017  0.0000E+00  0.0000E+00  0.4000E+01  0.4000E+01
     -3.818  0.0000E+00  0.0000E+00  0.4000E+01  0.4000E+01
     -3.620  0.0000E+00  0.0000E+00  0.4000E+01  0.4000E+01
     -3.421  0.0000E+00  0.0000E+00  0.4000E+01  0.4000E+01
     -3.222  0.0000E+00  0.0000E+00  0.4000E+01  0.4000E+01
     -3.024  0.0000E+00  0.0000E+00  0.4000E+01  0.4000E+01
     -2.825  0.0000E+00  0.0000E+00  0.4000E+01  0.4000E+01
     -2.626  0.0000E+00  0.0000E+00  0.4000E+01  0.4000E+01
     -2.428  0.0000E+00  0.0000E+00  0.4000E+01  0.4000E+01
     -2.229  0.0000E+00  0.0000E+00  0.4000E+01  0.4000E+01
     -2.030  0.0000E+00  0.0000E+00  0.4000E+01  0.4000E+01
     -1.832  0.0000E+00  0.0000E+00  0.4000E+01  0.4000E+01
     -1.633  0.0000E+00  0.0000E+00  0.4000E+01  0.4000E+01
     -1.434  0.0000E+00  0.0000E+00  0.4000E+01  0.4000E+01
     -1.236  0.0000E+00  0.0000E+00  0.4000E+01  0.4000E+01
     -1.037  0.1653E-06  0.1646E-06  0.4000E+01  0.4000E+01
     -0.839  0.1230E-04  0.1225E-04  0.4000E+01  0.4000E+01
     -0.640  0.6395E-03  0.6369E-03  0.4000E+01  0.4000E+01
     -0.441  0.1720E-01  0.1716E-01  0.4004E+01  0.4004E+01
     -0.243  0.6665E-01  0.6659E-01  0.4017E+01  0.4017E+01
     -0.044  0.1084E+00  0.1084E+00  0.4038E+01  0.4038E+01
      0.155  0.1425E+00  0.1424E+00  0.4067E+01  0.4067E+01
      0.353  0.1655E+00  0.1655E+00  0.4100E+01  0.4100E+01
      0.552  0.1750E+00  0.1750E+00  0.4135E+01  0.4135E+01
      0.751  0.2398E+00  0.2398E+00  0.4182E+01  0.4182E+01
      0.949  0.2029E+00  0.2029E+00  0.4223E+01  0.4223E+01
      1.148  0.2931E+00  0.2930E+00  0.4281E+01  0.4281E+01
      1.347  0.2943E+00  0.2944E+00  0.4340E+01  0.4340E+01
      1.545  0.3242E+00  0.3241E+00  0.4405E+01  0.4405E+01
      1.744  0.3706E+00  0.3705E+00  0.4478E+01  0.4478E+01
      1.943  0.4689E+00  0.4688E+00  0.4572E+01  0.4572E+01
      2.141  0.3952E+00  0.3952E+00  0.4651E+01  0.4650E+01
      2.340  0.4307E+00  0.4308E+00  0.4736E+01  0.4736E+01
      2.538  0.4088E+00  0.4086E+00  0.4818E+01  0.4818E+01
      2.737  0.4436E+00  0.4438E+00  0.4906E+01  0.4906E+01
      2.936  0.3753E+00  0.3754E+00  0.4981E+01  0.4981E+01
      3.134  0.2878E+00  0.2877E+00  0.5038E+01  0.5038E+01
      3.333  0.3190E+00  0.3190E+00  0.5102E+01  0.5102E+01
      3.532  0.4024E+00  0.4023E+00  0.5182E+01  0.5182E+01
      3.730  0.3781E+00  0.3786E+00  0.5258E+01  0.5258E+01
      3.929  0.3532E+00  0.3531E+00  0.5329E+01  0.5329E+01
      4.128  0.5302E+00  0.5300E+00  0.5435E+01  0.5434E+01
      4.326  0.5915E+00  0.5916E+00  0.5553E+01  0.5552E+01
      4.525  0.6644E+00  0.6642E+00  0.5685E+01  0.5685E+01
      4.724  0.8682E+00  0.8682E+00  0.5858E+01  0.5858E+01
      4.922  0.7835E+00  0.7833E+00  0.6014E+01  0.6014E+01
      5.121  0.7358E+00  0.7361E+00  0.6161E+01  0.6161E+01
      5.319  0.6792E+00  0.6792E+00  0.6297E+01  0.6297E+01
      5.518  0.6404E+00  0.6404E+00  0.6425E+01  0.6425E+01
      5.717  0.4984E+00  0.4985E+00  0.6524E+01  0.6524E+01
      5.915  0.5775E+00  0.5775E+00  0.6639E+01  0.6639E+01
      6.114  0.7166E+00  0.7163E+00  0.6782E+01  0.6782E+01
      6.313  0.7189E+00  0.7191E+00  0.6925E+01  0.6925E+01
      6.511  0.6644E+00  0.6642E+00  0.7058E+01  0.7058E+01
      6.710  0.9582E+00  0.9581E+00  0.7249E+01  0.7249E+01
      6.909  0.6596E+00  0.6598E+00  0.7381E+01  0.7381E+01
      7.107  0.8506E+00  0.8501E+00  0.7551E+01  0.7551E+01
      7.306  0.1124E+01  0.1124E+01  0.7775E+01  0.7775E+01
      7.505  0.1810E+01  0.1810E+01  0.8135E+01  0.8135E+01
      7.703  0.1624E+01  0.1624E+01  0.8459E+01  0.8458E+01
      7.902  0.1549E+01  0.1550E+01  0.8768E+01  0.8768E+01
      8.101  0.1194E+01  0.1194E+01  0.9007E+01  0.9006E+01
      8.299  0.1068E+01  0.1068E+01  0.9220E+01  0.9219E+01
      8.498  0.8302E+00  0.8306E+00  0.9385E+01  0.9385E+01
      8.696  0.6428E+00  0.6428E+00  0.9514E+01  0.9514E+01
      8.895  0.6873E+00  0.6875E+00  0.9652E+01  0.9652E+01
      9.094  0.5982E+00  0.5980E+00  0.9771E+01  0.9771E+01
      9.292  0.5086E+00  0.5091E+00  0.9873E+01  0.9873E+01
      9.491  0.5238E+00  0.5233E+00  0.9977E+01  0.9977E+01
      9.690  0.5738E+00  0.5745E+00  0.1009E+02  0.1009E+02
      9.888  0.2270E+00  0.2268E+00  0.1014E+02  0.1014E+02
     10.087  0.5253E+00  0.5250E+00  0.1024E+02  0.1024E+02
     10.286  0.5871E+00  0.5873E+00  0.1036E+02  0.1036E+02
     10.484  0.8181E+00  0.8180E+00  0.1052E+02  0.1052E+02
     10.683  0.7915E+00  0.7915E+00  0.1068E+02  0.1068E+02
     10.882  0.1125E+01  0.1125E+01  0.1090E+02  0.1090E+02
     11.080  0.8051E+00  0.8053E+00  0.1106E+02  0.1106E+02
     11.279  0.8901E+00  0.8899E+00  0.1124E+02  0.1124E+02
     11.478  0.1022E+01  0.1022E+01  0.1145E+02  0.1145E+02
     11.676  0.1136E+01  0.1136E+01  0.1167E+02  0.1167E+02
     11.875  0.1002E+01  0.1002E+01  0.1187E+02  0.1187E+02
     12.073  0.1265E+01  0.1265E+01  0.1212E+02  0.1212E+02
     12.272  0.1527E+01  0.1527E+01  0.1243E+02  0.1243E+02
     12.471  0.1799E+01  0.1799E+01  0.1279E+02  0.1279E+02
     12.669  0.1427E+01  0.1427E+01  0.1307E+02  0.1307E+02
     12.868  0.1079E+01  0.1078E+01  0.1329E+02  0.1329E+02
     13.067  0.1177E+01  0.1177E+01  0.1352E+02  0.1352E+02
     13.265  0.9251E+00  0.9253E+00  0.1371E+02  0.1371E+02
     13.464  0.1031E+01  0.1030E+01  0.1391E+02  0.1391E+02
     13.663  0.1254E+01  0.1254E+01  0.1416E+02  0.1416E+02
     13.861  0.9159E+00  0.9159E+00  0.1435E+02  0.1435E+02
     14.060  0.1174E+01  0.1175E+01  0.1458E+02  0.1458E+02
     14.259  0.1024E+01  0.1024E+01  0.1479E+02  0.1479E+02
     14.457  0.1079E+01  0.1083E+01  0.1500E+02  0.1500E+02
     14.656  0.1130E+01  0.1126E+01  0.1523E+02  0.1523E+02
     14.855  0.9998E+00  0.1007E+01  0.1543E+02  0.1543E+02
     15.053  0.1000E+01  0.1022E+01  0.1563E+02  0.1563E+02
     15.252  0.8586E+00  0.8285E+00  0.1580E+02  0.1580E+02
     15.450  0.6980E+00  0.6863E+00  0.1594E+02  0.1593E+02
     15.649  0.2110E+00  0.2247E+00  0.1598E+02  0.1598E+02
     15.848  0.6216E-01  0.6327E-01  0.1599E+02  0.1599E+02
     16.046  0.2517E-01  0.2481E-01  0.1600E+02  0.1600E+02
     16.245  0.1299E-01  0.1296E-01  0.1600E+02  0.1600E+02
     16.444  0.9721E-03  0.9868E-03  0.1600E+02  0.1600E+02
     16.642  0.0000E+00  0.0000E+00  0.1600E+02  0.1600E+02
     16.841  0.0000E+00  0.0000E+00  0.1600E+02  0.1600E+02
     17.040  0.0000E+00  0.0000E+00  0.1600E+02  0.1600E+02
     17.238  0.0000E+00  0.0000E+00  0.1600E+02  0.1600E+02
     17.437  0.0000E+00  0.0000E+00  0.1600E+02  0.1600E+02
     17.636  0.0000E+00  0.0000E+00  0.1600E+02  0.1600E+02
     17.834  0.0000E+00  0.0000E+00  0.1600E+02  0.1600E+02
     18.033  0.0000E+00  0.0000E+00  0.1600E+02  0.1600E+02
     18.232  0.0000E+00  0.0000E+00  0.1600E+02  0.1600E+02
     18.430  0.0000E+00  0.0000E+00  0.1600E+02  0.1600E+02
     18.629  0.0000E+00  0.0000E+00  0.1600E+02  0.1600E+02
     18.827  0.0000E+00  0.0000E+00  0.1600E+02  0.1600E+02
     18.82745148    -40.76646175  301     10.46122587      1.00000000
    -40.766  0.0000E+00  0.0000E+00  0.0000E+00  0.0000E+00  0.0000E+00  0.0000E+00  0.0000E+00  0.0000E+00  0.0000E+00  0.0000E+00  0.0000E+00  0.0000E+00  0.0000E+00  0.0000E+00  0.0000E+00  0.0000E+00  0.0000E+00  0.0000E+00
    -40.568  0.0000E+00  0.0000E+00  0.0000E+00  0.0000E+00  0.0000E+00  0.0000E+00  0.0000E+00  0.0000E+00  0.0000E+00  0.0000E+00  0.0000E+00  0.0000E+00  0.0000E+00  0.0000E+00  0.0000E+00  0.0000E+00  0.0000E+00  0.0000E+00
    -40.369  0.0000E+00  0.0000E+00  0.0000E+00  0.0000E+00  0.0000E+00  0.0000E+00  0.0000E+00  0.0000E+00  0.0000E+00  0.0000E+00  0.0000E+00  0.0000E+00  0.0000E+00  0.0000E+00  0.0000E+00  0.0000E+00  0.0000E+00  0.0000E+00
    -40.171  0.0000E+00  0.0000E+00  0.0000E+00  0.0000E+00  0.0000E+00  0.0000E+00  0.0000E+00  0.0000E+00  0.0000E+00  0.0000E+00  0.0000E+00  0.0000E+00  0.0000E+00  0.0000E+00  0.0000E+00  0.0000E+00  0.0000E+00  0.0000E+00
    -39.972  0.0000E+00  0.0000E+00  0.0000E+00  0.0000E+00  0.0000E+00  0.0000E+00  0.0000E+00  0.0000E+00  0.0000E+00  0.0000E+00  0.0000E+00  0.0000E+00  0.0000E+00  0.0000E+00  0.0000E+00  0.0000E+00  0.0000E+00  0.0000E+00
    -39.773  0.0000E+00  0.0000E+00  0.0000E+00  0.0000E+00  0.0000E+00  0.0000E+00  0.0000E+00  0.0000E+00  0.0000E+00  0.0000E+00  0.0000E+00  0.0000E+00  0.0000E+00  0.0000E+00  0.0000E+00  0.0000E+00  0.0000E+00  0.0000E+00
    -39.575  0.0000E+00  0.0000E+00  0.0000E+00  0.0000E+00  0.0000E+00  0.0000E+00  0.0000E+00  0.0000E+00  0.0000E+00  0.0000E+00  0.0000E+00  0.0000E+00  0.0000E+00  0.0000E+00  0.0000E+00  0.0000E+00  0.0000E+00  0.0000E+00
    -39.376  0.0000E+00  0.0000E+00  0.0000E+00  0.0000E+00  0.0000E+00  0.0000E+00  0.0000E+00  0.0000E+00  0.0000E+00  0.0000E+00  0.0000E+00  0.0000E+00  0.0000E+00  0.0000E+00  0.0000E+00  0.0000E+00  0.0000E+00  0.0000E+00
    -39.177  0.0000E+00  0.0000E+00  0.0000E+00  0.0000E+00  0.0000E+00  0.0000E+00  0.0000E+00  0.0000E+00  0.0000E+00  0.0000E+00  0.0000E+00  0.0000E+00  0.0000E+00  0.0000E+00  0.0000E+00  0.0000E+00  0.0000E+00  0.0000E+00
    -38.979  0.0000E+00  0.0000E+00  0.0000E+00  0.0000E+00  0.0000E+00  0.0000E+00  0.0000E+00  0.0000E+00  0.0000E+00  0.0000E+00  0.0000E+00  0.0000E+00  0.0000E+00  0.0000E+00  0.0000E+00  0.0000E+00  0.0000E+00  0.0000E+00
    -38.780  0.0000E+00  0.0000E+00  0.0000E+00  0.0000E+00  0.0000E+00  0.0000E+00  0.0000E+00  0.0000E+00  0.0000E+00  0.0000E+00  0.0000E+00  0.0000E+00  0.0000E+00  0.0000E+00  0.0000E+00  0.0000E+00  0.0000E+00  0.0000E+00
    -38.581  0.1241E-03  0.1235E-03  0.2421E-11  0.2394E-11  0.2421E-11  0.2394E-11  0.2443E-11  0.2416E-11  0.1516E-14  0.1507E-14  0.1507E-14  0.1502E-14  0.2765E-11  0.2775E-11  0.1516E-14  0.1507E-14  0.2796E-11  0.2807E-11
    -38.383  0.6462E-02  0.6428E-02  0.1261E-09  0.1246E-09  0.1261E-09  0.1246E-09  0.1272E-09  0.1258E-09  0.7896E-13  0.7846E-13  0.7845E-13  0.7819E-13  0.1440E-09  0.1445E-09  0.7896E-13  0.7846E-13  0.1456E-09  0.1462E-09
    -38.184  0.3208E+00  0.3193E+00  0.6258E-08  0.6190E-08  0.6258E-08  0.6190E-08  0.6314E-08  0.6247E-08  0.3924E-11  0.3901E-11  0.3899E-11  0.3888E-11  0.7150E-08  0.7179E-08  0.3924E-11  0.3901E-11  0.7229E-08  0.7259E-08
    -37.985  0.3609E+01  0.3607E+01  0.7029E-07  0.6983E-07  0.7029E-07  0.6983E-07  0.7092E-07  0.7047E-07  0.4471E-10  0.4464E-10  0.4443E-10  0.4449E-10  0.8064E-07  0.8130E-07  0.4471E-10  0.4464E-10  0.8123E-07  0.8190E-07
    -37.787  0.1033E+01  0.1037E+01  0.2007E-07  0.2004E-07  0.2007E-07  0.2004E-07  0.2025E-07  0.2023E-07  0.1298E-10  0.1303E-10  0.1290E-10  0.1298E-10  0.2312E-07  0.2342E-07  0.1298E-10  0.1303E-10  0.2318E-07  0.2349E-07
    -37.588  0.0000E+00  0.0000E+00  0.0000E+00  0.0000E+00  0.0000E+00  0.0000E+00  0.0000E+00  0.0000E+00  0.0000E+00  0.0000E+00  0.0000E+00  0.0000E+00  0.0000E+00  0.0000E+00  0.0000E+00  0.0000E+00  0.0000E+00  0.0000E+00
    -37.389  0.0000E+00  0.0000E+00  0.0000E+00  0.0000E+00  0.0000E+00  0.0000E+00  0.0000E+00  0.0000E+00  0.0000E+00  0.0000E+00  0.0000E+00  0.0000E+00  0.0000E+00  0.0000E+00  0.0000E+00  0.0000E+00  0.0000E+00  0.0000E+00
    -37.191  0.0000E+00  0.0000E+00  0.0000E+00  0.0000E+00  0.0000E+00  0.0000E+00  0.0000E+00  0.0000E+00  0.0000E+00  0.0000E+00  0.0000E+00  0.0000E+00  0.0000E+00  0.0000E+00  0.0000E+00  0.0000E+00  0.0000E+00  0.0000E+00
    -36.992  0.0000E+00  0.0000E+00  0.0000E+00  0.0000E+00  0.0000E+00  0.0000E+00  0.0000E+00  0.0000E+00  0.0000E+00  0.0000E+00  0.0000E+00  0.0000E+00  0.0000E+00  0.0000E+00  0.0000E+00  0.0000E+00  0.0000E+00  0.0000E+00
    -36.794  0.0000E+00  0.0000E+00  0.0000E+00  0.0000E+00  0.0000E+00  0.0000E+00  0.0000E+00  0.0000E+00  0.0000E+00  0.0000E+00  0.0000E+00  0.0000E+00  0.0000E+00  0.0000E+00  0.0000E+00  0.0000E+00  0.0000E+00  0.0000E+00
    -36.595  0.0000E+00  0.0000E+00  0.0000E+00  0.0000E+00  0.0000E+00  0.0000E+00  0.0000E+00  0.0000E+00  0.0000E+00  0.0000E+00  0.0000E+00  0.0000E+00  0.0000E+00  0.0000E+00  0.0000E+00  0.0000E+00  0.0000E+00  0.0000E+00
    -36.396  0.0000E+00  0.0000E+00  0.0000E+00  0.0000E+00  0.0000E+00  0.0000E+00  0.0000E+00  0.0000E+00  0.0000E+00  0.0000E+00  0.0000E+00  0.0000E+00  0.0000E+00  0.0000E+00  0.0000E+00  0.0000E+00  0.0000E+00  0.0000E+00
    -36.198  0.0000E+00  0.0000E+00  0.0000E+00  0.0000E+00  0.0000E+00  0.0000E+00  0.0000E+00  0.0000E+00  0.0000E+00  0.0000E+00  0.0000E+00  0.0000E+00  0.0000E+00  0.0000E+00  0.0000E+00  0.0000E+00  0.0000E+00  0.0000E+00
    -35.999  0.0000E+00  0.0000E+00  0.0000E+00  0.0000E+00  0.0000E+00  0.0000E+00  0.0000E+00  0.0000E+00  0.0000E+00  0.0000E+00  0.0000E+00  0.0000E+00  0.0000E+00  0.0000E+00  0.0000E+00  0.0000E+00  0.0000E+00  0.0000E+00
    -35.800  0.0000E+00  0.0000E+00  0.0000E+00  0.0000E+00  0.0000E+00  0.0000E+00  0.0000E+00  0.0000E+00  0.0000E+00  0.0000E+00  0.0000E+00  0.0000E+00  0.0000E+00  0.0000E+00  0.0000E+00  0.0000E+00  0.0000E+00  0.0000E+00
    -35.602  0.0000E+00  0.0000E+00  0.0000E+00  0.0000E+00  0.0000E+00  0.0000E+00  0.0000E+00  0.0000E+00  0.0000E+00  0.0000E+00  0.0000E+00  0.0000E+00  0.0000E+00  0.0000E+00  0.0000E+00  0.0000E+00  0.0000E+00  0.0000E+00
    -35.403  0.0000E+00  0.0000E+00  0.0000E+00  0.0000E+00  0.0000E+00  0.0000E+00  0.0000E+00  0.0000E+00  0.0000E+00  0.0000E+00  0.0000E+00  0.0000E+00  0.0000E+00  0.0000E+00  0.0000E+00  0.0000E+00  0.0000E+00  0.0000E+00
    -35.204  0.0000E+00  0.0000E+00  0.0000E+00  0.0000E+00  0.0000E+00  0.0000E+00  0.0000E+00  0.0000E+00  0.0000E+00  0.0000E+00  0.0000E+00  0.0000E+00  0.0000E+00  0.0000E+00  0.0000E+00  0.0000E+00  0.0000E+00  0.0000E+00
    -35.006  0.0000E+00  0.0000E+00  0.0000E+00  0.0000E+00  0.0000E+00  0.0000E+00  0.0000E+00  0.0000E+00  0.0000E+00  0.0000E+00  0.0000E+00  0.0000E+00  0.0000E+00  0.0000E+00  0.0000E+00  0.0000E+00  0.0000E+00  0.0000E+00
    -34.807  0.0000E+00  0.0000E+00  0.0000E+00  0.0000E+00  0.0000E+00  0.0000E+00  0.0000E+00  0.0000E+00  0.0000E+00  0.0000E+00  0.0000E+00  0.0000E+00  0.0000E+00  0.0000E+00  0.0000E+00  0.0000E+00  0.0000E+00  0.0000E+00
    -34.608  0.0000E+00  0.0000E+00  0.0000E+00  0.0000E+00  0.0000E+00  0.0000E+00  0.0000E+00  0.0000E+00  0.0000E+00  0.0000E+00  0.0000E+00  0.0000E+00  0.0000E+00  0.0000E+00  0.0000E+00  0.0000E+00  0.0000E+00  0.0000E+00
    -34.410  0.0000E+00  0.0000E+00  0.0000E+00  0.0000E+00  0.0000E+00  0.0000E+00  0.0000E+00  0.0000E+00  0.0000E+00  0.0000E+00  0.0000E+00  0.0000E+00  0.0000E+00  0.0000E+00  0.0000E+00  0.0000E+00  0.0000E+00  0.0000E+00
    -34.211  0.0000E+00  0.0000E+00  0.0000E+00  0.0000E+00  0.0000E+00  0.0000E+00  0.0000E+00  0.0000E+00  0.0000E+00  0.0000E+00  0.0000E+00  0.0000E+00  0.0000E+00  0.0000E+00  0.0000E+00  0.0000E+00  0.0000E+00  0.0000E+00
    -34.012  0.0000E+00  0.0000E+00  0.0000E+00  0.0000E+00  0.0000E+00  0.0000E+00  0.0000E+00  0.0000E+00  0.0000E+00  0.0000E+00  0.0000E+00  0.0000E+00  0.0000E+00  0.0000E+00  0.0000E+00  0.0000E+00  0.0000E+00  0.0000E+00
    -33.814  0.0000E+00  0.0000E+00  0.0000E+00  0.0000E+00  0.0000E+00  0.0000E+00  0.0000E+00  0.0000E+00  0.0000E+00  0.0000E+00  0.0000E+00  0.0000E+00  0.0000E+00  0.0000E+00  0.0000E+00  0.0000E+00  0.0000E+00  0.0000E+00
    -33.615  0.0000E+00  0.0000E+00  0.0000E+00  0.0000E+00  0.0000E+00  0.0000E+00  0.0000E+00  0.0000E+00  0.0000E+00  0.0000E+00  0.0000E+00  0.0000E+00  0.0000E+00  0.0000E+00  0.0000E+00  0.0000E+00  0.0000E+00  0.0000E+00
    -33.417  0.0000E+00  0.0000E+00  0.0000E+00  0.0000E+00  0.0000E+00  0.0000E+00  0.0000E+00  0.0000E+00  0.0000E+00  0.0000E+00  0.0000E+00  0.0000E+00  0.0000E+00  0.0000E+00  0.0000E+00  0.0000E+00  0.0000E+00  0.0000E+00
    -33.218  0.0000E+00  0.0000E+00  0.0000E+00  0.0000E+00  0.0000E+00  0.0000E+00  0.0000E+00  0.0000E+00  0.0000E+00  0.0000E+00  0.0000E+00  0.0000E+00  0.0000E+00  0.0000E+00  0.0000E+00  0.0000E+00  0.0000E+00  0.0000E+00
    -33.019  0.0000E+00  0.0000E+00  0.0000E+00  0.0000E+00  0.0000E+00  0.0000E+00  0.0000E+00  0.0000E+00  0.0000E+00  0.0000E+00  0.0000E+00  0.0000E+00  0.0000E+00  0.0000E+00  0.0000E+00  0.0000E+00  0.0000E+00  0.0000E+00
    -32.821  0.0000E+00  0.0000E+00  0.0000E+00  0.0000E+00  0.0000E+00  0.0000E+00  0.0000E+00  0.0000E+00  0.0000E+00  0.0000E+00  0.0000E+00  0.0000E+00  0.0000E+00  0.0000E+00  0.0000E+00  0.0000E+00  0.0000E+00  0.0000E+00
    -32.622  0.0000E+00  0.0000E+00  0.0000E+00  0.0000E+00  0.0000E+00  0.0000E+00  0.0000E+00  0.0000E+00  0.0000E+00  0.0000E+00  0.0000E+00  0.0000E+00  0.0000E+00  0.0000E+00  0.0000E+00  0.0000E+00  0.0000E+00  0.0000E+00
    -32.423  0.0000E+00  0.0000E+00  0.0000E+00  0.0000E+00  0.0000E+00  0.0000E+00  0.0000E+00  0.0000E+00  0.0000E+00  0.0000E+00  0.0000E+00  0.0000E+00  0.0000E+00  0.0000E+00  0.0000E+00  0.0000E+00  0.0000E+00  0.0000E+00
    -32.225  0.0000E+00  0.0000E+00  0.0000E+00  0.0000E+00  0.0000E+00  0.0000E+00  0.0000E+00  0.0000E+00  0.0000E+00  0.0000E+00  0.0000E+00  0.0000E+00  0.0000E+00  0.0000E+00  0.0000E+00  0.0000E+00  0.0000E+00  0.0000E+00
    -32.026  0.0000E+00  0.0000E+00  0.0000E+00  0.0000E+00  0.0000E+00  0.0000E+00  0.0000E+00  0.0000E+00  0.0000E+00  0.0000E+00  0.0000E+00  0.0000E+00  0.0000E+00  0.0000E+00  0.0000E+00  0.0000E+00  0.0000E+00  0.0000E+00
    -31.827  0.0000E+00  0.0000E+00  0.0000E+00  0.0000E+00  0.0000E+00  0.0000E+00  0.0000E+00  0.0000E+00  0.0000E+00  0.0000E+00  0.0000E+00  0.0000E+00  0.0000E+00  0.0000E+00  0.0000E+00  0.0000E+00  0.0000E+00  0.0000E+00
    -31.629  0.0000E+00  0.0000E+00  0.0000E+00  0.0000E+00  0.0000E+00  0.0000E+00  0.0000E+00  0.0000E+00  0.0000E+00  0.0000E+00  0.0000E+00  0.0000E+00  0.0000E+00  0.0000E+00  0.0000E+00  0.0000E+00  0.0000E+00  0.0000E+00
    -31.430  0.0000E+00  0.0000E+00  0.0000E+00  0.0000E+00  0.0000E+00  0.0000E+00  0.0000E+00  0.0000E+00  0.0000E+00  0.0000E+00  0.0000E+00  0.0000E+00  0.0000E+00  0.0000E+00  0.0000E+00  0.0000E+00  0.0000E+00  0.0000E+00
    -31.231  0.0000E+00  0.0000E+00  0.0000E+00  0.0000E+00  0.0000E+00  0.0000E+00  0.0000E+00  0.0000E+00  0.0000E+00  0.0000E+00  0.0000E+00  0.0000E+00  0.0000E+00  0.0000E+00  0.0000E+00  0.0000E+00  0.0000E+00  0.0000E+00
    -31.033  0.0000E+00  0.0000E+00  0.0000E+00  0.0000E+00  0.0000E+00  0.0000E+00  0.0000E+00  0.0000E+00  0.0000E+00  0.0000E+00  0.0000E+00  0.0000E+00  0.0000E+00  0.0000E+00  0.0000E+00  0.0000E+00  0.0000E+00  0.0000E+00
    -30.834  0.0000E+00  0.0000E+00  0.0000E+00  0.0000E+00  0.0000E+00  0.0000E+00  0.0000E+00  0.0000E+00  0.0000E+00  0.0000E+00  0.0000E+00  0.0000E+00  0.0000E+00  0.0000E+00  0.0000E+00  0.0000E+00  0.0000E+00  0.0000E+00