   4   4   1   0
  0.2301247E+02  0.4514169E-09  0.4515676E-09  0.4515676E-09  0.5000000E-15
  1.000000000000000E-004
  CAR 
 unknown system                          
     12.69023730    -46.18084723  301      6.18768820      1.00000000
    -46.181  0.0000E+00  0.0000E+00  0.0000E+00  0.0000E+00
    -45.985  0.0000E+00  0.0000E+00  0.0000E+00  0.0000E+00
    -45.788  0.0000E+00  0.0000E+00  0.0000E+00  0.0000E+00
    -45.592  0.0000E+00  0.0000E+00  0.0000E+00  0.0000E+00
    -45.396  0.0000E+00  0.0000E+00  0.0000E+00  0.0000E+00
    -45.200  0.0000E+00  0.0000E+00  0.0000E+00  0.0000E+00
    -45.003  0.0000E+00  0.0000E+00  0.0000E+00  0.0000E+00
    -44.807  0.0000E+00  0.0000E+00  0.0000E+00  0.0000E+00
    -44.611  0.0000E+00  0.0000E+00  0.0000E+00  0.0000E+00
    -44.415  0.0000E+00  0.0000E+00  0.0000E+00  0.0000E+00
    -44.218  0.0000E+00  0.0000E+00  0.0000E+00  0.0000E+00
    -44.022  0.1616E-03  0.1609E-03  0.3171E-04  0.3158E-04
    -43.826  0.8008E-02  0.7976E-02  0.1603E-02  0.1597E-02
    -43.630  0.3751E+00  0.3737E+00  0.7520E-01  0.7493E-01
    -43.434  0.3717E+01  0.3715E+01  0.8046E+00  0.8040E+00
    -43.237  0.9714E+00  0.9745E+00  0.9952E+00  0.9952E+00
    -43.041  0.0000E+00  0.0000E+00  0.1000E+01  0.1000E+01
    -42.845  0.0000E+00  0.0000E+00  0.1000E+01  0.1000E+01
    -42.649  0.0000E+00  0.0000E+00  0.1000E+01  0.1000E+01
    -42.452  0.0000E+00  0.0000E+00  0.1000E+01  0.1000E+01
    -42.256  0.0000E+00  0.0000E+00  0.1000E+01  0.1000E+01
    -42.060  0.0000E+00  0.0000E+00  0.1000E+01  0.1000E+01
    -41.864  0.0000E+00  0.0000E+00  0.1000E+01  0.1000E+01
    -41.667  0.0000E+00  0.0000E+00  0.1000E+01  0.1000E+01
    -41.471  0.0000E+00  0.0000E+00  0.1000E+01  0.1000E+01
    -41.275  0.0000E+00  0.0000E+00  0.1000E+01  0.1000E+01
    -41.079  0.0000E+00  0.0000E+00  0.1000E+01  0.1000E+01
    -40.882  0.0000E+00  0.0000E+00  0.1000E+01  0.1000E+01
    -40.686  0.0000E+00  0.0000E+00  0.1000E+01  0.1000E+01
    -40.490  0.0000E+00  0.0000E+00  0.1000E+01  0.1000E+01
    -40.294  0.0000E+00  0.0000E+00  0.1000E+01  0.1000E+01
    -40.098  0.0000E+00  0.0000E+00  0.1000E+01  0.1000E+01
    -39.901  0.0000E+00  0.0000E+00  0.1000E+01  0.1000E+01
    -39.705  0.0000E+00  0.0000E+00  0.1000E+01  0.1000E+01
    -39.509  0.0000E+00  0.0000E+00  0.1000E+01  0.1000E+01
    -39.313  0.0000E+00  0.0000E+00  0.1000E+01  0.1000E+01
    -39.116  0.0000E+00  0.0000E+00  0.1000E+01  0.1000E+01
    -38.920  0.0000E+00  0.0000E+00  0.1000E+01  0.1000E+01
    -38.724  0.0000E+00  0.0000E+00  0.1000E+01  0.1000E+01
    -38.528  0.0000E+00  0.0000E+00  0.1000E+01  0.1000E+01
    -38.331  0.0000E+00  0.0000E+00  0.1000E+01  0.1000E+01
    -38.135  0.0000E+00  0.0000E+00  0.1000E+01  0.1000E+01
    -37.939  0.0000E+00  0.0000E+00  0.1000E+01  0.1000E+01
    -37.743  0.0000E+00  0.0000E+00  0.1000E+01  0.1000E+01
    -37.546  0.0000E+00  0.0000E+00  0.1000E+01  0.1000E+01
    -37.350  0.0000E+00  0.0000E+00  0.1000E+01  0.1000E+01
    -37.154  0.0000E+00  0.0000E+00  0.1000E+01  0.1000E+01
    -36.958  0.0000E+00  0.0000E+00  0.1000E+01  0.1000E+01
    -36.761  0.0000E+00  0.0000E+00  0.1000E+01  0.1000E+01
    -36.565  0.0000E+00  0.0000E+00  0.1000E+01  0.1000E+01
    -36.369  0.0000E+00  0.0000E+00  0.1000E+01  0.1000E+01
    -36.173  0.0000E+00  0.0000E+00  0.1000E+01  0.1000E+01
    -35.977  0.0000E+00  0.0000E+00  0.1000E+01  0.1000E+01
    -35.780  0.0000E+00  0.0000E+00  0.1000E+01  0.1000E+01
    -35.584  0.0000E+00  0.0000E+00  0.1000E+01  0.1000E+01
    -35.388  0.0000E+00  0.0000E+00  0.1000E+01  0.1000E+01
    -35.192  0.0000E+00  0.0000E+00  0.1000E+01  0.1000E+01
    -34.995  0.0000E+00  0.0000E+00  0.1000E+01  0.1000E+01
    -34.799  0.0000E+00  0.0000E+00  0.1000E+01  0.1000E+01
    -34.603  0.0000E+00  0.0000E+00  0.1000E+01  0.1000E+01
    -34.407  0.0000E+00  0.0000E+00  0.1000E+01  0.1000E+01
    -34.210  0.0000E+00  0.0000E+00  0.1000E+01  0.1000E+01
    -34.014  0.0000E+00  0.0000E+00  0.1000E+01  0.1000E+01
    -33.818  0.0000E+00  0.0000E+00  0.1000E+01  0.1000E+01
    -33.622  0.0000E+00  0.0000E+00  0.1000E+01  0.1000E+01
    -33.425  0.0000E+00  0.0000E+00  0.1000E+01  0.1000E+01
    -33.229  0.0000E+00  0.0000E+00  0.1000E+01  0.1000E+01
    -33.033  0.0000E+00  0.0000E+00  0.1000E+01  0.1000E+01
    -32.837  0.0000E+00  0.0000E+00  0.1000E+01  0.1000E+01
    -32.640  0.0000E+00  0.0000E+00  0.1000E+01  0.1000E+01
    -32.444  0.0000E+00  0.0000E+00  0.1000E+01  0.1000E+01
    -32.248  0.0000E+00  0.0000E+00  0.1000E+01  0.1000E+01
    -32.052  0.0000E+00  0.0000E+00  0.1000E+01  0.1000E+01
    -31.856  0.0000E+00  0.0000E+00  0.1000E+01  0.1000E+01
    -31.659  0.0000E+00  0.0000E+00  0.1000E+01  0.1000E+01
    -31.463  0.0000E+00  0.0000E+00  0.1000E+01  0.1000E+01
    -31.267  0.0000E+00  0.0000E+00  0.1000E+01  0.1000E+01
    -31.071  0.0000E+00  0.0000E+00  0.1000E+01  0.1000E+01
    -30.874  0.0000E+00  0.0000E+00  0.1000E+01  0.1000E+01
    -30.678  0.0000E+00  0.0000E+00  0.1000E+01  0.1000E+01
    -30.482  0.0000E+00  0.0000E+00  0.1000E+01  0.1000E+01
    -30.286  0.0000E+00  0.0000E+00  0.1000E+01  0.1000E+01
    -30.089  0.0000E+00  0.0000E+00  0.1000E+01  0.1000E+01
    -29.893  0.0000E+00  0.0000E+00  0.1000E+01  0.1000E+01
    -29.697  0.0000E+00  0.0000E+00  0.1000E+01  0.1000E+01
    -29.501  0.0000E+00  0.0000E+00  0.1000E+01  0.1000E+01
    -29.304  0.0000E+00  0.0000E+00  0.1000E+01  0.1000E+01
    -29.108  0.0000E+00  0.0000E+00  0.1000E+01  0.1000E+01
    -28.912  0.0000E+00  0.0000E+00  0.1000E+01  0.1000E+01
    -28.716  0.0000E+00  0.0000E+00  0.1000E+01  0.1000E+01
    -28.520  0.0000E+00  0.0000E+00  0.1000E+01  0.1000E+01
    -28.323  0.0000E+00  0.0000E+00  0.1000E+01  0.1000E+01
    -28.127  0.0000E+00  0.0000E+00  0.1000E+01  0.1000E+01
    -27.931  0.0000E+00  0.0000E+00  0.1000E+01  0.1000E+01
    -27.735  0.0000E+00  0.0000E+00  0.1000E+01  0.1000E+01
    -27.538  0.0000E+00  0.0000E+00  0.1000E+01  0.1000E+01
    -27.342  0.0000E+00  0.0000E+00  0.1000E+01  0.1000E+01
    -27.146  0.0000E+00  0.0000E+00  0.1000E+01  0.1000E+01
    -26.950  0.0000E+00  0.0000E+00  0.1000E+01  0.1000E+01
    -26.753  0.0000E+00  0.0000E+00  0.1000E+01  0.1000E+01
    -26.557  0.0000E+00  0.0000E+00  0.1000E+01  0.1000E+01
    -26.361  0.0000E+00  0.0000E+00  0.1000E+01  0.1000E+01
    -26.165  0.0000E+00  0.0000E+00  0.1000E+01  0.1000E+01
    -25.968  0.0000E+00  0.0000E+00  0.1000E+01  0.1000E+01
    -25.772  0.0000E+00  0.0000E+00  0.1000E+01  0.1000E+01
    -25.576  0.0000E+00  0.0000E+00  0.1000E+01  0.1000E+01
    -25.380  0.0000E+00  0.0000E+00  0.1000E+01  0.1000E+01
    -25.183  0.0000E+00  0.0000E+00  0.1000E+01  0.1000E+01
    -24.987  0.0000E+00  0.0000E+00  0.1000E+01  0.1000E+01
    -24.791  0.0000E+00  0.0000E+00  0.1000E+01  0.1000E+01
    -24.595  0.0000E+00  0.0000E+00  0.1000E+01  0.1000E+01
    -24.399  0.0000E+00  0.0000E+00  0.1000E+01  0.1000E+01
    -24.202  0.0000E+00  0.0000E+00  0.1000E+01  0.1000E+01
    -24.006  0.0000E+00  0.0000E+00  0.1000E+01  0.1000E+01
    -23.810  0.0000E+00  0.0000E+00  0.1000E+01  0.1000E+01
    -23.614  0.0000E+00  0.0000E+00  0.1000E+01  0.1000E+01
    -23.417  0.0000E+00  0.0000E+00  0.1000E+01  0.1000E+01
    -23.221  0.0000E+00  0.0000E+00  0.1000E+01  0.1000E+01
    -23.025  0.0000E+00  0.0000E+00  0.1000E+01  0.1000E+01
    -22.829  0.0000E+00  0.0000E+00  0.1000E+01  0.1000E+01
    -22.632  0.0000E+00  0.0000E+00  0.1000E+01  0.1000E+01
    -22.436  0.0000E+00  0.0000E+00  0.1000E+01  0.1000E+01
    -22.240  0.0000E+00  0.0000E+00  0.1000E+01  0.1000E+01
    -22.044  0.2570E-03  0.2577E-03  0.1000E+01  0.1000E+01
    -21.847  0.1275E-01  0.1278E-01  0.1003E+01  0.1003E+01
    -21.651  0.6186E+00  0.6202E+00  0.1124E+01  0.1124E+01
    -21.455  0.9828E+01  0.9835E+01  0.3053E+01  0.3054E+01
    -21.259  0.4690E+01  0.4681E+01  0.3973E+01  0.3973E+01
    -21.063  0.0000E+00  0.0000E+00  0.4000E+01  0.4000E+01
    -20.866  0.0000E+00  0.0000E+00  0.4000E+01  0.4000E+01
    -20.670  0.0000E+00  0.0000E+00  0.4000E+01  0.4000E+01
    -20.474  0.0000E+00  0.0000E+00  0.4000E+01  0.4000E+01
    -20.278  0.0000E+00  0.0000E+00  0.4000E+01  0.4000E+01
    -20.081  0.0000E+00  0.0000E+00  0.4000E+01  0.4000E+01
    -19.885  0.0000E+00  0.0000E+00  0.4000E+01  0.4000E+01
    -19.689  0.0000E+00  0.0000E+00  0.4000E+01  0.4000E+01
    -19.493  0.0000E+00  0.0000E+00  0.4000E+01  0.4000E+01
    -19.296  0.0000E+00  0.0000E+00  0.4000E+01  0.4000E+01
    -19.100  0.0000E+00  0.0000E+00  0.4000E+01  0.4000E+01
    -18.904  0.0000E+00  0.0000E+00  0.4000E+01  0.4000E+01
    -18.708  0.0000E+00  0.0000E+00  0.4000E+01  0.4000E+01
    -18.511  0.0000E+00  0.0000E+00  0.4000E+01  0.4000E+01
    -18.315  0.0000E+00  0.0000E+00  0.4000E+01  0.4000E+01
    -18.119  0.0000E+00  0.0000E+00  0.4000E+01  0.4000E+01
    -17.923  0.0000E+00  0.0000E+00  0.4000E+01  0.4000E+01
    -17.726  0.0000E+00  0.0000E+00  0.4000E+01  0.4000E+01
    -17.530  0.0000E+00  0.0000E+00  0.4000E+01  0.4000E+01
    -17.334  0.0000E+00  0.0000E+00  0.4000E+01  0.4000E+01
    -17.138  0.0000E+00  0.0000E+00  0.4000E+01  0.4000E+01
    -16.942  0.0000E+00  0.0000E+00  0.4000E+01  0.4000E+01
    -16.745  0.0000E+00  0.0000E+00  0.4000E+01  0.4000E+01
    -16.549  0.0000E+00  0.0000E+00  0.4000E+01  0.4000E+01
    -16.353  0.0000E+00  0.0000E+00  0.4000E+01  0.4000E+01
    -16.157  0.0000E+00  0.0000E+00  0.4000E+01  0.4000E+01
    -15.960  0.0000E+00  0.0000E+00  0.4000E+01  0.4000E+01
    -15.764  0.0000E+00  0.0000E+00  0.4000E+01  0.4000E+01
    -15.568  0.0000E+00  0.0000E+00  0.4000E+01  0.4000E+01
    -15.372  0.0000E+00  0.0000E+00  0.4000E+01  0.4000E+01
    -15.175  0.0000E+00  0.0000E+00  0.4000E+01  0.4000E+01
    -14.979  0.0000E+00  0.0000E+00  0.4000E+01  0.4000E+01
    -14.783  0.0000E+00  0.0000E+00  0.4000E+01  0.4000E+01
    -14.587  0.0000E+00  0.0000E+00  0.4000E+01  0.4000E+01
    -14.390  0.0000E+00  0.0000E+00  0.4000E+01  0.4000E+01
    -14.194  0.0000E+00  0.0000E+00  0.4000E+01  0.4000E+01
    -13.998  0.0000E+00  0.0000E+00  0.4000E+01  0.4000E+01
    -13.802  0.0000E+00  0.0000E+00  0.4000E+01  0.4000E+01
    -13.606  0.0000E+00  0.0000E+00  0.4000E+01  0.4000E+01
    -13.409  0.0000E+00  0.0000E+00  0.4000E+01  0.4000E+01
    -13.213  0.0000E+00  0.0000E+00  0.4000E+01  0.4000E+01
    -13.017  0.0000E+00  0.0000E+00  0.4000E+01  0.4000E+01
    -12.821  0.0000E+00  0.0000E+00  0.4000E+01  0.4000E+01
    -12.624  0.0000E+00  0.0000E+00  0.4000E+01  0.4000E+01
    -12.428  0.0000E+00  0.0000E+00  0.4000E+01  0.4000E+01
    -12.232  0.0000E+00  0.0000E+00  0.4000E+01  0.4000E+01
    -12.036  0.0000E+00  0.0000E+00  0.4000E+01  0.4000E+01
    -11.839  0.0000E+00  0.0000E+00  0.4000E+01  0.4000E+01
    -11.643  0.0000E+00  0.0000E+00  0.4000E+01  0.4000E+01
    -11.447  0.0000E+00  0.0000E+00  0.4000E+01  0.4000E+01
    -11.251  0.0000E+00  0.0000E+00  0.4000E+01  0.4000E+01
    -11.054  0.0000E+00  0.0000E+00  0.4000E+01  0.4000E+01
    -10.858  0.0000E+00  0.0000E+00  0.4000E+01  0.4000E+01
    -10.662  0.0000E+00  0.0000E+00  0.4000E+01  0.4000E+01
    -10.466  0.0000E+00  0.0000E+00  0.4000E+01  0.4000E+01
    -10.269  0.0000E+00  0.0000E+00  0.4000E+01  0.4000E+01
    -10.073  0.0000E+00  0.0000E+00  0.4000E+01  0.4000E+01
     -9.877  0.0000E+00  0.0000E+00  0.4000E+01  0.4000E+01
     -9.681  0.0000E+00  0.0000E+00  0.4000E+01  0.4000E+01
     -9.485  0.0000E+00  0.0000E+00  0.4000E+01  0.4000E+01
     -9.288  0.0000E+00  0.0000E+00  0.4000E+01  0.4000E+01
     -9.092  0.0000E+00  0.0000E+00  0.4000E+01  0.4000E+01
     -8.896  0.0000E+00  0.0000E+00  0.4000E+01  0.4000E+01
     -8.700  0.0000E+00  0.0000E+00  0.4000E+01  0.4000E+01
     -8.503  0.0000E+00  0.0000E+00  0.4000E+01  0.4000E+01
     -8.307  0.0000E+00  0.0000E+00  0.4000E+01  0.4000E+01
     -8.111  0.0000E+00  0.0000E+00  0.4000E+01  0.4000E+01
     -7.915  0.0000E+00  0.0000E+00  0.4000E+01  0.4000E+01
     -7.718  0.0000E+00  0.0000E+00  0.4000E+01  0.4000E+01
     -7.522  0.0000E+00  0.0000E+00  0.4000E+01  0.4000E+01
     -7.326  0.0000E+00  0.0000E+00  0.4000E+01  0.4000E+01
     -7.130  0.0000E+00  0.0000E+00  0.4000E+01  0.4000E+01
     -6.933  0.0000E+00  0.0000E+00  0.4000E+01  0.4000E+01
     -6.737  0.0000E+00  0.0000E+00  0.4000E+01  0.4000E+01
     -6.541  0.0000E+00  0.0000E+00  0.4000E+01  0.4000E+01
     -6.345  0.0000E+00  0.0000E+00  0.4000E+01  0.4000E+01
     -6.149  0.0000E+00  0.0000E+00  0.4000E+01  0.4000E+01
     -5.952  0.0000E+00  0.0000E+00  0.4000E+01  0.4000E+01
     -5.756  0.0000E+00  0.0000E+00  0.4000E+01  0.4000E+01
     -5.560  0.0000E+00  0.0000E+00  0.4000E+01  0.4000E+01
     -5.364  0.0000E+00  0.0000E+00  0.4000E+01  0.4000E+01
     -5.167  0.0000E+00  0.0000E+00  0.4000E+01  0.4000E+01
     -4.971  0.0000E+00  0.0000E+00  0.4000E+01  0.4000E+01
     -4.775  0.0000E+00  0.0000E+00  0.4000E+01  0.4000E+01
     -4.579  0.0000E+00  0.0000E+00  0.4000E+01  0.4000E+01
     -4.382  0.0000E+00  0.0000E+00  0.4000E+01  0.4000E+01
     -4.186  0.0000E+00  0.0000E+00  0.4000E+01  0.4000E+01
     -3.990  0.0000E+00  0.0000E+00  0.4000E+01  0.4000E+01
     -3.794  0.0000E+00  0.0000E+00  0.4000E+01  0.4000E+01
     -3.597  0.0000E+00  0.0000E+00  0.4000E+01  0.4000E+01
     -3.401  0.0000E+00  0.0000E+00  0.4000E+01  0.4000E+01
     -3.205  0.0000E+00  0.0000E+00  0.4000E+01  0.4000E+01
     -3.009  0.2701E-06  0.2689E-06  0.4000E+01  0.4000E+01
     -2.812  0.2550E-04  0.2539E-04  0.4000E+01  0.4000E+01
     -2.616  0.1245E-02  0.1240E-02  0.4000E+01  0.4000E+01
     -2.420  0.3083E-01  0.3075E-01  0.4006E+01  0.4006E+01
     -2.224  0.1192E+00  0.1191E+00  0.4030E+01  0.4030E+01
     -2.028  0.1831E+00  0.1830E+00  0.4066E+01  0.4066E+01
     -1.831  0.2293E+00  0.2293E+00  0.4111E+01  0.4111E+01
     -1.635  0.2846E+00  0.2845E+00  0.4167E+01  0.4167E+01
     -1.439  0.2966E+00  0.2966E+00  0.4225E+01  0.4225E+01
     -1.243  0.3860E+00  0.3859E+00  0.4301E+01  0.4301E+01
     -1.046  0.3890E+00  0.3889E+00  0.4378E+01  0.4378E+01
     -0.850  0.4826E+00  0.4826E+00  0.4473E+01  0.4473E+01
     -0.654  0.5268E+00  0.5268E+00  0.4576E+01  0.4576E+01
     -0.458  0.4362E+00  0.4362E+00  0.4662E+01  0.4662E+01
     -0.261  0.4507E+00  0.4508E+00  0.4751E+01  0.4751E+01
     -0.065  0.5135E+00  0.5133E+00  0.4852E+01  0.4852E+01
      0.131  0.4905E+00  0.4905E+00  0.4949E+01  0.4949E+01
      0.327  0.4952E+00  0.4952E+00  0.5047E+01  0.5046E+01
      0.524  0.5764E+00  0.5763E+00  0.5160E+01  0.5160E+01
      0.720  0.5325E+00  0.5325E+00  0.5265E+01  0.5265E+01
      0.916  0.5994E+00  0.5993E+00  0.5383E+01  0.5383E+01
      1.112  0.8197E+00  0.8194E+00  0.5545E+01  0.5545E+01
      1.308  0.9661E+00  0.9661E+00  0.5735E+01  0.5735E+01
      1.505  0.9271E+00  0.9272E+00  0.5917E+01  0.5917E+01
      1.701  0.8444E+00  0.8446E+00  0.6084E+01  0.6084E+01
      1.897  0.7864E+00  0.7863E+00  0.6239E+01  0.6239E+01
      2.093  0.6803E+00  0.6805E+00  0.6374E+01  0.6373E+01
      2.290  0.5310E+00  0.5310E+00  0.6479E+01  0.6479E+01
      2.486  0.6248E+00  0.6247E+00  0.6602E+01  0.6602E+01
      2.682  0.5855E+00  0.5855E+00  0.6717E+01  0.6717E+01
      2.878  0.6039E+00  0.6039E+00  0.6837E+01  0.6837E+01
      3.075  0.7266E+00  0.7264E+00  0.6980E+01  0.6980E+01
      3.271  0.9395E+00  0.9395E+00  0.7165E+01  0.7164E+01
      3.467  0.8553E+00  0.8554E+00  0.7333E+01  0.7333E+01
      3.663  0.8759E+00  0.8757E+00  0.7505E+01  0.7505E+01
      3.860  0.1107E+01  0.1107E+01  0.7723E+01  0.7723E+01
      4.056  0.1432E+01  0.1432E+01  0.8005E+01  0.8005E+01
      4.252  0.1719E+01  0.1720E+01  0.8344E+01  0.8344E+01
      4.448  0.1886E+01  0.1886E+01  0.8715E+01  0.8715E+01
      4.645  0.1771E+01  0.1771E+01  0.9064E+01  0.9064E+01
      4.841  0.1265E+01  0.1266E+01  0.9314E+01  0.9314E+01
      5.037  0.9500E+00  0.9500E+00  0.9502E+01  0.9502E+01
      5.233  0.8890E+00  0.8891E+00  0.9677E+01  0.9677E+01
      5.429  0.7891E+00  0.7891E+00  0.9832E+01  0.9833E+01
      5.626  0.8136E+00  0.8138E+00  0.9993E+01  0.9993E+01
      5.822  0.8059E+00  0.8057E+00  0.1015E+02  0.1015E+02
      6.018  0.8389E+00  0.8391E+00  0.1032E+02  0.1032E+02
      6.214  0.1083E+01  0.1083E+01  0.1053E+02  0.1053E+02
      6.411  0.1333E+01  0.1333E+01  0.1079E+02  0.1079E+02
      6.607  0.1471E+01  0.1471E+01  0.1108E+02  0.1108E+02
      6.803  0.1311E+01  0.1312E+01  0.1134E+02  0.1134E+02
      6.999  0.1912E+01  0.1913E+01  0.1172E+02  0.1172E+02
      7.196  0.2308E+01  0.2310E+01  0.1217E+02  0.1217E+02
      7.392  0.2600E+01  0.2601E+01  0.1268E+02  0.1268E+02
      7.588  0.2299E+01  0.2298E+01  0.1314E+02  0.1314E+02
      7.784  0.1869E+01  0.1867E+01  0.1351E+02  0.1351E+02
      7.981  0.1579E+01  0.1579E+01  0.1382E+02  0.1382E+02
      8.177  0.1653E+01  0.1657E+01  0.1414E+02  0.1414E+02
      8.373  0.1388E+01  0.1392E+01  0.1442E+02  0.1442E+02
      8.569  0.1483E+01  0.1479E+01  0.1471E+02  0.1471E+02
      8.765  0.1358E+01  0.1359E+01  0.1498E+02  0.1498E+02
      8.962  0.1825E+01  0.1853E+01  0.1534E+02  0.1534E+02
      9.158  0.1725E+01  0.1711E+01  0.1567E+02  0.1568E+02
      9.354  0.1110E+01  0.1125E+01  0.1589E+02  0.1590E+02
      9.550  0.4267E+00  0.4045E+00  0.1598E+02  0.1598E+02
      9.747  0.7448E-01  0.6018E-01  0.1599E+02  0.1599E+02
      9.943  0.9571E-02  0.9459E-02  0.1600E+02  0.1600E+02
     10.139  0.1824E-01  0.1829E-01  0.1600E+02  0.1600E+02
     10.335  0.1348E-02  0.1335E-02  0.1600E+02  0.1600E+02
     10.532  0.0000E+00  0.0000E+00  0.1600E+02  0.1600E+02
     10.728  0.0000E+00  0.0000E+00  0.1600E+02  0.1600E+02
     10.924  0.0000E+00  0.0000E+00  0.1600E+02  0.1600E+02
     11.120  0.0000E+00  0.0000E+00  0.1600E+02  0.1600E+02
     11.317  0.0000E+00  0.0000E+00  0.1600E+02  0.1600E+02
     11.513  0.0000E+00  0.0000E+00  0.1600E+02  0.1600E+02
     11.709  0.0000E+00  0.0000E+00  0.1600E+02  0.1600E+02
     11.905  0.0000E+00  0.0000E+00  0.1600E+02  0.1600E+02
     12.102  0.0000E+00  0.0000E+00  0.1600E+02  0.1600E+02
     12.298  0.0000E+00  0.0000E+00  0.1600E+02  0.1600E+02
     12.494  0.0000E+00  0.0000E+00  0.1600E+02  0.1600E+02
     12.690  0.0000E+00  0.0000E+00  0.1600E+02  0.1600E+02
     12.69023730    -46.18084723  301      6.18768820      1.00000000
    -46.181  0.0000E+00  0.0000E+00  0.0000E+00  0.0000E+00  0.0000E+00  0.0000E+00  0.0000E+00  0.0000E+00  0.0000E+00  0.0000E+00  0.0000E+00  0.0000E+00  0.0000E+00  0.0000E+00  0.0000E+00  0.0000E+00  0.0000E+00  0.0000E+00
    -45.985  0.0000E+00  0.0000E+00  0.0000E+00  0.0000E+00  0.0000E+00  0.0000E+00  0.0000E+00  0.0000E+00  0.0000E+00  0.0000E+00  0.0000E+00  0.0000E+00  0.0000E+00  0.0000E+00  0.0000E+00  0.0000E+00  0.0000E+00  0.0000E+00
    -45.788  0.0000E+00  0.0000E+00  0.0000E+00  0.0000E+00  0.0000E+00  0.0000E+00  0.0000E+00  0.0000E+00  0.0000E+00  0.0000E+00  0.0000E+00  0.0000E+00  0.0000E+00  0.0000E+00  0.0000E+00  0.0000E+00  0.0000E+00  0.0000E+00
    -45.592  0.0000E+00  0.0000E+00  0.0000E+00  0.0000E+00  0.0000E+00  0.0000E+00  0.0000E+00  0.0000E+00  0.0000E+00  0.0000E+00  0.0000E+00  0.0000E+00  0.0000E+00  0.0000E+00  0.0000E+00  0.0000E+00  0.0000E+00  0.0000E+00
    -45.396  0.0000E+00  0.0000E+00  0.0000E+00  0.0000E+00  0.0000E+00  0.0000E+00  0.0000E+00  0.0000E+00  0.0000E+00  0.0000E+00  0.0000E+00  0.0000E+00  0.0000E+00  0.0000E+00  0.0000E+00  0.0000E+00  0.0000E+00  0.0000E+00
    -45.200  0.0000E+00  0.0000E+00  0.0000E+00  0.0000E+00  0.0000E+00  0.0000E+00  0.0000E+00  0.0000E+00  0.0000E+00  0.0000E+00  0.0000E+00  0.0000E+00  0.0000E+00  0.0000E+00  0.0000E+00  0.0000E+00  0.0000E+00  0.0000E+00
    -45.003  0.0000E+00  0.0000E+00  0.0000E+00  0.0000E+00  0.0000E+00  0.0000E+00  0.0000E+00  0.0000E+00  0.0000E+00  0.0000E+00  0.0000E+00  0.0000E+00  0.0000E+00  0.0000E+00  0.0000E+00  0.0000E+00  0.0000E+00  0.0000E+00
    -44.807  0.0000E+00  0.0000E+00  0.0000E+00  0.0000E+00  0.0000E+00  0.0000E+00  0.0000E+00  0.0000E+00  0.0000E+00  0.0000E+00  0.0000E+00  0.0000E+00  0.0000E+00  0.0000E+00  0.0000E+00  0.0000E+00  0.0000E+00  0.0000E+00
    -44.611  0.0000E+00  0.0000E+00  0.0000E+00  0.0000E+00  0.0000E+00  0.0000E+00  0.0000E+00  0.0000E+00  0.0000E+00  0.0000E+00  0.0000E+00  0.0000E+00  0.0000E+00  0.0000E+00  0.0000E+00  0.0000E+00  0.0000E+00  0.0000E+00
    -44.415  0.0000E+00  0.0000E+00  0.0000E+00  0.0000E+00  0.0000E+00  0.0000E+00  0.0000E+00  0.0000E+00  0.0000E+00  0.0000E+00  0.0000E+00  0.0000E+00  0.0000E+00  0.0000E+00  0.0000E+00  0.0000E+00  0.0000E+00  0.0000E+00
    -44.218  0.0000E+00  0.0000E+00  0.0000E+00  0.0000E+00  0.0000E+00  0.0000E+00  0.0000E+00  0.0000E+00  0.0000E+00  0.0000E+00  0.0000E+00  0.0000E+00  0.0000E+00  0.0000E+00  0.0000E+00  0.0000E+00  0.0000E+00  0.0000E+00
    -44.022  0.1605E-03  0.1598E-03  0.2341E-13  0.2279E-13  0.2341E-13  0.2279E-13  0.2363E-13  0.2302E-13  0.2175E-15  0.1751E-15  0.2248E-15  0.1836E-15  0.2666E-13  0.2386E-13  0.2175E-15  0.1751E-15  0.2641E-13  0.2382E-13
    -43.826  0.7953E-02  0.7922E-02  0.1160E-11  0.1130E-11  0.1160E-11  0.1130E-11  0.1171E-11  0.1141E-11  0.1078E-13  0.8677E-14  0.1114E-13  0.9099E-14  0.1321E-11  0.1182E-11  0.1078E-13  0.8677E-14  0.1309E-11  0.1181E-11
    -43.630  0.3725E+00  0.3711E+00  0.5434E-10  0.5292E-10  0.5434E-10  0.5292E-10  0.5485E-10  0.5344E-10  0.5049E-12  0.4065E-12  0.5218E-12  0.4263E-12  0.6188E-10  0.5539E-10  0.5049E-12  0.4065E-12  0.6130E-10  0.5531E-10
    -43.434  0.3691E+01  0.3690E+01  0.5384E-09  0.5260E-09  0.5384E-09  0.5260E-09  0.5435E-09  0.5312E-09  0.5012E-11  0.4044E-11  0.5179E-11  0.4241E-11  0.6133E-09  0.5507E-09  0.5012E-11  0.4044E-11  0.6073E-09  0.5497E-09
    -43.237  0.9647E+00  0.9678E+00  0.1407E-09  0.1379E-09  0.1407E-09  0.1379E-09  0.1420E-09  0.1393E-09  0.1312E-11  0.1061E-11  0.1356E-11  0.1113E-11  0.1603E-09  0.1445E-09  0.1312E-11  0.1061E-11  0.1587E-09  0.1441E-09
    -43.041  0.0000E+00  0.0000E+00  0.0000E+00  0.0000E+00  0.0000E+00  0.0000E+00  0.0000E+00  0.0000E+00  0.0000E+00  0.0000E+00  0.0000E+00  0.0000E+00  0.0000E+00  0.0000E+00  0.0000E+00  0.0000E+00  0.0000E+00  0.0000E+00
    -42.845  0.0000E+00  0.0000E+00  0.0000E+00  0.0000E+00  0.0000E+00  0.0000E+00  0.0000E+00  0.0000E+00  0.0000E+00  0.0000E+00  0.0000E+00  0.0000E+00  0.0000E+00  0.0000E+00  0.0000E+00  0.0000E+00  0.0000E+00  0.0000E+00
    -42.649  0.0000E+00  0.0000E+00  0.0000E+00  0.0000E+00  0.0000E+00  0.0000E+00  0.0000E+00  0.0000E+00  0.0000E+00  0.0000E+00  0.0000E+00  0.0000E+00  0.0000E+00  0.0000E+00  0.0000E+00  0.0000E+00  0.0000E+00  0.0000E+00
    -42.452  0.0000E+00  0.0000E+00  0.0000E+00  0.0000E+00  0.0000E+00  0.0000E+00  0.0000E+00  0.0000E+00  0.0000E+00  0.0000E+00  0.0000E+00  0.0000E+00  0.0000E+00  0.0000E+00  0.0000E+00  0.0000E+00  0.0000E+00  0.0000E+00
    -42.256  0.0000E+00  0.0000E+00  0.0000E+00  0.0000E+00  0.0000E+00  0.0000E+00  0.0000E+00  0.0000E+00  0.0000E+00  0.0000E+00  0.0000E+00  0.0000E+00  0.0000E+00  0.0000E+00  0.0000E+00  0.0000E+00  0.0000E+00  0.0000E+00
    -42.060  0.0000E+00  0.0000E+00  0.0000E+00  0.0000E+00  0.0000E+00  0.0000E+00  0.0000E+00  0.0000E+00  0.0000E+00  0.0000E+00  0.0000E+00  0.0000E+00  0.0000E+00  0.0000E+00  0.0000E+00  0.0000E+00  0.0000E+00  0.0000E+00
    -41.864  0.0000E+00  0.0000E+00  0.0000E+00  0.0000E+00  0.0000E+00  0.0000E+00  0.0000E+00  0.0000E+00  0.0000E+00  0.0000E+00  0.0000E+00  0.0000E+00  0.0000E+00  0.0000E+00  0.0000E+00  0.0000E+00  0.0000E+00  0.0000E+00
    -41.667  0.0000E+00  0.0000E+00  0.0000E+00  0.0000E+00  0.0000E+00  0.0000E+00  0.0000E+00  0.0000E+00  0.0000E+00  0.0000E+00  0.0000E+00  0.0000E+00  0.0000E+00  0.0000E+00  0.0000E+00  0.0000E+00  0.0000E+00  0.0000E+00
    -41.471  0.0000E+00  0.0000E+00  0.0000E+00  0.0000E+00  0.0000E+00  0.0000E+00  0.0000E+00  0.0000E+00  0.0000E+00  0.0000E+00  0.0000E+00  0.0000E+00  0.0000E+00  0.0000E+00  0.0000E+00  0.0000E+00  0.0000E+00  0.0000E+00
    -41.275  0.0000E+00  0.0000E+00  0.0000E+00  0.0000E+00  0.0000E+00  0.0000E+00  0.0000E+00  0.0000E+00  0.0000E+00  0.0000E+00  0.0000E+00  0.0000E+00  0.0000E+00  0.0000E+00  0.0000E+00  0.0000E+00  0.0000E+00  0.0000E+00
    -41.079  0.0000E+00  0.0000E+00  0.0000E+00  0.0000E+00  0.0000E+00  0.0000E+00  0.0000E+00  0.0000E+00  0.0000E+00  0.0000E+00  0.0000E+00  0.0000E+00  0.0000E+00  0.0000E+00  0.0000E+00  0.0000E+00  0.0000E+00  0.0000E+00
    -40.882  0.0000E+00  0.0000E+00  0.0000E+00  0.0000E+00  0.0000E+00  0.0000E+00  0.0000E+00  0.0000E+00  0.0000E+00  0.0000E+00  0.0000E+00  0.0000E+00  0.0000E+00  0.0000E+00  0.0000E+00  0.0000E+00  0.0000E+00  0.0000E+00
    -40.686  0.0000E+00  0.0000E+00  0.0000E+00  0.0000E+00  0.0000E+00  0.0000E+00  0.0000E+00  0.0000E+00  0.0000E+00  0.0000E+00  0.0000E+00  0.0000E+00  0.0000E+00  0.0000E+00  0.0000E+00  0.0000E+00  0.0000E+00  0.0000E+00
    -40.490  0.0000E+00  0.0000E+00  0.0000E+00  0.0000E+00  0.0000E+00  0.0000E+00  0.0000E+00  0.0000E+00  0.0000E+00  0.0000E+00  0.0000E+00  0.0000E+00  0.0000E+00  0.0000E+00  0.0000E+00  0.0000E+00  0.0000E+00  0.0000E+00
    -40.294  0.0000E+00  0.0000E+00  0.0000E+00  0.0000E+00  0.0000E+00  0.0000E+00  0.0000E+00  0.0000E+00  0.0000E+00  0.0000E+00  0.0000E+00  0.0000E+00  0.0000E+00  0.0000E+00  0.0000E+00  0.0000E+00  0.0000E+00  0.0000E+00
    -40.098  0.0000E+00  0.0000E+00  0.0000E+00  0.0000E+00  0.0000E+00  0.0000E+00  0.0000E+00  0.0000E+00  0.0000E+00  0.0000E+00  0.0000E+00  0.0000E+00  0.0000E+00  0.0000E+00  0.0000E+00  0.0000E+00  0.0000E+00  0.0000E+00
    -39.901  0.0000E+00  0.0000E+00  0.0000E+00  0.0000E+00  0.0000E+00  0.0000E+00  0.0000E+00  0.0000E+00  0.0000E+00  0.0000E+00  0.0000E+00  0.0000E+00  0.0000E+00  0.0000E+00  0.0000E+00  0.0000E+00  0.0000E+00  0.0000E+00
    -39.705  0.0000E+00  0.0000E+00  0.0000E+00  0.0000E+00  0.0000E+00  0.0000E+00  0.0000E+00  0.0000E+00  0.0000E+00  0.0000E+00  0.0000E+00  0.0000E+00  0.0000E+00  0.0000E+00  0.0000E+00  0.0000E+00  0.0000E+00  0.0000E+00
    -39.509  0.0000E+00  0.0000E+00  0.0000E+00  0.0000E+00  0.0000E+00  0.0000E+00  0.0000E+00  0.0000E+00  0.0000E+00  0.0000E+00  0.0000E+00  0.0000E+00  0.0000E+00  0.0000E+00  0.0000E+00  0.0000E+00  0.0000E+00  0.0000E+00
    -39.313  0.0000E+00  0.0000E+00  0.0000E+00  0.0000E+00  0.0000E+00  0.0000E+00  0.0000E+00  0.0000E+00  0.0000E+00  0.0000E+00  0.0000E+00  0.0000E+00  0.0000E+00  0.0000E+00  0.0000E+00  0.0000E+00  0.0000E+00  0.0000E+00
    -39.116  0.0000E+00  0.0000E+00  0.0000E+00  0.0000E+00  0.0000E+00  0.0000E+00  0.0000E+00  0.0000E+00  0.0000E+00  0.0000E+00  0.0000E+00  0.0000E+00  0.0000E+00  0.0000E+00  0.0000E+00  0.0000E+00  0.0000E+00  0.0000E+00
    -38.920  0.0000E+00  0.0000E+00  0.0000E+00  0.0000E+00  0.0000E+00  0.0000E+00  0.0000E+00  0.0000E+00  0.0000E+00  0.0000E+00  0.0000E+00  0.0000E+00  0.0000E+00  0.0000E+00  0.0000E+00  0.0000E+00  0.0000E+00  0.0000E+00
    -38.724  0.0000E+00  0.0000E+00  0.0000E+00  0.0000E+00  0.0000E+00  0.0000E+00  0.0000E+00  0.0000E+00  0.0000E+00  0.0000E+00  0.0000E+00  0.0000E+00  0.0000E+00  0.0000E+00  0.0000E+00  0.0000E+00  0.0000E+00  0.0000E+00
    -38.528  0.0000E+00  0.0000E+00  0.0000E+00  0.0000E+00  0.0000E+00  0.0000E+00  0.0000E+00  0.0000E+00  0.0000E+00  0.0000E+00  0.0000E+00  0.0000E+00  0.0000E+00  0.0000E+00  0.0000E+00  0.0000E+00  0.0000E+00  0.0000E+00
    -38.331  0.0000E+00  0.0000E+00  0.0000E+00  0.0000E+00  0.0000E+00  0.0000E+00  0.0000E+00  0.0000E+00  0.0000E+00  0.0000E+00  0.0000E+00  0.0000E+00  0.0000E+00  0.0000E+00  0.0000E+00  0.0000E+00  0.0000E+00  0.0000E+00
    -38.135  0.0000E+00  0.0000E+00  0.0000E+00  0.0000E+00  0.0000E+00  0.0000E+00  0.0000E+00  0.0000E+00  0.0000E+00  0.0000E+00  0.0000E+00  0.0000E+00  0.0000E+00  0.0000E+00  0.0000E+00  0.0000E+00  0.0000E+00  0.0000E+00
    -37.939  0.0000E+00  0.0000E+00  0.0000E+00  0.0000E+00  0.0000E+00  0.0000E+00  0.0000E+00  0.0000E+00  0.0000E+00  0.0000E+00  0.0000E+00  0.0000E+00  0.0000E+00  0.0000E+00  0.0000E+00  0.0000E+00  0.0000E+00  0.0000E+00
    -37.743  0.0000E+00  0.0000E+00  0.0000E+00  0.0000E+00  0.0000E+00  0.0000E+00  0.0000E+00  0.0000E+00  0.0000E+00  0.0000E+00  0.0000E+00  0.0000E+00  0.0000E+00  0.0000E+00  0.0000E+00  0.0000E+00  0.0000E+00  0.0000E+00
    -37.546  0.0000E+00  0.0000E+00  0.0000E+00  0.0000E+00  0.0000E+00  0.0000E+00  0.0000E+00  0.0000E+00  0.0000E+00  0.0000E+00  0.0000E+00  0.0000E+00  0.0000E+00  0.0000E+00  0.0000E+00  0.0000E+00  0.0000E+00  0.0000E+00
    -37.350  0.0000E+00  0.0000E+00  0.0000E+00  0.0000E+00  0.0000E+00  0.0000E+00  0.0000E+00  0.0000E+00  0.0000E+00  0.0000E+00  0.0000E+00  0.0000E+00  0.0000E+00  0.0000E+00  0.0000E+00  0.0000E+00  0.0000E+00  0.0000E+00
    -37.154  0.0000E+00  0.0000E+00  0.0000E+00  0.0000E+00  0.0000E+00  0.0000E+00  0.0000E+00  0.0000E+00  0.0000E+00  0.0000E+00  0.0000E+00  0.0000E+00  0.0000E+00  0.0000E+00  0.0000E+00  0.0000E+00  0.0000E+00  0.0000E+00
    -36.958  0.0000E+00  0.0000E+00  0.0000E+00  0.0000E+00  0.0000E+00  0.0000E+00  0.0000E+00  0.0000E+00  0.0000E+00  0.0000E+00  0.0000E+00  0.0000E+00  0.0000E+00  0.0000E+00  0.0000E+00  0.0000E+00  0.0000E+00  0.0000E+00
    -36.761  0.0000E+00  0.0000E+00  0.0000E+00  0.0000E+00  0.0000E+00  0.0000E+00  0.0000E+00  0.0000E+00  0.0000E+00  0.0000E+00  0.0000E+00  0.0000E+00  0.0000E+00  0.0000E+00  0.0000E+00  0.0000E+00  0.0000E+00  0.0000E+00
    -36.565  0.0000E+00  0.0000E+00  0.0000E+00  0.0000E+00  0.0000E+00  0.0000E+00  0.0000E+00  0.0000E+00  0.0000E+00  0.0000E+00  0.0000E+00  0.0000E+00  0.0000E+00  0.0000E+00  0.0000E+00  0.0000E+00  0.0000E+00  0.0000E+00
    -36.369  0.0000E+00  0.0000E+00  0.0000E+00  0.0000E+00  0.0000E+00  0.0000E+00  0.0000E+00  0.0000E+00  0.0000E+00  0.0000E+00  0.0000E+00  0.0000E+00  0.0000E+00  0.0000E+00  0.0000E+00  0.0000E+00  0.0000E+00  0.0000E+00