   4   4   1   0
  0.1346321E+02  0.3775487E-09  0.3776747E-09  0.3776747E-09  0.5000000E-15
  1.000000000000000E-004
  CAR 
 unknown system                          
     21.10793950    -38.85168493  301     12.03375026      1.00000000
    -38.852  0.0000E+00  0.0000E+00  0.0000E+00  0.0000E+00
    -38.652  0.0000E+00  0.0000E+00  0.0000E+00  0.0000E+00
    -38.452  0.0000E+00  0.0000E+00  0.0000E+00  0.0000E+00
    -38.252  0.0000E+00  0.0000E+00  0.0000E+00  0.0000E+00
    -38.052  0.0000E+00  0.0000E+00  0.0000E+00  0.0000E+00
    -37.852  0.0000E+00  0.0000E+00  0.0000E+00  0.0000E+00
    -37.652  0.0000E+00  0.0000E+00  0.0000E+00  0.0000E+00
    -37.453  0.0000E+00  0.0000E+00  0.0000E+00  0.0000E+00
    -37.253  0.0000E+00  0.0000E+00  0.0000E+00  0.0000E+00
    -37.053  0.0000E+00  0.0000E+00  0.0000E+00  0.0000E+00
    -36.853  0.0000E+00  0.0000E+00  0.0000E+00  0.0000E+00
    -36.653  0.1029E-03  0.1024E-03  0.2057E-04  0.2048E-04
    -36.453  0.5495E-02  0.5470E-02  0.1119E-02  0.1114E-02
    -36.253  0.2818E+00  0.2806E+00  0.5745E-01  0.5720E-01
    -36.054  0.3551E+01  0.3548E+01  0.7672E+00  0.7664E+00
    -35.854  0.1137E+01  0.1141E+01  0.9944E+00  0.9944E+00
    -35.654  0.0000E+00  0.0000E+00  0.1000E+01  0.1000E+01
    -35.454  0.0000E+00  0.0000E+00  0.1000E+01  0.1000E+01
    -35.254  0.0000E+00  0.0000E+00  0.1000E+01  0.1000E+01
    -35.054  0.0000E+00  0.0000E+00  0.1000E+01  0.1000E+01
    -34.854  0.0000E+00  0.0000E+00  0.1000E+01  0.1000E+01
    -34.655  0.0000E+00  0.0000E+00  0.1000E+01  0.1000E+01
    -34.455  0.0000E+00  0.0000E+00  0.1000E+01  0.1000E+01
    -34.255  0.0000E+00  0.0000E+00  0.1000E+01  0.1000E+01
    -34.055  0.0000E+00  0.0000E+00  0.1000E+01  0.1000E+01
    -33.855  0.0000E+00  0.0000E+00  0.1000E+01  0.1000E+01
    -33.655  0.0000E+00  0.0000E+00  0.1000E+01  0.1000E+01
    -33.455  0.0000E+00  0.0000E+00  0.1000E+01  0.1000E+01
    -33.255  0.0000E+00  0.0000E+00  0.1000E+01  0.1000E+01
    -33.056  0.0000E+00  0.0000E+00  0.1000E+01  0.1000E+01
    -32.856  0.0000E+00  0.0000E+00  0.1000E+01  0.1000E+01
    -32.656  0.0000E+00  0.0000E+00  0.1000E+01  0.1000E+01
    -32.456  0.0000E+00  0.0000E+00  0.1000E+01  0.1000E+01
    -32.256  0.0000E+00  0.0000E+00  0.1000E+01  0.1000E+01
    -32.056  0.0000E+00  0.0000E+00  0.1000E+01  0.1000E+01
    -31.856  0.0000E+00  0.0000E+00  0.1000E+01  0.1000E+01
    -31.657  0.0000E+00  0.0000E+00  0.1000E+01  0.1000E+01
    -31.457  0.0000E+00  0.0000E+00  0.1000E+01  0.1000E+01
    -31.257  0.0000E+00  0.0000E+00  0.1000E+01  0.1000E+01
    -31.057  0.0000E+00  0.0000E+00  0.1000E+01  0.1000E+01
    -30.857  0.0000E+00  0.0000E+00  0.1000E+01  0.1000E+01
    -30.657  0.0000E+00  0.0000E+00  0.1000E+01  0.1000E+01
    -30.457  0.0000E+00  0.0000E+00  0.1000E+01  0.1000E+01
    -30.257  0.0000E+00  0.0000E+00  0.1000E+01  0.1000E+01
    -30.058  0.0000E+00  0.0000E+00  0.1000E+01  0.1000E+01
    -29.858  0.0000E+00  0.0000E+00  0.1000E+01  0.1000E+01
    -29.658  0.0000E+00  0.0000E+00  0.1000E+01  0.1000E+01
    -29.458  0.0000E+00  0.0000E+00  0.1000E+01  0.1000E+01
    -29.258  0.0000E+00  0.0000E+00  0.1000E+01  0.1000E+01
    -29.058  0.0000E+00  0.0000E+00  0.1000E+01  0.1000E+01
    -28.858  0.0000E+00  0.0000E+00  0.1000E+01  0.1000E+01
    -28.659  0.0000E+00  0.0000E+00  0.1000E+01  0.1000E+01
    -28.459  0.0000E+00  0.0000E+00  0.1000E+01  0.1000E+01
    -28.259  0.0000E+00  0.0000E+00  0.1000E+01  0.1000E+01
    -28.059  0.0000E+00  0.0000E+00  0.1000E+01  0.1000E+01
    -27.859  0.0000E+00  0.0000E+00  0.1000E+01  0.1000E+01
    -27.659  0.0000E+00  0.0000E+00  0.1000E+01  0.1000E+01
    -27.459  0.0000E+00  0.0000E+00  0.1000E+01  0.1000E+01
    -27.259  0.0000E+00  0.0000E+00  0.1000E+01  0.1000E+01
    -27.060  0.0000E+00  0.0000E+00  0.1000E+01  0.1000E+01
    -26.860  0.0000E+00  0.0000E+00  0.1000E+01  0.1000E+01
    -26.660  0.0000E+00  0.0000E+00  0.1000E+01  0.1000E+01
    -26.460  0.0000E+00  0.0000E+00  0.1000E+01  0.1000E+01
    -26.260  0.0000E+00  0.0000E+00  0.1000E+01  0.1000E+01
    -26.060  0.0000E+00  0.0000E+00  0.1000E+01  0.1000E+01
    -25.860  0.0000E+00  0.0000E+00  0.1000E+01  0.1000E+01
    -25.661  0.0000E+00  0.0000E+00  0.1000E+01  0.1000E+01
    -25.461  0.0000E+00  0.0000E+00  0.1000E+01  0.1000E+01
    -25.261  0.0000E+00  0.0000E+00  0.1000E+01  0.1000E+01
    -25.061  0.0000E+00  0.0000E+00  0.1000E+01  0.1000E+01
    -24.861  0.0000E+00  0.0000E+00  0.1000E+01  0.1000E+01
    -24.661  0.0000E+00  0.0000E+00  0.1000E+01  0.1000E+01
    -24.461  0.0000E+00  0.0000E+00  0.1000E+01  0.1000E+01
    -24.262  0.0000E+00  0.0000E+00  0.1000E+01  0.1000E+01
    -24.062  0.0000E+00  0.0000E+00  0.1000E+01  0.1000E+01
    -23.862  0.0000E+00  0.0000E+00  0.1000E+01  0.1000E+01
    -23.662  0.0000E+00  0.0000E+00  0.1000E+01  0.1000E+01
    -23.462  0.0000E+00  0.0000E+00  0.1000E+01  0.1000E+01
    -23.262  0.0000E+00  0.0000E+00  0.1000E+01  0.1000E+01
    -23.062  0.0000E+00  0.0000E+00  0.1000E+01  0.1000E+01
    -22.862  0.0000E+00  0.0000E+00  0.1000E+01  0.1000E+01
    -22.663  0.0000E+00  0.0000E+00  0.1000E+01  0.1000E+01
    -22.463  0.0000E+00  0.0000E+00  0.1000E+01  0.1000E+01
    -22.263  0.0000E+00  0.0000E+00  0.1000E+01  0.1000E+01
    -22.063  0.0000E+00  0.0000E+00  0.1000E+01  0.1000E+01
    -21.863  0.0000E+00  0.0000E+00  0.1000E+01  0.1000E+01
    -21.663  0.0000E+00  0.0000E+00  0.1000E+01  0.1000E+01
    -21.463  0.0000E+00  0.0000E+00  0.1000E+01  0.1000E+01
    -21.264  0.0000E+00  0.0000E+00  0.1000E+01  0.1000E+01
    -21.064  0.0000E+00  0.0000E+00  0.1000E+01  0.1000E+01
    -20.864  0.0000E+00  0.0000E+00  0.1000E+01  0.1000E+01
    -20.664  0.0000E+00  0.0000E+00  0.1000E+01  0.1000E+01
    -20.464  0.0000E+00  0.0000E+00  0.1000E+01  0.1000E+01
    -20.264  0.0000E+00  0.0000E+00  0.1000E+01  0.1000E+01
    -20.064  0.0000E+00  0.0000E+00  0.1000E+01  0.1000E+01
    -19.864  0.0000E+00  0.0000E+00  0.1000E+01  0.1000E+01
    -19.665  0.0000E+00  0.0000E+00  0.1000E+01  0.1000E+01
    -19.465  0.0000E+00  0.0000E+00  0.1000E+01  0.1000E+01
    -19.265  0.0000E+00  0.0000E+00  0.1000E+01  0.1000E+01
    -19.065  0.0000E+00  0.0000E+00  0.1000E+01  0.1000E+01
    -18.865  0.0000E+00  0.0000E+00  0.1000E+01  0.1000E+01
    -18.665  0.0000E+00  0.0000E+00  0.1000E+01  0.1000E+01
    -18.465  0.0000E+00  0.0000E+00  0.1000E+01  0.1000E+01
    -18.266  0.0000E+00  0.0000E+00  0.1000E+01  0.1000E+01
    -18.066  0.0000E+00  0.0000E+00  0.1000E+01  0.1000E+01
    -17.866  0.0000E+00  0.0000E+00  0.1000E+01  0.1000E+01
    -17.666  0.0000E+00  0.0000E+00  0.1000E+01  0.1000E+01
    -17.466  0.0000E+00  0.0000E+00  0.1000E+01  0.1000E+01
    -17.266  0.0000E+00  0.0000E+00  0.1000E+01  0.1000E+01
    -17.066  0.0000E+00  0.0000E+00  0.1000E+01  0.1000E+01
    -16.866  0.0000E+00  0.0000E+00  0.1000E+01  0.1000E+01
    -16.667  0.0000E+00  0.0000E+00  0.1000E+01  0.1000E+01
    -16.467  0.0000E+00  0.0000E+00  0.1000E+01  0.1000E+01
    -16.267  0.0000E+00  0.0000E+00  0.1000E+01  0.1000E+01
    -16.067  0.0000E+00  0.0000E+00  0.1000E+01  0.1000E+01
    -15.867  0.0000E+00  0.0000E+00  0.1000E+01  0.1000E+01
    -15.667  0.0000E+00  0.0000E+00  0.1000E+01  0.1000E+01
    -15.467  0.0000E+00  0.0000E+00  0.1000E+01  0.1000E+01
    -15.268  0.0000E+00  0.0000E+00  0.1000E+01  0.1000E+01
    -15.068  0.1964E-03  0.1951E-03  0.1000E+01  0.1000E+01
    -14.868  0.1151E-01  0.1145E-01  0.1002E+01  0.1002E+01
    -14.668  0.5741E+00  0.5712E+00  0.1117E+01  0.1117E+01
    -14.468  0.7297E+01  0.7285E+01  0.2575E+01  0.2573E+01
    -14.268  0.6685E+01  0.6698E+01  0.3912E+01  0.3911E+01
    -14.068  0.3863E+00  0.3883E+00  0.3998E+01  0.3998E+01
    -13.869  0.0000E+00  0.0000E+00  0.4000E+01  0.4000E+01
    -13.669  0.0000E+00  0.0000E+00  0.4000E+01  0.4000E+01
    -13.469  0.0000E+00  0.0000E+00  0.4000E+01  0.4000E+01
    -13.269  0.0000E+00  0.0000E+00  0.4000E+01  0.4000E+01
    -13.069  0.0000E+00  0.0000E+00  0.4000E+01  0.4000E+01
    -12.869  0.0000E+00  0.0000E+00  0.4000E+01  0.4000E+01
    -12.669  0.0000E+00  0.0000E+00  0.4000E+01  0.4000E+01
    -12.469  0.0000E+00  0.0000E+00  0.4000E+01  0.4000E+01
    -12.270  0.0000E+00  0.0000E+00  0.4000E+01  0.4000E+01
    -12.070  0.0000E+00  0.0000E+00  0.4000E+01  0.4000E+01
    -11.870  0.0000E+00  0.0000E+00  0.4000E+01  0.4000E+01
    -11.670  0.0000E+00  0.0000E+00  0.4000E+01  0.4000E+01
    -11.470  0.0000E+00  0.0000E+00  0.4000E+01  0.4000E+01
    -11.270  0.0000E+00  0.0000E+00  0.4000E+01  0.4000E+01
    -11.070  0.0000E+00  0.0000E+00  0.4000E+01  0.4000E+01
    -10.871  0.0000E+00  0.0000E+00  0.4000E+01  0.4000E+01
    -10.671  0.0000E+00  0.0000E+00  0.4000E+01  0.4000E+01
    -10.471  0.0000E+00  0.0000E+00  0.4000E+01  0.4000E+01
    -10.271  0.0000E+00  0.0000E+00  0.4000E+01  0.4000E+01
    -10.071  0.0000E+00  0.0000E+00  0.4000E+01  0.4000E+01
     -9.871  0.0000E+00  0.0000E+00  0.4000E+01  0.4000E+01
     -9.671  0.0000E+00  0.0000E+00  0.4000E+01  0.4000E+01
     -9.471  0.0000E+00  0.0000E+00  0.4000E+01  0.4000E+01
     -9.272  0.0000E+00  0.0000E+00  0.4000E+01  0.4000E+01
     -9.072  0.0000E+00  0.0000E+00  0.4000E+01  0.4000E+01
     -8.872  0.0000E+00  0.0000E+00  0.4000E+01  0.4000E+01
     -8.672  0.0000E+00  0.0000E+00  0.4000E+01  0.4000E+01
     -8.472  0.0000E+00  0.0000E+00  0.4000E+01  0.4000E+01
     -8.272  0.0000E+00  0.0000E+00  0.4000E+01  0.4000E+01
     -8.072  0.0000E+00  0.0000E+00  0.4000E+01  0.4000E+01
     -7.873  0.0000E+00  0.0000E+00  0.4000E+01  0.4000E+01
     -7.673  0.0000E+00  0.0000E+00  0.4000E+01  0.4000E+01
     -7.473  0.0000E+00  0.0000E+00  0.4000E+01  0.4000E+01
     -7.273  0.0000E+00  0.0000E+00  0.4000E+01  0.4000E+01
     -7.073  0.0000E+00  0.0000E+00  0.4000E+01  0.4000E+01
     -6.873  0.0000E+00  0.0000E+00  0.4000E+01  0.4000E+01
     -6.673  0.0000E+00  0.0000E+00  0.4000E+01  0.4000E+01
     -6.473  0.0000E+00  0.0000E+00  0.4000E+01  0.4000E+01
     -6.274  0.0000E+00  0.0000E+00  0.4000E+01  0.4000E+01
     -6.074  0.0000E+00  0.0000E+00  0.4000E+01  0.4000E+01
     -5.874  0.0000E+00  0.0000E+00  0.4000E+01  0.4000E+01
     -5.674  0.0000E+00  0.0000E+00  0.4000E+01  0.4000E+01
     -5.474  0.0000E+00  0.0000E+00  0.4000E+01  0.4000E+01
     -5.274  0.0000E+00  0.0000E+00  0.4000E+01  0.4000E+01
     -5.074  0.0000E+00  0.0000E+00  0.4000E+01  0.4000E+01
     -4.875  0.0000E+00  0.0000E+00  0.4000E+01  0.4000E+01
     -4.675  0.0000E+00  0.0000E+00  0.4000E+01  0.4000E+01
     -4.475  0.0000E+00  0.0000E+00  0.4000E+01  0.4000E+01
     -4.275  0.0000E+00  0.0000E+00  0.4000E+01  0.4000E+01
     -4.075  0.0000E+00  0.0000E+00  0.4000E+01  0.4000E+01
     -3.875  0.0000E+00  0.0000E+00  0.4000E+01  0.4000E+01
     -3.675  0.0000E+00  0.0000E+00  0.4000E+01  0.4000E+01
     -3.476  0.0000E+00  0.0000E+00  0.4000E+01  0.4000E+01
     -3.276  0.0000E+00  0.0000E+00  0.4000E+01  0.4000E+01
     -3.076  0.0000E+00  0.0000E+00  0.4000E+01  0.4000E+01
     -2.876  0.0000E+00  0.0000E+00  0.4000E+01  0.4000E+01
     -2.676  0.0000E+00  0.0000E+00  0.4000E+01  0.4000E+01
     -2.476  0.0000E+00  0.0000E+00  0.4000E+01  0.4000E+01
     -2.276  0.0000E+00  0.0000E+00  0.4000E+01  0.4000E+01
     -2.076  0.0000E+00  0.0000E+00  0.4000E+01  0.4000E+01
     -1.877  0.0000E+00  0.0000E+00  0.4000E+01  0.4000E+01
     -1.677  0.0000E+00  0.0000E+00  0.4000E+01  0.4000E+01
     -1.477  0.0000E+00  0.0000E+00  0.4000E+01  0.4000E+01
     -1.277  0.0000E+00  0.0000E+00  0.4000E+01  0.4000E+01
     -1.077  0.0000E+00  0.0000E+00  0.4000E+01  0.4000E+01
     -0.877  0.0000E+00  0.0000E+00  0.4000E+01  0.4000E+01
     -0.677  0.0000E+00  0.0000E+00  0.4000E+01  0.4000E+01
     -0.478  0.0000E+00  0.0000E+00  0.4000E+01  0.4000E+01
     -0.278  0.0000E+00  0.0000E+00  0.4000E+01  0.4000E+01
     -0.078  0.1085E-05  0.1084E-05  0.4000E+01  0.4000E+01
      0.122  0.6034E-04  0.6016E-04  0.4000E+01  0.4000E+01
      0.322  0.2807E-02  0.2804E-02  0.4001E+01  0.4001E+01
      0.522  0.3338E-01  0.3337E-01  0.4007E+01  0.4007E+01
      0.722  0.7350E-01  0.7348E-01  0.4022E+01  0.4022E+01
      0.922  0.9655E-01  0.9655E-01  0.4041E+01  0.4041E+01
      1.121  0.1363E+00  0.1363E+00  0.4069E+01  0.4069E+01
      1.321  0.1486E+00  0.1486E+00  0.4098E+01  0.4098E+01
      1.521  0.1497E+00  0.1497E+00  0.4128E+01  0.4128E+01
      1.721  0.2184E+00  0.2184E+00  0.4172E+01  0.4172E+01
      1.921  0.1975E+00  0.1975E+00  0.4212E+01  0.4212E+01
      2.121  0.2336E+00  0.2336E+00  0.4258E+01  0.4258E+01
      2.321  0.2898E+00  0.2898E+00  0.4316E+01  0.4316E+01
      2.520  0.2698E+00  0.2698E+00  0.4371E+01  0.4371E+01
      2.720  0.3148E+00  0.3148E+00  0.4434E+01  0.4434E+01
      2.920  0.4240E+00  0.4239E+00  0.4519E+01  0.4519E+01
      3.120  0.4546E+00  0.4547E+00  0.4610E+01  0.4610E+01
      3.320  0.4477E+00  0.4476E+00  0.4700E+01  0.4700E+01
      3.520  0.4258E+00  0.4258E+00  0.4786E+01  0.4786E+01
      3.720  0.4428E+00  0.4428E+00  0.4875E+01  0.4875E+01
      3.920  0.3327E+00  0.3327E+00  0.4941E+01  0.4941E+01
      4.119  0.2717E+00  0.2718E+00  0.4996E+01  0.4996E+01
      4.319  0.2570E+00  0.2570E+00  0.5048E+01  0.5048E+01
      4.519  0.2614E+00  0.2614E+00  0.5101E+01  0.5101E+01
      4.719  0.3258E+00  0.3258E+00  0.5166E+01  0.5166E+01
      4.919  0.3743E+00  0.3743E+00  0.5241E+01  0.5241E+01
      5.119  0.2962E+00  0.2963E+00  0.5301E+01  0.5301E+01
      5.319  0.4315E+00  0.4314E+00  0.5387E+01  0.5387E+01
      5.518  0.5884E+00  0.5884E+00  0.5505E+01  0.5505E+01
      5.718  0.5590E+00  0.5589E+00  0.5617E+01  0.5617E+01
      5.918  0.7342E+00  0.7341E+00  0.5765E+01  0.5765E+01
      6.118  0.6664E+00  0.6664E+00  0.5899E+01  0.5898E+01
      6.318  0.7588E+00  0.7587E+00  0.6051E+01  0.6051E+01
      6.518  0.7886E+00  0.7886E+00  0.6209E+01  0.6209E+01
      6.718  0.6375E+00  0.6376E+00  0.6338E+01  0.6338E+01
      6.917  0.6209E+00  0.6209E+00  0.6462E+01  0.6462E+01
      7.117  0.5674E+00  0.5674E+00  0.6576E+01  0.6576E+01
      7.317  0.6071E+00  0.6070E+00  0.6698E+01  0.6698E+01
      7.517  0.7741E+00  0.7741E+00  0.6853E+01  0.6853E+01
      7.717  0.7058E+00  0.7058E+00  0.6995E+01  0.6995E+01
      7.917  0.7525E+00  0.7523E+00  0.7146E+01  0.7146E+01
      8.117  0.8485E+00  0.8486E+00  0.7316E+01  0.7316E+01
      8.317  0.6796E+00  0.6796E+00  0.7452E+01  0.7452E+01
      8.516  0.9147E+00  0.9146E+00  0.7635E+01  0.7635E+01
      8.716  0.1502E+01  0.1502E+01  0.7936E+01  0.7936E+01
      8.916  0.1672E+01  0.1672E+01  0.8271E+01  0.8271E+01
      9.116  0.1452E+01  0.1452E+01  0.8562E+01  0.8562E+01
      9.316  0.1399E+01  0.1399E+01  0.8843E+01  0.8843E+01
      9.516  0.1077E+01  0.1077E+01  0.9060E+01  0.9060E+01
      9.716  0.9829E+00  0.9830E+00  0.9257E+01  0.9257E+01
      9.915  0.7358E+00  0.7359E+00  0.9406E+01  0.9406E+01
     10.115  0.6697E+00  0.6697E+00  0.9541E+01  0.9540E+01
     10.315  0.5949E+00  0.5950E+00  0.9660E+01  0.9660E+01
     10.515  0.5614E+00  0.5613E+00  0.9773E+01  0.9773E+01
     10.715  0.5064E+00  0.5066E+00  0.9875E+01  0.9875E+01
     10.915  0.4385E+00  0.4383E+00  0.9963E+01  0.9962E+01
     11.115  0.5798E+00  0.5799E+00  0.1008E+02  0.1008E+02
     11.315  0.2053E+00  0.2054E+00  0.1012E+02  0.1012E+02
     11.514  0.3620E+00  0.3619E+00  0.1019E+02  0.1019E+02
     11.714  0.5500E+00  0.5500E+00  0.1030E+02  0.1030E+02
     11.914  0.5531E+00  0.5530E+00  0.1041E+02  0.1041E+02
     12.114  0.7281E+00  0.7281E+00  0.1056E+02  0.1056E+02
     12.314  0.7774E+00  0.7773E+00  0.1072E+02  0.1072E+02
     12.514  0.1006E+01  0.1006E+01  0.1092E+02  0.1092E+02
     12.714  0.6194E+00  0.6195E+00  0.1104E+02  0.1104E+02
     12.913  0.8108E+00  0.8107E+00  0.1121E+02  0.1121E+02
     13.113  0.7663E+00  0.7664E+00  0.1136E+02  0.1136E+02
     13.313  0.1032E+01  0.1032E+01  0.1157E+02  0.1157E+02
     13.513  0.8209E+00  0.8210E+00  0.1173E+02  0.1173E+02
     13.713  0.8929E+00  0.8928E+00  0.1191E+02  0.1191E+02
     13.913  0.1062E+01  0.1062E+01  0.1212E+02  0.1212E+02
     14.113  0.1306E+01  0.1306E+01  0.1238E+02  0.1238E+02
     14.313  0.1665E+01  0.1665E+01  0.1272E+02  0.1272E+02
     14.512  0.1314E+01  0.1314E+01  0.1298E+02  0.1298E+02
     14.712  0.9329E+00  0.9327E+00  0.1317E+02  0.1317E+02
     14.912  0.1093E+01  0.1093E+01  0.1339E+02  0.1339E+02
     15.112  0.9520E+00  0.9521E+00  0.1358E+02  0.1358E+02
     15.312  0.7677E+00  0.7677E+00  0.1374E+02  0.1374E+02
     15.512  0.1051E+01  0.1051E+01  0.1395E+02  0.1395E+02
     15.712  0.1178E+01  0.1178E+01  0.1418E+02  0.1418E+02
     15.911  0.8950E+00  0.8952E+00  0.1436E+02  0.1436E+02
     16.111  0.8156E+00  0.8163E+00  0.1453E+02  0.1453E+02
     16.311  0.9197E+00  0.9196E+00  0.1471E+02  0.1471E+02
     16.511  0.1012E+01  0.1013E+01  0.1492E+02  0.1492E+02
     16.711  0.9364E+00  0.9374E+00  0.1510E+02  0.1510E+02
     16.911  0.9714E+00  0.9692E+00  0.1530E+02  0.1530E+02
     17.111  0.9586E+00  0.9679E+00  0.1549E+02  0.1549E+02
     17.310  0.8709E+00  0.8648E+00  0.1567E+02  0.1567E+02
     17.510  0.6121E+00  0.6162E+00  0.1579E+02  0.1579E+02
     17.710  0.5764E+00  0.5920E+00  0.1591E+02  0.1591E+02
     17.910  0.3330E+00  0.3023E+00  0.1597E+02  0.1597E+02
     18.110  0.7829E-01  0.8673E-01  0.1599E+02  0.1599E+02
     18.310  0.4015E-01  0.4162E-01  0.1600E+02  0.1600E+02
     18.510  0.1147E-01  0.1174E-01  0.1600E+02  0.1600E+02
     18.710  0.9553E-03  0.9694E-03  0.1600E+02  0.1600E+02
     18.909  0.0000E+00  0.0000E+00  0.1600E+02  0.1600E+02
     19.109  0.0000E+00  0.0000E+00  0.1600E+02  0.1600E+02
     19.309  0.0000E+00  0.0000E+00  0.1600E+02  0.1600E+02
     19.509  0.0000E+00  0.0000E+00  0.1600E+02  0.1600E+02
     19.709  0.0000E+00  0.0000E+00  0.1600E+02  0.1600E+02
     19.909  0.0000E+00  0.0000E+00  0.1600E+02  0.1600E+02
     20.109  0.0000E+00  0.0000E+00  0.1600E+02  0.1600E+02
     20.308  0.0000E+00  0.0000E+00  0.1600E+02  0.1600E+02
     20.508  0.0000E+00  0.0000E+00  0.1600E+02  0.1600E+02
     20.708  0.0000E+00  0.0000E+00  0.1600E+02  0.1600E+02
     20.908  0.0000E+00  0.0000E+00  0.1600E+02  0.1600E+02
     21.108  0.0000E+00  0.0000E+00  0.1600E+02  0.1600E+02
     21.10793950    -38.85168493  301     12.03375026      1.00000000
    -38.852  0.0000E+00  0.0000E+00  0.0000E+00  0.0000E+00  0.0000E+00  0.0000E+00  0.0000E+00  0.0000E+00  0.0000E+00  0.0000E+00  0.0000E+00  0.0000E+00  0.0000E+00  0.0000E+00  0.0000E+00  0.0000E+00  0.0000E+00  0.0000E+00
    -38.652  0.0000E+00  0.0000E+00  0.0000E+00  0.0000E+00  0.0000E+00  0.0000E+00  0.0000E+00  0.0000E+00  0.0000E+00  0.0000E+00  0.0000E+00  0.0000E+00  0.0000E+00  0.0000E+00  0.0000E+00  0.0000E+00  0.0000E+00  0.0000E+00
    -38.452  0.0000E+00  0.0000E+00  0.0000E+00  0.0000E+00  0.0000E+00  0.0000E+00  0.0000E+00  0.0000E+00  0.0000E+00  0.0000E+00  0.0000E+00  0.0000E+00  0.0000E+00  0.0000E+00  0.0000E+00  0.0000E+00  0.0000E+00  0.0000E+00
    -38.252  0.0000E+00  0.0000E+00  0.0000E+00  0.0000E+00  0.0000E+00  0.0000E+00  0.0000E+00  0.0000E+00  0.0000E+00  0.0000E+00  0.0000E+00  0.0000E+00  0.0000E+00  0.0000E+00  0.0000E+00  0.0000E+00  0.0000E+00  0.0000E+00
    -38.052  0.0000E+00  0.0000E+00  0.0000E+00  0.0000E+00  0.0000E+00  0.0000E+00  0.0000E+00  0.0000E+00  0.0000E+00  0.0000E+00  0.0000E+00  0.0000E+00  0.0000E+00  0.0000E+00  0.0000E+00  0.0000E+00  0.0000E+00  0.0000E+00
    -37.852  0.0000E+00  0.0000E+00  0.0000E+00  0.0000E+00  0.0000E+00  0.0000E+00  0.0000E+00  0.0000E+00  0.0000E+00  0.0000E+00  0.0000E+00  0.0000E+00  0.0000E+00  0.0000E+00  0.0000E+00  0.0000E+00  0.0000E+00  0.0000E+00
    -37.652  0.0000E+00  0.0000E+00  0.0000E+00  0.0000E+00  0.0000E+00  0.0000E+00  0.0000E+00  0.0000E+00  0.0000E+00  0.0000E+00  0.0000E+00  0.0000E+00  0.0000E+00  0.0000E+00  0.0000E+00  0.0000E+00  0.0000E+00  0.0000E+00
    -37.453  0.0000E+00  0.0000E+00  0.0000E+00  0.0000E+00  0.0000E+00  0.0000E+00  0.0000E+00  0.0000E+00  0.0000E+00  0.0000E+00  0.0000E+00  0.0000E+00  0.0000E+00  0.0000E+00  0.0000E+00  0.0000E+00  0.0000E+00  0.0000E+00
    -37.253  0.0000E+00  0.0000E+00  0.0000E+00  0.0000E+00  0.0000E+00  0.0000E+00  0.0000E+00  0.0000E+00  0.0000E+00  0.0000E+00  0.0000E+00  0.0000E+00  0.0000E+00  0.0000E+00  0.0000E+00  0.0000E+00  0.0000E+00  0.0000E+00
    -37.053  0.0000E+00  0.0000E+00  0.0000E+00  0.0000E+00  0.0000E+00  0.0000E+00  0.0000E+00  0.0000E+00  0.0000E+00  0.0000E+00  0.0000E+00  0.0000E+00  0.0000E+00  0.0000E+00  0.0000E+00  0.0000E+00  0.0000E+00  0.0000E+00
    -36.853  0.0000E+00  0.0000E+00  0.0000E+00  0.0000E+00  0.0000E+00  0.0000E+00  0.0000E+00  0.0000E+00  0.0000E+00  0.0000E+00  0.0000E+00  0.0000E+00  0.0000E+00  0.0000E+00  0.0000E+00  0.0000E+00  0.0000E+00  0.0000E+00
    -36.653  0.1021E-03  0.1016E-03  0.7912E-11  0.7900E-11  0.7912E-11  0.7900E-11  0.7979E-11  0.7964E-11  0.9303E-14  0.9226E-14  0.9285E-14  0.9265E-14  0.8863E-11  0.8907E-11  0.9303E-14  0.9226E-14  0.9034E-11  0.9081E-11
    -36.453  0.5450E-02  0.5425E-02  0.4224E-09  0.4218E-09  0.4224E-09  0.4218E-09  0.4260E-09  0.4252E-09  0.4967E-12  0.4926E-12  0.4957E-12  0.4947E-12  0.4732E-09  0.4756E-09  0.4967E-12  0.4926E-12  0.4823E-09  0.4848E-09
    -36.253  0.2795E+00  0.2783E+00  0.2166E-07  0.2164E-07  0.2166E-07  0.2164E-07  0.2185E-07  0.2181E-07  0.2548E-10  0.2528E-10  0.2543E-10  0.2539E-10  0.2429E-07  0.2442E-07  0.2548E-10  0.2528E-10  0.2474E-07  0.2488E-07
    -36.054  0.3522E+01  0.3519E+01  0.2718E-06  0.2725E-06  0.2718E-06  0.2725E-06  0.2741E-06  0.2747E-06  0.3212E-09  0.3210E-09  0.3204E-09  0.3221E-09  0.3078E-06  0.3105E-06  0.3212E-09  0.3210E-09  0.3113E-06  0.3141E-06
    -35.854  0.1128E+01  0.1132E+01  0.8644E-07  0.8705E-07  0.8644E-07  0.8705E-07  0.8718E-07  0.8776E-07  0.1026E-09  0.1034E-09  0.1023E-09  0.1037E-09  0.9878E-07  0.1001E-06  0.1026E-09  0.1034E-09  0.9903E-07  0.1004E-06
    -35.654  0.0000E+00  0.0000E+00  0.0000E+00  0.0000E+00  0.0000E+00  0.0000E+00  0.0000E+00  0.0000E+00  0.0000E+00  0.0000E+00  0.0000E+00  0.0000E+00  0.0000E+00  0.0000E+00  0.0000E+00  0.0000E+00  0.0000E+00  0.0000E+00
    -35.454  0.0000E+00  0.0000E+00  0.0000E+00  0.0000E+00  0.0000E+00  0.0000E+00  0.0000E+00  0.0000E+00  0.0000E+00  0.0000E+00  0.0000E+00  0.0000E+00  0.0000E+00  0.0000E+00  0.0000E+00  0.0000E+00  0.0000E+00  0.0000E+00
    -35.254  0.0000E+00  0.0000E+00  0.0000E+00  0.0000E+00  0.0000E+00  0.0000E+00  0.0000E+00  0.0000E+00  0.0000E+00  0.0000E+00  0.0000E+00  0.0000E+00  0.0000E+00  0.0000E+00  0.0000E+00  0.0000E+00  0.0000E+00  0.0000E+00
    -35.054  0.0000E+00  0.0000E+00  0.0000E+00  0.0000E+00  0.0000E+00  0.0000E+00  0.0000E+00  0.0000E+00  0.0000E+00  0.0000E+00  0.0000E+00  0.0000E+00  0.0000E+00  0.0000E+00  0.0000E+00  0.0000E+00  0.0000E+00  0.0000E+00
    -34.854  0.0000E+00  0.0000E+00  0.0000E+00  0.0000E+00  0.0000E+00  0.0000E+00  0.0000E+00  0.0000E+00  0.0000E+00  0.0000E+00  0.0000E+00  0.0000E+00  0.0000E+00  0.0000E+00  0.0000E+00  0.0000E+00  0.0000E+00  0.0000E+00
    -34.655  0.0000E+00  0.0000E+00  0.0000E+00  0.0000E+00  0.0000E+00  0.0000E+00  0.0000E+00  0.0000E+00  0.0000E+00  0.0000E+00  0.0000E+00  0.0000E+00  0.0000E+00  0.0000E+00  0.0000E+00  0.0000E+00  0.0000E+00  0.0000E+00
    -34.455  0.0000E+00  0.0000E+00  0.0000E+00  0.0000E+00  0.0000E+00  0.0000E+00  0.0000E+00  0.0000E+00  0.0000E+00  0.0000E+00  0.0000E+00  0.0000E+00  0.0000E+00  0.0000E+00  0.0000E+00  0.0000E+00  0.0000E+00  0.0000E+00
    -34.255  0.0000E+00  0.0000E+00  0.0000E+00  0.0000E+00  0.0000E+00  0.0000E+00  0.0000E+00  0.0000E+00  0.0000E+00  0.0000E+00  0.0000E+00  0.0000E+00  0.0000E+00  0.0000E+00  0.0000E+00  0.0000E+00  0.0000E+00  0.0000E+00
    -34.055  0.0000E+00  0.0000E+00  0.0000E+00  0.0000E+00  0.0000E+00  0.0000E+00  0.0000E+00  0.0000E+00  0.0000E+00  0.0000E+00  0.0000E+00  0.0000E+00  0.0000E+00  0.0000E+00  0.0000E+00  0.0000E+00  0.0000E+00  0.0000E+00
    -33.855  0.0000E+00  0.0000E+00  0.0000E+00  0.0000E+00  0.0000E+00  0.0000E+00  0.0000E+00  0.0000E+00  0.0000E+00  0.0000E+00  0.0000E+00  0.0000E+00  0.0000E+00  0.0000E+00  0.0000E+00  0.0000E+00  0.0000E+00  0.0000E+00
    -33.655  0.0000E+00  0.0000E+00  0.0000E+00  0.0000E+00  0.0000E+00  0.0000E+00  0.0000E+00  0.0000E+00  0.0000E+00  0.0000E+00  0.0000E+00  0.0000E+00  0.0000E+00  0.0000E+00  0.0000E+00  0.0000E+00  0.0000E+00  0.0000E+00
    -33.455  0.0000E+00  0.0000E+00  0.0000E+00  0.0000E+00  0.0000E+00  0.0000E+00  0.0000E+00  0.0000E+00  0.0000E+00  0.0000E+00  0.0000E+00  0.0000E+00  0.0000E+00  0.0000E+00  0.0000E+00  0.0000E+00  0.0000E+00  0.0000E+00
    -33.255  0.0000E+00  0.0000E+00  0.0000E+00  0.0000E+00  0.0000E+00  0.0000E+00  0.0000E+00  0.0000E+00  0.0000E+00  0.0000E+00  0.0000E+00  0.0000E+00  0.0000E+00  0.0000E+00  0.0000E+00  0.0000E+00  0.0000E+00  0.0000E+00
    -33.056  0.0000E+00  0.0000E+00  0.0000E+00  0.0000E+00  0.0000E+00  0.0000E+00  0.0000E+00  0.0000E+00  0.0000E+00  0.0000E+00  0.0000E+00  0.0000E+00  0.0000E+00  0.0000E+00  0.0000E+00  0.0000E+00  0.0000E+00  0.0000E+00
    -32.856  0.0000E+00  0.0000E+00  0.0000E+00  0.0000E+00  0.0000E+00  0.0000E+00  0.0000E+00  0.0000E+00  0.0000E+00  0.0000E+00  0.0000E+00  0.0000E+00  0.0000E+00  0.0000E+00  0.0000E+00  0.0000E+00  0.0000E+00  0.0000E+00
    -32.656  0.0000E+00  0.0000E+00  0.0000E+00  0.0000E+00  0.0000E+00  0.0000E+00  0.0000E+00  0.0000E+00  0.0000E+00  0.0000E+00  0.0000E+00  0.0000E+00  0.0000E+00  0.0000E+00  0.0000E+00  0.0000E+00  0.0000E+00  0.0000E+00
    -32.456  0.0000E+00  0.0000E+00  0.0000E+00  0.0000E+00  0.0000E+00  0.0000E+00  0.0000E+00  0.0000E+00  0.0000E+00  0.0000E+00  0.0000E+00  0.0000E+00  0.0000E+00  0.0000E+00  0.0000E+00  0.0000E+00  0.0000E+00  0.0000E+00
    -32.256  0.0000E+00  0.0000E+00  0.0000E+00  0.0000E+00  0.0000E+00  0.0000E+00  0.0000E+00  0.0000E+00  0.0000E+00  0.0000E+00  0.0000E+00  0.0000E+00  0.0000E+00  0.0000E+00  0.0000E+00  0.0000E+00  0.0000E+00  0.0000E+00
    -32.056  0.0000E+00  0.0000E+00  0.0000E+00  0.0000E+00  0.0000E+00  0.0000E+00  0.0000E+00  0.0000E+00  0.0000E+00  0.0000E+00  0.0000E+00  0.0000E+00  0.0000E+00  0.0000E+00  0.0000E+00  0.0000E+00  0.0000E+00  0.0000E+00
    -31.856  0.0000E+00  0.0000E+00  0.0000E+00  0.0000E+00  0.0000E+00  0.0000E+00  0.0000E+00  0.0000E+00  0.0000E+00  0.0000E+00  0.0000E+00  0.0000E+00  0.0000E+00  0.0000E+00  0.0000E+00  0.0000E+00  0.0000E+00  0.0000E+00
    -31.657  0.0000E+00  0.0000E+00  0.0000E+00  0.0000E+00  0.0000E+00  0.0000E+00  0.0000E+00  0.0000E+00  0.0000E+00  0.0000E+00  0.0000E+00  0.0000E+00  0.0000E+00  0.0000E+00  0.0000E+00  0.0000E+00  0.0000E+00  0.0000E+00
    -31.457  0.0000E+00  0.0000E+00  0.0000E+00  0.0000E+00  0.0000E+00  0.0000E+00  0.0000E+00  0.0000E+00  0.0000E+00  0.0000E+00  0.0000E+00  0.0000E+00  0.0000E+00  0.0000E+00  0.0000E+00  0.0000E+00  0.0000E+00  0.0000E+00
    -31.257  0.0000E+00  0.0000E+00  0.0000E+00  0.0000E+00  0.0000E+00  0.0000E+00  0.0000E+00  0.0000E+00  0.0000E+00  0.0000E+00  0.0000E+00  0.0000E+00  0.0000E+00  0.0000E+00  0.0000E+00  0.0000E+00  0.0000E+00  0.0000E+00
    -31.057  0.0000E+00  0.0000E+00  0.0000E+00  0.0000E+00  0.0000E+00  0.0000E+00  0.0000E+00  0.0000E+00  0.0000E+00  0.0000E+00  0.0000E+00  0.0000E+00  0.0000E+00  0.0000E+00  0.0000E+00  0.0000E+00  0.0000E+00  0.0000E+00
    -30.857  0.0000E+00  0.0000E+00  0.0000E+00  0.0000E+00  0.0000E+00  0.0000E+00  0.0000E+00  0.0000E+00  0.0000E+00  0.0000E+00  0.0000E+00  0.0000E+00  0.0000E+00  0.0000E+00  0.0000E+00  0.0000E+00  0.0000E+00  0.0000E+00
    -30.657  0.0000E+00  0.0000E+00  0.0000E+00  0.0000E+00  0.0000E+00  0.0000E+00  0.0000E+00  0.0000E+00  0.0000E+00  0.0000E+00  0.0000E+00  0.0000E+00  0.0000E+00  0.0000E+00  0.0000E+00  0.0000E+00  0.0000E+00  0.0000E+00
    -30.457  0.0000E+00  0.0000E+00  0.0000E+00  0.0000E+00  0.0000E+00  0.0000E+00  0.0000E+00  0.0000E+00  0.0000E+00  0.0000E+00  0.0000E+00  0.0000E+00  0.0000E+00  0.0000E+00  0.0000E+00  0.0000E+00  0.0000E+00  0.0000E+00
    -30.257  0.0000E+00  0.0000E+00  0.0000E+00  0.0000E+00  0.0000E+00  0.0000E+00  0.0000E+00  0.0000E+00  0.0000E+00  0.0000E+00  0.0000E+00  0.0000E+00  0.0000E+00  0.0000E+00  0.0000E+00  0.0000E+00  0.0000E+00  0.0000E+00
    -30.058  0.0000E+00  0.0000E+00  0.0000E+00  0.0000E+00  0.0000E+00  0.0000E+00  0.0000E+00  0.0000E+00  0.0000E+00  0.0000E+00  0.0000E+00  0.0000E+00  0.0000E+00  0.0000E+00  0.0000E+00  0.0000E+00  0.0000E+00  0.0000E+00
    -29.858  0.0000E+00  0.0000E+00  0.0000E+00  0.0000E+00  0.0000E+00  0.0000E+00  0.0000E+00  0.0000E+00  0.0000E+00  0.0000E+00  0.0000E+00  0.0000E+00  0.0000E+00  0.0000E+00  0.0000E+00  0.0000E+00  0.0000E+00  0.0000E+00
    -29.658  0.0000E+00  0.0000E+00  0.0000E+00  0.0000E+00  0.0000E+00  0.0000E+00  0.0000E+00  0.0000E+00  0.0000E+00  0.0000E+00  0.0000E+00  0.0000E+00  0.0000E+00  0.0000E+00  0.0000E+00  0.0000E+00  0.0000E+00  0.0000E+00
    -29.458  0.0000E+00  0.0000E+00  0.0000E+00  0.0000E+00  0.0000E+00  0.0000E+00  0.0000E+00  0.0000E+00  0.0000E+00  0.0000E+00  0.0000E+00  0.0000E+00  0.0000E+00  0.0000E+00  0.0000E+00  0.0000E+00  0.0000E+00  0.0000E+00
    -29.258  0.0000E+00  0.0000E+00  0.0000E+00  0.0000E+00  0.0000E+00  0.0000E+00  0.0000E+00  0.0000E+00  0.0000E+00  0.0000E+00  0.0000E+00  0.0000E+00  0.0000E+00  0.0000E+00  0.0000E+00  0.0000E+00  0.0000E+00  0.0000E+00
    -29.058  0.0000E+00  0.0000E+00  0.0000E+00  0.0000E+00  0.0000E+00  0.0000E+00  0.0000E+00  0.0000E+00  0.0000E+00  0.0000E+00  0.0000E+00  0.0000E+00  0.0000E+00  0.0000E+00  0.0000E+00  0.0000E+00  0.0000E+00  0.0000E+00
    -28.858  0.0000E+00  0.0000E+00  0.0000E+00  0.0000E+00  0.0000E+00  0.0000E+00  0.0000E+00  0.0000E+00  0.0000E+00  0.0000E+00  0.0000E+00  0.0000E+00  0.0000E+00  0.0000E+00  0.0000E+00  0.0000E+00  0.0000E+00  0.0000E+00