   4   4   1   0
  0.1889282E+02  0.4226903E-09  0.4228315E-09  0.4228315E-09  0.5000000E-15
  1.000000000000000E-004
  CAR 
 unknown system                          
     15.49202493    -43.70535315  301      8.12793410      1.00000000
    -43.705  0.0000E+00  0.0000E+00  0.0000E+00  0.0000E+00
    -43.508  0.0000E+00  0.0000E+00  0.0000E+00  0.0000E+00
    -43.311  0.0000E+00  0.0000E+00  0.0000E+00  0.0000E+00
    -43.113  0.0000E+00  0.0000E+00  0.0000E+00  0.0000E+00
    -42.916  0.0000E+00  0.0000E+00  0.0000E+00  0.0000E+00
    -42.719  0.0000E+00  0.0000E+00  0.0000E+00  0.0000E+00
    -42.521  0.0000E+00  0.0000E+00  0.0000E+00  0.0000E+00
    -42.324  0.0000E+00  0.0000E+00  0.0000E+00  0.0000E+00
    -42.127  0.0000E+00  0.0000E+00  0.0000E+00  0.0000E+00
    -41.929  0.0000E+00  0.0000E+00  0.0000E+00  0.0000E+00
    -41.732  0.0000E+00  0.0000E+00  0.0000E+00  0.0000E+00
    -41.535  0.1463E-03  0.1477E-03  0.2887E-04  0.2915E-04
    -41.337  0.7414E-02  0.7486E-02  0.1492E-02  0.1506E-02
    -41.140  0.3562E+00  0.3594E+00  0.7177E-01  0.7242E-01
    -40.943  0.3691E+01  0.3695E+01  0.8000E+00  0.8016E+00
    -40.745  0.9890E+00  0.9815E+00  0.9952E+00  0.9952E+00
    -40.548  0.0000E+00  0.0000E+00  0.1000E+01  0.1000E+01
    -40.351  0.0000E+00  0.0000E+00  0.1000E+01  0.1000E+01
    -40.154  0.0000E+00  0.0000E+00  0.1000E+01  0.1000E+01
    -39.956  0.0000E+00  0.0000E+00  0.1000E+01  0.1000E+01
    -39.759  0.0000E+00  0.0000E+00  0.1000E+01  0.1000E+01
    -39.562  0.0000E+00  0.0000E+00  0.1000E+01  0.1000E+01
    -39.364  0.0000E+00  0.0000E+00  0.1000E+01  0.1000E+01
    -39.167  0.0000E+00  0.0000E+00  0.1000E+01  0.1000E+01
    -38.970  0.0000E+00  0.0000E+00  0.1000E+01  0.1000E+01
    -38.772  0.0000E+00  0.0000E+00  0.1000E+01  0.1000E+01
    -38.575  0.0000E+00  0.0000E+00  0.1000E+01  0.1000E+01
    -38.378  0.0000E+00  0.0000E+00  0.1000E+01  0.1000E+01
    -38.180  0.0000E+00  0.0000E+00  0.1000E+01  0.1000E+01
    -37.983  0.0000E+00  0.0000E+00  0.1000E+01  0.1000E+01
    -37.786  0.0000E+00  0.0000E+00  0.1000E+01  0.1000E+01
    -37.588  0.0000E+00  0.0000E+00  0.1000E+01  0.1000E+01
    -37.391  0.0000E+00  0.0000E+00  0.1000E+01  0.1000E+01
    -37.194  0.0000E+00  0.0000E+00  0.1000E+01  0.1000E+01
    -36.996  0.0000E+00  0.0000E+00  0.1000E+01  0.1000E+01
    -36.799  0.0000E+00  0.0000E+00  0.1000E+01  0.1000E+01
    -36.602  0.0000E+00  0.0000E+00  0.1000E+01  0.1000E+01
    -36.404  0.0000E+00  0.0000E+00  0.1000E+01  0.1000E+01
    -36.207  0.0000E+00  0.0000E+00  0.1000E+01  0.1000E+01
    -36.010  0.0000E+00  0.0000E+00  0.1000E+01  0.1000E+01
    -35.812  0.0000E+00  0.0000E+00  0.1000E+01  0.1000E+01
    -35.615  0.0000E+00  0.0000E+00  0.1000E+01  0.1000E+01
    -35.418  0.0000E+00  0.0000E+00  0.1000E+01  0.1000E+01
    -35.220  0.0000E+00  0.0000E+00  0.1000E+01  0.1000E+01
    -35.023  0.0000E+00  0.0000E+00  0.1000E+01  0.1000E+01
    -34.826  0.0000E+00  0.0000E+00  0.1000E+01  0.1000E+01
    -34.628  0.0000E+00  0.0000E+00  0.1000E+01  0.1000E+01
    -34.431  0.0000E+00  0.0000E+00  0.1000E+01  0.1000E+01
    -34.234  0.0000E+00  0.0000E+00  0.1000E+01  0.1000E+01
    -34.036  0.0000E+00  0.0000E+00  0.1000E+01  0.1000E+01
    -33.839  0.0000E+00  0.0000E+00  0.1000E+01  0.1000E+01
    -33.642  0.0000E+00  0.0000E+00  0.1000E+01  0.1000E+01
    -33.444  0.0000E+00  0.0000E+00  0.1000E+01  0.1000E+01
    -33.247  0.0000E+00  0.0000E+00  0.1000E+01  0.1000E+01
    -33.050  0.0000E+00  0.0000E+00  0.1000E+01  0.1000E+01
    -32.853  0.0000E+00  0.0000E+00  0.1000E+01  0.1000E+01
    -32.655  0.0000E+00  0.0000E+00  0.1000E+01  0.1000E+01
    -32.458  0.0000E+00  0.0000E+00  0.1000E+01  0.1000E+01
    -32.261  0.0000E+00  0.0000E+00  0.1000E+01  0.1000E+01
    -32.063  0.0000E+00  0.0000E+00  0.1000E+01  0.1000E+01
    -31.866  0.0000E+00  0.0000E+00  0.1000E+01  0.1000E+01
    -31.669  0.0000E+00  0.0000E+00  0.1000E+01  0.1000E+01
    -31.471  0.0000E+00  0.0000E+00  0.1000E+01  0.1000E+01
    -31.274  0.0000E+00  0.0000E+00  0.1000E+01  0.1000E+01
    -31.077  0.0000E+00  0.0000E+00  0.1000E+01  0.1000E+01
    -30.879  0.0000E+00  0.0000E+00  0.1000E+01  0.1000E+01
    -30.682  0.0000E+00  0.0000E+00  0.1000E+01  0.1000E+01
    -30.485  0.0000E+00  0.0000E+00  0.1000E+01  0.1000E+01
    -30.287  0.0000E+00  0.0000E+00  0.1000E+01  0.1000E+01
    -30.090  0.0000E+00  0.0000E+00  0.1000E+01  0.1000E+01
    -29.893  0.0000E+00  0.0000E+00  0.1000E+01  0.1000E+01
    -29.695  0.0000E+00  0.0000E+00  0.1000E+01  0.1000E+01
    -29.498  0.0000E+00  0.0000E+00  0.1000E+01  0.1000E+01
    -29.301  0.0000E+00  0.0000E+00  0.1000E+01  0.1000E+01
    -29.103  0.0000E+00  0.0000E+00  0.1000E+01  0.1000E+01
    -28.906  0.0000E+00  0.0000E+00  0.1000E+01  0.1000E+01
    -28.709  0.0000E+00  0.0000E+00  0.1000E+01  0.1000E+01
    -28.511  0.0000E+00  0.0000E+00  0.1000E+01  0.1000E+01
    -28.314  0.0000E+00  0.0000E+00  0.1000E+01  0.1000E+01
    -28.117  0.0000E+00  0.0000E+00  0.1000E+01  0.1000E+01
    -27.919  0.0000E+00  0.0000E+00  0.1000E+01  0.1000E+01
    -27.722  0.0000E+00  0.0000E+00  0.1000E+01  0.1000E+01
    -27.525  0.0000E+00  0.0000E+00  0.1000E+01  0.1000E+01
    -27.327  0.0000E+00  0.0000E+00  0.1000E+01  0.1000E+01
    -27.130  0.0000E+00  0.0000E+00  0.1000E+01  0.1000E+01
    -26.933  0.0000E+00  0.0000E+00  0.1000E+01  0.1000E+01
    -26.735  0.0000E+00  0.0000E+00  0.1000E+01  0.1000E+01
    -26.538  0.0000E+00  0.0000E+00  0.1000E+01  0.1000E+01
    -26.341  0.0000E+00  0.0000E+00  0.1000E+01  0.1000E+01
    -26.143  0.0000E+00  0.0000E+00  0.1000E+01  0.1000E+01
    -25.946  0.0000E+00  0.0000E+00  0.1000E+01  0.1000E+01
    -25.749  0.0000E+00  0.0000E+00  0.1000E+01  0.1000E+01
    -25.551  0.0000E+00  0.0000E+00  0.1000E+01  0.1000E+01
    -25.354  0.0000E+00  0.0000E+00  0.1000E+01  0.1000E+01
    -25.157  0.0000E+00  0.0000E+00  0.1000E+01  0.1000E+01
    -24.960  0.0000E+00  0.0000E+00  0.1000E+01  0.1000E+01
    -24.762  0.0000E+00  0.0000E+00  0.1000E+01  0.1000E+01
    -24.565  0.0000E+00  0.0000E+00  0.1000E+01  0.1000E+01
    -24.368  0.0000E+00  0.0000E+00  0.1000E+01  0.1000E+01
    -24.170  0.0000E+00  0.0000E+00  0.1000E+01  0.1000E+01
    -23.973  0.0000E+00  0.0000E+00  0.1000E+01  0.1000E+01
    -23.776  0.0000E+00  0.0000E+00  0.1000E+01  0.1000E+01
    -23.578  0.0000E+00  0.0000E+00  0.1000E+01  0.1000E+01
    -23.381  0.0000E+00  0.0000E+00  0.1000E+01  0.1000E+01
    -23.184  0.0000E+00  0.0000E+00  0.1000E+01  0.1000E+01
    -22.986  0.0000E+00  0.0000E+00  0.1000E+01  0.1000E+01
    -22.789  0.0000E+00  0.0000E+00  0.1000E+01  0.1000E+01
    -22.592  0.0000E+00  0.0000E+00  0.1000E+01  0.1000E+01
    -22.394  0.0000E+00  0.0000E+00  0.1000E+01  0.1000E+01
    -22.197  0.0000E+00  0.0000E+00  0.1000E+01  0.1000E+01
    -22.000  0.0000E+00  0.0000E+00  0.1000E+01  0.1000E+01
    -21.802  0.0000E+00  0.0000E+00  0.1000E+01  0.1000E+01
    -21.605  0.0000E+00  0.0000E+00  0.1000E+01  0.1000E+01
    -21.408  0.0000E+00  0.0000E+00  0.1000E+01  0.1000E+01
    -21.210  0.0000E+00  0.0000E+00  0.1000E+01  0.1000E+01
    -21.013  0.0000E+00  0.0000E+00  0.1000E+01  0.1000E+01
    -20.816  0.0000E+00  0.0000E+00  0.1000E+01  0.1000E+01
    -20.618  0.0000E+00  0.0000E+00  0.1000E+01  0.1000E+01
    -20.421  0.0000E+00  0.0000E+00  0.1000E+01  0.1000E+01
    -20.224  0.0000E+00  0.0000E+00  0.1000E+01  0.1000E+01
    -20.026  0.0000E+00  0.0000E+00  0.1000E+01  0.1000E+01
    -19.829  0.0000E+00  0.0000E+00  0.1000E+01  0.1000E+01
    -19.632  0.3346E-03  0.3378E-03  0.1000E+01  0.1000E+01
    -19.434  0.1696E-01  0.1712E-01  0.1003E+01  0.1003E+01
    -19.237  0.8256E+00  0.8330E+00  0.1166E+01  0.1168E+01
    -19.040  0.1044E+02  0.1046E+02  0.3226E+01  0.3231E+01
    -18.842  0.3819E+01  0.3793E+01  0.3980E+01  0.3980E+01
    -18.645  0.0000E+00  0.0000E+00  0.4000E+01  0.4000E+01
    -18.448  0.0000E+00  0.0000E+00  0.4000E+01  0.4000E+01
    -18.250  0.0000E+00  0.0000E+00  0.4000E+01  0.4000E+01
    -18.053  0.0000E+00  0.0000E+00  0.4000E+01  0.4000E+01
    -17.856  0.0000E+00  0.0000E+00  0.4000E+01  0.4000E+01
    -17.659  0.0000E+00  0.0000E+00  0.4000E+01  0.4000E+01
    -17.461  0.0000E+00  0.0000E+00  0.4000E+01  0.4000E+01
    -17.264  0.0000E+00  0.0000E+00  0.4000E+01  0.4000E+01
    -17.067  0.0000E+00  0.0000E+00  0.4000E+01  0.4000E+01
    -16.869  0.0000E+00  0.0000E+00  0.4000E+01  0.4000E+01
    -16.672  0.0000E+00  0.0000E+00  0.4000E+01  0.4000E+01
    -16.475  0.0000E+00  0.0000E+00  0.4000E+01  0.4000E+01
    -16.277  0.0000E+00  0.0000E+00  0.4000E+01  0.4000E+01
    -16.080  0.0000E+00  0.0000E+00  0.4000E+01  0.4000E+01
    -15.883  0.0000E+00  0.0000E+00  0.4000E+01  0.4000E+01
    -15.685  0.0000E+00  0.0000E+00  0.4000E+01  0.4000E+01
    -15.488  0.0000E+00  0.0000E+00  0.4000E+01  0.4000E+01
    -15.291  0.0000E+00  0.0000E+00  0.4000E+01  0.4000E+01
    -15.093  0.0000E+00  0.0000E+00  0.4000E+01  0.4000E+01
    -14.896  0.0000E+00  0.0000E+00  0.4000E+01  0.4000E+01
    -14.699  0.0000E+00  0.0000E+00  0.4000E+01  0.4000E+01
    -14.501  0.0000E+00  0.0000E+00  0.4000E+01  0.4000E+01
    -14.304  0.0000E+00  0.0000E+00  0.4000E+01  0.4000E+01
    -14.107  0.0000E+00  0.0000E+00  0.4000E+01  0.4000E+01
    -13.909  0.0000E+00  0.0000E+00  0.4000E+01  0.4000E+01
    -13.712  0.0000E+00  0.0000E+00  0.4000E+01  0.4000E+01
    -13.515  0.0000E+00  0.0000E+00  0.4000E+01  0.4000E+01
    -13.317  0.0000E+00  0.0000E+00  0.4000E+01  0.4000E+01
    -13.120  0.0000E+00  0.0000E+00  0.4000E+01  0.4000E+01
    -12.923  0.0000E+00  0.0000E+00  0.4000E+01  0.4000E+01
    -12.725  0.0000E+00  0.0000E+00  0.4000E+01  0.4000E+01
    -12.528  0.0000E+00  0.0000E+00  0.4000E+01  0.4000E+01
    -12.331  0.0000E+00  0.0000E+00  0.4000E+01  0.4000E+01
    -12.133  0.0000E+00  0.0000E+00  0.4000E+01  0.4000E+01
    -11.936  0.0000E+00  0.0000E+00  0.4000E+01  0.4000E+01
    -11.739  0.0000E+00  0.0000E+00  0.4000E+01  0.4000E+01
    -11.541  0.0000E+00  0.0000E+00  0.4000E+01  0.4000E+01
    -11.344  0.0000E+00  0.0000E+00  0.4000E+01  0.4000E+01
    -11.147  0.0000E+00  0.0000E+00  0.4000E+01  0.4000E+01
    -10.949  0.0000E+00  0.0000E+00  0.4000E+01  0.4000E+01
    -10.752  0.0000E+00  0.0000E+00  0.4000E+01  0.4000E+01
    -10.555  0.0000E+00  0.0000E+00  0.4000E+01  0.4000E+01
    -10.357  0.0000E+00  0.0000E+00  0.4000E+01  0.4000E+01
    -10.160  0.0000E+00  0.0000E+00  0.4000E+01  0.4000E+01
     -9.963  0.0000E+00  0.0000E+00  0.4000E+01  0.4000E+01
     -9.766  0.0000E+00  0.0000E+00  0.4000E+01  0.4000E+01
     -9.568  0.0000E+00  0.0000E+00  0.4000E+01  0.4000E+01
     -9.371  0.0000E+00  0.0000E+00  0.4000E+01  0.4000E+01
     -9.174  0.0000E+00  0.0000E+00  0.4000E+01  0.4000E+01
     -8.976  0.0000E+00  0.0000E+00  0.4000E+01  0.4000E+01
     -8.779  0.0000E+00  0.0000E+00  0.4000E+01  0.4000E+01
     -8.582  0.0000E+00  0.0000E+00  0.4000E+01  0.4000E+01
     -8.384  0.0000E+00  0.0000E+00  0.4000E+01  0.4000E+01
     -8.187  0.0000E+00  0.0000E+00  0.4000E+01  0.4000E+01
     -7.990  0.0000E+00  0.0000E+00  0.4000E+01  0.4000E+01
     -7.792  0.0000E+00  0.0000E+00  0.4000E+01  0.4000E+01
     -7.595  0.0000E+00  0.0000E+00  0.4000E+01  0.4000E+01
     -7.398  0.0000E+00  0.0000E+00  0.4000E+01  0.4000E+01
     -7.200  0.0000E+00  0.0000E+00  0.4000E+01  0.4000E+01
     -7.003  0.0000E+00  0.0000E+00  0.4000E+01  0.4000E+01
     -6.806  0.0000E+00  0.0000E+00  0.4000E+01  0.4000E+01
     -6.608  0.0000E+00  0.0000E+00  0.4000E+01  0.4000E+01
     -6.411  0.0000E+00  0.0000E+00  0.4000E+01  0.4000E+01
     -6.214  0.0000E+00  0.0000E+00  0.4000E+01  0.4000E+01
     -6.016  0.0000E+00  0.0000E+00  0.4000E+01  0.4000E+01
     -5.819  0.0000E+00  0.0000E+00  0.4000E+01  0.4000E+01
     -5.622  0.0000E+00  0.0000E+00  0.4000E+01  0.4000E+01
     -5.424  0.0000E+00  0.0000E+00  0.4000E+01  0.4000E+01
     -5.227  0.0000E+00  0.0000E+00  0.4000E+01  0.4000E+01
     -5.030  0.0000E+00  0.0000E+00  0.4000E+01  0.4000E+01
     -4.832  0.0000E+00  0.0000E+00  0.4000E+01  0.4000E+01
     -4.635  0.0000E+00  0.0000E+00  0.4000E+01  0.4000E+01
     -4.438  0.0000E+00  0.0000E+00  0.4000E+01  0.4000E+01
     -4.240  0.0000E+00  0.0000E+00  0.4000E+01  0.4000E+01
     -4.043  0.0000E+00  0.0000E+00  0.4000E+01  0.4000E+01
     -3.846  0.0000E+00  0.0000E+00  0.4000E+01  0.4000E+01
     -3.648  0.0000E+00  0.0000E+00  0.4000E+01  0.4000E+01
     -3.451  0.0000E+00  0.0000E+00  0.4000E+01  0.4000E+01
     -3.254  0.0000E+00  0.0000E+00  0.4000E+01  0.4000E+01
     -3.056  0.0000E+00  0.0000E+00  0.4000E+01  0.4000E+01
     -2.859  0.0000E+00  0.0000E+00  0.4000E+01  0.4000E+01
     -2.662  0.0000E+00  0.0000E+00  0.4000E+01  0.4000E+01
     -2.465  0.0000E+00  0.0000E+00  0.4000E+01  0.4000E+01
     -2.267  0.0000E+00  0.0000E+00  0.4000E+01  0.4000E+01
     -2.070  0.3401E-05  0.3460E-05  0.4000E+01  0.4000E+01
     -1.873  0.1805E-03  0.1836E-03  0.4000E+01  0.4000E+01
     -1.675  0.7423E-02  0.7528E-02  0.4002E+01  0.4002E+01
     -1.478  0.6155E-01  0.6186E-01  0.4014E+01  0.4014E+01
     -1.281  0.1242E+00  0.1244E+00  0.4038E+01  0.4038E+01
     -1.083  0.1703E+00  0.1705E+00  0.4072E+01  0.4072E+01
     -0.886  0.1978E+00  0.1978E+00  0.4111E+01  0.4111E+01
     -0.689  0.2419E+00  0.2417E+00  0.4159E+01  0.4159E+01
     -0.491  0.2587E+00  0.2585E+00  0.4210E+01  0.4210E+01
     -0.294  0.3046E+00  0.3051E+00  0.4270E+01  0.4271E+01
     -0.097  0.3382E+00  0.3380E+00  0.4337E+01  0.4337E+01
      0.101  0.3731E+00  0.3736E+00  0.4411E+01  0.4411E+01
      0.298  0.4310E+00  0.4313E+00  0.4496E+01  0.4497E+01
      0.495  0.4854E+00  0.4852E+00  0.4593E+01  0.4593E+01
      0.693  0.3974E+00  0.3963E+00  0.4671E+01  0.4672E+01
      0.890  0.4090E+00  0.4085E+00  0.4753E+01  0.4753E+01
      1.087  0.4769E+00  0.4776E+00  0.4847E+01  0.4847E+01
      1.285  0.4463E+00  0.4460E+00  0.4935E+01  0.4936E+01
      1.482  0.4253E+00  0.4248E+00  0.5020E+01  0.5020E+01
      1.679  0.4118E+00  0.4123E+00  0.5101E+01  0.5102E+01
      1.877  0.4733E+00  0.4733E+00  0.5195E+01  0.5196E+01
      2.074  0.4417E+00  0.4415E+00  0.5283E+01  0.5283E+01
      2.271  0.5090E+00  0.5097E+00  0.5384E+01  0.5384E+01
      2.469  0.6573E+00  0.6576E+00  0.5513E+01  0.5514E+01
      2.666  0.8277E+00  0.8285E+00  0.5677E+01  0.5678E+01
      2.863  0.8669E+00  0.8667E+00  0.5849E+01  0.5849E+01
      3.061  0.8737E+00  0.8739E+00  0.6022E+01  0.6022E+01
      3.258  0.7250E+00  0.7245E+00  0.6166E+01  0.6166E+01
      3.455  0.6917E+00  0.6917E+00  0.6303E+01  0.6303E+01
      3.653  0.6196E+00  0.6190E+00  0.6425E+01  0.6426E+01
      3.850  0.5081E+00  0.5082E+00  0.6526E+01  0.6527E+01
      4.047  0.5846E+00  0.5846E+00  0.6642E+01  0.6642E+01
      4.245  0.6911E+00  0.6916E+00  0.6778E+01  0.6779E+01
      4.442  0.6574E+00  0.6580E+00  0.6908E+01  0.6909E+01
      4.639  0.7768E+00  0.7772E+00  0.7063E+01  0.7063E+01
      4.836  0.9433E+00  0.9436E+00  0.7249E+01  0.7250E+01
      5.034  0.7498E+00  0.7497E+00  0.7398E+01  0.7399E+01
      5.231  0.9039E+00  0.9048E+00  0.7578E+01  0.7579E+01
      5.428  0.1260E+01  0.1262E+01  0.7827E+01  0.7828E+01
      5.626  0.1619E+01  0.1620E+01  0.8147E+01  0.8148E+01
      5.823  0.1666E+01  0.1666E+01  0.8477E+01  0.8479E+01
      6.020  0.1754E+01  0.1754E+01  0.8825E+01  0.8826E+01
      6.218  0.1353E+01  0.1351E+01  0.9093E+01  0.9094E+01
      6.415  0.1097E+01  0.1096E+01  0.9311E+01  0.9312E+01
      6.612  0.7716E+00  0.7707E+00  0.9464E+01  0.9465E+01
      6.810  0.7896E+00  0.7899E+00  0.9621E+01  0.9622E+01
      7.007  0.6992E+00  0.6993E+00  0.9760E+01  0.9760E+01
      7.204  0.5670E+00  0.5656E+00  0.9872E+01  0.9873E+01
      7.402  0.7103E+00  0.7119E+00  0.1001E+02  0.1001E+02
      7.599  0.5025E+00  0.5003E+00  0.1011E+02  0.1011E+02
      7.796  0.5442E+00  0.5460E+00  0.1022E+02  0.1022E+02
      7.994  0.7539E+00  0.7550E+00  0.1037E+02  0.1037E+02
      8.191  0.9692E+00  0.9698E+00  0.1056E+02  0.1056E+02
      8.388  0.1140E+01  0.1142E+01  0.1079E+02  0.1079E+02
      8.586  0.1231E+01  0.1230E+01  0.1103E+02  0.1103E+02
      8.783  0.1145E+01  0.1144E+01  0.1126E+02  0.1126E+02
      8.980  0.1238E+01  0.1239E+01  0.1150E+02  0.1150E+02
      9.178  0.1517E+01  0.1517E+01  0.1180E+02  0.1180E+02
      9.375  0.1619E+01  0.1622E+01  0.1212E+02  0.1213E+02
      9.572  0.2199E+01  0.2199E+01  0.1256E+02  0.1256E+02
      9.770  0.1838E+01  0.1836E+01  0.1292E+02  0.1292E+02
      9.967  0.1650E+01  0.1649E+01  0.1325E+02  0.1325E+02
     10.164  0.1424E+01  0.1424E+01  0.1353E+02  0.1353E+02
     10.362  0.1232E+01  0.1232E+01  0.1378E+02  0.1378E+02
     10.559  0.1253E+01  0.1253E+01  0.1403E+02  0.1403E+02
     10.756  0.1229E+01  0.1230E+01  0.1427E+02  0.1427E+02
     10.954  0.1380E+01  0.1381E+01  0.1454E+02  0.1454E+02
     11.151  0.1301E+01  0.1301E+01  0.1480E+02  0.1480E+02
     11.348  0.1199E+01  0.1198E+01  0.1504E+02  0.1504E+02
     11.546  0.1314E+01  0.1321E+01  0.1530E+02  0.1530E+02
     11.743  0.1500E+01  0.1519E+01  0.1560E+02  0.1560E+02
     11.940  0.1326E+01  0.1338E+01  0.1586E+02  0.1587E+02
     12.138  0.4553E+00  0.4303E+00  0.1595E+02  0.1595E+02
     12.335  0.1595E+00  0.1407E+00  0.1598E+02  0.1598E+02
     12.532  0.5767E-01  0.5663E-01  0.1599E+02  0.1599E+02
     12.729  0.1652E-01  0.1669E-01  0.1600E+02  0.1600E+02
     12.927  0.1847E-01  0.1829E-01  0.1600E+02  0.1600E+02
     13.124  0.1436E-02  0.1390E-02  0.1600E+02  0.1600E+02
     13.321  0.0000E+00  0.0000E+00  0.1600E+02  0.1600E+02
     13.519  0.0000E+00  0.0000E+00  0.1600E+02  0.1600E+02
     13.716  0.0000E+00  0.0000E+00  0.1600E+02  0.1600E+02
     13.913  0.0000E+00  0.0000E+00  0.1600E+02  0.1600E+02
     14.111  0.0000E+00  0.0000E+00  0.1600E+02  0.1600E+02
     14.308  0.0000E+00  0.0000E+00  0.1600E+02  0.1600E+02
     14.505  0.0000E+00  0.0000E+00  0.1600E+02  0.1600E+02
     14.703  0.0000E+00  0.0000E+00  0.1600E+02  0.1600E+02
     14.900  0.0000E+00  0.0000E+00  0.1600E+02  0.1600E+02
     15.097  0.0000E+00  0.0000E+00  0.1600E+02  0.1600E+02
     15.295  0.0000E+00  0.0000E+00  0.1600E+02  0.1600E+02
     15.492  0.0000E+00  0.0000E+00  0.1600E+02  0.1600E+02
     15.49202493    -43.70535315  301      8.12793410      1.00000000
    -43.705  0.0000E+00  0.0000E+00  0.0000E+00  0.0000E+00  0.0000E+00  0.0000E+00  0.0000E+00  0.0000E+00  0.0000E+00  0.0000E+00  0.0000E+00  0.0000E+00  0.0000E+00  0.0000E+00  0.0000E+00  0.0000E+00  0.0000E+00  0.0000E+00
    -43.508  0.0000E+00  0.0000E+00  0.0000E+00  0.0000E+00  0.0000E+00  0.0000E+00  0.0000E+00  0.0000E+00  0.0000E+00  0.0000E+00  0.0000E+00  0.0000E+00  0.0000E+00  0.0000E+00  0.0000E+00  0.0000E+00  0.0000E+00  0.0000E+00
    -43.311  0.0000E+00  0.0000E+00  0.0000E+00  0.0000E+00  0.0000E+00  0.0000E+00  0.0000E+00  0.0000E+00  0.0000E+00  0.0000E+00  0.0000E+00  0.0000E+00  0.0000E+00  0.0000E+00  0.0000E+00  0.0000E+00  0.0000E+00  0.0000E+00
    -43.113  0.0000E+00  0.0000E+00  0.0000E+00  0.0000E+00  0.0000E+00  0.0000E+00  0.0000E+00  0.0000E+00  0.0000E+00  0.0000E+00  0.0000E+00  0.0000E+00  0.0000E+00  0.0000E+00  0.0000E+00  0.0000E+00  0.0000E+00  0.0000E+00
    -42.916  0.0000E+00  0.0000E+00  0.0000E+00  0.0000E+00  0.0000E+00  0.0000E+00  0.0000E+00  0.0000E+00  0.0000E+00  0.0000E+00  0.0000E+00  0.0000E+00  0.0000E+00  0.0000E+00  0.0000E+00  0.0000E+00  0.0000E+00  0.0000E+00
    -42.719  0.0000E+00  0.0000E+00  0.0000E+00  0.0000E+00  0.0000E+00  0.0000E+00  0.0000E+00  0.0000E+00  0.0000E+00  0.0000E+00  0.0000E+00  0.0000E+00  0.0000E+00  0.0000E+00  0.0000E+00  0.0000E+00  0.0000E+00  0.0000E+00
    -42.521  0.0000E+00  0.0000E+00  0.0000E+00  0.0000E+00  0.0000E+00  0.0000E+00  0.0000E+00  0.0000E+00  0.0000E+00  0.0000E+00  0.0000E+00  0.0000E+00  0.0000E+00  0.0000E+00  0.0000E+00  0.0000E+00  0.0000E+00  0.0000E+00
    -42.324  0.0000E+00  0.0000E+00  0.0000E+00  0.0000E+00  0.0000E+00  0.0000E+00  0.0000E+00  0.0000E+00  0.0000E+00  0.0000E+00  0.0000E+00  0.0000E+00  0.0000E+00  0.0000E+00  0.0000E+00  0.0000E+00  0.0000E+00  0.0000E+00
    -42.127  0.0000E+00  0.0000E+00  0.0000E+00  0.0000E+00  0.0000E+00  0.0000E+00  0.0000E+00  0.0000E+00  0.0000E+00  0.0000E+00  0.0000E+00  0.0000E+00  0.0000E+00  0.0000E+00  0.0000E+00  0.0000E+00  0.0000E+00  0.0000E+00
    -41.929  0.0000E+00  0.0000E+00  0.0000E+00  0.0000E+00  0.0000E+00  0.0000E+00  0.0000E+00  0.0000E+00  0.0000E+00  0.0000E+00  0.0000E+00  0.0000E+00  0.0000E+00  0.0000E+00  0.0000E+00  0.0000E+00  0.0000E+00  0.0000E+00
    -41.732  0.0000E+00  0.0000E+00  0.0000E+00  0.0000E+00  0.0000E+00  0.0000E+00  0.0000E+00  0.0000E+00  0.0000E+00  0.0000E+00  0.0000E+00  0.0000E+00  0.0000E+00  0.0000E+00  0.0000E+00  0.0000E+00  0.0000E+00  0.0000E+00
    -41.535  0.1452E-03  0.1466E-03  0.2652E-12  0.2801E-12  0.2652E-12  0.2801E-12  0.2678E-12  0.2829E-12  0.4124E-15  0.3335E-15  0.4100E-15  0.3299E-15  0.2956E-12  0.3117E-12  0.4124E-15  0.3335E-15  0.2971E-12  0.3137E-12
    -41.337  0.7360E-02  0.7431E-02  0.1344E-10  0.1419E-10  0.1344E-10  0.1419E-10  0.1357E-10  0.1434E-10  0.2090E-13  0.1690E-13  0.2078E-13  0.1672E-13  0.1498E-10  0.1579E-10  0.2090E-13  0.1690E-13  0.1506E-10  0.1590E-10
    -41.140  0.3536E+00  0.3568E+00  0.6455E-09  0.6813E-09  0.6455E-09  0.6813E-09  0.6519E-09  0.6882E-09  0.1005E-11  0.8117E-12  0.9989E-12  0.8031E-12  0.7198E-09  0.7582E-09  0.1005E-11  0.8117E-12  0.7232E-09  0.7630E-09
    -40.943  0.3664E+01  0.3668E+01  0.6688E-08  0.7003E-08  0.6688E-08  0.7003E-08  0.6753E-08  0.7074E-08  0.1049E-10  0.8401E-11  0.1043E-10  0.8313E-11  0.7462E-08  0.7801E-08  0.1049E-10  0.8401E-11  0.7490E-08  0.7841E-08
    -40.745  0.9819E+00  0.9743E+00  0.1791E-08  0.1859E-08  0.1791E-08  0.1859E-08  0.1809E-08  0.1878E-08  0.2834E-11  0.2248E-11  0.2818E-11  0.2225E-11  0.2001E-08  0.2073E-08  0.2834E-11  0.2248E-11  0.2005E-08  0.2081E-08
    -40.548  0.0000E+00  0.0000E+00  0.0000E+00  0.0000E+00  0.0000E+00  0.0000E+00  0.0000E+00  0.0000E+00  0.0000E+00  0.0000E+00  0.0000E+00  0.0000E+00  0.0000E+00  0.0000E+00  0.0000E+00  0.0000E+00  0.0000E+00  0.0000E+00
    -40.351  0.0000E+00  0.0000E+00  0.0000E+00  0.0000E+00  0.0000E+00  0.0000E+00  0.0000E+00  0.0000E+00  0.0000E+00  0.0000E+00  0.0000E+00  0.0000E+00  0.0000E+00  0.0000E+00  0.0000E+00  0.0000E+00  0.0000E+00  0.0000E+00
    -40.154  0.0000E+00  0.0000E+00  0.0000E+00  0.0000E+00  0.0000E+00  0.0000E+00  0.0000E+00  0.0000E+00  0.0000E+00  0.0000E+00  0.0000E+00  0.0000E+00  0.0000E+00  0.0000E+00  0.0000E+00  0.0000E+00  0.0000E+00  0.0000E+00
    -39.956  0.0000E+00  0.0000E+00  0.0000E+00  0.0000E+00  0.0000E+00  0.0000E+00  0.0000E+00  0.0000E+00  0.0000E+00  0.0000E+00  0.0000E+00  0.0000E+00  0.0000E+00  0.0000E+00  0.0000E+00  0.0000E+00  0.0000E+00  0.0000E+00
    -39.759  0.0000E+00  0.0000E+00  0.0000E+00  0.0000E+00  0.0000E+00  0.0000E+00  0.0000E+00  0.0000E+00  0.0000E+00  0.0000E+00  0.0000E+00  0.0000E+00  0.0000E+00  0.0000E+00  0.0000E+00  0.0000E+00  0.0000E+00  0.0000E+00
    -39.562  0.0000E+00  0.0000E+00  0.0000E+00  0.0000E+00  0.0000E+00  0.0000E+00  0.0000E+00  0.0000E+00  0.0000E+00  0.0000E+00  0.0000E+00  0.0000E+00  0.0000E+00  0.0000E+00  0.0000E+00  0.0000E+00  0.0000E+00  0.0000E+00
    -39.364  0.0000E+00  0.0000E+00  0.0000E+00  0.0000E+00  0.0000E+00  0.0000E+00  0.0000E+00  0.0000E+00  0.0000E+00  0.0000E+00  0.0000E+00  0.0000E+00  0.0000E+00  0.0000E+00  0.0000E+00  0.0000E+00  0.0000E+00  0.0000E+00
    -39.167  0.0000E+00  0.0000E+00  0.0000E+00  0.0000E+00  0.0000E+00  0.0000E+00  0.0000E+00  0.0000E+00  0.0000E+00  0.0000E+00  0.0000E+00  0.0000E+00  0.0000E+00  0.0000E+00  0.0000E+00  0.0000E+00  0.0000E+00  0.0000E+00
    -38.970  0.0000E+00  0.0000E+00  0.0000E+00  0.0000E+00  0.0000E+00  0.0000E+00  0.0000E+00  0.0000E+00  0.0000E+00  0.0000E+00  0.0000E+00  0.0000E+00  0.0000E+00  0.0000E+00  0.0000E+00  0.0000E+00  0.0000E+00  0.0000E+00
    -38.772  0.0000E+00  0.0000E+00  0.0000E+00  0.0000E+00  0.0000E+00  0.0000E+00  0.0000E+00  0.0000E+00  0.0000E+00  0.0000E+00  0.0000E+00  0.0000E+00  0.0000E+00  0.0000E+00  0.0000E+00  0.0000E+00  0.0000E+00  0.0000E+00
    -38.575  0.0000E+00  0.0000E+00  0.0000E+00  0.0000E+00  0.0000E+00  0.0000E+00  0.0000E+00  0.0000E+00  0.0000E+00  0.0000E+00  0.0000E+00  0.0000E+00  0.0000E+00  0.0000E+00  0.0000E+00  0.0000E+00  0.0000E+00  0.0000E+00
    -38.378  0.0000E+00  0.0000E+00  0.0000E+00  0.0000E+00  0.0000E+00  0.0000E+00  0.0000E+00  0.0000E+00  0.0000E+00  0.0000E+00  0.0000E+00  0.0000E+00  0.0000E+00  0.0000E+00  0.0000E+00  0.0000E+00  0.0000E+00  0.0000E+00
    -38.180  0.0000E+00  0.0000E+00  0.0000E+00  0.0000E+00  0.0000E+00  0.0000E+00  0.0000E+00  0.0000E+00  0.0000E+00  0.0000E+00  0.0000E+00  0.0000E+00  0.0000E+00  0.0000E+00  0.0000E+00  0.0000E+00  0.0000E+00  0.0000E+00
    -37.983  0.0000E+00  0.0000E+00  0.0000E+00  0.0000E+00  0.0000E+00  0.0000E+00  0.0000E+00  0.0000E+00  0.0000E+00  0.0000E+00  0.0000E+00  0.0000E+00  0.0000E+00  0.0000E+00  0.0000E+00  0.0000E+00  0.0000E+00  0.0000E+00
    -37.786  0.0000E+00  0.0000E+00  0.0000E+00  0.0000E+00  0.0000E+00  0.0000E+00  0.0000E+00  0.0000E+00  0.0000E+00  0.0000E+00  0.0000E+00  0.0000E+00  0.0000E+00  0.0000E+00  0.0000E+00  0.0000E+00  0.0000E+00  0.0000E+00
    -37.588  0.0000E+00  0.0000E+00  0.0000E+00  0.0000E+00  0.0000E+00  0.0000E+00  0.0000E+00  0.0000E+00  0.0000E+00  0.0000E+00  0.0000E+00  0.0000E+00  0.0000E+00  0.0000E+00  0.0000E+00  0.0000E+00  0.0000E+00  0.0000E+00
    -37.391  0.0000E+00  0.0000E+00  0.0000E+00  0.0000E+00  0.0000E+00  0.0000E+00  0.0000E+00  0.0000E+00  0.0000E+00  0.0000E+00  0.0000E+00  0.0000E+00  0.0000E+00  0.0000E+00  0.0000E+00  0.0000E+00  0.0000E+00  0.0000E+00
    -37.194  0.0000E+00  0.0000E+00  0.0000E+00  0.0000E+00  0.0000E+00  0.0000E+00  0.0000E+00  0.0000E+00  0.0000E+00  0.0000E+00  0.0000E+00  0.0000E+00  0.0000E+00  0.0000E+00  0.0000E+00  0.0000E+00  0.0000E+00  0.0000E+00
    -36.996  0.0000E+00  0.0000E+00  0.0000E+00  0.0000E+00  0.0000E+00  0.0000E+00  0.0000E+00  0.0000E+00  0.0000E+00  0.0000E+00  0.0000E+00  0.0000E+00  0.0000E+00  0.0000E+00  0.0000E+00  0.0000E+00  0.0000E+00  0.0000E+00
    -36.799  0.0000E+00  0.0000E+00  0.0000E+00  0.0000E+00  0.0000E+00  0.0000E+00  0.0000E+00  0.0000E+00  0.0000E+00  0.0000E+00  0.0000E+00  0.0000E+00  0.0000E+00  0.0000E+00  0.0000E+00  0.0000E+00  0.0000E+00  0.0000E+00
    -36.602  0.0000E+00  0.0000E+00  0.0000E+00  0.0000E+00  0.0000E+00  0.0000E+00  0.0000E+00  0.0000E+00  0.0000E+00  0.0000E+00  0.0000E+00  0.0000E+00  0.0000E+00  0.0000E+00  0.0000E+00  0.0000E+00  0.0000E+00  0.0000E+00
    -36.404  0.0000E+00  0.0000E+00  0.0000E+00  0.0000E+00  0.0000E+00  0.0000E+00  0.0000E+00  0.0000E+00  0.0000E+00  0.0000E+00  0.0000E+00  0.0000E+00  0.0000E+00  0.0000E+00  0.0000E+00  0.0000E+00  0.0000E+00  0.0000E+00
    -36.207  0.0000E+00  0.0000E+00  0.0000E+00  0.0000E+00  0.0000E+00  0.0000E+00  0.0000E+00  0.0000E+00  0.0000E+00  0.0000E+00  0.0000E+00  0.0000E+00  0.0000E+00  0.0000E+00  0.0000E+00  0.0000E+00  0.0000E+00  0.0000E+00
    -36.010  0.0000E+00  0.0000E+00  0.0000E+00  0.0000E+00  0.0000E+00  0.0000E+00  0.0000E+00  0.0000E+00  0.0000E+00  0.0000E+00  0.0000E+00  0.0000E+00  0.0000E+00  0.0000E+00  0.0000E+00  0.0000E+00  0.0000E+00  0.0000E+00
    -35.812  0.0000E+00  0.0000E+00  0.0000E+00  0.0000E+00  0.0000E+00  0.0000E+00  0.0000E+00  0.0000E+00  0.0000E+00  0.0000E+00  0.0000E+00  0.0000E+00  0.0000E+00  0.0000E+00  0.0000E+00  0.0000E+00  0.0000E+00  0.0000E+00
    -35.615  0.0000E+00  0.0000E+00  0.0000E+00  0.0000E+00  0.0000E+00  0.0000E+00  0.0000E+00  0.0000E+00  0.0000E+00  0.0000E+00  0.0000E+00  0.0000E+00  0.0000E+00  0.0000E+00  0.0000E+00  0.0000E+00  0.0000E+00  0.0000E+00
    -35.418  0.0000E+00  0.0000E+00  0.0000E+00  0.0000E+00  0.0000E+00  0.0000E+00  0.0000E+00  0.0000E+00  0.0000E+00  0.0000E+00  0.0000E+00  0.0000E+00  0.0000E+00  0.0000E+00  0.0000E+00  0.0000E+00  0.0000E+00  0.0000E+00
    -35.220  0.0000E+00  0.0000E+00  0.0000E+00  0.0000E+00  0.0000E+00  0.0000E+00  0.0000E+00  0.0000E+00  0.0000E+00  0.0000E+00  0.0000E+00  0.0000E+00  0.0000E+00  0.0000E+00  0.0000E+00  0.0000E+00  0.0000E+00  0.0000E+00
    -35.023  0.0000E+00  0.0000E+00  0.0000E+00  0.0000E+00  0.0000E+00  0.0000E+00  0.0000E+00  0.0000E+00  0.0000E+00  0.0000E+00  0.0000E+00  0.0000E+00  0.0000E+00  0.0000E+00  0.0000E+00  0.0000E+00  0.0000E+00  0.0000E+00
    -34.826  0.0000E+00  0.0000E+00  0.0000E+00  0.0000E+00  0.0000E+00  0.0000E+00  0.0000E+00  0.0000E+00  0.0000E+00  0.0000E+00  0.0000E+00  0.0000E+00  0.0000E+00  0.0000E+00  0.0000E+00  0.0000E+00  0.0000E+00  0.0000E+00
    -34.628  0.0000E+00  0.0000E+00  0.0000E+00  0.0000E+00  0.0000E+00  0.0000E+00  0.0000E+00  0.0000E+00  0.0000E+00  0.0000E+00  0.0000E+00  0.0000E+00  0.0000E+00  0.0000E+00  0.0000E+00  0.0000E+00  0.0000E+00  0.0000E+00
    -34.431  0.0000E+00  0.0000E+00  0.0000E+00  0.0000E+00  0.0000E+00  0.0000E+00  0.0000E+00  0.0000E+00  0.0000E+00  0.0000E+00  0.0000E+00  0.0000E+00  0.0000E+00  0.0000E+00  0.0000E+00  0.0000E+00  0.0000E+00  0.0000E+00
    -34.234  0.0000E+00  0.0000E+00  0.0000E+00  0.0000E+00  0.0000E+00  0.0000E+00  0.0000E+00  0.0000E+00  0.0000E+00  0.0000E+00  0.0000E+00  0.0000E+00  0.0000E+00  0.0000E+00  0.0000E+00  0.0000E+00  0.0000E+00  0.0000E+00
    -34.036  0.0000E+00  0.0000E+00  0.0000E+00  0.0000E+00  0.0000E+00  0.0000E+00  0.0000E+00  0.0000E+00  0.0000E+00  0.0000E+00  0.0000E+00  0.0000E+00  0.0000E+00  0.0000E+00  0.0000E+00  0.0000E+00  0.0000E+00  0.0000E+00
    -33.839  0.0000E+00  0.0000E+00  0.0000E+00  0.0000E+00  0.0000E+00  0.0000E+00  0.0000E+00  0.0000E+00  0.0000E+00  0.0000E+00  0.0000E+00  0.0000E+00  0.0000E+00  0.0000E+00  0.0000E+00  0.0000E+00  0.0000E+00  0.0000E+00