   4   4   1   0
  0.1302895E+02  0.3734449E-09  0.3735695E-09  0.3735695E-09  0.5000000E-15
  1.000000000000000E-004
  CAR 
 unknown system                          
     21.72767775    -38.34479520  301     12.45822487      1.00000000
    -38.345  0.0000E+00  0.0000E+00  0.0000E+00  0.0000E+00
    -38.145  0.0000E+00  0.0000E+00  0.0000E+00  0.0000E+00
    -37.944  0.0000E+00  0.0000E+00  0.0000E+00  0.0000E+00
    -37.744  0.0000E+00  0.0000E+00  0.0000E+00  0.0000E+00
    -37.544  0.0000E+00  0.0000E+00  0.0000E+00  0.0000E+00
    -37.344  0.0000E+00  0.0000E+00  0.0000E+00  0.0000E+00
    -37.143  0.0000E+00  0.0000E+00  0.0000E+00  0.0000E+00
    -36.943  0.0000E+00  0.0000E+00  0.0000E+00  0.0000E+00
    -36.743  0.0000E+00  0.0000E+00  0.0000E+00  0.0000E+00
    -36.543  0.0000E+00  0.0000E+00  0.0000E+00  0.0000E+00
    -36.342  0.0000E+00  0.0000E+00  0.0000E+00  0.0000E+00
    -36.142  0.9616E-04  0.9561E-04  0.1926E-04  0.1915E-04
    -35.942  0.5174E-02  0.5145E-02  0.1055E-02  0.1049E-02
    -35.742  0.2681E+00  0.2667E+00  0.5474E-01  0.5445E-01
    -35.541  0.3516E+01  0.3512E+01  0.7588E+00  0.7577E+00
    -35.341  0.1176E+01  0.1181E+01  0.9942E+00  0.9942E+00
    -35.141  0.0000E+00  0.0000E+00  0.1000E+01  0.1000E+01
    -34.941  0.0000E+00  0.0000E+00  0.1000E+01  0.1000E+01
    -34.740  0.0000E+00  0.0000E+00  0.1000E+01  0.1000E+01
    -34.540  0.0000E+00  0.0000E+00  0.1000E+01  0.1000E+01
    -34.340  0.0000E+00  0.0000E+00  0.1000E+01  0.1000E+01
    -34.140  0.0000E+00  0.0000E+00  0.1000E+01  0.1000E+01
    -33.939  0.0000E+00  0.0000E+00  0.1000E+01  0.1000E+01
    -33.739  0.0000E+00  0.0000E+00  0.1000E+01  0.1000E+01
    -33.539  0.0000E+00  0.0000E+00  0.1000E+01  0.1000E+01
    -33.339  0.0000E+00  0.0000E+00  0.1000E+01  0.1000E+01
    -33.139  0.0000E+00  0.0000E+00  0.1000E+01  0.1000E+01
    -32.938  0.0000E+00  0.0000E+00  0.1000E+01  0.1000E+01
    -32.738  0.0000E+00  0.0000E+00  0.1000E+01  0.1000E+01
    -32.538  0.0000E+00  0.0000E+00  0.1000E+01  0.1000E+01
    -32.338  0.0000E+00  0.0000E+00  0.1000E+01  0.1000E+01
    -32.137  0.0000E+00  0.0000E+00  0.1000E+01  0.1000E+01
    -31.937  0.0000E+00  0.0000E+00  0.1000E+01  0.1000E+01
    -31.737  0.0000E+00  0.0000E+00  0.1000E+01  0.1000E+01
    -31.537  0.0000E+00  0.0000E+00  0.1000E+01  0.1000E+01
    -31.336  0.0000E+00  0.0000E+00  0.1000E+01  0.1000E+01
    -31.136  0.0000E+00  0.0000E+00  0.1000E+01  0.1000E+01
    -30.936  0.0000E+00  0.0000E+00  0.1000E+01  0.1000E+01
    -30.736  0.0000E+00  0.0000E+00  0.1000E+01  0.1000E+01
    -30.535  0.0000E+00  0.0000E+00  0.1000E+01  0.1000E+01
    -30.335  0.0000E+00  0.0000E+00  0.1000E+01  0.1000E+01
    -30.135  0.0000E+00  0.0000E+00  0.1000E+01  0.1000E+01
    -29.935  0.0000E+00  0.0000E+00  0.1000E+01  0.1000E+01
    -29.734  0.0000E+00  0.0000E+00  0.1000E+01  0.1000E+01
    -29.534  0.0000E+00  0.0000E+00  0.1000E+01  0.1000E+01
    -29.334  0.0000E+00  0.0000E+00  0.1000E+01  0.1000E+01
    -29.134  0.0000E+00  0.0000E+00  0.1000E+01  0.1000E+01
    -28.933  0.0000E+00  0.0000E+00  0.1000E+01  0.1000E+01
    -28.733  0.0000E+00  0.0000E+00  0.1000E+01  0.1000E+01
    -28.533  0.0000E+00  0.0000E+00  0.1000E+01  0.1000E+01
    -28.333  0.0000E+00  0.0000E+00  0.1000E+01  0.1000E+01
    -28.132  0.0000E+00  0.0000E+00  0.1000E+01  0.1000E+01
    -27.932  0.0000E+00  0.0000E+00  0.1000E+01  0.1000E+01
    -27.732  0.0000E+00  0.0000E+00  0.1000E+01  0.1000E+01
    -27.532  0.0000E+00  0.0000E+00  0.1000E+01  0.1000E+01
    -27.332  0.0000E+00  0.0000E+00  0.1000E+01  0.1000E+01
    -27.131  0.0000E+00  0.0000E+00  0.1000E+01  0.1000E+01
    -26.931  0.0000E+00  0.0000E+00  0.1000E+01  0.1000E+01
    -26.731  0.0000E+00  0.0000E+00  0.1000E+01  0.1000E+01
    -26.531  0.0000E+00  0.0000E+00  0.1000E+01  0.1000E+01
    -26.330  0.0000E+00  0.0000E+00  0.1000E+01  0.1000E+01
    -26.130  0.0000E+00  0.0000E+00  0.1000E+01  0.1000E+01
    -25.930  0.0000E+00  0.0000E+00  0.1000E+01  0.1000E+01
    -25.730  0.0000E+00  0.0000E+00  0.1000E+01  0.1000E+01
    -25.529  0.0000E+00  0.0000E+00  0.1000E+01  0.1000E+01
    -25.329  0.0000E+00  0.0000E+00  0.1000E+01  0.1000E+01
    -25.129  0.0000E+00  0.0000E+00  0.1000E+01  0.1000E+01
    -24.929  0.0000E+00  0.0000E+00  0.1000E+01  0.1000E+01
    -24.728  0.0000E+00  0.0000E+00  0.1000E+01  0.1000E+01
    -24.528  0.0000E+00  0.0000E+00  0.1000E+01  0.1000E+01
    -24.328  0.0000E+00  0.0000E+00  0.1000E+01  0.1000E+01
    -24.128  0.0000E+00  0.0000E+00  0.1000E+01  0.1000E+01
    -23.927  0.0000E+00  0.0000E+00  0.1000E+01  0.1000E+01
    -23.727  0.0000E+00  0.0000E+00  0.1000E+01  0.1000E+01
    -23.527  0.0000E+00  0.0000E+00  0.1000E+01  0.1000E+01
    -23.327  0.0000E+00  0.0000E+00  0.1000E+01  0.1000E+01
    -23.126  0.0000E+00  0.0000E+00  0.1000E+01  0.1000E+01
    -22.926  0.0000E+00  0.0000E+00  0.1000E+01  0.1000E+01
    -22.726  0.0000E+00  0.0000E+00  0.1000E+01  0.1000E+01
    -22.526  0.0000E+00  0.0000E+00  0.1000E+01  0.1000E+01
    -22.325  0.0000E+00  0.0000E+00  0.1000E+01  0.1000E+01
    -22.125  0.0000E+00  0.0000E+00  0.1000E+01  0.1000E+01
    -21.925  0.0000E+00  0.0000E+00  0.1000E+01  0.1000E+01
    -21.725  0.0000E+00  0.0000E+00  0.1000E+01  0.1000E+01
    -21.525  0.0000E+00  0.0000E+00  0.1000E+01  0.1000E+01
    -21.324  0.0000E+00  0.0000E+00  0.1000E+01  0.1000E+01
    -21.124  0.0000E+00  0.0000E+00  0.1000E+01  0.1000E+01
    -20.924  0.0000E+00  0.0000E+00  0.1000E+01  0.1000E+01
    -20.724  0.0000E+00  0.0000E+00  0.1000E+01  0.1000E+01
    -20.523  0.0000E+00  0.0000E+00  0.1000E+01  0.1000E+01
    -20.323  0.0000E+00  0.0000E+00  0.1000E+01  0.1000E+01
    -20.123  0.0000E+00  0.0000E+00  0.1000E+01  0.1000E+01
    -19.923  0.0000E+00  0.0000E+00  0.1000E+01  0.1000E+01
    -19.722  0.0000E+00  0.0000E+00  0.1000E+01  0.1000E+01
    -19.522  0.0000E+00  0.0000E+00  0.1000E+01  0.1000E+01
    -19.322  0.0000E+00  0.0000E+00  0.1000E+01  0.1000E+01
    -19.122  0.0000E+00  0.0000E+00  0.1000E+01  0.1000E+01
    -18.921  0.0000E+00  0.0000E+00  0.1000E+01  0.1000E+01
    -18.721  0.0000E+00  0.0000E+00  0.1000E+01  0.1000E+01
    -18.521  0.0000E+00  0.0000E+00  0.1000E+01  0.1000E+01
    -18.321  0.0000E+00  0.0000E+00  0.1000E+01  0.1000E+01
    -18.120  0.0000E+00  0.0000E+00  0.1000E+01  0.1000E+01
    -17.920  0.0000E+00  0.0000E+00  0.1000E+01  0.1000E+01
    -17.720  0.0000E+00  0.0000E+00  0.1000E+01  0.1000E+01
    -17.520  0.0000E+00  0.0000E+00  0.1000E+01  0.1000E+01
    -17.319  0.0000E+00  0.0000E+00  0.1000E+01  0.1000E+01
    -17.119  0.0000E+00  0.0000E+00  0.1000E+01  0.1000E+01
    -16.919  0.0000E+00  0.0000E+00  0.1000E+01  0.1000E+01
    -16.719  0.0000E+00  0.0000E+00  0.1000E+01  0.1000E+01
    -16.518  0.0000E+00  0.0000E+00  0.1000E+01  0.1000E+01
    -16.318  0.0000E+00  0.0000E+00  0.1000E+01  0.1000E+01
    -16.118  0.0000E+00  0.0000E+00  0.1000E+01  0.1000E+01
    -15.918  0.0000E+00  0.0000E+00  0.1000E+01  0.1000E+01
    -15.717  0.0000E+00  0.0000E+00  0.1000E+01  0.1000E+01
    -15.517  0.0000E+00  0.0000E+00  0.1000E+01  0.1000E+01
    -15.317  0.0000E+00  0.0000E+00  0.1000E+01  0.1000E+01
    -15.117  0.0000E+00  0.0000E+00  0.1000E+01  0.1000E+01
    -14.917  0.0000E+00  0.0000E+00  0.1000E+01  0.1000E+01
    -14.716  0.2080E-05  0.2068E-05  0.1000E+01  0.1000E+01
    -14.516  0.1137E-02  0.1130E-02  0.1000E+01  0.1000E+01
    -14.316  0.6150E-01  0.6114E-01  0.1013E+01  0.1012E+01
    -14.116  0.2253E+01  0.2244E+01  0.1464E+01  0.1462E+01
    -13.915  0.9102E+01  0.9099E+01  0.3286E+01  0.3284E+01
    -13.715  0.3440E+01  0.3452E+01  0.3976E+01  0.3976E+01
    -13.515  0.6348E-01  0.6386E-01  0.4000E+01  0.4000E+01
    -13.315  0.0000E+00  0.0000E+00  0.4000E+01  0.4000E+01
    -13.114  0.0000E+00  0.0000E+00  0.4000E+01  0.4000E+01
    -12.914  0.0000E+00  0.0000E+00  0.4000E+01  0.4000E+01
    -12.714  0.0000E+00  0.0000E+00  0.4000E+01  0.4000E+01
    -12.514  0.0000E+00  0.0000E+00  0.4000E+01  0.4000E+01
    -12.313  0.0000E+00  0.0000E+00  0.4000E+01  0.4000E+01
    -12.113  0.0000E+00  0.0000E+00  0.4000E+01  0.4000E+01
    -11.913  0.0000E+00  0.0000E+00  0.4000E+01  0.4000E+01
    -11.713  0.0000E+00  0.0000E+00  0.4000E+01  0.4000E+01
    -11.512  0.0000E+00  0.0000E+00  0.4000E+01  0.4000E+01
    -11.312  0.0000E+00  0.0000E+00  0.4000E+01  0.4000E+01
    -11.112  0.0000E+00  0.0000E+00  0.4000E+01  0.4000E+01
    -10.912  0.0000E+00  0.0000E+00  0.4000E+01  0.4000E+01
    -10.711  0.0000E+00  0.0000E+00  0.4000E+01  0.4000E+01
    -10.511  0.0000E+00  0.0000E+00  0.4000E+01  0.4000E+01
    -10.311  0.0000E+00  0.0000E+00  0.4000E+01  0.4000E+01
    -10.111  0.0000E+00  0.0000E+00  0.4000E+01  0.4000E+01
     -9.910  0.0000E+00  0.0000E+00  0.4000E+01  0.4000E+01
     -9.710  0.0000E+00  0.0000E+00  0.4000E+01  0.4000E+01
     -9.510  0.0000E+00  0.0000E+00  0.4000E+01  0.4000E+01
     -9.310  0.0000E+00  0.0000E+00  0.4000E+01  0.4000E+01
     -9.110  0.0000E+00  0.0000E+00  0.4000E+01  0.4000E+01
     -8.909  0.0000E+00  0.0000E+00  0.4000E+01  0.4000E+01
     -8.709  0.0000E+00  0.0000E+00  0.4000E+01  0.4000E+01
     -8.509  0.0000E+00  0.0000E+00  0.4000E+01  0.4000E+01
     -8.309  0.0000E+00  0.0000E+00  0.4000E+01  0.4000E+01
     -8.108  0.0000E+00  0.0000E+00  0.4000E+01  0.4000E+01
     -7.908  0.0000E+00  0.0000E+00  0.4000E+01  0.4000E+01
     -7.708  0.0000E+00  0.0000E+00  0.4000E+01  0.4000E+01
     -7.508  0.0000E+00  0.0000E+00  0.4000E+01  0.4000E+01
     -7.307  0.0000E+00  0.0000E+00  0.4000E+01  0.4000E+01
     -7.107  0.0000E+00  0.0000E+00  0.4000E+01  0.4000E+01
     -6.907  0.0000E+00  0.0000E+00  0.4000E+01  0.4000E+01
     -6.707  0.0000E+00  0.0000E+00  0.4000E+01  0.4000E+01
     -6.506  0.0000E+00  0.0000E+00  0.4000E+01  0.4000E+01
     -6.306  0.0000E+00  0.0000E+00  0.4000E+01  0.4000E+01
     -6.106  0.0000E+00  0.0000E+00  0.4000E+01  0.4000E+01
     -5.906  0.0000E+00  0.0000E+00  0.4000E+01  0.4000E+01
     -5.705  0.0000E+00  0.0000E+00  0.4000E+01  0.4000E+01
     -5.505  0.0000E+00  0.0000E+00  0.4000E+01  0.4000E+01
     -5.305  0.0000E+00  0.0000E+00  0.4000E+01  0.4000E+01
     -5.105  0.0000E+00  0.0000E+00  0.4000E+01  0.4000E+01
     -4.904  0.0000E+00  0.0000E+00  0.4000E+01  0.4000E+01
     -4.704  0.0000E+00  0.0000E+00  0.4000E+01  0.4000E+01
     -4.504  0.0000E+00  0.0000E+00  0.4000E+01  0.4000E+01
     -4.304  0.0000E+00  0.0000E+00  0.4000E+01  0.4000E+01
     -4.103  0.0000E+00  0.0000E+00  0.4000E+01  0.4000E+01
     -3.903  0.0000E+00  0.0000E+00  0.4000E+01  0.4000E+01
     -3.703  0.0000E+00  0.0000E+00  0.4000E+01  0.4000E+01
     -3.503  0.0000E+00  0.0000E+00  0.4000E+01  0.4000E+01
     -3.303  0.0000E+00  0.0000E+00  0.4000E+01  0.4000E+01
     -3.102  0.0000E+00  0.0000E+00  0.4000E+01  0.4000E+01
     -2.902  0.0000E+00  0.0000E+00  0.4000E+01  0.4000E+01
     -2.702  0.0000E+00  0.0000E+00  0.4000E+01  0.4000E+01
     -2.502  0.0000E+00  0.0000E+00  0.4000E+01  0.4000E+01
     -2.301  0.0000E+00  0.0000E+00  0.4000E+01  0.4000E+01
     -2.101  0.0000E+00  0.0000E+00  0.4000E+01  0.4000E+01
     -1.901  0.0000E+00  0.0000E+00  0.4000E+01  0.4000E+01
     -1.701  0.0000E+00  0.0000E+00  0.4000E+01  0.4000E+01
     -1.500  0.0000E+00  0.0000E+00  0.4000E+01  0.4000E+01
     -1.300  0.0000E+00  0.0000E+00  0.4000E+01  0.4000E+01
     -1.100  0.0000E+00  0.0000E+00  0.4000E+01  0.4000E+01
     -0.900  0.0000E+00  0.0000E+00  0.4000E+01  0.4000E+01
     -0.699  0.0000E+00  0.0000E+00  0.4000E+01  0.4000E+01
     -0.499  0.0000E+00  0.0000E+00  0.4000E+01  0.4000E+01
     -0.299  0.0000E+00  0.0000E+00  0.4000E+01  0.4000E+01
     -0.099  0.0000E+00  0.0000E+00  0.4000E+01  0.4000E+01
      0.102  0.2050E-06  0.2050E-06  0.4000E+01  0.4000E+01
      0.302  0.1428E-04  0.1428E-04  0.4000E+01  0.4000E+01
      0.502  0.7518E-03  0.7516E-03  0.4000E+01  0.4000E+01
      0.702  0.1732E-01  0.1732E-01  0.4004E+01  0.4004E+01
      0.903  0.5582E-01  0.5581E-01  0.4015E+01  0.4015E+01
      1.103  0.9602E-01  0.9602E-01  0.4034E+01  0.4034E+01
      1.303  0.1056E+00  0.1056E+00  0.4055E+01  0.4055E+01
      1.503  0.1389E+00  0.1389E+00  0.4083E+01  0.4083E+01
      1.704  0.1504E+00  0.1504E+00  0.4113E+01  0.4113E+01
      1.904  0.1795E+00  0.1795E+00  0.4149E+01  0.4149E+01
      2.104  0.2150E+00  0.2150E+00  0.4193E+01  0.4193E+01
      2.304  0.1734E+00  0.1734E+00  0.4228E+01  0.4228E+01
      2.504  0.2725E+00  0.2725E+00  0.4282E+01  0.4282E+01
      2.705  0.2760E+00  0.2760E+00  0.4338E+01  0.4338E+01
      2.905  0.2961E+00  0.2961E+00  0.4397E+01  0.4397E+01
      3.105  0.3195E+00  0.3195E+00  0.4461E+01  0.4461E+01
      3.305  0.4707E+00  0.4707E+00  0.4556E+01  0.4556E+01
      3.506  0.4394E+00  0.4394E+00  0.4645E+01  0.4645E+01
      3.706  0.4840E+00  0.4840E+00  0.4742E+01  0.4742E+01
      3.906  0.4291E+00  0.4291E+00  0.4828E+01  0.4828E+01
      4.106  0.3701E+00  0.3702E+00  0.4902E+01  0.4902E+01
      4.307  0.3274E+00  0.3275E+00  0.4968E+01  0.4968E+01
      4.507  0.2211E+00  0.2211E+00  0.5013E+01  0.5013E+01
      4.707  0.2488E+00  0.2489E+00  0.5063E+01  0.5063E+01
      4.907  0.2748E+00  0.2748E+00  0.5118E+01  0.5118E+01
      5.108  0.3107E+00  0.3107E+00  0.5181E+01  0.5181E+01
      5.308  0.3832E+00  0.3831E+00  0.5258E+01  0.5258E+01
      5.508  0.2681E+00  0.2681E+00  0.5312E+01  0.5312E+01
      5.708  0.4698E+00  0.4698E+00  0.5406E+01  0.5406E+01
      5.909  0.5764E+00  0.5764E+00  0.5522E+01  0.5522E+01
      6.109  0.6026E+00  0.6026E+00  0.5643E+01  0.5643E+01
      6.309  0.7277E+00  0.7277E+00  0.5789E+01  0.5789E+01
      6.509  0.6062E+00  0.6062E+00  0.5912E+01  0.5912E+01
      6.710  0.7456E+00  0.7456E+00  0.6062E+01  0.6062E+01
      6.910  0.8058E+00  0.8058E+00  0.6224E+01  0.6224E+01
      7.110  0.6262E+00  0.6262E+00  0.6350E+01  0.6350E+01
      7.310  0.6294E+00  0.6294E+00  0.6476E+01  0.6476E+01
      7.511  0.5925E+00  0.5925E+00  0.6595E+01  0.6595E+01
      7.711  0.6347E+00  0.6347E+00  0.6723E+01  0.6723E+01
      7.911  0.7943E+00  0.7943E+00  0.6882E+01  0.6882E+01
      8.111  0.6827E+00  0.6827E+00  0.7020E+01  0.7020E+01
      8.311  0.7831E+00  0.7830E+00  0.7177E+01  0.7177E+01
      8.512  0.7916E+00  0.7916E+00  0.7336E+01  0.7336E+01
      8.712  0.7315E+00  0.7315E+00  0.7484E+01  0.7484E+01
      8.912  0.9838E+00  0.9837E+00  0.7681E+01  0.7681E+01
      9.112  0.1555E+01  0.1555E+01  0.7993E+01  0.7993E+01
      9.313  0.1603E+01  0.1603E+01  0.8315E+01  0.8315E+01
      9.513  0.1385E+01  0.1385E+01  0.8594E+01  0.8594E+01
      9.713  0.1317E+01  0.1317E+01  0.8859E+01  0.8859E+01
      9.913  0.1114E+01  0.1114E+01  0.9084E+01  0.9084E+01
     10.114  0.9338E+00  0.9339E+00  0.9272E+01  0.9272E+01
     10.314  0.7234E+00  0.7235E+00  0.9418E+01  0.9418E+01
     10.514  0.6788E+00  0.6788E+00  0.9555E+01  0.9555E+01
     10.714  0.5605E+00  0.5605E+00  0.9668E+01  0.9668E+01
     10.915  0.5674E+00  0.5673E+00  0.9782E+01  0.9782E+01
     11.115  0.4809E+00  0.4810E+00  0.9879E+01  0.9879E+01
     11.315  0.4408E+00  0.4407E+00  0.9967E+01  0.9967E+01
     11.515  0.5555E+00  0.5555E+00  0.1008E+02  0.1008E+02
     11.716  0.2084E+00  0.2084E+00  0.1012E+02  0.1012E+02
     11.916  0.3499E+00  0.3499E+00  0.1019E+02  0.1019E+02
     12.116  0.5189E+00  0.5188E+00  0.1030E+02  0.1030E+02
     12.316  0.5464E+00  0.5464E+00  0.1041E+02  0.1040E+02
     12.517  0.6719E+00  0.6719E+00  0.1054E+02  0.1054E+02
     12.717  0.7692E+00  0.7691E+00  0.1069E+02  0.1069E+02
     12.917  0.9543E+00  0.9542E+00  0.1089E+02  0.1089E+02
     13.117  0.6285E+00  0.6287E+00  0.1101E+02  0.1101E+02
     13.318  0.7590E+00  0.7589E+00  0.1117E+02  0.1117E+02
     13.518  0.7345E+00  0.7346E+00  0.1131E+02  0.1131E+02
     13.718  0.9354E+00  0.9354E+00  0.1150E+02  0.1150E+02
     13.918  0.8298E+00  0.8299E+00  0.1167E+02  0.1167E+02
     14.118  0.8551E+00  0.8550E+00  0.1184E+02  0.1184E+02
     14.319  0.9226E+00  0.9226E+00  0.1203E+02  0.1203E+02
     14.519  0.1071E+01  0.1071E+01  0.1224E+02  0.1224E+02
     14.719  0.1514E+01  0.1514E+01  0.1255E+02  0.1255E+02
     14.919  0.1555E+01  0.1555E+01  0.1286E+02  0.1286E+02
     15.120  0.9849E+00  0.9850E+00  0.1306E+02  0.1306E+02
     15.320  0.9546E+00  0.9546E+00  0.1325E+02  0.1325E+02
     15.520  0.1045E+01  0.1045E+01  0.1346E+02  0.1346E+02
     15.720  0.8402E+00  0.8403E+00  0.1363E+02  0.1363E+02
     15.921  0.8790E+00  0.8788E+00  0.1381E+02  0.1381E+02
     16.121  0.1039E+01  0.1039E+01  0.1402E+02  0.1402E+02
     16.321  0.1092E+01  0.1092E+01  0.1424E+02  0.1424E+02
     16.521  0.8263E+00  0.8269E+00  0.1440E+02  0.1440E+02
     16.722  0.8213E+00  0.8213E+00  0.1457E+02  0.1457E+02
     16.922  0.8907E+00  0.8906E+00  0.1475E+02  0.1475E+02
     17.122  0.9653E+00  0.9654E+00  0.1494E+02  0.1494E+02
     17.322  0.9166E+00  0.9166E+00  0.1512E+02  0.1512E+02
     17.523  0.9652E+00  0.9589E+00  0.1532E+02  0.1532E+02
     17.723  0.9680E+00  0.9735E+00  0.1551E+02  0.1551E+02
     17.923  0.7774E+00  0.7809E+00  0.1567E+02  0.1567E+02
     18.123  0.5878E+00  0.5981E+00  0.1579E+02  0.1579E+02
     18.324  0.5570E+00  0.5326E+00  0.1590E+02  0.1590E+02
     18.524  0.3547E+00  0.3619E+00  0.1597E+02  0.1597E+02
     18.724  0.8519E-01  0.8685E-01  0.1599E+02  0.1599E+02
     18.924  0.3726E-01  0.3948E-01  0.1600E+02  0.1600E+02
     19.125  0.1082E-01  0.1150E-01  0.1600E+02  0.1600E+02
     19.325  0.9517E-03  0.9598E-03  0.1600E+02  0.1600E+02
     19.525  0.0000E+00  0.0000E+00  0.1600E+02  0.1600E+02
     19.725  0.0000E+00  0.0000E+00  0.1600E+02  0.1600E+02
     19.926  0.0000E+00  0.0000E+00  0.1600E+02  0.1600E+02
     20.126  0.0000E+00  0.0000E+00  0.1600E+02  0.1600E+02
     20.326  0.0000E+00  0.0000E+00  0.1600E+02  0.1600E+02
     20.526  0.0000E+00  0.0000E+00  0.1600E+02  0.1600E+02
     20.726  0.0000E+00  0.0000E+00  0.1600E+02  0.1600E+02
     20.927  0.0000E+00  0.0000E+00  0.1600E+02  0.1600E+02
     21.127  0.0000E+00  0.0000E+00  0.1600E+02  0.1600E+02
     21.327  0.0000E+00  0.0000E+00  0.1600E+02  0.1600E+02
     21.527  0.0000E+00  0.0000E+00  0.1600E+02  0.1600E+02
     21.728  0.0000E+00  0.0000E+00  0.1600E+02  0.1600E+02
     21.72767775    -38.34479520  301     12.45822487      1.00000000
    -38.345  0.0000E+00  0.0000E+00  0.0000E+00  0.0000E+00  0.0000E+00  0.0000E+00  0.0000E+00  0.0000E+00  0.0000E+00  0.0000E+00  0.0000E+00  0.0000E+00  0.0000E+00  0.0000E+00  0.0000E+00  0.0000E+00  0.0000E+00  0.0000E+00
    -38.145  0.0000E+00  0.0000E+00  0.0000E+00  0.0000E+00  0.0000E+00  0.0000E+00  0.0000E+00  0.0000E+00  0.0000E+00  0.0000E+00  0.0000E+00  0.0000E+00  0.0000E+00  0.0000E+00  0.0000E+00  0.0000E+00  0.0000E+00  0.0000E+00
    -37.944  0.0000E+00  0.0000E+00  0.0000E+00  0.0000E+00  0.0000E+00  0.0000E+00  0.0000E+00  0.0000E+00  0.0000E+00  0.0000E+00  0.0000E+00  0.0000E+00  0.0000E+00  0.0000E+00  0.0000E+00  0.0000E+00  0.0000E+00  0.0000E+00
    -37.744  0.0000E+00  0.0000E+00  0.0000E+00  0.0000E+00  0.0000E+00  0.0000E+00  0.0000E+00  0.0000E+00  0.0000E+00  0.0000E+00  0.0000E+00  0.0000E+00  0.0000E+00  0.0000E+00  0.0000E+00  0.0000E+00  0.0000E+00  0.0000E+00
    -37.544  0.0000E+00  0.0000E+00  0.0000E+00  0.0000E+00  0.0000E+00  0.0000E+00  0.0000E+00  0.0000E+00  0.0000E+00  0.0000E+00  0.0000E+00  0.0000E+00  0.0000E+00  0.0000E+00  0.0000E+00  0.0000E+00  0.0000E+00  0.0000E+00
    -37.344  0.0000E+00  0.0000E+00  0.0000E+00  0.0000E+00  0.0000E+00  0.0000E+00  0.0000E+00  0.0000E+00  0.0000E+00  0.0000E+00  0.0000E+00  0.0000E+00  0.0000E+00  0.0000E+00  0.0000E+00  0.0000E+00  0.0000E+00  0.0000E+00
    -37.143  0.0000E+00  0.0000E+00  0.0000E+00  0.0000E+00  0.0000E+00  0.0000E+00  0.0000E+00  0.0000E+00  0.0000E+00  0.0000E+00  0.0000E+00  0.0000E+00  0.0000E+00  0.0000E+00  0.0000E+00  0.0000E+00  0.0000E+00  0.0000E+00
    -36.943  0.0000E+00  0.0000E+00  0.0000E+00  0.0000E+00  0.0000E+00  0.0000E+00  0.0000E+00  0.0000E+00  0.0000E+00  0.0000E+00  0.0000E+00  0.0000E+00  0.0000E+00  0.0000E+00  0.0000E+00  0.0000E+00  0.0000E+00  0.0000E+00
    -36.743  0.0000E+00  0.0000E+00  0.0000E+00  0.0000E+00  0.0000E+00  0.0000E+00  0.0000E+00  0.0000E+00  0.0000E+00  0.0000E+00  0.0000E+00  0.0000E+00  0.0000E+00  0.0000E+00  0.0000E+00  0.0000E+00  0.0000E+00  0.0000E+00
    -36.543  0.0000E+00  0.0000E+00  0.0000E+00  0.0000E+00  0.0000E+00  0.0000E+00  0.0000E+00  0.0000E+00  0.0000E+00  0.0000E+00  0.0000E+00  0.0000E+00  0.0000E+00  0.0000E+00  0.0000E+00  0.0000E+00  0.0000E+00  0.0000E+00
    -36.342  0.0000E+00  0.0000E+00  0.0000E+00  0.0000E+00  0.0000E+00  0.0000E+00  0.0000E+00  0.0000E+00  0.0000E+00  0.0000E+00  0.0000E+00  0.0000E+00  0.0000E+00  0.0000E+00  0.0000E+00  0.0000E+00  0.0000E+00  0.0000E+00
    -36.142  0.9536E-04  0.9481E-04  0.1038E-10  0.1042E-10  0.1038E-10  0.1042E-10  0.1047E-10  0.1050E-10  0.1164E-13  0.1026E-13  0.1158E-13  0.1027E-13  0.1151E-10  0.1156E-10  0.1164E-13  0.1026E-13  0.1175E-10  0.1181E-10
    -35.942  0.5131E-02  0.5101E-02  0.5587E-09  0.5605E-09  0.5587E-09  0.5605E-09  0.5634E-09  0.5651E-09  0.6262E-12  0.5519E-12  0.6232E-12  0.5527E-12  0.6191E-09  0.6222E-09  0.6262E-12  0.5519E-12  0.6321E-09  0.6355E-09
    -35.742  0.2659E+00  0.2644E+00  0.2894E-07  0.2905E-07  0.2894E-07  0.2905E-07  0.2918E-07  0.2929E-07  0.3246E-10  0.2859E-10  0.3231E-10  0.2863E-10  0.3211E-07  0.3228E-07  0.3246E-10  0.2859E-10  0.3276E-07  0.3295E-07
    -35.541  0.3487E+01  0.3483E+01  0.3776E-06  0.3808E-06  0.3776E-06  0.3808E-06  0.3808E-06  0.3839E-06  0.4267E-09  0.3723E-09  0.4246E-09  0.3728E-09  0.4242E-06  0.4285E-06  0.4267E-09  0.3723E-09  0.4293E-06  0.4337E-06
    -35.341  0.1166E+01  0.1171E+01  0.1252E-06  0.1270E-06  0.1252E-06  0.1270E-06  0.1263E-06  0.1281E-06  0.1426E-09  0.1228E-09  0.1419E-09  0.1230E-09  0.1422E-06  0.1445E-06  0.1426E-09  0.1228E-09  0.1425E-06  0.1447E-06
    -35.141  0.0000E+00  0.0000E+00  0.0000E+00  0.0000E+00  0.0000E+00  0.0000E+00  0.0000E+00  0.0000E+00  0.0000E+00  0.0000E+00  0.0000E+00  0.0000E+00  0.0000E+00  0.0000E+00  0.0000E+00  0.0000E+00  0.0000E+00  0.0000E+00
    -34.941  0.0000E+00  0.0000E+00  0.0000E+00  0.0000E+00  0.0000E+00  0.0000E+00  0.0000E+00  0.0000E+00  0.0000E+00  0.0000E+00  0.0000E+00  0.0000E+00  0.0000E+00  0.0000E+00  0.0000E+00  0.0000E+00  0.0000E+00  0.0000E+00
    -34.740  0.0000E+00  0.0000E+00  0.0000E+00  0.0000E+00  0.0000E+00  0.0000E+00  0.0000E+00  0.0000E+00  0.0000E+00  0.0000E+00  0.0000E+00  0.0000E+00  0.0000E+00  0.0000E+00  0.0000E+00  0.0000E+00  0.0000E+00  0.0000E+00
    -34.540  0.0000E+00  0.0000E+00  0.0000E+00  0.0000E+00  0.0000E+00  0.0000E+00  0.0000E+00  0.0000E+00  0.0000E+00  0.0000E+00  0.0000E+00  0.0000E+00  0.0000E+00  0.0000E+00  0.0000E+00  0.0000E+00  0.0000E+00  0.0000E+00
    -34.340  0.0000E+00  0.0000E+00  0.0000E+00  0.0000E+00  0.0000E+00  0.0000E+00  0.0000E+00  0.0000E+00  0.0000E+00  0.0000E+00  0.0000E+00  0.0000E+00  0.0000E+00  0.0000E+00  0.0000E+00  0.0000E+00  0.0000E+00  0.0000E+00
    -34.140  0.0000E+00  0.0000E+00  0.0000E+00  0.0000E+00  0.0000E+00  0.0000E+00  0.0000E+00  0.0000E+00  0.0000E+00  0.0000E+00  0.0000E+00  0.0000E+00  0.0000E+00  0.0000E+00  0.0000E+00  0.0000E+00  0.0000E+00  0.0000E+00
    -33.939  0.0000E+00  0.0000E+00  0.0000E+00  0.0000E+00  0.0000E+00  0.0000E+00  0.0000E+00  0.0000E+00  0.0000E+00  0.0000E+00  0.0000E+00  0.0000E+00  0.0000E+00  0.0000E+00  0.0000E+00  0.0000E+00  0.0000E+00  0.0000E+00
    -33.739  0.0000E+00  0.0000E+00  0.0000E+00  0.0000E+00  0.0000E+00  0.0000E+00  0.0000E+00  0.0000E+00  0.0000E+00  0.0000E+00  0.0000E+00  0.0000E+00  0.0000E+00  0.0000E+00  0.0000E+00  0.0000E+00  0.0000E+00  0.0000E+00
    -33.539  0.0000E+00  0.0000E+00  0.0000E+00  0.0000E+00  0.0000E+00  0.0000E+00  0.0000E+00  0.0000E+00  0.0000E+00  0.0000E+00  0.0000E+00  0.0000E+00  0.0000E+00  0.0000E+00  0.0000E+00  0.0000E+00  0.0000E+00  0.0000E+00
    -33.339  0.0000E+00  0.0000E+00  0.0000E+00  0.0000E+00  0.0000E+00  0.0000E+00  0.0000E+00  0.0000E+00  0.0000E+00  0.0000E+00  0.0000E+00  0.0000E+00  0.0000E+00  0.0000E+00  0.0000E+00  0.0000E+00  0.0000E+00  0.0000E+00
    -33.139  0.0000E+00  0.0000E+00  0.0000E+00  0.0000E+00  0.0000E+00  0.0000E+00  0.0000E+00  0.0000E+00  0.0000E+00  0.0000E+00  0.0000E+00  0.0000E+00  0.0000E+00  0.0000E+00  0.0000E+00  0.0000E+00  0.0000E+00  0.0000E+00
    -32.938  0.0000E+00  0.0000E+00  0.0000E+00  0.0000E+00  0.0000E+00  0.0000E+00  0.0000E+00  0.0000E+00  0.0000E+00  0.0000E+00  0.0000E+00  0.0000E+00  0.0000E+00  0.0000E+00  0.0000E+00  0.0000E+00  0.0000E+00  0.0000E+00
    -32.738  0.0000E+00  0.0000E+00  0.0000E+00  0.0000E+00  0.0000E+00  0.0000E+00  0.0000E+00  0.0000E+00  0.0000E+00  0.0000E+00  0.0000E+00  0.0000E+00  0.0000E+00  0.0000E+00  0.0000E+00  0.0000E+00  0.0000E+00  0.0000E+00
    -32.538  0.0000E+00  0.0000E+00  0.0000E+00  0.0000E+00  0.0000E+00  0.0000E+00  0.0000E+00  0.0000E+00  0.0000E+00  0.0000E+00  0.0000E+00  0.0000E+00  0.0000E+00  0.0000E+00  0.0000E+00  0.0000E+00  0.0000E+00  0.0000E+00
    -32.338  0.0000E+00  0.0000E+00  0.0000E+00  0.0000E+00  0.0000E+00  0.0000E+00  0.0000E+00  0.0000E+00  0.0000E+00  0.0000E+00  0.0000E+00  0.0000E+00  0.0000E+00  0.0000E+00  0.0000E+00  0.0000E+00  0.0000E+00  0.0000E+00
    -32.137  0.0000E+00  0.0000E+00  0.0000E+00  0.0000E+00  0.0000E+00  0.0000E+00  0.0000E+00  0.0000E+00  0.0000E+00  0.0000E+00  0.0000E+00  0.0000E+00  0.0000E+00  0.0000E+00  0.0000E+00  0.0000E+00  0.0000E+00  0.0000E+00
    -31.937  0.0000E+00  0.0000E+00  0.0000E+00  0.0000E+00  0.0000E+00  0.0000E+00  0.0000E+00  0.0000E+00  0.0000E+00  0.0000E+00  0.0000E+00  0.0000E+00  0.0000E+00  0.0000E+00  0.0000E+00  0.0000E+00  0.0000E+00  0.0000E+00
    -31.737  0.0000E+00  0.0000E+00  0.0000E+00  0.0000E+00  0.0000E+00  0.0000E+00  0.0000E+00  0.0000E+00  0.0000E+00  0.0000E+00  0.0000E+00  0.0000E+00  0.0000E+00  0.0000E+00  0.0000E+00  0.0000E+00  0.0000E+00  0.0000E+00
    -31.537  0.0000E+00  0.0000E+00  0.0000E+00  0.0000E+00  0.0000E+00  0.0000E+00  0.0000E+00  0.0000E+00  0.0000E+00  0.0000E+00  0.0000E+00  0.0000E+00  0.0000E+00  0.0000E+00  0.0000E+00  0.0000E+00  0.0000E+00  0.0000E+00
    -31.336  0.0000E+00  0.0000E+00  0.0000E+00  0.0000E+00  0.0000E+00  0.0000E+00  0.0000E+00  0.0000E+00  0.0000E+00  0.0000E+00  0.0000E+00  0.0000E+00  0.0000E+00  0.0000E+00  0.0000E+00  0.0000E+00  0.0000E+00  0.0000E+00
    -31.136  0.0000E+00  0.0000E+00  0.0000E+00  0.0000E+00  0.0000E+00  0.0000E+00  0.0000E+00  0.0000E+00  0.0000E+00  0.0000E+00  0.0000E+00  0.0000E+00  0.0000E+00  0.0000E+00  0.0000E+00  0.0000E+00  0.0000E+00  0.0000E+00
    -30.936  0.0000E+00  0.0000E+00  0.0000E+00  0.0000E+00  0.0000E+00  0.0000E+00  0.0000E+00  0.0000E+00  0.0000E+00  0.0000E+00  0.0000E+00  0.0000E+00  0.0000E+00  0.0000E+00  0.0000E+00  0.0000E+00  0.0000E+00  0.0000E+00
    -30.736  0.0000E+00  0.0000E+00  0.0000E+00  0.0000E+00  0.0000E+00  0.0000E+00  0.0000E+00  0.0000E+00  0.0000E+00  0.0000E+00  0.0000E+00  0.0000E+00  0.0000E+00  0.0000E+00  0.0000E+00  0.0000E+00  0.0000E+00  0.0000E+00
    -30.535  0.0000E+00  0.0000E+00  0.0000E+00  0.0000E+00  0.0000E+00  0.0000E+00  0.0000E+00  0.0000E+00  0.0000E+00  0.0000E+00  0.0000E+00  0.0000E+00  0.0000E+00  0.0000E+00  0.0000E+00  0.0000E+00  0.0000E+00  0.0000E+00
    -30.335  0.0000E+00  0.0000E+00  0.0000E+00  0.0000E+00  0.0000E+00  0.0000E+00  0.0000E+00  0.0000E+00  0.0000E+00  0.0000E+00  0.0000E+00  0.0000E+00  0.0000E+00  0.0000E+00  0.0000E+00  0.0000E+00  0.0000E+00  0.0000E+00
    -30.135  0.0000E+00  0.0000E+00  0.0000E+00  0.0000E+00  0.0000E+00  0.0000E+00  0.0000E+00  0.0000E+00  0.0000E+00  0.0000E+00  0.0000E+00  0.0000E+00  0.0000E+00  0.0000E+00  0.0000E+00  0.0000E+00  0.0000E+00  0.0000E+00
    -29.935  0.0000E+00  0.0000E+00  0.0000E+00  0.0000E+00  0.0000E+00  0.0000E+00  0.0000E+00  0.0000E+00  0.0000E+00  0.0000E+00  0.0000E+00  0.0000E+00  0.0000E+00  0.0000E+00  0.0000E+00  0.0000E+00  0.0000E+00  0.0000E+00
    -29.734  0.0000E+00  0.0000E+00  0.0000E+00  0.0000E+00  0.0000E+00  0.0000E+00  0.0000E+00  0.0000E+00  0.0000E+00  0.0000E+00  0.0000E+00  0.0000E+00  0.0000E+00  0.0000E+00  0.0000E+00  0.0000E+00  0.0000E+00  0.0000E+00
    -29.534  0.0000E+00  0.0000E+00  0.0000E+00  0.0000E+00  0.0000E+00  0.0000E+00  0.0000E+00  0.0000E+00  0.0000E+00  0.0000E+00  0.0000E+00  0.0000E+00  0.0000E+00  0.0000E+00  0.0000E+00  0.0000E+00  0.0000E+00  0.0000E+00
    -29.334  0.0000E+00  0.0000E+00  0.0000E+00  0.0000E+00  0.0000E+00  0.0000E+00  0.0000E+00  0.0000E+00  0.0000E+00  0.0000E+00  0.0000E+00  0.0000E+00  0.0000E+00  0.0000E+00  0.0000E+00  0.0000E+00  0.0000E+00  0.0000E+00
    -29.134  0.0000E+00  0.0000E+00  0.0000E+00  0.0000E+00  0.0000E+00  0.0000E+00  0.0000E+00  0.0000E+00  0.0000E+00  0.0000E+00  0.0000E+00  0.0000E+00  0.0000E+00  0.0000E+00  0.0000E+00  0.0000E+00  0.0000E+00  0.0000E+00
    -28.933  0.0000E+00  0.0000E+00  0.0000E+00  0.0000E+00  0.0000E+00  0.0000E+00  0.0000E+00  0.0000E+00  0.0000E+00  0.0000E+00  0.0000E+00  0.0000E+00  0.0000E+00  0.0000E+00  0.0000E+00  0.0000E+00  0.0000E+00  0.0000E+00
    -28.733  0.0000E+00  0.0000E+00  0.0000E+00  0.0000E+00  0.0000E+00  0.0000E+00  0.0000E+00  0.0000E+00  0.0000E+00  0.0000E+00  0.0000E+00  0.0000E+00  0.0000E+00  0.0000E+00  0.0000E+00  0.0000E+00  0.0000E+00  0.0000E+00
    -28.533  0.0000E+00  0.0000E+00  0.0000E+00  0.0000E+00  0.0000E+00  0.0000E+00  0.0000E+00  0.0000E+00  0.0000E+00  0.0000E+00  0.0000E+00  0.0000E+00  0.0000E+00  0.0000E+00  0.0000E+00  0.0000E+00  0.0000E+00  0.0000E+00
    -28.333  0.0000E+00  0.0000E+00  0.0000E+00  0.0000E+00  0.0000E+00  0.0000E+00  0.0000E+00  0.0000E+00  0.0000E+00  0.0000E+00  0.0000E+00  0.0000E+00  0.0000E+00  0.0000E+00  0.0000E+00  0.0000E+00  0.0000E+00  0.0000E+00