   4   4   1   0
  0.1677609E+02  0.4062752E-09  0.4064108E-09  0.4064108E-09  0.5000000E-15
  1.000000000000000E-004
  CAR 
 unknown system                          
     17.30477708    -42.08598703  301      9.40171821      1.00000000
    -42.086  0.0000E+00  0.0000E+00  0.0000E+00  0.0000E+00
    -41.888  0.0000E+00  0.0000E+00  0.0000E+00  0.0000E+00
    -41.690  0.0000E+00  0.0000E+00  0.0000E+00  0.0000E+00
    -41.492  0.0000E+00  0.0000E+00  0.0000E+00  0.0000E+00
    -41.294  0.0000E+00  0.0000E+00  0.0000E+00  0.0000E+00
    -41.096  0.0000E+00  0.0000E+00  0.0000E+00  0.0000E+00
    -40.898  0.0000E+00  0.0000E+00  0.0000E+00  0.0000E+00
    -40.700  0.0000E+00  0.0000E+00  0.0000E+00  0.0000E+00
    -40.502  0.0000E+00  0.0000E+00  0.0000E+00  0.0000E+00
    -40.304  0.0000E+00  0.0000E+00  0.0000E+00  0.0000E+00
    -40.106  0.0000E+00  0.0000E+00  0.0000E+00  0.0000E+00
    -39.908  0.1369E-03  0.1348E-03  0.2710E-04  0.2669E-04
    -39.710  0.7031E-02  0.6922E-02  0.1419E-02  0.1397E-02
    -39.512  0.3430E+00  0.3381E+00  0.6933E-01  0.6833E-01
    -39.314  0.3671E+01  0.3663E+01  0.7960E+00  0.7935E+00
    -39.116  0.1006E+01  0.1018E+01  0.9951E+00  0.9951E+00
    -38.918  0.0000E+00  0.0000E+00  0.1000E+01  0.1000E+01
    -38.721  0.0000E+00  0.0000E+00  0.1000E+01  0.1000E+01
    -38.523  0.0000E+00  0.0000E+00  0.1000E+01  0.1000E+01
    -38.325  0.0000E+00  0.0000E+00  0.1000E+01  0.1000E+01
    -38.127  0.0000E+00  0.0000E+00  0.1000E+01  0.1000E+01
    -37.929  0.0000E+00  0.0000E+00  0.1000E+01  0.1000E+01
    -37.731  0.0000E+00  0.0000E+00  0.1000E+01  0.1000E+01
    -37.533  0.0000E+00  0.0000E+00  0.1000E+01  0.1000E+01
    -37.335  0.0000E+00  0.0000E+00  0.1000E+01  0.1000E+01
    -37.137  0.0000E+00  0.0000E+00  0.1000E+01  0.1000E+01
    -36.939  0.0000E+00  0.0000E+00  0.1000E+01  0.1000E+01
    -36.741  0.0000E+00  0.0000E+00  0.1000E+01  0.1000E+01
    -36.543  0.0000E+00  0.0000E+00  0.1000E+01  0.1000E+01
    -36.345  0.0000E+00  0.0000E+00  0.1000E+01  0.1000E+01
    -36.147  0.0000E+00  0.0000E+00  0.1000E+01  0.1000E+01
    -35.949  0.0000E+00  0.0000E+00  0.1000E+01  0.1000E+01
    -35.751  0.0000E+00  0.0000E+00  0.1000E+01  0.1000E+01
    -35.553  0.0000E+00  0.0000E+00  0.1000E+01  0.1000E+01
    -35.355  0.0000E+00  0.0000E+00  0.1000E+01  0.1000E+01
    -35.157  0.0000E+00  0.0000E+00  0.1000E+01  0.1000E+01
    -34.959  0.0000E+00  0.0000E+00  0.1000E+01  0.1000E+01
    -34.761  0.0000E+00  0.0000E+00  0.1000E+01  0.1000E+01
    -34.563  0.0000E+00  0.0000E+00  0.1000E+01  0.1000E+01
    -34.365  0.0000E+00  0.0000E+00  0.1000E+01  0.1000E+01
    -34.167  0.0000E+00  0.0000E+00  0.1000E+01  0.1000E+01
    -33.969  0.0000E+00  0.0000E+00  0.1000E+01  0.1000E+01
    -33.771  0.0000E+00  0.0000E+00  0.1000E+01  0.1000E+01
    -33.573  0.0000E+00  0.0000E+00  0.1000E+01  0.1000E+01
    -33.375  0.0000E+00  0.0000E+00  0.1000E+01  0.1000E+01
    -33.177  0.0000E+00  0.0000E+00  0.1000E+01  0.1000E+01
    -32.979  0.0000E+00  0.0000E+00  0.1000E+01  0.1000E+01
    -32.781  0.0000E+00  0.0000E+00  0.1000E+01  0.1000E+01
    -32.583  0.0000E+00  0.0000E+00  0.1000E+01  0.1000E+01
    -32.385  0.0000E+00  0.0000E+00  0.1000E+01  0.1000E+01
    -32.188  0.0000E+00  0.0000E+00  0.1000E+01  0.1000E+01
    -31.990  0.0000E+00  0.0000E+00  0.1000E+01  0.1000E+01
    -31.792  0.0000E+00  0.0000E+00  0.1000E+01  0.1000E+01
    -31.594  0.0000E+00  0.0000E+00  0.1000E+01  0.1000E+01
    -31.396  0.0000E+00  0.0000E+00  0.1000E+01  0.1000E+01
    -31.198  0.0000E+00  0.0000E+00  0.1000E+01  0.1000E+01
    -31.000  0.0000E+00  0.0000E+00  0.1000E+01  0.1000E+01
    -30.802  0.0000E+00  0.0000E+00  0.1000E+01  0.1000E+01
    -30.604  0.0000E+00  0.0000E+00  0.1000E+01  0.1000E+01
    -30.406  0.0000E+00  0.0000E+00  0.1000E+01  0.1000E+01
    -30.208  0.0000E+00  0.0000E+00  0.1000E+01  0.1000E+01
    -30.010  0.0000E+00  0.0000E+00  0.1000E+01  0.1000E+01
    -29.812  0.0000E+00  0.0000E+00  0.1000E+01  0.1000E+01
    -29.614  0.0000E+00  0.0000E+00  0.1000E+01  0.1000E+01
    -29.416  0.0000E+00  0.0000E+00  0.1000E+01  0.1000E+01
    -29.218  0.0000E+00  0.0000E+00  0.1000E+01  0.1000E+01
    -29.020  0.0000E+00  0.0000E+00  0.1000E+01  0.1000E+01
    -28.822  0.0000E+00  0.0000E+00  0.1000E+01  0.1000E+01
    -28.624  0.0000E+00  0.0000E+00  0.1000E+01  0.1000E+01
    -28.426  0.0000E+00  0.0000E+00  0.1000E+01  0.1000E+01
    -28.228  0.0000E+00  0.0000E+00  0.1000E+01  0.1000E+01
    -28.030  0.0000E+00  0.0000E+00  0.1000E+01  0.1000E+01
    -27.832  0.0000E+00  0.0000E+00  0.1000E+01  0.1000E+01
    -27.634  0.0000E+00  0.0000E+00  0.1000E+01  0.1000E+01
    -27.436  0.0000E+00  0.0000E+00  0.1000E+01  0.1000E+01
    -27.238  0.0000E+00  0.0000E+00  0.1000E+01  0.1000E+01
    -27.040  0.0000E+00  0.0000E+00  0.1000E+01  0.1000E+01
    -26.842  0.0000E+00  0.0000E+00  0.1000E+01  0.1000E+01
    -26.644  0.0000E+00  0.0000E+00  0.1000E+01  0.1000E+01
    -26.446  0.0000E+00  0.0000E+00  0.1000E+01  0.1000E+01
    -26.248  0.0000E+00  0.0000E+00  0.1000E+01  0.1000E+01
    -26.050  0.0000E+00  0.0000E+00  0.1000E+01  0.1000E+01
    -25.853  0.0000E+00  0.0000E+00  0.1000E+01  0.1000E+01
    -25.655  0.0000E+00  0.0000E+00  0.1000E+01  0.1000E+01
    -25.457  0.0000E+00  0.0000E+00  0.1000E+01  0.1000E+01
    -25.259  0.0000E+00  0.0000E+00  0.1000E+01  0.1000E+01
    -25.061  0.0000E+00  0.0000E+00  0.1000E+01  0.1000E+01
    -24.863  0.0000E+00  0.0000E+00  0.1000E+01  0.1000E+01
    -24.665  0.0000E+00  0.0000E+00  0.1000E+01  0.1000E+01
    -24.467  0.0000E+00  0.0000E+00  0.1000E+01  0.1000E+01
    -24.269  0.0000E+00  0.0000E+00  0.1000E+01  0.1000E+01
    -24.071  0.0000E+00  0.0000E+00  0.1000E+01  0.1000E+01
    -23.873  0.0000E+00  0.0000E+00  0.1000E+01  0.1000E+01
    -23.675  0.0000E+00  0.0000E+00  0.1000E+01  0.1000E+01
    -23.477  0.0000E+00  0.0000E+00  0.1000E+01  0.1000E+01
    -23.279  0.0000E+00  0.0000E+00  0.1000E+01  0.1000E+01
    -23.081  0.0000E+00  0.0000E+00  0.1000E+01  0.1000E+01
    -22.883  0.0000E+00  0.0000E+00  0.1000E+01  0.1000E+01
    -22.685  0.0000E+00  0.0000E+00  0.1000E+01  0.1000E+01
    -22.487  0.0000E+00  0.0000E+00  0.1000E+01  0.1000E+01
    -22.289  0.0000E+00  0.0000E+00  0.1000E+01  0.1000E+01
    -22.091  0.0000E+00  0.0000E+00  0.1000E+01  0.1000E+01
    -21.893  0.0000E+00  0.0000E+00  0.1000E+01  0.1000E+01
    -21.695  0.0000E+00  0.0000E+00  0.1000E+01  0.1000E+01
    -21.497  0.0000E+00  0.0000E+00  0.1000E+01  0.1000E+01
    -21.299  0.0000E+00  0.0000E+00  0.1000E+01  0.1000E+01
    -21.101  0.0000E+00  0.0000E+00  0.1000E+01  0.1000E+01
    -20.903  0.0000E+00  0.0000E+00  0.1000E+01  0.1000E+01
    -20.705  0.0000E+00  0.0000E+00  0.1000E+01  0.1000E+01
    -20.507  0.0000E+00  0.0000E+00  0.1000E+01  0.1000E+01
    -20.309  0.0000E+00  0.0000E+00  0.1000E+01  0.1000E+01
    -20.111  0.0000E+00  0.0000E+00  0.1000E+01  0.1000E+01
    -19.913  0.0000E+00  0.0000E+00  0.1000E+01  0.1000E+01
    -19.715  0.0000E+00  0.0000E+00  0.1000E+01  0.1000E+01
    -19.517  0.0000E+00  0.0000E+00  0.1000E+01  0.1000E+01
    -19.320  0.0000E+00  0.0000E+00  0.1000E+01  0.1000E+01
    -19.122  0.0000E+00  0.0000E+00  0.1000E+01  0.1000E+01
    -18.924  0.0000E+00  0.0000E+00  0.1000E+01  0.1000E+01
    -18.726  0.0000E+00  0.0000E+00  0.1000E+01  0.1000E+01
    -18.528  0.0000E+00  0.0000E+00  0.1000E+01  0.1000E+01
    -18.330  0.0000E+00  0.0000E+00  0.1000E+01  0.1000E+01
    -18.132  0.9942E-04  0.9743E-04  0.1000E+01  0.1000E+01
    -17.934  0.6633E-02  0.6524E-02  0.1001E+01  0.1001E+01
    -17.736  0.3366E+00  0.3312E+00  0.1068E+01  0.1067E+01
    -17.538  0.7528E+01  0.7474E+01  0.2558E+01  0.2546E+01
    -17.340  0.6991E+01  0.7045E+01  0.3942E+01  0.3941E+01
    -17.142  0.2028E+00  0.2080E+00  0.3999E+01  0.3999E+01
    -16.944  0.0000E+00  0.0000E+00  0.4000E+01  0.4000E+01
    -16.746  0.0000E+00  0.0000E+00  0.4000E+01  0.4000E+01
    -16.548  0.0000E+00  0.0000E+00  0.4000E+01  0.4000E+01
    -16.350  0.0000E+00  0.0000E+00  0.4000E+01  0.4000E+01
    -16.152  0.0000E+00  0.0000E+00  0.4000E+01  0.4000E+01
    -15.954  0.0000E+00  0.0000E+00  0.4000E+01  0.4000E+01
    -15.756  0.0000E+00  0.0000E+00  0.4000E+01  0.4000E+01
    -15.558  0.0000E+00  0.0000E+00  0.4000E+01  0.4000E+01
    -15.360  0.0000E+00  0.0000E+00  0.4000E+01  0.4000E+01
    -15.162  0.0000E+00  0.0000E+00  0.4000E+01  0.4000E+01
    -14.964  0.0000E+00  0.0000E+00  0.4000E+01  0.4000E+01
    -14.766  0.0000E+00  0.0000E+00  0.4000E+01  0.4000E+01
    -14.568  0.0000E+00  0.0000E+00  0.4000E+01  0.4000E+01
    -14.370  0.0000E+00  0.0000E+00  0.4000E+01  0.4000E+01
    -14.172  0.0000E+00  0.0000E+00  0.4000E+01  0.4000E+01
    -13.974  0.0000E+00  0.0000E+00  0.4000E+01  0.4000E+01
    -13.776  0.0000E+00  0.0000E+00  0.4000E+01  0.4000E+01
    -13.578  0.0000E+00  0.0000E+00  0.4000E+01  0.4000E+01
    -13.380  0.0000E+00  0.0000E+00  0.4000E+01  0.4000E+01
    -13.182  0.0000E+00  0.0000E+00  0.4000E+01  0.4000E+01
    -12.985  0.0000E+00  0.0000E+00  0.4000E+01  0.4000E+01
    -12.787  0.0000E+00  0.0000E+00  0.4000E+01  0.4000E+01
    -12.589  0.0000E+00  0.0000E+00  0.4000E+01  0.4000E+01
    -12.391  0.0000E+00  0.0000E+00  0.4000E+01  0.4000E+01
    -12.193  0.0000E+00  0.0000E+00  0.4000E+01  0.4000E+01
    -11.995  0.0000E+00  0.0000E+00  0.4000E+01  0.4000E+01
    -11.797  0.0000E+00  0.0000E+00  0.4000E+01  0.4000E+01
    -11.599  0.0000E+00  0.0000E+00  0.4000E+01  0.4000E+01
    -11.401  0.0000E+00  0.0000E+00  0.4000E+01  0.4000E+01
    -11.203  0.0000E+00  0.0000E+00  0.4000E+01  0.4000E+01
    -11.005  0.0000E+00  0.0000E+00  0.4000E+01  0.4000E+01
    -10.807  0.0000E+00  0.0000E+00  0.4000E+01  0.4000E+01
    -10.609  0.0000E+00  0.0000E+00  0.4000E+01  0.4000E+01
    -10.411  0.0000E+00  0.0000E+00  0.4000E+01  0.4000E+01
    -10.213  0.0000E+00  0.0000E+00  0.4000E+01  0.4000E+01
    -10.015  0.0000E+00  0.0000E+00  0.4000E+01  0.4000E+01
     -9.817  0.0000E+00  0.0000E+00  0.4000E+01  0.4000E+01
     -9.619  0.0000E+00  0.0000E+00  0.4000E+01  0.4000E+01
     -9.421  0.0000E+00  0.0000E+00  0.4000E+01  0.4000E+01
     -9.223  0.0000E+00  0.0000E+00  0.4000E+01  0.4000E+01
     -9.025  0.0000E+00  0.0000E+00  0.4000E+01  0.4000E+01
     -8.827  0.0000E+00  0.0000E+00  0.4000E+01  0.4000E+01
     -8.629  0.0000E+00  0.0000E+00  0.4000E+01  0.4000E+01
     -8.431  0.0000E+00  0.0000E+00  0.4000E+01  0.4000E+01
     -8.233  0.0000E+00  0.0000E+00  0.4000E+01  0.4000E+01
     -8.035  0.0000E+00  0.0000E+00  0.4000E+01  0.4000E+01
     -7.837  0.0000E+00  0.0000E+00  0.4000E+01  0.4000E+01
     -7.639  0.0000E+00  0.0000E+00  0.4000E+01  0.4000E+01
     -7.441  0.0000E+00  0.0000E+00  0.4000E+01  0.4000E+01
     -7.243  0.0000E+00  0.0000E+00  0.4000E+01  0.4000E+01
     -7.045  0.0000E+00  0.0000E+00  0.4000E+01  0.4000E+01
     -6.847  0.0000E+00  0.0000E+00  0.4000E+01  0.4000E+01
     -6.649  0.0000E+00  0.0000E+00  0.4000E+01  0.4000E+01
     -6.452  0.0000E+00  0.0000E+00  0.4000E+01  0.4000E+01
     -6.254  0.0000E+00  0.0000E+00  0.4000E+01  0.4000E+01
     -6.056  0.0000E+00  0.0000E+00  0.4000E+01  0.4000E+01
     -5.858  0.0000E+00  0.0000E+00  0.4000E+01  0.4000E+01
     -5.660  0.0000E+00  0.0000E+00  0.4000E+01  0.4000E+01
     -5.462  0.0000E+00  0.0000E+00  0.4000E+01  0.4000E+01
     -5.264  0.0000E+00  0.0000E+00  0.4000E+01  0.4000E+01
     -5.066  0.0000E+00  0.0000E+00  0.4000E+01  0.4000E+01
     -4.868  0.0000E+00  0.0000E+00  0.4000E+01  0.4000E+01
     -4.670  0.0000E+00  0.0000E+00  0.4000E+01  0.4000E+01
     -4.472  0.0000E+00  0.0000E+00  0.4000E+01  0.4000E+01
     -4.274  0.0000E+00  0.0000E+00  0.4000E+01  0.4000E+01
     -4.076  0.0000E+00  0.0000E+00  0.4000E+01  0.4000E+01
     -3.878  0.0000E+00  0.0000E+00  0.4000E+01  0.4000E+01
     -3.680  0.0000E+00  0.0000E+00  0.4000E+01  0.4000E+01
     -3.482  0.0000E+00  0.0000E+00  0.4000E+01  0.4000E+01
     -3.284  0.0000E+00  0.0000E+00  0.4000E+01  0.4000E+01
     -3.086  0.0000E+00  0.0000E+00  0.4000E+01  0.4000E+01
     -2.888  0.0000E+00  0.0000E+00  0.4000E+01  0.4000E+01
     -2.690  0.0000E+00  0.0000E+00  0.4000E+01  0.4000E+01
     -2.492  0.0000E+00  0.0000E+00  0.4000E+01  0.4000E+01
     -2.294  0.0000E+00  0.0000E+00  0.4000E+01  0.4000E+01
     -2.096  0.0000E+00  0.0000E+00  0.4000E+01  0.4000E+01
     -1.898  0.0000E+00  0.0000E+00  0.4000E+01  0.4000E+01
     -1.700  0.0000E+00  0.0000E+00  0.4000E+01  0.4000E+01
     -1.502  0.1196E-05  0.1189E-05  0.4000E+01  0.4000E+01
     -1.304  0.6689E-04  0.6645E-04  0.4000E+01  0.4000E+01
     -1.106  0.3124E-02  0.3105E-02  0.4001E+01  0.4001E+01
     -0.908  0.4059E-01  0.4049E-01  0.4009E+01  0.4009E+01
     -0.710  0.1004E+00  0.1004E+00  0.4029E+01  0.4029E+01
     -0.512  0.1299E+00  0.1298E+00  0.4054E+01  0.4054E+01
     -0.314  0.1725E+00  0.1724E+00  0.4089E+01  0.4089E+01
     -0.117  0.1826E+00  0.1826E+00  0.4125E+01  0.4125E+01
      0.081  0.2478E+00  0.2477E+00  0.4174E+01  0.4174E+01
      0.279  0.2255E+00  0.2255E+00  0.4219E+01  0.4219E+01
      0.477  0.3020E+00  0.3018E+00  0.4279E+01  0.4279E+01
      0.675  0.3109E+00  0.3110E+00  0.4340E+01  0.4340E+01
      0.873  0.3458E+00  0.3456E+00  0.4409E+01  0.4409E+01
      1.071  0.3985E+00  0.3983E+00  0.4488E+01  0.4488E+01
      1.269  0.4744E+00  0.4744E+00  0.4582E+01  0.4582E+01
      1.467  0.3882E+00  0.3882E+00  0.4659E+01  0.4659E+01
      1.665  0.4183E+00  0.4185E+00  0.4742E+01  0.4742E+01
      1.863  0.4333E+00  0.4330E+00  0.4829E+01  0.4828E+01
      2.061  0.4483E+00  0.4492E+00  0.4918E+01  0.4918E+01
      2.259  0.3880E+00  0.3882E+00  0.4995E+01  0.4995E+01
      2.457  0.3288E+00  0.3286E+00  0.5061E+01  0.5061E+01
      2.655  0.3794E+00  0.3793E+00  0.5136E+01  0.5136E+01
      2.853  0.4606E+00  0.4606E+00  0.5228E+01  0.5228E+01
      3.051  0.3552E+00  0.3552E+00  0.5298E+01  0.5298E+01
      3.249  0.5203E+00  0.5200E+00  0.5402E+01  0.5402E+01
      3.447  0.6117E+00  0.6116E+00  0.5523E+01  0.5523E+01
      3.645  0.7086E+00  0.7082E+00  0.5664E+01  0.5663E+01
      3.843  0.8827E+00  0.8826E+00  0.5839E+01  0.5839E+01
      4.041  0.8156E+00  0.8154E+00  0.6001E+01  0.6001E+01
      4.239  0.7426E+00  0.7430E+00  0.6149E+01  0.6149E+01
      4.437  0.6702E+00  0.6701E+00  0.6283E+01  0.6283E+01
      4.635  0.6548E+00  0.6551E+00  0.6413E+01  0.6413E+01
      4.833  0.4893E+00  0.4894E+00  0.6511E+01  0.6511E+01
      5.031  0.5837E+00  0.5836E+00  0.6627E+01  0.6627E+01
      5.229  0.6802E+00  0.6798E+00  0.6762E+01  0.6762E+01
      5.427  0.6952E+00  0.6952E+00  0.6900E+01  0.6900E+01
      5.625  0.6832E+00  0.6833E+00  0.7036E+01  0.7036E+01
      5.823  0.9491E+00  0.9488E+00  0.7225E+01  0.7225E+01
      6.021  0.7196E+00  0.7200E+00  0.7368E+01  0.7368E+01
      6.219  0.8499E+00  0.8494E+00  0.7537E+01  0.7537E+01
      6.416  0.1107E+01  0.1106E+01  0.7757E+01  0.7756E+01
      6.614  0.1716E+01  0.1715E+01  0.8097E+01  0.8097E+01
      6.812  0.1661E+01  0.1661E+01  0.8427E+01  0.8426E+01
      7.010  0.1628E+01  0.1628E+01  0.8750E+01  0.8750E+01
      7.208  0.1329E+01  0.1330E+01  0.9015E+01  0.9015E+01
      7.406  0.1086E+01  0.1086E+01  0.9231E+01  0.9231E+01
      7.604  0.8426E+00  0.8435E+00  0.9399E+01  0.9399E+01
      7.802  0.6782E+00  0.6779E+00  0.9535E+01  0.9534E+01
      8.000  0.7008E+00  0.7013E+00  0.9674E+01  0.9674E+01
      8.198  0.6638E+00  0.6636E+00  0.9806E+01  0.9806E+01
      8.396  0.4503E+00  0.4506E+00  0.9896E+01  0.9895E+01
      8.594  0.7037E+00  0.7032E+00  0.1004E+02  0.1004E+02
      8.792  0.3629E+00  0.3640E+00  0.1011E+02  0.1011E+02
      8.990  0.4437E+00  0.4428E+00  0.1020E+02  0.1020E+02
      9.188  0.6463E+00  0.6464E+00  0.1032E+02  0.1032E+02
      9.386  0.8043E+00  0.8033E+00  0.1048E+02  0.1048E+02
      9.584  0.8695E+00  0.8699E+00  0.1066E+02  0.1066E+02
      9.782  0.1178E+01  0.1178E+01  0.1089E+02  0.1089E+02
      9.980  0.9431E+00  0.9435E+00  0.1108E+02  0.1108E+02
     10.178  0.9852E+00  0.9850E+00  0.1127E+02  0.1127E+02
     10.376  0.1215E+01  0.1215E+01  0.1152E+02  0.1152E+02
     10.574  0.1257E+01  0.1258E+01  0.1177E+02  0.1176E+02
     10.772  0.1228E+01  0.1227E+01  0.1201E+02  0.1201E+02
     10.970  0.1638E+01  0.1637E+01  0.1233E+02  0.1233E+02
     11.168  0.1981E+01  0.1981E+01  0.1273E+02  0.1273E+02
     11.366  0.1577E+01  0.1579E+01  0.1304E+02  0.1304E+02
     11.564  0.1250E+01  0.1250E+01  0.1329E+02  0.1329E+02
     11.762  0.1299E+01  0.1299E+01  0.1355E+02  0.1355E+02
     11.960  0.1032E+01  0.1032E+01  0.1375E+02  0.1375E+02
     12.158  0.1141E+01  0.1141E+01  0.1398E+02  0.1398E+02
     12.356  0.1176E+01  0.1177E+01  0.1421E+02  0.1421E+02
     12.554  0.1065E+01  0.1065E+01  0.1443E+02  0.1443E+02
     12.751  0.1472E+01  0.1473E+01  0.1472E+02  0.1472E+02
     12.949  0.9300E+00  0.9317E+00  0.1490E+02  0.1490E+02
     13.147  0.1242E+01  0.1242E+01  0.1515E+02  0.1515E+02
     13.345  0.1193E+01  0.1195E+01  0.1539E+02  0.1539E+02
     13.543  0.1077E+01  0.1081E+01  0.1560E+02  0.1560E+02
     13.741  0.1068E+01  0.1122E+01  0.1582E+02  0.1583E+02
     13.939  0.6518E+00  0.6131E+00  0.1595E+02  0.1595E+02
     14.137  0.1644E+00  0.1436E+00  0.1598E+02  0.1598E+02
     14.335  0.7063E-01  0.7071E-01  0.1599E+02  0.1599E+02
     14.533  0.1770E-01  0.1776E-01  0.1600E+02  0.1600E+02
     14.731  0.1525E-01  0.1529E-01  0.1600E+02  0.1600E+02
     14.929  0.9789E-03  0.9804E-03  0.1600E+02  0.1600E+02
     15.127  0.0000E+00  0.0000E+00  0.1600E+02  0.1600E+02
     15.325  0.0000E+00  0.0000E+00  0.1600E+02  0.1600E+02
     15.523  0.0000E+00  0.0000E+00  0.1600E+02  0.1600E+02
     15.721  0.0000E+00  0.0000E+00  0.1600E+02  0.1600E+02
     15.919  0.0000E+00  0.0000E+00  0.1600E+02  0.1600E+02
     16.117  0.0000E+00  0.0000E+00  0.1600E+02  0.1600E+02
     16.315  0.0000E+00  0.0000E+00  0.1600E+02  0.1600E+02
     16.513  0.0000E+00  0.0000E+00  0.1600E+02  0.1600E+02
     16.711  0.0000E+00  0.0000E+00  0.1600E+02  0.1600E+02
     16.909  0.0000E+00  0.0000E+00  0.1600E+02  0.1600E+02
     17.107  0.0000E+00  0.0000E+00  0.1600E+02  0.1600E+02
     17.305  0.0000E+00  0.0000E+00  0.1600E+02  0.1600E+02
     17.30477708    -42.08598703  301      9.40171821      1.00000000
    -42.086  0.0000E+00  0.0000E+00  0.0000E+00  0.0000E+00  0.0000E+00  0.0000E+00  0.0000E+00  0.0000E+00  0.0000E+00  0.0000E+00  0.0000E+00  0.0000E+00  0.0000E+00  0.0000E+00  0.0000E+00  0.0000E+00  0.0000E+00  0.0000E+00
    -41.888  0.0000E+00  0.0000E+00  0.0000E+00  0.0000E+00  0.0000E+00  0.0000E+00  0.0000E+00  0.0000E+00  0.0000E+00  0.0000E+00  0.0000E+00  0.0000E+00  0.0000E+00  0.0000E+00  0.0000E+00  0.0000E+00  0.0000E+00  0.0000E+00
    -41.690  0.0000E+00  0.0000E+00  0.0000E+00  0.0000E+00  0.0000E+00  0.0000E+00  0.0000E+00  0.0000E+00  0.0000E+00  0.0000E+00  0.0000E+00  0.0000E+00  0.0000E+00  0.0000E+00  0.0000E+00  0.0000E+00  0.0000E+00  0.0000E+00
    -41.492  0.0000E+00  0.0000E+00  0.0000E+00  0.0000E+00  0.0000E+00  0.0000E+00  0.0000E+00  0.0000E+00  0.0000E+00  0.0000E+00  0.0000E+00  0.0000E+00  0.0000E+00  0.0000E+00  0.0000E+00  0.0000E+00  0.0000E+00  0.0000E+00
    -41.294  0.0000E+00  0.0000E+00  0.0000E+00  0.0000E+00  0.0000E+00  0.0000E+00  0.0000E+00  0.0000E+00  0.0000E+00  0.0000E+00  0.0000E+00  0.0000E+00  0.0000E+00  0.0000E+00  0.0000E+00  0.0000E+00  0.0000E+00  0.0000E+00
    -41.096  0.0000E+00  0.0000E+00  0.0000E+00  0.0000E+00  0.0000E+00  0.0000E+00  0.0000E+00  0.0000E+00  0.0000E+00  0.0000E+00  0.0000E+00  0.0000E+00  0.0000E+00  0.0000E+00  0.0000E+00  0.0000E+00  0.0000E+00  0.0000E+00
    -40.898  0.0000E+00  0.0000E+00  0.0000E+00  0.0000E+00  0.0000E+00  0.0000E+00  0.0000E+00  0.0000E+00  0.0000E+00  0.0000E+00  0.0000E+00  0.0000E+00  0.0000E+00  0.0000E+00  0.0000E+00  0.0000E+00  0.0000E+00  0.0000E+00
    -40.700  0.0000E+00  0.0000E+00  0.0000E+00  0.0000E+00  0.0000E+00  0.0000E+00  0.0000E+00  0.0000E+00  0.0000E+00  0.0000E+00  0.0000E+00  0.0000E+00  0.0000E+00  0.0000E+00  0.0000E+00  0.0000E+00  0.0000E+00  0.0000E+00
    -40.502  0.0000E+00  0.0000E+00  0.0000E+00  0.0000E+00  0.0000E+00  0.0000E+00  0.0000E+00  0.0000E+00  0.0000E+00  0.0000E+00  0.0000E+00  0.0000E+00  0.0000E+00  0.0000E+00  0.0000E+00  0.0000E+00  0.0000E+00  0.0000E+00
    -40.304  0.0000E+00  0.0000E+00  0.0000E+00  0.0000E+00  0.0000E+00  0.0000E+00  0.0000E+00  0.0000E+00  0.0000E+00  0.0000E+00  0.0000E+00  0.0000E+00  0.0000E+00  0.0000E+00  0.0000E+00  0.0000E+00  0.0000E+00  0.0000E+00
    -40.106  0.0000E+00  0.0000E+00  0.0000E+00  0.0000E+00  0.0000E+00  0.0000E+00  0.0000E+00  0.0000E+00  0.0000E+00  0.0000E+00  0.0000E+00  0.0000E+00  0.0000E+00  0.0000E+00  0.0000E+00  0.0000E+00  0.0000E+00  0.0000E+00
    -39.908  0.1359E-03  0.1338E-03  0.9533E-12  0.9290E-12  0.9533E-12  0.9290E-12  0.9604E-12  0.9377E-12  0.4691E-15  0.6627E-15  0.4601E-15  0.6714E-15  0.1041E-11  0.1048E-11  0.4691E-15  0.6627E-15  0.1044E-11  0.1049E-11
    -39.710  0.6978E-02  0.6870E-02  0.4895E-10  0.4770E-10  0.4895E-10  0.4770E-10  0.4932E-10  0.4815E-10  0.2409E-13  0.3403E-13  0.2363E-13  0.3448E-13  0.5347E-10  0.5383E-10  0.2409E-13  0.3403E-13  0.5362E-10  0.5389E-10
    -39.512  0.3404E+00  0.3355E+00  0.2388E-08  0.2330E-08  0.2388E-08  0.2330E-08  0.2406E-08  0.2352E-08  0.1176E-11  0.1663E-11  0.1153E-11  0.1685E-11  0.2609E-08  0.2630E-08  0.1176E-11  0.1663E-11  0.2616E-08  0.2632E-08
    -39.314  0.3643E+01  0.3635E+01  0.2553E-07  0.2522E-07  0.2553E-07  0.2522E-07  0.2572E-07  0.2546E-07  0.1262E-10  0.1816E-10  0.1235E-10  0.1840E-10  0.2796E-07  0.2853E-07  0.1262E-10  0.1816E-10  0.2796E-07  0.2849E-07
    -39.116  0.9982E+00  0.1011E+01  0.6985E-08  0.7002E-08  0.6985E-08  0.7002E-08  0.7038E-08  0.7068E-08  0.3469E-11  0.5092E-11  0.3390E-11  0.5158E-11  0.7669E-08  0.7941E-08  0.3469E-11  0.5092E-11  0.7650E-08  0.7909E-08
    -38.918  0.0000E+00  0.0000E+00  0.0000E+00  0.0000E+00  0.0000E+00  0.0000E+00  0.0000E+00  0.0000E+00  0.0000E+00  0.0000E+00  0.0000E+00  0.0000E+00  0.0000E+00  0.0000E+00  0.0000E+00  0.0000E+00  0.0000E+00  0.0000E+00
    -38.721  0.0000E+00  0.0000E+00  0.0000E+00  0.0000E+00  0.0000E+00  0.0000E+00  0.0000E+00  0.0000E+00  0.0000E+00  0.0000E+00  0.0000E+00  0.0000E+00  0.0000E+00  0.0000E+00  0.0000E+00  0.0000E+00  0.0000E+00  0.0000E+00
    -38.523  0.0000E+00  0.0000E+00  0.0000E+00  0.0000E+00  0.0000E+00  0.0000E+00  0.0000E+00  0.0000E+00  0.0000E+00  0.0000E+00  0.0000E+00  0.0000E+00  0.0000E+00  0.0000E+00  0.0000E+00  0.0000E+00  0.0000E+00  0.0000E+00
    -38.325  0.0000E+00  0.0000E+00  0.0000E+00  0.0000E+00  0.0000E+00  0.0000E+00  0.0000E+00  0.0000E+00  0.0000E+00  0.0000E+00  0.0000E+00  0.0000E+00  0.0000E+00  0.0000E+00  0.0000E+00  0.0000E+00  0.0000E+00  0.0000E+00
    -38.127  0.0000E+00  0.0000E+00  0.0000E+00  0.0000E+00  0.0000E+00  0.0000E+00  0.0000E+00  0.0000E+00  0.0000E+00  0.0000E+00  0.0000E+00  0.0000E+00  0.0000E+00  0.0000E+00  0.0000E+00  0.0000E+00  0.0000E+00  0.0000E+00
    -37.929  0.0000E+00  0.0000E+00  0.0000E+00  0.0000E+00  0.0000E+00  0.0000E+00  0.0000E+00  0.0000E+00  0.0000E+00  0.0000E+00  0.0000E+00  0.0000E+00  0.0000E+00  0.0000E+00  0.0000E+00  0.0000E+00  0.0000E+00  0.0000E+00
    -37.731  0.0000E+00  0.0000E+00  0.0000E+00  0.0000E+00  0.0000E+00  0.0000E+00  0.0000E+00  0.0000E+00  0.0000E+00  0.0000E+00  0.0000E+00  0.0000E+00  0.0000E+00  0.0000E+00  0.0000E+00  0.0000E+00  0.0000E+00  0.0000E+00
    -37.533  0.0000E+00  0.0000E+00  0.0000E+00  0.0000E+00  0.0000E+00  0.0000E+00  0.0000E+00  0.0000E+00  0.0000E+00  0.0000E+00  0.0000E+00  0.0000E+00  0.0000E+00  0.0000E+00  0.0000E+00  0.0000E+00  0.0000E+00  0.0000E+00
    -37.335  0.0000E+00  0.0000E+00  0.0000E+00  0.0000E+00  0.0000E+00  0.0000E+00  0.0000E+00  0.0000E+00  0.0000E+00  0.0000E+00  0.0000E+00  0.0000E+00  0.0000E+00  0.0000E+00  0.0000E+00  0.0000E+00  0.0000E+00  0.0000E+00
    -37.137  0.0000E+00  0.0000E+00  0.0000E+00  0.0000E+00  0.0000E+00  0.0000E+00  0.0000E+00  0.0000E+00  0.0000E+00  0.0000E+00  0.0000E+00  0.0000E+00  0.0000E+00  0.0000E+00  0.0000E+00  0.0000E+00  0.0000E+00  0.0000E+00
    -36.939  0.0000E+00  0.0000E+00  0.0000E+00  0.0000E+00  0.0000E+00  0.0000E+00  0.0000E+00  0.0000E+00  0.0000E+00  0.0000E+00  0.0000E+00  0.0000E+00  0.0000E+00  0.0000E+00  0.0000E+00  0.0000E+00  0.0000E+00  0.0000E+00
    -36.741  0.0000E+00  0.0000E+00  0.0000E+00  0.0000E+00  0.0000E+00  0.0000E+00  0.0000E+00  0.0000E+00  0.0000E+00  0.0000E+00  0.0000E+00  0.0000E+00  0.0000E+00  0.0000E+00  0.0000E+00  0.0000E+00  0.0000E+00  0.0000E+00
    -36.543  0.0000E+00  0.0000E+00  0.0000E+00  0.0000E+00  0.0000E+00  0.0000E+00  0.0000E+00  0.0000E+00  0.0000E+00  0.0000E+00  0.0000E+00  0.0000E+00  0.0000E+00  0.0000E+00  0.0000E+00  0.0000E+00  0.0000E+00  0.0000E+00
    -36.345  0.0000E+00  0.0000E+00  0.0000E+00  0.0000E+00  0.0000E+00  0.0000E+00  0.0000E+00  0.0000E+00  0.0000E+00  0.0000E+00  0.0000E+00  0.0000E+00  0.0000E+00  0.0000E+00  0.0000E+00  0.0000E+00  0.0000E+00  0.0000E+00
    -36.147  0.0000E+00  0.0000E+00  0.0000E+00  0.0000E+00  0.0000E+00  0.0000E+00  0.0000E+00  0.0000E+00  0.0000E+00  0.0000E+00  0.0000E+00  0.0000E+00  0.0000E+00  0.0000E+00  0.0000E+00  0.0000E+00  0.0000E+00  0.0000E+00
    -35.949  0.0000E+00  0.0000E+00  0.0000E+00  0.0000E+00  0.0000E+00  0.0000E+00  0.0000E+00  0.0000E+00  0.0000E+00  0.0000E+00  0.0000E+00  0.0000E+00  0.0000E+00  0.0000E+00  0.0000E+00  0.0000E+00  0.0000E+00  0.0000E+00
    -35.751  0.0000E+00  0.0000E+00  0.0000E+00  0.0000E+00  0.0000E+00  0.0000E+00  0.0000E+00  0.0000E+00  0.0000E+00  0.0000E+00  0.0000E+00  0.0000E+00  0.0000E+00  0.0000E+00  0.0000E+00  0.0000E+00  0.0000E+00  0.0000E+00
    -35.553  0.0000E+00  0.0000E+00  0.0000E+00  0.0000E+00  0.0000E+00  0.0000E+00  0.0000E+00  0.0000E+00  0.0000E+00  0.0000E+00  0.0000E+00  0.0000E+00  0.0000E+00  0.0000E+00  0.0000E+00  0.0000E+00  0.0000E+00  0.0000E+00
    -35.355  0.0000E+00  0.0000E+00  0.0000E+00  0.0000E+00  0.0000E+00  0.0000E+00  0.0000E+00  0.0000E+00  0.0000E+00  0.0000E+00  0.0000E+00  0.0000E+00  0.0000E+00  0.0000E+00  0.0000E+00  0.0000E+00  0.0000E+00  0.0000E+00
    -35.157  0.0000E+00  0.0000E+00  0.0000E+00  0.0000E+00  0.0000E+00  0.0000E+00  0.0000E+00  0.0000E+00  0.0000E+00  0.0000E+00  0.0000E+00  0.0000E+00  0.0000E+00  0.0000E+00  0.0000E+00  0.0000E+00  0.0000E+00  0.0000E+00
    -34.959  0.0000E+00  0.0000E+00  0.0000E+00  0.0000E+00  0.0000E+00  0.0000E+00  0.0000E+00  0.0000E+00  0.0000E+00  0.0000E+00  0.0000E+00  0.0000E+00  0.0000E+00  0.0000E+00  0.0000E+00  0.0000E+00  0.0000E+00  0.0000E+00
    -34.761  0.0000E+00  0.0000E+00  0.0000E+00  0.0000E+00  0.0000E+00  0.0000E+00  0.0000E+00  0.0000E+00  0.0000E+00  0.0000E+00  0.0000E+00  0.0000E+00  0.0000E+00  0.0000E+00  0.0000E+00  0.0000E+00  0.0000E+00  0.0000E+00
    -34.563  0.0000E+00  0.0000E+00  0.0000E+00  0.0000E+00  0.0000E+00  0.0000E+00  0.0000E+00  0.0000E+00  0.0000E+00  0.0000E+00  0.0000E+00  0.0000E+00  0.0000E+00  0.0000E+00  0.0000E+00  0.0000E+00  0.0000E+00  0.0000E+00
    -34.365  0.0000E+00  0.0000E+00  0.0000E+00  0.0000E+00  0.0000E+00  0.0000E+00  0.0000E+00  0.0000E+00  0.0000E+00  0.0000E+00  0.0000E+00  0.0000E+00  0.0000E+00  0.0000E+00  0.0000E+00  0.0000E+00  0.0000E+00  0.0000E+00
    -34.167  0.0000E+00  0.0000E+00  0.0000E+00  0.0000E+00  0.0000E+00  0.0000E+00  0.0000E+00  0.0000E+00  0.0000E+00  0.0000E+00  0.0000E+00  0.0000E+00  0.0000E+00  0.0000E+00  0.0000E+00  0.0000E+00  0.0000E+00  0.0000E+00
    -33.969  0.0000E+00  0.0000E+00  0.0000E+00  0.0000E+00  0.0000E+00  0.0000E+00  0.0000E+00  0.0000E+00  0.0000E+00  0.0000E+00  0.0000E+00  0.0000E+00  0.0000E+00  0.0000E+00  0.0000E+00  0.0000E+00  0.0000E+00  0.0000E+00
    -33.771  0.0000E+00  0.0000E+00  0.0000E+00  0.0000E+00  0.0000E+00  0.0000E+00  0.0000E+00  0.0000E+00  0.0000E+00  0.0000E+00  0.0000E+00  0.0000E+00  0.0000E+00  0.0000E+00  0.0000E+00  0.0000E+00  0.0000E+00  0.0000E+00
    -33.573  0.0000E+00  0.0000E+00  0.0000E+00  0.0000E+00  0.0000E+00  0.0000E+00  0.0000E+00  0.0000E+00  0.0000E+00  0.0000E+00  0.0000E+00  0.0000E+00  0.0000E+00  0.0000E+00  0.0000E+00  0.0000E+00  0.0000E+00  0.0000E+00
    -33.375  0.0000E+00  0.0000E+00  0.0000E+00  0.0000E+00  0.0000E+00  0.0000E+00  0.0000E+00  0.0000E+00  0.0000E+00  0.0000E+00  0.0000E+00  0.0000E+00  0.0000E+00  0.0000E+00  0.0000E+00  0.0000E+00  0.0000E+00  0.0000E+00
    -33.177  0.0000E+00  0.0000E+00  0.0000E+00  0.0000E+00  0.0000E+00  0.0000E+00  0.0000E+00  0.0000E+00  0.0000E+00  0.0000E+00  0.0000E+00  0.0000E+00  0.0000E+00  0.0000E+00  0.0000E+00  0.0000E+00  0.0000E+00  0.0000E+00
    -32.979  0.0000E+00  0.0000E+00  0.0000E+00  0.0000E+00  0.0000E+00  0.0000E+00  0.0000E+00  0.0000E+00  0.0000E+00  0.0000E+00  0.0000E+00  0.0000E+00  0.0000E+00  0.0000E+00  0.0000E+00  0.0000E+00  0.0000E+00  0.0000E+00
    -32.781  0.0000E+00  0.0000E+00  0.0000E+00  0.0000E+00  0.0000E+00  0.0000E+00  0.0000E+00  0.0000E+00  0.0000E+00  0.0000E+00  0.0000E+00  0.0000E+00  0.0000E+00  0.0000E+00  0.0000E+00  0.0000E+00  0.0000E+00  0.0000E+00
    -32.583  0.0000E+00  0.0000E+00  0.0000E+00  0.0000E+00  0.0000E+00  0.0000E+00  0.0000E+00  0.0000E+00  0.0000E+00  0.0000E+00  0.0000E+00  0.0000E+00  0.0000E+00  0.0000E+00  0.0000E+00  0.0000E+00  0.0000E+00  0.0000E+00
    -32.385  0.0000E+00  0.0000E+00  0.0000E+00  0.0000E+00  0.0000E+00  0.0000E+00  0.0000E+00  0.0000E+00  0.0000E+00  0.0000E+00  0.0000E+00  0.0000E+00  0.0000E+00  0.0000E+00  0.0000E+00  0.0000E+00  0.0000E+00  0.0000E+00
    -32.188  0.0000E+00  0.0000E+00  0.0000E+00  0.0000E+00  0.0000E+00  0.0000E+00  0.0000E+00  0.0000E+00  0.0000E+00  0.0000E+00  0.0000E+00  0.0000E+00  0.0000E+00  0.0000E+00  0.0000E+00  0.0000E+00  0.0000E+00  0.0000E+00