   4   4   1   0
  0.2059220E+02  0.4350017E-09  0.4351469E-09  0.4351469E-09  0.5000000E-15
  1.000000000000000E-004
  CAR 
 unknown system                          
     14.32565573    -44.82484656  301      7.25304288      1.00000000
    -44.825  0.0000E+00  0.0000E+00  0.0000E+00  0.0000E+00
    -44.628  0.0000E+00  0.0000E+00  0.0000E+00  0.0000E+00
    -44.431  0.0000E+00  0.0000E+00  0.0000E+00  0.0000E+00
    -44.233  0.0000E+00  0.0000E+00  0.0000E+00  0.0000E+00
    -44.036  0.0000E+00  0.0000E+00  0.0000E+00  0.0000E+00
    -43.839  0.0000E+00  0.0000E+00  0.0000E+00  0.0000E+00
    -43.642  0.0000E+00  0.0000E+00  0.0000E+00  0.0000E+00
    -43.445  0.0000E+00  0.0000E+00  0.0000E+00  0.0000E+00
    -43.247  0.0000E+00  0.0000E+00  0.0000E+00  0.0000E+00
    -43.050  0.0000E+00  0.0000E+00  0.0000E+00  0.0000E+00
    -42.853  0.0000E+00  0.0000E+00  0.0000E+00  0.0000E+00
    -42.656  0.1510E-03  0.1514E-03  0.2977E-04  0.2985E-04
    -42.459  0.7628E-02  0.7648E-02  0.1534E-02  0.1538E-02
    -42.262  0.3646E+00  0.3655E+00  0.7343E-01  0.7361E-01
    -42.064  0.3703E+01  0.3704E+01  0.8035E+00  0.8039E+00
    -41.867  0.9728E+00  0.9707E+00  0.9953E+00  0.9953E+00
    -41.670  0.0000E+00  0.0000E+00  0.1000E+01  0.1000E+01
    -41.473  0.0000E+00  0.0000E+00  0.1000E+01  0.1000E+01
    -41.276  0.0000E+00  0.0000E+00  0.1000E+01  0.1000E+01
    -41.079  0.0000E+00  0.0000E+00  0.1000E+01  0.1000E+01
    -40.881  0.0000E+00  0.0000E+00  0.1000E+01  0.1000E+01
    -40.684  0.0000E+00  0.0000E+00  0.1000E+01  0.1000E+01
    -40.487  0.0000E+00  0.0000E+00  0.1000E+01  0.1000E+01
    -40.290  0.0000E+00  0.0000E+00  0.1000E+01  0.1000E+01
    -40.093  0.0000E+00  0.0000E+00  0.1000E+01  0.1000E+01
    -39.896  0.0000E+00  0.0000E+00  0.1000E+01  0.1000E+01
    -39.698  0.0000E+00  0.0000E+00  0.1000E+01  0.1000E+01
    -39.501  0.0000E+00  0.0000E+00  0.1000E+01  0.1000E+01
    -39.304  0.0000E+00  0.0000E+00  0.1000E+01  0.1000E+01
    -39.107  0.0000E+00  0.0000E+00  0.1000E+01  0.1000E+01
    -38.910  0.0000E+00  0.0000E+00  0.1000E+01  0.1000E+01
    -38.713  0.0000E+00  0.0000E+00  0.1000E+01  0.1000E+01
    -38.515  0.0000E+00  0.0000E+00  0.1000E+01  0.1000E+01
    -38.318  0.0000E+00  0.0000E+00  0.1000E+01  0.1000E+01
    -38.121  0.0000E+00  0.0000E+00  0.1000E+01  0.1000E+01
    -37.924  0.0000E+00  0.0000E+00  0.1000E+01  0.1000E+01
    -37.727  0.0000E+00  0.0000E+00  0.1000E+01  0.1000E+01
    -37.530  0.0000E+00  0.0000E+00  0.1000E+01  0.1000E+01
    -37.332  0.0000E+00  0.0000E+00  0.1000E+01  0.1000E+01
    -37.135  0.0000E+00  0.0000E+00  0.1000E+01  0.1000E+01
    -36.938  0.0000E+00  0.0000E+00  0.1000E+01  0.1000E+01
    -36.741  0.0000E+00  0.0000E+00  0.1000E+01  0.1000E+01
    -36.544  0.0000E+00  0.0000E+00  0.1000E+01  0.1000E+01
    -36.347  0.0000E+00  0.0000E+00  0.1000E+01  0.1000E+01
    -36.149  0.0000E+00  0.0000E+00  0.1000E+01  0.1000E+01
    -35.952  0.0000E+00  0.0000E+00  0.1000E+01  0.1000E+01
    -35.755  0.0000E+00  0.0000E+00  0.1000E+01  0.1000E+01
    -35.558  0.0000E+00  0.0000E+00  0.1000E+01  0.1000E+01
    -35.361  0.0000E+00  0.0000E+00  0.1000E+01  0.1000E+01
    -35.164  0.0000E+00  0.0000E+00  0.1000E+01  0.1000E+01
    -34.966  0.0000E+00  0.0000E+00  0.1000E+01  0.1000E+01
    -34.769  0.0000E+00  0.0000E+00  0.1000E+01  0.1000E+01
    -34.572  0.0000E+00  0.0000E+00  0.1000E+01  0.1000E+01
    -34.375  0.0000E+00  0.0000E+00  0.1000E+01  0.1000E+01
    -34.178  0.0000E+00  0.0000E+00  0.1000E+01  0.1000E+01
    -33.981  0.0000E+00  0.0000E+00  0.1000E+01  0.1000E+01
    -33.783  0.0000E+00  0.0000E+00  0.1000E+01  0.1000E+01
    -33.586  0.0000E+00  0.0000E+00  0.1000E+01  0.1000E+01
    -33.389  0.0000E+00  0.0000E+00  0.1000E+01  0.1000E+01
    -33.192  0.0000E+00  0.0000E+00  0.1000E+01  0.1000E+01
    -32.995  0.0000E+00  0.0000E+00  0.1000E+01  0.1000E+01
    -32.798  0.0000E+00  0.0000E+00  0.1000E+01  0.1000E+01
    -32.600  0.0000E+00  0.0000E+00  0.1000E+01  0.1000E+01
    -32.403  0.0000E+00  0.0000E+00  0.1000E+01  0.1000E+01
    -32.206  0.0000E+00  0.0000E+00  0.1000E+01  0.1000E+01
    -32.009  0.0000E+00  0.0000E+00  0.1000E+01  0.1000E+01
    -31.812  0.0000E+00  0.0000E+00  0.1000E+01  0.1000E+01
    -31.615  0.0000E+00  0.0000E+00  0.1000E+01  0.1000E+01
    -31.417  0.0000E+00  0.0000E+00  0.1000E+01  0.1000E+01
    -31.220  0.0000E+00  0.0000E+00  0.1000E+01  0.1000E+01
    -31.023  0.0000E+00  0.0000E+00  0.1000E+01  0.1000E+01
    -30.826  0.0000E+00  0.0000E+00  0.1000E+01  0.1000E+01
    -30.629  0.0000E+00  0.0000E+00  0.1000E+01  0.1000E+01
    -30.432  0.0000E+00  0.0000E+00  0.1000E+01  0.1000E+01
    -30.234  0.0000E+00  0.0000E+00  0.1000E+01  0.1000E+01
    -30.037  0.0000E+00  0.0000E+00  0.1000E+01  0.1000E+01
    -29.840  0.0000E+00  0.0000E+00  0.1000E+01  0.1000E+01
    -29.643  0.0000E+00  0.0000E+00  0.1000E+01  0.1000E+01
    -29.446  0.0000E+00  0.0000E+00  0.1000E+01  0.1000E+01
    -29.249  0.0000E+00  0.0000E+00  0.1000E+01  0.1000E+01
    -29.051  0.0000E+00  0.0000E+00  0.1000E+01  0.1000E+01
    -28.854  0.0000E+00  0.0000E+00  0.1000E+01  0.1000E+01
    -28.657  0.0000E+00  0.0000E+00  0.1000E+01  0.1000E+01
    -28.460  0.0000E+00  0.0000E+00  0.1000E+01  0.1000E+01
    -28.263  0.0000E+00  0.0000E+00  0.1000E+01  0.1000E+01
    -28.066  0.0000E+00  0.0000E+00  0.1000E+01  0.1000E+01
    -27.868  0.0000E+00  0.0000E+00  0.1000E+01  0.1000E+01
    -27.671  0.0000E+00  0.0000E+00  0.1000E+01  0.1000E+01
    -27.474  0.0000E+00  0.0000E+00  0.1000E+01  0.1000E+01
    -27.277  0.0000E+00  0.0000E+00  0.1000E+01  0.1000E+01
    -27.080  0.0000E+00  0.0000E+00  0.1000E+01  0.1000E+01
    -26.883  0.0000E+00  0.0000E+00  0.1000E+01  0.1000E+01
    -26.685  0.0000E+00  0.0000E+00  0.1000E+01  0.1000E+01
    -26.488  0.0000E+00  0.0000E+00  0.1000E+01  0.1000E+01
    -26.291  0.0000E+00  0.0000E+00  0.1000E+01  0.1000E+01
    -26.094  0.0000E+00  0.0000E+00  0.1000E+01  0.1000E+01
    -25.897  0.0000E+00  0.0000E+00  0.1000E+01  0.1000E+01
    -25.700  0.0000E+00  0.0000E+00  0.1000E+01  0.1000E+01
    -25.502  0.0000E+00  0.0000E+00  0.1000E+01  0.1000E+01
    -25.305  0.0000E+00  0.0000E+00  0.1000E+01  0.1000E+01
    -25.108  0.0000E+00  0.0000E+00  0.1000E+01  0.1000E+01
    -24.911  0.0000E+00  0.0000E+00  0.1000E+01  0.1000E+01
    -24.714  0.0000E+00  0.0000E+00  0.1000E+01  0.1000E+01
    -24.517  0.0000E+00  0.0000E+00  0.1000E+01  0.1000E+01
    -24.319  0.0000E+00  0.0000E+00  0.1000E+01  0.1000E+01
    -24.122  0.0000E+00  0.0000E+00  0.1000E+01  0.1000E+01
    -23.925  0.0000E+00  0.0000E+00  0.1000E+01  0.1000E+01
    -23.728  0.0000E+00  0.0000E+00  0.1000E+01  0.1000E+01
    -23.531  0.0000E+00  0.0000E+00  0.1000E+01  0.1000E+01
    -23.333  0.0000E+00  0.0000E+00  0.1000E+01  0.1000E+01
    -23.136  0.0000E+00  0.0000E+00  0.1000E+01  0.1000E+01
    -22.939  0.0000E+00  0.0000E+00  0.1000E+01  0.1000E+01
    -22.742  0.0000E+00  0.0000E+00  0.1000E+01  0.1000E+01
    -22.545  0.0000E+00  0.0000E+00  0.1000E+01  0.1000E+01
    -22.348  0.0000E+00  0.0000E+00  0.1000E+01  0.1000E+01
    -22.150  0.0000E+00  0.0000E+00  0.1000E+01  0.1000E+01
    -21.953  0.0000E+00  0.0000E+00  0.1000E+01  0.1000E+01
    -21.756  0.0000E+00  0.0000E+00  0.1000E+01  0.1000E+01
    -21.559  0.0000E+00  0.0000E+00  0.1000E+01  0.1000E+01
    -21.362  0.0000E+00  0.0000E+00  0.1000E+01  0.1000E+01
    -21.165  0.0000E+00  0.0000E+00  0.1000E+01  0.1000E+01
    -20.967  0.0000E+00  0.0000E+00  0.1000E+01  0.1000E+01
    -20.770  0.5144E-04  0.5243E-04  0.1000E+01  0.1000E+01
    -20.573  0.4922E-02  0.4947E-02  0.1001E+01  0.1001E+01
    -20.376  0.2473E+00  0.2486E+00  0.1050E+01  0.1050E+01
    -20.179  0.6767E+01  0.6785E+01  0.2384E+01  0.2388E+01
    -19.982  0.7853E+01  0.7836E+01  0.3932E+01  0.3933E+01
    -19.784  0.3236E+00  0.3213E+00  0.3999E+01  0.3999E+01
    -19.587  0.0000E+00  0.0000E+00  0.4000E+01  0.4000E+01
    -19.390  0.0000E+00  0.0000E+00  0.4000E+01  0.4000E+01
    -19.193  0.0000E+00  0.0000E+00  0.4000E+01  0.4000E+01
    -18.996  0.0000E+00  0.0000E+00  0.4000E+01  0.4000E+01
    -18.799  0.0000E+00  0.0000E+00  0.4000E+01  0.4000E+01
    -18.601  0.0000E+00  0.0000E+00  0.4000E+01  0.4000E+01
    -18.404  0.0000E+00  0.0000E+00  0.4000E+01  0.4000E+01
    -18.207  0.0000E+00  0.0000E+00  0.4000E+01  0.4000E+01
    -18.010  0.0000E+00  0.0000E+00  0.4000E+01  0.4000E+01
    -17.813  0.0000E+00  0.0000E+00  0.4000E+01  0.4000E+01
    -17.616  0.0000E+00  0.0000E+00  0.4000E+01  0.4000E+01
    -17.418  0.0000E+00  0.0000E+00  0.4000E+01  0.4000E+01
    -17.221  0.0000E+00  0.0000E+00  0.4000E+01  0.4000E+01
    -17.024  0.0000E+00  0.0000E+00  0.4000E+01  0.4000E+01
    -16.827  0.0000E+00  0.0000E+00  0.4000E+01  0.4000E+01
    -16.630  0.0000E+00  0.0000E+00  0.4000E+01  0.4000E+01
    -16.433  0.0000E+00  0.0000E+00  0.4000E+01  0.4000E+01
    -16.235  0.0000E+00  0.0000E+00  0.4000E+01  0.4000E+01
    -16.038  0.0000E+00  0.0000E+00  0.4000E+01  0.4000E+01
    -15.841  0.0000E+00  0.0000E+00  0.4000E+01  0.4000E+01
    -15.644  0.0000E+00  0.0000E+00  0.4000E+01  0.4000E+01
    -15.447  0.0000E+00  0.0000E+00  0.4000E+01  0.4000E+01
    -15.250  0.0000E+00  0.0000E+00  0.4000E+01  0.4000E+01
    -15.052  0.0000E+00  0.0000E+00  0.4000E+01  0.4000E+01
    -14.855  0.0000E+00  0.0000E+00  0.4000E+01  0.4000E+01
    -14.658  0.0000E+00  0.0000E+00  0.4000E+01  0.4000E+01
    -14.461  0.0000E+00  0.0000E+00  0.4000E+01  0.4000E+01
    -14.264  0.0000E+00  0.0000E+00  0.4000E+01  0.4000E+01
    -14.067  0.0000E+00  0.0000E+00  0.4000E+01  0.4000E+01
    -13.869  0.0000E+00  0.0000E+00  0.4000E+01  0.4000E+01
    -13.672  0.0000E+00  0.0000E+00  0.4000E+01  0.4000E+01
    -13.475  0.0000E+00  0.0000E+00  0.4000E+01  0.4000E+01
    -13.278  0.0000E+00  0.0000E+00  0.4000E+01  0.4000E+01
    -13.081  0.0000E+00  0.0000E+00  0.4000E+01  0.4000E+01
    -12.884  0.0000E+00  0.0000E+00  0.4000E+01  0.4000E+01
    -12.686  0.0000E+00  0.0000E+00  0.4000E+01  0.4000E+01
    -12.489  0.0000E+00  0.0000E+00  0.4000E+01  0.4000E+01
    -12.292  0.0000E+00  0.0000E+00  0.4000E+01  0.4000E+01
    -12.095  0.0000E+00  0.0000E+00  0.4000E+01  0.4000E+01
    -11.898  0.0000E+00  0.0000E+00  0.4000E+01  0.4000E+01
    -11.701  0.0000E+00  0.0000E+00  0.4000E+01  0.4000E+01
    -11.503  0.0000E+00  0.0000E+00  0.4000E+01  0.4000E+01
    -11.306  0.0000E+00  0.0000E+00  0.4000E+01  0.4000E+01
    -11.109  0.0000E+00  0.0000E+00  0.4000E+01  0.4000E+01
    -10.912  0.0000E+00  0.0000E+00  0.4000E+01  0.4000E+01
    -10.715  0.0000E+00  0.0000E+00  0.4000E+01  0.4000E+01
    -10.518  0.0000E+00  0.0000E+00  0.4000E+01  0.4000E+01
    -10.320  0.0000E+00  0.0000E+00  0.4000E+01  0.4000E+01
    -10.123  0.0000E+00  0.0000E+00  0.4000E+01  0.4000E+01
     -9.926  0.0000E+00  0.0000E+00  0.4000E+01  0.4000E+01
     -9.729  0.0000E+00  0.0000E+00  0.4000E+01  0.4000E+01
     -9.532  0.0000E+00  0.0000E+00  0.4000E+01  0.4000E+01
     -9.335  0.0000E+00  0.0000E+00  0.4000E+01  0.4000E+01
     -9.137  0.0000E+00  0.0000E+00  0.4000E+01  0.4000E+01
     -8.940  0.0000E+00  0.0000E+00  0.4000E+01  0.4000E+01
     -8.743  0.0000E+00  0.0000E+00  0.4000E+01  0.4000E+01
     -8.546  0.0000E+00  0.0000E+00  0.4000E+01  0.4000E+01
     -8.349  0.0000E+00  0.0000E+00  0.4000E+01  0.4000E+01
     -8.152  0.0000E+00  0.0000E+00  0.4000E+01  0.4000E+01
     -7.954  0.0000E+00  0.0000E+00  0.4000E+01  0.4000E+01
     -7.757  0.0000E+00  0.0000E+00  0.4000E+01  0.4000E+01
     -7.560  0.0000E+00  0.0000E+00  0.4000E+01  0.4000E+01
     -7.363  0.0000E+00  0.0000E+00  0.4000E+01  0.4000E+01
     -7.166  0.0000E+00  0.0000E+00  0.4000E+01  0.4000E+01
     -6.969  0.0000E+00  0.0000E+00  0.4000E+01  0.4000E+01
     -6.771  0.0000E+00  0.0000E+00  0.4000E+01  0.4000E+01
     -6.574  0.0000E+00  0.0000E+00  0.4000E+01  0.4000E+01
     -6.377  0.0000E+00  0.0000E+00  0.4000E+01  0.4000E+01
     -6.180  0.0000E+00  0.0000E+00  0.4000E+01  0.4000E+01
     -5.983  0.0000E+00  0.0000E+00  0.4000E+01  0.4000E+01
     -5.786  0.0000E+00  0.0000E+00  0.4000E+01  0.4000E+01
     -5.588  0.0000E+00  0.0000E+00  0.4000E+01  0.4000E+01
     -5.391  0.0000E+00  0.0000E+00  0.4000E+01  0.4000E+01
     -5.194  0.0000E+00  0.0000E+00  0.4000E+01  0.4000E+01
     -4.997  0.0000E+00  0.0000E+00  0.4000E+01  0.4000E+01
     -4.800  0.0000E+00  0.0000E+00  0.4000E+01  0.4000E+01
     -4.603  0.0000E+00  0.0000E+00  0.4000E+01  0.4000E+01
     -4.405  0.0000E+00  0.0000E+00  0.4000E+01  0.4000E+01
     -4.208  0.0000E+00  0.0000E+00  0.4000E+01  0.4000E+01
     -4.011  0.0000E+00  0.0000E+00  0.4000E+01  0.4000E+01
     -3.814  0.0000E+00  0.0000E+00  0.4000E+01  0.4000E+01
     -3.617  0.0000E+00  0.0000E+00  0.4000E+01  0.4000E+01
     -3.419  0.0000E+00  0.0000E+00  0.4000E+01  0.4000E+01
     -3.222  0.0000E+00  0.0000E+00  0.4000E+01  0.4000E+01
     -3.025  0.0000E+00  0.0000E+00  0.4000E+01  0.4000E+01
     -2.828  0.0000E+00  0.0000E+00  0.4000E+01  0.4000E+01
     -2.631  0.2192E-07  0.2225E-07  0.4000E+01  0.4000E+01
     -2.434  0.6069E-05  0.6161E-05  0.4000E+01  0.4000E+01
     -2.236  0.3192E-03  0.3240E-03  0.4000E+01  0.4000E+01
     -2.039  0.1192E-01  0.1205E-01  0.4002E+01  0.4002E+01
     -1.842  0.7860E-01  0.7892E-01  0.4018E+01  0.4018E+01
     -1.645  0.1419E+00  0.1420E+00  0.4046E+01  0.4046E+01
     -1.448  0.1959E+00  0.1960E+00  0.4085E+01  0.4085E+01
     -1.251  0.2191E+00  0.2192E+00  0.4128E+01  0.4128E+01
     -1.053  0.2861E+00  0.2863E+00  0.4184E+01  0.4185E+01
     -0.856  0.2750E+00  0.2753E+00  0.4239E+01  0.4239E+01
     -0.659  0.3703E+00  0.3704E+00  0.4312E+01  0.4312E+01
     -0.462  0.3602E+00  0.3605E+00  0.4383E+01  0.4384E+01
     -0.265  0.4451E+00  0.4452E+00  0.4471E+01  0.4472E+01
     -0.068  0.4992E+00  0.4994E+00  0.4570E+01  0.4571E+01
      0.130  0.4148E+00  0.4146E+00  0.4652E+01  0.4653E+01
      0.327  0.4403E+00  0.4395E+00  0.4740E+01  0.4740E+01
      0.524  0.4600E+00  0.4607E+00  0.4830E+01  0.4831E+01
      0.721  0.4760E+00  0.4756E+00  0.4925E+01  0.4925E+01
      0.918  0.4676E+00  0.4674E+00  0.5018E+01  0.5018E+01
      1.115  0.4507E+00  0.4513E+00  0.5107E+01  0.5107E+01
      1.313  0.5124E+00  0.5121E+00  0.5208E+01  0.5209E+01
      1.510  0.4931E+00  0.4932E+00  0.5306E+01  0.5307E+01
      1.707  0.5826E+00  0.5832E+00  0.5422E+01  0.5422E+01
      1.904  0.7673E+00  0.7678E+00  0.5573E+01  0.5574E+01
      2.101  0.9293E+00  0.9294E+00  0.5757E+01  0.5758E+01
      2.298  0.8690E+00  0.8691E+00  0.5929E+01  0.5930E+01
      2.496  0.8375E+00  0.8369E+00  0.6095E+01  0.6096E+01
      2.693  0.7257E+00  0.7258E+00  0.6239E+01  0.6240E+01
      2.890  0.6727E+00  0.6725E+00  0.6373E+01  0.6373E+01
      3.087  0.5259E+00  0.5256E+00  0.6477E+01  0.6478E+01
      3.284  0.5928E+00  0.5931E+00  0.6595E+01  0.6595E+01
      3.481  0.5877E+00  0.5882E+00  0.6711E+01  0.6712E+01
      3.679  0.6415E+00  0.6412E+00  0.6839E+01  0.6839E+01
      3.876  0.7375E+00  0.7386E+00  0.6985E+01  0.6986E+01
      4.073  0.8980E+00  0.8984E+00  0.7162E+01  0.7163E+01
      4.270  0.8658E+00  0.8649E+00  0.7333E+01  0.7334E+01
      4.467  0.8441E+00  0.8451E+00  0.7501E+01  0.7501E+01
      4.664  0.1097E+01  0.1098E+01  0.7717E+01  0.7718E+01
      4.862  0.1442E+01  0.1443E+01  0.8003E+01  0.8004E+01
      5.059  0.1693E+01  0.1693E+01  0.8338E+01  0.8339E+01
      5.256  0.1785E+01  0.1787E+01  0.8691E+01  0.8692E+01
      5.453  0.1674E+01  0.1672E+01  0.9023E+01  0.9024E+01
      5.650  0.1206E+01  0.1205E+01  0.9262E+01  0.9263E+01
      5.847  0.8890E+00  0.8879E+00  0.9439E+01  0.9440E+01
      6.045  0.8386E+00  0.8389E+00  0.9606E+01  0.9606E+01
      6.242  0.7527E+00  0.7527E+00  0.9755E+01  0.9755E+01
      6.439  0.6180E+00  0.6173E+00  0.9877E+01  0.9878E+01
      6.636  0.7707E+00  0.7716E+00  0.1003E+02  0.1003E+02
      6.833  0.5671E+00  0.5658E+00  0.1014E+02  0.1014E+02
      7.030  0.6859E+00  0.6873E+00  0.1028E+02  0.1028E+02
      7.228  0.9900E+00  0.9908E+00  0.1047E+02  0.1047E+02
      7.425  0.1139E+01  0.1140E+01  0.1070E+02  0.1070E+02
      7.622  0.1341E+01  0.1341E+01  0.1096E+02  0.1096E+02
      7.819  0.1281E+01  0.1280E+01  0.1122E+02  0.1122E+02
      8.016  0.1240E+01  0.1242E+01  0.1146E+02  0.1146E+02
      8.213  0.1768E+01  0.1768E+01  0.1181E+02  0.1181E+02
      8.411  0.1957E+01  0.1960E+01  0.1220E+02  0.1220E+02
      8.608  0.2333E+01  0.2333E+01  0.1266E+02  0.1266E+02
      8.805  0.1994E+01  0.1993E+01  0.1306E+02  0.1306E+02
      9.002  0.1674E+01  0.1672E+01  0.1339E+02  0.1339E+02
      9.199  0.1456E+01  0.1456E+01  0.1368E+02  0.1368E+02
      9.396  0.1360E+01  0.1360E+01  0.1395E+02  0.1395E+02
      9.594  0.1472E+01  0.1474E+01  0.1424E+02  0.1424E+02
      9.791  0.1268E+01  0.1273E+01  0.1449E+02  0.1449E+02
      9.988  0.1366E+01  0.1378E+01  0.1476E+02  0.1477E+02
     10.185  0.1277E+01  0.1292E+01  0.1501E+02  0.1502E+02
     10.382  0.1474E+01  0.1494E+01  0.1531E+02  0.1532E+02
     10.579  0.1885E+01  0.1821E+01  0.1568E+02  0.1568E+02
     10.777  0.1087E+01  0.1095E+01  0.1589E+02  0.1589E+02
     10.974  0.3475E+00  0.3401E+00  0.1596E+02  0.1596E+02
     11.171  0.8665E-01  0.1029E+00  0.1598E+02  0.1598E+02
     11.368  0.5818E-01  0.4786E-01  0.1599E+02  0.1599E+02
     11.565  0.2235E-01  0.1899E-01  0.1600E+02  0.1600E+02
     11.762  0.1072E-01  0.1068E-01  0.1600E+02  0.1600E+02
     11.960  0.6329E-03  0.5114E-03  0.1600E+02  0.1600E+02
     12.157  0.0000E+00  0.0000E+00  0.1600E+02  0.1600E+02
     12.354  0.0000E+00  0.0000E+00  0.1600E+02  0.1600E+02
     12.551  0.0000E+00  0.0000E+00  0.1600E+02  0.1600E+02
     12.748  0.0000E+00  0.0000E+00  0.1600E+02  0.1600E+02
     12.945  0.0000E+00  0.0000E+00  0.1600E+02  0.1600E+02
     13.143  0.0000E+00  0.0000E+00  0.1600E+02  0.1600E+02
     13.340  0.0000E+00  0.0000E+00  0.1600E+02  0.1600E+02
     13.537  0.0000E+00  0.0000E+00  0.1600E+02  0.1600E+02
     13.734  0.0000E+00  0.0000E+00  0.1600E+02  0.1600E+02
     13.931  0.0000E+00  0.0000E+00  0.1600E+02  0.1600E+02
     14.128  0.0000E+00  0.0000E+00  0.1600E+02  0.1600E+02
     14.326  0.0000E+00  0.0000E+00  0.1600E+02  0.1600E+02
     14.32565573    -44.82484656  301      7.25304288      1.00000000
    -44.825  0.0000E+00  0.0000E+00  0.0000E+00  0.0000E+00  0.0000E+00  0.0000E+00  0.0000E+00  0.0000E+00  0.0000E+00  0.0000E+00  0.0000E+00  0.0000E+00  0.0000E+00  0.0000E+00  0.0000E+00  0.0000E+00  0.0000E+00  0.0000E+00
    -44.628  0.0000E+00  0.0000E+00  0.0000E+00  0.0000E+00  0.0000E+00  0.0000E+00  0.0000E+00  0.0000E+00  0.0000E+00  0.0000E+00  0.0000E+00  0.0000E+00  0.0000E+00  0.0000E+00  0.0000E+00  0.0000E+00  0.0000E+00  0.0000E+00
    -44.431  0.0000E+00  0.0000E+00  0.0000E+00  0.0000E+00  0.0000E+00  0.0000E+00  0.0000E+00  0.0000E+00  0.0000E+00  0.0000E+00  0.0000E+00  0.0000E+00  0.0000E+00  0.0000E+00  0.0000E+00  0.0000E+00  0.0000E+00  0.0000E+00
    -44.233  0.0000E+00  0.0000E+00  0.0000E+00  0.0000E+00  0.0000E+00  0.0000E+00  0.0000E+00  0.0000E+00  0.0000E+00  0.0000E+00  0.0000E+00  0.0000E+00  0.0000E+00  0.0000E+00  0.0000E+00  0.0000E+00  0.0000E+00  0.0000E+00
    -44.036  0.0000E+00  0.0000E+00  0.0000E+00  0.0000E+00  0.0000E+00  0.0000E+00  0.0000E+00  0.0000E+00  0.0000E+00  0.0000E+00  0.0000E+00  0.0000E+00  0.0000E+00  0.0000E+00  0.0000E+00  0.0000E+00  0.0000E+00  0.0000E+00
    -43.839  0.0000E+00  0.0000E+00  0.0000E+00  0.0000E+00  0.0000E+00  0.0000E+00  0.0000E+00  0.0000E+00  0.0000E+00  0.0000E+00  0.0000E+00  0.0000E+00  0.0000E+00  0.0000E+00  0.0000E+00  0.0000E+00  0.0000E+00  0.0000E+00
    -43.642  0.0000E+00  0.0000E+00  0.0000E+00  0.0000E+00  0.0000E+00  0.0000E+00  0.0000E+00  0.0000E+00  0.0000E+00  0.0000E+00  0.0000E+00  0.0000E+00  0.0000E+00  0.0000E+00  0.0000E+00  0.0000E+00  0.0000E+00  0.0000E+00
    -43.445  0.0000E+00  0.0000E+00  0.0000E+00  0.0000E+00  0.0000E+00  0.0000E+00  0.0000E+00  0.0000E+00  0.0000E+00  0.0000E+00  0.0000E+00  0.0000E+00  0.0000E+00  0.0000E+00  0.0000E+00  0.0000E+00  0.0000E+00  0.0000E+00
    -43.247  0.0000E+00  0.0000E+00  0.0000E+00  0.0000E+00  0.0000E+00  0.0000E+00  0.0000E+00  0.0000E+00  0.0000E+00  0.0000E+00  0.0000E+00  0.0000E+00  0.0000E+00  0.0000E+00  0.0000E+00  0.0000E+00  0.0000E+00  0.0000E+00
    -43.050  0.0000E+00  0.0000E+00  0.0000E+00  0.0000E+00  0.0000E+00  0.0000E+00  0.0000E+00  0.0000E+00  0.0000E+00  0.0000E+00  0.0000E+00  0.0000E+00  0.0000E+00  0.0000E+00  0.0000E+00  0.0000E+00  0.0000E+00  0.0000E+00
    -42.853  0.0000E+00  0.0000E+00  0.0000E+00  0.0000E+00  0.0000E+00  0.0000E+00  0.0000E+00  0.0000E+00  0.0000E+00  0.0000E+00  0.0000E+00  0.0000E+00  0.0000E+00  0.0000E+00  0.0000E+00  0.0000E+00  0.0000E+00  0.0000E+00
    -42.656  0.1499E-03  0.1503E-03  0.9704E-13  0.1016E-12  0.9704E-13  0.1016E-12  0.9807E-13  0.1026E-12  0.9107E-16  0.1460E-15  0.8802E-16  0.1435E-15  0.1224E-12  0.1308E-12  0.9107E-16  0.1460E-15  0.1207E-12  0.1293E-12
    -42.459  0.7574E-02  0.7594E-02  0.4902E-11  0.5135E-11  0.4902E-11  0.5135E-11  0.4954E-11  0.5184E-11  0.4600E-14  0.7376E-14  0.4446E-14  0.7249E-14  0.6181E-11  0.6609E-11  0.4600E-14  0.7376E-14  0.6095E-11  0.6530E-11
    -42.262  0.3621E+00  0.3630E+00  0.2343E-09  0.2454E-09  0.2343E-09  0.2454E-09  0.2368E-09  0.2478E-09  0.2199E-12  0.3526E-12  0.2126E-12  0.3465E-12  0.2955E-09  0.3159E-09  0.2199E-12  0.3526E-12  0.2914E-09  0.3121E-09
    -42.064  0.3676E+01  0.3678E+01  0.2379E-08  0.2486E-08  0.2379E-08  0.2486E-08  0.2405E-08  0.2510E-08  0.2237E-11  0.3580E-11  0.2162E-11  0.3518E-11  0.3002E-08  0.3202E-08  0.2237E-11  0.3580E-11  0.2958E-08  0.3162E-08
    -41.867  0.9659E+00  0.9639E+00  0.6251E-09  0.6516E-09  0.6251E-09  0.6516E-09  0.6318E-09  0.6579E-09  0.5889E-12  0.9405E-12  0.5689E-12  0.9243E-12  0.7890E-09  0.8396E-09  0.5889E-12  0.9405E-12  0.7769E-09  0.8283E-09
    -41.670  0.0000E+00  0.0000E+00  0.0000E+00  0.0000E+00  0.0000E+00  0.0000E+00  0.0000E+00  0.0000E+00  0.0000E+00  0.0000E+00  0.0000E+00  0.0000E+00  0.0000E+00  0.0000E+00  0.0000E+00  0.0000E+00  0.0000E+00  0.0000E+00
    -41.473  0.0000E+00  0.0000E+00  0.0000E+00  0.0000E+00  0.0000E+00  0.0000E+00  0.0000E+00  0.0000E+00  0.0000E+00  0.0000E+00  0.0000E+00  0.0000E+00  0.0000E+00  0.0000E+00  0.0000E+00  0.0000E+00  0.0000E+00  0.0000E+00
    -41.276  0.0000E+00  0.0000E+00  0.0000E+00  0.0000E+00  0.0000E+00  0.0000E+00  0.0000E+00  0.0000E+00  0.0000E+00  0.0000E+00  0.0000E+00  0.0000E+00  0.0000E+00  0.0000E+00  0.0000E+00  0.0000E+00  0.0000E+00  0.0000E+00
    -41.079  0.0000E+00  0.0000E+00  0.0000E+00  0.0000E+00  0.0000E+00  0.0000E+00  0.0000E+00  0.0000E+00  0.0000E+00  0.0000E+00  0.0000E+00  0.0000E+00  0.0000E+00  0.0000E+00  0.0000E+00  0.0000E+00  0.0000E+00  0.0000E+00
    -40.881  0.0000E+00  0.0000E+00  0.0000E+00  0.0000E+00  0.0000E+00  0.0000E+00  0.0000E+00  0.0000E+00  0.0000E+00  0.0000E+00  0.0000E+00  0.0000E+00  0.0000E+00  0.0000E+00  0.0000E+00  0.0000E+00  0.0000E+00  0.0000E+00
    -40.684  0.0000E+00  0.0000E+00  0.0000E+00  0.0000E+00  0.0000E+00  0.0000E+00  0.0000E+00  0.0000E+00  0.0000E+00  0.0000E+00  0.0000E+00  0.0000E+00  0.0000E+00  0.0000E+00  0.0000E+00  0.0000E+00  0.0000E+00  0.0000E+00
    -40.487  0.0000E+00  0.0000E+00  0.0000E+00  0.0000E+00  0.0000E+00  0.0000E+00  0.0000E+00  0.0000E+00  0.0000E+00  0.0000E+00  0.0000E+00  0.0000E+00  0.0000E+00  0.0000E+00  0.0000E+00  0.0000E+00  0.0000E+00  0.0000E+00
    -40.290  0.0000E+00  0.0000E+00  0.0000E+00  0.0000E+00  0.0000E+00  0.0000E+00  0.0000E+00  0.0000E+00  0.0000E+00  0.0000E+00  0.0000E+00  0.0000E+00  0.0000E+00  0.0000E+00  0.0000E+00  0.0000E+00  0.0000E+00  0.0000E+00
    -40.093  0.0000E+00  0.0000E+00  0.0000E+00  0.0000E+00  0.0000E+00  0.0000E+00  0.0000E+00  0.0000E+00  0.0000E+00  0.0000E+00  0.0000E+00  0.0000E+00  0.0000E+00  0.0000E+00  0.0000E+00  0.0000E+00  0.0000E+00  0.0000E+00
    -39.896  0.0000E+00  0.0000E+00  0.0000E+00  0.0000E+00  0.0000E+00  0.0000E+00  0.0000E+00  0.0000E+00  0.0000E+00  0.0000E+00  0.0000E+00  0.0000E+00  0.0000E+00  0.0000E+00  0.0000E+00  0.0000E+00  0.0000E+00  0.0000E+00
    -39.698  0.0000E+00  0.0000E+00  0.0000E+00  0.0000E+00  0.0000E+00  0.0000E+00  0.0000E+00  0.0000E+00  0.0000E+00  0.0000E+00  0.0000E+00  0.0000E+00  0.0000E+00  0.0000E+00  0.0000E+00  0.0000E+00  0.0000E+00  0.0000E+00
    -39.501  0.0000E+00  0.0000E+00  0.0000E+00  0.0000E+00  0.0000E+00  0.0000E+00  0.0000E+00  0.0000E+00  0.0000E+00  0.0000E+00  0.0000E+00  0.0000E+00  0.0000E+00  0.0000E+00  0.0000E+00  0.0000E+00  0.0000E+00  0.0000E+00
    -39.304  0.0000E+00  0.0000E+00  0.0000E+00  0.0000E+00  0.0000E+00  0.0000E+00  0.0000E+00  0.0000E+00  0.0000E+00  0.0000E+00  0.0000E+00  0.0000E+00  0.0000E+00  0.0000E+00  0.0000E+00  0.0000E+00  0.0000E+00  0.0000E+00
    -39.107  0.0000E+00  0.0000E+00  0.0000E+00  0.0000E+00  0.0000E+00  0.0000E+00  0.0000E+00  0.0000E+00  0.0000E+00  0.0000E+00  0.0000E+00  0.0000E+00  0.0000E+00  0.0000E+00  0.0000E+00  0.0000E+00  0.0000E+00  0.0000E+00
    -38.910  0.0000E+00  0.0000E+00  0.0000E+00  0.0000E+00  0.0000E+00  0.0000E+00  0.0000E+00  0.0000E+00  0.0000E+00  0.0000E+00  0.0000E+00  0.0000E+00  0.0000E+00  0.0000E+00  0.0000E+00  0.0000E+00  0.0000E+00  0.0000E+00
    -38.713  0.0000E+00  0.0000E+00  0.0000E+00  0.0000E+00  0.0000E+00  0.0000E+00  0.0000E+00  0.0000E+00  0.0000E+00  0.0000E+00  0.0000E+00  0.0000E+00  0.0000E+00  0.0000E+00  0.0000E+00  0.0000E+00  0.0000E+00  0.0000E+00
    -38.515  0.0000E+00  0.0000E+00  0.0000E+00  0.0000E+00  0.0000E+00  0.0000E+00  0.0000E+00  0.0000E+00  0.0000E+00  0.0000E+00  0.0000E+00  0.0000E+00  0.0000E+00  0.0000E+00  0.0000E+00  0.0000E+00  0.0000E+00  0.0000E+00
    -38.318  0.0000E+00  0.0000E+00  0.0000E+00  0.0000E+00  0.0000E+00  0.0000E+00  0.0000E+00  0.0000E+00  0.0000E+00  0.0000E+00  0.0000E+00  0.0000E+00  0.0000E+00  0.0000E+00  0.0000E+00  0.0000E+00  0.0000E+00  0.0000E+00
    -38.121  0.0000E+00  0.0000E+00  0.0000E+00  0.0000E+00  0.0000E+00  0.0000E+00  0.0000E+00  0.0000E+00  0.0000E+00  0.0000E+00  0.0000E+00  0.0000E+00  0.0000E+00  0.0000E+00  0.0000E+00  0.0000E+00  0.0000E+00  0.0000E+00
    -37.924  0.0000E+00  0.0000E+00  0.0000E+00  0.0000E+00  0.0000E+00  0.0000E+00  0.0000E+00  0.0000E+00  0.0000E+00  0.0000E+00  0.0000E+00  0.0000E+00  0.0000E+00  0.0000E+00  0.0000E+00  0.0000E+00  0.0000E+00  0.0000E+00
    -37.727  0.0000E+00  0.0000E+00  0.0000E+00  0.0000E+00  0.0000E+00  0.0000E+00  0.0000E+00  0.0000E+00  0.0000E+00  0.0000E+00  0.0000E+00  0.0000E+00  0.0000E+00  0.0000E+00  0.0000E+00  0.0000E+00  0.0000E+00  0.0000E+00
    -37.530  0.0000E+00  0.0000E+00  0.0000E+00  0.0000E+00  0.0000E+00  0.0000E+00  0.0000E+00  0.0000E+00  0.0000E+00  0.0000E+00  0.0000E+00  0.0000E+00  0.0000E+00  0.0000E+00  0.0000E+00  0.0000E+00  0.0000E+00  0.0000E+00
    -37.332  0.0000E+00  0.0000E+00  0.0000E+00  0.0000E+00  0.0000E+00  0.0000E+00  0.0000E+00  0.0000E+00  0.0000E+00  0.0000E+00  0.0000E+00  0.0000E+00  0.0000E+00  0.0000E+00  0.0000E+00  0.0000E+00  0.0000E+00  0.0000E+00
    -37.135  0.0000E+00  0.0000E+00  0.0000E+00  0.0000E+00  0.0000E+00  0.0000E+00  0.0000E+00  0.0000E+00  0.0000E+00  0.0000E+00  0.0000E+00  0.0000E+00  0.0000E+00  0.0000E+00  0.0000E+00  0.0000E+00  0.0000E+00  0.0000E+00
    -36.938  0.0000E+00  0.0000E+00  0.0000E+00  0.0000E+00  0.0000E+00  0.0000E+00  0.0000E+00  0.0000E+00  0.0000E+00  0.0000E+00  0.0000E+00  0.0000E+00  0.0000E+00  0.0000E+00  0.0000E+00  0.0000E+00  0.0000E+00  0.0000E+00
    -36.741  0.0000E+00  0.0000E+00  0.0000E+00  0.0000E+00  0.0000E+00  0.0000E+00  0.0000E+00  0.0000E+00  0.0000E+00  0.0000E+00  0.0000E+00  0.0000E+00  0.0000E+00  0.0000E+00  0.0000E+00  0.0000E+00  0.0000E+00  0.0000E+00
    -36.544  0.0000E+00  0.0000E+00  0.0000E+00  0.0000E+00  0.0000E+00  0.0000E+00  0.0000E+00  0.0000E+00  0.0000E+00  0.0000E+00  0.0000E+00  0.0000E+00  0.0000E+00  0.0000E+00  0.0000E+00  0.0000E+00  0.0000E+00  0.0000E+00
    -36.347  0.0000E+00  0.0000E+00  0.0000E+00  0.0000E+00  0.0000E+00  0.0000E+00  0.0000E+00  0.0000E+00  0.0000E+00  0.0000E+00  0.0000E+00  0.0000E+00  0.0000E+00  0.0000E+00  0.0000E+00  0.0000E+00  0.0000E+00  0.0000E+00
    -36.149  0.0000E+00  0.0000E+00  0.0000E+00  0.0000E+00  0.0000E+00  0.0000E+00  0.0000E+00  0.0000E+00  0.0000E+00  0.0000E+00  0.0000E+00  0.0000E+00  0.0000E+00  0.0000E+00  0.0000E+00  0.0000E+00  0.0000E+00  0.0000E+00
    -35.952  0.0000E+00  0.0000E+00  0.0000E+00  0.0000E+00  0.0000E+00  0.0000E+00  0.0000E+00  0.0000E+00  0.0000E+00  0.0000E+00  0.0000E+00  0.0000E+00  0.0000E+00  0.0000E+00  0.0000E+00  0.0000E+00  0.0000E+00  0.0000E+00
    -35.755  0.0000E+00  0.0000E+00  0.0000E+00  0.0000E+00  0.0000E+00  0.0000E+00  0.0000E+00  0.0000E+00  0.0000E+00  0.0000E+00  0.0000E+00  0.0000E+00  0.0000E+00  0.0000E+00  0.0000E+00  0.0000E+00  0.0000E+00  0.0000E+00
    -35.558  0.0000E+00  0.0000E+00  0.0000E+00  0.0000E+00  0.0000E+00  0.0000E+00  0.0000E+00  0.0000E+00  0.0000E+00  0.0000E+00  0.0000E+00  0.0000E+00  0.0000E+00  0.0000E+00  0.0000E+00  0.0000E+00  0.0000E+00  0.0000E+00
    -35.361  0.0000E+00  0.0000E+00  0.0000E+00  0.0000E+00  0.0000E+00  0.0000E+00  0.0000E+00  0.0000E+00  0.0000E+00  0.0000E+00  0.0000E+00  0.0000E+00  0.0000E+00  0.0000E+00  0.0000E+00  0.0000E+00  0.0000E+00  0.0000E+00
    -35.164  0.0000E+00  0.0000E+00  0.0000E+00  0.0000E+00  0.0000E+00  0.0000E+00  0.0000E+00  0.0000E+00  0.0000E+00  0.0000E+00  0.0000E+00  0.0000E+00  0.0000E+00  0.0000E+00  0.0000E+00  0.0000E+00  0.0000E+00  0.0000E+00
    -34.966  0.0000E+00  0.0000E+00  0.0000E+00  0.0000E+00  0.0000E+00  0.0000E+00  0.0000E+00  0.0000E+00  0.0000E+00  0.0000E+00  0.0000E+00  0.0000E+00  0.0000E+00  0.0000E+00  0.0000E+00  0.0000E+00  0.0000E+00  0.0000E+00