   4   4   1   0
  0.2239055E+02  0.4473131E-09  0.4474624E-09  0.4474624E-09  0.5000000E-15
  1.000000000000000E-004
  CAR 
 unknown system                          
     13.09421675    -45.84788049  301      6.44415751      1.00000000
    -45.848  0.0000E+00  0.0000E+00  0.0000E+00  0.0000E+00
    -45.651  0.0000E+00  0.0000E+00  0.0000E+00  0.0000E+00
    -45.455  0.0000E+00  0.0000E+00  0.0000E+00  0.0000E+00
    -45.258  0.0000E+00  0.0000E+00  0.0000E+00  0.0000E+00
    -45.062  0.0000E+00  0.0000E+00  0.0000E+00  0.0000E+00
    -44.866  0.0000E+00  0.0000E+00  0.0000E+00  0.0000E+00
    -44.669  0.0000E+00  0.0000E+00  0.0000E+00  0.0000E+00
    -44.473  0.0000E+00  0.0000E+00  0.0000E+00  0.0000E+00
    -44.276  0.0000E+00  0.0000E+00  0.0000E+00  0.0000E+00
    -44.080  0.0000E+00  0.0000E+00  0.0000E+00  0.0000E+00
    -43.883  0.0000E+00  0.0000E+00  0.0000E+00  0.0000E+00
    -43.687  0.1590E-03  0.1588E-03  0.3125E-04  0.3119E-04
    -43.490  0.7920E-02  0.7907E-02  0.1587E-02  0.1585E-02
    -43.294  0.3728E+00  0.3723E+00  0.7484E-01  0.7472E-01
    -43.097  0.3714E+01  0.3713E+01  0.8045E+00  0.8043E+00
    -42.901  0.9707E+00  0.9720E+00  0.9952E+00  0.9952E+00
    -42.704  0.0000E+00  0.0000E+00  0.1000E+01  0.1000E+01
    -42.508  0.0000E+00  0.0000E+00  0.1000E+01  0.1000E+01
    -42.311  0.0000E+00  0.0000E+00  0.1000E+01  0.1000E+01
    -42.115  0.0000E+00  0.0000E+00  0.1000E+01  0.1000E+01
    -41.918  0.0000E+00  0.0000E+00  0.1000E+01  0.1000E+01
    -41.722  0.0000E+00  0.0000E+00  0.1000E+01  0.1000E+01
    -41.525  0.0000E+00  0.0000E+00  0.1000E+01  0.1000E+01
    -41.329  0.0000E+00  0.0000E+00  0.1000E+01  0.1000E+01
    -41.133  0.0000E+00  0.0000E+00  0.1000E+01  0.1000E+01
    -40.936  0.0000E+00  0.0000E+00  0.1000E+01  0.1000E+01
    -40.740  0.0000E+00  0.0000E+00  0.1000E+01  0.1000E+01
    -40.543  0.0000E+00  0.0000E+00  0.1000E+01  0.1000E+01
    -40.347  0.0000E+00  0.0000E+00  0.1000E+01  0.1000E+01
    -40.150  0.0000E+00  0.0000E+00  0.1000E+01  0.1000E+01
    -39.954  0.0000E+00  0.0000E+00  0.1000E+01  0.1000E+01
    -39.757  0.0000E+00  0.0000E+00  0.1000E+01  0.1000E+01
    -39.561  0.0000E+00  0.0000E+00  0.1000E+01  0.1000E+01
    -39.364  0.0000E+00  0.0000E+00  0.1000E+01  0.1000E+01
    -39.168  0.0000E+00  0.0000E+00  0.1000E+01  0.1000E+01
    -38.971  0.0000E+00  0.0000E+00  0.1000E+01  0.1000E+01
    -38.775  0.0000E+00  0.0000E+00  0.1000E+01  0.1000E+01
    -38.578  0.0000E+00  0.0000E+00  0.1000E+01  0.1000E+01
    -38.382  0.0000E+00  0.0000E+00  0.1000E+01  0.1000E+01
    -38.185  0.0000E+00  0.0000E+00  0.1000E+01  0.1000E+01
    -37.989  0.0000E+00  0.0000E+00  0.1000E+01  0.1000E+01
    -37.792  0.0000E+00  0.0000E+00  0.1000E+01  0.1000E+01
    -37.596  0.0000E+00  0.0000E+00  0.1000E+01  0.1000E+01
    -37.400  0.0000E+00  0.0000E+00  0.1000E+01  0.1000E+01
    -37.203  0.0000E+00  0.0000E+00  0.1000E+01  0.1000E+01
    -37.007  0.0000E+00  0.0000E+00  0.1000E+01  0.1000E+01
    -36.810  0.0000E+00  0.0000E+00  0.1000E+01  0.1000E+01
    -36.614  0.0000E+00  0.0000E+00  0.1000E+01  0.1000E+01
    -36.417  0.0000E+00  0.0000E+00  0.1000E+01  0.1000E+01
    -36.221  0.0000E+00  0.0000E+00  0.1000E+01  0.1000E+01
    -36.024  0.0000E+00  0.0000E+00  0.1000E+01  0.1000E+01
    -35.828  0.0000E+00  0.0000E+00  0.1000E+01  0.1000E+01
    -35.631  0.0000E+00  0.0000E+00  0.1000E+01  0.1000E+01
    -35.435  0.0000E+00  0.0000E+00  0.1000E+01  0.1000E+01
    -35.238  0.0000E+00  0.0000E+00  0.1000E+01  0.1000E+01
    -35.042  0.0000E+00  0.0000E+00  0.1000E+01  0.1000E+01
    -34.845  0.0000E+00  0.0000E+00  0.1000E+01  0.1000E+01
    -34.649  0.0000E+00  0.0000E+00  0.1000E+01  0.1000E+01
    -34.452  0.0000E+00  0.0000E+00  0.1000E+01  0.1000E+01
    -34.256  0.0000E+00  0.0000E+00  0.1000E+01  0.1000E+01
    -34.059  0.0000E+00  0.0000E+00  0.1000E+01  0.1000E+01
    -33.863  0.0000E+00  0.0000E+00  0.1000E+01  0.1000E+01
    -33.667  0.0000E+00  0.0000E+00  0.1000E+01  0.1000E+01
    -33.470  0.0000E+00  0.0000E+00  0.1000E+01  0.1000E+01
    -33.274  0.0000E+00  0.0000E+00  0.1000E+01  0.1000E+01
    -33.077  0.0000E+00  0.0000E+00  0.1000E+01  0.1000E+01
    -32.881  0.0000E+00  0.0000E+00  0.1000E+01  0.1000E+01
    -32.684  0.0000E+00  0.0000E+00  0.1000E+01  0.1000E+01
    -32.488  0.0000E+00  0.0000E+00  0.1000E+01  0.1000E+01
    -32.291  0.0000E+00  0.0000E+00  0.1000E+01  0.1000E+01
    -32.095  0.0000E+00  0.0000E+00  0.1000E+01  0.1000E+01
    -31.898  0.0000E+00  0.0000E+00  0.1000E+01  0.1000E+01
    -31.702  0.0000E+00  0.0000E+00  0.1000E+01  0.1000E+01
    -31.505  0.0000E+00  0.0000E+00  0.1000E+01  0.1000E+01
    -31.309  0.0000E+00  0.0000E+00  0.1000E+01  0.1000E+01
    -31.112  0.0000E+00  0.0000E+00  0.1000E+01  0.1000E+01
    -30.916  0.0000E+00  0.0000E+00  0.1000E+01  0.1000E+01
    -30.719  0.0000E+00  0.0000E+00  0.1000E+01  0.1000E+01
    -30.523  0.0000E+00  0.0000E+00  0.1000E+01  0.1000E+01
    -30.326  0.0000E+00  0.0000E+00  0.1000E+01  0.1000E+01
    -30.130  0.0000E+00  0.0000E+00  0.1000E+01  0.1000E+01
    -29.934  0.0000E+00  0.0000E+00  0.1000E+01  0.1000E+01
    -29.737  0.0000E+00  0.0000E+00  0.1000E+01  0.1000E+01
    -29.541  0.0000E+00  0.0000E+00  0.1000E+01  0.1000E+01
    -29.344  0.0000E+00  0.0000E+00  0.1000E+01  0.1000E+01
    -29.148  0.0000E+00  0.0000E+00  0.1000E+01  0.1000E+01
    -28.951  0.0000E+00  0.0000E+00  0.1000E+01  0.1000E+01
    -28.755  0.0000E+00  0.0000E+00  0.1000E+01  0.1000E+01
    -28.558  0.0000E+00  0.0000E+00  0.1000E+01  0.1000E+01
    -28.362  0.0000E+00  0.0000E+00  0.1000E+01  0.1000E+01
    -28.165  0.0000E+00  0.0000E+00  0.1000E+01  0.1000E+01
    -27.969  0.0000E+00  0.0000E+00  0.1000E+01  0.1000E+01
    -27.772  0.0000E+00  0.0000E+00  0.1000E+01  0.1000E+01
    -27.576  0.0000E+00  0.0000E+00  0.1000E+01  0.1000E+01
    -27.379  0.0000E+00  0.0000E+00  0.1000E+01  0.1000E+01
    -27.183  0.0000E+00  0.0000E+00  0.1000E+01  0.1000E+01
    -26.986  0.0000E+00  0.0000E+00  0.1000E+01  0.1000E+01
    -26.790  0.0000E+00  0.0000E+00  0.1000E+01  0.1000E+01
    -26.593  0.0000E+00  0.0000E+00  0.1000E+01  0.1000E+01
    -26.397  0.0000E+00  0.0000E+00  0.1000E+01  0.1000E+01
    -26.201  0.0000E+00  0.0000E+00  0.1000E+01  0.1000E+01
    -26.004  0.0000E+00  0.0000E+00  0.1000E+01  0.1000E+01
    -25.808  0.0000E+00  0.0000E+00  0.1000E+01  0.1000E+01
    -25.611  0.0000E+00  0.0000E+00  0.1000E+01  0.1000E+01
    -25.415  0.0000E+00  0.0000E+00  0.1000E+01  0.1000E+01
    -25.218  0.0000E+00  0.0000E+00  0.1000E+01  0.1000E+01
    -25.022  0.0000E+00  0.0000E+00  0.1000E+01  0.1000E+01
    -24.825  0.0000E+00  0.0000E+00  0.1000E+01  0.1000E+01
    -24.629  0.0000E+00  0.0000E+00  0.1000E+01  0.1000E+01
    -24.432  0.0000E+00  0.0000E+00  0.1000E+01  0.1000E+01
    -24.236  0.0000E+00  0.0000E+00  0.1000E+01  0.1000E+01
    -24.039  0.0000E+00  0.0000E+00  0.1000E+01  0.1000E+01
    -23.843  0.0000E+00  0.0000E+00  0.1000E+01  0.1000E+01
    -23.646  0.0000E+00  0.0000E+00  0.1000E+01  0.1000E+01
    -23.450  0.0000E+00  0.0000E+00  0.1000E+01  0.1000E+01
    -23.253  0.0000E+00  0.0000E+00  0.1000E+01  0.1000E+01
    -23.057  0.0000E+00  0.0000E+00  0.1000E+01  0.1000E+01
    -22.860  0.0000E+00  0.0000E+00  0.1000E+01  0.1000E+01
    -22.664  0.0000E+00  0.0000E+00  0.1000E+01  0.1000E+01
    -22.468  0.0000E+00  0.0000E+00  0.1000E+01  0.1000E+01
    -22.271  0.0000E+00  0.0000E+00  0.1000E+01  0.1000E+01
    -22.075  0.0000E+00  0.0000E+00  0.1000E+01  0.1000E+01
    -21.878  0.0000E+00  0.0000E+00  0.1000E+01  0.1000E+01
    -21.682  0.5388E-03  0.5377E-03  0.1000E+01  0.1000E+01
    -21.485  0.2683E-01  0.2677E-01  0.1005E+01  0.1005E+01
    -21.289  0.1249E+01  0.1247E+01  0.1251E+01  0.1250E+01
    -21.092  0.1126E+02  0.1126E+02  0.3463E+01  0.3463E+01
    -20.896  0.2666E+01  0.2670E+01  0.3987E+01  0.3987E+01
    -20.699  0.0000E+00  0.0000E+00  0.4000E+01  0.4000E+01
    -20.503  0.0000E+00  0.0000E+00  0.4000E+01  0.4000E+01
    -20.306  0.0000E+00  0.0000E+00  0.4000E+01  0.4000E+01
    -20.110  0.0000E+00  0.0000E+00  0.4000E+01  0.4000E+01
    -19.913  0.0000E+00  0.0000E+00  0.4000E+01  0.4000E+01
    -19.717  0.0000E+00  0.0000E+00  0.4000E+01  0.4000E+01
    -19.520  0.0000E+00  0.0000E+00  0.4000E+01  0.4000E+01
    -19.324  0.0000E+00  0.0000E+00  0.4000E+01  0.4000E+01
    -19.127  0.0000E+00  0.0000E+00  0.4000E+01  0.4000E+01
    -18.931  0.0000E+00  0.0000E+00  0.4000E+01  0.4000E+01
    -18.735  0.0000E+00  0.0000E+00  0.4000E+01  0.4000E+01
    -18.538  0.0000E+00  0.0000E+00  0.4000E+01  0.4000E+01
    -18.342  0.0000E+00  0.0000E+00  0.4000E+01  0.4000E+01
    -18.145  0.0000E+00  0.0000E+00  0.4000E+01  0.4000E+01
    -17.949  0.0000E+00  0.0000E+00  0.4000E+01  0.4000E+01
    -17.752  0.0000E+00  0.0000E+00  0.4000E+01  0.4000E+01
    -17.556  0.0000E+00  0.0000E+00  0.4000E+01  0.4000E+01
    -17.359  0.0000E+00  0.0000E+00  0.4000E+01  0.4000E+01
    -17.163  0.0000E+00  0.0000E+00  0.4000E+01  0.4000E+01
    -16.966  0.0000E+00  0.0000E+00  0.4000E+01  0.4000E+01
    -16.770  0.0000E+00  0.0000E+00  0.4000E+01  0.4000E+01
    -16.573  0.0000E+00  0.0000E+00  0.4000E+01  0.4000E+01
    -16.377  0.0000E+00  0.0000E+00  0.4000E+01  0.4000E+01
    -16.180  0.0000E+00  0.0000E+00  0.4000E+01  0.4000E+01
    -15.984  0.0000E+00  0.0000E+00  0.4000E+01  0.4000E+01
    -15.787  0.0000E+00  0.0000E+00  0.4000E+01  0.4000E+01
    -15.591  0.0000E+00  0.0000E+00  0.4000E+01  0.4000E+01
    -15.394  0.0000E+00  0.0000E+00  0.4000E+01  0.4000E+01
    -15.198  0.0000E+00  0.0000E+00  0.4000E+01  0.4000E+01
    -15.002  0.0000E+00  0.0000E+00  0.4000E+01  0.4000E+01
    -14.805  0.0000E+00  0.0000E+00  0.4000E+01  0.4000E+01
    -14.609  0.0000E+00  0.0000E+00  0.4000E+01  0.4000E+01
    -14.412  0.0000E+00  0.0000E+00  0.4000E+01  0.4000E+01
    -14.216  0.0000E+00  0.0000E+00  0.4000E+01  0.4000E+01
    -14.019  0.0000E+00  0.0000E+00  0.4000E+01  0.4000E+01
    -13.823  0.0000E+00  0.0000E+00  0.4000E+01  0.4000E+01
    -13.626  0.0000E+00  0.0000E+00  0.4000E+01  0.4000E+01
    -13.430  0.0000E+00  0.0000E+00  0.4000E+01  0.4000E+01
    -13.233  0.0000E+00  0.0000E+00  0.4000E+01  0.4000E+01
    -13.037  0.0000E+00  0.0000E+00  0.4000E+01  0.4000E+01
    -12.840  0.0000E+00  0.0000E+00  0.4000E+01  0.4000E+01
    -12.644  0.0000E+00  0.0000E+00  0.4000E+01  0.4000E+01
    -12.447  0.0000E+00  0.0000E+00  0.4000E+01  0.4000E+01
    -12.251  0.0000E+00  0.0000E+00  0.4000E+01  0.4000E+01
    -12.054  0.0000E+00  0.0000E+00  0.4000E+01  0.4000E+01
    -11.858  0.0000E+00  0.0000E+00  0.4000E+01  0.4000E+01
    -11.661  0.0000E+00  0.0000E+00  0.4000E+01  0.4000E+01
    -11.465  0.0000E+00  0.0000E+00  0.4000E+01  0.4000E+01
    -11.269  0.0000E+00  0.0000E+00  0.4000E+01  0.4000E+01
    -11.072  0.0000E+00  0.0000E+00  0.4000E+01  0.4000E+01
    -10.876  0.0000E+00  0.0000E+00  0.4000E+01  0.4000E+01
    -10.679  0.0000E+00  0.0000E+00  0.4000E+01  0.4000E+01
    -10.483  0.0000E+00  0.0000E+00  0.4000E+01  0.4000E+01
    -10.286  0.0000E+00  0.0000E+00  0.4000E+01  0.4000E+01
    -10.090  0.0000E+00  0.0000E+00  0.4000E+01  0.4000E+01
     -9.893  0.0000E+00  0.0000E+00  0.4000E+01  0.4000E+01
     -9.697  0.0000E+00  0.0000E+00  0.4000E+01  0.4000E+01
     -9.500  0.0000E+00  0.0000E+00  0.4000E+01  0.4000E+01
     -9.304  0.0000E+00  0.0000E+00  0.4000E+01  0.4000E+01
     -9.107  0.0000E+00  0.0000E+00  0.4000E+01  0.4000E+01
     -8.911  0.0000E+00  0.0000E+00  0.4000E+01  0.4000E+01
     -8.714  0.0000E+00  0.0000E+00  0.4000E+01  0.4000E+01
     -8.518  0.0000E+00  0.0000E+00  0.4000E+01  0.4000E+01
     -8.321  0.0000E+00  0.0000E+00  0.4000E+01  0.4000E+01
     -8.125  0.0000E+00  0.0000E+00  0.4000E+01  0.4000E+01
     -7.928  0.0000E+00  0.0000E+00  0.4000E+01  0.4000E+01
     -7.732  0.0000E+00  0.0000E+00  0.4000E+01  0.4000E+01
     -7.536  0.0000E+00  0.0000E+00  0.4000E+01  0.4000E+01
     -7.339  0.0000E+00  0.0000E+00  0.4000E+01  0.4000E+01
     -7.143  0.0000E+00  0.0000E+00  0.4000E+01  0.4000E+01
     -6.946  0.0000E+00  0.0000E+00  0.4000E+01  0.4000E+01
     -6.750  0.0000E+00  0.0000E+00  0.4000E+01  0.4000E+01
     -6.553  0.0000E+00  0.0000E+00  0.4000E+01  0.4000E+01
     -6.357  0.0000E+00  0.0000E+00  0.4000E+01  0.4000E+01
     -6.160  0.0000E+00  0.0000E+00  0.4000E+01  0.4000E+01
     -5.964  0.0000E+00  0.0000E+00  0.4000E+01  0.4000E+01
     -5.767  0.0000E+00  0.0000E+00  0.4000E+01  0.4000E+01
     -5.571  0.0000E+00  0.0000E+00  0.4000E+01  0.4000E+01
     -5.374  0.0000E+00  0.0000E+00  0.4000E+01  0.4000E+01
     -5.178  0.0000E+00  0.0000E+00  0.4000E+01  0.4000E+01
     -4.981  0.0000E+00  0.0000E+00  0.4000E+01  0.4000E+01
     -4.785  0.0000E+00  0.0000E+00  0.4000E+01  0.4000E+01
     -4.588  0.0000E+00  0.0000E+00  0.4000E+01  0.4000E+01
     -4.392  0.0000E+00  0.0000E+00  0.4000E+01  0.4000E+01
     -4.195  0.0000E+00  0.0000E+00  0.4000E+01  0.4000E+01
     -3.999  0.0000E+00  0.0000E+00  0.4000E+01  0.4000E+01
     -3.803  0.0000E+00  0.0000E+00  0.4000E+01  0.4000E+01
     -3.606  0.0000E+00  0.0000E+00  0.4000E+01  0.4000E+01
     -3.410  0.0000E+00  0.0000E+00  0.4000E+01  0.4000E+01
     -3.213  0.0000E+00  0.0000E+00  0.4000E+01  0.4000E+01
     -3.017  0.0000E+00  0.0000E+00  0.4000E+01  0.4000E+01
     -2.820  0.2512E-05  0.2507E-05  0.4000E+01  0.4000E+01
     -2.624  0.1356E-03  0.1353E-03  0.4000E+01  0.4000E+01
     -2.427  0.5959E-02  0.5947E-02  0.4001E+01  0.4001E+01
     -2.231  0.6459E-01  0.6454E-01  0.4014E+01  0.4014E+01
     -2.034  0.1436E+00  0.1436E+00  0.4042E+01  0.4042E+01
     -1.838  0.2033E+00  0.2033E+00  0.4082E+01  0.4082E+01
     -1.641  0.2346E+00  0.2346E+00  0.4128E+01  0.4128E+01
     -1.445  0.3021E+00  0.3020E+00  0.4188E+01  0.4188E+01
     -1.248  0.3047E+00  0.3047E+00  0.4248E+01  0.4248E+01
     -1.052  0.3891E+00  0.3891E+00  0.4324E+01  0.4324E+01
     -0.855  0.4072E+00  0.4071E+00  0.4405E+01  0.4405E+01
     -0.659  0.4784E+00  0.4784E+00  0.4499E+01  0.4499E+01
     -0.462  0.5134E+00  0.5135E+00  0.4600E+01  0.4600E+01
     -0.266  0.4304E+00  0.4304E+00  0.4686E+01  0.4685E+01
     -0.070  0.4244E+00  0.4244E+00  0.4770E+01  0.4769E+01
      0.127  0.5347E+00  0.5346E+00  0.4875E+01  0.4875E+01
      0.323  0.4859E+00  0.4859E+00  0.4971E+01  0.4971E+01
      0.520  0.4689E+00  0.4688E+00  0.5063E+01  0.5063E+01
      0.716  0.5749E+00  0.5748E+00  0.5177E+01  0.5177E+01
      0.913  0.5209E+00  0.5209E+00  0.5279E+01  0.5279E+01
      1.109  0.5902E+00  0.5901E+00  0.5396E+01  0.5396E+01
      1.306  0.8191E+00  0.8189E+00  0.5557E+01  0.5557E+01
      1.502  0.9580E+00  0.9580E+00  0.5746E+01  0.5746E+01
      1.699  0.9083E+00  0.9083E+00  0.5925E+01  0.5925E+01
      1.895  0.8393E+00  0.8395E+00  0.6091E+01  0.6091E+01
      2.092  0.7724E+00  0.7723E+00  0.6243E+01  0.6243E+01
      2.288  0.6717E+00  0.6718E+00  0.6376E+01  0.6376E+01
      2.485  0.5278E+00  0.5278E+00  0.6480E+01  0.6480E+01
      2.681  0.6202E+00  0.6201E+00  0.6603E+01  0.6603E+01
      2.878  0.5850E+00  0.5850E+00  0.6718E+01  0.6718E+01
      3.074  0.6153E+00  0.6153E+00  0.6840E+01  0.6840E+01
      3.271  0.7372E+00  0.7370E+00  0.6985E+01  0.6985E+01
      3.467  0.9317E+00  0.9316E+00  0.7169E+01  0.7169E+01
      3.663  0.8534E+00  0.8536E+00  0.7337E+01  0.7337E+01
      3.860  0.8723E+00  0.8721E+00  0.7509E+01  0.7509E+01
      4.056  0.1116E+01  0.1116E+01  0.7729E+01  0.7729E+01
      4.253  0.1436E+01  0.1436E+01  0.8013E+01  0.8012E+01
      4.449  0.1711E+01  0.1711E+01  0.8350E+01  0.8350E+01
      4.646  0.1869E+01  0.1868E+01  0.8718E+01  0.8718E+01
      4.842  0.1729E+01  0.1730E+01  0.9059E+01  0.9059E+01
      5.039  0.1246E+01  0.1246E+01  0.9306E+01  0.9306E+01
      5.235  0.9208E+00  0.9209E+00  0.9488E+01  0.9488E+01
      5.432  0.8778E+00  0.8779E+00  0.9662E+01  0.9662E+01
      5.628  0.7814E+00  0.7815E+00  0.9816E+01  0.9816E+01
      5.825  0.7339E+00  0.7337E+00  0.9961E+01  0.9961E+01
      6.021  0.8086E+00  0.8088E+00  0.1012E+02  0.1012E+02
      6.218  0.7317E+00  0.7315E+00  0.1027E+02  0.1026E+02
      6.414  0.1028E+01  0.1028E+01  0.1047E+02  0.1047E+02
      6.611  0.1217E+01  0.1216E+01  0.1071E+02  0.1071E+02
      6.807  0.1401E+01  0.1401E+01  0.1098E+02  0.1098E+02
      7.004  0.1352E+01  0.1352E+01  0.1125E+02  0.1125E+02
      7.200  0.1552E+01  0.1552E+01  0.1156E+02  0.1156E+02
      7.396  0.2085E+01  0.2085E+01  0.1197E+02  0.1197E+02
      7.593  0.2388E+01  0.2389E+01  0.1244E+02  0.1244E+02
      7.789  0.2422E+01  0.2422E+01  0.1292E+02  0.1292E+02
      7.986  0.2067E+01  0.2067E+01  0.1332E+02  0.1332E+02
      8.182  0.1596E+01  0.1595E+01  0.1364E+02  0.1364E+02
      8.379  0.1554E+01  0.1555E+01  0.1395E+02  0.1395E+02
      8.575  0.1552E+01  0.1554E+01  0.1425E+02  0.1425E+02
      8.772  0.1355E+01  0.1353E+01  0.1452E+02  0.1452E+02
      8.968  0.1414E+01  0.1416E+01  0.1480E+02  0.1480E+02
      9.165  0.1371E+01  0.1383E+01  0.1507E+02  0.1507E+02
      9.361  0.1906E+01  0.1927E+01  0.1544E+02  0.1545E+02
      9.558  0.1566E+01  0.1541E+01  0.1575E+02  0.1576E+02
      9.754  0.8790E+00  0.8872E+00  0.1593E+02  0.1593E+02
      9.951  0.2882E+00  0.2786E+00  0.1599E+02  0.1599E+02
     10.147  0.3737E-01  0.2867E-01  0.1599E+02  0.1599E+02
     10.344  0.1060E-01  0.8393E-02  0.1600E+02  0.1600E+02
     10.540  0.1826E-01  0.1784E-01  0.1600E+02  0.1600E+02
     10.737  0.1405E-02  0.1283E-02  0.1600E+02  0.1600E+02
     10.933  0.0000E+00  0.0000E+00  0.1600E+02  0.1600E+02
     11.129  0.0000E+00  0.0000E+00  0.1600E+02  0.1600E+02
     11.326  0.0000E+00  0.0000E+00  0.1600E+02  0.1600E+02
     11.522  0.0000E+00  0.0000E+00  0.1600E+02  0.1600E+02
     11.719  0.0000E+00  0.0000E+00  0.1600E+02  0.1600E+02
     11.915  0.0000E+00  0.0000E+00  0.1600E+02  0.1600E+02
     12.112  0.0000E+00  0.0000E+00  0.1600E+02  0.1600E+02
     12.308  0.0000E+00  0.0000E+00  0.1600E+02  0.1600E+02
     12.505  0.0000E+00  0.0000E+00  0.1600E+02  0.1600E+02
     12.701  0.0000E+00  0.0000E+00  0.1600E+02  0.1600E+02
     12.898  0.0000E+00  0.0000E+00  0.1600E+02  0.1600E+02
     13.094  0.0000E+00  0.0000E+00  0.1600E+02  0.1600E+02
     13.09421675    -45.84788049  301      6.44415751      1.00000000
    -45.848  0.0000E+00  0.0000E+00  0.0000E+00  0.0000E+00  0.0000E+00  0.0000E+00  0.0000E+00  0.0000E+00  0.0000E+00  0.0000E+00  0.0000E+00  0.0000E+00  0.0000E+00  0.0000E+00  0.0000E+00  0.0000E+00  0.0000E+00  0.0000E+00
    -45.651  0.0000E+00  0.0000E+00  0.0000E+00  0.0000E+00  0.0000E+00  0.0000E+00  0.0000E+00  0.0000E+00  0.0000E+00  0.0000E+00  0.0000E+00  0.0000E+00  0.0000E+00  0.0000E+00  0.0000E+00  0.0000E+00  0.0000E+00  0.0000E+00
    -45.455  0.0000E+00  0.0000E+00  0.0000E+00  0.0000E+00  0.0000E+00  0.0000E+00  0.0000E+00  0.0000E+00  0.0000E+00  0.0000E+00  0.0000E+00  0.0000E+00  0.0000E+00  0.0000E+00  0.0000E+00  0.0000E+00  0.0000E+00  0.0000E+00
    -45.258  0.0000E+00  0.0000E+00  0.0000E+00  0.0000E+00  0.0000E+00  0.0000E+00  0.0000E+00  0.0000E+00  0.0000E+00  0.0000E+00  0.0000E+00  0.0000E+00  0.0000E+00  0.0000E+00  0.0000E+00  0.0000E+00  0.0000E+00  0.0000E+00
    -45.062  0.0000E+00  0.0000E+00  0.0000E+00  0.0000E+00  0.0000E+00  0.0000E+00  0.0000E+00  0.0000E+00  0.0000E+00  0.0000E+00  0.0000E+00  0.0000E+00  0.0000E+00  0.0000E+00  0.0000E+00  0.0000E+00  0.0000E+00  0.0000E+00
    -44.866  0.0000E+00  0.0000E+00  0.0000E+00  0.0000E+00  0.0000E+00  0.0000E+00  0.0000E+00  0.0000E+00  0.0000E+00  0.0000E+00  0.0000E+00  0.0000E+00  0.0000E+00  0.0000E+00  0.0000E+00  0.0000E+00  0.0000E+00  0.0000E+00
    -44.669  0.0000E+00  0.0000E+00  0.0000E+00  0.0000E+00  0.0000E+00  0.0000E+00  0.0000E+00  0.0000E+00  0.0000E+00  0.0000E+00  0.0000E+00  0.0000E+00  0.0000E+00  0.0000E+00  0.0000E+00  0.0000E+00  0.0000E+00  0.0000E+00
    -44.473  0.0000E+00  0.0000E+00  0.0000E+00  0.0000E+00  0.0000E+00  0.0000E+00  0.0000E+00  0.0000E+00  0.0000E+00  0.0000E+00  0.0000E+00  0.0000E+00  0.0000E+00  0.0000E+00  0.0000E+00  0.0000E+00  0.0000E+00  0.0000E+00
    -44.276  0.0000E+00  0.0000E+00  0.0000E+00  0.0000E+00  0.0000E+00  0.0000E+00  0.0000E+00  0.0000E+00  0.0000E+00  0.0000E+00  0.0000E+00  0.0000E+00  0.0000E+00  0.0000E+00  0.0000E+00  0.0000E+00  0.0000E+00  0.0000E+00
    -44.080  0.0000E+00  0.0000E+00  0.0000E+00  0.0000E+00  0.0000E+00  0.0000E+00  0.0000E+00  0.0000E+00  0.0000E+00  0.0000E+00  0.0000E+00  0.0000E+00  0.0000E+00  0.0000E+00  0.0000E+00  0.0000E+00  0.0000E+00  0.0000E+00
    -43.883  0.0000E+00  0.0000E+00  0.0000E+00  0.0000E+00  0.0000E+00  0.0000E+00  0.0000E+00  0.0000E+00  0.0000E+00  0.0000E+00  0.0000E+00  0.0000E+00  0.0000E+00  0.0000E+00  0.0000E+00  0.0000E+00  0.0000E+00  0.0000E+00
    -43.687  0.1579E-03  0.1577E-03  0.3649E-13  0.3665E-13  0.3649E-13  0.3665E-13  0.3685E-13  0.3699E-13  0.1887E-15  0.1951E-15  0.1761E-15  0.1962E-15  0.4659E-13  0.4980E-13  0.1887E-15  0.1951E-15  0.4581E-13  0.4915E-13
    -43.490  0.7865E-02  0.7852E-02  0.1817E-11  0.1825E-11  0.1817E-11  0.1825E-11  0.1835E-11  0.1842E-11  0.9399E-14  0.9714E-14  0.8770E-14  0.9771E-14  0.2320E-11  0.2480E-11  0.9399E-14  0.9714E-14  0.2282E-11  0.2448E-11
    -43.294  0.3702E+00  0.3697E+00  0.8554E-10  0.8592E-10  0.8554E-10  0.8592E-10  0.8639E-10  0.8673E-10  0.4425E-12  0.4573E-12  0.4129E-12  0.4600E-12  0.1092E-09  0.1168E-09  0.4425E-12  0.4573E-12  0.1074E-09  0.1152E-09
    -43.097  0.3688E+01  0.3687E+01  0.8518E-09  0.8567E-09  0.8518E-09  0.8567E-09  0.8603E-09  0.8648E-09  0.4414E-11  0.4562E-11  0.4117E-11  0.4589E-11  0.1089E-08  0.1165E-08  0.4414E-11  0.4562E-11  0.1070E-08  0.1149E-08
    -42.901  0.9640E+00  0.9653E+00  0.2226E-09  0.2242E-09  0.2226E-09  0.2242E-09  0.2248E-09  0.2263E-09  0.1156E-11  0.1194E-11  0.1077E-11  0.1201E-11  0.2847E-09  0.3051E-09  0.1156E-11  0.1194E-11  0.2796E-09  0.3008E-09
    -42.704  0.0000E+00  0.0000E+00  0.0000E+00  0.0000E+00  0.0000E+00  0.0000E+00  0.0000E+00  0.0000E+00  0.0000E+00  0.0000E+00  0.0000E+00  0.0000E+00  0.0000E+00  0.0000E+00  0.0000E+00  0.0000E+00  0.0000E+00  0.0000E+00
    -42.508  0.0000E+00  0.0000E+00  0.0000E+00  0.0000E+00  0.0000E+00  0.0000E+00  0.0000E+00  0.0000E+00  0.0000E+00  0.0000E+00  0.0000E+00  0.0000E+00  0.0000E+00  0.0000E+00  0.0000E+00  0.0000E+00  0.0000E+00  0.0000E+00
    -42.311  0.0000E+00  0.0000E+00  0.0000E+00  0.0000E+00  0.0000E+00  0.0000E+00  0.0000E+00  0.0000E+00  0.0000E+00  0.0000E+00  0.0000E+00  0.0000E+00  0.0000E+00  0.0000E+00  0.0000E+00  0.0000E+00  0.0000E+00  0.0000E+00
    -42.115  0.0000E+00  0.0000E+00  0.0000E+00  0.0000E+00  0.0000E+00  0.0000E+00  0.0000E+00  0.0000E+00  0.0000E+00  0.0000E+00  0.0000E+00  0.0000E+00  0.0000E+00  0.0000E+00  0.0000E+00  0.0000E+00  0.0000E+00  0.0000E+00
    -41.918  0.0000E+00  0.0000E+00  0.0000E+00  0.0000E+00  0.0000E+00  0.0000E+00  0.0000E+00  0.0000E+00  0.0000E+00  0.0000E+00  0.0000E+00  0.0000E+00  0.0000E+00  0.0000E+00  0.0000E+00  0.0000E+00  0.0000E+00  0.0000E+00
    -41.722  0.0000E+00  0.0000E+00  0.0000E+00  0.0000E+00  0.0000E+00  0.0000E+00  0.0000E+00  0.0000E+00  0.0000E+00  0.0000E+00  0.0000E+00  0.0000E+00  0.0000E+00  0.0000E+00  0.0000E+00  0.0000E+00  0.0000E+00  0.0000E+00
    -41.525  0.0000E+00  0.0000E+00  0.0000E+00  0.0000E+00  0.0000E+00  0.0000E+00  0.0000E+00  0.0000E+00  0.0000E+00  0.0000E+00  0.0000E+00  0.0000E+00  0.0000E+00  0.0000E+00  0.0000E+00  0.0000E+00  0.0000E+00  0.0000E+00
    -41.329  0.0000E+00  0.0000E+00  0.0000E+00  0.0000E+00  0.0000E+00  0.0000E+00  0.0000E+00  0.0000E+00  0.0000E+00  0.0000E+00  0.0000E+00  0.0000E+00  0.0000E+00  0.0000E+00  0.0000E+00  0.0000E+00  0.0000E+00  0.0000E+00
    -41.133  0.0000E+00  0.0000E+00  0.0000E+00  0.0000E+00  0.0000E+00  0.0000E+00  0.0000E+00  0.0000E+00  0.0000E+00  0.0000E+00  0.0000E+00  0.0000E+00  0.0000E+00  0.0000E+00  0.0000E+00  0.0000E+00  0.0000E+00  0.0000E+00
    -40.936  0.0000E+00  0.0000E+00  0.0000E+00  0.0000E+00  0.0000E+00  0.0000E+00  0.0000E+00  0.0000E+00  0.0000E+00  0.0000E+00  0.0000E+00  0.0000E+00  0.0000E+00  0.0000E+00  0.0000E+00  0.0000E+00  0.0000E+00  0.0000E+00
    -40.740  0.0000E+00  0.0000E+00  0.0000E+00  0.0000E+00  0.0000E+00  0.0000E+00  0.0000E+00  0.0000E+00  0.0000E+00  0.0000E+00  0.0000E+00  0.0000E+00  0.0000E+00  0.0000E+00  0.0000E+00  0.0000E+00  0.0000E+00  0.0000E+00
    -40.543  0.0000E+00  0.0000E+00  0.0000E+00  0.0000E+00  0.0000E+00  0.0000E+00  0.0000E+00  0.0000E+00  0.0000E+00  0.0000E+00  0.0000E+00  0.0000E+00  0.0000E+00  0.0000E+00  0.0000E+00  0.0000E+00  0.0000E+00  0.0000E+00
    -40.347  0.0000E+00  0.0000E+00  0.0000E+00  0.0000E+00  0.0000E+00  0.0000E+00  0.0000E+00  0.0000E+00  0.0000E+00  0.0000E+00  0.0000E+00  0.0000E+00  0.0000E+00  0.0000E+00  0.0000E+00  0.0000E+00  0.0000E+00  0.0000E+00
    -40.150  0.0000E+00  0.0000E+00  0.0000E+00  0.0000E+00  0.0000E+00  0.0000E+00  0.0000E+00  0.0000E+00  0.0000E+00  0.0000E+00  0.0000E+00  0.0000E+00  0.0000E+00  0.0000E+00  0.0000E+00  0.0000E+00  0.0000E+00  0.0000E+00
    -39.954  0.0000E+00  0.0000E+00  0.0000E+00  0.0000E+00  0.0000E+00  0.0000E+00  0.0000E+00  0.0000E+00  0.0000E+00  0.0000E+00  0.0000E+00  0.0000E+00  0.0000E+00  0.0000E+00  0.0000E+00  0.0000E+00  0.0000E+00  0.0000E+00
    -39.757  0.0000E+00  0.0000E+00  0.0000E+00  0.0000E+00  0.0000E+00  0.0000E+00  0.0000E+00  0.0000E+00  0.0000E+00  0.0000E+00  0.0000E+00  0.0000E+00  0.0000E+00  0.0000E+00  0.0000E+00  0.0000E+00  0.0000E+00  0.0000E+00
    -39.561  0.0000E+00  0.0000E+00  0.0000E+00  0.0000E+00  0.0000E+00  0.0000E+00  0.0000E+00  0.0000E+00  0.0000E+00  0.0000E+00  0.0000E+00  0.0000E+00  0.0000E+00  0.0000E+00  0.0000E+00  0.0000E+00  0.0000E+00  0.0000E+00
    -39.364  0.0000E+00  0.0000E+00  0.0000E+00  0.0000E+00  0.0000E+00  0.0000E+00  0.0000E+00  0.0000E+00  0.0000E+00  0.0000E+00  0.0000E+00  0.0000E+00  0.0000E+00  0.0000E+00  0.0000E+00  0.0000E+00  0.0000E+00  0.0000E+00
    -39.168  0.0000E+00  0.0000E+00  0.0000E+00  0.0000E+00  0.0000E+00  0.0000E+00  0.0000E+00  0.0000E+00  0.0000E+00  0.0000E+00  0.0000E+00  0.0000E+00  0.0000E+00  0.0000E+00  0.0000E+00  0.0000E+00  0.0000E+00  0.0000E+00
    -38.971  0.0000E+00  0.0000E+00  0.0000E+00  0.0000E+00  0.0000E+00  0.0000E+00  0.0000E+00  0.0000E+00  0.0000E+00  0.0000E+00  0.0000E+00  0.0000E+00  0.0000E+00  0.0000E+00  0.0000E+00  0.0000E+00  0.0000E+00  0.0000E+00
    -38.775  0.0000E+00  0.0000E+00  0.0000E+00  0.0000E+00  0.0000E+00  0.0000E+00  0.0000E+00  0.0000E+00  0.0000E+00  0.0000E+00  0.0000E+00  0.0000E+00  0.0000E+00  0.0000E+00  0.0000E+00  0.0000E+00  0.0000E+00  0.0000E+00
    -38.578  0.0000E+00  0.0000E+00  0.0000E+00  0.0000E+00  0.0000E+00  0.0000E+00  0.0000E+00  0.0000E+00  0.0000E+00  0.0000E+00  0.0000E+00  0.0000E+00  0.0000E+00  0.0000E+00  0.0000E+00  0.0000E+00  0.0000E+00  0.0000E+00
    -38.382  0.0000E+00  0.0000E+00  0.0000E+00  0.0000E+00  0.0000E+00  0.0000E+00  0.0000E+00  0.0000E+00  0.0000E+00  0.0000E+00  0.0000E+00  0.0000E+00  0.0000E+00  0.0000E+00  0.0000E+00  0.0000E+00  0.0000E+00  0.0000E+00
    -38.185  0.0000E+00  0.0000E+00  0.0000E+00  0.0000E+00  0.0000E+00  0.0000E+00  0.0000E+00  0.0000E+00  0.0000E+00  0.0000E+00  0.0000E+00  0.0000E+00  0.0000E+00  0.0000E+00  0.0000E+00  0.0000E+00  0.0000E+00  0.0000E+00
    -37.989  0.0000E+00  0.0000E+00  0.0000E+00  0.0000E+00  0.0000E+00  0.0000E+00  0.0000E+00  0.0000E+00  0.0000E+00  0.0000E+00  0.0000E+00  0.0000E+00  0.0000E+00  0.0000E+00  0.0000E+00  0.0000E+00  0.0000E+00  0.0000E+00
    -37.792  0.0000E+00  0.0000E+00  0.0000E+00  0.0000E+00  0.0000E+00  0.0000E+00  0.0000E+00  0.0000E+00  0.0000E+00  0.0000E+00  0.0000E+00  0.0000E+00  0.0000E+00  0.0000E+00  0.0000E+00  0.0000E+00  0.0000E+00  0.0000E+00
    -37.596  0.0000E+00  0.0000E+00  0.0000E+00  0.0000E+00  0.0000E+00  0.0000E+00  0.0000E+00  0.0000E+00  0.0000E+00  0.0000E+00  0.0000E+00  0.0000E+00  0.0000E+00  0.0000E+00  0.0000E+00  0.0000E+00  0.0000E+00  0.0000E+00
    -37.400  0.0000E+00  0.0000E+00  0.0000E+00  0.0000E+00  0.0000E+00  0.0000E+00  0.0000E+00  0.0000E+00  0.0000E+00  0.0000E+00  0.0000E+00  0.0000E+00  0.0000E+00  0.0000E+00  0.0000E+00  0.0000E+00  0.0000E+00  0.0000E+00
    -37.203  0.0000E+00  0.0000E+00  0.0000E+00  0.0000E+00  0.0000E+00  0.0000E+00  0.0000E+00  0.0000E+00  0.0000E+00  0.0000E+00  0.0000E+00  0.0000E+00  0.0000E+00  0.0000E+00  0.0000E+00  0.0000E+00  0.0000E+00  0.0000E+00
    -37.007  0.0000E+00  0.0000E+00  0.0000E+00  0.0000E+00  0.0000E+00  0.0000E+00  0.0000E+00  0.0000E+00  0.0000E+00  0.0000E+00  0.0000E+00  0.0000E+00  0.0000E+00  0.0000E+00  0.0000E+00  0.0000E+00  0.0000E+00  0.0000E+00
    -36.810  0.0000E+00  0.0000E+00  0.0000E+00  0.0000E+00  0.0000E+00  0.0000E+00  0.0000E+00  0.0000E+00  0.0000E+00  0.0000E+00  0.0000E+00  0.0000E+00  0.0000E+00  0.0000E+00  0.0000E+00  0.0000E+00  0.0000E+00  0.0000E+00
    -36.614  0.0000E+00  0.0000E+00  0.0000E+00  0.0000E+00  0.0000E+00  0.0000E+00  0.0000E+00  0.0000E+00  0.0000E+00  0.0000E+00  0.0000E+00  0.0000E+00  0.0000E+00  0.0000E+00  0.0000E+00  0.0000E+00  0.0000E+00  0.0000E+00
    -36.417  0.0000E+00  0.0000E+00  0.0000E+00  0.0000E+00  0.0000E+00  0.0000E+00  0.0000E+00  0.0000E+00  0.0000E+00  0.0000E+00  0.0000E+00  0.0000E+00  0.0000E+00  0.0000E+00  0.0000E+00  0.0000E+00  0.0000E+00  0.0000E+00
    -36.221  0.0000E+00  0.0000E+00  0.0000E+00  0.0000E+00  0.0000E+00  0.0000E+00  0.0000E+00  0.0000E+00  0.0000E+00  0.0000E+00  0.0000E+00  0.0000E+00  0.0000E+00  0.0000E+00  0.0000E+00  0.0000E+00  0.0000E+00  0.0000E+00
    -36.024  0.0000E+00  0.0000E+00  0.0000E+00  0.0000E+00  0.0000E+00  0.0000E+00  0.0000E+00  0.0000E+00  0.0000E+00  0.0000E+00  0.0000E+00  0.0000E+00  0.0000E+00  0.0000E+00  0.0000E+00  0.0000E+00  0.0000E+00  0.0000E+00