   4   4   1   0
  0.1834787E+02  0.4185865E-09  0.4187263E-09  0.4187263E-09  0.5000000E-15
  1.000000000000000E-004
  CAR 
 unknown system                          
     15.92370871    -43.31031212  301      8.43409699      1.00000000
    -43.310  0.0000E+00  0.0000E+00  0.0000E+00  0.0000E+00
    -43.113  0.0000E+00  0.0000E+00  0.0000E+00  0.0000E+00
    -42.915  0.0000E+00  0.0000E+00  0.0000E+00  0.0000E+00
    -42.718  0.0000E+00  0.0000E+00  0.0000E+00  0.0000E+00
    -42.521  0.0000E+00  0.0000E+00  0.0000E+00  0.0000E+00
    -42.323  0.0000E+00  0.0000E+00  0.0000E+00  0.0000E+00
    -42.126  0.0000E+00  0.0000E+00  0.0000E+00  0.0000E+00
    -41.928  0.0000E+00  0.0000E+00  0.0000E+00  0.0000E+00
    -41.731  0.0000E+00  0.0000E+00  0.0000E+00  0.0000E+00
    -41.533  0.0000E+00  0.0000E+00  0.0000E+00  0.0000E+00
    -41.336  0.0000E+00  0.0000E+00  0.0000E+00  0.0000E+00
    -41.138  0.1456E-03  0.1408E-03  0.2875E-04  0.2780E-04
    -40.941  0.7398E-02  0.7154E-02  0.1489E-02  0.1440E-02
    -40.744  0.3562E+00  0.3453E+00  0.7182E-01  0.6962E-01
    -40.546  0.3691E+01  0.3674E+01  0.8005E+00  0.7951E+00
    -40.349  0.9860E+00  0.1013E+01  0.9952E+00  0.9951E+00
    -40.151  0.0000E+00  0.0000E+00  0.1000E+01  0.1000E+01
    -39.954  0.0000E+00  0.0000E+00  0.1000E+01  0.1000E+01
    -39.756  0.0000E+00  0.0000E+00  0.1000E+01  0.1000E+01
    -39.559  0.0000E+00  0.0000E+00  0.1000E+01  0.1000E+01
    -39.361  0.0000E+00  0.0000E+00  0.1000E+01  0.1000E+01
    -39.164  0.0000E+00  0.0000E+00  0.1000E+01  0.1000E+01
    -38.966  0.0000E+00  0.0000E+00  0.1000E+01  0.1000E+01
    -38.769  0.0000E+00  0.0000E+00  0.1000E+01  0.1000E+01
    -38.572  0.0000E+00  0.0000E+00  0.1000E+01  0.1000E+01
    -38.374  0.0000E+00  0.0000E+00  0.1000E+01  0.1000E+01
    -38.177  0.0000E+00  0.0000E+00  0.1000E+01  0.1000E+01
    -37.979  0.0000E+00  0.0000E+00  0.1000E+01  0.1000E+01
    -37.782  0.0000E+00  0.0000E+00  0.1000E+01  0.1000E+01
    -37.584  0.0000E+00  0.0000E+00  0.1000E+01  0.1000E+01
    -37.387  0.0000E+00  0.0000E+00  0.1000E+01  0.1000E+01
    -37.189  0.0000E+00  0.0000E+00  0.1000E+01  0.1000E+01
    -36.992  0.0000E+00  0.0000E+00  0.1000E+01  0.1000E+01
    -36.795  0.0000E+00  0.0000E+00  0.1000E+01  0.1000E+01
    -36.597  0.0000E+00  0.0000E+00  0.1000E+01  0.1000E+01
    -36.400  0.0000E+00  0.0000E+00  0.1000E+01  0.1000E+01
    -36.202  0.0000E+00  0.0000E+00  0.1000E+01  0.1000E+01
    -36.005  0.0000E+00  0.0000E+00  0.1000E+01  0.1000E+01
    -35.807  0.0000E+00  0.0000E+00  0.1000E+01  0.1000E+01
    -35.610  0.0000E+00  0.0000E+00  0.1000E+01  0.1000E+01
    -35.412  0.0000E+00  0.0000E+00  0.1000E+01  0.1000E+01
    -35.215  0.0000E+00  0.0000E+00  0.1000E+01  0.1000E+01
    -35.018  0.0000E+00  0.0000E+00  0.1000E+01  0.1000E+01
    -34.820  0.0000E+00  0.0000E+00  0.1000E+01  0.1000E+01
    -34.623  0.0000E+00  0.0000E+00  0.1000E+01  0.1000E+01
    -34.425  0.0000E+00  0.0000E+00  0.1000E+01  0.1000E+01
    -34.228  0.0000E+00  0.0000E+00  0.1000E+01  0.1000E+01
    -34.030  0.0000E+00  0.0000E+00  0.1000E+01  0.1000E+01
    -33.833  0.0000E+00  0.0000E+00  0.1000E+01  0.1000E+01
    -33.635  0.0000E+00  0.0000E+00  0.1000E+01  0.1000E+01
    -33.438  0.0000E+00  0.0000E+00  0.1000E+01  0.1000E+01
    -33.241  0.0000E+00  0.0000E+00  0.1000E+01  0.1000E+01
    -33.043  0.0000E+00  0.0000E+00  0.1000E+01  0.1000E+01
    -32.846  0.0000E+00  0.0000E+00  0.1000E+01  0.1000E+01
    -32.648  0.0000E+00  0.0000E+00  0.1000E+01  0.1000E+01
    -32.451  0.0000E+00  0.0000E+00  0.1000E+01  0.1000E+01
    -32.253  0.0000E+00  0.0000E+00  0.1000E+01  0.1000E+01
    -32.056  0.0000E+00  0.0000E+00  0.1000E+01  0.1000E+01
    -31.858  0.0000E+00  0.0000E+00  0.1000E+01  0.1000E+01
    -31.661  0.0000E+00  0.0000E+00  0.1000E+01  0.1000E+01
    -31.464  0.0000E+00  0.0000E+00  0.1000E+01  0.1000E+01
    -31.266  0.0000E+00  0.0000E+00  0.1000E+01  0.1000E+01
    -31.069  0.0000E+00  0.0000E+00  0.1000E+01  0.1000E+01
    -30.871  0.0000E+00  0.0000E+00  0.1000E+01  0.1000E+01
    -30.674  0.0000E+00  0.0000E+00  0.1000E+01  0.1000E+01
    -30.476  0.0000E+00  0.0000E+00  0.1000E+01  0.1000E+01
    -30.279  0.0000E+00  0.0000E+00  0.1000E+01  0.1000E+01
    -30.081  0.0000E+00  0.0000E+00  0.1000E+01  0.1000E+01
    -29.884  0.0000E+00  0.0000E+00  0.1000E+01  0.1000E+01
    -29.686  0.0000E+00  0.0000E+00  0.1000E+01  0.1000E+01
    -29.489  0.0000E+00  0.0000E+00  0.1000E+01  0.1000E+01
    -29.292  0.0000E+00  0.0000E+00  0.1000E+01  0.1000E+01
    -29.094  0.0000E+00  0.0000E+00  0.1000E+01  0.1000E+01
    -28.897  0.0000E+00  0.0000E+00  0.1000E+01  0.1000E+01
    -28.699  0.0000E+00  0.0000E+00  0.1000E+01  0.1000E+01
    -28.502  0.0000E+00  0.0000E+00  0.1000E+01  0.1000E+01
    -28.304  0.0000E+00  0.0000E+00  0.1000E+01  0.1000E+01
    -28.107  0.0000E+00  0.0000E+00  0.1000E+01  0.1000E+01
    -27.909  0.0000E+00  0.0000E+00  0.1000E+01  0.1000E+01
    -27.712  0.0000E+00  0.0000E+00  0.1000E+01  0.1000E+01
    -27.515  0.0000E+00  0.0000E+00  0.1000E+01  0.1000E+01
    -27.317  0.0000E+00  0.0000E+00  0.1000E+01  0.1000E+01
    -27.120  0.0000E+00  0.0000E+00  0.1000E+01  0.1000E+01
    -26.922  0.0000E+00  0.0000E+00  0.1000E+01  0.1000E+01
    -26.725  0.0000E+00  0.0000E+00  0.1000E+01  0.1000E+01
    -26.527  0.0000E+00  0.0000E+00  0.1000E+01  0.1000E+01
    -26.330  0.0000E+00  0.0000E+00  0.1000E+01  0.1000E+01
    -26.132  0.0000E+00  0.0000E+00  0.1000E+01  0.1000E+01
    -25.935  0.0000E+00  0.0000E+00  0.1000E+01  0.1000E+01
    -25.738  0.0000E+00  0.0000E+00  0.1000E+01  0.1000E+01
    -25.540  0.0000E+00  0.0000E+00  0.1000E+01  0.1000E+01
    -25.343  0.0000E+00  0.0000E+00  0.1000E+01  0.1000E+01
    -25.145  0.0000E+00  0.0000E+00  0.1000E+01  0.1000E+01
    -24.948  0.0000E+00  0.0000E+00  0.1000E+01  0.1000E+01
    -24.750  0.0000E+00  0.0000E+00  0.1000E+01  0.1000E+01
    -24.553  0.0000E+00  0.0000E+00  0.1000E+01  0.1000E+01
    -24.355  0.0000E+00  0.0000E+00  0.1000E+01  0.1000E+01
    -24.158  0.0000E+00  0.0000E+00  0.1000E+01  0.1000E+01
    -23.961  0.0000E+00  0.0000E+00  0.1000E+01  0.1000E+01
    -23.763  0.0000E+00  0.0000E+00  0.1000E+01  0.1000E+01
    -23.566  0.0000E+00  0.0000E+00  0.1000E+01  0.1000E+01
    -23.368  0.0000E+00  0.0000E+00  0.1000E+01  0.1000E+01
    -23.171  0.0000E+00  0.0000E+00  0.1000E+01  0.1000E+01
    -22.973  0.0000E+00  0.0000E+00  0.1000E+01  0.1000E+01
    -22.776  0.0000E+00  0.0000E+00  0.1000E+01  0.1000E+01
    -22.578  0.0000E+00  0.0000E+00  0.1000E+01  0.1000E+01
    -22.381  0.0000E+00  0.0000E+00  0.1000E+01  0.1000E+01
    -22.184  0.0000E+00  0.0000E+00  0.1000E+01  0.1000E+01
    -21.986  0.0000E+00  0.0000E+00  0.1000E+01  0.1000E+01
    -21.789  0.0000E+00  0.0000E+00  0.1000E+01  0.1000E+01
    -21.591  0.0000E+00  0.0000E+00  0.1000E+01  0.1000E+01
    -21.394  0.0000E+00  0.0000E+00  0.1000E+01  0.1000E+01
    -21.196  0.0000E+00  0.0000E+00  0.1000E+01  0.1000E+01
    -20.999  0.0000E+00  0.0000E+00  0.1000E+01  0.1000E+01
    -20.801  0.0000E+00  0.0000E+00  0.1000E+01  0.1000E+01
    -20.604  0.0000E+00  0.0000E+00  0.1000E+01  0.1000E+01
    -20.406  0.0000E+00  0.0000E+00  0.1000E+01  0.1000E+01
    -20.209  0.0000E+00  0.0000E+00  0.1000E+01  0.1000E+01
    -20.012  0.0000E+00  0.0000E+00  0.1000E+01  0.1000E+01
    -19.814  0.0000E+00  0.0000E+00  0.1000E+01  0.1000E+01
    -19.617  0.0000E+00  0.0000E+00  0.1000E+01  0.1000E+01
    -19.419  0.0000E+00  0.0000E+00  0.1000E+01  0.1000E+01
    -19.222  0.6331E-03  0.6123E-03  0.1000E+01  0.1000E+01
    -19.024  0.3214E-01  0.3108E-01  0.1006E+01  0.1006E+01
    -18.827  0.1485E+01  0.1442E+01  0.1300E+01  0.1291E+01
    -18.629  0.1127E+02  0.1125E+02  0.3526E+01  0.3513E+01
    -18.432  0.2345E+01  0.2411E+01  0.3989E+01  0.3989E+01
    -18.235  0.0000E+00  0.0000E+00  0.4000E+01  0.4000E+01
    -18.037  0.0000E+00  0.0000E+00  0.4000E+01  0.4000E+01
    -17.840  0.0000E+00  0.0000E+00  0.4000E+01  0.4000E+01
    -17.642  0.0000E+00  0.0000E+00  0.4000E+01  0.4000E+01
    -17.445  0.0000E+00  0.0000E+00  0.4000E+01  0.4000E+01
    -17.247  0.0000E+00  0.0000E+00  0.4000E+01  0.4000E+01
    -17.050  0.0000E+00  0.0000E+00  0.4000E+01  0.4000E+01
    -16.852  0.0000E+00  0.0000E+00  0.4000E+01  0.4000E+01
    -16.655  0.0000E+00  0.0000E+00  0.4000E+01  0.4000E+01
    -16.458  0.0000E+00  0.0000E+00  0.4000E+01  0.4000E+01
    -16.260  0.0000E+00  0.0000E+00  0.4000E+01  0.4000E+01
    -16.063  0.0000E+00  0.0000E+00  0.4000E+01  0.4000E+01
    -15.865  0.0000E+00  0.0000E+00  0.4000E+01  0.4000E+01
    -15.668  0.0000E+00  0.0000E+00  0.4000E+01  0.4000E+01
    -15.470  0.0000E+00  0.0000E+00  0.4000E+01  0.4000E+01
    -15.273  0.0000E+00  0.0000E+00  0.4000E+01  0.4000E+01
    -15.075  0.0000E+00  0.0000E+00  0.4000E+01  0.4000E+01
    -14.878  0.0000E+00  0.0000E+00  0.4000E+01  0.4000E+01
    -14.681  0.0000E+00  0.0000E+00  0.4000E+01  0.4000E+01
    -14.483  0.0000E+00  0.0000E+00  0.4000E+01  0.4000E+01
    -14.286  0.0000E+00  0.0000E+00  0.4000E+01  0.4000E+01
    -14.088  0.0000E+00  0.0000E+00  0.4000E+01  0.4000E+01
    -13.891  0.0000E+00  0.0000E+00  0.4000E+01  0.4000E+01
    -13.693  0.0000E+00  0.0000E+00  0.4000E+01  0.4000E+01
    -13.496  0.0000E+00  0.0000E+00  0.4000E+01  0.4000E+01
    -13.298  0.0000E+00  0.0000E+00  0.4000E+01  0.4000E+01
    -13.101  0.0000E+00  0.0000E+00  0.4000E+01  0.4000E+01
    -12.904  0.0000E+00  0.0000E+00  0.4000E+01  0.4000E+01
    -12.706  0.0000E+00  0.0000E+00  0.4000E+01  0.4000E+01
    -12.509  0.0000E+00  0.0000E+00  0.4000E+01  0.4000E+01
    -12.311  0.0000E+00  0.0000E+00  0.4000E+01  0.4000E+01
    -12.114  0.0000E+00  0.0000E+00  0.4000E+01  0.4000E+01
    -11.916  0.0000E+00  0.0000E+00  0.4000E+01  0.4000E+01
    -11.719  0.0000E+00  0.0000E+00  0.4000E+01  0.4000E+01
    -11.521  0.0000E+00  0.0000E+00  0.4000E+01  0.4000E+01
    -11.324  0.0000E+00  0.0000E+00  0.4000E+01  0.4000E+01
    -11.126  0.0000E+00  0.0000E+00  0.4000E+01  0.4000E+01
    -10.929  0.0000E+00  0.0000E+00  0.4000E+01  0.4000E+01
    -10.732  0.0000E+00  0.0000E+00  0.4000E+01  0.4000E+01
    -10.534  0.0000E+00  0.0000E+00  0.4000E+01  0.4000E+01
    -10.337  0.0000E+00  0.0000E+00  0.4000E+01  0.4000E+01
    -10.139  0.0000E+00  0.0000E+00  0.4000E+01  0.4000E+01
     -9.942  0.0000E+00  0.0000E+00  0.4000E+01  0.4000E+01
     -9.744  0.0000E+00  0.0000E+00  0.4000E+01  0.4000E+01
     -9.547  0.0000E+00  0.0000E+00  0.4000E+01  0.4000E+01
     -9.349  0.0000E+00  0.0000E+00  0.4000E+01  0.4000E+01
     -9.152  0.0000E+00  0.0000E+00  0.4000E+01  0.4000E+01
     -8.955  0.0000E+00  0.0000E+00  0.4000E+01  0.4000E+01
     -8.757  0.0000E+00  0.0000E+00  0.4000E+01  0.4000E+01
     -8.560  0.0000E+00  0.0000E+00  0.4000E+01  0.4000E+01
     -8.362  0.0000E+00  0.0000E+00  0.4000E+01  0.4000E+01
     -8.165  0.0000E+00  0.0000E+00  0.4000E+01  0.4000E+01
     -7.967  0.0000E+00  0.0000E+00  0.4000E+01  0.4000E+01
     -7.770  0.0000E+00  0.0000E+00  0.4000E+01  0.4000E+01
     -7.572  0.0000E+00  0.0000E+00  0.4000E+01  0.4000E+01
     -7.375  0.0000E+00  0.0000E+00  0.4000E+01  0.4000E+01
     -7.178  0.0000E+00  0.0000E+00  0.4000E+01  0.4000E+01
     -6.980  0.0000E+00  0.0000E+00  0.4000E+01  0.4000E+01
     -6.783  0.0000E+00  0.0000E+00  0.4000E+01  0.4000E+01
     -6.585  0.0000E+00  0.0000E+00  0.4000E+01  0.4000E+01
     -6.388  0.0000E+00  0.0000E+00  0.4000E+01  0.4000E+01
     -6.190  0.0000E+00  0.0000E+00  0.4000E+01  0.4000E+01
     -5.993  0.0000E+00  0.0000E+00  0.4000E+01  0.4000E+01
     -5.795  0.0000E+00  0.0000E+00  0.4000E+01  0.4000E+01
     -5.598  0.0000E+00  0.0000E+00  0.4000E+01  0.4000E+01
     -5.401  0.0000E+00  0.0000E+00  0.4000E+01  0.4000E+01
     -5.203  0.0000E+00  0.0000E+00  0.4000E+01  0.4000E+01
     -5.006  0.0000E+00  0.0000E+00  0.4000E+01  0.4000E+01
     -4.808  0.0000E+00  0.0000E+00  0.4000E+01  0.4000E+01
     -4.611  0.0000E+00  0.0000E+00  0.4000E+01  0.4000E+01
     -4.413  0.0000E+00  0.0000E+00  0.4000E+01  0.4000E+01
     -4.216  0.0000E+00  0.0000E+00  0.4000E+01  0.4000E+01
     -4.018  0.0000E+00  0.0000E+00  0.4000E+01  0.4000E+01
     -3.821  0.0000E+00  0.0000E+00  0.4000E+01  0.4000E+01
     -3.624  0.0000E+00  0.0000E+00  0.4000E+01  0.4000E+01
     -3.426  0.0000E+00  0.0000E+00  0.4000E+01  0.4000E+01
     -3.229  0.0000E+00  0.0000E+00  0.4000E+01  0.4000E+01
     -3.031  0.0000E+00  0.0000E+00  0.4000E+01  0.4000E+01
     -2.834  0.0000E+00  0.0000E+00  0.4000E+01  0.4000E+01
     -2.636  0.0000E+00  0.0000E+00  0.4000E+01  0.4000E+01
     -2.439  0.0000E+00  0.0000E+00  0.4000E+01  0.4000E+01
     -2.241  0.0000E+00  0.0000E+00  0.4000E+01  0.4000E+01
     -2.044  0.2127E-06  0.2127E-06  0.4000E+01  0.4000E+01
     -1.846  0.1750E-04  0.1750E-04  0.4000E+01  0.4000E+01
     -1.649  0.8815E-03  0.8817E-03  0.4000E+01  0.4000E+01
     -1.452  0.2274E-01  0.2275E-01  0.4005E+01  0.4005E+01
     -1.254  0.8859E-01  0.8859E-01  0.4022E+01  0.4022E+01
     -1.057  0.1331E+00  0.1331E+00  0.4048E+01  0.4048E+01
     -0.859  0.1819E+00  0.1819E+00  0.4084E+01  0.4084E+01
     -0.662  0.1968E+00  0.1968E+00  0.4123E+01  0.4123E+01
     -0.464  0.2606E+00  0.2606E+00  0.4175E+01  0.4175E+01
     -0.267  0.2423E+00  0.2423E+00  0.4223E+01  0.4223E+01
     -0.069  0.3286E+00  0.3286E+00  0.4288E+01  0.4288E+01
      0.128  0.3216E+00  0.3216E+00  0.4352E+01  0.4352E+01
      0.325  0.3902E+00  0.3902E+00  0.4429E+01  0.4429E+01
      0.523  0.4411E+00  0.4411E+00  0.4516E+01  0.4516E+01
      0.720  0.4642E+00  0.4642E+00  0.4608E+01  0.4608E+01
      0.918  0.4054E+00  0.4053E+00  0.4689E+01  0.4689E+01
      1.115  0.3875E+00  0.3876E+00  0.4766E+01  0.4766E+01
      1.313  0.4933E+00  0.4933E+00  0.4864E+01  0.4864E+01
      1.510  0.4356E+00  0.4356E+00  0.4950E+01  0.4950E+01
      1.708  0.3920E+00  0.3921E+00  0.5027E+01  0.5027E+01
      1.905  0.4163E+00  0.4162E+00  0.5110E+01  0.5110E+01
      2.102  0.4638E+00  0.4638E+00  0.5202E+01  0.5202E+01
      2.300  0.4228E+00  0.4228E+00  0.5285E+01  0.5285E+01
      2.497  0.5074E+00  0.5073E+00  0.5386E+01  0.5386E+01
      2.695  0.6413E+00  0.6412E+00  0.5513E+01  0.5513E+01
      2.892  0.7971E+00  0.7969E+00  0.5670E+01  0.5670E+01
      3.090  0.8689E+00  0.8689E+00  0.5842E+01  0.5842E+01
      3.287  0.8626E+00  0.8625E+00  0.6014E+01  0.6013E+01
      3.485  0.7303E+00  0.7304E+00  0.6158E+01  0.6158E+01
      3.682  0.6853E+00  0.6853E+00  0.6294E+01  0.6294E+01
      3.879  0.6344E+00  0.6345E+00  0.6420E+01  0.6420E+01
      4.077  0.4990E+00  0.4990E+00  0.6519E+01  0.6519E+01
      4.274  0.5876E+00  0.5876E+00  0.6635E+01  0.6635E+01
      4.472  0.6854E+00  0.6854E+00  0.6771E+01  0.6771E+01
      4.669  0.6629E+00  0.6628E+00  0.6902E+01  0.6902E+01
      4.867  0.7483E+00  0.7482E+00  0.7051E+01  0.7051E+01
      5.064  0.9446E+00  0.9446E+00  0.7238E+01  0.7238E+01
      5.262  0.7442E+00  0.7443E+00  0.7386E+01  0.7386E+01
      5.459  0.8817E+00  0.8815E+00  0.7561E+01  0.7561E+01
      5.656  0.1215E+01  0.1215E+01  0.7802E+01  0.7802E+01
      5.854  0.1629E+01  0.1629E+01  0.8124E+01  0.8124E+01
      6.051  0.1670E+01  0.1670E+01  0.8455E+01  0.8454E+01
      6.249  0.1718E+01  0.1718E+01  0.8795E+01  0.8795E+01
      6.446  0.1372E+01  0.1373E+01  0.9068E+01  0.9067E+01
      6.644  0.1097E+01  0.1097E+01  0.9286E+01  0.9286E+01
      6.841  0.7841E+00  0.7844E+00  0.9442E+01  0.9442E+01
      7.039  0.7639E+00  0.7638E+00  0.9594E+01  0.9593E+01
      7.236  0.6838E+00  0.6838E+00  0.9729E+01  0.9729E+01
      7.433  0.6274E+00  0.6277E+00  0.9853E+01  0.9853E+01
      7.631  0.6106E+00  0.6102E+00  0.9974E+01  0.9974E+01
      7.828  0.6058E+00  0.6064E+00  0.1009E+02  0.1009E+02
      8.026  0.4182E+00  0.4178E+00  0.1018E+02  0.1018E+02
      8.223  0.6716E+00  0.6715E+00  0.1031E+02  0.1031E+02
      8.421  0.8881E+00  0.8876E+00  0.1049E+02  0.1049E+02
      8.618  0.9638E+00  0.9636E+00  0.1068E+02  0.1068E+02
      8.816  0.1280E+01  0.1280E+01  0.1093E+02  0.1093E+02
      9.013  0.1088E+01  0.1088E+01  0.1115E+02  0.1115E+02
      9.211  0.1134E+01  0.1133E+01  0.1137E+02  0.1137E+02
      9.408  0.1395E+01  0.1394E+01  0.1165E+02  0.1165E+02
      9.605  0.1364E+01  0.1364E+01  0.1192E+02  0.1192E+02
      9.803  0.1807E+01  0.1805E+01  0.1228E+02  0.1228E+02
     10.000  0.2127E+01  0.2126E+01  0.1270E+02  0.1270E+02
     10.198  0.1651E+01  0.1652E+01  0.1303E+02  0.1302E+02
     10.395  0.1506E+01  0.1507E+01  0.1333E+02  0.1332E+02
     10.593  0.1351E+01  0.1352E+01  0.1359E+02  0.1359E+02
     10.790  0.1190E+01  0.1189E+01  0.1383E+02  0.1383E+02
     10.988  0.1203E+01  0.1204E+01  0.1407E+02  0.1407E+02
     11.185  0.1212E+01  0.1212E+01  0.1431E+02  0.1431E+02
     11.382  0.1356E+01  0.1357E+01  0.1458E+02  0.1458E+02
     11.580  0.1304E+01  0.1307E+01  0.1484E+02  0.1484E+02
     11.777  0.1117E+01  0.1141E+01  0.1506E+02  0.1506E+02
     11.975  0.1321E+01  0.1311E+01  0.1532E+02  0.1532E+02
     12.172  0.1384E+01  0.1363E+01  0.1559E+02  0.1559E+02
     12.370  0.1329E+01  0.1353E+01  0.1586E+02  0.1586E+02
     12.567  0.4601E+00  0.4470E+00  0.1595E+02  0.1595E+02
     12.765  0.1467E+00  0.1451E+00  0.1598E+02  0.1598E+02
     12.962  0.6731E-01  0.6259E-01  0.1599E+02  0.1599E+02
     13.159  0.1626E-01  0.1622E-01  0.1600E+02  0.1600E+02
     13.357  0.1772E-01  0.1781E-01  0.1600E+02  0.1600E+02
     13.554  0.1327E-02  0.1341E-02  0.1600E+02  0.1600E+02
     13.752  0.0000E+00  0.0000E+00  0.1600E+02  0.1600E+02
     13.949  0.0000E+00  0.0000E+00  0.1600E+02  0.1600E+02
     14.147  0.0000E+00  0.0000E+00  0.1600E+02  0.1600E+02
     14.344  0.0000E+00  0.0000E+00  0.1600E+02  0.1600E+02
     14.542  0.0000E+00  0.0000E+00  0.1600E+02  0.1600E+02
     14.739  0.0000E+00  0.0000E+00  0.1600E+02  0.1600E+02
     14.936  0.0000E+00  0.0000E+00  0.1600E+02  0.1600E+02
     15.134  0.0000E+00  0.0000E+00  0.1600E+02  0.1600E+02
     15.331  0.0000E+00  0.0000E+00  0.1600E+02  0.1600E+02
     15.529  0.0000E+00  0.0000E+00  0.1600E+02  0.1600E+02
     15.726  0.0000E+00  0.0000E+00  0.1600E+02  0.1600E+02
     15.924  0.0000E+00  0.0000E+00  0.1600E+02  0.1600E+02
     15.92370871    -43.31031212  301      8.43409699      1.00000000
    -43.310  0.0000E+00  0.0000E+00  0.0000E+00  0.0000E+00  0.0000E+00  0.0000E+00  0.0000E+00  0.0000E+00  0.0000E+00  0.0000E+00  0.0000E+00  0.0000E+00  0.0000E+00  0.0000E+00  0.0000E+00  0.0000E+00  0.0000E+00  0.0000E+00
    -43.113  0.0000E+00  0.0000E+00  0.0000E+00  0.0000E+00  0.0000E+00  0.0000E+00  0.0000E+00  0.0000E+00  0.0000E+00  0.0000E+00  0.0000E+00  0.0000E+00  0.0000E+00  0.0000E+00  0.0000E+00  0.0000E+00  0.0000E+00  0.0000E+00
    -42.915  0.0000E+00  0.0000E+00  0.0000E+00  0.0000E+00  0.0000E+00  0.0000E+00  0.0000E+00  0.0000E+00  0.0000E+00  0.0000E+00  0.0000E+00  0.0000E+00  0.0000E+00  0.0000E+00  0.0000E+00  0.0000E+00  0.0000E+00  0.0000E+00
    -42.718  0.0000E+00  0.0000E+00  0.0000E+00  0.0000E+00  0.0000E+00  0.0000E+00  0.0000E+00  0.0000E+00  0.0000E+00  0.0000E+00  0.0000E+00  0.0000E+00  0.0000E+00  0.0000E+00  0.0000E+00  0.0000E+00  0.0000E+00  0.0000E+00
    -42.521  0.0000E+00  0.0000E+00  0.0000E+00  0.0000E+00  0.0000E+00  0.0000E+00  0.0000E+00  0.0000E+00  0.0000E+00  0.0000E+00  0.0000E+00  0.0000E+00  0.0000E+00  0.0000E+00  0.0000E+00  0.0000E+00  0.0000E+00  0.0000E+00
    -42.323  0.0000E+00  0.0000E+00  0.0000E+00  0.0000E+00  0.0000E+00  0.0000E+00  0.0000E+00  0.0000E+00  0.0000E+00  0.0000E+00  0.0000E+00  0.0000E+00  0.0000E+00  0.0000E+00  0.0000E+00  0.0000E+00  0.0000E+00  0.0000E+00
    -42.126  0.0000E+00  0.0000E+00  0.0000E+00  0.0000E+00  0.0000E+00  0.0000E+00  0.0000E+00  0.0000E+00  0.0000E+00  0.0000E+00  0.0000E+00  0.0000E+00  0.0000E+00  0.0000E+00  0.0000E+00  0.0000E+00  0.0000E+00  0.0000E+00
    -41.928  0.0000E+00  0.0000E+00  0.0000E+00  0.0000E+00  0.0000E+00  0.0000E+00  0.0000E+00  0.0000E+00  0.0000E+00  0.0000E+00  0.0000E+00  0.0000E+00  0.0000E+00  0.0000E+00  0.0000E+00  0.0000E+00  0.0000E+00  0.0000E+00
    -41.731  0.0000E+00  0.0000E+00  0.0000E+00  0.0000E+00  0.0000E+00  0.0000E+00  0.0000E+00  0.0000E+00  0.0000E+00  0.0000E+00  0.0000E+00  0.0000E+00  0.0000E+00  0.0000E+00  0.0000E+00  0.0000E+00  0.0000E+00  0.0000E+00
    -41.533  0.0000E+00  0.0000E+00  0.0000E+00  0.0000E+00  0.0000E+00  0.0000E+00  0.0000E+00  0.0000E+00  0.0000E+00  0.0000E+00  0.0000E+00  0.0000E+00  0.0000E+00  0.0000E+00  0.0000E+00  0.0000E+00  0.0000E+00  0.0000E+00
    -41.336  0.0000E+00  0.0000E+00  0.0000E+00  0.0000E+00  0.0000E+00  0.0000E+00  0.0000E+00  0.0000E+00  0.0000E+00  0.0000E+00  0.0000E+00  0.0000E+00  0.0000E+00  0.0000E+00  0.0000E+00  0.0000E+00  0.0000E+00  0.0000E+00
    -41.138  0.1445E-03  0.1398E-03  0.3798E-12  0.3447E-12  0.3798E-12  0.3447E-12  0.3834E-12  0.3482E-12  0.6146E-15  0.1353E-14  0.6206E-15  0.1351E-14  0.4070E-12  0.3954E-12  0.6146E-15  0.1353E-14  0.4114E-12  0.3985E-12
    -40.941  0.7344E-02  0.7102E-02  0.1929E-10  0.1751E-10  0.1929E-10  0.1751E-10  0.1948E-10  0.1769E-10  0.3122E-13  0.6873E-13  0.3153E-13  0.6863E-13  0.2068E-10  0.2009E-10  0.3122E-13  0.6873E-13  0.2090E-10  0.2025E-10
    -40.744  0.3536E+00  0.3428E+00  0.9290E-09  0.8454E-09  0.9290E-09  0.8454E-09  0.9380E-09  0.8539E-09  0.1504E-11  0.3319E-11  0.1519E-11  0.3315E-11  0.9957E-09  0.9697E-09  0.1504E-11  0.3319E-11  0.1006E-08  0.9772E-09
    -40.546  0.3664E+01  0.3648E+01  0.9619E-08  0.8992E-08  0.9619E-08  0.8992E-08  0.9712E-08  0.9083E-08  0.1569E-10  0.3555E-10  0.1585E-10  0.3550E-10  0.1032E-07  0.1033E-07  0.1569E-10  0.3555E-10  0.1042E-07  0.1039E-07
    -40.349  0.9788E+00  0.1005E+01  0.2568E-08  0.2477E-08  0.2568E-08  0.2477E-08  0.2593E-08  0.2502E-08  0.4222E-11  0.9870E-11  0.4269E-11  0.9856E-11  0.2759E-08  0.2848E-08  0.4222E-11  0.9870E-11  0.2781E-08  0.2861E-08
    -40.151  0.0000E+00  0.0000E+00  0.0000E+00  0.0000E+00  0.0000E+00  0.0000E+00  0.0000E+00  0.0000E+00  0.0000E+00  0.0000E+00  0.0000E+00  0.0000E+00  0.0000E+00  0.0000E+00  0.0000E+00  0.0000E+00  0.0000E+00  0.0000E+00
    -39.954  0.0000E+00  0.0000E+00  0.0000E+00  0.0000E+00  0.0000E+00  0.0000E+00  0.0000E+00  0.0000E+00  0.0000E+00  0.0000E+00  0.0000E+00  0.0000E+00  0.0000E+00  0.0000E+00  0.0000E+00  0.0000E+00  0.0000E+00  0.0000E+00
    -39.756  0.0000E+00  0.0000E+00  0.0000E+00  0.0000E+00  0.0000E+00  0.0000E+00  0.0000E+00  0.0000E+00  0.0000E+00  0.0000E+00  0.0000E+00  0.0000E+00  0.0000E+00  0.0000E+00  0.0000E+00  0.0000E+00  0.0000E+00  0.0000E+00
    -39.559  0.0000E+00  0.0000E+00  0.0000E+00  0.0000E+00  0.0000E+00  0.0000E+00  0.0000E+00  0.0000E+00  0.0000E+00  0.0000E+00  0.0000E+00  0.0000E+00  0.0000E+00  0.0000E+00  0.0000E+00  0.0000E+00  0.0000E+00  0.0000E+00
    -39.361  0.0000E+00  0.0000E+00  0.0000E+00  0.0000E+00  0.0000E+00  0.0000E+00  0.0000E+00  0.0000E+00  0.0000E+00  0.0000E+00  0.0000E+00  0.0000E+00  0.0000E+00  0.0000E+00  0.0000E+00  0.0000E+00  0.0000E+00  0.0000E+00
    -39.164  0.0000E+00  0.0000E+00  0.0000E+00  0.0000E+00  0.0000E+00  0.0000E+00  0.0000E+00  0.0000E+00  0.0000E+00  0.0000E+00  0.0000E+00  0.0000E+00  0.0000E+00  0.0000E+00  0.0000E+00  0.0000E+00  0.0000E+00  0.0000E+00
    -38.966  0.0000E+00  0.0000E+00  0.0000E+00  0.0000E+00  0.0000E+00  0.0000E+00  0.0000E+00  0.0000E+00  0.0000E+00  0.0000E+00  0.0000E+00  0.0000E+00  0.0000E+00  0.0000E+00  0.0000E+00  0.0000E+00  0.0000E+00  0.0000E+00
    -38.769  0.0000E+00  0.0000E+00  0.0000E+00  0.0000E+00  0.0000E+00  0.0000E+00  0.0000E+00  0.0000E+00  0.0000E+00  0.0000E+00  0.0000E+00  0.0000E+00  0.0000E+00  0.0000E+00  0.0000E+00  0.0000E+00  0.0000E+00  0.0000E+00
    -38.572  0.0000E+00  0.0000E+00  0.0000E+00  0.0000E+00  0.0000E+00  0.0000E+00  0.0000E+00  0.0000E+00  0.0000E+00  0.0000E+00  0.0000E+00  0.0000E+00  0.0000E+00  0.0000E+00  0.0000E+00  0.0000E+00  0.0000E+00  0.0000E+00
    -38.374  0.0000E+00  0.0000E+00  0.0000E+00  0.0000E+00  0.0000E+00  0.0000E+00  0.0000E+00  0.0000E+00  0.0000E+00  0.0000E+00  0.0000E+00  0.0000E+00  0.0000E+00  0.0000E+00  0.0000E+00  0.0000E+00  0.0000E+00  0.0000E+00
    -38.177  0.0000E+00  0.0000E+00  0.0000E+00  0.0000E+00  0.0000E+00  0.0000E+00  0.0000E+00  0.0000E+00  0.0000E+00  0.0000E+00  0.0000E+00  0.0000E+00  0.0000E+00  0.0000E+00  0.0000E+00  0.0000E+00  0.0000E+00  0.0000E+00
    -37.979  0.0000E+00  0.0000E+00  0.0000E+00  0.0000E+00  0.0000E+00  0.0000E+00  0.0000E+00  0.0000E+00  0.0000E+00  0.0000E+00  0.0000E+00  0.0000E+00  0.0000E+00  0.0000E+00  0.0000E+00  0.0000E+00  0.0000E+00  0.0000E+00
    -37.782  0.0000E+00  0.0000E+00  0.0000E+00  0.0000E+00  0.0000E+00  0.0000E+00  0.0000E+00  0.0000E+00  0.0000E+00  0.0000E+00  0.0000E+00  0.0000E+00  0.0000E+00  0.0000E+00  0.0000E+00  0.0000E+00  0.0000E+00  0.0000E+00
    -37.584  0.0000E+00  0.0000E+00  0.0000E+00  0.0000E+00  0.0000E+00  0.0000E+00  0.0000E+00  0.0000E+00  0.0000E+00  0.0000E+00  0.0000E+00  0.0000E+00  0.0000E+00  0.0000E+00  0.0000E+00  0.0000E+00  0.0000E+00  0.0000E+00
    -37.387  0.0000E+00  0.0000E+00  0.0000E+00  0.0000E+00  0.0000E+00  0.0000E+00  0.0000E+00  0.0000E+00  0.0000E+00  0.0000E+00  0.0000E+00  0.0000E+00  0.0000E+00  0.0000E+00  0.0000E+00  0.0000E+00  0.0000E+00  0.0000E+00
    -37.189  0.0000E+00  0.0000E+00  0.0000E+00  0.0000E+00  0.0000E+00  0.0000E+00  0.0000E+00  0.0000E+00  0.0000E+00  0.0000E+00  0.0000E+00  0.0000E+00  0.0000E+00  0.0000E+00  0.0000E+00  0.0000E+00  0.0000E+00  0.0000E+00
    -36.992  0.0000E+00  0.0000E+00  0.0000E+00  0.0000E+00  0.0000E+00  0.0000E+00  0.0000E+00  0.0000E+00  0.0000E+00  0.0000E+00  0.0000E+00  0.0000E+00  0.0000E+00  0.0000E+00  0.0000E+00  0.0000E+00  0.0000E+00  0.0000E+00
    -36.795  0.0000E+00  0.0000E+00  0.0000E+00  0.0000E+00  0.0000E+00  0.0000E+00  0.0000E+00  0.0000E+00  0.0000E+00  0.0000E+00  0.0000E+00  0.0000E+00  0.0000E+00  0.0000E+00  0.0000E+00  0.0000E+00  0.0000E+00  0.0000E+00
    -36.597  0.0000E+00  0.0000E+00  0.0000E+00  0.0000E+00  0.0000E+00  0.0000E+00  0.0000E+00  0.0000E+00  0.0000E+00  0.0000E+00  0.0000E+00  0.0000E+00  0.0000E+00  0.0000E+00  0.0000E+00  0.0000E+00  0.0000E+00  0.0000E+00
    -36.400  0.0000E+00  0.0000E+00  0.0000E+00  0.0000E+00  0.0000E+00  0.0000E+00  0.0000E+00  0.0000E+00  0.0000E+00  0.0000E+00  0.0000E+00  0.0000E+00  0.0000E+00  0.0000E+00  0.0000E+00  0.0000E+00  0.0000E+00  0.0000E+00
    -36.202  0.0000E+00  0.0000E+00  0.0000E+00  0.0000E+00  0.0000E+00  0.0000E+00  0.0000E+00  0.0000E+00  0.0000E+00  0.0000E+00  0.0000E+00  0.0000E+00  0.0000E+00  0.0000E+00  0.0000E+00  0.0000E+00  0.0000E+00  0.0000E+00
    -36.005  0.0000E+00  0.0000E+00  0.0000E+00  0.0000E+00  0.0000E+00  0.0000E+00  0.0000E+00  0.0000E+00  0.0000E+00  0.0000E+00  0.0000E+00  0.0000E+00  0.0000E+00  0.0000E+00  0.0000E+00  0.0000E+00  0.0000E+00  0.0000E+00
    -35.807  0.0000E+00  0.0000E+00  0.0000E+00  0.0000E+00  0.0000E+00  0.0000E+00  0.0000E+00  0.0000E+00  0.0000E+00  0.0000E+00  0.0000E+00  0.0000E+00  0.0000E+00  0.0000E+00  0.0000E+00  0.0000E+00  0.0000E+00  0.0000E+00
    -35.610  0.0000E+00  0.0000E+00  0.0000E+00  0.0000E+00  0.0000E+00  0.0000E+00  0.0000E+00  0.0000E+00  0.0000E+00  0.0000E+00  0.0000E+00  0.0000E+00  0.0000E+00  0.0000E+00  0.0000E+00  0.0000E+00  0.0000E+00  0.0000E+00
    -35.412  0.0000E+00  0.0000E+00  0.0000E+00  0.0000E+00  0.0000E+00  0.0000E+00  0.0000E+00  0.0000E+00  0.0000E+00  0.0000E+00  0.0000E+00  0.0000E+00  0.0000E+00  0.0000E+00  0.0000E+00  0.0000E+00  0.0000E+00  0.0000E+00
    -35.215  0.0000E+00  0.0000E+00  0.0000E+00  0.0000E+00  0.0000E+00  0.0000E+00  0.0000E+00  0.0000E+00  0.0000E+00  0.0000E+00  0.0000E+00  0.0000E+00  0.0000E+00  0.0000E+00  0.0000E+00  0.0000E+00  0.0000E+00  0.0000E+00
    -35.018  0.0000E+00  0.0000E+00  0.0000E+00  0.0000E+00  0.0000E+00  0.0000E+00  0.0000E+00  0.0000E+00  0.0000E+00  0.0000E+00  0.0000E+00  0.0000E+00  0.0000E+00  0.0000E+00  0.0000E+00  0.0000E+00  0.0000E+00  0.0000E+00
    -34.820  0.0000E+00  0.0000E+00  0.0000E+00  0.0000E+00  0.0000E+00  0.0000E+00  0.0000E+00  0.0000E+00  0.0000E+00  0.0000E+00  0.0000E+00  0.0000E+00  0.0000E+00  0.0000E+00  0.0000E+00  0.0000E+00  0.0000E+00  0.0000E+00
    -34.623  0.0000E+00  0.0000E+00  0.0000E+00  0.0000E+00  0.0000E+00  0.0000E+00  0.0000E+00  0.0000E+00  0.0000E+00  0.0000E+00  0.0000E+00  0.0000E+00  0.0000E+00  0.0000E+00  0.0000E+00  0.0000E+00  0.0000E+00  0.0000E+00
    -34.425  0.0000E+00  0.0000E+00  0.0000E+00  0.0000E+00  0.0000E+00  0.0000E+00  0.0000E+00  0.0000E+00  0.0000E+00  0.0000E+00  0.0000E+00  0.0000E+00  0.0000E+00  0.0000E+00  0.0000E+00  0.0000E+00  0.0000E+00  0.0000E+00
    -34.228  0.0000E+00  0.0000E+00  0.0000E+00  0.0000E+00  0.0000E+00  0.0000E+00  0.0000E+00  0.0000E+00  0.0000E+00  0.0000E+00  0.0000E+00  0.0000E+00  0.0000E+00  0.0000E+00  0.0000E+00  0.0000E+00  0.0000E+00  0.0000E+00
    -34.030  0.0000E+00  0.0000E+00  0.0000E+00  0.0000E+00  0.0000E+00  0.0000E+00  0.0000E+00  0.0000E+00  0.0000E+00  0.0000E+00  0.0000E+00  0.0000E+00  0.0000E+00  0.0000E+00  0.0000E+00  0.0000E+00  0.0000E+00  0.0000E+00
    -33.833  0.0000E+00  0.0000E+00  0.0000E+00  0.0000E+00  0.0000E+00  0.0000E+00  0.0000E+00  0.0000E+00  0.0000E+00  0.0000E+00  0.0000E+00  0.0000E+00  0.0000E+00  0.0000E+00  0.0000E+00  0.0000E+00  0.0000E+00  0.0000E+00
    -33.635  0.0000E+00  0.0000E+00  0.0000E+00  0.0000E+00  0.0000E+00  0.0000E+00  0.0000E+00  0.0000E+00  0.0000E+00  0.0000E+00  0.0000E+00  0.0000E+00  0.0000E+00  0.0000E+00  0.0000E+00  0.0000E+00  0.0000E+00  0.0000E+00
    -33.438  0.0000E+00  0.0000E+00  0.0000E+00  0.0000E+00  0.0000E+00  0.0000E+00  0.0000E+00  0.0000E+00  0.0000E+00  0.0000E+00  0.0000E+00  0.0000E+00  0.0000E+00  0.0000E+00  0.0000E+00  0.0000E+00  0.0000E+00  0.0000E+00