   4   4   1   0
  0.2118052E+02  0.4391055E-09  0.4392521E-09  0.4392521E-09  0.5000000E-15
  1.000000000000000E-004
  CAR 
 unknown system                          
     13.92965823    -45.17717602  301      6.97581767      1.00000000
    -45.177  0.0000E+00  0.0000E+00  0.0000E+00  0.0000E+00
    -44.980  0.0000E+00  0.0000E+00  0.0000E+00  0.0000E+00
    -44.783  0.0000E+00  0.0000E+00  0.0000E+00  0.0000E+00
    -44.586  0.0000E+00  0.0000E+00  0.0000E+00  0.0000E+00
    -44.389  0.0000E+00  0.0000E+00  0.0000E+00  0.0000E+00
    -44.192  0.0000E+00  0.0000E+00  0.0000E+00  0.0000E+00
    -43.995  0.0000E+00  0.0000E+00  0.0000E+00  0.0000E+00
    -43.798  0.0000E+00  0.0000E+00  0.0000E+00  0.0000E+00
    -43.601  0.0000E+00  0.0000E+00  0.0000E+00  0.0000E+00
    -43.404  0.0000E+00  0.0000E+00  0.0000E+00  0.0000E+00
    -43.207  0.0000E+00  0.0000E+00  0.0000E+00  0.0000E+00
    -43.010  0.1532E-03  0.1531E-03  0.3019E-04  0.3017E-04
    -42.813  0.7717E-02  0.7711E-02  0.1551E-02  0.1549E-02
    -42.616  0.3676E+00  0.3674E+00  0.7398E-01  0.7393E-01
    -42.419  0.3707E+01  0.3706E+01  0.8043E+00  0.8042E+00
    -42.222  0.9695E+00  0.9700E+00  0.9953E+00  0.9953E+00
    -42.025  0.0000E+00  0.0000E+00  0.1000E+01  0.1000E+01
    -41.828  0.0000E+00  0.0000E+00  0.1000E+01  0.1000E+01
    -41.631  0.0000E+00  0.0000E+00  0.1000E+01  0.1000E+01
    -41.434  0.0000E+00  0.0000E+00  0.1000E+01  0.1000E+01
    -41.237  0.0000E+00  0.0000E+00  0.1000E+01  0.1000E+01
    -41.040  0.0000E+00  0.0000E+00  0.1000E+01  0.1000E+01
    -40.843  0.0000E+00  0.0000E+00  0.1000E+01  0.1000E+01
    -40.646  0.0000E+00  0.0000E+00  0.1000E+01  0.1000E+01
    -40.449  0.0000E+00  0.0000E+00  0.1000E+01  0.1000E+01
    -40.252  0.0000E+00  0.0000E+00  0.1000E+01  0.1000E+01
    -40.055  0.0000E+00  0.0000E+00  0.1000E+01  0.1000E+01
    -39.858  0.0000E+00  0.0000E+00  0.1000E+01  0.1000E+01
    -39.661  0.0000E+00  0.0000E+00  0.1000E+01  0.1000E+01
    -39.464  0.0000E+00  0.0000E+00  0.1000E+01  0.1000E+01
    -39.266  0.0000E+00  0.0000E+00  0.1000E+01  0.1000E+01
    -39.069  0.0000E+00  0.0000E+00  0.1000E+01  0.1000E+01
    -38.872  0.0000E+00  0.0000E+00  0.1000E+01  0.1000E+01
    -38.675  0.0000E+00  0.0000E+00  0.1000E+01  0.1000E+01
    -38.478  0.0000E+00  0.0000E+00  0.1000E+01  0.1000E+01
    -38.281  0.0000E+00  0.0000E+00  0.1000E+01  0.1000E+01
    -38.084  0.0000E+00  0.0000E+00  0.1000E+01  0.1000E+01
    -37.887  0.0000E+00  0.0000E+00  0.1000E+01  0.1000E+01
    -37.690  0.0000E+00  0.0000E+00  0.1000E+01  0.1000E+01
    -37.493  0.0000E+00  0.0000E+00  0.1000E+01  0.1000E+01
    -37.296  0.0000E+00  0.0000E+00  0.1000E+01  0.1000E+01
    -37.099  0.0000E+00  0.0000E+00  0.1000E+01  0.1000E+01
    -36.902  0.0000E+00  0.0000E+00  0.1000E+01  0.1000E+01
    -36.705  0.0000E+00  0.0000E+00  0.1000E+01  0.1000E+01
    -36.508  0.0000E+00  0.0000E+00  0.1000E+01  0.1000E+01
    -36.311  0.0000E+00  0.0000E+00  0.1000E+01  0.1000E+01
    -36.114  0.0000E+00  0.0000E+00  0.1000E+01  0.1000E+01
    -35.917  0.0000E+00  0.0000E+00  0.1000E+01  0.1000E+01
    -35.720  0.0000E+00  0.0000E+00  0.1000E+01  0.1000E+01
    -35.523  0.0000E+00  0.0000E+00  0.1000E+01  0.1000E+01
    -35.326  0.0000E+00  0.0000E+00  0.1000E+01  0.1000E+01
    -35.129  0.0000E+00  0.0000E+00  0.1000E+01  0.1000E+01
    -34.932  0.0000E+00  0.0000E+00  0.1000E+01  0.1000E+01
    -34.735  0.0000E+00  0.0000E+00  0.1000E+01  0.1000E+01
    -34.538  0.0000E+00  0.0000E+00  0.1000E+01  0.1000E+01
    -34.341  0.0000E+00  0.0000E+00  0.1000E+01  0.1000E+01
    -34.144  0.0000E+00  0.0000E+00  0.1000E+01  0.1000E+01
    -33.947  0.0000E+00  0.0000E+00  0.1000E+01  0.1000E+01
    -33.750  0.0000E+00  0.0000E+00  0.1000E+01  0.1000E+01
    -33.553  0.0000E+00  0.0000E+00  0.1000E+01  0.1000E+01
    -33.356  0.0000E+00  0.0000E+00  0.1000E+01  0.1000E+01
    -33.159  0.0000E+00  0.0000E+00  0.1000E+01  0.1000E+01
    -32.962  0.0000E+00  0.0000E+00  0.1000E+01  0.1000E+01
    -32.765  0.0000E+00  0.0000E+00  0.1000E+01  0.1000E+01
    -32.568  0.0000E+00  0.0000E+00  0.1000E+01  0.1000E+01
    -32.371  0.0000E+00  0.0000E+00  0.1000E+01  0.1000E+01
    -32.174  0.0000E+00  0.0000E+00  0.1000E+01  0.1000E+01
    -31.977  0.0000E+00  0.0000E+00  0.1000E+01  0.1000E+01
    -31.780  0.0000E+00  0.0000E+00  0.1000E+01  0.1000E+01
    -31.583  0.0000E+00  0.0000E+00  0.1000E+01  0.1000E+01
    -31.386  0.0000E+00  0.0000E+00  0.1000E+01  0.1000E+01
    -31.189  0.0000E+00  0.0000E+00  0.1000E+01  0.1000E+01
    -30.992  0.0000E+00  0.0000E+00  0.1000E+01  0.1000E+01
    -30.795  0.0000E+00  0.0000E+00  0.1000E+01  0.1000E+01
    -30.597  0.0000E+00  0.0000E+00  0.1000E+01  0.1000E+01
    -30.400  0.0000E+00  0.0000E+00  0.1000E+01  0.1000E+01
    -30.203  0.0000E+00  0.0000E+00  0.1000E+01  0.1000E+01
    -30.006  0.0000E+00  0.0000E+00  0.1000E+01  0.1000E+01
    -29.809  0.0000E+00  0.0000E+00  0.1000E+01  0.1000E+01
    -29.612  0.0000E+00  0.0000E+00  0.1000E+01  0.1000E+01
    -29.415  0.0000E+00  0.0000E+00  0.1000E+01  0.1000E+01
    -29.218  0.0000E+00  0.0000E+00  0.1000E+01  0.1000E+01
    -29.021  0.0000E+00  0.0000E+00  0.1000E+01  0.1000E+01
    -28.824  0.0000E+00  0.0000E+00  0.1000E+01  0.1000E+01
    -28.627  0.0000E+00  0.0000E+00  0.1000E+01  0.1000E+01
    -28.430  0.0000E+00  0.0000E+00  0.1000E+01  0.1000E+01
    -28.233  0.0000E+00  0.0000E+00  0.1000E+01  0.1000E+01
    -28.036  0.0000E+00  0.0000E+00  0.1000E+01  0.1000E+01
    -27.839  0.0000E+00  0.0000E+00  0.1000E+01  0.1000E+01
    -27.642  0.0000E+00  0.0000E+00  0.1000E+01  0.1000E+01
    -27.445  0.0000E+00  0.0000E+00  0.1000E+01  0.1000E+01
    -27.248  0.0000E+00  0.0000E+00  0.1000E+01  0.1000E+01
    -27.051  0.0000E+00  0.0000E+00  0.1000E+01  0.1000E+01
    -26.854  0.0000E+00  0.0000E+00  0.1000E+01  0.1000E+01
    -26.657  0.0000E+00  0.0000E+00  0.1000E+01  0.1000E+01
    -26.460  0.0000E+00  0.0000E+00  0.1000E+01  0.1000E+01
    -26.263  0.0000E+00  0.0000E+00  0.1000E+01  0.1000E+01
    -26.066  0.0000E+00  0.0000E+00  0.1000E+01  0.1000E+01
    -25.869  0.0000E+00  0.0000E+00  0.1000E+01  0.1000E+01
    -25.672  0.0000E+00  0.0000E+00  0.1000E+01  0.1000E+01
    -25.475  0.0000E+00  0.0000E+00  0.1000E+01  0.1000E+01
    -25.278  0.0000E+00  0.0000E+00  0.1000E+01  0.1000E+01
    -25.081  0.0000E+00  0.0000E+00  0.1000E+01  0.1000E+01
    -24.884  0.0000E+00  0.0000E+00  0.1000E+01  0.1000E+01
    -24.687  0.0000E+00  0.0000E+00  0.1000E+01  0.1000E+01
    -24.490  0.0000E+00  0.0000E+00  0.1000E+01  0.1000E+01
    -24.293  0.0000E+00  0.0000E+00  0.1000E+01  0.1000E+01
    -24.096  0.0000E+00  0.0000E+00  0.1000E+01  0.1000E+01
    -23.899  0.0000E+00  0.0000E+00  0.1000E+01  0.1000E+01
    -23.702  0.0000E+00  0.0000E+00  0.1000E+01  0.1000E+01
    -23.505  0.0000E+00  0.0000E+00  0.1000E+01  0.1000E+01
    -23.308  0.0000E+00  0.0000E+00  0.1000E+01  0.1000E+01
    -23.111  0.0000E+00  0.0000E+00  0.1000E+01  0.1000E+01
    -22.914  0.0000E+00  0.0000E+00  0.1000E+01  0.1000E+01
    -22.717  0.0000E+00  0.0000E+00  0.1000E+01  0.1000E+01
    -22.520  0.0000E+00  0.0000E+00  0.1000E+01  0.1000E+01
    -22.323  0.0000E+00  0.0000E+00  0.1000E+01  0.1000E+01
    -22.126  0.0000E+00  0.0000E+00  0.1000E+01  0.1000E+01
    -21.928  0.0000E+00  0.0000E+00  0.1000E+01  0.1000E+01
    -21.731  0.0000E+00  0.0000E+00  0.1000E+01  0.1000E+01
    -21.534  0.0000E+00  0.0000E+00  0.1000E+01  0.1000E+01
    -21.337  0.0000E+00  0.0000E+00  0.1000E+01  0.1000E+01
    -21.140  0.0000E+00  0.0000E+00  0.1000E+01  0.1000E+01
    -20.943  0.2806E-02  0.2809E-02  0.1001E+01  0.1001E+01
    -20.746  0.1402E+00  0.1403E+00  0.1028E+01  0.1028E+01
    -20.549  0.4820E+01  0.4824E+01  0.1978E+01  0.1979E+01
    -20.352  0.9666E+01  0.9662E+01  0.3882E+01  0.3882E+01
    -20.155  0.5859E+00  0.5851E+00  0.3998E+01  0.3998E+01
    -19.958  0.0000E+00  0.0000E+00  0.4000E+01  0.4000E+01
    -19.761  0.0000E+00  0.0000E+00  0.4000E+01  0.4000E+01
    -19.564  0.0000E+00  0.0000E+00  0.4000E+01  0.4000E+01
    -19.367  0.0000E+00  0.0000E+00  0.4000E+01  0.4000E+01
    -19.170  0.0000E+00  0.0000E+00  0.4000E+01  0.4000E+01
    -18.973  0.0000E+00  0.0000E+00  0.4000E+01  0.4000E+01
    -18.776  0.0000E+00  0.0000E+00  0.4000E+01  0.4000E+01
    -18.579  0.0000E+00  0.0000E+00  0.4000E+01  0.4000E+01
    -18.382  0.0000E+00  0.0000E+00  0.4000E+01  0.4000E+01
    -18.185  0.0000E+00  0.0000E+00  0.4000E+01  0.4000E+01
    -17.988  0.0000E+00  0.0000E+00  0.4000E+01  0.4000E+01
    -17.791  0.0000E+00  0.0000E+00  0.4000E+01  0.4000E+01
    -17.594  0.0000E+00  0.0000E+00  0.4000E+01  0.4000E+01
    -17.397  0.0000E+00  0.0000E+00  0.4000E+01  0.4000E+01
    -17.200  0.0000E+00  0.0000E+00  0.4000E+01  0.4000E+01
    -17.003  0.0000E+00  0.0000E+00  0.4000E+01  0.4000E+01
    -16.806  0.0000E+00  0.0000E+00  0.4000E+01  0.4000E+01
    -16.609  0.0000E+00  0.0000E+00  0.4000E+01  0.4000E+01
    -16.412  0.0000E+00  0.0000E+00  0.4000E+01  0.4000E+01
    -16.215  0.0000E+00  0.0000E+00  0.4000E+01  0.4000E+01
    -16.018  0.0000E+00  0.0000E+00  0.4000E+01  0.4000E+01
    -15.821  0.0000E+00  0.0000E+00  0.4000E+01  0.4000E+01
    -15.624  0.0000E+00  0.0000E+00  0.4000E+01  0.4000E+01
    -15.427  0.0000E+00  0.0000E+00  0.4000E+01  0.4000E+01
    -15.230  0.0000E+00  0.0000E+00  0.4000E+01  0.4000E+01
    -15.033  0.0000E+00  0.0000E+00  0.4000E+01  0.4000E+01
    -14.836  0.0000E+00  0.0000E+00  0.4000E+01  0.4000E+01
    -14.639  0.0000E+00  0.0000E+00  0.4000E+01  0.4000E+01
    -14.442  0.0000E+00  0.0000E+00  0.4000E+01  0.4000E+01
    -14.245  0.0000E+00  0.0000E+00  0.4000E+01  0.4000E+01
    -14.048  0.0000E+00  0.0000E+00  0.4000E+01  0.4000E+01
    -13.851  0.0000E+00  0.0000E+00  0.4000E+01  0.4000E+01
    -13.654  0.0000E+00  0.0000E+00  0.4000E+01  0.4000E+01
    -13.457  0.0000E+00  0.0000E+00  0.4000E+01  0.4000E+01
    -13.259  0.0000E+00  0.0000E+00  0.4000E+01  0.4000E+01
    -13.062  0.0000E+00  0.0000E+00  0.4000E+01  0.4000E+01
    -12.865  0.0000E+00  0.0000E+00  0.4000E+01  0.4000E+01
    -12.668  0.0000E+00  0.0000E+00  0.4000E+01  0.4000E+01
    -12.471  0.0000E+00  0.0000E+00  0.4000E+01  0.4000E+01
    -12.274  0.0000E+00  0.0000E+00  0.4000E+01  0.4000E+01
    -12.077  0.0000E+00  0.0000E+00  0.4000E+01  0.4000E+01
    -11.880  0.0000E+00  0.0000E+00  0.4000E+01  0.4000E+01
    -11.683  0.0000E+00  0.0000E+00  0.4000E+01  0.4000E+01
    -11.486  0.0000E+00  0.0000E+00  0.4000E+01  0.4000E+01
    -11.289  0.0000E+00  0.0000E+00  0.4000E+01  0.4000E+01
    -11.092  0.0000E+00  0.0000E+00  0.4000E+01  0.4000E+01
    -10.895  0.0000E+00  0.0000E+00  0.4000E+01  0.4000E+01
    -10.698  0.0000E+00  0.0000E+00  0.4000E+01  0.4000E+01
    -10.501  0.0000E+00  0.0000E+00  0.4000E+01  0.4000E+01
    -10.304  0.0000E+00  0.0000E+00  0.4000E+01  0.4000E+01
    -10.107  0.0000E+00  0.0000E+00  0.4000E+01  0.4000E+01
     -9.910  0.0000E+00  0.0000E+00  0.4000E+01  0.4000E+01
     -9.713  0.0000E+00  0.0000E+00  0.4000E+01  0.4000E+01
     -9.516  0.0000E+00  0.0000E+00  0.4000E+01  0.4000E+01
     -9.319  0.0000E+00  0.0000E+00  0.4000E+01  0.4000E+01
     -9.122  0.0000E+00  0.0000E+00  0.4000E+01  0.4000E+01
     -8.925  0.0000E+00  0.0000E+00  0.4000E+01  0.4000E+01
     -8.728  0.0000E+00  0.0000E+00  0.4000E+01  0.4000E+01
     -8.531  0.0000E+00  0.0000E+00  0.4000E+01  0.4000E+01
     -8.334  0.0000E+00  0.0000E+00  0.4000E+01  0.4000E+01
     -8.137  0.0000E+00  0.0000E+00  0.4000E+01  0.4000E+01
     -7.940  0.0000E+00  0.0000E+00  0.4000E+01  0.4000E+01
     -7.743  0.0000E+00  0.0000E+00  0.4000E+01  0.4000E+01
     -7.546  0.0000E+00  0.0000E+00  0.4000E+01  0.4000E+01
     -7.349  0.0000E+00  0.0000E+00  0.4000E+01  0.4000E+01
     -7.152  0.0000E+00  0.0000E+00  0.4000E+01  0.4000E+01
     -6.955  0.0000E+00  0.0000E+00  0.4000E+01  0.4000E+01
     -6.758  0.0000E+00  0.0000E+00  0.4000E+01  0.4000E+01
     -6.561  0.0000E+00  0.0000E+00  0.4000E+01  0.4000E+01
     -6.364  0.0000E+00  0.0000E+00  0.4000E+01  0.4000E+01
     -6.167  0.0000E+00  0.0000E+00  0.4000E+01  0.4000E+01
     -5.970  0.0000E+00  0.0000E+00  0.4000E+01  0.4000E+01
     -5.773  0.0000E+00  0.0000E+00  0.4000E+01  0.4000E+01
     -5.576  0.0000E+00  0.0000E+00  0.4000E+01  0.4000E+01
     -5.379  0.0000E+00  0.0000E+00  0.4000E+01  0.4000E+01
     -5.182  0.0000E+00  0.0000E+00  0.4000E+01  0.4000E+01
     -4.985  0.0000E+00  0.0000E+00  0.4000E+01  0.4000E+01
     -4.788  0.0000E+00  0.0000E+00  0.4000E+01  0.4000E+01
     -4.590  0.0000E+00  0.0000E+00  0.4000E+01  0.4000E+01
     -4.393  0.0000E+00  0.0000E+00  0.4000E+01  0.4000E+01
     -4.196  0.0000E+00  0.0000E+00  0.4000E+01  0.4000E+01
     -3.999  0.0000E+00  0.0000E+00  0.4000E+01  0.4000E+01
     -3.802  0.0000E+00  0.0000E+00  0.4000E+01  0.4000E+01
     -3.605  0.0000E+00  0.0000E+00  0.4000E+01  0.4000E+01
     -3.408  0.0000E+00  0.0000E+00  0.4000E+01  0.4000E+01
     -3.211  0.0000E+00  0.0000E+00  0.4000E+01  0.4000E+01
     -3.014  0.0000E+00  0.0000E+00  0.4000E+01  0.4000E+01
     -2.817  0.0000E+00  0.0000E+00  0.4000E+01  0.4000E+01
     -2.620  0.1555E-05  0.1570E-05  0.4000E+01  0.4000E+01
     -2.423  0.8402E-04  0.8483E-04  0.4000E+01  0.4000E+01
     -2.226  0.3894E-02  0.3928E-02  0.4001E+01  0.4001E+01
     -2.029  0.5217E-01  0.5236E-01  0.4011E+01  0.4011E+01
     -1.832  0.1298E+00  0.1300E+00  0.4037E+01  0.4037E+01
     -1.635  0.1842E+00  0.1844E+00  0.4073E+01  0.4073E+01
     -1.438  0.2168E+00  0.2168E+00  0.4116E+01  0.4116E+01
     -1.241  0.2750E+00  0.2752E+00  0.4170E+01  0.4170E+01
     -1.044  0.2758E+00  0.2758E+00  0.4225E+01  0.4225E+01
     -0.847  0.3648E+00  0.3650E+00  0.4297E+01  0.4297E+01
     -0.650  0.3589E+00  0.3590E+00  0.4368E+01  0.4368E+01
     -0.453  0.4500E+00  0.4502E+00  0.4457E+01  0.4457E+01
     -0.256  0.4972E+00  0.4974E+00  0.4555E+01  0.4555E+01
     -0.059  0.4336E+00  0.4333E+00  0.4641E+01  0.4641E+01
      0.138  0.4471E+00  0.4471E+00  0.4729E+01  0.4730E+01
      0.335  0.4414E+00  0.4419E+00  0.4817E+01  0.4817E+01
      0.532  0.4988E+00  0.4984E+00  0.4915E+01  0.4916E+01
      0.729  0.4845E+00  0.4838E+00  0.5011E+01  0.5011E+01
      0.926  0.4539E+00  0.4542E+00  0.5101E+01  0.5101E+01
      1.123  0.5307E+00  0.5305E+00  0.5206E+01  0.5206E+01
      1.320  0.5095E+00  0.5097E+00  0.5307E+01  0.5307E+01
      1.517  0.5955E+00  0.5959E+00  0.5424E+01  0.5425E+01
      1.714  0.8013E+00  0.8017E+00  0.5583E+01  0.5583E+01
      1.911  0.9396E+00  0.9396E+00  0.5769E+01  0.5769E+01
      2.108  0.8810E+00  0.8811E+00  0.5943E+01  0.5943E+01
      2.305  0.8213E+00  0.8210E+00  0.6105E+01  0.6106E+01
      2.502  0.7433E+00  0.7433E+00  0.6253E+01  0.6253E+01
      2.699  0.6589E+00  0.6587E+00  0.6383E+01  0.6384E+01
      2.896  0.5216E+00  0.5215E+00  0.6487E+01  0.6487E+01
      3.093  0.6080E+00  0.6081E+00  0.6607E+01  0.6607E+01
      3.290  0.5969E+00  0.5973E+00  0.6725E+01  0.6726E+01
      3.487  0.6290E+00  0.6289E+00  0.6850E+01  0.6850E+01
      3.684  0.7625E+00  0.7633E+00  0.7001E+01  0.7001E+01
      3.881  0.9162E+00  0.9164E+00  0.7181E+01  0.7182E+01
      4.079  0.8418E+00  0.8413E+00  0.7348E+01  0.7348E+01
      4.276  0.8727E+00  0.8733E+00  0.7520E+01  0.7521E+01
      4.473  0.1138E+01  0.1139E+01  0.7745E+01  0.7746E+01
      4.670  0.1462E+01  0.1463E+01  0.8034E+01  0.8035E+01
      4.867  0.1699E+01  0.1699E+01  0.8370E+01  0.8370E+01
      5.064  0.1850E+01  0.1852E+01  0.8736E+01  0.8737E+01
      5.261  0.1633E+01  0.1631E+01  0.9058E+01  0.9059E+01
      5.458  0.1197E+01  0.1196E+01  0.9296E+01  0.9297E+01
      5.655  0.8725E+00  0.8722E+00  0.9470E+01  0.9470E+01
      5.852  0.8537E+00  0.8535E+00  0.9639E+01  0.9639E+01
      6.049  0.7634E+00  0.7633E+00  0.9790E+01  0.9790E+01
      6.246  0.6221E+00  0.6223E+00  0.9913E+01  0.9914E+01
      6.443  0.8095E+00  0.8093E+00  0.1007E+02  0.1007E+02
      6.640  0.5640E+00  0.5639E+00  0.1019E+02  0.1019E+02
      6.837  0.8419E+00  0.8429E+00  0.1035E+02  0.1035E+02
      7.034  0.1062E+01  0.1062E+01  0.1056E+02  0.1056E+02
      7.231  0.1300E+01  0.1300E+01  0.1082E+02  0.1082E+02
      7.428  0.1361E+01  0.1361E+01  0.1109E+02  0.1109E+02
      7.625  0.1227E+01  0.1226E+01  0.1133E+02  0.1133E+02
      7.822  0.1610E+01  0.1612E+01  0.1165E+02  0.1165E+02
      8.019  0.1917E+01  0.1918E+01  0.1203E+02  0.1203E+02
      8.216  0.2321E+01  0.2322E+01  0.1249E+02  0.1249E+02
      8.413  0.2205E+01  0.2204E+01  0.1292E+02  0.1292E+02
      8.610  0.1920E+01  0.1919E+01  0.1330E+02  0.1330E+02
      8.807  0.1500E+01  0.1500E+01  0.1360E+02  0.1360E+02
      9.004  0.1456E+01  0.1457E+01  0.1389E+02  0.1389E+02
      9.201  0.1482E+01  0.1486E+01  0.1418E+02  0.1418E+02
      9.398  0.1311E+01  0.1307E+01  0.1444E+02  0.1444E+02
      9.595  0.1386E+01  0.1399E+01  0.1472E+02  0.1472E+02
      9.792  0.1279E+01  0.1310E+01  0.1497E+02  0.1498E+02
      9.989  0.1531E+01  0.1512E+01  0.1527E+02  0.1528E+02
     10.186  0.1889E+01  0.1879E+01  0.1564E+02  0.1565E+02
     10.383  0.1175E+01  0.1167E+01  0.1588E+02  0.1588E+02
     10.580  0.4215E+00  0.4097E+00  0.1596E+02  0.1596E+02
     10.777  0.1313E+00  0.1176E+00  0.1599E+02  0.1599E+02
     10.974  0.2973E-01  0.3950E-01  0.1599E+02  0.1599E+02
     11.171  0.1606E-01  0.1629E-01  0.1600E+02  0.1600E+02
     11.368  0.1064E-01  0.1520E-01  0.1600E+02  0.1600E+02
     11.565  0.9457E-03  0.9350E-03  0.1600E+02  0.1600E+02
     11.762  0.0000E+00  0.0000E+00  0.1600E+02  0.1600E+02
     11.959  0.0000E+00  0.0000E+00  0.1600E+02  0.1600E+02
     12.156  0.0000E+00  0.0000E+00  0.1600E+02  0.1600E+02
     12.353  0.0000E+00  0.0000E+00  0.1600E+02  0.1600E+02
     12.550  0.0000E+00  0.0000E+00  0.1600E+02  0.1600E+02
     12.748  0.0000E+00  0.0000E+00  0.1600E+02  0.1600E+02
     12.945  0.0000E+00  0.0000E+00  0.1600E+02  0.1600E+02
     13.142  0.0000E+00  0.0000E+00  0.1600E+02  0.1600E+02
     13.339  0.0000E+00  0.0000E+00  0.1600E+02  0.1600E+02
     13.536  0.0000E+00  0.0000E+00  0.1600E+02  0.1600E+02
     13.733  0.0000E+00  0.0000E+00  0.1600E+02  0.1600E+02
     13.930  0.0000E+00  0.0000E+00  0.1600E+02  0.1600E+02
     13.92965823    -45.17717602  301      6.97581767      1.00000000
    -45.177  0.0000E+00  0.0000E+00  0.0000E+00  0.0000E+00  0.0000E+00  0.0000E+00  0.0000E+00  0.0000E+00  0.0000E+00  0.0000E+00  0.0000E+00  0.0000E+00  0.0000E+00  0.0000E+00  0.0000E+00  0.0000E+00  0.0000E+00  0.0000E+00
    -44.980  0.0000E+00  0.0000E+00  0.0000E+00  0.0000E+00  0.0000E+00  0.0000E+00  0.0000E+00  0.0000E+00  0.0000E+00  0.0000E+00  0.0000E+00  0.0000E+00  0.0000E+00  0.0000E+00  0.0000E+00  0.0000E+00  0.0000E+00  0.0000E+00
    -44.783  0.0000E+00  0.0000E+00  0.0000E+00  0.0000E+00  0.0000E+00  0.0000E+00  0.0000E+00  0.0000E+00  0.0000E+00  0.0000E+00  0.0000E+00  0.0000E+00  0.0000E+00  0.0000E+00  0.0000E+00  0.0000E+00  0.0000E+00  0.0000E+00
    -44.586  0.0000E+00  0.0000E+00  0.0000E+00  0.0000E+00  0.0000E+00  0.0000E+00  0.0000E+00  0.0000E+00  0.0000E+00  0.0000E+00  0.0000E+00  0.0000E+00  0.0000E+00  0.0000E+00  0.0000E+00  0.0000E+00  0.0000E+00  0.0000E+00
    -44.389  0.0000E+00  0.0000E+00  0.0000E+00  0.0000E+00  0.0000E+00  0.0000E+00  0.0000E+00  0.0000E+00  0.0000E+00  0.0000E+00  0.0000E+00  0.0000E+00  0.0000E+00  0.0000E+00  0.0000E+00  0.0000E+00  0.0000E+00  0.0000E+00
    -44.192  0.0000E+00  0.0000E+00  0.0000E+00  0.0000E+00  0.0000E+00  0.0000E+00  0.0000E+00  0.0000E+00  0.0000E+00  0.0000E+00  0.0000E+00  0.0000E+00  0.0000E+00  0.0000E+00  0.0000E+00  0.0000E+00  0.0000E+00  0.0000E+00
    -43.995  0.0000E+00  0.0000E+00  0.0000E+00  0.0000E+00  0.0000E+00  0.0000E+00  0.0000E+00  0.0000E+00  0.0000E+00  0.0000E+00  0.0000E+00  0.0000E+00  0.0000E+00  0.0000E+00  0.0000E+00  0.0000E+00  0.0000E+00  0.0000E+00
    -43.798  0.0000E+00  0.0000E+00  0.0000E+00  0.0000E+00  0.0000E+00  0.0000E+00  0.0000E+00  0.0000E+00  0.0000E+00  0.0000E+00  0.0000E+00  0.0000E+00  0.0000E+00  0.0000E+00  0.0000E+00  0.0000E+00  0.0000E+00  0.0000E+00
    -43.601  0.0000E+00  0.0000E+00  0.0000E+00  0.0000E+00  0.0000E+00  0.0000E+00  0.0000E+00  0.0000E+00  0.0000E+00  0.0000E+00  0.0000E+00  0.0000E+00  0.0000E+00  0.0000E+00  0.0000E+00  0.0000E+00  0.0000E+00  0.0000E+00
    -43.404  0.0000E+00  0.0000E+00  0.0000E+00  0.0000E+00  0.0000E+00  0.0000E+00  0.0000E+00  0.0000E+00  0.0000E+00  0.0000E+00  0.0000E+00  0.0000E+00  0.0000E+00  0.0000E+00  0.0000E+00  0.0000E+00  0.0000E+00  0.0000E+00
    -43.207  0.0000E+00  0.0000E+00  0.0000E+00  0.0000E+00  0.0000E+00  0.0000E+00  0.0000E+00  0.0000E+00  0.0000E+00  0.0000E+00  0.0000E+00  0.0000E+00  0.0000E+00  0.0000E+00  0.0000E+00  0.0000E+00  0.0000E+00  0.0000E+00
    -43.010  0.1521E-03  0.1520E-03  0.6960E-13  0.7201E-13  0.6960E-13  0.7201E-13  0.7042E-13  0.7281E-13  0.1768E-15  0.2382E-15  0.1759E-15  0.2401E-15  0.9002E-13  0.9603E-13  0.1768E-15  0.2382E-15  0.8865E-13  0.9486E-13
    -42.813  0.7663E-02  0.7657E-02  0.3506E-11  0.3627E-11  0.3506E-11  0.3627E-11  0.3547E-11  0.3667E-11  0.8903E-14  0.1200E-13  0.8857E-14  0.1209E-13  0.4534E-11  0.4836E-11  0.8903E-14  0.1200E-13  0.4465E-11  0.4778E-11
    -42.616  0.3650E+00  0.3648E+00  0.1670E-09  0.1728E-09  0.1670E-09  0.1728E-09  0.1690E-09  0.1747E-09  0.4242E-12  0.5715E-12  0.4220E-12  0.5761E-12  0.2160E-09  0.2304E-09  0.4242E-12  0.5715E-12  0.2127E-09  0.2276E-09
    -42.419  0.3681E+01  0.3680E+01  0.1684E-08  0.1743E-08  0.1684E-08  0.1743E-08  0.1703E-08  0.1762E-08  0.4285E-11  0.5773E-11  0.4262E-11  0.5818E-11  0.2179E-08  0.2326E-08  0.4285E-11  0.5773E-11  0.2144E-08  0.2296E-08
    -42.222  0.9627E+00  0.9632E+00  0.4403E-09  0.4561E-09  0.4403E-09  0.4561E-09  0.4455E-09  0.4612E-09  0.1123E-11  0.1513E-11  0.1117E-11  0.1525E-11  0.5702E-09  0.6090E-09  0.1123E-11  0.1513E-11  0.5608E-09  0.6008E-09
    -42.025  0.0000E+00  0.0000E+00  0.0000E+00  0.0000E+00  0.0000E+00  0.0000E+00  0.0000E+00  0.0000E+00  0.0000E+00  0.0000E+00  0.0000E+00  0.0000E+00  0.0000E+00  0.0000E+00  0.0000E+00  0.0000E+00  0.0000E+00  0.0000E+00
    -41.828  0.0000E+00  0.0000E+00  0.0000E+00  0.0000E+00  0.0000E+00  0.0000E+00  0.0000E+00  0.0000E+00  0.0000E+00  0.0000E+00  0.0000E+00  0.0000E+00  0.0000E+00  0.0000E+00  0.0000E+00  0.0000E+00  0.0000E+00  0.0000E+00
    -41.631  0.0000E+00  0.0000E+00  0.0000E+00  0.0000E+00  0.0000E+00  0.0000E+00  0.0000E+00  0.0000E+00  0.0000E+00  0.0000E+00  0.0000E+00  0.0000E+00  0.0000E+00  0.0000E+00  0.0000E+00  0.0000E+00  0.0000E+00  0.0000E+00
    -41.434  0.0000E+00  0.0000E+00  0.0000E+00  0.0000E+00  0.0000E+00  0.0000E+00  0.0000E+00  0.0000E+00  0.0000E+00  0.0000E+00  0.0000E+00  0.0000E+00  0.0000E+00  0.0000E+00  0.0000E+00  0.0000E+00  0.0000E+00  0.0000E+00
    -41.237  0.0000E+00  0.0000E+00  0.0000E+00  0.0000E+00  0.0000E+00  0.0000E+00  0.0000E+00  0.0000E+00  0.0000E+00  0.0000E+00  0.0000E+00  0.0000E+00  0.0000E+00  0.0000E+00  0.0000E+00  0.0000E+00  0.0000E+00  0.0000E+00
    -41.040  0.0000E+00  0.0000E+00  0.0000E+00  0.0000E+00  0.0000E+00  0.0000E+00  0.0000E+00  0.0000E+00  0.0000E+00  0.0000E+00  0.0000E+00  0.0000E+00  0.0000E+00  0.0000E+00  0.0000E+00  0.0000E+00  0.0000E+00  0.0000E+00
    -40.843  0.0000E+00  0.0000E+00  0.0000E+00  0.0000E+00  0.0000E+00  0.0000E+00  0.0000E+00  0.0000E+00  0.0000E+00  0.0000E+00  0.0000E+00  0.0000E+00  0.0000E+00  0.0000E+00  0.0000E+00  0.0000E+00  0.0000E+00  0.0000E+00
    -40.646  0.0000E+00  0.0000E+00  0.0000E+00  0.0000E+00  0.0000E+00  0.0000E+00  0.0000E+00  0.0000E+00  0.0000E+00  0.0000E+00  0.0000E+00  0.0000E+00  0.0000E+00  0.0000E+00  0.0000E+00  0.0000E+00  0.0000E+00  0.0000E+00
    -40.449  0.0000E+00  0.0000E+00  0.0000E+00  0.0000E+00  0.0000E+00  0.0000E+00  0.0000E+00  0.0000E+00  0.0000E+00  0.0000E+00  0.0000E+00  0.0000E+00  0.0000E+00  0.0000E+00  0.0000E+00  0.0000E+00  0.0000E+00  0.0000E+00
    -40.252  0.0000E+00  0.0000E+00  0.0000E+00  0.0000E+00  0.0000E+00  0.0000E+00  0.0000E+00  0.0000E+00  0.0000E+00  0.0000E+00  0.0000E+00  0.0000E+00  0.0000E+00  0.0000E+00  0.0000E+00  0.0000E+00  0.0000E+00  0.0000E+00
    -40.055  0.0000E+00  0.0000E+00  0.0000E+00  0.0000E+00  0.0000E+00  0.0000E+00  0.0000E+00  0.0000E+00  0.0000E+00  0.0000E+00  0.0000E+00  0.0000E+00  0.0000E+00  0.0000E+00  0.0000E+00  0.0000E+00  0.0000E+00  0.0000E+00
    -39.858  0.0000E+00  0.0000E+00  0.0000E+00  0.0000E+00  0.0000E+00  0.0000E+00  0.0000E+00  0.0000E+00  0.0000E+00  0.0000E+00  0.0000E+00  0.0000E+00  0.0000E+00  0.0000E+00  0.0000E+00  0.0000E+00  0.0000E+00  0.0000E+00
    -39.661  0.0000E+00  0.0000E+00  0.0000E+00  0.0000E+00  0.0000E+00  0.0000E+00  0.0000E+00  0.0000E+00  0.0000E+00  0.0000E+00  0.0000E+00  0.0000E+00  0.0000E+00  0.0000E+00  0.0000E+00  0.0000E+00  0.0000E+00  0.0000E+00
    -39.464  0.0000E+00  0.0000E+00  0.0000E+00  0.0000E+00  0.0000E+00  0.0000E+00  0.0000E+00  0.0000E+00  0.0000E+00  0.0000E+00  0.0000E+00  0.0000E+00  0.0000E+00  0.0000E+00  0.0000E+00  0.0000E+00  0.0000E+00  0.0000E+00
    -39.266  0.0000E+00  0.0000E+00  0.0000E+00  0.0000E+00  0.0000E+00  0.0000E+00  0.0000E+00  0.0000E+00  0.0000E+00  0.0000E+00  0.0000E+00  0.0000E+00  0.0000E+00  0.0000E+00  0.0000E+00  0.0000E+00  0.0000E+00  0.0000E+00
    -39.069  0.0000E+00  0.0000E+00  0.0000E+00  0.0000E+00  0.0000E+00  0.0000E+00  0.0000E+00  0.0000E+00  0.0000E+00  0.0000E+00  0.0000E+00  0.0000E+00  0.0000E+00  0.0000E+00  0.0000E+00  0.0000E+00  0.0000E+00  0.0000E+00
    -38.872  0.0000E+00  0.0000E+00  0.0000E+00  0.0000E+00  0.0000E+00  0.0000E+00  0.0000E+00  0.0000E+00  0.0000E+00  0.0000E+00  0.0000E+00  0.0000E+00  0.0000E+00  0.0000E+00  0.0000E+00  0.0000E+00  0.0000E+00  0.0000E+00
    -38.675  0.0000E+00  0.0000E+00  0.0000E+00  0.0000E+00  0.0000E+00  0.0000E+00  0.0000E+00  0.0000E+00  0.0000E+00  0.0000E+00  0.0000E+00  0.0000E+00  0.0000E+00  0.0000E+00  0.0000E+00  0.0000E+00  0.0000E+00  0.0000E+00
    -38.478  0.0000E+00  0.0000E+00  0.0000E+00  0.0000E+00  0.0000E+00  0.0000E+00  0.0000E+00  0.0000E+00  0.0000E+00  0.0000E+00  0.0000E+00  0.0000E+00  0.0000E+00  0.0000E+00  0.0000E+00  0.0000E+00  0.0000E+00  0.0000E+00
    -38.281  0.0000E+00  0.0000E+00  0.0000E+00  0.0000E+00  0.0000E+00  0.0000E+00  0.0000E+00  0.0000E+00  0.0000E+00  0.0000E+00  0.0000E+00  0.0000E+00  0.0000E+00  0.0000E+00  0.0000E+00  0.0000E+00  0.0000E+00  0.0000E+00
    -38.084  0.0000E+00  0.0000E+00  0.0000E+00  0.0000E+00  0.0000E+00  0.0000E+00  0.0000E+00  0.0000E+00  0.0000E+00  0.0000E+00  0.0000E+00  0.0000E+00  0.0000E+00  0.0000E+00  0.0000E+00  0.0000E+00  0.0000E+00  0.0000E+00
    -37.887  0.0000E+00  0.0000E+00  0.0000E+00  0.0000E+00  0.0000E+00  0.0000E+00  0.0000E+00  0.0000E+00  0.0000E+00  0.0000E+00  0.0000E+00  0.0000E+00  0.0000E+00  0.0000E+00  0.0000E+00  0.0000E+00  0.0000E+00  0.0000E+00
    -37.690  0.0000E+00  0.0000E+00  0.0000E+00  0.0000E+00  0.0000E+00  0.0000E+00  0.0000E+00  0.0000E+00  0.0000E+00  0.0000E+00  0.0000E+00  0.0000E+00  0.0000E+00  0.0000E+00  0.0000E+00  0.0000E+00  0.0000E+00  0.0000E+00
    -37.493  0.0000E+00  0.0000E+00  0.0000E+00  0.0000E+00  0.0000E+00  0.0000E+00  0.0000E+00  0.0000E+00  0.0000E+00  0.0000E+00  0.0000E+00  0.0000E+00  0.0000E+00  0.0000E+00  0.0000E+00  0.0000E+00  0.0000E+00  0.0000E+00
    -37.296  0.0000E+00  0.0000E+00  0.0000E+00  0.0000E+00  0.0000E+00  0.0000E+00  0.0000E+00  0.0000E+00  0.0000E+00  0.0000E+00  0.0000E+00  0.0000E+00  0.0000E+00  0.0000E+00  0.0000E+00  0.0000E+00  0.0000E+00  0.0000E+00
    -37.099  0.0000E+00  0.0000E+00  0.0000E+00  0.0000E+00  0.0000E+00  0.0000E+00  0.0000E+00  0.0000E+00  0.0000E+00  0.0000E+00  0.0000E+00  0.0000E+00  0.0000E+00  0.0000E+00  0.0000E+00  0.0000E+00  0.0000E+00  0.0000E+00
    -36.902  0.0000E+00  0.0000E+00  0.0000E+00  0.0000E+00  0.0000E+00  0.0000E+00  0.0000E+00  0.0000E+00  0.0000E+00  0.0000E+00  0.0000E+00  0.0000E+00  0.0000E+00  0.0000E+00  0.0000E+00  0.0000E+00  0.0000E+00  0.0000E+00
    -36.705  0.0000E+00  0.0000E+00  0.0000E+00  0.0000E+00  0.0000E+00  0.0000E+00  0.0000E+00  0.0000E+00  0.0000E+00  0.0000E+00  0.0000E+00  0.0000E+00  0.0000E+00  0.0000E+00  0.0000E+00  0.0000E+00  0.0000E+00  0.0000E+00
    -36.508  0.0000E+00  0.0000E+00  0.0000E+00  0.0000E+00  0.0000E+00  0.0000E+00  0.0000E+00  0.0000E+00  0.0000E+00  0.0000E+00  0.0000E+00  0.0000E+00  0.0000E+00  0.0000E+00  0.0000E+00  0.0000E+00  0.0000E+00  0.0000E+00
    -36.311  0.0000E+00  0.0000E+00  0.0000E+00  0.0000E+00  0.0000E+00  0.0000E+00  0.0000E+00  0.0000E+00  0.0000E+00  0.0000E+00  0.0000E+00  0.0000E+00  0.0000E+00  0.0000E+00  0.0000E+00  0.0000E+00  0.0000E+00  0.0000E+00
    -36.114  0.0000E+00  0.0000E+00  0.0000E+00  0.0000E+00  0.0000E+00  0.0000E+00  0.0000E+00  0.0000E+00  0.0000E+00  0.0000E+00  0.0000E+00  0.0000E+00  0.0000E+00  0.0000E+00  0.0000E+00  0.0000E+00  0.0000E+00  0.0000E+00
    -35.917  0.0000E+00  0.0000E+00  0.0000E+00  0.0000E+00  0.0000E+00  0.0000E+00  0.0000E+00  0.0000E+00  0.0000E+00  0.0000E+00  0.0000E+00  0.0000E+00  0.0000E+00  0.0000E+00  0.0000E+00  0.0000E+00  0.0000E+00  0.0000E+00
    -35.720  0.0000E+00  0.0000E+00  0.0000E+00  0.0000E+00  0.0000E+00  0.0000E+00  0.0000E+00  0.0000E+00  0.0000E+00  0.0000E+00  0.0000E+00  0.0000E+00  0.0000E+00  0.0000E+00  0.0000E+00  0.0000E+00  0.0000E+00  0.0000E+00
    -35.523  0.0000E+00  0.0000E+00  0.0000E+00  0.0000E+00  0.0000E+00  0.0000E+00  0.0000E+00  0.0000E+00  0.0000E+00  0.0000E+00  0.0000E+00  0.0000E+00  0.0000E+00  0.0000E+00  0.0000E+00  0.0000E+00  0.0000E+00  0.0000E+00
    -35.326  0.0000E+00  0.0000E+00  0.0000E+00  0.0000E+00  0.0000E+00  0.0000E+00  0.0000E+00  0.0000E+00  0.0000E+00  0.0000E+00  0.0000E+00  0.0000E+00  0.0000E+00  0.0000E+00  0.0000E+00  0.0000E+00  0.0000E+00  0.0000E+00