   4   4   1   0
  0.1436047E+02  0.3857562E-09  0.3858850E-09  0.3858850E-09  0.5000000E-15
  1.000000000000000E-004
  CAR 
 unknown system                          
     19.92957103    -39.83146200  301     11.22333125      1.00000000
    -39.831  0.0000E+00  0.0000E+00  0.0000E+00  0.0000E+00
    -39.632  0.0000E+00  0.0000E+00  0.0000E+00  0.0000E+00
    -39.433  0.0000E+00  0.0000E+00  0.0000E+00  0.0000E+00
    -39.234  0.0000E+00  0.0000E+00  0.0000E+00  0.0000E+00
    -39.035  0.0000E+00  0.0000E+00  0.0000E+00  0.0000E+00
    -38.835  0.0000E+00  0.0000E+00  0.0000E+00  0.0000E+00
    -38.636  0.0000E+00  0.0000E+00  0.0000E+00  0.0000E+00
    -38.437  0.0000E+00  0.0000E+00  0.0000E+00  0.0000E+00
    -38.238  0.0000E+00  0.0000E+00  0.0000E+00  0.0000E+00
    -38.039  0.0000E+00  0.0000E+00  0.0000E+00  0.0000E+00
    -37.839  0.0000E+00  0.0000E+00  0.0000E+00  0.0000E+00
    -37.640  0.1149E-03  0.1147E-03  0.2290E-04  0.2284E-04
    -37.441  0.6054E-02  0.6040E-02  0.1229E-02  0.1226E-02
    -37.242  0.3051E+00  0.3044E+00  0.6200E-01  0.6186E-01
    -37.043  0.3603E+01  0.3601E+01  0.7797E+00  0.7793E+00
    -36.843  0.1080E+01  0.1082E+01  0.9948E+00  0.9948E+00
    -36.644  0.0000E+00  0.0000E+00  0.1000E+01  0.1000E+01
    -36.445  0.0000E+00  0.0000E+00  0.1000E+01  0.1000E+01
    -36.246  0.0000E+00  0.0000E+00  0.1000E+01  0.1000E+01
    -36.047  0.0000E+00  0.0000E+00  0.1000E+01  0.1000E+01
    -35.847  0.0000E+00  0.0000E+00  0.1000E+01  0.1000E+01
    -35.648  0.0000E+00  0.0000E+00  0.1000E+01  0.1000E+01
    -35.449  0.0000E+00  0.0000E+00  0.1000E+01  0.1000E+01
    -35.250  0.0000E+00  0.0000E+00  0.1000E+01  0.1000E+01
    -35.051  0.0000E+00  0.0000E+00  0.1000E+01  0.1000E+01
    -34.851  0.0000E+00  0.0000E+00  0.1000E+01  0.1000E+01
    -34.652  0.0000E+00  0.0000E+00  0.1000E+01  0.1000E+01
    -34.453  0.0000E+00  0.0000E+00  0.1000E+01  0.1000E+01
    -34.254  0.0000E+00  0.0000E+00  0.1000E+01  0.1000E+01
    -34.055  0.0000E+00  0.0000E+00  0.1000E+01  0.1000E+01
    -33.855  0.0000E+00  0.0000E+00  0.1000E+01  0.1000E+01
    -33.656  0.0000E+00  0.0000E+00  0.1000E+01  0.1000E+01
    -33.457  0.0000E+00  0.0000E+00  0.1000E+01  0.1000E+01
    -33.258  0.0000E+00  0.0000E+00  0.1000E+01  0.1000E+01
    -33.059  0.0000E+00  0.0000E+00  0.1000E+01  0.1000E+01
    -32.859  0.0000E+00  0.0000E+00  0.1000E+01  0.1000E+01
    -32.660  0.0000E+00  0.0000E+00  0.1000E+01  0.1000E+01
    -32.461  0.0000E+00  0.0000E+00  0.1000E+01  0.1000E+01
    -32.262  0.0000E+00  0.0000E+00  0.1000E+01  0.1000E+01
    -32.063  0.0000E+00  0.0000E+00  0.1000E+01  0.1000E+01
    -31.863  0.0000E+00  0.0000E+00  0.1000E+01  0.1000E+01
    -31.664  0.0000E+00  0.0000E+00  0.1000E+01  0.1000E+01
    -31.465  0.0000E+00  0.0000E+00  0.1000E+01  0.1000E+01
    -31.266  0.0000E+00  0.0000E+00  0.1000E+01  0.1000E+01
    -31.067  0.0000E+00  0.0000E+00  0.1000E+01  0.1000E+01
    -30.867  0.0000E+00  0.0000E+00  0.1000E+01  0.1000E+01
    -30.668  0.0000E+00  0.0000E+00  0.1000E+01  0.1000E+01
    -30.469  0.0000E+00  0.0000E+00  0.1000E+01  0.1000E+01
    -30.270  0.0000E+00  0.0000E+00  0.1000E+01  0.1000E+01
    -30.070  0.0000E+00  0.0000E+00  0.1000E+01  0.1000E+01
    -29.871  0.0000E+00  0.0000E+00  0.1000E+01  0.1000E+01
    -29.672  0.0000E+00  0.0000E+00  0.1000E+01  0.1000E+01
    -29.473  0.0000E+00  0.0000E+00  0.1000E+01  0.1000E+01
    -29.274  0.0000E+00  0.0000E+00  0.1000E+01  0.1000E+01
    -29.074  0.0000E+00  0.0000E+00  0.1000E+01  0.1000E+01
    -28.875  0.0000E+00  0.0000E+00  0.1000E+01  0.1000E+01
    -28.676  0.0000E+00  0.0000E+00  0.1000E+01  0.1000E+01
    -28.477  0.0000E+00  0.0000E+00  0.1000E+01  0.1000E+01
    -28.278  0.0000E+00  0.0000E+00  0.1000E+01  0.1000E+01
    -28.078  0.0000E+00  0.0000E+00  0.1000E+01  0.1000E+01
    -27.879  0.0000E+00  0.0000E+00  0.1000E+01  0.1000E+01
    -27.680  0.0000E+00  0.0000E+00  0.1000E+01  0.1000E+01
    -27.481  0.0000E+00  0.0000E+00  0.1000E+01  0.1000E+01
    -27.282  0.0000E+00  0.0000E+00  0.1000E+01  0.1000E+01
    -27.082  0.0000E+00  0.0000E+00  0.1000E+01  0.1000E+01
    -26.883  0.0000E+00  0.0000E+00  0.1000E+01  0.1000E+01
    -26.684  0.0000E+00  0.0000E+00  0.1000E+01  0.1000E+01
    -26.485  0.0000E+00  0.0000E+00  0.1000E+01  0.1000E+01
    -26.286  0.0000E+00  0.0000E+00  0.1000E+01  0.1000E+01
    -26.086  0.0000E+00  0.0000E+00  0.1000E+01  0.1000E+01
    -25.887  0.0000E+00  0.0000E+00  0.1000E+01  0.1000E+01
    -25.688  0.0000E+00  0.0000E+00  0.1000E+01  0.1000E+01
    -25.489  0.0000E+00  0.0000E+00  0.1000E+01  0.1000E+01
    -25.290  0.0000E+00  0.0000E+00  0.1000E+01  0.1000E+01
    -25.090  0.0000E+00  0.0000E+00  0.1000E+01  0.1000E+01
    -24.891  0.0000E+00  0.0000E+00  0.1000E+01  0.1000E+01
    -24.692  0.0000E+00  0.0000E+00  0.1000E+01  0.1000E+01
    -24.493  0.0000E+00  0.0000E+00  0.1000E+01  0.1000E+01
    -24.294  0.0000E+00  0.0000E+00  0.1000E+01  0.1000E+01
    -24.094  0.0000E+00  0.0000E+00  0.1000E+01  0.1000E+01
    -23.895  0.0000E+00  0.0000E+00  0.1000E+01  0.1000E+01
    -23.696  0.0000E+00  0.0000E+00  0.1000E+01  0.1000E+01
    -23.497  0.0000E+00  0.0000E+00  0.1000E+01  0.1000E+01
    -23.298  0.0000E+00  0.0000E+00  0.1000E+01  0.1000E+01
    -23.098  0.0000E+00  0.0000E+00  0.1000E+01  0.1000E+01
    -22.899  0.0000E+00  0.0000E+00  0.1000E+01  0.1000E+01
    -22.700  0.0000E+00  0.0000E+00  0.1000E+01  0.1000E+01
    -22.501  0.0000E+00  0.0000E+00  0.1000E+01  0.1000E+01
    -22.302  0.0000E+00  0.0000E+00  0.1000E+01  0.1000E+01
    -22.102  0.0000E+00  0.0000E+00  0.1000E+01  0.1000E+01
    -21.903  0.0000E+00  0.0000E+00  0.1000E+01  0.1000E+01
    -21.704  0.0000E+00  0.0000E+00  0.1000E+01  0.1000E+01
    -21.505  0.0000E+00  0.0000E+00  0.1000E+01  0.1000E+01
    -21.306  0.0000E+00  0.0000E+00  0.1000E+01  0.1000E+01
    -21.106  0.0000E+00  0.0000E+00  0.1000E+01  0.1000E+01
    -20.907  0.0000E+00  0.0000E+00  0.1000E+01  0.1000E+01
    -20.708  0.0000E+00  0.0000E+00  0.1000E+01  0.1000E+01
    -20.509  0.0000E+00  0.0000E+00  0.1000E+01  0.1000E+01
    -20.310  0.0000E+00  0.0000E+00  0.1000E+01  0.1000E+01
    -20.110  0.0000E+00  0.0000E+00  0.1000E+01  0.1000E+01
    -19.911  0.0000E+00  0.0000E+00  0.1000E+01  0.1000E+01
    -19.712  0.0000E+00  0.0000E+00  0.1000E+01  0.1000E+01
    -19.513  0.0000E+00  0.0000E+00  0.1000E+01  0.1000E+01
    -19.314  0.0000E+00  0.0000E+00  0.1000E+01  0.1000E+01
    -19.114  0.0000E+00  0.0000E+00  0.1000E+01  0.1000E+01
    -18.915  0.0000E+00  0.0000E+00  0.1000E+01  0.1000E+01
    -18.716  0.0000E+00  0.0000E+00  0.1000E+01  0.1000E+01
    -18.517  0.0000E+00  0.0000E+00  0.1000E+01  0.1000E+01
    -18.317  0.0000E+00  0.0000E+00  0.1000E+01  0.1000E+01
    -18.118  0.0000E+00  0.0000E+00  0.1000E+01  0.1000E+01
    -17.919  0.0000E+00  0.0000E+00  0.1000E+01  0.1000E+01
    -17.720  0.0000E+00  0.0000E+00  0.1000E+01  0.1000E+01
    -17.521  0.0000E+00  0.0000E+00  0.1000E+01  0.1000E+01
    -17.321  0.0000E+00  0.0000E+00  0.1000E+01  0.1000E+01
    -17.122  0.0000E+00  0.0000E+00  0.1000E+01  0.1000E+01
    -16.923  0.0000E+00  0.0000E+00  0.1000E+01  0.1000E+01
    -16.724  0.0000E+00  0.0000E+00  0.1000E+01  0.1000E+01
    -16.525  0.0000E+00  0.0000E+00  0.1000E+01  0.1000E+01
    -16.325  0.0000E+00  0.0000E+00  0.1000E+01  0.1000E+01
    -16.126  0.0000E+00  0.0000E+00  0.1000E+01  0.1000E+01
    -15.927  0.6052E-03  0.6026E-03  0.1000E+01  0.1000E+01
    -15.728  0.3188E-01  0.3175E-01  0.1006E+01  0.1006E+01
    -15.529  0.1433E+01  0.1428E+01  0.1292E+01  0.1291E+01
    -15.329  0.1002E+02  0.1001E+02  0.3287E+01  0.3285E+01
    -15.130  0.3473E+01  0.3483E+01  0.3979E+01  0.3979E+01
    -14.931  0.1244E-01  0.1408E-01  0.4000E+01  0.4000E+01
    -14.732  0.0000E+00  0.0000E+00  0.4000E+01  0.4000E+01
    -14.533  0.0000E+00  0.0000E+00  0.4000E+01  0.4000E+01
    -14.333  0.0000E+00  0.0000E+00  0.4000E+01  0.4000E+01
    -14.134  0.0000E+00  0.0000E+00  0.4000E+01  0.4000E+01
    -13.935  0.0000E+00  0.0000E+00  0.4000E+01  0.4000E+01
    -13.736  0.0000E+00  0.0000E+00  0.4000E+01  0.4000E+01
    -13.537  0.0000E+00  0.0000E+00  0.4000E+01  0.4000E+01
    -13.337  0.0000E+00  0.0000E+00  0.4000E+01  0.4000E+01
    -13.138  0.0000E+00  0.0000E+00  0.4000E+01  0.4000E+01
    -12.939  0.0000E+00  0.0000E+00  0.4000E+01  0.4000E+01
    -12.740  0.0000E+00  0.0000E+00  0.4000E+01  0.4000E+01
    -12.541  0.0000E+00  0.0000E+00  0.4000E+01  0.4000E+01
    -12.341  0.0000E+00  0.0000E+00  0.4000E+01  0.4000E+01
    -12.142  0.0000E+00  0.0000E+00  0.4000E+01  0.4000E+01
    -11.943  0.0000E+00  0.0000E+00  0.4000E+01  0.4000E+01
    -11.744  0.0000E+00  0.0000E+00  0.4000E+01  0.4000E+01
    -11.545  0.0000E+00  0.0000E+00  0.4000E+01  0.4000E+01
    -11.345  0.0000E+00  0.0000E+00  0.4000E+01  0.4000E+01
    -11.146  0.0000E+00  0.0000E+00  0.4000E+01  0.4000E+01
    -10.947  0.0000E+00  0.0000E+00  0.4000E+01  0.4000E+01
    -10.748  0.0000E+00  0.0000E+00  0.4000E+01  0.4000E+01
    -10.549  0.0000E+00  0.0000E+00  0.4000E+01  0.4000E+01
    -10.349  0.0000E+00  0.0000E+00  0.4000E+01  0.4000E+01
    -10.150  0.0000E+00  0.0000E+00  0.4000E+01  0.4000E+01
     -9.951  0.0000E+00  0.0000E+00  0.4000E+01  0.4000E+01
     -9.752  0.0000E+00  0.0000E+00  0.4000E+01  0.4000E+01
     -9.553  0.0000E+00  0.0000E+00  0.4000E+01  0.4000E+01
     -9.353  0.0000E+00  0.0000E+00  0.4000E+01  0.4000E+01
     -9.154  0.0000E+00  0.0000E+00  0.4000E+01  0.4000E+01
     -8.955  0.0000E+00  0.0000E+00  0.4000E+01  0.4000E+01
     -8.756  0.0000E+00  0.0000E+00  0.4000E+01  0.4000E+01
     -8.557  0.0000E+00  0.0000E+00  0.4000E+01  0.4000E+01
     -8.357  0.0000E+00  0.0000E+00  0.4000E+01  0.4000E+01
     -8.158  0.0000E+00  0.0000E+00  0.4000E+01  0.4000E+01
     -7.959  0.0000E+00  0.0000E+00  0.4000E+01  0.4000E+01
     -7.760  0.0000E+00  0.0000E+00  0.4000E+01  0.4000E+01
     -7.561  0.0000E+00  0.0000E+00  0.4000E+01  0.4000E+01
     -7.361  0.0000E+00  0.0000E+00  0.4000E+01  0.4000E+01
     -7.162  0.0000E+00  0.0000E+00  0.4000E+01  0.4000E+01
     -6.963  0.0000E+00  0.0000E+00  0.4000E+01  0.4000E+01
     -6.764  0.0000E+00  0.0000E+00  0.4000E+01  0.4000E+01
     -6.564  0.0000E+00  0.0000E+00  0.4000E+01  0.4000E+01
     -6.365  0.0000E+00  0.0000E+00  0.4000E+01  0.4000E+01
     -6.166  0.0000E+00  0.0000E+00  0.4000E+01  0.4000E+01
     -5.967  0.0000E+00  0.0000E+00  0.4000E+01  0.4000E+01
     -5.768  0.0000E+00  0.0000E+00  0.4000E+01  0.4000E+01
     -5.568  0.0000E+00  0.0000E+00  0.4000E+01  0.4000E+01
     -5.369  0.0000E+00  0.0000E+00  0.4000E+01  0.4000E+01
     -5.170  0.0000E+00  0.0000E+00  0.4000E+01  0.4000E+01
     -4.971  0.0000E+00  0.0000E+00  0.4000E+01  0.4000E+01
     -4.772  0.0000E+00  0.0000E+00  0.4000E+01  0.4000E+01
     -4.572  0.0000E+00  0.0000E+00  0.4000E+01  0.4000E+01
     -4.373  0.0000E+00  0.0000E+00  0.4000E+01  0.4000E+01
     -4.174  0.0000E+00  0.0000E+00  0.4000E+01  0.4000E+01
     -3.975  0.0000E+00  0.0000E+00  0.4000E+01  0.4000E+01
     -3.776  0.0000E+00  0.0000E+00  0.4000E+01  0.4000E+01
     -3.576  0.0000E+00  0.0000E+00  0.4000E+01  0.4000E+01
     -3.377  0.0000E+00  0.0000E+00  0.4000E+01  0.4000E+01
     -3.178  0.0000E+00  0.0000E+00  0.4000E+01  0.4000E+01
     -2.979  0.0000E+00  0.0000E+00  0.4000E+01  0.4000E+01
     -2.780  0.0000E+00  0.0000E+00  0.4000E+01  0.4000E+01
     -2.580  0.0000E+00  0.0000E+00  0.4000E+01  0.4000E+01
     -2.381  0.0000E+00  0.0000E+00  0.4000E+01  0.4000E+01
     -2.182  0.0000E+00  0.0000E+00  0.4000E+01  0.4000E+01
     -1.983  0.0000E+00  0.0000E+00  0.4000E+01  0.4000E+01
     -1.784  0.0000E+00  0.0000E+00  0.4000E+01  0.4000E+01
     -1.584  0.0000E+00  0.0000E+00  0.4000E+01  0.4000E+01
     -1.385  0.0000E+00  0.0000E+00  0.4000E+01  0.4000E+01
     -1.186  0.0000E+00  0.0000E+00  0.4000E+01  0.4000E+01
     -0.987  0.0000E+00  0.0000E+00  0.4000E+01  0.4000E+01
     -0.788  0.0000E+00  0.0000E+00  0.4000E+01  0.4000E+01
     -0.588  0.3243E-06  0.3234E-06  0.4000E+01  0.4000E+01
     -0.389  0.2350E-04  0.2344E-04  0.4000E+01  0.4000E+01
     -0.190  0.1193E-02  0.1190E-02  0.4000E+01  0.4000E+01
      0.009  0.2362E-01  0.2359E-01  0.4005E+01  0.4005E+01
      0.208  0.6894E-01  0.6890E-01  0.4019E+01  0.4019E+01
      0.408  0.1036E+00  0.1036E+00  0.4039E+01  0.4039E+01
      0.607  0.1378E+00  0.1378E+00  0.4067E+01  0.4067E+01
      0.806  0.1564E+00  0.1564E+00  0.4098E+01  0.4098E+01
      1.005  0.1610E+00  0.1610E+00  0.4130E+01  0.4130E+01
      1.204  0.2285E+00  0.2285E+00  0.4176E+01  0.4176E+01
      1.404  0.2001E+00  0.2001E+00  0.4216E+01  0.4216E+01
      1.603  0.2623E+00  0.2622E+00  0.4268E+01  0.4268E+01
      1.802  0.2956E+00  0.2956E+00  0.4327E+01  0.4327E+01
      2.001  0.2907E+00  0.2906E+00  0.4385E+01  0.4385E+01
      2.200  0.3367E+00  0.3366E+00  0.4453E+01  0.4453E+01
      2.400  0.4520E+00  0.4519E+00  0.4543E+01  0.4543E+01
      2.599  0.4196E+00  0.4196E+00  0.4627E+01  0.4627E+01
      2.798  0.4434E+00  0.4434E+00  0.4716E+01  0.4716E+01
      2.997  0.3938E+00  0.3938E+00  0.4794E+01  0.4794E+01
      3.196  0.4644E+00  0.4645E+00  0.4887E+01  0.4887E+01
      3.396  0.3705E+00  0.3704E+00  0.4961E+01  0.4961E+01
      3.595  0.2467E+00  0.2468E+00  0.5011E+01  0.5011E+01
      3.794  0.2918E+00  0.2919E+00  0.5069E+01  0.5069E+01
      3.993  0.3165E+00  0.3164E+00  0.5133E+01  0.5133E+01
      4.192  0.3879E+00  0.3880E+00  0.5210E+01  0.5210E+01
      4.392  0.3536E+00  0.3536E+00  0.5281E+01  0.5281E+01
      4.591  0.3704E+00  0.3702E+00  0.5355E+01  0.5355E+01
      4.790  0.5656E+00  0.5655E+00  0.5468E+01  0.5468E+01
      4.989  0.5530E+00  0.5530E+00  0.5578E+01  0.5578E+01
      5.189  0.6965E+00  0.6970E+00  0.5718E+01  0.5718E+01
      5.388  0.7919E+00  0.7919E+00  0.5876E+01  0.5876E+01
      5.587  0.7816E+00  0.7814E+00  0.6032E+01  0.6032E+01
      5.786  0.7424E+00  0.7425E+00  0.6180E+01  0.6180E+01
      5.985  0.6654E+00  0.6655E+00  0.6314E+01  0.6314E+01
      6.185  0.6350E+00  0.6351E+00  0.6441E+01  0.6441E+01
      6.384  0.5184E+00  0.5185E+00  0.6545E+01  0.6545E+01
      6.583  0.5806E+00  0.5805E+00  0.6661E+01  0.6661E+01
      6.782  0.7494E+00  0.7492E+00  0.6811E+01  0.6811E+01
      6.981  0.7187E+00  0.7189E+00  0.6954E+01  0.6954E+01
      7.181  0.6984E+00  0.6981E+00  0.7094E+01  0.7094E+01
      7.380  0.9284E+00  0.9285E+00  0.7280E+01  0.7279E+01
      7.579  0.6384E+00  0.6384E+00  0.7407E+01  0.7407E+01
      7.778  0.8629E+00  0.8626E+00  0.7580E+01  0.7580E+01
      7.977  0.1298E+01  0.1298E+01  0.7839E+01  0.7839E+01
      8.177  0.1766E+01  0.1766E+01  0.8192E+01  0.8191E+01
      8.376  0.1574E+01  0.1574E+01  0.8507E+01  0.8506E+01
      8.575  0.1494E+01  0.1494E+01  0.8805E+01  0.8805E+01
      8.774  0.1087E+01  0.1087E+01  0.9023E+01  0.9023E+01
      8.973  0.1045E+01  0.1045E+01  0.9233E+01  0.9233E+01
      9.173  0.7844E+00  0.7846E+00  0.9390E+01  0.9390E+01
      9.372  0.6465E+00  0.6465E+00  0.9520E+01  0.9520E+01
      9.571  0.6524E+00  0.6526E+00  0.9651E+01  0.9651E+01
      9.770  0.5685E+00  0.5684E+00  0.9765E+01  0.9765E+01
      9.969  0.5256E+00  0.5260E+00  0.9870E+01  0.9870E+01
     10.169  0.4572E+00  0.4569E+00  0.9962E+01  0.9962E+01
     10.368  0.6069E+00  0.6072E+00  0.1008E+02  0.1008E+02
     10.567  0.2013E+00  0.2014E+00  0.1012E+02  0.1012E+02
     10.766  0.4119E+00  0.4116E+00  0.1021E+02  0.1021E+02
     10.965  0.6021E+00  0.6021E+00  0.1033E+02  0.1033E+02
     11.165  0.6184E+00  0.6180E+00  0.1045E+02  0.1045E+02
     11.364  0.8229E+00  0.8230E+00  0.1061E+02  0.1061E+02
     11.563  0.8841E+00  0.8837E+00  0.1079E+02  0.1079E+02
     11.762  0.9343E+00  0.9348E+00  0.1098E+02  0.1098E+02
     11.961  0.7450E+00  0.7448E+00  0.1113E+02  0.1113E+02
     12.161  0.8585E+00  0.8585E+00  0.1130E+02  0.1130E+02
     12.360  0.1024E+01  0.1024E+01  0.1150E+02  0.1150E+02
     12.559  0.9776E+00  0.9780E+00  0.1170E+02  0.1170E+02
     12.758  0.9092E+00  0.9092E+00  0.1188E+02  0.1188E+02
     12.957  0.1177E+01  0.1177E+01  0.1212E+02  0.1212E+02
     13.157  0.1413E+01  0.1414E+01  0.1240E+02  0.1240E+02
     13.356  0.1719E+01  0.1718E+01  0.1274E+02  0.1274E+02
     13.555  0.1368E+01  0.1368E+01  0.1302E+02  0.1302E+02
     13.754  0.1043E+01  0.1043E+01  0.1323E+02  0.1323E+02
     13.953  0.1158E+01  0.1158E+01  0.1346E+02  0.1346E+02
     14.153  0.8848E+00  0.8849E+00  0.1363E+02  0.1363E+02
     14.352  0.8559E+00  0.8558E+00  0.1381E+02  0.1381E+02
     14.551  0.1234E+01  0.1234E+01  0.1405E+02  0.1405E+02
     14.750  0.1084E+01  0.1084E+01  0.1427E+02  0.1427E+02
     14.949  0.9160E+00  0.9160E+00  0.1445E+02  0.1445E+02
     15.149  0.9377E+00  0.9379E+00  0.1464E+02  0.1464E+02
     15.348  0.1027E+01  0.1027E+01  0.1485E+02  0.1485E+02
     15.547  0.1099E+01  0.1102E+01  0.1507E+02  0.1507E+02
     15.746  0.9436E+00  0.9441E+00  0.1525E+02  0.1526E+02
     15.946  0.1023E+01  0.1029E+01  0.1546E+02  0.1546E+02
     16.145  0.9056E+00  0.9381E+00  0.1564E+02  0.1565E+02
     16.344  0.7625E+00  0.7248E+00  0.1579E+02  0.1579E+02
     16.543  0.6411E+00  0.6310E+00  0.1592E+02  0.1592E+02
     16.742  0.2833E+00  0.2886E+00  0.1598E+02  0.1598E+02
     16.942  0.5346E-01  0.5645E-01  0.1599E+02  0.1599E+02
     17.141  0.3747E-01  0.3538E-01  0.1600E+02  0.1600E+02
     17.340  0.1227E-01  0.1185E-01  0.1600E+02  0.1600E+02
     17.539  0.9747E-03  0.9708E-03  0.1600E+02  0.1600E+02
     17.738  0.0000E+00  0.0000E+00  0.1600E+02  0.1600E+02
     17.938  0.0000E+00  0.0000E+00  0.1600E+02  0.1600E+02
     18.137  0.0000E+00  0.0000E+00  0.1600E+02  0.1600E+02
     18.336  0.0000E+00  0.0000E+00  0.1600E+02  0.1600E+02
     18.535  0.0000E+00  0.0000E+00  0.1600E+02  0.1600E+02
     18.734  0.0000E+00  0.0000E+00  0.1600E+02  0.1600E+02
     18.934  0.0000E+00  0.0000E+00  0.1600E+02  0.1600E+02
     19.133  0.0000E+00  0.0000E+00  0.1600E+02  0.1600E+02
     19.332  0.0000E+00  0.0000E+00  0.1600E+02  0.1600E+02
     19.531  0.0000E+00  0.0000E+00  0.1600E+02  0.1600E+02
     19.730  0.0000E+00  0.0000E+00  0.1600E+02  0.1600E+02
     19.930  0.0000E+00  0.0000E+00  0.1600E+02  0.1600E+02
     19.92957103    -39.83146200  301     11.22333125      1.00000000
    -39.831  0.0000E+00  0.0000E+00  0.0000E+00  0.0000E+00  0.0000E+00  0.0000E+00  0.0000E+00  0.0000E+00  0.0000E+00  0.0000E+00  0.0000E+00  0.0000E+00  0.0000E+00  0.0000E+00  0.0000E+00  0.0000E+00  0.0000E+00  0.0000E+00
    -39.632  0.0000E+00  0.0000E+00  0.0000E+00  0.0000E+00  0.0000E+00  0.0000E+00  0.0000E+00  0.0000E+00  0.0000E+00  0.0000E+00  0.0000E+00  0.0000E+00  0.0000E+00  0.0000E+00  0.0000E+00  0.0000E+00  0.0000E+00  0.0000E+00
    -39.433  0.0000E+00  0.0000E+00  0.0000E+00  0.0000E+00  0.0000E+00  0.0000E+00  0.0000E+00  0.0000E+00  0.0000E+00  0.0000E+00  0.0000E+00  0.0000E+00  0.0000E+00  0.0000E+00  0.0000E+00  0.0000E+00  0.0000E+00  0.0000E+00
    -39.234  0.0000E+00  0.0000E+00  0.0000E+00  0.0000E+00  0.0000E+00  0.0000E+00  0.0000E+00  0.0000E+00  0.0000E+00  0.0000E+00  0.0000E+00  0.0000E+00  0.0000E+00  0.0000E+00  0.0000E+00  0.0000E+00  0.0000E+00  0.0000E+00
    -39.035  0.0000E+00  0.0000E+00  0.0000E+00  0.0000E+00  0.0000E+00  0.0000E+00  0.0000E+00  0.0000E+00  0.0000E+00  0.0000E+00  0.0000E+00  0.0000E+00  0.0000E+00  0.0000E+00  0.0000E+00  0.0000E+00  0.0000E+00  0.0000E+00
    -38.835  0.0000E+00  0.0000E+00  0.0000E+00  0.0000E+00  0.0000E+00  0.0000E+00  0.0000E+00  0.0000E+00  0.0000E+00  0.0000E+00  0.0000E+00  0.0000E+00  0.0000E+00  0.0000E+00  0.0000E+00  0.0000E+00  0.0000E+00  0.0000E+00
    -38.636  0.0000E+00  0.0000E+00  0.0000E+00  0.0000E+00  0.0000E+00  0.0000E+00  0.0000E+00  0.0000E+00  0.0000E+00  0.0000E+00  0.0000E+00  0.0000E+00  0.0000E+00  0.0000E+00  0.0000E+00  0.0000E+00  0.0000E+00  0.0000E+00
    -38.437  0.0000E+00  0.0000E+00  0.0000E+00  0.0000E+00  0.0000E+00  0.0000E+00  0.0000E+00  0.0000E+00  0.0000E+00  0.0000E+00  0.0000E+00  0.0000E+00  0.0000E+00  0.0000E+00  0.0000E+00  0.0000E+00  0.0000E+00  0.0000E+00
    -38.238  0.0000E+00  0.0000E+00  0.0000E+00  0.0000E+00  0.0000E+00  0.0000E+00  0.0000E+00  0.0000E+00  0.0000E+00  0.0000E+00  0.0000E+00  0.0000E+00  0.0000E+00  0.0000E+00  0.0000E+00  0.0000E+00  0.0000E+00  0.0000E+00
    -38.039  0.0000E+00  0.0000E+00  0.0000E+00  0.0000E+00  0.0000E+00  0.0000E+00  0.0000E+00  0.0000E+00  0.0000E+00  0.0000E+00  0.0000E+00  0.0000E+00  0.0000E+00  0.0000E+00  0.0000E+00  0.0000E+00  0.0000E+00  0.0000E+00
    -37.839  0.0000E+00  0.0000E+00  0.0000E+00  0.0000E+00  0.0000E+00  0.0000E+00  0.0000E+00  0.0000E+00  0.0000E+00  0.0000E+00  0.0000E+00  0.0000E+00  0.0000E+00  0.0000E+00  0.0000E+00  0.0000E+00  0.0000E+00  0.0000E+00
    -37.640  0.1140E-03  0.1138E-03  0.4443E-11  0.4430E-11  0.4443E-11  0.4430E-11  0.4482E-11  0.4469E-11  0.4913E-14  0.5059E-14  0.4859E-14  0.5006E-14  0.5071E-11  0.5113E-11  0.4913E-14  0.5059E-14  0.5152E-11  0.5197E-11
    -37.441  0.6006E-02  0.5992E-02  0.2340E-09  0.2333E-09  0.2340E-09  0.2333E-09  0.2361E-09  0.2354E-09  0.2588E-12  0.2665E-12  0.2559E-12  0.2637E-12  0.2671E-09  0.2693E-09  0.2588E-12  0.2665E-12  0.2713E-09  0.2737E-09
    -37.242  0.3026E+00  0.3020E+00  0.1179E-07  0.1176E-07  0.1179E-07  0.1176E-07  0.1189E-07  0.1186E-07  0.1304E-10  0.1343E-10  0.1290E-10  0.1329E-10  0.1346E-07  0.1358E-07  0.1304E-10  0.1343E-10  0.1367E-07  0.1379E-07
    -37.043  0.3574E+01  0.3573E+01  0.1389E-06  0.1388E-06  0.1389E-06  0.1388E-06  0.1401E-06  0.1400E-06  0.1543E-09  0.1595E-09  0.1526E-09  0.1578E-09  0.1596E-06  0.1612E-06  0.1543E-09  0.1595E-09  0.1612E-06  0.1629E-06
    -36.843  0.1071E+01  0.1073E+01  0.4146E-07  0.4153E-07  0.4146E-07  0.4153E-07  0.4182E-07  0.4190E-07  0.4628E-10  0.4801E-10  0.4577E-10  0.4752E-10  0.4792E-07  0.4851E-07  0.4628E-10  0.4801E-10  0.4810E-07  0.4872E-07
    -36.644  0.0000E+00  0.0000E+00  0.0000E+00  0.0000E+00  0.0000E+00  0.0000E+00  0.0000E+00  0.0000E+00  0.0000E+00  0.0000E+00  0.0000E+00  0.0000E+00  0.0000E+00  0.0000E+00  0.0000E+00  0.0000E+00  0.0000E+00  0.0000E+00
    -36.445  0.0000E+00  0.0000E+00  0.0000E+00  0.0000E+00  0.0000E+00  0.0000E+00  0.0000E+00  0.0000E+00  0.0000E+00  0.0000E+00  0.0000E+00  0.0000E+00  0.0000E+00  0.0000E+00  0.0000E+00  0.0000E+00  0.0000E+00  0.0000E+00
    -36.246  0.0000E+00  0.0000E+00  0.0000E+00  0.0000E+00  0.0000E+00  0.0000E+00  0.0000E+00  0.0000E+00  0.0000E+00  0.0000E+00  0.0000E+00  0.0000E+00  0.0000E+00  0.0000E+00  0.0000E+00  0.0000E+00  0.0000E+00  0.0000E+00
    -36.047  0.0000E+00  0.0000E+00  0.0000E+00  0.0000E+00  0.0000E+00  0.0000E+00  0.0000E+00  0.0000E+00  0.0000E+00  0.0000E+00  0.0000E+00  0.0000E+00  0.0000E+00  0.0000E+00  0.0000E+00  0.0000E+00  0.0000E+00  0.0000E+00
    -35.847  0.0000E+00  0.0000E+00  0.0000E+00  0.0000E+00  0.0000E+00  0.0000E+00  0.0000E+00  0.0000E+00  0.0000E+00  0.0000E+00  0.0000E+00  0.0000E+00  0.0000E+00  0.0000E+00  0.0000E+00  0.0000E+00  0.0000E+00  0.0000E+00
    -35.648  0.0000E+00  0.0000E+00  0.0000E+00  0.0000E+00  0.0000E+00  0.0000E+00  0.0000E+00  0.0000E+00  0.0000E+00  0.0000E+00  0.0000E+00  0.0000E+00  0.0000E+00  0.0000E+00  0.0000E+00  0.0000E+00  0.0000E+00  0.0000E+00
    -35.449  0.0000E+00  0.0000E+00  0.0000E+00  0.0000E+00  0.0000E+00  0.0000E+00  0.0000E+00  0.0000E+00  0.0000E+00  0.0000E+00  0.0000E+00  0.0000E+00  0.0000E+00  0.0000E+00  0.0000E+00  0.0000E+00  0.0000E+00  0.0000E+00
    -35.250  0.0000E+00  0.0000E+00  0.0000E+00  0.0000E+00  0.0000E+00  0.0000E+00  0.0000E+00  0.0000E+00  0.0000E+00  0.0000E+00  0.0000E+00  0.0000E+00  0.0000E+00  0.0000E+00  0.0000E+00  0.0000E+00  0.0000E+00  0.0000E+00
    -35.051  0.0000E+00  0.0000E+00  0.0000E+00  0.0000E+00  0.0000E+00  0.0000E+00  0.0000E+00  0.0000E+00  0.0000E+00  0.0000E+00  0.0000E+00  0.0000E+00  0.0000E+00  0.0000E+00  0.0000E+00  0.0000E+00  0.0000E+00  0.0000E+00
    -34.851  0.0000E+00  0.0000E+00  0.0000E+00  0.0000E+00  0.0000E+00  0.0000E+00  0.0000E+00  0.0000E+00  0.0000E+00  0.0000E+00  0.0000E+00  0.0000E+00  0.0000E+00  0.0000E+00  0.0000E+00  0.0000E+00  0.0000E+00  0.0000E+00
    -34.652  0.0000E+00  0.0000E+00  0.0000E+00  0.0000E+00  0.0000E+00  0.0000E+00  0.0000E+00  0.0000E+00  0.0000E+00  0.0000E+00  0.0000E+00  0.0000E+00  0.0000E+00  0.0000E+00  0.0000E+00  0.0000E+00  0.0000E+00  0.0000E+00
    -34.453  0.0000E+00  0.0000E+00  0.0000E+00  0.0000E+00  0.0000E+00  0.0000E+00  0.0000E+00  0.0000E+00  0.0000E+00  0.0000E+00  0.0000E+00  0.0000E+00  0.0000E+00  0.0000E+00  0.0000E+00  0.0000E+00  0.0000E+00  0.0000E+00
    -34.254  0.0000E+00  0.0000E+00  0.0000E+00  0.0000E+00  0.0000E+00  0.0000E+00  0.0000E+00  0.0000E+00  0.0000E+00  0.0000E+00  0.0000E+00  0.0000E+00  0.0000E+00  0.0000E+00  0.0000E+00  0.0000E+00  0.0000E+00  0.0000E+00
    -34.055  0.0000E+00  0.0000E+00  0.0000E+00  0.0000E+00  0.0000E+00  0.0000E+00  0.0000E+00  0.0000E+00  0.0000E+00  0.0000E+00  0.0000E+00  0.0000E+00  0.0000E+00  0.0000E+00  0.0000E+00  0.0000E+00  0.0000E+00  0.0000E+00
    -33.855  0.0000E+00  0.0000E+00  0.0000E+00  0.0000E+00  0.0000E+00  0.0000E+00  0.0000E+00  0.0000E+00  0.0000E+00  0.0000E+00  0.0000E+00  0.0000E+00  0.0000E+00  0.0000E+00  0.0000E+00  0.0000E+00  0.0000E+00  0.0000E+00
    -33.656  0.0000E+00  0.0000E+00  0.0000E+00  0.0000E+00  0.0000E+00  0.0000E+00  0.0000E+00  0.0000E+00  0.0000E+00  0.0000E+00  0.0000E+00  0.0000E+00  0.0000E+00  0.0000E+00  0.0000E+00  0.0000E+00  0.0000E+00  0.0000E+00
    -33.457  0.0000E+00  0.0000E+00  0.0000E+00  0.0000E+00  0.0000E+00  0.0000E+00  0.0000E+00  0.0000E+00  0.0000E+00  0.0000E+00  0.0000E+00  0.0000E+00  0.0000E+00  0.0000E+00  0.0000E+00  0.0000E+00  0.0000E+00  0.0000E+00
    -33.258  0.0000E+00  0.0000E+00  0.0000E+00  0.0000E+00  0.0000E+00  0.0000E+00  0.0000E+00  0.0000E+00  0.0000E+00  0.0000E+00  0.0000E+00  0.0000E+00  0.0000E+00  0.0000E+00  0.0000E+00  0.0000E+00  0.0000E+00  0.0000E+00
    -33.059  0.0000E+00  0.0000E+00  0.0000E+00  0.0000E+00  0.0000E+00  0.0000E+00  0.0000E+00  0.0000E+00  0.0000E+00  0.0000E+00  0.0000E+00  0.0000E+00  0.0000E+00  0.0000E+00  0.0000E+00  0.0000E+00  0.0000E+00  0.0000E+00
    -32.859  0.0000E+00  0.0000E+00  0.0000E+00  0.0000E+00  0.0000E+00  0.0000E+00  0.0000E+00  0.0000E+00  0.0000E+00  0.0000E+00  0.0000E+00  0.0000E+00  0.0000E+00  0.0000E+00  0.0000E+00  0.0000E+00  0.0000E+00  0.0000E+00
    -32.660  0.0000E+00  0.0000E+00  0.0000E+00  0.0000E+00  0.0000E+00  0.0000E+00  0.0000E+00  0.0000E+00  0.0000E+00  0.0000E+00  0.0000E+00  0.0000E+00  0.0000E+00  0.0000E+00  0.0000E+00  0.0000E+00  0.0000E+00  0.0000E+00
    -32.461  0.0000E+00  0.0000E+00  0.0000E+00  0.0000E+00  0.0000E+00  0.0000E+00  0.0000E+00  0.0000E+00  0.0000E+00  0.0000E+00  0.0000E+00  0.0000E+00  0.0000E+00  0.0000E+00  0.0000E+00  0.0000E+00  0.0000E+00  0.0000E+00
    -32.262  0.0000E+00  0.0000E+00  0.0000E+00  0.0000E+00  0.0000E+00  0.0000E+00  0.0000E+00  0.0000E+00  0.0000E+00  0.0000E+00  0.0000E+00  0.0000E+00  0.0000E+00  0.0000E+00  0.0000E+00  0.0000E+00  0.0000E+00  0.0000E+00
    -32.063  0.0000E+00  0.0000E+00  0.0000E+00  0.0000E+00  0.0000E+00  0.0000E+00  0.0000E+00  0.0000E+00  0.0000E+00  0.0000E+00  0.0000E+00  0.0000E+00  0.0000E+00  0.0000E+00  0.0000E+00  0.0000E+00  0.0000E+00  0.0000E+00
    -31.863  0.0000E+00  0.0000E+00  0.0000E+00  0.0000E+00  0.0000E+00  0.0000E+00  0.0000E+00  0.0000E+00  0.0000E+00  0.0000E+00  0.0000E+00  0.0000E+00  0.0000E+00  0.0000E+00  0.0000E+00  0.0000E+00  0.0000E+00  0.0000E+00
    -31.664  0.0000E+00  0.0000E+00  0.0000E+00  0.0000E+00  0.0000E+00  0.0000E+00  0.0000E+00  0.0000E+00  0.0000E+00  0.0000E+00  0.0000E+00  0.0000E+00  0.0000E+00  0.0000E+00  0.0000E+00  0.0000E+00  0.0000E+00  0.0000E+00
    -31.465  0.0000E+00  0.0000E+00  0.0000E+00  0.0000E+00  0.0000E+00  0.0000E+00  0.0000E+00  0.0000E+00  0.0000E+00  0.0000E+00  0.0000E+00  0.0000E+00  0.0000E+00  0.0000E+00  0.0000E+00  0.0000E+00  0.0000E+00  0.0000E+00
    -31.266  0.0000E+00  0.0000E+00  0.0000E+00  0.0000E+00  0.0000E+00  0.0000E+00  0.0000E+00  0.0000E+00  0.0000E+00  0.0000E+00  0.0000E+00  0.0000E+00  0.0000E+00  0.0000E+00  0.0000E+00  0.0000E+00  0.0000E+00  0.0000E+00
    -31.067  0.0000E+00  0.0000E+00  0.0000E+00  0.0000E+00  0.0000E+00  0.0000E+00  0.0000E+00  0.0000E+00  0.0000E+00  0.0000E+00  0.0000E+00  0.0000E+00  0.0000E+00  0.0000E+00  0.0000E+00  0.0000E+00  0.0000E+00  0.0000E+00
    -30.867  0.0000E+00  0.0000E+00  0.0000E+00  0.0000E+00  0.0000E+00  0.0000E+00  0.0000E+00  0.0000E+00  0.0000E+00  0.0000E+00  0.0000E+00  0.0000E+00  0.0000E+00  0.0000E+00  0.0000E+00  0.0000E+00  0.0000E+00  0.0000E+00
    -30.668  0.0000E+00  0.0000E+00  0.0000E+00  0.0000E+00  0.0000E+00  0.0000E+00  0.0000E+00  0.0000E+00  0.0000E+00  0.0000E+00  0.0000E+00  0.0000E+00  0.0000E+00  0.0000E+00  0.0000E+00  0.0000E+00  0.0000E+00  0.0000E+00
    -30.469  0.0000E+00  0.0000E+00  0.0000E+00  0.0000E+00  0.0000E+00  0.0000E+00  0.0000E+00  0.0000E+00  0.0000E+00  0.0000E+00  0.0000E+00  0.0000E+00  0.0000E+00  0.0000E+00  0.0000E+00  0.0000E+00  0.0000E+00  0.0000E+00
    -30.270  0.0000E+00  0.0000E+00  0.0000E+00  0.0000E+00  0.0000E+00  0.0000E+00  0.0000E+00  0.0000E+00  0.0000E+00  0.0000E+00  0.0000E+00  0.0000E+00  0.0000E+00  0.0000E+00  0.0000E+00  0.0000E+00  0.0000E+00  0.0000E+00
    -30.070  0.0000E+00  0.0000E+00  0.0000E+00  0.0000E+00  0.0000E+00  0.0000E+00  0.0000E+00  0.0000E+00  0.0000E+00  0.0000E+00  0.0000E+00  0.0000E+00  0.0000E+00  0.0000E+00  0.0000E+00  0.0000E+00  0.0000E+00  0.0000E+00
    -29.871  0.0000E+00  0.0000E+00  0.0000E+00  0.0000E+00  0.0000E+00  0.0000E+00  0.0000E+00  0.0000E+00  0.0000E+00  0.0000E+00  0.0000E+00  0.0000E+00  0.0000E+00  0.0000E+00  0.0000E+00  0.0000E+00  0.0000E+00  0.0000E+00