   4   4   1   0
  0.1482368E+02  0.3898600E-09  0.3899902E-09  0.3899902E-09  0.5000000E-15
  1.000000000000000E-004
  CAR 
 unknown system                          
     19.36934288    -40.30460347  301     10.83642288      1.00000000
    -40.305  0.0000E+00  0.0000E+00  0.0000E+00  0.0000E+00
    -40.106  0.0000E+00  0.0000E+00  0.0000E+00  0.0000E+00
    -39.907  0.0000E+00  0.0000E+00  0.0000E+00  0.0000E+00
    -39.708  0.0000E+00  0.0000E+00  0.0000E+00  0.0000E+00
    -39.509  0.0000E+00  0.0000E+00  0.0000E+00  0.0000E+00
    -39.310  0.0000E+00  0.0000E+00  0.0000E+00  0.0000E+00
    -39.111  0.0000E+00  0.0000E+00  0.0000E+00  0.0000E+00
    -38.912  0.0000E+00  0.0000E+00  0.0000E+00  0.0000E+00
    -38.713  0.0000E+00  0.0000E+00  0.0000E+00  0.0000E+00
    -38.514  0.0000E+00  0.0000E+00  0.0000E+00  0.0000E+00
    -38.315  0.0000E+00  0.0000E+00  0.0000E+00  0.0000E+00
    -38.117  0.1203E-03  0.1199E-03  0.2392E-04  0.2384E-04
    -37.918  0.6297E-02  0.6275E-02  0.1276E-02  0.1272E-02
    -37.719  0.3148E+00  0.3138E+00  0.6390E-01  0.6370E-01
    -37.520  0.3622E+01  0.3620E+01  0.7844E+00  0.7838E+00
    -37.321  0.1058E+01  0.1061E+01  0.9949E+00  0.9949E+00
    -37.122  0.0000E+00  0.0000E+00  0.1000E+01  0.1000E+01
    -36.923  0.0000E+00  0.0000E+00  0.1000E+01  0.1000E+01
    -36.724  0.0000E+00  0.0000E+00  0.1000E+01  0.1000E+01
    -36.525  0.0000E+00  0.0000E+00  0.1000E+01  0.1000E+01
    -36.326  0.0000E+00  0.0000E+00  0.1000E+01  0.1000E+01
    -36.127  0.0000E+00  0.0000E+00  0.1000E+01  0.1000E+01
    -35.929  0.0000E+00  0.0000E+00  0.1000E+01  0.1000E+01
    -35.730  0.0000E+00  0.0000E+00  0.1000E+01  0.1000E+01
    -35.531  0.0000E+00  0.0000E+00  0.1000E+01  0.1000E+01
    -35.332  0.0000E+00  0.0000E+00  0.1000E+01  0.1000E+01
    -35.133  0.0000E+00  0.0000E+00  0.1000E+01  0.1000E+01
    -34.934  0.0000E+00  0.0000E+00  0.1000E+01  0.1000E+01
    -34.735  0.0000E+00  0.0000E+00  0.1000E+01  0.1000E+01
    -34.536  0.0000E+00  0.0000E+00  0.1000E+01  0.1000E+01
    -34.337  0.0000E+00  0.0000E+00  0.1000E+01  0.1000E+01
    -34.138  0.0000E+00  0.0000E+00  0.1000E+01  0.1000E+01
    -33.939  0.0000E+00  0.0000E+00  0.1000E+01  0.1000E+01
    -33.740  0.0000E+00  0.0000E+00  0.1000E+01  0.1000E+01
    -33.542  0.0000E+00  0.0000E+00  0.1000E+01  0.1000E+01
    -33.343  0.0000E+00  0.0000E+00  0.1000E+01  0.1000E+01
    -33.144  0.0000E+00  0.0000E+00  0.1000E+01  0.1000E+01
    -32.945  0.0000E+00  0.0000E+00  0.1000E+01  0.1000E+01
    -32.746  0.0000E+00  0.0000E+00  0.1000E+01  0.1000E+01
    -32.547  0.0000E+00  0.0000E+00  0.1000E+01  0.1000E+01
    -32.348  0.0000E+00  0.0000E+00  0.1000E+01  0.1000E+01
    -32.149  0.0000E+00  0.0000E+00  0.1000E+01  0.1000E+01
    -31.950  0.0000E+00  0.0000E+00  0.1000E+01  0.1000E+01
    -31.751  0.0000E+00  0.0000E+00  0.1000E+01  0.1000E+01
    -31.552  0.0000E+00  0.0000E+00  0.1000E+01  0.1000E+01
    -31.354  0.0000E+00  0.0000E+00  0.1000E+01  0.1000E+01
    -31.155  0.0000E+00  0.0000E+00  0.1000E+01  0.1000E+01
    -30.956  0.0000E+00  0.0000E+00  0.1000E+01  0.1000E+01
    -30.757  0.0000E+00  0.0000E+00  0.1000E+01  0.1000E+01
    -30.558  0.0000E+00  0.0000E+00  0.1000E+01  0.1000E+01
    -30.359  0.0000E+00  0.0000E+00  0.1000E+01  0.1000E+01
    -30.160  0.0000E+00  0.0000E+00  0.1000E+01  0.1000E+01
    -29.961  0.0000E+00  0.0000E+00  0.1000E+01  0.1000E+01
    -29.762  0.0000E+00  0.0000E+00  0.1000E+01  0.1000E+01
    -29.563  0.0000E+00  0.0000E+00  0.1000E+01  0.1000E+01
    -29.364  0.0000E+00  0.0000E+00  0.1000E+01  0.1000E+01
    -29.165  0.0000E+00  0.0000E+00  0.1000E+01  0.1000E+01
    -28.967  0.0000E+00  0.0000E+00  0.1000E+01  0.1000E+01
    -28.768  0.0000E+00  0.0000E+00  0.1000E+01  0.1000E+01
    -28.569  0.0000E+00  0.0000E+00  0.1000E+01  0.1000E+01
    -28.370  0.0000E+00  0.0000E+00  0.1000E+01  0.1000E+01
    -28.171  0.0000E+00  0.0000E+00  0.1000E+01  0.1000E+01
    -27.972  0.0000E+00  0.0000E+00  0.1000E+01  0.1000E+01
    -27.773  0.0000E+00  0.0000E+00  0.1000E+01  0.1000E+01
    -27.574  0.0000E+00  0.0000E+00  0.1000E+01  0.1000E+01
    -27.375  0.0000E+00  0.0000E+00  0.1000E+01  0.1000E+01
    -27.176  0.0000E+00  0.0000E+00  0.1000E+01  0.1000E+01
    -26.977  0.0000E+00  0.0000E+00  0.1000E+01  0.1000E+01
    -26.779  0.0000E+00  0.0000E+00  0.1000E+01  0.1000E+01
    -26.580  0.0000E+00  0.0000E+00  0.1000E+01  0.1000E+01
    -26.381  0.0000E+00  0.0000E+00  0.1000E+01  0.1000E+01
    -26.182  0.0000E+00  0.0000E+00  0.1000E+01  0.1000E+01
    -25.983  0.0000E+00  0.0000E+00  0.1000E+01  0.1000E+01
    -25.784  0.0000E+00  0.0000E+00  0.1000E+01  0.1000E+01
    -25.585  0.0000E+00  0.0000E+00  0.1000E+01  0.1000E+01
    -25.386  0.0000E+00  0.0000E+00  0.1000E+01  0.1000E+01
    -25.187  0.0000E+00  0.0000E+00  0.1000E+01  0.1000E+01
    -24.988  0.0000E+00  0.0000E+00  0.1000E+01  0.1000E+01
    -24.789  0.0000E+00  0.0000E+00  0.1000E+01  0.1000E+01
    -24.590  0.0000E+00  0.0000E+00  0.1000E+01  0.1000E+01
    -24.392  0.0000E+00  0.0000E+00  0.1000E+01  0.1000E+01
    -24.193  0.0000E+00  0.0000E+00  0.1000E+01  0.1000E+01
    -23.994  0.0000E+00  0.0000E+00  0.1000E+01  0.1000E+01
    -23.795  0.0000E+00  0.0000E+00  0.1000E+01  0.1000E+01
    -23.596  0.0000E+00  0.0000E+00  0.1000E+01  0.1000E+01
    -23.397  0.0000E+00  0.0000E+00  0.1000E+01  0.1000E+01
    -23.198  0.0000E+00  0.0000E+00  0.1000E+01  0.1000E+01
    -22.999  0.0000E+00  0.0000E+00  0.1000E+01  0.1000E+01
    -22.800  0.0000E+00  0.0000E+00  0.1000E+01  0.1000E+01
    -22.601  0.0000E+00  0.0000E+00  0.1000E+01  0.1000E+01
    -22.402  0.0000E+00  0.0000E+00  0.1000E+01  0.1000E+01
    -22.204  0.0000E+00  0.0000E+00  0.1000E+01  0.1000E+01
    -22.005  0.0000E+00  0.0000E+00  0.1000E+01  0.1000E+01
    -21.806  0.0000E+00  0.0000E+00  0.1000E+01  0.1000E+01
    -21.607  0.0000E+00  0.0000E+00  0.1000E+01  0.1000E+01
    -21.408  0.0000E+00  0.0000E+00  0.1000E+01  0.1000E+01
    -21.209  0.0000E+00  0.0000E+00  0.1000E+01  0.1000E+01
    -21.010  0.0000E+00  0.0000E+00  0.1000E+01  0.1000E+01
    -20.811  0.0000E+00  0.0000E+00  0.1000E+01  0.1000E+01
    -20.612  0.0000E+00  0.0000E+00  0.1000E+01  0.1000E+01
    -20.413  0.0000E+00  0.0000E+00  0.1000E+01  0.1000E+01
    -20.214  0.0000E+00  0.0000E+00  0.1000E+01  0.1000E+01
    -20.015  0.0000E+00  0.0000E+00  0.1000E+01  0.1000E+01
    -19.817  0.0000E+00  0.0000E+00  0.1000E+01  0.1000E+01
    -19.618  0.0000E+00  0.0000E+00  0.1000E+01  0.1000E+01
    -19.419  0.0000E+00  0.0000E+00  0.1000E+01  0.1000E+01
    -19.220  0.0000E+00  0.0000E+00  0.1000E+01  0.1000E+01
    -19.021  0.0000E+00  0.0000E+00  0.1000E+01  0.1000E+01
    -18.822  0.0000E+00  0.0000E+00  0.1000E+01  0.1000E+01
    -18.623  0.0000E+00  0.0000E+00  0.1000E+01  0.1000E+01
    -18.424  0.0000E+00  0.0000E+00  0.1000E+01  0.1000E+01
    -18.225  0.0000E+00  0.0000E+00  0.1000E+01  0.1000E+01
    -18.026  0.0000E+00  0.0000E+00  0.1000E+01  0.1000E+01
    -17.827  0.0000E+00  0.0000E+00  0.1000E+01  0.1000E+01
    -17.629  0.0000E+00  0.0000E+00  0.1000E+01  0.1000E+01
    -17.430  0.0000E+00  0.0000E+00  0.1000E+01  0.1000E+01
    -17.231  0.0000E+00  0.0000E+00  0.1000E+01  0.1000E+01
    -17.032  0.0000E+00  0.0000E+00  0.1000E+01  0.1000E+01
    -16.833  0.0000E+00  0.0000E+00  0.1000E+01  0.1000E+01
    -16.634  0.0000E+00  0.0000E+00  0.1000E+01  0.1000E+01
    -16.435  0.1436E-03  0.1427E-03  0.1000E+01  0.1000E+01
    -16.236  0.8699E-02  0.8660E-02  0.1002E+01  0.1002E+01
    -16.037  0.4416E+00  0.4397E+00  0.1090E+01  0.1089E+01
    -15.838  0.7666E+01  0.7653E+01  0.2614E+01  0.2612E+01
    -15.639  0.6649E+01  0.6662E+01  0.3937E+01  0.3937E+01
    -15.440  0.2426E+00  0.2443E+00  0.3999E+01  0.3999E+01
    -15.242  0.0000E+00  0.0000E+00  0.4000E+01  0.4000E+01
    -15.043  0.0000E+00  0.0000E+00  0.4000E+01  0.4000E+01
    -14.844  0.0000E+00  0.0000E+00  0.4000E+01  0.4000E+01
    -14.645  0.0000E+00  0.0000E+00  0.4000E+01  0.4000E+01
    -14.446  0.0000E+00  0.0000E+00  0.4000E+01  0.4000E+01
    -14.247  0.0000E+00  0.0000E+00  0.4000E+01  0.4000E+01
    -14.048  0.0000E+00  0.0000E+00  0.4000E+01  0.4000E+01
    -13.849  0.0000E+00  0.0000E+00  0.4000E+01  0.4000E+01
    -13.650  0.0000E+00  0.0000E+00  0.4000E+01  0.4000E+01
    -13.451  0.0000E+00  0.0000E+00  0.4000E+01  0.4000E+01
    -13.252  0.0000E+00  0.0000E+00  0.4000E+01  0.4000E+01
    -13.054  0.0000E+00  0.0000E+00  0.4000E+01  0.4000E+01
    -12.855  0.0000E+00  0.0000E+00  0.4000E+01  0.4000E+01
    -12.656  0.0000E+00  0.0000E+00  0.4000E+01  0.4000E+01
    -12.457  0.0000E+00  0.0000E+00  0.4000E+01  0.4000E+01
    -12.258  0.0000E+00  0.0000E+00  0.4000E+01  0.4000E+01
    -12.059  0.0000E+00  0.0000E+00  0.4000E+01  0.4000E+01
    -11.860  0.0000E+00  0.0000E+00  0.4000E+01  0.4000E+01
    -11.661  0.0000E+00  0.0000E+00  0.4000E+01  0.4000E+01
    -11.462  0.0000E+00  0.0000E+00  0.4000E+01  0.4000E+01
    -11.263  0.0000E+00  0.0000E+00  0.4000E+01  0.4000E+01
    -11.064  0.0000E+00  0.0000E+00  0.4000E+01  0.4000E+01
    -10.865  0.0000E+00  0.0000E+00  0.4000E+01  0.4000E+01
    -10.667  0.0000E+00  0.0000E+00  0.4000E+01  0.4000E+01
    -10.468  0.0000E+00  0.0000E+00  0.4000E+01  0.4000E+01
    -10.269  0.0000E+00  0.0000E+00  0.4000E+01  0.4000E+01
    -10.070  0.0000E+00  0.0000E+00  0.4000E+01  0.4000E+01
     -9.871  0.0000E+00  0.0000E+00  0.4000E+01  0.4000E+01
     -9.672  0.0000E+00  0.0000E+00  0.4000E+01  0.4000E+01
     -9.473  0.0000E+00  0.0000E+00  0.4000E+01  0.4000E+01
     -9.274  0.0000E+00  0.0000E+00  0.4000E+01  0.4000E+01
     -9.075  0.0000E+00  0.0000E+00  0.4000E+01  0.4000E+01
     -8.876  0.0000E+00  0.0000E+00  0.4000E+01  0.4000E+01
     -8.677  0.0000E+00  0.0000E+00  0.4000E+01  0.4000E+01
     -8.478  0.0000E+00  0.0000E+00  0.4000E+01  0.4000E+01
     -8.280  0.0000E+00  0.0000E+00  0.4000E+01  0.4000E+01
     -8.081  0.0000E+00  0.0000E+00  0.4000E+01  0.4000E+01
     -7.882  0.0000E+00  0.0000E+00  0.4000E+01  0.4000E+01
     -7.683  0.0000E+00  0.0000E+00  0.4000E+01  0.4000E+01
     -7.484  0.0000E+00  0.0000E+00  0.4000E+01  0.4000E+01
     -7.285  0.0000E+00  0.0000E+00  0.4000E+01  0.4000E+01
     -7.086  0.0000E+00  0.0000E+00  0.4000E+01  0.4000E+01
     -6.887  0.0000E+00  0.0000E+00  0.4000E+01  0.4000E+01
     -6.688  0.0000E+00  0.0000E+00  0.4000E+01  0.4000E+01
     -6.489  0.0000E+00  0.0000E+00  0.4000E+01  0.4000E+01
     -6.290  0.0000E+00  0.0000E+00  0.4000E+01  0.4000E+01
     -6.092  0.0000E+00  0.0000E+00  0.4000E+01  0.4000E+01
     -5.893  0.0000E+00  0.0000E+00  0.4000E+01  0.4000E+01
     -5.694  0.0000E+00  0.0000E+00  0.4000E+01  0.4000E+01
     -5.495  0.0000E+00  0.0000E+00  0.4000E+01  0.4000E+01
     -5.296  0.0000E+00  0.0000E+00  0.4000E+01  0.4000E+01
     -5.097  0.0000E+00  0.0000E+00  0.4000E+01  0.4000E+01
     -4.898  0.0000E+00  0.0000E+00  0.4000E+01  0.4000E+01
     -4.699  0.0000E+00  0.0000E+00  0.4000E+01  0.4000E+01
     -4.500  0.0000E+00  0.0000E+00  0.4000E+01  0.4000E+01
     -4.301  0.0000E+00  0.0000E+00  0.4000E+01  0.4000E+01
     -4.102  0.0000E+00  0.0000E+00  0.4000E+01  0.4000E+01
     -3.903  0.0000E+00  0.0000E+00  0.4000E+01  0.4000E+01
     -3.705  0.0000E+00  0.0000E+00  0.4000E+01  0.4000E+01
     -3.506  0.0000E+00  0.0000E+00  0.4000E+01  0.4000E+01
     -3.307  0.0000E+00  0.0000E+00  0.4000E+01  0.4000E+01
     -3.108  0.0000E+00  0.0000E+00  0.4000E+01  0.4000E+01
     -2.909  0.0000E+00  0.0000E+00  0.4000E+01  0.4000E+01
     -2.710  0.0000E+00  0.0000E+00  0.4000E+01  0.4000E+01
     -2.511  0.0000E+00  0.0000E+00  0.4000E+01  0.4000E+01
     -2.312  0.0000E+00  0.0000E+00  0.4000E+01  0.4000E+01
     -2.113  0.0000E+00  0.0000E+00  0.4000E+01  0.4000E+01
     -1.914  0.0000E+00  0.0000E+00  0.4000E+01  0.4000E+01
     -1.715  0.0000E+00  0.0000E+00  0.4000E+01  0.4000E+01
     -1.517  0.0000E+00  0.0000E+00  0.4000E+01  0.4000E+01
     -1.318  0.0000E+00  0.0000E+00  0.4000E+01  0.4000E+01
     -1.119  0.0000E+00  0.0000E+00  0.4000E+01  0.4000E+01
     -0.920  0.0000E+00  0.0000E+00  0.4000E+01  0.4000E+01
     -0.721  0.2152E-05  0.2144E-05  0.4000E+01  0.4000E+01
     -0.522  0.1192E-03  0.1188E-03  0.4000E+01  0.4000E+01
     -0.323  0.5058E-02  0.5043E-02  0.4001E+01  0.4001E+01
     -0.124  0.4441E-01  0.4437E-01  0.4010E+01  0.4010E+01
      0.075  0.9385E-01  0.9380E-01  0.4029E+01  0.4029E+01
      0.274  0.1116E+00  0.1116E+00  0.4051E+01  0.4051E+01
      0.473  0.1549E+00  0.1549E+00  0.4082E+01  0.4082E+01
      0.672  0.1652E+00  0.1652E+00  0.4115E+01  0.4115E+01
      0.870  0.2051E+00  0.2050E+00  0.4155E+01  0.4155E+01
      1.069  0.2281E+00  0.2281E+00  0.4201E+01  0.4201E+01
      1.268  0.2136E+00  0.2135E+00  0.4244E+01  0.4244E+01
      1.467  0.3049E+00  0.3049E+00  0.4305E+01  0.4305E+01
      1.666  0.2795E+00  0.2795E+00  0.4360E+01  0.4360E+01
      1.865  0.3376E+00  0.3376E+00  0.4428E+01  0.4428E+01
      2.064  0.4093E+00  0.4091E+00  0.4509E+01  0.4509E+01
      2.263  0.4572E+00  0.4573E+00  0.4601E+01  0.4600E+01
      2.462  0.4088E+00  0.4087E+00  0.4683E+01  0.4682E+01
      2.661  0.4009E+00  0.4010E+00  0.4763E+01  0.4763E+01
      2.860  0.4592E+00  0.4591E+00  0.4855E+01  0.4855E+01
      3.058  0.3875E+00  0.3876E+00  0.4932E+01  0.4932E+01
      3.257  0.3119E+00  0.3121E+00  0.4995E+01  0.4995E+01
      3.456  0.3056E+00  0.3056E+00  0.5056E+01  0.5056E+01
      3.655  0.3033E+00  0.3032E+00  0.5116E+01  0.5116E+01
      3.854  0.4059E+00  0.4059E+00  0.5197E+01  0.5197E+01
      4.053  0.3592E+00  0.3593E+00  0.5269E+01  0.5269E+01
      4.252  0.3601E+00  0.3599E+00  0.5341E+01  0.5341E+01
      4.451  0.5457E+00  0.5455E+00  0.5450E+01  0.5450E+01
      4.650  0.5748E+00  0.5749E+00  0.5564E+01  0.5564E+01
      4.849  0.6756E+00  0.6753E+00  0.5699E+01  0.5699E+01
      5.048  0.8379E+00  0.8380E+00  0.5866E+01  0.5866E+01
      5.247  0.7832E+00  0.7830E+00  0.6023E+01  0.6023E+01
      5.445  0.7352E+00  0.7354E+00  0.6169E+01  0.6169E+01
      5.644  0.6755E+00  0.6755E+00  0.6305E+01  0.6305E+01
      5.843  0.6375E+00  0.6375E+00  0.6432E+01  0.6432E+01
      6.042  0.5055E+00  0.5055E+00  0.6533E+01  0.6533E+01
      6.241  0.5787E+00  0.5787E+00  0.6649E+01  0.6649E+01
      6.440  0.7335E+00  0.7332E+00  0.6795E+01  0.6795E+01
      6.639  0.7204E+00  0.7205E+00  0.6939E+01  0.6938E+01
      6.838  0.6774E+00  0.6771E+00  0.7074E+01  0.7074E+01
      7.037  0.9494E+00  0.9495E+00  0.7263E+01  0.7263E+01
      7.236  0.6442E+00  0.6443E+00  0.7392E+01  0.7392E+01
      7.435  0.8565E+00  0.8561E+00  0.7564E+01  0.7563E+01
      7.633  0.1193E+01  0.1193E+01  0.7801E+01  0.7801E+01
      7.832  0.1801E+01  0.1801E+01  0.8161E+01  0.8160E+01
      8.031  0.1606E+01  0.1606E+01  0.8481E+01  0.8481E+01
      8.230  0.1522E+01  0.1522E+01  0.8785E+01  0.8785E+01
      8.429  0.1136E+01  0.1136E+01  0.9013E+01  0.9012E+01
      8.628  0.1058E+01  0.1058E+01  0.9225E+01  0.9224E+01
      8.827  0.8095E+00  0.8099E+00  0.9387E+01  0.9386E+01
      9.026  0.6417E+00  0.6416E+00  0.9515E+01  0.9515E+01
      9.225  0.6721E+00  0.6722E+00  0.9650E+01  0.9650E+01
      9.424  0.5819E+00  0.5820E+00  0.9766E+01  0.9766E+01
      9.623  0.5215E+00  0.5220E+00  0.9871E+01  0.9871E+01
      9.822  0.4833E+00  0.4829E+00  0.9967E+01  0.9967E+01
     10.020  0.6009E+00  0.6013E+00  0.1009E+02  0.1009E+02
     10.219  0.2073E+00  0.2073E+00  0.1013E+02  0.1013E+02
     10.418  0.4594E+00  0.4590E+00  0.1022E+02  0.1022E+02
     10.617  0.6042E+00  0.6044E+00  0.1034E+02  0.1034E+02
     10.816  0.7048E+00  0.7043E+00  0.1048E+02  0.1048E+02
     11.015  0.8143E+00  0.8145E+00  0.1064E+02  0.1064E+02
     11.214  0.1017E+01  0.1016E+01  0.1085E+02  0.1085E+02
     11.413  0.8526E+00  0.8530E+00  0.1102E+02  0.1102E+02
     11.612  0.8142E+00  0.8141E+00  0.1118E+02  0.1118E+02
     11.811  0.8969E+00  0.8969E+00  0.1136E+02  0.1136E+02
     12.010  0.1129E+01  0.1129E+01  0.1159E+02  0.1159E+02
     12.208  0.9523E+00  0.9526E+00  0.1178E+02  0.1178E+02
     12.407  0.1074E+01  0.1074E+01  0.1199E+02  0.1199E+02
     12.606  0.1312E+01  0.1312E+01  0.1225E+02  0.1225E+02
     12.805  0.1709E+01  0.1710E+01  0.1259E+02  0.1259E+02
     13.004  0.1603E+01  0.1603E+01  0.1291E+02  0.1291E+02
     13.203  0.1217E+01  0.1217E+01  0.1316E+02  0.1316E+02
     13.402  0.1079E+01  0.1078E+01  0.1337E+02  0.1337E+02
     13.601  0.1052E+01  0.1053E+01  0.1358E+02  0.1358E+02
     13.800  0.8574E+00  0.8574E+00  0.1375E+02  0.1375E+02
     13.999  0.1146E+01  0.1146E+01  0.1398E+02  0.1398E+02
     14.198  0.1161E+01  0.1162E+01  0.1422E+02  0.1421E+02
     14.397  0.9703E+00  0.9703E+00  0.1441E+02  0.1441E+02
     14.595  0.1000E+01  0.1000E+01  0.1461E+02  0.1461E+02
     14.794  0.1021E+01  0.1021E+01  0.1481E+02  0.1481E+02
     14.993  0.1130E+01  0.1133E+01  0.1504E+02  0.1504E+02
     15.192  0.9995E+00  0.9995E+00  0.1524E+02  0.1524E+02
     15.391  0.1031E+01  0.1031E+01  0.1544E+02  0.1545E+02
     15.590  0.9402E+00  0.9425E+00  0.1563E+02  0.1563E+02
     15.789  0.8108E+00  0.7997E+00  0.1579E+02  0.1579E+02
     15.988  0.6705E+00  0.6633E+00  0.1593E+02  0.1593E+02
     16.187  0.2473E+00  0.2591E+00  0.1598E+02  0.1598E+02
     16.386  0.6039E-01  0.5906E-01  0.1599E+02  0.1599E+02
     16.585  0.2711E-01  0.3038E-01  0.1600E+02  0.1600E+02
     16.783  0.1236E-01  0.1237E-01  0.1600E+02  0.1600E+02
     16.982  0.9725E-03  0.9782E-03  0.1600E+02  0.1600E+02
     17.181  0.0000E+00  0.0000E+00  0.1600E+02  0.1600E+02
     17.380  0.0000E+00  0.0000E+00  0.1600E+02  0.1600E+02
     17.579  0.0000E+00  0.0000E+00  0.1600E+02  0.1600E+02
     17.778  0.0000E+00  0.0000E+00  0.1600E+02  0.1600E+02
     17.977  0.0000E+00  0.0000E+00  0.1600E+02  0.1600E+02
     18.176  0.0000E+00  0.0000E+00  0.1600E+02  0.1600E+02
     18.375  0.0000E+00  0.0000E+00  0.1600E+02  0.1600E+02
     18.574  0.0000E+00  0.0000E+00  0.1600E+02  0.1600E+02
     18.773  0.0000E+00  0.0000E+00  0.1600E+02  0.1600E+02
     18.972  0.0000E+00  0.0000E+00  0.1600E+02  0.1600E+02
     19.170  0.0000E+00  0.0000E+00  0.1600E+02  0.1600E+02
     19.369  0.0000E+00  0.0000E+00  0.1600E+02  0.1600E+02
     19.36934288    -40.30460347  301     10.83642288      1.00000000
    -40.305  0.0000E+00  0.0000E+00  0.0000E+00  0.0000E+00  0.0000E+00  0.0000E+00  0.0000E+00  0.0000E+00  0.0000E+00  0.0000E+00  0.0000E+00  0.0000E+00  0.0000E+00  0.0000E+00  0.0000E+00  0.0000E+00  0.0000E+00  0.0000E+00
    -40.106  0.0000E+00  0.0000E+00  0.0000E+00  0.0000E+00  0.0000E+00  0.0000E+00  0.0000E+00  0.0000E+00  0.0000E+00  0.0000E+00  0.0000E+00  0.0000E+00  0.0000E+00  0.0000E+00  0.0000E+00  0.0000E+00  0.0000E+00  0.0000E+00
    -39.907  0.0000E+00  0.0000E+00  0.0000E+00  0.0000E+00  0.0000E+00  0.0000E+00  0.0000E+00  0.0000E+00  0.0000E+00  0.0000E+00  0.0000E+00  0.0000E+00  0.0000E+00  0.0000E+00  0.0000E+00  0.0000E+00  0.0000E+00  0.0000E+00
    -39.708  0.0000E+00  0.0000E+00  0.0000E+00  0.0000E+00  0.0000E+00  0.0000E+00  0.0000E+00  0.0000E+00  0.0000E+00  0.0000E+00  0.0000E+00  0.0000E+00  0.0000E+00  0.0000E+00  0.0000E+00  0.0000E+00  0.0000E+00  0.0000E+00
    -39.509  0.0000E+00  0.0000E+00  0.0000E+00  0.0000E+00  0.0000E+00  0.0000E+00  0.0000E+00  0.0000E+00  0.0000E+00  0.0000E+00  0.0000E+00  0.0000E+00  0.0000E+00  0.0000E+00  0.0000E+00  0.0000E+00  0.0000E+00  0.0000E+00
    -39.310  0.0000E+00  0.0000E+00  0.0000E+00  0.0000E+00  0.0000E+00  0.0000E+00  0.0000E+00  0.0000E+00  0.0000E+00  0.0000E+00  0.0000E+00  0.0000E+00  0.0000E+00  0.0000E+00  0.0000E+00  0.0000E+00  0.0000E+00  0.0000E+00
    -39.111  0.0000E+00  0.0000E+00  0.0000E+00  0.0000E+00  0.0000E+00  0.0000E+00  0.0000E+00  0.0000E+00  0.0000E+00  0.0000E+00  0.0000E+00  0.0000E+00  0.0000E+00  0.0000E+00  0.0000E+00  0.0000E+00  0.0000E+00  0.0000E+00
    -38.912  0.0000E+00  0.0000E+00  0.0000E+00  0.0000E+00  0.0000E+00  0.0000E+00  0.0000E+00  0.0000E+00  0.0000E+00  0.0000E+00  0.0000E+00  0.0000E+00  0.0000E+00  0.0000E+00  0.0000E+00  0.0000E+00  0.0000E+00  0.0000E+00
    -38.713  0.0000E+00  0.0000E+00  0.0000E+00  0.0000E+00  0.0000E+00  0.0000E+00  0.0000E+00  0.0000E+00  0.0000E+00  0.0000E+00  0.0000E+00  0.0000E+00  0.0000E+00  0.0000E+00  0.0000E+00  0.0000E+00  0.0000E+00  0.0000E+00
    -38.514  0.0000E+00  0.0000E+00  0.0000E+00  0.0000E+00  0.0000E+00  0.0000E+00  0.0000E+00  0.0000E+00  0.0000E+00  0.0000E+00  0.0000E+00  0.0000E+00  0.0000E+00  0.0000E+00  0.0000E+00  0.0000E+00  0.0000E+00  0.0000E+00
    -38.315  0.0000E+00  0.0000E+00  0.0000E+00  0.0000E+00  0.0000E+00  0.0000E+00  0.0000E+00  0.0000E+00  0.0000E+00  0.0000E+00  0.0000E+00  0.0000E+00  0.0000E+00  0.0000E+00  0.0000E+00  0.0000E+00  0.0000E+00  0.0000E+00
    -38.117  0.1193E-03  0.1189E-03  0.3290E-11  0.3269E-11  0.3290E-11  0.3269E-11  0.3321E-11  0.3299E-11  0.2956E-14  0.3004E-14  0.2930E-14  0.2978E-14  0.3767E-11  0.3792E-11  0.2956E-14  0.3004E-14  0.3820E-11  0.3847E-11
    -37.918  0.6247E-02  0.6226E-02  0.1723E-09  0.1712E-09  0.1723E-09  0.1712E-09  0.1739E-09  0.1727E-09  0.1548E-12  0.1573E-12  0.1534E-12  0.1559E-12  0.1972E-09  0.1985E-09  0.1548E-12  0.1573E-12  0.2000E-09  0.2014E-09
    -37.719  0.3123E+00  0.3114E+00  0.8613E-08  0.8560E-08  0.8613E-08  0.8560E-08  0.8692E-08  0.8637E-08  0.7744E-11  0.7871E-11  0.7675E-11  0.7805E-11  0.9865E-08  0.9932E-08  0.7744E-11  0.7871E-11  0.1000E-07  0.1007E-07
    -37.520  0.3593E+01  0.3592E+01  0.9888E-07  0.9856E-07  0.9888E-07  0.9856E-07  0.9979E-07  0.9945E-07  0.8964E-10  0.9149E-10  0.8887E-10  0.9074E-10  0.1138E-06  0.1149E-06  0.8964E-10  0.9149E-10  0.1149E-06  0.1160E-06
    -37.321  0.1050E+01  0.1053E+01  0.2881E-07  0.2881E-07  0.2881E-07  0.2881E-07  0.2907E-07  0.2907E-07  0.2636E-10  0.2703E-10  0.2614E-10  0.2682E-10  0.3332E-07  0.3374E-07  0.2636E-10  0.2703E-10  0.3345E-07  0.3388E-07
    -37.122  0.0000E+00  0.0000E+00  0.0000E+00  0.0000E+00  0.0000E+00  0.0000E+00  0.0000E+00  0.0000E+00  0.0000E+00  0.0000E+00  0.0000E+00  0.0000E+00  0.0000E+00  0.0000E+00  0.0000E+00  0.0000E+00  0.0000E+00  0.0000E+00
    -36.923  0.0000E+00  0.0000E+00  0.0000E+00  0.0000E+00  0.0000E+00  0.0000E+00  0.0000E+00  0.0000E+00  0.0000E+00  0.0000E+00  0.0000E+00  0.0000E+00  0.0000E+00  0.0000E+00  0.0000E+00  0.0000E+00  0.0000E+00  0.0000E+00
    -36.724  0.0000E+00  0.0000E+00  0.0000E+00  0.0000E+00  0.0000E+00  0.0000E+00  0.0000E+00  0.0000E+00  0.0000E+00  0.0000E+00  0.0000E+00  0.0000E+00  0.0000E+00  0.0000E+00  0.0000E+00  0.0000E+00  0.0000E+00  0.0000E+00
    -36.525  0.0000E+00  0.0000E+00  0.0000E+00  0.0000E+00  0.0000E+00  0.0000E+00  0.0000E+00  0.0000E+00  0.0000E+00  0.0000E+00  0.0000E+00  0.0000E+00  0.0000E+00  0.0000E+00  0.0000E+00  0.0000E+00  0.0000E+00  0.0000E+00
    -36.326  0.0000E+00  0.0000E+00  0.0000E+00  0.0000E+00  0.0000E+00  0.0000E+00  0.0000E+00  0.0000E+00  0.0000E+00  0.0000E+00  0.0000E+00  0.0000E+00  0.0000E+00  0.0000E+00  0.0000E+00  0.0000E+00  0.0000E+00  0.0000E+00
    -36.127  0.0000E+00  0.0000E+00  0.0000E+00  0.0000E+00  0.0000E+00  0.0000E+00  0.0000E+00  0.0000E+00  0.0000E+00  0.0000E+00  0.0000E+00  0.0000E+00  0.0000E+00  0.0000E+00  0.0000E+00  0.0000E+00  0.0000E+00  0.0000E+00
    -35.929  0.0000E+00  0.0000E+00  0.0000E+00  0.0000E+00  0.0000E+00  0.0000E+00  0.0000E+00  0.0000E+00  0.0000E+00  0.0000E+00  0.0000E+00  0.0000E+00  0.0000E+00  0.0000E+00  0.0000E+00  0.0000E+00  0.0000E+00  0.0000E+00
    -35.730  0.0000E+00  0.0000E+00  0.0000E+00  0.0000E+00  0.0000E+00  0.0000E+00  0.0000E+00  0.0000E+00  0.0000E+00  0.0000E+00  0.0000E+00  0.0000E+00  0.0000E+00  0.0000E+00  0.0000E+00  0.0000E+00  0.0000E+00  0.0000E+00
    -35.531  0.0000E+00  0.0000E+00  0.0000E+00  0.0000E+00  0.0000E+00  0.0000E+00  0.0000E+00  0.0000E+00  0.0000E+00  0.0000E+00  0.0000E+00  0.0000E+00  0.0000E+00  0.0000E+00  0.0000E+00  0.0000E+00  0.0000E+00  0.0000E+00
    -35.332  0.0000E+00  0.0000E+00  0.0000E+00  0.0000E+00  0.0000E+00  0.0000E+00  0.0000E+00  0.0000E+00  0.0000E+00  0.0000E+00  0.0000E+00  0.0000E+00  0.0000E+00  0.0000E+00  0.0000E+00  0.0000E+00  0.0000E+00  0.0000E+00
    -35.133  0.0000E+00  0.0000E+00  0.0000E+00  0.0000E+00  0.0000E+00  0.0000E+00  0.0000E+00  0.0000E+00  0.0000E+00  0.0000E+00  0.0000E+00  0.0000E+00  0.0000E+00  0.0000E+00  0.0000E+00  0.0000E+00  0.0000E+00  0.0000E+00
    -34.934  0.0000E+00  0.0000E+00  0.0000E+00  0.0000E+00  0.0000E+00  0.0000E+00  0.0000E+00  0.0000E+00  0.0000E+00  0.0000E+00  0.0000E+00  0.0000E+00  0.0000E+00  0.0000E+00  0.0000E+00  0.0000E+00  0.0000E+00  0.0000E+00
    -34.735  0.0000E+00  0.0000E+00  0.0000E+00  0.0000E+00  0.0000E+00  0.0000E+00  0.0000E+00  0.0000E+00  0.0000E+00  0.0000E+00  0.0000E+00  0.0000E+00  0.0000E+00  0.0000E+00  0.0000E+00  0.0000E+00  0.0000E+00  0.0000E+00
    -34.536  0.0000E+00  0.0000E+00  0.0000E+00  0.0000E+00  0.0000E+00  0.0000E+00  0.0000E+00  0.0000E+00  0.0000E+00  0.0000E+00  0.0000E+00  0.0000E+00  0.0000E+00  0.0000E+00  0.0000E+00  0.0000E+00  0.0000E+00  0.0000E+00
    -34.337  0.0000E+00  0.0000E+00  0.0000E+00  0.0000E+00  0.0000E+00  0.0000E+00  0.0000E+00  0.0000E+00  0.0000E+00  0.0000E+00  0.0000E+00  0.0000E+00  0.0000E+00  0.0000E+00  0.0000E+00  0.0000E+00  0.0000E+00  0.0000E+00
    -34.138  0.0000E+00  0.0000E+00  0.0000E+00  0.0000E+00  0.0000E+00  0.0000E+00  0.0000E+00  0.0000E+00  0.0000E+00  0.0000E+00  0.0000E+00  0.0000E+00  0.0000E+00  0.0000E+00  0.0000E+00  0.0000E+00  0.0000E+00  0.0000E+00
    -33.939  0.0000E+00  0.0000E+00  0.0000E+00  0.0000E+00  0.0000E+00  0.0000E+00  0.0000E+00  0.0000E+00  0.0000E+00  0.0000E+00  0.0000E+00  0.0000E+00  0.0000E+00  0.0000E+00  0.0000E+00  0.0000E+00  0.0000E+00  0.0000E+00
    -33.740  0.0000E+00  0.0000E+00  0.0000E+00  0.0000E+00  0.0000E+00  0.0000E+00  0.0000E+00  0.0000E+00  0.0000E+00  0.0000E+00  0.0000E+00  0.0000E+00  0.0000E+00  0.0000E+00  0.0000E+00  0.0000E+00  0.0000E+00  0.0000E+00
    -33.542  0.0000E+00  0.0000E+00  0.0000E+00  0.0000E+00  0.0000E+00  0.0000E+00  0.0000E+00  0.0000E+00  0.0000E+00  0.0000E+00  0.0000E+00  0.0000E+00  0.0000E+00  0.0000E+00  0.0000E+00  0.0000E+00  0.0000E+00  0.0000E+00
    -33.343  0.0000E+00  0.0000E+00  0.0000E+00  0.0000E+00  0.0000E+00  0.0000E+00  0.0000E+00  0.0000E+00  0.0000E+00  0.0000E+00  0.0000E+00  0.0000E+00  0.0000E+00  0.0000E+00  0.0000E+00  0.0000E+00  0.0000E+00  0.0000E+00
    -33.144  0.0000E+00  0.0000E+00  0.0000E+00  0.0000E+00  0.0000E+00  0.0000E+00  0.0000E+00  0.0000E+00  0.0000E+00  0.0000E+00  0.0000E+00  0.0000E+00  0.0000E+00  0.0000E+00  0.0000E+00  0.0000E+00  0.0000E+00  0.0000E+00
    -32.945  0.0000E+00  0.0000E+00  0.0000E+00  0.0000E+00  0.0000E+00  0.0000E+00  0.0000E+00  0.0000E+00  0.0000E+00  0.0000E+00  0.0000E+00  0.0000E+00  0.0000E+00  0.0000E+00  0.0000E+00  0.0000E+00  0.0000E+00  0.0000E+00
    -32.746  0.0000E+00  0.0000E+00  0.0000E+00  0.0000E+00  0.0000E+00  0.0000E+00  0.0000E+00  0.0000E+00  0.0000E+00  0.0000E+00  0.0000E+00  0.0000E+00  0.0000E+00  0.0000E+00  0.0000E+00  0.0000E+00  0.0000E+00  0.0000E+00
    -32.547  0.0000E+00  0.0000E+00  0.0000E+00  0.0000E+00  0.0000E+00  0.0000E+00  0.0000E+00  0.0000E+00  0.0000E+00  0.0000E+00  0.0000E+00  0.0000E+00  0.0000E+00  0.0000E+00  0.0000E+00  0.0000E+00  0.0000E+00  0.0000E+00
    -32.348  0.0000E+00  0.0000E+00  0.0000E+00  0.0000E+00  0.0000E+00  0.0000E+00  0.0000E+00  0.0000E+00  0.0000E+00  0.0000E+00  0.0000E+00  0.0000E+00  0.0000E+00  0.0000E+00  0.0000E+00  0.0000E+00  0.0000E+00  0.0000E+00
    -32.149  0.0000E+00  0.0000E+00  0.0000E+00  0.0000E+00  0.0000E+00  0.0000E+00  0.0000E+00  0.0000E+00  0.0000E+00  0.0000E+00  0.0000E+00  0.0000E+00  0.0000E+00  0.0000E+00  0.0000E+00  0.0000E+00  0.0000E+00  0.0000E+00
    -31.950  0.0000E+00  0.0000E+00  0.0000E+00  0.0000E+00  0.0000E+00  0.0000E+00  0.0000E+00  0.0000E+00  0.0000E+00  0.0000E+00  0.0000E+00  0.0000E+00  0.0000E+00  0.0000E+00  0.0000E+00  0.0000E+00  0.0000E+00  0.0000E+00
    -31.751  0.0000E+00  0.0000E+00  0.0000E+00  0.0000E+00  0.0000E+00  0.0000E+00  0.0000E+00  0.0000E+00  0.0000E+00  0.0000E+00  0.0000E+00  0.0000E+00  0.0000E+00  0.0000E+00  0.0000E+00  0.0000E+00  0.0000E+00  0.0000E+00
    -31.552  0.0000E+00  0.0000E+00  0.0000E+00  0.0000E+00  0.0000E+00  0.0000E+00  0.0000E+00  0.0000E+00  0.0000E+00  0.0000E+00  0.0000E+00  0.0000E+00  0.0000E+00  0.0000E+00  0.0000E+00  0.0000E+00  0.0000E+00  0.0000E+00
    -31.354  0.0000E+00  0.0000E+00  0.0000E+00  0.0000E+00  0.0000E+00  0.0000E+00  0.0000E+00  0.0000E+00  0.0000E+00  0.0000E+00  0.0000E+00  0.0000E+00  0.0000E+00  0.0000E+00  0.0000E+00  0.0000E+00  0.0000E+00  0.0000E+00
    -31.155  0.0000E+00  0.0000E+00  0.0000E+00  0.0000E+00  0.0000E+00  0.0000E+00  0.0000E+00  0.0000E+00  0.0000E+00  0.0000E+00  0.0000E+00  0.0000E+00  0.0000E+00  0.0000E+00  0.0000E+00  0.0000E+00  0.0000E+00  0.0000E+00
    -30.956  0.0000E+00  0.0000E+00  0.0000E+00  0.0000E+00  0.0000E+00  0.0000E+00  0.0000E+00  0.0000E+00  0.0000E+00  0.0000E+00  0.0000E+00  0.0000E+00  0.0000E+00  0.0000E+00  0.0000E+00  0.0000E+00  0.0000E+00  0.0000E+00
    -30.757  0.0000E+00  0.0000E+00  0.0000E+00  0.0000E+00  0.0000E+00  0.0000E+00  0.0000E+00  0.0000E+00  0.0000E+00  0.0000E+00  0.0000E+00  0.0000E+00  0.0000E+00  0.0000E+00  0.0000E+00  0.0000E+00  0.0000E+00  0.0000E+00
    -30.558  0.0000E+00  0.0000E+00  0.0000E+00  0.0000E+00  0.0000E+00  0.0000E+00  0.0000E+00  0.0000E+00  0.0000E+00  0.0000E+00  0.0000E+00  0.0000E+00  0.0000E+00  0.0000E+00  0.0000E+00  0.0000E+00  0.0000E+00  0.0000E+00
    -30.359  0.0000E+00  0.0000E+00  0.0000E+00  0.0000E+00  0.0000E+00  0.0000E+00  0.0000E+00  0.0000E+00  0.0000E+00  0.0000E+00  0.0000E+00  0.0000E+00  0.0000E+00  0.0000E+00  0.0000E+00  0.0000E+00  0.0000E+00  0.0000E+00