   2   2   1   0
  0.2217521E+02  0.3539696E-09  0.3539696E-09  0.3539696E-09  0.5000000E-15
   1.0000000000000000E-004
  CAR 
 unknown system                          
      9.48485770    -29.37048354  301      3.45562551      1.00000000
    -29.370  0.0000E+00  0.0000E+00  0.0000E+00  0.0000E+00
    -29.241  0.0000E+00  0.0000E+00  0.0000E+00  0.0000E+00
    -29.111  0.0000E+00  0.0000E+00  0.0000E+00  0.0000E+00
    -28.982  0.0000E+00  0.0000E+00  0.0000E+00  0.0000E+00
    -28.852  0.0000E+00  0.0000E+00  0.0000E+00  0.0000E+00
    -28.723  0.0000E+00  0.0000E+00  0.0000E+00  0.0000E+00
    -28.593  0.0000E+00  0.0000E+00  0.0000E+00  0.0000E+00
    -28.464  0.0000E+00  0.0000E+00  0.0000E+00  0.0000E+00
    -28.334  0.0000E+00  0.0000E+00  0.0000E+00  0.0000E+00
    -28.205  0.0000E+00  0.0000E+00  0.0000E+00  0.0000E+00
    -28.075  0.0000E+00  0.0000E+00  0.0000E+00  0.0000E+00
    -27.946  0.0000E+00  0.0000E+00  0.0000E+00  0.0000E+00
    -27.816  0.0000E+00  0.0000E+00  0.0000E+00  0.0000E+00
    -27.687  0.0000E+00  0.0000E+00  0.0000E+00  0.0000E+00
    -27.557  0.4525E+01  0.4496E+01  0.1042E+00  0.1030E+00
    -27.428  0.1197E+02  0.1199E+02  0.1378E+01  0.1376E+01
    -27.298  0.7413E+01  0.7392E+01  0.2140E+01  0.2139E+01
    -27.169  0.1135E+02  0.1133E+02  0.3170E+01  0.3168E+01
    -27.039  0.1878E+02  0.1873E+02  0.4456E+01  0.4452E+01
    -26.910  0.8711E+01  0.8711E+01  0.6000E+01  0.6000E+01
    -26.780  0.0000E+00  0.0000E+00  0.6000E+01  0.6000E+01
    -26.651  0.0000E+00  0.0000E+00  0.6000E+01  0.6000E+01
    -26.521  0.0000E+00  0.0000E+00  0.6000E+01  0.6000E+01
    -26.392  0.0000E+00  0.0000E+00  0.6000E+01  0.6000E+01
    -26.262  0.0000E+00  0.0000E+00  0.6000E+01  0.6000E+01
    -26.133  0.0000E+00  0.0000E+00  0.6000E+01  0.6000E+01
    -26.003  0.0000E+00  0.0000E+00  0.6000E+01  0.6000E+01
    -25.874  0.0000E+00  0.0000E+00  0.6000E+01  0.6000E+01
    -25.744  0.0000E+00  0.0000E+00  0.6000E+01  0.6000E+01
    -25.614  0.0000E+00  0.0000E+00  0.6000E+01  0.6000E+01
    -25.485  0.0000E+00  0.0000E+00  0.6000E+01  0.6000E+01
    -25.355  0.0000E+00  0.0000E+00  0.6000E+01  0.6000E+01
    -25.226  0.0000E+00  0.0000E+00  0.6000E+01  0.6000E+01
    -25.096  0.0000E+00  0.0000E+00  0.6000E+01  0.6000E+01
    -24.967  0.0000E+00  0.0000E+00  0.6000E+01  0.6000E+01
    -24.837  0.0000E+00  0.0000E+00  0.6000E+01  0.6000E+01
    -24.708  0.0000E+00  0.0000E+00  0.6000E+01  0.6000E+01
    -24.578  0.0000E+00  0.0000E+00  0.6000E+01  0.6000E+01
    -24.449  0.0000E+00  0.0000E+00  0.6000E+01  0.6000E+01
    -24.319  0.0000E+00  0.0000E+00  0.6000E+01  0.6000E+01
    -24.190  0.0000E+00  0.0000E+00  0.6000E+01  0.6000E+01
    -24.060  0.0000E+00  0.0000E+00  0.6000E+01  0.6000E+01
    -23.931  0.0000E+00  0.0000E+00  0.6000E+01  0.6000E+01
    -23.801  0.0000E+00  0.0000E+00  0.6000E+01  0.6000E+01
    -23.672  0.0000E+00  0.0000E+00  0.6000E+01  0.6000E+01
    -23.542  0.0000E+00  0.0000E+00  0.6000E+01  0.6000E+01
    -23.413  0.0000E+00  0.0000E+00  0.6000E+01  0.6000E+01
    -23.283  0.0000E+00  0.0000E+00  0.6000E+01  0.6000E+01
    -23.154  0.0000E+00  0.0000E+00  0.6000E+01  0.6000E+01
    -23.024  0.0000E+00  0.0000E+00  0.6000E+01  0.6000E+01
    -22.895  0.0000E+00  0.0000E+00  0.6000E+01  0.6000E+01
    -22.765  0.0000E+00  0.0000E+00  0.6000E+01  0.6000E+01
    -22.636  0.0000E+00  0.0000E+00  0.6000E+01  0.6000E+01
    -22.506  0.0000E+00  0.0000E+00  0.6000E+01  0.6000E+01
    -22.377  0.0000E+00  0.0000E+00  0.6000E+01  0.6000E+01
    -22.247  0.0000E+00  0.0000E+00  0.6000E+01  0.6000E+01
    -22.117  0.0000E+00  0.0000E+00  0.6000E+01  0.6000E+01
    -21.988  0.0000E+00  0.0000E+00  0.6000E+01  0.6000E+01
    -21.858  0.0000E+00  0.0000E+00  0.6000E+01  0.6000E+01
    -21.729  0.0000E+00  0.0000E+00  0.6000E+01  0.6000E+01
    -21.599  0.0000E+00  0.0000E+00  0.6000E+01  0.6000E+01
    -21.470  0.0000E+00  0.0000E+00  0.6000E+01  0.6000E+01
    -21.340  0.0000E+00  0.0000E+00  0.6000E+01  0.6000E+01
    -21.211  0.0000E+00  0.0000E+00  0.6000E+01  0.6000E+01
    -21.081  0.0000E+00  0.0000E+00  0.6000E+01  0.6000E+01
    -20.952  0.0000E+00  0.0000E+00  0.6000E+01  0.6000E+01
    -20.822  0.0000E+00  0.0000E+00  0.6000E+01  0.6000E+01
    -20.693  0.0000E+00  0.0000E+00  0.6000E+01  0.6000E+01
    -20.563  0.0000E+00  0.0000E+00  0.6000E+01  0.6000E+01
    -20.434  0.0000E+00  0.0000E+00  0.6000E+01  0.6000E+01
    -20.304  0.0000E+00  0.0000E+00  0.6000E+01  0.6000E+01
    -20.175  0.0000E+00  0.0000E+00  0.6000E+01  0.6000E+01
    -20.045  0.0000E+00  0.0000E+00  0.6000E+01  0.6000E+01
    -19.916  0.0000E+00  0.0000E+00  0.6000E+01  0.6000E+01
    -19.786  0.0000E+00  0.0000E+00  0.6000E+01  0.6000E+01
    -19.657  0.0000E+00  0.0000E+00  0.6000E+01  0.6000E+01
    -19.527  0.0000E+00  0.0000E+00  0.6000E+01  0.6000E+01
    -19.398  0.0000E+00  0.0000E+00  0.6000E+01  0.6000E+01
    -19.268  0.0000E+00  0.0000E+00  0.6000E+01  0.6000E+01
    -19.139  0.0000E+00  0.0000E+00  0.6000E+01  0.6000E+01
    -19.009  0.0000E+00  0.0000E+00  0.6000E+01  0.6000E+01
    -18.880  0.0000E+00  0.0000E+00  0.6000E+01  0.6000E+01
    -18.750  0.0000E+00  0.0000E+00  0.6000E+01  0.6000E+01
    -18.621  0.0000E+00  0.0000E+00  0.6000E+01  0.6000E+01
    -18.491  0.0000E+00  0.0000E+00  0.6000E+01  0.6000E+01
    -18.361  0.0000E+00  0.0000E+00  0.6000E+01  0.6000E+01
    -18.232  0.0000E+00  0.0000E+00  0.6000E+01  0.6000E+01
    -18.102  0.0000E+00  0.0000E+00  0.6000E+01  0.6000E+01
    -17.973  0.0000E+00  0.0000E+00  0.6000E+01  0.6000E+01
    -17.843  0.0000E+00  0.0000E+00  0.6000E+01  0.6000E+01
    -17.714  0.0000E+00  0.0000E+00  0.6000E+01  0.6000E+01
    -17.584  0.0000E+00  0.0000E+00  0.6000E+01  0.6000E+01
    -17.455  0.0000E+00  0.0000E+00  0.6000E+01  0.6000E+01
    -17.325  0.0000E+00  0.0000E+00  0.6000E+01  0.6000E+01
    -17.196  0.0000E+00  0.0000E+00  0.6000E+01  0.6000E+01
    -17.066  0.0000E+00  0.0000E+00  0.6000E+01  0.6000E+01
    -16.937  0.0000E+00  0.0000E+00  0.6000E+01  0.6000E+01
    -16.807  0.0000E+00  0.0000E+00  0.6000E+01  0.6000E+01
    -16.678  0.0000E+00  0.0000E+00  0.6000E+01  0.6000E+01
    -16.548  0.0000E+00  0.0000E+00  0.6000E+01  0.6000E+01
    -16.419  0.0000E+00  0.0000E+00  0.6000E+01  0.6000E+01
    -16.289  0.0000E+00  0.0000E+00  0.6000E+01  0.6000E+01
    -16.160  0.0000E+00  0.0000E+00  0.6000E+01  0.6000E+01
    -16.030  0.0000E+00  0.0000E+00  0.6000E+01  0.6000E+01
    -15.901  0.0000E+00  0.0000E+00  0.6000E+01  0.6000E+01
    -15.771  0.0000E+00  0.0000E+00  0.6000E+01  0.6000E+01
    -15.642  0.0000E+00  0.0000E+00  0.6000E+01  0.6000E+01
    -15.512  0.0000E+00  0.0000E+00  0.6000E+01  0.6000E+01
    -15.383  0.0000E+00  0.0000E+00  0.6000E+01  0.6000E+01
    -15.253  0.0000E+00  0.0000E+00  0.6000E+01  0.6000E+01
    -15.124  0.0000E+00  0.0000E+00  0.6000E+01  0.6000E+01
    -14.994  0.0000E+00  0.0000E+00  0.6000E+01  0.6000E+01
    -14.864  0.0000E+00  0.0000E+00  0.6000E+01  0.6000E+01
    -14.735  0.0000E+00  0.0000E+00  0.6000E+01  0.6000E+01
    -14.605  0.0000E+00  0.0000E+00  0.6000E+01  0.6000E+01
    -14.476  0.0000E+00  0.0000E+00  0.6000E+01  0.6000E+01
    -14.346  0.0000E+00  0.0000E+00  0.6000E+01  0.6000E+01
    -14.217  0.0000E+00  0.0000E+00  0.6000E+01  0.6000E+01
    -14.087  0.0000E+00  0.0000E+00  0.6000E+01  0.6000E+01
    -13.958  0.0000E+00  0.0000E+00  0.6000E+01  0.6000E+01
    -13.828  0.0000E+00  0.0000E+00  0.6000E+01  0.6000E+01
    -13.699  0.0000E+00  0.0000E+00  0.6000E+01  0.6000E+01
    -13.569  0.0000E+00  0.0000E+00  0.6000E+01  0.6000E+01
    -13.440  0.0000E+00  0.0000E+00  0.6000E+01  0.6000E+01
    -13.310  0.0000E+00  0.0000E+00  0.6000E+01  0.6000E+01
    -13.181  0.0000E+00  0.0000E+00  0.6000E+01  0.6000E+01
    -13.051  0.0000E+00  0.0000E+00  0.6000E+01  0.6000E+01
    -12.922  0.0000E+00  0.0000E+00  0.6000E+01  0.6000E+01
    -12.792  0.0000E+00  0.0000E+00  0.6000E+01  0.6000E+01
    -12.663  0.0000E+00  0.0000E+00  0.6000E+01  0.6000E+01
    -12.533  0.0000E+00  0.0000E+00  0.6000E+01  0.6000E+01
    -12.404  0.0000E+00  0.0000E+00  0.6000E+01  0.6000E+01
    -12.274  0.0000E+00  0.0000E+00  0.6000E+01  0.6000E+01
    -12.145  0.0000E+00  0.0000E+00  0.6000E+01  0.6000E+01
    -12.015  0.0000E+00  0.0000E+00  0.6000E+01  0.6000E+01
    -11.886  0.0000E+00  0.0000E+00  0.6000E+01  0.6000E+01
    -11.756  0.0000E+00  0.0000E+00  0.6000E+01  0.6000E+01
    -11.627  0.0000E+00  0.0000E+00  0.6000E+01  0.6000E+01
    -11.497  0.0000E+00  0.0000E+00  0.6000E+01  0.6000E+01
    -11.368  0.0000E+00  0.0000E+00  0.6000E+01  0.6000E+01
    -11.238  0.0000E+00  0.0000E+00  0.6000E+01  0.6000E+01
    -11.108  0.0000E+00  0.0000E+00  0.6000E+01  0.6000E+01
    -10.979  0.0000E+00  0.0000E+00  0.6000E+01  0.6000E+01
    -10.849  0.0000E+00  0.0000E+00  0.6000E+01  0.6000E+01
    -10.720  0.0000E+00  0.0000E+00  0.6000E+01  0.6000E+01
    -10.590  0.0000E+00  0.0000E+00  0.6000E+01  0.6000E+01
    -10.461  0.0000E+00  0.0000E+00  0.6000E+01  0.6000E+01
    -10.331  0.0000E+00  0.0000E+00  0.6000E+01  0.6000E+01
    -10.202  0.0000E+00  0.0000E+00  0.6000E+01  0.6000E+01
    -10.072  0.0000E+00  0.0000E+00  0.6000E+01  0.6000E+01
     -9.943  0.0000E+00  0.0000E+00  0.6000E+01  0.6000E+01
     -9.813  0.0000E+00  0.0000E+00  0.6000E+01  0.6000E+01
     -9.684  0.0000E+00  0.0000E+00  0.6000E+01  0.6000E+01
     -9.554  0.0000E+00  0.0000E+00  0.6000E+01  0.6000E+01
     -9.425  0.0000E+00  0.0000E+00  0.6000E+01  0.6000E+01
     -9.295  0.0000E+00  0.0000E+00  0.6000E+01  0.6000E+01
     -9.166  0.0000E+00  0.0000E+00  0.6000E+01  0.6000E+01
     -9.036  0.0000E+00  0.0000E+00  0.6000E+01  0.6000E+01
     -8.907  0.0000E+00  0.0000E+00  0.6000E+01  0.6000E+01
     -8.777  0.0000E+00  0.0000E+00  0.6000E+01  0.6000E+01
     -8.648  0.0000E+00  0.0000E+00  0.6000E+01  0.6000E+01
     -8.518  0.0000E+00  0.0000E+00  0.6000E+01  0.6000E+01
     -8.389  0.0000E+00  0.0000E+00  0.6000E+01  0.6000E+01
     -8.259  0.0000E+00  0.0000E+00  0.6000E+01  0.6000E+01
     -8.130  0.0000E+00  0.0000E+00  0.6000E+01  0.6000E+01
     -8.000  0.0000E+00  0.0000E+00  0.6000E+01  0.6000E+01
     -7.871  0.0000E+00  0.0000E+00  0.6000E+01  0.6000E+01
     -7.741  0.0000E+00  0.0000E+00  0.6000E+01  0.6000E+01
     -7.611  0.0000E+00  0.0000E+00  0.6000E+01  0.6000E+01
     -7.482  0.0000E+00  0.0000E+00  0.6000E+01  0.6000E+01
     -7.352  0.0000E+00  0.0000E+00  0.6000E+01  0.6000E+01
     -7.223  0.0000E+00  0.0000E+00  0.6000E+01  0.6000E+01
     -7.093  0.0000E+00  0.0000E+00  0.6000E+01  0.6000E+01
     -6.964  0.0000E+00  0.0000E+00  0.6000E+01  0.6000E+01
     -6.834  0.0000E+00  0.0000E+00  0.6000E+01  0.6000E+01
     -6.705  0.0000E+00  0.0000E+00  0.6000E+01  0.6000E+01
     -6.575  0.0000E+00  0.0000E+00  0.6000E+01  0.6000E+01
     -6.446  0.0000E+00  0.0000E+00  0.6000E+01  0.6000E+01
     -6.316  0.0000E+00  0.0000E+00  0.6000E+01  0.6000E+01
     -6.187  0.0000E+00  0.0000E+00  0.6000E+01  0.6000E+01
     -6.057  0.0000E+00  0.0000E+00  0.6000E+01  0.6000E+01
     -5.928  0.0000E+00  0.0000E+00  0.6000E+01  0.6000E+01
     -5.798  0.0000E+00  0.0000E+00  0.6000E+01  0.6000E+01
     -5.669  0.0000E+00  0.0000E+00  0.6000E+01  0.6000E+01
     -5.539  0.0000E+00  0.0000E+00  0.6000E+01  0.6000E+01
     -5.410  0.0000E+00  0.0000E+00  0.6000E+01  0.6000E+01
     -5.280  0.0000E+00  0.0000E+00  0.6000E+01  0.6000E+01
     -5.151  0.0000E+00  0.0000E+00  0.6000E+01  0.6000E+01
     -5.021  0.0000E+00  0.0000E+00  0.6000E+01  0.6000E+01
     -4.892  0.0000E+00  0.0000E+00  0.6000E+01  0.6000E+01
     -4.762  0.0000E+00  0.0000E+00  0.6000E+01  0.6000E+01
     -4.633  0.0000E+00  0.0000E+00  0.6000E+01  0.6000E+01
     -4.503  0.0000E+00  0.0000E+00  0.6000E+01  0.6000E+01
     -4.374  0.0000E+00  0.0000E+00  0.6000E+01  0.6000E+01
     -4.244  0.0000E+00  0.0000E+00  0.6000E+01  0.6000E+01
     -4.115  0.0000E+00  0.0000E+00  0.6000E+01  0.6000E+01
     -3.985  0.0000E+00  0.0000E+00  0.6000E+01  0.6000E+01
     -3.855  0.0000E+00  0.0000E+00  0.6000E+01  0.6000E+01
     -3.726  0.0000E+00  0.0000E+00  0.6000E+01  0.6000E+01
     -3.596  0.0000E+00  0.0000E+00  0.6000E+01  0.6000E+01
     -3.467  0.0000E+00  0.0000E+00  0.6000E+01  0.6000E+01
     -3.337  0.0000E+00  0.0000E+00  0.6000E+01  0.6000E+01
     -3.208  0.0000E+00  0.0000E+00  0.6000E+01  0.6000E+01
     -3.078  0.0000E+00  0.0000E+00  0.6000E+01  0.6000E+01
     -2.949  0.0000E+00  0.0000E+00  0.6000E+01  0.6000E+01
     -2.819  0.0000E+00  0.0000E+00  0.6000E+01  0.6000E+01
     -2.690  0.0000E+00  0.0000E+00  0.6000E+01  0.6000E+01
     -2.560  0.0000E+00  0.0000E+00  0.6000E+01  0.6000E+01
     -2.431  0.0000E+00  0.0000E+00  0.6000E+01  0.6000E+01
     -2.301  0.0000E+00  0.0000E+00  0.6000E+01  0.6000E+01
     -2.172  0.0000E+00  0.0000E+00  0.6000E+01  0.6000E+01
     -2.042  0.0000E+00  0.0000E+00  0.6000E+01  0.6000E+01
     -1.913  0.2459E-02  0.2429E-02  0.6000E+01  0.6000E+01
     -1.783  0.1546E-01  0.1539E-01  0.6001E+01  0.6001E+01
     -1.654  0.3985E-01  0.3972E-01  0.6005E+01  0.6005E+01
     -1.524  0.6454E-01  0.6447E-01  0.6011E+01  0.6011E+01
     -1.395  0.7734E-01  0.7731E-01  0.6021E+01  0.6021E+01
     -1.265  0.8180E-01  0.8178E-01  0.6031E+01  0.6031E+01
     -1.136  0.9086E-01  0.9082E-01  0.6042E+01  0.6042E+01
     -1.006  0.1053E+00  0.1052E+00  0.6055E+01  0.6055E+01
     -0.877  0.1216E+00  0.1215E+00  0.6070E+01  0.6069E+01
     -0.747  0.1388E+00  0.1388E+00  0.6086E+01  0.6086E+01
     -0.618  0.1535E+00  0.1535E+00  0.6105E+01  0.6105E+01
     -0.488  0.1658E+00  0.1657E+00  0.6126E+01  0.6126E+01
     -0.358  0.1875E+00  0.1874E+00  0.6149E+01  0.6149E+01
     -0.229  0.2110E+00  0.2109E+00  0.6175E+01  0.6175E+01
     -0.099  0.2326E+00  0.2325E+00  0.6203E+01  0.6203E+01
      0.030  0.2550E+00  0.2549E+00  0.6235E+01  0.6235E+01
      0.160  0.2889E+00  0.2887E+00  0.6270E+01  0.6270E+01
      0.289  0.3437E+00  0.3434E+00  0.6311E+01  0.6310E+01
      0.419  0.4172E+00  0.4169E+00  0.6360E+01  0.6360E+01
      0.548  0.1028E+01  0.1024E+01  0.6438E+01  0.6437E+01
      0.678  0.1109E+01  0.1110E+01  0.6594E+01  0.6593E+01
      0.807  0.9484E+00  0.9488E+00  0.6725E+01  0.6724E+01
      0.937  0.7336E+00  0.7332E+00  0.6825E+01  0.6825E+01
      1.066  0.9544E+00  0.9540E+00  0.6935E+01  0.6934E+01
      1.196  0.1167E+01  0.1166E+01  0.7071E+01  0.7071E+01
      1.325  0.1594E+01  0.1593E+01  0.7245E+01  0.7244E+01
      1.455  0.2785E+01  0.2788E+01  0.7535E+01  0.7534E+01
      1.584  0.1707E+01  0.1708E+01  0.7801E+01  0.7801E+01
      1.714  0.1157E+01  0.1158E+01  0.7989E+01  0.7989E+01
      1.843  0.5912E+00  0.5918E+00  0.8086E+01  0.8086E+01
      1.973  0.4761E+00  0.4765E+00  0.8155E+01  0.8154E+01
      2.102  0.4416E+00  0.4416E+00  0.8213E+01  0.8213E+01
      2.232  0.4635E+00  0.4634E+00  0.8270E+01  0.8270E+01
      2.361  0.3920E+01  0.3903E+01  0.8517E+01  0.8515E+01
      2.491  0.3710E+01  0.3710E+01  0.8993E+01  0.8991E+01
      2.620  0.1611E+01  0.1616E+01  0.9327E+01  0.9326E+01
      2.750  0.1312E+01  0.1310E+01  0.9491E+01  0.9490E+01
      2.879  0.1518E+01  0.1518E+01  0.9670E+01  0.9669E+01
      3.009  0.1689E+01  0.1688E+01  0.9879E+01  0.9878E+01
      3.138  0.2270E+01  0.2268E+01  0.1013E+02  0.1013E+02
      3.268  0.3994E+01  0.4004E+01  0.1049E+02  0.1048E+02
      3.398  0.2397E+01  0.2399E+01  0.1087E+02  0.1087E+02
      3.527  0.1888E+01  0.1888E+01  0.1114E+02  0.1114E+02
      3.657  0.1590E+01  0.1591E+01  0.1137E+02  0.1137E+02
      3.786  0.1140E+01  0.1144E+01  0.1155E+02  0.1155E+02
      3.916  0.7598E+00  0.7606E+00  0.1166E+02  0.1166E+02
      4.045  0.6034E+00  0.6037E+00  0.1174E+02  0.1174E+02
      4.175  0.5342E+00  0.5344E+00  0.1182E+02  0.1182E+02
      4.304  0.4639E+00  0.4642E+00  0.1188E+02  0.1188E+02
      4.434  0.3582E+00  0.3583E+00  0.1193E+02  0.1193E+02
      4.563  0.2469E+00  0.2474E+00  0.1198E+02  0.1198E+02
      4.693  0.3255E+00  0.3251E+00  0.1201E+02  0.1201E+02
      4.822  0.5394E+00  0.5389E+00  0.1206E+02  0.1206E+02
      4.952  0.7997E+00  0.7989E+00  0.1215E+02  0.1215E+02
      5.081  0.1029E+01  0.1028E+01  0.1227E+02  0.1227E+02
      5.211  0.1240E+01  0.1240E+01  0.1242E+02  0.1242E+02
      5.340  0.1449E+01  0.1449E+01  0.1259E+02  0.1259E+02
      5.470  0.1698E+01  0.1698E+01  0.1279E+02  0.1279E+02
      5.599  0.1726E+01  0.1726E+01  0.1302E+02  0.1302E+02
      5.729  0.2405E+01  0.2407E+01  0.1328E+02  0.1328E+02
      5.858  0.2131E+01  0.2131E+01  0.1358E+02  0.1358E+02
      5.988  0.1856E+01  0.1856E+01  0.1384E+02  0.1383E+02
      6.117  0.1773E+01  0.1771E+01  0.1408E+02  0.1408E+02
      6.247  0.1443E+01  0.1440E+01  0.1427E+02  0.1427E+02
      6.376  0.1977E+01  0.1978E+01  0.1448E+02  0.1448E+02
      6.506  0.4344E+01  0.4324E+01  0.1481E+02  0.1481E+02
      6.635  0.4048E+01  0.4026E+01  0.1544E+02  0.1544E+02
      6.765  0.1853E+01  0.1719E+01  0.1569E+02  0.1567E+02
      6.895  0.1023E+01  0.1095E+01  0.1587E+02  0.1586E+02
      7.024  0.4387E+00  0.4494E+00  0.1596E+02  0.1596E+02
      7.154  0.1311E+00  0.1335E+00  0.1599E+02  0.1599E+02
      7.283  0.1016E-01  0.1019E-01  0.1600E+02  0.1600E+02
      7.413  0.5014E-02  0.5030E-02  0.1600E+02  0.1600E+02
      7.542  0.1665E-02  0.1674E-02  0.1600E+02  0.1600E+02
      7.672  0.1166E-03  0.1190E-03  0.1600E+02  0.1600E+02
      7.801  0.0000E+00  0.0000E+00  0.1600E+02  0.1600E+02
      7.931  0.0000E+00  0.0000E+00  0.1600E+02  0.1600E+02
      8.060  0.0000E+00  0.0000E+00  0.1600E+02  0.1600E+02
      8.190  0.0000E+00  0.0000E+00  0.1600E+02  0.1600E+02
      8.319  0.0000E+00  0.0000E+00  0.1600E+02  0.1600E+02
      8.449  0.0000E+00  0.0000E+00  0.1600E+02  0.1600E+02
      8.578  0.0000E+00  0.0000E+00  0.1600E+02  0.1600E+02
      8.708  0.0000E+00  0.0000E+00  0.1600E+02  0.1600E+02
      8.837  0.0000E+00  0.0000E+00  0.1600E+02  0.1600E+02
      8.967  0.0000E+00  0.0000E+00  0.1600E+02  0.1600E+02
      9.096  0.0000E+00  0.0000E+00  0.1600E+02  0.1600E+02
      9.226  0.0000E+00  0.0000E+00  0.1600E+02  0.1600E+02
      9.355  0.0000E+00  0.0000E+00  0.1600E+02  0.1600E+02
      9.485  0.0000E+00  0.0000E+00  0.1600E+02  0.1600E+02
      9.48485770    -29.37048354  301      3.45562551      1.00000000
    -29.370  0.0000E+00  0.0000E+00  0.0000E+00  0.0000E+00  0.0000E+00  0.0000E+00  0.0000E+00  0.0000E+00  0.0000E+00  0.0000E+00  0.0000E+00  0.0000E+00  0.0000E+00  0.0000E+00  0.0000E+00  0.0000E+00  0.0000E+00  0.0000E+00
    -29.241  0.0000E+00  0.0000E+00  0.0000E+00  0.0000E+00  0.0000E+00  0.0000E+00  0.0000E+00  0.0000E+00  0.0000E+00  0.0000E+00  0.0000E+00  0.0000E+00  0.0000E+00  0.0000E+00  0.0000E+00  0.0000E+00  0.0000E+00  0.0000E+00
    -29.111  0.0000E+00  0.0000E+00  0.0000E+00  0.0000E+00  0.0000E+00  0.0000E+00  0.0000E+00  0.0000E+00  0.0000E+00  0.0000E+00  0.0000E+00  0.0000E+00  0.0000E+00  0.0000E+00  0.0000E+00  0.0000E+00  0.0000E+00  0.0000E+00
    -28.982  0.0000E+00  0.0000E+00  0.0000E+00  0.0000E+00  0.0000E+00  0.0000E+00  0.0000E+00  0.0000E+00  0.0000E+00  0.0000E+00  0.0000E+00  0.0000E+00  0.0000E+00  0.0000E+00  0.0000E+00  0.0000E+00  0.0000E+00  0.0000E+00
    -28.852  0.0000E+00  0.0000E+00  0.0000E+00  0.0000E+00  0.0000E+00  0.0000E+00  0.0000E+00  0.0000E+00  0.0000E+00  0.0000E+00  0.0000E+00  0.0000E+00  0.0000E+00  0.0000E+00  0.0000E+00  0.0000E+00  0.0000E+00  0.0000E+00
    -28.723  0.0000E+00  0.0000E+00  0.0000E+00  0.0000E+00  0.0000E+00  0.0000E+00  0.0000E+00  0.0000E+00  0.0000E+00  0.0000E+00  0.0000E+00  0.0000E+00  0.0000E+00  0.0000E+00  0.0000E+00  0.0000E+00  0.0000E+00  0.0000E+00
    -28.593  0.0000E+00  0.0000E+00  0.0000E+00  0.0000E+00  0.0000E+00  0.0000E+00  0.0000E+00  0.0000E+00  0.0000E+00  0.0000E+00  0.0000E+00  0.0000E+00  0.0000E+00  0.0000E+00  0.0000E+00  0.0000E+00  0.0000E+00  0.0000E+00
    -28.464  0.0000E+00  0.0000E+00  0.0000E+00  0.0000E+00  0.0000E+00  0.0000E+00  0.0000E+00  0.0000E+00  0.0000E+00  0.0000E+00  0.0000E+00  0.0000E+00  0.0000E+00  0.0000E+00  0.0000E+00  0.0000E+00  0.0000E+00  0.0000E+00
    -28.334  0.0000E+00  0.0000E+00  0.0000E+00  0.0000E+00  0.0000E+00  0.0000E+00  0.0000E+00  0.0000E+00  0.0000E+00  0.0000E+00  0.0000E+00  0.0000E+00  0.0000E+00  0.0000E+00  0.0000E+00  0.0000E+00  0.0000E+00  0.0000E+00
    -28.205  0.0000E+00  0.0000E+00  0.0000E+00  0.0000E+00  0.0000E+00  0.0000E+00  0.0000E+00  0.0000E+00  0.0000E+00  0.0000E+00  0.0000E+00  0.0000E+00  0.0000E+00  0.0000E+00  0.0000E+00  0.0000E+00  0.0000E+00  0.0000E+00
    -28.075  0.0000E+00  0.0000E+00  0.0000E+00  0.0000E+00  0.0000E+00  0.0000E+00  0.0000E+00  0.0000E+00  0.0000E+00  0.0000E+00  0.0000E+00  0.0000E+00  0.0000E+00  0.0000E+00  0.0000E+00  0.0000E+00  0.0000E+00  0.0000E+00
    -27.946  0.0000E+00  0.0000E+00  0.0000E+00  0.0000E+00  0.0000E+00  0.0000E+00  0.0000E+00  0.0000E+00  0.0000E+00  0.0000E+00  0.0000E+00  0.0000E+00  0.0000E+00  0.0000E+00  0.0000E+00  0.0000E+00  0.0000E+00  0.0000E+00
    -27.816  0.0000E+00  0.0000E+00  0.0000E+00  0.0000E+00  0.0000E+00  0.0000E+00  0.0000E+00  0.0000E+00  0.0000E+00  0.0000E+00  0.0000E+00  0.0000E+00  0.0000E+00  0.0000E+00  0.0000E+00  0.0000E+00  0.0000E+00  0.0000E+00
    -27.687  0.0000E+00  0.0000E+00  0.0000E+00  0.0000E+00  0.0000E+00  0.0000E+00  0.0000E+00  0.0000E+00  0.0000E+00  0.0000E+00  0.0000E+00  0.0000E+00  0.0000E+00  0.0000E+00  0.0000E+00  0.0000E+00  0.0000E+00  0.0000E+00
    -27.557  0.2036E-03  0.2014E-03  0.7379E+00  0.7330E+00  0.7379E+00  0.7330E+00  0.7379E+00  0.7330E+00  0.8036E-04  0.7959E-04  0.8036E-04  0.7959E-04  0.3361E-04  0.3312E-04  0.8036E-04  0.7959E-04  0.3361E-04  0.3312E-04
    -27.428  0.1315E-02  0.1316E-02  0.1958E+01  0.1961E+01  0.1958E+01  0.1961E+01  0.1958E+01  0.1961E+01  0.3111E-03  0.3115E-03  0.3111E-03  0.3115E-03  0.1612E-03  0.1615E-03  0.3111E-03  0.3115E-03  0.1612E-03  0.1615E-03
    -27.298  0.6330E-03  0.6324E-03  0.1218E+01  0.1215E+01  0.1218E+01  0.1215E+01  0.1218E+01  0.1215E+01  0.4346E-03  0.4320E-03  0.4346E-03  0.4320E-03  0.4797E-04  0.4806E-04  0.4346E-03  0.4320E-03  0.4797E-04  0.4806E-04
    -27.169  0.6602E-03  0.6557E-03  0.1872E+01  0.1869E+01  0.1872E+01  0.1869E+01  0.1872E+01  0.1869E+01  0.7718E-03  0.7717E-03  0.7718E-03  0.7717E-03  0.3910E-04  0.3918E-04  0.7718E-03  0.7717E-03  0.3910E-04  0.3918E-04
    -27.039  0.5547E-03  0.5534E-03  0.3108E+01  0.3099E+01  0.3108E+01  0.3099E+01  0.3108E+01  0.3099E+01  0.8863E-03  0.8862E-03  0.8863E-03  0.8862E-03  0.2648E-04  0.2655E-04  0.8863E-03  0.8862E-03  0.2648E-04  0.2655E-04
    -26.910  0.1758E-03  0.1758E-03  0.1445E+01  0.1445E+01  0.1445E+01  0.1445E+01  0.1445E+01  0.1445E+01  0.1694E-03  0.1695E-03  0.1694E-03  0.1695E-03  0.5470E-05  0.5466E-05  0.1694E-03  0.1695E-03  0.5470E-05  0.5466E-05
    -26.780  0.0000E+00  0.0000E+00  0.0000E+00  0.0000E+00  0.0000E+00  0.0000E+00  0.0000E+00  0.0000E+00  0.0000E+00  0.0000E+00  0.0000E+00  0.0000E+00  0.0000E+00  0.0000E+00  0.0000E+00  0.0000E+00  0.0000E+00  0.0000E+00
    -26.651  0.0000E+00  0.0000E+00  0.0000E+00  0.0000E+00  0.0000E+00  0.0000E+00  0.0000E+00  0.0000E+00  0.0000E+00  0.0000E+00  0.0000E+00  0.0000E+00  0.0000E+00  0.0000E+00  0.0000E+00  0.0000E+00  0.0000E+00  0.0000E+00
    -26.521  0.0000E+00  0.0000E+00  0.0000E+00  0.0000E+00  0.0000E+00  0.0000E+00  0.0000E+00  0.0000E+00  0.0000E+00  0.0000E+00  0.0000E+00  0.0000E+00  0.0000E+00  0.0000E+00  0.0000E+00  0.0000E+00  0.0000E+00  0.0000E+00
    -26.392  0.0000E+00  0.0000E+00  0.0000E+00  0.0000E+00  0.0000E+00  0.0000E+00  0.0000E+00  0.0000E+00  0.0000E+00  0.0000E+00  0.0000E+00  0.0000E+00  0.0000E+00  0.0000E+00  0.0000E+00  0.0000E+00  0.0000E+00  0.0000E+00
    -26.262  0.0000E+00  0.0000E+00  0.0000E+00  0.0000E+00  0.0000E+00  0.0000E+00  0.0000E+00  0.0000E+00  0.0000E+00  0.0000E+00  0.0000E+00  0.0000E+00  0.0000E+00  0.0000E+00  0.0000E+00  0.0000E+00  0.0000E+00  0.0000E+00
    -26.133  0.0000E+00  0.0000E+00  0.0000E+00  0.0000E+00  0.0000E+00  0.0000E+00  0.0000E+00  0.0000E+00  0.0000E+00  0.0000E+00  0.0000E+00  0.0000E+00  0.0000E+00  0.0000E+00  0.0000E+00  0.0000E+00  0.0000E+00  0.0000E+00
    -26.003  0.0000E+00  0.0000E+00  0.0000E+00  0.0000E+00  0.0000E+00  0.0000E+00  0.0000E+00  0.0000E+00  0.0000E+00  0.0000E+00  0.0000E+00  0.0000E+00  0.0000E+00  0.0000E+00  0.0000E+00  0.0000E+00  0.0000E+00  0.0000E+00
    -25.874  0.0000E+00  0.0000E+00  0.0000E+00  0.0000E+00  0.0000E+00  0.0000E+00  0.0000E+00  0.0000E+00  0.0000E+00  0.0000E+00  0.0000E+00  0.0000E+00  0.0000E+00  0.0000E+00  0.0000E+00  0.0000E+00  0.0000E+00  0.0000E+00
    -25.744  0.0000E+00  0.0000E+00  0.0000E+00  0.0000E+00  0.0000E+00  0.0000E+00  0.0000E+00  0.0000E+00  0.0000E+00  0.0000E+00  0.0000E+00  0.0000E+00  0.0000E+00  0.0000E+00  0.0000E+00  0.0000E+00  0.0000E+00  0.0000E+00
    -25.614  0.0000E+00  0.0000E+00  0.0000E+00  0.0000E+00  0.0000E+00  0.0000E+00  0.0000E+00  0.0000E+00  0.0000E+00  0.0000E+00  0.0000E+00  0.0000E+00  0.0000E+00  0.0000E+00  0.0000E+00  0.0000E+00  0.0000E+00  0.0000E+00
    -25.485  0.0000E+00  0.0000E+00  0.0000E+00  0.0000E+00  0.0000E+00  0.0000E+00  0.0000E+00  0.0000E+00  0.0000E+00  0.0000E+00  0.0000E+00  0.0000E+00  0.0000E+00  0.0000E+00  0.0000E+00  0.0000E+00  0.0000E+00  0.0000E+00
    -25.355  0.0000E+00  0.0000E+00  0.0000E+00  0.0000E+00  0.0000E+00  0.0000E+00  0.0000E+00  0.0000E+00  0.0000E+00  0.0000E+00  0.0000E+00  0.0000E+00  0.0000E+00  0.0000E+00  0.0000E+00  0.0000E+00  0.0000E+00  0.0000E+00
    -25.226  0.0000E+00  0.0000E+00  0.0000E+00  0.0000E+00  0.0000E+00  0.0000E+00  0.0000E+00  0.0000E+00  0.0000E+00  0.0000E+00  0.0000E+00  0.0000E+00  0.0000E+00  0.0000E+00  0.0000E+00  0.0000E+00  0.0000E+00  0.0000E+00
    -25.096  0.0000E+00  0.0000E+00  0.0000E+00  0.0000E+00  0.0000E+00  0.0000E+00  0.0000E+00  0.0000E+00  0.0000E+00  0.0000E+00  0.0000E+00  0.0000E+00  0.0000E+00  0.0000E+00  0.0000E+00  0.0000E+00  0.0000E+00  0.0000E+00
    -24.967  0.0000E+00  0.0000E+00  0.0000E+00  0.0000E+00  0.0000E+00  0.0000E+00  0.0000E+00  0.0000E+00  0.0000E+00  0.0000E+00  0.0000E+00  0.0000E+00  0.0000E+00  0.0000E+00  0.0000E+00  0.0000E+00  0.0000E+00  0.0000E+00
    -24.837  0.0000E+00  0.0000E+00  0.0000E+00  0.0000E+00  0.0000E+00  0.0000E+00  0.0000E+00  0.0000E+00  0.0000E+00  0.0000E+00  0.0000E+00  0.0000E+00  0.0000E+00  0.0000E+00  0.0000E+00  0.0000E+00  0.0000E+00  0.0000E+00
    -24.708  0.0000E+00  0.0000E+00  0.0000E+00  0.0000E+00  0.0000E+00  0.0000E+00  0.0000E+00  0.0000E+00  0.0000E+00  0.0000E+00  0.0000E+00  0.0000E+00  0.0000E+00  0.0000E+00  0.0000E+00  0.0000E+00  0.0000E+00  0.0000E+00
    -24.578  0.0000E+00  0.0000E+00  0.0000E+00  0.0000E+00  0.0000E+00  0.0000E+00  0.0000E+00  0.0000E+00  0.0000E+00  0.0000E+00  0.0000E+00  0.0000E+00  0.0000E+00  0.0000E+00  0.0000E+00  0.0000E+00  0.0000E+00  0.0000E+00
    -24.449  0.0000E+00  0.0000E+00  0.0000E+00  0.0000E+00  0.0000E+00  0.0000E+00  0.0000E+00  0.0000E+00  0.0000E+00  0.0000E+00  0.0000E+00  0.0000E+00  0.0000E+00  0.0000E+00  0.0000E+00  0.0000E+00  0.0000E+00  0.0000E+00
    -24.319  0.0000E+00  0.0000E+00  0.0000E+00  0.0000E+00  0.0000E+00  0.0000E+00  0.0000E+00  0.0000E+00  0.0000E+00  0.0000E+00  0.0000E+00  0.0000E+00  0.0000E+00  0.0000E+00  0.0000E+00  0.0000E+00  0.0000E+00  0.0000E+00
    -24.190  0.0000E+00  0.0000E+00  0.0000E+00  0.0000E+00  0.0000E+00  0.0000E+00  0.0000E+00  0.0000E+00  0.0000E+00  0.0000E+00  0.0000E+00  0.0000E+00  0.0000E+00  0.0000E+00  0.0000E+00  0.0000E+00  0.0000E+00  0.0000E+00
    -24.060  0.0000E+00  0.0000E+00  0.0000E+00  0.0000E+00  0.0000E+00  0.0000E+00  0.0000E+00  0.0000E+00  0.0000E+00  0.0000E+00  0.0000E+00  0.0000E+00  0.0000E+00  0.0000E+00  0.0000E+00  0.0000E+00  0.0000E+00  0.0000E+00
    -23.931  0.0000E+00  0.0000E+00  0.0000E+00  0.0000E+00  0.0000E+00  0.0000E+00  0.0000E+00  0.0000E+00  0.0000E+00  0.0000E+00  0.0000E+00  0.0000E+00  0.0000E+00  0.0000E+00  0.0000E+00  0.0000E+00  0.0000E+00  0.0000E+00
    -23.801  0.0000E+00  0.0000E+00  0.0000E+00  0.0000E+00  0.0000E+00  0.0000E+00  0.0000E+00  0.0000E+00  0.0000E+00  0.0000E+00  0.0000E+00  0.0000E+00  0.0000E+00  0.0000E+00  0.0000E+00  0.0000E+00  0.0000E+00  0.0000E+00
    -23.672  0.0000E+00  0.0000E+00  0.0000E+00  0.0000E+00  0.0000E+00  0.0000E+00  0.0000E+00  0.0000E+00  0.0000E+00  0.0000E+00  0.0000E+00  0.0000E+00  0.0000E+00  0.0000E+00  0.0000E+00  0.0000E+00  0.0000E+00  0.0000E+00
    -23.542  0.0000E+00  0.0000E+00  0.0000E+00  0.0000E+00  0.0000E+00  0.0000E+00  0.0000E+00  0.0000E+00  0.0000E+00  0.0000E+00  0.0000E+00  0.0000E+00  0.0000E+00  0.0000E+00  0.0000E+00  0.0000E+00  0.0000E+00  0.0000E+00
    -23.413  0.0000E+00  0.0000E+00  0.0000E+00  0.0000E+00  0.0000E+00  0.0000E+00  0.0000E+00  0.0000E+00  0.0000E+00  0.0000E+00  0.0000E+00  0.0000E+00  0.0000E+00  0.0000E+00  0.0000E+00  0.0000E+00  0.0000E+00  0.0000E+00
    -23.283  0.0000E+00  0.0000E+00  0.0000E+00  0.0000E+00  0.0000E+00  0.0000E+00  0.0000E+00  0.0000E+00  0.0000E+00  0.0000E+00  0.0000E+00  0.0000E+00  0.0000E+00  0.0000E+00  0.0000E+00  0.0000E+00  0.0000E+00  0.0000E+00
    -23.154  0.0000E+00  0.0000E+00  0.0000E+00  0.0000E+00  0.0000E+00  0.0000E+00  0.0000E+00  0.0000E+00  0.0000E+00  0.0000E+00  0.0000E+00  0.0000E+00  0.0000E+00  0.0000E+00  0.0000E+00  0.0000E+00  0.0000E+00  0.0000E+00
    -23.024  0.0000E+00  0.0000E+00  0.0000E+00  0.0000E+00  0.0000E+00  0.0000E+00  0.0000E+00  0.0000E+00  0.0000E+00  0.0000E+00  0.0000E+00  0.0000E+00  0.0000E+00  0.0000E+00  0.0000E+00  0.0000E+00  0.0000E+00  0.0000E+00
    -22.895  0.0000E+00  0.0000E+00  0.0000E+00  0.0000E+00  0.0000E+00  0.0000E+00  0.0000E+00  0.0000E+00  0.0000E+00  0.0000E+00  0.0000E+00  0.0000E+00  0.0000E+00  0.0000E+00  0.0000E+00  0.0000E+00  0.0000E+00  0.0000E+00