 vasp.6.4.1 05Apr23 (build Jul 24 2024 14:19:02) complex                         
 executed on             LinuxGNU date 2024.10.22  14:26:50
 running    1 mpi-ranks, with   24 threads/rank, on    1 nodes
 distrk:  each k-point on    1 cores,    1 groups
 distr:  one band on NCORE=   1 cores,    1 groups


--------------------------------------------------------------------------------------------------------


 INCAR:
   ISTART = 0
   ALGO = Fast
   EDIFF = 0.0001
   ENCUT = 520
   IBRION = -1
   ISIF = 2
   ISMEAR = -5
   ISPIN = 2
   LASPH = True
   LMAXMIX = 6
   LORBIT = 11
   LREAL = Auto
   LWAVE = False
   MAGMOM = 2*0.6
   NELM = 100
   NSW = 0
   PREC = Accurate
   SIGMA = 0.05

 POTCAR:    PAW_PBE Nb_pv 08Apr2002               
 POTCAR:    PAW_PBE Nb_pv 08Apr2002               
   SHA256 =  bac2b60850b34f8515cf56f9feae68b678e347865051052a0e1f5d2c6a691c0a Nb_pv/POTCAR          
   COPYR  = (c) Copyright 08Apr2002 Georg Kresse                                                    
   COPYR  = This file is part of the software VASP. Any use, copying, and all other rights are regul
   COPYR  = If you do not have a valid VASP license, you may not use, copy or distribute this file. 
   VRHFIN =Nb: 4p5s4d                                                                               
   LEXCH  = PE                                                                                      
   EATOM  =  1043.3917 eV,   76.6871 Ry                                                             
                                                                                                    
   TITEL  = PAW_PBE Nb_pv 08Apr2002                                                                 
   LULTRA =        F    use ultrasoft PP ?                                                          
   IUNSCR =        1    unscreen: 0-lin 1-nonlin 2-no                                               
   RPACOR =    2.200    partial core radius                                                         
   POMASS =   92.000; ZVAL   =   11.000    mass and valenz                                          
   RCORE  =    2.750    outmost cutoff radius                                                       
   RWIGS  =    2.840; RWIGS  =    1.503    wigner-seitz radius (au A)                               
   ENMAX  =  208.608; ENMIN  =  156.456 eV                                                          
   RCLOC  =    2.201    cutoff for local pot                                                        
   LCOR   =        T    correct aug charges                                                         
   LPAW   =        T    paw PP                                                                      
   EAUG   =  355.067                                                                                
   DEXC   =    0.000                                                                                
   RMAX   =    2.804    core radius for proj-oper                                                   
   RAUG   =    1.300    factor for augmentation sphere                                              
   RDEP   =    2.776    radius for radial grids                                                     
   RDEPT  =    2.198    core radius for aug-charge                                                  
                                                                                                    
   Atomic configuration                                                                             
   11 entries                                                                                       
     n  l   j            E        occ.                                                              
     1  0  0.50    -18805.2456   2.0000                                                             
     2  0  0.50     -2630.2869   2.0000                                                             
     2  1  1.50     -2348.4045   6.0000                                                             
     3  0  0.50      -438.8756   2.0000                                                             
     3  1  1.50      -346.7587   6.0000                                                             
     3  2  2.50      -196.2559  10.0000                                                             
     4  0  0.50       -58.3859   2.0000                                                             
     4  1  1.50       -34.5141   6.0000                                                             
     4  2  2.50        -3.0408   4.0000                                                             
     5  0  0.50        -3.9816   1.0000                                                             
     4  3  2.50        -1.3606   0.0000                                                             
   Description                                                                                      
     l       E           TYP  RCUT    TYP  RCUT                                                     
     1    -34.5140617     23  2.600                                                                 
     1     -1.3605826     23  2.600                                                                 
     2     -3.0407924     23  2.600                                                                 
     2     -1.4463597     23  2.600                                                                 
     0     -3.9816219     23  2.750                                                                 
     0     20.4087390     23  2.750                                                                 
  local pseudopotential read in
  partial core-charges read in
  partial kinetic energy density read in
  atomic valenz-charges read in
  non local Contribution for L=           1  read in
    real space projection operators read in
  non local Contribution for L=           1  read in
    real space projection operators read in
  non local Contribution for L=           2  read in
    real space projection operators read in
  non local Contribution for L=           2  read in
    real space projection operators read in
  non local Contribution for L=           0  read in
    real space projection operators read in
  non local Contribution for L=           0  read in
    real space projection operators read in
    PAW grid and wavefunctions read in

   number of l-projection  operators is LMAX  =           6
   number of lm-projection operators is LMMAX =          18

 -----------------------------------------------------------------------------
|                                                                             |
|               ----> ADVICE to this user running VASP <----                  |
|                                                                             |
|     You have a (more or less) 'small supercell' and for smaller cells       |
|     it is recommended to use the reciprocal-space projection scheme!        |
|     The real-space optimization is not efficient for small cells and it     |
|     is also less accurate ...                                               |
|     Therefore, set LREAL=.FALSE. in the INCAR file.                         |
|                                                                             |
 -----------------------------------------------------------------------------

 Optimization of the real space projectors (new method)

 maximal supplied QI-value         = 13.61
 optimisation between [QCUT,QGAM] = [ 11.57, 23.27] = [ 37.45,151.59] Ry 
 Optimized for a Real-space Cutoff    1.63 Angstroem

   l    n(q)    QCUT    max X(q) W(low)/X(q) W(high)/X(q)  e(spline) 
   1     11    11.565     4.545    0.12E-04    0.18E-04    0.64E-07
   1     11    11.565     6.014    0.42E-04    0.48E-04    0.13E-06
   2     10    11.565   266.542    0.24E-03    0.87E-04    0.13E-05
   2     10    11.565   232.726    0.24E-03    0.87E-04    0.13E-05
   0     11    11.565    38.050    0.76E-04    0.32E-05    0.94E-06
   0     11    11.565    16.565    0.58E-04    0.25E-05    0.73E-06
  PAW_PBE Nb_pv 08Apr2002               :
 energy of atom  1       EATOM=-1043.3917
 kinetic energy error for atom=    0.0011 (will be added to EATOM!!)


 POSCAR: Nb2
  positions in direct lattice
  velocities in cartesian coordinates
 exchange correlation table for  LEXCH =        8
   RHO(1)=    0.500       N(1)  =     2000
   RHO(2)=  100.500       N(2)  =     4000



--------------------------------------------------------------------------------------------------------


 ion  position               nearest neighbor table
   1  0.000  0.000  0.000-   2 3.07   2 3.07   2 3.07   2 3.07   2 3.07   2 3.07   2 3.07   2 3.07

   2  0.500  0.500  0.500-   1 3.07   1 3.07   1 3.07   1 3.07   1 3.07   1 3.07   1 3.07   1 3.07


  LATTYP: Found a simple cubic cell.
 ALAT       =     3.5396954922
  
  Lattice vectors:
  
 A1 = (   3.5396954922,   0.0000000000,   0.0000000000)
 A2 = (   0.0000000000,   3.5396954922,   0.0000000000)
 A3 = (  -0.0000000000,  -0.0000000000,   3.5396954922)


Analysis of symmetry for initial positions (statically):
=====================================================================
 Subroutine PRICEL returns following result:
 
  LATTYP: Found a body centered cubic cell.
 ALAT       =     3.5396954922
  
  Lattice vectors:
  
 A1 = (   1.7698477461,   1.7698477461,  -1.7698477461)
 A2 = (  -1.7698477461,   1.7698477461,   1.7698477461)
 A3 = (   1.7698477461,  -1.7698477461,   1.7698477461)
 
   2 primitive cells build up your supercell.
 

 Routine SETGRP: Setting up the symmetry group for a 
 simple cubic supercell.


 Subroutine GETGRP returns: Found 48 space group operations
 (whereof 48 operations were pure point group operations)
 out of a pool of 48 trial point group operations.


The static configuration has the point symmetry O_h .


Analysis of symmetry for dynamics (positions and initial velocities):
=====================================================================
 Subroutine PRICEL returns following result:
 
  LATTYP: Found a body centered cubic cell.
 ALAT       =     3.5396954922
  
  Lattice vectors:
  
 A1 = (   1.7698477461,   1.7698477461,  -1.7698477461)
 A2 = (  -1.7698477461,   1.7698477461,   1.7698477461)
 A3 = (   1.7698477461,  -1.7698477461,   1.7698477461)
 
   2 primitive cells build up your supercell.
 

 Routine SETGRP: Setting up the symmetry group for a 
 simple cubic supercell.


 Subroutine GETGRP returns: Found 48 space group operations
 (whereof 48 operations were pure point group operations)
 out of a pool of 48 trial point group operations.


The dynamic configuration has the point symmetry O_h .


Analysis of structural, dynamic, and magnetic symmetry:
=====================================================================
 Subroutine PRICEL returns following result:
 
  LATTYP: Found a body centered cubic cell.
 ALAT       =     3.5396954922
  
  Lattice vectors:
  
 A1 = (   1.7698477461,   1.7698477461,  -1.7698477461)
 A2 = (  -1.7698477461,   1.7698477461,   1.7698477461)
 A3 = (   1.7698477461,  -1.7698477461,   1.7698477461)
 
   2 primitive cells build up your supercell.
 

 Routine SETGRP: Setting up the symmetry group for a 
 simple cubic supercell.


 Subroutine GETGRP returns: Found 48 space group operations
 (whereof 48 operations were pure point group operations)
 out of a pool of 48 trial point group operations.


The overall configuration has the point symmetry O_h .


 Subroutine INISYM returns: Found 48 space group operations
 (whereof 48 operations are pure point group operations),
 and found     2 'primitive' translations


----------------------------------------------------------------------------------------

                                     Primitive cell                                     

  volume of cell :      22.1752

  direct lattice vectors                    reciprocal lattice vectors
     1.769847746  1.769847746 -1.769847746     0.282510177  0.282510177 -0.000000000
    -1.769847746  1.769847746  1.769847746     0.000000000  0.282510177  0.282510177
     1.769847746 -1.769847746  1.769847746     0.282510177 -0.000000000  0.282510177

  length of vectors
     3.065466218  3.065466218  3.065466218     0.399529724  0.399529724  0.399529724

  position of ions in fractional coordinates (direct lattice)
     0.000000000  0.000000000  0.000000000

  ion indices of the primitive-cell ions
   primitive index   ion index
                 1           1

----------------------------------------------------------------------------------------



 KPOINTS: pymatgen with grid density = 869 / numbe

Automatic generation of k-mesh.
 Grid dimensions read from file:
 generate k-points for:    7    7    7

 Generating k-lattice:

  Cartesian coordinates                     Fractional coordinates (reciprocal lattice)
     0.040358597 -0.000000000  0.000000000     0.142857143  0.000000000  0.000000000
    -0.000000000  0.040358597  0.000000000     0.000000000  0.142857143  0.000000000
    -0.000000000 -0.000000000  0.040358597     0.000000000 -0.000000000  0.142857143

  Length of vectors
     0.040358597  0.040358597  0.040358597

  Shift w.r.t. Gamma in fractional coordinates (k-lattice)
     0.000000000  0.000000000  0.000000000

 TETIRR: Found    163 inequivalent tetrahedra from     2058
 
 Subroutine IBZKPT returns following result:
 ===========================================
 
 Found     20 irreducible k-points:
 
 Following reciprocal coordinates:
            Coordinates               Weight
  0.000000  0.000000  0.000000      1.000000
  0.142857  0.000000  0.000000      6.000000
  0.285714  0.000000  0.000000      6.000000
  0.428571  0.000000  0.000000      6.000000
  0.142857  0.142857  0.000000     12.000000
  0.285714  0.142857  0.000000     24.000000
  0.428571  0.142857  0.000000     24.000000
  0.285714  0.285714  0.000000     12.000000
  0.428571  0.285714  0.000000     24.000000
  0.428571  0.428571  0.000000     12.000000
  0.142857  0.142857  0.142857      8.000000
  0.285714  0.142857  0.142857     24.000000
  0.428571  0.142857  0.142857     24.000000
  0.285714  0.285714  0.142857     24.000000
  0.428571  0.285714  0.142857     48.000000
  0.428571  0.428571  0.142857     24.000000
  0.285714  0.285714  0.285714      8.000000
  0.428571  0.285714  0.285714     24.000000
  0.428571  0.428571  0.285714     24.000000
  0.428571  0.428571  0.428571      8.000000
 
 Following cartesian coordinates:
            Coordinates               Weight
  0.000000  0.000000  0.000000      1.000000
  0.043006  0.000000  0.000000      6.000000
  0.086012  0.000000  0.000000      6.000000
  0.129019  0.000000  0.000000      6.000000
  0.043006  0.043006  0.000000     12.000000
  0.086012  0.043006  0.000000     24.000000
  0.129019  0.043006  0.000000     24.000000
  0.086012  0.086012  0.000000     12.000000
  0.129019  0.086012  0.000000     24.000000
  0.129019  0.129019  0.000000     12.000000
  0.043006  0.043006  0.043006      8.000000
  0.086012  0.043006  0.043006     24.000000
  0.129019  0.043006  0.043006     24.000000
  0.086012  0.086012  0.043006     24.000000
  0.129019  0.086012  0.043006     48.000000
  0.129019  0.129019  0.043006     24.000000
  0.086012  0.086012  0.086012      8.000000
  0.129019  0.086012  0.086012     24.000000
  0.129019  0.129019  0.086012     24.000000
  0.129019  0.129019  0.129019      8.000000
 


--------------------------------------------------------------------------------------------------------




 Dimension of arrays:
   k-points           NKPTS =     20   k-points in BZ     NKDIM =     20   number of bands    NBANDS=     16
   number of dos      NEDOS =    301   number of ions     NIONS =      2
   non local maximal  LDIM  =      6   non local SUM 2l+1 LMDIM =     18
   total plane-waves  NPLWV =  21952
   max r-space proj   IRMAX =   8983   max aug-charges    IRDMAX=  30670
   dimension x,y,z NGX =    28 NGY =   28 NGZ =   28
   dimension x,y,z NGXF=    56 NGYF=   56 NGZF=   56
   support grid    NGXF=    56 NGYF=   56 NGZF=   56
   ions per type =               2
   NGX,Y,Z   is equivalent  to a cutoff of  13.15, 13.15, 13.15 a.u.
   NGXF,Y,Z  is equivalent  to a cutoff of  26.30, 26.30, 26.30 a.u.

 SYSTEM =  unknown system                          
 POSCAR =  Nb2                                     

 Startparameter for this run:
   NWRITE =      2    write-flag & timer
   PREC   = accura    normal or accurate (medium, high low for compatibility)
   ISTART =      0    job   : 0-new  1-cont  2-samecut
   ICHARG =      2    charge: 1-file 2-atom 10-const
   ISPIN  =      2    spin polarized calculation?
   LNONCOLLINEAR =      F non collinear calculations
   LSORBIT =      F    spin-orbit coupling
   INIWAV =      1    electr: 0-lowe 1-rand  2-diag
   LASPH  =      T    aspherical Exc in radial PAW
 Electronic Relaxation 1
   ENCUT  =  520.0 eV  38.22 Ry    6.18 a.u.   6.58  6.58  6.58*2*pi/ulx,y,z
   ENINI  =  520.0     initial cutoff
   ENAUG  =  355.1 eV  augmentation charge cutoff
   NELM   =    100;   NELMIN=  2; NELMDL= -5     # of ELM steps 
   EDIFF  = 0.1E-03   stopping-criterion for ELM
   LREAL  =      T    real-space projection
   NLSPLINE    = F    spline interpolate recip. space projectors
   LCOMPAT=      F    compatible to vasp.4.4
   GGA_COMPAT  = T    GGA compatible to vasp.4.4-vasp.4.6
   LMAXPAW     = -100 max onsite density
   LMAXMIX     =    6 max onsite mixed and CHGCAR
   VOSKOWN=      0    Vosko Wilk Nusair interpolation
   ROPT   =   -0.00025
 Ionic relaxation
   EDIFFG = 0.1E-02   stopping-criterion for IOM
   NSW    =      0    number of steps for IOM
   NBLOCK =      1;   KBLOCK =      1    inner block; outer block 
   IBRION =     -1    ionic relax: 0-MD 1-quasi-New 2-CG
   NFREE  =      0    steps in history (QN), initial steepest desc. (CG)
   ISIF   =      2    stress and relaxation
   IWAVPR =     10    prediction:  0-non 1-charg 2-wave 3-comb
   ISYM   =      2    0-nonsym 1-usesym 2-fastsym
   LCORR  =      T    Harris-Foulkes like correction to forces

   POTIM  = 0.5000    time-step for ionic-motion
   TEIN   =    0.0    initial temperature
   TEBEG  =    0.0;   TEEND  =   0.0 temperature during run
   SMASS  =  -3.00    Nose mass-parameter (am)
   estimated Nose-frequenzy (Omega)   =  0.10E-29 period in steps = 0.13E+47 mass=  -0.286E-27a.u.
   SCALEE = 1.0000    scale energy and forces
   NPACO  =    256;   APACO  = 10.0  distance and # of slots for P.C.
   PSTRESS=    0.0 pullay stress

  Mass of Ions in am
   POMASS =  92.00
  Ionic Valenz
   ZVAL   =  11.00
  Atomic Wigner-Seitz radii
   RWIGS  =  -1.00
  virtual crystal weights 
   VCA    =   1.00
   NELECT =      22.0000    total number of electrons
   NUPDOWN=      -1.0000    fix difference up-down

 DOS related values:
   EMIN   =  10.00;   EMAX   =-10.00  energy-range for DOS
   EFERMI =   0.00;   METHOD = LEGACY      
   ISMEAR =    -5;   SIGMA  =   0.05  broadening in eV -4-tet -1-fermi 0-gaus

 Electronic relaxation 2 (details)
   IALGO  =     68    algorithm
   LDIAG  =      T    sub-space diagonalisation (order eigenvalues)
   LSUBROT=      F    optimize rotation matrix (better conditioning)
   TURBO    =      0    0=normal 1=particle mesh
   IRESTART =      0    0=no restart 2=restart with 2 vectors
   NREBOOT  =      0    no. of reboots
   NMIN     =      0    reboot dimension
   EREF     =   0.00    reference energy to select bands
   IMIX   =      4    mixing-type and parameters
     AMIX     =   0.40;   BMIX     =  1.00
     AMIX_MAG =   1.60;   BMIX_MAG =  1.00
     AMIN     =   0.10
     WC   =   100.;   INIMIX=   1;  MIXPRE=   1;  MAXMIX= -45

 Intra band minimization:
   WEIMIN = 0.0000     energy-eigenvalue tresh-hold
   EBREAK =  0.16E-05  absolut break condition
   DEPER  =   0.30     relativ break condition  

   TIME   =   0.40     timestep for ELM

  volume/ion in A,a.u.               =      22.18       149.65
  Fermi-wavevector in a.u.,A,eV,Ry     =   1.295935  2.448962 22.850264  1.679447
  Thomas-Fermi vector in A             =   2.427423

 Write flags
   LWAVE        =      F    write WAVECAR
   LDOWNSAMPLE  =      F    k-point downsampling of WAVECAR
   LCHARG       =      T    write CHGCAR
   LVTOT        =      F    write LOCPOT, total local potential
   LVHAR        =      F    write LOCPOT, Hartree potential only
   LELF         =      F    write electronic localiz. function (ELF)
   LORBIT       =     11    0 simple, 1 ext, 2 COOP (PROOUT), +10 PAW based schemes


 Dipole corrections
   LMONO  =      F    monopole corrections only (constant potential shift)
   LDIPOL =      F    correct potential (dipole corrections)
   IDIPOL =      0    1-x, 2-y, 3-z, 4-all directions 
   EPSILON=  1.0000000 bulk dielectric constant

 Exchange correlation treatment:
   GGA     =    --    GGA type
   LEXCH   =     8    internal setting for exchange type
   LIBXC   =     F    Libxc                    
   VOSKOWN =     0    Vosko Wilk Nusair interpolation
   LHFCALC =     F    Hartree Fock is set to
   LHFONE  =     F    Hartree Fock one center treatment
   AEXX    =    0.0000 exact exchange contribution

 Linear response parameters
   LEPSILON=     F    determine dielectric tensor
   LRPA    =     F    only Hartree local field effects (RPA)
   LNABLA  =     F    use nabla operator in PAW spheres
   LVEL    =     F    velocity operator in full k-point grid
   CSHIFT  =0.1000    complex shift for real part using Kramers Kronig
   OMEGAMAX=  -1.0    maximum frequency
   DEG_THRESHOLD= 0.2000000E-02 threshold for treating states as degnerate
   RTIME   =   -0.100 relaxation time in fs
  (WPLASMAI=    0.000 imaginary part of plasma frequency in eV, 0.658/RTIME)
   DFIELD  = 0.0000000 0.0000000 0.0000000 field for delta impulse in time

  Optional k-point grid parameters
   LKPOINTS_OPT  =     F    use optional k-point grid
   KPOINTS_OPT_MODE=     1    mode for optional k-point grid

 Orbital magnetization related:
   ORBITALMAG=     F  switch on orbital magnetization
   LCHIMAG   =     F  perturbation theory with respect to B field
   DQ        =  0.001000  dq finite difference perturbation B field
   LLRAUG    =     F  two centre corrections for induced B field
   LBONE     =     F  B-component reconstruction in AE one-centre
   LVGVCALC  =     T  calculate vGv susceptibility
   LVGVAPPL  =     F  apply vGv susceptibility instead of pGv for G=0

 Random number generation:
   RANDOM_GENERATOR = DEFAULT
   PCG_SEED         = not used


--------------------------------------------------------------------------------------------------------


 Static calculation
 charge density and potential will be updated during run
 spin polarized calculation
 RMM-DIIS sequential band-by-band and
  variant of blocked Davidson during initial phase
 perform sub-space diagonalisation
    before iterative eigenvector-optimisation
 modified Broyden-mixing scheme, WC =      100.0
 initial mixing is a Kerker type mixing with AMIX =  0.4000 and BMIX =      1.0000
 Hartree-type preconditioning will be used
 using additional bands            5
 real space projection scheme for non local part
 use partial core corrections
 calculate Harris-corrections to forces   (improved forces if not selfconsistent)
 use gradient corrections 
 use of overlap-Matrix (Vanderbilt PP)
 Fermi weights with tetrahedron method with Bloechl corrections


--------------------------------------------------------------------------------------------------------


  energy-cutoff  :      520.00
  volume of cell :       44.35
      direct lattice vectors                 reciprocal lattice vectors
     3.539695492  0.000000000  0.000000000     0.282510177 -0.000000000  0.000000000
     0.000000000  3.539695492  0.000000000    -0.000000000  0.282510177  0.000000000
    -0.000000000 -0.000000000  3.539695492    -0.000000000 -0.000000000  0.282510177

  length of vectors
     3.539695492  3.539695492  3.539695492     0.282510177  0.282510177  0.282510177



 k-points in units of 2pi/SCALE and weight: pymatgen with grid density = 869 / numbe
   0.00000000  0.00000000  0.00000000       0.003
   0.04300621  0.00000000  0.00000000       0.017
   0.08601242  0.00000000  0.00000000       0.017
   0.12901863  0.00000000  0.00000000       0.017
   0.04300621  0.04300621  0.00000000       0.035
   0.08601242  0.04300621  0.00000000       0.070
   0.12901863  0.04300621  0.00000000       0.070
   0.08601242  0.08601242  0.00000000       0.035
   0.12901863  0.08601242  0.00000000       0.070
   0.12901863  0.12901863  0.00000000       0.035
   0.04300621  0.04300621  0.04300621       0.023
   0.08601242  0.04300621  0.04300621       0.070
   0.12901863  0.04300621  0.04300621       0.070
   0.08601242  0.08601242  0.04300621       0.070
   0.12901863  0.08601242  0.04300621       0.140
   0.12901863  0.12901863  0.04300621       0.070
   0.08601242  0.08601242  0.08601242       0.023
   0.12901863  0.08601242  0.08601242       0.070
   0.12901863  0.12901863  0.08601242       0.070
   0.12901863  0.12901863  0.12901863       0.023

 k-points in reciprocal lattice and weights: pymatgen with grid density = 869 / numbe
   0.00000000  0.00000000  0.00000000       0.003
   0.14285714  0.00000000  0.00000000       0.017
   0.28571429  0.00000000  0.00000000       0.017
   0.42857143  0.00000000  0.00000000       0.017
   0.14285714  0.14285714  0.00000000       0.035
   0.28571429  0.14285714  0.00000000       0.070
   0.42857143  0.14285714  0.00000000       0.070
   0.28571429  0.28571429  0.00000000       0.035
   0.42857143  0.28571429  0.00000000       0.070
   0.42857143  0.42857143  0.00000000       0.035
   0.14285714  0.14285714  0.14285714       0.023
   0.28571429  0.14285714  0.14285714       0.070
   0.42857143  0.14285714  0.14285714       0.070
   0.28571429  0.28571429  0.14285714       0.070
   0.42857143  0.28571429  0.14285714       0.140
   0.42857143  0.42857143  0.14285714       0.070
   0.28571429  0.28571429  0.28571429       0.023
   0.42857143  0.28571429  0.28571429       0.070
   0.42857143  0.42857143  0.28571429       0.070
   0.42857143  0.42857143  0.42857143       0.023

 position of ions in fractional coordinates (direct lattice) 
   0.00000000  0.00000000  0.00000000
   0.50000000  0.50000000  0.50000000

 position of ions in cartesian coordinates  (Angst):
   0.00000000  0.00000000  0.00000000
   1.76984775  1.76984775  1.76984775



--------------------------------------------------------------------------------------------------------


 k-point   1 :   0.0000 0.0000 0.0000  plane waves:    1213
 k-point   2 :   0.1429 0.0000 0.0000  plane waves:    1201
 k-point   3 :   0.2857 0.0000 0.0000  plane waves:    1197
 k-point   4 :   0.4286 0.0000 0.0000  plane waves:    1194
 k-point   5 :   0.1429 0.1429 0.0000  plane waves:    1203
 k-point   6 :   0.2857 0.1429 0.0000  plane waves:    1191
 k-point   7 :   0.4286 0.1429 0.0000  plane waves:    1193
 k-point   8 :   0.2857 0.2857 0.0000  plane waves:    1185
 k-point   9 :   0.4286 0.2857 0.0000  plane waves:    1193
 k-point  10 :   0.4286 0.4286 0.0000  plane waves:    1192
 k-point  11 :   0.1429 0.1429 0.1429  plane waves:    1207
 k-point  12 :   0.2857 0.1429 0.1429  plane waves:    1200
 k-point  13 :   0.4286 0.1429 0.1429  plane waves:    1189
 k-point  14 :   0.2857 0.2857 0.1429  plane waves:    1195
 k-point  15 :   0.4286 0.2857 0.1429  plane waves:    1202
 k-point  16 :   0.4286 0.4286 0.1429  plane waves:    1185
 k-point  17 :   0.2857 0.2857 0.2857  plane waves:    1190
 k-point  18 :   0.4286 0.2857 0.2857  plane waves:    1189
 k-point  19 :   0.4286 0.4286 0.2857  plane waves:    1185
 k-point  20 :   0.4286 0.4286 0.4286  plane waves:    1178

 maximum and minimum number of plane-waves per node :      1213     1178

 maximum number of plane-waves:      1213
 maximum index in each direction: 
   IXMAX=    6   IYMAX=    6   IZMAX=    6
   IXMIN=   -7   IYMIN=   -6   IZMIN=   -6


 serial   3D FFT for wavefunctions
 parallel 3D FFT for charge:
    minimum data exchange during FFTs selected (reduces bandwidth)


 total amount of memory used by VASP MPI-rank0    69094. kBytes
=======================================================================

   base      :      30000. kBytes
   nonlr-proj:       5275. kBytes
   fftplans  :       6192. kBytes
   grid      :      14776. kBytes
   one-center:         62. kBytes
   wavefun   :      12789. kBytes

     INWAV:  cpu time      0.0047: real time      0.0000
 Broyden mixing: mesh for mixing (old mesh)
   NGX = 13   NGY = 13   NGZ = 13
  (NGX  = 56   NGY  = 56   NGZ  = 56)
  gives a total of   2197 points

 initial charge density was supplied:
 charge density of overlapping atoms calculated
 number of electron      22.0000000 magnetization       1.2000000
 keeping initial charge density in first step


--------------------------------------------------------------------------------------------------------


 Maximum index for non-local projection operator          994
 Maximum index for augmentation-charges        29423 (set IRDMAX)


--------------------------------------------------------------------------------------------------------


 First call to EWALD:  gamma=   0.501
 Maximum number of real-space cells 3x 3x 3
 Maximum number of reciprocal cells 3x 3x 3

    FEWALD:  cpu time      0.0067: real time      0.0047


--------------------------------------- Ionic step        1  -------------------------------------------




--------------------------------------- Iteration      1(   1)  ---------------------------------------


    POTLOK:  cpu time      2.2613: real time      0.1509
    SETDIJ:  cpu time      1.0418: real time      0.2542
     EDDAV:  cpu time    104.5619: real time      5.9652
 BZINTS: Fermi energy:   21.122053;   22.000000 electrons
         Band energy:-0.654156E+02;  BLOECHL correction:   -0.726936
       DOS:  cpu time      0.1288: real time      0.0085
    --------------------------------------------
      LOOP:  cpu time    107.9937: real time      6.3788

 eigenvalue-minimisations  :  1408
 total energy-change (2. order) : 0.1912478E+03  (-0.1157113E+04)
 number of electron      22.0000000 magnetization       1.2000000
 augmentation part       22.0000000 magnetization       1.2000000

 Free energy of the ion-electron system (eV)
  ---------------------------------------------------
  alpha Z        PSCENC =       204.15077821
  Ewald energy   TEWEN  =     -1791.37066771
  -Hartree energ DENC   =      -325.99465750
  -exchange      EXHF   =         0.00000000
  -V(xc)+E(xc)   XCENC  =        51.18813870
  PAW double counting   =      1671.32378679    -1639.41528309
  entropy T*S    EENTRO =         0.00000000
  eigenvalues    EBANDS =       -65.41557689
  atomic energy  EATOM  =      2086.78124273
  Solvation  Ediel_sol  =         0.00000000
  ---------------------------------------------------
  free energy    TOTEN  =       191.24776124 eV

  energy without entropy =      191.24776124  energy(sigma->0) =      191.24776124


--------------------------------------------------------------------------------------------------------




--------------------------------------- Iteration      1(   2)  ---------------------------------------


     EDDAV:  cpu time    107.9926: real time      6.1145
 BZINTS: Fermi energy:    5.960653;   22.000000 electrons
         Band energy:-0.267468E+03;  BLOECHL correction:   -0.285275
       DOS:  cpu time      0.1133: real time      0.0091
    --------------------------------------------
      LOOP:  cpu time    108.1059: real time      6.1236

 eigenvalue-minimisations  :  1376
 total energy-change (2. order) :-0.2020527E+03  (-0.2001792E+03)
 number of electron      22.0000000 magnetization       1.2000000
 augmentation part       22.0000000 magnetization       1.2000000

 Free energy of the ion-electron system (eV)
  ---------------------------------------------------
  alpha Z        PSCENC =       204.15077821
  Ewald energy   TEWEN  =     -1791.37066771
  -Hartree energ DENC   =      -325.99465750
  -exchange      EXHF   =         0.00000000
  -V(xc)+E(xc)   XCENC  =        51.18813870
  PAW double counting   =      1671.32378679    -1639.41528309
  entropy T*S    EENTRO =         0.00000000
  eigenvalues    EBANDS =      -267.46829743
  atomic energy  EATOM  =      2086.78124273
  Solvation  Ediel_sol  =         0.00000000
  ---------------------------------------------------
  free energy    TOTEN  =       -10.80495930 eV

  energy without entropy =      -10.80495930  energy(sigma->0) =      -10.80495930


--------------------------------------------------------------------------------------------------------




--------------------------------------- Iteration      1(   3)  ---------------------------------------


     EDDAV:  cpu time    173.5982: real time      9.5986
 BZINTS: Fermi energy:    4.247312;   22.000000 electrons
         Band energy:-0.277286E+03;  BLOECHL correction:   -0.144283
       DOS:  cpu time      0.1247: real time      0.0128
    --------------------------------------------
      LOOP:  cpu time    173.7229: real time      9.6113

 eigenvalue-minimisations  :  2152
 total energy-change (2. order) :-0.9817300E+01  (-0.9392119E+01)
 number of electron      22.0000000 magnetization       1.2000000
 augmentation part       22.0000000 magnetization       1.2000000

 Free energy of the ion-electron system (eV)
  ---------------------------------------------------
  alpha Z        PSCENC =       204.15077821
  Ewald energy   TEWEN  =     -1791.37066771
  -Hartree energ DENC   =      -325.99465750
  -exchange      EXHF   =         0.00000000
  -V(xc)+E(xc)   XCENC  =        51.18813870
  PAW double counting   =      1671.32378679    -1639.41528309
  entropy T*S    EENTRO =         0.00000000
  eigenvalues    EBANDS =      -277.28559715
  atomic energy  EATOM  =      2086.78124273
  Solvation  Ediel_sol  =         0.00000000
  ---------------------------------------------------
  free energy    TOTEN  =       -20.62225903 eV

  energy without entropy =      -20.62225903  energy(sigma->0) =      -20.62225903


--------------------------------------------------------------------------------------------------------




--------------------------------------- Iteration      1(   4)  ---------------------------------------


     EDDAV:  cpu time    116.0105: real time      6.6240
 BZINTS: Fermi energy:    4.211244;   22.000000 electrons
         Band energy:-0.277491E+03;  BLOECHL correction:   -0.148622
       DOS:  cpu time      0.1194: real time      0.0091
    --------------------------------------------
      LOOP:  cpu time    116.1299: real time      6.6331

 eigenvalue-minimisations  :  1600
 total energy-change (2. order) :-0.2051240E+00  (-0.1968626E+00)
 number of electron      22.0000000 magnetization       1.2000000
 augmentation part       22.0000000 magnetization       1.2000000

 Free energy of the ion-electron system (eV)
  ---------------------------------------------------
  alpha Z        PSCENC =       204.15077821
  Ewald energy   TEWEN  =     -1791.37066771
  -Hartree energ DENC   =      -325.99465750
  -exchange      EXHF   =         0.00000000
  -V(xc)+E(xc)   XCENC  =        51.18813870
  PAW double counting   =      1671.32378679    -1639.41528309
  entropy T*S    EENTRO =         0.00000000
  eigenvalues    EBANDS =      -277.49072111
  atomic energy  EATOM  =      2086.78124273
  Solvation  Ediel_sol  =         0.00000000
  ---------------------------------------------------
  free energy    TOTEN  =       -20.82738298 eV

  energy without entropy =      -20.82738298  energy(sigma->0) =      -20.82738298


--------------------------------------------------------------------------------------------------------




--------------------------------------- Iteration      1(   5)  ---------------------------------------


     EDDAV:  cpu time    143.3568: real time      8.1852
 BZINTS: Fermi energy:    4.210502;   22.000000 electrons
         Band energy:-0.277495E+03;  BLOECHL correction:   -0.148490
       DOS:  cpu time      0.1192: real time      0.0093
    CHARGE:  cpu time      8.8280: real time      0.4908
    MIXING:  cpu time      0.0014: real time      0.0014
    --------------------------------------------
      LOOP:  cpu time    152.3054: real time      8.6867

 eigenvalue-minimisations  :  2032
 total energy-change (2. order) :-0.4773337E-02  (-0.4714002E-02)
 number of electron      22.0000008 magnetization       0.4719662
 augmentation part        7.6811644 magnetization      -0.0046549

 Broyden mixing:
  rms(total) = 0.17155E+01    rms(broyden)= 0.17155E+01
  rms(prec ) = 0.23834E+01
  weight for this iteration     100.00

 Free energy of the ion-electron system (eV)
  ---------------------------------------------------
  alpha Z        PSCENC =       204.15077821
  Ewald energy   TEWEN  =     -1791.37066771
  -Hartree energ DENC   =      -325.99465750
  -exchange      EXHF   =         0.00000000
  -V(xc)+E(xc)   XCENC  =        51.18813870
  PAW double counting   =      1671.32378679    -1639.41528309
  entropy T*S    EENTRO =         0.00000000
  eigenvalues    EBANDS =      -277.49549444
  atomic energy  EATOM  =      2086.78124273
  Solvation  Ediel_sol  =         0.00000000
  ---------------------------------------------------
  free energy    TOTEN  =       -20.83215632 eV

  energy without entropy =      -20.83215632  energy(sigma->0) =      -20.83215632


--------------------------------------------------------------------------------------------------------




--------------------------------------- Iteration      1(   6)  ---------------------------------------


    POTLOK:  cpu time      1.5343: real time      0.1238
    SETDIJ:  cpu time      1.0553: real time      0.2556
    EDDIAG:  cpu time     29.2130: real time      1.6510
  RMM-DIIS:  cpu time     77.0868: real time      4.3002
    ORTHCH:  cpu time      0.3119: real time      0.0193
 BZINTS: Fermi energy:    3.748084;   22.000000 electrons
         Band energy:-0.296107E+03;  BLOECHL correction:   -0.156227
       DOS:  cpu time      0.1191: real time      0.0092
    CHARGE:  cpu time      9.7447: real time      0.5478
    MIXING:  cpu time      0.1110: real time      0.0014
    --------------------------------------------
      LOOP:  cpu time    119.1761: real time      6.9082

 eigenvalue-minimisations  :  1415
 total energy-change (2. order) : 0.1161024E+01  (-0.1427171E+00)
 number of electron      22.0000009 magnetization       0.3741800
 augmentation part        7.8493341 magnetization       0.0251214

 Broyden mixing:
  rms(total) = 0.51223E+00    rms(broyden)= 0.51223E+00
  rms(prec ) = 0.96298E+00
  weight for this iteration     100.00

 eigenvalues of (default mixing * dielectric matrix)
  average eigenvalue GAMMA=   1.2803
  1.2803

 Free energy of the ion-electron system (eV)
  ---------------------------------------------------
  alpha Z        PSCENC =       204.15077821
  Ewald energy   TEWEN  =     -1791.37066771
  -Hartree energ DENC   =      -301.73193467
  -exchange      EXHF   =         0.00000000
  -V(xc)+E(xc)   XCENC  =        49.95073025
  PAW double counting   =      1971.12475356    -1942.46863626
  entropy T*S    EENTRO =         0.00000000
  eigenvalues    EBANDS =      -296.10739860
  atomic energy  EATOM  =      2086.78124273
  Solvation  Ediel_sol  =         0.00000000
  ---------------------------------------------------
  free energy    TOTEN  =       -19.67113248 eV

  energy without entropy =      -19.67113248  energy(sigma->0) =      -19.67113248


--------------------------------------------------------------------------------------------------------




--------------------------------------- Iteration      1(   7)  ---------------------------------------


    POTLOK:  cpu time      2.3123: real time      0.1617
    SETDIJ:  cpu time      1.0877: real time      0.2612
    EDDIAG:  cpu time     29.9778: real time      1.6770
  RMM-DIIS:  cpu time     88.0107: real time      4.8923
    ORTHCH:  cpu time      0.3226: real time      0.0205
 BZINTS: Fermi energy:    3.384575;   22.000000 electrons
         Band energy:-0.309944E+03;  BLOECHL correction:   -0.162504
       DOS:  cpu time      0.1220: real time      0.0120
    CHARGE:  cpu time      8.1779: real time      0.4650
    MIXING:  cpu time      0.0019: real time      0.0019
    --------------------------------------------
      LOOP:  cpu time    130.0130: real time      7.4917

 eigenvalue-minimisations  :  1730
 total energy-change (2. order) : 0.1153044E+00  (-0.3094256E+00)
 number of electron      22.0000009 magnetization       0.1925254
 augmentation part        8.0553532 magnetization       0.0542674

 Broyden mixing:
  rms(total) = 0.17696E+00    rms(broyden)= 0.17696E+00
  rms(prec ) = 0.21618E+00
  weight for this iteration     100.00

 eigenvalues of (default mixing * dielectric matrix)
  average eigenvalue GAMMA=   0.9872
  1.3688  0.6057

 Free energy of the ion-electron system (eV)
  ---------------------------------------------------
  alpha Z        PSCENC =       204.15077821
  Ewald energy   TEWEN  =     -1791.37066771
  -Hartree energ DENC   =      -284.46204952
  -exchange      EXHF   =         0.00000000
  -V(xc)+E(xc)   XCENC  =        49.10315959
  PAW double counting   =      2130.29998322    -2104.11437377
  entropy T*S    EENTRO =         0.00000000
  eigenvalues    EBANDS =      -309.94390079
  atomic energy  EATOM  =      2086.78124273
  Solvation  Ediel_sol  =         0.00000000
  ---------------------------------------------------
  free energy    TOTEN  =       -19.55582805 eV

  energy without entropy =      -19.55582805  energy(sigma->0) =      -19.55582805


--------------------------------------------------------------------------------------------------------




--------------------------------------- Iteration      1(   8)  ---------------------------------------


    POTLOK:  cpu time      2.7312: real time      0.1803
    SETDIJ:  cpu time      1.0800: real time      0.2509
    EDDIAG:  cpu time     25.4941: real time      1.4595
  RMM-DIIS:  cpu time     88.9755: real time      5.0203
    ORTHCH:  cpu time      0.3175: real time      0.0212
 BZINTS: Fermi energy:    3.413767;   22.000000 electrons
         Band energy:-0.308567E+03;  BLOECHL correction:   -0.162397
       DOS:  cpu time      0.1189: real time      0.0089
    CHARGE:  cpu time      8.2499: real time      0.4745
    MIXING:  cpu time      0.0015: real time      0.0015
    --------------------------------------------
      LOOP:  cpu time    126.9686: real time      7.4169

 eigenvalue-minimisations  :  1865
 total energy-change (2. order) :-0.1187848E-01  (-0.1738583E-01)
 number of electron      22.0000009 magnetization       0.1545078
 augmentation part        8.0574280 magnetization       0.0449759

 Broyden mixing:
  rms(total) = 0.91038E-01    rms(broyden)= 0.91038E-01
  rms(prec ) = 0.12657E+00
  weight for this iteration     100.00

 eigenvalues of (default mixing * dielectric matrix)
  average eigenvalue GAMMA=   0.9866
  1.5270  0.7164  0.7164

 Free energy of the ion-electron system (eV)
  ---------------------------------------------------
  alpha Z        PSCENC =       204.15077821
  Ewald energy   TEWEN  =     -1791.37066771
  -Hartree energ DENC   =      -285.82099938
  -exchange      EXHF   =         0.00000000
  -V(xc)+E(xc)   XCENC  =        49.16187427
  PAW double counting   =      2147.37413352    -2121.27724720
  entropy T*S    EENTRO =         0.00000000
  eigenvalues    EBANDS =      -308.56682098
  atomic energy  EATOM  =      2086.78124273
  Solvation  Ediel_sol  =         0.00000000
  ---------------------------------------------------
  free energy    TOTEN  =       -19.56770652 eV

  energy without entropy =      -19.56770652  energy(sigma->0) =      -19.56770652


--------------------------------------------------------------------------------------------------------




--------------------------------------- Iteration      1(   9)  ---------------------------------------


    POTLOK:  cpu time      2.1869: real time      0.1428
    SETDIJ:  cpu time      0.9969: real time      0.2568
    EDDIAG:  cpu time     20.4540: real time      1.1807
  RMM-DIIS:  cpu time     82.1858: real time      4.6358
    ORTHCH:  cpu time      0.3266: real time      0.0233
 BZINTS: Fermi energy:    3.424861;   22.000000 electrons
         Band energy:-0.308008E+03;  BLOECHL correction:   -0.162361
       DOS:  cpu time      0.1306: real time      0.0099
    CHARGE:  cpu time      7.8023: real time      0.4426
    MIXING:  cpu time      0.0019: real time      0.0019
    --------------------------------------------
      LOOP:  cpu time    114.0849: real time      6.6938

 eigenvalue-minimisations  :  1803
 total energy-change (2. order) :-0.2084997E-02  (-0.4193109E-02)
 number of electron      22.0000009 magnetization       0.0801930
 augmentation part        8.0584195 magnetization       0.0002506

 Broyden mixing:
  rms(total) = 0.70045E-01    rms(broyden)= 0.70045E-01
  rms(prec ) = 0.10236E+00
  weight for this iteration     100.00

 eigenvalues of (default mixing * dielectric matrix)
  average eigenvalue GAMMA=   1.0142
  1.7409  0.8749  0.8749  0.5661

 Free energy of the ion-electron system (eV)
  ---------------------------------------------------
  alpha Z        PSCENC =       204.15077821
  Ewald energy   TEWEN  =     -1791.37066771
  -Hartree energ DENC   =      -286.38480722
  -exchange      EXHF   =         0.00000000
  -V(xc)+E(xc)   XCENC  =        49.18784637
  PAW double counting   =      2171.93661802    -2145.86232203
  entropy T*S    EENTRO =         0.00000000
  eigenvalues    EBANDS =      -308.00847990
  atomic energy  EATOM  =      2086.78124273
  Solvation  Ediel_sol  =         0.00000000
  ---------------------------------------------------
  free energy    TOTEN  =       -19.56979152 eV

  energy without entropy =      -19.56979152  energy(sigma->0) =      -19.56979152


--------------------------------------------------------------------------------------------------------




--------------------------------------- Iteration      1(  10)  ---------------------------------------


    POTLOK:  cpu time      1.9240: real time      0.1354
    SETDIJ:  cpu time      1.0482: real time      0.2505
    EDDIAG:  cpu time     22.6159: real time      1.2985
  RMM-DIIS:  cpu time     85.3726: real time      4.6960
    ORTHCH:  cpu time      0.5332: real time      0.0357
 BZINTS: Fermi energy:    3.448042;   22.000000 electrons
         Band energy:-0.306946E+03;  BLOECHL correction:   -0.162429
       DOS:  cpu time      0.1311: real time      0.0092
    CHARGE:  cpu time     10.7449: real time      0.6014
    MIXING:  cpu time      0.0033: real time      0.0033
    --------------------------------------------
      LOOP:  cpu time    122.3731: real time      7.0300

 eigenvalue-minimisations  :  1562
 total energy-change (2. order) : 0.2157583E-02  (-0.9689961E-03)
 number of electron      22.0000009 magnetization       0.0026420
 augmentation part        8.0486109 magnetization      -0.0313883

 Broyden mixing:
  rms(total) = 0.50384E-01    rms(broyden)= 0.50384E-01
  rms(prec ) = 0.57204E-01
  weight for this iteration     100.00

 eigenvalues of (default mixing * dielectric matrix)
  average eigenvalue GAMMA=   1.3553
  2.5404  1.4052  1.4052  0.7904  0.6352

 Free energy of the ion-electron system (eV)
  ---------------------------------------------------
  alpha Z        PSCENC =       204.15077821
  Ewald energy   TEWEN  =     -1791.37066771
  -Hartree energ DENC   =      -287.50595845
  -exchange      EXHF   =         0.00000000
  -V(xc)+E(xc)   XCENC  =        49.24078254
  PAW double counting   =      2223.08418894    -2197.00186153
  entropy T*S    EENTRO =         0.00000000
  eigenvalues    EBANDS =      -306.94613867
  atomic energy  EATOM  =      2086.78124273
  Solvation  Ediel_sol  =         0.00000000
  ---------------------------------------------------
  free energy    TOTEN  =       -19.56763394 eV

  energy without entropy =      -19.56763394  energy(sigma->0) =      -19.56763394


--------------------------------------------------------------------------------------------------------




--------------------------------------- Iteration      1(  11)  ---------------------------------------


    POTLOK:  cpu time      1.1521: real time      0.1024
    SETDIJ:  cpu time      1.1024: real time      0.2464
    EDDIAG:  cpu time     21.1459: real time      1.2304
  RMM-DIIS:  cpu time     86.1375: real time      4.7634
    ORTHCH:  cpu time      0.3303: real time      0.0229
 BZINTS: Fermi energy:    3.455279;   22.000000 electrons
         Band energy:-0.306573E+03;  BLOECHL correction:   -0.162400
       DOS:  cpu time      0.2282: real time      0.0131
    CHARGE:  cpu time     12.9976: real time      0.6918
    MIXING:  cpu time      0.0018: real time      0.0018
    --------------------------------------------
      LOOP:  cpu time    123.0959: real time      7.0722

 eigenvalue-minimisations  :  1667
 total energy-change (2. order) :-0.4554487E-03  (-0.5511969E-03)
 number of electron      22.0000009 magnetization       0.0016906
 augmentation part        8.0436833 magnetization       0.0001854

 Broyden mixing:
  rms(total) = 0.36264E-02    rms(broyden)= 0.36264E-02
  rms(prec ) = 0.44256E-02
  weight for this iteration     100.00

 eigenvalues of (default mixing * dielectric matrix)
  average eigenvalue GAMMA=   1.2628
  2.5655  1.4093  1.4093  0.7730  0.7730  0.6463

 Free energy of the ion-electron system (eV)
  ---------------------------------------------------
  alpha Z        PSCENC =       204.15077821
  Ewald energy   TEWEN  =     -1791.37066771
  -Hartree energ DENC   =      -287.85244806
  -exchange      EXHF   =         0.00000000
  -V(xc)+E(xc)   XCENC  =        49.25720654
  PAW double counting   =      2273.81795923    -2247.77919256
  entropy T*S    EENTRO =         0.00000000
  eigenvalues    EBANDS =      -306.57296778
  atomic energy  EATOM  =      2086.78124273
  Solvation  Ediel_sol  =         0.00000000
  ---------------------------------------------------
  free energy    TOTEN  =       -19.56808939 eV

  energy without entropy =      -19.56808939  energy(sigma->0) =      -19.56808939


--------------------------------------------------------------------------------------------------------




--------------------------------------- Iteration      1(  12)  ---------------------------------------


    POTLOK:  cpu time      1.6128: real time      0.1162
    SETDIJ:  cpu time      0.9659: real time      0.2445
    EDDIAG:  cpu time     24.3155: real time      1.3685
  RMM-DIIS:  cpu time    111.9395: real time      5.7597
    ORTHCH:  cpu time      0.3097: real time      0.0184
 BZINTS: Fermi energy:    3.455865;   22.000000 electrons
         Band energy:-0.306550E+03;  BLOECHL correction:   -0.162394
       DOS:  cpu time      0.1184: real time      0.0082
    CHARGE:  cpu time      7.1542: real time      0.4203
    MIXING:  cpu time      0.0020: real time      0.0020
    --------------------------------------------
      LOOP:  cpu time    146.4179: real time      7.9378

 eigenvalue-minimisations  :  1353
 total energy-change (2. order) :-0.1033415E-03  (-0.1084657E-03)
 number of electron      22.0000009 magnetization       0.0014652
 augmentation part        8.0429299 magnetization       0.0002271

 Broyden mixing:
  rms(total) = 0.20903E-02    rms(broyden)= 0.20903E-02
  rms(prec ) = 0.26543E-02
  weight for this iteration     100.00

 eigenvalues of (default mixing * dielectric matrix)
  average eigenvalue GAMMA=   1.1653
  2.5948  1.3945  1.3945  0.8299  0.7639  0.6353  0.5444

 Free energy of the ion-electron system (eV)
  ---------------------------------------------------
  alpha Z        PSCENC =       204.15077821
  Ewald energy   TEWEN  =     -1791.37066771
  -Hartree energ DENC   =      -287.89064313
  -exchange      EXHF   =         0.00000000
  -V(xc)+E(xc)   XCENC  =        49.25905271
  PAW double counting   =      2273.65488377    -2247.60240992
  entropy T*S    EENTRO =         0.00000000
  eigenvalues    EBANDS =      -306.55042939
  atomic energy  EATOM  =      2086.78124273
  Solvation  Ediel_sol  =         0.00000000
  ---------------------------------------------------
  free energy    TOTEN  =       -19.56819273 eV

  energy without entropy =      -19.56819273  energy(sigma->0) =      -19.56819273


--------------------------------------------------------------------------------------------------------




--------------------------------------- Iteration      1(  13)  ---------------------------------------


    POTLOK:  cpu time      1.4132: real time      0.1126
    SETDIJ:  cpu time      1.1988: real time      0.2566
    EDDIAG:  cpu time     68.2376: real time      3.5560
  RMM-DIIS:  cpu time    233.0225: real time     10.9326
    ORTHCH:  cpu time      0.3034: real time      0.0195
 BZINTS: Fermi energy:    3.455626;   22.000000 electrons
         Band energy:-0.306561E+03;  BLOECHL correction:   -0.162392
       DOS:  cpu time      0.1219: real time      0.0119
    --------------------------------------------
      LOOP:  cpu time    304.2975: real time     14.8891

 eigenvalue-minimisations  :   979
 total energy-change (2. order) :-0.1945272E-04  (-0.2550252E-04)
 number of electron      22.0000009 magnetization       0.0014652
 augmentation part        8.0429299 magnetization       0.0002271

 Free energy of the ion-electron system (eV)
  ---------------------------------------------------
  alpha Z        PSCENC =       204.15077821
  Ewald energy   TEWEN  =     -1791.37066771
  -Hartree energ DENC   =      -287.88522529
  -exchange      EXHF   =         0.00000000
  -V(xc)+E(xc)   XCENC  =        49.25880505
  PAW double counting   =      2273.27506679    -2247.21731906
  entropy T*S    EENTRO =         0.00000000
  eigenvalues    EBANDS =      -306.56089291
  atomic energy  EATOM  =      2086.78124273
  Solvation  Ediel_sol  =         0.00000000
  ---------------------------------------------------
  free energy    TOTEN  =       -19.56821218 eV

  energy without entropy =      -19.56821218  energy(sigma->0) =      -19.56821218


--------------------------------------------------------------------------------------------------------




 average (electrostatic) potential at core
  the test charge radii are     1.2125
  (the norm of the test charge is              1.0000)
       1 -37.0964       2 -37.0964



 E-fermi :   3.4556     XC(G=0): -11.4060     alpha+bet :-10.5496

 Fermi energy:         3.4556255077

 spin component 1

 k-point     1 :       0.0000    0.0000    0.0000
  band No.  band energies     occupation 
      1     -27.4131      1.00000
      2     -27.4131      1.00000
      3     -27.4131      1.00000
      4     -26.9283      1.00000
      5     -26.9283      1.00000
      6     -26.9283      1.00000
      7      -1.9986      1.00000
      8       0.7630      1.00000
      9       0.7630      1.00000
     10       3.8113     -0.04103
     11       3.8113     -0.00912
     12       3.8113      0.00000
     13       6.0793      0.00000
     14       6.0793      0.00000
     15       7.7182      0.00000
     16       7.7182      0.00000

 k-point     2 :       0.1429    0.0000    0.0000
  band No.  band energies     occupation 
      1     -27.4114      1.00000
      2     -27.3881      1.00000
      3     -27.3881      1.00000
      4     -26.9760      1.00000
      5     -26.9512      1.00000
      6     -26.9512      1.00000
      7      -1.6662      1.00000
      8       0.9502      1.00000
      9       0.9912      1.00000
     10       3.7887     -0.13313
     11       3.7887     -0.03295
     12       3.9639      0.00000
     13       5.6785      0.00000
     14       6.2248      0.00000
     15       6.8582      0.00000
     16       6.8583      0.00000

 k-point     3 :       0.2857    0.0000    0.0000
  band No.  band energies     occupation 
      1     -27.3947      1.00000
      2     -27.3186      1.00000
      3     -27.3186      1.00000
      4     -27.0955      1.00000
      5     -27.0160      1.00000
      6     -27.0160      1.00000
      7      -0.7527      1.00000
      8       1.4425      1.00000
      9       1.5003      1.00000
     10       3.8065     -0.01216
     11       3.8065     -0.11112
     12       4.4074      0.00000
     13       4.6868      0.00000
     14       5.5868      0.00000
     15       5.5868      0.00000
     16       6.5762      0.00000

 k-point     4 :       0.4286    0.0000    0.0000
  band No.  band energies     occupation 
      1     -27.3390      1.00000
      2     -27.2328      1.00000
      3     -27.2194      1.00000
      4     -27.2194      1.00000
      5     -27.1114      1.00000
      6     -27.1114      1.00000
      7       0.4652      1.00000
      8       1.4030      1.00000
      9       2.3744      1.00000
     10       3.4901      0.84348
     11       4.0369     -0.32210
     12       4.0369      0.00000
     13       4.6146      0.00000
     14       4.6146      0.00000
     15       5.0960      0.00000
     16       5.9418      0.00000

 k-point     5 :       0.1429    0.1429    0.0000
  band No.  band energies     occupation 
      1     -27.4515      1.00000
      2     -27.3653      1.00000
      3     -27.3253      1.00000
      4     -27.0632      1.00000
      5     -26.9715      1.00000
      6     -26.9287      1.00000
      7      -1.3559      1.00000
      8       1.1183      1.00000
      9       1.2195      1.00000
     10       3.4743      0.53232
     11       3.6929     -0.00859
     12       4.4208     -0.00531
     13       5.7254      0.00000
     14       5.9108      0.00000
     15       6.1069      0.00000
     16       6.1132      0.00000

 k-point     6 :       0.2857    0.1429    0.0000
  band No.  band energies     occupation 
      1     -27.4684      1.00000
      2     -27.3019      1.00000
      3     -27.2335      1.00000
      4     -27.2028      1.00000
      5     -27.0292      1.00000
      6     -26.9574      1.00000
      7      -0.5197      1.00000
      8       1.4720      1.00000
      9       1.7716      1.00000
     10       3.2861      0.97073
     11       3.5228      0.43630
     12       4.7460     -0.05300
     13       5.0900      0.00000
     14       5.1499      0.00000
     15       5.1873      0.00000
     16       6.4420      0.00000

 k-point     7 :       0.4286    0.1429    0.0000
  band No.  band energies     occupation 
      1     -27.4344      1.00000
      2     -27.3403      1.00000
      3     -27.2120      1.00000
      4     -27.1303      1.00000
      5     -27.1146      1.00000
      6     -27.0315      1.00000
      7       0.5530      1.00000
      8       1.3912      1.00000
      9       2.4551      1.00000
     10       3.1721      1.00622
     11       3.3939      0.80676
     12       3.8760     -0.03786
     13       4.7652      0.00000
     14       4.8052      0.00000
     15       5.8935      0.00000
     16       6.7685      0.00000

 k-point     8 :       0.2857    0.2857    0.0000
  band No.  band energies     occupation 
      1     -27.5369      1.00000
      2     -27.3562      1.00000
      3     -27.2561      1.00000
      4     -27.1230      1.00000
      5     -27.0673      1.00000
      6     -26.9296      1.00000
      7       0.0246      1.00000
      8       1.3574      1.00000
      9       2.5116      1.00000
     10       2.8126      1.00064
     11       3.4178      0.84906
     12       3.7037      0.03548
     13       4.8355      0.00000
     14       5.7578      0.00000
     15       6.0619      0.00000
     16       6.2596      0.00000

 k-point     9 :       0.4286    0.2857    0.0000
  band No.  band energies     occupation 
      1     -27.5471      1.00000
      2     -27.4832      1.00000
      3     -27.1923      1.00000
      4     -27.1249      1.00000
      5     -27.0255      1.00000
      6     -26.9560      1.00000
      7       0.5685      1.00000
      8       1.0191      1.00000
      9       2.6912      1.00000
     10       2.9885      1.00000
     11       3.2474      0.84386
     12       3.5621      0.11866
     13       5.2387      0.00000
     14       5.6527      0.00000
     15       6.6628      0.00000
     16       7.0182      0.00000

 k-point    10 :       0.4286    0.4286    0.0000
  band No.  band energies     occupation 
      1     -27.6043      1.00000
      2     -27.5818      1.00000
      3     -27.1669      1.00000
      4     -27.1428      1.00000
      5     -26.9554      1.00000
      6     -26.9304      1.00000
      7       0.5039      1.00000
      8       0.6380      1.00000
      9       2.3522      1.00000
     10       2.4518      1.00000
     11       4.3576     -0.15120
     12       4.5377     -0.11805
     13       5.7531      0.00000
     14       6.0362      0.00000
     15       6.4937      0.00000
     16       7.1969      0.00000

 k-point    11 :       0.1429    0.1429    0.1429
  band No.  band energies     occupation 
      1     -27.4247      1.00000
      2     -27.4247      1.00000
      3     -27.2529      1.00000
      4     -27.1341      1.00000
      5     -26.9535      1.00000
      6     -26.9535      1.00000
      7      -1.0563      1.00000
      8       1.3641      1.00000
      9       1.3641      1.00000
     10       3.3740      0.83013
     11       3.3740      0.62450
     12       4.7261     -0.04775
     13       4.8970      0.00000
     14       5.9177      0.00000
     15       5.9178      0.00000
     16       6.9832      0.00000

 k-point    12 :       0.2857    0.1429    0.1429
  band No.  band energies     occupation 
      1     -27.4690      1.00000
      2     -27.3500      1.00000
      3     -27.2636      1.00000
      4     -27.1615      1.00000
      5     -27.0237      1.00000
      6     -26.9599      1.00000
      7      -0.2637      1.00000
      8       1.7680      1.00000
      9       1.7933      1.00000
     10       3.1371      1.01427
     11       3.1416      1.04981
     12       3.7714      0.08218
     13       5.4441      0.00000
     14       5.6934      0.00000
     15       5.8410      0.00000
     16       6.3568      0.00000

 k-point    13 :       0.4286    0.1429    0.1429
  band No.  band energies     occupation 
      1     -27.4597      1.00000
      2     -27.3860      1.00000
      3     -27.2434      1.00000
      4     -27.1269      1.00000
      5     -27.0750      1.00000
      6     -27.0039      1.00000
      7       0.7158      1.00000
      8       1.5370      1.00000
      9       2.3221      1.00000
     10       2.8178      1.01583
     11       3.2892      0.96333
     12       3.5433      0.23335
     13       5.0285      0.00000
     14       5.1248      0.00000
     15       6.4180      0.00000
     16       6.6502      0.00000

 k-point    14 :       0.2857    0.2857    0.1429
  band No.  band energies     occupation 
      1     -27.5061      1.00000
      2     -27.3799      1.00000
      3     -27.3234      1.00000
      4     -27.0762      1.00000
      5     -27.0603      1.00000
      6     -26.9588      1.00000
      7       0.3300      1.00000
      8       1.6641      1.00000
      9       2.5183      1.00000
     10       2.7104      1.00027
     11       3.0043      1.02492
     12       3.0183      0.88780
     13       5.5781      0.00000
     14       5.8586      0.00000
     15       6.2602      0.00000
     16       6.7330      0.00000

 k-point    15 :       0.4286    0.2857    0.1429
  band No.  band energies     occupation 
      1     -27.5248      1.00000
      2     -27.4804      1.00000
      3     -27.2367      1.00000
      4     -27.1396      1.00000
      5     -27.0117      1.00000
      6     -26.9726      1.00000
      7       0.8646      1.00000
      8       1.2875      1.00000
      9       2.5562      1.00000
     10       2.6170      1.00000
     11       3.2536      0.89885
     12       3.2633      0.77577
     13       5.5349      0.00000
     14       5.7257      0.00000
     15       6.5584      0.00000
     16       6.8896      0.00000

 k-point    16 :       0.4286    0.4286    0.1429
  band No.  band energies     occupation 
      1     -27.5705      1.00000
      2     -27.5551      1.00000
      3     -27.1978      1.00000
      4     -27.1606      1.00000
      5     -26.9751      1.00000
      6     -26.9631      1.00000
      7       0.8234      1.00000
      8       0.9336      1.00000
      9       2.3007      1.00000
     10       2.3722      1.00000
     11       4.0313     -0.00598
     12       4.0344     -0.07811
     13       5.9250      0.00000
     14       6.1013      0.00000
     15       6.5136      0.00000
     16       6.8037      0.00000

 k-point    17 :       0.2857    0.2857    0.2857
  band No.  band energies     occupation 
      1     -27.4349      1.00000
      2     -27.4201      1.00000
      3     -27.4201      1.00000
      4     -27.0412      1.00000
      5     -27.0412      1.00000
      6     -27.0269      1.00000
      7       1.0617      1.00000
      8       2.1102      1.00000
      9       2.5025      1.00000
     10       2.5025      1.00000
     11       2.5171      1.02394
     12       2.5171      1.07379
     13       6.2075      0.00000
     14       6.2075      0.00000
     15       6.3545      0.00000
     16       6.3547      0.00000

 k-point    18 :       0.4286    0.2857    0.2857
  band No.  band energies     occupation 
      1     -27.4807      1.00000
      2     -27.4796      1.00000
      3     -27.2969      1.00000
      4     -27.1616      1.00000
      5     -27.0192      1.00000
      6     -27.0097      1.00000
      7       1.4862      1.00000
      8       1.6643      1.00000
      9       2.4095      1.00000
     10       2.4363      1.00000
     11       2.7598      1.02343
     12       3.0497      1.00984
     13       6.0430      0.00000
     14       6.0832      0.00000
     15       6.5255      0.00000
     16       6.5731      0.00000

 k-point    19 :       0.4286    0.4286    0.2857
  band No.  band energies     occupation 
      1     -27.4857      1.00000
      2     -27.4757      1.00000
      3     -27.2680      1.00000
      4     -27.1932      1.00000
      5     -27.0552      1.00000
      6     -27.0348      1.00000
      7       1.6055      1.00000
      8       1.6429      1.00000
      9       2.2376      1.00000
     10       2.3437      1.00000
     11       3.1706      0.93835
     12       3.3345      0.86592
     13       6.2916      0.00000
     14       6.3416      0.00000
     15       6.5515      0.00000
     16       6.5916      0.00000

 k-point    20 :       0.4286    0.4286    0.4286
  band No.  band energies     occupation 
      1     -27.4057      1.00000
      2     -27.3395      1.00000
      3     -27.3395      1.00000
      4     -27.1893      1.00000
      5     -27.1893      1.00000
      6     -27.1212      1.00000
      7       2.0168      1.00000
      8       2.3352      1.00000
      9       2.3352      1.00000
     10       2.6433      1.00000
     11       2.7042      1.00000
     12       2.7042      1.00000
     13       6.5660      0.00000
     14       6.5660      0.00000
     15       6.5712      0.00000
     16       6.5712      0.00000
 Fermi energy:         3.4556255077

 spin component 2

 k-point     1 :       0.0000    0.0000    0.0000
  band No.  band energies     occupation 
      1     -27.4128      1.00000
      2     -27.4128      1.00000
      3     -27.4128      1.00000
      4     -26.9280      1.00000
      5     -26.9280      1.00000
      6     -26.9280      1.00000
      7      -1.9981      1.00000
      8       0.7631      1.00000
      9       0.7631      1.00000
     10       3.8119     -0.04047
     11       3.8119     -0.00900
     12       3.8119      0.00000
     13       6.0792      0.00000
     14       6.0793      0.00000
     15       7.7187      0.00000
     16       7.7187      0.00000

 k-point     2 :       0.1429    0.0000    0.0000
  band No.  band energies     occupation 
      1     -27.4111      1.00000
      2     -27.3878      1.00000
      3     -27.3878      1.00000
      4     -26.9758      1.00000
      5     -26.9509      1.00000
      6     -26.9509      1.00000
      7      -1.6657      1.00000
      8       0.9503      1.00000
      9       0.9914      1.00000
     10       3.7893     -0.13275
     11       3.7893     -0.03297
     12       3.9645      0.00000
     13       5.6784      0.00000
     14       6.2247      0.00000
     15       6.8588      0.00000
     16       6.8588      0.00000

 k-point     3 :       0.2857    0.0000    0.0000
  band No.  band energies     occupation 
      1     -27.3944      1.00000
      2     -27.3183      1.00000
      3     -27.3183      1.00000
      4     -27.0952      1.00000
      5     -27.0157      1.00000
      6     -27.0157      1.00000
      7      -0.7522      1.00000
      8       1.4427      1.00000
      9       1.5004      1.00000
     10       3.8071     -0.01391
     11       3.8071     -0.11117
     12       4.4080      0.00000
     13       4.6868      0.00000
     14       5.5873      0.00000
     15       5.5873      0.00000
     16       6.5738      0.00000

 k-point     4 :       0.4286    0.0000    0.0000
  band No.  band energies     occupation 
      1     -27.3387      1.00000
      2     -27.2325      1.00000
      3     -27.2191      1.00000
      4     -27.2191      1.00000
      5     -27.1111      1.00000
      6     -27.1111      1.00000
      7       0.4657      1.00000
      8       1.4034      1.00000
      9       2.3745      1.00000
     10       3.4902      0.84310
     11       4.0375     -0.32242
     12       4.0375      0.00000
     13       4.6152      0.00000
     14       4.6152      0.00000
     15       5.0966      0.00000
     16       5.9424      0.00000

 k-point     5 :       0.1429    0.1429    0.0000
  band No.  band energies     occupation 
      1     -27.4512      1.00000
      2     -27.3650      1.00000
      3     -27.3250      1.00000
      4     -27.0629      1.00000
      5     -26.9712      1.00000
      6     -26.9284      1.00000
      7      -1.3554      1.00000
      8       1.1185      1.00000
      9       1.2197      1.00000
     10       3.4749      0.52985
     11       3.6934     -0.00911
     12       4.4214     -0.00530
     13       5.7254      0.00000
     14       5.9114      0.00000
     15       6.1069      0.00000
     16       6.1137      0.00000

 k-point     6 :       0.2857    0.1429    0.0000
  band No.  band energies     occupation 
      1     -27.4681      1.00000
      2     -27.3016      1.00000
      3     -27.2332      1.00000
      4     -27.2025      1.00000
      5     -27.0290      1.00000
      6     -26.9572      1.00000
      7      -0.5192      1.00000
      8       1.4723      1.00000
      9       1.7718      1.00000
     10       3.2867      0.97032
     11       3.5233      0.43392
     12       4.7466     -0.05289
     13       5.0905      0.00000
     14       5.1505      0.00000
     15       5.1874      0.00000
     16       6.4391      0.00000

 k-point     7 :       0.4286    0.1429    0.0000
  band No.  band energies     occupation 
      1     -27.4341      1.00000
      2     -27.3400      1.00000
      3     -27.2117      1.00000
      4     -27.1300      1.00000
      5     -27.1144      1.00000
      6     -27.0312      1.00000
      7       0.5535      1.00000
      8       1.3916      1.00000
      9       2.4553      1.00000
     10       3.1723      1.00621
     11       3.3945      0.80566
     12       3.8766     -0.03793
     13       4.7655      0.00000
     14       4.8056      0.00000
     15       5.8942      0.00000
     16       6.8353      0.00000

 k-point     8 :       0.2857    0.2857    0.0000
  band No.  band energies     occupation 
      1     -27.5366      1.00000
      2     -27.3559      1.00000
      3     -27.2559      1.00000
      4     -27.1227      1.00000
      5     -27.0670      1.00000
      6     -26.9293      1.00000
      7       0.0251      1.00000
      8       1.3577      1.00000
      9       2.5118      1.00000
     10       2.8132      1.00068
     11       3.4183      0.84798
     12       3.7043      0.03505
     13       4.8359      0.00000
     14       5.7579      0.00000
     15       6.0625      0.00000
     16       6.2596      0.00000

 k-point     9 :       0.4286    0.2857    0.0000
  band No.  band energies     occupation 
      1     -27.5468      1.00000
      2     -27.4830      1.00000
      3     -27.1921      1.00000
      4     -27.1246      1.00000
      5     -27.0252      1.00000
      6     -26.9558      1.00000
      7       0.5690      1.00000
      8       1.0196      1.00000
      9       2.6919      1.00000
     10       2.9891      1.00000
     11       3.2476      0.84369
     12       3.5625      0.11804
     13       5.2390      0.00000
     14       5.6530      0.00000
     15       6.6632      0.00000
     16       7.0236      0.00000

 k-point    10 :       0.4286    0.4286    0.0000
  band No.  band energies     occupation 
      1     -27.6041      1.00000
      2     -27.5815      1.00000
      3     -27.1666      1.00000
      4     -27.1425      1.00000
      5     -26.9551      1.00000
      6     -26.9301      1.00000
      7       0.5043      1.00000
      8       0.6384      1.00000
      9       2.3528      1.00000
     10       2.4525      1.00000
     11       4.3579     -0.15133
     12       4.5382     -0.11787
     13       5.7533      0.00000
     14       6.0364      0.00000
     15       6.4937      0.00000
     16       7.1973      0.00000

 k-point    11 :       0.1429    0.1429    0.1429
  band No.  band energies     occupation 
      1     -27.4244      1.00000
      2     -27.4244      1.00000
      3     -27.2526      1.00000
      4     -27.1338      1.00000
      5     -26.9532      1.00000
      6     -26.9532      1.00000
      7      -1.0557      1.00000
      8       1.3643      1.00000
      9       1.3643      1.00000
     10       3.3746      0.82872
     11       3.3746      0.62269
     12       4.7267     -0.04770
     13       4.8976      0.00000
     14       5.9177      0.00000
     15       5.9177      0.00000
     16       6.9837      0.00000

 k-point    12 :       0.2857    0.1429    0.1429
  band No.  band energies     occupation 
      1     -27.4687      1.00000
      2     -27.3498      1.00000
      3     -27.2633      1.00000
      4     -27.1612      1.00000
      5     -27.0235      1.00000
      6     -26.9597      1.00000
      7      -0.2632      1.00000
      8       1.7681      1.00000
      9       1.7935      1.00000
     10       3.1377      1.01423
     11       3.1421      1.04953
     12       3.7719      0.08175
     13       5.4442      0.00000
     14       5.6940      0.00000
     15       5.8415      0.00000
     16       6.3572      0.00000

 k-point    13 :       0.4286    0.1429    0.1429
  band No.  band energies     occupation 
      1     -27.4595      1.00000
      2     -27.3857      1.00000
      3     -27.2431      1.00000
      4     -27.1266      1.00000
      5     -27.0747      1.00000
      6     -27.0036      1.00000
      7       0.7163      1.00000
      8       1.5374      1.00000
      9       2.3223      1.00000
     10       2.8182      1.01586
     11       3.2898      0.96311
     12       3.5439      0.23240
     13       5.0288      0.00000
     14       5.1252      0.00000
     15       6.4191      0.00000
     16       6.6519      0.00000

 k-point    14 :       0.2857    0.2857    0.1429
  band No.  band energies     occupation 
      1     -27.5058      1.00000
      2     -27.3796      1.00000
      3     -27.3232      1.00000
      4     -27.0760      1.00000
      5     -27.0600      1.00000
      6     -26.9585      1.00000
      7       0.3305      1.00000
      8       1.6644      1.00000
      9       2.5186      1.00000
     10       2.7110      1.00029
     11       3.0049      1.02501
     12       3.0188      0.88716
     13       5.5784      0.00000
     14       5.8581      0.00000
     15       6.2603      0.00000
     16       6.7176      0.00000

 k-point    15 :       0.4286    0.2857    0.1429
  band No.  band energies     occupation 
      1     -27.5245      1.00000
      2     -27.4801      1.00000
      3     -27.2364      1.00000
      4     -27.1393      1.00000
      5     -27.0115      1.00000
      6     -26.9723      1.00000
      7       0.8651      1.00000
      8       1.2879      1.00000
      9       2.5568      1.00000
     10       2.6175      1.00000
     11       3.2541      0.89862
     12       3.2637      0.77489
     13       5.5352      0.00000
     14       5.7259      0.00000
     15       6.5584      0.00000
     16       6.8903      0.00000

 k-point    16 :       0.4286    0.4286    0.1429
  band No.  band energies     occupation 
      1     -27.5702      1.00000
      2     -27.5549      1.00000
      3     -27.1975      1.00000
      4     -27.1604      1.00000
      5     -26.9748      1.00000
      6     -26.9628      1.00000
      7       0.8239      1.00000
      8       0.9341      1.00000
      9       2.3013      1.00000
     10       2.3728      1.00000
     11       4.0317     -0.00659
     12       4.0349     -0.07855
     13       5.9252      0.00000
     14       6.1014      0.00000
     15       6.5136      0.00000
     16       6.8040      0.00000

 k-point    17 :       0.2857    0.2857    0.2857
  band No.  band energies     occupation 
      1     -27.4346      1.00000
      2     -27.4199      1.00000
      3     -27.4199      1.00000
      4     -27.0409      1.00000
      5     -27.0409      1.00000
      6     -27.0267      1.00000
      7       1.0622      1.00000
      8       2.1108      1.00000
      9       2.5028      1.00000
     10       2.5028      1.00000
     11       2.5177      1.02397
     12       2.5177      1.07389
     13       6.2075      0.00000
     14       6.2075      0.00000
     15       6.3548      0.00000
     16       6.3549      0.00000

 k-point    18 :       0.4286    0.2857    0.2857
  band No.  band energies     occupation 
      1     -27.4804      1.00000
      2     -27.4793      1.00000
      3     -27.2966      1.00000
      4     -27.1613      1.00000
      5     -27.0189      1.00000
      6     -27.0094      1.00000
      7       1.4867      1.00000
      8       1.6648      1.00000
      9       2.4100      1.00000
     10       2.4367      1.00000
     11       2.7604      1.02340
     12       3.0502      1.00975
     13       6.0432      0.00000
     14       6.0834      0.00000
     15       6.5256      0.00000
     16       6.5733      0.00000

 k-point    19 :       0.4286    0.4286    0.2857
  band No.  band energies     occupation 
      1     -27.4854      1.00000
      2     -27.4755      1.00000
      3     -27.2677      1.00000
      4     -27.1930      1.00000
      5     -27.0549      1.00000
      6     -27.0346      1.00000
      7       1.6060      1.00000
      8       1.6434      1.00000
      9       2.2382      1.00000
     10       2.3442      1.00000
     11       3.1711      0.93812
     12       3.3350      0.86552
     13       6.2917      0.00000
     14       6.3417      0.00000
     15       6.5515      0.00000
     16       6.5917      0.00000

 k-point    20 :       0.4286    0.4286    0.4286
  band No.  band energies     occupation 
      1     -27.4055      1.00000
      2     -27.3392      1.00000
      3     -27.3392      1.00000
      4     -27.1891      1.00000
      5     -27.1891      1.00000
      6     -27.1210      1.00000
      7       2.0174      1.00000
      8       2.3358      1.00000
      9       2.3358      1.00000
     10       2.6438      1.00000
     11       2.7048      1.00000
     12       2.7048      1.00000
     13       6.5661      0.00000
     14       6.5661      0.00000
     15       6.5712      0.00000
     16       6.5712      0.00000


--------------------------------------------------------------------------------------------------------


 soft charge-density along one line, spin component           1
         0         1         2         3         4         5         6         7         8         9
 total charge-density along one line

 soft charge-density along one line, spin component           2
         0         1         2         3         4         5         6         7         8         9
 total charge-density along one line

 pseudopotential strength for first ion, spin component:           1
-29.165   0.000   0.000   6.655  -0.000  -0.000  -0.000  -0.000
  0.000 -29.165   0.000  -0.000   6.655  -0.000   0.000  -0.000
  0.000   0.000 -29.165  -0.000  -0.000   6.655  -0.000   0.000
  6.655  -0.000  -0.000   3.949   0.000   0.000   0.000   0.000
 -0.000   6.655  -0.000   0.000   3.949   0.000   0.000   0.000
 -0.000  -0.000   6.655   0.000   0.000   3.949   0.000   0.000
 -0.000   0.000  -0.000   0.000   0.000   0.000  -6.791   0.000
 -0.000  -0.000   0.000   0.000   0.000   0.000   0.000  -6.791
  0.000  -0.000   0.000  -0.000   0.000  -0.000  -0.000   0.000
  0.000  -0.000  -0.000   0.000   0.000   0.000   0.000   0.000
  0.000  -0.000   0.000  -0.000   0.000  -0.000  -0.000  -0.000
 -0.000   0.000  -0.000   0.000   0.000   0.000  -7.732   0.000
 -0.000  -0.000   0.000   0.000   0.000   0.000   0.000  -7.732
  0.000  -0.000   0.000  -0.000   0.000  -0.000  -0.000   0.000
  0.000  -0.000  -0.000   0.000   0.000   0.000   0.000   0.000
  0.000  -0.000   0.000  -0.000   0.000  -0.000  -0.000  -0.000
  0.000   0.000   0.000   0.000  -0.000   0.000  -0.000  -0.000
 -0.000  -0.000  -0.000  -0.000  -0.000  -0.000   0.000   0.000
 pseudopotential strength for first ion, spin component:           2
-29.165   0.000   0.000   6.655  -0.000  -0.000  -0.000  -0.000
  0.000 -29.165   0.000  -0.000   6.655  -0.000   0.000  -0.000
  0.000   0.000 -29.165  -0.000  -0.000   6.655  -0.000   0.000
  6.655  -0.000  -0.000   3.949   0.000   0.000   0.000   0.000
 -0.000   6.655  -0.000   0.000   3.949   0.000  -0.000   0.000
 -0.000  -0.000   6.655   0.000   0.000   3.949   0.000  -0.000
 -0.000   0.000  -0.000   0.000  -0.000   0.000  -6.791   0.000
 -0.000  -0.000   0.000   0.000   0.000  -0.000   0.000  -6.791
  0.000  -0.000   0.000  -0.000   0.000  -0.000  -0.000   0.000
  0.000  -0.000  -0.000  -0.000   0.000   0.000   0.000   0.000
  0.000  -0.000   0.000  -0.000   0.000  -0.000  -0.000  -0.000
 -0.000   0.000  -0.000   0.000  -0.000   0.000  -7.732   0.000
 -0.000  -0.000   0.000   0.000   0.000  -0.000   0.000  -7.732
  0.000  -0.000   0.000  -0.000   0.000  -0.000  -0.000   0.000
  0.000  -0.000  -0.000  -0.000   0.000   0.000   0.000   0.000
  0.000  -0.000   0.000  -0.000   0.000  -0.000  -0.000  -0.000
  0.000   0.000   0.000   0.000  -0.000   0.000  -0.000  -0.000
 -0.000  -0.000  -0.000  -0.000  -0.000  -0.000   0.000   0.000
 total augmentation occupancy for first ion, spin component:           1
  1.990   0.000   0.000  -0.029  -0.000  -0.000  -0.000   0.000   0.000   0.000  -0.000  -0.000   0.000  -0.000   0.000   0.000
  0.000   1.990   0.000  -0.000  -0.029  -0.000   0.000   0.000   0.000   0.000  -0.000   0.000   0.000   0.000   0.000  -0.000
  0.000   0.000   1.990  -0.000  -0.000  -0.029   0.000  -0.000   0.000  -0.000   0.000   0.000  -0.000   0.000   0.000   0.000
 -0.029  -0.000  -0.000   0.164   0.000   0.000  -0.000   0.000   0.000   0.000   0.000   0.000  -0.000   0.000  -0.000   0.000
 -0.000  -0.029  -0.000   0.000   0.164   0.000  -0.000   0.000   0.000   0.000  -0.000  -0.000   0.000   0.000   0.000  -0.000
 -0.000  -0.000  -0.029   0.000   0.000   0.164   0.000  -0.000   0.000   0.000   0.000   0.000  -0.000   0.000   0.000   0.000
  0.000  -0.000  -0.000   0.000   0.000  -0.000   3.957   0.000  -0.000   0.000   0.000  -1.953  -0.000   0.000  -0.000  -0.000
  0.000  -0.000   0.000   0.000  -0.000   0.000   0.000   3.957   0.000   0.000  -0.000  -0.000  -1.953  -0.000  -0.000   0.000
  0.000   0.000   0.000  -0.000  -0.000  -0.000  -0.000   0.000   3.583   0.000   0.000   0.000  -0.000  -1.908  -0.000  -0.000
  0.000  -0.000   0.000  -0.000   0.000   0.000   0.000   0.000   0.000   3.957   0.000  -0.000  -0.000  -0.000  -1.953  -0.000
  0.000  -0.000   0.000  -0.000   0.000   0.000   0.000  -0.000  -0.000   0.000   3.583  -0.000   0.000  -0.000  -0.000  -1.908
  0.000   0.000   0.000  -0.000   0.000   0.000  -1.953  -0.000   0.000  -0.000  -0.000   0.993   0.000  -0.000   0.000  -0.000
  0.000  -0.000   0.000   0.000  -0.000   0.000  -0.000  -1.953  -0.000  -0.000   0.000   0.000   0.993   0.000   0.000  -0.000
  0.000   0.000  -0.000  -0.000   0.000   0.000   0.000  -0.000  -1.908  -0.000  -0.000  -0.000   0.000   1.031   0.000   0.000
  0.000   0.000  -0.000   0.000   0.000   0.000  -0.000  -0.000  -0.000  -1.953  -0.000   0.000   0.000   0.000   0.993   0.000
  0.000   0.000   0.000   0.000   0.000   0.000  -0.000   0.000  -0.000  -0.000  -1.908  -0.000  -0.000   0.000   0.000   1.031
  0.000   0.000  -0.000  -0.000   0.000   0.000   0.000  -0.000   0.000   0.000  -0.000   0.000   0.000   0.000   0.000  -0.000
  0.000   0.000  -0.000   0.000   0.000  -0.000  -0.000  -0.000   0.000   0.000   0.000  -0.000  -0.000   0.000  -0.000   0.000
 total augmentation occupancy for first ion, spin component:           2
  0.000   0.000   0.000  -0.000  -0.000  -0.000  -0.000   0.000   0.000  -0.000   0.000  -0.000  -0.000   0.000   0.000   0.000
  0.000   0.000   0.000  -0.000  -0.000  -0.000   0.000  -0.000  -0.000   0.000   0.000  -0.000  -0.000   0.000   0.000   0.000
  0.000   0.000   0.000  -0.000  -0.000  -0.000  -0.000   0.000   0.000   0.000  -0.000   0.000   0.000   0.000   0.000   0.000
 -0.000  -0.000  -0.000   0.000   0.000   0.000  -0.000   0.000  -0.000   0.000   0.000   0.000   0.000   0.000   0.000   0.000
 -0.000  -0.000  -0.000   0.000   0.000   0.000  -0.000   0.000   0.000  -0.000   0.000   0.000   0.000   0.000  -0.000   0.000
 -0.000  -0.000  -0.000   0.000   0.000   0.000  -0.000  -0.000  -0.000  -0.000  -0.000   0.000  -0.000  -0.000  -0.000   0.000
  0.000   0.000   0.000   0.000   0.000  -0.000   0.002   0.000  -0.000   0.000  -0.000  -0.001  -0.000   0.000  -0.000   0.000
  0.000  -0.000  -0.000   0.000   0.000   0.000   0.000   0.002   0.000   0.000  -0.000  -0.000  -0.001  -0.000  -0.000   0.000
  0.000  -0.000   0.000   0.000   0.000   0.000  -0.000   0.000   0.002   0.000   0.000   0.000  -0.000  -0.002  -0.000  -0.000
 -0.000   0.000   0.000   0.000  -0.000   0.000   0.000   0.000   0.000   0.002   0.000  -0.000  -0.000  -0.000  -0.001  -0.000
 -0.000   0.000   0.000   0.000  -0.000   0.000  -0.000  -0.000   0.000   0.000   0.002   0.000   0.000  -0.000  -0.000  -0.002
  0.000  -0.000   0.000   0.000   0.000   0.000  -0.001  -0.000   0.000  -0.000   0.000   0.001   0.000  -0.000   0.000  -0.000
 -0.000   0.000   0.000  -0.000   0.000   0.000  -0.000  -0.001  -0.000  -0.000   0.000   0.000   0.001   0.000   0.000  -0.000
  0.000   0.000   0.000   0.000   0.000  -0.000   0.000  -0.000  -0.002  -0.000  -0.000  -0.000   0.000   0.001   0.000   0.000
  0.000   0.000   0.000  -0.000  -0.000   0.000  -0.000  -0.000  -0.000  -0.001  -0.000   0.000   0.000   0.000   0.001   0.000
 -0.000  -0.000  -0.000  -0.000   0.000   0.000   0.000   0.000  -0.000  -0.000  -0.002  -0.000  -0.000   0.000   0.000   0.001
  0.000   0.000   0.000  -0.000   0.000  -0.000  -0.000   0.000  -0.000  -0.000  -0.000   0.000   0.000   0.000  -0.000   0.000
 -0.000  -0.000  -0.000   0.000   0.000  -0.000  -0.000  -0.000   0.000   0.000  -0.000   0.000   0.000  -0.000  -0.000   0.000


------------------------ aborting loop because EDIFF is reached ----------------------------------------





 total charge

# of ion       s       p       d       tot
------------------------------------------
    1        0.360   6.221   2.809   9.391
    2        0.360   6.221   2.809   9.391
--------------------------------------------------
tot          0.720  12.443   5.618  18.782



 magnetization (x)

# of ion       s       p       d       tot
------------------------------------------
    1        0.000   0.000   0.000   0.000
    2        0.000   0.000   0.000   0.000
--------------------------------------------------
tot          0.000   0.000   0.001   0.001

    CHARGE:  cpu time      9.2001: real time      0.5137
    FORLOC:  cpu time      0.0016: real time      0.0016
    FORNL :  cpu time     73.9373: real time      3.7805
    STRESS:  cpu time    139.8836: real time      7.5269
    FORCOR:  cpu time      1.4342: real time      0.1115
    FORHAR:  cpu time      0.1937: real time      0.0134
    MIXING:  cpu time      0.0038: real time      0.0022
    OFIELD:  cpu time      0.0000: real time      0.0000

  FORCE on cell =-STRESS in cart. coord.  units (eV):
  Direction    XX          YY          ZZ          XY          YZ          ZX
  --------------------------------------------------------------------------------------
  Alpha Z   204.15078   204.15078   204.15078
  Ewald    -597.12351  -597.12351  -597.12351     0.00000    -0.00000    -0.00000
  Hartree    95.95189    95.95189    95.95189    -0.00000    -0.00000    -0.00000
  E(xc)     -93.35046   -93.35046   -93.35046    -0.00000     0.00000    -0.00000
  Local     190.83328   190.83328   190.83328     0.00000    -0.00000    -0.00000
  n-local   -87.77100   -84.28449   -80.15294     2.58556    -0.39366     0.80134
  augment    54.40158    54.40158    54.40158    -0.00000     0.00000     0.00000
  Kinetic   215.69471   220.43795   232.44616     0.66168    -2.18191    -0.17669
  Fock        0.00000     0.00000     0.00000     0.00000     0.00000     0.00000
  -------------------------------------------------------------------------------------
  Total      -6.34631    -6.34631    -6.34631    -0.00000    -0.00000    -0.00000
  in kB    -229.26318  -229.26318  -229.26318    -0.00000    -0.00000    -0.00000
  external pressure =     -229.26 kB  Pullay stress =        0.00 kB


 VOLUME and BASIS-vectors are now :
 -----------------------------------------------------------------------------
  energy-cutoff  :      520.00
  volume of cell :       44.35
      direct lattice vectors                 reciprocal lattice vectors
     3.539695492  0.000000000  0.000000000     0.282510177 -0.000000000  0.000000000
     0.000000000  3.539695492  0.000000000    -0.000000000  0.282510177  0.000000000
    -0.000000000 -0.000000000  3.539695492    -0.000000000 -0.000000000  0.282510177

  length of vectors
     3.539695492  3.539695492  3.539695492     0.282510177  0.282510177  0.282510177


 FORCES acting on ions
    electron-ion (+dipol)            ewald-force                    non-local-force                 convergence-correction
 -----------------------------------------------------------------------------------------------
   0.121E-14 -.118E-13 -.198E-13   -.377E-14 -.736E-14 -.497E-14   0.219E-22 0.140E-21 -.311E-21   -.865E-14 -.213E-13 0.345E-13
   0.144E-12 0.162E-11 0.175E-11   0.434E-14 0.798E-14 0.337E-14   0.215E-21 0.154E-21 0.163E-21   -.141E-13 -.624E-13 -.326E-13
 -----------------------------------------------------------------------------------------------
   0.145E-12 0.160E-11 0.173E-11   0.577E-15 0.620E-15 -.160E-14   0.237E-21 0.294E-21 -.148E-21   -.228E-13 -.838E-13 0.187E-14


 POSITION                                       TOTAL-FORCE (eV/Angst)
 -----------------------------------------------------------------------------------
      0.00000      0.00000      0.00000         0.000000     -0.000000     -0.000000
      1.76985      1.76985      1.76985        -0.000000      0.000000      0.000000
 -----------------------------------------------------------------------------------
    total drift:                                0.000000      0.000000      0.000000


--------------------------------------------------------------------------------------------------------



  FREE ENERGIE OF THE ION-ELECTRON SYSTEM (eV)
  ---------------------------------------------------
  free  energy   TOTEN  =       -19.56821218 eV

  energy  without entropy=      -19.56821218  energy(sigma->0) =      -19.56821218



--------------------------------------------------------------------------------------------------------


    POTLOK:  cpu time      2.4935: real time      0.3682


--------------------------------------------------------------------------------------------------------


     LOOP+:  cpu time   2073.6011: real time    115.6308
 -----------------------------------------------------------------------------
|                                                                             |
|           W    W    AA    RRRRR   N    N  II  N    N   GGGG   !!!           |
|           W    W   A  A   R    R  NN   N  II  NN   N  G    G  !!!           |
|           W    W  A    A  R    R  N N  N  II  N N  N  G       !!!           |
|           W WW W  AAAAAA  RRRRR   N  N N  II  N  N N  G  GGG   !            |
|           WW  WW  A    A  R   R   N   NN  II  N   NN  G    G                |
|           W    W  A    A  R    R  N    N  II  N    N   GGGG   !!!           |
|                                                                             |
|     Tetrahedron method does not include variations of the Fermi             |
|     occupations, so forces and stress will be inaccurate. We suggest        |
|     using a different smearing scheme ISMEAR = 1 or 2 for metals in         |
|     relaxations.                                                            |
|                                                                             |
 -----------------------------------------------------------------------------

    4ORBIT:  cpu time      0.0000: real time      0.0000



 total charge

# of ion       s       p       d       tot
------------------------------------------
    1        0.360   6.221   2.809   9.391
    2        0.360   6.221   2.809   9.391
--------------------------------------------------
tot          0.720  12.443   5.618  18.782



 magnetization (x)

# of ion       s       p       d       tot
------------------------------------------
    1        0.000   0.000   0.000   0.000
    2        0.000   0.000   0.000   0.000
--------------------------------------------------
tot          0.000   0.000   0.001   0.001

 BZINTS: Fermi energy:    3.455626;   22.000000 electrons
         Band energy:-0.306561E+03;  BLOECHL correction:   -0.162392

 total amount of memory used by VASP MPI-rank0    69094. kBytes
=======================================================================

   base      :      30000. kBytes
   nonlr-proj:       5275. kBytes
   fftplans  :       6192. kBytes
   grid      :      14776. kBytes
   one-center:         62. kBytes
   wavefun   :      12789. kBytes

  
  
 General timing and accounting informations for this job:
 ========================================================
  
                  Total CPU time used (sec):     2093.253
                            User time (sec):     2018.767
                          System time (sec):       74.486
                         Elapsed time (sec):      117.142
  
                   Maximum memory used (kb):      290748.
                   Average memory used (kb):          N/A
  
                          Minor page faults:      2291526
                          Major page faults:           92
                 Voluntary context switches:       820832
