   4   4   1   0
  0.1263690E+02  0.3696812E-09  0.3697742E-09  0.3697742E-09  0.5000000E-15
  1.000000000000000E-004
  CAR 
 unknown system                          
     27.65756054    -41.27101405  301     10.56538618      1.00000000
    -41.271  0.0000E+00  0.0000E+00  0.0000E+00  0.0000E+00
    -41.041  0.0000E+00  0.0000E+00  0.0000E+00  0.0000E+00
    -40.811  0.0000E+00  0.0000E+00  0.0000E+00  0.0000E+00
    -40.582  0.0000E+00  0.0000E+00  0.0000E+00  0.0000E+00
    -40.352  0.0000E+00  0.0000E+00  0.0000E+00  0.0000E+00
    -40.122  0.0000E+00  0.0000E+00  0.0000E+00  0.0000E+00
    -39.892  0.0000E+00  0.0000E+00  0.0000E+00  0.0000E+00
    -39.663  0.0000E+00  0.0000E+00  0.0000E+00  0.0000E+00
    -39.433  0.0000E+00  0.0000E+00  0.0000E+00  0.0000E+00
    -39.203  0.0000E+00  0.0000E+00  0.0000E+00  0.0000E+00
    -38.973  0.0000E+00  0.0000E+00  0.0000E+00  0.0000E+00
    -38.744  0.6709E-04  0.0000E+00  0.1542E-04  0.0000E+00
    -38.514  0.6572E-02  0.0000E+00  0.1526E-02  0.0000E+00
    -38.284  0.6195E+00  0.0000E+00  0.1439E+00  0.0000E+00
    -38.054  0.1025E+02  0.0000E+00  0.2498E+01  0.0000E+00
    -37.825  0.2156E+01  0.0000E+00  0.2994E+01  0.0000E+00
    -37.595  0.0000E+00  0.0000E+00  0.3000E+01  0.0000E+00
    -37.365  0.0000E+00  0.0000E+00  0.3000E+01  0.0000E+00
    -37.135  0.0000E+00  0.0000E+00  0.3000E+01  0.0000E+00
    -36.906  0.0000E+00  0.4799E-04  0.3000E+01  0.1103E-04
    -36.676  0.0000E+00  0.4702E-02  0.3000E+01  0.1091E-02
    -36.446  0.0000E+00  0.4493E+00  0.3000E+01  0.1043E+00
    -36.216  0.0000E+00  0.9741E+01  0.3000E+01  0.2342E+01
    -35.986  0.0000E+00  0.2825E+01  0.3000E+01  0.2992E+01
    -35.757  0.0000E+00  0.0000E+00  0.3000E+01  0.3000E+01
    -35.527  0.0000E+00  0.0000E+00  0.3000E+01  0.3000E+01
    -35.297  0.0000E+00  0.0000E+00  0.3000E+01  0.3000E+01
    -35.067  0.0000E+00  0.0000E+00  0.3000E+01  0.3000E+01
    -34.838  0.0000E+00  0.0000E+00  0.3000E+01  0.3000E+01
    -34.608  0.0000E+00  0.0000E+00  0.3000E+01  0.3000E+01
    -34.378  0.0000E+00  0.0000E+00  0.3000E+01  0.3000E+01
    -34.148  0.0000E+00  0.0000E+00  0.3000E+01  0.3000E+01
    -33.919  0.0000E+00  0.0000E+00  0.3000E+01  0.3000E+01
    -33.689  0.0000E+00  0.0000E+00  0.3000E+01  0.3000E+01
    -33.459  0.0000E+00  0.0000E+00  0.3000E+01  0.3000E+01
    -33.229  0.0000E+00  0.0000E+00  0.3000E+01  0.3000E+01
    -33.000  0.0000E+00  0.0000E+00  0.3000E+01  0.3000E+01
    -32.770  0.0000E+00  0.0000E+00  0.3000E+01  0.3000E+01
    -32.540  0.0000E+00  0.0000E+00  0.3000E+01  0.3000E+01
    -32.310  0.0000E+00  0.0000E+00  0.3000E+01  0.3000E+01
    -32.081  0.0000E+00  0.0000E+00  0.3000E+01  0.3000E+01
    -31.851  0.0000E+00  0.0000E+00  0.3000E+01  0.3000E+01
    -31.621  0.0000E+00  0.0000E+00  0.3000E+01  0.3000E+01
    -31.391  0.0000E+00  0.0000E+00  0.3000E+01  0.3000E+01
    -31.161  0.0000E+00  0.0000E+00  0.3000E+01  0.3000E+01
    -30.932  0.0000E+00  0.0000E+00  0.3000E+01  0.3000E+01
    -30.702  0.0000E+00  0.0000E+00  0.3000E+01  0.3000E+01
    -30.472  0.0000E+00  0.0000E+00  0.3000E+01  0.3000E+01
    -30.242  0.0000E+00  0.0000E+00  0.3000E+01  0.3000E+01
    -30.013  0.0000E+00  0.0000E+00  0.3000E+01  0.3000E+01
    -29.783  0.0000E+00  0.0000E+00  0.3000E+01  0.3000E+01
    -29.553  0.0000E+00  0.0000E+00  0.3000E+01  0.3000E+01
    -29.323  0.0000E+00  0.0000E+00  0.3000E+01  0.3000E+01
    -29.094  0.0000E+00  0.0000E+00  0.3000E+01  0.3000E+01
    -28.864  0.0000E+00  0.0000E+00  0.3000E+01  0.3000E+01
    -28.634  0.0000E+00  0.0000E+00  0.3000E+01  0.3000E+01
    -28.404  0.0000E+00  0.0000E+00  0.3000E+01  0.3000E+01
    -28.175  0.0000E+00  0.0000E+00  0.3000E+01  0.3000E+01
    -27.945  0.0000E+00  0.0000E+00  0.3000E+01  0.3000E+01
    -27.715  0.0000E+00  0.0000E+00  0.3000E+01  0.3000E+01
    -27.485  0.0000E+00  0.0000E+00  0.3000E+01  0.3000E+01
    -27.256  0.0000E+00  0.0000E+00  0.3000E+01  0.3000E+01
    -27.026  0.0000E+00  0.0000E+00  0.3000E+01  0.3000E+01
    -26.796  0.0000E+00  0.0000E+00  0.3000E+01  0.3000E+01
    -26.566  0.0000E+00  0.0000E+00  0.3000E+01  0.3000E+01
    -26.336  0.0000E+00  0.0000E+00  0.3000E+01  0.3000E+01
    -26.107  0.0000E+00  0.0000E+00  0.3000E+01  0.3000E+01
    -25.877  0.0000E+00  0.0000E+00  0.3000E+01  0.3000E+01
    -25.647  0.0000E+00  0.0000E+00  0.3000E+01  0.3000E+01
    -25.417  0.0000E+00  0.0000E+00  0.3000E+01  0.3000E+01
    -25.188  0.0000E+00  0.0000E+00  0.3000E+01  0.3000E+01
    -24.958  0.0000E+00  0.0000E+00  0.3000E+01  0.3000E+01
    -24.728  0.0000E+00  0.0000E+00  0.3000E+01  0.3000E+01
    -24.498  0.0000E+00  0.0000E+00  0.3000E+01  0.3000E+01
    -24.269  0.0000E+00  0.0000E+00  0.3000E+01  0.3000E+01
    -24.039  0.0000E+00  0.0000E+00  0.3000E+01  0.3000E+01
    -23.809  0.0000E+00  0.0000E+00  0.3000E+01  0.3000E+01
    -23.579  0.0000E+00  0.0000E+00  0.3000E+01  0.3000E+01
    -23.350  0.0000E+00  0.0000E+00  0.3000E+01  0.3000E+01
    -23.120  0.0000E+00  0.0000E+00  0.3000E+01  0.3000E+01
    -22.890  0.0000E+00  0.0000E+00  0.3000E+01  0.3000E+01
    -22.660  0.0000E+00  0.0000E+00  0.3000E+01  0.3000E+01
    -22.431  0.0000E+00  0.0000E+00  0.3000E+01  0.3000E+01
    -22.201  0.0000E+00  0.0000E+00  0.3000E+01  0.3000E+01
    -21.971  0.0000E+00  0.0000E+00  0.3000E+01  0.3000E+01
    -21.741  0.0000E+00  0.0000E+00  0.3000E+01  0.3000E+01
    -21.511  0.0000E+00  0.0000E+00  0.3000E+01  0.3000E+01
    -21.282  0.0000E+00  0.0000E+00  0.3000E+01  0.3000E+01
    -21.052  0.0000E+00  0.0000E+00  0.3000E+01  0.3000E+01
    -20.822  0.0000E+00  0.0000E+00  0.3000E+01  0.3000E+01
    -20.592  0.0000E+00  0.0000E+00  0.3000E+01  0.3000E+01
    -20.363  0.0000E+00  0.0000E+00  0.3000E+01  0.3000E+01
    -20.133  0.0000E+00  0.0000E+00  0.3000E+01  0.3000E+01
    -19.903  0.0000E+00  0.0000E+00  0.3000E+01  0.3000E+01
    -19.673  0.0000E+00  0.0000E+00  0.3000E+01  0.3000E+01
    -19.444  0.0000E+00  0.0000E+00  0.3000E+01  0.3000E+01
    -19.214  0.0000E+00  0.0000E+00  0.3000E+01  0.3000E+01
    -18.984  0.0000E+00  0.0000E+00  0.3000E+01  0.3000E+01
    -18.754  0.0000E+00  0.0000E+00  0.3000E+01  0.3000E+01
    -18.525  0.0000E+00  0.0000E+00  0.3000E+01  0.3000E+01
    -18.295  0.0000E+00  0.0000E+00  0.3000E+01  0.3000E+01
    -18.065  0.0000E+00  0.0000E+00  0.3000E+01  0.3000E+01
    -17.835  0.0000E+00  0.0000E+00  0.3000E+01  0.3000E+01
    -17.606  0.0000E+00  0.0000E+00  0.3000E+01  0.3000E+01
    -17.376  0.0000E+00  0.0000E+00  0.3000E+01  0.3000E+01
    -17.146  0.0000E+00  0.0000E+00  0.3000E+01  0.3000E+01
    -16.916  0.0000E+00  0.0000E+00  0.3000E+01  0.3000E+01
    -16.686  0.0000E+00  0.0000E+00  0.3000E+01  0.3000E+01
    -16.457  0.0000E+00  0.0000E+00  0.3000E+01  0.3000E+01
    -16.227  0.0000E+00  0.0000E+00  0.3000E+01  0.3000E+01
    -15.997  0.0000E+00  0.0000E+00  0.3000E+01  0.3000E+01
    -15.767  0.0000E+00  0.0000E+00  0.3000E+01  0.3000E+01
    -15.538  0.0000E+00  0.0000E+00  0.3000E+01  0.3000E+01
    -15.308  0.0000E+00  0.0000E+00  0.3000E+01  0.3000E+01
    -15.078  0.0000E+00  0.0000E+00  0.3000E+01  0.3000E+01
    -14.848  0.0000E+00  0.0000E+00  0.3000E+01  0.3000E+01
    -14.619  0.0000E+00  0.0000E+00  0.3000E+01  0.3000E+01
    -14.389  0.0000E+00  0.0000E+00  0.3000E+01  0.3000E+01
    -14.159  0.0000E+00  0.0000E+00  0.3000E+01  0.3000E+01
    -13.929  0.0000E+00  0.0000E+00  0.3000E+01  0.3000E+01
    -13.700  0.0000E+00  0.0000E+00  0.3000E+01  0.3000E+01
    -13.470  0.0000E+00  0.0000E+00  0.3000E+01  0.3000E+01
    -13.240  0.0000E+00  0.0000E+00  0.3000E+01  0.3000E+01
    -13.010  0.0000E+00  0.0000E+00  0.3000E+01  0.3000E+01
    -12.781  0.0000E+00  0.0000E+00  0.3000E+01  0.3000E+01
    -12.551  0.0000E+00  0.0000E+00  0.3000E+01  0.3000E+01
    -12.321  0.0000E+00  0.0000E+00  0.3000E+01  0.3000E+01
    -12.091  0.0000E+00  0.0000E+00  0.3000E+01  0.3000E+01
    -11.861  0.0000E+00  0.0000E+00  0.3000E+01  0.3000E+01
    -11.632  0.0000E+00  0.0000E+00  0.3000E+01  0.3000E+01
    -11.402  0.0000E+00  0.0000E+00  0.3000E+01  0.3000E+01
    -11.172  0.0000E+00  0.0000E+00  0.3000E+01  0.3000E+01
    -10.942  0.0000E+00  0.0000E+00  0.3000E+01  0.3000E+01
    -10.713  0.0000E+00  0.0000E+00  0.3000E+01  0.3000E+01
    -10.483  0.0000E+00  0.0000E+00  0.3000E+01  0.3000E+01
    -10.253  0.0000E+00  0.0000E+00  0.3000E+01  0.3000E+01
    -10.023  0.0000E+00  0.0000E+00  0.3000E+01  0.3000E+01
     -9.794  0.0000E+00  0.0000E+00  0.3000E+01  0.3000E+01
     -9.564  0.0000E+00  0.0000E+00  0.3000E+01  0.3000E+01
     -9.334  0.0000E+00  0.0000E+00  0.3000E+01  0.3000E+01
     -9.104  0.0000E+00  0.0000E+00  0.3000E+01  0.3000E+01
     -8.875  0.0000E+00  0.0000E+00  0.3000E+01  0.3000E+01
     -8.645  0.0000E+00  0.0000E+00  0.3000E+01  0.3000E+01
     -8.415  0.0000E+00  0.0000E+00  0.3000E+01  0.3000E+01
     -8.185  0.0000E+00  0.0000E+00  0.3000E+01  0.3000E+01
     -7.956  0.0000E+00  0.0000E+00  0.3000E+01  0.3000E+01
     -7.726  0.0000E+00  0.0000E+00  0.3000E+01  0.3000E+01
     -7.496  0.0000E+00  0.0000E+00  0.3000E+01  0.3000E+01
     -7.266  0.0000E+00  0.0000E+00  0.3000E+01  0.3000E+01
     -7.036  0.0000E+00  0.0000E+00  0.3000E+01  0.3000E+01
     -6.807  0.0000E+00  0.0000E+00  0.3000E+01  0.3000E+01
     -6.577  0.0000E+00  0.0000E+00  0.3000E+01  0.3000E+01
     -6.347  0.0000E+00  0.0000E+00  0.3000E+01  0.3000E+01
     -6.117  0.0000E+00  0.0000E+00  0.3000E+01  0.3000E+01
     -5.888  0.0000E+00  0.0000E+00  0.3000E+01  0.3000E+01
     -5.658  0.0000E+00  0.0000E+00  0.3000E+01  0.3000E+01
     -5.428  0.0000E+00  0.0000E+00  0.3000E+01  0.3000E+01
     -5.198  0.0000E+00  0.0000E+00  0.3000E+01  0.3000E+01
     -4.969  0.0000E+00  0.0000E+00  0.3000E+01  0.3000E+01
     -4.739  0.0000E+00  0.0000E+00  0.3000E+01  0.3000E+01
     -4.509  0.0000E+00  0.0000E+00  0.3000E+01  0.3000E+01
     -4.279  0.0000E+00  0.0000E+00  0.3000E+01  0.3000E+01
     -4.050  0.0000E+00  0.0000E+00  0.3000E+01  0.3000E+01
     -3.820  0.0000E+00  0.0000E+00  0.3000E+01  0.3000E+01
     -3.590  0.0000E+00  0.0000E+00  0.3000E+01  0.3000E+01
     -3.360  0.0000E+00  0.0000E+00  0.3000E+01  0.3000E+01
     -3.131  0.0000E+00  0.0000E+00  0.3000E+01  0.3000E+01
     -2.901  0.0000E+00  0.0000E+00  0.3000E+01  0.3000E+01
     -2.671  0.0000E+00  0.0000E+00  0.3000E+01  0.3000E+01
     -2.441  0.0000E+00  0.0000E+00  0.3000E+01  0.3000E+01
     -2.211  0.0000E+00  0.0000E+00  0.3000E+01  0.3000E+01
     -1.982  0.1854E-05  0.8031E-06  0.3000E+01  0.3000E+01
     -1.752  0.1839E-03  0.8392E-04  0.3000E+01  0.3000E+01
     -1.522  0.1091E-01  0.6148E-02  0.3003E+01  0.3001E+01
     -1.292  0.6323E-01  0.5364E-01  0.3017E+01  0.3014E+01
     -1.063  0.1056E+00  0.1032E+00  0.3041E+01  0.3038E+01
     -0.833  0.1449E+00  0.1388E+00  0.3075E+01  0.3070E+01
     -0.603  0.1597E+00  0.1599E+00  0.3112E+01  0.3106E+01
     -0.373  0.1923E+00  0.1818E+00  0.3156E+01  0.3148E+01
     -0.144  0.2096E+00  0.2180E+00  0.3204E+01  0.3199E+01
      0.086  0.2203E+00  0.2042E+00  0.3255E+01  0.3246E+01
      0.316  0.2779E+00  0.2828E+00  0.3319E+01  0.3311E+01
      0.546  0.2385E+00  0.2369E+00  0.3375E+01  0.3366E+01
      0.775  0.3314E+00  0.3437E+00  0.3451E+01  0.3446E+01
      1.005  0.3243E+00  0.3146E+00  0.3526E+01  0.3519E+01
      1.235  0.3488E+00  0.3601E+00  0.3606E+01  0.3602E+01
      1.465  0.2414E+00  0.2342E+00  0.3663E+01  0.3656E+01
      1.694  0.3308E+00  0.3247E+00  0.3739E+01  0.3731E+01
      1.924  0.2987E+00  0.2547E+00  0.3808E+01  0.3791E+01
      2.154  0.3978E+00  0.4124E+00  0.3900E+01  0.3886E+01
      2.384  0.3147E+00  0.2795E+00  0.3973E+01  0.3951E+01
      2.614  0.3757E+00  0.3698E+00  0.4060E+01  0.4037E+01
      2.843  0.4150E+00  0.3540E+00  0.4156E+01  0.4119E+01
      3.073  0.3529E+00  0.4095E+00  0.4238E+01  0.4214E+01
      3.303  0.3826E+00  0.3130E+00  0.4326E+01  0.4287E+01
      3.533  0.4086E+00  0.4079E+00  0.4420E+01  0.4381E+01
      3.762  0.4919E+00  0.4408E+00  0.4534E+01  0.4485E+01
      3.992  0.5396E+00  0.5353E+00  0.4658E+01  0.4608E+01
      4.222  0.4875E+00  0.5361E+00  0.4771E+01  0.4732E+01
      4.452  0.5071E+00  0.4267E+00  0.4888E+01  0.4831E+01
      4.681  0.5668E+00  0.5690E+00  0.5019E+01  0.4964E+01
      4.911  0.6843E+00  0.5298E+00  0.5178E+01  0.5087E+01
      5.141  0.5627E+00  0.5740E+00  0.5308E+01  0.5219E+01
      5.371  0.6041E+00  0.5710E+00  0.5448E+01  0.5352E+01
      5.600  0.6452E+00  0.5108E+00  0.5597E+01  0.5470E+01
      5.830  0.6626E+00  0.5747E+00  0.5750E+01  0.5602E+01
      6.060  0.7235E+00  0.6347E+00  0.5918E+01  0.5748E+01
      6.290  0.8804E+00  0.6818E+00  0.6122E+01  0.5907E+01
      6.519  0.9309E+00  0.7197E+00  0.6337E+01  0.6073E+01
      6.749  0.1212E+01  0.6949E+00  0.6617E+01  0.6234E+01
      6.979  0.1202E+01  0.8273E+00  0.6894E+01  0.6425E+01
      7.209  0.1413E+01  0.8896E+00  0.7220E+01  0.6631E+01
      7.439  0.1358E+01  0.9386E+00  0.7535E+01  0.6849E+01
      7.668  0.1661E+01  0.1021E+01  0.7918E+01  0.7084E+01
      7.898  0.1502E+01  0.1100E+01  0.8266E+01  0.7338E+01
      8.128  0.1211E+01  0.1289E+01  0.8547E+01  0.7636E+01
      8.358  0.1023E+01  0.1588E+01  0.8783E+01  0.8002E+01
      8.587  0.9860E+00  0.9796E+00  0.9011E+01  0.8230E+01
      8.817  0.1034E+01  0.8733E+00  0.9250E+01  0.8432E+01
      9.047  0.2227E+01  0.8729E+00  0.9763E+01  0.8634E+01
      9.277  0.3531E+01  0.7700E+00  0.1058E+02  0.8812E+01
      9.506  0.1718E+01  0.7843E+00  0.1098E+02  0.8993E+01
      9.736  0.1334E+01  0.6671E+00  0.1129E+02  0.9147E+01
      9.966  0.8731E+00  0.8291E+00  0.1149E+02  0.9338E+01
     10.196  0.8587E+00  0.1128E+01  0.1169E+02  0.9599E+01
     10.425  0.4948E+00  0.1473E+01  0.1181E+02  0.9940E+01
     10.655  0.7276E+00  0.1081E+01  0.1197E+02  0.1019E+02
     10.885  0.4986E+00  0.1341E+01  0.1209E+02  0.1050E+02
     11.115  0.5144E+00  0.2743E+01  0.1221E+02  0.1113E+02
     11.344  0.7838E+00  0.2874E+01  0.1239E+02  0.1179E+02
     11.574  0.1174E+01  0.1277E+01  0.1266E+02  0.1209E+02
     11.804  0.1167E+01  0.6479E+00  0.1293E+02  0.1225E+02
     12.034  0.9962E+00  0.8677E+00  0.1316E+02  0.1245E+02
     12.264  0.9128E+00  0.9327E+00  0.1337E+02  0.1266E+02
     12.493  0.6000E+00  0.1128E+01  0.1351E+02  0.1292E+02
     12.723  0.6731E+00  0.1227E+01  0.1367E+02  0.1321E+02
     12.953  0.6570E+00  0.9484E+00  0.1382E+02  0.1343E+02
     13.183  0.6212E+00  0.8164E+00  0.1396E+02  0.1362E+02
     13.412  0.7899E+00  0.8423E+00  0.1415E+02  0.1381E+02
     13.642  0.8983E+00  0.8393E+00  0.1436E+02  0.1401E+02
     13.872  0.1159E+01  0.9301E+00  0.1462E+02  0.1422E+02
     14.102  0.9082E+00  0.1127E+01  0.1483E+02  0.1448E+02
     14.331  0.8904E+00  0.1064E+01  0.1504E+02  0.1473E+02
     14.561  0.7051E+00  0.9279E+00  0.1520E+02  0.1494E+02
     14.791  0.7589E+00  0.5925E+00  0.1538E+02  0.1508E+02
     15.021  0.6690E+00  0.5777E+00  0.1553E+02  0.1521E+02
     15.250  0.7632E+00  0.8693E+00  0.1571E+02  0.1541E+02
     15.480  0.9598E+00  0.1169E+01  0.1593E+02  0.1568E+02
     15.710  0.7900E+00  0.5397E+00  0.1611E+02  0.1581E+02
     15.940  0.6721E+00  0.7908E+00  0.1627E+02  0.1599E+02
     16.169  0.8987E+00  0.8018E+00  0.1648E+02  0.1618E+02
     16.399  0.6657E+00  0.1124E+01  0.1663E+02  0.1644E+02
     16.629  0.7967E+00  0.8267E+00  0.1682E+02  0.1663E+02
     16.859  0.9679E+00  0.8966E+00  0.1704E+02  0.1684E+02
     17.089  0.9415E+00  0.1091E+01  0.1726E+02  0.1709E+02
     17.318  0.8512E+00  0.9292E+00  0.1745E+02  0.1730E+02
     17.548  0.9676E+00  0.8609E+00  0.1768E+02  0.1750E+02
     17.778  0.9876E+00  0.1167E+01  0.1791E+02  0.1777E+02
     18.008  0.8024E+00  0.8995E+00  0.1809E+02  0.1798E+02
     18.237  0.8050E+00  0.7692E+00  0.1828E+02  0.1816E+02
     18.467  0.7902E+00  0.8046E+00  0.1846E+02  0.1834E+02
     18.697  0.7990E+00  0.8570E+00  0.1865E+02  0.1854E+02
     18.927  0.9578E+00  0.9479E+00  0.1887E+02  0.1876E+02
     19.156  0.7950E+00  0.7505E+00  0.1905E+02  0.1894E+02
     19.386  0.9054E+00  0.8255E+00  0.1926E+02  0.1913E+02
     19.616  0.3806E+00  0.5651E+00  0.1935E+02  0.1926E+02
     19.846  0.3654E+00  0.5913E+00  0.1944E+02  0.1940E+02
     20.075  0.3302E+00  0.3167E+00  0.1951E+02  0.1947E+02
     20.305  0.3930E+00  0.5718E+00  0.1960E+02  0.1960E+02
     20.535  0.3872E+00  0.3457E+00  0.1969E+02  0.1968E+02
     20.765  0.1673E+00  0.2206E+00  0.1973E+02  0.1973E+02
     20.994  0.1724E+00  0.1943E+00  0.1977E+02  0.1978E+02
     21.224  0.1936E+00  0.1679E+00  0.1982E+02  0.1982E+02
     21.454  0.1422E+00  0.1186E+00  0.1985E+02  0.1984E+02
     21.684  0.5896E-01  0.7079E-01  0.1986E+02  0.1986E+02
     21.914  0.1741E+00  0.1959E+00  0.1990E+02  0.1991E+02
     22.143  0.1241E+00  0.1377E+00  0.1993E+02  0.1994E+02
     22.373  0.4930E-01  0.4437E-01  0.1994E+02  0.1995E+02
     22.603  0.3636E-01  0.1883E-01  0.1995E+02  0.1995E+02
     22.833  0.3567E-01  0.5703E-01  0.1996E+02  0.1997E+02
     23.062  0.8128E-01  0.5788E-01  0.1998E+02  0.1998E+02
     23.292  0.6296E-01  0.5927E-01  0.1999E+02  0.1999E+02
     23.522  0.8843E-02  0.1122E-01  0.2000E+02  0.2000E+02
     23.752  0.0000E+00  0.0000E+00  0.2000E+02  0.2000E+02
     23.981  0.3040E-06  0.5641E-06  0.2000E+02  0.2000E+02
     24.211  0.2974E-04  0.5509E-04  0.2000E+02  0.2000E+02
     24.441  0.2479E-02  0.4044E-02  0.2000E+02  0.2000E+02
     24.671  0.1253E-01  0.1130E-01  0.2000E+02  0.2000E+02
     24.900  0.7992E-03  0.0000E+00  0.2000E+02  0.2000E+02
     25.130  0.0000E+00  0.0000E+00  0.2000E+02  0.2000E+02
     25.360  0.0000E+00  0.0000E+00  0.2000E+02  0.2000E+02
     25.590  0.0000E+00  0.0000E+00  0.2000E+02  0.2000E+02
     25.819  0.0000E+00  0.0000E+00  0.2000E+02  0.2000E+02
     26.049  0.0000E+00  0.0000E+00  0.2000E+02  0.2000E+02
     26.279  0.0000E+00  0.0000E+00  0.2000E+02  0.2000E+02
     26.509  0.0000E+00  0.0000E+00  0.2000E+02  0.2000E+02
     26.739  0.0000E+00  0.0000E+00  0.2000E+02  0.2000E+02
     26.968  0.0000E+00  0.0000E+00  0.2000E+02  0.2000E+02
     27.198  0.0000E+00  0.0000E+00  0.2000E+02  0.2000E+02
     27.428  0.0000E+00  0.0000E+00  0.2000E+02  0.2000E+02
     27.658  0.0000E+00  0.0000E+00  0.2000E+02  0.2000E+02
     27.65756054    -41.27101405  301     10.56538618      1.00000000
    -41.271  0.0000E+00  0.0000E+00  0.0000E+00  0.0000E+00  0.0000E+00  0.0000E+00  0.0000E+00  0.0000E+00  0.0000E+00  0.0000E+00  0.0000E+00  0.0000E+00  0.0000E+00  0.0000E+00  0.0000E+00  0.0000E+00  0.0000E+00  0.0000E+00
    -41.041  0.0000E+00  0.0000E+00  0.0000E+00  0.0000E+00  0.0000E+00  0.0000E+00  0.0000E+00  0.0000E+00  0.0000E+00  0.0000E+00  0.0000E+00  0.0000E+00  0.0000E+00  0.0000E+00  0.0000E+00  0.0000E+00  0.0000E+00  0.0000E+00
    -40.811  0.0000E+00  0.0000E+00  0.0000E+00  0.0000E+00  0.0000E+00  0.0000E+00  0.0000E+00  0.0000E+00  0.0000E+00  0.0000E+00  0.0000E+00  0.0000E+00  0.0000E+00  0.0000E+00  0.0000E+00  0.0000E+00  0.0000E+00  0.0000E+00
    -40.582  0.0000E+00  0.0000E+00  0.0000E+00  0.0000E+00  0.0000E+00  0.0000E+00  0.0000E+00  0.0000E+00  0.0000E+00  0.0000E+00  0.0000E+00  0.0000E+00  0.0000E+00  0.0000E+00  0.0000E+00  0.0000E+00  0.0000E+00  0.0000E+00
    -40.352  0.0000E+00  0.0000E+00  0.0000E+00  0.0000E+00  0.0000E+00  0.0000E+00  0.0000E+00  0.0000E+00  0.0000E+00  0.0000E+00  0.0000E+00  0.0000E+00  0.0000E+00  0.0000E+00  0.0000E+00  0.0000E+00  0.0000E+00  0.0000E+00
    -40.122  0.0000E+00  0.0000E+00  0.0000E+00  0.0000E+00  0.0000E+00  0.0000E+00  0.0000E+00  0.0000E+00  0.0000E+00  0.0000E+00  0.0000E+00  0.0000E+00  0.0000E+00  0.0000E+00  0.0000E+00  0.0000E+00  0.0000E+00  0.0000E+00
    -39.892  0.0000E+00  0.0000E+00  0.0000E+00  0.0000E+00  0.0000E+00  0.0000E+00  0.0000E+00  0.0000E+00  0.0000E+00  0.0000E+00  0.0000E+00  0.0000E+00  0.0000E+00  0.0000E+00  0.0000E+00  0.0000E+00  0.0000E+00  0.0000E+00
    -39.663  0.0000E+00  0.0000E+00  0.0000E+00  0.0000E+00  0.0000E+00  0.0000E+00  0.0000E+00  0.0000E+00  0.0000E+00  0.0000E+00  0.0000E+00  0.0000E+00  0.0000E+00  0.0000E+00  0.0000E+00  0.0000E+00  0.0000E+00  0.0000E+00
    -39.433  0.0000E+00  0.0000E+00  0.0000E+00  0.0000E+00  0.0000E+00  0.0000E+00  0.0000E+00  0.0000E+00  0.0000E+00  0.0000E+00  0.0000E+00  0.0000E+00  0.0000E+00  0.0000E+00  0.0000E+00  0.0000E+00  0.0000E+00  0.0000E+00
    -39.203  0.0000E+00  0.0000E+00  0.0000E+00  0.0000E+00  0.0000E+00  0.0000E+00  0.0000E+00  0.0000E+00  0.0000E+00  0.0000E+00  0.0000E+00  0.0000E+00  0.0000E+00  0.0000E+00  0.0000E+00  0.0000E+00  0.0000E+00  0.0000E+00
    -38.973  0.0000E+00  0.0000E+00  0.0000E+00  0.0000E+00  0.0000E+00  0.0000E+00  0.0000E+00  0.0000E+00  0.0000E+00  0.0000E+00  0.0000E+00  0.0000E+00  0.0000E+00  0.0000E+00  0.0000E+00  0.0000E+00  0.0000E+00  0.0000E+00
    -38.744  0.7784E-12  0.0000E+00  0.2226E-04  0.0000E+00  0.2226E-04  0.0000E+00  0.2217E-04  0.0000E+00  0.1739E-13  0.0000E+00  0.1738E-13  0.0000E+00  0.5807E-12  0.0000E+00  0.1739E-13  0.0000E+00  0.5899E-12  0.0000E+00
    -38.514  0.7625E-10  0.0000E+00  0.2180E-02  0.0000E+00  0.2180E-02  0.0000E+00  0.2172E-02  0.0000E+00  0.1703E-11  0.0000E+00  0.1703E-11  0.0000E+00  0.5688E-10  0.0000E+00  0.1703E-11  0.0000E+00  0.5778E-10  0.0000E+00
    -38.284  0.7187E-08  0.0000E+00  0.2055E+00  0.0000E+00  0.2055E+00  0.0000E+00  0.2048E+00  0.0000E+00  0.1604E-09  0.0000E+00  0.1603E-09  0.0000E+00  0.5362E-08  0.0000E+00  0.1604E-09  0.0000E+00  0.5447E-08  0.0000E+00
    -38.054  0.1188E-06  0.0000E+00  0.3396E+01  0.0000E+00  0.3396E+01  0.0000E+00  0.3394E+01  0.0000E+00  0.2616E-08  0.0000E+00  0.2611E-08  0.0000E+00  0.8890E-07  0.0000E+00  0.2616E-08  0.0000E+00  0.9010E-07  0.0000E+00
    -37.825  0.2495E-07  0.0000E+00  0.7137E+00  0.0000E+00  0.7137E+00  0.0000E+00  0.7159E+00  0.0000E+00  0.5415E-09  0.0000E+00  0.5395E-09  0.0000E+00  0.1874E-07  0.0000E+00  0.5415E-09  0.0000E+00  0.1894E-07  0.0000E+00
    -37.595  0.0000E+00  0.0000E+00  0.0000E+00  0.0000E+00  0.0000E+00  0.0000E+00  0.0000E+00  0.0000E+00  0.0000E+00  0.0000E+00  0.0000E+00  0.0000E+00  0.0000E+00  0.0000E+00  0.0000E+00  0.0000E+00  0.0000E+00  0.0000E+00
    -37.365  0.0000E+00  0.0000E+00  0.0000E+00  0.0000E+00  0.0000E+00  0.0000E+00  0.0000E+00  0.0000E+00  0.0000E+00  0.0000E+00  0.0000E+00  0.0000E+00  0.0000E+00  0.0000E+00  0.0000E+00  0.0000E+00  0.0000E+00  0.0000E+00
    -37.135  0.0000E+00  0.0000E+00  0.0000E+00  0.0000E+00  0.0000E+00  0.0000E+00  0.0000E+00  0.0000E+00  0.0000E+00  0.0000E+00  0.0000E+00  0.0000E+00  0.0000E+00  0.0000E+00  0.0000E+00  0.0000E+00  0.0000E+00  0.0000E+00
    -36.906  0.0000E+00  0.7576E-12  0.0000E+00  0.1591E-04  0.0000E+00  0.1591E-04  0.0000E+00  0.1588E-04  0.0000E+00  0.1987E-13  0.0000E+00  0.1962E-13  0.0000E+00  0.5582E-12  0.0000E+00  0.1987E-13  0.0000E+00  0.5688E-12
    -36.676  0.0000E+00  0.7422E-10  0.0000E+00  0.1559E-02  0.0000E+00  0.1559E-02  0.0000E+00  0.1556E-02  0.0000E+00  0.1946E-11  0.0000E+00  0.1923E-11  0.0000E+00  0.5469E-10  0.0000E+00  0.1946E-11  0.0000E+00  0.5573E-10
    -36.446  0.0000E+00  0.7093E-08  0.0000E+00  0.1490E+00  0.0000E+00  0.1490E+00  0.0000E+00  0.1487E+00  0.0000E+00  0.1859E-09  0.0000E+00  0.1837E-09  0.0000E+00  0.5227E-08  0.0000E+00  0.1859E-09  0.0000E+00  0.5326E-08
    -36.216  0.0000E+00  0.1536E-06  0.0000E+00  0.3228E+01  0.0000E+00  0.3228E+01  0.0000E+00  0.3227E+01  0.0000E+00  0.3997E-08  0.0000E+00  0.3945E-08  0.0000E+00  0.1136E-06  0.0000E+00  0.3997E-08  0.0000E+00  0.1154E-06
    -35.986  0.0000E+00  0.4443E-07  0.0000E+00  0.9355E+00  0.0000E+00  0.9355E+00  0.0000E+00  0.9372E+00  0.0000E+00  0.1147E-08  0.0000E+00  0.1131E-08  0.0000E+00  0.3299E-07  0.0000E+00  0.1147E-08  0.0000E+00  0.3342E-07
    -35.757  0.0000E+00  0.0000E+00  0.0000E+00  0.0000E+00  0.0000E+00  0.0000E+00  0.0000E+00  0.0000E+00  0.0000E+00  0.0000E+00  0.0000E+00  0.0000E+00  0.0000E+00  0.0000E+00  0.0000E+00  0.0000E+00  0.0000E+00  0.0000E+00
    -35.527  0.0000E+00  0.0000E+00  0.0000E+00  0.0000E+00  0.0000E+00  0.0000E+00  0.0000E+00  0.0000E+00  0.0000E+00  0.0000E+00  0.0000E+00  0.0000E+00  0.0000E+00  0.0000E+00  0.0000E+00  0.0000E+00  0.0000E+00  0.0000E+00
    -35.297  0.0000E+00  0.0000E+00  0.0000E+00  0.0000E+00  0.0000E+00  0.0000E+00  0.0000E+00  0.0000E+00  0.0000E+00  0.0000E+00  0.0000E+00  0.0000E+00  0.0000E+00  0.0000E+00  0.0000E+00  0.0000E+00  0.0000E+00  0.0000E+00
    -35.067  0.0000E+00  0.0000E+00  0.0000E+00  0.0000E+00  0.0000E+00  0.0000E+00  0.0000E+00  0.0000E+00  0.0000E+00  0.0000E+00  0.0000E+00  0.0000E+00  0.0000E+00  0.0000E+00  0.0000E+00  0.0000E+00  0.0000E+00  0.0000E+00
    -34.838  0.0000E+00  0.0000E+00  0.0000E+00  0.0000E+00  0.0000E+00  0.0000E+00  0.0000E+00  0.0000E+00  0.0000E+00  0.0000E+00  0.0000E+00  0.0000E+00  0.0000E+00  0.0000E+00  0.0000E+00  0.0000E+00  0.0000E+00  0.0000E+00
    -34.608  0.0000E+00  0.0000E+00  0.0000E+00  0.0000E+00  0.0000E+00  0.0000E+00  0.0000E+00  0.0000E+00  0.0000E+00  0.0000E+00  0.0000E+00  0.0000E+00  0.0000E+00  0.0000E+00  0.0000E+00  0.0000E+00  0.0000E+00  0.0000E+00
    -34.378  0.0000E+00  0.0000E+00  0.0000E+00  0.0000E+00  0.0000E+00  0.0000E+00  0.0000E+00  0.0000E+00  0.0000E+00  0.0000E+00  0.0000E+00  0.0000E+00  0.0000E+00  0.0000E+00  0.0000E+00  0.0000E+00  0.0000E+00  0.0000E+00
    -34.148  0.0000E+00  0.0000E+00  0.0000E+00  0.0000E+00  0.0000E+00  0.0000E+00  0.0000E+00  0.0000E+00  0.0000E+00  0.0000E+00  0.0000E+00  0.0000E+00  0.0000E+00  0.0000E+00  0.0000E+00  0.0000E+00  0.0000E+00  0.0000E+00
    -33.919  0.0000E+00  0.0000E+00  0.0000E+00  0.0000E+00  0.0000E+00  0.0000E+00  0.0000E+00  0.0000E+00  0.0000E+00  0.0000E+00  0.0000E+00  0.0000E+00  0.0000E+00  0.0000E+00  0.0000E+00  0.0000E+00  0.0000E+00  0.0000E+00
    -33.689  0.0000E+00  0.0000E+00  0.0000E+00  0.0000E+00  0.0000E+00  0.0000E+00  0.0000E+00  0.0000E+00  0.0000E+00  0.0000E+00  0.0000E+00  0.0000E+00  0.0000E+00  0.0000E+00  0.0000E+00  0.0000E+00  0.0000E+00  0.0000E+00
    -33.459  0.0000E+00  0.0000E+00  0.0000E+00  0.0000E+00  0.0000E+00  0.0000E+00  0.0000E+00  0.0000E+00  0.0000E+00  0.0000E+00  0.0000E+00  0.0000E+00  0.0000E+00  0.0000E+00  0.0000E+00  0.0000E+00  0.0000E+00  0.0000E+00
    -33.229  0.0000E+00  0.0000E+00  0.0000E+00  0.0000E+00  0.0000E+00  0.0000E+00  0.0000E+00  0.0000E+00  0.0000E+00  0.0000E+00  0.0000E+00  0.0000E+00  0.0000E+00  0.0000E+00  0.0000E+00  0.0000E+00  0.0000E+00  0.0000E+00
    -33.000  0.0000E+00  0.0000E+00  0.0000E+00  0.0000E+00  0.0000E+00  0.0000E+00  0.0000E+00  0.0000E+00  0.0000E+00  0.0000E+00  0.0000E+00  0.0000E+00  0.0000E+00  0.0000E+00  0.0000E+00  0.0000E+00  0.0000E+00  0.0000E+00
    -32.770  0.0000E+00  0.0000E+00  0.0000E+00  0.0000E+00  0.0000E+00  0.0000E+00  0.0000E+00  0.0000E+00  0.0000E+00  0.0000E+00  0.0000E+00  0.0000E+00  0.0000E+00  0.0000E+00  0.0000E+00  0.0000E+00  0.0000E+00  0.0000E+00
    -32.540  0.0000E+00  0.0000E+00  0.0000E+00  0.0000E+00  0.0000E+00  0.0000E+00  0.0000E+00  0.0000E+00  0.0000E+00  0.0000E+00  0.0000E+00  0.0000E+00  0.0000E+00  0.0000E+00  0.0000E+00  0.0000E+00  0.0000E+00  0.0000E+00
    -32.310  0.0000E+00  0.0000E+00  0.0000E+00  0.0000E+00  0.0000E+00  0.0000E+00  0.0000E+00  0.0000E+00  0.0000E+00  0.0000E+00  0.0000E+00  0.0000E+00  0.0000E+00  0.0000E+00  0.0000E+00  0.0000E+00  0.0000E+00  0.0000E+00
    -32.081  0.0000E+00  0.0000E+00  0.0000E+00  0.0000E+00  0.0000E+00  0.0000E+00  0.0000E+00  0.0000E+00  0.0000E+00  0.0000E+00  0.0000E+00  0.0000E+00  0.0000E+00  0.0000E+00  0.0000E+00  0.0000E+00  0.0000E+00  0.0000E+00
    -31.851  0.0000E+00  0.0000E+00  0.0000E+00  0.0000E+00  0.0000E+00  0.0000E+00  0.0000E+00  0.0000E+00  0.0000E+00  0.0000E+00  0.0000E+00  0.0000E+00  0.0000E+00  0.0000E+00  0.0000E+00  0.0000E+00  0.0000E+00  0.0000E+00
    -31.621  0.0000E+00  0.0000E+00  0.0000E+00  0.0000E+00  0.0000E+00  0.0000E+00  0.0000E+00  0.0000E+00  0.0000E+00  0.0000E+00  0.0000E+00  0.0000E+00  0.0000E+00  0.0000E+00  0.0000E+00  0.0000E+00  0.0000E+00  0.0000E+00
    -31.391  0.0000E+00  0.0000E+00  0.0000E+00  0.0000E+00  0.0000E+00  0.0000E+00  0.0000E+00  0.0000E+00  0.0000E+00  0.0000E+00  0.0000E+00  0.0000E+00  0.0000E+00  0.0000E+00  0.0000E+00  0.0000E+00  0.0000E+00  0.0000E+00
    -31.161  0.0000E+00  0.0000E+00  0.0000E+00  0.0000E+00  0.0000E+00  0.0000E+00  0.0000E+00  0.0000E+00  0.0000E+00  0.0000E+00  0.0000E+00  0.0000E+00  0.0000E+00  0.0000E+00  0.0000E+00  0.0000E+00  0.0000E+00  0.0000E+00
    -30.932  0.0000E+00  0.0000E+00  0.0000E+00  0.0000E+00  0.0000E+00  0.0000E+00  0.0000E+00  0.0000E+00  0.0000E+00  0.0000E+00  0.0000E+00  0.0000E+00  0.0000E+00  0.0000E+00  0.0000E+00  0.0000E+00  0.0000E+00  0.0000E+00
    -30.702  0.0000E+00  0.0000E+00  0.0000E+00  0.0000E+00  0.0000E+00  0.0000E+00  0.0000E+00  0.0000E+00  0.0000E+00  0.0000E+00  0.0000E+00  0.0000E+00  0.0000E+00  0.0000E+00  0.0000E+00  0.0000E+00  0.0000E+00  0.0000E+00
    -30.472  0.0000E+00  0.0000E+00  0.0000E+00  0.0000E+00  0.0000E+00  0.0000E+00  0.0000E+00  0.0000E+00  0.0000E+00  0.0000E+00  0.0000E+00  0.0000E+00  0.0000E+00  0.0000E+00  0.0000E+00  0.0000E+00  0.0000E+00  0.0000E+00
    -30.242  0.0000E+00  0.0000E+00  0.0000E+00  0.0000E+00  0.0000E+00  0.0000E+00  0.0000E+00  0.0000E+00  0.0000E+00  0.0000E+00  0.0000E+00  0.0000E+00  0.0000E+00  0.0000E+00  0.0000E+00  0.0000E+00  0.0000E+00  0.0000E+00
    -30.013  0.0000E+00  0.0000E+00  0.0000E+00  0.0000E+00  0.0000E+00  0.0000E+00  0.0000E+00  0.0000E+00  0.0000E+00  0.0000E+00  0.0000E+00  0.0000E+00  0.0000E+00  0.0000E+00  0.0000E+00  0.0000E+00  0.0000E+00  0.0000E+00
    -29.783  0.0000E+00  0.0000E+00  0.0000E+00  0.0000E+00  0.0000E+00  0.0000E+00  0.0000E+00  0.0000E+00  0.0000E+00  0.0000E+00  0.0000E+00  0.0000E+00  0.0000E+00  0.0000E+00  0.0000E+00  0.0000E+00  0.0000E+00  0.0000E+00