   4   4   1   0
  0.1385902E+02  0.3812338E-09  0.3813297E-09  0.3813297E-09  0.5000000E-15
  1.000000000000000E-004
  CAR 
 unknown system                          
     25.63294243    -42.50451317  301      9.49846226      1.00000000
    -42.505  0.0000E+00  0.0000E+00  0.0000E+00  0.0000E+00
    -42.277  0.0000E+00  0.0000E+00  0.0000E+00  0.0000E+00
    -42.050  0.0000E+00  0.0000E+00  0.0000E+00  0.0000E+00
    -41.823  0.0000E+00  0.0000E+00  0.0000E+00  0.0000E+00
    -41.596  0.0000E+00  0.0000E+00  0.0000E+00  0.0000E+00
    -41.369  0.0000E+00  0.0000E+00  0.0000E+00  0.0000E+00
    -41.142  0.0000E+00  0.0000E+00  0.0000E+00  0.0000E+00
    -40.915  0.0000E+00  0.0000E+00  0.0000E+00  0.0000E+00
    -40.688  0.0000E+00  0.0000E+00  0.0000E+00  0.0000E+00
    -40.460  0.0000E+00  0.0000E+00  0.0000E+00  0.0000E+00
    -40.233  0.0000E+00  0.0000E+00  0.0000E+00  0.0000E+00
    -40.006  0.7989E-04  0.0000E+00  0.1815E-04  0.0000E+00
    -39.779  0.7420E-02  0.0000E+00  0.1703E-02  0.0000E+00
    -39.552  0.6616E+00  0.0000E+00  0.1520E+00  0.0000E+00
    -39.325  0.1034E+02  0.0000E+00  0.2501E+01  0.0000E+00
    -39.098  0.2170E+01  0.0000E+00  0.2994E+01  0.0000E+00
    -38.871  0.0000E+00  0.0000E+00  0.3000E+01  0.0000E+00
    -38.643  0.0000E+00  0.0000E+00  0.3000E+01  0.0000E+00
    -38.416  0.0000E+00  0.0000E+00  0.3000E+01  0.0000E+00
    -38.189  0.0000E+00  0.0000E+00  0.3000E+01  0.0000E+00
    -37.962  0.0000E+00  0.0000E+00  0.3000E+01  0.0000E+00
    -37.735  0.0000E+00  0.1085E-02  0.3000E+01  0.2463E-03
    -37.508  0.0000E+00  0.1000E+00  0.3000E+01  0.2296E-01
    -37.281  0.0000E+00  0.5447E+01  0.3000E+01  0.1260E+01
    -37.054  0.0000E+00  0.7469E+01  0.3000E+01  0.2957E+01
    -36.826  0.0000E+00  0.0000E+00  0.3000E+01  0.3000E+01
    -36.599  0.0000E+00  0.0000E+00  0.3000E+01  0.3000E+01
    -36.372  0.0000E+00  0.0000E+00  0.3000E+01  0.3000E+01
    -36.145  0.0000E+00  0.0000E+00  0.3000E+01  0.3000E+01
    -35.918  0.0000E+00  0.0000E+00  0.3000E+01  0.3000E+01
    -35.691  0.0000E+00  0.0000E+00  0.3000E+01  0.3000E+01
    -35.464  0.0000E+00  0.0000E+00  0.3000E+01  0.3000E+01
    -35.237  0.0000E+00  0.0000E+00  0.3000E+01  0.3000E+01
    -35.009  0.0000E+00  0.0000E+00  0.3000E+01  0.3000E+01
    -34.782  0.0000E+00  0.0000E+00  0.3000E+01  0.3000E+01
    -34.555  0.0000E+00  0.0000E+00  0.3000E+01  0.3000E+01
    -34.328  0.0000E+00  0.0000E+00  0.3000E+01  0.3000E+01
    -34.101  0.0000E+00  0.0000E+00  0.3000E+01  0.3000E+01
    -33.874  0.0000E+00  0.0000E+00  0.3000E+01  0.3000E+01
    -33.647  0.0000E+00  0.0000E+00  0.3000E+01  0.3000E+01
    -33.420  0.0000E+00  0.0000E+00  0.3000E+01  0.3000E+01
    -33.192  0.0000E+00  0.0000E+00  0.3000E+01  0.3000E+01
    -32.965  0.0000E+00  0.0000E+00  0.3000E+01  0.3000E+01
    -32.738  0.0000E+00  0.0000E+00  0.3000E+01  0.3000E+01
    -32.511  0.0000E+00  0.0000E+00  0.3000E+01  0.3000E+01
    -32.284  0.0000E+00  0.0000E+00  0.3000E+01  0.3000E+01
    -32.057  0.0000E+00  0.0000E+00  0.3000E+01  0.3000E+01
    -31.830  0.0000E+00  0.0000E+00  0.3000E+01  0.3000E+01
    -31.603  0.0000E+00  0.0000E+00  0.3000E+01  0.3000E+01
    -31.375  0.0000E+00  0.0000E+00  0.3000E+01  0.3000E+01
    -31.148  0.0000E+00  0.0000E+00  0.3000E+01  0.3000E+01
    -30.921  0.0000E+00  0.0000E+00  0.3000E+01  0.3000E+01
    -30.694  0.0000E+00  0.0000E+00  0.3000E+01  0.3000E+01
    -30.467  0.0000E+00  0.0000E+00  0.3000E+01  0.3000E+01
    -30.240  0.0000E+00  0.0000E+00  0.3000E+01  0.3000E+01
    -30.013  0.0000E+00  0.0000E+00  0.3000E+01  0.3000E+01
    -29.786  0.0000E+00  0.0000E+00  0.3000E+01  0.3000E+01
    -29.558  0.0000E+00  0.0000E+00  0.3000E+01  0.3000E+01
    -29.331  0.0000E+00  0.0000E+00  0.3000E+01  0.3000E+01
    -29.104  0.0000E+00  0.0000E+00  0.3000E+01  0.3000E+01
    -28.877  0.0000E+00  0.0000E+00  0.3000E+01  0.3000E+01
    -28.650  0.0000E+00  0.0000E+00  0.3000E+01  0.3000E+01
    -28.423  0.0000E+00  0.0000E+00  0.3000E+01  0.3000E+01
    -28.196  0.0000E+00  0.0000E+00  0.3000E+01  0.3000E+01
    -27.969  0.0000E+00  0.0000E+00  0.3000E+01  0.3000E+01
    -27.741  0.0000E+00  0.0000E+00  0.3000E+01  0.3000E+01
    -27.514  0.0000E+00  0.0000E+00  0.3000E+01  0.3000E+01
    -27.287  0.0000E+00  0.0000E+00  0.3000E+01  0.3000E+01
    -27.060  0.0000E+00  0.0000E+00  0.3000E+01  0.3000E+01
    -26.833  0.0000E+00  0.0000E+00  0.3000E+01  0.3000E+01
    -26.606  0.0000E+00  0.0000E+00  0.3000E+01  0.3000E+01
    -26.379  0.0000E+00  0.0000E+00  0.3000E+01  0.3000E+01
    -26.152  0.0000E+00  0.0000E+00  0.3000E+01  0.3000E+01
    -25.924  0.0000E+00  0.0000E+00  0.3000E+01  0.3000E+01
    -25.697  0.0000E+00  0.0000E+00  0.3000E+01  0.3000E+01
    -25.470  0.0000E+00  0.0000E+00  0.3000E+01  0.3000E+01
    -25.243  0.0000E+00  0.0000E+00  0.3000E+01  0.3000E+01
    -25.016  0.0000E+00  0.0000E+00  0.3000E+01  0.3000E+01
    -24.789  0.0000E+00  0.0000E+00  0.3000E+01  0.3000E+01
    -24.562  0.0000E+00  0.0000E+00  0.3000E+01  0.3000E+01
    -24.335  0.0000E+00  0.0000E+00  0.3000E+01  0.3000E+01
    -24.107  0.0000E+00  0.0000E+00  0.3000E+01  0.3000E+01
    -23.880  0.0000E+00  0.0000E+00  0.3000E+01  0.3000E+01
    -23.653  0.0000E+00  0.0000E+00  0.3000E+01  0.3000E+01
    -23.426  0.0000E+00  0.0000E+00  0.3000E+01  0.3000E+01
    -23.199  0.0000E+00  0.0000E+00  0.3000E+01  0.3000E+01
    -22.972  0.0000E+00  0.0000E+00  0.3000E+01  0.3000E+01
    -22.745  0.0000E+00  0.0000E+00  0.3000E+01  0.3000E+01
    -22.518  0.0000E+00  0.0000E+00  0.3000E+01  0.3000E+01
    -22.290  0.0000E+00  0.0000E+00  0.3000E+01  0.3000E+01
    -22.063  0.0000E+00  0.0000E+00  0.3000E+01  0.3000E+01
    -21.836  0.0000E+00  0.0000E+00  0.3000E+01  0.3000E+01
    -21.609  0.0000E+00  0.0000E+00  0.3000E+01  0.3000E+01
    -21.382  0.0000E+00  0.0000E+00  0.3000E+01  0.3000E+01
    -21.155  0.0000E+00  0.0000E+00  0.3000E+01  0.3000E+01
    -20.928  0.0000E+00  0.0000E+00  0.3000E+01  0.3000E+01
    -20.701  0.0000E+00  0.0000E+00  0.3000E+01  0.3000E+01
    -20.473  0.0000E+00  0.0000E+00  0.3000E+01  0.3000E+01
    -20.246  0.0000E+00  0.0000E+00  0.3000E+01  0.3000E+01
    -20.019  0.0000E+00  0.0000E+00  0.3000E+01  0.3000E+01
    -19.792  0.0000E+00  0.0000E+00  0.3000E+01  0.3000E+01
    -19.565  0.0000E+00  0.0000E+00  0.3000E+01  0.3000E+01
    -19.338  0.0000E+00  0.0000E+00  0.3000E+01  0.3000E+01
    -19.111  0.0000E+00  0.0000E+00  0.3000E+01  0.3000E+01
    -18.884  0.0000E+00  0.0000E+00  0.3000E+01  0.3000E+01
    -18.656  0.0000E+00  0.0000E+00  0.3000E+01  0.3000E+01
    -18.429  0.0000E+00  0.0000E+00  0.3000E+01  0.3000E+01
    -18.202  0.0000E+00  0.0000E+00  0.3000E+01  0.3000E+01
    -17.975  0.0000E+00  0.0000E+00  0.3000E+01  0.3000E+01
    -17.748  0.0000E+00  0.0000E+00  0.3000E+01  0.3000E+01
    -17.521  0.0000E+00  0.0000E+00  0.3000E+01  0.3000E+01
    -17.294  0.0000E+00  0.0000E+00  0.3000E+01  0.3000E+01
    -17.067  0.0000E+00  0.0000E+00  0.3000E+01  0.3000E+01
    -16.839  0.0000E+00  0.0000E+00  0.3000E+01  0.3000E+01
    -16.612  0.0000E+00  0.0000E+00  0.3000E+01  0.3000E+01
    -16.385  0.0000E+00  0.0000E+00  0.3000E+01  0.3000E+01
    -16.158  0.0000E+00  0.0000E+00  0.3000E+01  0.3000E+01
    -15.931  0.0000E+00  0.0000E+00  0.3000E+01  0.3000E+01
    -15.704  0.0000E+00  0.0000E+00  0.3000E+01  0.3000E+01
    -15.477  0.0000E+00  0.0000E+00  0.3000E+01  0.3000E+01
    -15.250  0.0000E+00  0.0000E+00  0.3000E+01  0.3000E+01
    -15.022  0.0000E+00  0.0000E+00  0.3000E+01  0.3000E+01
    -14.795  0.0000E+00  0.0000E+00  0.3000E+01  0.3000E+01
    -14.568  0.0000E+00  0.0000E+00  0.3000E+01  0.3000E+01
    -14.341  0.0000E+00  0.0000E+00  0.3000E+01  0.3000E+01
    -14.114  0.0000E+00  0.0000E+00  0.3000E+01  0.3000E+01
    -13.887  0.0000E+00  0.0000E+00  0.3000E+01  0.3000E+01
    -13.660  0.0000E+00  0.0000E+00  0.3000E+01  0.3000E+01
    -13.433  0.0000E+00  0.0000E+00  0.3000E+01  0.3000E+01
    -13.205  0.0000E+00  0.0000E+00  0.3000E+01  0.3000E+01
    -12.978  0.0000E+00  0.0000E+00  0.3000E+01  0.3000E+01
    -12.751  0.0000E+00  0.0000E+00  0.3000E+01  0.3000E+01
    -12.524  0.0000E+00  0.0000E+00  0.3000E+01  0.3000E+01
    -12.297  0.0000E+00  0.0000E+00  0.3000E+01  0.3000E+01
    -12.070  0.0000E+00  0.0000E+00  0.3000E+01  0.3000E+01
    -11.843  0.0000E+00  0.0000E+00  0.3000E+01  0.3000E+01
    -11.616  0.0000E+00  0.0000E+00  0.3000E+01  0.3000E+01
    -11.388  0.0000E+00  0.0000E+00  0.3000E+01  0.3000E+01
    -11.161  0.0000E+00  0.0000E+00  0.3000E+01  0.3000E+01
    -10.934  0.0000E+00  0.0000E+00  0.3000E+01  0.3000E+01
    -10.707  0.0000E+00  0.0000E+00  0.3000E+01  0.3000E+01
    -10.480  0.0000E+00  0.0000E+00  0.3000E+01  0.3000E+01
    -10.253  0.0000E+00  0.0000E+00  0.3000E+01  0.3000E+01
    -10.026  0.0000E+00  0.0000E+00  0.3000E+01  0.3000E+01
     -9.799  0.0000E+00  0.0000E+00  0.3000E+01  0.3000E+01
     -9.571  0.0000E+00  0.0000E+00  0.3000E+01  0.3000E+01
     -9.344  0.0000E+00  0.0000E+00  0.3000E+01  0.3000E+01
     -9.117  0.0000E+00  0.0000E+00  0.3000E+01  0.3000E+01
     -8.890  0.0000E+00  0.0000E+00  0.3000E+01  0.3000E+01
     -8.663  0.0000E+00  0.0000E+00  0.3000E+01  0.3000E+01
     -8.436  0.0000E+00  0.0000E+00  0.3000E+01  0.3000E+01
     -8.209  0.0000E+00  0.0000E+00  0.3000E+01  0.3000E+01
     -7.982  0.0000E+00  0.0000E+00  0.3000E+01  0.3000E+01
     -7.754  0.0000E+00  0.0000E+00  0.3000E+01  0.3000E+01
     -7.527  0.0000E+00  0.0000E+00  0.3000E+01  0.3000E+01
     -7.300  0.0000E+00  0.0000E+00  0.3000E+01  0.3000E+01
     -7.073  0.0000E+00  0.0000E+00  0.3000E+01  0.3000E+01
     -6.846  0.0000E+00  0.0000E+00  0.3000E+01  0.3000E+01
     -6.619  0.0000E+00  0.0000E+00  0.3000E+01  0.3000E+01
     -6.392  0.0000E+00  0.0000E+00  0.3000E+01  0.3000E+01
     -6.165  0.0000E+00  0.0000E+00  0.3000E+01  0.3000E+01
     -5.937  0.0000E+00  0.0000E+00  0.3000E+01  0.3000E+01
     -5.710  0.0000E+00  0.0000E+00  0.3000E+01  0.3000E+01
     -5.483  0.0000E+00  0.0000E+00  0.3000E+01  0.3000E+01
     -5.256  0.0000E+00  0.0000E+00  0.3000E+01  0.3000E+01
     -5.029  0.0000E+00  0.0000E+00  0.3000E+01  0.3000E+01
     -4.802  0.0000E+00  0.0000E+00  0.3000E+01  0.3000E+01
     -4.575  0.0000E+00  0.0000E+00  0.3000E+01  0.3000E+01
     -4.348  0.0000E+00  0.0000E+00  0.3000E+01  0.3000E+01
     -4.120  0.0000E+00  0.0000E+00  0.3000E+01  0.3000E+01
     -3.893  0.0000E+00  0.0000E+00  0.3000E+01  0.3000E+01
     -3.666  0.0000E+00  0.0000E+00  0.3000E+01  0.3000E+01
     -3.439  0.0000E+00  0.0000E+00  0.3000E+01  0.3000E+01
     -3.212  0.0000E+00  0.0000E+00  0.3000E+01  0.3000E+01
     -2.985  0.0000E+00  0.0000E+00  0.3000E+01  0.3000E+01
     -2.758  0.0000E+00  0.0000E+00  0.3000E+01  0.3000E+01
     -2.531  0.3791E-06  0.1600E-06  0.3000E+01  0.3000E+01
     -2.303  0.3804E-04  0.2230E-04  0.3000E+01  0.3000E+01
     -2.076  0.3114E-02  0.1921E-02  0.3001E+01  0.3000E+01
     -1.849  0.4551E-01  0.3840E-01  0.3011E+01  0.3009E+01
     -1.622  0.1051E+00  0.1014E+00  0.3035E+01  0.3032E+01
     -1.395  0.1411E+00  0.1356E+00  0.3067E+01  0.3063E+01
     -1.168  0.1690E+00  0.1687E+00  0.3105E+01  0.3101E+01
     -0.941  0.1931E+00  0.1879E+00  0.3150E+01  0.3145E+01
     -0.714  0.2267E+00  0.2315E+00  0.3201E+01  0.3197E+01
     -0.486  0.2284E+00  0.2229E+00  0.3254E+01  0.3248E+01
     -0.259  0.2930E+00  0.2976E+00  0.3320E+01  0.3316E+01
     -0.032  0.2625E+00  0.2640E+00  0.3381E+01  0.3377E+01
      0.195  0.3475E+00  0.3609E+00  0.3460E+01  0.3459E+01
      0.422  0.3486E+00  0.3447E+00  0.3540E+01  0.3538E+01
      0.649  0.3391E+00  0.3465E+00  0.3617E+01  0.3617E+01
      0.876  0.2843E+00  0.2766E+00  0.3682E+01  0.3680E+01
      1.103  0.3306E+00  0.3036E+00  0.3758E+01  0.3750E+01
      1.331  0.3648E+00  0.3263E+00  0.3841E+01  0.3825E+01
      1.558  0.3592E+00  0.3716E+00  0.3923E+01  0.3909E+01
      1.785  0.3690E+00  0.3521E+00  0.4008E+01  0.3991E+01
      2.012  0.3895E+00  0.3514E+00  0.4097E+01  0.4071E+01
      2.239  0.4558E+00  0.4632E+00  0.4201E+01  0.4177E+01
      2.466  0.3344E+00  0.3247E+00  0.4278E+01  0.4251E+01
      2.693  0.4423E+00  0.4352E+00  0.4379E+01  0.4351E+01
      2.920  0.4762E+00  0.4260E+00  0.4487E+01  0.4448E+01
      3.148  0.5638E+00  0.5659E+00  0.4616E+01  0.4576E+01
      3.375  0.5621E+00  0.5766E+00  0.4745E+01  0.4708E+01
      3.602  0.4852E+00  0.4378E+00  0.4856E+01  0.4808E+01
      3.829  0.6124E+00  0.5943E+00  0.4996E+01  0.4944E+01
      4.056  0.6776E+00  0.5169E+00  0.5151E+01  0.5062E+01
      4.283  0.6122E+00  0.6016E+00  0.5290E+01  0.5200E+01
      4.510  0.6114E+00  0.5785E+00  0.5430E+01  0.5333E+01
      4.737  0.6484E+00  0.5367E+00  0.5578E+01  0.5456E+01
      4.965  0.6779E+00  0.5435E+00  0.5732E+01  0.5580E+01
      5.192  0.7610E+00  0.6666E+00  0.5906E+01  0.5732E+01
      5.419  0.8784E+00  0.6906E+00  0.6107E+01  0.5891E+01
      5.646  0.9565E+00  0.6930E+00  0.6325E+01  0.6049E+01
      5.873  0.1243E+01  0.7306E+00  0.6609E+01  0.6216E+01
      6.100  0.1311E+01  0.8082E+00  0.6908E+01  0.6401E+01
      6.327  0.1555E+01  0.8922E+00  0.7263E+01  0.6605E+01
      6.554  0.1643E+01  0.9487E+00  0.7639E+01  0.6821E+01
      6.782  0.1800E+01  0.9396E+00  0.8049E+01  0.7035E+01
      7.009  0.1579E+01  0.1141E+01  0.8412E+01  0.7296E+01
      7.236  0.1235E+01  0.1179E+01  0.8695E+01  0.7565E+01
      7.463  0.1168E+01  0.1597E+01  0.8963E+01  0.7929E+01
      7.690  0.1216E+01  0.1075E+01  0.9242E+01  0.8175E+01
      7.917  0.3180E+01  0.9423E+00  0.9965E+01  0.8391E+01
      8.144  0.3139E+01  0.9084E+00  0.1068E+02  0.8600E+01
      8.371  0.1590E+01  0.8145E+00  0.1105E+02  0.8786E+01
      8.599  0.1254E+01  0.8132E+00  0.1134E+02  0.8972E+01
      8.826  0.9156E+00  0.7211E+00  0.1155E+02  0.9137E+01
      9.053  0.7790E+00  0.8762E+00  0.1173E+02  0.9338E+01
      9.280  0.5219E+00  0.1269E+01  0.1185E+02  0.9627E+01
      9.507  0.7795E+00  0.1601E+01  0.1202E+02  0.9993E+01
      9.734  0.5387E+00  0.1193E+01  0.1215E+02  0.1027E+02
      9.961  0.7606E+00  0.1964E+01  0.1232E+02  0.1071E+02
     10.188  0.1358E+01  0.3100E+01  0.1263E+02  0.1142E+02
     10.416  0.1099E+01  0.2513E+01  0.1288E+02  0.1199E+02
     10.643  0.9484E+00  0.9490E+00  0.1310E+02  0.1222E+02
     10.870  0.9298E+00  0.9292E+00  0.1331E+02  0.1243E+02
     11.097  0.8164E+00  0.1083E+01  0.1350E+02  0.1268E+02
     11.324  0.6252E+00  0.1415E+01  0.1364E+02  0.1300E+02
     11.551  0.8009E+00  0.1285E+01  0.1383E+02  0.1329E+02
     11.778  0.6148E+00  0.1017E+01  0.1397E+02  0.1353E+02
     12.005  0.1002E+01  0.9888E+00  0.1420E+02  0.1375E+02
     12.233  0.9536E+00  0.9383E+00  0.1441E+02  0.1397E+02
     12.460  0.9608E+00  0.9459E+00  0.1463E+02  0.1418E+02
     12.687  0.1000E+01  0.1175E+01  0.1486E+02  0.1445E+02
     12.914  0.7757E+00  0.1134E+01  0.1504E+02  0.1471E+02
     13.141  0.7679E+00  0.9961E+00  0.1522E+02  0.1494E+02
     13.368  0.8769E+00  0.6191E+00  0.1542E+02  0.1508E+02
     13.595  0.6308E+00  0.5889E+00  0.1556E+02  0.1522E+02
     13.822  0.8797E+00  0.1216E+01  0.1576E+02  0.1549E+02
     14.050  0.9703E+00  0.9438E+00  0.1598E+02  0.1571E+02
     14.277  0.8290E+00  0.5681E+00  0.1617E+02  0.1584E+02
     14.504  0.7953E+00  0.7722E+00  0.1636E+02  0.1602E+02
     14.731  0.8649E+00  0.1047E+01  0.1655E+02  0.1626E+02
     14.958  0.6873E+00  0.1187E+01  0.1671E+02  0.1653E+02
     15.185  0.1066E+01  0.8772E+00  0.1695E+02  0.1673E+02
     15.412  0.1048E+01  0.1062E+01  0.1719E+02  0.1697E+02
     15.639  0.7074E+00  0.1109E+01  0.1736E+02  0.1722E+02
     15.867  0.9531E+00  0.7537E+00  0.1757E+02  0.1740E+02
     16.094  0.1096E+01  0.1051E+01  0.1782E+02  0.1764E+02
     16.321  0.1026E+01  0.1188E+01  0.1806E+02  0.1791E+02
     16.548  0.7896E+00  0.8687E+00  0.1824E+02  0.1811E+02
     16.775  0.7698E+00  0.8762E+00  0.1842E+02  0.1831E+02
     17.002  0.9390E+00  0.8679E+00  0.1863E+02  0.1851E+02
     17.229  0.1003E+01  0.9978E+00  0.1886E+02  0.1874E+02
     17.456  0.7629E+00  0.8004E+00  0.1903E+02  0.1892E+02
     17.684  0.9174E+00  0.8496E+00  0.1924E+02  0.1911E+02
     17.911  0.4887E+00  0.7086E+00  0.1936E+02  0.1928E+02
     18.138  0.3832E+00  0.5562E+00  0.1944E+02  0.1940E+02
     18.365  0.2171E+00  0.2757E+00  0.1949E+02  0.1947E+02
     18.592  0.4186E+00  0.5157E+00  0.1959E+02  0.1959E+02
     18.819  0.4252E+00  0.4139E+00  0.1969E+02  0.1968E+02
     19.046  0.1844E+00  0.2448E+00  0.1973E+02  0.1974E+02
     19.273  0.1777E+00  0.1970E+00  0.1977E+02  0.1978E+02
     19.501  0.2181E+00  0.1573E+00  0.1982E+02  0.1982E+02
     19.728  0.1323E+00  0.9605E-01  0.1985E+02  0.1984E+02
     19.955  0.6599E-01  0.1340E+00  0.1986E+02  0.1987E+02
     20.182  0.1495E+00  0.1659E+00  0.1990E+02  0.1991E+02
     20.409  0.1075E+00  0.9948E-01  0.1992E+02  0.1993E+02
     20.636  0.9485E-01  0.8841E-01  0.1994E+02  0.1995E+02
     20.863  0.3664E-01  0.1544E-01  0.1995E+02  0.1996E+02
     21.090  0.5641E-01  0.7747E-01  0.1997E+02  0.1997E+02
     21.318  0.4797E-01  0.3754E-01  0.1998E+02  0.1998E+02
     21.545  0.6191E-01  0.6417E-01  0.1999E+02  0.2000E+02
     21.772  0.2326E-01  0.1048E-02  0.2000E+02  0.2000E+02
     21.999  0.3484E-06  0.1513E-05  0.2000E+02  0.2000E+02
     22.226  0.3231E-04  0.1393E-03  0.2000E+02  0.2000E+02
     22.453  0.2546E-02  0.7143E-02  0.2000E+02  0.2000E+02
     22.680  0.1261E-01  0.8546E-02  0.2000E+02  0.2000E+02
     22.907  0.8341E-03  0.0000E+00  0.2000E+02  0.2000E+02
     23.135  0.0000E+00  0.0000E+00  0.2000E+02  0.2000E+02
     23.362  0.0000E+00  0.0000E+00  0.2000E+02  0.2000E+02
     23.589  0.0000E+00  0.0000E+00  0.2000E+02  0.2000E+02
     23.816  0.0000E+00  0.0000E+00  0.2000E+02  0.2000E+02
     24.043  0.0000E+00  0.0000E+00  0.2000E+02  0.2000E+02
     24.270  0.0000E+00  0.0000E+00  0.2000E+02  0.2000E+02
     24.497  0.0000E+00  0.0000E+00  0.2000E+02  0.2000E+02
     24.724  0.0000E+00  0.0000E+00  0.2000E+02  0.2000E+02
     24.952  0.0000E+00  0.0000E+00  0.2000E+02  0.2000E+02
     25.179  0.0000E+00  0.0000E+00  0.2000E+02  0.2000E+02
     25.406  0.0000E+00  0.0000E+00  0.2000E+02  0.2000E+02
     25.633  0.0000E+00  0.0000E+00  0.2000E+02  0.2000E+02
     25.63294243    -42.50451317  301      9.49846226      1.00000000
    -42.505  0.0000E+00  0.0000E+00  0.0000E+00  0.0000E+00  0.0000E+00  0.0000E+00  0.0000E+00  0.0000E+00  0.0000E+00  0.0000E+00  0.0000E+00  0.0000E+00  0.0000E+00  0.0000E+00  0.0000E+00  0.0000E+00  0.0000E+00  0.0000E+00
    -42.277  0.0000E+00  0.0000E+00  0.0000E+00  0.0000E+00  0.0000E+00  0.0000E+00  0.0000E+00  0.0000E+00  0.0000E+00  0.0000E+00  0.0000E+00  0.0000E+00  0.0000E+00  0.0000E+00  0.0000E+00  0.0000E+00  0.0000E+00  0.0000E+00
    -42.050  0.0000E+00  0.0000E+00  0.0000E+00  0.0000E+00  0.0000E+00  0.0000E+00  0.0000E+00  0.0000E+00  0.0000E+00  0.0000E+00  0.0000E+00  0.0000E+00  0.0000E+00  0.0000E+00  0.0000E+00  0.0000E+00  0.0000E+00  0.0000E+00
    -41.823  0.0000E+00  0.0000E+00  0.0000E+00  0.0000E+00  0.0000E+00  0.0000E+00  0.0000E+00  0.0000E+00  0.0000E+00  0.0000E+00  0.0000E+00  0.0000E+00  0.0000E+00  0.0000E+00  0.0000E+00  0.0000E+00  0.0000E+00  0.0000E+00
    -41.596  0.0000E+00  0.0000E+00  0.0000E+00  0.0000E+00  0.0000E+00  0.0000E+00  0.0000E+00  0.0000E+00  0.0000E+00  0.0000E+00  0.0000E+00  0.0000E+00  0.0000E+00  0.0000E+00  0.0000E+00  0.0000E+00  0.0000E+00  0.0000E+00
    -41.369  0.0000E+00  0.0000E+00  0.0000E+00  0.0000E+00  0.0000E+00  0.0000E+00  0.0000E+00  0.0000E+00  0.0000E+00  0.0000E+00  0.0000E+00  0.0000E+00  0.0000E+00  0.0000E+00  0.0000E+00  0.0000E+00  0.0000E+00  0.0000E+00
    -41.142  0.0000E+00  0.0000E+00  0.0000E+00  0.0000E+00  0.0000E+00  0.0000E+00  0.0000E+00  0.0000E+00  0.0000E+00  0.0000E+00  0.0000E+00  0.0000E+00  0.0000E+00  0.0000E+00  0.0000E+00  0.0000E+00  0.0000E+00  0.0000E+00
    -40.915  0.0000E+00  0.0000E+00  0.0000E+00  0.0000E+00  0.0000E+00  0.0000E+00  0.0000E+00  0.0000E+00  0.0000E+00  0.0000E+00  0.0000E+00  0.0000E+00  0.0000E+00  0.0000E+00  0.0000E+00  0.0000E+00  0.0000E+00  0.0000E+00
    -40.688  0.0000E+00  0.0000E+00  0.0000E+00  0.0000E+00  0.0000E+00  0.0000E+00  0.0000E+00  0.0000E+00  0.0000E+00  0.0000E+00  0.0000E+00  0.0000E+00  0.0000E+00  0.0000E+00  0.0000E+00  0.0000E+00  0.0000E+00  0.0000E+00
    -40.460  0.0000E+00  0.0000E+00  0.0000E+00  0.0000E+00  0.0000E+00  0.0000E+00  0.0000E+00  0.0000E+00  0.0000E+00  0.0000E+00  0.0000E+00  0.0000E+00  0.0000E+00  0.0000E+00  0.0000E+00  0.0000E+00  0.0000E+00  0.0000E+00
    -40.233  0.0000E+00  0.0000E+00  0.0000E+00  0.0000E+00  0.0000E+00  0.0000E+00  0.0000E+00  0.0000E+00  0.0000E+00  0.0000E+00  0.0000E+00  0.0000E+00  0.0000E+00  0.0000E+00  0.0000E+00  0.0000E+00  0.0000E+00  0.0000E+00
    -40.006  0.3578E-12  0.0000E+00  0.2651E-04  0.0000E+00  0.2651E-04  0.0000E+00  0.2639E-04  0.0000E+00  0.7672E-14  0.0000E+00  0.7664E-14  0.0000E+00  0.2647E-12  0.0000E+00  0.7672E-14  0.0000E+00  0.2679E-12  0.0000E+00
    -39.779  0.3323E-10  0.0000E+00  0.2462E-02  0.0000E+00  0.2462E-02  0.0000E+00  0.2451E-02  0.0000E+00  0.7125E-12  0.0000E+00  0.7117E-12  0.0000E+00  0.2458E-10  0.0000E+00  0.7125E-12  0.0000E+00  0.2488E-10  0.0000E+00
    -39.552  0.2963E-08  0.0000E+00  0.2195E+00  0.0000E+00  0.2195E+00  0.0000E+00  0.2186E+00  0.0000E+00  0.6351E-10  0.0000E+00  0.6344E-10  0.0000E+00  0.2192E-08  0.0000E+00  0.6351E-10  0.0000E+00  0.2218E-08  0.0000E+00
    -39.325  0.4627E-07  0.0000E+00  0.3427E+01  0.0000E+00  0.3427E+01  0.0000E+00  0.3426E+01  0.0000E+00  0.9881E-09  0.0000E+00  0.9853E-09  0.0000E+00  0.3430E-07  0.0000E+00  0.9881E-09  0.0000E+00  0.3467E-07  0.0000E+00
    -39.098  0.9696E-08  0.0000E+00  0.7181E+00  0.0000E+00  0.7181E+00  0.0000E+00  0.7208E+00  0.0000E+00  0.2062E-09  0.0000E+00  0.2052E-09  0.0000E+00  0.7202E-08  0.0000E+00  0.2062E-09  0.0000E+00  0.7270E-08  0.0000E+00
    -38.871  0.0000E+00  0.0000E+00  0.0000E+00  0.0000E+00  0.0000E+00  0.0000E+00  0.0000E+00  0.0000E+00  0.0000E+00  0.0000E+00  0.0000E+00  0.0000E+00  0.0000E+00  0.0000E+00  0.0000E+00  0.0000E+00  0.0000E+00  0.0000E+00
    -38.643  0.0000E+00  0.0000E+00  0.0000E+00  0.0000E+00  0.0000E+00  0.0000E+00  0.0000E+00  0.0000E+00  0.0000E+00  0.0000E+00  0.0000E+00  0.0000E+00  0.0000E+00  0.0000E+00  0.0000E+00  0.0000E+00  0.0000E+00  0.0000E+00
    -38.416  0.0000E+00  0.0000E+00  0.0000E+00  0.0000E+00  0.0000E+00  0.0000E+00  0.0000E+00  0.0000E+00  0.0000E+00  0.0000E+00  0.0000E+00  0.0000E+00  0.0000E+00  0.0000E+00  0.0000E+00  0.0000E+00  0.0000E+00  0.0000E+00
    -38.189  0.0000E+00  0.0000E+00  0.0000E+00  0.0000E+00  0.0000E+00  0.0000E+00  0.0000E+00  0.0000E+00  0.0000E+00  0.0000E+00  0.0000E+00  0.0000E+00  0.0000E+00  0.0000E+00  0.0000E+00  0.0000E+00  0.0000E+00  0.0000E+00
    -37.962  0.0000E+00  0.0000E+00  0.0000E+00  0.0000E+00  0.0000E+00  0.0000E+00  0.0000E+00  0.0000E+00  0.0000E+00  0.0000E+00  0.0000E+00  0.0000E+00  0.0000E+00  0.0000E+00  0.0000E+00  0.0000E+00  0.0000E+00  0.0000E+00
    -37.735  0.0000E+00  0.6758E-11  0.0000E+00  0.3597E-03  0.0000E+00  0.3597E-03  0.0000E+00  0.3588E-03  0.0000E+00  0.1411E-12  0.0000E+00  0.1400E-12  0.0000E+00  0.4456E-11  0.0000E+00  0.1411E-12  0.0000E+00  0.4535E-11
    -37.508  0.0000E+00  0.6232E-09  0.0000E+00  0.3317E-01  0.0000E+00  0.3317E-01  0.0000E+00  0.3309E-01  0.0000E+00  0.1301E-10  0.0000E+00  0.1291E-10  0.0000E+00  0.4109E-09  0.0000E+00  0.1301E-10  0.0000E+00  0.4182E-09
    -37.281  0.0000E+00  0.3393E-07  0.0000E+00  0.1806E+01  0.0000E+00  0.1806E+01  0.0000E+00  0.1803E+01  0.0000E+00  0.7063E-09  0.0000E+00  0.7003E-09  0.0000E+00  0.2239E-07  0.0000E+00  0.7063E-09  0.0000E+00  0.2277E-07
    -37.054  0.0000E+00  0.4647E-07  0.0000E+00  0.2475E+01  0.0000E+00  0.2475E+01  0.0000E+00  0.2477E+01  0.0000E+00  0.9608E-09  0.0000E+00  0.9515E-09  0.0000E+00  0.3073E-07  0.0000E+00  0.9608E-09  0.0000E+00  0.3119E-07
    -36.826  0.0000E+00  0.0000E+00  0.0000E+00  0.0000E+00  0.0000E+00  0.0000E+00  0.0000E+00  0.0000E+00  0.0000E+00  0.0000E+00  0.0000E+00  0.0000E+00  0.0000E+00  0.0000E+00  0.0000E+00  0.0000E+00  0.0000E+00  0.0000E+00
    -36.599  0.0000E+00  0.0000E+00  0.0000E+00  0.0000E+00  0.0000E+00  0.0000E+00  0.0000E+00  0.0000E+00  0.0000E+00  0.0000E+00  0.0000E+00  0.0000E+00  0.0000E+00  0.0000E+00  0.0000E+00  0.0000E+00  0.0000E+00  0.0000E+00
    -36.372  0.0000E+00  0.0000E+00  0.0000E+00  0.0000E+00  0.0000E+00  0.0000E+00  0.0000E+00  0.0000E+00  0.0000E+00  0.0000E+00  0.0000E+00  0.0000E+00  0.0000E+00  0.0000E+00  0.0000E+00  0.0000E+00  0.0000E+00  0.0000E+00
    -36.145  0.0000E+00  0.0000E+00  0.0000E+00  0.0000E+00  0.0000E+00  0.0000E+00  0.0000E+00  0.0000E+00  0.0000E+00  0.0000E+00  0.0000E+00  0.0000E+00  0.0000E+00  0.0000E+00  0.0000E+00  0.0000E+00  0.0000E+00  0.0000E+00
    -35.918  0.0000E+00  0.0000E+00  0.0000E+00  0.0000E+00  0.0000E+00  0.0000E+00  0.0000E+00  0.0000E+00  0.0000E+00  0.0000E+00  0.0000E+00  0.0000E+00  0.0000E+00  0.0000E+00  0.0000E+00  0.0000E+00  0.0000E+00  0.0000E+00
    -35.691  0.0000E+00  0.0000E+00  0.0000E+00  0.0000E+00  0.0000E+00  0.0000E+00  0.0000E+00  0.0000E+00  0.0000E+00  0.0000E+00  0.0000E+00  0.0000E+00  0.0000E+00  0.0000E+00  0.0000E+00  0.0000E+00  0.0000E+00  0.0000E+00
    -35.464  0.0000E+00  0.0000E+00  0.0000E+00  0.0000E+00  0.0000E+00  0.0000E+00  0.0000E+00  0.0000E+00  0.0000E+00  0.0000E+00  0.0000E+00  0.0000E+00  0.0000E+00  0.0000E+00  0.0000E+00  0.0000E+00  0.0000E+00  0.0000E+00
    -35.237  0.0000E+00  0.0000E+00  0.0000E+00  0.0000E+00  0.0000E+00  0.0000E+00  0.0000E+00  0.0000E+00  0.0000E+00  0.0000E+00  0.0000E+00  0.0000E+00  0.0000E+00  0.0000E+00  0.0000E+00  0.0000E+00  0.0000E+00  0.0000E+00
    -35.009  0.0000E+00  0.0000E+00  0.0000E+00  0.0000E+00  0.0000E+00  0.0000E+00  0.0000E+00  0.0000E+00  0.0000E+00  0.0000E+00  0.0000E+00  0.0000E+00  0.0000E+00  0.0000E+00  0.0000E+00  0.0000E+00  0.0000E+00  0.0000E+00
    -34.782  0.0000E+00  0.0000E+00  0.0000E+00  0.0000E+00  0.0000E+00  0.0000E+00  0.0000E+00  0.0000E+00  0.0000E+00  0.0000E+00  0.0000E+00  0.0000E+00  0.0000E+00  0.0000E+00  0.0000E+00  0.0000E+00  0.0000E+00  0.0000E+00
    -34.555  0.0000E+00  0.0000E+00  0.0000E+00  0.0000E+00  0.0000E+00  0.0000E+00  0.0000E+00  0.0000E+00  0.0000E+00  0.0000E+00  0.0000E+00  0.0000E+00  0.0000E+00  0.0000E+00  0.0000E+00  0.0000E+00  0.0000E+00  0.0000E+00
    -34.328  0.0000E+00  0.0000E+00  0.0000E+00  0.0000E+00  0.0000E+00  0.0000E+00  0.0000E+00  0.0000E+00  0.0000E+00  0.0000E+00  0.0000E+00  0.0000E+00  0.0000E+00  0.0000E+00  0.0000E+00  0.0000E+00  0.0000E+00  0.0000E+00
    -34.101  0.0000E+00  0.0000E+00  0.0000E+00  0.0000E+00  0.0000E+00  0.0000E+00  0.0000E+00  0.0000E+00  0.0000E+00  0.0000E+00  0.0000E+00  0.0000E+00  0.0000E+00  0.0000E+00  0.0000E+00  0.0000E+00  0.0000E+00  0.0000E+00
    -33.874  0.0000E+00  0.0000E+00  0.0000E+00  0.0000E+00  0.0000E+00  0.0000E+00  0.0000E+00  0.0000E+00  0.0000E+00  0.0000E+00  0.0000E+00  0.0000E+00  0.0000E+00  0.0000E+00  0.0000E+00  0.0000E+00  0.0000E+00  0.0000E+00
    -33.647  0.0000E+00  0.0000E+00  0.0000E+00  0.0000E+00  0.0000E+00  0.0000E+00  0.0000E+00  0.0000E+00  0.0000E+00  0.0000E+00  0.0000E+00  0.0000E+00  0.0000E+00  0.0000E+00  0.0000E+00  0.0000E+00  0.0000E+00  0.0000E+00
    -33.420  0.0000E+00  0.0000E+00  0.0000E+00  0.0000E+00  0.0000E+00  0.0000E+00  0.0000E+00  0.0000E+00  0.0000E+00  0.0000E+00  0.0000E+00  0.0000E+00  0.0000E+00  0.0000E+00  0.0000E+00  0.0000E+00  0.0000E+00  0.0000E+00
    -33.192  0.0000E+00  0.0000E+00  0.0000E+00  0.0000E+00  0.0000E+00  0.0000E+00  0.0000E+00  0.0000E+00  0.0000E+00  0.0000E+00  0.0000E+00  0.0000E+00  0.0000E+00  0.0000E+00  0.0000E+00  0.0000E+00  0.0000E+00  0.0000E+00
    -32.965  0.0000E+00  0.0000E+00  0.0000E+00  0.0000E+00  0.0000E+00  0.0000E+00  0.0000E+00  0.0000E+00  0.0000E+00  0.0000E+00  0.0000E+00  0.0000E+00  0.0000E+00  0.0000E+00  0.0000E+00  0.0000E+00  0.0000E+00  0.0000E+00
    -32.738  0.0000E+00  0.0000E+00  0.0000E+00  0.0000E+00  0.0000E+00  0.0000E+00  0.0000E+00  0.0000E+00  0.0000E+00  0.0000E+00  0.0000E+00  0.0000E+00  0.0000E+00  0.0000E+00  0.0000E+00  0.0000E+00  0.0000E+00  0.0000E+00
    -32.511  0.0000E+00  0.0000E+00  0.0000E+00  0.0000E+00  0.0000E+00  0.0000E+00  0.0000E+00  0.0000E+00  0.0000E+00  0.0000E+00  0.0000E+00  0.0000E+00  0.0000E+00  0.0000E+00  0.0000E+00  0.0000E+00  0.0000E+00  0.0000E+00
    -32.284  0.0000E+00  0.0000E+00  0.0000E+00  0.0000E+00  0.0000E+00  0.0000E+00  0.0000E+00  0.0000E+00  0.0000E+00  0.0000E+00  0.0000E+00  0.0000E+00  0.0000E+00  0.0000E+00  0.0000E+00  0.0000E+00  0.0000E+00  0.0000E+00
    -32.057  0.0000E+00  0.0000E+00  0.0000E+00  0.0000E+00  0.0000E+00  0.0000E+00  0.0000E+00  0.0000E+00  0.0000E+00  0.0000E+00  0.0000E+00  0.0000E+00  0.0000E+00  0.0000E+00  0.0000E+00  0.0000E+00  0.0000E+00  0.0000E+00
    -31.830  0.0000E+00  0.0000E+00  0.0000E+00  0.0000E+00  0.0000E+00  0.0000E+00  0.0000E+00  0.0000E+00  0.0000E+00  0.0000E+00  0.0000E+00  0.0000E+00  0.0000E+00  0.0000E+00  0.0000E+00  0.0000E+00  0.0000E+00  0.0000E+00
    -31.603  0.0000E+00  0.0000E+00  0.0000E+00  0.0000E+00  0.0000E+00  0.0000E+00  0.0000E+00  0.0000E+00  0.0000E+00  0.0000E+00  0.0000E+00  0.0000E+00  0.0000E+00  0.0000E+00  0.0000E+00  0.0000E+00  0.0000E+00  0.0000E+00
    -31.375  0.0000E+00  0.0000E+00  0.0000E+00  0.0000E+00  0.0000E+00  0.0000E+00  0.0000E+00  0.0000E+00  0.0000E+00  0.0000E+00  0.0000E+00  0.0000E+00  0.0000E+00  0.0000E+00  0.0000E+00  0.0000E+00  0.0000E+00  0.0000E+00
    -31.148  0.0000E+00  0.0000E+00  0.0000E+00  0.0000E+00  0.0000E+00  0.0000E+00  0.0000E+00  0.0000E+00  0.0000E+00  0.0000E+00  0.0000E+00  0.0000E+00  0.0000E+00  0.0000E+00  0.0000E+00  0.0000E+00  0.0000E+00  0.0000E+00