   4   4   1   0
  0.1515750E+02  0.3927863E-09  0.3928851E-09  0.3928851E-09  0.5000000E-15
  1.000000000000000E-004
  CAR 
 unknown system                          
     23.78387541    -43.73399594  301      8.57777050      1.00000000
    -43.734  0.0000E+00  0.0000E+00  0.0000E+00  0.0000E+00
    -43.509  0.0000E+00  0.0000E+00  0.0000E+00  0.0000E+00
    -43.284  0.0000E+00  0.0000E+00  0.0000E+00  0.0000E+00
    -43.059  0.0000E+00  0.0000E+00  0.0000E+00  0.0000E+00
    -42.834  0.0000E+00  0.0000E+00  0.0000E+00  0.0000E+00
    -42.609  0.0000E+00  0.0000E+00  0.0000E+00  0.0000E+00
    -42.384  0.0000E+00  0.0000E+00  0.0000E+00  0.0000E+00
    -42.159  0.0000E+00  0.0000E+00  0.0000E+00  0.0000E+00
    -41.934  0.0000E+00  0.0000E+00  0.0000E+00  0.0000E+00
    -41.708  0.0000E+00  0.0000E+00  0.0000E+00  0.0000E+00
    -41.483  0.0000E+00  0.0000E+00  0.0000E+00  0.0000E+00
    -41.258  0.9123E-04  0.0000E+00  0.2053E-04  0.0000E+00
    -41.033  0.8126E-02  0.0000E+00  0.1849E-02  0.0000E+00
    -40.808  0.6937E+00  0.0000E+00  0.1580E+00  0.0000E+00
    -40.583  0.1041E+02  0.0000E+00  0.2501E+01  0.0000E+00
    -40.358  0.2189E+01  0.0000E+00  0.2993E+01  0.0000E+00
    -40.133  0.0000E+00  0.0000E+00  0.3000E+01  0.0000E+00
    -39.908  0.0000E+00  0.0000E+00  0.3000E+01  0.0000E+00
    -39.683  0.0000E+00  0.0000E+00  0.3000E+01  0.0000E+00
    -39.458  0.0000E+00  0.0000E+00  0.3000E+01  0.0000E+00
    -39.233  0.0000E+00  0.0000E+00  0.3000E+01  0.0000E+00
    -39.008  0.0000E+00  0.0000E+00  0.3000E+01  0.0000E+00
    -38.783  0.0000E+00  0.0000E+00  0.3000E+01  0.0000E+00
    -38.558  0.0000E+00  0.5954E-03  0.3000E+01  0.1340E-03
    -38.333  0.0000E+00  0.5286E-01  0.3000E+01  0.1203E-01
    -38.108  0.0000E+00  0.3495E+01  0.3000E+01  0.7987E+00
    -37.882  0.0000E+00  0.9385E+01  0.3000E+01  0.2911E+01
    -37.657  0.0000E+00  0.2659E+00  0.3000E+01  0.2999E+01
    -37.432  0.0000E+00  0.0000E+00  0.3000E+01  0.3000E+01
    -37.207  0.0000E+00  0.0000E+00  0.3000E+01  0.3000E+01
    -36.982  0.0000E+00  0.0000E+00  0.3000E+01  0.3000E+01
    -36.757  0.0000E+00  0.0000E+00  0.3000E+01  0.3000E+01
    -36.532  0.0000E+00  0.0000E+00  0.3000E+01  0.3000E+01
    -36.307  0.0000E+00  0.0000E+00  0.3000E+01  0.3000E+01
    -36.082  0.0000E+00  0.0000E+00  0.3000E+01  0.3000E+01
    -35.857  0.0000E+00  0.0000E+00  0.3000E+01  0.3000E+01
    -35.632  0.0000E+00  0.0000E+00  0.3000E+01  0.3000E+01
    -35.407  0.0000E+00  0.0000E+00  0.3000E+01  0.3000E+01
    -35.182  0.0000E+00  0.0000E+00  0.3000E+01  0.3000E+01
    -34.957  0.0000E+00  0.0000E+00  0.3000E+01  0.3000E+01
    -34.732  0.0000E+00  0.0000E+00  0.3000E+01  0.3000E+01
    -34.507  0.0000E+00  0.0000E+00  0.3000E+01  0.3000E+01
    -34.281  0.0000E+00  0.0000E+00  0.3000E+01  0.3000E+01
    -34.056  0.0000E+00  0.0000E+00  0.3000E+01  0.3000E+01
    -33.831  0.0000E+00  0.0000E+00  0.3000E+01  0.3000E+01
    -33.606  0.0000E+00  0.0000E+00  0.3000E+01  0.3000E+01
    -33.381  0.0000E+00  0.0000E+00  0.3000E+01  0.3000E+01
    -33.156  0.0000E+00  0.0000E+00  0.3000E+01  0.3000E+01
    -32.931  0.0000E+00  0.0000E+00  0.3000E+01  0.3000E+01
    -32.706  0.0000E+00  0.0000E+00  0.3000E+01  0.3000E+01
    -32.481  0.0000E+00  0.0000E+00  0.3000E+01  0.3000E+01
    -32.256  0.0000E+00  0.0000E+00  0.3000E+01  0.3000E+01
    -32.031  0.0000E+00  0.0000E+00  0.3000E+01  0.3000E+01
    -31.806  0.0000E+00  0.0000E+00  0.3000E+01  0.3000E+01
    -31.581  0.0000E+00  0.0000E+00  0.3000E+01  0.3000E+01
    -31.356  0.0000E+00  0.0000E+00  0.3000E+01  0.3000E+01
    -31.131  0.0000E+00  0.0000E+00  0.3000E+01  0.3000E+01
    -30.906  0.0000E+00  0.0000E+00  0.3000E+01  0.3000E+01
    -30.681  0.0000E+00  0.0000E+00  0.3000E+01  0.3000E+01
    -30.455  0.0000E+00  0.0000E+00  0.3000E+01  0.3000E+01
    -30.230  0.0000E+00  0.0000E+00  0.3000E+01  0.3000E+01
    -30.005  0.0000E+00  0.0000E+00  0.3000E+01  0.3000E+01
    -29.780  0.0000E+00  0.0000E+00  0.3000E+01  0.3000E+01
    -29.555  0.0000E+00  0.0000E+00  0.3000E+01  0.3000E+01
    -29.330  0.0000E+00  0.0000E+00  0.3000E+01  0.3000E+01
    -29.105  0.0000E+00  0.0000E+00  0.3000E+01  0.3000E+01
    -28.880  0.0000E+00  0.0000E+00  0.3000E+01  0.3000E+01
    -28.655  0.0000E+00  0.0000E+00  0.3000E+01  0.3000E+01
    -28.430  0.0000E+00  0.0000E+00  0.3000E+01  0.3000E+01
    -28.205  0.0000E+00  0.0000E+00  0.3000E+01  0.3000E+01
    -27.980  0.0000E+00  0.0000E+00  0.3000E+01  0.3000E+01
    -27.755  0.0000E+00  0.0000E+00  0.3000E+01  0.3000E+01
    -27.530  0.0000E+00  0.0000E+00  0.3000E+01  0.3000E+01
    -27.305  0.0000E+00  0.0000E+00  0.3000E+01  0.3000E+01
    -27.080  0.0000E+00  0.0000E+00  0.3000E+01  0.3000E+01
    -26.855  0.0000E+00  0.0000E+00  0.3000E+01  0.3000E+01
    -26.629  0.0000E+00  0.0000E+00  0.3000E+01  0.3000E+01
    -26.404  0.0000E+00  0.0000E+00  0.3000E+01  0.3000E+01
    -26.179  0.0000E+00  0.0000E+00  0.3000E+01  0.3000E+01
    -25.954  0.0000E+00  0.0000E+00  0.3000E+01  0.3000E+01
    -25.729  0.0000E+00  0.0000E+00  0.3000E+01  0.3000E+01
    -25.504  0.0000E+00  0.0000E+00  0.3000E+01  0.3000E+01
    -25.279  0.0000E+00  0.0000E+00  0.3000E+01  0.3000E+01
    -25.054  0.0000E+00  0.0000E+00  0.3000E+01  0.3000E+01
    -24.829  0.0000E+00  0.0000E+00  0.3000E+01  0.3000E+01
    -24.604  0.0000E+00  0.0000E+00  0.3000E+01  0.3000E+01
    -24.379  0.0000E+00  0.0000E+00  0.3000E+01  0.3000E+01
    -24.154  0.0000E+00  0.0000E+00  0.3000E+01  0.3000E+01
    -23.929  0.0000E+00  0.0000E+00  0.3000E+01  0.3000E+01
    -23.704  0.0000E+00  0.0000E+00  0.3000E+01  0.3000E+01
    -23.479  0.0000E+00  0.0000E+00  0.3000E+01  0.3000E+01
    -23.254  0.0000E+00  0.0000E+00  0.3000E+01  0.3000E+01
    -23.029  0.0000E+00  0.0000E+00  0.3000E+01  0.3000E+01
    -22.803  0.0000E+00  0.0000E+00  0.3000E+01  0.3000E+01
    -22.578  0.0000E+00  0.0000E+00  0.3000E+01  0.3000E+01
    -22.353  0.0000E+00  0.0000E+00  0.3000E+01  0.3000E+01
    -22.128  0.0000E+00  0.0000E+00  0.3000E+01  0.3000E+01
    -21.903  0.0000E+00  0.0000E+00  0.3000E+01  0.3000E+01
    -21.678  0.0000E+00  0.0000E+00  0.3000E+01  0.3000E+01
    -21.453  0.0000E+00  0.0000E+00  0.3000E+01  0.3000E+01
    -21.228  0.0000E+00  0.0000E+00  0.3000E+01  0.3000E+01
    -21.003  0.0000E+00  0.0000E+00  0.3000E+01  0.3000E+01
    -20.778  0.0000E+00  0.0000E+00  0.3000E+01  0.3000E+01
    -20.553  0.0000E+00  0.0000E+00  0.3000E+01  0.3000E+01
    -20.328  0.0000E+00  0.0000E+00  0.3000E+01  0.3000E+01
    -20.103  0.0000E+00  0.0000E+00  0.3000E+01  0.3000E+01
    -19.878  0.0000E+00  0.0000E+00  0.3000E+01  0.3000E+01
    -19.653  0.0000E+00  0.0000E+00  0.3000E+01  0.3000E+01
    -19.428  0.0000E+00  0.0000E+00  0.3000E+01  0.3000E+01
    -19.203  0.0000E+00  0.0000E+00  0.3000E+01  0.3000E+01
    -18.977  0.0000E+00  0.0000E+00  0.3000E+01  0.3000E+01
    -18.752  0.0000E+00  0.0000E+00  0.3000E+01  0.3000E+01
    -18.527  0.0000E+00  0.0000E+00  0.3000E+01  0.3000E+01
    -18.302  0.0000E+00  0.0000E+00  0.3000E+01  0.3000E+01
    -18.077  0.0000E+00  0.0000E+00  0.3000E+01  0.3000E+01
    -17.852  0.0000E+00  0.0000E+00  0.3000E+01  0.3000E+01
    -17.627  0.0000E+00  0.0000E+00  0.3000E+01  0.3000E+01
    -17.402  0.0000E+00  0.0000E+00  0.3000E+01  0.3000E+01
    -17.177  0.0000E+00  0.0000E+00  0.3000E+01  0.3000E+01
    -16.952  0.0000E+00  0.0000E+00  0.3000E+01  0.3000E+01
    -16.727  0.0000E+00  0.0000E+00  0.3000E+01  0.3000E+01
    -16.502  0.0000E+00  0.0000E+00  0.3000E+01  0.3000E+01
    -16.277  0.0000E+00  0.0000E+00  0.3000E+01  0.3000E+01
    -16.052  0.0000E+00  0.0000E+00  0.3000E+01  0.3000E+01
    -15.827  0.0000E+00  0.0000E+00  0.3000E+01  0.3000E+01
    -15.602  0.0000E+00  0.0000E+00  0.3000E+01  0.3000E+01
    -15.376  0.0000E+00  0.0000E+00  0.3000E+01  0.3000E+01
    -15.151  0.0000E+00  0.0000E+00  0.3000E+01  0.3000E+01
    -14.926  0.0000E+00  0.0000E+00  0.3000E+01  0.3000E+01
    -14.701  0.0000E+00  0.0000E+00  0.3000E+01  0.3000E+01
    -14.476  0.0000E+00  0.0000E+00  0.3000E+01  0.3000E+01
    -14.251  0.0000E+00  0.0000E+00  0.3000E+01  0.3000E+01
    -14.026  0.0000E+00  0.0000E+00  0.3000E+01  0.3000E+01
    -13.801  0.0000E+00  0.0000E+00  0.3000E+01  0.3000E+01
    -13.576  0.0000E+00  0.0000E+00  0.3000E+01  0.3000E+01
    -13.351  0.0000E+00  0.0000E+00  0.3000E+01  0.3000E+01
    -13.126  0.0000E+00  0.0000E+00  0.3000E+01  0.3000E+01
    -12.901  0.0000E+00  0.0000E+00  0.3000E+01  0.3000E+01
    -12.676  0.0000E+00  0.0000E+00  0.3000E+01  0.3000E+01
    -12.451  0.0000E+00  0.0000E+00  0.3000E+01  0.3000E+01
    -12.226  0.0000E+00  0.0000E+00  0.3000E+01  0.3000E+01
    -12.001  0.0000E+00  0.0000E+00  0.3000E+01  0.3000E+01
    -11.776  0.0000E+00  0.0000E+00  0.3000E+01  0.3000E+01
    -11.550  0.0000E+00  0.0000E+00  0.3000E+01  0.3000E+01
    -11.325  0.0000E+00  0.0000E+00  0.3000E+01  0.3000E+01
    -11.100  0.0000E+00  0.0000E+00  0.3000E+01  0.3000E+01
    -10.875  0.0000E+00  0.0000E+00  0.3000E+01  0.3000E+01
    -10.650  0.0000E+00  0.0000E+00  0.3000E+01  0.3000E+01
    -10.425  0.0000E+00  0.0000E+00  0.3000E+01  0.3000E+01
    -10.200  0.0000E+00  0.0000E+00  0.3000E+01  0.3000E+01
     -9.975  0.0000E+00  0.0000E+00  0.3000E+01  0.3000E+01
     -9.750  0.0000E+00  0.0000E+00  0.3000E+01  0.3000E+01
     -9.525  0.0000E+00  0.0000E+00  0.3000E+01  0.3000E+01
     -9.300  0.0000E+00  0.0000E+00  0.3000E+01  0.3000E+01
     -9.075  0.0000E+00  0.0000E+00  0.3000E+01  0.3000E+01
     -8.850  0.0000E+00  0.0000E+00  0.3000E+01  0.3000E+01
     -8.625  0.0000E+00  0.0000E+00  0.3000E+01  0.3000E+01
     -8.400  0.0000E+00  0.0000E+00  0.3000E+01  0.3000E+01
     -8.175  0.0000E+00  0.0000E+00  0.3000E+01  0.3000E+01
     -7.950  0.0000E+00  0.0000E+00  0.3000E+01  0.3000E+01
     -7.724  0.0000E+00  0.0000E+00  0.3000E+01  0.3000E+01
     -7.499  0.0000E+00  0.0000E+00  0.3000E+01  0.3000E+01
     -7.274  0.0000E+00  0.0000E+00  0.3000E+01  0.3000E+01
     -7.049  0.0000E+00  0.0000E+00  0.3000E+01  0.3000E+01
     -6.824  0.0000E+00  0.0000E+00  0.3000E+01  0.3000E+01
     -6.599  0.0000E+00  0.0000E+00  0.3000E+01  0.3000E+01
     -6.374  0.0000E+00  0.0000E+00  0.3000E+01  0.3000E+01
     -6.149  0.0000E+00  0.0000E+00  0.3000E+01  0.3000E+01
     -5.924  0.0000E+00  0.0000E+00  0.3000E+01  0.3000E+01
     -5.699  0.0000E+00  0.0000E+00  0.3000E+01  0.3000E+01
     -5.474  0.0000E+00  0.0000E+00  0.3000E+01  0.3000E+01
     -5.249  0.0000E+00  0.0000E+00  0.3000E+01  0.3000E+01
     -5.024  0.0000E+00  0.0000E+00  0.3000E+01  0.3000E+01
     -4.799  0.0000E+00  0.0000E+00  0.3000E+01  0.3000E+01
     -4.574  0.0000E+00  0.0000E+00  0.3000E+01  0.3000E+01
     -4.349  0.0000E+00  0.0000E+00  0.3000E+01  0.3000E+01
     -4.124  0.0000E+00  0.0000E+00  0.3000E+01  0.3000E+01
     -3.898  0.0000E+00  0.0000E+00  0.3000E+01  0.3000E+01
     -3.673  0.0000E+00  0.0000E+00  0.3000E+01  0.3000E+01
     -3.448  0.0000E+00  0.0000E+00  0.3000E+01  0.3000E+01
     -3.223  0.0000E+00  0.0000E+00  0.3000E+01  0.3000E+01
     -2.998  0.7493E-07  0.1711E-07  0.3000E+01  0.3000E+01
     -2.773  0.1043E-04  0.6901E-05  0.3000E+01  0.3000E+01
     -2.548  0.9075E-03  0.6162E-03  0.3000E+01  0.3000E+01
     -2.323  0.2860E-01  0.2353E-01  0.3007E+01  0.3005E+01
     -2.098  0.9833E-01  0.9338E-01  0.3029E+01  0.3026E+01
     -1.873  0.1383E+00  0.1354E+00  0.3060E+01  0.3057E+01
     -1.648  0.1769E+00  0.1764E+00  0.3100E+01  0.3097E+01
     -1.423  0.1998E+00  0.1978E+00  0.3145E+01  0.3142E+01
     -1.198  0.2409E+00  0.2440E+00  0.3200E+01  0.3197E+01
     -0.973  0.2445E+00  0.2427E+00  0.3255E+01  0.3252E+01
     -0.748  0.3060E+00  0.3102E+00  0.3324E+01  0.3322E+01
     -0.523  0.2927E+00  0.2990E+00  0.3391E+01  0.3390E+01
     -0.297  0.3616E+00  0.3736E+00  0.3472E+01  0.3475E+01
     -0.072  0.3809E+00  0.3763E+00  0.3559E+01  0.3560E+01
      0.153  0.3169E+00  0.3159E+00  0.3631E+01  0.3632E+01
      0.378  0.3369E+00  0.3325E+00  0.3707E+01  0.3707E+01
      0.603  0.3256E+00  0.2761E+00  0.3781E+01  0.3769E+01
      0.828  0.4365E+00  0.4245E+00  0.3879E+01  0.3865E+01
      1.053  0.3388E+00  0.3216E+00  0.3956E+01  0.3938E+01
      1.278  0.4198E+00  0.4049E+00  0.4051E+01  0.4030E+01
      1.503  0.4545E+00  0.4142E+00  0.4154E+01  0.4124E+01
      1.728  0.4001E+00  0.4376E+00  0.4244E+01  0.4223E+01
      1.953  0.4325E+00  0.4018E+00  0.4342E+01  0.4315E+01
      2.178  0.4774E+00  0.4472E+00  0.4450E+01  0.4416E+01
      2.403  0.5774E+00  0.5828E+00  0.4580E+01  0.4548E+01
      2.628  0.6290E+00  0.5980E+00  0.4722E+01  0.4683E+01
      2.853  0.4882E+00  0.4881E+00  0.4833E+01  0.4793E+01
      3.078  0.6585E+00  0.5864E+00  0.4982E+01  0.4926E+01
      3.303  0.6847E+00  0.5290E+00  0.5138E+01  0.5046E+01
      3.529  0.6621E+00  0.6291E+00  0.5287E+01  0.5188E+01
      3.754  0.6238E+00  0.5724E+00  0.5428E+01  0.5319E+01
      3.979  0.6736E+00  0.5592E+00  0.5580E+01  0.5445E+01
      4.204  0.6961E+00  0.5430E+00  0.5738E+01  0.5568E+01
      4.429  0.8373E+00  0.6766E+00  0.5927E+01  0.5721E+01
      4.654  0.8962E+00  0.7037E+00  0.6130E+01  0.5880E+01
      4.879  0.1040E+01  0.6852E+00  0.6365E+01  0.6035E+01
      5.104  0.1378E+01  0.7615E+00  0.6677E+01  0.6207E+01
      5.329  0.1658E+01  0.8042E+00  0.7052E+01  0.6390E+01
      5.554  0.1839E+01  0.8886E+00  0.7469E+01  0.6591E+01
      5.779  0.2153E+01  0.9328E+00  0.7957E+01  0.6802E+01
      6.004  0.1932E+01  0.9089E+00  0.8395E+01  0.7008E+01
      6.229  0.1476E+01  0.1116E+01  0.8730E+01  0.7260E+01
      6.454  0.1350E+01  0.1134E+01  0.9037E+01  0.7516E+01
      6.679  0.2253E+01  0.1466E+01  0.9545E+01  0.7847E+01
      6.904  0.3940E+01  0.1165E+01  0.1043E+02  0.8112E+01
      7.129  0.2010E+01  0.1019E+01  0.1089E+02  0.8343E+01
      7.355  0.1458E+01  0.9091E+00  0.1122E+02  0.8549E+01
      7.580  0.9670E+00  0.8333E+00  0.1144E+02  0.8738E+01
      7.805  0.8832E+00  0.8409E+00  0.1164E+02  0.8929E+01
      8.030  0.6122E+00  0.7936E+00  0.1178E+02  0.9109E+01
      8.255  0.7678E+00  0.8623E+00  0.1196E+02  0.9304E+01
      8.480  0.7515E+00  0.1389E+01  0.1213E+02  0.9618E+01
      8.705  0.1104E+01  0.1701E+01  0.1238E+02  0.1000E+02
      8.930  0.1059E+01  0.1474E+01  0.1262E+02  0.1034E+02
      9.155  0.1169E+01  0.2587E+01  0.1288E+02  0.1092E+02
      9.380  0.7975E+00  0.3041E+01  0.1306E+02  0.1161E+02
      9.605  0.8622E+00  0.2250E+01  0.1326E+02  0.1212E+02
      9.830  0.9157E+00  0.1051E+01  0.1347E+02  0.1236E+02
     10.055  0.7931E+00  0.1147E+01  0.1365E+02  0.1262E+02
     10.280  0.9009E+00  0.1691E+01  0.1385E+02  0.1300E+02
     10.505  0.7870E+00  0.1570E+01  0.1403E+02  0.1336E+02
     10.730  0.9992E+00  0.1071E+01  0.1425E+02  0.1360E+02
     10.955  0.7927E+00  0.1234E+01  0.1443E+02  0.1388E+02
     11.181  0.9729E+00  0.9431E+00  0.1465E+02  0.1410E+02
     11.406  0.1033E+01  0.1274E+01  0.1489E+02  0.1438E+02
     11.631  0.6940E+00  0.1266E+01  0.1504E+02  0.1467E+02
     11.856  0.8586E+00  0.9322E+00  0.1524E+02  0.1488E+02
     12.081  0.8701E+00  0.7723E+00  0.1544E+02  0.1506E+02
     12.306  0.7327E+00  0.6830E+00  0.1560E+02  0.1521E+02
     12.531  0.9396E+00  0.1287E+01  0.1582E+02  0.1550E+02
     12.756  0.9724E+00  0.9416E+00  0.1604E+02  0.1572E+02
     12.981  0.8955E+00  0.5676E+00  0.1624E+02  0.1585E+02
     13.206  0.8852E+00  0.8681E+00  0.1644E+02  0.1604E+02
     13.431  0.8130E+00  0.1195E+01  0.1662E+02  0.1631E+02
     13.656  0.9491E+00  0.1253E+01  0.1684E+02  0.1660E+02
     13.881  0.1138E+01  0.1043E+01  0.1710E+02  0.1683E+02
     14.106  0.7884E+00  0.1083E+01  0.1728E+02  0.1708E+02
     14.331  0.8578E+00  0.1054E+01  0.1747E+02  0.1732E+02
     14.556  0.1150E+01  0.7389E+00  0.1773E+02  0.1748E+02
     14.781  0.1157E+01  0.1298E+01  0.1799E+02  0.1778E+02
     15.007  0.8554E+00  0.1162E+01  0.1819E+02  0.1804E+02
     15.232  0.8836E+00  0.9330E+00  0.1839E+02  0.1825E+02
     15.457  0.9024E+00  0.8776E+00  0.1859E+02  0.1845E+02
     15.682  0.1142E+01  0.1037E+01  0.1885E+02  0.1869E+02
     15.907  0.7000E+00  0.8600E+00  0.1901E+02  0.1888E+02
     16.132  0.8566E+00  0.8662E+00  0.1920E+02  0.1908E+02
     16.357  0.6804E+00  0.7657E+00  0.1936E+02  0.1925E+02
     16.582  0.3582E+00  0.6944E+00  0.1944E+02  0.1941E+02
     16.807  0.2612E+00  0.2477E+00  0.1950E+02  0.1947E+02
     17.032  0.3788E+00  0.4593E+00  0.1958E+02  0.1957E+02
     17.257  0.3923E+00  0.4507E+00  0.1967E+02  0.1967E+02
     17.482  0.2257E+00  0.2463E+00  0.1972E+02  0.1973E+02
     17.707  0.2035E+00  0.2393E+00  0.1977E+02  0.1978E+02
     17.932  0.2288E+00  0.1652E+00  0.1982E+02  0.1982E+02
     18.157  0.1048E+00  0.5327E-01  0.1985E+02  0.1983E+02
     18.382  0.8211E-01  0.2030E+00  0.1986E+02  0.1988E+02
     18.608  0.1623E+00  0.1510E+00  0.1990E+02  0.1991E+02
     18.833  0.8896E-01  0.7196E-01  0.1992E+02  0.1993E+02
     19.058  0.1126E+00  0.9870E-01  0.1995E+02  0.1995E+02
     19.283  0.3332E-01  0.4266E-01  0.1995E+02  0.1996E+02
     19.508  0.7650E-01  0.6190E-01  0.1997E+02  0.1998E+02
     19.733  0.4526E-01  0.5468E-01  0.1998E+02  0.1999E+02
     19.958  0.4551E-01  0.3386E-01  0.1999E+02  0.2000E+02
     20.183  0.1893E-01  0.5043E-03  0.2000E+02  0.2000E+02
     20.408  0.3447E-04  0.1775E-03  0.2000E+02  0.2000E+02
     20.633  0.2601E-02  0.7956E-02  0.2000E+02  0.2000E+02
     20.858  0.1267E-01  0.7868E-02  0.2000E+02  0.2000E+02
     21.083  0.8625E-03  0.0000E+00  0.2000E+02  0.2000E+02
     21.308  0.0000E+00  0.0000E+00  0.2000E+02  0.2000E+02
     21.533  0.0000E+00  0.0000E+00  0.2000E+02  0.2000E+02
     21.758  0.0000E+00  0.0000E+00  0.2000E+02  0.2000E+02
     21.983  0.0000E+00  0.0000E+00  0.2000E+02  0.2000E+02
     22.208  0.0000E+00  0.0000E+00  0.2000E+02  0.2000E+02
     22.434  0.0000E+00  0.0000E+00  0.2000E+02  0.2000E+02
     22.659  0.0000E+00  0.0000E+00  0.2000E+02  0.2000E+02
     22.884  0.0000E+00  0.0000E+00  0.2000E+02  0.2000E+02
     23.109  0.0000E+00  0.0000E+00  0.2000E+02  0.2000E+02
     23.334  0.0000E+00  0.0000E+00  0.2000E+02  0.2000E+02
     23.559  0.0000E+00  0.0000E+00  0.2000E+02  0.2000E+02
     23.784  0.0000E+00  0.0000E+00  0.2000E+02  0.2000E+02
     23.78387541    -43.73399594  301      8.57777050      1.00000000
    -43.734  0.0000E+00  0.0000E+00  0.0000E+00  0.0000E+00  0.0000E+00  0.0000E+00  0.0000E+00  0.0000E+00  0.0000E+00  0.0000E+00  0.0000E+00  0.0000E+00  0.0000E+00  0.0000E+00  0.0000E+00  0.0000E+00  0.0000E+00  0.0000E+00
    -43.509  0.0000E+00  0.0000E+00  0.0000E+00  0.0000E+00  0.0000E+00  0.0000E+00  0.0000E+00  0.0000E+00  0.0000E+00  0.0000E+00  0.0000E+00  0.0000E+00  0.0000E+00  0.0000E+00  0.0000E+00  0.0000E+00  0.0000E+00  0.0000E+00
    -43.284  0.0000E+00  0.0000E+00  0.0000E+00  0.0000E+00  0.0000E+00  0.0000E+00  0.0000E+00  0.0000E+00  0.0000E+00  0.0000E+00  0.0000E+00  0.0000E+00  0.0000E+00  0.0000E+00  0.0000E+00  0.0000E+00  0.0000E+00  0.0000E+00
    -43.059  0.0000E+00  0.0000E+00  0.0000E+00  0.0000E+00  0.0000E+00  0.0000E+00  0.0000E+00  0.0000E+00  0.0000E+00  0.0000E+00  0.0000E+00  0.0000E+00  0.0000E+00  0.0000E+00  0.0000E+00  0.0000E+00  0.0000E+00  0.0000E+00
    -42.834  0.0000E+00  0.0000E+00  0.0000E+00  0.0000E+00  0.0000E+00  0.0000E+00  0.0000E+00  0.0000E+00  0.0000E+00  0.0000E+00  0.0000E+00  0.0000E+00  0.0000E+00  0.0000E+00  0.0000E+00  0.0000E+00  0.0000E+00  0.0000E+00
    -42.609  0.0000E+00  0.0000E+00  0.0000E+00  0.0000E+00  0.0000E+00  0.0000E+00  0.0000E+00  0.0000E+00  0.0000E+00  0.0000E+00  0.0000E+00  0.0000E+00  0.0000E+00  0.0000E+00  0.0000E+00  0.0000E+00  0.0000E+00  0.0000E+00
    -42.384  0.0000E+00  0.0000E+00  0.0000E+00  0.0000E+00  0.0000E+00  0.0000E+00  0.0000E+00  0.0000E+00  0.0000E+00  0.0000E+00  0.0000E+00  0.0000E+00  0.0000E+00  0.0000E+00  0.0000E+00  0.0000E+00  0.0000E+00  0.0000E+00
    -42.159  0.0000E+00  0.0000E+00  0.0000E+00  0.0000E+00  0.0000E+00  0.0000E+00  0.0000E+00  0.0000E+00  0.0000E+00  0.0000E+00  0.0000E+00  0.0000E+00  0.0000E+00  0.0000E+00  0.0000E+00  0.0000E+00  0.0000E+00  0.0000E+00
    -41.934  0.0000E+00  0.0000E+00  0.0000E+00  0.0000E+00  0.0000E+00  0.0000E+00  0.0000E+00  0.0000E+00  0.0000E+00  0.0000E+00  0.0000E+00  0.0000E+00  0.0000E+00  0.0000E+00  0.0000E+00  0.0000E+00  0.0000E+00  0.0000E+00
    -41.708  0.0000E+00  0.0000E+00  0.0000E+00  0.0000E+00  0.0000E+00  0.0000E+00  0.0000E+00  0.0000E+00  0.0000E+00  0.0000E+00  0.0000E+00  0.0000E+00  0.0000E+00  0.0000E+00  0.0000E+00  0.0000E+00  0.0000E+00  0.0000E+00
    -41.483  0.0000E+00  0.0000E+00  0.0000E+00  0.0000E+00  0.0000E+00  0.0000E+00  0.0000E+00  0.0000E+00  0.0000E+00  0.0000E+00  0.0000E+00  0.0000E+00  0.0000E+00  0.0000E+00  0.0000E+00  0.0000E+00  0.0000E+00  0.0000E+00
    -41.258  0.1355E-12  0.0000E+00  0.3029E-04  0.0000E+00  0.3029E-04  0.0000E+00  0.3013E-04  0.0000E+00  0.3591E-14  0.0000E+00  0.3558E-14  0.0000E+00  0.9266E-13  0.0000E+00  0.3591E-14  0.0000E+00  0.9201E-13  0.0000E+00
    -41.033  0.1207E-10  0.0000E+00  0.2698E-02  0.0000E+00  0.2698E-02  0.0000E+00  0.2683E-02  0.0000E+00  0.3198E-12  0.0000E+00  0.3170E-12  0.0000E+00  0.8253E-11  0.0000E+00  0.3198E-12  0.0000E+00  0.8195E-11  0.0000E+00
    -40.808  0.1030E-08  0.0000E+00  0.2303E+00  0.0000E+00  0.2303E+00  0.0000E+00  0.2291E+00  0.0000E+00  0.2731E-10  0.0000E+00  0.2706E-10  0.0000E+00  0.7047E-09  0.0000E+00  0.2731E-10  0.0000E+00  0.6997E-09  0.0000E+00
    -40.583  0.1545E-07  0.0000E+00  0.3451E+01  0.0000E+00  0.3451E+01  0.0000E+00  0.3449E+01  0.0000E+00  0.4115E-09  0.0000E+00  0.4069E-09  0.0000E+00  0.1058E-07  0.0000E+00  0.4115E-09  0.0000E+00  0.1050E-07  0.0000E+00
    -40.358  0.3247E-08  0.0000E+00  0.7243E+00  0.0000E+00  0.7243E+00  0.0000E+00  0.7276E+00  0.0000E+00  0.8693E-10  0.0000E+00  0.8576E-10  0.0000E+00  0.2227E-08  0.0000E+00  0.8693E-10  0.0000E+00  0.2208E-08  0.0000E+00
    -40.133  0.0000E+00  0.0000E+00  0.0000E+00  0.0000E+00  0.0000E+00  0.0000E+00  0.0000E+00  0.0000E+00  0.0000E+00  0.0000E+00  0.0000E+00  0.0000E+00  0.0000E+00  0.0000E+00  0.0000E+00  0.0000E+00  0.0000E+00  0.0000E+00
    -39.908  0.0000E+00  0.0000E+00  0.0000E+00  0.0000E+00  0.0000E+00  0.0000E+00  0.0000E+00  0.0000E+00  0.0000E+00  0.0000E+00  0.0000E+00  0.0000E+00  0.0000E+00  0.0000E+00  0.0000E+00  0.0000E+00  0.0000E+00  0.0000E+00
    -39.683  0.0000E+00  0.0000E+00  0.0000E+00  0.0000E+00  0.0000E+00  0.0000E+00  0.0000E+00  0.0000E+00  0.0000E+00  0.0000E+00  0.0000E+00  0.0000E+00  0.0000E+00  0.0000E+00  0.0000E+00  0.0000E+00  0.0000E+00  0.0000E+00
    -39.458  0.0000E+00  0.0000E+00  0.0000E+00  0.0000E+00  0.0000E+00  0.0000E+00  0.0000E+00  0.0000E+00  0.0000E+00  0.0000E+00  0.0000E+00  0.0000E+00  0.0000E+00  0.0000E+00  0.0000E+00  0.0000E+00  0.0000E+00  0.0000E+00
    -39.233  0.0000E+00  0.0000E+00  0.0000E+00  0.0000E+00  0.0000E+00  0.0000E+00  0.0000E+00  0.0000E+00  0.0000E+00  0.0000E+00  0.0000E+00  0.0000E+00  0.0000E+00  0.0000E+00  0.0000E+00  0.0000E+00  0.0000E+00  0.0000E+00
    -39.008  0.0000E+00  0.0000E+00  0.0000E+00  0.0000E+00  0.0000E+00  0.0000E+00  0.0000E+00  0.0000E+00  0.0000E+00  0.0000E+00  0.0000E+00  0.0000E+00  0.0000E+00  0.0000E+00  0.0000E+00  0.0000E+00  0.0000E+00  0.0000E+00
    -38.783  0.0000E+00  0.0000E+00  0.0000E+00  0.0000E+00  0.0000E+00  0.0000E+00  0.0000E+00  0.0000E+00  0.0000E+00  0.0000E+00  0.0000E+00  0.0000E+00  0.0000E+00  0.0000E+00  0.0000E+00  0.0000E+00  0.0000E+00  0.0000E+00
    -38.558  0.0000E+00  0.1431E-11  0.0000E+00  0.1974E-03  0.0000E+00  0.1974E-03  0.0000E+00  0.1974E-03  0.0000E+00  0.2829E-13  0.0000E+00  0.2816E-13  0.0000E+00  0.8963E-12  0.0000E+00  0.2829E-13  0.0000E+00  0.8933E-12
    -38.333  0.0000E+00  0.1271E-09  0.0000E+00  0.1752E-01  0.0000E+00  0.1752E-01  0.0000E+00  0.1752E-01  0.0000E+00  0.2511E-11  0.0000E+00  0.2500E-11  0.0000E+00  0.7956E-10  0.0000E+00  0.2511E-11  0.0000E+00  0.7930E-10
    -38.108  0.0000E+00  0.8402E-08  0.0000E+00  0.1159E+01  0.0000E+00  0.1159E+01  0.0000E+00  0.1159E+01  0.0000E+00  0.1661E-09  0.0000E+00  0.1654E-09  0.0000E+00  0.5263E-08  0.0000E+00  0.1661E-09  0.0000E+00  0.5244E-08
    -37.882  0.0000E+00  0.2255E-07  0.0000E+00  0.3111E+01  0.0000E+00  0.3111E+01  0.0000E+00  0.3111E+01  0.0000E+00  0.4467E-09  0.0000E+00  0.4447E-09  0.0000E+00  0.1415E-07  0.0000E+00  0.4467E-09  0.0000E+00  0.1408E-07
    -37.657  0.0000E+00  0.7565E-09  0.0000E+00  0.8814E-01  0.0000E+00  0.8814E-01  0.0000E+00  0.8813E-01  0.0000E+00  0.1289E-10  0.0000E+00  0.1283E-10  0.0000E+00  0.4947E-09  0.0000E+00  0.1289E-10  0.0000E+00  0.4740E-09
    -37.432  0.0000E+00  0.0000E+00  0.0000E+00  0.0000E+00  0.0000E+00  0.0000E+00  0.0000E+00  0.0000E+00  0.0000E+00  0.0000E+00  0.0000E+00  0.0000E+00  0.0000E+00  0.0000E+00  0.0000E+00  0.0000E+00  0.0000E+00  0.0000E+00
    -37.207  0.0000E+00  0.0000E+00  0.0000E+00  0.0000E+00  0.0000E+00  0.0000E+00  0.0000E+00  0.0000E+00  0.0000E+00  0.0000E+00  0.0000E+00  0.0000E+00  0.0000E+00  0.0000E+00  0.0000E+00  0.0000E+00  0.0000E+00  0.0000E+00
    -36.982  0.0000E+00  0.0000E+00  0.0000E+00  0.0000E+00  0.0000E+00  0.0000E+00  0.0000E+00  0.0000E+00  0.0000E+00  0.0000E+00  0.0000E+00  0.0000E+00  0.0000E+00  0.0000E+00  0.0000E+00  0.0000E+00  0.0000E+00  0.0000E+00
    -36.757  0.0000E+00  0.0000E+00  0.0000E+00  0.0000E+00  0.0000E+00  0.0000E+00  0.0000E+00  0.0000E+00  0.0000E+00  0.0000E+00  0.0000E+00  0.0000E+00  0.0000E+00  0.0000E+00  0.0000E+00  0.0000E+00  0.0000E+00  0.0000E+00
    -36.532  0.0000E+00  0.0000E+00  0.0000E+00  0.0000E+00  0.0000E+00  0.0000E+00  0.0000E+00  0.0000E+00  0.0000E+00  0.0000E+00  0.0000E+00  0.0000E+00  0.0000E+00  0.0000E+00  0.0000E+00  0.0000E+00  0.0000E+00  0.0000E+00
    -36.307  0.0000E+00  0.0000E+00  0.0000E+00  0.0000E+00  0.0000E+00  0.0000E+00  0.0000E+00  0.0000E+00  0.0000E+00  0.0000E+00  0.0000E+00  0.0000E+00  0.0000E+00  0.0000E+00  0.0000E+00  0.0000E+00  0.0000E+00  0.0000E+00
    -36.082  0.0000E+00  0.0000E+00  0.0000E+00  0.0000E+00  0.0000E+00  0.0000E+00  0.0000E+00  0.0000E+00  0.0000E+00  0.0000E+00  0.0000E+00  0.0000E+00  0.0000E+00  0.0000E+00  0.0000E+00  0.0000E+00  0.0000E+00  0.0000E+00
    -35.857  0.0000E+00  0.0000E+00  0.0000E+00  0.0000E+00  0.0000E+00  0.0000E+00  0.0000E+00  0.0000E+00  0.0000E+00  0.0000E+00  0.0000E+00  0.0000E+00  0.0000E+00  0.0000E+00  0.0000E+00  0.0000E+00  0.0000E+00  0.0000E+00
    -35.632  0.0000E+00  0.0000E+00  0.0000E+00  0.0000E+00  0.0000E+00  0.0000E+00  0.0000E+00  0.0000E+00  0.0000E+00  0.0000E+00  0.0000E+00  0.0000E+00  0.0000E+00  0.0000E+00  0.0000E+00  0.0000E+00  0.0000E+00  0.0000E+00
    -35.407  0.0000E+00  0.0000E+00  0.0000E+00  0.0000E+00  0.0000E+00  0.0000E+00  0.0000E+00  0.0000E+00  0.0000E+00  0.0000E+00  0.0000E+00  0.0000E+00  0.0000E+00  0.0000E+00  0.0000E+00  0.0000E+00  0.0000E+00  0.0000E+00
    -35.182  0.0000E+00  0.0000E+00  0.0000E+00  0.0000E+00  0.0000E+00  0.0000E+00  0.0000E+00  0.0000E+00  0.0000E+00  0.0000E+00  0.0000E+00  0.0000E+00  0.0000E+00  0.0000E+00  0.0000E+00  0.0000E+00  0.0000E+00  0.0000E+00
    -34.957  0.0000E+00  0.0000E+00  0.0000E+00  0.0000E+00  0.0000E+00  0.0000E+00  0.0000E+00  0.0000E+00  0.0000E+00  0.0000E+00  0.0000E+00  0.0000E+00  0.0000E+00  0.0000E+00  0.0000E+00  0.0000E+00  0.0000E+00  0.0000E+00
    -34.732  0.0000E+00  0.0000E+00  0.0000E+00  0.0000E+00  0.0000E+00  0.0000E+00  0.0000E+00  0.0000E+00  0.0000E+00  0.0000E+00  0.0000E+00  0.0000E+00  0.0000E+00  0.0000E+00  0.0000E+00  0.0000E+00  0.0000E+00  0.0000E+00
    -34.507  0.0000E+00  0.0000E+00  0.0000E+00  0.0000E+00  0.0000E+00  0.0000E+00  0.0000E+00  0.0000E+00  0.0000E+00  0.0000E+00  0.0000E+00  0.0000E+00  0.0000E+00  0.0000E+00  0.0000E+00  0.0000E+00  0.0000E+00  0.0000E+00
    -34.281  0.0000E+00  0.0000E+00  0.0000E+00  0.0000E+00  0.0000E+00  0.0000E+00  0.0000E+00  0.0000E+00  0.0000E+00  0.0000E+00  0.0000E+00  0.0000E+00  0.0000E+00  0.0000E+00  0.0000E+00  0.0000E+00  0.0000E+00  0.0000E+00
    -34.056  0.0000E+00  0.0000E+00  0.0000E+00  0.0000E+00  0.0000E+00  0.0000E+00  0.0000E+00  0.0000E+00  0.0000E+00  0.0000E+00  0.0000E+00  0.0000E+00  0.0000E+00  0.0000E+00  0.0000E+00  0.0000E+00  0.0000E+00  0.0000E+00
    -33.831  0.0000E+00  0.0000E+00  0.0000E+00  0.0000E+00  0.0000E+00  0.0000E+00  0.0000E+00  0.0000E+00  0.0000E+00  0.0000E+00  0.0000E+00  0.0000E+00  0.0000E+00  0.0000E+00  0.0000E+00  0.0000E+00  0.0000E+00  0.0000E+00
    -33.606  0.0000E+00  0.0000E+00  0.0000E+00  0.0000E+00  0.0000E+00  0.0000E+00  0.0000E+00  0.0000E+00  0.0000E+00  0.0000E+00  0.0000E+00  0.0000E+00  0.0000E+00  0.0000E+00  0.0000E+00  0.0000E+00  0.0000E+00  0.0000E+00
    -33.381  0.0000E+00  0.0000E+00  0.0000E+00  0.0000E+00  0.0000E+00  0.0000E+00  0.0000E+00  0.0000E+00  0.0000E+00  0.0000E+00  0.0000E+00  0.0000E+00  0.0000E+00  0.0000E+00  0.0000E+00  0.0000E+00  0.0000E+00  0.0000E+00
    -33.156  0.0000E+00  0.0000E+00  0.0000E+00  0.0000E+00  0.0000E+00  0.0000E+00  0.0000E+00  0.0000E+00  0.0000E+00  0.0000E+00  0.0000E+00  0.0000E+00  0.0000E+00  0.0000E+00  0.0000E+00  0.0000E+00  0.0000E+00  0.0000E+00
    -32.931  0.0000E+00  0.0000E+00  0.0000E+00  0.0000E+00  0.0000E+00  0.0000E+00  0.0000E+00  0.0000E+00  0.0000E+00  0.0000E+00  0.0000E+00  0.0000E+00  0.0000E+00  0.0000E+00  0.0000E+00  0.0000E+00  0.0000E+00  0.0000E+00
    -32.706  0.0000E+00  0.0000E+00  0.0000E+00  0.0000E+00  0.0000E+00  0.0000E+00  0.0000E+00  0.0000E+00  0.0000E+00  0.0000E+00  0.0000E+00  0.0000E+00  0.0000E+00  0.0000E+00  0.0000E+00  0.0000E+00  0.0000E+00  0.0000E+00
    -32.481  0.0000E+00  0.0000E+00  0.0000E+00  0.0000E+00  0.0000E+00  0.0000E+00  0.0000E+00  0.0000E+00  0.0000E+00  0.0000E+00  0.0000E+00  0.0000E+00  0.0000E+00  0.0000E+00  0.0000E+00  0.0000E+00  0.0000E+00  0.0000E+00