   4   4   1   0
  0.1799278E+02  0.4158914E-09  0.4159960E-09  0.4159960E-09  0.5000000E-15
  1.000000000000000E-004
  CAR 
 unknown system                          
     20.41482573    -46.00655661  301      6.86770939      1.00000000
    -46.007  0.0000E+00  0.0000E+00  0.0000E+00  0.0000E+00
    -45.785  0.0000E+00  0.0000E+00  0.0000E+00  0.0000E+00
    -45.564  0.0000E+00  0.0000E+00  0.0000E+00  0.0000E+00
    -45.342  0.0000E+00  0.0000E+00  0.0000E+00  0.0000E+00
    -45.121  0.0000E+00  0.0000E+00  0.0000E+00  0.0000E+00
    -44.900  0.0000E+00  0.0000E+00  0.0000E+00  0.0000E+00
    -44.678  0.0000E+00  0.0000E+00  0.0000E+00  0.0000E+00
    -44.457  0.0000E+00  0.0000E+00  0.0000E+00  0.0000E+00
    -44.235  0.0000E+00  0.0000E+00  0.0000E+00  0.0000E+00
    -44.014  0.0000E+00  0.0000E+00  0.0000E+00  0.0000E+00
    -43.793  0.0000E+00  0.0000E+00  0.0000E+00  0.0000E+00
    -43.571  0.1142E-03  0.0000E+00  0.2528E-04  0.0000E+00
    -43.350  0.9444E-02  0.0000E+00  0.2116E-02  0.0000E+00
    -43.128  0.7469E+00  0.0000E+00  0.1675E+00  0.0000E+00
    -42.907  0.1052E+02  0.0000E+00  0.2496E+01  0.0000E+00
    -42.685  0.2243E+01  0.0000E+00  0.2993E+01  0.0000E+00
    -42.464  0.0000E+00  0.0000E+00  0.3000E+01  0.0000E+00
    -42.243  0.0000E+00  0.0000E+00  0.3000E+01  0.0000E+00
    -42.021  0.0000E+00  0.0000E+00  0.3000E+01  0.0000E+00
    -41.800  0.0000E+00  0.0000E+00  0.3000E+01  0.0000E+00
    -41.578  0.0000E+00  0.0000E+00  0.3000E+01  0.0000E+00
    -41.357  0.0000E+00  0.0000E+00  0.3000E+01  0.0000E+00
    -41.136  0.0000E+00  0.0000E+00  0.3000E+01  0.0000E+00
    -40.914  0.0000E+00  0.0000E+00  0.3000E+01  0.0000E+00
    -40.693  0.0000E+00  0.0000E+00  0.3000E+01  0.0000E+00
    -40.471  0.0000E+00  0.0000E+00  0.3000E+01  0.0000E+00
    -40.250  0.0000E+00  0.0000E+00  0.3000E+01  0.0000E+00
    -40.029  0.0000E+00  0.0000E+00  0.3000E+01  0.0000E+00
    -39.807  0.0000E+00  0.1822E-02  0.3000E+01  0.4033E-03
    -39.586  0.0000E+00  0.1491E+00  0.3000E+01  0.3341E-01
    -39.364  0.0000E+00  0.6427E+01  0.3000E+01  0.1456E+01
    -39.143  0.0000E+00  0.6803E+01  0.3000E+01  0.2963E+01
    -38.922  0.0000E+00  0.0000E+00  0.3000E+01  0.3000E+01
    -38.700  0.0000E+00  0.0000E+00  0.3000E+01  0.3000E+01
    -38.479  0.0000E+00  0.0000E+00  0.3000E+01  0.3000E+01
    -38.257  0.0000E+00  0.0000E+00  0.3000E+01  0.3000E+01
    -38.036  0.0000E+00  0.0000E+00  0.3000E+01  0.3000E+01
    -37.815  0.0000E+00  0.0000E+00  0.3000E+01  0.3000E+01
    -37.593  0.0000E+00  0.0000E+00  0.3000E+01  0.3000E+01
    -37.372  0.0000E+00  0.0000E+00  0.3000E+01  0.3000E+01
    -37.150  0.0000E+00  0.0000E+00  0.3000E+01  0.3000E+01
    -36.929  0.0000E+00  0.0000E+00  0.3000E+01  0.3000E+01
    -36.708  0.0000E+00  0.0000E+00  0.3000E+01  0.3000E+01
    -36.486  0.0000E+00  0.0000E+00  0.3000E+01  0.3000E+01
    -36.265  0.0000E+00  0.0000E+00  0.3000E+01  0.3000E+01
    -36.043  0.0000E+00  0.0000E+00  0.3000E+01  0.3000E+01
    -35.822  0.0000E+00  0.0000E+00  0.3000E+01  0.3000E+01
    -35.601  0.0000E+00  0.0000E+00  0.3000E+01  0.3000E+01
    -35.379  0.0000E+00  0.0000E+00  0.3000E+01  0.3000E+01
    -35.158  0.0000E+00  0.0000E+00  0.3000E+01  0.3000E+01
    -34.936  0.0000E+00  0.0000E+00  0.3000E+01  0.3000E+01
    -34.715  0.0000E+00  0.0000E+00  0.3000E+01  0.3000E+01
    -34.494  0.0000E+00  0.0000E+00  0.3000E+01  0.3000E+01
    -34.272  0.0000E+00  0.0000E+00  0.3000E+01  0.3000E+01
    -34.051  0.0000E+00  0.0000E+00  0.3000E+01  0.3000E+01
    -33.829  0.0000E+00  0.0000E+00  0.3000E+01  0.3000E+01
    -33.608  0.0000E+00  0.0000E+00  0.3000E+01  0.3000E+01
    -33.386  0.0000E+00  0.0000E+00  0.3000E+01  0.3000E+01
    -33.165  0.0000E+00  0.0000E+00  0.3000E+01  0.3000E+01
    -32.944  0.0000E+00  0.0000E+00  0.3000E+01  0.3000E+01
    -32.722  0.0000E+00  0.0000E+00  0.3000E+01  0.3000E+01
    -32.501  0.0000E+00  0.0000E+00  0.3000E+01  0.3000E+01
    -32.279  0.0000E+00  0.0000E+00  0.3000E+01  0.3000E+01
    -32.058  0.0000E+00  0.0000E+00  0.3000E+01  0.3000E+01
    -31.837  0.0000E+00  0.0000E+00  0.3000E+01  0.3000E+01
    -31.615  0.0000E+00  0.0000E+00  0.3000E+01  0.3000E+01
    -31.394  0.0000E+00  0.0000E+00  0.3000E+01  0.3000E+01
    -31.172  0.0000E+00  0.0000E+00  0.3000E+01  0.3000E+01
    -30.951  0.0000E+00  0.0000E+00  0.3000E+01  0.3000E+01
    -30.730  0.0000E+00  0.0000E+00  0.3000E+01  0.3000E+01
    -30.508  0.0000E+00  0.0000E+00  0.3000E+01  0.3000E+01
    -30.287  0.0000E+00  0.0000E+00  0.3000E+01  0.3000E+01
    -30.065  0.0000E+00  0.0000E+00  0.3000E+01  0.3000E+01
    -29.844  0.0000E+00  0.0000E+00  0.3000E+01  0.3000E+01
    -29.623  0.0000E+00  0.0000E+00  0.3000E+01  0.3000E+01
    -29.401  0.0000E+00  0.0000E+00  0.3000E+01  0.3000E+01
    -29.180  0.0000E+00  0.0000E+00  0.3000E+01  0.3000E+01
    -28.958  0.0000E+00  0.0000E+00  0.3000E+01  0.3000E+01
    -28.737  0.0000E+00  0.0000E+00  0.3000E+01  0.3000E+01
    -28.516  0.0000E+00  0.0000E+00  0.3000E+01  0.3000E+01
    -28.294  0.0000E+00  0.0000E+00  0.3000E+01  0.3000E+01
    -28.073  0.0000E+00  0.0000E+00  0.3000E+01  0.3000E+01
    -27.851  0.0000E+00  0.0000E+00  0.3000E+01  0.3000E+01
    -27.630  0.0000E+00  0.0000E+00  0.3000E+01  0.3000E+01
    -27.409  0.0000E+00  0.0000E+00  0.3000E+01  0.3000E+01
    -27.187  0.0000E+00  0.0000E+00  0.3000E+01  0.3000E+01
    -26.966  0.0000E+00  0.0000E+00  0.3000E+01  0.3000E+01
    -26.744  0.0000E+00  0.0000E+00  0.3000E+01  0.3000E+01
    -26.523  0.0000E+00  0.0000E+00  0.3000E+01  0.3000E+01
    -26.302  0.0000E+00  0.0000E+00  0.3000E+01  0.3000E+01
    -26.080  0.0000E+00  0.0000E+00  0.3000E+01  0.3000E+01
    -25.859  0.0000E+00  0.0000E+00  0.3000E+01  0.3000E+01
    -25.637  0.0000E+00  0.0000E+00  0.3000E+01  0.3000E+01
    -25.416  0.0000E+00  0.0000E+00  0.3000E+01  0.3000E+01
    -25.195  0.0000E+00  0.0000E+00  0.3000E+01  0.3000E+01
    -24.973  0.0000E+00  0.0000E+00  0.3000E+01  0.3000E+01
    -24.752  0.0000E+00  0.0000E+00  0.3000E+01  0.3000E+01
    -24.530  0.0000E+00  0.0000E+00  0.3000E+01  0.3000E+01
    -24.309  0.0000E+00  0.0000E+00  0.3000E+01  0.3000E+01
    -24.088  0.0000E+00  0.0000E+00  0.3000E+01  0.3000E+01
    -23.866  0.0000E+00  0.0000E+00  0.3000E+01  0.3000E+01
    -23.645  0.0000E+00  0.0000E+00  0.3000E+01  0.3000E+01
    -23.423  0.0000E+00  0.0000E+00  0.3000E+01  0.3000E+01
    -23.202  0.0000E+00  0.0000E+00  0.3000E+01  0.3000E+01
    -22.980  0.0000E+00  0.0000E+00  0.3000E+01  0.3000E+01
    -22.759  0.0000E+00  0.0000E+00  0.3000E+01  0.3000E+01
    -22.538  0.0000E+00  0.0000E+00  0.3000E+01  0.3000E+01
    -22.316  0.0000E+00  0.0000E+00  0.3000E+01  0.3000E+01
    -22.095  0.0000E+00  0.0000E+00  0.3000E+01  0.3000E+01
    -21.873  0.0000E+00  0.0000E+00  0.3000E+01  0.3000E+01
    -21.652  0.0000E+00  0.0000E+00  0.3000E+01  0.3000E+01
    -21.431  0.0000E+00  0.0000E+00  0.3000E+01  0.3000E+01
    -21.209  0.0000E+00  0.0000E+00  0.3000E+01  0.3000E+01
    -20.988  0.0000E+00  0.0000E+00  0.3000E+01  0.3000E+01
    -20.766  0.0000E+00  0.0000E+00  0.3000E+01  0.3000E+01
    -20.545  0.0000E+00  0.0000E+00  0.3000E+01  0.3000E+01
    -20.324  0.0000E+00  0.0000E+00  0.3000E+01  0.3000E+01
    -20.102  0.0000E+00  0.0000E+00  0.3000E+01  0.3000E+01
    -19.881  0.0000E+00  0.0000E+00  0.3000E+01  0.3000E+01
    -19.659  0.0000E+00  0.0000E+00  0.3000E+01  0.3000E+01
    -19.438  0.0000E+00  0.0000E+00  0.3000E+01  0.3000E+01
    -19.217  0.0000E+00  0.0000E+00  0.3000E+01  0.3000E+01
    -18.995  0.0000E+00  0.0000E+00  0.3000E+01  0.3000E+01
    -18.774  0.0000E+00  0.0000E+00  0.3000E+01  0.3000E+01
    -18.552  0.0000E+00  0.0000E+00  0.3000E+01  0.3000E+01
    -18.331  0.0000E+00  0.0000E+00  0.3000E+01  0.3000E+01
    -18.110  0.0000E+00  0.0000E+00  0.3000E+01  0.3000E+01
    -17.888  0.0000E+00  0.0000E+00  0.3000E+01  0.3000E+01
    -17.667  0.0000E+00  0.0000E+00  0.3000E+01  0.3000E+01
    -17.445  0.0000E+00  0.0000E+00  0.3000E+01  0.3000E+01
    -17.224  0.0000E+00  0.0000E+00  0.3000E+01  0.3000E+01
    -17.003  0.0000E+00  0.0000E+00  0.3000E+01  0.3000E+01
    -16.781  0.0000E+00  0.0000E+00  0.3000E+01  0.3000E+01
    -16.560  0.0000E+00  0.0000E+00  0.3000E+01  0.3000E+01
    -16.338  0.0000E+00  0.0000E+00  0.3000E+01  0.3000E+01
    -16.117  0.0000E+00  0.0000E+00  0.3000E+01  0.3000E+01
    -15.896  0.0000E+00  0.0000E+00  0.3000E+01  0.3000E+01
    -15.674  0.0000E+00  0.0000E+00  0.3000E+01  0.3000E+01
    -15.453  0.0000E+00  0.0000E+00  0.3000E+01  0.3000E+01
    -15.231  0.0000E+00  0.0000E+00  0.3000E+01  0.3000E+01
    -15.010  0.0000E+00  0.0000E+00  0.3000E+01  0.3000E+01
    -14.789  0.0000E+00  0.0000E+00  0.3000E+01  0.3000E+01
    -14.567  0.0000E+00  0.0000E+00  0.3000E+01  0.3000E+01
    -14.346  0.0000E+00  0.0000E+00  0.3000E+01  0.3000E+01
    -14.124  0.0000E+00  0.0000E+00  0.3000E+01  0.3000E+01
    -13.903  0.0000E+00  0.0000E+00  0.3000E+01  0.3000E+01
    -13.681  0.0000E+00  0.0000E+00  0.3000E+01  0.3000E+01
    -13.460  0.0000E+00  0.0000E+00  0.3000E+01  0.3000E+01
    -13.239  0.0000E+00  0.0000E+00  0.3000E+01  0.3000E+01
    -13.017  0.0000E+00  0.0000E+00  0.3000E+01  0.3000E+01
    -12.796  0.0000E+00  0.0000E+00  0.3000E+01  0.3000E+01
    -12.574  0.0000E+00  0.0000E+00  0.3000E+01  0.3000E+01
    -12.353  0.0000E+00  0.0000E+00  0.3000E+01  0.3000E+01
    -12.132  0.0000E+00  0.0000E+00  0.3000E+01  0.3000E+01
    -11.910  0.0000E+00  0.0000E+00  0.3000E+01  0.3000E+01
    -11.689  0.0000E+00  0.0000E+00  0.3000E+01  0.3000E+01
    -11.467  0.0000E+00  0.0000E+00  0.3000E+01  0.3000E+01
    -11.246  0.0000E+00  0.0000E+00  0.3000E+01  0.3000E+01
    -11.025  0.0000E+00  0.0000E+00  0.3000E+01  0.3000E+01
    -10.803  0.0000E+00  0.0000E+00  0.3000E+01  0.3000E+01
    -10.582  0.0000E+00  0.0000E+00  0.3000E+01  0.3000E+01
    -10.360  0.0000E+00  0.0000E+00  0.3000E+01  0.3000E+01
    -10.139  0.0000E+00  0.0000E+00  0.3000E+01  0.3000E+01
     -9.918  0.0000E+00  0.0000E+00  0.3000E+01  0.3000E+01
     -9.696  0.0000E+00  0.0000E+00  0.3000E+01  0.3000E+01
     -9.475  0.0000E+00  0.0000E+00  0.3000E+01  0.3000E+01
     -9.253  0.0000E+00  0.0000E+00  0.3000E+01  0.3000E+01
     -9.032  0.0000E+00  0.0000E+00  0.3000E+01  0.3000E+01
     -8.811  0.0000E+00  0.0000E+00  0.3000E+01  0.3000E+01
     -8.589  0.0000E+00  0.0000E+00  0.3000E+01  0.3000E+01
     -8.368  0.0000E+00  0.0000E+00  0.3000E+01  0.3000E+01
     -8.146  0.0000E+00  0.0000E+00  0.3000E+01  0.3000E+01
     -7.925  0.0000E+00  0.0000E+00  0.3000E+01  0.3000E+01
     -7.704  0.0000E+00  0.0000E+00  0.3000E+01  0.3000E+01
     -7.482  0.0000E+00  0.0000E+00  0.3000E+01  0.3000E+01
     -7.261  0.0000E+00  0.0000E+00  0.3000E+01  0.3000E+01
     -7.039  0.0000E+00  0.0000E+00  0.3000E+01  0.3000E+01
     -6.818  0.0000E+00  0.0000E+00  0.3000E+01  0.3000E+01
     -6.597  0.0000E+00  0.0000E+00  0.3000E+01  0.3000E+01
     -6.375  0.0000E+00  0.0000E+00  0.3000E+01  0.3000E+01
     -6.154  0.0000E+00  0.0000E+00  0.3000E+01  0.3000E+01
     -5.932  0.0000E+00  0.0000E+00  0.3000E+01  0.3000E+01
     -5.711  0.0000E+00  0.0000E+00  0.3000E+01  0.3000E+01
     -5.490  0.0000E+00  0.0000E+00  0.3000E+01  0.3000E+01
     -5.268  0.0000E+00  0.0000E+00  0.3000E+01  0.3000E+01
     -5.047  0.0000E+00  0.0000E+00  0.3000E+01  0.3000E+01
     -4.825  0.0000E+00  0.0000E+00  0.3000E+01  0.3000E+01
     -4.604  0.0000E+00  0.0000E+00  0.3000E+01  0.3000E+01
     -4.382  0.0000E+00  0.0000E+00  0.3000E+01  0.3000E+01
     -4.161  0.0000E+00  0.0000E+00  0.3000E+01  0.3000E+01
     -3.940  0.0000E+00  0.0000E+00  0.3000E+01  0.3000E+01
     -3.718  0.0000E+00  0.0000E+00  0.3000E+01  0.3000E+01
     -3.497  0.2978E-05  0.1134E-05  0.3000E+01  0.3000E+01
     -3.275  0.2543E-03  0.9943E-04  0.3000E+01  0.3000E+01
     -3.054  0.1384E-01  0.6739E-02  0.3003E+01  0.3002E+01
     -2.833  0.8834E-01  0.6987E-01  0.3023E+01  0.3017E+01
     -2.611  0.1483E+00  0.1388E+00  0.3056E+01  0.3048E+01
     -2.390  0.1968E+00  0.1925E+00  0.3099E+01  0.3090E+01
     -2.168  0.2282E+00  0.2193E+00  0.3150E+01  0.3139E+01
     -1.947  0.2597E+00  0.2705E+00  0.3208E+01  0.3199E+01
     -1.726  0.3018E+00  0.2874E+00  0.3275E+01  0.3263E+01
     -1.504  0.3167E+00  0.3290E+00  0.3346E+01  0.3337E+01
     -1.283  0.3879E+00  0.3851E+00  0.3432E+01  0.3422E+01
     -1.061  0.3969E+00  0.3926E+00  0.3520E+01  0.3509E+01
     -0.840  0.4114E+00  0.4230E+00  0.3611E+01  0.3604E+01
     -0.619  0.3340E+00  0.3126E+00  0.3686E+01  0.3673E+01
     -0.397  0.3848E+00  0.3540E+00  0.3771E+01  0.3752E+01
     -0.176  0.4577E+00  0.4016E+00  0.3873E+01  0.3842E+01
      0.046  0.3951E+00  0.4005E+00  0.3961E+01  0.3930E+01
      0.267  0.4667E+00  0.4290E+00  0.4065E+01  0.4026E+01
      0.488  0.5244E+00  0.4930E+00  0.4181E+01  0.4136E+01
      0.710  0.4452E+00  0.4724E+00  0.4281E+01  0.4241E+01
      0.931  0.5093E+00  0.4789E+00  0.4394E+01  0.4348E+01
      1.153  0.6180E+00  0.5941E+00  0.4532E+01  0.4480E+01
      1.374  0.7154E+00  0.6358E+00  0.4690E+01  0.4622E+01
      1.595  0.5830E+00  0.6107E+00  0.4820E+01  0.4758E+01
      1.817  0.7354E+00  0.5661E+00  0.4984E+01  0.4884E+01
      2.038  0.7829E+00  0.5863E+00  0.5158E+01  0.5015E+01
      2.260  0.7254E+00  0.6948E+00  0.5320E+01  0.5170E+01
      2.481  0.6958E+00  0.5477E+00  0.5475E+01  0.5291E+01
      2.702  0.7123E+00  0.6199E+00  0.5634E+01  0.5429E+01
      2.924  0.8973E+00  0.5581E+00  0.5834E+01  0.5554E+01
      3.145  0.9983E+00  0.6257E+00  0.6056E+01  0.5693E+01
      3.367  0.1220E+01  0.7605E+00  0.6328E+01  0.5862E+01
      3.588  0.1649E+01  0.6903E+00  0.6694E+01  0.6016E+01
      3.809  0.3043E+01  0.8244E+00  0.7370E+01  0.6199E+01
      4.031  0.3553E+01  0.8017E+00  0.8159E+01  0.6377E+01
      4.252  0.2529E+01  0.9103E+00  0.8724E+01  0.6580E+01
      4.474  0.1935E+01  0.9185E+00  0.9158E+01  0.6785E+01
      4.695  0.3898E+01  0.9255E+00  0.1002E+02  0.6991E+01
      4.917  0.2744E+01  0.1082E+01  0.1063E+02  0.7232E+01
      5.138  0.1608E+01  0.1120E+01  0.1099E+02  0.7482E+01
      5.359  0.1255E+01  0.1261E+01  0.1127E+02  0.7762E+01
      5.581  0.8183E+00  0.1231E+01  0.1146E+02  0.8037E+01
      5.802  0.9368E+00  0.1094E+01  0.1167E+02  0.8282E+01
      6.024  0.9027E+00  0.9314E+00  0.1187E+02  0.8489E+01
      6.245  0.1251E+01  0.8335E+00  0.1215E+02  0.8674E+01
      6.466  0.1104E+01  0.9192E+00  0.1239E+02  0.8879E+01
      6.688  0.8026E+00  0.9779E+00  0.1257E+02  0.9097E+01
      6.909  0.8955E+00  0.9562E+00  0.1277E+02  0.9310E+01
      7.131  0.9055E+00  0.1455E+01  0.1297E+02  0.9633E+01
      7.352  0.7390E+00  0.1951E+01  0.1314E+02  0.1007E+02
      7.573  0.8123E+00  0.2388E+01  0.1332E+02  0.1060E+02
      7.795  0.1146E+01  0.3193E+01  0.1358E+02  0.1131E+02
      8.016  0.1174E+01  0.3272E+01  0.1384E+02  0.1204E+02
      8.238  0.9574E+00  0.1897E+01  0.1405E+02  0.1246E+02
      8.459  0.6764E+00  0.1725E+01  0.1420E+02  0.1284E+02
      8.680  0.8344E+00  0.2210E+01  0.1439E+02  0.1334E+02
      8.902  0.9695E+00  0.1685E+01  0.1460E+02  0.1371E+02
      9.123  0.1089E+01  0.1402E+01  0.1485E+02  0.1403E+02
      9.345  0.8116E+00  0.1329E+01  0.1503E+02  0.1432E+02
      9.566  0.8305E+00  0.1465E+01  0.1521E+02  0.1465E+02
      9.787  0.9252E+00  0.1016E+01  0.1542E+02  0.1488E+02
     10.009  0.9310E+00  0.9911E+00  0.1563E+02  0.1510E+02
     10.230  0.1008E+01  0.9576E+00  0.1585E+02  0.1531E+02
     10.452  0.1139E+01  0.1366E+01  0.1611E+02  0.1561E+02
     10.673  0.9999E+00  0.8526E+00  0.1633E+02  0.1581E+02
     10.894  0.9609E+00  0.9296E+00  0.1654E+02  0.1601E+02
     11.116  0.9394E+00  0.1211E+01  0.1675E+02  0.1628E+02
     11.337  0.1138E+01  0.1505E+01  0.1701E+02  0.1662E+02
     11.559  0.9277E+00  0.1217E+01  0.1721E+02  0.1689E+02
     11.780  0.1083E+01  0.1026E+01  0.1745E+02  0.1712E+02
     12.001  0.1127E+01  0.1126E+01  0.1770E+02  0.1737E+02
     12.223  0.1181E+01  0.1166E+01  0.1797E+02  0.1763E+02
     12.444  0.1033E+01  0.1266E+01  0.1820E+02  0.1791E+02
     12.666  0.1090E+01  0.1326E+01  0.1844E+02  0.1820E+02
     12.887  0.1080E+01  0.1003E+01  0.1868E+02  0.1843E+02
     13.108  0.9973E+00  0.1041E+01  0.1890E+02  0.1866E+02
     13.330  0.8244E+00  0.9640E+00  0.1909E+02  0.1887E+02
     13.551  0.8300E+00  0.9587E+00  0.1927E+02  0.1909E+02
     13.773  0.6095E+00  0.8904E+00  0.1941E+02  0.1929E+02
     13.994  0.4012E+00  0.5478E+00  0.1950E+02  0.1941E+02
     14.215  0.1708E+00  0.3797E+00  0.1954E+02  0.1949E+02
     14.437  0.4031E+00  0.5639E+00  0.1963E+02  0.1962E+02
     14.658  0.2805E+00  0.2691E+00  0.1969E+02  0.1968E+02
     14.880  0.3376E+00  0.3147E+00  0.1977E+02  0.1975E+02
     15.101  0.2436E+00  0.2597E+00  0.1982E+02  0.1981E+02
     15.323  0.7087E-01  0.8182E-01  0.1984E+02  0.1983E+02
     15.544  0.1203E+00  0.1579E+00  0.1986E+02  0.1986E+02
     15.765  0.2145E+00  0.2476E+00  0.1991E+02  0.1992E+02
     15.987  0.7585E-01  0.8669E-01  0.1993E+02  0.1994E+02
     16.208  0.9122E-01  0.5643E-01  0.1995E+02  0.1995E+02
     16.430  0.5516E-01  0.8176E-01  0.1996E+02  0.1997E+02
     16.651  0.9770E-01  0.7798E-01  0.1998E+02  0.1999E+02
     16.872  0.3554E-01  0.4299E-01  0.1999E+02  0.1999E+02
     17.094  0.2506E-01  0.6270E-02  0.2000E+02  0.2000E+02
     17.315  0.3992E-02  0.7534E-02  0.2000E+02  0.2000E+02
     17.537  0.1278E-01  0.8522E-02  0.2000E+02  0.2000E+02
     17.758  0.9153E-03  0.0000E+00  0.2000E+02  0.2000E+02
     17.979  0.0000E+00  0.0000E+00  0.2000E+02  0.2000E+02
     18.201  0.0000E+00  0.0000E+00  0.2000E+02  0.2000E+02
     18.422  0.0000E+00  0.0000E+00  0.2000E+02  0.2000E+02
     18.644  0.0000E+00  0.0000E+00  0.2000E+02  0.2000E+02
     18.865  0.0000E+00  0.0000E+00  0.2000E+02  0.2000E+02
     19.086  0.0000E+00  0.0000E+00  0.2000E+02  0.2000E+02
     19.308  0.0000E+00  0.0000E+00  0.2000E+02  0.2000E+02
     19.529  0.0000E+00  0.0000E+00  0.2000E+02  0.2000E+02
     19.751  0.0000E+00  0.0000E+00  0.2000E+02  0.2000E+02
     19.972  0.0000E+00  0.0000E+00  0.2000E+02  0.2000E+02
     20.193  0.0000E+00  0.0000E+00  0.2000E+02  0.2000E+02
     20.415  0.0000E+00  0.0000E+00  0.2000E+02  0.2000E+02
     20.41482573    -46.00655661  301      6.86770939      1.00000000
    -46.007  0.0000E+00  0.0000E+00  0.0000E+00  0.0000E+00  0.0000E+00  0.0000E+00  0.0000E+00  0.0000E+00  0.0000E+00  0.0000E+00  0.0000E+00  0.0000E+00  0.0000E+00  0.0000E+00  0.0000E+00  0.0000E+00  0.0000E+00  0.0000E+00
    -45.785  0.0000E+00  0.0000E+00  0.0000E+00  0.0000E+00  0.0000E+00  0.0000E+00  0.0000E+00  0.0000E+00  0.0000E+00  0.0000E+00  0.0000E+00  0.0000E+00  0.0000E+00  0.0000E+00  0.0000E+00  0.0000E+00  0.0000E+00  0.0000E+00
    -45.564  0.0000E+00  0.0000E+00  0.0000E+00  0.0000E+00  0.0000E+00  0.0000E+00  0.0000E+00  0.0000E+00  0.0000E+00  0.0000E+00  0.0000E+00  0.0000E+00  0.0000E+00  0.0000E+00  0.0000E+00  0.0000E+00  0.0000E+00  0.0000E+00
    -45.342  0.0000E+00  0.0000E+00  0.0000E+00  0.0000E+00  0.0000E+00  0.0000E+00  0.0000E+00  0.0000E+00  0.0000E+00  0.0000E+00  0.0000E+00  0.0000E+00  0.0000E+00  0.0000E+00  0.0000E+00  0.0000E+00  0.0000E+00  0.0000E+00
    -45.121  0.0000E+00  0.0000E+00  0.0000E+00  0.0000E+00  0.0000E+00  0.0000E+00  0.0000E+00  0.0000E+00  0.0000E+00  0.0000E+00  0.0000E+00  0.0000E+00  0.0000E+00  0.0000E+00  0.0000E+00  0.0000E+00  0.0000E+00  0.0000E+00
    -44.900  0.0000E+00  0.0000E+00  0.0000E+00  0.0000E+00  0.0000E+00  0.0000E+00  0.0000E+00  0.0000E+00  0.0000E+00  0.0000E+00  0.0000E+00  0.0000E+00  0.0000E+00  0.0000E+00  0.0000E+00  0.0000E+00  0.0000E+00  0.0000E+00
    -44.678  0.0000E+00  0.0000E+00  0.0000E+00  0.0000E+00  0.0000E+00  0.0000E+00  0.0000E+00  0.0000E+00  0.0000E+00  0.0000E+00  0.0000E+00  0.0000E+00  0.0000E+00  0.0000E+00  0.0000E+00  0.0000E+00  0.0000E+00  0.0000E+00
    -44.457  0.0000E+00  0.0000E+00  0.0000E+00  0.0000E+00  0.0000E+00  0.0000E+00  0.0000E+00  0.0000E+00  0.0000E+00  0.0000E+00  0.0000E+00  0.0000E+00  0.0000E+00  0.0000E+00  0.0000E+00  0.0000E+00  0.0000E+00  0.0000E+00
    -44.235  0.0000E+00  0.0000E+00  0.0000E+00  0.0000E+00  0.0000E+00  0.0000E+00  0.0000E+00  0.0000E+00  0.0000E+00  0.0000E+00  0.0000E+00  0.0000E+00  0.0000E+00  0.0000E+00  0.0000E+00  0.0000E+00  0.0000E+00  0.0000E+00
    -44.014  0.0000E+00  0.0000E+00  0.0000E+00  0.0000E+00  0.0000E+00  0.0000E+00  0.0000E+00  0.0000E+00  0.0000E+00  0.0000E+00  0.0000E+00  0.0000E+00  0.0000E+00  0.0000E+00  0.0000E+00  0.0000E+00  0.0000E+00  0.0000E+00
    -43.793  0.0000E+00  0.0000E+00  0.0000E+00  0.0000E+00  0.0000E+00  0.0000E+00  0.0000E+00  0.0000E+00  0.0000E+00  0.0000E+00  0.0000E+00  0.0000E+00  0.0000E+00  0.0000E+00  0.0000E+00  0.0000E+00  0.0000E+00  0.0000E+00
    -43.571  0.3016E-13  0.0000E+00  0.3791E-04  0.0000E+00  0.3791E-04  0.0000E+00  0.3774E-04  0.0000E+00  0.7325E-15  0.0000E+00  0.7334E-15  0.0000E+00  0.2211E-13  0.0000E+00  0.7325E-15  0.0000E+00  0.2270E-13  0.0000E+00
    -43.350  0.2494E-11  0.0000E+00  0.3136E-02  0.0000E+00  0.3136E-02  0.0000E+00  0.3121E-02  0.0000E+00  0.6058E-13  0.0000E+00  0.6067E-13  0.0000E+00  0.1829E-11  0.0000E+00  0.6058E-13  0.0000E+00  0.1877E-11  0.0000E+00
    -43.128  0.1973E-09  0.0000E+00  0.2480E+00  0.0000E+00  0.2480E+00  0.0000E+00  0.2469E+00  0.0000E+00  0.4791E-11  0.0000E+00  0.4797E-11  0.0000E+00  0.1446E-09  0.0000E+00  0.4791E-11  0.0000E+00  0.1485E-09  0.0000E+00
    -42.907  0.2778E-08  0.0000E+00  0.3488E+01  0.0000E+00  0.3488E+01  0.0000E+00  0.3486E+01  0.0000E+00  0.6732E-10  0.0000E+00  0.6729E-10  0.0000E+00  0.2037E-08  0.0000E+00  0.6732E-10  0.0000E+00  0.2091E-08  0.0000E+00
    -42.685  0.5925E-09  0.0000E+00  0.7428E+00  0.0000E+00  0.7428E+00  0.0000E+00  0.7457E+00  0.0000E+00  0.1432E-10  0.0000E+00  0.1429E-10  0.0000E+00  0.4344E-09  0.0000E+00  0.1432E-10  0.0000E+00  0.4459E-09  0.0000E+00
    -42.464  0.0000E+00  0.0000E+00  0.0000E+00  0.0000E+00  0.0000E+00  0.0000E+00  0.0000E+00  0.0000E+00  0.0000E+00  0.0000E+00  0.0000E+00  0.0000E+00  0.0000E+00  0.0000E+00  0.0000E+00  0.0000E+00  0.0000E+00  0.0000E+00
    -42.243  0.0000E+00  0.0000E+00  0.0000E+00  0.0000E+00  0.0000E+00  0.0000E+00  0.0000E+00  0.0000E+00  0.0000E+00  0.0000E+00  0.0000E+00  0.0000E+00  0.0000E+00  0.0000E+00  0.0000E+00  0.0000E+00  0.0000E+00  0.0000E+00
    -42.021  0.0000E+00  0.0000E+00  0.0000E+00  0.0000E+00  0.0000E+00  0.0000E+00  0.0000E+00  0.0000E+00  0.0000E+00  0.0000E+00  0.0000E+00  0.0000E+00  0.0000E+00  0.0000E+00  0.0000E+00  0.0000E+00  0.0000E+00  0.0000E+00
    -41.800  0.0000E+00  0.0000E+00  0.0000E+00  0.0000E+00  0.0000E+00  0.0000E+00  0.0000E+00  0.0000E+00  0.0000E+00  0.0000E+00  0.0000E+00  0.0000E+00  0.0000E+00  0.0000E+00  0.0000E+00  0.0000E+00  0.0000E+00  0.0000E+00
    -41.578  0.0000E+00  0.0000E+00  0.0000E+00  0.0000E+00  0.0000E+00  0.0000E+00  0.0000E+00  0.0000E+00  0.0000E+00  0.0000E+00  0.0000E+00  0.0000E+00  0.0000E+00  0.0000E+00  0.0000E+00  0.0000E+00  0.0000E+00  0.0000E+00
    -41.357  0.0000E+00  0.0000E+00  0.0000E+00  0.0000E+00  0.0000E+00  0.0000E+00  0.0000E+00  0.0000E+00  0.0000E+00  0.0000E+00  0.0000E+00  0.0000E+00  0.0000E+00  0.0000E+00  0.0000E+00  0.0000E+00  0.0000E+00  0.0000E+00
    -41.136  0.0000E+00  0.0000E+00  0.0000E+00  0.0000E+00  0.0000E+00  0.0000E+00  0.0000E+00  0.0000E+00  0.0000E+00  0.0000E+00  0.0000E+00  0.0000E+00  0.0000E+00  0.0000E+00  0.0000E+00  0.0000E+00  0.0000E+00  0.0000E+00
    -40.914  0.0000E+00  0.0000E+00  0.0000E+00  0.0000E+00  0.0000E+00  0.0000E+00  0.0000E+00  0.0000E+00  0.0000E+00  0.0000E+00  0.0000E+00  0.0000E+00  0.0000E+00  0.0000E+00  0.0000E+00  0.0000E+00  0.0000E+00  0.0000E+00
    -40.693  0.0000E+00  0.0000E+00  0.0000E+00  0.0000E+00  0.0000E+00  0.0000E+00  0.0000E+00  0.0000E+00  0.0000E+00  0.0000E+00  0.0000E+00  0.0000E+00  0.0000E+00  0.0000E+00  0.0000E+00  0.0000E+00  0.0000E+00  0.0000E+00
    -40.471  0.0000E+00  0.0000E+00  0.0000E+00  0.0000E+00  0.0000E+00  0.0000E+00  0.0000E+00  0.0000E+00  0.0000E+00  0.0000E+00  0.0000E+00  0.0000E+00  0.0000E+00  0.0000E+00  0.0000E+00  0.0000E+00  0.0000E+00  0.0000E+00
    -40.250  0.0000E+00  0.0000E+00  0.0000E+00  0.0000E+00  0.0000E+00  0.0000E+00  0.0000E+00  0.0000E+00  0.0000E+00  0.0000E+00  0.0000E+00  0.0000E+00  0.0000E+00  0.0000E+00  0.0000E+00  0.0000E+00  0.0000E+00  0.0000E+00
    -40.029  0.0000E+00  0.0000E+00  0.0000E+00  0.0000E+00  0.0000E+00  0.0000E+00  0.0000E+00  0.0000E+00  0.0000E+00  0.0000E+00  0.0000E+00  0.0000E+00  0.0000E+00  0.0000E+00  0.0000E+00  0.0000E+00  0.0000E+00  0.0000E+00
    -39.807  0.0000E+00  0.8697E-12  0.0000E+00  0.6043E-03  0.0000E+00  0.6043E-03  0.0000E+00  0.6037E-03  0.0000E+00  0.2000E-13  0.0000E+00  0.1975E-13  0.0000E+00  0.7787E-12  0.0000E+00  0.2000E-13  0.0000E+00  0.7939E-12
    -39.586  0.0000E+00  0.7118E-10  0.0000E+00  0.4946E-01  0.0000E+00  0.4946E-01  0.0000E+00  0.4941E-01  0.0000E+00  0.1637E-11  0.0000E+00  0.1616E-11  0.0000E+00  0.6374E-10  0.0000E+00  0.1637E-11  0.0000E+00  0.6498E-10
    -39.364  0.0000E+00  0.3068E-08  0.0000E+00  0.2132E+01  0.0000E+00  0.2132E+01  0.0000E+00  0.2131E+01  0.0000E+00  0.7046E-10  0.0000E+00  0.6954E-10  0.0000E+00  0.2748E-08  0.0000E+00  0.7046E-10  0.0000E+00  0.2801E-08
    -39.143  0.0000E+00  0.3247E-08  0.0000E+00  0.2256E+01  0.0000E+00  0.2256E+01  0.0000E+00  0.2257E+01  0.0000E+00  0.7432E-10  0.0000E+00  0.7331E-10  0.0000E+00  0.2909E-08  0.0000E+00  0.7432E-10  0.0000E+00  0.2963E-08
    -38.922  0.0000E+00  0.0000E+00  0.0000E+00  0.0000E+00  0.0000E+00  0.0000E+00  0.0000E+00  0.0000E+00  0.0000E+00  0.0000E+00  0.0000E+00  0.0000E+00  0.0000E+00  0.0000E+00  0.0000E+00  0.0000E+00  0.0000E+00  0.0000E+00
    -38.700  0.0000E+00  0.0000E+00  0.0000E+00  0.0000E+00  0.0000E+00  0.0000E+00  0.0000E+00  0.0000E+00  0.0000E+00  0.0000E+00  0.0000E+00  0.0000E+00  0.0000E+00  0.0000E+00  0.0000E+00  0.0000E+00  0.0000E+00  0.0000E+00
    -38.479  0.0000E+00  0.0000E+00  0.0000E+00  0.0000E+00  0.0000E+00  0.0000E+00  0.0000E+00  0.0000E+00  0.0000E+00  0.0000E+00  0.0000E+00  0.0000E+00  0.0000E+00  0.0000E+00  0.0000E+00  0.0000E+00  0.0000E+00  0.0000E+00
    -38.257  0.0000E+00  0.0000E+00  0.0000E+00  0.0000E+00  0.0000E+00  0.0000E+00  0.0000E+00  0.0000E+00  0.0000E+00  0.0000E+00  0.0000E+00  0.0000E+00  0.0000E+00  0.0000E+00  0.0000E+00  0.0000E+00  0.0000E+00  0.0000E+00
    -38.036  0.0000E+00  0.0000E+00  0.0000E+00  0.0000E+00  0.0000E+00  0.0000E+00  0.0000E+00  0.0000E+00  0.0000E+00  0.0000E+00  0.0000E+00  0.0000E+00  0.0000E+00  0.0000E+00  0.0000E+00  0.0000E+00  0.0000E+00  0.0000E+00
    -37.815  0.0000E+00  0.0000E+00  0.0000E+00  0.0000E+00  0.0000E+00  0.0000E+00  0.0000E+00  0.0000E+00  0.0000E+00  0.0000E+00  0.0000E+00  0.0000E+00  0.0000E+00  0.0000E+00  0.0000E+00  0.0000E+00  0.0000E+00  0.0000E+00
    -37.593  0.0000E+00  0.0000E+00  0.0000E+00  0.0000E+00  0.0000E+00  0.0000E+00  0.0000E+00  0.0000E+00  0.0000E+00  0.0000E+00  0.0000E+00  0.0000E+00  0.0000E+00  0.0000E+00  0.0000E+00  0.0000E+00  0.0000E+00  0.0000E+00
    -37.372  0.0000E+00  0.0000E+00  0.0000E+00  0.0000E+00  0.0000E+00  0.0000E+00  0.0000E+00  0.0000E+00  0.0000E+00  0.0000E+00  0.0000E+00  0.0000E+00  0.0000E+00  0.0000E+00  0.0000E+00  0.0000E+00  0.0000E+00  0.0000E+00
    -37.150  0.0000E+00  0.0000E+00  0.0000E+00  0.0000E+00  0.0000E+00  0.0000E+00  0.0000E+00  0.0000E+00  0.0000E+00  0.0000E+00  0.0000E+00  0.0000E+00  0.0000E+00  0.0000E+00  0.0000E+00  0.0000E+00  0.0000E+00  0.0000E+00
    -36.929  0.0000E+00  0.0000E+00  0.0000E+00  0.0000E+00  0.0000E+00  0.0000E+00  0.0000E+00  0.0000E+00  0.0000E+00  0.0000E+00  0.0000E+00  0.0000E+00  0.0000E+00  0.0000E+00  0.0000E+00  0.0000E+00  0.0000E+00  0.0000E+00
    -36.708  0.0000E+00  0.0000E+00  0.0000E+00  0.0000E+00  0.0000E+00  0.0000E+00  0.0000E+00  0.0000E+00  0.0000E+00  0.0000E+00  0.0000E+00  0.0000E+00  0.0000E+00  0.0000E+00  0.0000E+00  0.0000E+00  0.0000E+00  0.0000E+00
    -36.486  0.0000E+00  0.0000E+00  0.0000E+00  0.0000E+00  0.0000E+00  0.0000E+00  0.0000E+00  0.0000E+00  0.0000E+00  0.0000E+00  0.0000E+00  0.0000E+00  0.0000E+00  0.0000E+00  0.0000E+00  0.0000E+00  0.0000E+00  0.0000E+00
    -36.265  0.0000E+00  0.0000E+00  0.0000E+00  0.0000E+00  0.0000E+00  0.0000E+00  0.0000E+00  0.0000E+00  0.0000E+00  0.0000E+00  0.0000E+00  0.0000E+00  0.0000E+00  0.0000E+00  0.0000E+00  0.0000E+00  0.0000E+00  0.0000E+00
    -36.043  0.0000E+00  0.0000E+00  0.0000E+00  0.0000E+00  0.0000E+00  0.0000E+00  0.0000E+00  0.0000E+00  0.0000E+00  0.0000E+00  0.0000E+00  0.0000E+00  0.0000E+00  0.0000E+00  0.0000E+00  0.0000E+00  0.0000E+00  0.0000E+00
    -35.822  0.0000E+00  0.0000E+00  0.0000E+00  0.0000E+00  0.0000E+00  0.0000E+00  0.0000E+00  0.0000E+00  0.0000E+00  0.0000E+00  0.0000E+00  0.0000E+00  0.0000E+00  0.0000E+00  0.0000E+00  0.0000E+00  0.0000E+00  0.0000E+00
    -35.601  0.0000E+00  0.0000E+00  0.0000E+00  0.0000E+00  0.0000E+00  0.0000E+00  0.0000E+00  0.0000E+00  0.0000E+00  0.0000E+00  0.0000E+00  0.0000E+00  0.0000E+00  0.0000E+00  0.0000E+00  0.0000E+00  0.0000E+00  0.0000E+00
    -35.379  0.0000E+00  0.0000E+00  0.0000E+00  0.0000E+00  0.0000E+00  0.0000E+00  0.0000E+00  0.0000E+00  0.0000E+00  0.0000E+00  0.0000E+00  0.0000E+00  0.0000E+00  0.0000E+00  0.0000E+00  0.0000E+00  0.0000E+00  0.0000E+00
    -35.158  0.0000E+00  0.0000E+00  0.0000E+00  0.0000E+00  0.0000E+00  0.0000E+00  0.0000E+00  0.0000E+00  0.0000E+00  0.0000E+00  0.0000E+00  0.0000E+00  0.0000E+00  0.0000E+00  0.0000E+00  0.0000E+00  0.0000E+00  0.0000E+00
    -34.936  0.0000E+00  0.0000E+00  0.0000E+00  0.0000E+00  0.0000E+00  0.0000E+00  0.0000E+00  0.0000E+00  0.0000E+00  0.0000E+00  0.0000E+00  0.0000E+00  0.0000E+00  0.0000E+00  0.0000E+00  0.0000E+00  0.0000E+00  0.0000E+00