   4   4   1   0
  0.1148883E+02  0.3581287E-09  0.3582188E-09  0.3582188E-09  0.5000000E-15
  1.000000000000000E-004
  CAR 
 unknown system                          
     29.77485146    -39.97642117  301     11.76313430      1.00000000
    -39.976  0.0000E+00  0.0000E+00  0.0000E+00  0.0000E+00
    -39.744  0.0000E+00  0.0000E+00  0.0000E+00  0.0000E+00
    -39.511  0.0000E+00  0.0000E+00  0.0000E+00  0.0000E+00
    -39.279  0.0000E+00  0.0000E+00  0.0000E+00  0.0000E+00
    -39.046  0.0000E+00  0.0000E+00  0.0000E+00  0.0000E+00
    -38.814  0.0000E+00  0.0000E+00  0.0000E+00  0.0000E+00
    -38.581  0.0000E+00  0.0000E+00  0.0000E+00  0.0000E+00
    -38.349  0.0000E+00  0.0000E+00  0.0000E+00  0.0000E+00
    -38.116  0.0000E+00  0.0000E+00  0.0000E+00  0.0000E+00
    -37.884  0.0000E+00  0.0000E+00  0.0000E+00  0.0000E+00
    -37.651  0.0000E+00  0.0000E+00  0.0000E+00  0.0000E+00
    -37.419  0.5516E-04  0.0000E+00  0.1282E-04  0.0000E+00
    -37.186  0.5711E-02  0.0000E+00  0.1341E-02  0.0000E+00
    -36.954  0.5706E+00  0.0000E+00  0.1340E+00  0.0000E+00
    -36.721  0.1013E+02  0.0000E+00  0.2489E+01  0.0000E+00
    -36.489  0.2171E+01  0.0000E+00  0.2994E+01  0.0000E+00
    -36.256  0.0000E+00  0.0000E+00  0.3000E+01  0.0000E+00
    -36.024  0.0000E+00  0.0000E+00  0.3000E+01  0.0000E+00
    -35.791  0.0000E+00  0.0000E+00  0.3000E+01  0.0000E+00
    -35.559  0.0000E+00  0.3823E-02  0.3000E+01  0.8889E-03
    -35.326  0.0000E+00  0.3841E+00  0.3000E+01  0.9019E-01
    -35.094  0.0000E+00  0.9465E+01  0.3000E+01  0.2291E+01
    -34.861  0.0000E+00  0.3012E+01  0.3000E+01  0.2991E+01
    -34.629  0.0000E+00  0.0000E+00  0.3000E+01  0.3000E+01
    -34.396  0.0000E+00  0.0000E+00  0.3000E+01  0.3000E+01
    -34.164  0.0000E+00  0.0000E+00  0.3000E+01  0.3000E+01
    -33.931  0.0000E+00  0.0000E+00  0.3000E+01  0.3000E+01
    -33.699  0.0000E+00  0.0000E+00  0.3000E+01  0.3000E+01
    -33.466  0.0000E+00  0.0000E+00  0.3000E+01  0.3000E+01
    -33.234  0.0000E+00  0.0000E+00  0.3000E+01  0.3000E+01
    -33.001  0.0000E+00  0.0000E+00  0.3000E+01  0.3000E+01
    -32.769  0.0000E+00  0.0000E+00  0.3000E+01  0.3000E+01
    -32.536  0.0000E+00  0.0000E+00  0.3000E+01  0.3000E+01
    -32.304  0.0000E+00  0.0000E+00  0.3000E+01  0.3000E+01
    -32.071  0.0000E+00  0.0000E+00  0.3000E+01  0.3000E+01
    -31.839  0.0000E+00  0.0000E+00  0.3000E+01  0.3000E+01
    -31.606  0.0000E+00  0.0000E+00  0.3000E+01  0.3000E+01
    -31.374  0.0000E+00  0.0000E+00  0.3000E+01  0.3000E+01
    -31.141  0.0000E+00  0.0000E+00  0.3000E+01  0.3000E+01
    -30.909  0.0000E+00  0.0000E+00  0.3000E+01  0.3000E+01
    -30.676  0.0000E+00  0.0000E+00  0.3000E+01  0.3000E+01
    -30.444  0.0000E+00  0.0000E+00  0.3000E+01  0.3000E+01
    -30.211  0.0000E+00  0.0000E+00  0.3000E+01  0.3000E+01
    -29.979  0.0000E+00  0.0000E+00  0.3000E+01  0.3000E+01
    -29.746  0.0000E+00  0.0000E+00  0.3000E+01  0.3000E+01
    -29.514  0.0000E+00  0.0000E+00  0.3000E+01  0.3000E+01
    -29.281  0.0000E+00  0.0000E+00  0.3000E+01  0.3000E+01
    -29.049  0.0000E+00  0.0000E+00  0.3000E+01  0.3000E+01
    -28.816  0.0000E+00  0.0000E+00  0.3000E+01  0.3000E+01
    -28.584  0.0000E+00  0.0000E+00  0.3000E+01  0.3000E+01
    -28.351  0.0000E+00  0.0000E+00  0.3000E+01  0.3000E+01
    -28.119  0.0000E+00  0.0000E+00  0.3000E+01  0.3000E+01
    -27.886  0.0000E+00  0.0000E+00  0.3000E+01  0.3000E+01
    -27.654  0.0000E+00  0.0000E+00  0.3000E+01  0.3000E+01
    -27.421  0.0000E+00  0.0000E+00  0.3000E+01  0.3000E+01
    -27.189  0.0000E+00  0.0000E+00  0.3000E+01  0.3000E+01
    -26.956  0.0000E+00  0.0000E+00  0.3000E+01  0.3000E+01
    -26.724  0.0000E+00  0.0000E+00  0.3000E+01  0.3000E+01
    -26.491  0.0000E+00  0.0000E+00  0.3000E+01  0.3000E+01
    -26.259  0.0000E+00  0.0000E+00  0.3000E+01  0.3000E+01
    -26.026  0.0000E+00  0.0000E+00  0.3000E+01  0.3000E+01
    -25.794  0.0000E+00  0.0000E+00  0.3000E+01  0.3000E+01
    -25.561  0.0000E+00  0.0000E+00  0.3000E+01  0.3000E+01
    -25.329  0.0000E+00  0.0000E+00  0.3000E+01  0.3000E+01
    -25.096  0.0000E+00  0.0000E+00  0.3000E+01  0.3000E+01
    -24.864  0.0000E+00  0.0000E+00  0.3000E+01  0.3000E+01
    -24.631  0.0000E+00  0.0000E+00  0.3000E+01  0.3000E+01
    -24.399  0.0000E+00  0.0000E+00  0.3000E+01  0.3000E+01
    -24.166  0.0000E+00  0.0000E+00  0.3000E+01  0.3000E+01
    -23.934  0.0000E+00  0.0000E+00  0.3000E+01  0.3000E+01
    -23.701  0.0000E+00  0.0000E+00  0.3000E+01  0.3000E+01
    -23.469  0.0000E+00  0.0000E+00  0.3000E+01  0.3000E+01
    -23.236  0.0000E+00  0.0000E+00  0.3000E+01  0.3000E+01
    -23.004  0.0000E+00  0.0000E+00  0.3000E+01  0.3000E+01
    -22.771  0.0000E+00  0.0000E+00  0.3000E+01  0.3000E+01
    -22.539  0.0000E+00  0.0000E+00  0.3000E+01  0.3000E+01
    -22.306  0.0000E+00  0.0000E+00  0.3000E+01  0.3000E+01
    -22.074  0.0000E+00  0.0000E+00  0.3000E+01  0.3000E+01
    -21.841  0.0000E+00  0.0000E+00  0.3000E+01  0.3000E+01
    -21.609  0.0000E+00  0.0000E+00  0.3000E+01  0.3000E+01
    -21.376  0.0000E+00  0.0000E+00  0.3000E+01  0.3000E+01
    -21.144  0.0000E+00  0.0000E+00  0.3000E+01  0.3000E+01
    -20.911  0.0000E+00  0.0000E+00  0.3000E+01  0.3000E+01
    -20.679  0.0000E+00  0.0000E+00  0.3000E+01  0.3000E+01
    -20.446  0.0000E+00  0.0000E+00  0.3000E+01  0.3000E+01
    -20.214  0.0000E+00  0.0000E+00  0.3000E+01  0.3000E+01
    -19.981  0.0000E+00  0.0000E+00  0.3000E+01  0.3000E+01
    -19.749  0.0000E+00  0.0000E+00  0.3000E+01  0.3000E+01
    -19.516  0.0000E+00  0.0000E+00  0.3000E+01  0.3000E+01
    -19.284  0.0000E+00  0.0000E+00  0.3000E+01  0.3000E+01
    -19.051  0.0000E+00  0.0000E+00  0.3000E+01  0.3000E+01
    -18.819  0.0000E+00  0.0000E+00  0.3000E+01  0.3000E+01
    -18.586  0.0000E+00  0.0000E+00  0.3000E+01  0.3000E+01
    -18.354  0.0000E+00  0.0000E+00  0.3000E+01  0.3000E+01
    -18.121  0.0000E+00  0.0000E+00  0.3000E+01  0.3000E+01
    -17.889  0.0000E+00  0.0000E+00  0.3000E+01  0.3000E+01
    -17.656  0.0000E+00  0.0000E+00  0.3000E+01  0.3000E+01
    -17.424  0.0000E+00  0.0000E+00  0.3000E+01  0.3000E+01
    -17.191  0.0000E+00  0.0000E+00  0.3000E+01  0.3000E+01
    -16.959  0.0000E+00  0.0000E+00  0.3000E+01  0.3000E+01
    -16.726  0.0000E+00  0.0000E+00  0.3000E+01  0.3000E+01
    -16.493  0.0000E+00  0.0000E+00  0.3000E+01  0.3000E+01
    -16.261  0.0000E+00  0.0000E+00  0.3000E+01  0.3000E+01
    -16.028  0.0000E+00  0.0000E+00  0.3000E+01  0.3000E+01
    -15.796  0.0000E+00  0.0000E+00  0.3000E+01  0.3000E+01
    -15.563  0.0000E+00  0.0000E+00  0.3000E+01  0.3000E+01
    -15.331  0.0000E+00  0.0000E+00  0.3000E+01  0.3000E+01
    -15.098  0.0000E+00  0.0000E+00  0.3000E+01  0.3000E+01
    -14.866  0.0000E+00  0.0000E+00  0.3000E+01  0.3000E+01
    -14.633  0.0000E+00  0.0000E+00  0.3000E+01  0.3000E+01
    -14.401  0.0000E+00  0.0000E+00  0.3000E+01  0.3000E+01
    -14.168  0.0000E+00  0.0000E+00  0.3000E+01  0.3000E+01
    -13.936  0.0000E+00  0.0000E+00  0.3000E+01  0.3000E+01
    -13.703  0.0000E+00  0.0000E+00  0.3000E+01  0.3000E+01
    -13.471  0.0000E+00  0.0000E+00  0.3000E+01  0.3000E+01
    -13.238  0.0000E+00  0.0000E+00  0.3000E+01  0.3000E+01
    -13.006  0.0000E+00  0.0000E+00  0.3000E+01  0.3000E+01
    -12.773  0.0000E+00  0.0000E+00  0.3000E+01  0.3000E+01
    -12.541  0.0000E+00  0.0000E+00  0.3000E+01  0.3000E+01
    -12.308  0.0000E+00  0.0000E+00  0.3000E+01  0.3000E+01
    -12.076  0.0000E+00  0.0000E+00  0.3000E+01  0.3000E+01
    -11.843  0.0000E+00  0.0000E+00  0.3000E+01  0.3000E+01
    -11.611  0.0000E+00  0.0000E+00  0.3000E+01  0.3000E+01
    -11.378  0.0000E+00  0.0000E+00  0.3000E+01  0.3000E+01
    -11.146  0.0000E+00  0.0000E+00  0.3000E+01  0.3000E+01
    -10.913  0.0000E+00  0.0000E+00  0.3000E+01  0.3000E+01
    -10.681  0.0000E+00  0.0000E+00  0.3000E+01  0.3000E+01
    -10.448  0.0000E+00  0.0000E+00  0.3000E+01  0.3000E+01
    -10.216  0.0000E+00  0.0000E+00  0.3000E+01  0.3000E+01
     -9.983  0.0000E+00  0.0000E+00  0.3000E+01  0.3000E+01
     -9.751  0.0000E+00  0.0000E+00  0.3000E+01  0.3000E+01
     -9.518  0.0000E+00  0.0000E+00  0.3000E+01  0.3000E+01
     -9.286  0.0000E+00  0.0000E+00  0.3000E+01  0.3000E+01
     -9.053  0.0000E+00  0.0000E+00  0.3000E+01  0.3000E+01
     -8.821  0.0000E+00  0.0000E+00  0.3000E+01  0.3000E+01
     -8.588  0.0000E+00  0.0000E+00  0.3000E+01  0.3000E+01
     -8.356  0.0000E+00  0.0000E+00  0.3000E+01  0.3000E+01
     -8.123  0.0000E+00  0.0000E+00  0.3000E+01  0.3000E+01
     -7.891  0.0000E+00  0.0000E+00  0.3000E+01  0.3000E+01
     -7.658  0.0000E+00  0.0000E+00  0.3000E+01  0.3000E+01
     -7.426  0.0000E+00  0.0000E+00  0.3000E+01  0.3000E+01
     -7.193  0.0000E+00  0.0000E+00  0.3000E+01  0.3000E+01
     -6.961  0.0000E+00  0.0000E+00  0.3000E+01  0.3000E+01
     -6.728  0.0000E+00  0.0000E+00  0.3000E+01  0.3000E+01
     -6.496  0.0000E+00  0.0000E+00  0.3000E+01  0.3000E+01
     -6.263  0.0000E+00  0.0000E+00  0.3000E+01  0.3000E+01
     -6.031  0.0000E+00  0.0000E+00  0.3000E+01  0.3000E+01
     -5.798  0.0000E+00  0.0000E+00  0.3000E+01  0.3000E+01
     -5.566  0.0000E+00  0.0000E+00  0.3000E+01  0.3000E+01
     -5.333  0.0000E+00  0.0000E+00  0.3000E+01  0.3000E+01
     -5.101  0.0000E+00  0.0000E+00  0.3000E+01  0.3000E+01
     -4.868  0.0000E+00  0.0000E+00  0.3000E+01  0.3000E+01
     -4.636  0.0000E+00  0.0000E+00  0.3000E+01  0.3000E+01
     -4.403  0.0000E+00  0.0000E+00  0.3000E+01  0.3000E+01
     -4.171  0.0000E+00  0.0000E+00  0.3000E+01  0.3000E+01
     -3.938  0.0000E+00  0.0000E+00  0.3000E+01  0.3000E+01
     -3.706  0.0000E+00  0.0000E+00  0.3000E+01  0.3000E+01
     -3.473  0.0000E+00  0.0000E+00  0.3000E+01  0.3000E+01
     -3.241  0.0000E+00  0.0000E+00  0.3000E+01  0.3000E+01
     -3.008  0.0000E+00  0.0000E+00  0.3000E+01  0.3000E+01
     -2.776  0.0000E+00  0.0000E+00  0.3000E+01  0.3000E+01
     -2.543  0.0000E+00  0.0000E+00  0.3000E+01  0.3000E+01
     -2.311  0.0000E+00  0.0000E+00  0.3000E+01  0.3000E+01
     -2.078  0.0000E+00  0.0000E+00  0.3000E+01  0.3000E+01
     -1.846  0.0000E+00  0.0000E+00  0.3000E+01  0.3000E+01
     -1.613  0.1381E-07  0.0000E+00  0.3000E+01  0.3000E+01
     -1.381  0.4845E-05  0.1656E-05  0.3000E+01  0.3000E+01
     -1.148  0.4959E-03  0.1725E-03  0.3000E+01  0.3000E+01
     -0.916  0.1951E-01  0.1042E-01  0.3005E+01  0.3002E+01
     -0.683  0.7036E-01  0.5825E-01  0.3021E+01  0.3016E+01
     -0.451  0.9988E-01  0.9906E-01  0.3044E+01  0.3039E+01
     -0.218  0.1410E+00  0.1324E+00  0.3077E+01  0.3070E+01
      0.014  0.1494E+00  0.1505E+00  0.3112E+01  0.3105E+01
      0.247  0.1806E+00  0.1649E+00  0.3154E+01  0.3144E+01
      0.479  0.2015E+00  0.2094E+00  0.3201E+01  0.3193E+01
      0.712  0.1901E+00  0.1742E+00  0.3246E+01  0.3233E+01
      0.944  0.2654E+00  0.2647E+00  0.3308E+01  0.3295E+01
      1.177  0.2153E+00  0.2250E+00  0.3358E+01  0.3348E+01
      1.409  0.3127E+00  0.3115E+00  0.3432E+01  0.3421E+01
      1.642  0.2918E+00  0.2942E+00  0.3500E+01  0.3490E+01
      1.874  0.3456E+00  0.3405E+00  0.3581E+01  0.3570E+01
      2.107  0.2413E+00  0.2617E+00  0.3637E+01  0.3631E+01
      2.339  0.3083E+00  0.2930E+00  0.3710E+01  0.3700E+01
      2.572  0.2816E+00  0.2541E+00  0.3776E+01  0.3759E+01
      2.804  0.3852E+00  0.3366E+00  0.3865E+01  0.3838E+01
      3.037  0.2825E+00  0.3181E+00  0.3932E+01  0.3912E+01
      3.269  0.3581E+00  0.3375E+00  0.4015E+01  0.3991E+01
      3.502  0.3241E+00  0.3021E+00  0.4091E+01  0.4062E+01
      3.734  0.4320E+00  0.4062E+00  0.4192E+01  0.4157E+01
      3.967  0.2722E+00  0.3098E+00  0.4256E+01  0.4229E+01
      4.199  0.4055E+00  0.3546E+00  0.4351E+01  0.4312E+01
      4.432  0.3874E+00  0.3586E+00  0.4441E+01  0.4396E+01
      4.664  0.4941E+00  0.4441E+00  0.4556E+01  0.4500E+01
      4.897  0.4917E+00  0.4941E+00  0.4672E+01  0.4616E+01
      5.129  0.4638E+00  0.4968E+00  0.4780E+01  0.4733E+01
      5.362  0.4766E+00  0.4200E+00  0.4892E+01  0.4831E+01
      5.594  0.5596E+00  0.5450E+00  0.5023E+01  0.4959E+01
      5.827  0.6692E+00  0.5186E+00  0.5180E+01  0.5081E+01
      6.059  0.5328E+00  0.5718E+00  0.5305E+01  0.5215E+01
      6.292  0.5992E+00  0.5576E+00  0.5446E+01  0.5346E+01
      6.524  0.6280E+00  0.5083E+00  0.5593E+01  0.5464E+01
      6.757  0.6536E+00  0.5460E+00  0.5746E+01  0.5592E+01
      6.989  0.6962E+00  0.6344E+00  0.5909E+01  0.5740E+01
      7.222  0.8763E+00  0.6672E+00  0.6114E+01  0.5896E+01
      7.454  0.9087E+00  0.7031E+00  0.6327E+01  0.6060E+01
      7.687  0.1167E+01  0.7059E+00  0.6599E+01  0.6225E+01
      7.919  0.1157E+01  0.8015E+00  0.6870E+01  0.6413E+01
      8.152  0.1282E+01  0.9352E+00  0.7170E+01  0.6632E+01
      8.384  0.1189E+01  0.8780E+00  0.7448E+01  0.6838E+01
      8.617  0.1515E+01  0.1104E+01  0.7802E+01  0.7096E+01
      8.849  0.1390E+01  0.1080E+01  0.8129E+01  0.7349E+01
      9.082  0.1215E+01  0.1269E+01  0.8413E+01  0.7647E+01
      9.314  0.9683E+00  0.1544E+01  0.8642E+01  0.8007E+01
      9.547  0.9395E+00  0.9534E+00  0.8863E+01  0.8233E+01
      9.779  0.8027E+00  0.8458E+00  0.9051E+01  0.8431E+01
     10.012  0.9505E+00  0.8100E+00  0.9274E+01  0.8621E+01
     10.244  0.1512E+01  0.7609E+00  0.9627E+01  0.8800E+01
     10.477  0.3335E+01  0.7225E+00  0.1040E+02  0.8969E+01
     10.710  0.2070E+01  0.6227E+00  0.1089E+02  0.9114E+01
     10.942  0.1299E+01  0.7366E+00  0.1119E+02  0.9287E+01
     11.175  0.9714E+00  0.9728E+00  0.1142E+02  0.9514E+01
     11.407  0.8688E+00  0.1198E+01  0.1163E+02  0.9794E+01
     11.640  0.5913E+00  0.1168E+01  0.1177E+02  0.1007E+02
     11.872  0.5448E+00  0.9135E+00  0.1189E+02  0.1028E+02
     12.105  0.6002E+00  0.1754E+01  0.1203E+02  0.1069E+02
     12.337  0.4493E+00  0.2905E+01  0.1214E+02  0.1137E+02
     12.570  0.5491E+00  0.2105E+01  0.1227E+02  0.1186E+02
     12.802  0.7421E+00  0.9213E+00  0.1244E+02  0.1209E+02
     13.035  0.8449E+00  0.5393E+00  0.1264E+02  0.1221E+02
     13.267  0.1271E+01  0.7521E+00  0.1293E+02  0.1239E+02
     13.500  0.1060E+01  0.8467E+00  0.1318E+02  0.1259E+02
     13.732  0.6662E+00  0.8918E+00  0.1334E+02  0.1279E+02
     13.965  0.7300E+00  0.9981E+00  0.1351E+02  0.1303E+02
     14.197  0.5194E+00  0.9610E+00  0.1363E+02  0.1325E+02
     14.430  0.6338E+00  0.9062E+00  0.1378E+02  0.1346E+02
     14.662  0.6781E+00  0.6471E+00  0.1394E+02  0.1362E+02
     14.895  0.5918E+00  0.8087E+00  0.1408E+02  0.1380E+02
     15.127  0.7446E+00  0.8169E+00  0.1425E+02  0.1400E+02
     15.360  0.1036E+01  0.7769E+00  0.1449E+02  0.1418E+02
     15.592  0.1021E+01  0.1028E+01  0.1473E+02  0.1442E+02
     15.825  0.1030E+01  0.1140E+01  0.1498E+02  0.1468E+02
     16.057  0.5387E+00  0.7785E+00  0.1510E+02  0.1487E+02
     16.290  0.8007E+00  0.5516E+00  0.1529E+02  0.1500E+02
     16.522  0.6461E+00  0.6428E+00  0.1544E+02  0.1515E+02
     16.755  0.7892E+00  0.6445E+00  0.1562E+02  0.1530E+02
     16.987  0.6767E+00  0.9861E+00  0.1578E+02  0.1553E+02
     17.220  0.1019E+01  0.8493E+00  0.1602E+02  0.1573E+02
     17.452  0.5343E+00  0.7196E+00  0.1615E+02  0.1590E+02
     17.685  0.7330E+00  0.7627E+00  0.1632E+02  0.1607E+02
     17.917  0.8401E+00  0.7076E+00  0.1652E+02  0.1624E+02
     18.150  0.6334E+00  0.1060E+01  0.1666E+02  0.1649E+02
     18.382  0.8315E+00  0.7904E+00  0.1686E+02  0.1667E+02
     18.615  0.7727E+00  0.8233E+00  0.1704E+02  0.1687E+02
     18.847  0.8892E+00  0.9525E+00  0.1725E+02  0.1709E+02
     19.080  0.1036E+01  0.9253E+00  0.1749E+02  0.1731E+02
     19.312  0.8764E+00  0.9578E+00  0.1769E+02  0.1753E+02
     19.545  0.9293E+00  0.1068E+01  0.1791E+02  0.1778E+02
     19.777  0.6889E+00  0.8769E+00  0.1807E+02  0.1799E+02
     20.010  0.7829E+00  0.6221E+00  0.1826E+02  0.1813E+02
     20.242  0.7652E+00  0.8165E+00  0.1843E+02  0.1832E+02
     20.475  0.6162E+00  0.6606E+00  0.1858E+02  0.1848E+02
     20.707  0.9054E+00  0.9245E+00  0.1879E+02  0.1869E+02
     20.940  0.8567E+00  0.7397E+00  0.1899E+02  0.1887E+02
     21.172  0.8560E+00  0.9378E+00  0.1919E+02  0.1909E+02
     21.405  0.5217E+00  0.4986E+00  0.1931E+02  0.1920E+02
     21.637  0.3801E+00  0.6126E+00  0.1940E+02  0.1935E+02
     21.870  0.4045E+00  0.4689E+00  0.1950E+02  0.1946E+02
     22.102  0.4115E+00  0.4684E+00  0.1959E+02  0.1957E+02
     22.335  0.3153E+00  0.3860E+00  0.1967E+02  0.1966E+02
     22.567  0.2290E+00  0.2131E+00  0.1972E+02  0.1971E+02
     22.800  0.1881E+00  0.2071E+00  0.1977E+02  0.1976E+02
     23.032  0.1470E+00  0.1615E+00  0.1980E+02  0.1980E+02
     23.265  0.1887E+00  0.2047E+00  0.1984E+02  0.1984E+02
     23.497  0.2948E-01  0.2691E-01  0.1985E+02  0.1985E+02
     23.730  0.2063E+00  0.2065E+00  0.1990E+02  0.1990E+02
     23.962  0.1262E+00  0.1544E+00  0.1993E+02  0.1993E+02
     24.195  0.5328E-01  0.3792E-01  0.1994E+02  0.1994E+02
     24.427  0.3630E-01  0.3863E-01  0.1995E+02  0.1995E+02
     24.660  0.2086E-01  0.2999E-01  0.1995E+02  0.1996E+02
     24.892  0.9116E-01  0.7971E-01  0.1998E+02  0.1998E+02
     25.125  0.8035E-01  0.7748E-01  0.1999E+02  0.2000E+02
     25.357  0.5944E-02  0.1531E-02  0.2000E+02  0.2000E+02
     25.590  0.0000E+00  0.0000E+00  0.2000E+02  0.2000E+02
     25.822  0.0000E+00  0.0000E+00  0.2000E+02  0.2000E+02
     26.055  0.7288E-06  0.2639E-06  0.2000E+02  0.2000E+02
     26.287  0.7513E-04  0.2729E-04  0.2000E+02  0.2000E+02
     26.520  0.5208E-02  0.2410E-02  0.2000E+02  0.2000E+02
     26.752  0.1009E-01  0.1245E-01  0.2000E+02  0.2000E+02
     26.985  0.0000E+00  0.7644E-03  0.2000E+02  0.2000E+02
     27.217  0.0000E+00  0.0000E+00  0.2000E+02  0.2000E+02
     27.450  0.0000E+00  0.0000E+00  0.2000E+02  0.2000E+02
     27.682  0.0000E+00  0.0000E+00  0.2000E+02  0.2000E+02
     27.915  0.0000E+00  0.0000E+00  0.2000E+02  0.2000E+02
     28.147  0.0000E+00  0.0000E+00  0.2000E+02  0.2000E+02
     28.380  0.0000E+00  0.0000E+00  0.2000E+02  0.2000E+02
     28.612  0.0000E+00  0.0000E+00  0.2000E+02  0.2000E+02
     28.845  0.0000E+00  0.0000E+00  0.2000E+02  0.2000E+02
     29.077  0.0000E+00  0.0000E+00  0.2000E+02  0.2000E+02
     29.310  0.0000E+00  0.0000E+00  0.2000E+02  0.2000E+02
     29.542  0.0000E+00  0.0000E+00  0.2000E+02  0.2000E+02
     29.775  0.0000E+00  0.0000E+00  0.2000E+02  0.2000E+02
     29.77485146    -39.97642117  301     11.76313430      1.00000000
    -39.976  0.0000E+00  0.0000E+00  0.0000E+00  0.0000E+00  0.0000E+00  0.0000E+00  0.0000E+00  0.0000E+00  0.0000E+00  0.0000E+00  0.0000E+00  0.0000E+00  0.0000E+00  0.0000E+00  0.0000E+00  0.0000E+00  0.0000E+00  0.0000E+00
    -39.744  0.0000E+00  0.0000E+00  0.0000E+00  0.0000E+00  0.0000E+00  0.0000E+00  0.0000E+00  0.0000E+00  0.0000E+00  0.0000E+00  0.0000E+00  0.0000E+00  0.0000E+00  0.0000E+00  0.0000E+00  0.0000E+00  0.0000E+00  0.0000E+00
    -39.511  0.0000E+00  0.0000E+00  0.0000E+00  0.0000E+00  0.0000E+00  0.0000E+00  0.0000E+00  0.0000E+00  0.0000E+00  0.0000E+00  0.0000E+00  0.0000E+00  0.0000E+00  0.0000E+00  0.0000E+00  0.0000E+00  0.0000E+00  0.0000E+00
    -39.279  0.0000E+00  0.0000E+00  0.0000E+00  0.0000E+00  0.0000E+00  0.0000E+00  0.0000E+00  0.0000E+00  0.0000E+00  0.0000E+00  0.0000E+00  0.0000E+00  0.0000E+00  0.0000E+00  0.0000E+00  0.0000E+00  0.0000E+00  0.0000E+00
    -39.046  0.0000E+00  0.0000E+00  0.0000E+00  0.0000E+00  0.0000E+00  0.0000E+00  0.0000E+00  0.0000E+00  0.0000E+00  0.0000E+00  0.0000E+00  0.0000E+00  0.0000E+00  0.0000E+00  0.0000E+00  0.0000E+00  0.0000E+00  0.0000E+00
    -38.814  0.0000E+00  0.0000E+00  0.0000E+00  0.0000E+00  0.0000E+00  0.0000E+00  0.0000E+00  0.0000E+00  0.0000E+00  0.0000E+00  0.0000E+00  0.0000E+00  0.0000E+00  0.0000E+00  0.0000E+00  0.0000E+00  0.0000E+00  0.0000E+00
    -38.581  0.0000E+00  0.0000E+00  0.0000E+00  0.0000E+00  0.0000E+00  0.0000E+00  0.0000E+00  0.0000E+00  0.0000E+00  0.0000E+00  0.0000E+00  0.0000E+00  0.0000E+00  0.0000E+00  0.0000E+00  0.0000E+00  0.0000E+00  0.0000E+00
    -38.349  0.0000E+00  0.0000E+00  0.0000E+00  0.0000E+00  0.0000E+00  0.0000E+00  0.0000E+00  0.0000E+00  0.0000E+00  0.0000E+00  0.0000E+00  0.0000E+00  0.0000E+00  0.0000E+00  0.0000E+00  0.0000E+00  0.0000E+00  0.0000E+00
    -38.116  0.0000E+00  0.0000E+00  0.0000E+00  0.0000E+00  0.0000E+00  0.0000E+00  0.0000E+00  0.0000E+00  0.0000E+00  0.0000E+00  0.0000E+00  0.0000E+00  0.0000E+00  0.0000E+00  0.0000E+00  0.0000E+00  0.0000E+00  0.0000E+00
    -37.884  0.0000E+00  0.0000E+00  0.0000E+00  0.0000E+00  0.0000E+00  0.0000E+00  0.0000E+00  0.0000E+00  0.0000E+00  0.0000E+00  0.0000E+00  0.0000E+00  0.0000E+00  0.0000E+00  0.0000E+00  0.0000E+00  0.0000E+00  0.0000E+00
    -37.651  0.0000E+00  0.0000E+00  0.0000E+00  0.0000E+00  0.0000E+00  0.0000E+00  0.0000E+00  0.0000E+00  0.0000E+00  0.0000E+00  0.0000E+00  0.0000E+00  0.0000E+00  0.0000E+00  0.0000E+00  0.0000E+00  0.0000E+00  0.0000E+00
    -37.419  0.1614E-11  0.0000E+00  0.1829E-04  0.0000E+00  0.1829E-04  0.0000E+00  0.1824E-04  0.0000E+00  0.3634E-13  0.0000E+00  0.3628E-13  0.0000E+00  0.1157E-11  0.0000E+00  0.3634E-13  0.0000E+00  0.1175E-11  0.0000E+00
    -37.186  0.1672E-09  0.0000E+00  0.1894E-02  0.0000E+00  0.1894E-02  0.0000E+00  0.1888E-02  0.0000E+00  0.3763E-11  0.0000E+00  0.3757E-11  0.0000E+00  0.1199E-09  0.0000E+00  0.3763E-11  0.0000E+00  0.1216E-09  0.0000E+00
    -36.954  0.1670E-07  0.0000E+00  0.1892E+00  0.0000E+00  0.1892E+00  0.0000E+00  0.1887E+00  0.0000E+00  0.3756E-09  0.0000E+00  0.3750E-09  0.0000E+00  0.1198E-07  0.0000E+00  0.3756E-09  0.0000E+00  0.1215E-07  0.0000E+00
    -36.721  0.2959E-06  0.0000E+00  0.3356E+01  0.0000E+00  0.3356E+01  0.0000E+00  0.3355E+01  0.0000E+00  0.6566E-08  0.0000E+00  0.6548E-08  0.0000E+00  0.2135E-06  0.0000E+00  0.6566E-08  0.0000E+00  0.2158E-06  0.0000E+00
    -36.489  0.6313E-07  0.0000E+00  0.7185E+00  0.0000E+00  0.7185E+00  0.0000E+00  0.7201E+00  0.0000E+00  0.1381E-08  0.0000E+00  0.1376E-08  0.0000E+00  0.4585E-07  0.0000E+00  0.1381E-08  0.0000E+00  0.4615E-07  0.0000E+00
    -36.256  0.0000E+00  0.0000E+00  0.0000E+00  0.0000E+00  0.0000E+00  0.0000E+00  0.0000E+00  0.0000E+00  0.0000E+00  0.0000E+00  0.0000E+00  0.0000E+00  0.0000E+00  0.0000E+00  0.0000E+00  0.0000E+00  0.0000E+00  0.0000E+00
    -36.024  0.0000E+00  0.0000E+00  0.0000E+00  0.0000E+00  0.0000E+00  0.0000E+00  0.0000E+00  0.0000E+00  0.0000E+00  0.0000E+00  0.0000E+00  0.0000E+00  0.0000E+00  0.0000E+00  0.0000E+00  0.0000E+00  0.0000E+00  0.0000E+00
    -35.791  0.0000E+00  0.0000E+00  0.0000E+00  0.0000E+00  0.0000E+00  0.0000E+00  0.0000E+00  0.0000E+00  0.0000E+00  0.0000E+00  0.0000E+00  0.0000E+00  0.0000E+00  0.0000E+00  0.0000E+00  0.0000E+00  0.0000E+00  0.0000E+00
    -35.559  0.0000E+00  0.1435E-09  0.0000E+00  0.1268E-02  0.0000E+00  0.1268E-02  0.0000E+00  0.1263E-02  0.0000E+00  0.3507E-11  0.0000E+00  0.3505E-11  0.0000E+00  0.1031E-09  0.0000E+00  0.3507E-11  0.0000E+00  0.1048E-09
    -35.326  0.0000E+00  0.1441E-07  0.0000E+00  0.1274E+00  0.0000E+00  0.1274E+00  0.0000E+00  0.1269E+00  0.0000E+00  0.3521E-09  0.0000E+00  0.3519E-09  0.0000E+00  0.1036E-07  0.0000E+00  0.3521E-09  0.0000E+00  0.1053E-07
    -35.094  0.0000E+00  0.3544E-06  0.0000E+00  0.3136E+01  0.0000E+00  0.3136E+01  0.0000E+00  0.3134E+01  0.0000E+00  0.8548E-08  0.0000E+00  0.8532E-08  0.0000E+00  0.2564E-06  0.0000E+00  0.8548E-08  0.0000E+00  0.2594E-06
    -34.861  0.0000E+00  0.1122E-06  0.0000E+00  0.9968E+00  0.0000E+00  0.9968E+00  0.0000E+00  0.9996E+00  0.0000E+00  0.2668E-08  0.0000E+00  0.2658E-08  0.0000E+00  0.8179E-07  0.0000E+00  0.2668E-08  0.0000E+00  0.8235E-07
    -34.629  0.0000E+00  0.0000E+00  0.0000E+00  0.0000E+00  0.0000E+00  0.0000E+00  0.0000E+00  0.0000E+00  0.0000E+00  0.0000E+00  0.0000E+00  0.0000E+00  0.0000E+00  0.0000E+00  0.0000E+00  0.0000E+00  0.0000E+00  0.0000E+00
    -34.396  0.0000E+00  0.0000E+00  0.0000E+00  0.0000E+00  0.0000E+00  0.0000E+00  0.0000E+00  0.0000E+00  0.0000E+00  0.0000E+00  0.0000E+00  0.0000E+00  0.0000E+00  0.0000E+00  0.0000E+00  0.0000E+00  0.0000E+00  0.0000E+00
    -34.164  0.0000E+00  0.0000E+00  0.0000E+00  0.0000E+00  0.0000E+00  0.0000E+00  0.0000E+00  0.0000E+00  0.0000E+00  0.0000E+00  0.0000E+00  0.0000E+00  0.0000E+00  0.0000E+00  0.0000E+00  0.0000E+00  0.0000E+00  0.0000E+00
    -33.931  0.0000E+00  0.0000E+00  0.0000E+00  0.0000E+00  0.0000E+00  0.0000E+00  0.0000E+00  0.0000E+00  0.0000E+00  0.0000E+00  0.0000E+00  0.0000E+00  0.0000E+00  0.0000E+00  0.0000E+00  0.0000E+00  0.0000E+00  0.0000E+00
    -33.699  0.0000E+00  0.0000E+00  0.0000E+00  0.0000E+00  0.0000E+00  0.0000E+00  0.0000E+00  0.0000E+00  0.0000E+00  0.0000E+00  0.0000E+00  0.0000E+00  0.0000E+00  0.0000E+00  0.0000E+00  0.0000E+00  0.0000E+00  0.0000E+00
    -33.466  0.0000E+00  0.0000E+00  0.0000E+00  0.0000E+00  0.0000E+00  0.0000E+00  0.0000E+00  0.0000E+00  0.0000E+00  0.0000E+00  0.0000E+00  0.0000E+00  0.0000E+00  0.0000E+00  0.0000E+00  0.0000E+00  0.0000E+00  0.0000E+00
    -33.234  0.0000E+00  0.0000E+00  0.0000E+00  0.0000E+00  0.0000E+00  0.0000E+00  0.0000E+00  0.0000E+00  0.0000E+00  0.0000E+00  0.0000E+00  0.0000E+00  0.0000E+00  0.0000E+00  0.0000E+00  0.0000E+00  0.0000E+00  0.0000E+00
    -33.001  0.0000E+00  0.0000E+00  0.0000E+00  0.0000E+00  0.0000E+00  0.0000E+00  0.0000E+00  0.0000E+00  0.0000E+00  0.0000E+00  0.0000E+00  0.0000E+00  0.0000E+00  0.0000E+00  0.0000E+00  0.0000E+00  0.0000E+00  0.0000E+00
    -32.769  0.0000E+00  0.0000E+00  0.0000E+00  0.0000E+00  0.0000E+00  0.0000E+00  0.0000E+00  0.0000E+00  0.0000E+00  0.0000E+00  0.0000E+00  0.0000E+00  0.0000E+00  0.0000E+00  0.0000E+00  0.0000E+00  0.0000E+00  0.0000E+00
    -32.536  0.0000E+00  0.0000E+00  0.0000E+00  0.0000E+00  0.0000E+00  0.0000E+00  0.0000E+00  0.0000E+00  0.0000E+00  0.0000E+00  0.0000E+00  0.0000E+00  0.0000E+00  0.0000E+00  0.0000E+00  0.0000E+00  0.0000E+00  0.0000E+00
    -32.304  0.0000E+00  0.0000E+00  0.0000E+00  0.0000E+00  0.0000E+00  0.0000E+00  0.0000E+00  0.0000E+00  0.0000E+00  0.0000E+00  0.0000E+00  0.0000E+00  0.0000E+00  0.0000E+00  0.0000E+00  0.0000E+00  0.0000E+00  0.0000E+00
    -32.071  0.0000E+00  0.0000E+00  0.0000E+00  0.0000E+00  0.0000E+00  0.0000E+00  0.0000E+00  0.0000E+00  0.0000E+00  0.0000E+00  0.0000E+00  0.0000E+00  0.0000E+00  0.0000E+00  0.0000E+00  0.0000E+00  0.0000E+00  0.0000E+00
    -31.839  0.0000E+00  0.0000E+00  0.0000E+00  0.0000E+00  0.0000E+00  0.0000E+00  0.0000E+00  0.0000E+00  0.0000E+00  0.0000E+00  0.0000E+00  0.0000E+00  0.0000E+00  0.0000E+00  0.0000E+00  0.0000E+00  0.0000E+00  0.0000E+00
    -31.606  0.0000E+00  0.0000E+00  0.0000E+00  0.0000E+00  0.0000E+00  0.0000E+00  0.0000E+00  0.0000E+00  0.0000E+00  0.0000E+00  0.0000E+00  0.0000E+00  0.0000E+00  0.0000E+00  0.0000E+00  0.0000E+00  0.0000E+00  0.0000E+00
    -31.374  0.0000E+00  0.0000E+00  0.0000E+00  0.0000E+00  0.0000E+00  0.0000E+00  0.0000E+00  0.0000E+00  0.0000E+00  0.0000E+00  0.0000E+00  0.0000E+00  0.0000E+00  0.0000E+00  0.0000E+00  0.0000E+00  0.0000E+00  0.0000E+00
    -31.141  0.0000E+00  0.0000E+00  0.0000E+00  0.0000E+00  0.0000E+00  0.0000E+00  0.0000E+00  0.0000E+00  0.0000E+00  0.0000E+00  0.0000E+00  0.0000E+00  0.0000E+00  0.0000E+00  0.0000E+00  0.0000E+00  0.0000E+00  0.0000E+00
    -30.909  0.0000E+00  0.0000E+00  0.0000E+00  0.0000E+00  0.0000E+00  0.0000E+00  0.0000E+00  0.0000E+00  0.0000E+00  0.0000E+00  0.0000E+00  0.0000E+00  0.0000E+00  0.0000E+00  0.0000E+00  0.0000E+00  0.0000E+00  0.0000E+00
    -30.676  0.0000E+00  0.0000E+00  0.0000E+00  0.0000E+00  0.0000E+00  0.0000E+00  0.0000E+00  0.0000E+00  0.0000E+00  0.0000E+00  0.0000E+00  0.0000E+00  0.0000E+00  0.0000E+00  0.0000E+00  0.0000E+00  0.0000E+00  0.0000E+00
    -30.444  0.0000E+00  0.0000E+00  0.0000E+00  0.0000E+00  0.0000E+00  0.0000E+00  0.0000E+00  0.0000E+00  0.0000E+00  0.0000E+00  0.0000E+00  0.0000E+00  0.0000E+00  0.0000E+00  0.0000E+00  0.0000E+00  0.0000E+00  0.0000E+00
    -30.211  0.0000E+00  0.0000E+00  0.0000E+00  0.0000E+00  0.0000E+00  0.0000E+00  0.0000E+00  0.0000E+00  0.0000E+00  0.0000E+00  0.0000E+00  0.0000E+00  0.0000E+00  0.0000E+00  0.0000E+00  0.0000E+00  0.0000E+00  0.0000E+00
    -29.979  0.0000E+00  0.0000E+00  0.0000E+00  0.0000E+00  0.0000E+00  0.0000E+00  0.0000E+00  0.0000E+00  0.0000E+00  0.0000E+00  0.0000E+00  0.0000E+00  0.0000E+00  0.0000E+00  0.0000E+00  0.0000E+00  0.0000E+00  0.0000E+00
    -29.746  0.0000E+00  0.0000E+00  0.0000E+00  0.0000E+00  0.0000E+00  0.0000E+00  0.0000E+00  0.0000E+00  0.0000E+00  0.0000E+00  0.0000E+00  0.0000E+00  0.0000E+00  0.0000E+00  0.0000E+00  0.0000E+00  0.0000E+00  0.0000E+00
    -29.514  0.0000E+00  0.0000E+00  0.0000E+00  0.0000E+00  0.0000E+00  0.0000E+00  0.0000E+00  0.0000E+00  0.0000E+00  0.0000E+00  0.0000E+00  0.0000E+00  0.0000E+00  0.0000E+00  0.0000E+00  0.0000E+00  0.0000E+00  0.0000E+00
    -29.281  0.0000E+00  0.0000E+00  0.0000E+00  0.0000E+00  0.0000E+00  0.0000E+00  0.0000E+00  0.0000E+00  0.0000E+00  0.0000E+00  0.0000E+00  0.0000E+00  0.0000E+00  0.0000E+00  0.0000E+00  0.0000E+00  0.0000E+00  0.0000E+00
    -29.049  0.0000E+00  0.0000E+00  0.0000E+00  0.0000E+00  0.0000E+00  0.0000E+00  0.0000E+00  0.0000E+00  0.0000E+00  0.0000E+00  0.0000E+00  0.0000E+00  0.0000E+00  0.0000E+00  0.0000E+00  0.0000E+00  0.0000E+00  0.0000E+00
    -28.816  0.0000E+00  0.0000E+00  0.0000E+00  0.0000E+00  0.0000E+00  0.0000E+00  0.0000E+00  0.0000E+00  0.0000E+00  0.0000E+00  0.0000E+00  0.0000E+00  0.0000E+00  0.0000E+00  0.0000E+00  0.0000E+00  0.0000E+00  0.0000E+00
    -28.584  0.0000E+00  0.0000E+00  0.0000E+00  0.0000E+00  0.0000E+00  0.0000E+00  0.0000E+00  0.0000E+00  0.0000E+00  0.0000E+00  0.0000E+00  0.0000E+00  0.0000E+00  0.0000E+00  0.0000E+00  0.0000E+00  0.0000E+00  0.0000E+00
    -28.351  0.0000E+00  0.0000E+00  0.0000E+00  0.0000E+00  0.0000E+00  0.0000E+00  0.0000E+00  0.0000E+00  0.0000E+00  0.0000E+00  0.0000E+00  0.0000E+00  0.0000E+00  0.0000E+00  0.0000E+00  0.0000E+00  0.0000E+00  0.0000E+00