   4   4   1   0
  0.1076344E+02  0.3504270E-09  0.3505151E-09  0.3505151E-09  0.5000000E-15
  1.000000000000000E-004
  CAR 
 unknown system                          
     31.25963997    -39.06292152  301     12.63083912      1.00000000
    -39.063  0.0000E+00  0.0000E+00  0.0000E+00  0.0000E+00
    -38.829  0.0000E+00  0.0000E+00  0.0000E+00  0.0000E+00
    -38.594  0.0000E+00  0.0000E+00  0.0000E+00  0.0000E+00
    -38.360  0.0000E+00  0.0000E+00  0.0000E+00  0.0000E+00
    -38.125  0.0000E+00  0.0000E+00  0.0000E+00  0.0000E+00
    -37.891  0.0000E+00  0.0000E+00  0.0000E+00  0.0000E+00
    -37.656  0.0000E+00  0.0000E+00  0.0000E+00  0.0000E+00
    -37.422  0.0000E+00  0.0000E+00  0.0000E+00  0.0000E+00
    -37.188  0.0000E+00  0.0000E+00  0.0000E+00  0.0000E+00
    -36.953  0.0000E+00  0.0000E+00  0.0000E+00  0.0000E+00
    -36.719  0.0000E+00  0.0000E+00  0.0000E+00  0.0000E+00
    -36.484  0.4760E-04  0.0000E+00  0.1116E-04  0.0000E+00
    -36.250  0.5122E-02  0.0000E+00  0.1212E-02  0.0000E+00
    -36.016  0.5330E+00  0.0000E+00  0.1261E+00  0.0000E+00
    -35.781  0.1003E+02  0.0000E+00  0.2478E+01  0.0000E+00
    -35.547  0.2204E+01  0.0000E+00  0.2994E+01  0.0000E+00
    -35.312  0.0000E+00  0.0000E+00  0.3000E+01  0.0000E+00
    -35.078  0.0000E+00  0.0000E+00  0.3000E+01  0.0000E+00
    -34.844  0.0000E+00  0.3483E-03  0.3000E+01  0.8165E-04
    -34.609  0.0000E+00  0.3739E-01  0.3000E+01  0.8845E-02
    -34.375  0.0000E+00  0.3069E+01  0.3000E+01  0.7284E+00
    -34.140  0.0000E+00  0.9332E+01  0.3000E+01  0.2916E+01
    -33.906  0.0000E+00  0.0000E+00  0.3000E+01  0.3000E+01
    -33.672  0.0000E+00  0.0000E+00  0.3000E+01  0.3000E+01
    -33.437  0.0000E+00  0.0000E+00  0.3000E+01  0.3000E+01
    -33.203  0.0000E+00  0.0000E+00  0.3000E+01  0.3000E+01
    -32.968  0.0000E+00  0.0000E+00  0.3000E+01  0.3000E+01
    -32.734  0.0000E+00  0.0000E+00  0.3000E+01  0.3000E+01
    -32.499  0.0000E+00  0.0000E+00  0.3000E+01  0.3000E+01
    -32.265  0.0000E+00  0.0000E+00  0.3000E+01  0.3000E+01
    -32.031  0.0000E+00  0.0000E+00  0.3000E+01  0.3000E+01
    -31.796  0.0000E+00  0.0000E+00  0.3000E+01  0.3000E+01
    -31.562  0.0000E+00  0.0000E+00  0.3000E+01  0.3000E+01
    -31.327  0.0000E+00  0.0000E+00  0.3000E+01  0.3000E+01
    -31.093  0.0000E+00  0.0000E+00  0.3000E+01  0.3000E+01
    -30.859  0.0000E+00  0.0000E+00  0.3000E+01  0.3000E+01
    -30.624  0.0000E+00  0.0000E+00  0.3000E+01  0.3000E+01
    -30.390  0.0000E+00  0.0000E+00  0.3000E+01  0.3000E+01
    -30.155  0.0000E+00  0.0000E+00  0.3000E+01  0.3000E+01
    -29.921  0.0000E+00  0.0000E+00  0.3000E+01  0.3000E+01
    -29.687  0.0000E+00  0.0000E+00  0.3000E+01  0.3000E+01
    -29.452  0.0000E+00  0.0000E+00  0.3000E+01  0.3000E+01
    -29.218  0.0000E+00  0.0000E+00  0.3000E+01  0.3000E+01
    -28.983  0.0000E+00  0.0000E+00  0.3000E+01  0.3000E+01
    -28.749  0.0000E+00  0.0000E+00  0.3000E+01  0.3000E+01
    -28.515  0.0000E+00  0.0000E+00  0.3000E+01  0.3000E+01
    -28.280  0.0000E+00  0.0000E+00  0.3000E+01  0.3000E+01
    -28.046  0.0000E+00  0.0000E+00  0.3000E+01  0.3000E+01
    -27.811  0.0000E+00  0.0000E+00  0.3000E+01  0.3000E+01
    -27.577  0.0000E+00  0.0000E+00  0.3000E+01  0.3000E+01
    -27.342  0.0000E+00  0.0000E+00  0.3000E+01  0.3000E+01
    -27.108  0.0000E+00  0.0000E+00  0.3000E+01  0.3000E+01
    -26.874  0.0000E+00  0.0000E+00  0.3000E+01  0.3000E+01
    -26.639  0.0000E+00  0.0000E+00  0.3000E+01  0.3000E+01
    -26.405  0.0000E+00  0.0000E+00  0.3000E+01  0.3000E+01
    -26.170  0.0000E+00  0.0000E+00  0.3000E+01  0.3000E+01
    -25.936  0.0000E+00  0.0000E+00  0.3000E+01  0.3000E+01
    -25.702  0.0000E+00  0.0000E+00  0.3000E+01  0.3000E+01
    -25.467  0.0000E+00  0.0000E+00  0.3000E+01  0.3000E+01
    -25.233  0.0000E+00  0.0000E+00  0.3000E+01  0.3000E+01
    -24.998  0.0000E+00  0.0000E+00  0.3000E+01  0.3000E+01
    -24.764  0.0000E+00  0.0000E+00  0.3000E+01  0.3000E+01
    -24.530  0.0000E+00  0.0000E+00  0.3000E+01  0.3000E+01
    -24.295  0.0000E+00  0.0000E+00  0.3000E+01  0.3000E+01
    -24.061  0.0000E+00  0.0000E+00  0.3000E+01  0.3000E+01
    -23.826  0.0000E+00  0.0000E+00  0.3000E+01  0.3000E+01
    -23.592  0.0000E+00  0.0000E+00  0.3000E+01  0.3000E+01
    -23.358  0.0000E+00  0.0000E+00  0.3000E+01  0.3000E+01
    -23.123  0.0000E+00  0.0000E+00  0.3000E+01  0.3000E+01
    -22.889  0.0000E+00  0.0000E+00  0.3000E+01  0.3000E+01
    -22.654  0.0000E+00  0.0000E+00  0.3000E+01  0.3000E+01
    -22.420  0.0000E+00  0.0000E+00  0.3000E+01  0.3000E+01
    -22.186  0.0000E+00  0.0000E+00  0.3000E+01  0.3000E+01
    -21.951  0.0000E+00  0.0000E+00  0.3000E+01  0.3000E+01
    -21.717  0.0000E+00  0.0000E+00  0.3000E+01  0.3000E+01
    -21.482  0.0000E+00  0.0000E+00  0.3000E+01  0.3000E+01
    -21.248  0.0000E+00  0.0000E+00  0.3000E+01  0.3000E+01
    -21.013  0.0000E+00  0.0000E+00  0.3000E+01  0.3000E+01
    -20.779  0.0000E+00  0.0000E+00  0.3000E+01  0.3000E+01
    -20.545  0.0000E+00  0.0000E+00  0.3000E+01  0.3000E+01
    -20.310  0.0000E+00  0.0000E+00  0.3000E+01  0.3000E+01
    -20.076  0.0000E+00  0.0000E+00  0.3000E+01  0.3000E+01
    -19.841  0.0000E+00  0.0000E+00  0.3000E+01  0.3000E+01
    -19.607  0.0000E+00  0.0000E+00  0.3000E+01  0.3000E+01
    -19.373  0.0000E+00  0.0000E+00  0.3000E+01  0.3000E+01
    -19.138  0.0000E+00  0.0000E+00  0.3000E+01  0.3000E+01
    -18.904  0.0000E+00  0.0000E+00  0.3000E+01  0.3000E+01
    -18.669  0.0000E+00  0.0000E+00  0.3000E+01  0.3000E+01
    -18.435  0.0000E+00  0.0000E+00  0.3000E+01  0.3000E+01
    -18.201  0.0000E+00  0.0000E+00  0.3000E+01  0.3000E+01
    -17.966  0.0000E+00  0.0000E+00  0.3000E+01  0.3000E+01
    -17.732  0.0000E+00  0.0000E+00  0.3000E+01  0.3000E+01
    -17.497  0.0000E+00  0.0000E+00  0.3000E+01  0.3000E+01
    -17.263  0.0000E+00  0.0000E+00  0.3000E+01  0.3000E+01
    -17.029  0.0000E+00  0.0000E+00  0.3000E+01  0.3000E+01
    -16.794  0.0000E+00  0.0000E+00  0.3000E+01  0.3000E+01
    -16.560  0.0000E+00  0.0000E+00  0.3000E+01  0.3000E+01
    -16.325  0.0000E+00  0.0000E+00  0.3000E+01  0.3000E+01
    -16.091  0.0000E+00  0.0000E+00  0.3000E+01  0.3000E+01
    -15.856  0.0000E+00  0.0000E+00  0.3000E+01  0.3000E+01
    -15.622  0.0000E+00  0.0000E+00  0.3000E+01  0.3000E+01
    -15.388  0.0000E+00  0.0000E+00  0.3000E+01  0.3000E+01
    -15.153  0.0000E+00  0.0000E+00  0.3000E+01  0.3000E+01
    -14.919  0.0000E+00  0.0000E+00  0.3000E+01  0.3000E+01
    -14.684  0.0000E+00  0.0000E+00  0.3000E+01  0.3000E+01
    -14.450  0.0000E+00  0.0000E+00  0.3000E+01  0.3000E+01
    -14.216  0.0000E+00  0.0000E+00  0.3000E+01  0.3000E+01
    -13.981  0.0000E+00  0.0000E+00  0.3000E+01  0.3000E+01
    -13.747  0.0000E+00  0.0000E+00  0.3000E+01  0.3000E+01
    -13.512  0.0000E+00  0.0000E+00  0.3000E+01  0.3000E+01
    -13.278  0.0000E+00  0.0000E+00  0.3000E+01  0.3000E+01
    -13.044  0.0000E+00  0.0000E+00  0.3000E+01  0.3000E+01
    -12.809  0.0000E+00  0.0000E+00  0.3000E+01  0.3000E+01
    -12.575  0.0000E+00  0.0000E+00  0.3000E+01  0.3000E+01
    -12.340  0.0000E+00  0.0000E+00  0.3000E+01  0.3000E+01
    -12.106  0.0000E+00  0.0000E+00  0.3000E+01  0.3000E+01
    -11.872  0.0000E+00  0.0000E+00  0.3000E+01  0.3000E+01
    -11.637  0.0000E+00  0.0000E+00  0.3000E+01  0.3000E+01
    -11.403  0.0000E+00  0.0000E+00  0.3000E+01  0.3000E+01
    -11.168  0.0000E+00  0.0000E+00  0.3000E+01  0.3000E+01
    -10.934  0.0000E+00  0.0000E+00  0.3000E+01  0.3000E+01
    -10.699  0.0000E+00  0.0000E+00  0.3000E+01  0.3000E+01
    -10.465  0.0000E+00  0.0000E+00  0.3000E+01  0.3000E+01
    -10.231  0.0000E+00  0.0000E+00  0.3000E+01  0.3000E+01
     -9.996  0.0000E+00  0.0000E+00  0.3000E+01  0.3000E+01
     -9.762  0.0000E+00  0.0000E+00  0.3000E+01  0.3000E+01
     -9.527  0.0000E+00  0.0000E+00  0.3000E+01  0.3000E+01
     -9.293  0.0000E+00  0.0000E+00  0.3000E+01  0.3000E+01
     -9.059  0.0000E+00  0.0000E+00  0.3000E+01  0.3000E+01
     -8.824  0.0000E+00  0.0000E+00  0.3000E+01  0.3000E+01
     -8.590  0.0000E+00  0.0000E+00  0.3000E+01  0.3000E+01
     -8.355  0.0000E+00  0.0000E+00  0.3000E+01  0.3000E+01
     -8.121  0.0000E+00  0.0000E+00  0.3000E+01  0.3000E+01
     -7.887  0.0000E+00  0.0000E+00  0.3000E+01  0.3000E+01
     -7.652  0.0000E+00  0.0000E+00  0.3000E+01  0.3000E+01
     -7.418  0.0000E+00  0.0000E+00  0.3000E+01  0.3000E+01
     -7.183  0.0000E+00  0.0000E+00  0.3000E+01  0.3000E+01
     -6.949  0.0000E+00  0.0000E+00  0.3000E+01  0.3000E+01
     -6.715  0.0000E+00  0.0000E+00  0.3000E+01  0.3000E+01
     -6.480  0.0000E+00  0.0000E+00  0.3000E+01  0.3000E+01
     -6.246  0.0000E+00  0.0000E+00  0.3000E+01  0.3000E+01
     -6.011  0.0000E+00  0.0000E+00  0.3000E+01  0.3000E+01
     -5.777  0.0000E+00  0.0000E+00  0.3000E+01  0.3000E+01
     -5.543  0.0000E+00  0.0000E+00  0.3000E+01  0.3000E+01
     -5.308  0.0000E+00  0.0000E+00  0.3000E+01  0.3000E+01
     -5.074  0.0000E+00  0.0000E+00  0.3000E+01  0.3000E+01
     -4.839  0.0000E+00  0.0000E+00  0.3000E+01  0.3000E+01
     -4.605  0.0000E+00  0.0000E+00  0.3000E+01  0.3000E+01
     -4.370  0.0000E+00  0.0000E+00  0.3000E+01  0.3000E+01
     -4.136  0.0000E+00  0.0000E+00  0.3000E+01  0.3000E+01
     -3.902  0.0000E+00  0.0000E+00  0.3000E+01  0.3000E+01
     -3.667  0.0000E+00  0.0000E+00  0.3000E+01  0.3000E+01
     -3.433  0.0000E+00  0.0000E+00  0.3000E+01  0.3000E+01
     -3.198  0.0000E+00  0.0000E+00  0.3000E+01  0.3000E+01
     -2.964  0.0000E+00  0.0000E+00  0.3000E+01  0.3000E+01
     -2.730  0.0000E+00  0.0000E+00  0.3000E+01  0.3000E+01
     -2.495  0.0000E+00  0.0000E+00  0.3000E+01  0.3000E+01
     -2.261  0.0000E+00  0.0000E+00  0.3000E+01  0.3000E+01
     -2.026  0.0000E+00  0.0000E+00  0.3000E+01  0.3000E+01
     -1.792  0.0000E+00  0.0000E+00  0.3000E+01  0.3000E+01
     -1.558  0.0000E+00  0.0000E+00  0.3000E+01  0.3000E+01
     -1.323  0.0000E+00  0.0000E+00  0.3000E+01  0.3000E+01
     -1.089  0.3548E-06  0.7404E-07  0.3000E+01  0.3000E+01
     -0.854  0.3982E-04  0.1058E-04  0.3000E+01  0.3000E+01
     -0.620  0.3468E-02  0.1074E-02  0.3001E+01  0.3000E+01
     -0.386  0.4116E-01  0.2746E-01  0.3010E+01  0.3007E+01
     -0.151  0.8895E-01  0.7577E-01  0.3031E+01  0.3024E+01
      0.083  0.1049E+00  0.9601E-01  0.3056E+01  0.3047E+01
      0.318  0.1363E+00  0.1364E+00  0.3088E+01  0.3079E+01
      0.552  0.1409E+00  0.1445E+00  0.3121E+01  0.3114E+01
      0.787  0.1946E+00  0.1763E+00  0.3167E+01  0.3155E+01
      1.021  0.1779E+00  0.1953E+00  0.3209E+01  0.3201E+01
      1.255  0.2116E+00  0.1776E+00  0.3259E+01  0.3243E+01
      1.490  0.2523E+00  0.2566E+00  0.3318E+01  0.3303E+01
      1.724  0.2047E+00  0.2084E+00  0.3367E+01  0.3352E+01
      1.959  0.3035E+00  0.3049E+00  0.3438E+01  0.3425E+01
      2.193  0.2848E+00  0.2825E+00  0.3506E+01  0.3491E+01
      2.427  0.3339E+00  0.3320E+00  0.3585E+01  0.3570E+01
      2.662  0.2285E+00  0.2538E+00  0.3639E+01  0.3630E+01
      2.896  0.3043E+00  0.2828E+00  0.3711E+01  0.3697E+01
      3.131  0.2733E+00  0.2526E+00  0.3775E+01  0.3756E+01
      3.365  0.3741E+00  0.3130E+00  0.3863E+01  0.3830E+01
      3.599  0.2751E+00  0.3297E+00  0.3927E+01  0.3908E+01
      3.834  0.3467E+00  0.3096E+00  0.4009E+01  0.3981E+01
      4.068  0.3049E+00  0.3018E+00  0.4081E+01  0.4052E+01
      4.303  0.4195E+00  0.3522E+00  0.4180E+01  0.4135E+01
      4.537  0.2743E+00  0.3414E+00  0.4245E+01  0.4216E+01
      4.771  0.3796E+00  0.2857E+00  0.4334E+01  0.4284E+01
      5.006  0.3610E+00  0.3702E+00  0.4419E+01  0.4371E+01
      5.240  0.4644E+00  0.3897E+00  0.4528E+01  0.4464E+01
      5.475  0.4511E+00  0.4789E+00  0.4634E+01  0.4577E+01
      5.709  0.4700E+00  0.4829E+00  0.4745E+01  0.4691E+01
      5.944  0.4114E+00  0.4387E+00  0.4843E+01  0.4795E+01
      6.178  0.5738E+00  0.4608E+00  0.4978E+01  0.4903E+01
      6.412  0.6282E+00  0.4925E+00  0.5126E+01  0.5019E+01
      6.647  0.5555E+00  0.6177E+00  0.5257E+01  0.5165E+01
      6.881  0.5748E+00  0.5136E+00  0.5393E+01  0.5287E+01
      7.116  0.5915E+00  0.5475E+00  0.5533E+01  0.5416E+01
      7.350  0.6665E+00  0.4700E+00  0.5690E+01  0.5527E+01
      7.584  0.6581E+00  0.6690E+00  0.5846E+01  0.5685E+01
      7.819  0.8149E+00  0.5936E+00  0.6038E+01  0.5825E+01
      8.053  0.8717E+00  0.6438E+00  0.6244E+01  0.5977E+01
      8.288  0.1043E+01  0.7699E+00  0.6489E+01  0.6160E+01
      8.522  0.1170E+01  0.7024E+00  0.6765E+01  0.6327E+01
      8.756  0.1166E+01  0.9575E+00  0.7041E+01  0.6552E+01
      8.991  0.1152E+01  0.8749E+00  0.7314E+01  0.6758E+01
      9.225  0.1268E+01  0.1027E+01  0.7613E+01  0.7000E+01
      9.460  0.1421E+01  0.1202E+01  0.7949E+01  0.7283E+01
      9.694  0.1300E+01  0.9951E+00  0.8256E+01  0.7518E+01
      9.928  0.1061E+01  0.1549E+01  0.8507E+01  0.7882E+01
     10.163  0.8457E+00  0.1087E+01  0.8707E+01  0.8140E+01
     10.397  0.8852E+00  0.9307E+00  0.8916E+01  0.8362E+01
     10.632  0.6981E+00  0.7380E+00  0.9081E+01  0.8537E+01
     10.866  0.9170E+00  0.8025E+00  0.9298E+01  0.8726E+01
     11.101  0.1245E+01  0.6461E+00  0.9591E+01  0.8879E+01
     11.335  0.2809E+01  0.6956E+00  0.1025E+02  0.9043E+01
     11.569  0.2368E+01  0.6302E+00  0.1081E+02  0.9192E+01
     11.804  0.1312E+01  0.7958E+00  0.1112E+02  0.9379E+01
     12.038  0.1082E+01  0.9041E+00  0.1138E+02  0.9593E+01
     12.273  0.7662E+00  0.1325E+01  0.1156E+02  0.9906E+01
     12.507  0.7071E+00  0.8642E+00  0.1173E+02  0.1011E+02
     12.741  0.4859E+00  0.9178E+00  0.1184E+02  0.1033E+02
     12.976  0.5994E+00  0.1893E+01  0.1199E+02  0.1077E+02
     13.210  0.4146E+00  0.2845E+01  0.1208E+02  0.1144E+02
     13.445  0.5356E+00  0.1745E+01  0.1221E+02  0.1185E+02
     13.679  0.5541E+00  0.8271E+00  0.1234E+02  0.1205E+02
     13.913  0.7419E+00  0.5325E+00  0.1252E+02  0.1218E+02
     14.148  0.8214E+00  0.6523E+00  0.1271E+02  0.1233E+02
     14.382  0.1243E+01  0.7889E+00  0.1300E+02  0.1252E+02
     14.617  0.8784E+00  0.7908E+00  0.1321E+02  0.1271E+02
     14.851  0.6529E+00  0.8471E+00  0.1336E+02  0.1291E+02
     15.085  0.6797E+00  0.8807E+00  0.1352E+02  0.1311E+02
     15.320  0.4785E+00  0.8502E+00  0.1364E+02  0.1331E+02
     15.554  0.6609E+00  0.8244E+00  0.1379E+02  0.1351E+02
     15.789  0.6654E+00  0.5792E+00  0.1395E+02  0.1365E+02
     16.023  0.5332E+00  0.7918E+00  0.1408E+02  0.1383E+02
     16.257  0.8131E+00  0.7914E+00  0.1427E+02  0.1402E+02
     16.492  0.9291E+00  0.7813E+00  0.1449E+02  0.1421E+02
     16.726  0.1003E+01  0.9997E+00  0.1473E+02  0.1444E+02
     16.961  0.9497E+00  0.1094E+01  0.1495E+02  0.1470E+02
     17.195  0.4618E+00  0.6877E+00  0.1506E+02  0.1486E+02
     17.430  0.8195E+00  0.4066E+00  0.1525E+02  0.1496E+02
     17.664  0.6749E+00  0.6023E+00  0.1541E+02  0.1510E+02
     17.898  0.7918E+00  0.7346E+00  0.1560E+02  0.1528E+02
     18.133  0.6401E+00  0.8174E+00  0.1575E+02  0.1547E+02
     18.367  0.9294E+00  0.8488E+00  0.1597E+02  0.1567E+02
     18.602  0.6540E+00  0.8290E+00  0.1612E+02  0.1587E+02
     18.836  0.5201E+00  0.7327E+00  0.1625E+02  0.1604E+02
     19.070  0.8885E+00  0.5770E+00  0.1646E+02  0.1618E+02
     19.305  0.7120E+00  0.1001E+01  0.1662E+02  0.1641E+02
     19.539  0.7343E+00  0.9150E+00  0.1680E+02  0.1663E+02
     19.774  0.6793E+00  0.7025E+00  0.1696E+02  0.1679E+02
     20.008  0.8210E+00  0.8194E+00  0.1715E+02  0.1699E+02
     20.242  0.9703E+00  0.9164E+00  0.1738E+02  0.1720E+02
     20.477  0.1004E+01  0.9929E+00  0.1762E+02  0.1744E+02
     20.711  0.7834E+00  0.1006E+01  0.1780E+02  0.1767E+02
     20.946  0.8472E+00  0.9005E+00  0.1800E+02  0.1789E+02
     21.180  0.5785E+00  0.7016E+00  0.1814E+02  0.1805E+02
     21.414  0.9099E+00  0.7190E+00  0.1835E+02  0.1822E+02
     21.649  0.4560E+00  0.7049E+00  0.1846E+02  0.1839E+02
     21.883  0.7019E+00  0.5867E+00  0.1863E+02  0.1853E+02
     22.118  0.9499E+00  0.9140E+00  0.1885E+02  0.1875E+02
     22.352  0.7785E+00  0.7044E+00  0.1904E+02  0.1891E+02
     22.587  0.7058E+00  0.8595E+00  0.1920E+02  0.1911E+02
     22.821  0.5216E+00  0.4462E+00  0.1933E+02  0.1922E+02
     23.055  0.4749E+00  0.7233E+00  0.1944E+02  0.1939E+02
     23.290  0.3886E+00  0.4863E+00  0.1953E+02  0.1951E+02
     23.524  0.3729E+00  0.3801E+00  0.1962E+02  0.1960E+02
     23.759  0.2777E+00  0.3478E+00  0.1969E+02  0.1968E+02
     23.993  0.2239E+00  0.1898E+00  0.1974E+02  0.1972E+02
     24.227  0.1512E+00  0.1683E+00  0.1978E+02  0.1976E+02
     24.462  0.1808E+00  0.2013E+00  0.1982E+02  0.1981E+02
     24.696  0.1222E+00  0.1391E+00  0.1985E+02  0.1984E+02
     24.931  0.6769E-01  0.7044E-01  0.1986E+02  0.1986E+02
     25.165  0.2091E+00  0.2400E+00  0.1991E+02  0.1992E+02
     25.399  0.8937E-01  0.8411E-01  0.1993E+02  0.1994E+02
     25.634  0.3724E-01  0.3298E-01  0.1994E+02  0.1994E+02
     25.868  0.3914E-01  0.3589E-01  0.1995E+02  0.1995E+02
     26.103  0.4202E-01  0.5058E-01  0.1996E+02  0.1997E+02
     26.337  0.1079E+00  0.8827E-01  0.1999E+02  0.1999E+02
     26.571  0.3881E-01  0.4297E-01  0.2000E+02  0.2000E+02
     26.806  0.0000E+00  0.0000E+00  0.2000E+02  0.2000E+02
     27.040  0.0000E+00  0.0000E+00  0.2000E+02  0.2000E+02
     27.275  0.0000E+00  0.0000E+00  0.2000E+02  0.2000E+02
     27.509  0.7004E-06  0.2392E-06  0.2000E+02  0.2000E+02
     27.744  0.7504E-04  0.2571E-04  0.2000E+02  0.2000E+02
     27.978  0.5321E-02  0.2364E-02  0.2000E+02  0.2000E+02
     28.212  0.9873E-02  0.1240E-01  0.2000E+02  0.2000E+02
     28.447  0.0000E+00  0.7412E-03  0.2000E+02  0.2000E+02
     28.681  0.0000E+00  0.0000E+00  0.2000E+02  0.2000E+02
     28.916  0.0000E+00  0.0000E+00  0.2000E+02  0.2000E+02
     29.150  0.0000E+00  0.0000E+00  0.2000E+02  0.2000E+02
     29.384  0.0000E+00  0.0000E+00  0.2000E+02  0.2000E+02
     29.619  0.0000E+00  0.0000E+00  0.2000E+02  0.2000E+02
     29.853  0.0000E+00  0.0000E+00  0.2000E+02  0.2000E+02
     30.088  0.0000E+00  0.0000E+00  0.2000E+02  0.2000E+02
     30.322  0.0000E+00  0.0000E+00  0.2000E+02  0.2000E+02
     30.556  0.0000E+00  0.0000E+00  0.2000E+02  0.2000E+02
     30.791  0.0000E+00  0.0000E+00  0.2000E+02  0.2000E+02
     31.025  0.0000E+00  0.0000E+00  0.2000E+02  0.2000E+02
     31.260  0.0000E+00  0.0000E+00  0.2000E+02  0.2000E+02
     31.25963997    -39.06292152  301     12.63083912      1.00000000
    -39.063  0.0000E+00  0.0000E+00  0.0000E+00  0.0000E+00  0.0000E+00  0.0000E+00  0.0000E+00  0.0000E+00  0.0000E+00  0.0000E+00  0.0000E+00  0.0000E+00  0.0000E+00  0.0000E+00  0.0000E+00  0.0000E+00  0.0000E+00  0.0000E+00
    -38.829  0.0000E+00  0.0000E+00  0.0000E+00  0.0000E+00  0.0000E+00  0.0000E+00  0.0000E+00  0.0000E+00  0.0000E+00  0.0000E+00  0.0000E+00  0.0000E+00  0.0000E+00  0.0000E+00  0.0000E+00  0.0000E+00  0.0000E+00  0.0000E+00
    -38.594  0.0000E+00  0.0000E+00  0.0000E+00  0.0000E+00  0.0000E+00  0.0000E+00  0.0000E+00  0.0000E+00  0.0000E+00  0.0000E+00  0.0000E+00  0.0000E+00  0.0000E+00  0.0000E+00  0.0000E+00  0.0000E+00  0.0000E+00  0.0000E+00
    -38.360  0.0000E+00  0.0000E+00  0.0000E+00  0.0000E+00  0.0000E+00  0.0000E+00  0.0000E+00  0.0000E+00  0.0000E+00  0.0000E+00  0.0000E+00  0.0000E+00  0.0000E+00  0.0000E+00  0.0000E+00  0.0000E+00  0.0000E+00  0.0000E+00
    -38.125  0.0000E+00  0.0000E+00  0.0000E+00  0.0000E+00  0.0000E+00  0.0000E+00  0.0000E+00  0.0000E+00  0.0000E+00  0.0000E+00  0.0000E+00  0.0000E+00  0.0000E+00  0.0000E+00  0.0000E+00  0.0000E+00  0.0000E+00  0.0000E+00
    -37.891  0.0000E+00  0.0000E+00  0.0000E+00  0.0000E+00  0.0000E+00  0.0000E+00  0.0000E+00  0.0000E+00  0.0000E+00  0.0000E+00  0.0000E+00  0.0000E+00  0.0000E+00  0.0000E+00  0.0000E+00  0.0000E+00  0.0000E+00  0.0000E+00
    -37.656  0.0000E+00  0.0000E+00  0.0000E+00  0.0000E+00  0.0000E+00  0.0000E+00  0.0000E+00  0.0000E+00  0.0000E+00  0.0000E+00  0.0000E+00  0.0000E+00  0.0000E+00  0.0000E+00  0.0000E+00  0.0000E+00  0.0000E+00  0.0000E+00
    -37.422  0.0000E+00  0.0000E+00  0.0000E+00  0.0000E+00  0.0000E+00  0.0000E+00  0.0000E+00  0.0000E+00  0.0000E+00  0.0000E+00  0.0000E+00  0.0000E+00  0.0000E+00  0.0000E+00  0.0000E+00  0.0000E+00  0.0000E+00  0.0000E+00
    -37.188  0.0000E+00  0.0000E+00  0.0000E+00  0.0000E+00  0.0000E+00  0.0000E+00  0.0000E+00  0.0000E+00  0.0000E+00  0.0000E+00  0.0000E+00  0.0000E+00  0.0000E+00  0.0000E+00  0.0000E+00  0.0000E+00  0.0000E+00  0.0000E+00
    -36.953  0.0000E+00  0.0000E+00  0.0000E+00  0.0000E+00  0.0000E+00  0.0000E+00  0.0000E+00  0.0000E+00  0.0000E+00  0.0000E+00  0.0000E+00  0.0000E+00  0.0000E+00  0.0000E+00  0.0000E+00  0.0000E+00  0.0000E+00  0.0000E+00
    -36.719  0.0000E+00  0.0000E+00  0.0000E+00  0.0000E+00  0.0000E+00  0.0000E+00  0.0000E+00  0.0000E+00  0.0000E+00  0.0000E+00  0.0000E+00  0.0000E+00  0.0000E+00  0.0000E+00  0.0000E+00  0.0000E+00  0.0000E+00  0.0000E+00
    -36.484  0.2589E-11  0.0000E+00  0.1578E-04  0.0000E+00  0.1578E-04  0.0000E+00  0.1575E-04  0.0000E+00  0.6160E-13  0.0000E+00  0.6141E-13  0.0000E+00  0.1838E-11  0.0000E+00  0.6160E-13  0.0000E+00  0.1873E-11  0.0000E+00
    -36.250  0.2786E-09  0.0000E+00  0.1698E-02  0.0000E+00  0.1698E-02  0.0000E+00  0.1694E-02  0.0000E+00  0.6629E-11  0.0000E+00  0.6609E-11  0.0000E+00  0.1978E-09  0.0000E+00  0.6629E-11  0.0000E+00  0.2016E-09  0.0000E+00
    -36.016  0.2899E-07  0.0000E+00  0.1766E+00  0.0000E+00  0.1766E+00  0.0000E+00  0.1763E+00  0.0000E+00  0.6888E-09  0.0000E+00  0.6867E-09  0.0000E+00  0.2059E-07  0.0000E+00  0.6888E-09  0.0000E+00  0.2098E-07  0.0000E+00
    -35.781  0.5441E-06  0.0000E+00  0.3323E+01  0.0000E+00  0.3323E+01  0.0000E+00  0.3322E+01  0.0000E+00  0.1260E-07  0.0000E+00  0.1256E-07  0.0000E+00  0.3901E-06  0.0000E+00  0.1260E-07  0.0000E+00  0.3953E-06  0.0000E+00
    -35.547  0.1187E-06  0.0000E+00  0.7296E+00  0.0000E+00  0.7296E+00  0.0000E+00  0.7307E+00  0.0000E+00  0.2678E-08  0.0000E+00  0.2666E-08  0.0000E+00  0.8605E-07  0.0000E+00  0.2678E-08  0.0000E+00  0.8665E-07  0.0000E+00
    -35.312  0.0000E+00  0.0000E+00  0.0000E+00  0.0000E+00  0.0000E+00  0.0000E+00  0.0000E+00  0.0000E+00  0.0000E+00  0.0000E+00  0.0000E+00  0.0000E+00  0.0000E+00  0.0000E+00  0.0000E+00  0.0000E+00  0.0000E+00  0.0000E+00
    -35.078  0.0000E+00  0.0000E+00  0.0000E+00  0.0000E+00  0.0000E+00  0.0000E+00  0.0000E+00  0.0000E+00  0.0000E+00  0.0000E+00  0.0000E+00  0.0000E+00  0.0000E+00  0.0000E+00  0.0000E+00  0.0000E+00  0.0000E+00  0.0000E+00
    -34.844  0.0000E+00  0.2370E-10  0.0000E+00  0.1155E-03  0.0000E+00  0.1155E-03  0.0000E+00  0.1151E-03  0.0000E+00  0.5999E-12  0.0000E+00  0.6002E-12  0.0000E+00  0.1672E-10  0.0000E+00  0.5999E-12  0.0000E+00  0.1706E-10
    -34.609  0.0000E+00  0.2544E-08  0.0000E+00  0.1240E-01  0.0000E+00  0.1240E-01  0.0000E+00  0.1235E-01  0.0000E+00  0.6438E-10  0.0000E+00  0.6441E-10  0.0000E+00  0.1795E-08  0.0000E+00  0.6438E-10  0.0000E+00  0.1831E-08
    -34.375  0.0000E+00  0.2088E-06  0.0000E+00  0.1018E+01  0.0000E+00  0.1018E+01  0.0000E+00  0.1015E+01  0.0000E+00  0.5240E-08  0.0000E+00  0.5240E-08  0.0000E+00  0.1478E-06  0.0000E+00  0.5240E-08  0.0000E+00  0.1505E-06
    -34.140  0.0000E+00  0.6314E-06  0.0000E+00  0.3090E+01  0.0000E+00  0.3090E+01  0.0000E+00  0.3092E+01  0.0000E+00  0.1537E-07  0.0000E+00  0.1535E-07  0.0000E+00  0.4523E-06  0.0000E+00  0.1537E-07  0.0000E+00  0.4574E-06
    -33.906  0.0000E+00  0.0000E+00  0.0000E+00  0.0000E+00  0.0000E+00  0.0000E+00  0.0000E+00  0.0000E+00  0.0000E+00  0.0000E+00  0.0000E+00  0.0000E+00  0.0000E+00  0.0000E+00  0.0000E+00  0.0000E+00  0.0000E+00  0.0000E+00
    -33.672  0.0000E+00  0.0000E+00  0.0000E+00  0.0000E+00  0.0000E+00  0.0000E+00  0.0000E+00  0.0000E+00  0.0000E+00  0.0000E+00  0.0000E+00  0.0000E+00  0.0000E+00  0.0000E+00  0.0000E+00  0.0000E+00  0.0000E+00  0.0000E+00
    -33.437  0.0000E+00  0.0000E+00  0.0000E+00  0.0000E+00  0.0000E+00  0.0000E+00  0.0000E+00  0.0000E+00  0.0000E+00  0.0000E+00  0.0000E+00  0.0000E+00  0.0000E+00  0.0000E+00  0.0000E+00  0.0000E+00  0.0000E+00  0.0000E+00
    -33.203  0.0000E+00  0.0000E+00  0.0000E+00  0.0000E+00  0.0000E+00  0.0000E+00  0.0000E+00  0.0000E+00  0.0000E+00  0.0000E+00  0.0000E+00  0.0000E+00  0.0000E+00  0.0000E+00  0.0000E+00  0.0000E+00  0.0000E+00  0.0000E+00
    -32.968  0.0000E+00  0.0000E+00  0.0000E+00  0.0000E+00  0.0000E+00  0.0000E+00  0.0000E+00  0.0000E+00  0.0000E+00  0.0000E+00  0.0000E+00  0.0000E+00  0.0000E+00  0.0000E+00  0.0000E+00  0.0000E+00  0.0000E+00  0.0000E+00
    -32.734  0.0000E+00  0.0000E+00  0.0000E+00  0.0000E+00  0.0000E+00  0.0000E+00  0.0000E+00  0.0000E+00  0.0000E+00  0.0000E+00  0.0000E+00  0.0000E+00  0.0000E+00  0.0000E+00  0.0000E+00  0.0000E+00  0.0000E+00  0.0000E+00
    -32.499  0.0000E+00  0.0000E+00  0.0000E+00  0.0000E+00  0.0000E+00  0.0000E+00  0.0000E+00  0.0000E+00  0.0000E+00  0.0000E+00  0.0000E+00  0.0000E+00  0.0000E+00  0.0000E+00  0.0000E+00  0.0000E+00  0.0000E+00  0.0000E+00
    -32.265  0.0000E+00  0.0000E+00  0.0000E+00  0.0000E+00  0.0000E+00  0.0000E+00  0.0000E+00  0.0000E+00  0.0000E+00  0.0000E+00  0.0000E+00  0.0000E+00  0.0000E+00  0.0000E+00  0.0000E+00  0.0000E+00  0.0000E+00  0.0000E+00
    -32.031  0.0000E+00  0.0000E+00  0.0000E+00  0.0000E+00  0.0000E+00  0.0000E+00  0.0000E+00  0.0000E+00  0.0000E+00  0.0000E+00  0.0000E+00  0.0000E+00  0.0000E+00  0.0000E+00  0.0000E+00  0.0000E+00  0.0000E+00  0.0000E+00
    -31.796  0.0000E+00  0.0000E+00  0.0000E+00  0.0000E+00  0.0000E+00  0.0000E+00  0.0000E+00  0.0000E+00  0.0000E+00  0.0000E+00  0.0000E+00  0.0000E+00  0.0000E+00  0.0000E+00  0.0000E+00  0.0000E+00  0.0000E+00  0.0000E+00
    -31.562  0.0000E+00  0.0000E+00  0.0000E+00  0.0000E+00  0.0000E+00  0.0000E+00  0.0000E+00  0.0000E+00  0.0000E+00  0.0000E+00  0.0000E+00  0.0000E+00  0.0000E+00  0.0000E+00  0.0000E+00  0.0000E+00  0.0000E+00  0.0000E+00
    -31.327  0.0000E+00  0.0000E+00  0.0000E+00  0.0000E+00  0.0000E+00  0.0000E+00  0.0000E+00  0.0000E+00  0.0000E+00  0.0000E+00  0.0000E+00  0.0000E+00  0.0000E+00  0.0000E+00  0.0000E+00  0.0000E+00  0.0000E+00  0.0000E+00
    -31.093  0.0000E+00  0.0000E+00  0.0000E+00  0.0000E+00  0.0000E+00  0.0000E+00  0.0000E+00  0.0000E+00  0.0000E+00  0.0000E+00  0.0000E+00  0.0000E+00  0.0000E+00  0.0000E+00  0.0000E+00  0.0000E+00  0.0000E+00  0.0000E+00
    -30.859  0.0000E+00  0.0000E+00  0.0000E+00  0.0000E+00  0.0000E+00  0.0000E+00  0.0000E+00  0.0000E+00  0.0000E+00  0.0000E+00  0.0000E+00  0.0000E+00  0.0000E+00  0.0000E+00  0.0000E+00  0.0000E+00  0.0000E+00  0.0000E+00
    -30.624  0.0000E+00  0.0000E+00  0.0000E+00  0.0000E+00  0.0000E+00  0.0000E+00  0.0000E+00  0.0000E+00  0.0000E+00  0.0000E+00  0.0000E+00  0.0000E+00  0.0000E+00  0.0000E+00  0.0000E+00  0.0000E+00  0.0000E+00  0.0000E+00
    -30.390  0.0000E+00  0.0000E+00  0.0000E+00  0.0000E+00  0.0000E+00  0.0000E+00  0.0000E+00  0.0000E+00  0.0000E+00  0.0000E+00  0.0000E+00  0.0000E+00  0.0000E+00  0.0000E+00  0.0000E+00  0.0000E+00  0.0000E+00  0.0000E+00
    -30.155  0.0000E+00  0.0000E+00  0.0000E+00  0.0000E+00  0.0000E+00  0.0000E+00  0.0000E+00  0.0000E+00  0.0000E+00  0.0000E+00  0.0000E+00  0.0000E+00  0.0000E+00  0.0000E+00  0.0000E+00  0.0000E+00  0.0000E+00  0.0000E+00
    -29.921  0.0000E+00  0.0000E+00  0.0000E+00  0.0000E+00  0.0000E+00  0.0000E+00  0.0000E+00  0.0000E+00  0.0000E+00  0.0000E+00  0.0000E+00  0.0000E+00  0.0000E+00  0.0000E+00  0.0000E+00  0.0000E+00  0.0000E+00  0.0000E+00
    -29.687  0.0000E+00  0.0000E+00  0.0000E+00  0.0000E+00  0.0000E+00  0.0000E+00  0.0000E+00  0.0000E+00  0.0000E+00  0.0000E+00  0.0000E+00  0.0000E+00  0.0000E+00  0.0000E+00  0.0000E+00  0.0000E+00  0.0000E+00  0.0000E+00
    -29.452  0.0000E+00  0.0000E+00  0.0000E+00  0.0000E+00  0.0000E+00  0.0000E+00  0.0000E+00  0.0000E+00  0.0000E+00  0.0000E+00  0.0000E+00  0.0000E+00  0.0000E+00  0.0000E+00  0.0000E+00  0.0000E+00  0.0000E+00  0.0000E+00
    -29.218  0.0000E+00  0.0000E+00  0.0000E+00  0.0000E+00  0.0000E+00  0.0000E+00  0.0000E+00  0.0000E+00  0.0000E+00  0.0000E+00  0.0000E+00  0.0000E+00  0.0000E+00  0.0000E+00  0.0000E+00  0.0000E+00  0.0000E+00  0.0000E+00
    -28.983  0.0000E+00  0.0000E+00  0.0000E+00  0.0000E+00  0.0000E+00  0.0000E+00  0.0000E+00  0.0000E+00  0.0000E+00  0.0000E+00  0.0000E+00  0.0000E+00  0.0000E+00  0.0000E+00  0.0000E+00  0.0000E+00  0.0000E+00  0.0000E+00
    -28.749  0.0000E+00  0.0000E+00  0.0000E+00  0.0000E+00  0.0000E+00  0.0000E+00  0.0000E+00  0.0000E+00  0.0000E+00  0.0000E+00  0.0000E+00  0.0000E+00  0.0000E+00  0.0000E+00  0.0000E+00  0.0000E+00  0.0000E+00  0.0000E+00
    -28.515  0.0000E+00  0.0000E+00  0.0000E+00  0.0000E+00  0.0000E+00  0.0000E+00  0.0000E+00  0.0000E+00  0.0000E+00  0.0000E+00  0.0000E+00  0.0000E+00  0.0000E+00  0.0000E+00  0.0000E+00  0.0000E+00  0.0000E+00  0.0000E+00
    -28.280  0.0000E+00  0.0000E+00  0.0000E+00  0.0000E+00  0.0000E+00  0.0000E+00  0.0000E+00  0.0000E+00  0.0000E+00  0.0000E+00  0.0000E+00  0.0000E+00  0.0000E+00  0.0000E+00  0.0000E+00  0.0000E+00  0.0000E+00  0.0000E+00
    -28.046  0.0000E+00  0.0000E+00  0.0000E+00  0.0000E+00  0.0000E+00  0.0000E+00  0.0000E+00  0.0000E+00  0.0000E+00  0.0000E+00  0.0000E+00  0.0000E+00  0.0000E+00  0.0000E+00  0.0000E+00  0.0000E+00  0.0000E+00  0.0000E+00
    -27.811  0.0000E+00  0.0000E+00  0.0000E+00  0.0000E+00  0.0000E+00  0.0000E+00  0.0000E+00  0.0000E+00  0.0000E+00  0.0000E+00  0.0000E+00  0.0000E+00  0.0000E+00  0.0000E+00  0.0000E+00  0.0000E+00  0.0000E+00  0.0000E+00
    -27.577  0.0000E+00  0.0000E+00  0.0000E+00  0.0000E+00  0.0000E+00  0.0000E+00  0.0000E+00  0.0000E+00  0.0000E+00  0.0000E+00  0.0000E+00  0.0000E+00  0.0000E+00  0.0000E+00  0.0000E+00  0.0000E+00  0.0000E+00  0.0000E+00
    -27.342  0.0000E+00  0.0000E+00  0.0000E+00  0.0000E+00  0.0000E+00  0.0000E+00  0.0000E+00  0.0000E+00  0.0000E+00  0.0000E+00  0.0000E+00  0.0000E+00  0.0000E+00  0.0000E+00  0.0000E+00  0.0000E+00  0.0000E+00  0.0000E+00