   4   4   1   0
  0.1749759E+02  0.4120405E-09  0.4121442E-09  0.4121442E-09  0.5000000E-15
  1.000000000000000E-004
  CAR 
 unknown system                          
     20.95442880    -45.70557730  301      7.13757236      1.00000000
    -45.706  0.0000E+00  0.0000E+00  0.0000E+00  0.0000E+00
    -45.483  0.0000E+00  0.0000E+00  0.0000E+00  0.0000E+00
    -45.261  0.0000E+00  0.0000E+00  0.0000E+00  0.0000E+00
    -45.039  0.0000E+00  0.0000E+00  0.0000E+00  0.0000E+00
    -44.817  0.0000E+00  0.0000E+00  0.0000E+00  0.0000E+00
    -44.595  0.0000E+00  0.0000E+00  0.0000E+00  0.0000E+00
    -44.372  0.0000E+00  0.0000E+00  0.0000E+00  0.0000E+00
    -44.150  0.0000E+00  0.0000E+00  0.0000E+00  0.0000E+00
    -43.928  0.0000E+00  0.0000E+00  0.0000E+00  0.0000E+00
    -43.706  0.0000E+00  0.0000E+00  0.0000E+00  0.0000E+00
    -43.484  0.0000E+00  0.0000E+00  0.0000E+00  0.0000E+00
    -43.261  0.1089E-03  0.0000E+00  0.2421E-04  0.0000E+00
    -43.039  0.9158E-02  0.0000E+00  0.2059E-02  0.0000E+00
    -42.817  0.7364E+00  0.0000E+00  0.1657E+00  0.0000E+00
    -42.595  0.1050E+02  0.0000E+00  0.2498E+01  0.0000E+00
    -42.373  0.2228E+01  0.0000E+00  0.2993E+01  0.0000E+00
    -42.150  0.0000E+00  0.0000E+00  0.3000E+01  0.0000E+00
    -41.928  0.0000E+00  0.0000E+00  0.3000E+01  0.0000E+00
    -41.706  0.0000E+00  0.0000E+00  0.3000E+01  0.0000E+00
    -41.484  0.0000E+00  0.0000E+00  0.3000E+01  0.0000E+00
    -41.262  0.0000E+00  0.0000E+00  0.3000E+01  0.0000E+00
    -41.039  0.0000E+00  0.0000E+00  0.3000E+01  0.0000E+00
    -40.817  0.0000E+00  0.0000E+00  0.3000E+01  0.0000E+00
    -40.595  0.0000E+00  0.0000E+00  0.3000E+01  0.0000E+00
    -40.373  0.0000E+00  0.0000E+00  0.3000E+01  0.0000E+00
    -40.151  0.0000E+00  0.0000E+00  0.3000E+01  0.0000E+00
    -39.928  0.0000E+00  0.0000E+00  0.3000E+01  0.0000E+00
    -39.706  0.0000E+00  0.1449E-03  0.3000E+01  0.3219E-04
    -39.484  0.0000E+00  0.1218E-01  0.3000E+01  0.2737E-02
    -39.262  0.0000E+00  0.9615E+00  0.3000E+01  0.2164E+00
    -39.040  0.0000E+00  0.1075E+02  0.3000E+01  0.2606E+01
    -38.817  0.0000E+00  0.1749E+01  0.3000E+01  0.2995E+01
    -38.595  0.0000E+00  0.0000E+00  0.3000E+01  0.3000E+01
    -38.373  0.0000E+00  0.0000E+00  0.3000E+01  0.3000E+01
    -38.151  0.0000E+00  0.0000E+00  0.3000E+01  0.3000E+01
    -37.929  0.0000E+00  0.0000E+00  0.3000E+01  0.3000E+01
    -37.706  0.0000E+00  0.0000E+00  0.3000E+01  0.3000E+01
    -37.484  0.0000E+00  0.0000E+00  0.3000E+01  0.3000E+01
    -37.262  0.0000E+00  0.0000E+00  0.3000E+01  0.3000E+01
    -37.040  0.0000E+00  0.0000E+00  0.3000E+01  0.3000E+01
    -36.818  0.0000E+00  0.0000E+00  0.3000E+01  0.3000E+01
    -36.595  0.0000E+00  0.0000E+00  0.3000E+01  0.3000E+01
    -36.373  0.0000E+00  0.0000E+00  0.3000E+01  0.3000E+01
    -36.151  0.0000E+00  0.0000E+00  0.3000E+01  0.3000E+01
    -35.929  0.0000E+00  0.0000E+00  0.3000E+01  0.3000E+01
    -35.707  0.0000E+00  0.0000E+00  0.3000E+01  0.3000E+01
    -35.484  0.0000E+00  0.0000E+00  0.3000E+01  0.3000E+01
    -35.262  0.0000E+00  0.0000E+00  0.3000E+01  0.3000E+01
    -35.040  0.0000E+00  0.0000E+00  0.3000E+01  0.3000E+01
    -34.818  0.0000E+00  0.0000E+00  0.3000E+01  0.3000E+01
    -34.596  0.0000E+00  0.0000E+00  0.3000E+01  0.3000E+01
    -34.373  0.0000E+00  0.0000E+00  0.3000E+01  0.3000E+01
    -34.151  0.0000E+00  0.0000E+00  0.3000E+01  0.3000E+01
    -33.929  0.0000E+00  0.0000E+00  0.3000E+01  0.3000E+01
    -33.707  0.0000E+00  0.0000E+00  0.3000E+01  0.3000E+01
    -33.485  0.0000E+00  0.0000E+00  0.3000E+01  0.3000E+01
    -33.262  0.0000E+00  0.0000E+00  0.3000E+01  0.3000E+01
    -33.040  0.0000E+00  0.0000E+00  0.3000E+01  0.3000E+01
    -32.818  0.0000E+00  0.0000E+00  0.3000E+01  0.3000E+01
    -32.596  0.0000E+00  0.0000E+00  0.3000E+01  0.3000E+01
    -32.374  0.0000E+00  0.0000E+00  0.3000E+01  0.3000E+01
    -32.151  0.0000E+00  0.0000E+00  0.3000E+01  0.3000E+01
    -31.929  0.0000E+00  0.0000E+00  0.3000E+01  0.3000E+01
    -31.707  0.0000E+00  0.0000E+00  0.3000E+01  0.3000E+01
    -31.485  0.0000E+00  0.0000E+00  0.3000E+01  0.3000E+01
    -31.263  0.0000E+00  0.0000E+00  0.3000E+01  0.3000E+01
    -31.040  0.0000E+00  0.0000E+00  0.3000E+01  0.3000E+01
    -30.818  0.0000E+00  0.0000E+00  0.3000E+01  0.3000E+01
    -30.596  0.0000E+00  0.0000E+00  0.3000E+01  0.3000E+01
    -30.374  0.0000E+00  0.0000E+00  0.3000E+01  0.3000E+01
    -30.152  0.0000E+00  0.0000E+00  0.3000E+01  0.3000E+01
    -29.929  0.0000E+00  0.0000E+00  0.3000E+01  0.3000E+01
    -29.707  0.0000E+00  0.0000E+00  0.3000E+01  0.3000E+01
    -29.485  0.0000E+00  0.0000E+00  0.3000E+01  0.3000E+01
    -29.263  0.0000E+00  0.0000E+00  0.3000E+01  0.3000E+01
    -29.041  0.0000E+00  0.0000E+00  0.3000E+01  0.3000E+01
    -28.818  0.0000E+00  0.0000E+00  0.3000E+01  0.3000E+01
    -28.596  0.0000E+00  0.0000E+00  0.3000E+01  0.3000E+01
    -28.374  0.0000E+00  0.0000E+00  0.3000E+01  0.3000E+01
    -28.152  0.0000E+00  0.0000E+00  0.3000E+01  0.3000E+01
    -27.930  0.0000E+00  0.0000E+00  0.3000E+01  0.3000E+01
    -27.707  0.0000E+00  0.0000E+00  0.3000E+01  0.3000E+01
    -27.485  0.0000E+00  0.0000E+00  0.3000E+01  0.3000E+01
    -27.263  0.0000E+00  0.0000E+00  0.3000E+01  0.3000E+01
    -27.041  0.0000E+00  0.0000E+00  0.3000E+01  0.3000E+01
    -26.819  0.0000E+00  0.0000E+00  0.3000E+01  0.3000E+01
    -26.596  0.0000E+00  0.0000E+00  0.3000E+01  0.3000E+01
    -26.374  0.0000E+00  0.0000E+00  0.3000E+01  0.3000E+01
    -26.152  0.0000E+00  0.0000E+00  0.3000E+01  0.3000E+01
    -25.930  0.0000E+00  0.0000E+00  0.3000E+01  0.3000E+01
    -25.708  0.0000E+00  0.0000E+00  0.3000E+01  0.3000E+01
    -25.485  0.0000E+00  0.0000E+00  0.3000E+01  0.3000E+01
    -25.263  0.0000E+00  0.0000E+00  0.3000E+01  0.3000E+01
    -25.041  0.0000E+00  0.0000E+00  0.3000E+01  0.3000E+01
    -24.819  0.0000E+00  0.0000E+00  0.3000E+01  0.3000E+01
    -24.597  0.0000E+00  0.0000E+00  0.3000E+01  0.3000E+01
    -24.374  0.0000E+00  0.0000E+00  0.3000E+01  0.3000E+01
    -24.152  0.0000E+00  0.0000E+00  0.3000E+01  0.3000E+01
    -23.930  0.0000E+00  0.0000E+00  0.3000E+01  0.3000E+01
    -23.708  0.0000E+00  0.0000E+00  0.3000E+01  0.3000E+01
    -23.486  0.0000E+00  0.0000E+00  0.3000E+01  0.3000E+01
    -23.263  0.0000E+00  0.0000E+00  0.3000E+01  0.3000E+01
    -23.041  0.0000E+00  0.0000E+00  0.3000E+01  0.3000E+01
    -22.819  0.0000E+00  0.0000E+00  0.3000E+01  0.3000E+01
    -22.597  0.0000E+00  0.0000E+00  0.3000E+01  0.3000E+01
    -22.375  0.0000E+00  0.0000E+00  0.3000E+01  0.3000E+01
    -22.152  0.0000E+00  0.0000E+00  0.3000E+01  0.3000E+01
    -21.930  0.0000E+00  0.0000E+00  0.3000E+01  0.3000E+01
    -21.708  0.0000E+00  0.0000E+00  0.3000E+01  0.3000E+01
    -21.486  0.0000E+00  0.0000E+00  0.3000E+01  0.3000E+01
    -21.264  0.0000E+00  0.0000E+00  0.3000E+01  0.3000E+01
    -21.041  0.0000E+00  0.0000E+00  0.3000E+01  0.3000E+01
    -20.819  0.0000E+00  0.0000E+00  0.3000E+01  0.3000E+01
    -20.597  0.0000E+00  0.0000E+00  0.3000E+01  0.3000E+01
    -20.375  0.0000E+00  0.0000E+00  0.3000E+01  0.3000E+01
    -20.153  0.0000E+00  0.0000E+00  0.3000E+01  0.3000E+01
    -19.930  0.0000E+00  0.0000E+00  0.3000E+01  0.3000E+01
    -19.708  0.0000E+00  0.0000E+00  0.3000E+01  0.3000E+01
    -19.486  0.0000E+00  0.0000E+00  0.3000E+01  0.3000E+01
    -19.264  0.0000E+00  0.0000E+00  0.3000E+01  0.3000E+01
    -19.042  0.0000E+00  0.0000E+00  0.3000E+01  0.3000E+01
    -18.819  0.0000E+00  0.0000E+00  0.3000E+01  0.3000E+01
    -18.597  0.0000E+00  0.0000E+00  0.3000E+01  0.3000E+01
    -18.375  0.0000E+00  0.0000E+00  0.3000E+01  0.3000E+01
    -18.153  0.0000E+00  0.0000E+00  0.3000E+01  0.3000E+01
    -17.931  0.0000E+00  0.0000E+00  0.3000E+01  0.3000E+01
    -17.708  0.0000E+00  0.0000E+00  0.3000E+01  0.3000E+01
    -17.486  0.0000E+00  0.0000E+00  0.3000E+01  0.3000E+01
    -17.264  0.0000E+00  0.0000E+00  0.3000E+01  0.3000E+01
    -17.042  0.0000E+00  0.0000E+00  0.3000E+01  0.3000E+01
    -16.820  0.0000E+00  0.0000E+00  0.3000E+01  0.3000E+01
    -16.597  0.0000E+00  0.0000E+00  0.3000E+01  0.3000E+01
    -16.375  0.0000E+00  0.0000E+00  0.3000E+01  0.3000E+01
    -16.153  0.0000E+00  0.0000E+00  0.3000E+01  0.3000E+01
    -15.931  0.0000E+00  0.0000E+00  0.3000E+01  0.3000E+01
    -15.709  0.0000E+00  0.0000E+00  0.3000E+01  0.3000E+01
    -15.486  0.0000E+00  0.0000E+00  0.3000E+01  0.3000E+01
    -15.264  0.0000E+00  0.0000E+00  0.3000E+01  0.3000E+01
    -15.042  0.0000E+00  0.0000E+00  0.3000E+01  0.3000E+01
    -14.820  0.0000E+00  0.0000E+00  0.3000E+01  0.3000E+01
    -14.598  0.0000E+00  0.0000E+00  0.3000E+01  0.3000E+01
    -14.375  0.0000E+00  0.0000E+00  0.3000E+01  0.3000E+01
    -14.153  0.0000E+00  0.0000E+00  0.3000E+01  0.3000E+01
    -13.931  0.0000E+00  0.0000E+00  0.3000E+01  0.3000E+01
    -13.709  0.0000E+00  0.0000E+00  0.3000E+01  0.3000E+01
    -13.487  0.0000E+00  0.0000E+00  0.3000E+01  0.3000E+01
    -13.264  0.0000E+00  0.0000E+00  0.3000E+01  0.3000E+01
    -13.042  0.0000E+00  0.0000E+00  0.3000E+01  0.3000E+01
    -12.820  0.0000E+00  0.0000E+00  0.3000E+01  0.3000E+01
    -12.598  0.0000E+00  0.0000E+00  0.3000E+01  0.3000E+01
    -12.376  0.0000E+00  0.0000E+00  0.3000E+01  0.3000E+01
    -12.153  0.0000E+00  0.0000E+00  0.3000E+01  0.3000E+01
    -11.931  0.0000E+00  0.0000E+00  0.3000E+01  0.3000E+01
    -11.709  0.0000E+00  0.0000E+00  0.3000E+01  0.3000E+01
    -11.487  0.0000E+00  0.0000E+00  0.3000E+01  0.3000E+01
    -11.265  0.0000E+00  0.0000E+00  0.3000E+01  0.3000E+01
    -11.042  0.0000E+00  0.0000E+00  0.3000E+01  0.3000E+01
    -10.820  0.0000E+00  0.0000E+00  0.3000E+01  0.3000E+01
    -10.598  0.0000E+00  0.0000E+00  0.3000E+01  0.3000E+01
    -10.376  0.0000E+00  0.0000E+00  0.3000E+01  0.3000E+01
    -10.154  0.0000E+00  0.0000E+00  0.3000E+01  0.3000E+01
     -9.931  0.0000E+00  0.0000E+00  0.3000E+01  0.3000E+01
     -9.709  0.0000E+00  0.0000E+00  0.3000E+01  0.3000E+01
     -9.487  0.0000E+00  0.0000E+00  0.3000E+01  0.3000E+01
     -9.265  0.0000E+00  0.0000E+00  0.3000E+01  0.3000E+01
     -9.043  0.0000E+00  0.0000E+00  0.3000E+01  0.3000E+01
     -8.820  0.0000E+00  0.0000E+00  0.3000E+01  0.3000E+01
     -8.598  0.0000E+00  0.0000E+00  0.3000E+01  0.3000E+01
     -8.376  0.0000E+00  0.0000E+00  0.3000E+01  0.3000E+01
     -8.154  0.0000E+00  0.0000E+00  0.3000E+01  0.3000E+01
     -7.932  0.0000E+00  0.0000E+00  0.3000E+01  0.3000E+01
     -7.709  0.0000E+00  0.0000E+00  0.3000E+01  0.3000E+01
     -7.487  0.0000E+00  0.0000E+00  0.3000E+01  0.3000E+01
     -7.265  0.0000E+00  0.0000E+00  0.3000E+01  0.3000E+01
     -7.043  0.0000E+00  0.0000E+00  0.3000E+01  0.3000E+01
     -6.821  0.0000E+00  0.0000E+00  0.3000E+01  0.3000E+01
     -6.598  0.0000E+00  0.0000E+00  0.3000E+01  0.3000E+01
     -6.376  0.0000E+00  0.0000E+00  0.3000E+01  0.3000E+01
     -6.154  0.0000E+00  0.0000E+00  0.3000E+01  0.3000E+01
     -5.932  0.0000E+00  0.0000E+00  0.3000E+01  0.3000E+01
     -5.710  0.0000E+00  0.0000E+00  0.3000E+01  0.3000E+01
     -5.487  0.0000E+00  0.0000E+00  0.3000E+01  0.3000E+01
     -5.265  0.0000E+00  0.0000E+00  0.3000E+01  0.3000E+01
     -5.043  0.0000E+00  0.0000E+00  0.3000E+01  0.3000E+01
     -4.821  0.0000E+00  0.0000E+00  0.3000E+01  0.3000E+01
     -4.599  0.0000E+00  0.0000E+00  0.3000E+01  0.3000E+01
     -4.376  0.0000E+00  0.0000E+00  0.3000E+01  0.3000E+01
     -4.154  0.0000E+00  0.0000E+00  0.3000E+01  0.3000E+01
     -3.932  0.0000E+00  0.0000E+00  0.3000E+01  0.3000E+01
     -3.710  0.0000E+00  0.0000E+00  0.3000E+01  0.3000E+01
     -3.488  0.4630E-06  0.1186E-06  0.3000E+01  0.3000E+01
     -3.265  0.4430E-04  0.1684E-04  0.3000E+01  0.3000E+01
     -3.043  0.3365E-02  0.1376E-02  0.3001E+01  0.3000E+01
     -2.821  0.5304E-01  0.3687E-01  0.3013E+01  0.3009E+01
     -2.599  0.1253E+00  0.1161E+00  0.3040E+01  0.3034E+01
     -2.377  0.1773E+00  0.1677E+00  0.3080E+01  0.3072E+01
     -2.154  0.2005E+00  0.1990E+00  0.3125E+01  0.3116E+01
     -1.932  0.2632E+00  0.2534E+00  0.3183E+01  0.3172E+01
     -1.710  0.2477E+00  0.2476E+00  0.3239E+01  0.3228E+01
     -1.488  0.3366E+00  0.3355E+00  0.3314E+01  0.3302E+01
     -1.266  0.3146E+00  0.3146E+00  0.3385E+01  0.3373E+01
     -1.043  0.3941E+00  0.4102E+00  0.3473E+01  0.3465E+01
     -0.821  0.4152E+00  0.4031E+00  0.3566E+01  0.3555E+01
     -0.599  0.3314E+00  0.3487E+00  0.3640E+01  0.3633E+01
     -0.377  0.3798E+00  0.3564E+00  0.3725E+01  0.3713E+01
     -0.155  0.3738E+00  0.3098E+00  0.3808E+01  0.3782E+01
      0.068  0.4552E+00  0.4622E+00  0.3910E+01  0.3885E+01
      0.290  0.4071E+00  0.3668E+00  0.4001E+01  0.3967E+01
      0.512  0.4816E+00  0.4392E+00  0.4109E+01  0.4064E+01
      0.734  0.4933E+00  0.5183E+00  0.4219E+01  0.4180E+01
      0.956  0.4511E+00  0.4361E+00  0.4320E+01  0.4277E+01
      1.179  0.5223E+00  0.4891E+00  0.4436E+01  0.4387E+01
      1.401  0.6352E+00  0.6312E+00  0.4578E+01  0.4528E+01
      1.623  0.6981E+00  0.6233E+00  0.4734E+01  0.4667E+01
      1.845  0.5917E+00  0.5617E+00  0.4866E+01  0.4792E+01
      2.067  0.7134E+00  0.5769E+00  0.5025E+01  0.4922E+01
      2.290  0.7940E+00  0.5895E+00  0.5203E+01  0.5054E+01
      2.512  0.6957E+00  0.6680E+00  0.5359E+01  0.5203E+01
      2.734  0.6731E+00  0.5665E+00  0.5509E+01  0.5331E+01
      2.956  0.7399E+00  0.5644E+00  0.5675E+01  0.5457E+01
      3.178  0.9267E+00  0.6019E+00  0.5881E+01  0.5591E+01
      3.401  0.1001E+01  0.6480E+00  0.6105E+01  0.5736E+01
      3.623  0.1217E+01  0.7516E+00  0.6376E+01  0.5904E+01
      3.845  0.1786E+01  0.6937E+00  0.6774E+01  0.6059E+01
      4.067  0.2916E+01  0.8236E+00  0.7424E+01  0.6243E+01
      4.289  0.3295E+01  0.8564E+00  0.8160E+01  0.6434E+01
      4.512  0.2400E+01  0.8455E+00  0.8698E+01  0.6623E+01
      4.734  0.1797E+01  0.9989E+00  0.9101E+01  0.6846E+01
      4.956  0.3588E+01  0.8610E+00  0.9901E+01  0.7038E+01
      5.178  0.3030E+01  0.1152E+01  0.1058E+02  0.7296E+01
      5.400  0.1688E+01  0.1120E+01  0.1096E+02  0.7545E+01
      5.623  0.1323E+01  0.1345E+01  0.1125E+02  0.7845E+01
      5.845  0.8210E+00  0.1143E+01  0.1144E+02  0.8100E+01
      6.067  0.9171E+00  0.1081E+01  0.1164E+02  0.8342E+01
      6.289  0.7551E+00  0.8482E+00  0.1181E+02  0.8532E+01
      6.511  0.1224E+01  0.8651E+00  0.1208E+02  0.8726E+01
      6.734  0.1133E+01  0.8946E+00  0.1234E+02  0.8926E+01
      6.956  0.8765E+00  0.9451E+00  0.1253E+02  0.9137E+01
      7.178  0.8691E+00  0.9773E+00  0.1273E+02  0.9355E+01
      7.400  0.9359E+00  0.1564E+01  0.1294E+02  0.9704E+01
      7.622  0.7598E+00  0.1988E+01  0.1311E+02  0.1015E+02
      7.845  0.7036E+00  0.2481E+01  0.1326E+02  0.1070E+02
      8.067  0.1157E+01  0.3111E+01  0.1352E+02  0.1140E+02
      8.289  0.1069E+01  0.3083E+01  0.1376E+02  0.1209E+02
      8.511  0.1077E+01  0.1650E+01  0.1400E+02  0.1246E+02
      8.733  0.7157E+00  0.1604E+01  0.1416E+02  0.1282E+02
      8.956  0.7883E+00  0.2226E+01  0.1434E+02  0.1331E+02
      9.178  0.9042E+00  0.1554E+01  0.1454E+02  0.1366E+02
      9.400  0.1084E+01  0.1445E+01  0.1478E+02  0.1398E+02
      9.622  0.8985E+00  0.1240E+01  0.1499E+02  0.1426E+02
      9.844  0.7391E+00  0.1448E+01  0.1515E+02  0.1458E+02
     10.067  0.9476E+00  0.1116E+01  0.1536E+02  0.1483E+02
     10.289  0.8687E+00  0.9235E+00  0.1556E+02  0.1504E+02
     10.511  0.1039E+01  0.8638E+00  0.1579E+02  0.1524E+02
     10.733  0.9626E+00  0.1387E+01  0.1600E+02  0.1555E+02
     10.955  0.1139E+01  0.9419E+00  0.1626E+02  0.1576E+02
     11.178  0.8990E+00  0.7740E+00  0.1646E+02  0.1593E+02
     11.400  0.9115E+00  0.1172E+01  0.1666E+02  0.1619E+02
     11.622  0.1126E+01  0.1389E+01  0.1691E+02  0.1650E+02
     11.844  0.9446E+00  0.1324E+01  0.1713E+02  0.1680E+02
     12.066  0.9797E+00  0.9980E+00  0.1734E+02  0.1702E+02
     12.289  0.1107E+01  0.1151E+01  0.1759E+02  0.1728E+02
     12.511  0.1190E+01  0.1028E+01  0.1786E+02  0.1751E+02
     12.733  0.1036E+01  0.1273E+01  0.1809E+02  0.1779E+02
     12.955  0.1028E+01  0.1287E+01  0.1832E+02  0.1808E+02
     13.177  0.1098E+01  0.1122E+01  0.1857E+02  0.1833E+02
     13.400  0.1018E+01  0.9297E+00  0.1879E+02  0.1854E+02
     13.622  0.9400E+00  0.1044E+01  0.1900E+02  0.1877E+02
     13.844  0.7506E+00  0.9524E+00  0.1917E+02  0.1898E+02
     14.066  0.7347E+00  0.9165E+00  0.1933E+02  0.1919E+02
     14.288  0.5527E+00  0.7758E+00  0.1946E+02  0.1936E+02
     14.511  0.2221E+00  0.3688E+00  0.1951E+02  0.1945E+02
     14.733  0.2697E+00  0.5004E+00  0.1957E+02  0.1956E+02
     14.955  0.4218E+00  0.3830E+00  0.1966E+02  0.1964E+02
     15.177  0.2644E+00  0.3298E+00  0.1972E+02  0.1972E+02
     15.399  0.2980E+00  0.2534E+00  0.1979E+02  0.1977E+02
     15.622  0.1882E+00  0.2101E+00  0.1983E+02  0.1982E+02
     15.844  0.4182E-01  0.4774E-01  0.1984E+02  0.1983E+02
     16.066  0.1699E+00  0.2436E+00  0.1988E+02  0.1989E+02
     16.288  0.1889E+00  0.1476E+00  0.1992E+02  0.1992E+02
     16.510  0.5325E-01  0.1073E+00  0.1993E+02  0.1994E+02
     16.733  0.8673E-01  0.3500E-01  0.1995E+02  0.1995E+02
     16.955  0.6694E-01  0.1024E+00  0.1997E+02  0.1997E+02
     17.177  0.7748E-01  0.5479E-01  0.1998E+02  0.1999E+02
     17.399  0.3370E-01  0.3946E-01  0.1999E+02  0.2000E+02
     17.621  0.1944E-01  0.3099E-02  0.2000E+02  0.2000E+02
     17.844  0.3225E-02  0.7186E-02  0.2000E+02  0.2000E+02
     18.066  0.1276E-01  0.8813E-02  0.2000E+02  0.2000E+02
     18.288  0.9035E-03  0.0000E+00  0.2000E+02  0.2000E+02
     18.510  0.0000E+00  0.0000E+00  0.2000E+02  0.2000E+02
     18.732  0.0000E+00  0.0000E+00  0.2000E+02  0.2000E+02
     18.955  0.0000E+00  0.0000E+00  0.2000E+02  0.2000E+02
     19.177  0.0000E+00  0.0000E+00  0.2000E+02  0.2000E+02
     19.399  0.0000E+00  0.0000E+00  0.2000E+02  0.2000E+02
     19.621  0.0000E+00  0.0000E+00  0.2000E+02  0.2000E+02
     19.843  0.0000E+00  0.0000E+00  0.2000E+02  0.2000E+02
     20.066  0.0000E+00  0.0000E+00  0.2000E+02  0.2000E+02
     20.288  0.0000E+00  0.0000E+00  0.2000E+02  0.2000E+02
     20.510  0.0000E+00  0.0000E+00  0.2000E+02  0.2000E+02
     20.732  0.0000E+00  0.0000E+00  0.2000E+02  0.2000E+02
     20.954  0.0000E+00  0.0000E+00  0.2000E+02  0.2000E+02
     20.95442880    -45.70557730  301      7.13757236      1.00000000
    -45.706  0.0000E+00  0.0000E+00  0.0000E+00  0.0000E+00  0.0000E+00  0.0000E+00  0.0000E+00  0.0000E+00  0.0000E+00  0.0000E+00  0.0000E+00  0.0000E+00  0.0000E+00  0.0000E+00  0.0000E+00  0.0000E+00  0.0000E+00  0.0000E+00
    -45.483  0.0000E+00  0.0000E+00  0.0000E+00  0.0000E+00  0.0000E+00  0.0000E+00  0.0000E+00  0.0000E+00  0.0000E+00  0.0000E+00  0.0000E+00  0.0000E+00  0.0000E+00  0.0000E+00  0.0000E+00  0.0000E+00  0.0000E+00  0.0000E+00
    -45.261  0.0000E+00  0.0000E+00  0.0000E+00  0.0000E+00  0.0000E+00  0.0000E+00  0.0000E+00  0.0000E+00  0.0000E+00  0.0000E+00  0.0000E+00  0.0000E+00  0.0000E+00  0.0000E+00  0.0000E+00  0.0000E+00  0.0000E+00  0.0000E+00
    -45.039  0.0000E+00  0.0000E+00  0.0000E+00  0.0000E+00  0.0000E+00  0.0000E+00  0.0000E+00  0.0000E+00  0.0000E+00  0.0000E+00  0.0000E+00  0.0000E+00  0.0000E+00  0.0000E+00  0.0000E+00  0.0000E+00  0.0000E+00  0.0000E+00
    -44.817  0.0000E+00  0.0000E+00  0.0000E+00  0.0000E+00  0.0000E+00  0.0000E+00  0.0000E+00  0.0000E+00  0.0000E+00  0.0000E+00  0.0000E+00  0.0000E+00  0.0000E+00  0.0000E+00  0.0000E+00  0.0000E+00  0.0000E+00  0.0000E+00
    -44.595  0.0000E+00  0.0000E+00  0.0000E+00  0.0000E+00  0.0000E+00  0.0000E+00  0.0000E+00  0.0000E+00  0.0000E+00  0.0000E+00  0.0000E+00  0.0000E+00  0.0000E+00  0.0000E+00  0.0000E+00  0.0000E+00  0.0000E+00  0.0000E+00
    -44.372  0.0000E+00  0.0000E+00  0.0000E+00  0.0000E+00  0.0000E+00  0.0000E+00  0.0000E+00  0.0000E+00  0.0000E+00  0.0000E+00  0.0000E+00  0.0000E+00  0.0000E+00  0.0000E+00  0.0000E+00  0.0000E+00  0.0000E+00  0.0000E+00
    -44.150  0.0000E+00  0.0000E+00  0.0000E+00  0.0000E+00  0.0000E+00  0.0000E+00  0.0000E+00  0.0000E+00  0.0000E+00  0.0000E+00  0.0000E+00  0.0000E+00  0.0000E+00  0.0000E+00  0.0000E+00  0.0000E+00  0.0000E+00  0.0000E+00
    -43.928  0.0000E+00  0.0000E+00  0.0000E+00  0.0000E+00  0.0000E+00  0.0000E+00  0.0000E+00  0.0000E+00  0.0000E+00  0.0000E+00  0.0000E+00  0.0000E+00  0.0000E+00  0.0000E+00  0.0000E+00  0.0000E+00  0.0000E+00  0.0000E+00
    -43.706  0.0000E+00  0.0000E+00  0.0000E+00  0.0000E+00  0.0000E+00  0.0000E+00  0.0000E+00  0.0000E+00  0.0000E+00  0.0000E+00  0.0000E+00  0.0000E+00  0.0000E+00  0.0000E+00  0.0000E+00  0.0000E+00  0.0000E+00  0.0000E+00
    -43.484  0.0000E+00  0.0000E+00  0.0000E+00  0.0000E+00  0.0000E+00  0.0000E+00  0.0000E+00  0.0000E+00  0.0000E+00  0.0000E+00  0.0000E+00  0.0000E+00  0.0000E+00  0.0000E+00  0.0000E+00  0.0000E+00  0.0000E+00  0.0000E+00
    -43.261  0.4541E-13  0.0000E+00  0.3617E-04  0.0000E+00  0.3617E-04  0.0000E+00  0.3601E-04  0.0000E+00  0.1006E-14  0.0000E+00  0.9971E-15  0.0000E+00  0.2947E-13  0.0000E+00  0.1006E-14  0.0000E+00  0.3033E-13  0.0000E+00
    -43.039  0.3817E-11  0.0000E+00  0.3041E-02  0.0000E+00  0.3041E-02  0.0000E+00  0.3027E-02  0.0000E+00  0.8457E-13  0.0000E+00  0.8381E-13  0.0000E+00  0.2477E-11  0.0000E+00  0.8457E-13  0.0000E+00  0.2550E-11  0.0000E+00
    -42.817  0.3069E-09  0.0000E+00  0.2445E+00  0.0000E+00  0.2445E+00  0.0000E+00  0.2434E+00  0.0000E+00  0.6800E-11  0.0000E+00  0.6738E-11  0.0000E+00  0.1992E-09  0.0000E+00  0.6800E-11  0.0000E+00  0.2050E-09  0.0000E+00
    -42.595  0.4373E-08  0.0000E+00  0.3480E+01  0.0000E+00  0.3480E+01  0.0000E+00  0.3479E+01  0.0000E+00  0.9666E-10  0.0000E+00  0.9562E-10  0.0000E+00  0.2839E-08  0.0000E+00  0.9666E-10  0.0000E+00  0.2922E-08  0.0000E+00
    -42.373  0.9279E-09  0.0000E+00  0.7376E+00  0.0000E+00  0.7376E+00  0.0000E+00  0.7405E+00  0.0000E+00  0.2045E-10  0.0000E+00  0.2019E-10  0.0000E+00  0.6024E-09  0.0000E+00  0.2045E-10  0.0000E+00  0.6199E-09  0.0000E+00
    -42.150  0.0000E+00  0.0000E+00  0.0000E+00  0.0000E+00  0.0000E+00  0.0000E+00  0.0000E+00  0.0000E+00  0.0000E+00  0.0000E+00  0.0000E+00  0.0000E+00  0.0000E+00  0.0000E+00  0.0000E+00  0.0000E+00  0.0000E+00  0.0000E+00
    -41.928  0.0000E+00  0.0000E+00  0.0000E+00  0.0000E+00  0.0000E+00  0.0000E+00  0.0000E+00  0.0000E+00  0.0000E+00  0.0000E+00  0.0000E+00  0.0000E+00  0.0000E+00  0.0000E+00  0.0000E+00  0.0000E+00  0.0000E+00  0.0000E+00
    -41.706  0.0000E+00  0.0000E+00  0.0000E+00  0.0000E+00  0.0000E+00  0.0000E+00  0.0000E+00  0.0000E+00  0.0000E+00  0.0000E+00  0.0000E+00  0.0000E+00  0.0000E+00  0.0000E+00  0.0000E+00  0.0000E+00  0.0000E+00  0.0000E+00
    -41.484  0.0000E+00  0.0000E+00  0.0000E+00  0.0000E+00  0.0000E+00  0.0000E+00  0.0000E+00  0.0000E+00  0.0000E+00  0.0000E+00  0.0000E+00  0.0000E+00  0.0000E+00  0.0000E+00  0.0000E+00  0.0000E+00  0.0000E+00  0.0000E+00
    -41.262  0.0000E+00  0.0000E+00  0.0000E+00  0.0000E+00  0.0000E+00  0.0000E+00  0.0000E+00  0.0000E+00  0.0000E+00  0.0000E+00  0.0000E+00  0.0000E+00  0.0000E+00  0.0000E+00  0.0000E+00  0.0000E+00  0.0000E+00  0.0000E+00
    -41.039  0.0000E+00  0.0000E+00  0.0000E+00  0.0000E+00  0.0000E+00  0.0000E+00  0.0000E+00  0.0000E+00  0.0000E+00  0.0000E+00  0.0000E+00  0.0000E+00  0.0000E+00  0.0000E+00  0.0000E+00  0.0000E+00  0.0000E+00  0.0000E+00
    -40.817  0.0000E+00  0.0000E+00  0.0000E+00  0.0000E+00  0.0000E+00  0.0000E+00  0.0000E+00  0.0000E+00  0.0000E+00  0.0000E+00  0.0000E+00  0.0000E+00  0.0000E+00  0.0000E+00  0.0000E+00  0.0000E+00  0.0000E+00  0.0000E+00
    -40.595  0.0000E+00  0.0000E+00  0.0000E+00  0.0000E+00  0.0000E+00  0.0000E+00  0.0000E+00  0.0000E+00  0.0000E+00  0.0000E+00  0.0000E+00  0.0000E+00  0.0000E+00  0.0000E+00  0.0000E+00  0.0000E+00  0.0000E+00  0.0000E+00
    -40.373  0.0000E+00  0.0000E+00  0.0000E+00  0.0000E+00  0.0000E+00  0.0000E+00  0.0000E+00  0.0000E+00  0.0000E+00  0.0000E+00  0.0000E+00  0.0000E+00  0.0000E+00  0.0000E+00  0.0000E+00  0.0000E+00  0.0000E+00  0.0000E+00
    -40.151  0.0000E+00  0.0000E+00  0.0000E+00  0.0000E+00  0.0000E+00  0.0000E+00  0.0000E+00  0.0000E+00  0.0000E+00  0.0000E+00  0.0000E+00  0.0000E+00  0.0000E+00  0.0000E+00  0.0000E+00  0.0000E+00  0.0000E+00  0.0000E+00
    -39.928  0.0000E+00  0.0000E+00  0.0000E+00  0.0000E+00  0.0000E+00  0.0000E+00  0.0000E+00  0.0000E+00  0.0000E+00  0.0000E+00  0.0000E+00  0.0000E+00  0.0000E+00  0.0000E+00  0.0000E+00  0.0000E+00  0.0000E+00  0.0000E+00
    -39.706  0.0000E+00  0.9225E-13  0.0000E+00  0.4806E-04  0.0000E+00  0.4806E-04  0.0000E+00  0.4802E-04  0.0000E+00  0.2475E-14  0.0000E+00  0.2464E-14  0.0000E+00  0.6692E-13  0.0000E+00  0.2475E-14  0.0000E+00  0.6878E-13
    -39.484  0.0000E+00  0.7752E-11  0.0000E+00  0.4039E-02  0.0000E+00  0.4039E-02  0.0000E+00  0.4035E-02  0.0000E+00  0.2080E-12  0.0000E+00  0.2071E-12  0.0000E+00  0.5624E-11  0.0000E+00  0.2080E-12  0.0000E+00  0.5780E-11
    -39.262  0.0000E+00  0.6122E-09  0.0000E+00  0.3190E+00  0.0000E+00  0.3190E+00  0.0000E+00  0.3187E+00  0.0000E+00  0.1642E-10  0.0000E+00  0.1635E-10  0.0000E+00  0.4441E-09  0.0000E+00  0.1642E-10  0.0000E+00  0.4565E-09
    -39.040  0.0000E+00  0.6847E-08  0.0000E+00  0.3567E+01  0.0000E+00  0.3567E+01  0.0000E+00  0.3566E+01  0.0000E+00  0.1830E-09  0.0000E+00  0.1821E-09  0.0000E+00  0.4968E-08  0.0000E+00  0.1830E-09  0.0000E+00  0.5103E-08
    -38.817  0.0000E+00  0.1113E-08  0.0000E+00  0.5798E+00  0.0000E+00  0.5798E+00  0.0000E+00  0.5802E+00  0.0000E+00  0.2964E-10  0.0000E+00  0.2949E-10  0.0000E+00  0.8077E-09  0.0000E+00  0.2964E-10  0.0000E+00  0.8293E-09
    -38.595  0.0000E+00  0.0000E+00  0.0000E+00  0.0000E+00  0.0000E+00  0.0000E+00  0.0000E+00  0.0000E+00  0.0000E+00  0.0000E+00  0.0000E+00  0.0000E+00  0.0000E+00  0.0000E+00  0.0000E+00  0.0000E+00  0.0000E+00  0.0000E+00
    -38.373  0.0000E+00  0.0000E+00  0.0000E+00  0.0000E+00  0.0000E+00  0.0000E+00  0.0000E+00  0.0000E+00  0.0000E+00  0.0000E+00  0.0000E+00  0.0000E+00  0.0000E+00  0.0000E+00  0.0000E+00  0.0000E+00  0.0000E+00  0.0000E+00
    -38.151  0.0000E+00  0.0000E+00  0.0000E+00  0.0000E+00  0.0000E+00  0.0000E+00  0.0000E+00  0.0000E+00  0.0000E+00  0.0000E+00  0.0000E+00  0.0000E+00  0.0000E+00  0.0000E+00  0.0000E+00  0.0000E+00  0.0000E+00  0.0000E+00
    -37.929  0.0000E+00  0.0000E+00  0.0000E+00  0.0000E+00  0.0000E+00  0.0000E+00  0.0000E+00  0.0000E+00  0.0000E+00  0.0000E+00  0.0000E+00  0.0000E+00  0.0000E+00  0.0000E+00  0.0000E+00  0.0000E+00  0.0000E+00  0.0000E+00
    -37.706  0.0000E+00  0.0000E+00  0.0000E+00  0.0000E+00  0.0000E+00  0.0000E+00  0.0000E+00  0.0000E+00  0.0000E+00  0.0000E+00  0.0000E+00  0.0000E+00  0.0000E+00  0.0000E+00  0.0000E+00  0.0000E+00  0.0000E+00  0.0000E+00
    -37.484  0.0000E+00  0.0000E+00  0.0000E+00  0.0000E+00  0.0000E+00  0.0000E+00  0.0000E+00  0.0000E+00  0.0000E+00  0.0000E+00  0.0000E+00  0.0000E+00  0.0000E+00  0.0000E+00  0.0000E+00  0.0000E+00  0.0000E+00  0.0000E+00
    -37.262  0.0000E+00  0.0000E+00  0.0000E+00  0.0000E+00  0.0000E+00  0.0000E+00  0.0000E+00  0.0000E+00  0.0000E+00  0.0000E+00  0.0000E+00  0.0000E+00  0.0000E+00  0.0000E+00  0.0000E+00  0.0000E+00  0.0000E+00  0.0000E+00
    -37.040  0.0000E+00  0.0000E+00  0.0000E+00  0.0000E+00  0.0000E+00  0.0000E+00  0.0000E+00  0.0000E+00  0.0000E+00  0.0000E+00  0.0000E+00  0.0000E+00  0.0000E+00  0.0000E+00  0.0000E+00  0.0000E+00  0.0000E+00  0.0000E+00
    -36.818  0.0000E+00  0.0000E+00  0.0000E+00  0.0000E+00  0.0000E+00  0.0000E+00  0.0000E+00  0.0000E+00  0.0000E+00  0.0000E+00  0.0000E+00  0.0000E+00  0.0000E+00  0.0000E+00  0.0000E+00  0.0000E+00  0.0000E+00  0.0000E+00
    -36.595  0.0000E+00  0.0000E+00  0.0000E+00  0.0000E+00  0.0000E+00  0.0000E+00  0.0000E+00  0.0000E+00  0.0000E+00  0.0000E+00  0.0000E+00  0.0000E+00  0.0000E+00  0.0000E+00  0.0000E+00  0.0000E+00  0.0000E+00  0.0000E+00
    -36.373  0.0000E+00  0.0000E+00  0.0000E+00  0.0000E+00  0.0000E+00  0.0000E+00  0.0000E+00  0.0000E+00  0.0000E+00  0.0000E+00  0.0000E+00  0.0000E+00  0.0000E+00  0.0000E+00  0.0000E+00  0.0000E+00  0.0000E+00  0.0000E+00
    -36.151  0.0000E+00  0.0000E+00  0.0000E+00  0.0000E+00  0.0000E+00  0.0000E+00  0.0000E+00  0.0000E+00  0.0000E+00  0.0000E+00  0.0000E+00  0.0000E+00  0.0000E+00  0.0000E+00  0.0000E+00  0.0000E+00  0.0000E+00  0.0000E+00
    -35.929  0.0000E+00  0.0000E+00  0.0000E+00  0.0000E+00  0.0000E+00  0.0000E+00  0.0000E+00  0.0000E+00  0.0000E+00  0.0000E+00  0.0000E+00  0.0000E+00  0.0000E+00  0.0000E+00  0.0000E+00  0.0000E+00  0.0000E+00  0.0000E+00
    -35.707  0.0000E+00  0.0000E+00  0.0000E+00  0.0000E+00  0.0000E+00  0.0000E+00  0.0000E+00  0.0000E+00  0.0000E+00  0.0000E+00  0.0000E+00  0.0000E+00  0.0000E+00  0.0000E+00  0.0000E+00  0.0000E+00  0.0000E+00  0.0000E+00
    -35.484  0.0000E+00  0.0000E+00  0.0000E+00  0.0000E+00  0.0000E+00  0.0000E+00  0.0000E+00  0.0000E+00  0.0000E+00  0.0000E+00  0.0000E+00  0.0000E+00  0.0000E+00  0.0000E+00  0.0000E+00  0.0000E+00  0.0000E+00  0.0000E+00
    -35.262  0.0000E+00  0.0000E+00  0.0000E+00  0.0000E+00  0.0000E+00  0.0000E+00  0.0000E+00  0.0000E+00  0.0000E+00  0.0000E+00  0.0000E+00  0.0000E+00  0.0000E+00  0.0000E+00  0.0000E+00  0.0000E+00  0.0000E+00  0.0000E+00
    -35.040  0.0000E+00  0.0000E+00  0.0000E+00  0.0000E+00  0.0000E+00  0.0000E+00  0.0000E+00  0.0000E+00  0.0000E+00  0.0000E+00  0.0000E+00  0.0000E+00  0.0000E+00  0.0000E+00  0.0000E+00  0.0000E+00  0.0000E+00  0.0000E+00
    -34.818  0.0000E+00  0.0000E+00  0.0000E+00  0.0000E+00  0.0000E+00  0.0000E+00  0.0000E+00  0.0000E+00  0.0000E+00  0.0000E+00  0.0000E+00  0.0000E+00  0.0000E+00  0.0000E+00  0.0000E+00  0.0000E+00  0.0000E+00  0.0000E+00
    -34.596  0.0000E+00  0.0000E+00  0.0000E+00  0.0000E+00  0.0000E+00  0.0000E+00  0.0000E+00  0.0000E+00  0.0000E+00  0.0000E+00  0.0000E+00  0.0000E+00  0.0000E+00  0.0000E+00  0.0000E+00  0.0000E+00  0.0000E+00  0.0000E+00