   4   4   1   0
  0.1606671E+02  0.4004880E-09  0.4005887E-09  0.4005887E-09  0.5000000E-15
  1.000000000000000E-004
  CAR 
 unknown system                          
     22.63800762    -44.63927994  301      7.98304406      1.00000000
    -44.639  0.0000E+00  0.0000E+00  0.0000E+00  0.0000E+00
    -44.415  0.0000E+00  0.0000E+00  0.0000E+00  0.0000E+00
    -44.191  0.0000E+00  0.0000E+00  0.0000E+00  0.0000E+00
    -43.967  0.0000E+00  0.0000E+00  0.0000E+00  0.0000E+00
    -43.742  0.0000E+00  0.0000E+00  0.0000E+00  0.0000E+00
    -43.518  0.0000E+00  0.0000E+00  0.0000E+00  0.0000E+00
    -43.294  0.0000E+00  0.0000E+00  0.0000E+00  0.0000E+00
    -43.069  0.0000E+00  0.0000E+00  0.0000E+00  0.0000E+00
    -42.845  0.0000E+00  0.0000E+00  0.0000E+00  0.0000E+00
    -42.621  0.0000E+00  0.0000E+00  0.0000E+00  0.0000E+00
    -42.397  0.0000E+00  0.0000E+00  0.0000E+00  0.0000E+00
    -42.172  0.9619E-04  0.0000E+00  0.2157E-04  0.0000E+00
    -41.948  0.8430E-02  0.0000E+00  0.1912E-02  0.0000E+00
    -41.724  0.7076E+00  0.0000E+00  0.1606E+00  0.0000E+00
    -41.500  0.1044E+02  0.0000E+00  0.2501E+01  0.0000E+00
    -41.275  0.2194E+01  0.0000E+00  0.2993E+01  0.0000E+00
    -41.051  0.0000E+00  0.0000E+00  0.3000E+01  0.0000E+00
    -40.827  0.0000E+00  0.0000E+00  0.3000E+01  0.0000E+00
    -40.603  0.0000E+00  0.0000E+00  0.3000E+01  0.0000E+00
    -40.378  0.0000E+00  0.0000E+00  0.3000E+01  0.0000E+00
    -40.154  0.0000E+00  0.0000E+00  0.3000E+01  0.0000E+00
    -39.930  0.0000E+00  0.0000E+00  0.3000E+01  0.0000E+00
    -39.706  0.0000E+00  0.0000E+00  0.3000E+01  0.0000E+00
    -39.481  0.0000E+00  0.0000E+00  0.3000E+01  0.0000E+00
    -39.257  0.0000E+00  0.0000E+00  0.3000E+01  0.0000E+00
    -39.033  0.0000E+00  0.6000E-04  0.3000E+01  0.1346E-04
    -38.809  0.0000E+00  0.5259E-02  0.3000E+01  0.1193E-02
    -38.584  0.0000E+00  0.4506E+00  0.3000E+01  0.1022E+00
    -38.360  0.0000E+00  0.9681E+01  0.3000E+01  0.2273E+01
    -38.136  0.0000E+00  0.3192E+01  0.3000E+01  0.2989E+01
    -37.912  0.0000E+00  0.0000E+00  0.3000E+01  0.3000E+01
    -37.687  0.0000E+00  0.0000E+00  0.3000E+01  0.3000E+01
    -37.463  0.0000E+00  0.0000E+00  0.3000E+01  0.3000E+01
    -37.239  0.0000E+00  0.0000E+00  0.3000E+01  0.3000E+01
    -37.015  0.0000E+00  0.0000E+00  0.3000E+01  0.3000E+01
    -36.790  0.0000E+00  0.0000E+00  0.3000E+01  0.3000E+01
    -36.566  0.0000E+00  0.0000E+00  0.3000E+01  0.3000E+01
    -36.342  0.0000E+00  0.0000E+00  0.3000E+01  0.3000E+01
    -36.117  0.0000E+00  0.0000E+00  0.3000E+01  0.3000E+01
    -35.893  0.0000E+00  0.0000E+00  0.3000E+01  0.3000E+01
    -35.669  0.0000E+00  0.0000E+00  0.3000E+01  0.3000E+01
    -35.445  0.0000E+00  0.0000E+00  0.3000E+01  0.3000E+01
    -35.220  0.0000E+00  0.0000E+00  0.3000E+01  0.3000E+01
    -34.996  0.0000E+00  0.0000E+00  0.3000E+01  0.3000E+01
    -34.772  0.0000E+00  0.0000E+00  0.3000E+01  0.3000E+01
    -34.548  0.0000E+00  0.0000E+00  0.3000E+01  0.3000E+01
    -34.323  0.0000E+00  0.0000E+00  0.3000E+01  0.3000E+01
    -34.099  0.0000E+00  0.0000E+00  0.3000E+01  0.3000E+01
    -33.875  0.0000E+00  0.0000E+00  0.3000E+01  0.3000E+01
    -33.651  0.0000E+00  0.0000E+00  0.3000E+01  0.3000E+01
    -33.426  0.0000E+00  0.0000E+00  0.3000E+01  0.3000E+01
    -33.202  0.0000E+00  0.0000E+00  0.3000E+01  0.3000E+01
    -32.978  0.0000E+00  0.0000E+00  0.3000E+01  0.3000E+01
    -32.754  0.0000E+00  0.0000E+00  0.3000E+01  0.3000E+01
    -32.529  0.0000E+00  0.0000E+00  0.3000E+01  0.3000E+01
    -32.305  0.0000E+00  0.0000E+00  0.3000E+01  0.3000E+01
    -32.081  0.0000E+00  0.0000E+00  0.3000E+01  0.3000E+01
    -31.857  0.0000E+00  0.0000E+00  0.3000E+01  0.3000E+01
    -31.632  0.0000E+00  0.0000E+00  0.3000E+01  0.3000E+01
    -31.408  0.0000E+00  0.0000E+00  0.3000E+01  0.3000E+01
    -31.184  0.0000E+00  0.0000E+00  0.3000E+01  0.3000E+01
    -30.960  0.0000E+00  0.0000E+00  0.3000E+01  0.3000E+01
    -30.735  0.0000E+00  0.0000E+00  0.3000E+01  0.3000E+01
    -30.511  0.0000E+00  0.0000E+00  0.3000E+01  0.3000E+01
    -30.287  0.0000E+00  0.0000E+00  0.3000E+01  0.3000E+01
    -30.063  0.0000E+00  0.0000E+00  0.3000E+01  0.3000E+01
    -29.838  0.0000E+00  0.0000E+00  0.3000E+01  0.3000E+01
    -29.614  0.0000E+00  0.0000E+00  0.3000E+01  0.3000E+01
    -29.390  0.0000E+00  0.0000E+00  0.3000E+01  0.3000E+01
    -29.166  0.0000E+00  0.0000E+00  0.3000E+01  0.3000E+01
    -28.941  0.0000E+00  0.0000E+00  0.3000E+01  0.3000E+01
    -28.717  0.0000E+00  0.0000E+00  0.3000E+01  0.3000E+01
    -28.493  0.0000E+00  0.0000E+00  0.3000E+01  0.3000E+01
    -28.268  0.0000E+00  0.0000E+00  0.3000E+01  0.3000E+01
    -28.044  0.0000E+00  0.0000E+00  0.3000E+01  0.3000E+01
    -27.820  0.0000E+00  0.0000E+00  0.3000E+01  0.3000E+01
    -27.596  0.0000E+00  0.0000E+00  0.3000E+01  0.3000E+01
    -27.371  0.0000E+00  0.0000E+00  0.3000E+01  0.3000E+01
    -27.147  0.0000E+00  0.0000E+00  0.3000E+01  0.3000E+01
    -26.923  0.0000E+00  0.0000E+00  0.3000E+01  0.3000E+01
    -26.699  0.0000E+00  0.0000E+00  0.3000E+01  0.3000E+01
    -26.474  0.0000E+00  0.0000E+00  0.3000E+01  0.3000E+01
    -26.250  0.0000E+00  0.0000E+00  0.3000E+01  0.3000E+01
    -26.026  0.0000E+00  0.0000E+00  0.3000E+01  0.3000E+01
    -25.802  0.0000E+00  0.0000E+00  0.3000E+01  0.3000E+01
    -25.577  0.0000E+00  0.0000E+00  0.3000E+01  0.3000E+01
    -25.353  0.0000E+00  0.0000E+00  0.3000E+01  0.3000E+01
    -25.129  0.0000E+00  0.0000E+00  0.3000E+01  0.3000E+01
    -24.905  0.0000E+00  0.0000E+00  0.3000E+01  0.3000E+01
    -24.680  0.0000E+00  0.0000E+00  0.3000E+01  0.3000E+01
    -24.456  0.0000E+00  0.0000E+00  0.3000E+01  0.3000E+01
    -24.232  0.0000E+00  0.0000E+00  0.3000E+01  0.3000E+01
    -24.008  0.0000E+00  0.0000E+00  0.3000E+01  0.3000E+01
    -23.783  0.0000E+00  0.0000E+00  0.3000E+01  0.3000E+01
    -23.559  0.0000E+00  0.0000E+00  0.3000E+01  0.3000E+01
    -23.335  0.0000E+00  0.0000E+00  0.3000E+01  0.3000E+01
    -23.111  0.0000E+00  0.0000E+00  0.3000E+01  0.3000E+01
    -22.886  0.0000E+00  0.0000E+00  0.3000E+01  0.3000E+01
    -22.662  0.0000E+00  0.0000E+00  0.3000E+01  0.3000E+01
    -22.438  0.0000E+00  0.0000E+00  0.3000E+01  0.3000E+01
    -22.214  0.0000E+00  0.0000E+00  0.3000E+01  0.3000E+01
    -21.989  0.0000E+00  0.0000E+00  0.3000E+01  0.3000E+01
    -21.765  0.0000E+00  0.0000E+00  0.3000E+01  0.3000E+01
    -21.541  0.0000E+00  0.0000E+00  0.3000E+01  0.3000E+01
    -21.316  0.0000E+00  0.0000E+00  0.3000E+01  0.3000E+01
    -21.092  0.0000E+00  0.0000E+00  0.3000E+01  0.3000E+01
    -20.868  0.0000E+00  0.0000E+00  0.3000E+01  0.3000E+01
    -20.644  0.0000E+00  0.0000E+00  0.3000E+01  0.3000E+01
    -20.419  0.0000E+00  0.0000E+00  0.3000E+01  0.3000E+01
    -20.195  0.0000E+00  0.0000E+00  0.3000E+01  0.3000E+01
    -19.971  0.0000E+00  0.0000E+00  0.3000E+01  0.3000E+01
    -19.747  0.0000E+00  0.0000E+00  0.3000E+01  0.3000E+01
    -19.522  0.0000E+00  0.0000E+00  0.3000E+01  0.3000E+01
    -19.298  0.0000E+00  0.0000E+00  0.3000E+01  0.3000E+01
    -19.074  0.0000E+00  0.0000E+00  0.3000E+01  0.3000E+01
    -18.850  0.0000E+00  0.0000E+00  0.3000E+01  0.3000E+01
    -18.625  0.0000E+00  0.0000E+00  0.3000E+01  0.3000E+01
    -18.401  0.0000E+00  0.0000E+00  0.3000E+01  0.3000E+01
    -18.177  0.0000E+00  0.0000E+00  0.3000E+01  0.3000E+01
    -17.953  0.0000E+00  0.0000E+00  0.3000E+01  0.3000E+01
    -17.728  0.0000E+00  0.0000E+00  0.3000E+01  0.3000E+01
    -17.504  0.0000E+00  0.0000E+00  0.3000E+01  0.3000E+01
    -17.280  0.0000E+00  0.0000E+00  0.3000E+01  0.3000E+01
    -17.056  0.0000E+00  0.0000E+00  0.3000E+01  0.3000E+01
    -16.831  0.0000E+00  0.0000E+00  0.3000E+01  0.3000E+01
    -16.607  0.0000E+00  0.0000E+00  0.3000E+01  0.3000E+01
    -16.383  0.0000E+00  0.0000E+00  0.3000E+01  0.3000E+01
    -16.159  0.0000E+00  0.0000E+00  0.3000E+01  0.3000E+01
    -15.934  0.0000E+00  0.0000E+00  0.3000E+01  0.3000E+01
    -15.710  0.0000E+00  0.0000E+00  0.3000E+01  0.3000E+01
    -15.486  0.0000E+00  0.0000E+00  0.3000E+01  0.3000E+01
    -15.262  0.0000E+00  0.0000E+00  0.3000E+01  0.3000E+01
    -15.037  0.0000E+00  0.0000E+00  0.3000E+01  0.3000E+01
    -14.813  0.0000E+00  0.0000E+00  0.3000E+01  0.3000E+01
    -14.589  0.0000E+00  0.0000E+00  0.3000E+01  0.3000E+01
    -14.365  0.0000E+00  0.0000E+00  0.3000E+01  0.3000E+01
    -14.140  0.0000E+00  0.0000E+00  0.3000E+01  0.3000E+01
    -13.916  0.0000E+00  0.0000E+00  0.3000E+01  0.3000E+01
    -13.692  0.0000E+00  0.0000E+00  0.3000E+01  0.3000E+01
    -13.467  0.0000E+00  0.0000E+00  0.3000E+01  0.3000E+01
    -13.243  0.0000E+00  0.0000E+00  0.3000E+01  0.3000E+01
    -13.019  0.0000E+00  0.0000E+00  0.3000E+01  0.3000E+01
    -12.795  0.0000E+00  0.0000E+00  0.3000E+01  0.3000E+01
    -12.570  0.0000E+00  0.0000E+00  0.3000E+01  0.3000E+01
    -12.346  0.0000E+00  0.0000E+00  0.3000E+01  0.3000E+01
    -12.122  0.0000E+00  0.0000E+00  0.3000E+01  0.3000E+01
    -11.898  0.0000E+00  0.0000E+00  0.3000E+01  0.3000E+01
    -11.673  0.0000E+00  0.0000E+00  0.3000E+01  0.3000E+01
    -11.449  0.0000E+00  0.0000E+00  0.3000E+01  0.3000E+01
    -11.225  0.0000E+00  0.0000E+00  0.3000E+01  0.3000E+01
    -11.001  0.0000E+00  0.0000E+00  0.3000E+01  0.3000E+01
    -10.776  0.0000E+00  0.0000E+00  0.3000E+01  0.3000E+01
    -10.552  0.0000E+00  0.0000E+00  0.3000E+01  0.3000E+01
    -10.328  0.0000E+00  0.0000E+00  0.3000E+01  0.3000E+01
    -10.104  0.0000E+00  0.0000E+00  0.3000E+01  0.3000E+01
     -9.879  0.0000E+00  0.0000E+00  0.3000E+01  0.3000E+01
     -9.655  0.0000E+00  0.0000E+00  0.3000E+01  0.3000E+01
     -9.431  0.0000E+00  0.0000E+00  0.3000E+01  0.3000E+01
     -9.207  0.0000E+00  0.0000E+00  0.3000E+01  0.3000E+01
     -8.982  0.0000E+00  0.0000E+00  0.3000E+01  0.3000E+01
     -8.758  0.0000E+00  0.0000E+00  0.3000E+01  0.3000E+01
     -8.534  0.0000E+00  0.0000E+00  0.3000E+01  0.3000E+01
     -8.310  0.0000E+00  0.0000E+00  0.3000E+01  0.3000E+01
     -8.085  0.0000E+00  0.0000E+00  0.3000E+01  0.3000E+01
     -7.861  0.0000E+00  0.0000E+00  0.3000E+01  0.3000E+01
     -7.637  0.0000E+00  0.0000E+00  0.3000E+01  0.3000E+01
     -7.413  0.0000E+00  0.0000E+00  0.3000E+01  0.3000E+01
     -7.188  0.0000E+00  0.0000E+00  0.3000E+01  0.3000E+01
     -6.964  0.0000E+00  0.0000E+00  0.3000E+01  0.3000E+01
     -6.740  0.0000E+00  0.0000E+00  0.3000E+01  0.3000E+01
     -6.515  0.0000E+00  0.0000E+00  0.3000E+01  0.3000E+01
     -6.291  0.0000E+00  0.0000E+00  0.3000E+01  0.3000E+01
     -6.067  0.0000E+00  0.0000E+00  0.3000E+01  0.3000E+01
     -5.843  0.0000E+00  0.0000E+00  0.3000E+01  0.3000E+01
     -5.618  0.0000E+00  0.0000E+00  0.3000E+01  0.3000E+01
     -5.394  0.0000E+00  0.0000E+00  0.3000E+01  0.3000E+01
     -5.170  0.0000E+00  0.0000E+00  0.3000E+01  0.3000E+01
     -4.946  0.0000E+00  0.0000E+00  0.3000E+01  0.3000E+01
     -4.721  0.0000E+00  0.0000E+00  0.3000E+01  0.3000E+01
     -4.497  0.0000E+00  0.0000E+00  0.3000E+01  0.3000E+01
     -4.273  0.0000E+00  0.0000E+00  0.3000E+01  0.3000E+01
     -4.049  0.0000E+00  0.0000E+00  0.3000E+01  0.3000E+01
     -3.824  0.0000E+00  0.0000E+00  0.3000E+01  0.3000E+01
     -3.600  0.0000E+00  0.0000E+00  0.3000E+01  0.3000E+01
     -3.376  0.0000E+00  0.0000E+00  0.3000E+01  0.3000E+01
     -3.152  0.6144E-06  0.1904E-06  0.3000E+01  0.3000E+01
     -2.927  0.6008E-04  0.2715E-04  0.3000E+01  0.3000E+01
     -2.703  0.4505E-02  0.2209E-02  0.3001E+01  0.3001E+01
     -2.479  0.5621E-01  0.4355E-01  0.3014E+01  0.3010E+01
     -2.255  0.1202E+00  0.1144E+00  0.3041E+01  0.3036E+01
     -2.030  0.1681E+00  0.1607E+00  0.3078E+01  0.3072E+01
     -1.806  0.1871E+00  0.1876E+00  0.3120E+01  0.3114E+01
     -1.582  0.2453E+00  0.2355E+00  0.3176E+01  0.3167E+01
     -1.358  0.2275E+00  0.2317E+00  0.3227E+01  0.3219E+01
     -1.133  0.3129E+00  0.3079E+00  0.3298E+01  0.3289E+01
     -0.909  0.2847E+00  0.2893E+00  0.3362E+01  0.3354E+01
     -0.685  0.3782E+00  0.3864E+00  0.3447E+01  0.3441E+01
     -0.461  0.3743E+00  0.3643E+00  0.3532E+01  0.3524E+01
     -0.236  0.3739E+00  0.3904E+00  0.3616E+01  0.3611E+01
     -0.012  0.3151E+00  0.2933E+00  0.3687E+01  0.3678E+01
      0.212  0.3581E+00  0.3303E+00  0.3768E+01  0.3752E+01
      0.437  0.4270E+00  0.3708E+00  0.3864E+01  0.3836E+01
      0.661  0.3670E+00  0.3797E+00  0.3947E+01  0.3922E+01
      0.885  0.4279E+00  0.3957E+00  0.4043E+01  0.4011E+01
      1.109  0.4712E+00  0.4238E+00  0.4149E+01  0.4107E+01
      1.334  0.4228E+00  0.4748E+00  0.4245E+01  0.4214E+01
      1.558  0.4475E+00  0.4150E+00  0.4346E+01  0.4308E+01
      1.782  0.5080E+00  0.4710E+00  0.4460E+01  0.4414E+01
      2.006  0.6073E+00  0.6069E+00  0.4597E+01  0.4550E+01
      2.231  0.6443E+00  0.6129E+00  0.4742E+01  0.4688E+01
      2.455  0.5526E+00  0.5046E+00  0.4868E+01  0.4802E+01
      2.679  0.6612E+00  0.5872E+00  0.5017E+01  0.4935E+01
      2.903  0.7534E+00  0.5593E+00  0.5187E+01  0.5061E+01
      3.128  0.6690E+00  0.6329E+00  0.5338E+01  0.5204E+01
      3.352  0.6287E+00  0.5752E+00  0.5481E+01  0.5334E+01
      3.576  0.7237E+00  0.5433E+00  0.5644E+01  0.5457E+01
      3.800  0.7967E+00  0.5981E+00  0.5824E+01  0.5592E+01
      4.025  0.9158E+00  0.6538E+00  0.6030E+01  0.5739E+01
      4.249  0.1049E+01  0.7181E+00  0.6267E+01  0.5901E+01
      4.473  0.1333E+01  0.7151E+00  0.6567E+01  0.6062E+01
      4.697  0.1883E+01  0.7653E+00  0.6990E+01  0.6235E+01
      4.922  0.2345E+01  0.8402E+00  0.7519E+01  0.6424E+01
      5.146  0.2596E+01  0.8529E+00  0.8105E+01  0.6616E+01
      5.370  0.2087E+01  0.9771E+00  0.8576E+01  0.6837E+01
      5.594  0.1531E+01  0.8613E+00  0.8923E+01  0.7031E+01
      5.819  0.1884E+01  0.1131E+01  0.9348E+01  0.7285E+01
      6.043  0.3999E+01  0.1114E+01  0.1025E+02  0.7536E+01
      6.267  0.2382E+01  0.1398E+01  0.1078E+02  0.7851E+01
      6.491  0.1484E+01  0.1127E+01  0.1112E+02  0.8105E+01
      6.716  0.1053E+01  0.1034E+01  0.1136E+02  0.8338E+01
      6.940  0.9028E+00  0.8586E+00  0.1156E+02  0.8533E+01
      7.164  0.7088E+00  0.8301E+00  0.1172E+02  0.8720E+01
      7.388  0.6898E+00  0.8451E+00  0.1188E+02  0.8910E+01
      7.613  0.1035E+01  0.8547E+00  0.1211E+02  0.9103E+01
      7.837  0.1166E+01  0.8477E+00  0.1238E+02  0.9294E+01
      8.061  0.8356E+00  0.1428E+01  0.1257E+02  0.9615E+01
      8.286  0.1072E+01  0.1794E+01  0.1281E+02  0.1002E+02
      8.510  0.8870E+00  0.1835E+01  0.1301E+02  0.1043E+02
      8.734  0.7018E+00  0.2987E+01  0.1317E+02  0.1110E+02
      8.958  0.8891E+00  0.2984E+01  0.1337E+02  0.1178E+02
      9.183  0.9114E+00  0.1932E+01  0.1357E+02  0.1221E+02
      9.407  0.1012E+01  0.1183E+01  0.1380E+02  0.1248E+02
      9.631  0.9180E+00  0.1474E+01  0.1401E+02  0.1282E+02
      9.855  0.8353E+00  0.2010E+01  0.1420E+02  0.1327E+02
     10.080  0.7912E+00  0.1351E+01  0.1438E+02  0.1357E+02
     10.304  0.8918E+00  0.1297E+01  0.1458E+02  0.1387E+02
     10.528  0.1087E+01  0.1195E+01  0.1482E+02  0.1414E+02
     10.752  0.8357E+00  0.1263E+01  0.1501E+02  0.1442E+02
     10.977  0.7222E+00  0.1374E+01  0.1517E+02  0.1473E+02
     11.201  0.9560E+00  0.8257E+00  0.1539E+02  0.1492E+02
     11.425  0.7636E+00  0.7959E+00  0.1556E+02  0.1510E+02
     11.649  0.9801E+00  0.9795E+00  0.1578E+02  0.1532E+02
     11.874  0.9650E+00  0.1265E+01  0.1600E+02  0.1560E+02
     12.098  0.9770E+00  0.7908E+00  0.1622E+02  0.1578E+02
     12.322  0.9183E+00  0.6204E+00  0.1643E+02  0.1592E+02
     12.546  0.8434E+00  0.1226E+01  0.1662E+02  0.1620E+02
     12.771  0.9937E+00  0.1293E+01  0.1684E+02  0.1649E+02
     12.995  0.1101E+01  0.1196E+01  0.1709E+02  0.1676E+02
     13.219  0.7929E+00  0.1052E+01  0.1727E+02  0.1700E+02
     13.443  0.9899E+00  0.1121E+01  0.1749E+02  0.1725E+02
     13.668  0.1112E+01  0.8246E+00  0.1774E+02  0.1744E+02
     13.892  0.1175E+01  0.1258E+01  0.1801E+02  0.1772E+02
     14.116  0.8881E+00  0.1252E+01  0.1821E+02  0.1801E+02
     14.340  0.9642E+00  0.1039E+01  0.1843E+02  0.1824E+02
     14.565  0.1008E+01  0.8889E+00  0.1866E+02  0.1844E+02
     14.789  0.1007E+01  0.1061E+01  0.1888E+02  0.1868E+02
     15.013  0.7707E+00  0.9137E+00  0.1906E+02  0.1889E+02
     15.238  0.8211E+00  0.8702E+00  0.1924E+02  0.1908E+02
     15.462  0.5642E+00  0.8072E+00  0.1937E+02  0.1927E+02
     15.686  0.4134E+00  0.6766E+00  0.1947E+02  0.1942E+02
     15.910  0.2320E+00  0.2531E+00  0.1952E+02  0.1948E+02
     16.135  0.3986E+00  0.5247E+00  0.1961E+02  0.1959E+02
     16.359  0.3108E+00  0.3712E+00  0.1968E+02  0.1968E+02
     16.583  0.2515E+00  0.2434E+00  0.1974E+02  0.1973E+02
     16.807  0.2643E+00  0.2674E+00  0.1980E+02  0.1979E+02
     17.032  0.1619E+00  0.1341E+00  0.1983E+02  0.1982E+02
     17.256  0.7184E-01  0.6118E-01  0.1985E+02  0.1984E+02
     17.480  0.1343E+00  0.2422E+00  0.1988E+02  0.1989E+02
     17.704  0.1784E+00  0.1105E+00  0.1992E+02  0.1992E+02
     17.929  0.6703E-01  0.1150E+00  0.1993E+02  0.1994E+02
     18.153  0.7839E-01  0.4328E-01  0.1995E+02  0.1995E+02
     18.377  0.4661E-01  0.8392E-01  0.1996E+02  0.1997E+02
     18.601  0.8064E-01  0.5299E-01  0.1998E+02  0.1998E+02
     18.826  0.3050E-01  0.4630E-01  0.1999E+02  0.1999E+02
     19.050  0.3607E-01  0.8400E-02  0.2000E+02  0.2000E+02
     19.274  0.2912E-02  0.1822E-03  0.2000E+02  0.2000E+02
     19.498  0.2622E-02  0.8008E-02  0.2000E+02  0.2000E+02
     19.723  0.1269E-01  0.7867E-02  0.2000E+02  0.2000E+02
     19.947  0.8738E-03  0.0000E+00  0.2000E+02  0.2000E+02
     20.171  0.0000E+00  0.0000E+00  0.2000E+02  0.2000E+02
     20.395  0.0000E+00  0.0000E+00  0.2000E+02  0.2000E+02
     20.620  0.0000E+00  0.0000E+00  0.2000E+02  0.2000E+02
     20.844  0.0000E+00  0.0000E+00  0.2000E+02  0.2000E+02
     21.068  0.0000E+00  0.0000E+00  0.2000E+02  0.2000E+02
     21.292  0.0000E+00  0.0000E+00  0.2000E+02  0.2000E+02
     21.517  0.0000E+00  0.0000E+00  0.2000E+02  0.2000E+02
     21.741  0.0000E+00  0.0000E+00  0.2000E+02  0.2000E+02
     21.965  0.0000E+00  0.0000E+00  0.2000E+02  0.2000E+02
     22.189  0.0000E+00  0.0000E+00  0.2000E+02  0.2000E+02
     22.414  0.0000E+00  0.0000E+00  0.2000E+02  0.2000E+02
     22.638  0.0000E+00  0.0000E+00  0.2000E+02  0.2000E+02
     22.63800762    -44.63927994  301      7.98304406      1.00000000
    -44.639  0.0000E+00  0.0000E+00  0.0000E+00  0.0000E+00  0.0000E+00  0.0000E+00  0.0000E+00  0.0000E+00  0.0000E+00  0.0000E+00  0.0000E+00  0.0000E+00  0.0000E+00  0.0000E+00  0.0000E+00  0.0000E+00  0.0000E+00  0.0000E+00
    -44.415  0.0000E+00  0.0000E+00  0.0000E+00  0.0000E+00  0.0000E+00  0.0000E+00  0.0000E+00  0.0000E+00  0.0000E+00  0.0000E+00  0.0000E+00  0.0000E+00  0.0000E+00  0.0000E+00  0.0000E+00  0.0000E+00  0.0000E+00  0.0000E+00
    -44.191  0.0000E+00  0.0000E+00  0.0000E+00  0.0000E+00  0.0000E+00  0.0000E+00  0.0000E+00  0.0000E+00  0.0000E+00  0.0000E+00  0.0000E+00  0.0000E+00  0.0000E+00  0.0000E+00  0.0000E+00  0.0000E+00  0.0000E+00  0.0000E+00
    -43.967  0.0000E+00  0.0000E+00  0.0000E+00  0.0000E+00  0.0000E+00  0.0000E+00  0.0000E+00  0.0000E+00  0.0000E+00  0.0000E+00  0.0000E+00  0.0000E+00  0.0000E+00  0.0000E+00  0.0000E+00  0.0000E+00  0.0000E+00  0.0000E+00
    -43.742  0.0000E+00  0.0000E+00  0.0000E+00  0.0000E+00  0.0000E+00  0.0000E+00  0.0000E+00  0.0000E+00  0.0000E+00  0.0000E+00  0.0000E+00  0.0000E+00  0.0000E+00  0.0000E+00  0.0000E+00  0.0000E+00  0.0000E+00  0.0000E+00
    -43.518  0.0000E+00  0.0000E+00  0.0000E+00  0.0000E+00  0.0000E+00  0.0000E+00  0.0000E+00  0.0000E+00  0.0000E+00  0.0000E+00  0.0000E+00  0.0000E+00  0.0000E+00  0.0000E+00  0.0000E+00  0.0000E+00  0.0000E+00  0.0000E+00
    -43.294  0.0000E+00  0.0000E+00  0.0000E+00  0.0000E+00  0.0000E+00  0.0000E+00  0.0000E+00  0.0000E+00  0.0000E+00  0.0000E+00  0.0000E+00  0.0000E+00  0.0000E+00  0.0000E+00  0.0000E+00  0.0000E+00  0.0000E+00  0.0000E+00
    -43.069  0.0000E+00  0.0000E+00  0.0000E+00  0.0000E+00  0.0000E+00  0.0000E+00  0.0000E+00  0.0000E+00  0.0000E+00  0.0000E+00  0.0000E+00  0.0000E+00  0.0000E+00  0.0000E+00  0.0000E+00  0.0000E+00  0.0000E+00  0.0000E+00
    -42.845  0.0000E+00  0.0000E+00  0.0000E+00  0.0000E+00  0.0000E+00  0.0000E+00  0.0000E+00  0.0000E+00  0.0000E+00  0.0000E+00  0.0000E+00  0.0000E+00  0.0000E+00  0.0000E+00  0.0000E+00  0.0000E+00  0.0000E+00  0.0000E+00
    -42.621  0.0000E+00  0.0000E+00  0.0000E+00  0.0000E+00  0.0000E+00  0.0000E+00  0.0000E+00  0.0000E+00  0.0000E+00  0.0000E+00  0.0000E+00  0.0000E+00  0.0000E+00  0.0000E+00  0.0000E+00  0.0000E+00  0.0000E+00  0.0000E+00
    -42.397  0.0000E+00  0.0000E+00  0.0000E+00  0.0000E+00  0.0000E+00  0.0000E+00  0.0000E+00  0.0000E+00  0.0000E+00  0.0000E+00  0.0000E+00  0.0000E+00  0.0000E+00  0.0000E+00  0.0000E+00  0.0000E+00  0.0000E+00  0.0000E+00
    -42.172  0.7494E-13  0.0000E+00  0.3194E-04  0.0000E+00  0.3194E-04  0.0000E+00  0.3178E-04  0.0000E+00  0.1637E-14  0.0000E+00  0.1631E-14  0.0000E+00  0.4492E-13  0.0000E+00  0.1637E-14  0.0000E+00  0.4489E-13  0.0000E+00
    -41.948  0.6567E-11  0.0000E+00  0.2799E-02  0.0000E+00  0.2799E-02  0.0000E+00  0.2785E-02  0.0000E+00  0.1434E-12  0.0000E+00  0.1429E-12  0.0000E+00  0.3936E-11  0.0000E+00  0.1434E-12  0.0000E+00  0.3934E-11  0.0000E+00
    -41.724  0.5513E-09  0.0000E+00  0.2349E+00  0.0000E+00  0.2349E+00  0.0000E+00  0.2338E+00  0.0000E+00  0.1204E-10  0.0000E+00  0.1200E-10  0.0000E+00  0.3304E-09  0.0000E+00  0.1204E-10  0.0000E+00  0.3302E-09  0.0000E+00
    -41.500  0.8131E-08  0.0000E+00  0.3460E+01  0.0000E+00  0.3460E+01  0.0000E+00  0.3459E+01  0.0000E+00  0.1776E-09  0.0000E+00  0.1766E-09  0.0000E+00  0.4877E-08  0.0000E+00  0.1776E-09  0.0000E+00  0.4872E-08  0.0000E+00
    -41.275  0.1709E-08  0.0000E+00  0.7261E+00  0.0000E+00  0.7261E+00  0.0000E+00  0.7292E+00  0.0000E+00  0.3732E-10  0.0000E+00  0.3704E-10  0.0000E+00  0.1025E-08  0.0000E+00  0.3732E-10  0.0000E+00  0.1024E-08  0.0000E+00
    -41.051  0.0000E+00  0.0000E+00  0.0000E+00  0.0000E+00  0.0000E+00  0.0000E+00  0.0000E+00  0.0000E+00  0.0000E+00  0.0000E+00  0.0000E+00  0.0000E+00  0.0000E+00  0.0000E+00  0.0000E+00  0.0000E+00  0.0000E+00  0.0000E+00
    -40.827  0.0000E+00  0.0000E+00  0.0000E+00  0.0000E+00  0.0000E+00  0.0000E+00  0.0000E+00  0.0000E+00  0.0000E+00  0.0000E+00  0.0000E+00  0.0000E+00  0.0000E+00  0.0000E+00  0.0000E+00  0.0000E+00  0.0000E+00  0.0000E+00
    -40.603  0.0000E+00  0.0000E+00  0.0000E+00  0.0000E+00  0.0000E+00  0.0000E+00  0.0000E+00  0.0000E+00  0.0000E+00  0.0000E+00  0.0000E+00  0.0000E+00  0.0000E+00  0.0000E+00  0.0000E+00  0.0000E+00  0.0000E+00  0.0000E+00
    -40.378  0.0000E+00  0.0000E+00  0.0000E+00  0.0000E+00  0.0000E+00  0.0000E+00  0.0000E+00  0.0000E+00  0.0000E+00  0.0000E+00  0.0000E+00  0.0000E+00  0.0000E+00  0.0000E+00  0.0000E+00  0.0000E+00  0.0000E+00  0.0000E+00
    -40.154  0.0000E+00  0.0000E+00  0.0000E+00  0.0000E+00  0.0000E+00  0.0000E+00  0.0000E+00  0.0000E+00  0.0000E+00  0.0000E+00  0.0000E+00  0.0000E+00  0.0000E+00  0.0000E+00  0.0000E+00  0.0000E+00  0.0000E+00  0.0000E+00
    -39.930  0.0000E+00  0.0000E+00  0.0000E+00  0.0000E+00  0.0000E+00  0.0000E+00  0.0000E+00  0.0000E+00  0.0000E+00  0.0000E+00  0.0000E+00  0.0000E+00  0.0000E+00  0.0000E+00  0.0000E+00  0.0000E+00  0.0000E+00  0.0000E+00
    -39.706  0.0000E+00  0.0000E+00  0.0000E+00  0.0000E+00  0.0000E+00  0.0000E+00  0.0000E+00  0.0000E+00  0.0000E+00  0.0000E+00  0.0000E+00  0.0000E+00  0.0000E+00  0.0000E+00  0.0000E+00  0.0000E+00  0.0000E+00  0.0000E+00
    -39.481  0.0000E+00  0.0000E+00  0.0000E+00  0.0000E+00  0.0000E+00  0.0000E+00  0.0000E+00  0.0000E+00  0.0000E+00  0.0000E+00  0.0000E+00  0.0000E+00  0.0000E+00  0.0000E+00  0.0000E+00  0.0000E+00  0.0000E+00  0.0000E+00
    -39.257  0.0000E+00  0.0000E+00  0.0000E+00  0.0000E+00  0.0000E+00  0.0000E+00  0.0000E+00  0.0000E+00  0.0000E+00  0.0000E+00  0.0000E+00  0.0000E+00  0.0000E+00  0.0000E+00  0.0000E+00  0.0000E+00  0.0000E+00  0.0000E+00
    -39.033  0.0000E+00  0.8042E-13  0.0000E+00  0.1990E-04  0.0000E+00  0.1990E-04  0.0000E+00  0.1988E-04  0.0000E+00  0.1688E-14  0.0000E+00  0.1681E-14  0.0000E+00  0.5065E-13  0.0000E+00  0.1688E-14  0.0000E+00  0.5059E-13
    -38.809  0.0000E+00  0.7049E-11  0.0000E+00  0.1744E-02  0.0000E+00  0.1744E-02  0.0000E+00  0.1743E-02  0.0000E+00  0.1480E-12  0.0000E+00  0.1473E-12  0.0000E+00  0.4440E-11  0.0000E+00  0.1480E-12  0.0000E+00  0.4434E-11
    -38.584  0.0000E+00  0.6039E-09  0.0000E+00  0.1494E+00  0.0000E+00  0.1494E+00  0.0000E+00  0.1493E+00  0.0000E+00  0.1267E-10  0.0000E+00  0.1262E-10  0.0000E+00  0.3804E-09  0.0000E+00  0.1267E-10  0.0000E+00  0.3799E-09
    -38.360  0.0000E+00  0.1297E-07  0.0000E+00  0.3210E+01  0.0000E+00  0.3210E+01  0.0000E+00  0.3209E+01  0.0000E+00  0.2721E-09  0.0000E+00  0.2708E-09  0.0000E+00  0.8179E-08  0.0000E+00  0.2721E-09  0.0000E+00  0.8163E-08
    -38.136  0.0000E+00  0.4276E-08  0.0000E+00  0.1058E+01  0.0000E+00  0.1058E+01  0.0000E+00  0.1059E+01  0.0000E+00  0.8959E-10  0.0000E+00  0.8912E-10  0.0000E+00  0.2699E-08  0.0000E+00  0.8959E-10  0.0000E+00  0.2692E-08
    -37.912  0.0000E+00  0.0000E+00  0.0000E+00  0.0000E+00  0.0000E+00  0.0000E+00  0.0000E+00  0.0000E+00  0.0000E+00  0.0000E+00  0.0000E+00  0.0000E+00  0.0000E+00  0.0000E+00  0.0000E+00  0.0000E+00  0.0000E+00  0.0000E+00
    -37.687  0.0000E+00  0.0000E+00  0.0000E+00  0.0000E+00  0.0000E+00  0.0000E+00  0.0000E+00  0.0000E+00  0.0000E+00  0.0000E+00  0.0000E+00  0.0000E+00  0.0000E+00  0.0000E+00  0.0000E+00  0.0000E+00  0.0000E+00  0.0000E+00
    -37.463  0.0000E+00  0.0000E+00  0.0000E+00  0.0000E+00  0.0000E+00  0.0000E+00  0.0000E+00  0.0000E+00  0.0000E+00  0.0000E+00  0.0000E+00  0.0000E+00  0.0000E+00  0.0000E+00  0.0000E+00  0.0000E+00  0.0000E+00  0.0000E+00
    -37.239  0.0000E+00  0.0000E+00  0.0000E+00  0.0000E+00  0.0000E+00  0.0000E+00  0.0000E+00  0.0000E+00  0.0000E+00  0.0000E+00  0.0000E+00  0.0000E+00  0.0000E+00  0.0000E+00  0.0000E+00  0.0000E+00  0.0000E+00  0.0000E+00
    -37.015  0.0000E+00  0.0000E+00  0.0000E+00  0.0000E+00  0.0000E+00  0.0000E+00  0.0000E+00  0.0000E+00  0.0000E+00  0.0000E+00  0.0000E+00  0.0000E+00  0.0000E+00  0.0000E+00  0.0000E+00  0.0000E+00  0.0000E+00  0.0000E+00
    -36.790  0.0000E+00  0.0000E+00  0.0000E+00  0.0000E+00  0.0000E+00  0.0000E+00  0.0000E+00  0.0000E+00  0.0000E+00  0.0000E+00  0.0000E+00  0.0000E+00  0.0000E+00  0.0000E+00  0.0000E+00  0.0000E+00  0.0000E+00  0.0000E+00
    -36.566  0.0000E+00  0.0000E+00  0.0000E+00  0.0000E+00  0.0000E+00  0.0000E+00  0.0000E+00  0.0000E+00  0.0000E+00  0.0000E+00  0.0000E+00  0.0000E+00  0.0000E+00  0.0000E+00  0.0000E+00  0.0000E+00  0.0000E+00  0.0000E+00
    -36.342  0.0000E+00  0.0000E+00  0.0000E+00  0.0000E+00  0.0000E+00  0.0000E+00  0.0000E+00  0.0000E+00  0.0000E+00  0.0000E+00  0.0000E+00  0.0000E+00  0.0000E+00  0.0000E+00  0.0000E+00  0.0000E+00  0.0000E+00  0.0000E+00
    -36.117  0.0000E+00  0.0000E+00  0.0000E+00  0.0000E+00  0.0000E+00  0.0000E+00  0.0000E+00  0.0000E+00  0.0000E+00  0.0000E+00  0.0000E+00  0.0000E+00  0.0000E+00  0.0000E+00  0.0000E+00  0.0000E+00  0.0000E+00  0.0000E+00
    -35.893  0.0000E+00  0.0000E+00  0.0000E+00  0.0000E+00  0.0000E+00  0.0000E+00  0.0000E+00  0.0000E+00  0.0000E+00  0.0000E+00  0.0000E+00  0.0000E+00  0.0000E+00  0.0000E+00  0.0000E+00  0.0000E+00  0.0000E+00  0.0000E+00
    -35.669  0.0000E+00  0.0000E+00  0.0000E+00  0.0000E+00  0.0000E+00  0.0000E+00  0.0000E+00  0.0000E+00  0.0000E+00  0.0000E+00  0.0000E+00  0.0000E+00  0.0000E+00  0.0000E+00  0.0000E+00  0.0000E+00  0.0000E+00  0.0000E+00
    -35.445  0.0000E+00  0.0000E+00  0.0000E+00  0.0000E+00  0.0000E+00  0.0000E+00  0.0000E+00  0.0000E+00  0.0000E+00  0.0000E+00  0.0000E+00  0.0000E+00  0.0000E+00  0.0000E+00  0.0000E+00  0.0000E+00  0.0000E+00  0.0000E+00
    -35.220  0.0000E+00  0.0000E+00  0.0000E+00  0.0000E+00  0.0000E+00  0.0000E+00  0.0000E+00  0.0000E+00  0.0000E+00  0.0000E+00  0.0000E+00  0.0000E+00  0.0000E+00  0.0000E+00  0.0000E+00  0.0000E+00  0.0000E+00  0.0000E+00
    -34.996  0.0000E+00  0.0000E+00  0.0000E+00  0.0000E+00  0.0000E+00  0.0000E+00  0.0000E+00  0.0000E+00  0.0000E+00  0.0000E+00  0.0000E+00  0.0000E+00  0.0000E+00  0.0000E+00  0.0000E+00  0.0000E+00  0.0000E+00  0.0000E+00
    -34.772  0.0000E+00  0.0000E+00  0.0000E+00  0.0000E+00  0.0000E+00  0.0000E+00  0.0000E+00  0.0000E+00  0.0000E+00  0.0000E+00  0.0000E+00  0.0000E+00  0.0000E+00  0.0000E+00  0.0000E+00  0.0000E+00  0.0000E+00  0.0000E+00
    -34.548  0.0000E+00  0.0000E+00  0.0000E+00  0.0000E+00  0.0000E+00  0.0000E+00  0.0000E+00  0.0000E+00  0.0000E+00  0.0000E+00  0.0000E+00  0.0000E+00  0.0000E+00  0.0000E+00  0.0000E+00  0.0000E+00  0.0000E+00  0.0000E+00
    -34.323  0.0000E+00  0.0000E+00  0.0000E+00  0.0000E+00  0.0000E+00  0.0000E+00  0.0000E+00  0.0000E+00  0.0000E+00  0.0000E+00  0.0000E+00  0.0000E+00  0.0000E+00  0.0000E+00  0.0000E+00  0.0000E+00  0.0000E+00  0.0000E+00
    -34.099  0.0000E+00  0.0000E+00  0.0000E+00  0.0000E+00  0.0000E+00  0.0000E+00  0.0000E+00  0.0000E+00  0.0000E+00  0.0000E+00  0.0000E+00  0.0000E+00  0.0000E+00  0.0000E+00  0.0000E+00  0.0000E+00  0.0000E+00  0.0000E+00
    -33.875  0.0000E+00  0.0000E+00  0.0000E+00  0.0000E+00  0.0000E+00  0.0000E+00  0.0000E+00  0.0000E+00  0.0000E+00  0.0000E+00  0.0000E+00  0.0000E+00  0.0000E+00  0.0000E+00  0.0000E+00  0.0000E+00  0.0000E+00  0.0000E+00
    -33.651  0.0000E+00  0.0000E+00  0.0000E+00  0.0000E+00  0.0000E+00  0.0000E+00  0.0000E+00  0.0000E+00  0.0000E+00  0.0000E+00  0.0000E+00  0.0000E+00  0.0000E+00  0.0000E+00  0.0000E+00  0.0000E+00  0.0000E+00  0.0000E+00
    -33.426  0.0000E+00  0.0000E+00  0.0000E+00  0.0000E+00  0.0000E+00  0.0000E+00  0.0000E+00  0.0000E+00  0.0000E+00  0.0000E+00  0.0000E+00  0.0000E+00  0.0000E+00  0.0000E+00  0.0000E+00  0.0000E+00  0.0000E+00  0.0000E+00