   4   4   1   0
  0.1701157E+02  0.4081897E-09  0.4082924E-09  0.4082924E-09  0.5000000E-15
  1.000000000000000E-004
  CAR 
 unknown system                          
     21.50989854    -45.37695659  301      7.41681942      1.00000000
    -45.377  0.0000E+00  0.0000E+00  0.0000E+00  0.0000E+00
    -45.154  0.0000E+00  0.0000E+00  0.0000E+00  0.0000E+00
    -44.931  0.0000E+00  0.0000E+00  0.0000E+00  0.0000E+00
    -44.708  0.0000E+00  0.0000E+00  0.0000E+00  0.0000E+00
    -44.485  0.0000E+00  0.0000E+00  0.0000E+00  0.0000E+00
    -44.262  0.0000E+00  0.0000E+00  0.0000E+00  0.0000E+00
    -44.039  0.0000E+00  0.0000E+00  0.0000E+00  0.0000E+00
    -43.816  0.0000E+00  0.0000E+00  0.0000E+00  0.0000E+00
    -43.593  0.0000E+00  0.0000E+00  0.0000E+00  0.0000E+00
    -43.370  0.0000E+00  0.0000E+00  0.0000E+00  0.0000E+00
    -43.147  0.0000E+00  0.0000E+00  0.0000E+00  0.0000E+00
    -42.924  0.1041E-03  0.0000E+00  0.2321E-04  0.0000E+00
    -42.701  0.8886E-02  0.0000E+00  0.2004E-02  0.0000E+00
    -42.479  0.7259E+00  0.0000E+00  0.1639E+00  0.0000E+00
    -42.256  0.1048E+02  0.0000E+00  0.2499E+01  0.0000E+00
    -42.033  0.2214E+01  0.0000E+00  0.2993E+01  0.0000E+00
    -41.810  0.0000E+00  0.0000E+00  0.3000E+01  0.0000E+00
    -41.587  0.0000E+00  0.0000E+00  0.3000E+01  0.0000E+00
    -41.364  0.0000E+00  0.0000E+00  0.3000E+01  0.0000E+00
    -41.141  0.0000E+00  0.0000E+00  0.3000E+01  0.0000E+00
    -40.918  0.0000E+00  0.0000E+00  0.3000E+01  0.0000E+00
    -40.695  0.0000E+00  0.0000E+00  0.3000E+01  0.0000E+00
    -40.472  0.0000E+00  0.0000E+00  0.3000E+01  0.0000E+00
    -40.249  0.0000E+00  0.0000E+00  0.3000E+01  0.0000E+00
    -40.026  0.0000E+00  0.0000E+00  0.3000E+01  0.0000E+00
    -39.803  0.0000E+00  0.0000E+00  0.3000E+01  0.0000E+00
    -39.580  0.0000E+00  0.0000E+00  0.3000E+01  0.0000E+00
    -39.357  0.0000E+00  0.1302E-02  0.3000E+01  0.2902E-03
    -39.134  0.0000E+00  0.1102E+00  0.3000E+01  0.2487E-01
    -38.911  0.0000E+00  0.5532E+01  0.3000E+01  0.1258E+01
    -38.688  0.0000E+00  0.7600E+01  0.3000E+01  0.2953E+01
    -38.465  0.0000E+00  0.0000E+00  0.3000E+01  0.3000E+01
    -38.242  0.0000E+00  0.0000E+00  0.3000E+01  0.3000E+01
    -38.019  0.0000E+00  0.0000E+00  0.3000E+01  0.3000E+01
    -37.796  0.0000E+00  0.0000E+00  0.3000E+01  0.3000E+01
    -37.573  0.0000E+00  0.0000E+00  0.3000E+01  0.3000E+01
    -37.351  0.0000E+00  0.0000E+00  0.3000E+01  0.3000E+01
    -37.128  0.0000E+00  0.0000E+00  0.3000E+01  0.3000E+01
    -36.905  0.0000E+00  0.0000E+00  0.3000E+01  0.3000E+01
    -36.682  0.0000E+00  0.0000E+00  0.3000E+01  0.3000E+01
    -36.459  0.0000E+00  0.0000E+00  0.3000E+01  0.3000E+01
    -36.236  0.0000E+00  0.0000E+00  0.3000E+01  0.3000E+01
    -36.013  0.0000E+00  0.0000E+00  0.3000E+01  0.3000E+01
    -35.790  0.0000E+00  0.0000E+00  0.3000E+01  0.3000E+01
    -35.567  0.0000E+00  0.0000E+00  0.3000E+01  0.3000E+01
    -35.344  0.0000E+00  0.0000E+00  0.3000E+01  0.3000E+01
    -35.121  0.0000E+00  0.0000E+00  0.3000E+01  0.3000E+01
    -34.898  0.0000E+00  0.0000E+00  0.3000E+01  0.3000E+01
    -34.675  0.0000E+00  0.0000E+00  0.3000E+01  0.3000E+01
    -34.452  0.0000E+00  0.0000E+00  0.3000E+01  0.3000E+01
    -34.229  0.0000E+00  0.0000E+00  0.3000E+01  0.3000E+01
    -34.006  0.0000E+00  0.0000E+00  0.3000E+01  0.3000E+01
    -33.783  0.0000E+00  0.0000E+00  0.3000E+01  0.3000E+01
    -33.560  0.0000E+00  0.0000E+00  0.3000E+01  0.3000E+01
    -33.337  0.0000E+00  0.0000E+00  0.3000E+01  0.3000E+01
    -33.114  0.0000E+00  0.0000E+00  0.3000E+01  0.3000E+01
    -32.891  0.0000E+00  0.0000E+00  0.3000E+01  0.3000E+01
    -32.668  0.0000E+00  0.0000E+00  0.3000E+01  0.3000E+01
    -32.445  0.0000E+00  0.0000E+00  0.3000E+01  0.3000E+01
    -32.223  0.0000E+00  0.0000E+00  0.3000E+01  0.3000E+01
    -32.000  0.0000E+00  0.0000E+00  0.3000E+01  0.3000E+01
    -31.777  0.0000E+00  0.0000E+00  0.3000E+01  0.3000E+01
    -31.554  0.0000E+00  0.0000E+00  0.3000E+01  0.3000E+01
    -31.331  0.0000E+00  0.0000E+00  0.3000E+01  0.3000E+01
    -31.108  0.0000E+00  0.0000E+00  0.3000E+01  0.3000E+01
    -30.885  0.0000E+00  0.0000E+00  0.3000E+01  0.3000E+01
    -30.662  0.0000E+00  0.0000E+00  0.3000E+01  0.3000E+01
    -30.439  0.0000E+00  0.0000E+00  0.3000E+01  0.3000E+01
    -30.216  0.0000E+00  0.0000E+00  0.3000E+01  0.3000E+01
    -29.993  0.0000E+00  0.0000E+00  0.3000E+01  0.3000E+01
    -29.770  0.0000E+00  0.0000E+00  0.3000E+01  0.3000E+01
    -29.547  0.0000E+00  0.0000E+00  0.3000E+01  0.3000E+01
    -29.324  0.0000E+00  0.0000E+00  0.3000E+01  0.3000E+01
    -29.101  0.0000E+00  0.0000E+00  0.3000E+01  0.3000E+01
    -28.878  0.0000E+00  0.0000E+00  0.3000E+01  0.3000E+01
    -28.655  0.0000E+00  0.0000E+00  0.3000E+01  0.3000E+01
    -28.432  0.0000E+00  0.0000E+00  0.3000E+01  0.3000E+01
    -28.209  0.0000E+00  0.0000E+00  0.3000E+01  0.3000E+01
    -27.986  0.0000E+00  0.0000E+00  0.3000E+01  0.3000E+01
    -27.763  0.0000E+00  0.0000E+00  0.3000E+01  0.3000E+01
    -27.540  0.0000E+00  0.0000E+00  0.3000E+01  0.3000E+01
    -27.318  0.0000E+00  0.0000E+00  0.3000E+01  0.3000E+01
    -27.095  0.0000E+00  0.0000E+00  0.3000E+01  0.3000E+01
    -26.872  0.0000E+00  0.0000E+00  0.3000E+01  0.3000E+01
    -26.649  0.0000E+00  0.0000E+00  0.3000E+01  0.3000E+01
    -26.426  0.0000E+00  0.0000E+00  0.3000E+01  0.3000E+01
    -26.203  0.0000E+00  0.0000E+00  0.3000E+01  0.3000E+01
    -25.980  0.0000E+00  0.0000E+00  0.3000E+01  0.3000E+01
    -25.757  0.0000E+00  0.0000E+00  0.3000E+01  0.3000E+01
    -25.534  0.0000E+00  0.0000E+00  0.3000E+01  0.3000E+01
    -25.311  0.0000E+00  0.0000E+00  0.3000E+01  0.3000E+01
    -25.088  0.0000E+00  0.0000E+00  0.3000E+01  0.3000E+01
    -24.865  0.0000E+00  0.0000E+00  0.3000E+01  0.3000E+01
    -24.642  0.0000E+00  0.0000E+00  0.3000E+01  0.3000E+01
    -24.419  0.0000E+00  0.0000E+00  0.3000E+01  0.3000E+01
    -24.196  0.0000E+00  0.0000E+00  0.3000E+01  0.3000E+01
    -23.973  0.0000E+00  0.0000E+00  0.3000E+01  0.3000E+01
    -23.750  0.0000E+00  0.0000E+00  0.3000E+01  0.3000E+01
    -23.527  0.0000E+00  0.0000E+00  0.3000E+01  0.3000E+01
    -23.304  0.0000E+00  0.0000E+00  0.3000E+01  0.3000E+01
    -23.081  0.0000E+00  0.0000E+00  0.3000E+01  0.3000E+01
    -22.858  0.0000E+00  0.0000E+00  0.3000E+01  0.3000E+01
    -22.635  0.0000E+00  0.0000E+00  0.3000E+01  0.3000E+01
    -22.412  0.0000E+00  0.0000E+00  0.3000E+01  0.3000E+01
    -22.190  0.0000E+00  0.0000E+00  0.3000E+01  0.3000E+01
    -21.967  0.0000E+00  0.0000E+00  0.3000E+01  0.3000E+01
    -21.744  0.0000E+00  0.0000E+00  0.3000E+01  0.3000E+01
    -21.521  0.0000E+00  0.0000E+00  0.3000E+01  0.3000E+01
    -21.298  0.0000E+00  0.0000E+00  0.3000E+01  0.3000E+01
    -21.075  0.0000E+00  0.0000E+00  0.3000E+01  0.3000E+01
    -20.852  0.0000E+00  0.0000E+00  0.3000E+01  0.3000E+01
    -20.629  0.0000E+00  0.0000E+00  0.3000E+01  0.3000E+01
    -20.406  0.0000E+00  0.0000E+00  0.3000E+01  0.3000E+01
    -20.183  0.0000E+00  0.0000E+00  0.3000E+01  0.3000E+01
    -19.960  0.0000E+00  0.0000E+00  0.3000E+01  0.3000E+01
    -19.737  0.0000E+00  0.0000E+00  0.3000E+01  0.3000E+01
    -19.514  0.0000E+00  0.0000E+00  0.3000E+01  0.3000E+01
    -19.291  0.0000E+00  0.0000E+00  0.3000E+01  0.3000E+01
    -19.068  0.0000E+00  0.0000E+00  0.3000E+01  0.3000E+01
    -18.845  0.0000E+00  0.0000E+00  0.3000E+01  0.3000E+01
    -18.622  0.0000E+00  0.0000E+00  0.3000E+01  0.3000E+01
    -18.399  0.0000E+00  0.0000E+00  0.3000E+01  0.3000E+01
    -18.176  0.0000E+00  0.0000E+00  0.3000E+01  0.3000E+01
    -17.953  0.0000E+00  0.0000E+00  0.3000E+01  0.3000E+01
    -17.730  0.0000E+00  0.0000E+00  0.3000E+01  0.3000E+01
    -17.507  0.0000E+00  0.0000E+00  0.3000E+01  0.3000E+01
    -17.284  0.0000E+00  0.0000E+00  0.3000E+01  0.3000E+01
    -17.062  0.0000E+00  0.0000E+00  0.3000E+01  0.3000E+01
    -16.839  0.0000E+00  0.0000E+00  0.3000E+01  0.3000E+01
    -16.616  0.0000E+00  0.0000E+00  0.3000E+01  0.3000E+01
    -16.393  0.0000E+00  0.0000E+00  0.3000E+01  0.3000E+01
    -16.170  0.0000E+00  0.0000E+00  0.3000E+01  0.3000E+01
    -15.947  0.0000E+00  0.0000E+00  0.3000E+01  0.3000E+01
    -15.724  0.0000E+00  0.0000E+00  0.3000E+01  0.3000E+01
    -15.501  0.0000E+00  0.0000E+00  0.3000E+01  0.3000E+01
    -15.278  0.0000E+00  0.0000E+00  0.3000E+01  0.3000E+01
    -15.055  0.0000E+00  0.0000E+00  0.3000E+01  0.3000E+01
    -14.832  0.0000E+00  0.0000E+00  0.3000E+01  0.3000E+01
    -14.609  0.0000E+00  0.0000E+00  0.3000E+01  0.3000E+01
    -14.386  0.0000E+00  0.0000E+00  0.3000E+01  0.3000E+01
    -14.163  0.0000E+00  0.0000E+00  0.3000E+01  0.3000E+01
    -13.940  0.0000E+00  0.0000E+00  0.3000E+01  0.3000E+01
    -13.717  0.0000E+00  0.0000E+00  0.3000E+01  0.3000E+01
    -13.494  0.0000E+00  0.0000E+00  0.3000E+01  0.3000E+01
    -13.271  0.0000E+00  0.0000E+00  0.3000E+01  0.3000E+01
    -13.048  0.0000E+00  0.0000E+00  0.3000E+01  0.3000E+01
    -12.825  0.0000E+00  0.0000E+00  0.3000E+01  0.3000E+01
    -12.602  0.0000E+00  0.0000E+00  0.3000E+01  0.3000E+01
    -12.379  0.0000E+00  0.0000E+00  0.3000E+01  0.3000E+01
    -12.156  0.0000E+00  0.0000E+00  0.3000E+01  0.3000E+01
    -11.934  0.0000E+00  0.0000E+00  0.3000E+01  0.3000E+01
    -11.711  0.0000E+00  0.0000E+00  0.3000E+01  0.3000E+01
    -11.488  0.0000E+00  0.0000E+00  0.3000E+01  0.3000E+01
    -11.265  0.0000E+00  0.0000E+00  0.3000E+01  0.3000E+01
    -11.042  0.0000E+00  0.0000E+00  0.3000E+01  0.3000E+01
    -10.819  0.0000E+00  0.0000E+00  0.3000E+01  0.3000E+01
    -10.596  0.0000E+00  0.0000E+00  0.3000E+01  0.3000E+01
    -10.373  0.0000E+00  0.0000E+00  0.3000E+01  0.3000E+01
    -10.150  0.0000E+00  0.0000E+00  0.3000E+01  0.3000E+01
     -9.927  0.0000E+00  0.0000E+00  0.3000E+01  0.3000E+01
     -9.704  0.0000E+00  0.0000E+00  0.3000E+01  0.3000E+01
     -9.481  0.0000E+00  0.0000E+00  0.3000E+01  0.3000E+01
     -9.258  0.0000E+00  0.0000E+00  0.3000E+01  0.3000E+01
     -9.035  0.0000E+00  0.0000E+00  0.3000E+01  0.3000E+01
     -8.812  0.0000E+00  0.0000E+00  0.3000E+01  0.3000E+01
     -8.589  0.0000E+00  0.0000E+00  0.3000E+01  0.3000E+01
     -8.366  0.0000E+00  0.0000E+00  0.3000E+01  0.3000E+01
     -8.143  0.0000E+00  0.0000E+00  0.3000E+01  0.3000E+01
     -7.920  0.0000E+00  0.0000E+00  0.3000E+01  0.3000E+01
     -7.697  0.0000E+00  0.0000E+00  0.3000E+01  0.3000E+01
     -7.474  0.0000E+00  0.0000E+00  0.3000E+01  0.3000E+01
     -7.251  0.0000E+00  0.0000E+00  0.3000E+01  0.3000E+01
     -7.028  0.0000E+00  0.0000E+00  0.3000E+01  0.3000E+01
     -6.806  0.0000E+00  0.0000E+00  0.3000E+01  0.3000E+01
     -6.583  0.0000E+00  0.0000E+00  0.3000E+01  0.3000E+01
     -6.360  0.0000E+00  0.0000E+00  0.3000E+01  0.3000E+01
     -6.137  0.0000E+00  0.0000E+00  0.3000E+01  0.3000E+01
     -5.914  0.0000E+00  0.0000E+00  0.3000E+01  0.3000E+01
     -5.691  0.0000E+00  0.0000E+00  0.3000E+01  0.3000E+01
     -5.468  0.0000E+00  0.0000E+00  0.3000E+01  0.3000E+01
     -5.245  0.0000E+00  0.0000E+00  0.3000E+01  0.3000E+01
     -5.022  0.0000E+00  0.0000E+00  0.3000E+01  0.3000E+01
     -4.799  0.0000E+00  0.0000E+00  0.3000E+01  0.3000E+01
     -4.576  0.0000E+00  0.0000E+00  0.3000E+01  0.3000E+01
     -4.353  0.0000E+00  0.0000E+00  0.3000E+01  0.3000E+01
     -4.130  0.0000E+00  0.0000E+00  0.3000E+01  0.3000E+01
     -3.907  0.0000E+00  0.0000E+00  0.3000E+01  0.3000E+01
     -3.684  0.0000E+00  0.0000E+00  0.3000E+01  0.3000E+01
     -3.461  0.2226E-07  0.8685E-08  0.3000E+01  0.3000E+01
     -3.238  0.9745E-05  0.3749E-05  0.3000E+01  0.3000E+01
     -3.015  0.8179E-03  0.3285E-03  0.3000E+01  0.3000E+01
     -2.792  0.2818E-01  0.1655E-01  0.3006E+01  0.3004E+01
     -2.569  0.1056E+00  0.9089E-01  0.3030E+01  0.3024E+01
     -2.346  0.1545E+00  0.1455E+00  0.3065E+01  0.3057E+01
     -2.123  0.1924E+00  0.1903E+00  0.3108E+01  0.3099E+01
     -1.901  0.2307E+00  0.2209E+00  0.3159E+01  0.3149E+01
     -1.678  0.2438E+00  0.2542E+00  0.3214E+01  0.3206E+01
     -1.455  0.3047E+00  0.2895E+00  0.3282E+01  0.3271E+01
     -1.232  0.3002E+00  0.3114E+00  0.3349E+01  0.3341E+01
     -1.009  0.3811E+00  0.3801E+00  0.3434E+01  0.3426E+01
     -0.786  0.3806E+00  0.3772E+00  0.3520E+01  0.3510E+01
     -0.563  0.4013E+00  0.4127E+00  0.3610E+01  0.3602E+01
     -0.340  0.3168E+00  0.2970E+00  0.3681E+01  0.3669E+01
     -0.117  0.3764E+00  0.3508E+00  0.3765E+01  0.3747E+01
      0.106  0.4342E+00  0.3690E+00  0.3863E+01  0.3831E+01
      0.329  0.3857E+00  0.4027E+00  0.3949E+01  0.3921E+01
      0.552  0.4428E+00  0.4032E+00  0.4049E+01  0.4012E+01
      0.775  0.4967E+00  0.4521E+00  0.4160E+01  0.4113E+01
      0.998  0.4319E+00  0.4806E+00  0.4257E+01  0.4221E+01
      1.221  0.4739E+00  0.4438E+00  0.4363E+01  0.4321E+01
      1.444  0.5558E+00  0.5104E+00  0.4488E+01  0.4435E+01
      1.667  0.6599E+00  0.6341E+00  0.4636E+01  0.4577E+01
      1.890  0.6150E+00  0.6291E+00  0.4773E+01  0.4718E+01
      2.113  0.6571E+00  0.5162E+00  0.4921E+01  0.4834E+01
      2.336  0.6983E+00  0.5940E+00  0.5077E+01  0.4967E+01
      2.559  0.7771E+00  0.6209E+00  0.5251E+01  0.5106E+01
      2.782  0.6694E+00  0.5977E+00  0.5401E+01  0.5240E+01
      3.005  0.6727E+00  0.6094E+00  0.5552E+01  0.5377E+01
      3.227  0.7569E+00  0.5195E+00  0.5722E+01  0.5493E+01
      3.450  0.9395E+00  0.6334E+00  0.5933E+01  0.5636E+01
      3.673  0.1022E+01  0.6740E+00  0.6162E+01  0.5787E+01
      3.896  0.1229E+01  0.7332E+00  0.6438E+01  0.5951E+01
      4.119  0.1883E+01  0.7438E+00  0.6860E+01  0.6118E+01
      4.342  0.2751E+01  0.7719E+00  0.7475E+01  0.6291E+01
      4.565  0.3055E+01  0.9179E+00  0.8159E+01  0.6497E+01
      4.788  0.2267E+01  0.8174E+00  0.8669E+01  0.6681E+01
      5.011  0.1686E+01  0.1015E+01  0.9050E+01  0.6908E+01
      5.234  0.3109E+01  0.8895E+00  0.9745E+01  0.7108E+01
      5.457  0.3415E+01  0.1152E+01  0.1051E+02  0.7366E+01
      5.680  0.1806E+01  0.1160E+01  0.1092E+02  0.7627E+01
      5.903  0.1378E+01  0.1370E+01  0.1123E+02  0.7934E+01
      6.126  0.8420E+00  0.1072E+01  0.1142E+02  0.8175E+01
      6.349  0.9100E+00  0.1027E+01  0.1162E+02  0.8406E+01
      6.572  0.6841E+00  0.7993E+00  0.1177E+02  0.8586E+01
      6.795  0.1087E+01  0.8883E+00  0.1202E+02  0.8785E+01
      7.018  0.1151E+01  0.8812E+00  0.1228E+02  0.8983E+01
      7.241  0.9961E+00  0.8975E+00  0.1250E+02  0.9184E+01
      7.464  0.8304E+00  0.1064E+01  0.1269E+02  0.9423E+01
      7.687  0.9722E+00  0.1654E+01  0.1290E+02  0.9794E+01
      7.910  0.7857E+00  0.1978E+01  0.1308E+02  0.1024E+02
      8.133  0.6778E+00  0.2643E+01  0.1323E+02  0.1083E+02
      8.355  0.1052E+01  0.3031E+01  0.1347E+02  0.1151E+02
      8.578  0.1051E+01  0.2776E+01  0.1370E+02  0.1213E+02
      8.801  0.1064E+01  0.1446E+01  0.1394E+02  0.1246E+02
      9.024  0.8185E+00  0.1552E+01  0.1413E+02  0.1281E+02
      9.247  0.7704E+00  0.2180E+01  0.1430E+02  0.1330E+02
      9.470  0.8382E+00  0.1464E+01  0.1449E+02  0.1362E+02
      9.693  0.1055E+01  0.1430E+01  0.1472E+02  0.1395E+02
      9.916  0.9977E+00  0.1188E+01  0.1495E+02  0.1421E+02
     10.139  0.6777E+00  0.1426E+01  0.1510E+02  0.1453E+02
     10.362  0.9560E+00  0.1212E+01  0.1531E+02  0.1480E+02
     10.585  0.8179E+00  0.8397E+00  0.1550E+02  0.1499E+02
     10.808  0.9835E+00  0.8613E+00  0.1572E+02  0.1518E+02
     11.031  0.9397E+00  0.1321E+01  0.1593E+02  0.1548E+02
     11.254  0.1113E+01  0.1027E+01  0.1618E+02  0.1571E+02
     11.477  0.9158E+00  0.6813E+00  0.1638E+02  0.1586E+02
     11.700  0.9126E+00  0.1060E+01  0.1659E+02  0.1610E+02
     11.923  0.9702E+00  0.1275E+01  0.1681E+02  0.1639E+02
     12.146  0.1103E+01  0.1397E+01  0.1705E+02  0.1670E+02
     12.369  0.8532E+00  0.1091E+01  0.1725E+02  0.1695E+02
     12.592  0.1072E+01  0.1106E+01  0.1749E+02  0.1719E+02
     12.815  0.1087E+01  0.9624E+00  0.1773E+02  0.1741E+02
     13.038  0.1184E+01  0.1203E+01  0.1800E+02  0.1768E+02
     13.261  0.9528E+00  0.1262E+01  0.1821E+02  0.1796E+02
     13.483  0.1032E+01  0.1189E+01  0.1844E+02  0.1823E+02
     13.706  0.1052E+01  0.9186E+00  0.1868E+02  0.1844E+02
     13.929  0.9542E+00  0.1072E+01  0.1889E+02  0.1868E+02
     14.152  0.8222E+00  0.9263E+00  0.1908E+02  0.1888E+02
     14.375  0.8200E+00  0.8969E+00  0.1926E+02  0.1909E+02
     14.598  0.5671E+00  0.8587E+00  0.1939E+02  0.1928E+02
     14.821  0.4644E+00  0.6117E+00  0.1949E+02  0.1942E+02
     15.044  0.1818E+00  0.3095E+00  0.1954E+02  0.1948E+02
     15.267  0.3916E+00  0.5685E+00  0.1962E+02  0.1961E+02
     15.490  0.2734E+00  0.2964E+00  0.1968E+02  0.1968E+02
     15.713  0.2926E+00  0.2705E+00  0.1975E+02  0.1974E+02
     15.936  0.2617E+00  0.2819E+00  0.1981E+02  0.1980E+02
     16.159  0.1154E+00  0.9898E-01  0.1984E+02  0.1983E+02
     16.382  0.7342E-01  0.9966E-01  0.1985E+02  0.1985E+02
     16.605  0.2237E+00  0.2599E+00  0.1990E+02  0.1991E+02
     16.828  0.1082E+00  0.8929E-01  0.1993E+02  0.1993E+02
     17.051  0.6758E-01  0.9625E-01  0.1994E+02  0.1995E+02
     17.274  0.5593E-01  0.4755E-01  0.1995E+02  0.1996E+02
     17.497  0.8533E-01  0.9051E-01  0.1997E+02  0.1998E+02
     17.720  0.5435E-01  0.4485E-01  0.1999E+02  0.1999E+02
     17.943  0.3603E-01  0.3072E-01  0.1999E+02  0.2000E+02
     18.166  0.1230E-01  0.7559E-03  0.2000E+02  0.2000E+02
     18.389  0.2657E-02  0.7713E-02  0.2000E+02  0.2000E+02
     18.611  0.1273E-01  0.8244E-02  0.2000E+02  0.2000E+02
     18.834  0.8925E-03  0.0000E+00  0.2000E+02  0.2000E+02
     19.057  0.0000E+00  0.0000E+00  0.2000E+02  0.2000E+02
     19.280  0.0000E+00  0.0000E+00  0.2000E+02  0.2000E+02
     19.503  0.0000E+00  0.0000E+00  0.2000E+02  0.2000E+02
     19.726  0.0000E+00  0.0000E+00  0.2000E+02  0.2000E+02
     19.949  0.0000E+00  0.0000E+00  0.2000E+02  0.2000E+02
     20.172  0.0000E+00  0.0000E+00  0.2000E+02  0.2000E+02
     20.395  0.0000E+00  0.0000E+00  0.2000E+02  0.2000E+02
     20.618  0.0000E+00  0.0000E+00  0.2000E+02  0.2000E+02
     20.841  0.0000E+00  0.0000E+00  0.2000E+02  0.2000E+02
     21.064  0.0000E+00  0.0000E+00  0.2000E+02  0.2000E+02
     21.287  0.0000E+00  0.0000E+00  0.2000E+02  0.2000E+02
     21.510  0.0000E+00  0.0000E+00  0.2000E+02  0.2000E+02
     21.50989854    -45.37695659  301      7.41681942      1.00000000
    -45.377  0.0000E+00  0.0000E+00  0.0000E+00  0.0000E+00  0.0000E+00  0.0000E+00  0.0000E+00  0.0000E+00  0.0000E+00  0.0000E+00  0.0000E+00  0.0000E+00  0.0000E+00  0.0000E+00  0.0000E+00  0.0000E+00  0.0000E+00  0.0000E+00
    -45.154  0.0000E+00  0.0000E+00  0.0000E+00  0.0000E+00  0.0000E+00  0.0000E+00  0.0000E+00  0.0000E+00  0.0000E+00  0.0000E+00  0.0000E+00  0.0000E+00  0.0000E+00  0.0000E+00  0.0000E+00  0.0000E+00  0.0000E+00  0.0000E+00
    -44.931  0.0000E+00  0.0000E+00  0.0000E+00  0.0000E+00  0.0000E+00  0.0000E+00  0.0000E+00  0.0000E+00  0.0000E+00  0.0000E+00  0.0000E+00  0.0000E+00  0.0000E+00  0.0000E+00  0.0000E+00  0.0000E+00  0.0000E+00  0.0000E+00
    -44.708  0.0000E+00  0.0000E+00  0.0000E+00  0.0000E+00  0.0000E+00  0.0000E+00  0.0000E+00  0.0000E+00  0.0000E+00  0.0000E+00  0.0000E+00  0.0000E+00  0.0000E+00  0.0000E+00  0.0000E+00  0.0000E+00  0.0000E+00  0.0000E+00
    -44.485  0.0000E+00  0.0000E+00  0.0000E+00  0.0000E+00  0.0000E+00  0.0000E+00  0.0000E+00  0.0000E+00  0.0000E+00  0.0000E+00  0.0000E+00  0.0000E+00  0.0000E+00  0.0000E+00  0.0000E+00  0.0000E+00  0.0000E+00  0.0000E+00
    -44.262  0.0000E+00  0.0000E+00  0.0000E+00  0.0000E+00  0.0000E+00  0.0000E+00  0.0000E+00  0.0000E+00  0.0000E+00  0.0000E+00  0.0000E+00  0.0000E+00  0.0000E+00  0.0000E+00  0.0000E+00  0.0000E+00  0.0000E+00  0.0000E+00
    -44.039  0.0000E+00  0.0000E+00  0.0000E+00  0.0000E+00  0.0000E+00  0.0000E+00  0.0000E+00  0.0000E+00  0.0000E+00  0.0000E+00  0.0000E+00  0.0000E+00  0.0000E+00  0.0000E+00  0.0000E+00  0.0000E+00  0.0000E+00  0.0000E+00
    -43.816  0.0000E+00  0.0000E+00  0.0000E+00  0.0000E+00  0.0000E+00  0.0000E+00  0.0000E+00  0.0000E+00  0.0000E+00  0.0000E+00  0.0000E+00  0.0000E+00  0.0000E+00  0.0000E+00  0.0000E+00  0.0000E+00  0.0000E+00  0.0000E+00
    -43.593  0.0000E+00  0.0000E+00  0.0000E+00  0.0000E+00  0.0000E+00  0.0000E+00  0.0000E+00  0.0000E+00  0.0000E+00  0.0000E+00  0.0000E+00  0.0000E+00  0.0000E+00  0.0000E+00  0.0000E+00  0.0000E+00  0.0000E+00  0.0000E+00
    -43.370  0.0000E+00  0.0000E+00  0.0000E+00  0.0000E+00  0.0000E+00  0.0000E+00  0.0000E+00  0.0000E+00  0.0000E+00  0.0000E+00  0.0000E+00  0.0000E+00  0.0000E+00  0.0000E+00  0.0000E+00  0.0000E+00  0.0000E+00  0.0000E+00
    -43.147  0.0000E+00  0.0000E+00  0.0000E+00  0.0000E+00  0.0000E+00  0.0000E+00  0.0000E+00  0.0000E+00  0.0000E+00  0.0000E+00  0.0000E+00  0.0000E+00  0.0000E+00  0.0000E+00  0.0000E+00  0.0000E+00  0.0000E+00  0.0000E+00
    -42.924  0.5290E-13  0.0000E+00  0.3457E-04  0.0000E+00  0.3457E-04  0.0000E+00  0.3440E-04  0.0000E+00  0.1098E-14  0.0000E+00  0.1108E-14  0.0000E+00  0.3278E-13  0.0000E+00  0.1098E-14  0.0000E+00  0.3346E-13  0.0000E+00
    -42.701  0.4515E-11  0.0000E+00  0.2951E-02  0.0000E+00  0.2951E-02  0.0000E+00  0.2936E-02  0.0000E+00  0.9373E-13  0.0000E+00  0.9456E-13  0.0000E+00  0.2798E-11  0.0000E+00  0.9373E-13  0.0000E+00  0.2856E-11  0.0000E+00
    -42.479  0.3689E-09  0.0000E+00  0.2411E+00  0.0000E+00  0.2411E+00  0.0000E+00  0.2399E+00  0.0000E+00  0.7656E-11  0.0000E+00  0.7723E-11  0.0000E+00  0.2286E-09  0.0000E+00  0.7656E-11  0.0000E+00  0.2333E-09  0.0000E+00
    -42.256  0.5322E-08  0.0000E+00  0.3473E+01  0.0000E+00  0.3473E+01  0.0000E+00  0.3471E+01  0.0000E+00  0.1102E-09  0.0000E+00  0.1110E-09  0.0000E+00  0.3298E-08  0.0000E+00  0.1102E-09  0.0000E+00  0.3366E-08  0.0000E+00
    -42.033  0.1125E-08  0.0000E+00  0.7330E+00  0.0000E+00  0.7330E+00  0.0000E+00  0.7362E+00  0.0000E+00  0.2324E-10  0.0000E+00  0.2335E-10  0.0000E+00  0.6971E-09  0.0000E+00  0.2324E-10  0.0000E+00  0.7115E-09  0.0000E+00
    -41.810  0.0000E+00  0.0000E+00  0.0000E+00  0.0000E+00  0.0000E+00  0.0000E+00  0.0000E+00  0.0000E+00  0.0000E+00  0.0000E+00  0.0000E+00  0.0000E+00  0.0000E+00  0.0000E+00  0.0000E+00  0.0000E+00  0.0000E+00  0.0000E+00
    -41.587  0.0000E+00  0.0000E+00  0.0000E+00  0.0000E+00  0.0000E+00  0.0000E+00  0.0000E+00  0.0000E+00  0.0000E+00  0.0000E+00  0.0000E+00  0.0000E+00  0.0000E+00  0.0000E+00  0.0000E+00  0.0000E+00  0.0000E+00  0.0000E+00
    -41.364  0.0000E+00  0.0000E+00  0.0000E+00  0.0000E+00  0.0000E+00  0.0000E+00  0.0000E+00  0.0000E+00  0.0000E+00  0.0000E+00  0.0000E+00  0.0000E+00  0.0000E+00  0.0000E+00  0.0000E+00  0.0000E+00  0.0000E+00  0.0000E+00
    -41.141  0.0000E+00  0.0000E+00  0.0000E+00  0.0000E+00  0.0000E+00  0.0000E+00  0.0000E+00  0.0000E+00  0.0000E+00  0.0000E+00  0.0000E+00  0.0000E+00  0.0000E+00  0.0000E+00  0.0000E+00  0.0000E+00  0.0000E+00  0.0000E+00
    -40.918  0.0000E+00  0.0000E+00  0.0000E+00  0.0000E+00  0.0000E+00  0.0000E+00  0.0000E+00  0.0000E+00  0.0000E+00  0.0000E+00  0.0000E+00  0.0000E+00  0.0000E+00  0.0000E+00  0.0000E+00  0.0000E+00  0.0000E+00  0.0000E+00
    -40.695  0.0000E+00  0.0000E+00  0.0000E+00  0.0000E+00  0.0000E+00  0.0000E+00  0.0000E+00  0.0000E+00  0.0000E+00  0.0000E+00  0.0000E+00  0.0000E+00  0.0000E+00  0.0000E+00  0.0000E+00  0.0000E+00  0.0000E+00  0.0000E+00
    -40.472  0.0000E+00  0.0000E+00  0.0000E+00  0.0000E+00  0.0000E+00  0.0000E+00  0.0000E+00  0.0000E+00  0.0000E+00  0.0000E+00  0.0000E+00  0.0000E+00  0.0000E+00  0.0000E+00  0.0000E+00  0.0000E+00  0.0000E+00  0.0000E+00
    -40.249  0.0000E+00  0.0000E+00  0.0000E+00  0.0000E+00  0.0000E+00  0.0000E+00  0.0000E+00  0.0000E+00  0.0000E+00  0.0000E+00  0.0000E+00  0.0000E+00  0.0000E+00  0.0000E+00  0.0000E+00  0.0000E+00  0.0000E+00  0.0000E+00
    -40.026  0.0000E+00  0.0000E+00  0.0000E+00  0.0000E+00  0.0000E+00  0.0000E+00  0.0000E+00  0.0000E+00  0.0000E+00  0.0000E+00  0.0000E+00  0.0000E+00  0.0000E+00  0.0000E+00  0.0000E+00  0.0000E+00  0.0000E+00  0.0000E+00
    -39.803  0.0000E+00  0.0000E+00  0.0000E+00  0.0000E+00  0.0000E+00  0.0000E+00  0.0000E+00  0.0000E+00  0.0000E+00  0.0000E+00  0.0000E+00  0.0000E+00  0.0000E+00  0.0000E+00  0.0000E+00  0.0000E+00  0.0000E+00  0.0000E+00
    -39.580  0.0000E+00  0.0000E+00  0.0000E+00  0.0000E+00  0.0000E+00  0.0000E+00  0.0000E+00  0.0000E+00  0.0000E+00  0.0000E+00  0.0000E+00  0.0000E+00  0.0000E+00  0.0000E+00  0.0000E+00  0.0000E+00  0.0000E+00  0.0000E+00
    -39.357  0.0000E+00  0.1057E-11  0.0000E+00  0.4317E-03  0.0000E+00  0.4317E-03  0.0000E+00  0.4313E-03  0.0000E+00  0.2877E-13  0.0000E+00  0.2881E-13  0.0000E+00  0.7106E-12  0.0000E+00  0.2877E-13  0.0000E+00  0.7241E-12
    -39.134  0.0000E+00  0.8951E-10  0.0000E+00  0.3657E-01  0.0000E+00  0.3657E-01  0.0000E+00  0.3654E-01  0.0000E+00  0.2437E-11  0.0000E+00  0.2440E-11  0.0000E+00  0.6019E-10  0.0000E+00  0.2437E-11  0.0000E+00  0.6133E-10
    -38.911  0.0000E+00  0.4490E-08  0.0000E+00  0.1835E+01  0.0000E+00  0.1835E+01  0.0000E+00  0.1834E+01  0.0000E+00  0.1221E-09  0.0000E+00  0.1223E-09  0.0000E+00  0.3020E-08  0.0000E+00  0.1221E-09  0.0000E+00  0.3076E-08
    -38.688  0.0000E+00  0.6167E-08  0.0000E+00  0.2520E+01  0.0000E+00  0.2520E+01  0.0000E+00  0.2521E+01  0.0000E+00  0.1673E-09  0.0000E+00  0.1674E-09  0.0000E+00  0.4150E-08  0.0000E+00  0.1673E-09  0.0000E+00  0.4224E-08
    -38.465  0.0000E+00  0.0000E+00  0.0000E+00  0.0000E+00  0.0000E+00  0.0000E+00  0.0000E+00  0.0000E+00  0.0000E+00  0.0000E+00  0.0000E+00  0.0000E+00  0.0000E+00  0.0000E+00  0.0000E+00  0.0000E+00  0.0000E+00  0.0000E+00
    -38.242  0.0000E+00  0.0000E+00  0.0000E+00  0.0000E+00  0.0000E+00  0.0000E+00  0.0000E+00  0.0000E+00  0.0000E+00  0.0000E+00  0.0000E+00  0.0000E+00  0.0000E+00  0.0000E+00  0.0000E+00  0.0000E+00  0.0000E+00  0.0000E+00
    -38.019  0.0000E+00  0.0000E+00  0.0000E+00  0.0000E+00  0.0000E+00  0.0000E+00  0.0000E+00  0.0000E+00  0.0000E+00  0.0000E+00  0.0000E+00  0.0000E+00  0.0000E+00  0.0000E+00  0.0000E+00  0.0000E+00  0.0000E+00  0.0000E+00
    -37.796  0.0000E+00  0.0000E+00  0.0000E+00  0.0000E+00  0.0000E+00  0.0000E+00  0.0000E+00  0.0000E+00  0.0000E+00  0.0000E+00  0.0000E+00  0.0000E+00  0.0000E+00  0.0000E+00  0.0000E+00  0.0000E+00  0.0000E+00  0.0000E+00
    -37.573  0.0000E+00  0.0000E+00  0.0000E+00  0.0000E+00  0.0000E+00  0.0000E+00  0.0000E+00  0.0000E+00  0.0000E+00  0.0000E+00  0.0000E+00  0.0000E+00  0.0000E+00  0.0000E+00  0.0000E+00  0.0000E+00  0.0000E+00  0.0000E+00
    -37.351  0.0000E+00  0.0000E+00  0.0000E+00  0.0000E+00  0.0000E+00  0.0000E+00  0.0000E+00  0.0000E+00  0.0000E+00  0.0000E+00  0.0000E+00  0.0000E+00  0.0000E+00  0.0000E+00  0.0000E+00  0.0000E+00  0.0000E+00  0.0000E+00
    -37.128  0.0000E+00  0.0000E+00  0.0000E+00  0.0000E+00  0.0000E+00  0.0000E+00  0.0000E+00  0.0000E+00  0.0000E+00  0.0000E+00  0.0000E+00  0.0000E+00  0.0000E+00  0.0000E+00  0.0000E+00  0.0000E+00  0.0000E+00  0.0000E+00
    -36.905  0.0000E+00  0.0000E+00  0.0000E+00  0.0000E+00  0.0000E+00  0.0000E+00  0.0000E+00  0.0000E+00  0.0000E+00  0.0000E+00  0.0000E+00  0.0000E+00  0.0000E+00  0.0000E+00  0.0000E+00  0.0000E+00  0.0000E+00  0.0000E+00
    -36.682  0.0000E+00  0.0000E+00  0.0000E+00  0.0000E+00  0.0000E+00  0.0000E+00  0.0000E+00  0.0000E+00  0.0000E+00  0.0000E+00  0.0000E+00  0.0000E+00  0.0000E+00  0.0000E+00  0.0000E+00  0.0000E+00  0.0000E+00  0.0000E+00
    -36.459  0.0000E+00  0.0000E+00  0.0000E+00  0.0000E+00  0.0000E+00  0.0000E+00  0.0000E+00  0.0000E+00  0.0000E+00  0.0000E+00  0.0000E+00  0.0000E+00  0.0000E+00  0.0000E+00  0.0000E+00  0.0000E+00  0.0000E+00  0.0000E+00
    -36.236  0.0000E+00  0.0000E+00  0.0000E+00  0.0000E+00  0.0000E+00  0.0000E+00  0.0000E+00  0.0000E+00  0.0000E+00  0.0000E+00  0.0000E+00  0.0000E+00  0.0000E+00  0.0000E+00  0.0000E+00  0.0000E+00  0.0000E+00  0.0000E+00
    -36.013  0.0000E+00  0.0000E+00  0.0000E+00  0.0000E+00  0.0000E+00  0.0000E+00  0.0000E+00  0.0000E+00  0.0000E+00  0.0000E+00  0.0000E+00  0.0000E+00  0.0000E+00  0.0000E+00  0.0000E+00  0.0000E+00  0.0000E+00  0.0000E+00
    -35.790  0.0000E+00  0.0000E+00  0.0000E+00  0.0000E+00  0.0000E+00  0.0000E+00  0.0000E+00  0.0000E+00  0.0000E+00  0.0000E+00  0.0000E+00  0.0000E+00  0.0000E+00  0.0000E+00  0.0000E+00  0.0000E+00  0.0000E+00  0.0000E+00
    -35.567  0.0000E+00  0.0000E+00  0.0000E+00  0.0000E+00  0.0000E+00  0.0000E+00  0.0000E+00  0.0000E+00  0.0000E+00  0.0000E+00  0.0000E+00  0.0000E+00  0.0000E+00  0.0000E+00  0.0000E+00  0.0000E+00  0.0000E+00  0.0000E+00
    -35.344  0.0000E+00  0.0000E+00  0.0000E+00  0.0000E+00  0.0000E+00  0.0000E+00  0.0000E+00  0.0000E+00  0.0000E+00  0.0000E+00  0.0000E+00  0.0000E+00  0.0000E+00  0.0000E+00  0.0000E+00  0.0000E+00  0.0000E+00  0.0000E+00
    -35.121  0.0000E+00  0.0000E+00  0.0000E+00  0.0000E+00  0.0000E+00  0.0000E+00  0.0000E+00  0.0000E+00  0.0000E+00  0.0000E+00  0.0000E+00  0.0000E+00  0.0000E+00  0.0000E+00  0.0000E+00  0.0000E+00  0.0000E+00  0.0000E+00
    -34.898  0.0000E+00  0.0000E+00  0.0000E+00  0.0000E+00  0.0000E+00  0.0000E+00  0.0000E+00  0.0000E+00  0.0000E+00  0.0000E+00  0.0000E+00  0.0000E+00  0.0000E+00  0.0000E+00  0.0000E+00  0.0000E+00  0.0000E+00  0.0000E+00
    -34.675  0.0000E+00  0.0000E+00  0.0000E+00  0.0000E+00  0.0000E+00  0.0000E+00  0.0000E+00  0.0000E+00  0.0000E+00  0.0000E+00  0.0000E+00  0.0000E+00  0.0000E+00  0.0000E+00  0.0000E+00  0.0000E+00  0.0000E+00  0.0000E+00
    -34.452  0.0000E+00  0.0000E+00  0.0000E+00  0.0000E+00  0.0000E+00  0.0000E+00  0.0000E+00  0.0000E+00  0.0000E+00  0.0000E+00  0.0000E+00  0.0000E+00  0.0000E+00  0.0000E+00  0.0000E+00  0.0000E+00  0.0000E+00  0.0000E+00
    -34.229  0.0000E+00  0.0000E+00  0.0000E+00  0.0000E+00  0.0000E+00  0.0000E+00  0.0000E+00  0.0000E+00  0.0000E+00  0.0000E+00  0.0000E+00  0.0000E+00  0.0000E+00  0.0000E+00  0.0000E+00  0.0000E+00  0.0000E+00  0.0000E+00