   4   4   1   0
  0.1471604E+02  0.3889355E-09  0.3890333E-09  0.3890333E-09  0.5000000E-15
  1.000000000000000E-004
  CAR 
 unknown system                          
     24.43348065    -43.29791255  301      8.86953250      1.00000000
    -43.298  0.0000E+00  0.0000E+00  0.0000E+00  0.0000E+00
    -43.072  0.0000E+00  0.0000E+00  0.0000E+00  0.0000E+00
    -42.846  0.0000E+00  0.0000E+00  0.0000E+00  0.0000E+00
    -42.621  0.0000E+00  0.0000E+00  0.0000E+00  0.0000E+00
    -42.395  0.0000E+00  0.0000E+00  0.0000E+00  0.0000E+00
    -42.169  0.0000E+00  0.0000E+00  0.0000E+00  0.0000E+00
    -41.943  0.0000E+00  0.0000E+00  0.0000E+00  0.0000E+00
    -41.718  0.0000E+00  0.0000E+00  0.0000E+00  0.0000E+00
    -41.492  0.0000E+00  0.0000E+00  0.0000E+00  0.0000E+00
    -41.266  0.0000E+00  0.0000E+00  0.0000E+00  0.0000E+00
    -41.040  0.0000E+00  0.0000E+00  0.0000E+00  0.0000E+00
    -40.814  0.8722E-04  0.0000E+00  0.1969E-04  0.0000E+00
    -40.589  0.7882E-02  0.0000E+00  0.1799E-02  0.0000E+00
    -40.363  0.6830E+00  0.0000E+00  0.1560E+00  0.0000E+00
    -40.137  0.1039E+02  0.0000E+00  0.2501E+01  0.0000E+00
    -39.911  0.2181E+01  0.0000E+00  0.2993E+01  0.0000E+00
    -39.686  0.0000E+00  0.0000E+00  0.3000E+01  0.0000E+00
    -39.460  0.0000E+00  0.0000E+00  0.3000E+01  0.0000E+00
    -39.234  0.0000E+00  0.0000E+00  0.3000E+01  0.0000E+00
    -39.008  0.0000E+00  0.0000E+00  0.3000E+01  0.0000E+00
    -38.782  0.0000E+00  0.0000E+00  0.3000E+01  0.0000E+00
    -38.557  0.0000E+00  0.0000E+00  0.3000E+01  0.0000E+00
    -38.331  0.0000E+00  0.9456E-03  0.3000E+01  0.2135E-03
    -38.105  0.0000E+00  0.8494E-01  0.3000E+01  0.1939E-01
    -37.879  0.0000E+00  0.4869E+01  0.3000E+01  0.1119E+01
    -37.654  0.0000E+00  0.8093E+01  0.3000E+01  0.2946E+01
    -37.428  0.0000E+00  0.0000E+00  0.3000E+01  0.3000E+01
    -37.202  0.0000E+00  0.0000E+00  0.3000E+01  0.3000E+01
    -36.976  0.0000E+00  0.0000E+00  0.3000E+01  0.3000E+01
    -36.751  0.0000E+00  0.0000E+00  0.3000E+01  0.3000E+01
    -36.525  0.0000E+00  0.0000E+00  0.3000E+01  0.3000E+01
    -36.299  0.0000E+00  0.0000E+00  0.3000E+01  0.3000E+01
    -36.073  0.0000E+00  0.0000E+00  0.3000E+01  0.3000E+01
    -35.847  0.0000E+00  0.0000E+00  0.3000E+01  0.3000E+01
    -35.622  0.0000E+00  0.0000E+00  0.3000E+01  0.3000E+01
    -35.396  0.0000E+00  0.0000E+00  0.3000E+01  0.3000E+01
    -35.170  0.0000E+00  0.0000E+00  0.3000E+01  0.3000E+01
    -34.944  0.0000E+00  0.0000E+00  0.3000E+01  0.3000E+01
    -34.719  0.0000E+00  0.0000E+00  0.3000E+01  0.3000E+01
    -34.493  0.0000E+00  0.0000E+00  0.3000E+01  0.3000E+01
    -34.267  0.0000E+00  0.0000E+00  0.3000E+01  0.3000E+01
    -34.041  0.0000E+00  0.0000E+00  0.3000E+01  0.3000E+01
    -33.816  0.0000E+00  0.0000E+00  0.3000E+01  0.3000E+01
    -33.590  0.0000E+00  0.0000E+00  0.3000E+01  0.3000E+01
    -33.364  0.0000E+00  0.0000E+00  0.3000E+01  0.3000E+01
    -33.138  0.0000E+00  0.0000E+00  0.3000E+01  0.3000E+01
    -32.912  0.0000E+00  0.0000E+00  0.3000E+01  0.3000E+01
    -32.687  0.0000E+00  0.0000E+00  0.3000E+01  0.3000E+01
    -32.461  0.0000E+00  0.0000E+00  0.3000E+01  0.3000E+01
    -32.235  0.0000E+00  0.0000E+00  0.3000E+01  0.3000E+01
    -32.009  0.0000E+00  0.0000E+00  0.3000E+01  0.3000E+01
    -31.784  0.0000E+00  0.0000E+00  0.3000E+01  0.3000E+01
    -31.558  0.0000E+00  0.0000E+00  0.3000E+01  0.3000E+01
    -31.332  0.0000E+00  0.0000E+00  0.3000E+01  0.3000E+01
    -31.106  0.0000E+00  0.0000E+00  0.3000E+01  0.3000E+01
    -30.880  0.0000E+00  0.0000E+00  0.3000E+01  0.3000E+01
    -30.655  0.0000E+00  0.0000E+00  0.3000E+01  0.3000E+01
    -30.429  0.0000E+00  0.0000E+00  0.3000E+01  0.3000E+01
    -30.203  0.0000E+00  0.0000E+00  0.3000E+01  0.3000E+01
    -29.977  0.0000E+00  0.0000E+00  0.3000E+01  0.3000E+01
    -29.752  0.0000E+00  0.0000E+00  0.3000E+01  0.3000E+01
    -29.526  0.0000E+00  0.0000E+00  0.3000E+01  0.3000E+01
    -29.300  0.0000E+00  0.0000E+00  0.3000E+01  0.3000E+01
    -29.074  0.0000E+00  0.0000E+00  0.3000E+01  0.3000E+01
    -28.849  0.0000E+00  0.0000E+00  0.3000E+01  0.3000E+01
    -28.623  0.0000E+00  0.0000E+00  0.3000E+01  0.3000E+01
    -28.397  0.0000E+00  0.0000E+00  0.3000E+01  0.3000E+01
    -28.171  0.0000E+00  0.0000E+00  0.3000E+01  0.3000E+01
    -27.945  0.0000E+00  0.0000E+00  0.3000E+01  0.3000E+01
    -27.720  0.0000E+00  0.0000E+00  0.3000E+01  0.3000E+01
    -27.494  0.0000E+00  0.0000E+00  0.3000E+01  0.3000E+01
    -27.268  0.0000E+00  0.0000E+00  0.3000E+01  0.3000E+01
    -27.042  0.0000E+00  0.0000E+00  0.3000E+01  0.3000E+01
    -26.817  0.0000E+00  0.0000E+00  0.3000E+01  0.3000E+01
    -26.591  0.0000E+00  0.0000E+00  0.3000E+01  0.3000E+01
    -26.365  0.0000E+00  0.0000E+00  0.3000E+01  0.3000E+01
    -26.139  0.0000E+00  0.0000E+00  0.3000E+01  0.3000E+01
    -25.914  0.0000E+00  0.0000E+00  0.3000E+01  0.3000E+01
    -25.688  0.0000E+00  0.0000E+00  0.3000E+01  0.3000E+01
    -25.462  0.0000E+00  0.0000E+00  0.3000E+01  0.3000E+01
    -25.236  0.0000E+00  0.0000E+00  0.3000E+01  0.3000E+01
    -25.010  0.0000E+00  0.0000E+00  0.3000E+01  0.3000E+01
    -24.785  0.0000E+00  0.0000E+00  0.3000E+01  0.3000E+01
    -24.559  0.0000E+00  0.0000E+00  0.3000E+01  0.3000E+01
    -24.333  0.0000E+00  0.0000E+00  0.3000E+01  0.3000E+01
    -24.107  0.0000E+00  0.0000E+00  0.3000E+01  0.3000E+01
    -23.882  0.0000E+00  0.0000E+00  0.3000E+01  0.3000E+01
    -23.656  0.0000E+00  0.0000E+00  0.3000E+01  0.3000E+01
    -23.430  0.0000E+00  0.0000E+00  0.3000E+01  0.3000E+01
    -23.204  0.0000E+00  0.0000E+00  0.3000E+01  0.3000E+01
    -22.978  0.0000E+00  0.0000E+00  0.3000E+01  0.3000E+01
    -22.753  0.0000E+00  0.0000E+00  0.3000E+01  0.3000E+01
    -22.527  0.0000E+00  0.0000E+00  0.3000E+01  0.3000E+01
    -22.301  0.0000E+00  0.0000E+00  0.3000E+01  0.3000E+01
    -22.075  0.0000E+00  0.0000E+00  0.3000E+01  0.3000E+01
    -21.850  0.0000E+00  0.0000E+00  0.3000E+01  0.3000E+01
    -21.624  0.0000E+00  0.0000E+00  0.3000E+01  0.3000E+01
    -21.398  0.0000E+00  0.0000E+00  0.3000E+01  0.3000E+01
    -21.172  0.0000E+00  0.0000E+00  0.3000E+01  0.3000E+01
    -20.947  0.0000E+00  0.0000E+00  0.3000E+01  0.3000E+01
    -20.721  0.0000E+00  0.0000E+00  0.3000E+01  0.3000E+01
    -20.495  0.0000E+00  0.0000E+00  0.3000E+01  0.3000E+01
    -20.269  0.0000E+00  0.0000E+00  0.3000E+01  0.3000E+01
    -20.043  0.0000E+00  0.0000E+00  0.3000E+01  0.3000E+01
    -19.818  0.0000E+00  0.0000E+00  0.3000E+01  0.3000E+01
    -19.592  0.0000E+00  0.0000E+00  0.3000E+01  0.3000E+01
    -19.366  0.0000E+00  0.0000E+00  0.3000E+01  0.3000E+01
    -19.140  0.0000E+00  0.0000E+00  0.3000E+01  0.3000E+01
    -18.915  0.0000E+00  0.0000E+00  0.3000E+01  0.3000E+01
    -18.689  0.0000E+00  0.0000E+00  0.3000E+01  0.3000E+01
    -18.463  0.0000E+00  0.0000E+00  0.3000E+01  0.3000E+01
    -18.237  0.0000E+00  0.0000E+00  0.3000E+01  0.3000E+01
    -18.012  0.0000E+00  0.0000E+00  0.3000E+01  0.3000E+01
    -17.786  0.0000E+00  0.0000E+00  0.3000E+01  0.3000E+01
    -17.560  0.0000E+00  0.0000E+00  0.3000E+01  0.3000E+01
    -17.334  0.0000E+00  0.0000E+00  0.3000E+01  0.3000E+01
    -17.108  0.0000E+00  0.0000E+00  0.3000E+01  0.3000E+01
    -16.883  0.0000E+00  0.0000E+00  0.3000E+01  0.3000E+01
    -16.657  0.0000E+00  0.0000E+00  0.3000E+01  0.3000E+01
    -16.431  0.0000E+00  0.0000E+00  0.3000E+01  0.3000E+01
    -16.205  0.0000E+00  0.0000E+00  0.3000E+01  0.3000E+01
    -15.980  0.0000E+00  0.0000E+00  0.3000E+01  0.3000E+01
    -15.754  0.0000E+00  0.0000E+00  0.3000E+01  0.3000E+01
    -15.528  0.0000E+00  0.0000E+00  0.3000E+01  0.3000E+01
    -15.302  0.0000E+00  0.0000E+00  0.3000E+01  0.3000E+01
    -15.076  0.0000E+00  0.0000E+00  0.3000E+01  0.3000E+01
    -14.851  0.0000E+00  0.0000E+00  0.3000E+01  0.3000E+01
    -14.625  0.0000E+00  0.0000E+00  0.3000E+01  0.3000E+01
    -14.399  0.0000E+00  0.0000E+00  0.3000E+01  0.3000E+01
    -14.173  0.0000E+00  0.0000E+00  0.3000E+01  0.3000E+01
    -13.948  0.0000E+00  0.0000E+00  0.3000E+01  0.3000E+01
    -13.722  0.0000E+00  0.0000E+00  0.3000E+01  0.3000E+01
    -13.496  0.0000E+00  0.0000E+00  0.3000E+01  0.3000E+01
    -13.270  0.0000E+00  0.0000E+00  0.3000E+01  0.3000E+01
    -13.045  0.0000E+00  0.0000E+00  0.3000E+01  0.3000E+01
    -12.819  0.0000E+00  0.0000E+00  0.3000E+01  0.3000E+01
    -12.593  0.0000E+00  0.0000E+00  0.3000E+01  0.3000E+01
    -12.367  0.0000E+00  0.0000E+00  0.3000E+01  0.3000E+01
    -12.141  0.0000E+00  0.0000E+00  0.3000E+01  0.3000E+01
    -11.916  0.0000E+00  0.0000E+00  0.3000E+01  0.3000E+01
    -11.690  0.0000E+00  0.0000E+00  0.3000E+01  0.3000E+01
    -11.464  0.0000E+00  0.0000E+00  0.3000E+01  0.3000E+01
    -11.238  0.0000E+00  0.0000E+00  0.3000E+01  0.3000E+01
    -11.013  0.0000E+00  0.0000E+00  0.3000E+01  0.3000E+01
    -10.787  0.0000E+00  0.0000E+00  0.3000E+01  0.3000E+01
    -10.561  0.0000E+00  0.0000E+00  0.3000E+01  0.3000E+01
    -10.335  0.0000E+00  0.0000E+00  0.3000E+01  0.3000E+01
    -10.110  0.0000E+00  0.0000E+00  0.3000E+01  0.3000E+01
     -9.884  0.0000E+00  0.0000E+00  0.3000E+01  0.3000E+01
     -9.658  0.0000E+00  0.0000E+00  0.3000E+01  0.3000E+01
     -9.432  0.0000E+00  0.0000E+00  0.3000E+01  0.3000E+01
     -9.206  0.0000E+00  0.0000E+00  0.3000E+01  0.3000E+01
     -8.981  0.0000E+00  0.0000E+00  0.3000E+01  0.3000E+01
     -8.755  0.0000E+00  0.0000E+00  0.3000E+01  0.3000E+01
     -8.529  0.0000E+00  0.0000E+00  0.3000E+01  0.3000E+01
     -8.303  0.0000E+00  0.0000E+00  0.3000E+01  0.3000E+01
     -8.078  0.0000E+00  0.0000E+00  0.3000E+01  0.3000E+01
     -7.852  0.0000E+00  0.0000E+00  0.3000E+01  0.3000E+01
     -7.626  0.0000E+00  0.0000E+00  0.3000E+01  0.3000E+01
     -7.400  0.0000E+00  0.0000E+00  0.3000E+01  0.3000E+01
     -7.175  0.0000E+00  0.0000E+00  0.3000E+01  0.3000E+01
     -6.949  0.0000E+00  0.0000E+00  0.3000E+01  0.3000E+01
     -6.723  0.0000E+00  0.0000E+00  0.3000E+01  0.3000E+01
     -6.497  0.0000E+00  0.0000E+00  0.3000E+01  0.3000E+01
     -6.271  0.0000E+00  0.0000E+00  0.3000E+01  0.3000E+01
     -6.046  0.0000E+00  0.0000E+00  0.3000E+01  0.3000E+01
     -5.820  0.0000E+00  0.0000E+00  0.3000E+01  0.3000E+01
     -5.594  0.0000E+00  0.0000E+00  0.3000E+01  0.3000E+01
     -5.368  0.0000E+00  0.0000E+00  0.3000E+01  0.3000E+01
     -5.143  0.0000E+00  0.0000E+00  0.3000E+01  0.3000E+01
     -4.917  0.0000E+00  0.0000E+00  0.3000E+01  0.3000E+01
     -4.691  0.0000E+00  0.0000E+00  0.3000E+01  0.3000E+01
     -4.465  0.0000E+00  0.0000E+00  0.3000E+01  0.3000E+01
     -4.239  0.0000E+00  0.0000E+00  0.3000E+01  0.3000E+01
     -4.014  0.0000E+00  0.0000E+00  0.3000E+01  0.3000E+01
     -3.788  0.0000E+00  0.0000E+00  0.3000E+01  0.3000E+01
     -3.562  0.0000E+00  0.0000E+00  0.3000E+01  0.3000E+01
     -3.336  0.0000E+00  0.0000E+00  0.3000E+01  0.3000E+01
     -3.111  0.0000E+00  0.0000E+00  0.3000E+01  0.3000E+01
     -2.885  0.1901E-07  0.1372E-07  0.3000E+01  0.3000E+01
     -2.659  0.7498E-05  0.5455E-05  0.3000E+01  0.3000E+01
     -2.433  0.6747E-03  0.4951E-03  0.3000E+01  0.3000E+01
     -2.208  0.2442E-01  0.2070E-01  0.3006E+01  0.3005E+01
     -1.982  0.9187E-01  0.8781E-01  0.3026E+01  0.3025E+01
     -1.756  0.1307E+00  0.1289E+00  0.3056E+01  0.3054E+01
     -1.530  0.1710E+00  0.1706E+00  0.3095E+01  0.3093E+01
     -1.304  0.1880E+00  0.1871E+00  0.3138E+01  0.3135E+01
     -1.079  0.2403E+00  0.2415E+00  0.3192E+01  0.3191E+01
     -0.853  0.2211E+00  0.2221E+00  0.3243E+01  0.3241E+01
     -0.627  0.3061E+00  0.3085E+00  0.3312E+01  0.3311E+01
     -0.401  0.2684E+00  0.2740E+00  0.3374E+01  0.3374E+01
     -0.176  0.3617E+00  0.3748E+00  0.3456E+01  0.3459E+01
      0.050  0.3602E+00  0.3575E+00  0.3538E+01  0.3540E+01
      0.276  0.3510E+00  0.3499E+00  0.3617E+01  0.3620E+01
      0.502  0.2968E+00  0.2972E+00  0.3685E+01  0.3688E+01
      0.727  0.3381E+00  0.2977E+00  0.3761E+01  0.3755E+01
      0.953  0.3916E+00  0.3657E+00  0.3851E+01  0.3839E+01
      1.179  0.3576E+00  0.3537E+00  0.3932E+01  0.3919E+01
      1.405  0.3942E+00  0.3832E+00  0.4021E+01  0.4006E+01
      1.631  0.4140E+00  0.3697E+00  0.4116E+01  0.4090E+01
      1.856  0.4475E+00  0.4788E+00  0.4218E+01  0.4198E+01
      2.082  0.3774E+00  0.3430E+00  0.4304E+01  0.4277E+01
      2.308  0.4557E+00  0.4506E+00  0.4407E+01  0.4379E+01
      2.534  0.5315E+00  0.5112E+00  0.4528E+01  0.4495E+01
      2.759  0.6114E+00  0.5799E+00  0.4666E+01  0.4627E+01
      2.985  0.5109E+00  0.5578E+00  0.4782E+01  0.4754E+01
      3.211  0.6046E+00  0.4963E+00  0.4920E+01  0.4867E+01
      3.437  0.5993E+00  0.5585E+00  0.5056E+01  0.4994E+01
      3.663  0.7140E+00  0.6111E+00  0.5218E+01  0.5133E+01
      3.888  0.6153E+00  0.5686E+00  0.5358E+01  0.5262E+01
      4.114  0.5984E+00  0.5954E+00  0.5494E+01  0.5397E+01
      4.340  0.7166E+00  0.4823E+00  0.5657E+01  0.5507E+01
      4.566  0.7287E+00  0.6708E+00  0.5823E+01  0.5660E+01
      4.791  0.8486E+00  0.6557E+00  0.6015E+01  0.5808E+01
      5.017  0.9424E+00  0.6752E+00  0.6229E+01  0.5962E+01
      5.243  0.1120E+01  0.7728E+00  0.6483E+01  0.6138E+01
      5.469  0.1366E+01  0.7230E+00  0.6793E+01  0.6302E+01
      5.694  0.1674E+01  0.9154E+00  0.7174E+01  0.6510E+01
      5.920  0.1742E+01  0.8272E+00  0.7568E+01  0.6698E+01
      6.146  0.1996E+01  0.1015E+01  0.8021E+01  0.6928E+01
      6.372  0.1763E+01  0.1009E+01  0.8422E+01  0.7158E+01
      6.598  0.1360E+01  0.1081E+01  0.8732E+01  0.7403E+01
      6.823  0.1274E+01  0.1438E+01  0.9022E+01  0.7730E+01
      7.049  0.1914E+01  0.1361E+01  0.9455E+01  0.8039E+01
      7.275  0.4005E+01  0.1041E+01  0.1036E+02  0.8277E+01
      7.501  0.2177E+01  0.9265E+00  0.1086E+02  0.8487E+01
      7.726  0.1495E+01  0.8649E+00  0.1120E+02  0.8683E+01
      7.952  0.1014E+01  0.8305E+00  0.1143E+02  0.8872E+01
      8.178  0.9028E+00  0.8256E+00  0.1164E+02  0.9060E+01
      8.404  0.6251E+00  0.7794E+00  0.1178E+02  0.9237E+01
      8.629  0.7262E+00  0.1205E+01  0.1194E+02  0.9510E+01
      8.855  0.6950E+00  0.1563E+01  0.1210E+02  0.9864E+01
      9.081  0.8710E+00  0.1478E+01  0.1230E+02  0.1020E+02
      9.307  0.1161E+01  0.1755E+01  0.1256E+02  0.1060E+02
      9.533  0.1237E+01  0.3085E+01  0.1284E+02  0.1130E+02
      9.758  0.8492E+00  0.2869E+01  0.1304E+02  0.1195E+02
      9.984  0.9004E+00  0.1201E+01  0.1324E+02  0.1223E+02
     10.210  0.9251E+00  0.1048E+01  0.1345E+02  0.1246E+02
     10.436  0.7163E+00  0.1249E+01  0.1361E+02  0.1275E+02
     10.661  0.8612E+00  0.1682E+01  0.1381E+02  0.1313E+02
     10.887  0.7232E+00  0.1270E+01  0.1397E+02  0.1342E+02
     11.113  0.1027E+01  0.1019E+01  0.1421E+02  0.1365E+02
     11.339  0.8632E+00  0.1127E+01  0.1440E+02  0.1391E+02
     11.565  0.8913E+00  0.9007E+00  0.1460E+02  0.1411E+02
     11.790  0.1083E+01  0.1245E+01  0.1485E+02  0.1440E+02
     12.016  0.7550E+00  0.1208E+01  0.1502E+02  0.1467E+02
     12.242  0.7658E+00  0.9734E+00  0.1520E+02  0.1489E+02
     12.468  0.9422E+00  0.7411E+00  0.1541E+02  0.1506E+02
     12.693  0.6571E+00  0.6221E+00  0.1556E+02  0.1520E+02
     12.919  0.9260E+00  0.1252E+01  0.1577E+02  0.1549E+02
     13.145  0.9684E+00  0.9654E+00  0.1599E+02  0.1570E+02
     13.371  0.8696E+00  0.5785E+00  0.1619E+02  0.1584E+02
     13.596  0.8677E+00  0.7778E+00  0.1639E+02  0.1601E+02
     13.822  0.8339E+00  0.1170E+01  0.1657E+02  0.1628E+02
     14.048  0.7977E+00  0.1208E+01  0.1676E+02  0.1655E+02
     14.274  0.1182E+01  0.9753E+00  0.1702E+02  0.1678E+02
     14.500  0.9052E+00  0.1111E+01  0.1723E+02  0.1703E+02
     14.725  0.7379E+00  0.1088E+01  0.1740E+02  0.1728E+02
     14.951  0.1076E+01  0.6907E+00  0.1764E+02  0.1743E+02
     15.177  0.1172E+01  0.1194E+01  0.1791E+02  0.1770E+02
     15.403  0.9434E+00  0.1247E+01  0.1812E+02  0.1799E+02
     15.628  0.8383E+00  0.8593E+00  0.1831E+02  0.1818E+02
     15.854  0.7991E+00  0.8773E+00  0.1849E+02  0.1838E+02
     16.080  0.1143E+01  0.1008E+01  0.1875E+02  0.1861E+02
     16.306  0.8228E+00  0.9355E+00  0.1894E+02  0.1882E+02
     16.531  0.7767E+00  0.8347E+00  0.1912E+02  0.1901E+02
     16.757  0.8829E+00  0.8142E+00  0.1932E+02  0.1920E+02
     16.983  0.3778E+00  0.6666E+00  0.1940E+02  0.1935E+02
     17.209  0.3035E+00  0.4396E+00  0.1947E+02  0.1945E+02
     17.435  0.2576E+00  0.2827E+00  0.1953E+02  0.1952E+02
     17.660  0.4938E+00  0.5640E+00  0.1964E+02  0.1964E+02
     17.886  0.2594E+00  0.2935E+00  0.1970E+02  0.1971E+02
     18.112  0.1931E+00  0.2226E+00  0.1975E+02  0.1976E+02
     18.338  0.2441E+00  0.2063E+00  0.1980E+02  0.1981E+02
     18.563  0.1526E+00  0.8525E-01  0.1984E+02  0.1983E+02
     18.789  0.7575E-01  0.1261E+00  0.1986E+02  0.1986E+02
     19.015  0.1345E+00  0.1979E+00  0.1989E+02  0.1990E+02
     19.241  0.1247E+00  0.7898E-01  0.1991E+02  0.1992E+02
     19.467  0.9530E-01  0.1208E+00  0.1994E+02  0.1995E+02
     19.692  0.7239E-01  0.3660E-01  0.1995E+02  0.1995E+02
     19.918  0.3514E-01  0.7613E-01  0.1996E+02  0.1997E+02
     20.144  0.6672E-01  0.3670E-01  0.1998E+02  0.1998E+02
     20.370  0.4774E-01  0.6530E-01  0.1999E+02  0.1999E+02
     20.595  0.4209E-01  0.9032E-02  0.2000E+02  0.2000E+02
     20.821  0.3282E-02  0.7242E-05  0.2000E+02  0.2000E+02
     21.047  0.3371E-04  0.6356E-03  0.2000E+02  0.2000E+02
     21.273  0.2582E-02  0.1212E-01  0.2000E+02  0.2000E+02
     21.498  0.1265E-01  0.3317E-02  0.2000E+02  0.2000E+02
     21.724  0.8526E-03  0.0000E+00  0.2000E+02  0.2000E+02
     21.950  0.0000E+00  0.0000E+00  0.2000E+02  0.2000E+02
     22.176  0.0000E+00  0.0000E+00  0.2000E+02  0.2000E+02
     22.402  0.0000E+00  0.0000E+00  0.2000E+02  0.2000E+02
     22.627  0.0000E+00  0.0000E+00  0.2000E+02  0.2000E+02
     22.853  0.0000E+00  0.0000E+00  0.2000E+02  0.2000E+02
     23.079  0.0000E+00  0.0000E+00  0.2000E+02  0.2000E+02
     23.305  0.0000E+00  0.0000E+00  0.2000E+02  0.2000E+02
     23.530  0.0000E+00  0.0000E+00  0.2000E+02  0.2000E+02
     23.756  0.0000E+00  0.0000E+00  0.2000E+02  0.2000E+02
     23.982  0.0000E+00  0.0000E+00  0.2000E+02  0.2000E+02
     24.208  0.0000E+00  0.0000E+00  0.2000E+02  0.2000E+02
     24.433  0.0000E+00  0.0000E+00  0.2000E+02  0.2000E+02
     24.43348065    -43.29791255  301      8.86953250      1.00000000
    -43.298  0.0000E+00  0.0000E+00  0.0000E+00  0.0000E+00  0.0000E+00  0.0000E+00  0.0000E+00  0.0000E+00  0.0000E+00  0.0000E+00  0.0000E+00  0.0000E+00  0.0000E+00  0.0000E+00  0.0000E+00  0.0000E+00  0.0000E+00  0.0000E+00
    -43.072  0.0000E+00  0.0000E+00  0.0000E+00  0.0000E+00  0.0000E+00  0.0000E+00  0.0000E+00  0.0000E+00  0.0000E+00  0.0000E+00  0.0000E+00  0.0000E+00  0.0000E+00  0.0000E+00  0.0000E+00  0.0000E+00  0.0000E+00  0.0000E+00
    -42.846  0.0000E+00  0.0000E+00  0.0000E+00  0.0000E+00  0.0000E+00  0.0000E+00  0.0000E+00  0.0000E+00  0.0000E+00  0.0000E+00  0.0000E+00  0.0000E+00  0.0000E+00  0.0000E+00  0.0000E+00  0.0000E+00  0.0000E+00  0.0000E+00
    -42.621  0.0000E+00  0.0000E+00  0.0000E+00  0.0000E+00  0.0000E+00  0.0000E+00  0.0000E+00  0.0000E+00  0.0000E+00  0.0000E+00  0.0000E+00  0.0000E+00  0.0000E+00  0.0000E+00  0.0000E+00  0.0000E+00  0.0000E+00  0.0000E+00
    -42.395  0.0000E+00  0.0000E+00  0.0000E+00  0.0000E+00  0.0000E+00  0.0000E+00  0.0000E+00  0.0000E+00  0.0000E+00  0.0000E+00  0.0000E+00  0.0000E+00  0.0000E+00  0.0000E+00  0.0000E+00  0.0000E+00  0.0000E+00  0.0000E+00
    -42.169  0.0000E+00  0.0000E+00  0.0000E+00  0.0000E+00  0.0000E+00  0.0000E+00  0.0000E+00  0.0000E+00  0.0000E+00  0.0000E+00  0.0000E+00  0.0000E+00  0.0000E+00  0.0000E+00  0.0000E+00  0.0000E+00  0.0000E+00  0.0000E+00
    -41.943  0.0000E+00  0.0000E+00  0.0000E+00  0.0000E+00  0.0000E+00  0.0000E+00  0.0000E+00  0.0000E+00  0.0000E+00  0.0000E+00  0.0000E+00  0.0000E+00  0.0000E+00  0.0000E+00  0.0000E+00  0.0000E+00  0.0000E+00  0.0000E+00
    -41.718  0.0000E+00  0.0000E+00  0.0000E+00  0.0000E+00  0.0000E+00  0.0000E+00  0.0000E+00  0.0000E+00  0.0000E+00  0.0000E+00  0.0000E+00  0.0000E+00  0.0000E+00  0.0000E+00  0.0000E+00  0.0000E+00  0.0000E+00  0.0000E+00
    -41.492  0.0000E+00  0.0000E+00  0.0000E+00  0.0000E+00  0.0000E+00  0.0000E+00  0.0000E+00  0.0000E+00  0.0000E+00  0.0000E+00  0.0000E+00  0.0000E+00  0.0000E+00  0.0000E+00  0.0000E+00  0.0000E+00  0.0000E+00  0.0000E+00
    -41.266  0.0000E+00  0.0000E+00  0.0000E+00  0.0000E+00  0.0000E+00  0.0000E+00  0.0000E+00  0.0000E+00  0.0000E+00  0.0000E+00  0.0000E+00  0.0000E+00  0.0000E+00  0.0000E+00  0.0000E+00  0.0000E+00  0.0000E+00  0.0000E+00
    -41.040  0.0000E+00  0.0000E+00  0.0000E+00  0.0000E+00  0.0000E+00  0.0000E+00  0.0000E+00  0.0000E+00  0.0000E+00  0.0000E+00  0.0000E+00  0.0000E+00  0.0000E+00  0.0000E+00  0.0000E+00  0.0000E+00  0.0000E+00  0.0000E+00
    -40.814  0.1863E-12  0.0000E+00  0.2896E-04  0.0000E+00  0.2896E-04  0.0000E+00  0.2881E-04  0.0000E+00  0.6921E-14  0.0000E+00  0.7043E-14  0.0000E+00  0.1238E-12  0.0000E+00  0.6921E-14  0.0000E+00  0.1239E-12  0.0000E+00
    -40.589  0.1683E-10  0.0000E+00  0.2616E-02  0.0000E+00  0.2616E-02  0.0000E+00  0.2603E-02  0.0000E+00  0.6254E-12  0.0000E+00  0.6364E-12  0.0000E+00  0.1119E-10  0.0000E+00  0.6254E-12  0.0000E+00  0.1119E-10  0.0000E+00
    -40.363  0.1459E-08  0.0000E+00  0.2267E+00  0.0000E+00  0.2267E+00  0.0000E+00  0.2256E+00  0.0000E+00  0.5422E-10  0.0000E+00  0.5516E-10  0.0000E+00  0.9694E-09  0.0000E+00  0.5422E-10  0.0000E+00  0.9700E-09  0.0000E+00
    -40.137  0.2217E-07  0.0000E+00  0.3443E+01  0.0000E+00  0.3443E+01  0.0000E+00  0.3441E+01  0.0000E+00  0.8289E-09  0.0000E+00  0.8421E-09  0.0000E+00  0.1475E-07  0.0000E+00  0.8289E-09  0.0000E+00  0.1475E-07  0.0000E+00
    -39.911  0.4653E-08  0.0000E+00  0.7216E+00  0.0000E+00  0.7216E+00  0.0000E+00  0.7247E+00  0.0000E+00  0.1751E-09  0.0000E+00  0.1775E-09  0.0000E+00  0.3099E-08  0.0000E+00  0.1751E-09  0.0000E+00  0.3095E-08  0.0000E+00
    -39.686  0.0000E+00  0.0000E+00  0.0000E+00  0.0000E+00  0.0000E+00  0.0000E+00  0.0000E+00  0.0000E+00  0.0000E+00  0.0000E+00  0.0000E+00  0.0000E+00  0.0000E+00  0.0000E+00  0.0000E+00  0.0000E+00  0.0000E+00  0.0000E+00
    -39.460  0.0000E+00  0.0000E+00  0.0000E+00  0.0000E+00  0.0000E+00  0.0000E+00  0.0000E+00  0.0000E+00  0.0000E+00  0.0000E+00  0.0000E+00  0.0000E+00  0.0000E+00  0.0000E+00  0.0000E+00  0.0000E+00  0.0000E+00  0.0000E+00
    -39.234  0.0000E+00  0.0000E+00  0.0000E+00  0.0000E+00  0.0000E+00  0.0000E+00  0.0000E+00  0.0000E+00  0.0000E+00  0.0000E+00  0.0000E+00  0.0000E+00  0.0000E+00  0.0000E+00  0.0000E+00  0.0000E+00  0.0000E+00  0.0000E+00
    -39.008  0.0000E+00  0.0000E+00  0.0000E+00  0.0000E+00  0.0000E+00  0.0000E+00  0.0000E+00  0.0000E+00  0.0000E+00  0.0000E+00  0.0000E+00  0.0000E+00  0.0000E+00  0.0000E+00  0.0000E+00  0.0000E+00  0.0000E+00  0.0000E+00
    -38.782  0.0000E+00  0.0000E+00  0.0000E+00  0.0000E+00  0.0000E+00  0.0000E+00  0.0000E+00  0.0000E+00  0.0000E+00  0.0000E+00  0.0000E+00  0.0000E+00  0.0000E+00  0.0000E+00  0.0000E+00  0.0000E+00  0.0000E+00  0.0000E+00
    -38.557  0.0000E+00  0.0000E+00  0.0000E+00  0.0000E+00  0.0000E+00  0.0000E+00  0.0000E+00  0.0000E+00  0.0000E+00  0.0000E+00  0.0000E+00  0.0000E+00  0.0000E+00  0.0000E+00  0.0000E+00  0.0000E+00  0.0000E+00  0.0000E+00
    -38.331  0.0000E+00  0.2771E-11  0.0000E+00  0.3136E-03  0.0000E+00  0.3136E-03  0.0000E+00  0.3131E-03  0.0000E+00  0.6441E-13  0.0000E+00  0.6449E-13  0.0000E+00  0.1955E-11  0.0000E+00  0.6441E-13  0.0000E+00  0.1959E-11
    -38.105  0.0000E+00  0.2490E-09  0.0000E+00  0.2817E-01  0.0000E+00  0.2817E-01  0.0000E+00  0.2812E-01  0.0000E+00  0.5786E-11  0.0000E+00  0.5793E-11  0.0000E+00  0.1756E-09  0.0000E+00  0.5786E-11  0.0000E+00  0.1760E-09
    -37.879  0.0000E+00  0.1427E-07  0.0000E+00  0.1614E+01  0.0000E+00  0.1614E+01  0.0000E+00  0.1613E+01  0.0000E+00  0.3317E-09  0.0000E+00  0.3320E-09  0.0000E+00  0.1007E-07  0.0000E+00  0.3317E-09  0.0000E+00  0.1009E-07
    -37.654  0.0000E+00  0.2370E-07  0.0000E+00  0.2682E+01  0.0000E+00  0.2682E+01  0.0000E+00  0.2683E+01  0.0000E+00  0.5515E-09  0.0000E+00  0.5515E-09  0.0000E+00  0.1676E-07  0.0000E+00  0.5515E-09  0.0000E+00  0.1676E-07
    -37.428  0.0000E+00  0.0000E+00  0.0000E+00  0.0000E+00  0.0000E+00  0.0000E+00  0.0000E+00  0.0000E+00  0.0000E+00  0.0000E+00  0.0000E+00  0.0000E+00  0.0000E+00  0.0000E+00  0.0000E+00  0.0000E+00  0.0000E+00  0.0000E+00
    -37.202  0.0000E+00  0.0000E+00  0.0000E+00  0.0000E+00  0.0000E+00  0.0000E+00  0.0000E+00  0.0000E+00  0.0000E+00  0.0000E+00  0.0000E+00  0.0000E+00  0.0000E+00  0.0000E+00  0.0000E+00  0.0000E+00  0.0000E+00  0.0000E+00
    -36.976  0.0000E+00  0.0000E+00  0.0000E+00  0.0000E+00  0.0000E+00  0.0000E+00  0.0000E+00  0.0000E+00  0.0000E+00  0.0000E+00  0.0000E+00  0.0000E+00  0.0000E+00  0.0000E+00  0.0000E+00  0.0000E+00  0.0000E+00  0.0000E+00
    -36.751  0.0000E+00  0.0000E+00  0.0000E+00  0.0000E+00  0.0000E+00  0.0000E+00  0.0000E+00  0.0000E+00  0.0000E+00  0.0000E+00  0.0000E+00  0.0000E+00  0.0000E+00  0.0000E+00  0.0000E+00  0.0000E+00  0.0000E+00  0.0000E+00
    -36.525  0.0000E+00  0.0000E+00  0.0000E+00  0.0000E+00  0.0000E+00  0.0000E+00  0.0000E+00  0.0000E+00  0.0000E+00  0.0000E+00  0.0000E+00  0.0000E+00  0.0000E+00  0.0000E+00  0.0000E+00  0.0000E+00  0.0000E+00  0.0000E+00
    -36.299  0.0000E+00  0.0000E+00  0.0000E+00  0.0000E+00  0.0000E+00  0.0000E+00  0.0000E+00  0.0000E+00  0.0000E+00  0.0000E+00  0.0000E+00  0.0000E+00  0.0000E+00  0.0000E+00  0.0000E+00  0.0000E+00  0.0000E+00  0.0000E+00
    -36.073  0.0000E+00  0.0000E+00  0.0000E+00  0.0000E+00  0.0000E+00  0.0000E+00  0.0000E+00  0.0000E+00  0.0000E+00  0.0000E+00  0.0000E+00  0.0000E+00  0.0000E+00  0.0000E+00  0.0000E+00  0.0000E+00  0.0000E+00  0.0000E+00
    -35.847  0.0000E+00  0.0000E+00  0.0000E+00  0.0000E+00  0.0000E+00  0.0000E+00  0.0000E+00  0.0000E+00  0.0000E+00  0.0000E+00  0.0000E+00  0.0000E+00  0.0000E+00  0.0000E+00  0.0000E+00  0.0000E+00  0.0000E+00  0.0000E+00
    -35.622  0.0000E+00  0.0000E+00  0.0000E+00  0.0000E+00  0.0000E+00  0.0000E+00  0.0000E+00  0.0000E+00  0.0000E+00  0.0000E+00  0.0000E+00  0.0000E+00  0.0000E+00  0.0000E+00  0.0000E+00  0.0000E+00  0.0000E+00  0.0000E+00
    -35.396  0.0000E+00  0.0000E+00  0.0000E+00  0.0000E+00  0.0000E+00  0.0000E+00  0.0000E+00  0.0000E+00  0.0000E+00  0.0000E+00  0.0000E+00  0.0000E+00  0.0000E+00  0.0000E+00  0.0000E+00  0.0000E+00  0.0000E+00  0.0000E+00
    -35.170  0.0000E+00  0.0000E+00  0.0000E+00  0.0000E+00  0.0000E+00  0.0000E+00  0.0000E+00  0.0000E+00  0.0000E+00  0.0000E+00  0.0000E+00  0.0000E+00  0.0000E+00  0.0000E+00  0.0000E+00  0.0000E+00  0.0000E+00  0.0000E+00
    -34.944  0.0000E+00  0.0000E+00  0.0000E+00  0.0000E+00  0.0000E+00  0.0000E+00  0.0000E+00  0.0000E+00  0.0000E+00  0.0000E+00  0.0000E+00  0.0000E+00  0.0000E+00  0.0000E+00  0.0000E+00  0.0000E+00  0.0000E+00  0.0000E+00
    -34.719  0.0000E+00  0.0000E+00  0.0000E+00  0.0000E+00  0.0000E+00  0.0000E+00  0.0000E+00  0.0000E+00  0.0000E+00  0.0000E+00  0.0000E+00  0.0000E+00  0.0000E+00  0.0000E+00  0.0000E+00  0.0000E+00  0.0000E+00  0.0000E+00
    -34.493  0.0000E+00  0.0000E+00  0.0000E+00  0.0000E+00  0.0000E+00  0.0000E+00  0.0000E+00  0.0000E+00  0.0000E+00  0.0000E+00  0.0000E+00  0.0000E+00  0.0000E+00  0.0000E+00  0.0000E+00  0.0000E+00  0.0000E+00  0.0000E+00
    -34.267  0.0000E+00  0.0000E+00  0.0000E+00  0.0000E+00  0.0000E+00  0.0000E+00  0.0000E+00  0.0000E+00  0.0000E+00  0.0000E+00  0.0000E+00  0.0000E+00  0.0000E+00  0.0000E+00  0.0000E+00  0.0000E+00  0.0000E+00  0.0000E+00
    -34.041  0.0000E+00  0.0000E+00  0.0000E+00  0.0000E+00  0.0000E+00  0.0000E+00  0.0000E+00  0.0000E+00  0.0000E+00  0.0000E+00  0.0000E+00  0.0000E+00  0.0000E+00  0.0000E+00  0.0000E+00  0.0000E+00  0.0000E+00  0.0000E+00
    -33.816  0.0000E+00  0.0000E+00  0.0000E+00  0.0000E+00  0.0000E+00  0.0000E+00  0.0000E+00  0.0000E+00  0.0000E+00  0.0000E+00  0.0000E+00  0.0000E+00  0.0000E+00  0.0000E+00  0.0000E+00  0.0000E+00  0.0000E+00  0.0000E+00
    -33.590  0.0000E+00  0.0000E+00  0.0000E+00  0.0000E+00  0.0000E+00  0.0000E+00  0.0000E+00  0.0000E+00  0.0000E+00  0.0000E+00  0.0000E+00  0.0000E+00  0.0000E+00  0.0000E+00  0.0000E+00  0.0000E+00  0.0000E+00  0.0000E+00
    -33.364  0.0000E+00  0.0000E+00  0.0000E+00  0.0000E+00  0.0000E+00  0.0000E+00  0.0000E+00  0.0000E+00  0.0000E+00  0.0000E+00  0.0000E+00  0.0000E+00  0.0000E+00  0.0000E+00  0.0000E+00  0.0000E+00  0.0000E+00  0.0000E+00
    -33.138  0.0000E+00  0.0000E+00  0.0000E+00  0.0000E+00  0.0000E+00  0.0000E+00  0.0000E+00  0.0000E+00  0.0000E+00  0.0000E+00  0.0000E+00  0.0000E+00  0.0000E+00  0.0000E+00  0.0000E+00  0.0000E+00  0.0000E+00  0.0000E+00
    -32.912  0.0000E+00  0.0000E+00  0.0000E+00  0.0000E+00  0.0000E+00  0.0000E+00  0.0000E+00  0.0000E+00  0.0000E+00  0.0000E+00  0.0000E+00  0.0000E+00  0.0000E+00  0.0000E+00  0.0000E+00  0.0000E+00  0.0000E+00  0.0000E+00
    -32.687  0.0000E+00  0.0000E+00  0.0000E+00  0.0000E+00  0.0000E+00  0.0000E+00  0.0000E+00  0.0000E+00  0.0000E+00  0.0000E+00  0.0000E+00  0.0000E+00  0.0000E+00  0.0000E+00  0.0000E+00  0.0000E+00  0.0000E+00  0.0000E+00
    -32.461  0.0000E+00  0.0000E+00  0.0000E+00  0.0000E+00  0.0000E+00  0.0000E+00  0.0000E+00  0.0000E+00  0.0000E+00  0.0000E+00  0.0000E+00  0.0000E+00  0.0000E+00  0.0000E+00  0.0000E+00  0.0000E+00  0.0000E+00  0.0000E+00
    -32.235  0.0000E+00  0.0000E+00  0.0000E+00  0.0000E+00  0.0000E+00  0.0000E+00  0.0000E+00  0.0000E+00  0.0000E+00  0.0000E+00  0.0000E+00  0.0000E+00  0.0000E+00  0.0000E+00  0.0000E+00  0.0000E+00  0.0000E+00  0.0000E+00
    -32.009  0.0000E+00  0.0000E+00  0.0000E+00  0.0000E+00  0.0000E+00  0.0000E+00  0.0000E+00  0.0000E+00  0.0000E+00  0.0000E+00  0.0000E+00  0.0000E+00  0.0000E+00  0.0000E+00  0.0000E+00  0.0000E+00  0.0000E+00  0.0000E+00