   4   4   1   0
  0.1849722E+02  0.4197422E-09  0.4198478E-09  0.4198478E-09  0.5000000E-15
  1.000000000000000E-004
  CAR 
 unknown system                          
     19.88789847    -46.30837272  301      6.60174445      1.00000000
    -46.308  0.0000E+00  0.0000E+00  0.0000E+00  0.0000E+00
    -46.088  0.0000E+00  0.0000E+00  0.0000E+00  0.0000E+00
    -45.867  0.0000E+00  0.0000E+00  0.0000E+00  0.0000E+00
    -45.646  0.0000E+00  0.0000E+00  0.0000E+00  0.0000E+00
    -45.426  0.0000E+00  0.0000E+00  0.0000E+00  0.0000E+00
    -45.205  0.0000E+00  0.0000E+00  0.0000E+00  0.0000E+00
    -44.984  0.0000E+00  0.0000E+00  0.0000E+00  0.0000E+00
    -44.764  0.0000E+00  0.0000E+00  0.0000E+00  0.0000E+00
    -44.543  0.0000E+00  0.0000E+00  0.0000E+00  0.0000E+00
    -44.322  0.0000E+00  0.0000E+00  0.0000E+00  0.0000E+00
    -44.102  0.0000E+00  0.0000E+00  0.0000E+00  0.0000E+00
    -43.881  0.1193E-03  0.0000E+00  0.2633E-04  0.0000E+00
    -43.661  0.9722E-02  0.0000E+00  0.2172E-02  0.0000E+00
    -43.440  0.7571E+00  0.0000E+00  0.1692E+00  0.0000E+00
    -43.219  0.1054E+02  0.0000E+00  0.2494E+01  0.0000E+00
    -42.999  0.2258E+01  0.0000E+00  0.2993E+01  0.0000E+00
    -42.778  0.0000E+00  0.0000E+00  0.3000E+01  0.0000E+00
    -42.557  0.0000E+00  0.0000E+00  0.3000E+01  0.0000E+00
    -42.337  0.0000E+00  0.0000E+00  0.3000E+01  0.0000E+00
    -42.116  0.0000E+00  0.0000E+00  0.3000E+01  0.0000E+00
    -41.895  0.0000E+00  0.0000E+00  0.3000E+01  0.0000E+00
    -41.675  0.0000E+00  0.0000E+00  0.3000E+01  0.0000E+00
    -41.454  0.0000E+00  0.0000E+00  0.3000E+01  0.0000E+00
    -41.233  0.0000E+00  0.0000E+00  0.3000E+01  0.0000E+00
    -41.013  0.0000E+00  0.0000E+00  0.3000E+01  0.0000E+00
    -40.792  0.0000E+00  0.0000E+00  0.3000E+01  0.0000E+00
    -40.571  0.0000E+00  0.0000E+00  0.3000E+01  0.0000E+00
    -40.351  0.0000E+00  0.0000E+00  0.3000E+01  0.0000E+00
    -40.130  0.0000E+00  0.3111E-03  0.3000E+01  0.6865E-04
    -39.909  0.0000E+00  0.2532E-01  0.3000E+01  0.5655E-02
    -39.689  0.0000E+00  0.1808E+01  0.3000E+01  0.4045E+00
    -39.468  0.0000E+00  0.1078E+02  0.3000E+01  0.2784E+01
    -39.247  0.0000E+00  0.9681E+00  0.3000E+01  0.2997E+01
    -39.027  0.0000E+00  0.0000E+00  0.3000E+01  0.3000E+01
    -38.806  0.0000E+00  0.0000E+00  0.3000E+01  0.3000E+01
    -38.585  0.0000E+00  0.0000E+00  0.3000E+01  0.3000E+01
    -38.365  0.0000E+00  0.0000E+00  0.3000E+01  0.3000E+01
    -38.144  0.0000E+00  0.0000E+00  0.3000E+01  0.3000E+01
    -37.924  0.0000E+00  0.0000E+00  0.3000E+01  0.3000E+01
    -37.703  0.0000E+00  0.0000E+00  0.3000E+01  0.3000E+01
    -37.482  0.0000E+00  0.0000E+00  0.3000E+01  0.3000E+01
    -37.262  0.0000E+00  0.0000E+00  0.3000E+01  0.3000E+01
    -37.041  0.0000E+00  0.0000E+00  0.3000E+01  0.3000E+01
    -36.820  0.0000E+00  0.0000E+00  0.3000E+01  0.3000E+01
    -36.600  0.0000E+00  0.0000E+00  0.3000E+01  0.3000E+01
    -36.379  0.0000E+00  0.0000E+00  0.3000E+01  0.3000E+01
    -36.158  0.0000E+00  0.0000E+00  0.3000E+01  0.3000E+01
    -35.938  0.0000E+00  0.0000E+00  0.3000E+01  0.3000E+01
    -35.717  0.0000E+00  0.0000E+00  0.3000E+01  0.3000E+01
    -35.496  0.0000E+00  0.0000E+00  0.3000E+01  0.3000E+01
    -35.276  0.0000E+00  0.0000E+00  0.3000E+01  0.3000E+01
    -35.055  0.0000E+00  0.0000E+00  0.3000E+01  0.3000E+01
    -34.834  0.0000E+00  0.0000E+00  0.3000E+01  0.3000E+01
    -34.614  0.0000E+00  0.0000E+00  0.3000E+01  0.3000E+01
    -34.393  0.0000E+00  0.0000E+00  0.3000E+01  0.3000E+01
    -34.172  0.0000E+00  0.0000E+00  0.3000E+01  0.3000E+01
    -33.952  0.0000E+00  0.0000E+00  0.3000E+01  0.3000E+01
    -33.731  0.0000E+00  0.0000E+00  0.3000E+01  0.3000E+01
    -33.510  0.0000E+00  0.0000E+00  0.3000E+01  0.3000E+01
    -33.290  0.0000E+00  0.0000E+00  0.3000E+01  0.3000E+01
    -33.069  0.0000E+00  0.0000E+00  0.3000E+01  0.3000E+01
    -32.848  0.0000E+00  0.0000E+00  0.3000E+01  0.3000E+01
    -32.628  0.0000E+00  0.0000E+00  0.3000E+01  0.3000E+01
    -32.407  0.0000E+00  0.0000E+00  0.3000E+01  0.3000E+01
    -32.187  0.0000E+00  0.0000E+00  0.3000E+01  0.3000E+01
    -31.966  0.0000E+00  0.0000E+00  0.3000E+01  0.3000E+01
    -31.745  0.0000E+00  0.0000E+00  0.3000E+01  0.3000E+01
    -31.525  0.0000E+00  0.0000E+00  0.3000E+01  0.3000E+01
    -31.304  0.0000E+00  0.0000E+00  0.3000E+01  0.3000E+01
    -31.083  0.0000E+00  0.0000E+00  0.3000E+01  0.3000E+01
    -30.863  0.0000E+00  0.0000E+00  0.3000E+01  0.3000E+01
    -30.642  0.0000E+00  0.0000E+00  0.3000E+01  0.3000E+01
    -30.421  0.0000E+00  0.0000E+00  0.3000E+01  0.3000E+01
    -30.201  0.0000E+00  0.0000E+00  0.3000E+01  0.3000E+01
    -29.980  0.0000E+00  0.0000E+00  0.3000E+01  0.3000E+01
    -29.759  0.0000E+00  0.0000E+00  0.3000E+01  0.3000E+01
    -29.539  0.0000E+00  0.0000E+00  0.3000E+01  0.3000E+01
    -29.318  0.0000E+00  0.0000E+00  0.3000E+01  0.3000E+01
    -29.097  0.0000E+00  0.0000E+00  0.3000E+01  0.3000E+01
    -28.877  0.0000E+00  0.0000E+00  0.3000E+01  0.3000E+01
    -28.656  0.0000E+00  0.0000E+00  0.3000E+01  0.3000E+01
    -28.435  0.0000E+00  0.0000E+00  0.3000E+01  0.3000E+01
    -28.215  0.0000E+00  0.0000E+00  0.3000E+01  0.3000E+01
    -27.994  0.0000E+00  0.0000E+00  0.3000E+01  0.3000E+01
    -27.773  0.0000E+00  0.0000E+00  0.3000E+01  0.3000E+01
    -27.553  0.0000E+00  0.0000E+00  0.3000E+01  0.3000E+01
    -27.332  0.0000E+00  0.0000E+00  0.3000E+01  0.3000E+01
    -27.111  0.0000E+00  0.0000E+00  0.3000E+01  0.3000E+01
    -26.891  0.0000E+00  0.0000E+00  0.3000E+01  0.3000E+01
    -26.670  0.0000E+00  0.0000E+00  0.3000E+01  0.3000E+01
    -26.449  0.0000E+00  0.0000E+00  0.3000E+01  0.3000E+01
    -26.229  0.0000E+00  0.0000E+00  0.3000E+01  0.3000E+01
    -26.008  0.0000E+00  0.0000E+00  0.3000E+01  0.3000E+01
    -25.788  0.0000E+00  0.0000E+00  0.3000E+01  0.3000E+01
    -25.567  0.0000E+00  0.0000E+00  0.3000E+01  0.3000E+01
    -25.346  0.0000E+00  0.0000E+00  0.3000E+01  0.3000E+01
    -25.126  0.0000E+00  0.0000E+00  0.3000E+01  0.3000E+01
    -24.905  0.0000E+00  0.0000E+00  0.3000E+01  0.3000E+01
    -24.684  0.0000E+00  0.0000E+00  0.3000E+01  0.3000E+01
    -24.464  0.0000E+00  0.0000E+00  0.3000E+01  0.3000E+01
    -24.243  0.0000E+00  0.0000E+00  0.3000E+01  0.3000E+01
    -24.022  0.0000E+00  0.0000E+00  0.3000E+01  0.3000E+01
    -23.802  0.0000E+00  0.0000E+00  0.3000E+01  0.3000E+01
    -23.581  0.0000E+00  0.0000E+00  0.3000E+01  0.3000E+01
    -23.360  0.0000E+00  0.0000E+00  0.3000E+01  0.3000E+01
    -23.140  0.0000E+00  0.0000E+00  0.3000E+01  0.3000E+01
    -22.919  0.0000E+00  0.0000E+00  0.3000E+01  0.3000E+01
    -22.698  0.0000E+00  0.0000E+00  0.3000E+01  0.3000E+01
    -22.478  0.0000E+00  0.0000E+00  0.3000E+01  0.3000E+01
    -22.257  0.0000E+00  0.0000E+00  0.3000E+01  0.3000E+01
    -22.036  0.0000E+00  0.0000E+00  0.3000E+01  0.3000E+01
    -21.816  0.0000E+00  0.0000E+00  0.3000E+01  0.3000E+01
    -21.595  0.0000E+00  0.0000E+00  0.3000E+01  0.3000E+01
    -21.374  0.0000E+00  0.0000E+00  0.3000E+01  0.3000E+01
    -21.154  0.0000E+00  0.0000E+00  0.3000E+01  0.3000E+01
    -20.933  0.0000E+00  0.0000E+00  0.3000E+01  0.3000E+01
    -20.712  0.0000E+00  0.0000E+00  0.3000E+01  0.3000E+01
    -20.492  0.0000E+00  0.0000E+00  0.3000E+01  0.3000E+01
    -20.271  0.0000E+00  0.0000E+00  0.3000E+01  0.3000E+01
    -20.051  0.0000E+00  0.0000E+00  0.3000E+01  0.3000E+01
    -19.830  0.0000E+00  0.0000E+00  0.3000E+01  0.3000E+01
    -19.609  0.0000E+00  0.0000E+00  0.3000E+01  0.3000E+01
    -19.389  0.0000E+00  0.0000E+00  0.3000E+01  0.3000E+01
    -19.168  0.0000E+00  0.0000E+00  0.3000E+01  0.3000E+01
    -18.947  0.0000E+00  0.0000E+00  0.3000E+01  0.3000E+01
    -18.727  0.0000E+00  0.0000E+00  0.3000E+01  0.3000E+01
    -18.506  0.0000E+00  0.0000E+00  0.3000E+01  0.3000E+01
    -18.285  0.0000E+00  0.0000E+00  0.3000E+01  0.3000E+01
    -18.065  0.0000E+00  0.0000E+00  0.3000E+01  0.3000E+01
    -17.844  0.0000E+00  0.0000E+00  0.3000E+01  0.3000E+01
    -17.623  0.0000E+00  0.0000E+00  0.3000E+01  0.3000E+01
    -17.403  0.0000E+00  0.0000E+00  0.3000E+01  0.3000E+01
    -17.182  0.0000E+00  0.0000E+00  0.3000E+01  0.3000E+01
    -16.961  0.0000E+00  0.0000E+00  0.3000E+01  0.3000E+01
    -16.741  0.0000E+00  0.0000E+00  0.3000E+01  0.3000E+01
    -16.520  0.0000E+00  0.0000E+00  0.3000E+01  0.3000E+01
    -16.299  0.0000E+00  0.0000E+00  0.3000E+01  0.3000E+01
    -16.079  0.0000E+00  0.0000E+00  0.3000E+01  0.3000E+01
    -15.858  0.0000E+00  0.0000E+00  0.3000E+01  0.3000E+01
    -15.637  0.0000E+00  0.0000E+00  0.3000E+01  0.3000E+01
    -15.417  0.0000E+00  0.0000E+00  0.3000E+01  0.3000E+01
    -15.196  0.0000E+00  0.0000E+00  0.3000E+01  0.3000E+01
    -14.975  0.0000E+00  0.0000E+00  0.3000E+01  0.3000E+01
    -14.755  0.0000E+00  0.0000E+00  0.3000E+01  0.3000E+01
    -14.534  0.0000E+00  0.0000E+00  0.3000E+01  0.3000E+01
    -14.314  0.0000E+00  0.0000E+00  0.3000E+01  0.3000E+01
    -14.093  0.0000E+00  0.0000E+00  0.3000E+01  0.3000E+01
    -13.872  0.0000E+00  0.0000E+00  0.3000E+01  0.3000E+01
    -13.652  0.0000E+00  0.0000E+00  0.3000E+01  0.3000E+01
    -13.431  0.0000E+00  0.0000E+00  0.3000E+01  0.3000E+01
    -13.210  0.0000E+00  0.0000E+00  0.3000E+01  0.3000E+01
    -12.990  0.0000E+00  0.0000E+00  0.3000E+01  0.3000E+01
    -12.769  0.0000E+00  0.0000E+00  0.3000E+01  0.3000E+01
    -12.548  0.0000E+00  0.0000E+00  0.3000E+01  0.3000E+01
    -12.328  0.0000E+00  0.0000E+00  0.3000E+01  0.3000E+01
    -12.107  0.0000E+00  0.0000E+00  0.3000E+01  0.3000E+01
    -11.886  0.0000E+00  0.0000E+00  0.3000E+01  0.3000E+01
    -11.666  0.0000E+00  0.0000E+00  0.3000E+01  0.3000E+01
    -11.445  0.0000E+00  0.0000E+00  0.3000E+01  0.3000E+01
    -11.224  0.0000E+00  0.0000E+00  0.3000E+01  0.3000E+01
    -11.004  0.0000E+00  0.0000E+00  0.3000E+01  0.3000E+01
    -10.783  0.0000E+00  0.0000E+00  0.3000E+01  0.3000E+01
    -10.562  0.0000E+00  0.0000E+00  0.3000E+01  0.3000E+01
    -10.342  0.0000E+00  0.0000E+00  0.3000E+01  0.3000E+01
    -10.121  0.0000E+00  0.0000E+00  0.3000E+01  0.3000E+01
     -9.900  0.0000E+00  0.0000E+00  0.3000E+01  0.3000E+01
     -9.680  0.0000E+00  0.0000E+00  0.3000E+01  0.3000E+01
     -9.459  0.0000E+00  0.0000E+00  0.3000E+01  0.3000E+01
     -9.238  0.0000E+00  0.0000E+00  0.3000E+01  0.3000E+01
     -9.018  0.0000E+00  0.0000E+00  0.3000E+01  0.3000E+01
     -8.797  0.0000E+00  0.0000E+00  0.3000E+01  0.3000E+01
     -8.576  0.0000E+00  0.0000E+00  0.3000E+01  0.3000E+01
     -8.356  0.0000E+00  0.0000E+00  0.3000E+01  0.3000E+01
     -8.135  0.0000E+00  0.0000E+00  0.3000E+01  0.3000E+01
     -7.915  0.0000E+00  0.0000E+00  0.3000E+01  0.3000E+01
     -7.694  0.0000E+00  0.0000E+00  0.3000E+01  0.3000E+01
     -7.473  0.0000E+00  0.0000E+00  0.3000E+01  0.3000E+01
     -7.253  0.0000E+00  0.0000E+00  0.3000E+01  0.3000E+01
     -7.032  0.0000E+00  0.0000E+00  0.3000E+01  0.3000E+01
     -6.811  0.0000E+00  0.0000E+00  0.3000E+01  0.3000E+01
     -6.591  0.0000E+00  0.0000E+00  0.3000E+01  0.3000E+01
     -6.370  0.0000E+00  0.0000E+00  0.3000E+01  0.3000E+01
     -6.149  0.0000E+00  0.0000E+00  0.3000E+01  0.3000E+01
     -5.929  0.0000E+00  0.0000E+00  0.3000E+01  0.3000E+01
     -5.708  0.0000E+00  0.0000E+00  0.3000E+01  0.3000E+01
     -5.487  0.0000E+00  0.0000E+00  0.3000E+01  0.3000E+01
     -5.267  0.0000E+00  0.0000E+00  0.3000E+01  0.3000E+01
     -5.046  0.0000E+00  0.0000E+00  0.3000E+01  0.3000E+01
     -4.825  0.0000E+00  0.0000E+00  0.3000E+01  0.3000E+01
     -4.605  0.0000E+00  0.0000E+00  0.3000E+01  0.3000E+01
     -4.384  0.0000E+00  0.0000E+00  0.3000E+01  0.3000E+01
     -4.163  0.0000E+00  0.0000E+00  0.3000E+01  0.3000E+01
     -3.943  0.0000E+00  0.0000E+00  0.3000E+01  0.3000E+01
     -3.722  0.1269E-06  0.1559E-07  0.3000E+01  0.3000E+01
     -3.501  0.1787E-04  0.7179E-05  0.3000E+01  0.3000E+01
     -3.281  0.1421E-02  0.5835E-03  0.3000E+01  0.3000E+01
     -3.060  0.3787E-01  0.2385E-01  0.3009E+01  0.3005E+01
     -2.839  0.1200E+00  0.1073E+00  0.3035E+01  0.3029E+01
     -2.619  0.1747E+00  0.1651E+00  0.3074E+01  0.3066E+01
     -2.398  0.2058E+00  0.2054E+00  0.3119E+01  0.3111E+01
     -2.178  0.2656E+00  0.2546E+00  0.3178E+01  0.3168E+01
     -1.957  0.2584E+00  0.2590E+00  0.3235E+01  0.3225E+01
     -1.736  0.3459E+00  0.3438E+00  0.3312E+01  0.3301E+01
     -1.516  0.3321E+00  0.3301E+00  0.3386E+01  0.3374E+01
     -1.295  0.4076E+00  0.4244E+00  0.3476E+01  0.3469E+01
     -1.074  0.4311E+00  0.4212E+00  0.3572E+01  0.3563E+01
     -0.854  0.3367E+00  0.3444E+00  0.3647E+01  0.3639E+01
     -0.633  0.3947E+00  0.3737E+00  0.3735E+01  0.3722E+01
     -0.412  0.4045E+00  0.3286E+00  0.3824E+01  0.3795E+01
     -0.192  0.4515E+00  0.4681E+00  0.3925E+01  0.3898E+01
      0.029  0.4363E+00  0.3970E+00  0.4023E+01  0.3986E+01
      0.250  0.5165E+00  0.4652E+00  0.4137E+01  0.4089E+01
      0.470  0.4799E+00  0.5275E+00  0.4244E+01  0.4207E+01
      0.691  0.4937E+00  0.4721E+00  0.4353E+01  0.4312E+01
      0.912  0.5888E+00  0.5423E+00  0.4484E+01  0.4432E+01
      1.132  0.7026E+00  0.6714E+00  0.4639E+01  0.4580E+01
      1.353  0.6481E+00  0.6408E+00  0.4783E+01  0.4723E+01
      1.574  0.7115E+00  0.5645E+00  0.4942E+01  0.4848E+01
      1.794  0.7712E+00  0.5938E+00  0.5113E+01  0.4980E+01
      2.015  0.7701E+00  0.6803E+00  0.5283E+01  0.5131E+01
      2.236  0.7150E+00  0.5791E+00  0.5442E+01  0.5260E+01
      2.456  0.6926E+00  0.6201E+00  0.5596E+01  0.5397E+01
      2.677  0.8661E+00  0.5599E+00  0.5788E+01  0.5521E+01
      2.898  0.1010E+01  0.6028E+00  0.6012E+01  0.5655E+01
      3.118  0.1237E+01  0.7259E+00  0.6286E+01  0.5816E+01
      3.339  0.1549E+01  0.7287E+00  0.6630E+01  0.5978E+01
      3.559  0.3171E+01  0.7662E+00  0.7332E+01  0.6148E+01
      3.780  0.3838E+01  0.8020E+00  0.8182E+01  0.6326E+01
      4.001  0.2633E+01  0.9609E+00  0.8769E+01  0.6540E+01
      4.221  0.2176E+01  0.8330E+00  0.9254E+01  0.6725E+01
      4.442  0.4042E+01  0.1011E+01  0.1015E+02  0.6949E+01
      4.663  0.2457E+01  0.9809E+00  0.1069E+02  0.7167E+01
      4.883  0.1532E+01  0.1146E+01  0.1104E+02  0.7421E+01
      5.104  0.1166E+01  0.1185E+01  0.1130E+02  0.7685E+01
      5.325  0.8368E+00  0.1306E+01  0.1148E+02  0.7975E+01
      5.545  0.9909E+00  0.1103E+01  0.1170E+02  0.8220E+01
      5.766  0.1041E+01  0.1032E+01  0.1193E+02  0.8450E+01
      5.987  0.1201E+01  0.8037E+00  0.1220E+02  0.8629E+01
      6.207  0.1063E+01  0.9359E+00  0.1244E+02  0.8837E+01
      6.428  0.7943E+00  0.1005E+01  0.1261E+02  0.9060E+01
      6.649  0.8991E+00  0.9773E+00  0.1281E+02  0.9277E+01
      6.869  0.8920E+00  0.1358E+01  0.1301E+02  0.9578E+01
      7.090  0.7575E+00  0.1917E+01  0.1318E+02  0.1000E+02
      7.311  0.9446E+00  0.2367E+01  0.1339E+02  0.1053E+02
      7.531  0.1106E+01  0.3266E+01  0.1363E+02  0.1125E+02
      7.752  0.1232E+01  0.3386E+01  0.1391E+02  0.1200E+02
      7.973  0.8222E+00  0.2101E+01  0.1409E+02  0.1247E+02
      8.193  0.6999E+00  0.1872E+01  0.1424E+02  0.1289E+02
      8.414  0.8816E+00  0.2227E+01  0.1444E+02  0.1338E+02
      8.635  0.1067E+01  0.1747E+01  0.1468E+02  0.1377E+02
      8.855  0.9992E+00  0.1389E+01  0.1490E+02  0.1408E+02
      9.076  0.7871E+00  0.1376E+01  0.1507E+02  0.1438E+02
      9.296  0.9035E+00  0.1477E+01  0.1527E+02  0.1471E+02
      9.517  0.9688E+00  0.1001E+01  0.1549E+02  0.1493E+02
      9.738  0.9617E+00  0.9650E+00  0.1570E+02  0.1515E+02
      9.958  0.9990E+00  0.1131E+01  0.1592E+02  0.1540E+02
     10.179  0.1268E+01  0.1283E+01  0.1621E+02  0.1568E+02
     10.400  0.8818E+00  0.8627E+00  0.1640E+02  0.1588E+02
     10.620  0.9947E+00  0.1051E+01  0.1662E+02  0.1611E+02
     10.841  0.1049E+01  0.1297E+01  0.1685E+02  0.1640E+02
     11.062  0.1027E+01  0.1488E+01  0.1708E+02  0.1673E+02
     11.282  0.1032E+01  0.1061E+01  0.1731E+02  0.1696E+02
     11.503  0.1158E+01  0.1188E+01  0.1757E+02  0.1723E+02
     11.724  0.1183E+01  0.1126E+01  0.1783E+02  0.1748E+02
     11.944  0.1056E+01  0.1199E+01  0.1806E+02  0.1774E+02
     12.165  0.1112E+01  0.1325E+01  0.1831E+02  0.1804E+02
     12.386  0.1149E+01  0.1258E+01  0.1857E+02  0.1832E+02
     12.606  0.1055E+01  0.9552E+00  0.1880E+02  0.1853E+02
     12.827  0.9239E+00  0.1019E+01  0.1901E+02  0.1875E+02
     13.048  0.7796E+00  0.1011E+01  0.1918E+02  0.1898E+02
     13.268  0.7744E+00  0.1003E+01  0.1935E+02  0.1920E+02
     13.489  0.5676E+00  0.7513E+00  0.1948E+02  0.1937E+02
     13.710  0.1860E+00  0.3735E+00  0.1952E+02  0.1945E+02
     13.930  0.2822E+00  0.5456E+00  0.1958E+02  0.1957E+02
     14.151  0.3991E+00  0.3297E+00  0.1967E+02  0.1965E+02
     14.372  0.3161E+00  0.3297E+00  0.1974E+02  0.1972E+02
     14.592  0.2956E+00  0.3021E+00  0.1981E+02  0.1979E+02
     14.813  0.1318E+00  0.1509E+00  0.1983E+02  0.1982E+02
     15.034  0.6404E-01  0.8791E-01  0.1985E+02  0.1984E+02
     15.254  0.2315E+00  0.2779E+00  0.1990E+02  0.1990E+02
     15.475  0.1155E+00  0.1196E+00  0.1993E+02  0.1993E+02
     15.695  0.6688E-01  0.8383E-01  0.1994E+02  0.1995E+02
     15.916  0.6911E-01  0.5566E-01  0.1996E+02  0.1996E+02
     16.137  0.1055E+00  0.9984E-01  0.1998E+02  0.1998E+02
     16.357  0.4372E-01  0.5017E-01  0.1999E+02  0.1999E+02
     16.578  0.2878E-01  0.1164E-01  0.2000E+02  0.2000E+02
     16.799  0.5978E-02  0.7906E-02  0.2000E+02  0.2000E+02
     17.019  0.1280E-01  0.8201E-02  0.2000E+02  0.2000E+02
     17.240  0.9265E-03  0.0000E+00  0.2000E+02  0.2000E+02
     17.461  0.0000E+00  0.0000E+00  0.2000E+02  0.2000E+02
     17.681  0.0000E+00  0.0000E+00  0.2000E+02  0.2000E+02
     17.902  0.0000E+00  0.0000E+00  0.2000E+02  0.2000E+02
     18.123  0.0000E+00  0.0000E+00  0.2000E+02  0.2000E+02
     18.343  0.0000E+00  0.0000E+00  0.2000E+02  0.2000E+02
     18.564  0.0000E+00  0.0000E+00  0.2000E+02  0.2000E+02
     18.785  0.0000E+00  0.0000E+00  0.2000E+02  0.2000E+02
     19.005  0.0000E+00  0.0000E+00  0.2000E+02  0.2000E+02
     19.226  0.0000E+00  0.0000E+00  0.2000E+02  0.2000E+02
     19.447  0.0000E+00  0.0000E+00  0.2000E+02  0.2000E+02
     19.667  0.0000E+00  0.0000E+00  0.2000E+02  0.2000E+02
     19.888  0.0000E+00  0.0000E+00  0.2000E+02  0.2000E+02
     19.88789847    -46.30837272  301      6.60174445      1.00000000
    -46.308  0.0000E+00  0.0000E+00  0.0000E+00  0.0000E+00  0.0000E+00  0.0000E+00  0.0000E+00  0.0000E+00  0.0000E+00  0.0000E+00  0.0000E+00  0.0000E+00  0.0000E+00  0.0000E+00  0.0000E+00  0.0000E+00  0.0000E+00  0.0000E+00
    -46.088  0.0000E+00  0.0000E+00  0.0000E+00  0.0000E+00  0.0000E+00  0.0000E+00  0.0000E+00  0.0000E+00  0.0000E+00  0.0000E+00  0.0000E+00  0.0000E+00  0.0000E+00  0.0000E+00  0.0000E+00  0.0000E+00  0.0000E+00  0.0000E+00
    -45.867  0.0000E+00  0.0000E+00  0.0000E+00  0.0000E+00  0.0000E+00  0.0000E+00  0.0000E+00  0.0000E+00  0.0000E+00  0.0000E+00  0.0000E+00  0.0000E+00  0.0000E+00  0.0000E+00  0.0000E+00  0.0000E+00  0.0000E+00  0.0000E+00
    -45.646  0.0000E+00  0.0000E+00  0.0000E+00  0.0000E+00  0.0000E+00  0.0000E+00  0.0000E+00  0.0000E+00  0.0000E+00  0.0000E+00  0.0000E+00  0.0000E+00  0.0000E+00  0.0000E+00  0.0000E+00  0.0000E+00  0.0000E+00  0.0000E+00
    -45.426  0.0000E+00  0.0000E+00  0.0000E+00  0.0000E+00  0.0000E+00  0.0000E+00  0.0000E+00  0.0000E+00  0.0000E+00  0.0000E+00  0.0000E+00  0.0000E+00  0.0000E+00  0.0000E+00  0.0000E+00  0.0000E+00  0.0000E+00  0.0000E+00
    -45.205  0.0000E+00  0.0000E+00  0.0000E+00  0.0000E+00  0.0000E+00  0.0000E+00  0.0000E+00  0.0000E+00  0.0000E+00  0.0000E+00  0.0000E+00  0.0000E+00  0.0000E+00  0.0000E+00  0.0000E+00  0.0000E+00  0.0000E+00  0.0000E+00
    -44.984  0.0000E+00  0.0000E+00  0.0000E+00  0.0000E+00  0.0000E+00  0.0000E+00  0.0000E+00  0.0000E+00  0.0000E+00  0.0000E+00  0.0000E+00  0.0000E+00  0.0000E+00  0.0000E+00  0.0000E+00  0.0000E+00  0.0000E+00  0.0000E+00
    -44.764  0.0000E+00  0.0000E+00  0.0000E+00  0.0000E+00  0.0000E+00  0.0000E+00  0.0000E+00  0.0000E+00  0.0000E+00  0.0000E+00  0.0000E+00  0.0000E+00  0.0000E+00  0.0000E+00  0.0000E+00  0.0000E+00  0.0000E+00  0.0000E+00
    -44.543  0.0000E+00  0.0000E+00  0.0000E+00  0.0000E+00  0.0000E+00  0.0000E+00  0.0000E+00  0.0000E+00  0.0000E+00  0.0000E+00  0.0000E+00  0.0000E+00  0.0000E+00  0.0000E+00  0.0000E+00  0.0000E+00  0.0000E+00  0.0000E+00
    -44.322  0.0000E+00  0.0000E+00  0.0000E+00  0.0000E+00  0.0000E+00  0.0000E+00  0.0000E+00  0.0000E+00  0.0000E+00  0.0000E+00  0.0000E+00  0.0000E+00  0.0000E+00  0.0000E+00  0.0000E+00  0.0000E+00  0.0000E+00  0.0000E+00
    -44.102  0.0000E+00  0.0000E+00  0.0000E+00  0.0000E+00  0.0000E+00  0.0000E+00  0.0000E+00  0.0000E+00  0.0000E+00  0.0000E+00  0.0000E+00  0.0000E+00  0.0000E+00  0.0000E+00  0.0000E+00  0.0000E+00  0.0000E+00  0.0000E+00
    -43.881  0.2521E-13  0.0000E+00  0.3963E-04  0.0000E+00  0.3963E-04  0.0000E+00  0.3946E-04  0.0000E+00  0.4854E-15  0.0000E+00  0.4948E-15  0.0000E+00  0.1920E-13  0.0000E+00  0.4854E-15  0.0000E+00  0.1929E-13  0.0000E+00
    -43.661  0.2054E-11  0.0000E+00  0.3228E-02  0.0000E+00  0.3228E-02  0.0000E+00  0.3214E-02  0.0000E+00  0.3954E-13  0.0000E+00  0.4031E-13  0.0000E+00  0.1564E-11  0.0000E+00  0.3954E-13  0.0000E+00  0.1571E-11  0.0000E+00
    -43.440  0.1599E-09  0.0000E+00  0.2514E+00  0.0000E+00  0.2514E+00  0.0000E+00  0.2503E+00  0.0000E+00  0.3079E-11  0.0000E+00  0.3138E-11  0.0000E+00  0.1218E-09  0.0000E+00  0.3079E-11  0.0000E+00  0.1224E-09  0.0000E+00
    -43.219  0.2226E-08  0.0000E+00  0.3494E+01  0.0000E+00  0.3494E+01  0.0000E+00  0.3493E+01  0.0000E+00  0.4284E-10  0.0000E+00  0.4361E-10  0.0000E+00  0.1695E-08  0.0000E+00  0.4284E-10  0.0000E+00  0.1703E-08  0.0000E+00
    -42.999  0.4771E-09  0.0000E+00  0.7478E+00  0.0000E+00  0.7478E+00  0.0000E+00  0.7505E+00  0.0000E+00  0.9179E-11  0.0000E+00  0.9328E-11  0.0000E+00  0.3633E-09  0.0000E+00  0.9179E-11  0.0000E+00  0.3650E-09  0.0000E+00
    -42.778  0.0000E+00  0.0000E+00  0.0000E+00  0.0000E+00  0.0000E+00  0.0000E+00  0.0000E+00  0.0000E+00  0.0000E+00  0.0000E+00  0.0000E+00  0.0000E+00  0.0000E+00  0.0000E+00  0.0000E+00  0.0000E+00  0.0000E+00  0.0000E+00
    -42.557  0.0000E+00  0.0000E+00  0.0000E+00  0.0000E+00  0.0000E+00  0.0000E+00  0.0000E+00  0.0000E+00  0.0000E+00  0.0000E+00  0.0000E+00  0.0000E+00  0.0000E+00  0.0000E+00  0.0000E+00  0.0000E+00  0.0000E+00  0.0000E+00
    -42.337  0.0000E+00  0.0000E+00  0.0000E+00  0.0000E+00  0.0000E+00  0.0000E+00  0.0000E+00  0.0000E+00  0.0000E+00  0.0000E+00  0.0000E+00  0.0000E+00  0.0000E+00  0.0000E+00  0.0000E+00  0.0000E+00  0.0000E+00  0.0000E+00
    -42.116  0.0000E+00  0.0000E+00  0.0000E+00  0.0000E+00  0.0000E+00  0.0000E+00  0.0000E+00  0.0000E+00  0.0000E+00  0.0000E+00  0.0000E+00  0.0000E+00  0.0000E+00  0.0000E+00  0.0000E+00  0.0000E+00  0.0000E+00  0.0000E+00
    -41.895  0.0000E+00  0.0000E+00  0.0000E+00  0.0000E+00  0.0000E+00  0.0000E+00  0.0000E+00  0.0000E+00  0.0000E+00  0.0000E+00  0.0000E+00  0.0000E+00  0.0000E+00  0.0000E+00  0.0000E+00  0.0000E+00  0.0000E+00  0.0000E+00
    -41.675  0.0000E+00  0.0000E+00  0.0000E+00  0.0000E+00  0.0000E+00  0.0000E+00  0.0000E+00  0.0000E+00  0.0000E+00  0.0000E+00  0.0000E+00  0.0000E+00  0.0000E+00  0.0000E+00  0.0000E+00  0.0000E+00  0.0000E+00  0.0000E+00
    -41.454  0.0000E+00  0.0000E+00  0.0000E+00  0.0000E+00  0.0000E+00  0.0000E+00  0.0000E+00  0.0000E+00  0.0000E+00  0.0000E+00  0.0000E+00  0.0000E+00  0.0000E+00  0.0000E+00  0.0000E+00  0.0000E+00  0.0000E+00  0.0000E+00
    -41.233  0.0000E+00  0.0000E+00  0.0000E+00  0.0000E+00  0.0000E+00  0.0000E+00  0.0000E+00  0.0000E+00  0.0000E+00  0.0000E+00  0.0000E+00  0.0000E+00  0.0000E+00  0.0000E+00  0.0000E+00  0.0000E+00  0.0000E+00  0.0000E+00
    -41.013  0.0000E+00  0.0000E+00  0.0000E+00  0.0000E+00  0.0000E+00  0.0000E+00  0.0000E+00  0.0000E+00  0.0000E+00  0.0000E+00  0.0000E+00  0.0000E+00  0.0000E+00  0.0000E+00  0.0000E+00  0.0000E+00  0.0000E+00  0.0000E+00
    -40.792  0.0000E+00  0.0000E+00  0.0000E+00  0.0000E+00  0.0000E+00  0.0000E+00  0.0000E+00  0.0000E+00  0.0000E+00  0.0000E+00  0.0000E+00  0.0000E+00  0.0000E+00  0.0000E+00  0.0000E+00  0.0000E+00  0.0000E+00  0.0000E+00
    -40.571  0.0000E+00  0.0000E+00  0.0000E+00  0.0000E+00  0.0000E+00  0.0000E+00  0.0000E+00  0.0000E+00  0.0000E+00  0.0000E+00  0.0000E+00  0.0000E+00  0.0000E+00  0.0000E+00  0.0000E+00  0.0000E+00  0.0000E+00  0.0000E+00
    -40.351  0.0000E+00  0.0000E+00  0.0000E+00  0.0000E+00  0.0000E+00  0.0000E+00  0.0000E+00  0.0000E+00  0.0000E+00  0.0000E+00  0.0000E+00  0.0000E+00  0.0000E+00  0.0000E+00  0.0000E+00  0.0000E+00  0.0000E+00  0.0000E+00
    -40.130  0.0000E+00  0.1127E-12  0.0000E+00  0.1032E-03  0.0000E+00  0.1032E-03  0.0000E+00  0.1031E-03  0.0000E+00  0.2051E-14  0.0000E+00  0.2051E-14  0.0000E+00  0.1084E-12  0.0000E+00  0.2051E-14  0.0000E+00  0.1084E-12
    -39.909  0.0000E+00  0.9172E-11  0.0000E+00  0.8400E-02  0.0000E+00  0.8400E-02  0.0000E+00  0.8391E-02  0.0000E+00  0.1669E-12  0.0000E+00  0.1669E-12  0.0000E+00  0.8823E-11  0.0000E+00  0.1669E-12  0.0000E+00  0.8821E-11
    -39.689  0.0000E+00  0.6548E-09  0.0000E+00  0.5997E+00  0.0000E+00  0.5997E+00  0.0000E+00  0.5992E+00  0.0000E+00  0.1192E-10  0.0000E+00  0.1191E-10  0.0000E+00  0.6300E-09  0.0000E+00  0.1192E-10  0.0000E+00  0.6298E-09
    -39.468  0.0000E+00  0.3905E-08  0.0000E+00  0.3576E+01  0.0000E+00  0.3576E+01  0.0000E+00  0.3576E+01  0.0000E+00  0.7100E-10  0.0000E+00  0.7095E-10  0.0000E+00  0.3759E-08  0.0000E+00  0.7100E-10  0.0000E+00  0.3756E-08
    -39.247  0.0000E+00  0.3506E-09  0.0000E+00  0.3210E+00  0.0000E+00  0.3210E+00  0.0000E+00  0.3213E+00  0.0000E+00  0.6369E-11  0.0000E+00  0.6362E-11  0.0000E+00  0.3377E-09  0.0000E+00  0.6369E-11  0.0000E+00  0.3373E-09
    -39.027  0.0000E+00  0.0000E+00  0.0000E+00  0.0000E+00  0.0000E+00  0.0000E+00  0.0000E+00  0.0000E+00  0.0000E+00  0.0000E+00  0.0000E+00  0.0000E+00  0.0000E+00  0.0000E+00  0.0000E+00  0.0000E+00  0.0000E+00  0.0000E+00
    -38.806  0.0000E+00  0.0000E+00  0.0000E+00  0.0000E+00  0.0000E+00  0.0000E+00  0.0000E+00  0.0000E+00  0.0000E+00  0.0000E+00  0.0000E+00  0.0000E+00  0.0000E+00  0.0000E+00  0.0000E+00  0.0000E+00  0.0000E+00  0.0000E+00
    -38.585  0.0000E+00  0.0000E+00  0.0000E+00  0.0000E+00  0.0000E+00  0.0000E+00  0.0000E+00  0.0000E+00  0.0000E+00  0.0000E+00  0.0000E+00  0.0000E+00  0.0000E+00  0.0000E+00  0.0000E+00  0.0000E+00  0.0000E+00  0.0000E+00
    -38.365  0.0000E+00  0.0000E+00  0.0000E+00  0.0000E+00  0.0000E+00  0.0000E+00  0.0000E+00  0.0000E+00  0.0000E+00  0.0000E+00  0.0000E+00  0.0000E+00  0.0000E+00  0.0000E+00  0.0000E+00  0.0000E+00  0.0000E+00  0.0000E+00
    -38.144  0.0000E+00  0.0000E+00  0.0000E+00  0.0000E+00  0.0000E+00  0.0000E+00  0.0000E+00  0.0000E+00  0.0000E+00  0.0000E+00  0.0000E+00  0.0000E+00  0.0000E+00  0.0000E+00  0.0000E+00  0.0000E+00  0.0000E+00  0.0000E+00
    -37.924  0.0000E+00  0.0000E+00  0.0000E+00  0.0000E+00  0.0000E+00  0.0000E+00  0.0000E+00  0.0000E+00  0.0000E+00  0.0000E+00  0.0000E+00  0.0000E+00  0.0000E+00  0.0000E+00  0.0000E+00  0.0000E+00  0.0000E+00  0.0000E+00
    -37.703  0.0000E+00  0.0000E+00  0.0000E+00  0.0000E+00  0.0000E+00  0.0000E+00  0.0000E+00  0.0000E+00  0.0000E+00  0.0000E+00  0.0000E+00  0.0000E+00  0.0000E+00  0.0000E+00  0.0000E+00  0.0000E+00  0.0000E+00  0.0000E+00
    -37.482  0.0000E+00  0.0000E+00  0.0000E+00  0.0000E+00  0.0000E+00  0.0000E+00  0.0000E+00  0.0000E+00  0.0000E+00  0.0000E+00  0.0000E+00  0.0000E+00  0.0000E+00  0.0000E+00  0.0000E+00  0.0000E+00  0.0000E+00  0.0000E+00
    -37.262  0.0000E+00  0.0000E+00  0.0000E+00  0.0000E+00  0.0000E+00  0.0000E+00  0.0000E+00  0.0000E+00  0.0000E+00  0.0000E+00  0.0000E+00  0.0000E+00  0.0000E+00  0.0000E+00  0.0000E+00  0.0000E+00  0.0000E+00  0.0000E+00
    -37.041  0.0000E+00  0.0000E+00  0.0000E+00  0.0000E+00  0.0000E+00  0.0000E+00  0.0000E+00  0.0000E+00  0.0000E+00  0.0000E+00  0.0000E+00  0.0000E+00  0.0000E+00  0.0000E+00  0.0000E+00  0.0000E+00  0.0000E+00  0.0000E+00
    -36.820  0.0000E+00  0.0000E+00  0.0000E+00  0.0000E+00  0.0000E+00  0.0000E+00  0.0000E+00  0.0000E+00  0.0000E+00  0.0000E+00  0.0000E+00  0.0000E+00  0.0000E+00  0.0000E+00  0.0000E+00  0.0000E+00  0.0000E+00  0.0000E+00
    -36.600  0.0000E+00  0.0000E+00  0.0000E+00  0.0000E+00  0.0000E+00  0.0000E+00  0.0000E+00  0.0000E+00  0.0000E+00  0.0000E+00  0.0000E+00  0.0000E+00  0.0000E+00  0.0000E+00  0.0000E+00  0.0000E+00  0.0000E+00  0.0000E+00
    -36.379  0.0000E+00  0.0000E+00  0.0000E+00  0.0000E+00  0.0000E+00  0.0000E+00  0.0000E+00  0.0000E+00  0.0000E+00  0.0000E+00  0.0000E+00  0.0000E+00  0.0000E+00  0.0000E+00  0.0000E+00  0.0000E+00  0.0000E+00  0.0000E+00
    -36.158  0.0000E+00  0.0000E+00  0.0000E+00  0.0000E+00  0.0000E+00  0.0000E+00  0.0000E+00  0.0000E+00  0.0000E+00  0.0000E+00  0.0000E+00  0.0000E+00  0.0000E+00  0.0000E+00  0.0000E+00  0.0000E+00  0.0000E+00  0.0000E+00
    -35.938  0.0000E+00  0.0000E+00  0.0000E+00  0.0000E+00  0.0000E+00  0.0000E+00  0.0000E+00  0.0000E+00  0.0000E+00  0.0000E+00  0.0000E+00  0.0000E+00  0.0000E+00  0.0000E+00  0.0000E+00  0.0000E+00  0.0000E+00  0.0000E+00
    -35.717  0.0000E+00  0.0000E+00  0.0000E+00  0.0000E+00  0.0000E+00  0.0000E+00  0.0000E+00  0.0000E+00  0.0000E+00  0.0000E+00  0.0000E+00  0.0000E+00  0.0000E+00  0.0000E+00  0.0000E+00  0.0000E+00  0.0000E+00  0.0000E+00
    -35.496  0.0000E+00  0.0000E+00  0.0000E+00  0.0000E+00  0.0000E+00  0.0000E+00  0.0000E+00  0.0000E+00  0.0000E+00  0.0000E+00  0.0000E+00  0.0000E+00  0.0000E+00  0.0000E+00  0.0000E+00  0.0000E+00  0.0000E+00  0.0000E+00
    -35.276  0.0000E+00  0.0000E+00  0.0000E+00  0.0000E+00  0.0000E+00  0.0000E+00  0.0000E+00  0.0000E+00  0.0000E+00  0.0000E+00  0.0000E+00  0.0000E+00  0.0000E+00  0.0000E+00  0.0000E+00  0.0000E+00  0.0000E+00  0.0000E+00