   4   4   1   0
  0.1901100E+02  0.4235931E-09  0.4236996E-09  0.4236996E-09  0.5000000E-15
  1.000000000000000E-004
  CAR 
 unknown system                          
     19.37753529    -46.60099909  301      6.34509836      1.00000000
    -46.601  0.0000E+00  0.0000E+00  0.0000E+00  0.0000E+00
    -46.381  0.0000E+00  0.0000E+00  0.0000E+00  0.0000E+00
    -46.161  0.0000E+00  0.0000E+00  0.0000E+00  0.0000E+00
    -45.941  0.0000E+00  0.0000E+00  0.0000E+00  0.0000E+00
    -45.721  0.0000E+00  0.0000E+00  0.0000E+00  0.0000E+00
    -45.501  0.0000E+00  0.0000E+00  0.0000E+00  0.0000E+00
    -45.281  0.0000E+00  0.0000E+00  0.0000E+00  0.0000E+00
    -45.061  0.0000E+00  0.0000E+00  0.0000E+00  0.0000E+00
    -44.842  0.0000E+00  0.0000E+00  0.0000E+00  0.0000E+00
    -44.622  0.0000E+00  0.0000E+00  0.0000E+00  0.0000E+00
    -44.402  0.0000E+00  0.0000E+00  0.0000E+00  0.0000E+00
    -44.182  0.1245E-03  0.0000E+00  0.2739E-04  0.0000E+00
    -43.962  0.9997E-02  0.0000E+00  0.2226E-02  0.0000E+00
    -43.742  0.7668E+00  0.0000E+00  0.1709E+00  0.0000E+00
    -43.522  0.1056E+02  0.0000E+00  0.2493E+01  0.0000E+00
    -43.302  0.2273E+01  0.0000E+00  0.2993E+01  0.0000E+00
    -43.082  0.0000E+00  0.0000E+00  0.3000E+01  0.0000E+00
    -42.862  0.0000E+00  0.0000E+00  0.3000E+01  0.0000E+00
    -42.642  0.0000E+00  0.0000E+00  0.3000E+01  0.0000E+00
    -42.422  0.0000E+00  0.0000E+00  0.3000E+01  0.0000E+00
    -42.202  0.0000E+00  0.0000E+00  0.3000E+01  0.0000E+00
    -41.983  0.0000E+00  0.0000E+00  0.3000E+01  0.0000E+00
    -41.763  0.0000E+00  0.0000E+00  0.3000E+01  0.0000E+00
    -41.543  0.0000E+00  0.0000E+00  0.3000E+01  0.0000E+00
    -41.323  0.0000E+00  0.0000E+00  0.3000E+01  0.0000E+00
    -41.103  0.0000E+00  0.0000E+00  0.3000E+01  0.0000E+00
    -40.883  0.0000E+00  0.0000E+00  0.3000E+01  0.0000E+00
    -40.663  0.0000E+00  0.0000E+00  0.3000E+01  0.0000E+00
    -40.443  0.0000E+00  0.6163E-04  0.3000E+01  0.1356E-04
    -40.223  0.0000E+00  0.4950E-02  0.3000E+01  0.1102E-02
    -40.003  0.0000E+00  0.3909E+00  0.3000E+01  0.8707E-01
    -39.783  0.0000E+00  0.9269E+01  0.3000E+01  0.2126E+01
    -39.563  0.0000E+00  0.3907E+01  0.3000E+01  0.2985E+01
    -39.343  0.0000E+00  0.0000E+00  0.3000E+01  0.3000E+01
    -39.123  0.0000E+00  0.0000E+00  0.3000E+01  0.3000E+01
    -38.904  0.0000E+00  0.0000E+00  0.3000E+01  0.3000E+01
    -38.684  0.0000E+00  0.0000E+00  0.3000E+01  0.3000E+01
    -38.464  0.0000E+00  0.0000E+00  0.3000E+01  0.3000E+01
    -38.244  0.0000E+00  0.0000E+00  0.3000E+01  0.3000E+01
    -38.024  0.0000E+00  0.0000E+00  0.3000E+01  0.3000E+01
    -37.804  0.0000E+00  0.0000E+00  0.3000E+01  0.3000E+01
    -37.584  0.0000E+00  0.0000E+00  0.3000E+01  0.3000E+01
    -37.364  0.0000E+00  0.0000E+00  0.3000E+01  0.3000E+01
    -37.144  0.0000E+00  0.0000E+00  0.3000E+01  0.3000E+01
    -36.924  0.0000E+00  0.0000E+00  0.3000E+01  0.3000E+01
    -36.704  0.0000E+00  0.0000E+00  0.3000E+01  0.3000E+01
    -36.484  0.0000E+00  0.0000E+00  0.3000E+01  0.3000E+01
    -36.264  0.0000E+00  0.0000E+00  0.3000E+01  0.3000E+01
    -36.044  0.0000E+00  0.0000E+00  0.3000E+01  0.3000E+01
    -35.825  0.0000E+00  0.0000E+00  0.3000E+01  0.3000E+01
    -35.605  0.0000E+00  0.0000E+00  0.3000E+01  0.3000E+01
    -35.385  0.0000E+00  0.0000E+00  0.3000E+01  0.3000E+01
    -35.165  0.0000E+00  0.0000E+00  0.3000E+01  0.3000E+01
    -34.945  0.0000E+00  0.0000E+00  0.3000E+01  0.3000E+01
    -34.725  0.0000E+00  0.0000E+00  0.3000E+01  0.3000E+01
    -34.505  0.0000E+00  0.0000E+00  0.3000E+01  0.3000E+01
    -34.285  0.0000E+00  0.0000E+00  0.3000E+01  0.3000E+01
    -34.065  0.0000E+00  0.0000E+00  0.3000E+01  0.3000E+01
    -33.845  0.0000E+00  0.0000E+00  0.3000E+01  0.3000E+01
    -33.625  0.0000E+00  0.0000E+00  0.3000E+01  0.3000E+01
    -33.405  0.0000E+00  0.0000E+00  0.3000E+01  0.3000E+01
    -33.185  0.0000E+00  0.0000E+00  0.3000E+01  0.3000E+01
    -32.965  0.0000E+00  0.0000E+00  0.3000E+01  0.3000E+01
    -32.746  0.0000E+00  0.0000E+00  0.3000E+01  0.3000E+01
    -32.526  0.0000E+00  0.0000E+00  0.3000E+01  0.3000E+01
    -32.306  0.0000E+00  0.0000E+00  0.3000E+01  0.3000E+01
    -32.086  0.0000E+00  0.0000E+00  0.3000E+01  0.3000E+01
    -31.866  0.0000E+00  0.0000E+00  0.3000E+01  0.3000E+01
    -31.646  0.0000E+00  0.0000E+00  0.3000E+01  0.3000E+01
    -31.426  0.0000E+00  0.0000E+00  0.3000E+01  0.3000E+01
    -31.206  0.0000E+00  0.0000E+00  0.3000E+01  0.3000E+01
    -30.986  0.0000E+00  0.0000E+00  0.3000E+01  0.3000E+01
    -30.766  0.0000E+00  0.0000E+00  0.3000E+01  0.3000E+01
    -30.546  0.0000E+00  0.0000E+00  0.3000E+01  0.3000E+01
    -30.326  0.0000E+00  0.0000E+00  0.3000E+01  0.3000E+01
    -30.106  0.0000E+00  0.0000E+00  0.3000E+01  0.3000E+01
    -29.886  0.0000E+00  0.0000E+00  0.3000E+01  0.3000E+01
    -29.667  0.0000E+00  0.0000E+00  0.3000E+01  0.3000E+01
    -29.447  0.0000E+00  0.0000E+00  0.3000E+01  0.3000E+01
    -29.227  0.0000E+00  0.0000E+00  0.3000E+01  0.3000E+01
    -29.007  0.0000E+00  0.0000E+00  0.3000E+01  0.3000E+01
    -28.787  0.0000E+00  0.0000E+00  0.3000E+01  0.3000E+01
    -28.567  0.0000E+00  0.0000E+00  0.3000E+01  0.3000E+01
    -28.347  0.0000E+00  0.0000E+00  0.3000E+01  0.3000E+01
    -28.127  0.0000E+00  0.0000E+00  0.3000E+01  0.3000E+01
    -27.907  0.0000E+00  0.0000E+00  0.3000E+01  0.3000E+01
    -27.687  0.0000E+00  0.0000E+00  0.3000E+01  0.3000E+01
    -27.467  0.0000E+00  0.0000E+00  0.3000E+01  0.3000E+01
    -27.247  0.0000E+00  0.0000E+00  0.3000E+01  0.3000E+01
    -27.027  0.0000E+00  0.0000E+00  0.3000E+01  0.3000E+01
    -26.807  0.0000E+00  0.0000E+00  0.3000E+01  0.3000E+01
    -26.588  0.0000E+00  0.0000E+00  0.3000E+01  0.3000E+01
    -26.368  0.0000E+00  0.0000E+00  0.3000E+01  0.3000E+01
    -26.148  0.0000E+00  0.0000E+00  0.3000E+01  0.3000E+01
    -25.928  0.0000E+00  0.0000E+00  0.3000E+01  0.3000E+01
    -25.708  0.0000E+00  0.0000E+00  0.3000E+01  0.3000E+01
    -25.488  0.0000E+00  0.0000E+00  0.3000E+01  0.3000E+01
    -25.268  0.0000E+00  0.0000E+00  0.3000E+01  0.3000E+01
    -25.048  0.0000E+00  0.0000E+00  0.3000E+01  0.3000E+01
    -24.828  0.0000E+00  0.0000E+00  0.3000E+01  0.3000E+01
    -24.608  0.0000E+00  0.0000E+00  0.3000E+01  0.3000E+01
    -24.388  0.0000E+00  0.0000E+00  0.3000E+01  0.3000E+01
    -24.168  0.0000E+00  0.0000E+00  0.3000E+01  0.3000E+01
    -23.948  0.0000E+00  0.0000E+00  0.3000E+01  0.3000E+01
    -23.728  0.0000E+00  0.0000E+00  0.3000E+01  0.3000E+01
    -23.509  0.0000E+00  0.0000E+00  0.3000E+01  0.3000E+01
    -23.289  0.0000E+00  0.0000E+00  0.3000E+01  0.3000E+01
    -23.069  0.0000E+00  0.0000E+00  0.3000E+01  0.3000E+01
    -22.849  0.0000E+00  0.0000E+00  0.3000E+01  0.3000E+01
    -22.629  0.0000E+00  0.0000E+00  0.3000E+01  0.3000E+01
    -22.409  0.0000E+00  0.0000E+00  0.3000E+01  0.3000E+01
    -22.189  0.0000E+00  0.0000E+00  0.3000E+01  0.3000E+01
    -21.969  0.0000E+00  0.0000E+00  0.3000E+01  0.3000E+01
    -21.749  0.0000E+00  0.0000E+00  0.3000E+01  0.3000E+01
    -21.529  0.0000E+00  0.0000E+00  0.3000E+01  0.3000E+01
    -21.309  0.0000E+00  0.0000E+00  0.3000E+01  0.3000E+01
    -21.089  0.0000E+00  0.0000E+00  0.3000E+01  0.3000E+01
    -20.869  0.0000E+00  0.0000E+00  0.3000E+01  0.3000E+01
    -20.649  0.0000E+00  0.0000E+00  0.3000E+01  0.3000E+01
    -20.430  0.0000E+00  0.0000E+00  0.3000E+01  0.3000E+01
    -20.210  0.0000E+00  0.0000E+00  0.3000E+01  0.3000E+01
    -19.990  0.0000E+00  0.0000E+00  0.3000E+01  0.3000E+01
    -19.770  0.0000E+00  0.0000E+00  0.3000E+01  0.3000E+01
    -19.550  0.0000E+00  0.0000E+00  0.3000E+01  0.3000E+01
    -19.330  0.0000E+00  0.0000E+00  0.3000E+01  0.3000E+01
    -19.110  0.0000E+00  0.0000E+00  0.3000E+01  0.3000E+01
    -18.890  0.0000E+00  0.0000E+00  0.3000E+01  0.3000E+01
    -18.670  0.0000E+00  0.0000E+00  0.3000E+01  0.3000E+01
    -18.450  0.0000E+00  0.0000E+00  0.3000E+01  0.3000E+01
    -18.230  0.0000E+00  0.0000E+00  0.3000E+01  0.3000E+01
    -18.010  0.0000E+00  0.0000E+00  0.3000E+01  0.3000E+01
    -17.790  0.0000E+00  0.0000E+00  0.3000E+01  0.3000E+01
    -17.570  0.0000E+00  0.0000E+00  0.3000E+01  0.3000E+01
    -17.351  0.0000E+00  0.0000E+00  0.3000E+01  0.3000E+01
    -17.131  0.0000E+00  0.0000E+00  0.3000E+01  0.3000E+01
    -16.911  0.0000E+00  0.0000E+00  0.3000E+01  0.3000E+01
    -16.691  0.0000E+00  0.0000E+00  0.3000E+01  0.3000E+01
    -16.471  0.0000E+00  0.0000E+00  0.3000E+01  0.3000E+01
    -16.251  0.0000E+00  0.0000E+00  0.3000E+01  0.3000E+01
    -16.031  0.0000E+00  0.0000E+00  0.3000E+01  0.3000E+01
    -15.811  0.0000E+00  0.0000E+00  0.3000E+01  0.3000E+01
    -15.591  0.0000E+00  0.0000E+00  0.3000E+01  0.3000E+01
    -15.371  0.0000E+00  0.0000E+00  0.3000E+01  0.3000E+01
    -15.151  0.0000E+00  0.0000E+00  0.3000E+01  0.3000E+01
    -14.931  0.0000E+00  0.0000E+00  0.3000E+01  0.3000E+01
    -14.711  0.0000E+00  0.0000E+00  0.3000E+01  0.3000E+01
    -14.491  0.0000E+00  0.0000E+00  0.3000E+01  0.3000E+01
    -14.272  0.0000E+00  0.0000E+00  0.3000E+01  0.3000E+01
    -14.052  0.0000E+00  0.0000E+00  0.3000E+01  0.3000E+01
    -13.832  0.0000E+00  0.0000E+00  0.3000E+01  0.3000E+01
    -13.612  0.0000E+00  0.0000E+00  0.3000E+01  0.3000E+01
    -13.392  0.0000E+00  0.0000E+00  0.3000E+01  0.3000E+01
    -13.172  0.0000E+00  0.0000E+00  0.3000E+01  0.3000E+01
    -12.952  0.0000E+00  0.0000E+00  0.3000E+01  0.3000E+01
    -12.732  0.0000E+00  0.0000E+00  0.3000E+01  0.3000E+01
    -12.512  0.0000E+00  0.0000E+00  0.3000E+01  0.3000E+01
    -12.292  0.0000E+00  0.0000E+00  0.3000E+01  0.3000E+01
    -12.072  0.0000E+00  0.0000E+00  0.3000E+01  0.3000E+01
    -11.852  0.0000E+00  0.0000E+00  0.3000E+01  0.3000E+01
    -11.632  0.0000E+00  0.0000E+00  0.3000E+01  0.3000E+01
    -11.412  0.0000E+00  0.0000E+00  0.3000E+01  0.3000E+01
    -11.193  0.0000E+00  0.0000E+00  0.3000E+01  0.3000E+01
    -10.973  0.0000E+00  0.0000E+00  0.3000E+01  0.3000E+01
    -10.753  0.0000E+00  0.0000E+00  0.3000E+01  0.3000E+01
    -10.533  0.0000E+00  0.0000E+00  0.3000E+01  0.3000E+01
    -10.313  0.0000E+00  0.0000E+00  0.3000E+01  0.3000E+01
    -10.093  0.0000E+00  0.0000E+00  0.3000E+01  0.3000E+01
     -9.873  0.0000E+00  0.0000E+00  0.3000E+01  0.3000E+01
     -9.653  0.0000E+00  0.0000E+00  0.3000E+01  0.3000E+01
     -9.433  0.0000E+00  0.0000E+00  0.3000E+01  0.3000E+01
     -9.213  0.0000E+00  0.0000E+00  0.3000E+01  0.3000E+01
     -8.993  0.0000E+00  0.0000E+00  0.3000E+01  0.3000E+01
     -8.773  0.0000E+00  0.0000E+00  0.3000E+01  0.3000E+01
     -8.553  0.0000E+00  0.0000E+00  0.3000E+01  0.3000E+01
     -8.333  0.0000E+00  0.0000E+00  0.3000E+01  0.3000E+01
     -8.114  0.0000E+00  0.0000E+00  0.3000E+01  0.3000E+01
     -7.894  0.0000E+00  0.0000E+00  0.3000E+01  0.3000E+01
     -7.674  0.0000E+00  0.0000E+00  0.3000E+01  0.3000E+01
     -7.454  0.0000E+00  0.0000E+00  0.3000E+01  0.3000E+01
     -7.234  0.0000E+00  0.0000E+00  0.3000E+01  0.3000E+01
     -7.014  0.0000E+00  0.0000E+00  0.3000E+01  0.3000E+01
     -6.794  0.0000E+00  0.0000E+00  0.3000E+01  0.3000E+01
     -6.574  0.0000E+00  0.0000E+00  0.3000E+01  0.3000E+01
     -6.354  0.0000E+00  0.0000E+00  0.3000E+01  0.3000E+01
     -6.134  0.0000E+00  0.0000E+00  0.3000E+01  0.3000E+01
     -5.914  0.0000E+00  0.0000E+00  0.3000E+01  0.3000E+01
     -5.694  0.0000E+00  0.0000E+00  0.3000E+01  0.3000E+01
     -5.474  0.0000E+00  0.0000E+00  0.3000E+01  0.3000E+01
     -5.254  0.0000E+00  0.0000E+00  0.3000E+01  0.3000E+01
     -5.035  0.0000E+00  0.0000E+00  0.3000E+01  0.3000E+01
     -4.815  0.0000E+00  0.0000E+00  0.3000E+01  0.3000E+01
     -4.595  0.0000E+00  0.0000E+00  0.3000E+01  0.3000E+01
     -4.375  0.0000E+00  0.0000E+00  0.3000E+01  0.3000E+01
     -4.155  0.0000E+00  0.0000E+00  0.3000E+01  0.3000E+01
     -3.935  0.0000E+00  0.0000E+00  0.3000E+01  0.3000E+01
     -3.715  0.1412E-05  0.5365E-06  0.3000E+01  0.3000E+01
     -3.495  0.1210E-03  0.5022E-04  0.3000E+01  0.3000E+01
     -3.275  0.7801E-02  0.3661E-02  0.3002E+01  0.3001E+01
     -3.055  0.7542E-01  0.5765E-01  0.3018E+01  0.3013E+01
     -2.835  0.1463E+00  0.1367E+00  0.3051E+01  0.3044E+01
     -2.615  0.1999E+00  0.1945E+00  0.3095E+01  0.3086E+01
     -2.395  0.2329E+00  0.2254E+00  0.3146E+01  0.3136E+01
     -2.175  0.2706E+00  0.2800E+00  0.3206E+01  0.3198E+01
     -1.956  0.3110E+00  0.2979E+00  0.3275E+01  0.3264E+01
     -1.736  0.3288E+00  0.3397E+00  0.3347E+01  0.3339E+01
     -1.516  0.4043E+00  0.4068E+00  0.3437E+01  0.3429E+01
     -1.296  0.4142E+00  0.4080E+00  0.3528E+01  0.3519E+01
     -1.076  0.4098E+00  0.4243E+00  0.3619E+01  0.3613E+01
     -0.856  0.3622E+00  0.3385E+00  0.3699E+01  0.3688E+01
     -0.636  0.3911E+00  0.3437E+00  0.3785E+01  0.3764E+01
     -0.416  0.4810E+00  0.4538E+00  0.3891E+01  0.3864E+01
     -0.196  0.4139E+00  0.3933E+00  0.3983E+01  0.3951E+01
      0.024  0.5020E+00  0.4558E+00  0.4093E+01  0.4052E+01
      0.244  0.5340E+00  0.5388E+00  0.4211E+01  0.4171E+01
      0.464  0.4798E+00  0.4775E+00  0.4318E+01  0.4277E+01
      0.684  0.5561E+00  0.5207E+00  0.4440E+01  0.4392E+01
      0.904  0.6875E+00  0.6812E+00  0.4592E+01  0.4543E+01
      1.123  0.7224E+00  0.6536E+00  0.4751E+01  0.4687E+01
      1.343  0.6750E+00  0.5831E+00  0.4901E+01  0.4816E+01
      1.563  0.7698E+00  0.5933E+00  0.5071E+01  0.4948E+01
      1.783  0.8144E+00  0.6554E+00  0.5252E+01  0.5093E+01
      2.003  0.7214E+00  0.6539E+00  0.5412E+01  0.5237E+01
      2.223  0.6842E+00  0.5833E+00  0.5563E+01  0.5366E+01
      2.443  0.8388E+00  0.5837E+00  0.5749E+01  0.5495E+01
      2.663  0.1028E+01  0.5816E+00  0.5976E+01  0.5624E+01
      2.883  0.1247E+01  0.6876E+00  0.6252E+01  0.5776E+01
      3.103  0.1516E+01  0.7721E+00  0.6587E+01  0.5946E+01
      3.323  0.3318E+01  0.6988E+00  0.7317E+01  0.6101E+01
      3.543  0.4150E+01  0.8606E+00  0.8232E+01  0.6291E+01
      3.763  0.2695E+01  0.9470E+00  0.8831E+01  0.6501E+01
      3.983  0.2613E+01  0.8097E+00  0.9411E+01  0.6679E+01
      4.202  0.3883E+01  0.1048E+01  0.1027E+02  0.6911E+01
      4.422  0.2179E+01  0.9098E+00  0.1076E+02  0.7112E+01
      4.642  0.1473E+01  0.1173E+01  0.1108E+02  0.7371E+01
      4.862  0.1053E+01  0.1146E+01  0.1132E+02  0.7626E+01
      5.082  0.8721E+00  0.1341E+01  0.1151E+02  0.7922E+01
      5.302  0.1109E+01  0.1114E+01  0.1176E+02  0.8169E+01
      5.522  0.1112E+01  0.1112E+01  0.1200E+02  0.8415E+01
      5.742  0.1141E+01  0.7997E+00  0.1226E+02  0.8592E+01
      5.962  0.9721E+00  0.9505E+00  0.1247E+02  0.8802E+01
      6.182  0.8067E+00  0.1029E+01  0.1265E+02  0.9030E+01
      6.402  0.8815E+00  0.1016E+01  0.1285E+02  0.9255E+01
      6.622  0.8943E+00  0.1297E+01  0.1304E+02  0.9541E+01
      6.842  0.8585E+00  0.1896E+01  0.1323E+02  0.9959E+01
      7.062  0.9444E+00  0.2392E+01  0.1344E+02  0.1049E+02
      7.281  0.1203E+01  0.3318E+01  0.1371E+02  0.1122E+02
      7.501  0.1136E+01  0.3487E+01  0.1396E+02  0.1199E+02
      7.721  0.7402E+00  0.2281E+01  0.1412E+02  0.1250E+02
      7.941  0.7625E+00  0.1999E+01  0.1429E+02  0.1294E+02
      8.161  0.9257E+00  0.2290E+01  0.1450E+02  0.1345E+02
      8.381  0.1133E+01  0.1713E+01  0.1475E+02  0.1383E+02
      8.601  0.9129E+00  0.1426E+01  0.1495E+02  0.1414E+02
      8.821  0.8044E+00  0.1389E+01  0.1513E+02  0.1445E+02
      9.041  0.9487E+00  0.1465E+01  0.1534E+02  0.1477E+02
      9.261  0.9942E+00  0.1019E+01  0.1556E+02  0.1500E+02
      9.481  0.9899E+00  0.9363E+00  0.1578E+02  0.1520E+02
      9.701  0.1120E+01  0.1292E+01  0.1602E+02  0.1549E+02
      9.921  0.1162E+01  0.1180E+01  0.1628E+02  0.1575E+02
     10.141  0.9226E+00  0.9254E+00  0.1649E+02  0.1596E+02
     10.360  0.9951E+00  0.1137E+01  0.1671E+02  0.1621E+02
     10.580  0.1123E+01  0.1463E+01  0.1695E+02  0.1653E+02
     10.800  0.1001E+01  0.1378E+01  0.1718E+02  0.1683E+02
     11.020  0.1086E+01  0.9767E+00  0.1742E+02  0.1705E+02
     11.240  0.1225E+01  0.1268E+01  0.1769E+02  0.1733E+02
     11.460  0.1144E+01  0.1188E+01  0.1794E+02  0.1759E+02
     11.680  0.1098E+01  0.1269E+01  0.1818E+02  0.1787E+02
     11.900  0.1132E+01  0.1367E+01  0.1844E+02  0.1818E+02
     12.120  0.1127E+01  0.1117E+01  0.1869E+02  0.1842E+02
     12.340  0.1061E+01  0.1011E+01  0.1892E+02  0.1865E+02
     12.560  0.7855E+00  0.1035E+01  0.1909E+02  0.1888E+02
     12.780  0.8909E+00  0.1012E+01  0.1929E+02  0.1910E+02
     13.000  0.5975E+00  0.8974E+00  0.1942E+02  0.1930E+02
     13.220  0.3360E+00  0.5259E+00  0.1950E+02  0.1942E+02
     13.439  0.1992E+00  0.4290E+00  0.1954E+02  0.1951E+02
     13.659  0.4133E+00  0.5092E+00  0.1963E+02  0.1963E+02
     13.879  0.3131E+00  0.2824E+00  0.1970E+02  0.1969E+02
     14.099  0.3396E+00  0.3396E+00  0.1978E+02  0.1976E+02
     14.319  0.2233E+00  0.2131E+00  0.1983E+02  0.1981E+02
     14.539  0.7155E-01  0.7873E-01  0.1985E+02  0.1983E+02
     14.759  0.1655E+00  0.2446E+00  0.1988E+02  0.1988E+02
     14.979  0.1792E+00  0.1874E+00  0.1992E+02  0.1993E+02
     15.199  0.5238E-01  0.8822E-01  0.1993E+02  0.1995E+02
     15.419  0.8732E-01  0.4423E-01  0.1995E+02  0.1995E+02
     15.639  0.9918E-01  0.9390E-01  0.1997E+02  0.1998E+02
     15.859  0.6116E-01  0.7024E-01  0.1999E+02  0.1999E+02
     16.079  0.3112E-01  0.2298E-01  0.2000E+02  0.2000E+02
     16.299  0.7634E-02  0.8128E-02  0.2000E+02  0.2000E+02
     16.518  0.1282E-01  0.8027E-02  0.2000E+02  0.2000E+02
     16.738  0.9375E-03  0.0000E+00  0.2000E+02  0.2000E+02
     16.958  0.0000E+00  0.0000E+00  0.2000E+02  0.2000E+02
     17.178  0.0000E+00  0.0000E+00  0.2000E+02  0.2000E+02
     17.398  0.0000E+00  0.0000E+00  0.2000E+02  0.2000E+02
     17.618  0.0000E+00  0.0000E+00  0.2000E+02  0.2000E+02
     17.838  0.0000E+00  0.0000E+00  0.2000E+02  0.2000E+02
     18.058  0.0000E+00  0.0000E+00  0.2000E+02  0.2000E+02
     18.278  0.0000E+00  0.0000E+00  0.2000E+02  0.2000E+02
     18.498  0.0000E+00  0.0000E+00  0.2000E+02  0.2000E+02
     18.718  0.0000E+00  0.0000E+00  0.2000E+02  0.2000E+02
     18.938  0.0000E+00  0.0000E+00  0.2000E+02  0.2000E+02
     19.158  0.0000E+00  0.0000E+00  0.2000E+02  0.2000E+02
     19.378  0.0000E+00  0.0000E+00  0.2000E+02  0.2000E+02
     19.37753529    -46.60099909  301      6.34509836      1.00000000
    -46.601  0.0000E+00  0.0000E+00  0.0000E+00  0.0000E+00  0.0000E+00  0.0000E+00  0.0000E+00  0.0000E+00  0.0000E+00  0.0000E+00  0.0000E+00  0.0000E+00  0.0000E+00  0.0000E+00  0.0000E+00  0.0000E+00  0.0000E+00  0.0000E+00
    -46.381  0.0000E+00  0.0000E+00  0.0000E+00  0.0000E+00  0.0000E+00  0.0000E+00  0.0000E+00  0.0000E+00  0.0000E+00  0.0000E+00  0.0000E+00  0.0000E+00  0.0000E+00  0.0000E+00  0.0000E+00  0.0000E+00  0.0000E+00  0.0000E+00
    -46.161  0.0000E+00  0.0000E+00  0.0000E+00  0.0000E+00  0.0000E+00  0.0000E+00  0.0000E+00  0.0000E+00  0.0000E+00  0.0000E+00  0.0000E+00  0.0000E+00  0.0000E+00  0.0000E+00  0.0000E+00  0.0000E+00  0.0000E+00  0.0000E+00
    -45.941  0.0000E+00  0.0000E+00  0.0000E+00  0.0000E+00  0.0000E+00  0.0000E+00  0.0000E+00  0.0000E+00  0.0000E+00  0.0000E+00  0.0000E+00  0.0000E+00  0.0000E+00  0.0000E+00  0.0000E+00  0.0000E+00  0.0000E+00  0.0000E+00
    -45.721  0.0000E+00  0.0000E+00  0.0000E+00  0.0000E+00  0.0000E+00  0.0000E+00  0.0000E+00  0.0000E+00  0.0000E+00  0.0000E+00  0.0000E+00  0.0000E+00  0.0000E+00  0.0000E+00  0.0000E+00  0.0000E+00  0.0000E+00  0.0000E+00
    -45.501  0.0000E+00  0.0000E+00  0.0000E+00  0.0000E+00  0.0000E+00  0.0000E+00  0.0000E+00  0.0000E+00  0.0000E+00  0.0000E+00  0.0000E+00  0.0000E+00  0.0000E+00  0.0000E+00  0.0000E+00  0.0000E+00  0.0000E+00  0.0000E+00
    -45.281  0.0000E+00  0.0000E+00  0.0000E+00  0.0000E+00  0.0000E+00  0.0000E+00  0.0000E+00  0.0000E+00  0.0000E+00  0.0000E+00  0.0000E+00  0.0000E+00  0.0000E+00  0.0000E+00  0.0000E+00  0.0000E+00  0.0000E+00  0.0000E+00
    -45.061  0.0000E+00  0.0000E+00  0.0000E+00  0.0000E+00  0.0000E+00  0.0000E+00  0.0000E+00  0.0000E+00  0.0000E+00  0.0000E+00  0.0000E+00  0.0000E+00  0.0000E+00  0.0000E+00  0.0000E+00  0.0000E+00  0.0000E+00  0.0000E+00
    -44.842  0.0000E+00  0.0000E+00  0.0000E+00  0.0000E+00  0.0000E+00  0.0000E+00  0.0000E+00  0.0000E+00  0.0000E+00  0.0000E+00  0.0000E+00  0.0000E+00  0.0000E+00  0.0000E+00  0.0000E+00  0.0000E+00  0.0000E+00  0.0000E+00
    -44.622  0.0000E+00  0.0000E+00  0.0000E+00  0.0000E+00  0.0000E+00  0.0000E+00  0.0000E+00  0.0000E+00  0.0000E+00  0.0000E+00  0.0000E+00  0.0000E+00  0.0000E+00  0.0000E+00  0.0000E+00  0.0000E+00  0.0000E+00  0.0000E+00
    -44.402  0.0000E+00  0.0000E+00  0.0000E+00  0.0000E+00  0.0000E+00  0.0000E+00  0.0000E+00  0.0000E+00  0.0000E+00  0.0000E+00  0.0000E+00  0.0000E+00  0.0000E+00  0.0000E+00  0.0000E+00  0.0000E+00  0.0000E+00  0.0000E+00
    -44.182  0.2048E-13  0.0000E+00  0.4135E-04  0.0000E+00  0.4135E-04  0.0000E+00  0.4118E-04  0.0000E+00  0.4447E-15  0.0000E+00  0.4428E-15  0.0000E+00  0.1594E-13  0.0000E+00  0.4447E-15  0.0000E+00  0.1564E-13  0.0000E+00
    -43.962  0.1644E-11  0.0000E+00  0.3320E-02  0.0000E+00  0.3320E-02  0.0000E+00  0.3306E-02  0.0000E+00  0.3570E-13  0.0000E+00  0.3555E-13  0.0000E+00  0.1279E-11  0.0000E+00  0.3570E-13  0.0000E+00  0.1255E-11  0.0000E+00
    -43.742  0.1261E-09  0.0000E+00  0.2546E+00  0.0000E+00  0.2546E+00  0.0000E+00  0.2536E+00  0.0000E+00  0.2739E-11  0.0000E+00  0.2727E-11  0.0000E+00  0.9812E-10  0.0000E+00  0.2739E-11  0.0000E+00  0.9627E-10  0.0000E+00
    -43.522  0.1736E-08  0.0000E+00  0.3501E+01  0.0000E+00  0.3501E+01  0.0000E+00  0.3499E+01  0.0000E+00  0.3777E-10  0.0000E+00  0.3755E-10  0.0000E+00  0.1351E-08  0.0000E+00  0.3777E-10  0.0000E+00  0.1326E-08  0.0000E+00
    -43.302  0.3738E-09  0.0000E+00  0.7529E+00  0.0000E+00  0.7529E+00  0.0000E+00  0.7555E+00  0.0000E+00  0.8148E-11  0.0000E+00  0.8088E-11  0.0000E+00  0.2910E-09  0.0000E+00  0.8148E-11  0.0000E+00  0.2855E-09  0.0000E+00
    -43.082  0.0000E+00  0.0000E+00  0.0000E+00  0.0000E+00  0.0000E+00  0.0000E+00  0.0000E+00  0.0000E+00  0.0000E+00  0.0000E+00  0.0000E+00  0.0000E+00  0.0000E+00  0.0000E+00  0.0000E+00  0.0000E+00  0.0000E+00  0.0000E+00
    -42.862  0.0000E+00  0.0000E+00  0.0000E+00  0.0000E+00  0.0000E+00  0.0000E+00  0.0000E+00  0.0000E+00  0.0000E+00  0.0000E+00  0.0000E+00  0.0000E+00  0.0000E+00  0.0000E+00  0.0000E+00  0.0000E+00  0.0000E+00  0.0000E+00
    -42.642  0.0000E+00  0.0000E+00  0.0000E+00  0.0000E+00  0.0000E+00  0.0000E+00  0.0000E+00  0.0000E+00  0.0000E+00  0.0000E+00  0.0000E+00  0.0000E+00  0.0000E+00  0.0000E+00  0.0000E+00  0.0000E+00  0.0000E+00  0.0000E+00
    -42.422  0.0000E+00  0.0000E+00  0.0000E+00  0.0000E+00  0.0000E+00  0.0000E+00  0.0000E+00  0.0000E+00  0.0000E+00  0.0000E+00  0.0000E+00  0.0000E+00  0.0000E+00  0.0000E+00  0.0000E+00  0.0000E+00  0.0000E+00  0.0000E+00
    -42.202  0.0000E+00  0.0000E+00  0.0000E+00  0.0000E+00  0.0000E+00  0.0000E+00  0.0000E+00  0.0000E+00  0.0000E+00  0.0000E+00  0.0000E+00  0.0000E+00  0.0000E+00  0.0000E+00  0.0000E+00  0.0000E+00  0.0000E+00  0.0000E+00
    -41.983  0.0000E+00  0.0000E+00  0.0000E+00  0.0000E+00  0.0000E+00  0.0000E+00  0.0000E+00  0.0000E+00  0.0000E+00  0.0000E+00  0.0000E+00  0.0000E+00  0.0000E+00  0.0000E+00  0.0000E+00  0.0000E+00  0.0000E+00  0.0000E+00
    -41.763  0.0000E+00  0.0000E+00  0.0000E+00  0.0000E+00  0.0000E+00  0.0000E+00  0.0000E+00  0.0000E+00  0.0000E+00  0.0000E+00  0.0000E+00  0.0000E+00  0.0000E+00  0.0000E+00  0.0000E+00  0.0000E+00  0.0000E+00  0.0000E+00
    -41.543  0.0000E+00  0.0000E+00  0.0000E+00  0.0000E+00  0.0000E+00  0.0000E+00  0.0000E+00  0.0000E+00  0.0000E+00  0.0000E+00  0.0000E+00  0.0000E+00  0.0000E+00  0.0000E+00  0.0000E+00  0.0000E+00  0.0000E+00  0.0000E+00
    -41.323  0.0000E+00  0.0000E+00  0.0000E+00  0.0000E+00  0.0000E+00  0.0000E+00  0.0000E+00  0.0000E+00  0.0000E+00  0.0000E+00  0.0000E+00  0.0000E+00  0.0000E+00  0.0000E+00  0.0000E+00  0.0000E+00  0.0000E+00  0.0000E+00
    -41.103  0.0000E+00  0.0000E+00  0.0000E+00  0.0000E+00  0.0000E+00  0.0000E+00  0.0000E+00  0.0000E+00  0.0000E+00  0.0000E+00  0.0000E+00  0.0000E+00  0.0000E+00  0.0000E+00  0.0000E+00  0.0000E+00  0.0000E+00  0.0000E+00
    -40.883  0.0000E+00  0.0000E+00  0.0000E+00  0.0000E+00  0.0000E+00  0.0000E+00  0.0000E+00  0.0000E+00  0.0000E+00  0.0000E+00  0.0000E+00  0.0000E+00  0.0000E+00  0.0000E+00  0.0000E+00  0.0000E+00  0.0000E+00  0.0000E+00
    -40.663  0.0000E+00  0.0000E+00  0.0000E+00  0.0000E+00  0.0000E+00  0.0000E+00  0.0000E+00  0.0000E+00  0.0000E+00  0.0000E+00  0.0000E+00  0.0000E+00  0.0000E+00  0.0000E+00  0.0000E+00  0.0000E+00  0.0000E+00  0.0000E+00
    -40.443  0.0000E+00  0.1574E-13  0.0000E+00  0.2045E-04  0.0000E+00  0.2045E-04  0.0000E+00  0.2043E-04  0.0000E+00  0.3471E-15  0.0000E+00  0.3471E-15  0.0000E+00  0.1667E-13  0.0000E+00  0.3471E-15  0.0000E+00  0.1633E-13
    -40.223  0.0000E+00  0.1264E-11  0.0000E+00  0.1642E-02  0.0000E+00  0.1642E-02  0.0000E+00  0.1640E-02  0.0000E+00  0.2787E-13  0.0000E+00  0.2787E-13  0.0000E+00  0.1339E-11  0.0000E+00  0.2787E-13  0.0000E+00  0.1311E-11
    -40.003  0.0000E+00  0.9981E-10  0.0000E+00  0.1297E+00  0.0000E+00  0.1297E+00  0.0000E+00  0.1296E+00  0.0000E+00  0.2201E-11  0.0000E+00  0.2201E-11  0.0000E+00  0.1057E-09  0.0000E+00  0.2201E-11  0.0000E+00  0.1035E-09
    -39.783  0.0000E+00  0.2367E-08  0.0000E+00  0.3075E+01  0.0000E+00  0.3075E+01  0.0000E+00  0.3074E+01  0.0000E+00  0.5226E-10  0.0000E+00  0.5224E-10  0.0000E+00  0.2508E-08  0.0000E+00  0.5226E-10  0.0000E+00  0.2456E-08
    -39.563  0.0000E+00  0.9975E-09  0.0000E+00  0.1296E+01  0.0000E+00  0.1296E+01  0.0000E+00  0.1297E+01  0.0000E+00  0.2206E-10  0.0000E+00  0.2204E-10  0.0000E+00  0.1058E-08  0.0000E+00  0.2206E-10  0.0000E+00  0.1035E-08
    -39.343  0.0000E+00  0.0000E+00  0.0000E+00  0.0000E+00  0.0000E+00  0.0000E+00  0.0000E+00  0.0000E+00  0.0000E+00  0.0000E+00  0.0000E+00  0.0000E+00  0.0000E+00  0.0000E+00  0.0000E+00  0.0000E+00  0.0000E+00  0.0000E+00
    -39.123  0.0000E+00  0.0000E+00  0.0000E+00  0.0000E+00  0.0000E+00  0.0000E+00  0.0000E+00  0.0000E+00  0.0000E+00  0.0000E+00  0.0000E+00  0.0000E+00  0.0000E+00  0.0000E+00  0.0000E+00  0.0000E+00  0.0000E+00  0.0000E+00
    -38.904  0.0000E+00  0.0000E+00  0.0000E+00  0.0000E+00  0.0000E+00  0.0000E+00  0.0000E+00  0.0000E+00  0.0000E+00  0.0000E+00  0.0000E+00  0.0000E+00  0.0000E+00  0.0000E+00  0.0000E+00  0.0000E+00  0.0000E+00  0.0000E+00
    -38.684  0.0000E+00  0.0000E+00  0.0000E+00  0.0000E+00  0.0000E+00  0.0000E+00  0.0000E+00  0.0000E+00  0.0000E+00  0.0000E+00  0.0000E+00  0.0000E+00  0.0000E+00  0.0000E+00  0.0000E+00  0.0000E+00  0.0000E+00  0.0000E+00
    -38.464  0.0000E+00  0.0000E+00  0.0000E+00  0.0000E+00  0.0000E+00  0.0000E+00  0.0000E+00  0.0000E+00  0.0000E+00  0.0000E+00  0.0000E+00  0.0000E+00  0.0000E+00  0.0000E+00  0.0000E+00  0.0000E+00  0.0000E+00  0.0000E+00
    -38.244  0.0000E+00  0.0000E+00  0.0000E+00  0.0000E+00  0.0000E+00  0.0000E+00  0.0000E+00  0.0000E+00  0.0000E+00  0.0000E+00  0.0000E+00  0.0000E+00  0.0000E+00  0.0000E+00  0.0000E+00  0.0000E+00  0.0000E+00  0.0000E+00
    -38.024  0.0000E+00  0.0000E+00  0.0000E+00  0.0000E+00  0.0000E+00  0.0000E+00  0.0000E+00  0.0000E+00  0.0000E+00  0.0000E+00  0.0000E+00  0.0000E+00  0.0000E+00  0.0000E+00  0.0000E+00  0.0000E+00  0.0000E+00  0.0000E+00
    -37.804  0.0000E+00  0.0000E+00  0.0000E+00  0.0000E+00  0.0000E+00  0.0000E+00  0.0000E+00  0.0000E+00  0.0000E+00  0.0000E+00  0.0000E+00  0.0000E+00  0.0000E+00  0.0000E+00  0.0000E+00  0.0000E+00  0.0000E+00  0.0000E+00
    -37.584  0.0000E+00  0.0000E+00  0.0000E+00  0.0000E+00  0.0000E+00  0.0000E+00  0.0000E+00  0.0000E+00  0.0000E+00  0.0000E+00  0.0000E+00  0.0000E+00  0.0000E+00  0.0000E+00  0.0000E+00  0.0000E+00  0.0000E+00  0.0000E+00
    -37.364  0.0000E+00  0.0000E+00  0.0000E+00  0.0000E+00  0.0000E+00  0.0000E+00  0.0000E+00  0.0000E+00  0.0000E+00  0.0000E+00  0.0000E+00  0.0000E+00  0.0000E+00  0.0000E+00  0.0000E+00  0.0000E+00  0.0000E+00  0.0000E+00
    -37.144  0.0000E+00  0.0000E+00  0.0000E+00  0.0000E+00  0.0000E+00  0.0000E+00  0.0000E+00  0.0000E+00  0.0000E+00  0.0000E+00  0.0000E+00  0.0000E+00  0.0000E+00  0.0000E+00  0.0000E+00  0.0000E+00  0.0000E+00  0.0000E+00
    -36.924  0.0000E+00  0.0000E+00  0.0000E+00  0.0000E+00  0.0000E+00  0.0000E+00  0.0000E+00  0.0000E+00  0.0000E+00  0.0000E+00  0.0000E+00  0.0000E+00  0.0000E+00  0.0000E+00  0.0000E+00  0.0000E+00  0.0000E+00  0.0000E+00
    -36.704  0.0000E+00  0.0000E+00  0.0000E+00  0.0000E+00  0.0000E+00  0.0000E+00  0.0000E+00  0.0000E+00  0.0000E+00  0.0000E+00  0.0000E+00  0.0000E+00  0.0000E+00  0.0000E+00  0.0000E+00  0.0000E+00  0.0000E+00  0.0000E+00
    -36.484  0.0000E+00  0.0000E+00  0.0000E+00  0.0000E+00  0.0000E+00  0.0000E+00  0.0000E+00  0.0000E+00  0.0000E+00  0.0000E+00  0.0000E+00  0.0000E+00  0.0000E+00  0.0000E+00  0.0000E+00  0.0000E+00  0.0000E+00  0.0000E+00
    -36.264  0.0000E+00  0.0000E+00  0.0000E+00  0.0000E+00  0.0000E+00  0.0000E+00  0.0000E+00  0.0000E+00  0.0000E+00  0.0000E+00  0.0000E+00  0.0000E+00  0.0000E+00  0.0000E+00  0.0000E+00  0.0000E+00  0.0000E+00  0.0000E+00
    -36.044  0.0000E+00  0.0000E+00  0.0000E+00  0.0000E+00  0.0000E+00  0.0000E+00  0.0000E+00  0.0000E+00  0.0000E+00  0.0000E+00  0.0000E+00  0.0000E+00  0.0000E+00  0.0000E+00  0.0000E+00  0.0000E+00  0.0000E+00  0.0000E+00
    -35.825  0.0000E+00  0.0000E+00  0.0000E+00  0.0000E+00  0.0000E+00  0.0000E+00  0.0000E+00  0.0000E+00  0.0000E+00  0.0000E+00  0.0000E+00  0.0000E+00  0.0000E+00  0.0000E+00  0.0000E+00  0.0000E+00  0.0000E+00  0.0000E+00
    -35.605  0.0000E+00  0.0000E+00  0.0000E+00  0.0000E+00  0.0000E+00  0.0000E+00  0.0000E+00  0.0000E+00  0.0000E+00  0.0000E+00  0.0000E+00  0.0000E+00  0.0000E+00  0.0000E+00  0.0000E+00  0.0000E+00  0.0000E+00  0.0000E+00