   4   4   1   0
  0.1186344E+02  0.3619795E-09  0.3620706E-09  0.3620706E-09  0.5000000E-15
  1.000000000000000E-004
  CAR 
 unknown system                          
     29.09159529    -40.41722330  301     11.35084102      1.00000000
    -40.417  0.0000E+00  0.0000E+00  0.0000E+00  0.0000E+00
    -40.186  0.0000E+00  0.0000E+00  0.0000E+00  0.0000E+00
    -39.954  0.0000E+00  0.0000E+00  0.0000E+00  0.0000E+00
    -39.722  0.0000E+00  0.0000E+00  0.0000E+00  0.0000E+00
    -39.490  0.0000E+00  0.0000E+00  0.0000E+00  0.0000E+00
    -39.259  0.0000E+00  0.0000E+00  0.0000E+00  0.0000E+00
    -39.027  0.0000E+00  0.0000E+00  0.0000E+00  0.0000E+00
    -38.795  0.0000E+00  0.0000E+00  0.0000E+00  0.0000E+00
    -38.564  0.0000E+00  0.0000E+00  0.0000E+00  0.0000E+00
    -38.332  0.0000E+00  0.0000E+00  0.0000E+00  0.0000E+00
    -38.100  0.0000E+00  0.0000E+00  0.0000E+00  0.0000E+00
    -37.869  0.5866E-04  0.0000E+00  0.1359E-04  0.0000E+00
    -37.637  0.5976E-02  0.0000E+00  0.1398E-02  0.0000E+00
    -37.405  0.5868E+00  0.0000E+00  0.1374E+00  0.0000E+00
    -37.173  0.1017E+02  0.0000E+00  0.2494E+01  0.0000E+00
    -36.942  0.2159E+01  0.0000E+00  0.2994E+01  0.0000E+00
    -36.710  0.0000E+00  0.0000E+00  0.3000E+01  0.0000E+00
    -36.478  0.0000E+00  0.0000E+00  0.3000E+01  0.0000E+00
    -36.247  0.0000E+00  0.0000E+00  0.3000E+01  0.0000E+00
    -36.015  0.0000E+00  0.1077E-02  0.3000E+01  0.2496E-03
    -35.783  0.0000E+00  0.1089E+00  0.3000E+01  0.2547E-01
    -35.552  0.0000E+00  0.5950E+01  0.3000E+01  0.1404E+01
    -35.320  0.0000E+00  0.6746E+01  0.3000E+01  0.2967E+01
    -35.088  0.0000E+00  0.0000E+00  0.3000E+01  0.3000E+01
    -34.857  0.0000E+00  0.0000E+00  0.3000E+01  0.3000E+01
    -34.625  0.0000E+00  0.0000E+00  0.3000E+01  0.3000E+01
    -34.393  0.0000E+00  0.0000E+00  0.3000E+01  0.3000E+01
    -34.161  0.0000E+00  0.0000E+00  0.3000E+01  0.3000E+01
    -33.930  0.0000E+00  0.0000E+00  0.3000E+01  0.3000E+01
    -33.698  0.0000E+00  0.0000E+00  0.3000E+01  0.3000E+01
    -33.466  0.0000E+00  0.0000E+00  0.3000E+01  0.3000E+01
    -33.235  0.0000E+00  0.0000E+00  0.3000E+01  0.3000E+01
    -33.003  0.0000E+00  0.0000E+00  0.3000E+01  0.3000E+01
    -32.771  0.0000E+00  0.0000E+00  0.3000E+01  0.3000E+01
    -32.540  0.0000E+00  0.0000E+00  0.3000E+01  0.3000E+01
    -32.308  0.0000E+00  0.0000E+00  0.3000E+01  0.3000E+01
    -32.076  0.0000E+00  0.0000E+00  0.3000E+01  0.3000E+01
    -31.844  0.0000E+00  0.0000E+00  0.3000E+01  0.3000E+01
    -31.613  0.0000E+00  0.0000E+00  0.3000E+01  0.3000E+01
    -31.381  0.0000E+00  0.0000E+00  0.3000E+01  0.3000E+01
    -31.149  0.0000E+00  0.0000E+00  0.3000E+01  0.3000E+01
    -30.918  0.0000E+00  0.0000E+00  0.3000E+01  0.3000E+01
    -30.686  0.0000E+00  0.0000E+00  0.3000E+01  0.3000E+01
    -30.454  0.0000E+00  0.0000E+00  0.3000E+01  0.3000E+01
    -30.223  0.0000E+00  0.0000E+00  0.3000E+01  0.3000E+01
    -29.991  0.0000E+00  0.0000E+00  0.3000E+01  0.3000E+01
    -29.759  0.0000E+00  0.0000E+00  0.3000E+01  0.3000E+01
    -29.528  0.0000E+00  0.0000E+00  0.3000E+01  0.3000E+01
    -29.296  0.0000E+00  0.0000E+00  0.3000E+01  0.3000E+01
    -29.064  0.0000E+00  0.0000E+00  0.3000E+01  0.3000E+01
    -28.832  0.0000E+00  0.0000E+00  0.3000E+01  0.3000E+01
    -28.601  0.0000E+00  0.0000E+00  0.3000E+01  0.3000E+01
    -28.369  0.0000E+00  0.0000E+00  0.3000E+01  0.3000E+01
    -28.137  0.0000E+00  0.0000E+00  0.3000E+01  0.3000E+01
    -27.906  0.0000E+00  0.0000E+00  0.3000E+01  0.3000E+01
    -27.674  0.0000E+00  0.0000E+00  0.3000E+01  0.3000E+01
    -27.442  0.0000E+00  0.0000E+00  0.3000E+01  0.3000E+01
    -27.211  0.0000E+00  0.0000E+00  0.3000E+01  0.3000E+01
    -26.979  0.0000E+00  0.0000E+00  0.3000E+01  0.3000E+01
    -26.747  0.0000E+00  0.0000E+00  0.3000E+01  0.3000E+01
    -26.515  0.0000E+00  0.0000E+00  0.3000E+01  0.3000E+01
    -26.284  0.0000E+00  0.0000E+00  0.3000E+01  0.3000E+01
    -26.052  0.0000E+00  0.0000E+00  0.3000E+01  0.3000E+01
    -25.820  0.0000E+00  0.0000E+00  0.3000E+01  0.3000E+01
    -25.589  0.0000E+00  0.0000E+00  0.3000E+01  0.3000E+01
    -25.357  0.0000E+00  0.0000E+00  0.3000E+01  0.3000E+01
    -25.125  0.0000E+00  0.0000E+00  0.3000E+01  0.3000E+01
    -24.894  0.0000E+00  0.0000E+00  0.3000E+01  0.3000E+01
    -24.662  0.0000E+00  0.0000E+00  0.3000E+01  0.3000E+01
    -24.430  0.0000E+00  0.0000E+00  0.3000E+01  0.3000E+01
    -24.198  0.0000E+00  0.0000E+00  0.3000E+01  0.3000E+01
    -23.967  0.0000E+00  0.0000E+00  0.3000E+01  0.3000E+01
    -23.735  0.0000E+00  0.0000E+00  0.3000E+01  0.3000E+01
    -23.503  0.0000E+00  0.0000E+00  0.3000E+01  0.3000E+01
    -23.272  0.0000E+00  0.0000E+00  0.3000E+01  0.3000E+01
    -23.040  0.0000E+00  0.0000E+00  0.3000E+01  0.3000E+01
    -22.808  0.0000E+00  0.0000E+00  0.3000E+01  0.3000E+01
    -22.577  0.0000E+00  0.0000E+00  0.3000E+01  0.3000E+01
    -22.345  0.0000E+00  0.0000E+00  0.3000E+01  0.3000E+01
    -22.113  0.0000E+00  0.0000E+00  0.3000E+01  0.3000E+01
    -21.882  0.0000E+00  0.0000E+00  0.3000E+01  0.3000E+01
    -21.650  0.0000E+00  0.0000E+00  0.3000E+01  0.3000E+01
    -21.418  0.0000E+00  0.0000E+00  0.3000E+01  0.3000E+01
    -21.186  0.0000E+00  0.0000E+00  0.3000E+01  0.3000E+01
    -20.955  0.0000E+00  0.0000E+00  0.3000E+01  0.3000E+01
    -20.723  0.0000E+00  0.0000E+00  0.3000E+01  0.3000E+01
    -20.491  0.0000E+00  0.0000E+00  0.3000E+01  0.3000E+01
    -20.260  0.0000E+00  0.0000E+00  0.3000E+01  0.3000E+01
    -20.028  0.0000E+00  0.0000E+00  0.3000E+01  0.3000E+01
    -19.796  0.0000E+00  0.0000E+00  0.3000E+01  0.3000E+01
    -19.565  0.0000E+00  0.0000E+00  0.3000E+01  0.3000E+01
    -19.333  0.0000E+00  0.0000E+00  0.3000E+01  0.3000E+01
    -19.101  0.0000E+00  0.0000E+00  0.3000E+01  0.3000E+01
    -18.869  0.0000E+00  0.0000E+00  0.3000E+01  0.3000E+01
    -18.638  0.0000E+00  0.0000E+00  0.3000E+01  0.3000E+01
    -18.406  0.0000E+00  0.0000E+00  0.3000E+01  0.3000E+01
    -18.174  0.0000E+00  0.0000E+00  0.3000E+01  0.3000E+01
    -17.943  0.0000E+00  0.0000E+00  0.3000E+01  0.3000E+01
    -17.711  0.0000E+00  0.0000E+00  0.3000E+01  0.3000E+01
    -17.479  0.0000E+00  0.0000E+00  0.3000E+01  0.3000E+01
    -17.248  0.0000E+00  0.0000E+00  0.3000E+01  0.3000E+01
    -17.016  0.0000E+00  0.0000E+00  0.3000E+01  0.3000E+01
    -16.784  0.0000E+00  0.0000E+00  0.3000E+01  0.3000E+01
    -16.553  0.0000E+00  0.0000E+00  0.3000E+01  0.3000E+01
    -16.321  0.0000E+00  0.0000E+00  0.3000E+01  0.3000E+01
    -16.089  0.0000E+00  0.0000E+00  0.3000E+01  0.3000E+01
    -15.857  0.0000E+00  0.0000E+00  0.3000E+01  0.3000E+01
    -15.626  0.0000E+00  0.0000E+00  0.3000E+01  0.3000E+01
    -15.394  0.0000E+00  0.0000E+00  0.3000E+01  0.3000E+01
    -15.162  0.0000E+00  0.0000E+00  0.3000E+01  0.3000E+01
    -14.931  0.0000E+00  0.0000E+00  0.3000E+01  0.3000E+01
    -14.699  0.0000E+00  0.0000E+00  0.3000E+01  0.3000E+01
    -14.467  0.0000E+00  0.0000E+00  0.3000E+01  0.3000E+01
    -14.236  0.0000E+00  0.0000E+00  0.3000E+01  0.3000E+01
    -14.004  0.0000E+00  0.0000E+00  0.3000E+01  0.3000E+01
    -13.772  0.0000E+00  0.0000E+00  0.3000E+01  0.3000E+01
    -13.540  0.0000E+00  0.0000E+00  0.3000E+01  0.3000E+01
    -13.309  0.0000E+00  0.0000E+00  0.3000E+01  0.3000E+01
    -13.077  0.0000E+00  0.0000E+00  0.3000E+01  0.3000E+01
    -12.845  0.0000E+00  0.0000E+00  0.3000E+01  0.3000E+01
    -12.614  0.0000E+00  0.0000E+00  0.3000E+01  0.3000E+01
    -12.382  0.0000E+00  0.0000E+00  0.3000E+01  0.3000E+01
    -12.150  0.0000E+00  0.0000E+00  0.3000E+01  0.3000E+01
    -11.919  0.0000E+00  0.0000E+00  0.3000E+01  0.3000E+01
    -11.687  0.0000E+00  0.0000E+00  0.3000E+01  0.3000E+01
    -11.455  0.0000E+00  0.0000E+00  0.3000E+01  0.3000E+01
    -11.224  0.0000E+00  0.0000E+00  0.3000E+01  0.3000E+01
    -10.992  0.0000E+00  0.0000E+00  0.3000E+01  0.3000E+01
    -10.760  0.0000E+00  0.0000E+00  0.3000E+01  0.3000E+01
    -10.528  0.0000E+00  0.0000E+00  0.3000E+01  0.3000E+01
    -10.297  0.0000E+00  0.0000E+00  0.3000E+01  0.3000E+01
    -10.065  0.0000E+00  0.0000E+00  0.3000E+01  0.3000E+01
     -9.833  0.0000E+00  0.0000E+00  0.3000E+01  0.3000E+01
     -9.602  0.0000E+00  0.0000E+00  0.3000E+01  0.3000E+01
     -9.370  0.0000E+00  0.0000E+00  0.3000E+01  0.3000E+01
     -9.138  0.0000E+00  0.0000E+00  0.3000E+01  0.3000E+01
     -8.907  0.0000E+00  0.0000E+00  0.3000E+01  0.3000E+01
     -8.675  0.0000E+00  0.0000E+00  0.3000E+01  0.3000E+01
     -8.443  0.0000E+00  0.0000E+00  0.3000E+01  0.3000E+01
     -8.211  0.0000E+00  0.0000E+00  0.3000E+01  0.3000E+01
     -7.980  0.0000E+00  0.0000E+00  0.3000E+01  0.3000E+01
     -7.748  0.0000E+00  0.0000E+00  0.3000E+01  0.3000E+01
     -7.516  0.0000E+00  0.0000E+00  0.3000E+01  0.3000E+01
     -7.285  0.0000E+00  0.0000E+00  0.3000E+01  0.3000E+01
     -7.053  0.0000E+00  0.0000E+00  0.3000E+01  0.3000E+01
     -6.821  0.0000E+00  0.0000E+00  0.3000E+01  0.3000E+01
     -6.590  0.0000E+00  0.0000E+00  0.3000E+01  0.3000E+01
     -6.358  0.0000E+00  0.0000E+00  0.3000E+01  0.3000E+01
     -6.126  0.0000E+00  0.0000E+00  0.3000E+01  0.3000E+01
     -5.895  0.0000E+00  0.0000E+00  0.3000E+01  0.3000E+01
     -5.663  0.0000E+00  0.0000E+00  0.3000E+01  0.3000E+01
     -5.431  0.0000E+00  0.0000E+00  0.3000E+01  0.3000E+01
     -5.199  0.0000E+00  0.0000E+00  0.3000E+01  0.3000E+01
     -4.968  0.0000E+00  0.0000E+00  0.3000E+01  0.3000E+01
     -4.736  0.0000E+00  0.0000E+00  0.3000E+01  0.3000E+01
     -4.504  0.0000E+00  0.0000E+00  0.3000E+01  0.3000E+01
     -4.273  0.0000E+00  0.0000E+00  0.3000E+01  0.3000E+01
     -4.041  0.0000E+00  0.0000E+00  0.3000E+01  0.3000E+01
     -3.809  0.0000E+00  0.0000E+00  0.3000E+01  0.3000E+01
     -3.578  0.0000E+00  0.0000E+00  0.3000E+01  0.3000E+01
     -3.346  0.0000E+00  0.0000E+00  0.3000E+01  0.3000E+01
     -3.114  0.0000E+00  0.0000E+00  0.3000E+01  0.3000E+01
     -2.882  0.0000E+00  0.0000E+00  0.3000E+01  0.3000E+01
     -2.651  0.0000E+00  0.0000E+00  0.3000E+01  0.3000E+01
     -2.419  0.0000E+00  0.0000E+00  0.3000E+01  0.3000E+01
     -2.187  0.0000E+00  0.0000E+00  0.3000E+01  0.3000E+01
     -1.956  0.0000E+00  0.0000E+00  0.3000E+01  0.3000E+01
     -1.724  0.1795E-06  0.6828E-07  0.3000E+01  0.3000E+01
     -1.492  0.2542E-04  0.9622E-05  0.3000E+01  0.3000E+01
     -1.261  0.2294E-02  0.9444E-03  0.3001E+01  0.3000E+01
     -1.029  0.3800E-01  0.2699E-01  0.3009E+01  0.3006E+01
     -0.797  0.9157E-01  0.8146E-01  0.3031E+01  0.3025E+01
     -0.566  0.1137E+00  0.1067E+00  0.3057E+01  0.3050E+01
     -0.334  0.1468E+00  0.1454E+00  0.3091E+01  0.3084E+01
     -0.102  0.1530E+00  0.1527E+00  0.3127E+01  0.3120E+01
      0.130  0.2090E+00  0.2031E+00  0.3176E+01  0.3167E+01
      0.361  0.1782E+00  0.1907E+00  0.3218E+01  0.3211E+01
      0.593  0.2521E+00  0.2379E+00  0.3277E+01  0.3267E+01
      0.825  0.2495E+00  0.2608E+00  0.3335E+01  0.3327E+01
      1.056  0.2646E+00  0.2455E+00  0.3396E+01  0.3385E+01
      1.288  0.3069E+00  0.3241E+00  0.3468E+01  0.3460E+01
      1.520  0.3282E+00  0.3155E+00  0.3544E+01  0.3534E+01
      1.751  0.3120E+00  0.3334E+00  0.3617E+01  0.3611E+01
      1.983  0.2548E+00  0.2337E+00  0.3676E+01  0.3666E+01
      2.215  0.3143E+00  0.3092E+00  0.3749E+01  0.3738E+01
      2.447  0.3042E+00  0.2597E+00  0.3821E+01  0.3799E+01
      2.678  0.3698E+00  0.3989E+00  0.3907E+01  0.3892E+01
      2.910  0.3129E+00  0.2744E+00  0.3981E+01  0.3956E+01
      3.142  0.3571E+00  0.3551E+00  0.4064E+01  0.4039E+01
      3.373  0.4027E+00  0.3372E+00  0.4159E+01  0.4117E+01
      3.605  0.3349E+00  0.4005E+00  0.4236E+01  0.4211E+01
      3.837  0.3674E+00  0.2886E+00  0.4322E+01  0.4279E+01
      4.068  0.3910E+00  0.3988E+00  0.4413E+01  0.4372E+01
      4.300  0.4687E+00  0.4102E+00  0.4522E+01  0.4468E+01
      4.532  0.5034E+00  0.5142E+00  0.4640E+01  0.4588E+01
      4.764  0.4895E+00  0.5235E+00  0.4754E+01  0.4710E+01
      4.995  0.4489E+00  0.4158E+00  0.4859E+01  0.4808E+01
      5.227  0.5829E+00  0.5445E+00  0.4995E+01  0.4935E+01
      5.459  0.6549E+00  0.4873E+00  0.5148E+01  0.5048E+01
      5.690  0.5562E+00  0.6061E+00  0.5277E+01  0.5190E+01
      5.922  0.5970E+00  0.5486E+00  0.5416E+01  0.5319E+01
      6.154  0.6053E+00  0.5353E+00  0.5558E+01  0.5444E+01
      6.385  0.6689E+00  0.4968E+00  0.5713E+01  0.5560E+01
      6.617  0.6917E+00  0.6705E+00  0.5875E+01  0.5716E+01
      6.849  0.8562E+00  0.6489E+00  0.6074E+01  0.5867E+01
      7.080  0.8914E+00  0.6627E+00  0.6281E+01  0.6022E+01
      7.312  0.1098E+01  0.7496E+00  0.6537E+01  0.6196E+01
      7.544  0.1174E+01  0.7461E+00  0.6810E+01  0.6370E+01
      7.776  0.1318E+01  0.9467E+00  0.7118E+01  0.6590E+01
      8.007  0.1214E+01  0.8781E+00  0.7402E+01  0.6795E+01
      8.239  0.1513E+01  0.1029E+01  0.7755E+01  0.7035E+01
      8.471  0.1458E+01  0.1167E+01  0.8095E+01  0.7307E+01
      8.702  0.1283E+01  0.1062E+01  0.8394E+01  0.7554E+01
      8.934  0.1013E+01  0.1713E+01  0.8633E+01  0.7952E+01
      9.166  0.9731E+00  0.9798E+00  0.8861E+01  0.8181E+01
      9.397  0.8336E+00  0.9145E+00  0.9056E+01  0.8394E+01
      9.629  0.1028E+01  0.8093E+00  0.9296E+01  0.8584E+01
      9.861  0.1869E+01  0.7976E+00  0.9730E+01  0.8771E+01
     10.093  0.3478E+01  0.7114E+00  0.1054E+02  0.8937E+01
     10.324  0.1783E+01  0.6648E+00  0.1096E+02  0.9093E+01
     10.556  0.1302E+01  0.7190E+00  0.1126E+02  0.9261E+01
     10.788  0.8617E+00  0.9901E+00  0.1146E+02  0.9492E+01
     11.019  0.8823E+00  0.1191E+01  0.1167E+02  0.9769E+01
     11.251  0.5116E+00  0.1263E+01  0.1179E+02  0.1006E+02
     11.483  0.6432E+00  0.9394E+00  0.1194E+02  0.1029E+02
     11.714  0.5123E+00  0.1821E+01  0.1206E+02  0.1071E+02
     11.946  0.5048E+00  0.2957E+01  0.1218E+02  0.1140E+02
     12.178  0.6041E+00  0.2127E+01  0.1232E+02  0.1189E+02
     12.409  0.8114E+00  0.9157E+00  0.1251E+02  0.1211E+02
     12.641  0.1179E+01  0.5631E+00  0.1278E+02  0.1225E+02
     12.873  0.1191E+01  0.8247E+00  0.1306E+02  0.1244E+02
     13.105  0.8469E+00  0.8575E+00  0.1326E+02  0.1264E+02
     13.336  0.7742E+00  0.9632E+00  0.1344E+02  0.1286E+02
     13.568  0.5653E+00  0.1146E+01  0.1357E+02  0.1313E+02
     13.800  0.6136E+00  0.8875E+00  0.1371E+02  0.1334E+02
     14.031  0.6476E+00  0.8789E+00  0.1387E+02  0.1354E+02
     14.263  0.6231E+00  0.6975E+00  0.1401E+02  0.1371E+02
     14.495  0.7329E+00  0.8367E+00  0.1418E+02  0.1390E+02
     14.726  0.9452E+00  0.7645E+00  0.1440E+02  0.1408E+02
     14.958  0.1109E+01  0.9864E+00  0.1466E+02  0.1431E+02
     15.190  0.1023E+01  0.1101E+01  0.1490E+02  0.1457E+02
     15.422  0.7004E+00  0.1003E+01  0.1506E+02  0.1480E+02
     15.653  0.7206E+00  0.6978E+00  0.1523E+02  0.1496E+02
     15.885  0.6939E+00  0.5336E+00  0.1539E+02  0.1509E+02
     16.117  0.7327E+00  0.7006E+00  0.1556E+02  0.1525E+02
     16.348  0.6992E+00  0.8066E+00  0.1573E+02  0.1544E+02
     16.580  0.9822E+00  0.1090E+01  0.1595E+02  0.1569E+02
     16.812  0.7030E+00  0.5760E+00  0.1612E+02  0.1583E+02
     17.043  0.6525E+00  0.8276E+00  0.1627E+02  0.1602E+02
     17.275  0.8738E+00  0.6988E+00  0.1647E+02  0.1618E+02
     17.507  0.6550E+00  0.1086E+01  0.1663E+02  0.1644E+02
     17.738  0.8080E+00  0.8140E+00  0.1682E+02  0.1663E+02
     17.970  0.8036E+00  0.8488E+00  0.1700E+02  0.1682E+02
     18.202  0.9230E+00  0.9784E+00  0.1722E+02  0.1705E+02
     18.434  0.9540E+00  0.9315E+00  0.1744E+02  0.1727E+02
     18.665  0.9449E+00  0.9081E+00  0.1766E+02  0.1748E+02
     18.897  0.9120E+00  0.1107E+01  0.1787E+02  0.1774E+02
     19.129  0.7909E+00  0.9340E+00  0.1806E+02  0.1796E+02
     19.360  0.7393E+00  0.6606E+00  0.1823E+02  0.1811E+02
     19.592  0.7882E+00  0.8118E+00  0.1841E+02  0.1830E+02
     19.824  0.7083E+00  0.7212E+00  0.1858E+02  0.1847E+02
     20.055  0.8591E+00  0.9283E+00  0.1878E+02  0.1869E+02
     20.287  0.8808E+00  0.7478E+00  0.1898E+02  0.1886E+02
     20.519  0.8851E+00  0.9054E+00  0.1919E+02  0.1907E+02
     20.751  0.5416E+00  0.5729E+00  0.1932E+02  0.1921E+02
     20.982  0.3463E+00  0.5721E+00  0.1940E+02  0.1934E+02
     21.214  0.3901E+00  0.4466E+00  0.1949E+02  0.1944E+02
     21.446  0.4011E+00  0.4787E+00  0.1958E+02  0.1956E+02
     21.677  0.3610E+00  0.4343E+00  0.1967E+02  0.1966E+02
     21.909  0.2209E+00  0.2329E+00  0.1972E+02  0.1971E+02
     22.141  0.1892E+00  0.2110E+00  0.1976E+02  0.1976E+02
     22.372  0.1500E+00  0.1662E+00  0.1980E+02  0.1980E+02
     22.604  0.1913E+00  0.1807E+00  0.1984E+02  0.1984E+02
     22.836  0.4426E-01  0.2900E-01  0.1985E+02  0.1985E+02
     23.067  0.1654E+00  0.1873E+00  0.1989E+02  0.1989E+02
     23.299  0.1518E+00  0.1707E+00  0.1993E+02  0.1993E+02
     23.531  0.6530E-01  0.4350E-01  0.1994E+02  0.1994E+02
     23.763  0.3562E-01  0.3827E-01  0.1995E+02  0.1995E+02
     23.994  0.1916E-01  0.2693E-01  0.1995E+02  0.1996E+02
     24.226  0.8883E-01  0.7116E-01  0.1997E+02  0.1997E+02
     24.458  0.7977E-01  0.5938E-01  0.1999E+02  0.1999E+02
     24.689  0.1200E-01  0.2653E-01  0.2000E+02  0.2000E+02
     24.921  0.0000E+00  0.5101E-02  0.2000E+02  0.2000E+02
     25.153  0.0000E+00  0.0000E+00  0.2000E+02  0.2000E+02
     25.384  0.1164E-05  0.2751E-06  0.2000E+02  0.2000E+02
     25.616  0.1177E-03  0.2799E-04  0.2000E+02  0.2000E+02
     25.848  0.6790E-02  0.2430E-02  0.2000E+02  0.2000E+02
     26.080  0.8615E-02  0.1248E-01  0.2000E+02  0.2000E+02
     26.311  0.0000E+00  0.7745E-03  0.2000E+02  0.2000E+02
     26.543  0.0000E+00  0.0000E+00  0.2000E+02  0.2000E+02
     26.775  0.0000E+00  0.0000E+00  0.2000E+02  0.2000E+02
     27.006  0.0000E+00  0.0000E+00  0.2000E+02  0.2000E+02
     27.238  0.0000E+00  0.0000E+00  0.2000E+02  0.2000E+02
     27.470  0.0000E+00  0.0000E+00  0.2000E+02  0.2000E+02
     27.701  0.0000E+00  0.0000E+00  0.2000E+02  0.2000E+02
     27.933  0.0000E+00  0.0000E+00  0.2000E+02  0.2000E+02
     28.165  0.0000E+00  0.0000E+00  0.2000E+02  0.2000E+02
     28.397  0.0000E+00  0.0000E+00  0.2000E+02  0.2000E+02
     28.628  0.0000E+00  0.0000E+00  0.2000E+02  0.2000E+02
     28.860  0.0000E+00  0.0000E+00  0.2000E+02  0.2000E+02
     29.092  0.0000E+00  0.0000E+00  0.2000E+02  0.2000E+02
     29.09159529    -40.41722330  301     11.35084102      1.00000000
    -40.417  0.0000E+00  0.0000E+00  0.0000E+00  0.0000E+00  0.0000E+00  0.0000E+00  0.0000E+00  0.0000E+00  0.0000E+00  0.0000E+00  0.0000E+00  0.0000E+00  0.0000E+00  0.0000E+00  0.0000E+00  0.0000E+00  0.0000E+00  0.0000E+00
    -40.186  0.0000E+00  0.0000E+00  0.0000E+00  0.0000E+00  0.0000E+00  0.0000E+00  0.0000E+00  0.0000E+00  0.0000E+00  0.0000E+00  0.0000E+00  0.0000E+00  0.0000E+00  0.0000E+00  0.0000E+00  0.0000E+00  0.0000E+00  0.0000E+00
    -39.954  0.0000E+00  0.0000E+00  0.0000E+00  0.0000E+00  0.0000E+00  0.0000E+00  0.0000E+00  0.0000E+00  0.0000E+00  0.0000E+00  0.0000E+00  0.0000E+00  0.0000E+00  0.0000E+00  0.0000E+00  0.0000E+00  0.0000E+00  0.0000E+00
    -39.722  0.0000E+00  0.0000E+00  0.0000E+00  0.0000E+00  0.0000E+00  0.0000E+00  0.0000E+00  0.0000E+00  0.0000E+00  0.0000E+00  0.0000E+00  0.0000E+00  0.0000E+00  0.0000E+00  0.0000E+00  0.0000E+00  0.0000E+00  0.0000E+00
    -39.490  0.0000E+00  0.0000E+00  0.0000E+00  0.0000E+00  0.0000E+00  0.0000E+00  0.0000E+00  0.0000E+00  0.0000E+00  0.0000E+00  0.0000E+00  0.0000E+00  0.0000E+00  0.0000E+00  0.0000E+00  0.0000E+00  0.0000E+00  0.0000E+00
    -39.259  0.0000E+00  0.0000E+00  0.0000E+00  0.0000E+00  0.0000E+00  0.0000E+00  0.0000E+00  0.0000E+00  0.0000E+00  0.0000E+00  0.0000E+00  0.0000E+00  0.0000E+00  0.0000E+00  0.0000E+00  0.0000E+00  0.0000E+00  0.0000E+00
    -39.027  0.0000E+00  0.0000E+00  0.0000E+00  0.0000E+00  0.0000E+00  0.0000E+00  0.0000E+00  0.0000E+00  0.0000E+00  0.0000E+00  0.0000E+00  0.0000E+00  0.0000E+00  0.0000E+00  0.0000E+00  0.0000E+00  0.0000E+00  0.0000E+00
    -38.795  0.0000E+00  0.0000E+00  0.0000E+00  0.0000E+00  0.0000E+00  0.0000E+00  0.0000E+00  0.0000E+00  0.0000E+00  0.0000E+00  0.0000E+00  0.0000E+00  0.0000E+00  0.0000E+00  0.0000E+00  0.0000E+00  0.0000E+00  0.0000E+00
    -38.564  0.0000E+00  0.0000E+00  0.0000E+00  0.0000E+00  0.0000E+00  0.0000E+00  0.0000E+00  0.0000E+00  0.0000E+00  0.0000E+00  0.0000E+00  0.0000E+00  0.0000E+00  0.0000E+00  0.0000E+00  0.0000E+00  0.0000E+00  0.0000E+00
    -38.332  0.0000E+00  0.0000E+00  0.0000E+00  0.0000E+00  0.0000E+00  0.0000E+00  0.0000E+00  0.0000E+00  0.0000E+00  0.0000E+00  0.0000E+00  0.0000E+00  0.0000E+00  0.0000E+00  0.0000E+00  0.0000E+00  0.0000E+00  0.0000E+00
    -38.100  0.0000E+00  0.0000E+00  0.0000E+00  0.0000E+00  0.0000E+00  0.0000E+00  0.0000E+00  0.0000E+00  0.0000E+00  0.0000E+00  0.0000E+00  0.0000E+00  0.0000E+00  0.0000E+00  0.0000E+00  0.0000E+00  0.0000E+00  0.0000E+00
    -37.869  0.1265E-11  0.0000E+00  0.1945E-04  0.0000E+00  0.1945E-04  0.0000E+00  0.1939E-04  0.0000E+00  0.2820E-13  0.0000E+00  0.2815E-13  0.0000E+00  0.9170E-12  0.0000E+00  0.2820E-13  0.0000E+00  0.9307E-12  0.0000E+00
    -37.637  0.1289E-09  0.0000E+00  0.1982E-02  0.0000E+00  0.1982E-02  0.0000E+00  0.1975E-02  0.0000E+00  0.2873E-11  0.0000E+00  0.2867E-11  0.0000E+00  0.9341E-10  0.0000E+00  0.2873E-11  0.0000E+00  0.9481E-10  0.0000E+00
    -37.405  0.1266E-07  0.0000E+00  0.1946E+00  0.0000E+00  0.1946E+00  0.0000E+00  0.1940E+00  0.0000E+00  0.2819E-09  0.0000E+00  0.2813E-09  0.0000E+00  0.9174E-08  0.0000E+00  0.2819E-09  0.0000E+00  0.9310E-08  0.0000E+00
    -37.173  0.2190E-06  0.0000E+00  0.3370E+01  0.0000E+00  0.3370E+01  0.0000E+00  0.3368E+01  0.0000E+00  0.4817E-08  0.0000E+00  0.4800E-08  0.0000E+00  0.1595E-06  0.0000E+00  0.4817E-08  0.0000E+00  0.1613E-06  0.0000E+00
    -36.942  0.4632E-07  0.0000E+00  0.7146E+00  0.0000E+00  0.7146E+00  0.0000E+00  0.7165E+00  0.0000E+00  0.1006E-08  0.0000E+00  0.1001E-08  0.0000E+00  0.3393E-07  0.0000E+00  0.1006E-08  0.0000E+00  0.3419E-07  0.0000E+00
    -36.710  0.0000E+00  0.0000E+00  0.0000E+00  0.0000E+00  0.0000E+00  0.0000E+00  0.0000E+00  0.0000E+00  0.0000E+00  0.0000E+00  0.0000E+00  0.0000E+00  0.0000E+00  0.0000E+00  0.0000E+00  0.0000E+00  0.0000E+00  0.0000E+00
    -36.478  0.0000E+00  0.0000E+00  0.0000E+00  0.0000E+00  0.0000E+00  0.0000E+00  0.0000E+00  0.0000E+00  0.0000E+00  0.0000E+00  0.0000E+00  0.0000E+00  0.0000E+00  0.0000E+00  0.0000E+00  0.0000E+00  0.0000E+00  0.0000E+00
    -36.247  0.0000E+00  0.0000E+00  0.0000E+00  0.0000E+00  0.0000E+00  0.0000E+00  0.0000E+00  0.0000E+00  0.0000E+00  0.0000E+00  0.0000E+00  0.0000E+00  0.0000E+00  0.0000E+00  0.0000E+00  0.0000E+00  0.0000E+00  0.0000E+00
    -36.015  0.0000E+00  0.3007E-10  0.0000E+00  0.3573E-03  0.0000E+00  0.3573E-03  0.0000E+00  0.3561E-03  0.0000E+00  0.7885E-12  0.0000E+00  0.7812E-12  0.0000E+00  0.2206E-10  0.0000E+00  0.7885E-12  0.0000E+00  0.2239E-10
    -35.783  0.0000E+00  0.3039E-08  0.0000E+00  0.3610E-01  0.0000E+00  0.3610E-01  0.0000E+00  0.3599E-01  0.0000E+00  0.7967E-10  0.0000E+00  0.7893E-10  0.0000E+00  0.2229E-08  0.0000E+00  0.7967E-10  0.0000E+00  0.2263E-08
    -35.552  0.0000E+00  0.1660E-06  0.0000E+00  0.1972E+01  0.0000E+00  0.1972E+01  0.0000E+00  0.1969E+01  0.0000E+00  0.4327E-08  0.0000E+00  0.4283E-08  0.0000E+00  0.1221E-06  0.0000E+00  0.4327E-08  0.0000E+00  0.1237E-06
    -35.320  0.0000E+00  0.1876E-06  0.0000E+00  0.2234E+01  0.0000E+00  0.2234E+01  0.0000E+00  0.2237E+01  0.0000E+00  0.4839E-08  0.0000E+00  0.4781E-08  0.0000E+00  0.1389E-06  0.0000E+00  0.4839E-08  0.0000E+00  0.1401E-06
    -35.088  0.0000E+00  0.0000E+00  0.0000E+00  0.0000E+00  0.0000E+00  0.0000E+00  0.0000E+00  0.0000E+00  0.0000E+00  0.0000E+00  0.0000E+00  0.0000E+00  0.0000E+00  0.0000E+00  0.0000E+00  0.0000E+00  0.0000E+00  0.0000E+00
    -34.857  0.0000E+00  0.0000E+00  0.0000E+00  0.0000E+00  0.0000E+00  0.0000E+00  0.0000E+00  0.0000E+00  0.0000E+00  0.0000E+00  0.0000E+00  0.0000E+00  0.0000E+00  0.0000E+00  0.0000E+00  0.0000E+00  0.0000E+00  0.0000E+00
    -34.625  0.0000E+00  0.0000E+00  0.0000E+00  0.0000E+00  0.0000E+00  0.0000E+00  0.0000E+00  0.0000E+00  0.0000E+00  0.0000E+00  0.0000E+00  0.0000E+00  0.0000E+00  0.0000E+00  0.0000E+00  0.0000E+00  0.0000E+00  0.0000E+00
    -34.393  0.0000E+00  0.0000E+00  0.0000E+00  0.0000E+00  0.0000E+00  0.0000E+00  0.0000E+00  0.0000E+00  0.0000E+00  0.0000E+00  0.0000E+00  0.0000E+00  0.0000E+00  0.0000E+00  0.0000E+00  0.0000E+00  0.0000E+00  0.0000E+00
    -34.161  0.0000E+00  0.0000E+00  0.0000E+00  0.0000E+00  0.0000E+00  0.0000E+00  0.0000E+00  0.0000E+00  0.0000E+00  0.0000E+00  0.0000E+00  0.0000E+00  0.0000E+00  0.0000E+00  0.0000E+00  0.0000E+00  0.0000E+00  0.0000E+00
    -33.930  0.0000E+00  0.0000E+00  0.0000E+00  0.0000E+00  0.0000E+00  0.0000E+00  0.0000E+00  0.0000E+00  0.0000E+00  0.0000E+00  0.0000E+00  0.0000E+00  0.0000E+00  0.0000E+00  0.0000E+00  0.0000E+00  0.0000E+00  0.0000E+00
    -33.698  0.0000E+00  0.0000E+00  0.0000E+00  0.0000E+00  0.0000E+00  0.0000E+00  0.0000E+00  0.0000E+00  0.0000E+00  0.0000E+00  0.0000E+00  0.0000E+00  0.0000E+00  0.0000E+00  0.0000E+00  0.0000E+00  0.0000E+00  0.0000E+00
    -33.466  0.0000E+00  0.0000E+00  0.0000E+00  0.0000E+00  0.0000E+00  0.0000E+00  0.0000E+00  0.0000E+00  0.0000E+00  0.0000E+00  0.0000E+00  0.0000E+00  0.0000E+00  0.0000E+00  0.0000E+00  0.0000E+00  0.0000E+00  0.0000E+00
    -33.235  0.0000E+00  0.0000E+00  0.0000E+00  0.0000E+00  0.0000E+00  0.0000E+00  0.0000E+00  0.0000E+00  0.0000E+00  0.0000E+00  0.0000E+00  0.0000E+00  0.0000E+00  0.0000E+00  0.0000E+00  0.0000E+00  0.0000E+00  0.0000E+00
    -33.003  0.0000E+00  0.0000E+00  0.0000E+00  0.0000E+00  0.0000E+00  0.0000E+00  0.0000E+00  0.0000E+00  0.0000E+00  0.0000E+00  0.0000E+00  0.0000E+00  0.0000E+00  0.0000E+00  0.0000E+00  0.0000E+00  0.0000E+00  0.0000E+00
    -32.771  0.0000E+00  0.0000E+00  0.0000E+00  0.0000E+00  0.0000E+00  0.0000E+00  0.0000E+00  0.0000E+00  0.0000E+00  0.0000E+00  0.0000E+00  0.0000E+00  0.0000E+00  0.0000E+00  0.0000E+00  0.0000E+00  0.0000E+00  0.0000E+00
    -32.540  0.0000E+00  0.0000E+00  0.0000E+00  0.0000E+00  0.0000E+00  0.0000E+00  0.0000E+00  0.0000E+00  0.0000E+00  0.0000E+00  0.0000E+00  0.0000E+00  0.0000E+00  0.0000E+00  0.0000E+00  0.0000E+00  0.0000E+00  0.0000E+00
    -32.308  0.0000E+00  0.0000E+00  0.0000E+00  0.0000E+00  0.0000E+00  0.0000E+00  0.0000E+00  0.0000E+00  0.0000E+00  0.0000E+00  0.0000E+00  0.0000E+00  0.0000E+00  0.0000E+00  0.0000E+00  0.0000E+00  0.0000E+00  0.0000E+00
    -32.076  0.0000E+00  0.0000E+00  0.0000E+00  0.0000E+00  0.0000E+00  0.0000E+00  0.0000E+00  0.0000E+00  0.0000E+00  0.0000E+00  0.0000E+00  0.0000E+00  0.0000E+00  0.0000E+00  0.0000E+00  0.0000E+00  0.0000E+00  0.0000E+00
    -31.844  0.0000E+00  0.0000E+00  0.0000E+00  0.0000E+00  0.0000E+00  0.0000E+00  0.0000E+00  0.0000E+00  0.0000E+00  0.0000E+00  0.0000E+00  0.0000E+00  0.0000E+00  0.0000E+00  0.0000E+00  0.0000E+00  0.0000E+00  0.0000E+00
    -31.613  0.0000E+00  0.0000E+00  0.0000E+00  0.0000E+00  0.0000E+00  0.0000E+00  0.0000E+00  0.0000E+00  0.0000E+00  0.0000E+00  0.0000E+00  0.0000E+00  0.0000E+00  0.0000E+00  0.0000E+00  0.0000E+00  0.0000E+00  0.0000E+00
    -31.381  0.0000E+00  0.0000E+00  0.0000E+00  0.0000E+00  0.0000E+00  0.0000E+00  0.0000E+00  0.0000E+00  0.0000E+00  0.0000E+00  0.0000E+00  0.0000E+00  0.0000E+00  0.0000E+00  0.0000E+00  0.0000E+00  0.0000E+00  0.0000E+00
    -31.149  0.0000E+00  0.0000E+00  0.0000E+00  0.0000E+00  0.0000E+00  0.0000E+00  0.0000E+00  0.0000E+00  0.0000E+00  0.0000E+00  0.0000E+00  0.0000E+00  0.0000E+00  0.0000E+00  0.0000E+00  0.0000E+00  0.0000E+00  0.0000E+00
    -30.918  0.0000E+00  0.0000E+00  0.0000E+00  0.0000E+00  0.0000E+00  0.0000E+00  0.0000E+00  0.0000E+00  0.0000E+00  0.0000E+00  0.0000E+00  0.0000E+00  0.0000E+00  0.0000E+00  0.0000E+00  0.0000E+00  0.0000E+00  0.0000E+00
    -30.686  0.0000E+00  0.0000E+00  0.0000E+00  0.0000E+00  0.0000E+00  0.0000E+00  0.0000E+00  0.0000E+00  0.0000E+00  0.0000E+00  0.0000E+00  0.0000E+00  0.0000E+00  0.0000E+00  0.0000E+00  0.0000E+00  0.0000E+00  0.0000E+00
    -30.454  0.0000E+00  0.0000E+00  0.0000E+00  0.0000E+00  0.0000E+00  0.0000E+00  0.0000E+00  0.0000E+00  0.0000E+00  0.0000E+00  0.0000E+00  0.0000E+00  0.0000E+00  0.0000E+00  0.0000E+00  0.0000E+00  0.0000E+00  0.0000E+00
    -30.223  0.0000E+00  0.0000E+00  0.0000E+00  0.0000E+00  0.0000E+00  0.0000E+00  0.0000E+00  0.0000E+00  0.0000E+00  0.0000E+00  0.0000E+00  0.0000E+00  0.0000E+00  0.0000E+00  0.0000E+00  0.0000E+00  0.0000E+00  0.0000E+00
    -29.991  0.0000E+00  0.0000E+00  0.0000E+00  0.0000E+00  0.0000E+00  0.0000E+00  0.0000E+00  0.0000E+00  0.0000E+00  0.0000E+00  0.0000E+00  0.0000E+00  0.0000E+00  0.0000E+00  0.0000E+00  0.0000E+00  0.0000E+00  0.0000E+00
    -29.759  0.0000E+00  0.0000E+00  0.0000E+00  0.0000E+00  0.0000E+00  0.0000E+00  0.0000E+00  0.0000E+00  0.0000E+00  0.0000E+00  0.0000E+00  0.0000E+00  0.0000E+00  0.0000E+00  0.0000E+00  0.0000E+00  0.0000E+00  0.0000E+00
    -29.528  0.0000E+00  0.0000E+00  0.0000E+00  0.0000E+00  0.0000E+00  0.0000E+00  0.0000E+00  0.0000E+00  0.0000E+00  0.0000E+00  0.0000E+00  0.0000E+00  0.0000E+00  0.0000E+00  0.0000E+00  0.0000E+00  0.0000E+00  0.0000E+00
    -29.296  0.0000E+00  0.0000E+00  0.0000E+00  0.0000E+00  0.0000E+00  0.0000E+00  0.0000E+00  0.0000E+00  0.0000E+00  0.0000E+00  0.0000E+00  0.0000E+00  0.0000E+00  0.0000E+00  0.0000E+00  0.0000E+00  0.0000E+00  0.0000E+00
    -29.064  0.0000E+00  0.0000E+00  0.0000E+00  0.0000E+00  0.0000E+00  0.0000E+00  0.0000E+00  0.0000E+00  0.0000E+00  0.0000E+00  0.0000E+00  0.0000E+00  0.0000E+00  0.0000E+00  0.0000E+00  0.0000E+00  0.0000E+00  0.0000E+00
    -28.832  0.0000E+00  0.0000E+00  0.0000E+00  0.0000E+00  0.0000E+00  0.0000E+00  0.0000E+00  0.0000E+00  0.0000E+00  0.0000E+00  0.0000E+00  0.0000E+00  0.0000E+00  0.0000E+00  0.0000E+00  0.0000E+00  0.0000E+00  0.0000E+00