   4   4   1   0
  0.1041249E+02  0.3465762E-09  0.3466633E-09  0.3466633E-09  0.5000000E-15
  1.000000000000000E-004
  CAR 
 unknown system                          
     32.13658475    -38.58943175  301     13.08849874      1.00000000
    -38.589  0.0000E+00  0.0000E+00  0.0000E+00  0.0000E+00
    -38.354  0.0000E+00  0.0000E+00  0.0000E+00  0.0000E+00
    -38.118  0.0000E+00  0.0000E+00  0.0000E+00  0.0000E+00
    -37.882  0.0000E+00  0.0000E+00  0.0000E+00  0.0000E+00
    -37.646  0.0000E+00  0.0000E+00  0.0000E+00  0.0000E+00
    -37.411  0.0000E+00  0.0000E+00  0.0000E+00  0.0000E+00
    -37.175  0.0000E+00  0.0000E+00  0.0000E+00  0.0000E+00
    -36.939  0.0000E+00  0.0000E+00  0.0000E+00  0.0000E+00
    -36.703  0.0000E+00  0.0000E+00  0.0000E+00  0.0000E+00
    -36.468  0.0000E+00  0.0000E+00  0.0000E+00  0.0000E+00
    -36.232  0.0000E+00  0.0000E+00  0.0000E+00  0.0000E+00
    -35.996  0.3483E-04  0.0000E+00  0.8212E-05  0.0000E+00
    -35.760  0.4765E-02  0.0000E+00  0.1132E-02  0.0000E+00
    -35.525  0.5093E+00  0.0000E+00  0.1212E+00  0.0000E+00
    -35.289  0.9964E+01  0.0000E+00  0.2470E+01  0.0000E+00
    -35.053  0.2223E+01  0.0000E+00  0.2994E+01  0.0000E+00
    -34.817  0.0000E+00  0.0000E+00  0.3000E+01  0.0000E+00
    -34.582  0.0000E+00  0.0000E+00  0.3000E+01  0.0000E+00
    -34.346  0.0000E+00  0.1068E-02  0.3000E+01  0.2518E-03
    -34.110  0.0000E+00  0.1170E+00  0.3000E+01  0.2785E-01
    -33.874  0.0000E+00  0.6368E+01  0.3000E+01  0.1529E+01
    -33.639  0.0000E+00  0.6130E+01  0.3000E+01  0.2974E+01
    -33.403  0.0000E+00  0.0000E+00  0.3000E+01  0.3000E+01
    -33.167  0.0000E+00  0.0000E+00  0.3000E+01  0.3000E+01
    -32.931  0.0000E+00  0.0000E+00  0.3000E+01  0.3000E+01
    -32.696  0.0000E+00  0.0000E+00  0.3000E+01  0.3000E+01
    -32.460  0.0000E+00  0.0000E+00  0.3000E+01  0.3000E+01
    -32.224  0.0000E+00  0.0000E+00  0.3000E+01  0.3000E+01
    -31.988  0.0000E+00  0.0000E+00  0.3000E+01  0.3000E+01
    -31.753  0.0000E+00  0.0000E+00  0.3000E+01  0.3000E+01
    -31.517  0.0000E+00  0.0000E+00  0.3000E+01  0.3000E+01
    -31.281  0.0000E+00  0.0000E+00  0.3000E+01  0.3000E+01
    -31.045  0.0000E+00  0.0000E+00  0.3000E+01  0.3000E+01
    -30.810  0.0000E+00  0.0000E+00  0.3000E+01  0.3000E+01
    -30.574  0.0000E+00  0.0000E+00  0.3000E+01  0.3000E+01
    -30.338  0.0000E+00  0.0000E+00  0.3000E+01  0.3000E+01
    -30.102  0.0000E+00  0.0000E+00  0.3000E+01  0.3000E+01
    -29.867  0.0000E+00  0.0000E+00  0.3000E+01  0.3000E+01
    -29.631  0.0000E+00  0.0000E+00  0.3000E+01  0.3000E+01
    -29.395  0.0000E+00  0.0000E+00  0.3000E+01  0.3000E+01
    -29.159  0.0000E+00  0.0000E+00  0.3000E+01  0.3000E+01
    -28.924  0.0000E+00  0.0000E+00  0.3000E+01  0.3000E+01
    -28.688  0.0000E+00  0.0000E+00  0.3000E+01  0.3000E+01
    -28.452  0.0000E+00  0.0000E+00  0.3000E+01  0.3000E+01
    -28.216  0.0000E+00  0.0000E+00  0.3000E+01  0.3000E+01
    -27.981  0.0000E+00  0.0000E+00  0.3000E+01  0.3000E+01
    -27.745  0.0000E+00  0.0000E+00  0.3000E+01  0.3000E+01
    -27.509  0.0000E+00  0.0000E+00  0.3000E+01  0.3000E+01
    -27.273  0.0000E+00  0.0000E+00  0.3000E+01  0.3000E+01
    -27.038  0.0000E+00  0.0000E+00  0.3000E+01  0.3000E+01
    -26.802  0.0000E+00  0.0000E+00  0.3000E+01  0.3000E+01
    -26.566  0.0000E+00  0.0000E+00  0.3000E+01  0.3000E+01
    -26.330  0.0000E+00  0.0000E+00  0.3000E+01  0.3000E+01
    -26.095  0.0000E+00  0.0000E+00  0.3000E+01  0.3000E+01
    -25.859  0.0000E+00  0.0000E+00  0.3000E+01  0.3000E+01
    -25.623  0.0000E+00  0.0000E+00  0.3000E+01  0.3000E+01
    -25.387  0.0000E+00  0.0000E+00  0.3000E+01  0.3000E+01
    -25.151  0.0000E+00  0.0000E+00  0.3000E+01  0.3000E+01
    -24.916  0.0000E+00  0.0000E+00  0.3000E+01  0.3000E+01
    -24.680  0.0000E+00  0.0000E+00  0.3000E+01  0.3000E+01
    -24.444  0.0000E+00  0.0000E+00  0.3000E+01  0.3000E+01
    -24.208  0.0000E+00  0.0000E+00  0.3000E+01  0.3000E+01
    -23.973  0.0000E+00  0.0000E+00  0.3000E+01  0.3000E+01
    -23.737  0.0000E+00  0.0000E+00  0.3000E+01  0.3000E+01
    -23.501  0.0000E+00  0.0000E+00  0.3000E+01  0.3000E+01
    -23.265  0.0000E+00  0.0000E+00  0.3000E+01  0.3000E+01
    -23.030  0.0000E+00  0.0000E+00  0.3000E+01  0.3000E+01
    -22.794  0.0000E+00  0.0000E+00  0.3000E+01  0.3000E+01
    -22.558  0.0000E+00  0.0000E+00  0.3000E+01  0.3000E+01
    -22.322  0.0000E+00  0.0000E+00  0.3000E+01  0.3000E+01
    -22.087  0.0000E+00  0.0000E+00  0.3000E+01  0.3000E+01
    -21.851  0.0000E+00  0.0000E+00  0.3000E+01  0.3000E+01
    -21.615  0.0000E+00  0.0000E+00  0.3000E+01  0.3000E+01
    -21.379  0.0000E+00  0.0000E+00  0.3000E+01  0.3000E+01
    -21.144  0.0000E+00  0.0000E+00  0.3000E+01  0.3000E+01
    -20.908  0.0000E+00  0.0000E+00  0.3000E+01  0.3000E+01
    -20.672  0.0000E+00  0.0000E+00  0.3000E+01  0.3000E+01
    -20.436  0.0000E+00  0.0000E+00  0.3000E+01  0.3000E+01
    -20.201  0.0000E+00  0.0000E+00  0.3000E+01  0.3000E+01
    -19.965  0.0000E+00  0.0000E+00  0.3000E+01  0.3000E+01
    -19.729  0.0000E+00  0.0000E+00  0.3000E+01  0.3000E+01
    -19.493  0.0000E+00  0.0000E+00  0.3000E+01  0.3000E+01
    -19.258  0.0000E+00  0.0000E+00  0.3000E+01  0.3000E+01
    -19.022  0.0000E+00  0.0000E+00  0.3000E+01  0.3000E+01
    -18.786  0.0000E+00  0.0000E+00  0.3000E+01  0.3000E+01
    -18.550  0.0000E+00  0.0000E+00  0.3000E+01  0.3000E+01
    -18.315  0.0000E+00  0.0000E+00  0.3000E+01  0.3000E+01
    -18.079  0.0000E+00  0.0000E+00  0.3000E+01  0.3000E+01
    -17.843  0.0000E+00  0.0000E+00  0.3000E+01  0.3000E+01
    -17.607  0.0000E+00  0.0000E+00  0.3000E+01  0.3000E+01
    -17.372  0.0000E+00  0.0000E+00  0.3000E+01  0.3000E+01
    -17.136  0.0000E+00  0.0000E+00  0.3000E+01  0.3000E+01
    -16.900  0.0000E+00  0.0000E+00  0.3000E+01  0.3000E+01
    -16.664  0.0000E+00  0.0000E+00  0.3000E+01  0.3000E+01
    -16.429  0.0000E+00  0.0000E+00  0.3000E+01  0.3000E+01
    -16.193  0.0000E+00  0.0000E+00  0.3000E+01  0.3000E+01
    -15.957  0.0000E+00  0.0000E+00  0.3000E+01  0.3000E+01
    -15.721  0.0000E+00  0.0000E+00  0.3000E+01  0.3000E+01
    -15.486  0.0000E+00  0.0000E+00  0.3000E+01  0.3000E+01
    -15.250  0.0000E+00  0.0000E+00  0.3000E+01  0.3000E+01
    -15.014  0.0000E+00  0.0000E+00  0.3000E+01  0.3000E+01
    -14.778  0.0000E+00  0.0000E+00  0.3000E+01  0.3000E+01
    -14.543  0.0000E+00  0.0000E+00  0.3000E+01  0.3000E+01
    -14.307  0.0000E+00  0.0000E+00  0.3000E+01  0.3000E+01
    -14.071  0.0000E+00  0.0000E+00  0.3000E+01  0.3000E+01
    -13.835  0.0000E+00  0.0000E+00  0.3000E+01  0.3000E+01
    -13.600  0.0000E+00  0.0000E+00  0.3000E+01  0.3000E+01
    -13.364  0.0000E+00  0.0000E+00  0.3000E+01  0.3000E+01
    -13.128  0.0000E+00  0.0000E+00  0.3000E+01  0.3000E+01
    -12.892  0.0000E+00  0.0000E+00  0.3000E+01  0.3000E+01
    -12.657  0.0000E+00  0.0000E+00  0.3000E+01  0.3000E+01
    -12.421  0.0000E+00  0.0000E+00  0.3000E+01  0.3000E+01
    -12.185  0.0000E+00  0.0000E+00  0.3000E+01  0.3000E+01
    -11.949  0.0000E+00  0.0000E+00  0.3000E+01  0.3000E+01
    -11.714  0.0000E+00  0.0000E+00  0.3000E+01  0.3000E+01
    -11.478  0.0000E+00  0.0000E+00  0.3000E+01  0.3000E+01
    -11.242  0.0000E+00  0.0000E+00  0.3000E+01  0.3000E+01
    -11.006  0.0000E+00  0.0000E+00  0.3000E+01  0.3000E+01
    -10.771  0.0000E+00  0.0000E+00  0.3000E+01  0.3000E+01
    -10.535  0.0000E+00  0.0000E+00  0.3000E+01  0.3000E+01
    -10.299  0.0000E+00  0.0000E+00  0.3000E+01  0.3000E+01
    -10.063  0.0000E+00  0.0000E+00  0.3000E+01  0.3000E+01
     -9.828  0.0000E+00  0.0000E+00  0.3000E+01  0.3000E+01
     -9.592  0.0000E+00  0.0000E+00  0.3000E+01  0.3000E+01
     -9.356  0.0000E+00  0.0000E+00  0.3000E+01  0.3000E+01
     -9.120  0.0000E+00  0.0000E+00  0.3000E+01  0.3000E+01
     -8.885  0.0000E+00  0.0000E+00  0.3000E+01  0.3000E+01
     -8.649  0.0000E+00  0.0000E+00  0.3000E+01  0.3000E+01
     -8.413  0.0000E+00  0.0000E+00  0.3000E+01  0.3000E+01
     -8.177  0.0000E+00  0.0000E+00  0.3000E+01  0.3000E+01
     -7.941  0.0000E+00  0.0000E+00  0.3000E+01  0.3000E+01
     -7.706  0.0000E+00  0.0000E+00  0.3000E+01  0.3000E+01
     -7.470  0.0000E+00  0.0000E+00  0.3000E+01  0.3000E+01
     -7.234  0.0000E+00  0.0000E+00  0.3000E+01  0.3000E+01
     -6.998  0.0000E+00  0.0000E+00  0.3000E+01  0.3000E+01
     -6.763  0.0000E+00  0.0000E+00  0.3000E+01  0.3000E+01
     -6.527  0.0000E+00  0.0000E+00  0.3000E+01  0.3000E+01
     -6.291  0.0000E+00  0.0000E+00  0.3000E+01  0.3000E+01
     -6.055  0.0000E+00  0.0000E+00  0.3000E+01  0.3000E+01
     -5.820  0.0000E+00  0.0000E+00  0.3000E+01  0.3000E+01
     -5.584  0.0000E+00  0.0000E+00  0.3000E+01  0.3000E+01
     -5.348  0.0000E+00  0.0000E+00  0.3000E+01  0.3000E+01
     -5.112  0.0000E+00  0.0000E+00  0.3000E+01  0.3000E+01
     -4.877  0.0000E+00  0.0000E+00  0.3000E+01  0.3000E+01
     -4.641  0.0000E+00  0.0000E+00  0.3000E+01  0.3000E+01
     -4.405  0.0000E+00  0.0000E+00  0.3000E+01  0.3000E+01
     -4.169  0.0000E+00  0.0000E+00  0.3000E+01  0.3000E+01
     -3.934  0.0000E+00  0.0000E+00  0.3000E+01  0.3000E+01
     -3.698  0.0000E+00  0.0000E+00  0.3000E+01  0.3000E+01
     -3.462  0.0000E+00  0.0000E+00  0.3000E+01  0.3000E+01
     -3.226  0.0000E+00  0.0000E+00  0.3000E+01  0.3000E+01
     -2.991  0.0000E+00  0.0000E+00  0.3000E+01  0.3000E+01
     -2.755  0.0000E+00  0.0000E+00  0.3000E+01  0.3000E+01
     -2.519  0.0000E+00  0.0000E+00  0.3000E+01  0.3000E+01
     -2.283  0.0000E+00  0.0000E+00  0.3000E+01  0.3000E+01
     -2.048  0.0000E+00  0.0000E+00  0.3000E+01  0.3000E+01
     -1.812  0.0000E+00  0.0000E+00  0.3000E+01  0.3000E+01
     -1.576  0.0000E+00  0.0000E+00  0.3000E+01  0.3000E+01
     -1.340  0.0000E+00  0.0000E+00  0.3000E+01  0.3000E+01
     -1.105  0.0000E+00  0.0000E+00  0.3000E+01  0.3000E+01
     -0.869  0.2327E-06  0.2340E-07  0.3000E+01  0.3000E+01
     -0.633  0.3373E-04  0.8005E-05  0.3000E+01  0.3000E+01
     -0.397  0.3056E-02  0.8412E-03  0.3001E+01  0.3000E+01
     -0.162  0.3901E-01  0.2448E-01  0.3010E+01  0.3006E+01
      0.074  0.8549E-01  0.7046E-01  0.3030E+01  0.3023E+01
      0.310  0.9898E-01  0.9293E-01  0.3053E+01  0.3045E+01
      0.546  0.1331E+00  0.1325E+00  0.3085E+01  0.3076E+01
      0.781  0.1383E+00  0.1419E+00  0.3118E+01  0.3110E+01
      1.017  0.1840E+00  0.1610E+00  0.3162E+01  0.3148E+01
      1.253  0.1850E+00  0.1964E+00  0.3205E+01  0.3195E+01
      1.489  0.1843E+00  0.1574E+00  0.3249E+01  0.3232E+01
      1.724  0.2497E+00  0.2497E+00  0.3308E+01  0.3291E+01
      1.960  0.1996E+00  0.2167E+00  0.3355E+01  0.3343E+01
      2.196  0.2932E+00  0.2760E+00  0.3425E+01  0.3409E+01
      2.432  0.2735E+00  0.2818E+00  0.3490E+01  0.3475E+01
      2.667  0.3261E+00  0.3127E+00  0.3567E+01  0.3550E+01
      2.903  0.2526E+00  0.2885E+00  0.3627E+01  0.3618E+01
      3.139  0.2756E+00  0.2372E+00  0.3693E+01  0.3675E+01
      3.375  0.2815E+00  0.2816E+00  0.3760E+01  0.3742E+01
      3.610  0.3142E+00  0.2520E+00  0.3834E+01  0.3802E+01
      3.846  0.3248E+00  0.3809E+00  0.3912E+01  0.3892E+01
      4.082  0.3119E+00  0.2507E+00  0.3986E+01  0.3952E+01
      4.318  0.3196E+00  0.3372E+00  0.4062E+01  0.4032E+01
      4.553  0.3692E+00  0.2745E+00  0.4150E+01  0.4098E+01
      4.789  0.3239E+00  0.4087E+00  0.4226E+01  0.4195E+01
      5.025  0.3030E+00  0.2476E+00  0.4298E+01  0.4255E+01
      5.261  0.3723E+00  0.3823E+00  0.4387E+01  0.4346E+01
      5.496  0.4049E+00  0.3431E+00  0.4484E+01  0.4427E+01
      5.732  0.4536E+00  0.4716E+00  0.4591E+01  0.4538E+01
      5.968  0.4565E+00  0.4443E+00  0.4701E+01  0.4643E+01
      6.204  0.4436E+00  0.4609E+00  0.4807E+01  0.4752E+01
      6.439  0.4843E+00  0.3985E+00  0.4923E+01  0.4847E+01
      6.675  0.5779E+00  0.5327E+00  0.5059E+01  0.4973E+01
      6.911  0.6363E+00  0.5552E+00  0.5210E+01  0.5106E+01
      7.147  0.5182E+00  0.5350E+00  0.5334E+01  0.5232E+01
      7.382  0.5973E+00  0.5524E+00  0.5475E+01  0.5363E+01
      7.618  0.6452E+00  0.4901E+00  0.5629E+01  0.5479E+01
      7.854  0.6454E+00  0.5807E+00  0.5782E+01  0.5617E+01
      8.090  0.7095E+00  0.6014E+00  0.5951E+01  0.5759E+01
      8.325  0.8838E+00  0.6516E+00  0.6160E+01  0.5915E+01
      8.561  0.9324E+00  0.7329E+00  0.6382E+01  0.6089E+01
      8.797  0.1189E+01  0.6961E+00  0.6664E+01  0.6254E+01
      9.033  0.1137E+01  0.8663E+00  0.6934E+01  0.6460E+01
      9.269  0.1150E+01  0.9621E+00  0.7206E+01  0.6688E+01
      9.504  0.1123E+01  0.8748E+00  0.7472E+01  0.6897E+01
      9.740  0.1421E+01  0.1242E+01  0.7809E+01  0.7192E+01
      9.976  0.1278E+01  0.9816E+00  0.8113E+01  0.7425E+01
     10.212  0.1125E+01  0.1408E+01  0.8381E+01  0.7759E+01
     10.447  0.9432E+00  0.1234E+01  0.8606E+01  0.8051E+01
     10.683  0.8208E+00  0.9913E+00  0.8803E+01  0.8288E+01
     10.919  0.8112E+00  0.7718E+00  0.8994E+01  0.8471E+01
     11.155  0.6975E+00  0.7537E+00  0.9160E+01  0.8650E+01
     11.390  0.9687E+00  0.7142E+00  0.9390E+01  0.8820E+01
     11.626  0.1359E+01  0.6908E+00  0.9712E+01  0.8984E+01
     11.862  0.2988E+01  0.5632E+00  0.1042E+02  0.9118E+01
     12.098  0.1987E+01  0.7175E+00  0.1089E+02  0.9288E+01
     12.333  0.1190E+01  0.8506E+00  0.1118E+02  0.9490E+01
     12.569  0.9813E+00  0.9906E+00  0.1141E+02  0.9725E+01
     12.805  0.7821E+00  0.1209E+01  0.1160E+02  0.1001E+02
     13.041  0.6265E+00  0.7440E+00  0.1174E+02  0.1019E+02
     13.276  0.5105E+00  0.1111E+01  0.1187E+02  0.1045E+02
     13.512  0.5479E+00  0.2445E+01  0.1200E+02  0.1103E+02
     13.748  0.4171E+00  0.2525E+01  0.1210E+02  0.1163E+02
     13.984  0.5321E+00  0.1166E+01  0.1222E+02  0.1191E+02
     14.219  0.5662E+00  0.7197E+00  0.1236E+02  0.1208E+02
     14.455  0.7023E+00  0.4791E+00  0.1252E+02  0.1220E+02
     14.691  0.7777E+00  0.6870E+00  0.1271E+02  0.1236E+02
     14.927  0.1172E+01  0.7670E+00  0.1298E+02  0.1254E+02
     15.162  0.8711E+00  0.7832E+00  0.1319E+02  0.1273E+02
     15.398  0.6225E+00  0.7956E+00  0.1334E+02  0.1292E+02
     15.634  0.6959E+00  0.7864E+00  0.1351E+02  0.1311E+02
     15.870  0.4718E+00  0.8496E+00  0.1362E+02  0.1331E+02
     16.105  0.6525E+00  0.7974E+00  0.1377E+02  0.1350E+02
     16.341  0.6706E+00  0.5868E+00  0.1393E+02  0.1364E+02
     16.577  0.5236E+00  0.7591E+00  0.1406E+02  0.1382E+02
     16.813  0.7777E+00  0.8015E+00  0.1424E+02  0.1401E+02
     17.048  0.9107E+00  0.7273E+00  0.1446E+02  0.1418E+02
     17.284  0.9917E+00  0.9923E+00  0.1469E+02  0.1441E+02
     17.520  0.8704E+00  0.1063E+01  0.1490E+02  0.1467E+02
     17.756  0.5331E+00  0.7385E+00  0.1503E+02  0.1484E+02
     17.991  0.6753E+00  0.3971E+00  0.1519E+02  0.1494E+02
     18.227  0.7525E+00  0.4751E+00  0.1536E+02  0.1505E+02
     18.463  0.8181E+00  0.7215E+00  0.1556E+02  0.1522E+02
     18.699  0.6034E+00  0.8371E+00  0.1570E+02  0.1542E+02
     18.934  0.8800E+00  0.8155E+00  0.1591E+02  0.1561E+02
     19.170  0.7387E+00  0.7958E+00  0.1609E+02  0.1580E+02
     19.406  0.4318E+00  0.8330E+00  0.1619E+02  0.1600E+02
     19.642  0.8159E+00  0.5265E+00  0.1638E+02  0.1613E+02
     19.877  0.7990E+00  0.8381E+00  0.1657E+02  0.1632E+02
     20.113  0.7090E+00  0.9975E+00  0.1674E+02  0.1656E+02
     20.349  0.7146E+00  0.7644E+00  0.1691E+02  0.1674E+02
     20.585  0.6652E+00  0.7451E+00  0.1707E+02  0.1692E+02
     20.820  0.8945E+00  0.8243E+00  0.1728E+02  0.1711E+02
     21.056  0.1100E+01  0.9800E+00  0.1754E+02  0.1735E+02
     21.292  0.8072E+00  0.1006E+01  0.1774E+02  0.1759E+02
     21.528  0.7777E+00  0.8993E+00  0.1792E+02  0.1780E+02
     21.763  0.6909E+00  0.7856E+00  0.1808E+02  0.1799E+02
     21.999  0.8086E+00  0.7474E+00  0.1828E+02  0.1817E+02
     22.235  0.5302E+00  0.6122E+00  0.1840E+02  0.1831E+02
     22.471  0.5513E+00  0.6116E+00  0.1853E+02  0.1846E+02
     22.706  0.8497E+00  0.7564E+00  0.1873E+02  0.1864E+02
     22.942  0.9069E+00  0.7987E+00  0.1895E+02  0.1883E+02
     23.178  0.7020E+00  0.7963E+00  0.1912E+02  0.1902E+02
     23.414  0.5556E+00  0.6241E+00  0.1925E+02  0.1916E+02
     23.649  0.6247E+00  0.5805E+00  0.1940E+02  0.1930E+02
     23.885  0.4099E+00  0.6930E+00  0.1950E+02  0.1947E+02
     24.121  0.3558E+00  0.3483E+00  0.1958E+02  0.1955E+02
     24.357  0.3018E+00  0.3751E+00  0.1965E+02  0.1964E+02
     24.592  0.2880E+00  0.2812E+00  0.1972E+02  0.1971E+02
     24.828  0.1564E+00  0.1685E+00  0.1976E+02  0.1975E+02
     25.064  0.1633E+00  0.1675E+00  0.1980E+02  0.1979E+02
     25.300  0.1693E+00  0.1831E+00  0.1984E+02  0.1983E+02
     25.535  0.5596E-01  0.5397E-01  0.1985E+02  0.1984E+02
     25.771  0.1876E+00  0.2088E+00  0.1990E+02  0.1989E+02
     26.007  0.1351E+00  0.1579E+00  0.1993E+02  0.1993E+02
     26.243  0.4418E-01  0.4645E-01  0.1994E+02  0.1994E+02
     26.479  0.3371E-01  0.3969E-01  0.1995E+02  0.1995E+02
     26.714  0.3374E-01  0.3701E-01  0.1996E+02  0.1996E+02
     26.950  0.9597E-01  0.7596E-01  0.1998E+02  0.1998E+02
     27.186  0.6946E-01  0.6606E-01  0.1999E+02  0.1999E+02
     27.422  0.7856E-02  0.1401E-01  0.2000E+02  0.2000E+02
     27.657  0.0000E+00  0.0000E+00  0.2000E+02  0.2000E+02
     27.893  0.0000E+00  0.0000E+00  0.2000E+02  0.2000E+02
     28.129  0.1879E-06  0.0000E+00  0.2000E+02  0.2000E+02
     28.365  0.2076E-04  0.2232E-06  0.2000E+02  0.2000E+02
     28.600  0.2012E-02  0.2465E-04  0.2000E+02  0.2000E+02
     28.836  0.1255E-01  0.2332E-02  0.2000E+02  0.2000E+02
     29.072  0.8539E-03  0.1236E-01  0.2000E+02  0.2000E+02
     29.308  0.0000E+00  0.7253E-03  0.2000E+02  0.2000E+02
     29.543  0.0000E+00  0.0000E+00  0.2000E+02  0.2000E+02
     29.779  0.0000E+00  0.0000E+00  0.2000E+02  0.2000E+02
     30.015  0.0000E+00  0.0000E+00  0.2000E+02  0.2000E+02
     30.251  0.0000E+00  0.0000E+00  0.2000E+02  0.2000E+02
     30.486  0.0000E+00  0.0000E+00  0.2000E+02  0.2000E+02
     30.722  0.0000E+00  0.0000E+00  0.2000E+02  0.2000E+02
     30.958  0.0000E+00  0.0000E+00  0.2000E+02  0.2000E+02
     31.194  0.0000E+00  0.0000E+00  0.2000E+02  0.2000E+02
     31.429  0.0000E+00  0.0000E+00  0.2000E+02  0.2000E+02
     31.665  0.0000E+00  0.0000E+00  0.2000E+02  0.2000E+02
     31.901  0.0000E+00  0.0000E+00  0.2000E+02  0.2000E+02
     32.137  0.0000E+00  0.0000E+00  0.2000E+02  0.2000E+02
     32.13658475    -38.58943175  301     13.08849874      1.00000000
    -38.589  0.0000E+00  0.0000E+00  0.0000E+00  0.0000E+00  0.0000E+00  0.0000E+00  0.0000E+00  0.0000E+00  0.0000E+00  0.0000E+00  0.0000E+00  0.0000E+00  0.0000E+00  0.0000E+00  0.0000E+00  0.0000E+00  0.0000E+00  0.0000E+00
    -38.354  0.0000E+00  0.0000E+00  0.0000E+00  0.0000E+00  0.0000E+00  0.0000E+00  0.0000E+00  0.0000E+00  0.0000E+00  0.0000E+00  0.0000E+00  0.0000E+00  0.0000E+00  0.0000E+00  0.0000E+00  0.0000E+00  0.0000E+00  0.0000E+00
    -38.118  0.0000E+00  0.0000E+00  0.0000E+00  0.0000E+00  0.0000E+00  0.0000E+00  0.0000E+00  0.0000E+00  0.0000E+00  0.0000E+00  0.0000E+00  0.0000E+00  0.0000E+00  0.0000E+00  0.0000E+00  0.0000E+00  0.0000E+00  0.0000E+00
    -37.882  0.0000E+00  0.0000E+00  0.0000E+00  0.0000E+00  0.0000E+00  0.0000E+00  0.0000E+00  0.0000E+00  0.0000E+00  0.0000E+00  0.0000E+00  0.0000E+00  0.0000E+00  0.0000E+00  0.0000E+00  0.0000E+00  0.0000E+00  0.0000E+00
    -37.646  0.0000E+00  0.0000E+00  0.0000E+00  0.0000E+00  0.0000E+00  0.0000E+00  0.0000E+00  0.0000E+00  0.0000E+00  0.0000E+00  0.0000E+00  0.0000E+00  0.0000E+00  0.0000E+00  0.0000E+00  0.0000E+00  0.0000E+00  0.0000E+00
    -37.411  0.0000E+00  0.0000E+00  0.0000E+00  0.0000E+00  0.0000E+00  0.0000E+00  0.0000E+00  0.0000E+00  0.0000E+00  0.0000E+00  0.0000E+00  0.0000E+00  0.0000E+00  0.0000E+00  0.0000E+00  0.0000E+00  0.0000E+00  0.0000E+00
    -37.175  0.0000E+00  0.0000E+00  0.0000E+00  0.0000E+00  0.0000E+00  0.0000E+00  0.0000E+00  0.0000E+00  0.0000E+00  0.0000E+00  0.0000E+00  0.0000E+00  0.0000E+00  0.0000E+00  0.0000E+00  0.0000E+00  0.0000E+00  0.0000E+00
    -36.939  0.0000E+00  0.0000E+00  0.0000E+00  0.0000E+00  0.0000E+00  0.0000E+00  0.0000E+00  0.0000E+00  0.0000E+00  0.0000E+00  0.0000E+00  0.0000E+00  0.0000E+00  0.0000E+00  0.0000E+00  0.0000E+00  0.0000E+00  0.0000E+00
    -36.703  0.0000E+00  0.0000E+00  0.0000E+00  0.0000E+00  0.0000E+00  0.0000E+00  0.0000E+00  0.0000E+00  0.0000E+00  0.0000E+00  0.0000E+00  0.0000E+00  0.0000E+00  0.0000E+00  0.0000E+00  0.0000E+00  0.0000E+00  0.0000E+00
    -36.468  0.0000E+00  0.0000E+00  0.0000E+00  0.0000E+00  0.0000E+00  0.0000E+00  0.0000E+00  0.0000E+00  0.0000E+00  0.0000E+00  0.0000E+00  0.0000E+00  0.0000E+00  0.0000E+00  0.0000E+00  0.0000E+00  0.0000E+00  0.0000E+00
    -36.232  0.0000E+00  0.0000E+00  0.0000E+00  0.0000E+00  0.0000E+00  0.0000E+00  0.0000E+00  0.0000E+00  0.0000E+00  0.0000E+00  0.0000E+00  0.0000E+00  0.0000E+00  0.0000E+00  0.0000E+00  0.0000E+00  0.0000E+00  0.0000E+00
    -35.996  0.3053E-11  0.0000E+00  0.1157E-04  0.0000E+00  0.1157E-04  0.0000E+00  0.1146E-04  0.0000E+00  0.7305E-13  0.0000E+00  0.7297E-13  0.0000E+00  0.2136E-11  0.0000E+00  0.7305E-13  0.0000E+00  0.2211E-11  0.0000E+00
    -35.760  0.3538E-09  0.0000E+00  0.1579E-02  0.0000E+00  0.1579E-02  0.0000E+00  0.1577E-02  0.0000E+00  0.8801E-11  0.0000E+00  0.8783E-11  0.0000E+00  0.2523E-09  0.0000E+00  0.8801E-11  0.0000E+00  0.2581E-09  0.0000E+00
    -35.525  0.3786E-07  0.0000E+00  0.1687E+00  0.0000E+00  0.1687E+00  0.0000E+00  0.1686E+00  0.0000E+00  0.9398E-09  0.0000E+00  0.9379E-09  0.0000E+00  0.2702E-07  0.0000E+00  0.9398E-09  0.0000E+00  0.2762E-07  0.0000E+00
    -35.289  0.7383E-06  0.0000E+00  0.3300E+01  0.0000E+00  0.3300E+01  0.0000E+00  0.3300E+01  0.0000E+00  0.1767E-07  0.0000E+00  0.1763E-07  0.0000E+00  0.5330E-06  0.0000E+00  0.1767E-07  0.0000E+00  0.5414E-06  0.0000E+00
    -35.053  0.1633E-06  0.0000E+00  0.7360E+00  0.0000E+00  0.7360E+00  0.0000E+00  0.7366E+00  0.0000E+00  0.3757E-08  0.0000E+00  0.3748E-08  0.0000E+00  0.1195E-06  0.0000E+00  0.3757E-08  0.0000E+00  0.1205E-06  0.0000E+00
    -34.817  0.0000E+00  0.0000E+00  0.0000E+00  0.0000E+00  0.0000E+00  0.0000E+00  0.0000E+00  0.0000E+00  0.0000E+00  0.0000E+00  0.0000E+00  0.0000E+00  0.0000E+00  0.0000E+00  0.0000E+00  0.0000E+00  0.0000E+00  0.0000E+00
    -34.582  0.0000E+00  0.0000E+00  0.0000E+00  0.0000E+00  0.0000E+00  0.0000E+00  0.0000E+00  0.0000E+00  0.0000E+00  0.0000E+00  0.0000E+00  0.0000E+00  0.0000E+00  0.0000E+00  0.0000E+00  0.0000E+00  0.0000E+00  0.0000E+00
    -34.346  0.0000E+00  0.9854E-10  0.0000E+00  0.3541E-03  0.0000E+00  0.3541E-03  0.0000E+00  0.3531E-03  0.0000E+00  0.2577E-11  0.0000E+00  0.2574E-11  0.0000E+00  0.6888E-10  0.0000E+00  0.2577E-11  0.0000E+00  0.7050E-10
    -34.110  0.0000E+00  0.1080E-07  0.0000E+00  0.3880E-01  0.0000E+00  0.3880E-01  0.0000E+00  0.3869E-01  0.0000E+00  0.2823E-09  0.0000E+00  0.2819E-09  0.0000E+00  0.7549E-08  0.0000E+00  0.2823E-09  0.0000E+00  0.7725E-08
    -33.874  0.0000E+00  0.5866E-06  0.0000E+00  0.2110E+01  0.0000E+00  0.2110E+01  0.0000E+00  0.2107E+01  0.0000E+00  0.1497E-07  0.0000E+00  0.1494E-07  0.0000E+00  0.4135E-06  0.0000E+00  0.1497E-07  0.0000E+00  0.4213E-06
    -33.639  0.0000E+00  0.5601E-06  0.0000E+00  0.2029E+01  0.0000E+00  0.2029E+01  0.0000E+00  0.2032E+01  0.0000E+00  0.1369E-07  0.0000E+00  0.1365E-07  0.0000E+00  0.4009E-06  0.0000E+00  0.1369E-07  0.0000E+00  0.4052E-06
    -33.403  0.0000E+00  0.0000E+00  0.0000E+00  0.0000E+00  0.0000E+00  0.0000E+00  0.0000E+00  0.0000E+00  0.0000E+00  0.0000E+00  0.0000E+00  0.0000E+00  0.0000E+00  0.0000E+00  0.0000E+00  0.0000E+00  0.0000E+00  0.0000E+00
    -33.167  0.0000E+00  0.0000E+00  0.0000E+00  0.0000E+00  0.0000E+00  0.0000E+00  0.0000E+00  0.0000E+00  0.0000E+00  0.0000E+00  0.0000E+00  0.0000E+00  0.0000E+00  0.0000E+00  0.0000E+00  0.0000E+00  0.0000E+00  0.0000E+00
    -32.931  0.0000E+00  0.0000E+00  0.0000E+00  0.0000E+00  0.0000E+00  0.0000E+00  0.0000E+00  0.0000E+00  0.0000E+00  0.0000E+00  0.0000E+00  0.0000E+00  0.0000E+00  0.0000E+00  0.0000E+00  0.0000E+00  0.0000E+00  0.0000E+00
    -32.696  0.0000E+00  0.0000E+00  0.0000E+00  0.0000E+00  0.0000E+00  0.0000E+00  0.0000E+00  0.0000E+00  0.0000E+00  0.0000E+00  0.0000E+00  0.0000E+00  0.0000E+00  0.0000E+00  0.0000E+00  0.0000E+00  0.0000E+00  0.0000E+00
    -32.460  0.0000E+00  0.0000E+00  0.0000E+00  0.0000E+00  0.0000E+00  0.0000E+00  0.0000E+00  0.0000E+00  0.0000E+00  0.0000E+00  0.0000E+00  0.0000E+00  0.0000E+00  0.0000E+00  0.0000E+00  0.0000E+00  0.0000E+00  0.0000E+00
    -32.224  0.0000E+00  0.0000E+00  0.0000E+00  0.0000E+00  0.0000E+00  0.0000E+00  0.0000E+00  0.0000E+00  0.0000E+00  0.0000E+00  0.0000E+00  0.0000E+00  0.0000E+00  0.0000E+00  0.0000E+00  0.0000E+00  0.0000E+00  0.0000E+00
    -31.988  0.0000E+00  0.0000E+00  0.0000E+00  0.0000E+00  0.0000E+00  0.0000E+00  0.0000E+00  0.0000E+00  0.0000E+00  0.0000E+00  0.0000E+00  0.0000E+00  0.0000E+00  0.0000E+00  0.0000E+00  0.0000E+00  0.0000E+00  0.0000E+00
    -31.753  0.0000E+00  0.0000E+00  0.0000E+00  0.0000E+00  0.0000E+00  0.0000E+00  0.0000E+00  0.0000E+00  0.0000E+00  0.0000E+00  0.0000E+00  0.0000E+00  0.0000E+00  0.0000E+00  0.0000E+00  0.0000E+00  0.0000E+00  0.0000E+00
    -31.517  0.0000E+00  0.0000E+00  0.0000E+00  0.0000E+00  0.0000E+00  0.0000E+00  0.0000E+00  0.0000E+00  0.0000E+00  0.0000E+00  0.0000E+00  0.0000E+00  0.0000E+00  0.0000E+00  0.0000E+00  0.0000E+00  0.0000E+00  0.0000E+00
    -31.281  0.0000E+00  0.0000E+00  0.0000E+00  0.0000E+00  0.0000E+00  0.0000E+00  0.0000E+00  0.0000E+00  0.0000E+00  0.0000E+00  0.0000E+00  0.0000E+00  0.0000E+00  0.0000E+00  0.0000E+00  0.0000E+00  0.0000E+00  0.0000E+00
    -31.045  0.0000E+00  0.0000E+00  0.0000E+00  0.0000E+00  0.0000E+00  0.0000E+00  0.0000E+00  0.0000E+00  0.0000E+00  0.0000E+00  0.0000E+00  0.0000E+00  0.0000E+00  0.0000E+00  0.0000E+00  0.0000E+00  0.0000E+00  0.0000E+00
    -30.810  0.0000E+00  0.0000E+00  0.0000E+00  0.0000E+00  0.0000E+00  0.0000E+00  0.0000E+00  0.0000E+00  0.0000E+00  0.0000E+00  0.0000E+00  0.0000E+00  0.0000E+00  0.0000E+00  0.0000E+00  0.0000E+00  0.0000E+00  0.0000E+00
    -30.574  0.0000E+00  0.0000E+00  0.0000E+00  0.0000E+00  0.0000E+00  0.0000E+00  0.0000E+00  0.0000E+00  0.0000E+00  0.0000E+00  0.0000E+00  0.0000E+00  0.0000E+00  0.0000E+00  0.0000E+00  0.0000E+00  0.0000E+00  0.0000E+00
    -30.338  0.0000E+00  0.0000E+00  0.0000E+00  0.0000E+00  0.0000E+00  0.0000E+00  0.0000E+00  0.0000E+00  0.0000E+00  0.0000E+00  0.0000E+00  0.0000E+00  0.0000E+00  0.0000E+00  0.0000E+00  0.0000E+00  0.0000E+00  0.0000E+00
    -30.102  0.0000E+00  0.0000E+00  0.0000E+00  0.0000E+00  0.0000E+00  0.0000E+00  0.0000E+00  0.0000E+00  0.0000E+00  0.0000E+00  0.0000E+00  0.0000E+00  0.0000E+00  0.0000E+00  0.0000E+00  0.0000E+00  0.0000E+00  0.0000E+00
    -29.867  0.0000E+00  0.0000E+00  0.0000E+00  0.0000E+00  0.0000E+00  0.0000E+00  0.0000E+00  0.0000E+00  0.0000E+00  0.0000E+00  0.0000E+00  0.0000E+00  0.0000E+00  0.0000E+00  0.0000E+00  0.0000E+00  0.0000E+00  0.0000E+00
    -29.631  0.0000E+00  0.0000E+00  0.0000E+00  0.0000E+00  0.0000E+00  0.0000E+00  0.0000E+00  0.0000E+00  0.0000E+00  0.0000E+00  0.0000E+00  0.0000E+00  0.0000E+00  0.0000E+00  0.0000E+00  0.0000E+00  0.0000E+00  0.0000E+00
    -29.395  0.0000E+00  0.0000E+00  0.0000E+00  0.0000E+00  0.0000E+00  0.0000E+00  0.0000E+00  0.0000E+00  0.0000E+00  0.0000E+00  0.0000E+00  0.0000E+00  0.0000E+00  0.0000E+00  0.0000E+00  0.0000E+00  0.0000E+00  0.0000E+00
    -29.159  0.0000E+00  0.0000E+00  0.0000E+00  0.0000E+00  0.0000E+00  0.0000E+00  0.0000E+00  0.0000E+00  0.0000E+00  0.0000E+00  0.0000E+00  0.0000E+00  0.0000E+00  0.0000E+00  0.0000E+00  0.0000E+00  0.0000E+00  0.0000E+00
    -28.924  0.0000E+00  0.0000E+00  0.0000E+00  0.0000E+00  0.0000E+00  0.0000E+00  0.0000E+00  0.0000E+00  0.0000E+00  0.0000E+00  0.0000E+00  0.0000E+00  0.0000E+00  0.0000E+00  0.0000E+00  0.0000E+00  0.0000E+00  0.0000E+00
    -28.688  0.0000E+00  0.0000E+00  0.0000E+00  0.0000E+00  0.0000E+00  0.0000E+00  0.0000E+00  0.0000E+00  0.0000E+00  0.0000E+00  0.0000E+00  0.0000E+00  0.0000E+00  0.0000E+00  0.0000E+00  0.0000E+00  0.0000E+00  0.0000E+00
    -28.452  0.0000E+00  0.0000E+00  0.0000E+00  0.0000E+00  0.0000E+00  0.0000E+00  0.0000E+00  0.0000E+00  0.0000E+00  0.0000E+00  0.0000E+00  0.0000E+00  0.0000E+00  0.0000E+00  0.0000E+00  0.0000E+00  0.0000E+00  0.0000E+00
    -28.216  0.0000E+00  0.0000E+00  0.0000E+00  0.0000E+00  0.0000E+00  0.0000E+00  0.0000E+00  0.0000E+00  0.0000E+00  0.0000E+00  0.0000E+00  0.0000E+00  0.0000E+00  0.0000E+00  0.0000E+00  0.0000E+00  0.0000E+00  0.0000E+00
    -27.981  0.0000E+00  0.0000E+00  0.0000E+00  0.0000E+00  0.0000E+00  0.0000E+00  0.0000E+00  0.0000E+00  0.0000E+00  0.0000E+00  0.0000E+00  0.0000E+00  0.0000E+00  0.0000E+00  0.0000E+00  0.0000E+00  0.0000E+00  0.0000E+00
    -27.745  0.0000E+00  0.0000E+00  0.0000E+00  0.0000E+00  0.0000E+00  0.0000E+00  0.0000E+00  0.0000E+00  0.0000E+00  0.0000E+00  0.0000E+00  0.0000E+00  0.0000E+00  0.0000E+00  0.0000E+00  0.0000E+00  0.0000E+00  0.0000E+00
    -27.509  0.0000E+00  0.0000E+00  0.0000E+00  0.0000E+00  0.0000E+00  0.0000E+00  0.0000E+00  0.0000E+00  0.0000E+00  0.0000E+00  0.0000E+00  0.0000E+00  0.0000E+00  0.0000E+00  0.0000E+00  0.0000E+00  0.0000E+00  0.0000E+00
    -27.273  0.0000E+00  0.0000E+00  0.0000E+00  0.0000E+00  0.0000E+00  0.0000E+00  0.0000E+00  0.0000E+00  0.0000E+00  0.0000E+00  0.0000E+00  0.0000E+00  0.0000E+00  0.0000E+00  0.0000E+00  0.0000E+00  0.0000E+00  0.0000E+00
    -27.038  0.0000E+00  0.0000E+00  0.0000E+00  0.0000E+00  0.0000E+00  0.0000E+00  0.0000E+00  0.0000E+00  0.0000E+00  0.0000E+00  0.0000E+00  0.0000E+00  0.0000E+00  0.0000E+00  0.0000E+00  0.0000E+00  0.0000E+00  0.0000E+00
    -26.802  0.0000E+00  0.0000E+00  0.0000E+00  0.0000E+00  0.0000E+00  0.0000E+00  0.0000E+00  0.0000E+00  0.0000E+00  0.0000E+00  0.0000E+00  0.0000E+00  0.0000E+00  0.0000E+00  0.0000E+00  0.0000E+00  0.0000E+00  0.0000E+00