   2   2   1   0
  0.1887642E+02  0.3354670E-09  0.3354670E-09  0.3354670E-09  0.5000000E-15
   1.0000000000000000E-004
  CAR 
 unknown system                          
     11.69508441    -28.20479345  301      4.61739279      1.00000000
    -28.205  0.0000E+00  0.0000E+00  0.0000E+00  0.0000E+00
    -28.072  0.0000E+00  0.0000E+00  0.0000E+00  0.0000E+00
    -27.939  0.0000E+00  0.0000E+00  0.0000E+00  0.0000E+00
    -27.806  0.0000E+00  0.0000E+00  0.0000E+00  0.0000E+00
    -27.673  0.0000E+00  0.0000E+00  0.0000E+00  0.0000E+00
    -27.540  0.0000E+00  0.0000E+00  0.0000E+00  0.0000E+00
    -27.407  0.0000E+00  0.0000E+00  0.0000E+00  0.0000E+00
    -27.274  0.0000E+00  0.0000E+00  0.0000E+00  0.0000E+00
    -27.141  0.0000E+00  0.0000E+00  0.0000E+00  0.0000E+00
    -27.008  0.0000E+00  0.0000E+00  0.0000E+00  0.0000E+00
    -26.875  0.0000E+00  0.0000E+00  0.0000E+00  0.0000E+00
    -26.742  0.0000E+00  0.0000E+00  0.0000E+00  0.0000E+00
    -26.609  0.0000E+00  0.0000E+00  0.0000E+00  0.0000E+00
    -26.476  0.0000E+00  0.0000E+00  0.0000E+00  0.0000E+00
    -26.343  0.1690E+01  0.1709E+01  0.3898E-01  0.3995E-01
    -26.210  0.7089E+01  0.7109E+01  0.5507E+00  0.5545E+00
    -26.077  0.4680E+01  0.4665E+01  0.1427E+01  0.1430E+01
    -25.944  0.4151E+01  0.4149E+01  0.1885E+01  0.1887E+01
    -25.811  0.4762E+01  0.4775E+01  0.2378E+01  0.2380E+01
    -25.678  0.6274E+01  0.6270E+01  0.3040E+01  0.3042E+01
    -25.545  0.6359E+01  0.6342E+01  0.3919E+01  0.3921E+01
    -25.412  0.1071E+02  0.1074E+02  0.4639E+01  0.4644E+01
    -25.279  0.1095E+02  0.1087E+02  0.5873E+01  0.5877E+01
    -25.146  0.0000E+00  0.0000E+00  0.6000E+01  0.6000E+01
    -25.013  0.0000E+00  0.0000E+00  0.6000E+01  0.6000E+01
    -24.880  0.0000E+00  0.0000E+00  0.6000E+01  0.6000E+01
    -24.747  0.0000E+00  0.0000E+00  0.6000E+01  0.6000E+01
    -24.614  0.0000E+00  0.0000E+00  0.6000E+01  0.6000E+01
    -24.481  0.0000E+00  0.0000E+00  0.6000E+01  0.6000E+01
    -24.348  0.0000E+00  0.0000E+00  0.6000E+01  0.6000E+01
    -24.215  0.0000E+00  0.0000E+00  0.6000E+01  0.6000E+01
    -24.082  0.0000E+00  0.0000E+00  0.6000E+01  0.6000E+01
    -23.949  0.0000E+00  0.0000E+00  0.6000E+01  0.6000E+01
    -23.816  0.0000E+00  0.0000E+00  0.6000E+01  0.6000E+01
    -23.683  0.0000E+00  0.0000E+00  0.6000E+01  0.6000E+01
    -23.550  0.0000E+00  0.0000E+00  0.6000E+01  0.6000E+01
    -23.417  0.0000E+00  0.0000E+00  0.6000E+01  0.6000E+01
    -23.284  0.0000E+00  0.0000E+00  0.6000E+01  0.6000E+01
    -23.151  0.0000E+00  0.0000E+00  0.6000E+01  0.6000E+01
    -23.018  0.0000E+00  0.0000E+00  0.6000E+01  0.6000E+01
    -22.885  0.0000E+00  0.0000E+00  0.6000E+01  0.6000E+01
    -22.752  0.0000E+00  0.0000E+00  0.6000E+01  0.6000E+01
    -22.619  0.0000E+00  0.0000E+00  0.6000E+01  0.6000E+01
    -22.486  0.0000E+00  0.0000E+00  0.6000E+01  0.6000E+01
    -22.353  0.0000E+00  0.0000E+00  0.6000E+01  0.6000E+01
    -22.220  0.0000E+00  0.0000E+00  0.6000E+01  0.6000E+01
    -22.087  0.0000E+00  0.0000E+00  0.6000E+01  0.6000E+01
    -21.954  0.0000E+00  0.0000E+00  0.6000E+01  0.6000E+01
    -21.821  0.0000E+00  0.0000E+00  0.6000E+01  0.6000E+01
    -21.688  0.0000E+00  0.0000E+00  0.6000E+01  0.6000E+01
    -21.555  0.0000E+00  0.0000E+00  0.6000E+01  0.6000E+01
    -21.422  0.0000E+00  0.0000E+00  0.6000E+01  0.6000E+01
    -21.289  0.0000E+00  0.0000E+00  0.6000E+01  0.6000E+01
    -21.156  0.0000E+00  0.0000E+00  0.6000E+01  0.6000E+01
    -21.023  0.0000E+00  0.0000E+00  0.6000E+01  0.6000E+01
    -20.890  0.0000E+00  0.0000E+00  0.6000E+01  0.6000E+01
    -20.757  0.0000E+00  0.0000E+00  0.6000E+01  0.6000E+01
    -20.624  0.0000E+00  0.0000E+00  0.6000E+01  0.6000E+01
    -20.491  0.0000E+00  0.0000E+00  0.6000E+01  0.6000E+01
    -20.358  0.0000E+00  0.0000E+00  0.6000E+01  0.6000E+01
    -20.225  0.0000E+00  0.0000E+00  0.6000E+01  0.6000E+01
    -20.092  0.0000E+00  0.0000E+00  0.6000E+01  0.6000E+01
    -19.959  0.0000E+00  0.0000E+00  0.6000E+01  0.6000E+01
    -19.826  0.0000E+00  0.0000E+00  0.6000E+01  0.6000E+01
    -19.693  0.0000E+00  0.0000E+00  0.6000E+01  0.6000E+01
    -19.560  0.0000E+00  0.0000E+00  0.6000E+01  0.6000E+01
    -19.427  0.0000E+00  0.0000E+00  0.6000E+01  0.6000E+01
    -19.294  0.0000E+00  0.0000E+00  0.6000E+01  0.6000E+01
    -19.161  0.0000E+00  0.0000E+00  0.6000E+01  0.6000E+01
    -19.028  0.0000E+00  0.0000E+00  0.6000E+01  0.6000E+01
    -18.895  0.0000E+00  0.0000E+00  0.6000E+01  0.6000E+01
    -18.762  0.0000E+00  0.0000E+00  0.6000E+01  0.6000E+01
    -18.629  0.0000E+00  0.0000E+00  0.6000E+01  0.6000E+01
    -18.496  0.0000E+00  0.0000E+00  0.6000E+01  0.6000E+01
    -18.363  0.0000E+00  0.0000E+00  0.6000E+01  0.6000E+01
    -18.230  0.0000E+00  0.0000E+00  0.6000E+01  0.6000E+01
    -18.097  0.0000E+00  0.0000E+00  0.6000E+01  0.6000E+01
    -17.964  0.0000E+00  0.0000E+00  0.6000E+01  0.6000E+01
    -17.831  0.0000E+00  0.0000E+00  0.6000E+01  0.6000E+01
    -17.698  0.0000E+00  0.0000E+00  0.6000E+01  0.6000E+01
    -17.565  0.0000E+00  0.0000E+00  0.6000E+01  0.6000E+01
    -17.432  0.0000E+00  0.0000E+00  0.6000E+01  0.6000E+01
    -17.299  0.0000E+00  0.0000E+00  0.6000E+01  0.6000E+01
    -17.166  0.0000E+00  0.0000E+00  0.6000E+01  0.6000E+01
    -17.033  0.0000E+00  0.0000E+00  0.6000E+01  0.6000E+01
    -16.900  0.0000E+00  0.0000E+00  0.6000E+01  0.6000E+01
    -16.767  0.0000E+00  0.0000E+00  0.6000E+01  0.6000E+01
    -16.634  0.0000E+00  0.0000E+00  0.6000E+01  0.6000E+01
    -16.501  0.0000E+00  0.0000E+00  0.6000E+01  0.6000E+01
    -16.368  0.0000E+00  0.0000E+00  0.6000E+01  0.6000E+01
    -16.235  0.0000E+00  0.0000E+00  0.6000E+01  0.6000E+01
    -16.102  0.0000E+00  0.0000E+00  0.6000E+01  0.6000E+01
    -15.969  0.0000E+00  0.0000E+00  0.6000E+01  0.6000E+01
    -15.836  0.0000E+00  0.0000E+00  0.6000E+01  0.6000E+01
    -15.703  0.0000E+00  0.0000E+00  0.6000E+01  0.6000E+01
    -15.570  0.0000E+00  0.0000E+00  0.6000E+01  0.6000E+01
    -15.437  0.0000E+00  0.0000E+00  0.6000E+01  0.6000E+01
    -15.304  0.0000E+00  0.0000E+00  0.6000E+01  0.6000E+01
    -15.171  0.0000E+00  0.0000E+00  0.6000E+01  0.6000E+01
    -15.038  0.0000E+00  0.0000E+00  0.6000E+01  0.6000E+01
    -14.905  0.0000E+00  0.0000E+00  0.6000E+01  0.6000E+01
    -14.772  0.0000E+00  0.0000E+00  0.6000E+01  0.6000E+01
    -14.639  0.0000E+00  0.0000E+00  0.6000E+01  0.6000E+01
    -14.506  0.0000E+00  0.0000E+00  0.6000E+01  0.6000E+01
    -14.373  0.0000E+00  0.0000E+00  0.6000E+01  0.6000E+01
    -14.240  0.0000E+00  0.0000E+00  0.6000E+01  0.6000E+01
    -14.107  0.0000E+00  0.0000E+00  0.6000E+01  0.6000E+01
    -13.974  0.0000E+00  0.0000E+00  0.6000E+01  0.6000E+01
    -13.841  0.0000E+00  0.0000E+00  0.6000E+01  0.6000E+01
    -13.708  0.0000E+00  0.0000E+00  0.6000E+01  0.6000E+01
    -13.575  0.0000E+00  0.0000E+00  0.6000E+01  0.6000E+01
    -13.442  0.0000E+00  0.0000E+00  0.6000E+01  0.6000E+01
    -13.309  0.0000E+00  0.0000E+00  0.6000E+01  0.6000E+01
    -13.176  0.0000E+00  0.0000E+00  0.6000E+01  0.6000E+01
    -13.043  0.0000E+00  0.0000E+00  0.6000E+01  0.6000E+01
    -12.910  0.0000E+00  0.0000E+00  0.6000E+01  0.6000E+01
    -12.777  0.0000E+00  0.0000E+00  0.6000E+01  0.6000E+01
    -12.644  0.0000E+00  0.0000E+00  0.6000E+01  0.6000E+01
    -12.511  0.0000E+00  0.0000E+00  0.6000E+01  0.6000E+01
    -12.378  0.0000E+00  0.0000E+00  0.6000E+01  0.6000E+01
    -12.245  0.0000E+00  0.0000E+00  0.6000E+01  0.6000E+01
    -12.112  0.0000E+00  0.0000E+00  0.6000E+01  0.6000E+01
    -11.979  0.0000E+00  0.0000E+00  0.6000E+01  0.6000E+01
    -11.846  0.0000E+00  0.0000E+00  0.6000E+01  0.6000E+01
    -11.713  0.0000E+00  0.0000E+00  0.6000E+01  0.6000E+01
    -11.580  0.0000E+00  0.0000E+00  0.6000E+01  0.6000E+01
    -11.447  0.0000E+00  0.0000E+00  0.6000E+01  0.6000E+01
    -11.314  0.0000E+00  0.0000E+00  0.6000E+01  0.6000E+01
    -11.181  0.0000E+00  0.0000E+00  0.6000E+01  0.6000E+01
    -11.048  0.0000E+00  0.0000E+00  0.6000E+01  0.6000E+01
    -10.915  0.0000E+00  0.0000E+00  0.6000E+01  0.6000E+01
    -10.782  0.0000E+00  0.0000E+00  0.6000E+01  0.6000E+01
    -10.649  0.0000E+00  0.0000E+00  0.6000E+01  0.6000E+01
    -10.516  0.0000E+00  0.0000E+00  0.6000E+01  0.6000E+01
    -10.383  0.0000E+00  0.0000E+00  0.6000E+01  0.6000E+01
    -10.250  0.0000E+00  0.0000E+00  0.6000E+01  0.6000E+01
    -10.117  0.0000E+00  0.0000E+00  0.6000E+01  0.6000E+01
     -9.984  0.0000E+00  0.0000E+00  0.6000E+01  0.6000E+01
     -9.851  0.0000E+00  0.0000E+00  0.6000E+01  0.6000E+01
     -9.718  0.0000E+00  0.0000E+00  0.6000E+01  0.6000E+01
     -9.585  0.0000E+00  0.0000E+00  0.6000E+01  0.6000E+01
     -9.452  0.0000E+00  0.0000E+00  0.6000E+01  0.6000E+01
     -9.319  0.0000E+00  0.0000E+00  0.6000E+01  0.6000E+01
     -9.186  0.0000E+00  0.0000E+00  0.6000E+01  0.6000E+01
     -9.053  0.0000E+00  0.0000E+00  0.6000E+01  0.6000E+01
     -8.920  0.0000E+00  0.0000E+00  0.6000E+01  0.6000E+01
     -8.787  0.0000E+00  0.0000E+00  0.6000E+01  0.6000E+01
     -8.654  0.0000E+00  0.0000E+00  0.6000E+01  0.6000E+01
     -8.521  0.0000E+00  0.0000E+00  0.6000E+01  0.6000E+01
     -8.388  0.0000E+00  0.0000E+00  0.6000E+01  0.6000E+01
     -8.255  0.0000E+00  0.0000E+00  0.6000E+01  0.6000E+01
     -8.122  0.0000E+00  0.0000E+00  0.6000E+01  0.6000E+01
     -7.989  0.0000E+00  0.0000E+00  0.6000E+01  0.6000E+01
     -7.856  0.0000E+00  0.0000E+00  0.6000E+01  0.6000E+01
     -7.723  0.0000E+00  0.0000E+00  0.6000E+01  0.6000E+01
     -7.590  0.0000E+00  0.0000E+00  0.6000E+01  0.6000E+01
     -7.457  0.0000E+00  0.0000E+00  0.6000E+01  0.6000E+01
     -7.324  0.0000E+00  0.0000E+00  0.6000E+01  0.6000E+01
     -7.191  0.0000E+00  0.0000E+00  0.6000E+01  0.6000E+01
     -7.058  0.0000E+00  0.0000E+00  0.6000E+01  0.6000E+01
     -6.925  0.0000E+00  0.0000E+00  0.6000E+01  0.6000E+01
     -6.792  0.0000E+00  0.0000E+00  0.6000E+01  0.6000E+01
     -6.659  0.0000E+00  0.0000E+00  0.6000E+01  0.6000E+01
     -6.526  0.0000E+00  0.0000E+00  0.6000E+01  0.6000E+01
     -6.393  0.0000E+00  0.0000E+00  0.6000E+01  0.6000E+01
     -6.260  0.0000E+00  0.0000E+00  0.6000E+01  0.6000E+01
     -6.127  0.0000E+00  0.0000E+00  0.6000E+01  0.6000E+01
     -5.994  0.0000E+00  0.0000E+00  0.6000E+01  0.6000E+01
     -5.861  0.0000E+00  0.0000E+00  0.6000E+01  0.6000E+01
     -5.728  0.0000E+00  0.0000E+00  0.6000E+01  0.6000E+01
     -5.595  0.0000E+00  0.0000E+00  0.6000E+01  0.6000E+01
     -5.462  0.0000E+00  0.0000E+00  0.6000E+01  0.6000E+01
     -5.329  0.0000E+00  0.0000E+00  0.6000E+01  0.6000E+01
     -5.196  0.0000E+00  0.0000E+00  0.6000E+01  0.6000E+01
     -5.063  0.0000E+00  0.0000E+00  0.6000E+01  0.6000E+01
     -4.930  0.0000E+00  0.0000E+00  0.6000E+01  0.6000E+01
     -4.797  0.0000E+00  0.0000E+00  0.6000E+01  0.6000E+01
     -4.664  0.0000E+00  0.0000E+00  0.6000E+01  0.6000E+01
     -4.531  0.0000E+00  0.0000E+00  0.6000E+01  0.6000E+01
     -4.398  0.0000E+00  0.0000E+00  0.6000E+01  0.6000E+01
     -4.265  0.0000E+00  0.0000E+00  0.6000E+01  0.6000E+01
     -4.132  0.0000E+00  0.0000E+00  0.6000E+01  0.6000E+01
     -3.999  0.0000E+00  0.0000E+00  0.6000E+01  0.6000E+01
     -3.866  0.0000E+00  0.0000E+00  0.6000E+01  0.6000E+01
     -3.733  0.0000E+00  0.0000E+00  0.6000E+01  0.6000E+01
     -3.600  0.0000E+00  0.0000E+00  0.6000E+01  0.6000E+01
     -3.467  0.0000E+00  0.0000E+00  0.6000E+01  0.6000E+01
     -3.334  0.0000E+00  0.0000E+00  0.6000E+01  0.6000E+01
     -3.201  0.0000E+00  0.0000E+00  0.6000E+01  0.6000E+01
     -3.068  0.0000E+00  0.0000E+00  0.6000E+01  0.6000E+01
     -2.935  0.0000E+00  0.0000E+00  0.6000E+01  0.6000E+01
     -2.802  0.0000E+00  0.0000E+00  0.6000E+01  0.6000E+01
     -2.669  0.0000E+00  0.0000E+00  0.6000E+01  0.6000E+01
     -2.536  0.0000E+00  0.0000E+00  0.6000E+01  0.6000E+01
     -2.403  0.0000E+00  0.0000E+00  0.6000E+01  0.6000E+01
     -2.270  0.0000E+00  0.0000E+00  0.6000E+01  0.6000E+01
     -2.137  0.0000E+00  0.0000E+00  0.6000E+01  0.6000E+01
     -2.004  0.0000E+00  0.0000E+00  0.6000E+01  0.6000E+01
     -1.871  0.0000E+00  0.0000E+00  0.6000E+01  0.6000E+01
     -1.738  0.0000E+00  0.0000E+00  0.6000E+01  0.6000E+01
     -1.605  0.0000E+00  0.0000E+00  0.6000E+01  0.6000E+01
     -1.472  0.0000E+00  0.0000E+00  0.6000E+01  0.6000E+01
     -1.339  0.0000E+00  0.0000E+00  0.6000E+01  0.6000E+01
     -1.206  0.1182E-03  0.1441E-03  0.6000E+01  0.6000E+01
     -1.073  0.4955E-02  0.5115E-02  0.6000E+01  0.6000E+01
     -0.940  0.1688E-01  0.1717E-01  0.6002E+01  0.6002E+01
     -0.807  0.3622E-01  0.3665E-01  0.6005E+01  0.6005E+01
     -0.674  0.5500E-01  0.5527E-01  0.6011E+01  0.6011E+01
     -0.541  0.6599E-01  0.6612E-01  0.6019E+01  0.6020E+01
     -0.408  0.7024E-01  0.7032E-01  0.6028E+01  0.6029E+01
     -0.275  0.7672E-01  0.7688E-01  0.6038E+01  0.6038E+01
     -0.142  0.8743E-01  0.8767E-01  0.6049E+01  0.6049E+01
     -0.009  0.1010E+00  0.1013E+00  0.6062E+01  0.6062E+01
      0.124  0.1155E+00  0.1158E+00  0.6076E+01  0.6076E+01
      0.257  0.1307E+00  0.1309E+00  0.6092E+01  0.6093E+01
      0.390  0.1435E+00  0.1436E+00  0.6111E+01  0.6111E+01
      0.523  0.1603E+00  0.1608E+00  0.6131E+01  0.6131E+01
      0.656  0.1882E+00  0.1887E+00  0.6154E+01  0.6154E+01
      0.789  0.2171E+00  0.2176E+00  0.6181E+01  0.6181E+01
      0.922  0.2439E+00  0.2444E+00  0.6211E+01  0.6212E+01
      1.055  0.2894E+00  0.2906E+00  0.6246E+01  0.6247E+01
      1.188  0.4849E+00  0.4884E+00  0.6295E+01  0.6297E+01
      1.321  0.8300E+00  0.8351E+00  0.6382E+01  0.6384E+01
      1.454  0.1134E+01  0.1138E+01  0.6514E+01  0.6516E+01
      1.587  0.1620E+01  0.1614E+01  0.6689E+01  0.6692E+01
      1.720  0.1503E+01  0.1419E+01  0.6878E+01  0.6881E+01
      1.853  0.1037E+01  0.1039E+01  0.7011E+01  0.7013E+01
      1.986  0.1221E+01  0.1223E+01  0.7161E+01  0.7163E+01
      2.119  0.1620E+01  0.1623E+01  0.7350E+01  0.7353E+01
      2.252  0.1753E+01  0.1754E+01  0.7576E+01  0.7579E+01
      2.385  0.1794E+01  0.1790E+01  0.7822E+01  0.7825E+01
      2.518  0.9607E+00  0.9577E+00  0.8012E+01  0.8013E+01
      2.651  0.5318E+00  0.5300E+00  0.8092E+01  0.8093E+01
      2.784  0.4392E+00  0.4383E+00  0.8156E+01  0.8157E+01
      2.917  0.4040E+00  0.4042E+00  0.8213E+01  0.8214E+01
      3.050  0.4201E+00  0.4206E+00  0.8267E+01  0.8267E+01
      3.183  0.2011E+01  0.2018E+01  0.8459E+01  0.8461E+01
      3.316  0.3101E+01  0.3107E+01  0.8822E+01  0.8827E+01
      3.449  0.2269E+01  0.2242E+01  0.9196E+01  0.9199E+01
      3.582  0.9252E+00  0.9230E+00  0.9389E+01  0.9390E+01
      3.715  0.8980E+00  0.8990E+00  0.9510E+01  0.9511E+01
      3.848  0.1096E+01  0.1099E+01  0.9644E+01  0.9646E+01
      3.981  0.1157E+01  0.1158E+01  0.9791E+01  0.9793E+01
      4.114  0.1385E+01  0.1387E+01  0.9961E+01  0.9963E+01
      4.247  0.1746E+01  0.1751E+01  0.1017E+02  0.1017E+02
      4.380  0.2083E+01  0.2088E+01  0.1042E+02  0.1043E+02
      4.513  0.2739E+01  0.2730E+01  0.1081E+02  0.1081E+02
      4.646  0.1506E+01  0.1505E+01  0.1104E+02  0.1105E+02
      4.779  0.1445E+01  0.1444E+01  0.1124E+02  0.1124E+02
      4.912  0.1212E+01  0.1205E+01  0.1142E+02  0.1142E+02
      5.045  0.7253E+00  0.7231E+00  0.1154E+02  0.1154E+02
      5.178  0.6258E+00  0.6239E+00  0.1163E+02  0.1164E+02
      5.311  0.5188E+00  0.5181E+00  0.1171E+02  0.1171E+02
      5.444  0.4739E+00  0.4732E+00  0.1177E+02  0.1178E+02
      5.577  0.4592E+00  0.4584E+00  0.1184E+02  0.1184E+02
      5.710  0.4030E+00  0.4022E+00  0.1189E+02  0.1190E+02
      5.843  0.3420E+00  0.3410E+00  0.1194E+02  0.1195E+02
      5.976  0.2280E+00  0.2275E+00  0.1198E+02  0.1198E+02
      6.109  0.4722E+00  0.4742E+00  0.1202E+02  0.1203E+02
      6.242  0.4980E+00  0.4993E+00  0.1209E+02  0.1209E+02
      6.375  0.6547E+00  0.6561E+00  0.1216E+02  0.1216E+02
      6.508  0.8154E+00  0.8167E+00  0.1226E+02  0.1226E+02
      6.641  0.9701E+00  0.9709E+00  0.1238E+02  0.1238E+02
      6.774  0.1097E+01  0.1098E+01  0.1252E+02  0.1252E+02
      6.907  0.1231E+01  0.1232E+01  0.1267E+02  0.1267E+02
      7.040  0.1359E+01  0.1360E+01  0.1285E+02  0.1285E+02
      7.173  0.1354E+01  0.1354E+01  0.1303E+02  0.1303E+02
      7.306  0.1799E+01  0.1804E+01  0.1323E+02  0.1323E+02
      7.439  0.1861E+01  0.1857E+01  0.1348E+02  0.1348E+02
      7.572  0.1541E+01  0.1540E+01  0.1370E+02  0.1370E+02
      7.705  0.1414E+01  0.1412E+01  0.1390E+02  0.1390E+02
      7.838  0.1376E+01  0.1375E+01  0.1409E+02  0.1409E+02
      7.971  0.1119E+01  0.1119E+01  0.1424E+02  0.1424E+02
      8.104  0.1350E+01  0.1351E+01  0.1440E+02  0.1440E+02
      8.237  0.1746E+01  0.1749E+01  0.1461E+02  0.1461E+02
      8.370  0.5578E+01  0.5617E+01  0.1498E+02  0.1498E+02
      8.503  0.2336E+01  0.2347E+01  0.1544E+02  0.1544E+02
      8.636  0.1363E+01  0.1387E+01  0.1562E+02  0.1563E+02
      8.769  0.1049E+01  0.1036E+01  0.1579E+02  0.1579E+02
      8.902  0.6289E+00  0.6176E+00  0.1591E+02  0.1591E+02
      9.035  0.2979E+00  0.2955E+00  0.1596E+02  0.1597E+02
      9.168  0.1177E+00  0.1164E+00  0.1599E+02  0.1599E+02
      9.301  0.8485E-02  0.8452E-02  0.1600E+02  0.1600E+02
      9.434  0.5042E-02  0.5017E-02  0.1600E+02  0.1600E+02
      9.567  0.2490E-02  0.2473E-02  0.1600E+02  0.1600E+02
      9.700  0.8286E-03  0.8192E-03  0.1600E+02  0.1600E+02
      9.833  0.5892E-04  0.5652E-04  0.1600E+02  0.1600E+02
      9.966  0.0000E+00  0.0000E+00  0.1600E+02  0.1600E+02
     10.099  0.0000E+00  0.0000E+00  0.1600E+02  0.1600E+02
     10.232  0.0000E+00  0.0000E+00  0.1600E+02  0.1600E+02
     10.365  0.0000E+00  0.0000E+00  0.1600E+02  0.1600E+02
     10.498  0.0000E+00  0.0000E+00  0.1600E+02  0.1600E+02
     10.631  0.0000E+00  0.0000E+00  0.1600E+02  0.1600E+02
     10.764  0.0000E+00  0.0000E+00  0.1600E+02  0.1600E+02
     10.897  0.0000E+00  0.0000E+00  0.1600E+02  0.1600E+02
     11.030  0.0000E+00  0.0000E+00  0.1600E+02  0.1600E+02
     11.163  0.0000E+00  0.0000E+00  0.1600E+02  0.1600E+02
     11.296  0.0000E+00  0.0000E+00  0.1600E+02  0.1600E+02
     11.429  0.0000E+00  0.0000E+00  0.1600E+02  0.1600E+02
     11.562  0.0000E+00  0.0000E+00  0.1600E+02  0.1600E+02
     11.695  0.0000E+00  0.0000E+00  0.1600E+02  0.1600E+02
     11.69508441    -28.20479345  301      4.61739279      1.00000000
    -28.205  0.0000E+00  0.0000E+00  0.0000E+00  0.0000E+00  0.0000E+00  0.0000E+00  0.0000E+00  0.0000E+00  0.0000E+00  0.0000E+00  0.0000E+00  0.0000E+00  0.0000E+00  0.0000E+00  0.0000E+00  0.0000E+00  0.0000E+00  0.0000E+00
    -28.072  0.0000E+00  0.0000E+00  0.0000E+00  0.0000E+00  0.0000E+00  0.0000E+00  0.0000E+00  0.0000E+00  0.0000E+00  0.0000E+00  0.0000E+00  0.0000E+00  0.0000E+00  0.0000E+00  0.0000E+00  0.0000E+00  0.0000E+00  0.0000E+00
    -27.939  0.0000E+00  0.0000E+00  0.0000E+00  0.0000E+00  0.0000E+00  0.0000E+00  0.0000E+00  0.0000E+00  0.0000E+00  0.0000E+00  0.0000E+00  0.0000E+00  0.0000E+00  0.0000E+00  0.0000E+00  0.0000E+00  0.0000E+00  0.0000E+00
    -27.806  0.0000E+00  0.0000E+00  0.0000E+00  0.0000E+00  0.0000E+00  0.0000E+00  0.0000E+00  0.0000E+00  0.0000E+00  0.0000E+00  0.0000E+00  0.0000E+00  0.0000E+00  0.0000E+00  0.0000E+00  0.0000E+00  0.0000E+00  0.0000E+00
    -27.673  0.0000E+00  0.0000E+00  0.0000E+00  0.0000E+00  0.0000E+00  0.0000E+00  0.0000E+00  0.0000E+00  0.0000E+00  0.0000E+00  0.0000E+00  0.0000E+00  0.0000E+00  0.0000E+00  0.0000E+00  0.0000E+00  0.0000E+00  0.0000E+00
    -27.540  0.0000E+00  0.0000E+00  0.0000E+00  0.0000E+00  0.0000E+00  0.0000E+00  0.0000E+00  0.0000E+00  0.0000E+00  0.0000E+00  0.0000E+00  0.0000E+00  0.0000E+00  0.0000E+00  0.0000E+00  0.0000E+00  0.0000E+00  0.0000E+00
    -27.407  0.0000E+00  0.0000E+00  0.0000E+00  0.0000E+00  0.0000E+00  0.0000E+00  0.0000E+00  0.0000E+00  0.0000E+00  0.0000E+00  0.0000E+00  0.0000E+00  0.0000E+00  0.0000E+00  0.0000E+00  0.0000E+00  0.0000E+00  0.0000E+00
    -27.274  0.0000E+00  0.0000E+00  0.0000E+00  0.0000E+00  0.0000E+00  0.0000E+00  0.0000E+00  0.0000E+00  0.0000E+00  0.0000E+00  0.0000E+00  0.0000E+00  0.0000E+00  0.0000E+00  0.0000E+00  0.0000E+00  0.0000E+00  0.0000E+00
    -27.141  0.0000E+00  0.0000E+00  0.0000E+00  0.0000E+00  0.0000E+00  0.0000E+00  0.0000E+00  0.0000E+00  0.0000E+00  0.0000E+00  0.0000E+00  0.0000E+00  0.0000E+00  0.0000E+00  0.0000E+00  0.0000E+00  0.0000E+00  0.0000E+00
    -27.008  0.0000E+00  0.0000E+00  0.0000E+00  0.0000E+00  0.0000E+00  0.0000E+00  0.0000E+00  0.0000E+00  0.0000E+00  0.0000E+00  0.0000E+00  0.0000E+00  0.0000E+00  0.0000E+00  0.0000E+00  0.0000E+00  0.0000E+00  0.0000E+00
    -26.875  0.0000E+00  0.0000E+00  0.0000E+00  0.0000E+00  0.0000E+00  0.0000E+00  0.0000E+00  0.0000E+00  0.0000E+00  0.0000E+00  0.0000E+00  0.0000E+00  0.0000E+00  0.0000E+00  0.0000E+00  0.0000E+00  0.0000E+00  0.0000E+00
    -26.742  0.0000E+00  0.0000E+00  0.0000E+00  0.0000E+00  0.0000E+00  0.0000E+00  0.0000E+00  0.0000E+00  0.0000E+00  0.0000E+00  0.0000E+00  0.0000E+00  0.0000E+00  0.0000E+00  0.0000E+00  0.0000E+00  0.0000E+00  0.0000E+00
    -26.609  0.0000E+00  0.0000E+00  0.0000E+00  0.0000E+00  0.0000E+00  0.0000E+00  0.0000E+00  0.0000E+00  0.0000E+00  0.0000E+00  0.0000E+00  0.0000E+00  0.0000E+00  0.0000E+00  0.0000E+00  0.0000E+00  0.0000E+00  0.0000E+00
    -26.476  0.0000E+00  0.0000E+00  0.0000E+00  0.0000E+00  0.0000E+00  0.0000E+00  0.0000E+00  0.0000E+00  0.0000E+00  0.0000E+00  0.0000E+00  0.0000E+00  0.0000E+00  0.0000E+00  0.0000E+00  0.0000E+00  0.0000E+00  0.0000E+00
    -26.343  0.1486E-03  0.1511E-03  0.2745E+00  0.2776E+00  0.2745E+00  0.2776E+00  0.2745E+00  0.2776E+00  0.6848E-04  0.7023E-04  0.6848E-04  0.7023E-04  0.3496E-04  0.3610E-04  0.6848E-04  0.7023E-04  0.3496E-04  0.3610E-04
    -26.210  0.1533E-02  0.1540E-02  0.1155E+01  0.1158E+01  0.1155E+01  0.1158E+01  0.1155E+01  0.1158E+01  0.5022E-03  0.5079E-03  0.5022E-03  0.5079E-03  0.2895E-03  0.2945E-03  0.5022E-03  0.5079E-03  0.2895E-03  0.2945E-03
    -26.077  0.1692E-02  0.1689E-02  0.7643E+00  0.7619E+00  0.7643E+00  0.7619E+00  0.7643E+00  0.7619E+00  0.3817E-03  0.3829E-03  0.3817E-03  0.3829E-03  0.1951E-03  0.1962E-03  0.3817E-03  0.3829E-03  0.1951E-03  0.1962E-03
    -25.944  0.1220E-02  0.1216E-02  0.6808E+00  0.6805E+00  0.6808E+00  0.6805E+00  0.6808E+00  0.6805E+00  0.5266E-03  0.5293E-03  0.5266E-03  0.5293E-03  0.8143E-04  0.8207E-04  0.5266E-03  0.5293E-03  0.8143E-04  0.8207E-04
    -25.811  0.9600E-03  0.9625E-03  0.7832E+00  0.7852E+00  0.7832E+00  0.7852E+00  0.7832E+00  0.7852E+00  0.8951E-03  0.9004E-03  0.8951E-03  0.9004E-03  0.1074E-03  0.1076E-03  0.8951E-03  0.9004E-03  0.1074E-03  0.1076E-03
    -25.678  0.5730E-03  0.5798E-03  0.1035E+01  0.1034E+01  0.1035E+01  0.1034E+01  0.1035E+01  0.1034E+01  0.1237E-02  0.1241E-02  0.1237E-02  0.1241E-02  0.6556E-04  0.6586E-04  0.1237E-02  0.1241E-02  0.6556E-04  0.6586E-04
    -25.545  0.8792E-03  0.8745E-03  0.1051E+01  0.1048E+01  0.1051E+01  0.1048E+01  0.1051E+01  0.1048E+01  0.9904E-03  0.9922E-03  0.9904E-03  0.9922E-03  0.4667E-04  0.4647E-04  0.9904E-03  0.9922E-03  0.4667E-04  0.4647E-04
    -25.412  0.8384E-03  0.8414E-03  0.1775E+01  0.1780E+01  0.1775E+01  0.1780E+01  0.1775E+01  0.1780E+01  0.1267E-02  0.1269E-02  0.1267E-02  0.1269E-02  0.4264E-04  0.4219E-04  0.1267E-02  0.1269E-02  0.4264E-04  0.4219E-04
    -25.279  0.4113E-03  0.4074E-03  0.1819E+01  0.1806E+01  0.1819E+01  0.1806E+01  0.1819E+01  0.1806E+01  0.4682E-03  0.4633E-03  0.4682E-03  0.4633E-03  0.1655E-04  0.1597E-04  0.4682E-03  0.4633E-03  0.1655E-04  0.1597E-04
    -25.146  0.0000E+00  0.0000E+00  0.0000E+00  0.0000E+00  0.0000E+00  0.0000E+00  0.0000E+00  0.0000E+00  0.0000E+00  0.0000E+00  0.0000E+00  0.0000E+00  0.0000E+00  0.0000E+00  0.0000E+00  0.0000E+00  0.0000E+00  0.0000E+00
    -25.013  0.0000E+00  0.0000E+00  0.0000E+00  0.0000E+00  0.0000E+00  0.0000E+00  0.0000E+00  0.0000E+00  0.0000E+00  0.0000E+00  0.0000E+00  0.0000E+00  0.0000E+00  0.0000E+00  0.0000E+00  0.0000E+00  0.0000E+00  0.0000E+00
    -24.880  0.0000E+00  0.0000E+00  0.0000E+00  0.0000E+00  0.0000E+00  0.0000E+00  0.0000E+00  0.0000E+00  0.0000E+00  0.0000E+00  0.0000E+00  0.0000E+00  0.0000E+00  0.0000E+00  0.0000E+00  0.0000E+00  0.0000E+00  0.0000E+00
    -24.747  0.0000E+00  0.0000E+00  0.0000E+00  0.0000E+00  0.0000E+00  0.0000E+00  0.0000E+00  0.0000E+00  0.0000E+00  0.0000E+00  0.0000E+00  0.0000E+00  0.0000E+00  0.0000E+00  0.0000E+00  0.0000E+00  0.0000E+00  0.0000E+00
    -24.614  0.0000E+00  0.0000E+00  0.0000E+00  0.0000E+00  0.0000E+00  0.0000E+00  0.0000E+00  0.0000E+00  0.0000E+00  0.0000E+00  0.0000E+00  0.0000E+00  0.0000E+00  0.0000E+00  0.0000E+00  0.0000E+00  0.0000E+00  0.0000E+00
    -24.481  0.0000E+00  0.0000E+00  0.0000E+00  0.0000E+00  0.0000E+00  0.0000E+00  0.0000E+00  0.0000E+00  0.0000E+00  0.0000E+00  0.0000E+00  0.0000E+00  0.0000E+00  0.0000E+00  0.0000E+00  0.0000E+00  0.0000E+00  0.0000E+00
    -24.348  0.0000E+00  0.0000E+00  0.0000E+00  0.0000E+00  0.0000E+00  0.0000E+00  0.0000E+00  0.0000E+00  0.0000E+00  0.0000E+00  0.0000E+00  0.0000E+00  0.0000E+00  0.0000E+00  0.0000E+00  0.0000E+00  0.0000E+00  0.0000E+00
    -24.215  0.0000E+00  0.0000E+00  0.0000E+00  0.0000E+00  0.0000E+00  0.0000E+00  0.0000E+00  0.0000E+00  0.0000E+00  0.0000E+00  0.0000E+00  0.0000E+00  0.0000E+00  0.0000E+00  0.0000E+00  0.0000E+00  0.0000E+00  0.0000E+00
    -24.082  0.0000E+00  0.0000E+00  0.0000E+00  0.0000E+00  0.0000E+00  0.0000E+00  0.0000E+00  0.0000E+00  0.0000E+00  0.0000E+00  0.0000E+00  0.0000E+00  0.0000E+00  0.0000E+00  0.0000E+00  0.0000E+00  0.0000E+00  0.0000E+00
    -23.949  0.0000E+00  0.0000E+00  0.0000E+00  0.0000E+00  0.0000E+00  0.0000E+00  0.0000E+00  0.0000E+00  0.0000E+00  0.0000E+00  0.0000E+00  0.0000E+00  0.0000E+00  0.0000E+00  0.0000E+00  0.0000E+00  0.0000E+00  0.0000E+00
    -23.816  0.0000E+00  0.0000E+00  0.0000E+00  0.0000E+00  0.0000E+00  0.0000E+00  0.0000E+00  0.0000E+00  0.0000E+00  0.0000E+00  0.0000E+00  0.0000E+00  0.0000E+00  0.0000E+00  0.0000E+00  0.0000E+00  0.0000E+00  0.0000E+00
    -23.683  0.0000E+00  0.0000E+00  0.0000E+00  0.0000E+00  0.0000E+00  0.0000E+00  0.0000E+00  0.0000E+00  0.0000E+00  0.0000E+00  0.0000E+00  0.0000E+00  0.0000E+00  0.0000E+00  0.0000E+00  0.0000E+00  0.0000E+00  0.0000E+00
    -23.550  0.0000E+00  0.0000E+00  0.0000E+00  0.0000E+00  0.0000E+00  0.0000E+00  0.0000E+00  0.0000E+00  0.0000E+00  0.0000E+00  0.0000E+00  0.0000E+00  0.0000E+00  0.0000E+00  0.0000E+00  0.0000E+00  0.0000E+00  0.0000E+00
    -23.417  0.0000E+00  0.0000E+00  0.0000E+00  0.0000E+00  0.0000E+00  0.0000E+00  0.0000E+00  0.0000E+00  0.0000E+00  0.0000E+00  0.0000E+00  0.0000E+00  0.0000E+00  0.0000E+00  0.0000E+00  0.0000E+00  0.0000E+00  0.0000E+00
    -23.284  0.0000E+00  0.0000E+00  0.0000E+00  0.0000E+00  0.0000E+00  0.0000E+00  0.0000E+00  0.0000E+00  0.0000E+00  0.0000E+00  0.0000E+00  0.0000E+00  0.0000E+00  0.0000E+00  0.0000E+00  0.0000E+00  0.0000E+00  0.0000E+00
    -23.151  0.0000E+00  0.0000E+00  0.0000E+00  0.0000E+00  0.0000E+00  0.0000E+00  0.0000E+00  0.0000E+00  0.0000E+00  0.0000E+00  0.0000E+00  0.0000E+00  0.0000E+00  0.0000E+00  0.0000E+00  0.0000E+00  0.0000E+00  0.0000E+00
    -23.018  0.0000E+00  0.0000E+00  0.0000E+00  0.0000E+00  0.0000E+00  0.0000E+00  0.0000E+00  0.0000E+00  0.0000E+00  0.0000E+00  0.0000E+00  0.0000E+00  0.0000E+00  0.0000E+00  0.0000E+00  0.0000E+00  0.0000E+00  0.0000E+00
    -22.885  0.0000E+00  0.0000E+00  0.0000E+00  0.0000E+00  0.0000E+00  0.0000E+00  0.0000E+00  0.0000E+00  0.0000E+00  0.0000E+00  0.0000E+00  0.0000E+00  0.0000E+00  0.0000E+00  0.0000E+00  0.0000E+00  0.0000E+00  0.0000E+00
    -22.752  0.0000E+00  0.0000E+00  0.0000E+00  0.0000E+00  0.0000E+00  0.0000E+00  0.0000E+00  0.0000E+00  0.0000E+00  0.0000E+00  0.0000E+00  0.0000E+00  0.0000E+00  0.0000E+00  0.0000E+00  0.0000E+00  0.0000E+00  0.0000E+00
    -22.619  0.0000E+00  0.0000E+00  0.0000E+00  0.0000E+00  0.0000E+00  0.0000E+00  0.0000E+00  0.0000E+00  0.0000E+00  0.0000E+00  0.0000E+00  0.0000E+00  0.0000E+00  0.0000E+00  0.0000E+00  0.0000E+00  0.0000E+00  0.0000E+00
    -22.486  0.0000E+00  0.0000E+00  0.0000E+00  0.0000E+00  0.0000E+00  0.0000E+00  0.0000E+00  0.0000E+00  0.0000E+00  0.0000E+00  0.0000E+00  0.0000E+00  0.0000E+00  0.0000E+00  0.0000E+00  0.0000E+00  0.0000E+00  0.0000E+00
    -22.353  0.0000E+00  0.0000E+00  0.0000E+00  0.0000E+00  0.0000E+00  0.0000E+00  0.0000E+00  0.0000E+00  0.0000E+00  0.0000E+00  0.0000E+00  0.0000E+00  0.0000E+00  0.0000E+00  0.0000E+00  0.0000E+00  0.0000E+00  0.0000E+00
    -22.220  0.0000E+00  0.0000E+00  0.0000E+00  0.0000E+00  0.0000E+00  0.0000E+00  0.0000E+00  0.0000E+00  0.0000E+00  0.0000E+00  0.0000E+00  0.0000E+00  0.0000E+00  0.0000E+00  0.0000E+00  0.0000E+00  0.0000E+00  0.0000E+00
    -22.087  0.0000E+00  0.0000E+00  0.0000E+00  0.0000E+00  0.0000E+00  0.0000E+00  0.0000E+00  0.0000E+00  0.0000E+00  0.0000E+00  0.0000E+00  0.0000E+00  0.0000E+00  0.0000E+00  0.0000E+00  0.0000E+00  0.0000E+00  0.0000E+00
    -21.954  0.0000E+00  0.0000E+00  0.0000E+00  0.0000E+00  0.0000E+00  0.0000E+00  0.0000E+00  0.0000E+00  0.0000E+00  0.0000E+00  0.0000E+00  0.0000E+00  0.0000E+00  0.0000E+00  0.0000E+00  0.0000E+00  0.0000E+00  0.0000E+00
    -21.821  0.0000E+00  0.0000E+00  0.0000E+00  0.0000E+00  0.0000E+00  0.0000E+00  0.0000E+00  0.0000E+00  0.0000E+00  0.0000E+00  0.0000E+00  0.0000E+00  0.0000E+00  0.0000E+00  0.0000E+00  0.0000E+00  0.0000E+00  0.0000E+00
    -21.688  0.0000E+00  0.0000E+00  0.0000E+00  0.0000E+00  0.0000E+00  0.0000E+00  0.0000E+00  0.0000E+00  0.0000E+00  0.0000E+00  0.0000E+00  0.0000E+00  0.0000E+00  0.0000E+00  0.0000E+00  0.0000E+00  0.0000E+00  0.0000E+00
    -21.555  0.0000E+00  0.0000E+00  0.0000E+00  0.0000E+00  0.0000E+00  0.0000E+00  0.0000E+00  0.0000E+00  0.0000E+00  0.0000E+00  0.0000E+00  0.0000E+00  0.0000E+00  0.0000E+00  0.0000E+00  0.0000E+00  0.0000E+00  0.0000E+00