   4   4   1   0
  0.1288283E+02  0.3720436E-09  0.3721678E-09  0.3721678E-09  0.5000000E-15
  1.000000000000000E-004
  CAR 
 unknown system                          
     19.80189918    -21.51710655  301     10.62993508      1.00000000
    -21.517  0.0000E+00  0.0000E+00  0.0000E+00  0.0000E+00
    -21.379  0.0000E+00  0.0000E+00  0.0000E+00  0.0000E+00
    -21.242  0.0000E+00  0.0000E+00  0.0000E+00  0.0000E+00
    -21.104  0.0000E+00  0.0000E+00  0.0000E+00  0.0000E+00
    -20.966  0.0000E+00  0.0000E+00  0.0000E+00  0.0000E+00
    -20.828  0.0000E+00  0.0000E+00  0.0000E+00  0.0000E+00
    -20.691  0.0000E+00  0.0000E+00  0.0000E+00  0.0000E+00
    -20.553  0.0000E+00  0.0000E+00  0.0000E+00  0.0000E+00
    -20.415  0.0000E+00  0.0000E+00  0.0000E+00  0.0000E+00
    -20.278  0.0000E+00  0.0000E+00  0.0000E+00  0.0000E+00
    -20.140  0.1440E-03  0.1169E-03  0.1983E-04  0.1610E-04
    -20.002  0.4058E-02  0.3791E-02  0.5788E-03  0.5383E-03
    -19.864  0.6151E-01  0.5723E-01  0.9051E-02  0.8420E-02
    -19.727  0.8944E+00  0.8364E+00  0.1322E+00  0.1236E+00
    -19.589  0.6847E+01  0.6608E+01  0.1075E+01  0.1034E+01
    -19.451  0.1074E+02  0.1085E+02  0.2554E+01  0.2528E+01
    -19.313  0.2972E+01  0.3140E+01  0.2964E+01  0.2961E+01
    -19.176  0.2218E+00  0.2421E+00  0.2998E+01  0.2998E+01
    -19.038  0.0000E+00  0.0000E+00  0.3000E+01  0.3000E+01
    -18.900  0.0000E+00  0.0000E+00  0.3000E+01  0.3000E+01
    -18.763  0.0000E+00  0.0000E+00  0.3000E+01  0.3000E+01
    -18.625  0.0000E+00  0.0000E+00  0.3000E+01  0.3000E+01
    -18.487  0.0000E+00  0.0000E+00  0.3000E+01  0.3000E+01
    -18.349  0.0000E+00  0.0000E+00  0.3000E+01  0.3000E+01
    -18.212  0.0000E+00  0.0000E+00  0.3000E+01  0.3000E+01
    -18.074  0.0000E+00  0.0000E+00  0.3000E+01  0.3000E+01
    -17.936  0.0000E+00  0.0000E+00  0.3000E+01  0.3000E+01
    -17.798  0.0000E+00  0.0000E+00  0.3000E+01  0.3000E+01
    -17.661  0.0000E+00  0.0000E+00  0.3000E+01  0.3000E+01
    -17.523  0.0000E+00  0.0000E+00  0.3000E+01  0.3000E+01
    -17.385  0.0000E+00  0.0000E+00  0.3000E+01  0.3000E+01
    -17.247  0.0000E+00  0.0000E+00  0.3000E+01  0.3000E+01
    -17.110  0.0000E+00  0.0000E+00  0.3000E+01  0.3000E+01
    -16.972  0.0000E+00  0.0000E+00  0.3000E+01  0.3000E+01
    -16.834  0.0000E+00  0.0000E+00  0.3000E+01  0.3000E+01
    -16.697  0.0000E+00  0.0000E+00  0.3000E+01  0.3000E+01
    -16.559  0.0000E+00  0.0000E+00  0.3000E+01  0.3000E+01
    -16.421  0.0000E+00  0.0000E+00  0.3000E+01  0.3000E+01
    -16.283  0.0000E+00  0.0000E+00  0.3000E+01  0.3000E+01
    -16.146  0.0000E+00  0.0000E+00  0.3000E+01  0.3000E+01
    -16.008  0.0000E+00  0.0000E+00  0.3000E+01  0.3000E+01
    -15.870  0.0000E+00  0.0000E+00  0.3000E+01  0.3000E+01
    -15.732  0.0000E+00  0.0000E+00  0.3000E+01  0.3000E+01
    -15.595  0.0000E+00  0.0000E+00  0.3000E+01  0.3000E+01
    -15.457  0.0000E+00  0.0000E+00  0.3000E+01  0.3000E+01
    -15.319  0.0000E+00  0.0000E+00  0.3000E+01  0.3000E+01
    -15.182  0.0000E+00  0.0000E+00  0.3000E+01  0.3000E+01
    -15.044  0.0000E+00  0.0000E+00  0.3000E+01  0.3000E+01
    -14.906  0.0000E+00  0.0000E+00  0.3000E+01  0.3000E+01
    -14.768  0.0000E+00  0.0000E+00  0.3000E+01  0.3000E+01
    -14.631  0.0000E+00  0.0000E+00  0.3000E+01  0.3000E+01
    -14.493  0.0000E+00  0.0000E+00  0.3000E+01  0.3000E+01
    -14.355  0.0000E+00  0.0000E+00  0.3000E+01  0.3000E+01
    -14.217  0.0000E+00  0.0000E+00  0.3000E+01  0.3000E+01
    -14.080  0.0000E+00  0.0000E+00  0.3000E+01  0.3000E+01
    -13.942  0.0000E+00  0.0000E+00  0.3000E+01  0.3000E+01
    -13.804  0.0000E+00  0.0000E+00  0.3000E+01  0.3000E+01
    -13.666  0.0000E+00  0.0000E+00  0.3000E+01  0.3000E+01
    -13.529  0.0000E+00  0.0000E+00  0.3000E+01  0.3000E+01
    -13.391  0.0000E+00  0.0000E+00  0.3000E+01  0.3000E+01
    -13.253  0.0000E+00  0.0000E+00  0.3000E+01  0.3000E+01
    -13.116  0.0000E+00  0.0000E+00  0.3000E+01  0.3000E+01
    -12.978  0.0000E+00  0.0000E+00  0.3000E+01  0.3000E+01
    -12.840  0.0000E+00  0.0000E+00  0.3000E+01  0.3000E+01
    -12.702  0.0000E+00  0.0000E+00  0.3000E+01  0.3000E+01
    -12.565  0.0000E+00  0.0000E+00  0.3000E+01  0.3000E+01
    -12.427  0.0000E+00  0.0000E+00  0.3000E+01  0.3000E+01
    -12.289  0.0000E+00  0.0000E+00  0.3000E+01  0.3000E+01
    -12.151  0.0000E+00  0.0000E+00  0.3000E+01  0.3000E+01
    -12.014  0.0000E+00  0.0000E+00  0.3000E+01  0.3000E+01
    -11.876  0.0000E+00  0.0000E+00  0.3000E+01  0.3000E+01
    -11.738  0.0000E+00  0.0000E+00  0.3000E+01  0.3000E+01
    -11.601  0.0000E+00  0.0000E+00  0.3000E+01  0.3000E+01
    -11.463  0.0000E+00  0.0000E+00  0.3000E+01  0.3000E+01
    -11.325  0.0000E+00  0.0000E+00  0.3000E+01  0.3000E+01
    -11.187  0.0000E+00  0.0000E+00  0.3000E+01  0.3000E+01
    -11.050  0.0000E+00  0.0000E+00  0.3000E+01  0.3000E+01
    -10.912  0.0000E+00  0.0000E+00  0.3000E+01  0.3000E+01
    -10.774  0.0000E+00  0.0000E+00  0.3000E+01  0.3000E+01
    -10.636  0.0000E+00  0.0000E+00  0.3000E+01  0.3000E+01
    -10.499  0.0000E+00  0.0000E+00  0.3000E+01  0.3000E+01
    -10.361  0.0000E+00  0.0000E+00  0.3000E+01  0.3000E+01
    -10.223  0.0000E+00  0.0000E+00  0.3000E+01  0.3000E+01
    -10.086  0.0000E+00  0.0000E+00  0.3000E+01  0.3000E+01
     -9.948  0.0000E+00  0.0000E+00  0.3000E+01  0.3000E+01
     -9.810  0.0000E+00  0.0000E+00  0.3000E+01  0.3000E+01
     -9.672  0.0000E+00  0.0000E+00  0.3000E+01  0.3000E+01
     -9.535  0.0000E+00  0.0000E+00  0.3000E+01  0.3000E+01
     -9.397  0.0000E+00  0.0000E+00  0.3000E+01  0.3000E+01
     -9.259  0.0000E+00  0.0000E+00  0.3000E+01  0.3000E+01
     -9.121  0.0000E+00  0.0000E+00  0.3000E+01  0.3000E+01
     -8.984  0.0000E+00  0.0000E+00  0.3000E+01  0.3000E+01
     -8.846  0.0000E+00  0.0000E+00  0.3000E+01  0.3000E+01
     -8.708  0.0000E+00  0.0000E+00  0.3000E+01  0.3000E+01
     -8.570  0.0000E+00  0.0000E+00  0.3000E+01  0.3000E+01
     -8.433  0.0000E+00  0.0000E+00  0.3000E+01  0.3000E+01
     -8.295  0.0000E+00  0.0000E+00  0.3000E+01  0.3000E+01
     -8.157  0.0000E+00  0.0000E+00  0.3000E+01  0.3000E+01
     -8.020  0.0000E+00  0.0000E+00  0.3000E+01  0.3000E+01
     -7.882  0.0000E+00  0.0000E+00  0.3000E+01  0.3000E+01
     -7.744  0.0000E+00  0.0000E+00  0.3000E+01  0.3000E+01
     -7.606  0.0000E+00  0.0000E+00  0.3000E+01  0.3000E+01
     -7.469  0.0000E+00  0.0000E+00  0.3000E+01  0.3000E+01
     -7.331  0.0000E+00  0.0000E+00  0.3000E+01  0.3000E+01
     -7.193  0.0000E+00  0.0000E+00  0.3000E+01  0.3000E+01
     -7.055  0.0000E+00  0.0000E+00  0.3000E+01  0.3000E+01
     -6.918  0.0000E+00  0.0000E+00  0.3000E+01  0.3000E+01
     -6.780  0.0000E+00  0.0000E+00  0.3000E+01  0.3000E+01
     -6.642  0.0000E+00  0.0000E+00  0.3000E+01  0.3000E+01
     -6.505  0.0000E+00  0.0000E+00  0.3000E+01  0.3000E+01
     -6.367  0.0000E+00  0.0000E+00  0.3000E+01  0.3000E+01
     -6.229  0.0000E+00  0.0000E+00  0.3000E+01  0.3000E+01
     -6.091  0.0000E+00  0.0000E+00  0.3000E+01  0.3000E+01
     -5.954  0.0000E+00  0.0000E+00  0.3000E+01  0.3000E+01
     -5.816  0.0000E+00  0.0000E+00  0.3000E+01  0.3000E+01
     -5.678  0.0000E+00  0.0000E+00  0.3000E+01  0.3000E+01
     -5.540  0.0000E+00  0.0000E+00  0.3000E+01  0.3000E+01
     -5.403  0.0000E+00  0.0000E+00  0.3000E+01  0.3000E+01
     -5.265  0.0000E+00  0.0000E+00  0.3000E+01  0.3000E+01
     -5.127  0.0000E+00  0.0000E+00  0.3000E+01  0.3000E+01
     -4.990  0.0000E+00  0.0000E+00  0.3000E+01  0.3000E+01
     -4.852  0.0000E+00  0.0000E+00  0.3000E+01  0.3000E+01
     -4.714  0.0000E+00  0.0000E+00  0.3000E+01  0.3000E+01
     -4.576  0.0000E+00  0.0000E+00  0.3000E+01  0.3000E+01
     -4.439  0.0000E+00  0.0000E+00  0.3000E+01  0.3000E+01
     -4.301  0.0000E+00  0.0000E+00  0.3000E+01  0.3000E+01
     -4.163  0.0000E+00  0.0000E+00  0.3000E+01  0.3000E+01
     -4.025  0.0000E+00  0.0000E+00  0.3000E+01  0.3000E+01
     -3.888  0.0000E+00  0.0000E+00  0.3000E+01  0.3000E+01
     -3.750  0.0000E+00  0.0000E+00  0.3000E+01  0.3000E+01
     -3.612  0.0000E+00  0.0000E+00  0.3000E+01  0.3000E+01
     -3.474  0.0000E+00  0.0000E+00  0.3000E+01  0.3000E+01
     -3.337  0.0000E+00  0.0000E+00  0.3000E+01  0.3000E+01
     -3.199  0.0000E+00  0.0000E+00  0.3000E+01  0.3000E+01
     -3.061  0.0000E+00  0.0000E+00  0.3000E+01  0.3000E+01
     -2.924  0.0000E+00  0.0000E+00  0.3000E+01  0.3000E+01
     -2.786  0.0000E+00  0.0000E+00  0.3000E+01  0.3000E+01
     -2.648  0.0000E+00  0.0000E+00  0.3000E+01  0.3000E+01
     -2.510  0.0000E+00  0.0000E+00  0.3000E+01  0.3000E+01
     -2.373  0.0000E+00  0.0000E+00  0.3000E+01  0.3000E+01
     -2.235  0.2944E-06  0.2938E-06  0.3000E+01  0.3000E+01
     -2.097  0.1268E-04  0.1265E-04  0.3000E+01  0.3000E+01
     -1.959  0.1955E-03  0.1951E-03  0.3000E+01  0.3000E+01
     -1.822  0.2713E-02  0.2708E-02  0.3000E+01  0.3000E+01
     -1.684  0.2002E-01  0.2000E-01  0.3003E+01  0.3003E+01
     -1.546  0.4922E-01  0.4920E-01  0.3010E+01  0.3010E+01
     -1.409  0.6926E-01  0.6922E-01  0.3019E+01  0.3019E+01
     -1.271  0.9963E-01  0.9963E-01  0.3033E+01  0.3033E+01
     -1.133  0.8410E-01  0.8406E-01  0.3045E+01  0.3045E+01
     -0.995  0.1342E+00  0.1341E+00  0.3063E+01  0.3063E+01
     -0.858  0.1290E+00  0.1290E+00  0.3081E+01  0.3081E+01
     -0.720  0.1490E+00  0.1490E+00  0.3102E+01  0.3102E+01
     -0.582  0.1270E+00  0.1271E+00  0.3119E+01  0.3119E+01
     -0.444  0.1821E+00  0.1820E+00  0.3144E+01  0.3144E+01
     -0.307  0.1994E+00  0.1994E+00  0.3172E+01  0.3172E+01
     -0.169  0.1989E+00  0.1989E+00  0.3199E+01  0.3199E+01
     -0.031  0.1430E+00  0.1430E+00  0.3219E+01  0.3219E+01
      0.107  0.2302E+00  0.2300E+00  0.3251E+01  0.3251E+01
      0.244  0.2566E+00  0.2567E+00  0.3286E+01  0.3286E+01
      0.382  0.2623E+00  0.2623E+00  0.3322E+01  0.3322E+01
      0.520  0.2070E+00  0.2070E+00  0.3351E+01  0.3351E+01
      0.657  0.2813E+00  0.2812E+00  0.3390E+01  0.3390E+01
      0.795  0.2594E+00  0.2594E+00  0.3426E+01  0.3426E+01
      0.933  0.2874E+00  0.2873E+00  0.3465E+01  0.3465E+01
      1.071  0.3918E+00  0.3916E+00  0.3519E+01  0.3519E+01
      1.208  0.3701E+00  0.3702E+00  0.3570E+01  0.3570E+01
      1.346  0.3350E+00  0.3351E+00  0.3616E+01  0.3616E+01
      1.484  0.3630E+00  0.3628E+00  0.3667E+01  0.3666E+01
      1.622  0.4137E+00  0.4138E+00  0.3724E+01  0.3724E+01
      1.759  0.4311E+00  0.4311E+00  0.3783E+01  0.3783E+01
      1.897  0.4878E+00  0.4878E+00  0.3850E+01  0.3850E+01
      2.035  0.4807E+00  0.4813E+00  0.3917E+01  0.3917E+01
      2.172  0.2941E+00  0.2940E+00  0.3957E+01  0.3957E+01
      2.310  0.3964E+00  0.3964E+00  0.4012E+01  0.4012E+01
      2.448  0.2160E+00  0.2161E+00  0.4042E+01  0.4042E+01
      2.586  0.3113E+00  0.3112E+00  0.4085E+01  0.4085E+01
      2.723  0.3570E+00  0.3569E+00  0.4134E+01  0.4134E+01
      2.861  0.3904E+00  0.3904E+00  0.4188E+01  0.4188E+01
      2.999  0.3646E+00  0.3646E+00  0.4238E+01  0.4238E+01
      3.137  0.2737E+00  0.2739E+00  0.4276E+01  0.4276E+01
      3.274  0.3532E+00  0.3529E+00  0.4325E+01  0.4325E+01
      3.412  0.4864E+00  0.4866E+00  0.4392E+01  0.4392E+01
      3.550  0.4386E+00  0.4384E+00  0.4452E+01  0.4452E+01
      3.687  0.4384E+00  0.4385E+00  0.4513E+01  0.4513E+01
      3.825  0.4925E+00  0.4924E+00  0.4581E+01  0.4581E+01
      3.963  0.5428E+00  0.5430E+00  0.4656E+01  0.4656E+01
      4.101  0.4164E+00  0.4164E+00  0.4713E+01  0.4713E+01
      4.238  0.4160E+00  0.4161E+00  0.4771E+01  0.4770E+01
      4.376  0.5333E+00  0.5329E+00  0.4844E+01  0.4844E+01
      4.514  0.6735E+00  0.6732E+00  0.4937E+01  0.4937E+01
      4.652  0.8616E+00  0.8614E+00  0.5056E+01  0.5056E+01
      4.789  0.7667E+00  0.7671E+00  0.5162E+01  0.5161E+01
      4.927  0.6436E+00  0.6436E+00  0.5250E+01  0.5250E+01
      5.065  0.6127E+00  0.6130E+00  0.5335E+01  0.5335E+01
      5.203  0.6502E+00  0.6500E+00  0.5425E+01  0.5425E+01
      5.340  0.5705E+00  0.5709E+00  0.5504E+01  0.5504E+01
      5.478  0.4950E+00  0.4950E+00  0.5572E+01  0.5572E+01
      5.616  0.6944E+00  0.6941E+00  0.5668E+01  0.5668E+01
      5.753  0.7834E+00  0.7833E+00  0.5776E+01  0.5776E+01
      5.891  0.7870E+00  0.7873E+00  0.5884E+01  0.5884E+01
      6.029  0.6641E+00  0.6641E+00  0.5976E+01  0.5976E+01
      6.167  0.7076E+00  0.7075E+00  0.6074E+01  0.6074E+01
      6.304  0.9244E+00  0.9244E+00  0.6201E+01  0.6201E+01
      6.442  0.6410E+00  0.6411E+00  0.6290E+01  0.6290E+01
      6.580  0.6328E+00  0.6327E+00  0.6377E+01  0.6377E+01
      6.718  0.7237E+00  0.7234E+00  0.6477E+01  0.6477E+01
      6.855  0.8606E+00  0.8606E+00  0.6596E+01  0.6595E+01
      6.993  0.1033E+01  0.1032E+01  0.6738E+01  0.6738E+01
      7.131  0.1443E+01  0.1443E+01  0.6937E+01  0.6937E+01
      7.268  0.1533E+01  0.1533E+01  0.7148E+01  0.7148E+01
      7.406  0.1351E+01  0.1351E+01  0.7335E+01  0.7334E+01
      7.544  0.1370E+01  0.1371E+01  0.7524E+01  0.7524E+01
      7.682  0.1410E+01  0.1410E+01  0.7718E+01  0.7718E+01
      7.819  0.1081E+01  0.1082E+01  0.7868E+01  0.7868E+01
      7.957  0.9230E+00  0.9230E+00  0.7995E+01  0.7995E+01
      8.095  0.9818E+00  0.9819E+00  0.8131E+01  0.8131E+01
      8.233  0.9245E+00  0.9246E+00  0.8258E+01  0.8258E+01
      8.370  0.7105E+00  0.7106E+00  0.8356E+01  0.8356E+01
      8.508  0.5909E+00  0.5911E+00  0.8438E+01  0.8438E+01
      8.646  0.5469E+00  0.5469E+00  0.8514E+01  0.8513E+01
      8.783  0.6355E+00  0.6355E+00  0.8601E+01  0.8601E+01
      8.921  0.5504E+00  0.5505E+00  0.8677E+01  0.8677E+01
      9.059  0.5012E+00  0.5011E+00  0.8747E+01  0.8746E+01
      9.197  0.6119E+00  0.6120E+00  0.8831E+01  0.8831E+01
      9.334  0.3648E+00  0.3650E+00  0.8881E+01  0.8881E+01
      9.472  0.3435E+00  0.3433E+00  0.8929E+01  0.8929E+01
      9.610  0.6153E+00  0.6151E+00  0.9014E+01  0.9014E+01
      9.748  0.5542E+00  0.5545E+00  0.9090E+01  0.9090E+01
      9.885  0.1940E+00  0.1941E+00  0.9117E+01  0.9117E+01
     10.023  0.2313E+00  0.2311E+00  0.9149E+01  0.9149E+01
     10.161  0.4559E+00  0.4557E+00  0.9212E+01  0.9212E+01
     10.299  0.5792E+00  0.5792E+00  0.9292E+01  0.9291E+01
     10.436  0.5284E+00  0.5285E+00  0.9364E+01  0.9364E+01
     10.574  0.6353E+00  0.6350E+00  0.9452E+01  0.9452E+01
     10.712  0.8260E+00  0.8261E+00  0.9566E+01  0.9566E+01
     10.849  0.5709E+00  0.5709E+00  0.9645E+01  0.9645E+01
     10.987  0.8148E+00  0.8144E+00  0.9757E+01  0.9757E+01
     11.125  0.1016E+01  0.1016E+01  0.9897E+01  0.9897E+01
     11.263  0.7051E+00  0.7053E+00  0.9994E+01  0.9994E+01
     11.400  0.6561E+00  0.6558E+00  0.1009E+02  0.1008E+02
     11.538  0.8276E+00  0.8273E+00  0.1020E+02  0.1020E+02
     11.676  0.9656E+00  0.9656E+00  0.1033E+02  0.1033E+02
     11.814  0.8996E+00  0.8995E+00  0.1046E+02  0.1046E+02
     11.951  0.1095E+01  0.1095E+01  0.1061E+02  0.1061E+02
     12.089  0.9504E+00  0.9507E+00  0.1074E+02  0.1074E+02
     12.227  0.7834E+00  0.7835E+00  0.1085E+02  0.1085E+02
     12.364  0.8913E+00  0.8907E+00  0.1097E+02  0.1097E+02
     12.502  0.1162E+01  0.1162E+01  0.1113E+02  0.1113E+02
     12.640  0.9502E+00  0.9506E+00  0.1126E+02  0.1126E+02
     12.778  0.9408E+00  0.9408E+00  0.1139E+02  0.1139E+02
     12.915  0.8629E+00  0.8630E+00  0.1151E+02  0.1151E+02
     13.053  0.1073E+01  0.1072E+01  0.1166E+02  0.1166E+02
     13.191  0.1147E+01  0.1147E+01  0.1182E+02  0.1182E+02
     13.329  0.9552E+00  0.9554E+00  0.1195E+02  0.1195E+02
     13.466  0.9468E+00  0.9463E+00  0.1208E+02  0.1208E+02
     13.604  0.1143E+01  0.1143E+01  0.1224E+02  0.1224E+02
     13.742  0.9950E+00  0.9948E+00  0.1237E+02  0.1237E+02
     13.880  0.1258E+01  0.1257E+01  0.1255E+02  0.1255E+02
     14.017  0.1224E+01  0.1224E+01  0.1272E+02  0.1272E+02
     14.155  0.1046E+01  0.1047E+01  0.1286E+02  0.1286E+02
     14.293  0.9117E+00  0.9123E+00  0.1299E+02  0.1299E+02
     14.430  0.7738E+00  0.7743E+00  0.1309E+02  0.1309E+02
     14.568  0.6568E+00  0.6568E+00  0.1318E+02  0.1318E+02
     14.706  0.1004E+01  0.1004E+01  0.1332E+02  0.1332E+02
     14.844  0.7696E+00  0.7701E+00  0.1343E+02  0.1343E+02
     14.981  0.7757E+00  0.7754E+00  0.1354E+02  0.1354E+02
     15.119  0.7131E+00  0.7136E+00  0.1363E+02  0.1363E+02
     15.257  0.7556E+00  0.7553E+00  0.1374E+02  0.1374E+02
     15.395  0.8088E+00  0.8088E+00  0.1385E+02  0.1385E+02
     15.532  0.9624E+00  0.9623E+00  0.1398E+02  0.1398E+02
     15.670  0.1004E+01  0.1004E+01  0.1412E+02  0.1412E+02
     15.808  0.8545E+00  0.8543E+00  0.1424E+02  0.1424E+02
     15.945  0.9502E+00  0.9506E+00  0.1437E+02  0.1437E+02
     16.083  0.7629E+00  0.7630E+00  0.1448E+02  0.1448E+02
     16.221  0.8996E+00  0.8995E+00  0.1460E+02  0.1460E+02
     16.359  0.1146E+01  0.1146E+01  0.1476E+02  0.1476E+02
     16.496  0.1138E+01  0.1139E+01  0.1491E+02  0.1491E+02
     16.634  0.9131E+00  0.9127E+00  0.1504E+02  0.1504E+02
     16.772  0.9574E+00  0.9576E+00  0.1517E+02  0.1517E+02
     16.910  0.1223E+01  0.1223E+01  0.1534E+02  0.1534E+02
     17.047  0.1109E+01  0.1109E+01  0.1549E+02  0.1549E+02
     17.185  0.1098E+01  0.1094E+01  0.1565E+02  0.1565E+02
     17.323  0.9836E+00  0.9756E+00  0.1578E+02  0.1578E+02
     17.460  0.5429E+00  0.5582E+00  0.1586E+02  0.1586E+02
     17.598  0.5459E+00  0.5710E+00  0.1593E+02  0.1594E+02
     17.736  0.2864E+00  0.2714E+00  0.1597E+02  0.1597E+02
     17.874  0.1209E+00  0.1207E+00  0.1599E+02  0.1599E+02
     18.011  0.7259E-01  0.6031E-01  0.1600E+02  0.1600E+02
     18.149  0.9169E-02  0.9597E-02  0.1600E+02  0.1600E+02
     18.287  0.2884E-03  0.5396E-03  0.1600E+02  0.1600E+02
     18.425  0.0000E+00  0.0000E+00  0.1600E+02  0.1600E+02
     18.562  0.0000E+00  0.0000E+00  0.1600E+02  0.1600E+02
     18.700  0.0000E+00  0.0000E+00  0.1600E+02  0.1600E+02
     18.838  0.0000E+00  0.0000E+00  0.1600E+02  0.1600E+02
     18.976  0.0000E+00  0.0000E+00  0.1600E+02  0.1600E+02
     19.113  0.0000E+00  0.0000E+00  0.1600E+02  0.1600E+02
     19.251  0.0000E+00  0.0000E+00  0.1600E+02  0.1600E+02
     19.389  0.0000E+00  0.0000E+00  0.1600E+02  0.1600E+02
     19.526  0.0000E+00  0.0000E+00  0.1600E+02  0.1600E+02
     19.664  0.0000E+00  0.0000E+00  0.1600E+02  0.1600E+02
     19.802  0.0000E+00  0.0000E+00  0.1600E+02  0.1600E+02
     19.80189918    -21.51710655  301     10.62993508      1.00000000
    -21.517  0.0000E+00  0.0000E+00  0.0000E+00  0.0000E+00  0.0000E+00  0.0000E+00  0.0000E+00  0.0000E+00  0.0000E+00  0.0000E+00  0.0000E+00  0.0000E+00  0.0000E+00  0.0000E+00  0.0000E+00  0.0000E+00  0.0000E+00  0.0000E+00
    -21.379  0.0000E+00  0.0000E+00  0.0000E+00  0.0000E+00  0.0000E+00  0.0000E+00  0.0000E+00  0.0000E+00  0.0000E+00  0.0000E+00  0.0000E+00  0.0000E+00  0.0000E+00  0.0000E+00  0.0000E+00  0.0000E+00  0.0000E+00  0.0000E+00
    -21.242  0.0000E+00  0.0000E+00  0.0000E+00  0.0000E+00  0.0000E+00  0.0000E+00  0.0000E+00  0.0000E+00  0.0000E+00  0.0000E+00  0.0000E+00  0.0000E+00  0.0000E+00  0.0000E+00  0.0000E+00  0.0000E+00  0.0000E+00  0.0000E+00
    -21.104  0.0000E+00  0.0000E+00  0.0000E+00  0.0000E+00  0.0000E+00  0.0000E+00  0.0000E+00  0.0000E+00  0.0000E+00  0.0000E+00  0.0000E+00  0.0000E+00  0.0000E+00  0.0000E+00  0.0000E+00  0.0000E+00  0.0000E+00  0.0000E+00
    -20.966  0.0000E+00  0.0000E+00  0.0000E+00  0.0000E+00  0.0000E+00  0.0000E+00  0.0000E+00  0.0000E+00  0.0000E+00  0.0000E+00  0.0000E+00  0.0000E+00  0.0000E+00  0.0000E+00  0.0000E+00  0.0000E+00  0.0000E+00  0.0000E+00
    -20.828  0.0000E+00  0.0000E+00  0.0000E+00  0.0000E+00  0.0000E+00  0.0000E+00  0.0000E+00  0.0000E+00  0.0000E+00  0.0000E+00  0.0000E+00  0.0000E+00  0.0000E+00  0.0000E+00  0.0000E+00  0.0000E+00  0.0000E+00  0.0000E+00
    -20.691  0.0000E+00  0.0000E+00  0.0000E+00  0.0000E+00  0.0000E+00  0.0000E+00  0.0000E+00  0.0000E+00  0.0000E+00  0.0000E+00  0.0000E+00  0.0000E+00  0.0000E+00  0.0000E+00  0.0000E+00  0.0000E+00  0.0000E+00  0.0000E+00
    -20.553  0.0000E+00  0.0000E+00  0.0000E+00  0.0000E+00  0.0000E+00  0.0000E+00  0.0000E+00  0.0000E+00  0.0000E+00  0.0000E+00  0.0000E+00  0.0000E+00  0.0000E+00  0.0000E+00  0.0000E+00  0.0000E+00  0.0000E+00  0.0000E+00
    -20.415  0.0000E+00  0.0000E+00  0.0000E+00  0.0000E+00  0.0000E+00  0.0000E+00  0.0000E+00  0.0000E+00  0.0000E+00  0.0000E+00  0.0000E+00  0.0000E+00  0.0000E+00  0.0000E+00  0.0000E+00  0.0000E+00  0.0000E+00  0.0000E+00
    -20.278  0.0000E+00  0.0000E+00  0.0000E+00  0.0000E+00  0.0000E+00  0.0000E+00  0.0000E+00  0.0000E+00  0.0000E+00  0.0000E+00  0.0000E+00  0.0000E+00  0.0000E+00  0.0000E+00  0.0000E+00  0.0000E+00  0.0000E+00  0.0000E+00
    -20.140  0.3700E-09  0.2806E-09  0.4682E-04  0.3802E-04  0.4682E-04  0.3802E-04  0.4678E-04  0.3798E-04  0.5542E-10  0.4663E-10  0.5525E-10  0.4648E-10  0.2054E-09  0.1442E-09  0.5542E-10  0.4663E-10  0.2533E-09  0.1816E-09
    -20.002  0.2136E-07  0.1995E-07  0.1323E-02  0.1236E-02  0.1323E-02  0.1236E-02  0.1320E-02  0.1233E-02  0.1337E-08  0.1251E-08  0.1333E-08  0.1247E-08  0.1455E-07  0.1358E-07  0.1337E-08  0.1251E-08  0.1590E-07  0.1484E-07
    -19.864  0.3185E-06  0.2966E-06  0.2005E-01  0.1865E-01  0.2005E-01  0.1865E-01  0.2001E-01  0.1861E-01  0.2037E-07  0.1899E-07  0.2031E-07  0.1893E-07  0.2164E-06  0.2012E-06  0.2037E-07  0.1899E-07  0.2368E-06  0.2202E-06
    -19.727  0.4721E-05  0.4414E-05  0.2915E+00  0.2726E+00  0.2915E+00  0.2726E+00  0.2910E+00  0.2721E+00  0.2940E-06  0.2756E-06  0.2932E-06  0.2748E-06  0.3225E-05  0.3010E-05  0.2940E-06  0.2756E-06  0.3518E-05  0.3284E-05
    -19.589  0.4082E-04  0.3928E-04  0.2234E+01  0.2156E+01  0.2234E+01  0.2156E+01  0.2230E+01  0.2152E+01  0.2075E-05  0.2017E-05  0.2069E-05  0.2011E-05  0.2924E-04  0.2803E-04  0.2075E-05  0.2017E-05  0.3105E-04  0.2981E-04
    -19.451  0.6537E-04  0.6639E-04  0.3509E+01  0.3546E+01  0.3509E+01  0.3546E+01  0.3509E+01  0.3546E+01  0.2466E-05  0.2524E-05  0.2457E-05  0.2515E-05  0.5240E-04  0.5296E-04  0.2466E-05  0.2524E-05  0.5234E-04  0.5299E-04
    -19.313  0.1463E-04  0.1555E-04  0.9714E+00  0.1026E+01  0.9714E+00  0.1026E+01  0.9757E+00  0.1031E+01  0.5357E-06  0.5710E-06  0.5329E-06  0.5681E-06  0.1276E-04  0.1352E-04  0.5357E-06  0.5710E-06  0.1216E-04  0.1289E-04
    -19.176  0.9687E-06  0.1079E-05  0.7252E-01  0.7914E-01  0.7252E-01  0.7914E-01  0.7302E-01  0.7968E-01  0.3354E-07  0.3714E-07  0.3332E-07  0.3690E-07  0.9048E-06  0.1001E-05  0.3354E-07  0.3714E-07  0.8331E-06  0.9269E-06
    -19.038  0.0000E+00  0.0000E+00  0.0000E+00  0.0000E+00  0.0000E+00  0.0000E+00  0.0000E+00  0.0000E+00  0.0000E+00  0.0000E+00  0.0000E+00  0.0000E+00  0.0000E+00  0.0000E+00  0.0000E+00  0.0000E+00  0.0000E+00  0.0000E+00
    -18.900  0.0000E+00  0.0000E+00  0.0000E+00  0.0000E+00  0.0000E+00  0.0000E+00  0.0000E+00  0.0000E+00  0.0000E+00  0.0000E+00  0.0000E+00  0.0000E+00  0.0000E+00  0.0000E+00  0.0000E+00  0.0000E+00  0.0000E+00  0.0000E+00
    -18.763  0.0000E+00  0.0000E+00  0.0000E+00  0.0000E+00  0.0000E+00  0.0000E+00  0.0000E+00  0.0000E+00  0.0000E+00  0.0000E+00  0.0000E+00  0.0000E+00  0.0000E+00  0.0000E+00  0.0000E+00  0.0000E+00  0.0000E+00  0.0000E+00
    -18.625  0.0000E+00  0.0000E+00  0.0000E+00  0.0000E+00  0.0000E+00  0.0000E+00  0.0000E+00  0.0000E+00  0.0000E+00  0.0000E+00  0.0000E+00  0.0000E+00  0.0000E+00  0.0000E+00  0.0000E+00  0.0000E+00  0.0000E+00  0.0000E+00
    -18.487  0.0000E+00  0.0000E+00  0.0000E+00  0.0000E+00  0.0000E+00  0.0000E+00  0.0000E+00  0.0000E+00  0.0000E+00  0.0000E+00  0.0000E+00  0.0000E+00  0.0000E+00  0.0000E+00  0.0000E+00  0.0000E+00  0.0000E+00  0.0000E+00
    -18.349  0.0000E+00  0.0000E+00  0.0000E+00  0.0000E+00  0.0000E+00  0.0000E+00  0.0000E+00  0.0000E+00  0.0000E+00  0.0000E+00  0.0000E+00  0.0000E+00  0.0000E+00  0.0000E+00  0.0000E+00  0.0000E+00  0.0000E+00  0.0000E+00
    -18.212  0.0000E+00  0.0000E+00  0.0000E+00  0.0000E+00  0.0000E+00  0.0000E+00  0.0000E+00  0.0000E+00  0.0000E+00  0.0000E+00  0.0000E+00  0.0000E+00  0.0000E+00  0.0000E+00  0.0000E+00  0.0000E+00  0.0000E+00  0.0000E+00
    -18.074  0.0000E+00  0.0000E+00  0.0000E+00  0.0000E+00  0.0000E+00  0.0000E+00  0.0000E+00  0.0000E+00  0.0000E+00  0.0000E+00  0.0000E+00  0.0000E+00  0.0000E+00  0.0000E+00  0.0000E+00  0.0000E+00  0.0000E+00  0.0000E+00
    -17.936  0.0000E+00  0.0000E+00  0.0000E+00  0.0000E+00  0.0000E+00  0.0000E+00  0.0000E+00  0.0000E+00  0.0000E+00  0.0000E+00  0.0000E+00  0.0000E+00  0.0000E+00  0.0000E+00  0.0000E+00  0.0000E+00  0.0000E+00  0.0000E+00
    -17.798  0.0000E+00  0.0000E+00  0.0000E+00  0.0000E+00  0.0000E+00  0.0000E+00  0.0000E+00  0.0000E+00  0.0000E+00  0.0000E+00  0.0000E+00  0.0000E+00  0.0000E+00  0.0000E+00  0.0000E+00  0.0000E+00  0.0000E+00  0.0000E+00
    -17.661  0.0000E+00  0.0000E+00  0.0000E+00  0.0000E+00  0.0000E+00  0.0000E+00  0.0000E+00  0.0000E+00  0.0000E+00  0.0000E+00  0.0000E+00  0.0000E+00  0.0000E+00  0.0000E+00  0.0000E+00  0.0000E+00  0.0000E+00  0.0000E+00
    -17.523  0.0000E+00  0.0000E+00  0.0000E+00  0.0000E+00  0.0000E+00  0.0000E+00  0.0000E+00  0.0000E+00  0.0000E+00  0.0000E+00  0.0000E+00  0.0000E+00  0.0000E+00  0.0000E+00  0.0000E+00  0.0000E+00  0.0000E+00  0.0000E+00
    -17.385  0.0000E+00  0.0000E+00  0.0000E+00  0.0000E+00  0.0000E+00  0.0000E+00  0.0000E+00  0.0000E+00  0.0000E+00  0.0000E+00  0.0000E+00  0.0000E+00  0.0000E+00  0.0000E+00  0.0000E+00  0.0000E+00  0.0000E+00  0.0000E+00
    -17.247  0.0000E+00  0.0000E+00  0.0000E+00  0.0000E+00  0.0000E+00  0.0000E+00  0.0000E+00  0.0000E+00  0.0000E+00  0.0000E+00  0.0000E+00  0.0000E+00  0.0000E+00  0.0000E+00  0.0000E+00  0.0000E+00  0.0000E+00  0.0000E+00
    -17.110  0.0000E+00  0.0000E+00  0.0000E+00  0.0000E+00  0.0000E+00  0.0000E+00  0.0000E+00  0.0000E+00  0.0000E+00  0.0000E+00  0.0000E+00  0.0000E+00  0.0000E+00  0.0000E+00  0.0000E+00  0.0000E+00  0.0000E+00  0.0000E+00
    -16.972  0.0000E+00  0.0000E+00  0.0000E+00  0.0000E+00  0.0000E+00  0.0000E+00  0.0000E+00  0.0000E+00  0.0000E+00  0.0000E+00  0.0000E+00  0.0000E+00  0.0000E+00  0.0000E+00  0.0000E+00  0.0000E+00  0.0000E+00  0.0000E+00
    -16.834  0.0000E+00  0.0000E+00  0.0000E+00  0.0000E+00  0.0000E+00  0.0000E+00  0.0000E+00  0.0000E+00  0.0000E+00  0.0000E+00  0.0000E+00  0.0000E+00  0.0000E+00  0.0000E+00  0.0000E+00  0.0000E+00  0.0000E+00  0.0000E+00
    -16.697  0.0000E+00  0.0000E+00  0.0000E+00  0.0000E+00  0.0000E+00  0.0000E+00  0.0000E+00  0.0000E+00  0.0000E+00  0.0000E+00  0.0000E+00  0.0000E+00  0.0000E+00  0.0000E+00  0.0000E+00  0.0000E+00  0.0000E+00  0.0000E+00
    -16.559  0.0000E+00  0.0000E+00  0.0000E+00  0.0000E+00  0.0000E+00  0.0000E+00  0.0000E+00  0.0000E+00  0.0000E+00  0.0000E+00  0.0000E+00  0.0000E+00  0.0000E+00  0.0000E+00  0.0000E+00  0.0000E+00  0.0000E+00  0.0000E+00
    -16.421  0.0000E+00  0.0000E+00  0.0000E+00  0.0000E+00  0.0000E+00  0.0000E+00  0.0000E+00  0.0000E+00  0.0000E+00  0.0000E+00  0.0000E+00  0.0000E+00  0.0000E+00  0.0000E+00  0.0000E+00  0.0000E+00  0.0000E+00  0.0000E+00
    -16.283  0.0000E+00  0.0000E+00  0.0000E+00  0.0000E+00  0.0000E+00  0.0000E+00  0.0000E+00  0.0000E+00  0.0000E+00  0.0000E+00  0.0000E+00  0.0000E+00  0.0000E+00  0.0000E+00  0.0000E+00  0.0000E+00  0.0000E+00  0.0000E+00
    -16.146  0.0000E+00  0.0000E+00  0.0000E+00  0.0000E+00  0.0000E+00  0.0000E+00  0.0000E+00  0.0000E+00  0.0000E+00  0.0000E+00  0.0000E+00  0.0000E+00  0.0000E+00  0.0000E+00  0.0000E+00  0.0000E+00  0.0000E+00  0.0000E+00
    -16.008  0.0000E+00  0.0000E+00  0.0000E+00  0.0000E+00  0.0000E+00  0.0000E+00  0.0000E+00  0.0000E+00  0.0000E+00  0.0000E+00  0.0000E+00  0.0000E+00  0.0000E+00  0.0000E+00  0.0000E+00  0.0000E+00  0.0000E+00  0.0000E+00
    -15.870  0.0000E+00  0.0000E+00  0.0000E+00  0.0000E+00  0.0000E+00  0.0000E+00  0.0000E+00  0.0000E+00  0.0000E+00  0.0000E+00  0.0000E+00  0.0000E+00  0.0000E+00  0.0000E+00  0.0000E+00  0.0000E+00  0.0000E+00  0.0000E+00
    -15.732  0.0000E+00  0.0000E+00  0.0000E+00  0.0000E+00  0.0000E+00  0.0000E+00  0.0000E+00  0.0000E+00  0.0000E+00  0.0000E+00  0.0000E+00  0.0000E+00  0.0000E+00  0.0000E+00  0.0000E+00  0.0000E+00  0.0000E+00  0.0000E+00
    -15.595  0.0000E+00  0.0000E+00  0.0000E+00  0.0000E+00  0.0000E+00  0.0000E+00  0.0000E+00  0.0000E+00  0.0000E+00  0.0000E+00  0.0000E+00  0.0000E+00  0.0000E+00  0.0000E+00  0.0000E+00  0.0000E+00  0.0000E+00  0.0000E+00
    -15.457  0.0000E+00  0.0000E+00  0.0000E+00  0.0000E+00  0.0000E+00  0.0000E+00  0.0000E+00  0.0000E+00  0.0000E+00  0.0000E+00  0.0000E+00  0.0000E+00  0.0000E+00  0.0000E+00  0.0000E+00  0.0000E+00  0.0000E+00  0.0000E+00
    -15.319  0.0000E+00  0.0000E+00  0.0000E+00  0.0000E+00  0.0000E+00  0.0000E+00  0.0000E+00  0.0000E+00  0.0000E+00  0.0000E+00  0.0000E+00  0.0000E+00  0.0000E+00  0.0000E+00  0.0000E+00  0.0000E+00  0.0000E+00  0.0000E+00
    -15.182  0.0000E+00  0.0000E+00  0.0000E+00  0.0000E+00  0.0000E+00  0.0000E+00  0.0000E+00  0.0000E+00  0.0000E+00  0.0000E+00  0.0000E+00  0.0000E+00  0.0000E+00  0.0000E+00  0.0000E+00  0.0000E+00  0.0000E+00  0.0000E+00
    -15.044  0.0000E+00  0.0000E+00  0.0000E+00  0.0000E+00  0.0000E+00  0.0000E+00  0.0000E+00  0.0000E+00  0.0000E+00  0.0000E+00  0.0000E+00  0.0000E+00  0.0000E+00  0.0000E+00  0.0000E+00  0.0000E+00  0.0000E+00  0.0000E+00
    -14.906  0.0000E+00  0.0000E+00  0.0000E+00  0.0000E+00  0.0000E+00  0.0000E+00  0.0000E+00  0.0000E+00  0.0000E+00  0.0000E+00  0.0000E+00  0.0000E+00  0.0000E+00  0.0000E+00  0.0000E+00  0.0000E+00  0.0000E+00  0.0000E+00
    -14.768  0.0000E+00  0.0000E+00  0.0000E+00  0.0000E+00  0.0000E+00  0.0000E+00  0.0000E+00  0.0000E+00  0.0000E+00  0.0000E+00  0.0000E+00  0.0000E+00  0.0000E+00  0.0000E+00  0.0000E+00  0.0000E+00  0.0000E+00  0.0000E+00
    -14.631  0.0000E+00  0.0000E+00  0.0000E+00  0.0000E+00  0.0000E+00  0.0000E+00  0.0000E+00  0.0000E+00  0.0000E+00  0.0000E+00  0.0000E+00  0.0000E+00  0.0000E+00  0.0000E+00  0.0000E+00  0.0000E+00  0.0000E+00  0.0000E+00