   4   4   1   0
  0.1419942E+02  0.3843087E-09  0.3844370E-09  0.3844370E-09  0.5000000E-15
  1.000000000000000E-004
  CAR 
 unknown system                          
     17.97933853    -22.74141331  301      9.56365372      1.00000000
    -22.741  0.0000E+00  0.0000E+00  0.0000E+00  0.0000E+00
    -22.606  0.0000E+00  0.0000E+00  0.0000E+00  0.0000E+00
    -22.470  0.0000E+00  0.0000E+00  0.0000E+00  0.0000E+00
    -22.334  0.0000E+00  0.0000E+00  0.0000E+00  0.0000E+00
    -22.198  0.0000E+00  0.0000E+00  0.0000E+00  0.0000E+00
    -22.063  0.0000E+00  0.0000E+00  0.0000E+00  0.0000E+00
    -21.927  0.0000E+00  0.0000E+00  0.0000E+00  0.0000E+00
    -21.791  0.0000E+00  0.0000E+00  0.0000E+00  0.0000E+00
    -21.656  0.0000E+00  0.0000E+00  0.0000E+00  0.0000E+00
    -21.520  0.0000E+00  0.0000E+00  0.0000E+00  0.0000E+00
    -21.384  0.3058E-03  0.2770E-03  0.4150E-04  0.3760E-04
    -21.248  0.6566E-02  0.6263E-02  0.9328E-03  0.8877E-03
    -21.113  0.9629E-01  0.9166E-01  0.1400E-01  0.1333E-01
    -20.977  0.1329E+01  0.1270E+01  0.1944E+00  0.1858E+00
    -20.841  0.9012E+01  0.8827E+01  0.1418E+01  0.1384E+01
    -20.705  0.9879E+01  0.1005E+02  0.2759E+01  0.2748E+01
    -20.570  0.1648E+01  0.1722E+01  0.2982E+01  0.2981E+01
    -20.434  0.9220E-01  0.9778E-01  0.2999E+01  0.2999E+01
    -20.298  0.0000E+00  0.0000E+00  0.3000E+01  0.3000E+01
    -20.162  0.0000E+00  0.0000E+00  0.3000E+01  0.3000E+01
    -20.027  0.0000E+00  0.0000E+00  0.3000E+01  0.3000E+01
    -19.891  0.0000E+00  0.0000E+00  0.3000E+01  0.3000E+01
    -19.755  0.0000E+00  0.0000E+00  0.3000E+01  0.3000E+01
    -19.619  0.0000E+00  0.0000E+00  0.3000E+01  0.3000E+01
    -19.484  0.0000E+00  0.0000E+00  0.3000E+01  0.3000E+01
    -19.348  0.0000E+00  0.0000E+00  0.3000E+01  0.3000E+01
    -19.212  0.0000E+00  0.0000E+00  0.3000E+01  0.3000E+01
    -19.077  0.0000E+00  0.0000E+00  0.3000E+01  0.3000E+01
    -18.941  0.0000E+00  0.0000E+00  0.3000E+01  0.3000E+01
    -18.805  0.0000E+00  0.0000E+00  0.3000E+01  0.3000E+01
    -18.669  0.0000E+00  0.0000E+00  0.3000E+01  0.3000E+01
    -18.534  0.0000E+00  0.0000E+00  0.3000E+01  0.3000E+01
    -18.398  0.0000E+00  0.0000E+00  0.3000E+01  0.3000E+01
    -18.262  0.0000E+00  0.0000E+00  0.3000E+01  0.3000E+01
    -18.126  0.0000E+00  0.0000E+00  0.3000E+01  0.3000E+01
    -17.991  0.0000E+00  0.0000E+00  0.3000E+01  0.3000E+01
    -17.855  0.0000E+00  0.0000E+00  0.3000E+01  0.3000E+01
    -17.719  0.0000E+00  0.0000E+00  0.3000E+01  0.3000E+01
    -17.583  0.0000E+00  0.0000E+00  0.3000E+01  0.3000E+01
    -17.448  0.0000E+00  0.0000E+00  0.3000E+01  0.3000E+01
    -17.312  0.0000E+00  0.0000E+00  0.3000E+01  0.3000E+01
    -17.176  0.0000E+00  0.0000E+00  0.3000E+01  0.3000E+01
    -17.041  0.0000E+00  0.0000E+00  0.3000E+01  0.3000E+01
    -16.905  0.0000E+00  0.0000E+00  0.3000E+01  0.3000E+01
    -16.769  0.0000E+00  0.0000E+00  0.3000E+01  0.3000E+01
    -16.633  0.0000E+00  0.0000E+00  0.3000E+01  0.3000E+01
    -16.498  0.0000E+00  0.0000E+00  0.3000E+01  0.3000E+01
    -16.362  0.0000E+00  0.0000E+00  0.3000E+01  0.3000E+01
    -16.226  0.0000E+00  0.0000E+00  0.3000E+01  0.3000E+01
    -16.090  0.0000E+00  0.0000E+00  0.3000E+01  0.3000E+01
    -15.955  0.0000E+00  0.0000E+00  0.3000E+01  0.3000E+01
    -15.819  0.0000E+00  0.0000E+00  0.3000E+01  0.3000E+01
    -15.683  0.0000E+00  0.0000E+00  0.3000E+01  0.3000E+01
    -15.547  0.0000E+00  0.0000E+00  0.3000E+01  0.3000E+01
    -15.412  0.0000E+00  0.0000E+00  0.3000E+01  0.3000E+01
    -15.276  0.0000E+00  0.0000E+00  0.3000E+01  0.3000E+01
    -15.140  0.0000E+00  0.0000E+00  0.3000E+01  0.3000E+01
    -15.004  0.0000E+00  0.0000E+00  0.3000E+01  0.3000E+01
    -14.869  0.0000E+00  0.0000E+00  0.3000E+01  0.3000E+01
    -14.733  0.0000E+00  0.0000E+00  0.3000E+01  0.3000E+01
    -14.597  0.0000E+00  0.0000E+00  0.3000E+01  0.3000E+01
    -14.462  0.0000E+00  0.0000E+00  0.3000E+01  0.3000E+01
    -14.326  0.0000E+00  0.0000E+00  0.3000E+01  0.3000E+01
    -14.190  0.0000E+00  0.0000E+00  0.3000E+01  0.3000E+01
    -14.054  0.0000E+00  0.0000E+00  0.3000E+01  0.3000E+01
    -13.919  0.0000E+00  0.0000E+00  0.3000E+01  0.3000E+01
    -13.783  0.0000E+00  0.0000E+00  0.3000E+01  0.3000E+01
    -13.647  0.0000E+00  0.0000E+00  0.3000E+01  0.3000E+01
    -13.511  0.0000E+00  0.0000E+00  0.3000E+01  0.3000E+01
    -13.376  0.0000E+00  0.0000E+00  0.3000E+01  0.3000E+01
    -13.240  0.0000E+00  0.0000E+00  0.3000E+01  0.3000E+01
    -13.104  0.0000E+00  0.0000E+00  0.3000E+01  0.3000E+01
    -12.968  0.0000E+00  0.0000E+00  0.3000E+01  0.3000E+01
    -12.833  0.0000E+00  0.0000E+00  0.3000E+01  0.3000E+01
    -12.697  0.0000E+00  0.0000E+00  0.3000E+01  0.3000E+01
    -12.561  0.0000E+00  0.0000E+00  0.3000E+01  0.3000E+01
    -12.425  0.0000E+00  0.0000E+00  0.3000E+01  0.3000E+01
    -12.290  0.0000E+00  0.0000E+00  0.3000E+01  0.3000E+01
    -12.154  0.0000E+00  0.0000E+00  0.3000E+01  0.3000E+01
    -12.018  0.0000E+00  0.0000E+00  0.3000E+01  0.3000E+01
    -11.883  0.0000E+00  0.0000E+00  0.3000E+01  0.3000E+01
    -11.747  0.0000E+00  0.0000E+00  0.3000E+01  0.3000E+01
    -11.611  0.0000E+00  0.0000E+00  0.3000E+01  0.3000E+01
    -11.475  0.0000E+00  0.0000E+00  0.3000E+01  0.3000E+01
    -11.340  0.0000E+00  0.0000E+00  0.3000E+01  0.3000E+01
    -11.204  0.0000E+00  0.0000E+00  0.3000E+01  0.3000E+01
    -11.068  0.0000E+00  0.0000E+00  0.3000E+01  0.3000E+01
    -10.932  0.0000E+00  0.0000E+00  0.3000E+01  0.3000E+01
    -10.797  0.0000E+00  0.0000E+00  0.3000E+01  0.3000E+01
    -10.661  0.0000E+00  0.0000E+00  0.3000E+01  0.3000E+01
    -10.525  0.0000E+00  0.0000E+00  0.3000E+01  0.3000E+01
    -10.389  0.0000E+00  0.0000E+00  0.3000E+01  0.3000E+01
    -10.254  0.0000E+00  0.0000E+00  0.3000E+01  0.3000E+01
    -10.118  0.0000E+00  0.0000E+00  0.3000E+01  0.3000E+01
     -9.982  0.0000E+00  0.0000E+00  0.3000E+01  0.3000E+01
     -9.847  0.0000E+00  0.0000E+00  0.3000E+01  0.3000E+01
     -9.711  0.0000E+00  0.0000E+00  0.3000E+01  0.3000E+01
     -9.575  0.0000E+00  0.0000E+00  0.3000E+01  0.3000E+01
     -9.439  0.0000E+00  0.0000E+00  0.3000E+01  0.3000E+01
     -9.304  0.0000E+00  0.0000E+00  0.3000E+01  0.3000E+01
     -9.168  0.0000E+00  0.0000E+00  0.3000E+01  0.3000E+01
     -9.032  0.0000E+00  0.0000E+00  0.3000E+01  0.3000E+01
     -8.896  0.0000E+00  0.0000E+00  0.3000E+01  0.3000E+01
     -8.761  0.0000E+00  0.0000E+00  0.3000E+01  0.3000E+01
     -8.625  0.0000E+00  0.0000E+00  0.3000E+01  0.3000E+01
     -8.489  0.0000E+00  0.0000E+00  0.3000E+01  0.3000E+01
     -8.353  0.0000E+00  0.0000E+00  0.3000E+01  0.3000E+01
     -8.218  0.0000E+00  0.0000E+00  0.3000E+01  0.3000E+01
     -8.082  0.0000E+00  0.0000E+00  0.3000E+01  0.3000E+01
     -7.946  0.0000E+00  0.0000E+00  0.3000E+01  0.3000E+01
     -7.810  0.0000E+00  0.0000E+00  0.3000E+01  0.3000E+01
     -7.675  0.0000E+00  0.0000E+00  0.3000E+01  0.3000E+01
     -7.539  0.0000E+00  0.0000E+00  0.3000E+01  0.3000E+01
     -7.403  0.0000E+00  0.0000E+00  0.3000E+01  0.3000E+01
     -7.268  0.0000E+00  0.0000E+00  0.3000E+01  0.3000E+01
     -7.132  0.0000E+00  0.0000E+00  0.3000E+01  0.3000E+01
     -6.996  0.0000E+00  0.0000E+00  0.3000E+01  0.3000E+01
     -6.860  0.0000E+00  0.0000E+00  0.3000E+01  0.3000E+01
     -6.725  0.0000E+00  0.0000E+00  0.3000E+01  0.3000E+01
     -6.589  0.0000E+00  0.0000E+00  0.3000E+01  0.3000E+01
     -6.453  0.0000E+00  0.0000E+00  0.3000E+01  0.3000E+01
     -6.317  0.0000E+00  0.0000E+00  0.3000E+01  0.3000E+01
     -6.182  0.0000E+00  0.0000E+00  0.3000E+01  0.3000E+01
     -6.046  0.0000E+00  0.0000E+00  0.3000E+01  0.3000E+01
     -5.910  0.0000E+00  0.0000E+00  0.3000E+01  0.3000E+01
     -5.774  0.0000E+00  0.0000E+00  0.3000E+01  0.3000E+01
     -5.639  0.0000E+00  0.0000E+00  0.3000E+01  0.3000E+01
     -5.503  0.0000E+00  0.0000E+00  0.3000E+01  0.3000E+01
     -5.367  0.0000E+00  0.0000E+00  0.3000E+01  0.3000E+01
     -5.231  0.0000E+00  0.0000E+00  0.3000E+01  0.3000E+01
     -5.096  0.0000E+00  0.0000E+00  0.3000E+01  0.3000E+01
     -4.960  0.0000E+00  0.0000E+00  0.3000E+01  0.3000E+01
     -4.824  0.0000E+00  0.0000E+00  0.3000E+01  0.3000E+01
     -4.689  0.0000E+00  0.0000E+00  0.3000E+01  0.3000E+01
     -4.553  0.0000E+00  0.0000E+00  0.3000E+01  0.3000E+01
     -4.417  0.0000E+00  0.0000E+00  0.3000E+01  0.3000E+01
     -4.281  0.0000E+00  0.0000E+00  0.3000E+01  0.3000E+01
     -4.146  0.0000E+00  0.0000E+00  0.3000E+01  0.3000E+01
     -4.010  0.0000E+00  0.0000E+00  0.3000E+01  0.3000E+01
     -3.874  0.0000E+00  0.0000E+00  0.3000E+01  0.3000E+01
     -3.738  0.0000E+00  0.0000E+00  0.3000E+01  0.3000E+01
     -3.603  0.0000E+00  0.0000E+00  0.3000E+01  0.3000E+01
     -3.467  0.0000E+00  0.0000E+00  0.3000E+01  0.3000E+01
     -3.331  0.0000E+00  0.0000E+00  0.3000E+01  0.3000E+01
     -3.195  0.0000E+00  0.0000E+00  0.3000E+01  0.3000E+01
     -3.060  0.0000E+00  0.0000E+00  0.3000E+01  0.3000E+01
     -2.924  0.0000E+00  0.0000E+00  0.3000E+01  0.3000E+01
     -2.788  0.0000E+00  0.0000E+00  0.3000E+01  0.3000E+01
     -2.653  0.2154E-05  0.2142E-05  0.3000E+01  0.3000E+01
     -2.517  0.4129E-04  0.4105E-04  0.3000E+01  0.3000E+01
     -2.381  0.6064E-03  0.6030E-03  0.3000E+01  0.3000E+01
     -2.245  0.7085E-02  0.7054E-02  0.3001E+01  0.3001E+01
     -2.110  0.3543E-01  0.3535E-01  0.3006E+01  0.3006E+01
     -1.974  0.6219E-01  0.6214E-01  0.3014E+01  0.3014E+01
     -1.838  0.9864E-01  0.9856E-01  0.3028E+01  0.3028E+01
     -1.702  0.9473E-01  0.9476E-01  0.3041E+01  0.3041E+01
     -1.567  0.1295E+00  0.1294E+00  0.3058E+01  0.3058E+01
     -1.431  0.1451E+00  0.1451E+00  0.3078E+01  0.3078E+01
     -1.295  0.1544E+00  0.1543E+00  0.3099E+01  0.3099E+01
     -1.159  0.1446E+00  0.1447E+00  0.3118E+01  0.3118E+01
     -1.024  0.1919E+00  0.1917E+00  0.3145E+01  0.3144E+01
     -0.888  0.2154E+00  0.2154E+00  0.3174E+01  0.3174E+01
     -0.752  0.2069E+00  0.2070E+00  0.3202E+01  0.3202E+01
     -0.616  0.1623E+00  0.1624E+00  0.3224E+01  0.3224E+01
     -0.481  0.2656E+00  0.2654E+00  0.3260E+01  0.3260E+01
     -0.345  0.2698E+00  0.2698E+00  0.3297E+01  0.3297E+01
     -0.209  0.2629E+00  0.2630E+00  0.3333E+01  0.3332E+01
     -0.074  0.2371E+00  0.2369E+00  0.3365E+01  0.3365E+01
      0.062  0.3046E+00  0.3046E+00  0.3406E+01  0.3406E+01
      0.198  0.2815E+00  0.2814E+00  0.3444E+01  0.3444E+01
      0.334  0.3386E+00  0.3383E+00  0.3490E+01  0.3490E+01
      0.469  0.4149E+00  0.4150E+00  0.3547E+01  0.3547E+01
      0.605  0.3647E+00  0.3648E+00  0.3596E+01  0.3596E+01
      0.741  0.3070E+00  0.3070E+00  0.3638E+01  0.3638E+01
      0.877  0.4137E+00  0.4135E+00  0.3694E+01  0.3694E+01
      1.012  0.4210E+00  0.4210E+00  0.3752E+01  0.3752E+01
      1.148  0.4281E+00  0.4280E+00  0.3810E+01  0.3810E+01
      1.284  0.5134E+00  0.5135E+00  0.3880E+01  0.3880E+01
      1.420  0.3863E+00  0.3865E+00  0.3932E+01  0.3932E+01
      1.555  0.3978E+00  0.3976E+00  0.3986E+01  0.3986E+01
      1.691  0.3368E+00  0.3371E+00  0.4032E+01  0.4032E+01
      1.827  0.2837E+00  0.2835E+00  0.4071E+01  0.4071E+01
      1.963  0.4360E+00  0.4358E+00  0.4130E+01  0.4130E+01
      2.098  0.4054E+00  0.4057E+00  0.4185E+01  0.4185E+01
      2.234  0.3589E+00  0.3589E+00  0.4234E+01  0.4234E+01
      2.370  0.3257E+00  0.3258E+00  0.4278E+01  0.4278E+01
      2.505  0.4042E+00  0.4038E+00  0.4333E+01  0.4333E+01
      2.641  0.4453E+00  0.4454E+00  0.4394E+01  0.4394E+01
      2.777  0.5130E+00  0.5128E+00  0.4463E+01  0.4463E+01
      2.913  0.4796E+00  0.4797E+00  0.4529E+01  0.4528E+01
      3.048  0.4988E+00  0.4986E+00  0.4596E+01  0.4596E+01
      3.184  0.5364E+00  0.5365E+00  0.4669E+01  0.4669E+01
      3.320  0.4671E+00  0.4671E+00  0.4733E+01  0.4733E+01
      3.456  0.5748E+00  0.5744E+00  0.4811E+01  0.4811E+01
      3.591  0.6688E+00  0.6688E+00  0.4902E+01  0.4902E+01
      3.727  0.7731E+00  0.7725E+00  0.5007E+01  0.5007E+01
      3.863  0.8879E+00  0.8883E+00  0.5128E+01  0.5127E+01
      3.999  0.6585E+00  0.6587E+00  0.5217E+01  0.5217E+01
      4.134  0.6118E+00  0.6119E+00  0.5300E+01  0.5300E+01
      4.270  0.6325E+00  0.6323E+00  0.5386E+01  0.5386E+01
      4.406  0.6187E+00  0.6192E+00  0.5470E+01  0.5470E+01
      4.541  0.4528E+00  0.4528E+00  0.5532E+01  0.5532E+01
      4.677  0.5932E+00  0.5926E+00  0.5613E+01  0.5613E+01
      4.813  0.7355E+00  0.7355E+00  0.5713E+01  0.5713E+01
      4.949  0.8044E+00  0.8043E+00  0.5822E+01  0.5822E+01
      5.084  0.6956E+00  0.6958E+00  0.5917E+01  0.5916E+01
      5.220  0.6334E+00  0.6335E+00  0.6003E+01  0.6003E+01
      5.356  0.7950E+00  0.7944E+00  0.6111E+01  0.6111E+01
      5.492  0.8802E+00  0.8807E+00  0.6231E+01  0.6230E+01
      5.627  0.6353E+00  0.6352E+00  0.6317E+01  0.6317E+01
      5.763  0.7094E+00  0.7093E+00  0.6413E+01  0.6413E+01
      5.899  0.7875E+00  0.7872E+00  0.6520E+01  0.6520E+01
      6.035  0.8608E+00  0.8604E+00  0.6637E+01  0.6637E+01
      6.170  0.1141E+01  0.1140E+01  0.6793E+01  0.6792E+01
      6.306  0.1650E+01  0.1650E+01  0.7017E+01  0.7016E+01
      6.442  0.1484E+01  0.1485E+01  0.7218E+01  0.7218E+01
      6.578  0.1331E+01  0.1331E+01  0.7399E+01  0.7399E+01
      6.713  0.1484E+01  0.1484E+01  0.7601E+01  0.7600E+01
      6.849  0.1305E+01  0.1305E+01  0.7778E+01  0.7778E+01
      6.985  0.1108E+01  0.1108E+01  0.7929E+01  0.7928E+01
      7.120  0.9672E+00  0.9675E+00  0.8060E+01  0.8060E+01
      7.256  0.9934E+00  0.9933E+00  0.8196E+01  0.8195E+01
      7.392  0.9061E+00  0.9067E+00  0.8319E+01  0.8319E+01
      7.528  0.6284E+00  0.6288E+00  0.8404E+01  0.8404E+01
      7.663  0.5193E+00  0.5193E+00  0.8475E+01  0.8475E+01
      7.799  0.6481E+00  0.6479E+00  0.8563E+01  0.8563E+01
      7.935  0.6593E+00  0.6596E+00  0.8653E+01  0.8653E+01
      8.071  0.5098E+00  0.5097E+00  0.8722E+01  0.8722E+01
      8.206  0.6335E+00  0.6336E+00  0.8808E+01  0.8808E+01
      8.342  0.4170E+00  0.4174E+00  0.8865E+01  0.8865E+01
      8.478  0.3721E+00  0.3719E+00  0.8916E+01  0.8916E+01
      8.614  0.6497E+00  0.6491E+00  0.9004E+01  0.9004E+01
      8.749  0.6023E+00  0.6030E+00  0.9086E+01  0.9086E+01
      8.885  0.2204E+00  0.2206E+00  0.9116E+01  0.9116E+01
      9.021  0.2946E+00  0.2942E+00  0.9156E+01  0.9156E+01
      9.157  0.5186E+00  0.5184E+00  0.9227E+01  0.9226E+01
      9.292  0.6045E+00  0.6045E+00  0.9309E+01  0.9308E+01
      9.428  0.6275E+00  0.6274E+00  0.9394E+01  0.9394E+01
      9.564  0.7820E+00  0.7818E+00  0.9500E+01  0.9500E+01
      9.699  0.7253E+00  0.7255E+00  0.9599E+01  0.9599E+01
      9.835  0.7615E+00  0.7609E+00  0.9702E+01  0.9702E+01
      9.971  0.1075E+01  0.1075E+01  0.9848E+01  0.9848E+01
     10.107  0.8788E+00  0.8791E+00  0.9968E+01  0.9968E+01
     10.242  0.8007E+00  0.8005E+00  0.1008E+02  0.1008E+02
     10.378  0.8833E+00  0.8830E+00  0.1020E+02  0.1020E+02
     10.514  0.1022E+01  0.1022E+01  0.1034E+02  0.1034E+02
     10.650  0.1132E+01  0.1131E+01  0.1049E+02  0.1049E+02
     10.785  0.1176E+01  0.1176E+01  0.1065E+02  0.1065E+02
     10.921  0.1033E+01  0.1034E+01  0.1079E+02  0.1079E+02
     11.057  0.1057E+01  0.1057E+01  0.1093E+02  0.1093E+02
     11.193  0.1067E+01  0.1067E+01  0.1108E+02  0.1108E+02
     11.328  0.1117E+01  0.1117E+01  0.1123E+02  0.1123E+02
     11.464  0.9864E+00  0.9867E+00  0.1136E+02  0.1136E+02
     11.600  0.9010E+00  0.9015E+00  0.1149E+02  0.1149E+02
     11.735  0.9567E+00  0.9564E+00  0.1162E+02  0.1162E+02
     11.871  0.1274E+01  0.1274E+01  0.1179E+02  0.1179E+02
     12.007  0.1161E+01  0.1161E+01  0.1195E+02  0.1195E+02
     12.143  0.1144E+01  0.1143E+01  0.1210E+02  0.1210E+02
     12.278  0.1262E+01  0.1262E+01  0.1228E+02  0.1228E+02
     12.414  0.1145E+01  0.1145E+01  0.1243E+02  0.1243E+02
     12.550  0.1325E+01  0.1324E+01  0.1261E+02  0.1261E+02
     12.686  0.1277E+01  0.1276E+01  0.1278E+02  0.1278E+02
     12.821  0.9822E+00  0.9831E+00  0.1292E+02  0.1292E+02
     12.957  0.8643E+00  0.8643E+00  0.1304E+02  0.1304E+02
     13.093  0.1020E+01  0.1020E+01  0.1317E+02  0.1317E+02
     13.229  0.9558E+00  0.9554E+00  0.1330E+02  0.1330E+02
     13.364  0.8756E+00  0.8760E+00  0.1342E+02  0.1342E+02
     13.500  0.7830E+00  0.7831E+00  0.1353E+02  0.1353E+02
     13.636  0.7634E+00  0.7636E+00  0.1363E+02  0.1363E+02
     13.772  0.9062E+00  0.9058E+00  0.1376E+02  0.1376E+02
     13.907  0.9171E+00  0.9172E+00  0.1388E+02  0.1388E+02
     14.043  0.1037E+01  0.1037E+01  0.1402E+02  0.1402E+02
     14.179  0.1012E+01  0.1012E+01  0.1416E+02  0.1416E+02
     14.314  0.1016E+01  0.1017E+01  0.1430E+02  0.1430E+02
     14.450  0.8163E+00  0.8166E+00  0.1441E+02  0.1441E+02
     14.586  0.9749E+00  0.9746E+00  0.1454E+02  0.1454E+02
     14.722  0.1183E+01  0.1183E+01  0.1470E+02  0.1470E+02
     14.857  0.1116E+01  0.1116E+01  0.1485E+02  0.1485E+02
     14.993  0.1060E+01  0.1060E+01  0.1500E+02  0.1500E+02
     15.129  0.1206E+01  0.1206E+01  0.1516E+02  0.1516E+02
     15.265  0.1379E+01  0.1381E+01  0.1535E+02  0.1535E+02
     15.400  0.1237E+01  0.1253E+01  0.1552E+02  0.1552E+02
     15.536  0.1099E+01  0.1154E+01  0.1567E+02  0.1568E+02
     15.672  0.8275E+00  0.8400E+00  0.1578E+02  0.1579E+02
     15.808  0.7241E+00  0.6853E+00  0.1588E+02  0.1589E+02
     15.943  0.5313E+00  0.4883E+00  0.1595E+02  0.1595E+02
     16.079  0.2409E+00  0.2508E+00  0.1598E+02  0.1599E+02
     16.215  0.9605E-01  0.8975E-01  0.1600E+02  0.1600E+02
     16.351  0.1355E-01  0.9091E-02  0.1600E+02  0.1600E+02
     16.486  0.5823E-03  0.0000E+00  0.1600E+02  0.1600E+02
     16.622  0.0000E+00  0.0000E+00  0.1600E+02  0.1600E+02
     16.758  0.0000E+00  0.0000E+00  0.1600E+02  0.1600E+02
     16.893  0.0000E+00  0.0000E+00  0.1600E+02  0.1600E+02
     17.029  0.0000E+00  0.0000E+00  0.1600E+02  0.1600E+02
     17.165  0.0000E+00  0.0000E+00  0.1600E+02  0.1600E+02
     17.301  0.0000E+00  0.0000E+00  0.1600E+02  0.1600E+02
     17.436  0.0000E+00  0.0000E+00  0.1600E+02  0.1600E+02
     17.572  0.0000E+00  0.0000E+00  0.1600E+02  0.1600E+02
     17.708  0.0000E+00  0.0000E+00  0.1600E+02  0.1600E+02
     17.844  0.0000E+00  0.0000E+00  0.1600E+02  0.1600E+02
     17.979  0.0000E+00  0.0000E+00  0.1600E+02  0.1600E+02
     17.97933853    -22.74141331  301      9.56365372      1.00000000
    -22.741  0.0000E+00  0.0000E+00  0.0000E+00  0.0000E+00  0.0000E+00  0.0000E+00  0.0000E+00  0.0000E+00  0.0000E+00  0.0000E+00  0.0000E+00  0.0000E+00  0.0000E+00  0.0000E+00  0.0000E+00  0.0000E+00  0.0000E+00  0.0000E+00
    -22.606  0.0000E+00  0.0000E+00  0.0000E+00  0.0000E+00  0.0000E+00  0.0000E+00  0.0000E+00  0.0000E+00  0.0000E+00  0.0000E+00  0.0000E+00  0.0000E+00  0.0000E+00  0.0000E+00  0.0000E+00  0.0000E+00  0.0000E+00  0.0000E+00
    -22.470  0.0000E+00  0.0000E+00  0.0000E+00  0.0000E+00  0.0000E+00  0.0000E+00  0.0000E+00  0.0000E+00  0.0000E+00  0.0000E+00  0.0000E+00  0.0000E+00  0.0000E+00  0.0000E+00  0.0000E+00  0.0000E+00  0.0000E+00  0.0000E+00
    -22.334  0.0000E+00  0.0000E+00  0.0000E+00  0.0000E+00  0.0000E+00  0.0000E+00  0.0000E+00  0.0000E+00  0.0000E+00  0.0000E+00  0.0000E+00  0.0000E+00  0.0000E+00  0.0000E+00  0.0000E+00  0.0000E+00  0.0000E+00  0.0000E+00
    -22.198  0.0000E+00  0.0000E+00  0.0000E+00  0.0000E+00  0.0000E+00  0.0000E+00  0.0000E+00  0.0000E+00  0.0000E+00  0.0000E+00  0.0000E+00  0.0000E+00  0.0000E+00  0.0000E+00  0.0000E+00  0.0000E+00  0.0000E+00  0.0000E+00
    -22.063  0.0000E+00  0.0000E+00  0.0000E+00  0.0000E+00  0.0000E+00  0.0000E+00  0.0000E+00  0.0000E+00  0.0000E+00  0.0000E+00  0.0000E+00  0.0000E+00  0.0000E+00  0.0000E+00  0.0000E+00  0.0000E+00  0.0000E+00  0.0000E+00
    -21.927  0.0000E+00  0.0000E+00  0.0000E+00  0.0000E+00  0.0000E+00  0.0000E+00  0.0000E+00  0.0000E+00  0.0000E+00  0.0000E+00  0.0000E+00  0.0000E+00  0.0000E+00  0.0000E+00  0.0000E+00  0.0000E+00  0.0000E+00  0.0000E+00
    -21.791  0.0000E+00  0.0000E+00  0.0000E+00  0.0000E+00  0.0000E+00  0.0000E+00  0.0000E+00  0.0000E+00  0.0000E+00  0.0000E+00  0.0000E+00  0.0000E+00  0.0000E+00  0.0000E+00  0.0000E+00  0.0000E+00  0.0000E+00  0.0000E+00
    -21.656  0.0000E+00  0.0000E+00  0.0000E+00  0.0000E+00  0.0000E+00  0.0000E+00  0.0000E+00  0.0000E+00  0.0000E+00  0.0000E+00  0.0000E+00  0.0000E+00  0.0000E+00  0.0000E+00  0.0000E+00  0.0000E+00  0.0000E+00  0.0000E+00
    -21.520  0.0000E+00  0.0000E+00  0.0000E+00  0.0000E+00  0.0000E+00  0.0000E+00  0.0000E+00  0.0000E+00  0.0000E+00  0.0000E+00  0.0000E+00  0.0000E+00  0.0000E+00  0.0000E+00  0.0000E+00  0.0000E+00  0.0000E+00  0.0000E+00
    -21.384  0.6072E-09  0.5219E-09  0.9970E-04  0.9043E-04  0.9970E-04  0.9043E-04  0.9944E-04  0.8988E-04  0.4309E-10  0.3979E-10  0.4297E-10  0.3969E-10  0.3654E-09  0.3017E-09  0.4309E-10  0.3979E-10  0.4277E-09  0.3562E-09
    -21.248  0.1587E-07  0.1518E-07  0.2144E-02  0.2045E-02  0.2144E-02  0.2045E-02  0.2138E-02  0.2039E-02  0.7875E-09  0.7520E-09  0.7853E-09  0.7498E-09  0.1133E-07  0.1083E-07  0.7875E-09  0.7520E-09  0.1204E-07  0.1150E-07
    -21.113  0.2311E-06  0.2203E-06  0.3144E-01  0.2993E-01  0.3144E-01  0.2993E-01  0.3135E-01  0.2984E-01  0.1163E-07  0.1109E-07  0.1160E-07  0.1106E-07  0.1642E-06  0.1562E-06  0.1163E-07  0.1109E-07  0.1748E-06  0.1663E-06
    -20.977  0.3233E-05  0.3093E-05  0.4340E+00  0.4149E+00  0.4340E+00  0.4149E+00  0.4328E+00  0.4137E+00  0.1590E-06  0.1524E-06  0.1586E-06  0.1519E-06  0.2308E-05  0.2203E-05  0.1590E-06  0.1524E-06  0.2450E-05  0.2339E-05
    -20.841  0.2330E-04  0.2284E-04  0.2944E+01  0.2883E+01  0.2944E+01  0.2883E+01  0.2939E+01  0.2878E+01  0.9935E-06  0.9784E-06  0.9902E-06  0.9751E-06  0.1729E-04  0.1689E-04  0.9935E-06  0.9784E-06  0.1792E-04  0.1752E-04
    -20.705  0.2483E-04  0.2534E-04  0.3228E+01  0.3282E+01  0.3228E+01  0.3282E+01  0.3231E+01  0.3286E+01  0.9057E-06  0.9290E-06  0.9018E-06  0.9250E-06  0.1976E-04  0.2009E-04  0.9057E-06  0.9290E-06  0.1962E-04  0.1996E-04
    -20.570  0.3736E-05  0.3915E-05  0.5381E+00  0.5624E+00  0.5381E+00  0.5624E+00  0.5405E+00  0.5649E+00  0.1343E-06  0.1414E-06  0.1335E-06  0.1406E-06  0.3099E-05  0.3239E-05  0.1343E-06  0.1414E-06  0.2999E-05  0.3133E-05
    -20.434  0.1722E-06  0.1903E-06  0.3012E-01  0.3195E-01  0.3012E-01  0.3195E-01  0.3033E-01  0.3216E-01  0.5868E-08  0.6439E-08  0.5827E-08  0.6400E-08  0.1656E-06  0.1756E-06  0.5868E-08  0.6439E-08  0.1514E-06  0.1609E-06
    -20.298  0.0000E+00  0.0000E+00  0.0000E+00  0.0000E+00  0.0000E+00  0.0000E+00  0.0000E+00  0.0000E+00  0.0000E+00  0.0000E+00  0.0000E+00  0.0000E+00  0.0000E+00  0.0000E+00  0.0000E+00  0.0000E+00  0.0000E+00  0.0000E+00
    -20.162  0.0000E+00  0.0000E+00  0.0000E+00  0.0000E+00  0.0000E+00  0.0000E+00  0.0000E+00  0.0000E+00  0.0000E+00  0.0000E+00  0.0000E+00  0.0000E+00  0.0000E+00  0.0000E+00  0.0000E+00  0.0000E+00  0.0000E+00  0.0000E+00
    -20.027  0.0000E+00  0.0000E+00  0.0000E+00  0.0000E+00  0.0000E+00  0.0000E+00  0.0000E+00  0.0000E+00  0.0000E+00  0.0000E+00  0.0000E+00  0.0000E+00  0.0000E+00  0.0000E+00  0.0000E+00  0.0000E+00  0.0000E+00  0.0000E+00
    -19.891  0.0000E+00  0.0000E+00  0.0000E+00  0.0000E+00  0.0000E+00  0.0000E+00  0.0000E+00  0.0000E+00  0.0000E+00  0.0000E+00  0.0000E+00  0.0000E+00  0.0000E+00  0.0000E+00  0.0000E+00  0.0000E+00  0.0000E+00  0.0000E+00
    -19.755  0.0000E+00  0.0000E+00  0.0000E+00  0.0000E+00  0.0000E+00  0.0000E+00  0.0000E+00  0.0000E+00  0.0000E+00  0.0000E+00  0.0000E+00  0.0000E+00  0.0000E+00  0.0000E+00  0.0000E+00  0.0000E+00  0.0000E+00  0.0000E+00
    -19.619  0.0000E+00  0.0000E+00  0.0000E+00  0.0000E+00  0.0000E+00  0.0000E+00  0.0000E+00  0.0000E+00  0.0000E+00  0.0000E+00  0.0000E+00  0.0000E+00  0.0000E+00  0.0000E+00  0.0000E+00  0.0000E+00  0.0000E+00  0.0000E+00
    -19.484  0.0000E+00  0.0000E+00  0.0000E+00  0.0000E+00  0.0000E+00  0.0000E+00  0.0000E+00  0.0000E+00  0.0000E+00  0.0000E+00  0.0000E+00  0.0000E+00  0.0000E+00  0.0000E+00  0.0000E+00  0.0000E+00  0.0000E+00  0.0000E+00
    -19.348  0.0000E+00  0.0000E+00  0.0000E+00  0.0000E+00  0.0000E+00  0.0000E+00  0.0000E+00  0.0000E+00  0.0000E+00  0.0000E+00  0.0000E+00  0.0000E+00  0.0000E+00  0.0000E+00  0.0000E+00  0.0000E+00  0.0000E+00  0.0000E+00
    -19.212  0.0000E+00  0.0000E+00  0.0000E+00  0.0000E+00  0.0000E+00  0.0000E+00  0.0000E+00  0.0000E+00  0.0000E+00  0.0000E+00  0.0000E+00  0.0000E+00  0.0000E+00  0.0000E+00  0.0000E+00  0.0000E+00  0.0000E+00  0.0000E+00
    -19.077  0.0000E+00  0.0000E+00  0.0000E+00  0.0000E+00  0.0000E+00  0.0000E+00  0.0000E+00  0.0000E+00  0.0000E+00  0.0000E+00  0.0000E+00  0.0000E+00  0.0000E+00  0.0000E+00  0.0000E+00  0.0000E+00  0.0000E+00  0.0000E+00
    -18.941  0.0000E+00  0.0000E+00  0.0000E+00  0.0000E+00  0.0000E+00  0.0000E+00  0.0000E+00  0.0000E+00  0.0000E+00  0.0000E+00  0.0000E+00  0.0000E+00  0.0000E+00  0.0000E+00  0.0000E+00  0.0000E+00  0.0000E+00  0.0000E+00
    -18.805  0.0000E+00  0.0000E+00  0.0000E+00  0.0000E+00  0.0000E+00  0.0000E+00  0.0000E+00  0.0000E+00  0.0000E+00  0.0000E+00  0.0000E+00  0.0000E+00  0.0000E+00  0.0000E+00  0.0000E+00  0.0000E+00  0.0000E+00  0.0000E+00
    -18.669  0.0000E+00  0.0000E+00  0.0000E+00  0.0000E+00  0.0000E+00  0.0000E+00  0.0000E+00  0.0000E+00  0.0000E+00  0.0000E+00  0.0000E+00  0.0000E+00  0.0000E+00  0.0000E+00  0.0000E+00  0.0000E+00  0.0000E+00  0.0000E+00
    -18.534  0.0000E+00  0.0000E+00  0.0000E+00  0.0000E+00  0.0000E+00  0.0000E+00  0.0000E+00  0.0000E+00  0.0000E+00  0.0000E+00  0.0000E+00  0.0000E+00  0.0000E+00  0.0000E+00  0.0000E+00  0.0000E+00  0.0000E+00  0.0000E+00
    -18.398  0.0000E+00  0.0000E+00  0.0000E+00  0.0000E+00  0.0000E+00  0.0000E+00  0.0000E+00  0.0000E+00  0.0000E+00  0.0000E+00  0.0000E+00  0.0000E+00  0.0000E+00  0.0000E+00  0.0000E+00  0.0000E+00  0.0000E+00  0.0000E+00
    -18.262  0.0000E+00  0.0000E+00  0.0000E+00  0.0000E+00  0.0000E+00  0.0000E+00  0.0000E+00  0.0000E+00  0.0000E+00  0.0000E+00  0.0000E+00  0.0000E+00  0.0000E+00  0.0000E+00  0.0000E+00  0.0000E+00  0.0000E+00  0.0000E+00
    -18.126  0.0000E+00  0.0000E+00  0.0000E+00  0.0000E+00  0.0000E+00  0.0000E+00  0.0000E+00  0.0000E+00  0.0000E+00  0.0000E+00  0.0000E+00  0.0000E+00  0.0000E+00  0.0000E+00  0.0000E+00  0.0000E+00  0.0000E+00  0.0000E+00
    -17.991  0.0000E+00  0.0000E+00  0.0000E+00  0.0000E+00  0.0000E+00  0.0000E+00  0.0000E+00  0.0000E+00  0.0000E+00  0.0000E+00  0.0000E+00  0.0000E+00  0.0000E+00  0.0000E+00  0.0000E+00  0.0000E+00  0.0000E+00  0.0000E+00
    -17.855  0.0000E+00  0.0000E+00  0.0000E+00  0.0000E+00  0.0000E+00  0.0000E+00  0.0000E+00  0.0000E+00  0.0000E+00  0.0000E+00  0.0000E+00  0.0000E+00  0.0000E+00  0.0000E+00  0.0000E+00  0.0000E+00  0.0000E+00  0.0000E+00
    -17.719  0.0000E+00  0.0000E+00  0.0000E+00  0.0000E+00  0.0000E+00  0.0000E+00  0.0000E+00  0.0000E+00  0.0000E+00  0.0000E+00  0.0000E+00  0.0000E+00  0.0000E+00  0.0000E+00  0.0000E+00  0.0000E+00  0.0000E+00  0.0000E+00
    -17.583  0.0000E+00  0.0000E+00  0.0000E+00  0.0000E+00  0.0000E+00  0.0000E+00  0.0000E+00  0.0000E+00  0.0000E+00  0.0000E+00  0.0000E+00  0.0000E+00  0.0000E+00  0.0000E+00  0.0000E+00  0.0000E+00  0.0000E+00  0.0000E+00
    -17.448  0.0000E+00  0.0000E+00  0.0000E+00  0.0000E+00  0.0000E+00  0.0000E+00  0.0000E+00  0.0000E+00  0.0000E+00  0.0000E+00  0.0000E+00  0.0000E+00  0.0000E+00  0.0000E+00  0.0000E+00  0.0000E+00  0.0000E+00  0.0000E+00
    -17.312  0.0000E+00  0.0000E+00  0.0000E+00  0.0000E+00  0.0000E+00  0.0000E+00  0.0000E+00  0.0000E+00  0.0000E+00  0.0000E+00  0.0000E+00  0.0000E+00  0.0000E+00  0.0000E+00  0.0000E+00  0.0000E+00  0.0000E+00  0.0000E+00
    -17.176  0.0000E+00  0.0000E+00  0.0000E+00  0.0000E+00  0.0000E+00  0.0000E+00  0.0000E+00  0.0000E+00  0.0000E+00  0.0000E+00  0.0000E+00  0.0000E+00  0.0000E+00  0.0000E+00  0.0000E+00  0.0000E+00  0.0000E+00  0.0000E+00
    -17.041  0.0000E+00  0.0000E+00  0.0000E+00  0.0000E+00  0.0000E+00  0.0000E+00  0.0000E+00  0.0000E+00  0.0000E+00  0.0000E+00  0.0000E+00  0.0000E+00  0.0000E+00  0.0000E+00  0.0000E+00  0.0000E+00  0.0000E+00  0.0000E+00
    -16.905  0.0000E+00  0.0000E+00  0.0000E+00  0.0000E+00  0.0000E+00  0.0000E+00  0.0000E+00  0.0000E+00  0.0000E+00  0.0000E+00  0.0000E+00  0.0000E+00  0.0000E+00  0.0000E+00  0.0000E+00  0.0000E+00  0.0000E+00  0.0000E+00
    -16.769  0.0000E+00  0.0000E+00  0.0000E+00  0.0000E+00  0.0000E+00  0.0000E+00  0.0000E+00  0.0000E+00  0.0000E+00  0.0000E+00  0.0000E+00  0.0000E+00  0.0000E+00  0.0000E+00  0.0000E+00  0.0000E+00  0.0000E+00  0.0000E+00
    -16.633  0.0000E+00  0.0000E+00  0.0000E+00  0.0000E+00  0.0000E+00  0.0000E+00  0.0000E+00  0.0000E+00  0.0000E+00  0.0000E+00  0.0000E+00  0.0000E+00  0.0000E+00  0.0000E+00  0.0000E+00  0.0000E+00  0.0000E+00  0.0000E+00
    -16.498  0.0000E+00  0.0000E+00  0.0000E+00  0.0000E+00  0.0000E+00  0.0000E+00  0.0000E+00  0.0000E+00  0.0000E+00  0.0000E+00  0.0000E+00  0.0000E+00  0.0000E+00  0.0000E+00  0.0000E+00  0.0000E+00  0.0000E+00  0.0000E+00
    -16.362  0.0000E+00  0.0000E+00  0.0000E+00  0.0000E+00  0.0000E+00  0.0000E+00  0.0000E+00  0.0000E+00  0.0000E+00  0.0000E+00  0.0000E+00  0.0000E+00  0.0000E+00  0.0000E+00  0.0000E+00  0.0000E+00  0.0000E+00  0.0000E+00
    -16.226  0.0000E+00  0.0000E+00  0.0000E+00  0.0000E+00  0.0000E+00  0.0000E+00  0.0000E+00  0.0000E+00  0.0000E+00  0.0000E+00  0.0000E+00  0.0000E+00  0.0000E+00  0.0000E+00  0.0000E+00  0.0000E+00  0.0000E+00  0.0000E+00
    -16.090  0.0000E+00  0.0000E+00  0.0000E+00  0.0000E+00  0.0000E+00  0.0000E+00  0.0000E+00  0.0000E+00  0.0000E+00  0.0000E+00  0.0000E+00  0.0000E+00  0.0000E+00  0.0000E+00  0.0000E+00  0.0000E+00  0.0000E+00  0.0000E+00
    -15.955  0.0000E+00  0.0000E+00  0.0000E+00  0.0000E+00  0.0000E+00  0.0000E+00  0.0000E+00  0.0000E+00  0.0000E+00  0.0000E+00  0.0000E+00  0.0000E+00  0.0000E+00  0.0000E+00  0.0000E+00  0.0000E+00  0.0000E+00  0.0000E+00