   4   4   1   0
  0.1560279E+02  0.3965739E-09  0.3967063E-09  0.3967063E-09  0.5000000E-15
  1.000000000000000E-004
  CAR 
 unknown system                          
     16.38045943    -23.91158865  301      8.59182960      1.00000000
    -23.912  0.0000E+00  0.0000E+00  0.0000E+00  0.0000E+00
    -23.777  0.0000E+00  0.0000E+00  0.0000E+00  0.0000E+00
    -23.643  0.0000E+00  0.0000E+00  0.0000E+00  0.0000E+00
    -23.509  0.0000E+00  0.0000E+00  0.0000E+00  0.0000E+00
    -23.374  0.0000E+00  0.0000E+00  0.0000E+00  0.0000E+00
    -23.240  0.0000E+00  0.0000E+00  0.0000E+00  0.0000E+00
    -23.106  0.0000E+00  0.0000E+00  0.0000E+00  0.0000E+00
    -22.971  0.0000E+00  0.0000E+00  0.0000E+00  0.0000E+00
    -22.837  0.0000E+00  0.0000E+00  0.0000E+00  0.0000E+00
    -22.703  0.0000E+00  0.0000E+00  0.0000E+00  0.0000E+00
    -22.569  0.5249E-03  0.5104E-03  0.7050E-04  0.6855E-04
    -22.434  0.9452E-02  0.9226E-02  0.1340E-02  0.1308E-02
    -22.300  0.1354E+00  0.1322E+00  0.1953E-01  0.1906E-01
    -22.166  0.1791E+01  0.1752E+01  0.2600E+00  0.2544E+00
    -22.031  0.1064E+02  0.1055E+02  0.1688E+01  0.1671E+01
    -21.897  0.8574E+01  0.8676E+01  0.2840E+01  0.2836E+01
    -21.763  0.1105E+01  0.1131E+01  0.2988E+01  0.2988E+01
    -21.628  0.3720E-01  0.4125E-01  0.3000E+01  0.3000E+01
    -21.494  0.0000E+00  0.0000E+00  0.3000E+01  0.3000E+01
    -21.360  0.0000E+00  0.0000E+00  0.3000E+01  0.3000E+01
    -21.225  0.0000E+00  0.0000E+00  0.3000E+01  0.3000E+01
    -21.091  0.0000E+00  0.0000E+00  0.3000E+01  0.3000E+01
    -20.957  0.0000E+00  0.0000E+00  0.3000E+01  0.3000E+01
    -20.823  0.0000E+00  0.0000E+00  0.3000E+01  0.3000E+01
    -20.688  0.0000E+00  0.0000E+00  0.3000E+01  0.3000E+01
    -20.554  0.0000E+00  0.0000E+00  0.3000E+01  0.3000E+01
    -20.420  0.0000E+00  0.0000E+00  0.3000E+01  0.3000E+01
    -20.285  0.0000E+00  0.0000E+00  0.3000E+01  0.3000E+01
    -20.151  0.0000E+00  0.0000E+00  0.3000E+01  0.3000E+01
    -20.017  0.0000E+00  0.0000E+00  0.3000E+01  0.3000E+01
    -19.882  0.0000E+00  0.0000E+00  0.3000E+01  0.3000E+01
    -19.748  0.0000E+00  0.0000E+00  0.3000E+01  0.3000E+01
    -19.614  0.0000E+00  0.0000E+00  0.3000E+01  0.3000E+01
    -19.479  0.0000E+00  0.0000E+00  0.3000E+01  0.3000E+01
    -19.345  0.0000E+00  0.0000E+00  0.3000E+01  0.3000E+01
    -19.211  0.0000E+00  0.0000E+00  0.3000E+01  0.3000E+01
    -19.077  0.0000E+00  0.0000E+00  0.3000E+01  0.3000E+01
    -18.942  0.0000E+00  0.0000E+00  0.3000E+01  0.3000E+01
    -18.808  0.0000E+00  0.0000E+00  0.3000E+01  0.3000E+01
    -18.674  0.0000E+00  0.0000E+00  0.3000E+01  0.3000E+01
    -18.539  0.0000E+00  0.0000E+00  0.3000E+01  0.3000E+01
    -18.405  0.0000E+00  0.0000E+00  0.3000E+01  0.3000E+01
    -18.271  0.0000E+00  0.0000E+00  0.3000E+01  0.3000E+01
    -18.136  0.0000E+00  0.0000E+00  0.3000E+01  0.3000E+01
    -18.002  0.0000E+00  0.0000E+00  0.3000E+01  0.3000E+01
    -17.868  0.0000E+00  0.0000E+00  0.3000E+01  0.3000E+01
    -17.733  0.0000E+00  0.0000E+00  0.3000E+01  0.3000E+01
    -17.599  0.0000E+00  0.0000E+00  0.3000E+01  0.3000E+01
    -17.465  0.0000E+00  0.0000E+00  0.3000E+01  0.3000E+01
    -17.331  0.0000E+00  0.0000E+00  0.3000E+01  0.3000E+01
    -17.196  0.0000E+00  0.0000E+00  0.3000E+01  0.3000E+01
    -17.062  0.0000E+00  0.0000E+00  0.3000E+01  0.3000E+01
    -16.928  0.0000E+00  0.0000E+00  0.3000E+01  0.3000E+01
    -16.793  0.0000E+00  0.0000E+00  0.3000E+01  0.3000E+01
    -16.659  0.0000E+00  0.0000E+00  0.3000E+01  0.3000E+01
    -16.525  0.0000E+00  0.0000E+00  0.3000E+01  0.3000E+01
    -16.390  0.0000E+00  0.0000E+00  0.3000E+01  0.3000E+01
    -16.256  0.0000E+00  0.0000E+00  0.3000E+01  0.3000E+01
    -16.122  0.0000E+00  0.0000E+00  0.3000E+01  0.3000E+01
    -15.987  0.0000E+00  0.0000E+00  0.3000E+01  0.3000E+01
    -15.853  0.0000E+00  0.0000E+00  0.3000E+01  0.3000E+01
    -15.719  0.0000E+00  0.0000E+00  0.3000E+01  0.3000E+01
    -15.585  0.0000E+00  0.0000E+00  0.3000E+01  0.3000E+01
    -15.450  0.0000E+00  0.0000E+00  0.3000E+01  0.3000E+01
    -15.316  0.0000E+00  0.0000E+00  0.3000E+01  0.3000E+01
    -15.182  0.0000E+00  0.0000E+00  0.3000E+01  0.3000E+01
    -15.047  0.0000E+00  0.0000E+00  0.3000E+01  0.3000E+01
    -14.913  0.0000E+00  0.0000E+00  0.3000E+01  0.3000E+01
    -14.779  0.0000E+00  0.0000E+00  0.3000E+01  0.3000E+01
    -14.644  0.0000E+00  0.0000E+00  0.3000E+01  0.3000E+01
    -14.510  0.0000E+00  0.0000E+00  0.3000E+01  0.3000E+01
    -14.376  0.0000E+00  0.0000E+00  0.3000E+01  0.3000E+01
    -14.241  0.0000E+00  0.0000E+00  0.3000E+01  0.3000E+01
    -14.107  0.0000E+00  0.0000E+00  0.3000E+01  0.3000E+01
    -13.973  0.0000E+00  0.0000E+00  0.3000E+01  0.3000E+01
    -13.839  0.0000E+00  0.0000E+00  0.3000E+01  0.3000E+01
    -13.704  0.0000E+00  0.0000E+00  0.3000E+01  0.3000E+01
    -13.570  0.0000E+00  0.0000E+00  0.3000E+01  0.3000E+01
    -13.436  0.0000E+00  0.0000E+00  0.3000E+01  0.3000E+01
    -13.301  0.0000E+00  0.0000E+00  0.3000E+01  0.3000E+01
    -13.167  0.0000E+00  0.0000E+00  0.3000E+01  0.3000E+01
    -13.033  0.0000E+00  0.0000E+00  0.3000E+01  0.3000E+01
    -12.898  0.0000E+00  0.0000E+00  0.3000E+01  0.3000E+01
    -12.764  0.0000E+00  0.0000E+00  0.3000E+01  0.3000E+01
    -12.630  0.0000E+00  0.0000E+00  0.3000E+01  0.3000E+01
    -12.496  0.0000E+00  0.0000E+00  0.3000E+01  0.3000E+01
    -12.361  0.0000E+00  0.0000E+00  0.3000E+01  0.3000E+01
    -12.227  0.0000E+00  0.0000E+00  0.3000E+01  0.3000E+01
    -12.093  0.0000E+00  0.0000E+00  0.3000E+01  0.3000E+01
    -11.958  0.0000E+00  0.0000E+00  0.3000E+01  0.3000E+01
    -11.824  0.0000E+00  0.0000E+00  0.3000E+01  0.3000E+01
    -11.690  0.0000E+00  0.0000E+00  0.3000E+01  0.3000E+01
    -11.555  0.0000E+00  0.0000E+00  0.3000E+01  0.3000E+01
    -11.421  0.0000E+00  0.0000E+00  0.3000E+01  0.3000E+01
    -11.287  0.0000E+00  0.0000E+00  0.3000E+01  0.3000E+01
    -11.152  0.0000E+00  0.0000E+00  0.3000E+01  0.3000E+01
    -11.018  0.0000E+00  0.0000E+00  0.3000E+01  0.3000E+01
    -10.884  0.0000E+00  0.0000E+00  0.3000E+01  0.3000E+01
    -10.750  0.0000E+00  0.0000E+00  0.3000E+01  0.3000E+01
    -10.615  0.0000E+00  0.0000E+00  0.3000E+01  0.3000E+01
    -10.481  0.0000E+00  0.0000E+00  0.3000E+01  0.3000E+01
    -10.347  0.0000E+00  0.0000E+00  0.3000E+01  0.3000E+01
    -10.212  0.0000E+00  0.0000E+00  0.3000E+01  0.3000E+01
    -10.078  0.0000E+00  0.0000E+00  0.3000E+01  0.3000E+01
     -9.944  0.0000E+00  0.0000E+00  0.3000E+01  0.3000E+01
     -9.809  0.0000E+00  0.0000E+00  0.3000E+01  0.3000E+01
     -9.675  0.0000E+00  0.0000E+00  0.3000E+01  0.3000E+01
     -9.541  0.0000E+00  0.0000E+00  0.3000E+01  0.3000E+01
     -9.406  0.0000E+00  0.0000E+00  0.3000E+01  0.3000E+01
     -9.272  0.0000E+00  0.0000E+00  0.3000E+01  0.3000E+01
     -9.138  0.0000E+00  0.0000E+00  0.3000E+01  0.3000E+01
     -9.004  0.0000E+00  0.0000E+00  0.3000E+01  0.3000E+01
     -8.869  0.0000E+00  0.0000E+00  0.3000E+01  0.3000E+01
     -8.735  0.0000E+00  0.0000E+00  0.3000E+01  0.3000E+01
     -8.601  0.0000E+00  0.0000E+00  0.3000E+01  0.3000E+01
     -8.466  0.0000E+00  0.0000E+00  0.3000E+01  0.3000E+01
     -8.332  0.0000E+00  0.0000E+00  0.3000E+01  0.3000E+01
     -8.198  0.0000E+00  0.0000E+00  0.3000E+01  0.3000E+01
     -8.063  0.0000E+00  0.0000E+00  0.3000E+01  0.3000E+01
     -7.929  0.0000E+00  0.0000E+00  0.3000E+01  0.3000E+01
     -7.795  0.0000E+00  0.0000E+00  0.3000E+01  0.3000E+01
     -7.660  0.0000E+00  0.0000E+00  0.3000E+01  0.3000E+01
     -7.526  0.0000E+00  0.0000E+00  0.3000E+01  0.3000E+01
     -7.392  0.0000E+00  0.0000E+00  0.3000E+01  0.3000E+01
     -7.258  0.0000E+00  0.0000E+00  0.3000E+01  0.3000E+01
     -7.123  0.0000E+00  0.0000E+00  0.3000E+01  0.3000E+01
     -6.989  0.0000E+00  0.0000E+00  0.3000E+01  0.3000E+01
     -6.855  0.0000E+00  0.0000E+00  0.3000E+01  0.3000E+01
     -6.720  0.0000E+00  0.0000E+00  0.3000E+01  0.3000E+01
     -6.586  0.0000E+00  0.0000E+00  0.3000E+01  0.3000E+01
     -6.452  0.0000E+00  0.0000E+00  0.3000E+01  0.3000E+01
     -6.317  0.0000E+00  0.0000E+00  0.3000E+01  0.3000E+01
     -6.183  0.0000E+00  0.0000E+00  0.3000E+01  0.3000E+01
     -6.049  0.0000E+00  0.0000E+00  0.3000E+01  0.3000E+01
     -5.914  0.0000E+00  0.0000E+00  0.3000E+01  0.3000E+01
     -5.780  0.0000E+00  0.0000E+00  0.3000E+01  0.3000E+01
     -5.646  0.0000E+00  0.0000E+00  0.3000E+01  0.3000E+01
     -5.512  0.0000E+00  0.0000E+00  0.3000E+01  0.3000E+01
     -5.377  0.0000E+00  0.0000E+00  0.3000E+01  0.3000E+01
     -5.243  0.0000E+00  0.0000E+00  0.3000E+01  0.3000E+01
     -5.109  0.0000E+00  0.0000E+00  0.3000E+01  0.3000E+01
     -4.974  0.0000E+00  0.0000E+00  0.3000E+01  0.3000E+01
     -4.840  0.0000E+00  0.0000E+00  0.3000E+01  0.3000E+01
     -4.706  0.0000E+00  0.0000E+00  0.3000E+01  0.3000E+01
     -4.571  0.0000E+00  0.0000E+00  0.3000E+01  0.3000E+01
     -4.437  0.0000E+00  0.0000E+00  0.3000E+01  0.3000E+01
     -4.303  0.0000E+00  0.0000E+00  0.3000E+01  0.3000E+01
     -4.168  0.0000E+00  0.0000E+00  0.3000E+01  0.3000E+01
     -4.034  0.0000E+00  0.0000E+00  0.3000E+01  0.3000E+01
     -3.900  0.0000E+00  0.0000E+00  0.3000E+01  0.3000E+01
     -3.766  0.0000E+00  0.0000E+00  0.3000E+01  0.3000E+01
     -3.631  0.0000E+00  0.0000E+00  0.3000E+01  0.3000E+01
     -3.497  0.0000E+00  0.0000E+00  0.3000E+01  0.3000E+01
     -3.363  0.0000E+00  0.0000E+00  0.3000E+01  0.3000E+01
     -3.228  0.0000E+00  0.0000E+00  0.3000E+01  0.3000E+01
     -3.094  0.9735E-06  0.9667E-06  0.3000E+01  0.3000E+01
     -2.960  0.1908E-04  0.1894E-04  0.3000E+01  0.3000E+01
     -2.825  0.2774E-03  0.2755E-03  0.3000E+01  0.3000E+01
     -2.691  0.3630E-02  0.3608E-02  0.3001E+01  0.3001E+01
     -2.557  0.2586E-01  0.2576E-01  0.3004E+01  0.3004E+01
     -2.422  0.6139E-01  0.6132E-01  0.3012E+01  0.3012E+01
     -2.288  0.9767E-01  0.9755E-01  0.3025E+01  0.3025E+01
     -2.154  0.1065E+00  0.1066E+00  0.3040E+01  0.3040E+01
     -2.020  0.1365E+00  0.1363E+00  0.3058E+01  0.3058E+01
     -1.885  0.1563E+00  0.1563E+00  0.3079E+01  0.3079E+01
     -1.751  0.1688E+00  0.1687E+00  0.3102E+01  0.3102E+01
     -1.617  0.1571E+00  0.1571E+00  0.3123E+01  0.3123E+01
     -1.482  0.2205E+00  0.2203E+00  0.3152E+01  0.3152E+01
     -1.348  0.2295E+00  0.2295E+00  0.3183E+01  0.3183E+01
     -1.214  0.1986E+00  0.1988E+00  0.3210E+01  0.3210E+01
     -1.079  0.2136E+00  0.2133E+00  0.3239E+01  0.3239E+01
     -0.945  0.2976E+00  0.2976E+00  0.3279E+01  0.3279E+01
     -0.811  0.2919E+00  0.2919E+00  0.3318E+01  0.3318E+01
     -0.677  0.2424E+00  0.2425E+00  0.3351E+01  0.3351E+01
     -0.542  0.3099E+00  0.3097E+00  0.3392E+01  0.3392E+01
     -0.408  0.3051E+00  0.3052E+00  0.3433E+01  0.3433E+01
     -0.274  0.3333E+00  0.3332E+00  0.3478E+01  0.3478E+01
     -0.139  0.4276E+00  0.4276E+00  0.3536E+01  0.3536E+01
     -0.005  0.3853E+00  0.3854E+00  0.3587E+01  0.3587E+01
      0.129  0.3176E+00  0.3177E+00  0.3630E+01  0.3630E+01
      0.264  0.3947E+00  0.3944E+00  0.3683E+01  0.3683E+01
      0.398  0.4430E+00  0.4429E+00  0.3743E+01  0.3743E+01
      0.532  0.4175E+00  0.4175E+00  0.3799E+01  0.3799E+01
      0.667  0.5044E+00  0.5044E+00  0.3867E+01  0.3867E+01
      0.801  0.4104E+00  0.4106E+00  0.3922E+01  0.3922E+01
      0.935  0.4165E+00  0.4164E+00  0.3978E+01  0.3978E+01
      1.069  0.4010E+00  0.4011E+00  0.4032E+01  0.4032E+01
      1.204  0.3228E+00  0.3227E+00  0.4076E+01  0.4075E+01
      1.338  0.4972E+00  0.4968E+00  0.4142E+01  0.4142E+01
      1.472  0.4195E+00  0.4200E+00  0.4199E+01  0.4199E+01
      1.607  0.3415E+00  0.3415E+00  0.4245E+01  0.4245E+01
      1.741  0.4021E+00  0.4017E+00  0.4299E+01  0.4299E+01
      1.875  0.4458E+00  0.4462E+00  0.4359E+01  0.4359E+01
      2.010  0.4647E+00  0.4644E+00  0.4421E+01  0.4421E+01
      2.144  0.5700E+00  0.5699E+00  0.4498E+01  0.4498E+01
      2.278  0.5155E+00  0.5157E+00  0.4567E+01  0.4567E+01
      2.413  0.5369E+00  0.5367E+00  0.4639E+01  0.4639E+01
      2.547  0.5721E+00  0.5720E+00  0.4716E+01  0.4716E+01
      2.681  0.6574E+00  0.6573E+00  0.4805E+01  0.4804E+01
      2.815  0.6646E+00  0.6646E+00  0.4894E+01  0.4894E+01
      2.950  0.7811E+00  0.7806E+00  0.4999E+01  0.4999E+01
      3.084  0.8470E+00  0.8472E+00  0.5113E+01  0.5113E+01
      3.218  0.7019E+00  0.7022E+00  0.5207E+01  0.5207E+01
      3.353  0.6159E+00  0.6160E+00  0.5290E+01  0.5290E+01
      3.487  0.6541E+00  0.6539E+00  0.5378E+01  0.5378E+01
      3.621  0.6238E+00  0.6243E+00  0.5462E+01  0.5462E+01
      3.756  0.4333E+00  0.4333E+00  0.5521E+01  0.5520E+01
      3.890  0.5856E+00  0.5849E+00  0.5599E+01  0.5599E+01
      4.024  0.7167E+00  0.7168E+00  0.5696E+01  0.5696E+01
      4.159  0.7860E+00  0.7857E+00  0.5801E+01  0.5801E+01
      4.293  0.7237E+00  0.7241E+00  0.5899E+01  0.5899E+01
      4.427  0.6417E+00  0.6418E+00  0.5985E+01  0.5985E+01
      4.561  0.7199E+00  0.7192E+00  0.6082E+01  0.6082E+01
      4.696  0.9339E+00  0.9341E+00  0.6208E+01  0.6207E+01
      4.830  0.6930E+00  0.6932E+00  0.6301E+01  0.6300E+01
      4.964  0.7323E+00  0.7322E+00  0.6399E+01  0.6399E+01
      5.099  0.7664E+00  0.7662E+00  0.6502E+01  0.6502E+01
      5.233  0.8980E+00  0.8972E+00  0.6623E+01  0.6623E+01
      5.367  0.1102E+01  0.1101E+01  0.6771E+01  0.6771E+01
      5.502  0.1491E+01  0.1490E+01  0.6972E+01  0.6971E+01
      5.636  0.1485E+01  0.1486E+01  0.7171E+01  0.7171E+01
      5.770  0.1377E+01  0.1377E+01  0.7356E+01  0.7356E+01
      5.905  0.1447E+01  0.1447E+01  0.7551E+01  0.7551E+01
      6.039  0.1481E+01  0.1481E+01  0.7751E+01  0.7750E+01
      6.173  0.1217E+01  0.1217E+01  0.7914E+01  0.7914E+01
      6.307  0.1086E+01  0.1087E+01  0.8061E+01  0.8060E+01
      6.442  0.9883E+00  0.9881E+00  0.8194E+01  0.8193E+01
      6.576  0.9519E+00  0.9528E+00  0.8322E+01  0.8322E+01
      6.710  0.6310E+00  0.6314E+00  0.8407E+01  0.8407E+01
      6.845  0.5637E+00  0.5637E+00  0.8483E+01  0.8483E+01
      6.979  0.6959E+00  0.6957E+00  0.8577E+01  0.8576E+01
      7.113  0.6597E+00  0.6600E+00  0.8665E+01  0.8665E+01
      7.248  0.5831E+00  0.5829E+00  0.8744E+01  0.8743E+01
      7.382  0.6004E+00  0.6009E+00  0.8824E+01  0.8824E+01
      7.516  0.3950E+00  0.3952E+00  0.8878E+01  0.8878E+01
      7.651  0.5305E+00  0.5298E+00  0.8949E+01  0.8949E+01
      7.785  0.7409E+00  0.7411E+00  0.9049E+01  0.9049E+01
      7.919  0.4198E+00  0.4205E+00  0.9105E+01  0.9105E+01
      8.053  0.3054E+00  0.3052E+00  0.9146E+01  0.9146E+01
      8.188  0.4762E+00  0.4757E+00  0.9211E+01  0.9210E+01
      8.322  0.6371E+00  0.6370E+00  0.9296E+01  0.9296E+01
      8.456  0.7795E+00  0.7795E+00  0.9401E+01  0.9401E+01
      8.591  0.7307E+00  0.7309E+00  0.9499E+01  0.9499E+01
      8.725  0.7645E+00  0.7640E+00  0.9602E+01  0.9602E+01
      8.859  0.9806E+00  0.9800E+00  0.9734E+01  0.9734E+01
      8.994  0.1087E+01  0.1088E+01  0.9880E+01  0.9880E+01
      9.128  0.9023E+00  0.9025E+00  0.1000E+02  0.1000E+02
      9.262  0.1014E+01  0.1013E+01  0.1014E+02  0.1014E+02
      9.397  0.1027E+01  0.1027E+01  0.1028E+02  0.1028E+02
      9.531  0.1136E+01  0.1136E+01  0.1043E+02  0.1043E+02
      9.665  0.1366E+01  0.1366E+01  0.1061E+02  0.1061E+02
      9.799  0.1324E+01  0.1324E+01  0.1079E+02  0.1079E+02
      9.934  0.1306E+01  0.1306E+01  0.1097E+02  0.1097E+02
     10.068  0.1143E+01  0.1144E+01  0.1112E+02  0.1112E+02
     10.202  0.1069E+01  0.1069E+01  0.1126E+02  0.1126E+02
     10.337  0.9839E+00  0.9844E+00  0.1140E+02  0.1140E+02
     10.471  0.8624E+00  0.8627E+00  0.1151E+02  0.1151E+02
     10.605  0.1163E+01  0.1163E+01  0.1167E+02  0.1167E+02
     10.740  0.1423E+01  0.1422E+01  0.1186E+02  0.1186E+02
     10.874  0.1389E+01  0.1389E+01  0.1205E+02  0.1205E+02
     11.008  0.1311E+01  0.1311E+01  0.1222E+02  0.1222E+02
     11.142  0.1228E+01  0.1228E+01  0.1239E+02  0.1239E+02
     11.277  0.1413E+01  0.1413E+01  0.1258E+02  0.1258E+02
     11.411  0.1395E+01  0.1395E+01  0.1277E+02  0.1277E+02
     11.545  0.1191E+01  0.1191E+01  0.1293E+02  0.1293E+02
     11.680  0.1036E+01  0.1036E+01  0.1307E+02  0.1307E+02
     11.814  0.9115E+00  0.9114E+00  0.1319E+02  0.1319E+02
     11.948  0.9445E+00  0.9444E+00  0.1332E+02  0.1332E+02
     12.083  0.1014E+01  0.1014E+01  0.1345E+02  0.1345E+02
     12.217  0.1192E+01  0.1192E+01  0.1361E+02  0.1361E+02
     12.351  0.7682E+00  0.7688E+00  0.1372E+02  0.1372E+02
     12.486  0.8112E+00  0.8110E+00  0.1383E+02  0.1383E+02
     12.620  0.1065E+01  0.1064E+01  0.1397E+02  0.1397E+02
     12.754  0.1341E+01  0.1341E+01  0.1415E+02  0.1415E+02
     12.888  0.8683E+00  0.8690E+00  0.1427E+02  0.1427E+02
     13.023  0.9648E+00  0.9646E+00  0.1440E+02  0.1440E+02
     13.157  0.1133E+01  0.1133E+01  0.1455E+02  0.1455E+02
     13.291  0.1236E+01  0.1237E+01  0.1471E+02  0.1471E+02
     13.426  0.1185E+01  0.1186E+01  0.1487E+02  0.1487E+02
     13.560  0.1147E+01  0.1148E+01  0.1503E+02  0.1503E+02
     13.694  0.1549E+01  0.1555E+01  0.1524E+02  0.1524E+02
     13.829  0.1588E+01  0.1589E+01  0.1545E+02  0.1545E+02
     13.963  0.1186E+01  0.1180E+01  0.1561E+02  0.1561E+02
     14.097  0.9806E+00  0.9706E+00  0.1574E+02  0.1574E+02
     14.232  0.7351E+00  0.7346E+00  0.1584E+02  0.1584E+02
     14.366  0.6363E+00  0.6424E+00  0.1593E+02  0.1593E+02
     14.500  0.3843E+00  0.3863E+00  0.1598E+02  0.1598E+02
     14.634  0.1439E+00  0.1446E+00  0.1600E+02  0.1600E+02
     14.769  0.1580E-01  0.1512E-01  0.1600E+02  0.1600E+02
     14.903  0.3590E-03  0.2835E-03  0.1600E+02  0.1600E+02
     15.037  0.0000E+00  0.0000E+00  0.1600E+02  0.1600E+02
     15.172  0.0000E+00  0.0000E+00  0.1600E+02  0.1600E+02
     15.306  0.0000E+00  0.0000E+00  0.1600E+02  0.1600E+02
     15.440  0.0000E+00  0.0000E+00  0.1600E+02  0.1600E+02
     15.575  0.0000E+00  0.0000E+00  0.1600E+02  0.1600E+02
     15.709  0.0000E+00  0.0000E+00  0.1600E+02  0.1600E+02
     15.843  0.0000E+00  0.0000E+00  0.1600E+02  0.1600E+02
     15.978  0.0000E+00  0.0000E+00  0.1600E+02  0.1600E+02
     16.112  0.0000E+00  0.0000E+00  0.1600E+02  0.1600E+02
     16.246  0.0000E+00  0.0000E+00  0.1600E+02  0.1600E+02
     16.380  0.0000E+00  0.0000E+00  0.1600E+02  0.1600E+02
     16.38045943    -23.91158865  301      8.59182960      1.00000000
    -23.912  0.0000E+00  0.0000E+00  0.0000E+00  0.0000E+00  0.0000E+00  0.0000E+00  0.0000E+00  0.0000E+00  0.0000E+00  0.0000E+00  0.0000E+00  0.0000E+00  0.0000E+00  0.0000E+00  0.0000E+00  0.0000E+00  0.0000E+00  0.0000E+00
    -23.777  0.0000E+00  0.0000E+00  0.0000E+00  0.0000E+00  0.0000E+00  0.0000E+00  0.0000E+00  0.0000E+00  0.0000E+00  0.0000E+00  0.0000E+00  0.0000E+00  0.0000E+00  0.0000E+00  0.0000E+00  0.0000E+00  0.0000E+00  0.0000E+00
    -23.643  0.0000E+00  0.0000E+00  0.0000E+00  0.0000E+00  0.0000E+00  0.0000E+00  0.0000E+00  0.0000E+00  0.0000E+00  0.0000E+00  0.0000E+00  0.0000E+00  0.0000E+00  0.0000E+00  0.0000E+00  0.0000E+00  0.0000E+00  0.0000E+00
    -23.509  0.0000E+00  0.0000E+00  0.0000E+00  0.0000E+00  0.0000E+00  0.0000E+00  0.0000E+00  0.0000E+00  0.0000E+00  0.0000E+00  0.0000E+00  0.0000E+00  0.0000E+00  0.0000E+00  0.0000E+00  0.0000E+00  0.0000E+00  0.0000E+00
    -23.374  0.0000E+00  0.0000E+00  0.0000E+00  0.0000E+00  0.0000E+00  0.0000E+00  0.0000E+00  0.0000E+00  0.0000E+00  0.0000E+00  0.0000E+00  0.0000E+00  0.0000E+00  0.0000E+00  0.0000E+00  0.0000E+00  0.0000E+00  0.0000E+00
    -23.240  0.0000E+00  0.0000E+00  0.0000E+00  0.0000E+00  0.0000E+00  0.0000E+00  0.0000E+00  0.0000E+00  0.0000E+00  0.0000E+00  0.0000E+00  0.0000E+00  0.0000E+00  0.0000E+00  0.0000E+00  0.0000E+00  0.0000E+00  0.0000E+00
    -23.106  0.0000E+00  0.0000E+00  0.0000E+00  0.0000E+00  0.0000E+00  0.0000E+00  0.0000E+00  0.0000E+00  0.0000E+00  0.0000E+00  0.0000E+00  0.0000E+00  0.0000E+00  0.0000E+00  0.0000E+00  0.0000E+00  0.0000E+00  0.0000E+00
    -22.971  0.0000E+00  0.0000E+00  0.0000E+00  0.0000E+00  0.0000E+00  0.0000E+00  0.0000E+00  0.0000E+00  0.0000E+00  0.0000E+00  0.0000E+00  0.0000E+00  0.0000E+00  0.0000E+00  0.0000E+00  0.0000E+00  0.0000E+00  0.0000E+00
    -22.837  0.0000E+00  0.0000E+00  0.0000E+00  0.0000E+00  0.0000E+00  0.0000E+00  0.0000E+00  0.0000E+00  0.0000E+00  0.0000E+00  0.0000E+00  0.0000E+00  0.0000E+00  0.0000E+00  0.0000E+00  0.0000E+00  0.0000E+00  0.0000E+00
    -22.703  0.0000E+00  0.0000E+00  0.0000E+00  0.0000E+00  0.0000E+00  0.0000E+00  0.0000E+00  0.0000E+00  0.0000E+00  0.0000E+00  0.0000E+00  0.0000E+00  0.0000E+00  0.0000E+00  0.0000E+00  0.0000E+00  0.0000E+00  0.0000E+00
    -22.569  0.5948E-09  0.5782E-09  0.1714E-03  0.1667E-03  0.1714E-03  0.1667E-03  0.1710E-03  0.1662E-03  0.2625E-10  0.2559E-10  0.2618E-10  0.2553E-10  0.4143E-09  0.4010E-09  0.2625E-10  0.2559E-10  0.4472E-09  0.4338E-09
    -22.434  0.9934E-08  0.9715E-08  0.3090E-02  0.3016E-02  0.3090E-02  0.3016E-02  0.3079E-02  0.3006E-02  0.4196E-09  0.4102E-09  0.4186E-09  0.4092E-09  0.7232E-08  0.7058E-08  0.4196E-09  0.4102E-09  0.7540E-08  0.7357E-08
    -22.300  0.1430E-06  0.1398E-06  0.4426E-01  0.4320E-01  0.4426E-01  0.4320E-01  0.4412E-01  0.4306E-01  0.6047E-08  0.5912E-08  0.6033E-08  0.5898E-08  0.1039E-06  0.1013E-06  0.6047E-08  0.5912E-08  0.1085E-06  0.1058E-06
    -22.166  0.1905E-05  0.1867E-05  0.5854E+00  0.5727E+00  0.5854E+00  0.5727E+00  0.5836E+00  0.5709E+00  0.7927E-07  0.7770E-07  0.7907E-07  0.7751E-07  0.1390E-05  0.1359E-05  0.7927E-07  0.7770E-07  0.1447E-05  0.1415E-05
    -22.031  0.1159E-04  0.1152E-04  0.3476E+01  0.3447E+01  0.3476E+01  0.3447E+01  0.3471E+01  0.3442E+01  0.4419E-06  0.4400E-06  0.4404E-06  0.4385E-06  0.8695E-05  0.8615E-05  0.4419E-06  0.4400E-06  0.8888E-05  0.8808E-05
    -21.897  0.9104E-05  0.9233E-05  0.2801E+01  0.2834E+01  0.2801E+01  0.2834E+01  0.2806E+01  0.2839E+01  0.3197E-06  0.3255E-06  0.3181E-06  0.3240E-06  0.7122E-05  0.7202E-05  0.3197E-06  0.3255E-06  0.7077E-05  0.7157E-05
    -21.763  0.1123E-05  0.1151E-05  0.3609E+00  0.3693E+00  0.3609E+00  0.3693E+00  0.3624E+00  0.3708E+00  0.3899E-07  0.4017E-07  0.3877E-07  0.3994E-07  0.8972E-06  0.9173E-06  0.3899E-07  0.4017E-07  0.8790E-06  0.8986E-06
    -21.628  0.1758E-07  0.2303E-07  0.1209E-01  0.1339E-01  0.1209E-01  0.1339E-01  0.1235E-01  0.1374E-01  0.9491E-09  0.1097E-08  0.9381E-09  0.1074E-08  0.1845E-07  0.2237E-07  0.9491E-09  0.1097E-08  0.1527E-07  0.1903E-07
    -21.494  0.0000E+00  0.0000E+00  0.0000E+00  0.0000E+00  0.0000E+00  0.0000E+00  0.0000E+00  0.0000E+00  0.0000E+00  0.0000E+00  0.0000E+00  0.0000E+00  0.0000E+00  0.0000E+00  0.0000E+00  0.0000E+00  0.0000E+00  0.0000E+00
    -21.360  0.0000E+00  0.0000E+00  0.0000E+00  0.0000E+00  0.0000E+00  0.0000E+00  0.0000E+00  0.0000E+00  0.0000E+00  0.0000E+00  0.0000E+00  0.0000E+00  0.0000E+00  0.0000E+00  0.0000E+00  0.0000E+00  0.0000E+00  0.0000E+00
    -21.225  0.0000E+00  0.0000E+00  0.0000E+00  0.0000E+00  0.0000E+00  0.0000E+00  0.0000E+00  0.0000E+00  0.0000E+00  0.0000E+00  0.0000E+00  0.0000E+00  0.0000E+00  0.0000E+00  0.0000E+00  0.0000E+00  0.0000E+00  0.0000E+00
    -21.091  0.0000E+00  0.0000E+00  0.0000E+00  0.0000E+00  0.0000E+00  0.0000E+00  0.0000E+00  0.0000E+00  0.0000E+00  0.0000E+00  0.0000E+00  0.0000E+00  0.0000E+00  0.0000E+00  0.0000E+00  0.0000E+00  0.0000E+00  0.0000E+00
    -20.957  0.0000E+00  0.0000E+00  0.0000E+00  0.0000E+00  0.0000E+00  0.0000E+00  0.0000E+00  0.0000E+00  0.0000E+00  0.0000E+00  0.0000E+00  0.0000E+00  0.0000E+00  0.0000E+00  0.0000E+00  0.0000E+00  0.0000E+00  0.0000E+00
    -20.823  0.0000E+00  0.0000E+00  0.0000E+00  0.0000E+00  0.0000E+00  0.0000E+00  0.0000E+00  0.0000E+00  0.0000E+00  0.0000E+00  0.0000E+00  0.0000E+00  0.0000E+00  0.0000E+00  0.0000E+00  0.0000E+00  0.0000E+00  0.0000E+00
    -20.688  0.0000E+00  0.0000E+00  0.0000E+00  0.0000E+00  0.0000E+00  0.0000E+00  0.0000E+00  0.0000E+00  0.0000E+00  0.0000E+00  0.0000E+00  0.0000E+00  0.0000E+00  0.0000E+00  0.0000E+00  0.0000E+00  0.0000E+00  0.0000E+00
    -20.554  0.0000E+00  0.0000E+00  0.0000E+00  0.0000E+00  0.0000E+00  0.0000E+00  0.0000E+00  0.0000E+00  0.0000E+00  0.0000E+00  0.0000E+00  0.0000E+00  0.0000E+00  0.0000E+00  0.0000E+00  0.0000E+00  0.0000E+00  0.0000E+00
    -20.420  0.0000E+00  0.0000E+00  0.0000E+00  0.0000E+00  0.0000E+00  0.0000E+00  0.0000E+00  0.0000E+00  0.0000E+00  0.0000E+00  0.0000E+00  0.0000E+00  0.0000E+00  0.0000E+00  0.0000E+00  0.0000E+00  0.0000E+00  0.0000E+00
    -20.285  0.0000E+00  0.0000E+00  0.0000E+00  0.0000E+00  0.0000E+00  0.0000E+00  0.0000E+00  0.0000E+00  0.0000E+00  0.0000E+00  0.0000E+00  0.0000E+00  0.0000E+00  0.0000E+00  0.0000E+00  0.0000E+00  0.0000E+00  0.0000E+00
    -20.151  0.0000E+00  0.0000E+00  0.0000E+00  0.0000E+00  0.0000E+00  0.0000E+00  0.0000E+00  0.0000E+00  0.0000E+00  0.0000E+00  0.0000E+00  0.0000E+00  0.0000E+00  0.0000E+00  0.0000E+00  0.0000E+00  0.0000E+00  0.0000E+00
    -20.017  0.0000E+00  0.0000E+00  0.0000E+00  0.0000E+00  0.0000E+00  0.0000E+00  0.0000E+00  0.0000E+00  0.0000E+00  0.0000E+00  0.0000E+00  0.0000E+00  0.0000E+00  0.0000E+00  0.0000E+00  0.0000E+00  0.0000E+00  0.0000E+00
    -19.882  0.0000E+00  0.0000E+00  0.0000E+00  0.0000E+00  0.0000E+00  0.0000E+00  0.0000E+00  0.0000E+00  0.0000E+00  0.0000E+00  0.0000E+00  0.0000E+00  0.0000E+00  0.0000E+00  0.0000E+00  0.0000E+00  0.0000E+00  0.0000E+00
    -19.748  0.0000E+00  0.0000E+00  0.0000E+00  0.0000E+00  0.0000E+00  0.0000E+00  0.0000E+00  0.0000E+00  0.0000E+00  0.0000E+00  0.0000E+00  0.0000E+00  0.0000E+00  0.0000E+00  0.0000E+00  0.0000E+00  0.0000E+00  0.0000E+00
    -19.614  0.0000E+00  0.0000E+00  0.0000E+00  0.0000E+00  0.0000E+00  0.0000E+00  0.0000E+00  0.0000E+00  0.0000E+00  0.0000E+00  0.0000E+00  0.0000E+00  0.0000E+00  0.0000E+00  0.0000E+00  0.0000E+00  0.0000E+00  0.0000E+00
    -19.479  0.0000E+00  0.0000E+00  0.0000E+00  0.0000E+00  0.0000E+00  0.0000E+00  0.0000E+00  0.0000E+00  0.0000E+00  0.0000E+00  0.0000E+00  0.0000E+00  0.0000E+00  0.0000E+00  0.0000E+00  0.0000E+00  0.0000E+00  0.0000E+00
    -19.345  0.0000E+00  0.0000E+00  0.0000E+00  0.0000E+00  0.0000E+00  0.0000E+00  0.0000E+00  0.0000E+00  0.0000E+00  0.0000E+00  0.0000E+00  0.0000E+00  0.0000E+00  0.0000E+00  0.0000E+00  0.0000E+00  0.0000E+00  0.0000E+00
    -19.211  0.0000E+00  0.0000E+00  0.0000E+00  0.0000E+00  0.0000E+00  0.0000E+00  0.0000E+00  0.0000E+00  0.0000E+00  0.0000E+00  0.0000E+00  0.0000E+00  0.0000E+00  0.0000E+00  0.0000E+00  0.0000E+00  0.0000E+00  0.0000E+00
    -19.077  0.0000E+00  0.0000E+00  0.0000E+00  0.0000E+00  0.0000E+00  0.0000E+00  0.0000E+00  0.0000E+00  0.0000E+00  0.0000E+00  0.0000E+00  0.0000E+00  0.0000E+00  0.0000E+00  0.0000E+00  0.0000E+00  0.0000E+00  0.0000E+00
    -18.942  0.0000E+00  0.0000E+00  0.0000E+00  0.0000E+00  0.0000E+00  0.0000E+00  0.0000E+00  0.0000E+00  0.0000E+00  0.0000E+00  0.0000E+00  0.0000E+00  0.0000E+00  0.0000E+00  0.0000E+00  0.0000E+00  0.0000E+00  0.0000E+00
    -18.808  0.0000E+00  0.0000E+00  0.0000E+00  0.0000E+00  0.0000E+00  0.0000E+00  0.0000E+00  0.0000E+00  0.0000E+00  0.0000E+00  0.0000E+00  0.0000E+00  0.0000E+00  0.0000E+00  0.0000E+00  0.0000E+00  0.0000E+00  0.0000E+00
    -18.674  0.0000E+00  0.0000E+00  0.0000E+00  0.0000E+00  0.0000E+00  0.0000E+00  0.0000E+00  0.0000E+00  0.0000E+00  0.0000E+00  0.0000E+00  0.0000E+00  0.0000E+00  0.0000E+00  0.0000E+00  0.0000E+00  0.0000E+00  0.0000E+00
    -18.539  0.0000E+00  0.0000E+00  0.0000E+00  0.0000E+00  0.0000E+00  0.0000E+00  0.0000E+00  0.0000E+00  0.0000E+00  0.0000E+00  0.0000E+00  0.0000E+00  0.0000E+00  0.0000E+00  0.0000E+00  0.0000E+00  0.0000E+00  0.0000E+00
    -18.405  0.0000E+00  0.0000E+00  0.0000E+00  0.0000E+00  0.0000E+00  0.0000E+00  0.0000E+00  0.0000E+00  0.0000E+00  0.0000E+00  0.0000E+00  0.0000E+00  0.0000E+00  0.0000E+00  0.0000E+00  0.0000E+00  0.0000E+00  0.0000E+00
    -18.271  0.0000E+00  0.0000E+00  0.0000E+00  0.0000E+00  0.0000E+00  0.0000E+00  0.0000E+00  0.0000E+00  0.0000E+00  0.0000E+00  0.0000E+00  0.0000E+00  0.0000E+00  0.0000E+00  0.0000E+00  0.0000E+00  0.0000E+00  0.0000E+00
    -18.136  0.0000E+00  0.0000E+00  0.0000E+00  0.0000E+00  0.0000E+00  0.0000E+00  0.0000E+00  0.0000E+00  0.0000E+00  0.0000E+00  0.0000E+00  0.0000E+00  0.0000E+00  0.0000E+00  0.0000E+00  0.0000E+00  0.0000E+00  0.0000E+00
    -18.002  0.0000E+00  0.0000E+00  0.0000E+00  0.0000E+00  0.0000E+00  0.0000E+00  0.0000E+00  0.0000E+00  0.0000E+00  0.0000E+00  0.0000E+00  0.0000E+00  0.0000E+00  0.0000E+00  0.0000E+00  0.0000E+00  0.0000E+00  0.0000E+00
    -17.868  0.0000E+00  0.0000E+00  0.0000E+00  0.0000E+00  0.0000E+00  0.0000E+00  0.0000E+00  0.0000E+00  0.0000E+00  0.0000E+00  0.0000E+00  0.0000E+00  0.0000E+00  0.0000E+00  0.0000E+00  0.0000E+00  0.0000E+00  0.0000E+00
    -17.733  0.0000E+00  0.0000E+00  0.0000E+00  0.0000E+00  0.0000E+00  0.0000E+00  0.0000E+00  0.0000E+00  0.0000E+00  0.0000E+00  0.0000E+00  0.0000E+00  0.0000E+00  0.0000E+00  0.0000E+00  0.0000E+00  0.0000E+00  0.0000E+00
    -17.599  0.0000E+00  0.0000E+00  0.0000E+00  0.0000E+00  0.0000E+00  0.0000E+00  0.0000E+00  0.0000E+00  0.0000E+00  0.0000E+00  0.0000E+00  0.0000E+00  0.0000E+00  0.0000E+00  0.0000E+00  0.0000E+00  0.0000E+00  0.0000E+00
    -17.465  0.0000E+00  0.0000E+00  0.0000E+00  0.0000E+00  0.0000E+00  0.0000E+00  0.0000E+00  0.0000E+00  0.0000E+00  0.0000E+00  0.0000E+00  0.0000E+00  0.0000E+00  0.0000E+00  0.0000E+00  0.0000E+00  0.0000E+00  0.0000E+00
    -17.331  0.0000E+00  0.0000E+00  0.0000E+00  0.0000E+00  0.0000E+00  0.0000E+00  0.0000E+00  0.0000E+00  0.0000E+00  0.0000E+00  0.0000E+00  0.0000E+00  0.0000E+00  0.0000E+00  0.0000E+00  0.0000E+00  0.0000E+00  0.0000E+00
    -17.196  0.0000E+00  0.0000E+00  0.0000E+00  0.0000E+00  0.0000E+00  0.0000E+00  0.0000E+00  0.0000E+00  0.0000E+00  0.0000E+00  0.0000E+00  0.0000E+00  0.0000E+00  0.0000E+00  0.0000E+00  0.0000E+00  0.0000E+00  0.0000E+00