   4   4   1   0
  0.1868094E+02  0.4211043E-09  0.4212448E-09  0.4212448E-09  0.5000000E-15
  1.000000000000000E-004
  CAR 
 unknown system                          
     13.87687785    -26.06904060  301      6.86201415      1.00000000
    -26.069  0.0000E+00  0.0000E+00  0.0000E+00  0.0000E+00
    -25.936  0.0000E+00  0.0000E+00  0.0000E+00  0.0000E+00
    -25.803  0.0000E+00  0.0000E+00  0.0000E+00  0.0000E+00
    -25.670  0.0000E+00  0.0000E+00  0.0000E+00  0.0000E+00
    -25.536  0.0000E+00  0.0000E+00  0.0000E+00  0.0000E+00
    -25.403  0.0000E+00  0.0000E+00  0.0000E+00  0.0000E+00
    -25.270  0.0000E+00  0.0000E+00  0.0000E+00  0.0000E+00
    -25.137  0.0000E+00  0.0000E+00  0.0000E+00  0.0000E+00
    -25.004  0.0000E+00  0.0000E+00  0.0000E+00  0.0000E+00
    -24.871  0.0000E+00  0.0000E+00  0.0000E+00  0.0000E+00
    -24.738  0.1061E-02  0.1059E-02  0.1412E-03  0.1410E-03
    -24.604  0.1414E-01  0.1412E-01  0.2024E-02  0.2021E-02
    -24.471  0.2008E+00  0.2005E+00  0.2876E-01  0.2871E-01
    -24.338  0.2522E+01  0.2519E+01  0.3646E+00  0.3641E+00
    -24.205  0.1216E+02  0.1216E+02  0.1984E+01  0.1983E+01
    -24.072  0.6848E+01  0.6854E+01  0.2896E+01  0.2895E+01
    -23.939  0.7272E+00  0.7283E+00  0.2992E+01  0.2992E+01
    -23.805  0.0000E+00  0.0000E+00  0.3000E+01  0.3000E+01
    -23.672  0.0000E+00  0.0000E+00  0.3000E+01  0.3000E+01
    -23.539  0.0000E+00  0.0000E+00  0.3000E+01  0.3000E+01
    -23.406  0.0000E+00  0.0000E+00  0.3000E+01  0.3000E+01
    -23.273  0.0000E+00  0.0000E+00  0.3000E+01  0.3000E+01
    -23.140  0.0000E+00  0.0000E+00  0.3000E+01  0.3000E+01
    -23.007  0.0000E+00  0.0000E+00  0.3000E+01  0.3000E+01
    -22.873  0.0000E+00  0.0000E+00  0.3000E+01  0.3000E+01
    -22.740  0.0000E+00  0.0000E+00  0.3000E+01  0.3000E+01
    -22.607  0.0000E+00  0.0000E+00  0.3000E+01  0.3000E+01
    -22.474  0.0000E+00  0.0000E+00  0.3000E+01  0.3000E+01
    -22.341  0.0000E+00  0.0000E+00  0.3000E+01  0.3000E+01
    -22.208  0.0000E+00  0.0000E+00  0.3000E+01  0.3000E+01
    -22.074  0.0000E+00  0.0000E+00  0.3000E+01  0.3000E+01
    -21.941  0.0000E+00  0.0000E+00  0.3000E+01  0.3000E+01
    -21.808  0.0000E+00  0.0000E+00  0.3000E+01  0.3000E+01
    -21.675  0.0000E+00  0.0000E+00  0.3000E+01  0.3000E+01
    -21.542  0.0000E+00  0.0000E+00  0.3000E+01  0.3000E+01
    -21.409  0.0000E+00  0.0000E+00  0.3000E+01  0.3000E+01
    -21.276  0.0000E+00  0.0000E+00  0.3000E+01  0.3000E+01
    -21.142  0.0000E+00  0.0000E+00  0.3000E+01  0.3000E+01
    -21.009  0.0000E+00  0.0000E+00  0.3000E+01  0.3000E+01
    -20.876  0.0000E+00  0.0000E+00  0.3000E+01  0.3000E+01
    -20.743  0.0000E+00  0.0000E+00  0.3000E+01  0.3000E+01
    -20.610  0.0000E+00  0.0000E+00  0.3000E+01  0.3000E+01
    -20.477  0.0000E+00  0.0000E+00  0.3000E+01  0.3000E+01
    -20.343  0.0000E+00  0.0000E+00  0.3000E+01  0.3000E+01
    -20.210  0.0000E+00  0.0000E+00  0.3000E+01  0.3000E+01
    -20.077  0.0000E+00  0.0000E+00  0.3000E+01  0.3000E+01
    -19.944  0.0000E+00  0.0000E+00  0.3000E+01  0.3000E+01
    -19.811  0.0000E+00  0.0000E+00  0.3000E+01  0.3000E+01
    -19.678  0.0000E+00  0.0000E+00  0.3000E+01  0.3000E+01
    -19.545  0.0000E+00  0.0000E+00  0.3000E+01  0.3000E+01
    -19.411  0.0000E+00  0.0000E+00  0.3000E+01  0.3000E+01
    -19.278  0.0000E+00  0.0000E+00  0.3000E+01  0.3000E+01
    -19.145  0.0000E+00  0.0000E+00  0.3000E+01  0.3000E+01
    -19.012  0.0000E+00  0.0000E+00  0.3000E+01  0.3000E+01
    -18.879  0.0000E+00  0.0000E+00  0.3000E+01  0.3000E+01
    -18.746  0.0000E+00  0.0000E+00  0.3000E+01  0.3000E+01
    -18.612  0.0000E+00  0.0000E+00  0.3000E+01  0.3000E+01
    -18.479  0.0000E+00  0.0000E+00  0.3000E+01  0.3000E+01
    -18.346  0.0000E+00  0.0000E+00  0.3000E+01  0.3000E+01
    -18.213  0.0000E+00  0.0000E+00  0.3000E+01  0.3000E+01
    -18.080  0.0000E+00  0.0000E+00  0.3000E+01  0.3000E+01
    -17.947  0.0000E+00  0.0000E+00  0.3000E+01  0.3000E+01
    -17.814  0.0000E+00  0.0000E+00  0.3000E+01  0.3000E+01
    -17.680  0.0000E+00  0.0000E+00  0.3000E+01  0.3000E+01
    -17.547  0.0000E+00  0.0000E+00  0.3000E+01  0.3000E+01
    -17.414  0.0000E+00  0.0000E+00  0.3000E+01  0.3000E+01
    -17.281  0.0000E+00  0.0000E+00  0.3000E+01  0.3000E+01
    -17.148  0.0000E+00  0.0000E+00  0.3000E+01  0.3000E+01
    -17.015  0.0000E+00  0.0000E+00  0.3000E+01  0.3000E+01
    -16.881  0.0000E+00  0.0000E+00  0.3000E+01  0.3000E+01
    -16.748  0.0000E+00  0.0000E+00  0.3000E+01  0.3000E+01
    -16.615  0.0000E+00  0.0000E+00  0.3000E+01  0.3000E+01
    -16.482  0.0000E+00  0.0000E+00  0.3000E+01  0.3000E+01
    -16.349  0.0000E+00  0.0000E+00  0.3000E+01  0.3000E+01
    -16.216  0.0000E+00  0.0000E+00  0.3000E+01  0.3000E+01
    -16.083  0.0000E+00  0.0000E+00  0.3000E+01  0.3000E+01
    -15.949  0.0000E+00  0.0000E+00  0.3000E+01  0.3000E+01
    -15.816  0.0000E+00  0.0000E+00  0.3000E+01  0.3000E+01
    -15.683  0.0000E+00  0.0000E+00  0.3000E+01  0.3000E+01
    -15.550  0.0000E+00  0.0000E+00  0.3000E+01  0.3000E+01
    -15.417  0.0000E+00  0.0000E+00  0.3000E+01  0.3000E+01
    -15.284  0.0000E+00  0.0000E+00  0.3000E+01  0.3000E+01
    -15.150  0.0000E+00  0.0000E+00  0.3000E+01  0.3000E+01
    -15.017  0.0000E+00  0.0000E+00  0.3000E+01  0.3000E+01
    -14.884  0.0000E+00  0.0000E+00  0.3000E+01  0.3000E+01
    -14.751  0.0000E+00  0.0000E+00  0.3000E+01  0.3000E+01
    -14.618  0.0000E+00  0.0000E+00  0.3000E+01  0.3000E+01
    -14.485  0.0000E+00  0.0000E+00  0.3000E+01  0.3000E+01
    -14.352  0.0000E+00  0.0000E+00  0.3000E+01  0.3000E+01
    -14.218  0.0000E+00  0.0000E+00  0.3000E+01  0.3000E+01
    -14.085  0.0000E+00  0.0000E+00  0.3000E+01  0.3000E+01
    -13.952  0.0000E+00  0.0000E+00  0.3000E+01  0.3000E+01
    -13.819  0.0000E+00  0.0000E+00  0.3000E+01  0.3000E+01
    -13.686  0.0000E+00  0.0000E+00  0.3000E+01  0.3000E+01
    -13.553  0.0000E+00  0.0000E+00  0.3000E+01  0.3000E+01
    -13.419  0.0000E+00  0.0000E+00  0.3000E+01  0.3000E+01
    -13.286  0.0000E+00  0.0000E+00  0.3000E+01  0.3000E+01
    -13.153  0.0000E+00  0.0000E+00  0.3000E+01  0.3000E+01
    -13.020  0.0000E+00  0.0000E+00  0.3000E+01  0.3000E+01
    -12.887  0.0000E+00  0.0000E+00  0.3000E+01  0.3000E+01
    -12.754  0.0000E+00  0.0000E+00  0.3000E+01  0.3000E+01
    -12.621  0.0000E+00  0.0000E+00  0.3000E+01  0.3000E+01
    -12.487  0.0000E+00  0.0000E+00  0.3000E+01  0.3000E+01
    -12.354  0.0000E+00  0.0000E+00  0.3000E+01  0.3000E+01
    -12.221  0.0000E+00  0.0000E+00  0.3000E+01  0.3000E+01
    -12.088  0.0000E+00  0.0000E+00  0.3000E+01  0.3000E+01
    -11.955  0.0000E+00  0.0000E+00  0.3000E+01  0.3000E+01
    -11.822  0.0000E+00  0.0000E+00  0.3000E+01  0.3000E+01
    -11.689  0.0000E+00  0.0000E+00  0.3000E+01  0.3000E+01
    -11.555  0.0000E+00  0.0000E+00  0.3000E+01  0.3000E+01
    -11.422  0.0000E+00  0.0000E+00  0.3000E+01  0.3000E+01
    -11.289  0.0000E+00  0.0000E+00  0.3000E+01  0.3000E+01
    -11.156  0.0000E+00  0.0000E+00  0.3000E+01  0.3000E+01
    -11.023  0.0000E+00  0.0000E+00  0.3000E+01  0.3000E+01
    -10.890  0.0000E+00  0.0000E+00  0.3000E+01  0.3000E+01
    -10.756  0.0000E+00  0.0000E+00  0.3000E+01  0.3000E+01
    -10.623  0.0000E+00  0.0000E+00  0.3000E+01  0.3000E+01
    -10.490  0.0000E+00  0.0000E+00  0.3000E+01  0.3000E+01
    -10.357  0.0000E+00  0.0000E+00  0.3000E+01  0.3000E+01
    -10.224  0.0000E+00  0.0000E+00  0.3000E+01  0.3000E+01
    -10.091  0.0000E+00  0.0000E+00  0.3000E+01  0.3000E+01
     -9.958  0.0000E+00  0.0000E+00  0.3000E+01  0.3000E+01
     -9.824  0.0000E+00  0.0000E+00  0.3000E+01  0.3000E+01
     -9.691  0.0000E+00  0.0000E+00  0.3000E+01  0.3000E+01
     -9.558  0.0000E+00  0.0000E+00  0.3000E+01  0.3000E+01
     -9.425  0.0000E+00  0.0000E+00  0.3000E+01  0.3000E+01
     -9.292  0.0000E+00  0.0000E+00  0.3000E+01  0.3000E+01
     -9.159  0.0000E+00  0.0000E+00  0.3000E+01  0.3000E+01
     -9.025  0.0000E+00  0.0000E+00  0.3000E+01  0.3000E+01
     -8.892  0.0000E+00  0.0000E+00  0.3000E+01  0.3000E+01
     -8.759  0.0000E+00  0.0000E+00  0.3000E+01  0.3000E+01
     -8.626  0.0000E+00  0.0000E+00  0.3000E+01  0.3000E+01
     -8.493  0.0000E+00  0.0000E+00  0.3000E+01  0.3000E+01
     -8.360  0.0000E+00  0.0000E+00  0.3000E+01  0.3000E+01
     -8.227  0.0000E+00  0.0000E+00  0.3000E+01  0.3000E+01
     -8.093  0.0000E+00  0.0000E+00  0.3000E+01  0.3000E+01
     -7.960  0.0000E+00  0.0000E+00  0.3000E+01  0.3000E+01
     -7.827  0.0000E+00  0.0000E+00  0.3000E+01  0.3000E+01
     -7.694  0.0000E+00  0.0000E+00  0.3000E+01  0.3000E+01
     -7.561  0.0000E+00  0.0000E+00  0.3000E+01  0.3000E+01
     -7.428  0.0000E+00  0.0000E+00  0.3000E+01  0.3000E+01
     -7.294  0.0000E+00  0.0000E+00  0.3000E+01  0.3000E+01
     -7.161  0.0000E+00  0.0000E+00  0.3000E+01  0.3000E+01
     -7.028  0.0000E+00  0.0000E+00  0.3000E+01  0.3000E+01
     -6.895  0.0000E+00  0.0000E+00  0.3000E+01  0.3000E+01
     -6.762  0.0000E+00  0.0000E+00  0.3000E+01  0.3000E+01
     -6.629  0.0000E+00  0.0000E+00  0.3000E+01  0.3000E+01
     -6.496  0.0000E+00  0.0000E+00  0.3000E+01  0.3000E+01
     -6.362  0.0000E+00  0.0000E+00  0.3000E+01  0.3000E+01
     -6.229  0.0000E+00  0.0000E+00  0.3000E+01  0.3000E+01
     -6.096  0.0000E+00  0.0000E+00  0.3000E+01  0.3000E+01
     -5.963  0.0000E+00  0.0000E+00  0.3000E+01  0.3000E+01
     -5.830  0.0000E+00  0.0000E+00  0.3000E+01  0.3000E+01
     -5.697  0.0000E+00  0.0000E+00  0.3000E+01  0.3000E+01
     -5.563  0.0000E+00  0.0000E+00  0.3000E+01  0.3000E+01
     -5.430  0.0000E+00  0.0000E+00  0.3000E+01  0.3000E+01
     -5.297  0.0000E+00  0.0000E+00  0.3000E+01  0.3000E+01
     -5.164  0.0000E+00  0.0000E+00  0.3000E+01  0.3000E+01
     -5.031  0.0000E+00  0.0000E+00  0.3000E+01  0.3000E+01
     -4.898  0.0000E+00  0.0000E+00  0.3000E+01  0.3000E+01
     -4.765  0.0000E+00  0.0000E+00  0.3000E+01  0.3000E+01
     -4.631  0.0000E+00  0.0000E+00  0.3000E+01  0.3000E+01
     -4.498  0.0000E+00  0.0000E+00  0.3000E+01  0.3000E+01
     -4.365  0.0000E+00  0.0000E+00  0.3000E+01  0.3000E+01
     -4.232  0.0000E+00  0.0000E+00  0.3000E+01  0.3000E+01
     -4.099  0.0000E+00  0.0000E+00  0.3000E+01  0.3000E+01
     -3.966  0.0000E+00  0.0000E+00  0.3000E+01  0.3000E+01
     -3.832  0.0000E+00  0.0000E+00  0.3000E+01  0.3000E+01
     -3.699  0.1810E-05  0.1794E-05  0.3000E+01  0.3000E+01
     -3.566  0.3872E-04  0.3838E-04  0.3000E+01  0.3000E+01
     -3.433  0.5494E-03  0.5446E-03  0.3000E+01  0.3000E+01
     -3.300  0.6714E-02  0.6664E-02  0.3001E+01  0.3001E+01
     -3.167  0.3979E-01  0.3963E-01  0.3006E+01  0.3006E+01
     -3.034  0.8443E-01  0.8428E-01  0.3018E+01  0.3017E+01
     -2.900  0.1248E+00  0.1248E+00  0.3034E+01  0.3034E+01
     -2.767  0.1405E+00  0.1403E+00  0.3053E+01  0.3053E+01
     -2.634  0.1801E+00  0.1800E+00  0.3077E+01  0.3077E+01
     -2.501  0.1911E+00  0.1911E+00  0.3102E+01  0.3102E+01
     -2.368  0.1922E+00  0.1921E+00  0.3128E+01  0.3128E+01
     -2.235  0.2567E+00  0.2566E+00  0.3162E+01  0.3162E+01
     -2.101  0.2556E+00  0.2557E+00  0.3196E+01  0.3196E+01
     -1.968  0.2195E+00  0.2194E+00  0.3226E+01  0.3225E+01
     -1.835  0.3163E+00  0.3161E+00  0.3268E+01  0.3268E+01
     -1.702  0.3283E+00  0.3283E+00  0.3312E+01  0.3311E+01
     -1.569  0.2860E+00  0.2861E+00  0.3350E+01  0.3350E+01
     -1.436  0.3444E+00  0.3442E+00  0.3396E+01  0.3395E+01
     -1.303  0.3560E+00  0.3560E+00  0.3443E+01  0.3443E+01
     -1.169  0.3948E+00  0.3945E+00  0.3496E+01  0.3495E+01
     -1.036  0.4520E+00  0.4521E+00  0.3556E+01  0.3556E+01
     -0.903  0.3959E+00  0.3962E+00  0.3609E+01  0.3609E+01
     -0.770  0.3501E+00  0.3498E+00  0.3655E+01  0.3655E+01
     -0.637  0.4662E+00  0.4660E+00  0.3718E+01  0.3717E+01
     -0.504  0.4630E+00  0.4633E+00  0.3779E+01  0.3779E+01
     -0.370  0.4726E+00  0.4723E+00  0.3842E+01  0.3842E+01
     -0.237  0.4828E+00  0.4832E+00  0.3907E+01  0.3907E+01
     -0.104  0.4289E+00  0.4289E+00  0.3964E+01  0.3964E+01
      0.029  0.4741E+00  0.4740E+00  0.4027E+01  0.4027E+01
      0.162  0.4543E+00  0.4545E+00  0.4088E+01  0.4088E+01
      0.295  0.5497E+00  0.5493E+00  0.4161E+01  0.4161E+01
      0.428  0.4446E+00  0.4453E+00  0.4220E+01  0.4220E+01
      0.562  0.4044E+00  0.4040E+00  0.4274E+01  0.4274E+01
      0.695  0.5282E+00  0.5283E+00  0.4345E+01  0.4345E+01
      0.828  0.4874E+00  0.4872E+00  0.4410E+01  0.4410E+01
      0.961  0.5982E+00  0.5978E+00  0.4489E+01  0.4489E+01
      1.094  0.6379E+00  0.6380E+00  0.4575E+01  0.4574E+01
      1.227  0.7083E+00  0.7080E+00  0.4669E+01  0.4669E+01
      1.360  0.7066E+00  0.7067E+00  0.4763E+01  0.4763E+01
      1.494  0.7206E+00  0.7205E+00  0.4859E+01  0.4859E+01
      1.627  0.8077E+00  0.8073E+00  0.4967E+01  0.4967E+01
      1.760  0.8025E+00  0.8027E+00  0.5074E+01  0.5074E+01
      1.893  0.7712E+00  0.7715E+00  0.5177E+01  0.5176E+01
      2.026  0.6476E+00  0.6478E+00  0.5263E+01  0.5263E+01
      2.159  0.6847E+00  0.6845E+00  0.5355E+01  0.5354E+01
      2.293  0.6825E+00  0.6829E+00  0.5446E+01  0.5445E+01
      2.426  0.4601E+00  0.4607E+00  0.5507E+01  0.5507E+01
      2.559  0.5411E+00  0.5403E+00  0.5579E+01  0.5579E+01
      2.692  0.7003E+00  0.7003E+00  0.5673E+01  0.5672E+01
      2.825  0.7650E+00  0.7643E+00  0.5775E+01  0.5774E+01
      2.958  0.7734E+00  0.7740E+00  0.5878E+01  0.5877E+01
      3.091  0.6473E+00  0.6473E+00  0.5964E+01  0.5964E+01
      3.225  0.7301E+00  0.7298E+00  0.6061E+01  0.6061E+01
      3.358  0.9373E+00  0.9368E+00  0.6186E+01  0.6186E+01
      3.491  0.7888E+00  0.7896E+00  0.6291E+01  0.6291E+01
      3.624  0.7513E+00  0.7509E+00  0.6392E+01  0.6391E+01
      3.757  0.7972E+00  0.7972E+00  0.6498E+01  0.6498E+01
      3.890  0.9484E+00  0.9476E+00  0.6624E+01  0.6624E+01
      4.024  0.1114E+01  0.1114E+01  0.6773E+01  0.6773E+01
      4.157  0.1274E+01  0.1274E+01  0.6943E+01  0.6942E+01
      4.290  0.1382E+01  0.1382E+01  0.7127E+01  0.7127E+01
      4.423  0.1466E+01  0.1466E+01  0.7323E+01  0.7322E+01
      4.556  0.1363E+01  0.1363E+01  0.7505E+01  0.7504E+01
      4.689  0.1736E+01  0.1735E+01  0.7736E+01  0.7735E+01
      4.822  0.1514E+01  0.1515E+01  0.7938E+01  0.7937E+01
      4.956  0.1194E+01  0.1195E+01  0.8097E+01  0.8097E+01
      5.089  0.1070E+01  0.1070E+01  0.8240E+01  0.8240E+01
      5.222  0.8657E+00  0.8667E+00  0.8356E+01  0.8355E+01
      5.355  0.7265E+00  0.7265E+00  0.8453E+01  0.8452E+01
      5.488  0.7208E+00  0.7204E+00  0.8549E+01  0.8549E+01
      5.621  0.7349E+00  0.7353E+00  0.8647E+01  0.8647E+01
      5.755  0.6992E+00  0.6992E+00  0.8740E+01  0.8740E+01
      5.888  0.6215E+00  0.6220E+00  0.8823E+01  0.8823E+01
      6.021  0.5662E+00  0.5659E+00  0.8899E+01  0.8898E+01
      6.154  0.7127E+00  0.7122E+00  0.8994E+01  0.8993E+01
      6.287  0.7864E+00  0.7869E+00  0.9099E+01  0.9098E+01
      6.420  0.4825E+00  0.4833E+00  0.9163E+01  0.9163E+01
      6.553  0.5543E+00  0.5533E+00  0.9237E+01  0.9237E+01
      6.687  0.8183E+00  0.8175E+00  0.9346E+01  0.9346E+01
      6.820  0.9068E+00  0.9072E+00  0.9467E+01  0.9467E+01
      6.953  0.8214E+00  0.8208E+00  0.9576E+01  0.9576E+01
      7.086  0.1098E+01  0.1098E+01  0.9723E+01  0.9722E+01
      7.219  0.1160E+01  0.1160E+01  0.9878E+01  0.9877E+01
      7.352  0.1288E+01  0.1287E+01  0.1005E+02  0.1005E+02
      7.486  0.1394E+01  0.1395E+01  0.1024E+02  0.1023E+02
      7.619  0.1200E+01  0.1200E+01  0.1040E+02  0.1039E+02
      7.752  0.1520E+01  0.1518E+01  0.1060E+02  0.1060E+02
      7.885  0.1832E+01  0.1832E+01  0.1084E+02  0.1084E+02
      8.018  0.1599E+01  0.1600E+01  0.1106E+02  0.1105E+02
      8.151  0.1078E+01  0.1079E+01  0.1120E+02  0.1120E+02
      8.284  0.1156E+01  0.1156E+01  0.1135E+02  0.1135E+02
      8.418  0.1148E+01  0.1149E+01  0.1151E+02  0.1151E+02
      8.551  0.1301E+01  0.1300E+01  0.1168E+02  0.1168E+02
      8.684  0.1486E+01  0.1485E+01  0.1188E+02  0.1188E+02
      8.817  0.1683E+01  0.1682E+01  0.1210E+02  0.1210E+02
      8.950  0.1822E+01  0.1823E+01  0.1235E+02  0.1235E+02
      9.083  0.1689E+01  0.1689E+01  0.1257E+02  0.1257E+02
      9.217  0.1574E+01  0.1574E+01  0.1278E+02  0.1278E+02
      9.350  0.1336E+01  0.1336E+01  0.1296E+02  0.1296E+02
      9.483  0.1118E+01  0.1118E+01  0.1311E+02  0.1311E+02
      9.616  0.1274E+01  0.1274E+01  0.1328E+02  0.1328E+02
      9.749  0.1319E+01  0.1319E+01  0.1345E+02  0.1345E+02
      9.882  0.1223E+01  0.1224E+01  0.1362E+02  0.1362E+02
     10.015  0.9727E+00  0.9719E+00  0.1375E+02  0.1375E+02
     10.149  0.1231E+01  0.1231E+01  0.1391E+02  0.1391E+02
     10.282  0.1107E+01  0.1107E+01  0.1406E+02  0.1406E+02
     10.415  0.1120E+01  0.1120E+01  0.1421E+02  0.1421E+02
     10.548  0.1462E+01  0.1461E+01  0.1440E+02  0.1440E+02
     10.681  0.1344E+01  0.1345E+01  0.1458E+02  0.1458E+02
     10.814  0.1352E+01  0.1351E+01  0.1476E+02  0.1476E+02
     10.948  0.1749E+01  0.1750E+01  0.1500E+02  0.1500E+02
     11.081  0.1897E+01  0.1897E+01  0.1525E+02  0.1525E+02
     11.214  0.1306E+01  0.1308E+01  0.1542E+02  0.1542E+02
     11.347  0.1095E+01  0.1102E+01  0.1557E+02  0.1557E+02
     11.480  0.1054E+01  0.1088E+01  0.1571E+02  0.1572E+02
     11.613  0.7864E+00  0.8156E+00  0.1581E+02  0.1582E+02
     11.746  0.6911E+00  0.6755E+00  0.1591E+02  0.1591E+02
     11.880  0.4737E+00  0.4622E+00  0.1597E+02  0.1598E+02
     12.013  0.1644E+00  0.1445E+00  0.1599E+02  0.1600E+02
     12.146  0.4672E-01  0.2861E-01  0.1600E+02  0.1600E+02
     12.279  0.7119E-02  0.4081E-02  0.1600E+02  0.1600E+02
     12.412  0.4996E-03  0.3145E-03  0.1600E+02  0.1600E+02
     12.545  0.0000E+00  0.0000E+00  0.1600E+02  0.1600E+02
     12.679  0.0000E+00  0.0000E+00  0.1600E+02  0.1600E+02
     12.812  0.0000E+00  0.0000E+00  0.1600E+02  0.1600E+02
     12.945  0.0000E+00  0.0000E+00  0.1600E+02  0.1600E+02
     13.078  0.0000E+00  0.0000E+00  0.1600E+02  0.1600E+02
     13.211  0.0000E+00  0.0000E+00  0.1600E+02  0.1600E+02
     13.344  0.0000E+00  0.0000E+00  0.1600E+02  0.1600E+02
     13.477  0.0000E+00  0.0000E+00  0.1600E+02  0.1600E+02
     13.611  0.0000E+00  0.0000E+00  0.1600E+02  0.1600E+02
     13.744  0.0000E+00  0.0000E+00  0.1600E+02  0.1600E+02
     13.877  0.0000E+00  0.0000E+00  0.1600E+02  0.1600E+02
     13.87687785    -26.06904060  301      6.86201415      1.00000000
    -26.069  0.0000E+00  0.0000E+00  0.0000E+00  0.0000E+00  0.0000E+00  0.0000E+00  0.0000E+00  0.0000E+00  0.0000E+00  0.0000E+00  0.0000E+00  0.0000E+00  0.0000E+00  0.0000E+00  0.0000E+00  0.0000E+00  0.0000E+00  0.0000E+00
    -25.936  0.0000E+00  0.0000E+00  0.0000E+00  0.0000E+00  0.0000E+00  0.0000E+00  0.0000E+00  0.0000E+00  0.0000E+00  0.0000E+00  0.0000E+00  0.0000E+00  0.0000E+00  0.0000E+00  0.0000E+00  0.0000E+00  0.0000E+00  0.0000E+00
    -25.803  0.0000E+00  0.0000E+00  0.0000E+00  0.0000E+00  0.0000E+00  0.0000E+00  0.0000E+00  0.0000E+00  0.0000E+00  0.0000E+00  0.0000E+00  0.0000E+00  0.0000E+00  0.0000E+00  0.0000E+00  0.0000E+00  0.0000E+00  0.0000E+00
    -25.670  0.0000E+00  0.0000E+00  0.0000E+00  0.0000E+00  0.0000E+00  0.0000E+00  0.0000E+00  0.0000E+00  0.0000E+00  0.0000E+00  0.0000E+00  0.0000E+00  0.0000E+00  0.0000E+00  0.0000E+00  0.0000E+00  0.0000E+00  0.0000E+00
    -25.536  0.0000E+00  0.0000E+00  0.0000E+00  0.0000E+00  0.0000E+00  0.0000E+00  0.0000E+00  0.0000E+00  0.0000E+00  0.0000E+00  0.0000E+00  0.0000E+00  0.0000E+00  0.0000E+00  0.0000E+00  0.0000E+00  0.0000E+00  0.0000E+00
    -25.403  0.0000E+00  0.0000E+00  0.0000E+00  0.0000E+00  0.0000E+00  0.0000E+00  0.0000E+00  0.0000E+00  0.0000E+00  0.0000E+00  0.0000E+00  0.0000E+00  0.0000E+00  0.0000E+00  0.0000E+00  0.0000E+00  0.0000E+00  0.0000E+00
    -25.270  0.0000E+00  0.0000E+00  0.0000E+00  0.0000E+00  0.0000E+00  0.0000E+00  0.0000E+00  0.0000E+00  0.0000E+00  0.0000E+00  0.0000E+00  0.0000E+00  0.0000E+00  0.0000E+00  0.0000E+00  0.0000E+00  0.0000E+00  0.0000E+00
    -25.137  0.0000E+00  0.0000E+00  0.0000E+00  0.0000E+00  0.0000E+00  0.0000E+00  0.0000E+00  0.0000E+00  0.0000E+00  0.0000E+00  0.0000E+00  0.0000E+00  0.0000E+00  0.0000E+00  0.0000E+00  0.0000E+00  0.0000E+00  0.0000E+00
    -25.004  0.0000E+00  0.0000E+00  0.0000E+00  0.0000E+00  0.0000E+00  0.0000E+00  0.0000E+00  0.0000E+00  0.0000E+00  0.0000E+00  0.0000E+00  0.0000E+00  0.0000E+00  0.0000E+00  0.0000E+00  0.0000E+00  0.0000E+00  0.0000E+00
    -24.871  0.0000E+00  0.0000E+00  0.0000E+00  0.0000E+00  0.0000E+00  0.0000E+00  0.0000E+00  0.0000E+00  0.0000E+00  0.0000E+00  0.0000E+00  0.0000E+00  0.0000E+00  0.0000E+00  0.0000E+00  0.0000E+00  0.0000E+00  0.0000E+00
    -24.738  0.2040E-09  0.2044E-09  0.3471E-03  0.3466E-03  0.3471E-03  0.3466E-03  0.3459E-03  0.3454E-03  0.6824E-11  0.6862E-11  0.6803E-11  0.6840E-11  0.1568E-09  0.1569E-09  0.6824E-11  0.6862E-11  0.1602E-09  0.1604E-09
    -24.604  0.2719E-08  0.2725E-08  0.4628E-02  0.4621E-02  0.4628E-02  0.4621E-02  0.4611E-02  0.4604E-02  0.9097E-10  0.9147E-10  0.9069E-10  0.9119E-10  0.2090E-08  0.2092E-08  0.9097E-10  0.9147E-10  0.2136E-08  0.2138E-08
    -24.471  0.3861E-07  0.3870E-07  0.6571E-01  0.6561E-01  0.6571E-01  0.6561E-01  0.6547E-01  0.6538E-01  0.1291E-08  0.1298E-08  0.1287E-08  0.1294E-08  0.2968E-07  0.2971E-07  0.1291E-08  0.1298E-08  0.3033E-07  0.3036E-07
    -24.338  0.4858E-06  0.4870E-06  0.8253E+00  0.8242E+00  0.8253E+00  0.8242E+00  0.8227E+00  0.8216E+00  0.1614E-07  0.1623E-07  0.1609E-07  0.1618E-07  0.3742E-06  0.3746E-06  0.1614E-07  0.1623E-07  0.3817E-06  0.3822E-06
    -24.205  0.2347E-05  0.2356E-05  0.3977E+01  0.3976E+01  0.3977E+01  0.3976E+01  0.3974E+01  0.3972E+01  0.7574E-07  0.7626E-07  0.7541E-07  0.7593E-07  0.1828E-05  0.1832E-05  0.7574E-07  0.7626E-07  0.1848E-05  0.1852E-05
    -24.072  0.1310E-05  0.1316E-05  0.2237E+01  0.2239E+01  0.2237E+01  0.2239E+01  0.2243E+01  0.2245E+01  0.4113E-07  0.4147E-07  0.4089E-07  0.4124E-07  0.1035E-05  0.1038E-05  0.4113E-07  0.4147E-07  0.1034E-05  0.1038E-05
    -23.939  0.1380E-06  0.1388E-06  0.2375E+00  0.2378E+00  0.2375E+00  0.2378E+00  0.2384E+00  0.2387E+00  0.4304E-08  0.4343E-08  0.4277E-08  0.4316E-08  0.1097E-06  0.1101E-06  0.4304E-08  0.4343E-08  0.1091E-06  0.1095E-06
    -23.805  0.0000E+00  0.0000E+00  0.0000E+00  0.0000E+00  0.0000E+00  0.0000E+00  0.0000E+00  0.0000E+00  0.0000E+00  0.0000E+00  0.0000E+00  0.0000E+00  0.0000E+00  0.0000E+00  0.0000E+00  0.0000E+00  0.0000E+00  0.0000E+00
    -23.672  0.0000E+00  0.0000E+00  0.0000E+00  0.0000E+00  0.0000E+00  0.0000E+00  0.0000E+00  0.0000E+00  0.0000E+00  0.0000E+00  0.0000E+00  0.0000E+00  0.0000E+00  0.0000E+00  0.0000E+00  0.0000E+00  0.0000E+00  0.0000E+00
    -23.539  0.0000E+00  0.0000E+00  0.0000E+00  0.0000E+00  0.0000E+00  0.0000E+00  0.0000E+00  0.0000E+00  0.0000E+00  0.0000E+00  0.0000E+00  0.0000E+00  0.0000E+00  0.0000E+00  0.0000E+00  0.0000E+00  0.0000E+00  0.0000E+00
    -23.406  0.0000E+00  0.0000E+00  0.0000E+00  0.0000E+00  0.0000E+00  0.0000E+00  0.0000E+00  0.0000E+00  0.0000E+00  0.0000E+00  0.0000E+00  0.0000E+00  0.0000E+00  0.0000E+00  0.0000E+00  0.0000E+00  0.0000E+00  0.0000E+00
    -23.273  0.0000E+00  0.0000E+00  0.0000E+00  0.0000E+00  0.0000E+00  0.0000E+00  0.0000E+00  0.0000E+00  0.0000E+00  0.0000E+00  0.0000E+00  0.0000E+00  0.0000E+00  0.0000E+00  0.0000E+00  0.0000E+00  0.0000E+00  0.0000E+00
    -23.140  0.0000E+00  0.0000E+00  0.0000E+00  0.0000E+00  0.0000E+00  0.0000E+00  0.0000E+00  0.0000E+00  0.0000E+00  0.0000E+00  0.0000E+00  0.0000E+00  0.0000E+00  0.0000E+00  0.0000E+00  0.0000E+00  0.0000E+00  0.0000E+00
    -23.007  0.0000E+00  0.0000E+00  0.0000E+00  0.0000E+00  0.0000E+00  0.0000E+00  0.0000E+00  0.0000E+00  0.0000E+00  0.0000E+00  0.0000E+00  0.0000E+00  0.0000E+00  0.0000E+00  0.0000E+00  0.0000E+00  0.0000E+00  0.0000E+00
    -22.873  0.0000E+00  0.0000E+00  0.0000E+00  0.0000E+00  0.0000E+00  0.0000E+00  0.0000E+00  0.0000E+00  0.0000E+00  0.0000E+00  0.0000E+00  0.0000E+00  0.0000E+00  0.0000E+00  0.0000E+00  0.0000E+00  0.0000E+00  0.0000E+00
    -22.740  0.0000E+00  0.0000E+00  0.0000E+00  0.0000E+00  0.0000E+00  0.0000E+00  0.0000E+00  0.0000E+00  0.0000E+00  0.0000E+00  0.0000E+00  0.0000E+00  0.0000E+00  0.0000E+00  0.0000E+00  0.0000E+00  0.0000E+00  0.0000E+00
    -22.607  0.0000E+00  0.0000E+00  0.0000E+00  0.0000E+00  0.0000E+00  0.0000E+00  0.0000E+00  0.0000E+00  0.0000E+00  0.0000E+00  0.0000E+00  0.0000E+00  0.0000E+00  0.0000E+00  0.0000E+00  0.0000E+00  0.0000E+00  0.0000E+00
    -22.474  0.0000E+00  0.0000E+00  0.0000E+00  0.0000E+00  0.0000E+00  0.0000E+00  0.0000E+00  0.0000E+00  0.0000E+00  0.0000E+00  0.0000E+00  0.0000E+00  0.0000E+00  0.0000E+00  0.0000E+00  0.0000E+00  0.0000E+00  0.0000E+00
    -22.341  0.0000E+00  0.0000E+00  0.0000E+00  0.0000E+00  0.0000E+00  0.0000E+00  0.0000E+00  0.0000E+00  0.0000E+00  0.0000E+00  0.0000E+00  0.0000E+00  0.0000E+00  0.0000E+00  0.0000E+00  0.0000E+00  0.0000E+00  0.0000E+00
    -22.208  0.0000E+00  0.0000E+00  0.0000E+00  0.0000E+00  0.0000E+00  0.0000E+00  0.0000E+00  0.0000E+00  0.0000E+00  0.0000E+00  0.0000E+00  0.0000E+00  0.0000E+00  0.0000E+00  0.0000E+00  0.0000E+00  0.0000E+00  0.0000E+00
    -22.074  0.0000E+00  0.0000E+00  0.0000E+00  0.0000E+00  0.0000E+00  0.0000E+00  0.0000E+00  0.0000E+00  0.0000E+00  0.0000E+00  0.0000E+00  0.0000E+00  0.0000E+00  0.0000E+00  0.0000E+00  0.0000E+00  0.0000E+00  0.0000E+00
    -21.941  0.0000E+00  0.0000E+00  0.0000E+00  0.0000E+00  0.0000E+00  0.0000E+00  0.0000E+00  0.0000E+00  0.0000E+00  0.0000E+00  0.0000E+00  0.0000E+00  0.0000E+00  0.0000E+00  0.0000E+00  0.0000E+00  0.0000E+00  0.0000E+00
    -21.808  0.0000E+00  0.0000E+00  0.0000E+00  0.0000E+00  0.0000E+00  0.0000E+00  0.0000E+00  0.0000E+00  0.0000E+00  0.0000E+00  0.0000E+00  0.0000E+00  0.0000E+00  0.0000E+00  0.0000E+00  0.0000E+00  0.0000E+00  0.0000E+00
    -21.675  0.0000E+00  0.0000E+00  0.0000E+00  0.0000E+00  0.0000E+00  0.0000E+00  0.0000E+00  0.0000E+00  0.0000E+00  0.0000E+00  0.0000E+00  0.0000E+00  0.0000E+00  0.0000E+00  0.0000E+00  0.0000E+00  0.0000E+00  0.0000E+00
    -21.542  0.0000E+00  0.0000E+00  0.0000E+00  0.0000E+00  0.0000E+00  0.0000E+00  0.0000E+00  0.0000E+00  0.0000E+00  0.0000E+00  0.0000E+00  0.0000E+00  0.0000E+00  0.0000E+00  0.0000E+00  0.0000E+00  0.0000E+00  0.0000E+00
    -21.409  0.0000E+00  0.0000E+00  0.0000E+00  0.0000E+00  0.0000E+00  0.0000E+00  0.0000E+00  0.0000E+00  0.0000E+00  0.0000E+00  0.0000E+00  0.0000E+00  0.0000E+00  0.0000E+00  0.0000E+00  0.0000E+00  0.0000E+00  0.0000E+00
    -21.276  0.0000E+00  0.0000E+00  0.0000E+00  0.0000E+00  0.0000E+00  0.0000E+00  0.0000E+00  0.0000E+00  0.0000E+00  0.0000E+00  0.0000E+00  0.0000E+00  0.0000E+00  0.0000E+00  0.0000E+00  0.0000E+00  0.0000E+00  0.0000E+00
    -21.142  0.0000E+00  0.0000E+00  0.0000E+00  0.0000E+00  0.0000E+00  0.0000E+00  0.0000E+00  0.0000E+00  0.0000E+00  0.0000E+00  0.0000E+00  0.0000E+00  0.0000E+00  0.0000E+00  0.0000E+00  0.0000E+00  0.0000E+00  0.0000E+00
    -21.009  0.0000E+00  0.0000E+00  0.0000E+00  0.0000E+00  0.0000E+00  0.0000E+00  0.0000E+00  0.0000E+00  0.0000E+00  0.0000E+00  0.0000E+00  0.0000E+00  0.0000E+00  0.0000E+00  0.0000E+00  0.0000E+00  0.0000E+00  0.0000E+00
    -20.876  0.0000E+00  0.0000E+00  0.0000E+00  0.0000E+00  0.0000E+00  0.0000E+00  0.0000E+00  0.0000E+00  0.0000E+00  0.0000E+00  0.0000E+00  0.0000E+00  0.0000E+00  0.0000E+00  0.0000E+00  0.0000E+00  0.0000E+00  0.0000E+00
    -20.743  0.0000E+00  0.0000E+00  0.0000E+00  0.0000E+00  0.0000E+00  0.0000E+00  0.0000E+00  0.0000E+00  0.0000E+00  0.0000E+00  0.0000E+00  0.0000E+00  0.0000E+00  0.0000E+00  0.0000E+00  0.0000E+00  0.0000E+00  0.0000E+00
    -20.610  0.0000E+00  0.0000E+00  0.0000E+00  0.0000E+00  0.0000E+00  0.0000E+00  0.0000E+00  0.0000E+00  0.0000E+00  0.0000E+00  0.0000E+00  0.0000E+00  0.0000E+00  0.0000E+00  0.0000E+00  0.0000E+00  0.0000E+00  0.0000E+00
    -20.477  0.0000E+00  0.0000E+00  0.0000E+00  0.0000E+00  0.0000E+00  0.0000E+00  0.0000E+00  0.0000E+00  0.0000E+00  0.0000E+00  0.0000E+00  0.0000E+00  0.0000E+00  0.0000E+00  0.0000E+00  0.0000E+00  0.0000E+00  0.0000E+00
    -20.343  0.0000E+00  0.0000E+00  0.0000E+00  0.0000E+00  0.0000E+00  0.0000E+00  0.0000E+00  0.0000E+00  0.0000E+00  0.0000E+00  0.0000E+00  0.0000E+00  0.0000E+00  0.0000E+00  0.0000E+00  0.0000E+00  0.0000E+00  0.0000E+00
    -20.210  0.0000E+00  0.0000E+00  0.0000E+00  0.0000E+00  0.0000E+00  0.0000E+00  0.0000E+00  0.0000E+00  0.0000E+00  0.0000E+00  0.0000E+00  0.0000E+00  0.0000E+00  0.0000E+00  0.0000E+00  0.0000E+00  0.0000E+00  0.0000E+00
    -20.077  0.0000E+00  0.0000E+00  0.0000E+00  0.0000E+00  0.0000E+00  0.0000E+00  0.0000E+00  0.0000E+00  0.0000E+00  0.0000E+00  0.0000E+00  0.0000E+00  0.0000E+00  0.0000E+00  0.0000E+00  0.0000E+00  0.0000E+00  0.0000E+00
    -19.944  0.0000E+00  0.0000E+00  0.0000E+00  0.0000E+00  0.0000E+00  0.0000E+00  0.0000E+00  0.0000E+00  0.0000E+00  0.0000E+00  0.0000E+00  0.0000E+00  0.0000E+00  0.0000E+00  0.0000E+00  0.0000E+00  0.0000E+00  0.0000E+00
    -19.811  0.0000E+00  0.0000E+00  0.0000E+00  0.0000E+00  0.0000E+00  0.0000E+00  0.0000E+00  0.0000E+00  0.0000E+00  0.0000E+00  0.0000E+00  0.0000E+00  0.0000E+00  0.0000E+00  0.0000E+00  0.0000E+00  0.0000E+00  0.0000E+00
    -19.678  0.0000E+00  0.0000E+00  0.0000E+00  0.0000E+00  0.0000E+00  0.0000E+00  0.0000E+00  0.0000E+00  0.0000E+00  0.0000E+00  0.0000E+00  0.0000E+00  0.0000E+00  0.0000E+00  0.0000E+00  0.0000E+00  0.0000E+00  0.0000E+00
    -19.545  0.0000E+00  0.0000E+00  0.0000E+00  0.0000E+00  0.0000E+00  0.0000E+00  0.0000E+00  0.0000E+00  0.0000E+00  0.0000E+00  0.0000E+00  0.0000E+00  0.0000E+00  0.0000E+00  0.0000E+00  0.0000E+00  0.0000E+00  0.0000E+00
    -19.411  0.0000E+00  0.0000E+00  0.0000E+00  0.0000E+00  0.0000E+00  0.0000E+00  0.0000E+00  0.0000E+00  0.0000E+00  0.0000E+00  0.0000E+00  0.0000E+00  0.0000E+00  0.0000E+00  0.0000E+00  0.0000E+00  0.0000E+00  0.0000E+00