   4   4   1   0
  0.1709571E+02  0.4088391E-09  0.4089756E-09  0.4089756E-09  0.5000000E-15
  1.000000000000000E-004
  CAR 
 unknown system                          
     15.10516961    -25.02114886  301      7.69834136      1.00000000
    -25.021  0.0000E+00  0.0000E+00  0.0000E+00  0.0000E+00
    -24.887  0.0000E+00  0.0000E+00  0.0000E+00  0.0000E+00
    -24.754  0.0000E+00  0.0000E+00  0.0000E+00  0.0000E+00
    -24.620  0.0000E+00  0.0000E+00  0.0000E+00  0.0000E+00
    -24.486  0.0000E+00  0.0000E+00  0.0000E+00  0.0000E+00
    -24.352  0.0000E+00  0.0000E+00  0.0000E+00  0.0000E+00
    -24.219  0.0000E+00  0.0000E+00  0.0000E+00  0.0000E+00
    -24.085  0.0000E+00  0.0000E+00  0.0000E+00  0.0000E+00
    -23.951  0.0000E+00  0.0000E+00  0.0000E+00  0.0000E+00
    -23.817  0.0000E+00  0.0000E+00  0.0000E+00  0.0000E+00
    -23.684  0.8718E-03  0.8750E-03  0.1166E-03  0.1170E-03
    -23.550  0.1177E-01  0.1182E-01  0.1692E-02  0.1698E-02
    -23.416  0.1694E+00  0.1700E+00  0.2435E-01  0.2444E-01
    -23.282  0.2185E+01  0.2192E+01  0.3166E+00  0.3176E+00
    -23.149  0.1160E+02  0.1161E+02  0.1868E+01  0.1871E+01
    -23.015  0.7541E+01  0.7526E+01  0.2877E+01  0.2878E+01
    -22.881  0.8529E+00  0.8499E+00  0.2991E+01  0.2991E+01
    -22.747  0.0000E+00  0.0000E+00  0.3000E+01  0.3000E+01
    -22.614  0.0000E+00  0.0000E+00  0.3000E+01  0.3000E+01
    -22.480  0.0000E+00  0.0000E+00  0.3000E+01  0.3000E+01
    -22.346  0.0000E+00  0.0000E+00  0.3000E+01  0.3000E+01
    -22.212  0.0000E+00  0.0000E+00  0.3000E+01  0.3000E+01
    -22.079  0.0000E+00  0.0000E+00  0.3000E+01  0.3000E+01
    -21.945  0.0000E+00  0.0000E+00  0.3000E+01  0.3000E+01
    -21.811  0.0000E+00  0.0000E+00  0.3000E+01  0.3000E+01
    -21.677  0.0000E+00  0.0000E+00  0.3000E+01  0.3000E+01
    -21.544  0.0000E+00  0.0000E+00  0.3000E+01  0.3000E+01
    -21.410  0.0000E+00  0.0000E+00  0.3000E+01  0.3000E+01
    -21.276  0.0000E+00  0.0000E+00  0.3000E+01  0.3000E+01
    -21.142  0.0000E+00  0.0000E+00  0.3000E+01  0.3000E+01
    -21.009  0.0000E+00  0.0000E+00  0.3000E+01  0.3000E+01
    -20.875  0.0000E+00  0.0000E+00  0.3000E+01  0.3000E+01
    -20.741  0.0000E+00  0.0000E+00  0.3000E+01  0.3000E+01
    -20.607  0.0000E+00  0.0000E+00  0.3000E+01  0.3000E+01
    -20.473  0.0000E+00  0.0000E+00  0.3000E+01  0.3000E+01
    -20.340  0.0000E+00  0.0000E+00  0.3000E+01  0.3000E+01
    -20.206  0.0000E+00  0.0000E+00  0.3000E+01  0.3000E+01
    -20.072  0.0000E+00  0.0000E+00  0.3000E+01  0.3000E+01
    -19.938  0.0000E+00  0.0000E+00  0.3000E+01  0.3000E+01
    -19.805  0.0000E+00  0.0000E+00  0.3000E+01  0.3000E+01
    -19.671  0.0000E+00  0.0000E+00  0.3000E+01  0.3000E+01
    -19.537  0.0000E+00  0.0000E+00  0.3000E+01  0.3000E+01
    -19.403  0.0000E+00  0.0000E+00  0.3000E+01  0.3000E+01
    -19.270  0.0000E+00  0.0000E+00  0.3000E+01  0.3000E+01
    -19.136  0.0000E+00  0.0000E+00  0.3000E+01  0.3000E+01
    -19.002  0.0000E+00  0.0000E+00  0.3000E+01  0.3000E+01
    -18.868  0.0000E+00  0.0000E+00  0.3000E+01  0.3000E+01
    -18.735  0.0000E+00  0.0000E+00  0.3000E+01  0.3000E+01
    -18.601  0.0000E+00  0.0000E+00  0.3000E+01  0.3000E+01
    -18.467  0.0000E+00  0.0000E+00  0.3000E+01  0.3000E+01
    -18.333  0.0000E+00  0.0000E+00  0.3000E+01  0.3000E+01
    -18.200  0.0000E+00  0.0000E+00  0.3000E+01  0.3000E+01
    -18.066  0.0000E+00  0.0000E+00  0.3000E+01  0.3000E+01
    -17.932  0.0000E+00  0.0000E+00  0.3000E+01  0.3000E+01
    -17.798  0.0000E+00  0.0000E+00  0.3000E+01  0.3000E+01
    -17.665  0.0000E+00  0.0000E+00  0.3000E+01  0.3000E+01
    -17.531  0.0000E+00  0.0000E+00  0.3000E+01  0.3000E+01
    -17.397  0.0000E+00  0.0000E+00  0.3000E+01  0.3000E+01
    -17.263  0.0000E+00  0.0000E+00  0.3000E+01  0.3000E+01
    -17.130  0.0000E+00  0.0000E+00  0.3000E+01  0.3000E+01
    -16.996  0.0000E+00  0.0000E+00  0.3000E+01  0.3000E+01
    -16.862  0.0000E+00  0.0000E+00  0.3000E+01  0.3000E+01
    -16.728  0.0000E+00  0.0000E+00  0.3000E+01  0.3000E+01
    -16.595  0.0000E+00  0.0000E+00  0.3000E+01  0.3000E+01
    -16.461  0.0000E+00  0.0000E+00  0.3000E+01  0.3000E+01
    -16.327  0.0000E+00  0.0000E+00  0.3000E+01  0.3000E+01
    -16.193  0.0000E+00  0.0000E+00  0.3000E+01  0.3000E+01
    -16.060  0.0000E+00  0.0000E+00  0.3000E+01  0.3000E+01
    -15.926  0.0000E+00  0.0000E+00  0.3000E+01  0.3000E+01
    -15.792  0.0000E+00  0.0000E+00  0.3000E+01  0.3000E+01
    -15.658  0.0000E+00  0.0000E+00  0.3000E+01  0.3000E+01
    -15.525  0.0000E+00  0.0000E+00  0.3000E+01  0.3000E+01
    -15.391  0.0000E+00  0.0000E+00  0.3000E+01  0.3000E+01
    -15.257  0.0000E+00  0.0000E+00  0.3000E+01  0.3000E+01
    -15.123  0.0000E+00  0.0000E+00  0.3000E+01  0.3000E+01
    -14.990  0.0000E+00  0.0000E+00  0.3000E+01  0.3000E+01
    -14.856  0.0000E+00  0.0000E+00  0.3000E+01  0.3000E+01
    -14.722  0.0000E+00  0.0000E+00  0.3000E+01  0.3000E+01
    -14.588  0.0000E+00  0.0000E+00  0.3000E+01  0.3000E+01
    -14.455  0.0000E+00  0.0000E+00  0.3000E+01  0.3000E+01
    -14.321  0.0000E+00  0.0000E+00  0.3000E+01  0.3000E+01
    -14.187  0.0000E+00  0.0000E+00  0.3000E+01  0.3000E+01
    -14.053  0.0000E+00  0.0000E+00  0.3000E+01  0.3000E+01
    -13.920  0.0000E+00  0.0000E+00  0.3000E+01  0.3000E+01
    -13.786  0.0000E+00  0.0000E+00  0.3000E+01  0.3000E+01
    -13.652  0.0000E+00  0.0000E+00  0.3000E+01  0.3000E+01
    -13.518  0.0000E+00  0.0000E+00  0.3000E+01  0.3000E+01
    -13.385  0.0000E+00  0.0000E+00  0.3000E+01  0.3000E+01
    -13.251  0.0000E+00  0.0000E+00  0.3000E+01  0.3000E+01
    -13.117  0.0000E+00  0.0000E+00  0.3000E+01  0.3000E+01
    -12.983  0.0000E+00  0.0000E+00  0.3000E+01  0.3000E+01
    -12.849  0.0000E+00  0.0000E+00  0.3000E+01  0.3000E+01
    -12.716  0.0000E+00  0.0000E+00  0.3000E+01  0.3000E+01
    -12.582  0.0000E+00  0.0000E+00  0.3000E+01  0.3000E+01
    -12.448  0.0000E+00  0.0000E+00  0.3000E+01  0.3000E+01
    -12.314  0.0000E+00  0.0000E+00  0.3000E+01  0.3000E+01
    -12.181  0.0000E+00  0.0000E+00  0.3000E+01  0.3000E+01
    -12.047  0.0000E+00  0.0000E+00  0.3000E+01  0.3000E+01
    -11.913  0.0000E+00  0.0000E+00  0.3000E+01  0.3000E+01
    -11.779  0.0000E+00  0.0000E+00  0.3000E+01  0.3000E+01
    -11.646  0.0000E+00  0.0000E+00  0.3000E+01  0.3000E+01
    -11.512  0.0000E+00  0.0000E+00  0.3000E+01  0.3000E+01
    -11.378  0.0000E+00  0.0000E+00  0.3000E+01  0.3000E+01
    -11.244  0.0000E+00  0.0000E+00  0.3000E+01  0.3000E+01
    -11.111  0.0000E+00  0.0000E+00  0.3000E+01  0.3000E+01
    -10.977  0.0000E+00  0.0000E+00  0.3000E+01  0.3000E+01
    -10.843  0.0000E+00  0.0000E+00  0.3000E+01  0.3000E+01
    -10.709  0.0000E+00  0.0000E+00  0.3000E+01  0.3000E+01
    -10.576  0.0000E+00  0.0000E+00  0.3000E+01  0.3000E+01
    -10.442  0.0000E+00  0.0000E+00  0.3000E+01  0.3000E+01
    -10.308  0.0000E+00  0.0000E+00  0.3000E+01  0.3000E+01
    -10.174  0.0000E+00  0.0000E+00  0.3000E+01  0.3000E+01
    -10.041  0.0000E+00  0.0000E+00  0.3000E+01  0.3000E+01
     -9.907  0.0000E+00  0.0000E+00  0.3000E+01  0.3000E+01
     -9.773  0.0000E+00  0.0000E+00  0.3000E+01  0.3000E+01
     -9.639  0.0000E+00  0.0000E+00  0.3000E+01  0.3000E+01
     -9.506  0.0000E+00  0.0000E+00  0.3000E+01  0.3000E+01
     -9.372  0.0000E+00  0.0000E+00  0.3000E+01  0.3000E+01
     -9.238  0.0000E+00  0.0000E+00  0.3000E+01  0.3000E+01
     -9.104  0.0000E+00  0.0000E+00  0.3000E+01  0.3000E+01
     -8.971  0.0000E+00  0.0000E+00  0.3000E+01  0.3000E+01
     -8.837  0.0000E+00  0.0000E+00  0.3000E+01  0.3000E+01
     -8.703  0.0000E+00  0.0000E+00  0.3000E+01  0.3000E+01
     -8.569  0.0000E+00  0.0000E+00  0.3000E+01  0.3000E+01
     -8.436  0.0000E+00  0.0000E+00  0.3000E+01  0.3000E+01
     -8.302  0.0000E+00  0.0000E+00  0.3000E+01  0.3000E+01
     -8.168  0.0000E+00  0.0000E+00  0.3000E+01  0.3000E+01
     -8.034  0.0000E+00  0.0000E+00  0.3000E+01  0.3000E+01
     -7.901  0.0000E+00  0.0000E+00  0.3000E+01  0.3000E+01
     -7.767  0.0000E+00  0.0000E+00  0.3000E+01  0.3000E+01
     -7.633  0.0000E+00  0.0000E+00  0.3000E+01  0.3000E+01
     -7.499  0.0000E+00  0.0000E+00  0.3000E+01  0.3000E+01
     -7.366  0.0000E+00  0.0000E+00  0.3000E+01  0.3000E+01
     -7.232  0.0000E+00  0.0000E+00  0.3000E+01  0.3000E+01
     -7.098  0.0000E+00  0.0000E+00  0.3000E+01  0.3000E+01
     -6.964  0.0000E+00  0.0000E+00  0.3000E+01  0.3000E+01
     -6.831  0.0000E+00  0.0000E+00  0.3000E+01  0.3000E+01
     -6.697  0.0000E+00  0.0000E+00  0.3000E+01  0.3000E+01
     -6.563  0.0000E+00  0.0000E+00  0.3000E+01  0.3000E+01
     -6.429  0.0000E+00  0.0000E+00  0.3000E+01  0.3000E+01
     -6.296  0.0000E+00  0.0000E+00  0.3000E+01  0.3000E+01
     -6.162  0.0000E+00  0.0000E+00  0.3000E+01  0.3000E+01
     -6.028  0.0000E+00  0.0000E+00  0.3000E+01  0.3000E+01
     -5.894  0.0000E+00  0.0000E+00  0.3000E+01  0.3000E+01
     -5.761  0.0000E+00  0.0000E+00  0.3000E+01  0.3000E+01
     -5.627  0.0000E+00  0.0000E+00  0.3000E+01  0.3000E+01
     -5.493  0.0000E+00  0.0000E+00  0.3000E+01  0.3000E+01
     -5.359  0.0000E+00  0.0000E+00  0.3000E+01  0.3000E+01
     -5.225  0.0000E+00  0.0000E+00  0.3000E+01  0.3000E+01
     -5.092  0.0000E+00  0.0000E+00  0.3000E+01  0.3000E+01
     -4.958  0.0000E+00  0.0000E+00  0.3000E+01  0.3000E+01
     -4.824  0.0000E+00  0.0000E+00  0.3000E+01  0.3000E+01
     -4.690  0.0000E+00  0.0000E+00  0.3000E+01  0.3000E+01
     -4.557  0.0000E+00  0.0000E+00  0.3000E+01  0.3000E+01
     -4.423  0.0000E+00  0.0000E+00  0.3000E+01  0.3000E+01
     -4.289  0.0000E+00  0.0000E+00  0.3000E+01  0.3000E+01
     -4.155  0.0000E+00  0.0000E+00  0.3000E+01  0.3000E+01
     -4.022  0.0000E+00  0.0000E+00  0.3000E+01  0.3000E+01
     -3.888  0.0000E+00  0.0000E+00  0.3000E+01  0.3000E+01
     -3.754  0.0000E+00  0.0000E+00  0.3000E+01  0.3000E+01
     -3.620  0.0000E+00  0.0000E+00  0.3000E+01  0.3000E+01
     -3.487  0.1264E-06  0.1251E-06  0.3000E+01  0.3000E+01
     -3.353  0.7059E-05  0.6985E-05  0.3000E+01  0.3000E+01
     -3.219  0.1041E-03  0.1030E-03  0.3000E+01  0.3000E+01
     -3.085  0.1474E-02  0.1459E-02  0.3000E+01  0.3000E+01
     -2.952  0.1466E-01  0.1455E-01  0.3002E+01  0.3002E+01
     -2.818  0.5400E-01  0.5384E-01  0.3009E+01  0.3009E+01
     -2.684  0.9227E-01  0.9208E-01  0.3022E+01  0.3022E+01
     -2.550  0.1179E+00  0.1179E+00  0.3038E+01  0.3037E+01
     -2.417  0.1394E+00  0.1392E+00  0.3056E+01  0.3056E+01
     -2.283  0.1687E+00  0.1687E+00  0.3079E+01  0.3079E+01
     -2.149  0.1804E+00  0.1804E+00  0.3103E+01  0.3103E+01
     -2.015  0.1747E+00  0.1747E+00  0.3126E+01  0.3126E+01
     -1.882  0.2405E+00  0.2403E+00  0.3158E+01  0.3158E+01
     -1.748  0.2438E+00  0.2438E+00  0.3191E+01  0.3191E+01
     -1.614  0.2005E+00  0.2006E+00  0.3218E+01  0.3218E+01
     -1.480  0.2748E+00  0.2743E+00  0.3255E+01  0.3255E+01
     -1.347  0.3102E+00  0.3102E+00  0.3296E+01  0.3296E+01
     -1.213  0.2899E+00  0.2901E+00  0.3335E+01  0.3335E+01
     -1.079  0.2851E+00  0.2847E+00  0.3373E+01  0.3373E+01
     -0.945  0.3380E+00  0.3381E+00  0.3419E+01  0.3418E+01
     -0.812  0.3383E+00  0.3381E+00  0.3464E+01  0.3464E+01
     -0.678  0.4207E+00  0.4202E+00  0.3520E+01  0.3520E+01
     -0.544  0.4141E+00  0.4142E+00  0.3576E+01  0.3575E+01
     -0.410  0.3468E+00  0.3472E+00  0.3622E+01  0.3622E+01
     -0.277  0.3732E+00  0.3731E+00  0.3672E+01  0.3672E+01
     -0.143  0.4620E+00  0.4619E+00  0.3734E+01  0.3734E+01
     -0.009  0.4322E+00  0.4323E+00  0.3792E+01  0.3792E+01
      0.125  0.4899E+00  0.4895E+00  0.3858E+01  0.3857E+01
      0.258  0.4404E+00  0.4408E+00  0.3917E+01  0.3916E+01
      0.392  0.4232E+00  0.4231E+00  0.3973E+01  0.3973E+01
      0.526  0.4434E+00  0.4436E+00  0.4033E+01  0.4033E+01
      0.660  0.3884E+00  0.3884E+00  0.4085E+01  0.4085E+01
      0.793  0.5346E+00  0.5340E+00  0.4156E+01  0.4156E+01
      0.927  0.4214E+00  0.4223E+00  0.4213E+01  0.4213E+01
      1.061  0.3562E+00  0.3558E+00  0.4261E+01  0.4260E+01
      1.195  0.4962E+00  0.4960E+00  0.4327E+01  0.4327E+01
      1.328  0.4425E+00  0.4426E+00  0.4386E+01  0.4386E+01
      1.462  0.5380E+00  0.5375E+00  0.4458E+01  0.4458E+01
      1.596  0.6090E+00  0.6092E+00  0.4540E+01  0.4540E+01
      1.730  0.5530E+00  0.5528E+00  0.4614E+01  0.4614E+01
      1.863  0.6557E+00  0.6556E+00  0.4702E+01  0.4702E+01
      1.997  0.6985E+00  0.6983E+00  0.4796E+01  0.4795E+01
      2.131  0.6788E+00  0.6788E+00  0.4887E+01  0.4886E+01
      2.265  0.8104E+00  0.8101E+00  0.4995E+01  0.4995E+01
      2.399  0.8012E+00  0.8012E+00  0.5103E+01  0.5102E+01
      2.532  0.7306E+00  0.7312E+00  0.5200E+01  0.5200E+01
      2.666  0.6365E+00  0.6365E+00  0.5286E+01  0.5285E+01
      2.800  0.6703E+00  0.6700E+00  0.5375E+01  0.5375E+01
      2.934  0.6355E+00  0.6362E+00  0.5461E+01  0.5460E+01
      3.067  0.4282E+00  0.4284E+00  0.5518E+01  0.5518E+01
      3.201  0.5872E+00  0.5863E+00  0.5597E+01  0.5596E+01
      3.335  0.7104E+00  0.7104E+00  0.5692E+01  0.5692E+01
      3.469  0.7882E+00  0.7875E+00  0.5797E+01  0.5797E+01
      3.602  0.7328E+00  0.7336E+00  0.5895E+01  0.5895E+01
      3.736  0.6450E+00  0.6449E+00  0.5982E+01  0.5982E+01
      3.870  0.7268E+00  0.7261E+00  0.6079E+01  0.6079E+01
      4.004  0.9429E+00  0.9428E+00  0.6206E+01  0.6205E+01
      4.137  0.7257E+00  0.7262E+00  0.6303E+01  0.6303E+01
      4.271  0.7533E+00  0.7530E+00  0.6404E+01  0.6403E+01
      4.405  0.7809E+00  0.7808E+00  0.6509E+01  0.6508E+01
      4.539  0.9690E+00  0.9681E+00  0.6638E+01  0.6638E+01
      4.672  0.1117E+01  0.1117E+01  0.6788E+01  0.6787E+01
      4.806  0.1372E+01  0.1371E+01  0.6972E+01  0.6971E+01
      4.940  0.1436E+01  0.1436E+01  0.7164E+01  0.7163E+01
      5.074  0.1410E+01  0.1410E+01  0.7353E+01  0.7352E+01
      5.207  0.1429E+01  0.1428E+01  0.7544E+01  0.7544E+01
      5.341  0.1624E+01  0.1624E+01  0.7762E+01  0.7761E+01
      5.475  0.1321E+01  0.1322E+01  0.7939E+01  0.7938E+01
      5.609  0.1139E+01  0.1141E+01  0.8092E+01  0.8091E+01
      5.742  0.1029E+01  0.1028E+01  0.8230E+01  0.8229E+01
      5.876  0.8716E+00  0.8732E+00  0.8346E+01  0.8346E+01
      6.010  0.6525E+00  0.6527E+00  0.8434E+01  0.8434E+01
      6.144  0.6519E+00  0.6513E+00  0.8521E+01  0.8521E+01
      6.277  0.7304E+00  0.7306E+00  0.8619E+01  0.8619E+01
      6.411  0.6403E+00  0.6406E+00  0.8705E+01  0.8705E+01
      6.545  0.6585E+00  0.6586E+00  0.8793E+01  0.8793E+01
      6.679  0.4769E+00  0.4774E+00  0.8857E+01  0.8857E+01
      6.812  0.5548E+00  0.5539E+00  0.8931E+01  0.8931E+01
      6.946  0.7180E+00  0.7175E+00  0.9028E+01  0.9027E+01
      7.080  0.6025E+00  0.6041E+00  0.9108E+01  0.9108E+01
      7.214  0.3679E+00  0.3680E+00  0.9158E+01  0.9158E+01
      7.347  0.5273E+00  0.5261E+00  0.9228E+01  0.9228E+01
      7.481  0.7467E+00  0.7458E+00  0.9328E+01  0.9328E+01
      7.615  0.8430E+00  0.8436E+00  0.9441E+01  0.9441E+01
      7.749  0.7360E+00  0.7355E+00  0.9540E+01  0.9539E+01
      7.882  0.9997E+00  0.9992E+00  0.9674E+01  0.9673E+01
      8.016  0.1051E+01  0.1051E+01  0.9815E+01  0.9814E+01
      8.150  0.1103E+01  0.1103E+01  0.9962E+01  0.9962E+01
      8.284  0.1133E+01  0.1133E+01  0.1011E+02  0.1011E+02
      8.417  0.1184E+01  0.1185E+01  0.1027E+02  0.1027E+02
      8.551  0.1158E+01  0.1157E+01  0.1043E+02  0.1043E+02
      8.685  0.1558E+01  0.1558E+01  0.1064E+02  0.1064E+02
      8.819  0.1601E+01  0.1601E+01  0.1085E+02  0.1085E+02
      8.952  0.1443E+01  0.1444E+01  0.1104E+02  0.1104E+02
      9.086  0.1053E+01  0.1054E+01  0.1119E+02  0.1119E+02
      9.220  0.1025E+01  0.1024E+01  0.1132E+02  0.1132E+02
      9.354  0.1054E+01  0.1055E+01  0.1146E+02  0.1146E+02
      9.487  0.1116E+01  0.1116E+01  0.1161E+02  0.1161E+02
      9.621  0.1477E+01  0.1477E+01  0.1181E+02  0.1181E+02
      9.755  0.1433E+01  0.1433E+01  0.1200E+02  0.1200E+02
      9.889  0.1500E+01  0.1501E+01  0.1221E+02  0.1220E+02
     10.023  0.1482E+01  0.1483E+01  0.1240E+02  0.1240E+02
     10.156  0.1556E+01  0.1556E+01  0.1261E+02  0.1261E+02
     10.290  0.1486E+01  0.1485E+01  0.1281E+02  0.1281E+02
     10.424  0.1228E+01  0.1229E+01  0.1298E+02  0.1298E+02
     10.558  0.1026E+01  0.1027E+01  0.1311E+02  0.1311E+02
     10.691  0.9695E+00  0.9695E+00  0.1324E+02  0.1324E+02
     10.825  0.1215E+01  0.1215E+01  0.1341E+02  0.1341E+02
     10.959  0.1140E+01  0.1141E+01  0.1356E+02  0.1356E+02
     11.093  0.1140E+01  0.1140E+01  0.1371E+02  0.1371E+02
     11.226  0.9358E+00  0.9365E+00  0.1384E+02  0.1384E+02
     11.360  0.9558E+00  0.9551E+00  0.1397E+02  0.1397E+02
     11.494  0.1232E+01  0.1231E+01  0.1413E+02  0.1413E+02
     11.628  0.1161E+01  0.1161E+01  0.1429E+02  0.1429E+02
     11.761  0.1093E+01  0.1093E+01  0.1443E+02  0.1443E+02
     11.895  0.1286E+01  0.1286E+01  0.1461E+02  0.1460E+02
     12.029  0.1229E+01  0.1229E+01  0.1477E+02  0.1477E+02
     12.163  0.1463E+01  0.1461E+01  0.1497E+02  0.1496E+02
     12.296  0.1599E+01  0.1600E+01  0.1518E+02  0.1518E+02
     12.430  0.1573E+01  0.1574E+01  0.1539E+02  0.1539E+02
     12.564  0.1409E+01  0.1412E+01  0.1558E+02  0.1558E+02
     12.698  0.9589E+00  0.9592E+00  0.1571E+02  0.1571E+02
     12.831  0.7477E+00  0.7550E+00  0.1581E+02  0.1581E+02
     12.965  0.7233E+00  0.7288E+00  0.1590E+02  0.1591E+02
     13.099  0.4935E+00  0.4859E+00  0.1597E+02  0.1597E+02
     13.233  0.1671E+00  0.1679E+00  0.1599E+02  0.1599E+02
     13.366  0.4076E-01  0.3637E-01  0.1600E+02  0.1600E+02
     13.500  0.5615E-02  0.3765E-02  0.1600E+02  0.1600E+02
     13.634  0.3739E-03  0.1765E-03  0.1600E+02  0.1600E+02
     13.768  0.0000E+00  0.0000E+00  0.1600E+02  0.1600E+02
     13.901  0.0000E+00  0.0000E+00  0.1600E+02  0.1600E+02
     14.035  0.0000E+00  0.0000E+00  0.1600E+02  0.1600E+02
     14.169  0.0000E+00  0.0000E+00  0.1600E+02  0.1600E+02
     14.303  0.0000E+00  0.0000E+00  0.1600E+02  0.1600E+02
     14.436  0.0000E+00  0.0000E+00  0.1600E+02  0.1600E+02
     14.570  0.0000E+00  0.0000E+00  0.1600E+02  0.1600E+02
     14.704  0.0000E+00  0.0000E+00  0.1600E+02  0.1600E+02
     14.838  0.0000E+00  0.0000E+00  0.1600E+02  0.1600E+02
     14.971  0.0000E+00  0.0000E+00  0.1600E+02  0.1600E+02
     15.105  0.0000E+00  0.0000E+00  0.1600E+02  0.1600E+02
     15.10516961    -25.02114886  301      7.69834136      1.00000000
    -25.021  0.0000E+00  0.0000E+00  0.0000E+00  0.0000E+00  0.0000E+00  0.0000E+00  0.0000E+00  0.0000E+00  0.0000E+00  0.0000E+00  0.0000E+00  0.0000E+00  0.0000E+00  0.0000E+00  0.0000E+00  0.0000E+00  0.0000E+00  0.0000E+00
    -24.887  0.0000E+00  0.0000E+00  0.0000E+00  0.0000E+00  0.0000E+00  0.0000E+00  0.0000E+00  0.0000E+00  0.0000E+00  0.0000E+00  0.0000E+00  0.0000E+00  0.0000E+00  0.0000E+00  0.0000E+00  0.0000E+00  0.0000E+00  0.0000E+00
    -24.754  0.0000E+00  0.0000E+00  0.0000E+00  0.0000E+00  0.0000E+00  0.0000E+00  0.0000E+00  0.0000E+00  0.0000E+00  0.0000E+00  0.0000E+00  0.0000E+00  0.0000E+00  0.0000E+00  0.0000E+00  0.0000E+00  0.0000E+00  0.0000E+00
    -24.620  0.0000E+00  0.0000E+00  0.0000E+00  0.0000E+00  0.0000E+00  0.0000E+00  0.0000E+00  0.0000E+00  0.0000E+00  0.0000E+00  0.0000E+00  0.0000E+00  0.0000E+00  0.0000E+00  0.0000E+00  0.0000E+00  0.0000E+00  0.0000E+00
    -24.486  0.0000E+00  0.0000E+00  0.0000E+00  0.0000E+00  0.0000E+00  0.0000E+00  0.0000E+00  0.0000E+00  0.0000E+00  0.0000E+00  0.0000E+00  0.0000E+00  0.0000E+00  0.0000E+00  0.0000E+00  0.0000E+00  0.0000E+00  0.0000E+00
    -24.352  0.0000E+00  0.0000E+00  0.0000E+00  0.0000E+00  0.0000E+00  0.0000E+00  0.0000E+00  0.0000E+00  0.0000E+00  0.0000E+00  0.0000E+00  0.0000E+00  0.0000E+00  0.0000E+00  0.0000E+00  0.0000E+00  0.0000E+00  0.0000E+00
    -24.219  0.0000E+00  0.0000E+00  0.0000E+00  0.0000E+00  0.0000E+00  0.0000E+00  0.0000E+00  0.0000E+00  0.0000E+00  0.0000E+00  0.0000E+00  0.0000E+00  0.0000E+00  0.0000E+00  0.0000E+00  0.0000E+00  0.0000E+00  0.0000E+00
    -24.085  0.0000E+00  0.0000E+00  0.0000E+00  0.0000E+00  0.0000E+00  0.0000E+00  0.0000E+00  0.0000E+00  0.0000E+00  0.0000E+00  0.0000E+00  0.0000E+00  0.0000E+00  0.0000E+00  0.0000E+00  0.0000E+00  0.0000E+00  0.0000E+00
    -23.951  0.0000E+00  0.0000E+00  0.0000E+00  0.0000E+00  0.0000E+00  0.0000E+00  0.0000E+00  0.0000E+00  0.0000E+00  0.0000E+00  0.0000E+00  0.0000E+00  0.0000E+00  0.0000E+00  0.0000E+00  0.0000E+00  0.0000E+00  0.0000E+00
    -23.817  0.0000E+00  0.0000E+00  0.0000E+00  0.0000E+00  0.0000E+00  0.0000E+00  0.0000E+00  0.0000E+00  0.0000E+00  0.0000E+00  0.0000E+00  0.0000E+00  0.0000E+00  0.0000E+00  0.0000E+00  0.0000E+00  0.0000E+00  0.0000E+00
    -23.684  0.3949E-09  0.3959E-09  0.2852E-03  0.2863E-03  0.2852E-03  0.2863E-03  0.2842E-03  0.2852E-03  0.1490E-10  0.1499E-10  0.1487E-10  0.1496E-10  0.2958E-09  0.2973E-09  0.1490E-10  0.1499E-10  0.3055E-09  0.3071E-09
    -23.550  0.5334E-08  0.5347E-08  0.3852E-02  0.3866E-02  0.3852E-02  0.3866E-02  0.3838E-02  0.3852E-02  0.2013E-09  0.2024E-09  0.2008E-09  0.2020E-09  0.3995E-08  0.4015E-08  0.2013E-09  0.2024E-09  0.4126E-08  0.4148E-08
    -23.416  0.7677E-07  0.7695E-07  0.5542E-01  0.5562E-01  0.5542E-01  0.5562E-01  0.5523E-01  0.5543E-01  0.2894E-08  0.2911E-08  0.2888E-08  0.2904E-08  0.5751E-07  0.5780E-07  0.2894E-08  0.2911E-08  0.5938E-07  0.5970E-07
    -23.282  0.9936E-06  0.9956E-06  0.7147E+00  0.7170E+00  0.7147E+00  0.7170E+00  0.7124E+00  0.7147E+00  0.3704E-07  0.3722E-07  0.3695E-07  0.3714E-07  0.7465E-06  0.7500E-06  0.3704E-07  0.3722E-07  0.7690E-06  0.7728E-06
    -23.149  0.5319E-05  0.5318E-05  0.3793E+01  0.3797E+01  0.3793E+01  0.3797E+01  0.3789E+01  0.3793E+01  0.1876E-06  0.1879E-06  0.1869E-06  0.1873E-06  0.4066E-05  0.4077E-05  0.1876E-06  0.1879E-06  0.4134E-05  0.4146E-05
    -23.015  0.3401E-05  0.3391E-05  0.2464E+01  0.2458E+01  0.2464E+01  0.2458E+01  0.2469E+01  0.2464E+01  0.1136E-06  0.1133E-06  0.1131E-06  0.1128E-06  0.2663E-05  0.2662E-05  0.1136E-06  0.1133E-06  0.2659E-05  0.2658E-05
    -22.881  0.3777E-06  0.3760E-06  0.2785E+00  0.2775E+00  0.2785E+00  0.2775E+00  0.2796E+00  0.2786E+00  0.1245E-07  0.1239E-07  0.1239E-07  0.1232E-07  0.2987E-06  0.2982E-06  0.1245E-07  0.1239E-07  0.2959E-06  0.2955E-06
    -22.747  0.0000E+00  0.0000E+00  0.0000E+00  0.0000E+00  0.0000E+00  0.0000E+00  0.0000E+00  0.0000E+00  0.0000E+00  0.0000E+00  0.0000E+00  0.0000E+00  0.0000E+00  0.0000E+00  0.0000E+00  0.0000E+00  0.0000E+00  0.0000E+00
    -22.614  0.0000E+00  0.0000E+00  0.0000E+00  0.0000E+00  0.0000E+00  0.0000E+00  0.0000E+00  0.0000E+00  0.0000E+00  0.0000E+00  0.0000E+00  0.0000E+00  0.0000E+00  0.0000E+00  0.0000E+00  0.0000E+00  0.0000E+00  0.0000E+00
    -22.480  0.0000E+00  0.0000E+00  0.0000E+00  0.0000E+00  0.0000E+00  0.0000E+00  0.0000E+00  0.0000E+00  0.0000E+00  0.0000E+00  0.0000E+00  0.0000E+00  0.0000E+00  0.0000E+00  0.0000E+00  0.0000E+00  0.0000E+00  0.0000E+00
    -22.346  0.0000E+00  0.0000E+00  0.0000E+00  0.0000E+00  0.0000E+00  0.0000E+00  0.0000E+00  0.0000E+00  0.0000E+00  0.0000E+00  0.0000E+00  0.0000E+00  0.0000E+00  0.0000E+00  0.0000E+00  0.0000E+00  0.0000E+00  0.0000E+00
    -22.212  0.0000E+00  0.0000E+00  0.0000E+00  0.0000E+00  0.0000E+00  0.0000E+00  0.0000E+00  0.0000E+00  0.0000E+00  0.0000E+00  0.0000E+00  0.0000E+00  0.0000E+00  0.0000E+00  0.0000E+00  0.0000E+00  0.0000E+00  0.0000E+00
    -22.079  0.0000E+00  0.0000E+00  0.0000E+00  0.0000E+00  0.0000E+00  0.0000E+00  0.0000E+00  0.0000E+00  0.0000E+00  0.0000E+00  0.0000E+00  0.0000E+00  0.0000E+00  0.0000E+00  0.0000E+00  0.0000E+00  0.0000E+00  0.0000E+00
    -21.945  0.0000E+00  0.0000E+00  0.0000E+00  0.0000E+00  0.0000E+00  0.0000E+00  0.0000E+00  0.0000E+00  0.0000E+00  0.0000E+00  0.0000E+00  0.0000E+00  0.0000E+00  0.0000E+00  0.0000E+00  0.0000E+00  0.0000E+00  0.0000E+00
    -21.811  0.0000E+00  0.0000E+00  0.0000E+00  0.0000E+00  0.0000E+00  0.0000E+00  0.0000E+00  0.0000E+00  0.0000E+00  0.0000E+00  0.0000E+00  0.0000E+00  0.0000E+00  0.0000E+00  0.0000E+00  0.0000E+00  0.0000E+00  0.0000E+00
    -21.677  0.0000E+00  0.0000E+00  0.0000E+00  0.0000E+00  0.0000E+00  0.0000E+00  0.0000E+00  0.0000E+00  0.0000E+00  0.0000E+00  0.0000E+00  0.0000E+00  0.0000E+00  0.0000E+00  0.0000E+00  0.0000E+00  0.0000E+00  0.0000E+00
    -21.544  0.0000E+00  0.0000E+00  0.0000E+00  0.0000E+00  0.0000E+00  0.0000E+00  0.0000E+00  0.0000E+00  0.0000E+00  0.0000E+00  0.0000E+00  0.0000E+00  0.0000E+00  0.0000E+00  0.0000E+00  0.0000E+00  0.0000E+00  0.0000E+00
    -21.410  0.0000E+00  0.0000E+00  0.0000E+00  0.0000E+00  0.0000E+00  0.0000E+00  0.0000E+00  0.0000E+00  0.0000E+00  0.0000E+00  0.0000E+00  0.0000E+00  0.0000E+00  0.0000E+00  0.0000E+00  0.0000E+00  0.0000E+00  0.0000E+00
    -21.276  0.0000E+00  0.0000E+00  0.0000E+00  0.0000E+00  0.0000E+00  0.0000E+00  0.0000E+00  0.0000E+00  0.0000E+00  0.0000E+00  0.0000E+00  0.0000E+00  0.0000E+00  0.0000E+00  0.0000E+00  0.0000E+00  0.0000E+00  0.0000E+00
    -21.142  0.0000E+00  0.0000E+00  0.0000E+00  0.0000E+00  0.0000E+00  0.0000E+00  0.0000E+00  0.0000E+00  0.0000E+00  0.0000E+00  0.0000E+00  0.0000E+00  0.0000E+00  0.0000E+00  0.0000E+00  0.0000E+00  0.0000E+00  0.0000E+00
    -21.009  0.0000E+00  0.0000E+00  0.0000E+00  0.0000E+00  0.0000E+00  0.0000E+00  0.0000E+00  0.0000E+00  0.0000E+00  0.0000E+00  0.0000E+00  0.0000E+00  0.0000E+00  0.0000E+00  0.0000E+00  0.0000E+00  0.0000E+00  0.0000E+00
    -20.875  0.0000E+00  0.0000E+00  0.0000E+00  0.0000E+00  0.0000E+00  0.0000E+00  0.0000E+00  0.0000E+00  0.0000E+00  0.0000E+00  0.0000E+00  0.0000E+00  0.0000E+00  0.0000E+00  0.0000E+00  0.0000E+00  0.0000E+00  0.0000E+00
    -20.741  0.0000E+00  0.0000E+00  0.0000E+00  0.0000E+00  0.0000E+00  0.0000E+00  0.0000E+00  0.0000E+00  0.0000E+00  0.0000E+00  0.0000E+00  0.0000E+00  0.0000E+00  0.0000E+00  0.0000E+00  0.0000E+00  0.0000E+00  0.0000E+00
    -20.607  0.0000E+00  0.0000E+00  0.0000E+00  0.0000E+00  0.0000E+00  0.0000E+00  0.0000E+00  0.0000E+00  0.0000E+00  0.0000E+00  0.0000E+00  0.0000E+00  0.0000E+00  0.0000E+00  0.0000E+00  0.0000E+00  0.0000E+00  0.0000E+00
    -20.473  0.0000E+00  0.0000E+00  0.0000E+00  0.0000E+00  0.0000E+00  0.0000E+00  0.0000E+00  0.0000E+00  0.0000E+00  0.0000E+00  0.0000E+00  0.0000E+00  0.0000E+00  0.0000E+00  0.0000E+00  0.0000E+00  0.0000E+00  0.0000E+00
    -20.340  0.0000E+00  0.0000E+00  0.0000E+00  0.0000E+00  0.0000E+00  0.0000E+00  0.0000E+00  0.0000E+00  0.0000E+00  0.0000E+00  0.0000E+00  0.0000E+00  0.0000E+00  0.0000E+00  0.0000E+00  0.0000E+00  0.0000E+00  0.0000E+00
    -20.206  0.0000E+00  0.0000E+00  0.0000E+00  0.0000E+00  0.0000E+00  0.0000E+00  0.0000E+00  0.0000E+00  0.0000E+00  0.0000E+00  0.0000E+00  0.0000E+00  0.0000E+00  0.0000E+00  0.0000E+00  0.0000E+00  0.0000E+00  0.0000E+00
    -20.072  0.0000E+00  0.0000E+00  0.0000E+00  0.0000E+00  0.0000E+00  0.0000E+00  0.0000E+00  0.0000E+00  0.0000E+00  0.0000E+00  0.0000E+00  0.0000E+00  0.0000E+00  0.0000E+00  0.0000E+00  0.0000E+00  0.0000E+00  0.0000E+00
    -19.938  0.0000E+00  0.0000E+00  0.0000E+00  0.0000E+00  0.0000E+00  0.0000E+00  0.0000E+00  0.0000E+00  0.0000E+00  0.0000E+00  0.0000E+00  0.0000E+00  0.0000E+00  0.0000E+00  0.0000E+00  0.0000E+00  0.0000E+00  0.0000E+00
    -19.805  0.0000E+00  0.0000E+00  0.0000E+00  0.0000E+00  0.0000E+00  0.0000E+00  0.0000E+00  0.0000E+00  0.0000E+00  0.0000E+00  0.0000E+00  0.0000E+00  0.0000E+00  0.0000E+00  0.0000E+00  0.0000E+00  0.0000E+00  0.0000E+00
    -19.671  0.0000E+00  0.0000E+00  0.0000E+00  0.0000E+00  0.0000E+00  0.0000E+00  0.0000E+00  0.0000E+00  0.0000E+00  0.0000E+00  0.0000E+00  0.0000E+00  0.0000E+00  0.0000E+00  0.0000E+00  0.0000E+00  0.0000E+00  0.0000E+00
    -19.537  0.0000E+00  0.0000E+00  0.0000E+00  0.0000E+00  0.0000E+00  0.0000E+00  0.0000E+00  0.0000E+00  0.0000E+00  0.0000E+00  0.0000E+00  0.0000E+00  0.0000E+00  0.0000E+00  0.0000E+00  0.0000E+00  0.0000E+00  0.0000E+00
    -19.403  0.0000E+00  0.0000E+00  0.0000E+00  0.0000E+00  0.0000E+00  0.0000E+00  0.0000E+00  0.0000E+00  0.0000E+00  0.0000E+00  0.0000E+00  0.0000E+00  0.0000E+00  0.0000E+00  0.0000E+00  0.0000E+00  0.0000E+00  0.0000E+00
    -19.270  0.0000E+00  0.0000E+00  0.0000E+00  0.0000E+00  0.0000E+00  0.0000E+00  0.0000E+00  0.0000E+00  0.0000E+00  0.0000E+00  0.0000E+00  0.0000E+00  0.0000E+00  0.0000E+00  0.0000E+00  0.0000E+00  0.0000E+00  0.0000E+00
    -19.136  0.0000E+00  0.0000E+00  0.0000E+00  0.0000E+00  0.0000E+00  0.0000E+00  0.0000E+00  0.0000E+00  0.0000E+00  0.0000E+00  0.0000E+00  0.0000E+00  0.0000E+00  0.0000E+00  0.0000E+00  0.0000E+00  0.0000E+00  0.0000E+00
    -19.002  0.0000E+00  0.0000E+00  0.0000E+00  0.0000E+00  0.0000E+00  0.0000E+00  0.0000E+00  0.0000E+00  0.0000E+00  0.0000E+00  0.0000E+00  0.0000E+00  0.0000E+00  0.0000E+00  0.0000E+00  0.0000E+00  0.0000E+00  0.0000E+00
    -18.868  0.0000E+00  0.0000E+00  0.0000E+00  0.0000E+00  0.0000E+00  0.0000E+00  0.0000E+00  0.0000E+00  0.0000E+00  0.0000E+00  0.0000E+00  0.0000E+00  0.0000E+00  0.0000E+00  0.0000E+00  0.0000E+00  0.0000E+00  0.0000E+00
    -18.735  0.0000E+00  0.0000E+00  0.0000E+00  0.0000E+00  0.0000E+00  0.0000E+00  0.0000E+00  0.0000E+00  0.0000E+00  0.0000E+00  0.0000E+00  0.0000E+00  0.0000E+00  0.0000E+00  0.0000E+00  0.0000E+00  0.0000E+00  0.0000E+00
    -18.601  0.0000E+00  0.0000E+00  0.0000E+00  0.0000E+00  0.0000E+00  0.0000E+00  0.0000E+00  0.0000E+00  0.0000E+00  0.0000E+00  0.0000E+00  0.0000E+00  0.0000E+00  0.0000E+00  0.0000E+00  0.0000E+00  0.0000E+00  0.0000E+00
    -18.467  0.0000E+00  0.0000E+00  0.0000E+00  0.0000E+00  0.0000E+00  0.0000E+00  0.0000E+00  0.0000E+00  0.0000E+00  0.0000E+00  0.0000E+00  0.0000E+00  0.0000E+00  0.0000E+00  0.0000E+00  0.0000E+00  0.0000E+00  0.0000E+00
    -18.333  0.0000E+00  0.0000E+00  0.0000E+00  0.0000E+00  0.0000E+00  0.0000E+00  0.0000E+00  0.0000E+00  0.0000E+00  0.0000E+00  0.0000E+00  0.0000E+00  0.0000E+00  0.0000E+00  0.0000E+00  0.0000E+00  0.0000E+00  0.0000E+00