   4   4   1   0
  0.2094298E+02  0.4374578E-09  0.4376039E-09  0.4376039E-09  0.5000000E-15
  1.000000000000000E-004
  CAR 
 unknown system                          
     12.64259327    -27.39052808  301      5.84434676      1.00000000
    -27.391  0.0000E+00  0.0000E+00  0.0000E+00  0.0000E+00
    -27.257  0.0000E+00  0.0000E+00  0.0000E+00  0.0000E+00
    -27.124  0.0000E+00  0.0000E+00  0.0000E+00  0.0000E+00
    -26.990  0.0000E+00  0.0000E+00  0.0000E+00  0.0000E+00
    -26.857  0.0000E+00  0.0000E+00  0.0000E+00  0.0000E+00
    -26.723  0.0000E+00  0.0000E+00  0.0000E+00  0.0000E+00
    -26.590  0.0000E+00  0.0000E+00  0.0000E+00  0.0000E+00
    -26.456  0.0000E+00  0.0000E+00  0.0000E+00  0.0000E+00
    -26.323  0.0000E+00  0.0000E+00  0.0000E+00  0.0000E+00
    -26.190  0.0000E+00  0.0000E+00  0.0000E+00  0.0000E+00
    -26.056  0.1170E-02  0.1170E-02  0.1561E-03  0.1561E-03
    -25.923  0.1569E-01  0.1569E-01  0.2250E-02  0.2250E-02
    -25.789  0.2239E+00  0.2239E+00  0.3213E-01  0.3213E-01
    -25.656  0.2793E+01  0.2793E+01  0.4048E+00  0.4048E+00
    -25.522  0.1251E+02  0.1251E+02  0.2074E+01  0.2074E+01
    -25.389  0.6265E+01  0.6266E+01  0.2910E+01  0.2910E+01
    -25.255  0.6288E+00  0.6288E+00  0.2994E+01  0.2994E+01
    -25.122  0.0000E+00  0.0000E+00  0.3000E+01  0.3000E+01
    -24.989  0.0000E+00  0.0000E+00  0.3000E+01  0.3000E+01
    -24.855  0.0000E+00  0.0000E+00  0.3000E+01  0.3000E+01
    -24.722  0.0000E+00  0.0000E+00  0.3000E+01  0.3000E+01
    -24.588  0.0000E+00  0.0000E+00  0.3000E+01  0.3000E+01
    -24.455  0.0000E+00  0.0000E+00  0.3000E+01  0.3000E+01
    -24.321  0.0000E+00  0.0000E+00  0.3000E+01  0.3000E+01
    -24.188  0.0000E+00  0.0000E+00  0.3000E+01  0.3000E+01
    -24.054  0.0000E+00  0.0000E+00  0.3000E+01  0.3000E+01
    -23.921  0.0000E+00  0.0000E+00  0.3000E+01  0.3000E+01
    -23.788  0.0000E+00  0.0000E+00  0.3000E+01  0.3000E+01
    -23.654  0.0000E+00  0.0000E+00  0.3000E+01  0.3000E+01
    -23.521  0.0000E+00  0.0000E+00  0.3000E+01  0.3000E+01
    -23.387  0.0000E+00  0.0000E+00  0.3000E+01  0.3000E+01
    -23.254  0.0000E+00  0.0000E+00  0.3000E+01  0.3000E+01
    -23.120  0.0000E+00  0.0000E+00  0.3000E+01  0.3000E+01
    -22.987  0.0000E+00  0.0000E+00  0.3000E+01  0.3000E+01
    -22.853  0.0000E+00  0.0000E+00  0.3000E+01  0.3000E+01
    -22.720  0.0000E+00  0.0000E+00  0.3000E+01  0.3000E+01
    -22.587  0.0000E+00  0.0000E+00  0.3000E+01  0.3000E+01
    -22.453  0.0000E+00  0.0000E+00  0.3000E+01  0.3000E+01
    -22.320  0.0000E+00  0.0000E+00  0.3000E+01  0.3000E+01
    -22.186  0.0000E+00  0.0000E+00  0.3000E+01  0.3000E+01
    -22.053  0.0000E+00  0.0000E+00  0.3000E+01  0.3000E+01
    -21.919  0.0000E+00  0.0000E+00  0.3000E+01  0.3000E+01
    -21.786  0.0000E+00  0.0000E+00  0.3000E+01  0.3000E+01
    -21.652  0.0000E+00  0.0000E+00  0.3000E+01  0.3000E+01
    -21.519  0.0000E+00  0.0000E+00  0.3000E+01  0.3000E+01
    -21.386  0.0000E+00  0.0000E+00  0.3000E+01  0.3000E+01
    -21.252  0.0000E+00  0.0000E+00  0.3000E+01  0.3000E+01
    -21.119  0.0000E+00  0.0000E+00  0.3000E+01  0.3000E+01
    -20.985  0.0000E+00  0.0000E+00  0.3000E+01  0.3000E+01
    -20.852  0.0000E+00  0.0000E+00  0.3000E+01  0.3000E+01
    -20.718  0.0000E+00  0.0000E+00  0.3000E+01  0.3000E+01
    -20.585  0.0000E+00  0.0000E+00  0.3000E+01  0.3000E+01
    -20.451  0.0000E+00  0.0000E+00  0.3000E+01  0.3000E+01
    -20.318  0.0000E+00  0.0000E+00  0.3000E+01  0.3000E+01
    -20.185  0.0000E+00  0.0000E+00  0.3000E+01  0.3000E+01
    -20.051  0.0000E+00  0.0000E+00  0.3000E+01  0.3000E+01
    -19.918  0.0000E+00  0.0000E+00  0.3000E+01  0.3000E+01
    -19.784  0.0000E+00  0.0000E+00  0.3000E+01  0.3000E+01
    -19.651  0.0000E+00  0.0000E+00  0.3000E+01  0.3000E+01
    -19.517  0.0000E+00  0.0000E+00  0.3000E+01  0.3000E+01
    -19.384  0.0000E+00  0.0000E+00  0.3000E+01  0.3000E+01
    -19.250  0.0000E+00  0.0000E+00  0.3000E+01  0.3000E+01
    -19.117  0.0000E+00  0.0000E+00  0.3000E+01  0.3000E+01
    -18.984  0.0000E+00  0.0000E+00  0.3000E+01  0.3000E+01
    -18.850  0.0000E+00  0.0000E+00  0.3000E+01  0.3000E+01
    -18.717  0.0000E+00  0.0000E+00  0.3000E+01  0.3000E+01
    -18.583  0.0000E+00  0.0000E+00  0.3000E+01  0.3000E+01
    -18.450  0.0000E+00  0.0000E+00  0.3000E+01  0.3000E+01
    -18.316  0.0000E+00  0.0000E+00  0.3000E+01  0.3000E+01
    -18.183  0.0000E+00  0.0000E+00  0.3000E+01  0.3000E+01
    -18.049  0.0000E+00  0.0000E+00  0.3000E+01  0.3000E+01
    -17.916  0.0000E+00  0.0000E+00  0.3000E+01  0.3000E+01
    -17.783  0.0000E+00  0.0000E+00  0.3000E+01  0.3000E+01
    -17.649  0.0000E+00  0.0000E+00  0.3000E+01  0.3000E+01
    -17.516  0.0000E+00  0.0000E+00  0.3000E+01  0.3000E+01
    -17.382  0.0000E+00  0.0000E+00  0.3000E+01  0.3000E+01
    -17.249  0.0000E+00  0.0000E+00  0.3000E+01  0.3000E+01
    -17.115  0.0000E+00  0.0000E+00  0.3000E+01  0.3000E+01
    -16.982  0.0000E+00  0.0000E+00  0.3000E+01  0.3000E+01
    -16.848  0.0000E+00  0.0000E+00  0.3000E+01  0.3000E+01
    -16.715  0.0000E+00  0.0000E+00  0.3000E+01  0.3000E+01
    -16.582  0.0000E+00  0.0000E+00  0.3000E+01  0.3000E+01
    -16.448  0.0000E+00  0.0000E+00  0.3000E+01  0.3000E+01
    -16.315  0.0000E+00  0.0000E+00  0.3000E+01  0.3000E+01
    -16.181  0.0000E+00  0.0000E+00  0.3000E+01  0.3000E+01
    -16.048  0.0000E+00  0.0000E+00  0.3000E+01  0.3000E+01
    -15.914  0.0000E+00  0.0000E+00  0.3000E+01  0.3000E+01
    -15.781  0.0000E+00  0.0000E+00  0.3000E+01  0.3000E+01
    -15.647  0.0000E+00  0.0000E+00  0.3000E+01  0.3000E+01
    -15.514  0.0000E+00  0.0000E+00  0.3000E+01  0.3000E+01
    -15.381  0.0000E+00  0.0000E+00  0.3000E+01  0.3000E+01
    -15.247  0.0000E+00  0.0000E+00  0.3000E+01  0.3000E+01
    -15.114  0.0000E+00  0.0000E+00  0.3000E+01  0.3000E+01
    -14.980  0.0000E+00  0.0000E+00  0.3000E+01  0.3000E+01
    -14.847  0.0000E+00  0.0000E+00  0.3000E+01  0.3000E+01
    -14.713  0.0000E+00  0.0000E+00  0.3000E+01  0.3000E+01
    -14.580  0.0000E+00  0.0000E+00  0.3000E+01  0.3000E+01
    -14.446  0.0000E+00  0.0000E+00  0.3000E+01  0.3000E+01
    -14.313  0.0000E+00  0.0000E+00  0.3000E+01  0.3000E+01
    -14.180  0.0000E+00  0.0000E+00  0.3000E+01  0.3000E+01
    -14.046  0.0000E+00  0.0000E+00  0.3000E+01  0.3000E+01
    -13.913  0.0000E+00  0.0000E+00  0.3000E+01  0.3000E+01
    -13.779  0.0000E+00  0.0000E+00  0.3000E+01  0.3000E+01
    -13.646  0.0000E+00  0.0000E+00  0.3000E+01  0.3000E+01
    -13.512  0.0000E+00  0.0000E+00  0.3000E+01  0.3000E+01
    -13.379  0.0000E+00  0.0000E+00  0.3000E+01  0.3000E+01
    -13.245  0.0000E+00  0.0000E+00  0.3000E+01  0.3000E+01
    -13.112  0.0000E+00  0.0000E+00  0.3000E+01  0.3000E+01
    -12.979  0.0000E+00  0.0000E+00  0.3000E+01  0.3000E+01
    -12.845  0.0000E+00  0.0000E+00  0.3000E+01  0.3000E+01
    -12.712  0.0000E+00  0.0000E+00  0.3000E+01  0.3000E+01
    -12.578  0.0000E+00  0.0000E+00  0.3000E+01  0.3000E+01
    -12.445  0.0000E+00  0.0000E+00  0.3000E+01  0.3000E+01
    -12.311  0.0000E+00  0.0000E+00  0.3000E+01  0.3000E+01
    -12.178  0.0000E+00  0.0000E+00  0.3000E+01  0.3000E+01
    -12.044  0.0000E+00  0.0000E+00  0.3000E+01  0.3000E+01
    -11.911  0.0000E+00  0.0000E+00  0.3000E+01  0.3000E+01
    -11.778  0.0000E+00  0.0000E+00  0.3000E+01  0.3000E+01
    -11.644  0.0000E+00  0.0000E+00  0.3000E+01  0.3000E+01
    -11.511  0.0000E+00  0.0000E+00  0.3000E+01  0.3000E+01
    -11.377  0.0000E+00  0.0000E+00  0.3000E+01  0.3000E+01
    -11.244  0.0000E+00  0.0000E+00  0.3000E+01  0.3000E+01
    -11.110  0.0000E+00  0.0000E+00  0.3000E+01  0.3000E+01
    -10.977  0.0000E+00  0.0000E+00  0.3000E+01  0.3000E+01
    -10.844  0.0000E+00  0.0000E+00  0.3000E+01  0.3000E+01
    -10.710  0.0000E+00  0.0000E+00  0.3000E+01  0.3000E+01
    -10.577  0.0000E+00  0.0000E+00  0.3000E+01  0.3000E+01
    -10.443  0.0000E+00  0.0000E+00  0.3000E+01  0.3000E+01
    -10.310  0.0000E+00  0.0000E+00  0.3000E+01  0.3000E+01
    -10.176  0.0000E+00  0.0000E+00  0.3000E+01  0.3000E+01
    -10.043  0.0000E+00  0.0000E+00  0.3000E+01  0.3000E+01
     -9.909  0.0000E+00  0.0000E+00  0.3000E+01  0.3000E+01
     -9.776  0.0000E+00  0.0000E+00  0.3000E+01  0.3000E+01
     -9.643  0.0000E+00  0.0000E+00  0.3000E+01  0.3000E+01
     -9.509  0.0000E+00  0.0000E+00  0.3000E+01  0.3000E+01
     -9.376  0.0000E+00  0.0000E+00  0.3000E+01  0.3000E+01
     -9.242  0.0000E+00  0.0000E+00  0.3000E+01  0.3000E+01
     -9.109  0.0000E+00  0.0000E+00  0.3000E+01  0.3000E+01
     -8.975  0.0000E+00  0.0000E+00  0.3000E+01  0.3000E+01
     -8.842  0.0000E+00  0.0000E+00  0.3000E+01  0.3000E+01
     -8.708  0.0000E+00  0.0000E+00  0.3000E+01  0.3000E+01
     -8.575  0.0000E+00  0.0000E+00  0.3000E+01  0.3000E+01
     -8.442  0.0000E+00  0.0000E+00  0.3000E+01  0.3000E+01
     -8.308  0.0000E+00  0.0000E+00  0.3000E+01  0.3000E+01
     -8.175  0.0000E+00  0.0000E+00  0.3000E+01  0.3000E+01
     -8.041  0.0000E+00  0.0000E+00  0.3000E+01  0.3000E+01
     -7.908  0.0000E+00  0.0000E+00  0.3000E+01  0.3000E+01
     -7.774  0.0000E+00  0.0000E+00  0.3000E+01  0.3000E+01
     -7.641  0.0000E+00  0.0000E+00  0.3000E+01  0.3000E+01
     -7.507  0.0000E+00  0.0000E+00  0.3000E+01  0.3000E+01
     -7.374  0.0000E+00  0.0000E+00  0.3000E+01  0.3000E+01
     -7.241  0.0000E+00  0.0000E+00  0.3000E+01  0.3000E+01
     -7.107  0.0000E+00  0.0000E+00  0.3000E+01  0.3000E+01
     -6.974  0.0000E+00  0.0000E+00  0.3000E+01  0.3000E+01
     -6.840  0.0000E+00  0.0000E+00  0.3000E+01  0.3000E+01
     -6.707  0.0000E+00  0.0000E+00  0.3000E+01  0.3000E+01
     -6.573  0.0000E+00  0.0000E+00  0.3000E+01  0.3000E+01
     -6.440  0.0000E+00  0.0000E+00  0.3000E+01  0.3000E+01
     -6.306  0.0000E+00  0.0000E+00  0.3000E+01  0.3000E+01
     -6.173  0.0000E+00  0.0000E+00  0.3000E+01  0.3000E+01
     -6.040  0.0000E+00  0.0000E+00  0.3000E+01  0.3000E+01
     -5.906  0.0000E+00  0.0000E+00  0.3000E+01  0.3000E+01
     -5.773  0.0000E+00  0.0000E+00  0.3000E+01  0.3000E+01
     -5.639  0.0000E+00  0.0000E+00  0.3000E+01  0.3000E+01
     -5.506  0.0000E+00  0.0000E+00  0.3000E+01  0.3000E+01
     -5.372  0.0000E+00  0.0000E+00  0.3000E+01  0.3000E+01
     -5.239  0.0000E+00  0.0000E+00  0.3000E+01  0.3000E+01
     -5.105  0.0000E+00  0.0000E+00  0.3000E+01  0.3000E+01
     -4.972  0.0000E+00  0.0000E+00  0.3000E+01  0.3000E+01
     -4.839  0.0000E+00  0.0000E+00  0.3000E+01  0.3000E+01
     -4.705  0.0000E+00  0.0000E+00  0.3000E+01  0.3000E+01
     -4.572  0.0000E+00  0.0000E+00  0.3000E+01  0.3000E+01
     -4.438  0.0000E+00  0.0000E+00  0.3000E+01  0.3000E+01
     -4.305  0.0000E+00  0.0000E+00  0.3000E+01  0.3000E+01
     -4.171  0.0000E+00  0.0000E+00  0.3000E+01  0.3000E+01
     -4.038  0.1512E-05  0.1509E-05  0.3000E+01  0.3000E+01
     -3.904  0.3468E-04  0.3461E-04  0.3000E+01  0.3000E+01
     -3.771  0.5021E-03  0.5011E-03  0.3000E+01  0.3000E+01
     -3.638  0.6356E-02  0.6345E-02  0.3001E+01  0.3001E+01
     -3.504  0.4113E-01  0.4108E-01  0.3006E+01  0.3006E+01
     -3.371  0.9474E-01  0.9470E-01  0.3019E+01  0.3019E+01
     -3.237  0.1366E+00  0.1366E+00  0.3037E+01  0.3037E+01
     -3.104  0.1681E+00  0.1680E+00  0.3060E+01  0.3060E+01
     -2.970  0.1981E+00  0.1981E+00  0.3086E+01  0.3086E+01
     -2.837  0.2106E+00  0.2106E+00  0.3114E+01  0.3114E+01
     -2.703  0.2464E+00  0.2463E+00  0.3147E+01  0.3147E+01
     -2.570  0.2836E+00  0.2836E+00  0.3185E+01  0.3185E+01
     -2.437  0.2481E+00  0.2481E+00  0.3218E+01  0.3218E+01
     -2.303  0.3193E+00  0.3192E+00  0.3261E+01  0.3261E+01
     -2.170  0.3560E+00  0.3560E+00  0.3308E+01  0.3308E+01
     -2.036  0.3166E+00  0.3166E+00  0.3351E+01  0.3351E+01
     -1.903  0.3746E+00  0.3745E+00  0.3401E+01  0.3401E+01
     -1.769  0.3914E+00  0.3913E+00  0.3453E+01  0.3453E+01
     -1.636  0.4461E+00  0.4459E+00  0.3513E+01  0.3513E+01
     -1.502  0.4671E+00  0.4672E+00  0.3575E+01  0.3575E+01
     -1.369  0.3846E+00  0.3847E+00  0.3627E+01  0.3627E+01
     -1.236  0.4213E+00  0.4211E+00  0.3683E+01  0.3683E+01
     -1.102  0.5082E+00  0.5083E+00  0.3751E+01  0.3751E+01
     -0.969  0.4751E+00  0.4751E+00  0.3814E+01  0.3814E+01
     -0.835  0.5205E+00  0.5204E+00  0.3884E+01  0.3884E+01
     -0.702  0.4711E+00  0.4712E+00  0.3947E+01  0.3947E+01
     -0.568  0.4792E+00  0.4791E+00  0.4011E+01  0.4011E+01
     -0.435  0.5285E+00  0.5286E+00  0.4082E+01  0.4082E+01
     -0.301  0.5796E+00  0.5795E+00  0.4159E+01  0.4159E+01
     -0.168  0.4918E+00  0.4920E+00  0.4225E+01  0.4225E+01
     -0.035  0.4786E+00  0.4786E+00  0.4289E+01  0.4289E+01
      0.099  0.5514E+00  0.5514E+00  0.4363E+01  0.4362E+01
      0.232  0.5695E+00  0.5694E+00  0.4439E+01  0.4438E+01
      0.366  0.6777E+00  0.6776E+00  0.4529E+01  0.4529E+01
      0.499  0.7819E+00  0.7818E+00  0.4634E+01  0.4633E+01
      0.633  0.7968E+00  0.7968E+00  0.4740E+01  0.4740E+01
      0.766  0.7264E+00  0.7263E+00  0.4837E+01  0.4837E+01
      0.900  0.8489E+00  0.8487E+00  0.4950E+01  0.4950E+01
      1.033  0.8250E+00  0.8251E+00  0.5061E+01  0.5061E+01
      1.166  0.7919E+00  0.7919E+00  0.5167E+01  0.5166E+01
      1.300  0.6774E+00  0.6776E+00  0.5257E+01  0.5257E+01
      1.433  0.6997E+00  0.6997E+00  0.5351E+01  0.5351E+01
      1.567  0.7024E+00  0.7025E+00  0.5445E+01  0.5445E+01
      1.700  0.4934E+00  0.4935E+00  0.5511E+01  0.5511E+01
      1.834  0.5621E+00  0.5620E+00  0.5586E+01  0.5586E+01
      1.967  0.6952E+00  0.6952E+00  0.5679E+01  0.5679E+01
      2.101  0.7703E+00  0.7701E+00  0.5782E+01  0.5782E+01
      2.234  0.7440E+00  0.7442E+00  0.5881E+01  0.5881E+01
      2.367  0.6900E+00  0.6899E+00  0.5973E+01  0.5973E+01
      2.501  0.7875E+00  0.7874E+00  0.6079E+01  0.6079E+01
      2.634  0.9615E+00  0.9614E+00  0.6207E+01  0.6207E+01
      2.768  0.7988E+00  0.7988E+00  0.6314E+01  0.6314E+01
      2.901  0.7582E+00  0.7581E+00  0.6415E+01  0.6415E+01
      3.035  0.8081E+00  0.8081E+00  0.6523E+01  0.6523E+01
      3.168  0.9902E+00  0.9901E+00  0.6656E+01  0.6656E+01
      3.302  0.1139E+01  0.1139E+01  0.6808E+01  0.6808E+01
      3.435  0.1284E+01  0.1284E+01  0.6979E+01  0.6979E+01
      3.568  0.1404E+01  0.1404E+01  0.7167E+01  0.7167E+01
      3.702  0.1456E+01  0.1456E+01  0.7362E+01  0.7361E+01
      3.835  0.1399E+01  0.1398E+01  0.7549E+01  0.7548E+01
      3.969  0.1945E+01  0.1945E+01  0.7809E+01  0.7808E+01
      4.102  0.1516E+01  0.1516E+01  0.8011E+01  0.8011E+01
      4.236  0.1220E+01  0.1220E+01  0.8174E+01  0.8174E+01
      4.369  0.1023E+01  0.1023E+01  0.8311E+01  0.8311E+01
      4.503  0.8697E+00  0.8697E+00  0.8428E+01  0.8427E+01
      4.636  0.7829E+00  0.7827E+00  0.8532E+01  0.8532E+01
      4.769  0.8080E+00  0.8082E+00  0.8640E+01  0.8640E+01
      4.903  0.7732E+00  0.7732E+00  0.8744E+01  0.8744E+01
      5.036  0.7333E+00  0.7333E+00  0.8842E+01  0.8842E+01
      5.170  0.7589E+00  0.7588E+00  0.8943E+01  0.8943E+01
      5.303  0.8047E+00  0.8044E+00  0.9050E+01  0.9050E+01
      5.437  0.8019E+00  0.8022E+00  0.9158E+01  0.9158E+01
      5.570  0.6551E+00  0.6553E+00  0.9245E+01  0.9245E+01
      5.704  0.8873E+00  0.8869E+00  0.9364E+01  0.9364E+01
      5.837  0.9684E+00  0.9683E+00  0.9493E+01  0.9493E+01
      5.970  0.9695E+00  0.9696E+00  0.9623E+01  0.9623E+01
      6.104  0.1209E+01  0.1209E+01  0.9784E+01  0.9784E+01
      6.237  0.1467E+01  0.1468E+01  0.9980E+01  0.9980E+01
      6.371  0.1476E+01  0.1476E+01  0.1018E+02  0.1018E+02
      6.504  0.1434E+01  0.1434E+01  0.1037E+02  0.1037E+02
      6.638  0.1571E+01  0.1571E+01  0.1058E+02  0.1058E+02
      6.771  0.2035E+01  0.2035E+01  0.1085E+02  0.1085E+02
      6.905  0.1665E+01  0.1664E+01  0.1107E+02  0.1107E+02
      7.038  0.1258E+01  0.1257E+01  0.1124E+02  0.1124E+02
      7.171  0.1164E+01  0.1164E+01  0.1140E+02  0.1140E+02
      7.305  0.1357E+01  0.1358E+01  0.1158E+02  0.1158E+02
      7.438  0.1651E+01  0.1651E+01  0.1180E+02  0.1180E+02
      7.572  0.1940E+01  0.1940E+01  0.1206E+02  0.1206E+02
      7.705  0.2085E+01  0.2085E+01  0.1234E+02  0.1234E+02
      7.839  0.1907E+01  0.1906E+01  0.1259E+02  0.1259E+02
      7.972  0.1705E+01  0.1705E+01  0.1282E+02  0.1282E+02
      8.106  0.1446E+01  0.1446E+01  0.1301E+02  0.1301E+02
      8.239  0.1405E+01  0.1405E+01  0.1320E+02  0.1320E+02
      8.372  0.1587E+01  0.1587E+01  0.1341E+02  0.1341E+02
      8.506  0.1267E+01  0.1267E+01  0.1358E+02  0.1358E+02
      8.639  0.1217E+01  0.1216E+01  0.1375E+02  0.1375E+02
      8.773  0.1041E+01  0.1041E+01  0.1388E+02  0.1388E+02
      8.906  0.1369E+01  0.1368E+01  0.1407E+02  0.1407E+02
      9.040  0.1506E+01  0.1506E+01  0.1427E+02  0.1427E+02
      9.173  0.1494E+01  0.1493E+01  0.1447E+02  0.1447E+02
      9.306  0.1824E+01  0.1824E+01  0.1471E+02  0.1471E+02
      9.440  0.1996E+01  0.2000E+01  0.1498E+02  0.1498E+02
      9.573  0.1826E+01  0.1810E+01  0.1522E+02  0.1522E+02
      9.707  0.1267E+01  0.1259E+01  0.1539E+02  0.1539E+02
      9.840  0.1042E+01  0.1059E+01  0.1553E+02  0.1553E+02
      9.974  0.1018E+01  0.1021E+01  0.1567E+02  0.1567E+02
     10.107  0.9969E+00  0.1002E+01  0.1580E+02  0.1580E+02
     10.241  0.7060E+00  0.7203E+00  0.1590E+02  0.1590E+02
     10.374  0.4276E+00  0.4561E+00  0.1595E+02  0.1596E+02
     10.507  0.2554E+00  0.2297E+00  0.1599E+02  0.1599E+02
     10.641  0.6551E-01  0.4837E-01  0.1600E+02  0.1600E+02
     10.774  0.1341E-01  0.1043E-01  0.1600E+02  0.1600E+02
     10.908  0.1501E-01  0.1557E-01  0.1600E+02  0.1600E+02
     11.041  0.3184E-02  0.3879E-02  0.1600E+02  0.1600E+02
     11.175  0.2526E-03  0.3179E-03  0.1600E+02  0.1600E+02
     11.308  0.0000E+00  0.0000E+00  0.1600E+02  0.1600E+02
     11.442  0.0000E+00  0.0000E+00  0.1600E+02  0.1600E+02
     11.575  0.0000E+00  0.0000E+00  0.1600E+02  0.1600E+02
     11.708  0.0000E+00  0.0000E+00  0.1600E+02  0.1600E+02
     11.842  0.0000E+00  0.0000E+00  0.1600E+02  0.1600E+02
     11.975  0.0000E+00  0.0000E+00  0.1600E+02  0.1600E+02
     12.109  0.0000E+00  0.0000E+00  0.1600E+02  0.1600E+02
     12.242  0.0000E+00  0.0000E+00  0.1600E+02  0.1600E+02
     12.376  0.0000E+00  0.0000E+00  0.1600E+02  0.1600E+02
     12.509  0.0000E+00  0.0000E+00  0.1600E+02  0.1600E+02
     12.643  0.0000E+00  0.0000E+00  0.1600E+02  0.1600E+02
     12.64259327    -27.39052808  301      5.84434676      1.00000000
    -27.391  0.0000E+00  0.0000E+00  0.0000E+00  0.0000E+00  0.0000E+00  0.0000E+00  0.0000E+00  0.0000E+00  0.0000E+00  0.0000E+00  0.0000E+00  0.0000E+00  0.0000E+00  0.0000E+00  0.0000E+00  0.0000E+00  0.0000E+00  0.0000E+00
    -27.257  0.0000E+00  0.0000E+00  0.0000E+00  0.0000E+00  0.0000E+00  0.0000E+00  0.0000E+00  0.0000E+00  0.0000E+00  0.0000E+00  0.0000E+00  0.0000E+00  0.0000E+00  0.0000E+00  0.0000E+00  0.0000E+00  0.0000E+00  0.0000E+00
    -27.124  0.0000E+00  0.0000E+00  0.0000E+00  0.0000E+00  0.0000E+00  0.0000E+00  0.0000E+00  0.0000E+00  0.0000E+00  0.0000E+00  0.0000E+00  0.0000E+00  0.0000E+00  0.0000E+00  0.0000E+00  0.0000E+00  0.0000E+00  0.0000E+00
    -26.990  0.0000E+00  0.0000E+00  0.0000E+00  0.0000E+00  0.0000E+00  0.0000E+00  0.0000E+00  0.0000E+00  0.0000E+00  0.0000E+00  0.0000E+00  0.0000E+00  0.0000E+00  0.0000E+00  0.0000E+00  0.0000E+00  0.0000E+00  0.0000E+00
    -26.857  0.0000E+00  0.0000E+00  0.0000E+00  0.0000E+00  0.0000E+00  0.0000E+00  0.0000E+00  0.0000E+00  0.0000E+00  0.0000E+00  0.0000E+00  0.0000E+00  0.0000E+00  0.0000E+00  0.0000E+00  0.0000E+00  0.0000E+00  0.0000E+00
    -26.723  0.0000E+00  0.0000E+00  0.0000E+00  0.0000E+00  0.0000E+00  0.0000E+00  0.0000E+00  0.0000E+00  0.0000E+00  0.0000E+00  0.0000E+00  0.0000E+00  0.0000E+00  0.0000E+00  0.0000E+00  0.0000E+00  0.0000E+00  0.0000E+00
    -26.590  0.0000E+00  0.0000E+00  0.0000E+00  0.0000E+00  0.0000E+00  0.0000E+00  0.0000E+00  0.0000E+00  0.0000E+00  0.0000E+00  0.0000E+00  0.0000E+00  0.0000E+00  0.0000E+00  0.0000E+00  0.0000E+00  0.0000E+00  0.0000E+00
    -26.456  0.0000E+00  0.0000E+00  0.0000E+00  0.0000E+00  0.0000E+00  0.0000E+00  0.0000E+00  0.0000E+00  0.0000E+00  0.0000E+00  0.0000E+00  0.0000E+00  0.0000E+00  0.0000E+00  0.0000E+00  0.0000E+00  0.0000E+00  0.0000E+00
    -26.323  0.0000E+00  0.0000E+00  0.0000E+00  0.0000E+00  0.0000E+00  0.0000E+00  0.0000E+00  0.0000E+00  0.0000E+00  0.0000E+00  0.0000E+00  0.0000E+00  0.0000E+00  0.0000E+00  0.0000E+00  0.0000E+00  0.0000E+00  0.0000E+00
    -26.190  0.0000E+00  0.0000E+00  0.0000E+00  0.0000E+00  0.0000E+00  0.0000E+00  0.0000E+00  0.0000E+00  0.0000E+00  0.0000E+00  0.0000E+00  0.0000E+00  0.0000E+00  0.0000E+00  0.0000E+00  0.0000E+00  0.0000E+00  0.0000E+00
    -26.056  0.7135E-10  0.7124E-10  0.3831E-03  0.3831E-03  0.3831E-03  0.3831E-03  0.3817E-03  0.3816E-03  0.2110E-11  0.2089E-11  0.2103E-11  0.2082E-11  0.5353E-10  0.5338E-10  0.2110E-11  0.2089E-11  0.5429E-10  0.5416E-10
    -25.923  0.9570E-09  0.9556E-09  0.5139E-02  0.5138E-02  0.5139E-02  0.5138E-02  0.5120E-02  0.5119E-02  0.2831E-10  0.2801E-10  0.2821E-10  0.2793E-10  0.7180E-09  0.7160E-09  0.2831E-10  0.2801E-10  0.7283E-09  0.7265E-09
    -25.789  0.1366E-07  0.1364E-07  0.7332E-01  0.7331E-01  0.7332E-01  0.7331E-01  0.7306E-01  0.7304E-01  0.4038E-09  0.3996E-09  0.4025E-09  0.3984E-09  0.1025E-07  0.1022E-07  0.4038E-09  0.3996E-09  0.1039E-07  0.1037E-07
    -25.656  0.1704E-06  0.1701E-06  0.9143E+00  0.9142E+00  0.9143E+00  0.9142E+00  0.9114E+00  0.9113E+00  0.5025E-08  0.4972E-08  0.5008E-08  0.4955E-08  0.1280E-06  0.1276E-06  0.5025E-08  0.4972E-08  0.1297E-06  0.1294E-06
    -25.522  0.7628E-06  0.7618E-06  0.4091E+01  0.4091E+01  0.4091E+01  0.4091E+01  0.4088E+01  0.4088E+01  0.2226E-07  0.2198E-07  0.2215E-07  0.2188E-07  0.5759E-06  0.5744E-06  0.2226E-07  0.2198E-07  0.5806E-06  0.5793E-06
    -25.389  0.3807E-06  0.3803E-06  0.2047E+01  0.2047E+01  0.2047E+01  0.2047E+01  0.2052E+01  0.2052E+01  0.1100E-07  0.1084E-07  0.1093E-07  0.1077E-07  0.2893E-06  0.2886E-06  0.1100E-07  0.1084E-07  0.2898E-06  0.2892E-06
    -25.255  0.3812E-07  0.3807E-07  0.2054E+00  0.2054E+00  0.2054E+00  0.2054E+00  0.2061E+00  0.2062E+00  0.1098E-08  0.1082E-08  0.1091E-08  0.1075E-08  0.2903E-07  0.2896E-07  0.1098E-08  0.1082E-08  0.2901E-07  0.2896E-07
    -25.122  0.0000E+00  0.0000E+00  0.0000E+00  0.0000E+00  0.0000E+00  0.0000E+00  0.0000E+00  0.0000E+00  0.0000E+00  0.0000E+00  0.0000E+00  0.0000E+00  0.0000E+00  0.0000E+00  0.0000E+00  0.0000E+00  0.0000E+00  0.0000E+00
    -24.989  0.0000E+00  0.0000E+00  0.0000E+00  0.0000E+00  0.0000E+00  0.0000E+00  0.0000E+00  0.0000E+00  0.0000E+00  0.0000E+00  0.0000E+00  0.0000E+00  0.0000E+00  0.0000E+00  0.0000E+00  0.0000E+00  0.0000E+00  0.0000E+00
    -24.855  0.0000E+00  0.0000E+00  0.0000E+00  0.0000E+00  0.0000E+00  0.0000E+00  0.0000E+00  0.0000E+00  0.0000E+00  0.0000E+00  0.0000E+00  0.0000E+00  0.0000E+00  0.0000E+00  0.0000E+00  0.0000E+00  0.0000E+00  0.0000E+00
    -24.722  0.0000E+00  0.0000E+00  0.0000E+00  0.0000E+00  0.0000E+00  0.0000E+00  0.0000E+00  0.0000E+00  0.0000E+00  0.0000E+00  0.0000E+00  0.0000E+00  0.0000E+00  0.0000E+00  0.0000E+00  0.0000E+00  0.0000E+00  0.0000E+00
    -24.588  0.0000E+00  0.0000E+00  0.0000E+00  0.0000E+00  0.0000E+00  0.0000E+00  0.0000E+00  0.0000E+00  0.0000E+00  0.0000E+00  0.0000E+00  0.0000E+00  0.0000E+00  0.0000E+00  0.0000E+00  0.0000E+00  0.0000E+00  0.0000E+00
    -24.455  0.0000E+00  0.0000E+00  0.0000E+00  0.0000E+00  0.0000E+00  0.0000E+00  0.0000E+00  0.0000E+00  0.0000E+00  0.0000E+00  0.0000E+00  0.0000E+00  0.0000E+00  0.0000E+00  0.0000E+00  0.0000E+00  0.0000E+00  0.0000E+00
    -24.321  0.0000E+00  0.0000E+00  0.0000E+00  0.0000E+00  0.0000E+00  0.0000E+00  0.0000E+00  0.0000E+00  0.0000E+00  0.0000E+00  0.0000E+00  0.0000E+00  0.0000E+00  0.0000E+00  0.0000E+00  0.0000E+00  0.0000E+00  0.0000E+00
    -24.188  0.0000E+00  0.0000E+00  0.0000E+00  0.0000E+00  0.0000E+00  0.0000E+00  0.0000E+00  0.0000E+00  0.0000E+00  0.0000E+00  0.0000E+00  0.0000E+00  0.0000E+00  0.0000E+00  0.0000E+00  0.0000E+00  0.0000E+00  0.0000E+00
    -24.054  0.0000E+00  0.0000E+00  0.0000E+00  0.0000E+00  0.0000E+00  0.0000E+00  0.0000E+00  0.0000E+00  0.0000E+00  0.0000E+00  0.0000E+00  0.0000E+00  0.0000E+00  0.0000E+00  0.0000E+00  0.0000E+00  0.0000E+00  0.0000E+00
    -23.921  0.0000E+00  0.0000E+00  0.0000E+00  0.0000E+00  0.0000E+00  0.0000E+00  0.0000E+00  0.0000E+00  0.0000E+00  0.0000E+00  0.0000E+00  0.0000E+00  0.0000E+00  0.0000E+00  0.0000E+00  0.0000E+00  0.0000E+00  0.0000E+00
    -23.788  0.0000E+00  0.0000E+00  0.0000E+00  0.0000E+00  0.0000E+00  0.0000E+00  0.0000E+00  0.0000E+00  0.0000E+00  0.0000E+00  0.0000E+00  0.0000E+00  0.0000E+00  0.0000E+00  0.0000E+00  0.0000E+00  0.0000E+00  0.0000E+00
    -23.654  0.0000E+00  0.0000E+00  0.0000E+00  0.0000E+00  0.0000E+00  0.0000E+00  0.0000E+00  0.0000E+00  0.0000E+00  0.0000E+00  0.0000E+00  0.0000E+00  0.0000E+00  0.0000E+00  0.0000E+00  0.0000E+00  0.0000E+00  0.0000E+00
    -23.521  0.0000E+00  0.0000E+00  0.0000E+00  0.0000E+00  0.0000E+00  0.0000E+00  0.0000E+00  0.0000E+00  0.0000E+00  0.0000E+00  0.0000E+00  0.0000E+00  0.0000E+00  0.0000E+00  0.0000E+00  0.0000E+00  0.0000E+00  0.0000E+00
    -23.387  0.0000E+00  0.0000E+00  0.0000E+00  0.0000E+00  0.0000E+00  0.0000E+00  0.0000E+00  0.0000E+00  0.0000E+00  0.0000E+00  0.0000E+00  0.0000E+00  0.0000E+00  0.0000E+00  0.0000E+00  0.0000E+00  0.0000E+00  0.0000E+00
    -23.254  0.0000E+00  0.0000E+00  0.0000E+00  0.0000E+00  0.0000E+00  0.0000E+00  0.0000E+00  0.0000E+00  0.0000E+00  0.0000E+00  0.0000E+00  0.0000E+00  0.0000E+00  0.0000E+00  0.0000E+00  0.0000E+00  0.0000E+00  0.0000E+00
    -23.120  0.0000E+00  0.0000E+00  0.0000E+00  0.0000E+00  0.0000E+00  0.0000E+00  0.0000E+00  0.0000E+00  0.0000E+00  0.0000E+00  0.0000E+00  0.0000E+00  0.0000E+00  0.0000E+00  0.0000E+00  0.0000E+00  0.0000E+00  0.0000E+00
    -22.987  0.0000E+00  0.0000E+00  0.0000E+00  0.0000E+00  0.0000E+00  0.0000E+00  0.0000E+00  0.0000E+00  0.0000E+00  0.0000E+00  0.0000E+00  0.0000E+00  0.0000E+00  0.0000E+00  0.0000E+00  0.0000E+00  0.0000E+00  0.0000E+00
    -22.853  0.0000E+00  0.0000E+00  0.0000E+00  0.0000E+00  0.0000E+00  0.0000E+00  0.0000E+00  0.0000E+00  0.0000E+00  0.0000E+00  0.0000E+00  0.0000E+00  0.0000E+00  0.0000E+00  0.0000E+00  0.0000E+00  0.0000E+00  0.0000E+00
    -22.720  0.0000E+00  0.0000E+00  0.0000E+00  0.0000E+00  0.0000E+00  0.0000E+00  0.0000E+00  0.0000E+00  0.0000E+00  0.0000E+00  0.0000E+00  0.0000E+00  0.0000E+00  0.0000E+00  0.0000E+00  0.0000E+00  0.0000E+00  0.0000E+00
    -22.587  0.0000E+00  0.0000E+00  0.0000E+00  0.0000E+00  0.0000E+00  0.0000E+00  0.0000E+00  0.0000E+00  0.0000E+00  0.0000E+00  0.0000E+00  0.0000E+00  0.0000E+00  0.0000E+00  0.0000E+00  0.0000E+00  0.0000E+00  0.0000E+00
    -22.453  0.0000E+00  0.0000E+00  0.0000E+00  0.0000E+00  0.0000E+00  0.0000E+00  0.0000E+00  0.0000E+00  0.0000E+00  0.0000E+00  0.0000E+00  0.0000E+00  0.0000E+00  0.0000E+00  0.0000E+00  0.0000E+00  0.0000E+00  0.0000E+00
    -22.320  0.0000E+00  0.0000E+00  0.0000E+00  0.0000E+00  0.0000E+00  0.0000E+00  0.0000E+00  0.0000E+00  0.0000E+00  0.0000E+00  0.0000E+00  0.0000E+00  0.0000E+00  0.0000E+00  0.0000E+00  0.0000E+00  0.0000E+00  0.0000E+00
    -22.186  0.0000E+00  0.0000E+00  0.0000E+00  0.0000E+00  0.0000E+00  0.0000E+00  0.0000E+00  0.0000E+00  0.0000E+00  0.0000E+00  0.0000E+00  0.0000E+00  0.0000E+00  0.0000E+00  0.0000E+00  0.0000E+00  0.0000E+00  0.0000E+00
    -22.053  0.0000E+00  0.0000E+00  0.0000E+00  0.0000E+00  0.0000E+00  0.0000E+00  0.0000E+00  0.0000E+00  0.0000E+00  0.0000E+00  0.0000E+00  0.0000E+00  0.0000E+00  0.0000E+00  0.0000E+00  0.0000E+00  0.0000E+00  0.0000E+00
    -21.919  0.0000E+00  0.0000E+00  0.0000E+00  0.0000E+00  0.0000E+00  0.0000E+00  0.0000E+00  0.0000E+00  0.0000E+00  0.0000E+00  0.0000E+00  0.0000E+00  0.0000E+00  0.0000E+00  0.0000E+00  0.0000E+00  0.0000E+00  0.0000E+00
    -21.786  0.0000E+00  0.0000E+00  0.0000E+00  0.0000E+00  0.0000E+00  0.0000E+00  0.0000E+00  0.0000E+00  0.0000E+00  0.0000E+00  0.0000E+00  0.0000E+00  0.0000E+00  0.0000E+00  0.0000E+00  0.0000E+00  0.0000E+00  0.0000E+00
    -21.652  0.0000E+00  0.0000E+00  0.0000E+00  0.0000E+00  0.0000E+00  0.0000E+00  0.0000E+00  0.0000E+00  0.0000E+00  0.0000E+00  0.0000E+00  0.0000E+00  0.0000E+00  0.0000E+00  0.0000E+00  0.0000E+00  0.0000E+00  0.0000E+00
    -21.519  0.0000E+00  0.0000E+00  0.0000E+00  0.0000E+00  0.0000E+00  0.0000E+00  0.0000E+00  0.0000E+00  0.0000E+00  0.0000E+00  0.0000E+00  0.0000E+00  0.0000E+00  0.0000E+00  0.0000E+00  0.0000E+00  0.0000E+00  0.0000E+00
    -21.386  0.0000E+00  0.0000E+00  0.0000E+00  0.0000E+00  0.0000E+00  0.0000E+00  0.0000E+00  0.0000E+00  0.0000E+00  0.0000E+00  0.0000E+00  0.0000E+00  0.0000E+00  0.0000E+00  0.0000E+00  0.0000E+00  0.0000E+00  0.0000E+00
    -21.252  0.0000E+00  0.0000E+00  0.0000E+00  0.0000E+00  0.0000E+00  0.0000E+00  0.0000E+00  0.0000E+00  0.0000E+00  0.0000E+00  0.0000E+00  0.0000E+00  0.0000E+00  0.0000E+00  0.0000E+00  0.0000E+00  0.0000E+00  0.0000E+00
    -21.119  0.0000E+00  0.0000E+00  0.0000E+00  0.0000E+00  0.0000E+00  0.0000E+00  0.0000E+00  0.0000E+00  0.0000E+00  0.0000E+00  0.0000E+00  0.0000E+00  0.0000E+00  0.0000E+00  0.0000E+00  0.0000E+00  0.0000E+00  0.0000E+00
    -20.985  0.0000E+00  0.0000E+00  0.0000E+00  0.0000E+00  0.0000E+00  0.0000E+00  0.0000E+00  0.0000E+00  0.0000E+00  0.0000E+00  0.0000E+00  0.0000E+00  0.0000E+00  0.0000E+00  0.0000E+00  0.0000E+00  0.0000E+00  0.0000E+00
    -20.852  0.0000E+00  0.0000E+00  0.0000E+00  0.0000E+00  0.0000E+00  0.0000E+00  0.0000E+00  0.0000E+00  0.0000E+00  0.0000E+00  0.0000E+00  0.0000E+00  0.0000E+00  0.0000E+00  0.0000E+00  0.0000E+00  0.0000E+00  0.0000E+00
    -20.718  0.0000E+00  0.0000E+00  0.0000E+00  0.0000E+00  0.0000E+00  0.0000E+00  0.0000E+00  0.0000E+00  0.0000E+00  0.0000E+00  0.0000E+00  0.0000E+00  0.0000E+00  0.0000E+00  0.0000E+00  0.0000E+00  0.0000E+00  0.0000E+00