   4   4   1   0
  0.1512519E+02  0.3924855E-09  0.3926166E-09  0.3926166E-09  0.5000000E-15
  1.000000000000000E-004
  CAR 
 unknown system                          
     17.18072869    -23.54146717  301      8.90514106      1.00000000
    -23.541  0.0000E+00  0.0000E+00  0.0000E+00  0.0000E+00
    -23.406  0.0000E+00  0.0000E+00  0.0000E+00  0.0000E+00
    -23.270  0.0000E+00  0.0000E+00  0.0000E+00  0.0000E+00
    -23.134  0.0000E+00  0.0000E+00  0.0000E+00  0.0000E+00
    -22.999  0.0000E+00  0.0000E+00  0.0000E+00  0.0000E+00
    -22.863  0.0000E+00  0.0000E+00  0.0000E+00  0.0000E+00
    -22.727  0.0000E+00  0.0000E+00  0.0000E+00  0.0000E+00
    -22.591  0.0000E+00  0.0000E+00  0.0000E+00  0.0000E+00
    -22.456  0.0000E+00  0.0000E+00  0.0000E+00  0.0000E+00
    -22.320  0.0000E+00  0.0000E+00  0.0000E+00  0.0000E+00
    -22.184  0.3862E-03  0.3699E-03  0.5242E-04  0.5021E-04
    -22.048  0.8009E-02  0.7760E-02  0.1140E-02  0.1104E-02
    -21.913  0.1176E+00  0.1139E+00  0.1710E-01  0.1656E-01
    -21.777  0.1610E+01  0.1564E+01  0.2357E+00  0.2289E+00
    -21.641  0.1015E+02  0.1003E+02  0.1614E+01  0.1591E+01
    -21.505  0.8921E+01  0.9049E+01  0.2825E+01  0.2819E+01
    -21.370  0.1200E+01  0.1236E+01  0.2988E+01  0.2987E+01
    -21.234  0.4737E-01  0.4975E-01  0.3000E+01  0.3000E+01
    -21.098  0.0000E+00  0.0000E+00  0.3000E+01  0.3000E+01
    -20.962  0.0000E+00  0.0000E+00  0.3000E+01  0.3000E+01
    -20.827  0.0000E+00  0.0000E+00  0.3000E+01  0.3000E+01
    -20.691  0.0000E+00  0.0000E+00  0.3000E+01  0.3000E+01
    -20.555  0.0000E+00  0.0000E+00  0.3000E+01  0.3000E+01
    -20.419  0.0000E+00  0.0000E+00  0.3000E+01  0.3000E+01
    -20.284  0.0000E+00  0.0000E+00  0.3000E+01  0.3000E+01
    -20.148  0.0000E+00  0.0000E+00  0.3000E+01  0.3000E+01
    -20.012  0.0000E+00  0.0000E+00  0.3000E+01  0.3000E+01
    -19.876  0.0000E+00  0.0000E+00  0.3000E+01  0.3000E+01
    -19.741  0.0000E+00  0.0000E+00  0.3000E+01  0.3000E+01
    -19.605  0.0000E+00  0.0000E+00  0.3000E+01  0.3000E+01
    -19.469  0.0000E+00  0.0000E+00  0.3000E+01  0.3000E+01
    -19.334  0.0000E+00  0.0000E+00  0.3000E+01  0.3000E+01
    -19.198  0.0000E+00  0.0000E+00  0.3000E+01  0.3000E+01
    -19.062  0.0000E+00  0.0000E+00  0.3000E+01  0.3000E+01
    -18.926  0.0000E+00  0.0000E+00  0.3000E+01  0.3000E+01
    -18.791  0.0000E+00  0.0000E+00  0.3000E+01  0.3000E+01
    -18.655  0.0000E+00  0.0000E+00  0.3000E+01  0.3000E+01
    -18.519  0.0000E+00  0.0000E+00  0.3000E+01  0.3000E+01
    -18.383  0.0000E+00  0.0000E+00  0.3000E+01  0.3000E+01
    -18.248  0.0000E+00  0.0000E+00  0.3000E+01  0.3000E+01
    -18.112  0.0000E+00  0.0000E+00  0.3000E+01  0.3000E+01
    -17.976  0.0000E+00  0.0000E+00  0.3000E+01  0.3000E+01
    -17.840  0.0000E+00  0.0000E+00  0.3000E+01  0.3000E+01
    -17.705  0.0000E+00  0.0000E+00  0.3000E+01  0.3000E+01
    -17.569  0.0000E+00  0.0000E+00  0.3000E+01  0.3000E+01
    -17.433  0.0000E+00  0.0000E+00  0.3000E+01  0.3000E+01
    -17.297  0.0000E+00  0.0000E+00  0.3000E+01  0.3000E+01
    -17.162  0.0000E+00  0.0000E+00  0.3000E+01  0.3000E+01
    -17.026  0.0000E+00  0.0000E+00  0.3000E+01  0.3000E+01
    -16.890  0.0000E+00  0.0000E+00  0.3000E+01  0.3000E+01
    -16.754  0.0000E+00  0.0000E+00  0.3000E+01  0.3000E+01
    -16.619  0.0000E+00  0.0000E+00  0.3000E+01  0.3000E+01
    -16.483  0.0000E+00  0.0000E+00  0.3000E+01  0.3000E+01
    -16.347  0.0000E+00  0.0000E+00  0.3000E+01  0.3000E+01
    -16.211  0.0000E+00  0.0000E+00  0.3000E+01  0.3000E+01
    -16.076  0.0000E+00  0.0000E+00  0.3000E+01  0.3000E+01
    -15.940  0.0000E+00  0.0000E+00  0.3000E+01  0.3000E+01
    -15.804  0.0000E+00  0.0000E+00  0.3000E+01  0.3000E+01
    -15.669  0.0000E+00  0.0000E+00  0.3000E+01  0.3000E+01
    -15.533  0.0000E+00  0.0000E+00  0.3000E+01  0.3000E+01
    -15.397  0.0000E+00  0.0000E+00  0.3000E+01  0.3000E+01
    -15.261  0.0000E+00  0.0000E+00  0.3000E+01  0.3000E+01
    -15.126  0.0000E+00  0.0000E+00  0.3000E+01  0.3000E+01
    -14.990  0.0000E+00  0.0000E+00  0.3000E+01  0.3000E+01
    -14.854  0.0000E+00  0.0000E+00  0.3000E+01  0.3000E+01
    -14.718  0.0000E+00  0.0000E+00  0.3000E+01  0.3000E+01
    -14.583  0.0000E+00  0.0000E+00  0.3000E+01  0.3000E+01
    -14.447  0.0000E+00  0.0000E+00  0.3000E+01  0.3000E+01
    -14.311  0.0000E+00  0.0000E+00  0.3000E+01  0.3000E+01
    -14.175  0.0000E+00  0.0000E+00  0.3000E+01  0.3000E+01
    -14.040  0.0000E+00  0.0000E+00  0.3000E+01  0.3000E+01
    -13.904  0.0000E+00  0.0000E+00  0.3000E+01  0.3000E+01
    -13.768  0.0000E+00  0.0000E+00  0.3000E+01  0.3000E+01
    -13.632  0.0000E+00  0.0000E+00  0.3000E+01  0.3000E+01
    -13.497  0.0000E+00  0.0000E+00  0.3000E+01  0.3000E+01
    -13.361  0.0000E+00  0.0000E+00  0.3000E+01  0.3000E+01
    -13.225  0.0000E+00  0.0000E+00  0.3000E+01  0.3000E+01
    -13.089  0.0000E+00  0.0000E+00  0.3000E+01  0.3000E+01
    -12.954  0.0000E+00  0.0000E+00  0.3000E+01  0.3000E+01
    -12.818  0.0000E+00  0.0000E+00  0.3000E+01  0.3000E+01
    -12.682  0.0000E+00  0.0000E+00  0.3000E+01  0.3000E+01
    -12.546  0.0000E+00  0.0000E+00  0.3000E+01  0.3000E+01
    -12.411  0.0000E+00  0.0000E+00  0.3000E+01  0.3000E+01
    -12.275  0.0000E+00  0.0000E+00  0.3000E+01  0.3000E+01
    -12.139  0.0000E+00  0.0000E+00  0.3000E+01  0.3000E+01
    -12.004  0.0000E+00  0.0000E+00  0.3000E+01  0.3000E+01
    -11.868  0.0000E+00  0.0000E+00  0.3000E+01  0.3000E+01
    -11.732  0.0000E+00  0.0000E+00  0.3000E+01  0.3000E+01
    -11.596  0.0000E+00  0.0000E+00  0.3000E+01  0.3000E+01
    -11.461  0.0000E+00  0.0000E+00  0.3000E+01  0.3000E+01
    -11.325  0.0000E+00  0.0000E+00  0.3000E+01  0.3000E+01
    -11.189  0.0000E+00  0.0000E+00  0.3000E+01  0.3000E+01
    -11.053  0.0000E+00  0.0000E+00  0.3000E+01  0.3000E+01
    -10.918  0.0000E+00  0.0000E+00  0.3000E+01  0.3000E+01
    -10.782  0.0000E+00  0.0000E+00  0.3000E+01  0.3000E+01
    -10.646  0.0000E+00  0.0000E+00  0.3000E+01  0.3000E+01
    -10.510  0.0000E+00  0.0000E+00  0.3000E+01  0.3000E+01
    -10.375  0.0000E+00  0.0000E+00  0.3000E+01  0.3000E+01
    -10.239  0.0000E+00  0.0000E+00  0.3000E+01  0.3000E+01
    -10.103  0.0000E+00  0.0000E+00  0.3000E+01  0.3000E+01
     -9.967  0.0000E+00  0.0000E+00  0.3000E+01  0.3000E+01
     -9.832  0.0000E+00  0.0000E+00  0.3000E+01  0.3000E+01
     -9.696  0.0000E+00  0.0000E+00  0.3000E+01  0.3000E+01
     -9.560  0.0000E+00  0.0000E+00  0.3000E+01  0.3000E+01
     -9.424  0.0000E+00  0.0000E+00  0.3000E+01  0.3000E+01
     -9.289  0.0000E+00  0.0000E+00  0.3000E+01  0.3000E+01
     -9.153  0.0000E+00  0.0000E+00  0.3000E+01  0.3000E+01
     -9.017  0.0000E+00  0.0000E+00  0.3000E+01  0.3000E+01
     -8.881  0.0000E+00  0.0000E+00  0.3000E+01  0.3000E+01
     -8.746  0.0000E+00  0.0000E+00  0.3000E+01  0.3000E+01
     -8.610  0.0000E+00  0.0000E+00  0.3000E+01  0.3000E+01
     -8.474  0.0000E+00  0.0000E+00  0.3000E+01  0.3000E+01
     -8.339  0.0000E+00  0.0000E+00  0.3000E+01  0.3000E+01
     -8.203  0.0000E+00  0.0000E+00  0.3000E+01  0.3000E+01
     -8.067  0.0000E+00  0.0000E+00  0.3000E+01  0.3000E+01
     -7.931  0.0000E+00  0.0000E+00  0.3000E+01  0.3000E+01
     -7.796  0.0000E+00  0.0000E+00  0.3000E+01  0.3000E+01
     -7.660  0.0000E+00  0.0000E+00  0.3000E+01  0.3000E+01
     -7.524  0.0000E+00  0.0000E+00  0.3000E+01  0.3000E+01
     -7.388  0.0000E+00  0.0000E+00  0.3000E+01  0.3000E+01
     -7.253  0.0000E+00  0.0000E+00  0.3000E+01  0.3000E+01
     -7.117  0.0000E+00  0.0000E+00  0.3000E+01  0.3000E+01
     -6.981  0.0000E+00  0.0000E+00  0.3000E+01  0.3000E+01
     -6.845  0.0000E+00  0.0000E+00  0.3000E+01  0.3000E+01
     -6.710  0.0000E+00  0.0000E+00  0.3000E+01  0.3000E+01
     -6.574  0.0000E+00  0.0000E+00  0.3000E+01  0.3000E+01
     -6.438  0.0000E+00  0.0000E+00  0.3000E+01  0.3000E+01
     -6.302  0.0000E+00  0.0000E+00  0.3000E+01  0.3000E+01
     -6.167  0.0000E+00  0.0000E+00  0.3000E+01  0.3000E+01
     -6.031  0.0000E+00  0.0000E+00  0.3000E+01  0.3000E+01
     -5.895  0.0000E+00  0.0000E+00  0.3000E+01  0.3000E+01
     -5.759  0.0000E+00  0.0000E+00  0.3000E+01  0.3000E+01
     -5.624  0.0000E+00  0.0000E+00  0.3000E+01  0.3000E+01
     -5.488  0.0000E+00  0.0000E+00  0.3000E+01  0.3000E+01
     -5.352  0.0000E+00  0.0000E+00  0.3000E+01  0.3000E+01
     -5.216  0.0000E+00  0.0000E+00  0.3000E+01  0.3000E+01
     -5.081  0.0000E+00  0.0000E+00  0.3000E+01  0.3000E+01
     -4.945  0.0000E+00  0.0000E+00  0.3000E+01  0.3000E+01
     -4.809  0.0000E+00  0.0000E+00  0.3000E+01  0.3000E+01
     -4.674  0.0000E+00  0.0000E+00  0.3000E+01  0.3000E+01
     -4.538  0.0000E+00  0.0000E+00  0.3000E+01  0.3000E+01
     -4.402  0.0000E+00  0.0000E+00  0.3000E+01  0.3000E+01
     -4.266  0.0000E+00  0.0000E+00  0.3000E+01  0.3000E+01
     -4.131  0.0000E+00  0.0000E+00  0.3000E+01  0.3000E+01
     -3.995  0.0000E+00  0.0000E+00  0.3000E+01  0.3000E+01
     -3.859  0.0000E+00  0.0000E+00  0.3000E+01  0.3000E+01
     -3.723  0.0000E+00  0.0000E+00  0.3000E+01  0.3000E+01
     -3.588  0.0000E+00  0.0000E+00  0.3000E+01  0.3000E+01
     -3.452  0.0000E+00  0.0000E+00  0.3000E+01  0.3000E+01
     -3.316  0.0000E+00  0.0000E+00  0.3000E+01  0.3000E+01
     -3.180  0.0000E+00  0.0000E+00  0.3000E+01  0.3000E+01
     -3.045  0.8017E-07  0.7962E-07  0.3000E+01  0.3000E+01
     -2.909  0.4055E-05  0.4027E-05  0.3000E+01  0.3000E+01
     -2.773  0.6143E-04  0.6101E-04  0.3000E+01  0.3000E+01
     -2.637  0.9065E-03  0.9005E-03  0.3000E+01  0.3000E+01
     -2.502  0.9958E-02  0.9907E-02  0.3001E+01  0.3001E+01
     -2.366  0.4301E-01  0.4292E-01  0.3007E+01  0.3007E+01
     -2.230  0.7212E-01  0.7204E-01  0.3017E+01  0.3017E+01
     -2.094  0.1090E+00  0.1090E+00  0.3032E+01  0.3032E+01
     -1.959  0.1036E+00  0.1036E+00  0.3046E+01  0.3046E+01
     -1.823  0.1517E+00  0.1517E+00  0.3067E+01  0.3067E+01
     -1.687  0.1494E+00  0.1494E+00  0.3087E+01  0.3087E+01
     -1.551  0.1686E+00  0.1686E+00  0.3110E+01  0.3110E+01
     -1.416  0.1633E+00  0.1631E+00  0.3132E+01  0.3132E+01
     -1.280  0.2277E+00  0.2276E+00  0.3163E+01  0.3163E+01
     -1.144  0.2239E+00  0.2239E+00  0.3193E+01  0.3193E+01
     -1.009  0.1751E+00  0.1752E+00  0.3217E+01  0.3217E+01
     -0.873  0.2476E+00  0.2473E+00  0.3251E+01  0.3251E+01
     -0.737  0.2863E+00  0.2863E+00  0.3290E+01  0.3290E+01
     -0.601  0.2811E+00  0.2812E+00  0.3328E+01  0.3328E+01
     -0.466  0.2404E+00  0.2403E+00  0.3361E+01  0.3361E+01
     -0.330  0.3151E+00  0.3151E+00  0.3403E+01  0.3403E+01
     -0.194  0.2969E+00  0.2969E+00  0.3444E+01  0.3444E+01
     -0.058  0.3480E+00  0.3478E+00  0.3491E+01  0.3491E+01
      0.077  0.4213E+00  0.4214E+00  0.3548E+01  0.3548E+01
      0.213  0.3714E+00  0.3715E+00  0.3599E+01  0.3599E+01
      0.349  0.3104E+00  0.3104E+00  0.3641E+01  0.3641E+01
      0.485  0.4195E+00  0.4193E+00  0.3698E+01  0.3698E+01
      0.620  0.4329E+00  0.4329E+00  0.3757E+01  0.3757E+01
      0.756  0.4281E+00  0.4279E+00  0.3815E+01  0.3815E+01
      0.892  0.5011E+00  0.5013E+00  0.3883E+01  0.3883E+01
      1.028  0.3919E+00  0.3919E+00  0.3937E+01  0.3937E+01
      1.163  0.4184E+00  0.4183E+00  0.3994E+01  0.3993E+01
      1.299  0.3543E+00  0.3545E+00  0.4042E+01  0.4042E+01
      1.435  0.3285E+00  0.3281E+00  0.4086E+01  0.4086E+01
      1.571  0.5064E+00  0.5062E+00  0.4155E+01  0.4155E+01
      1.706  0.3712E+00  0.3715E+00  0.4206E+01  0.4206E+01
      1.842  0.3549E+00  0.3549E+00  0.4254E+01  0.4254E+01
      1.978  0.3891E+00  0.3887E+00  0.4307E+01  0.4307E+01
      2.114  0.4384E+00  0.4386E+00  0.4366E+01  0.4366E+01
      2.249  0.4819E+00  0.4816E+00  0.4432E+01  0.4432E+01
      2.385  0.5502E+00  0.5502E+00  0.4507E+01  0.4507E+01
      2.521  0.4965E+00  0.4965E+00  0.4574E+01  0.4574E+01
      2.656  0.5374E+00  0.5373E+00  0.4647E+01  0.4647E+01
      2.792  0.5411E+00  0.5411E+00  0.4721E+01  0.4721E+01
      2.928  0.6301E+00  0.6299E+00  0.4806E+01  0.4806E+01
      3.064  0.6668E+00  0.6669E+00  0.4897E+01  0.4897E+01
      3.199  0.7752E+00  0.7746E+00  0.5002E+01  0.5002E+01
      3.335  0.8627E+00  0.8630E+00  0.5120E+01  0.5119E+01
      3.471  0.6863E+00  0.6865E+00  0.5213E+01  0.5213E+01
      3.607  0.6080E+00  0.6084E+00  0.5296E+01  0.5296E+01
      3.742  0.6528E+00  0.6525E+00  0.5385E+01  0.5384E+01
      3.878  0.6095E+00  0.6102E+00  0.5468E+01  0.5467E+01
      4.014  0.4373E+00  0.4373E+00  0.5527E+01  0.5527E+01
      4.150  0.6039E+00  0.6032E+00  0.5609E+01  0.5609E+01
      4.285  0.7194E+00  0.7194E+00  0.5707E+01  0.5707E+01
      4.421  0.8000E+00  0.7998E+00  0.5816E+01  0.5815E+01
      4.557  0.7008E+00  0.7012E+00  0.5911E+01  0.5911E+01
      4.693  0.6353E+00  0.6354E+00  0.5997E+01  0.5997E+01
      4.828  0.7643E+00  0.7636E+00  0.6102E+01  0.6101E+01
      4.964  0.9046E+00  0.9052E+00  0.6225E+01  0.6224E+01
      5.100  0.6695E+00  0.6694E+00  0.6316E+01  0.6315E+01
      5.236  0.7277E+00  0.7277E+00  0.6415E+01  0.6414E+01
      5.371  0.7780E+00  0.7778E+00  0.6520E+01  0.6520E+01
      5.507  0.9119E+00  0.9112E+00  0.6644E+01  0.6644E+01
      5.643  0.1142E+01  0.1141E+01  0.6799E+01  0.6799E+01
      5.779  0.1607E+01  0.1606E+01  0.7018E+01  0.7017E+01
      5.914  0.1443E+01  0.1444E+01  0.7214E+01  0.7213E+01
      6.050  0.1365E+01  0.1365E+01  0.7399E+01  0.7399E+01
      6.186  0.1484E+01  0.1484E+01  0.7601E+01  0.7601E+01
      6.321  0.1368E+01  0.1369E+01  0.7787E+01  0.7787E+01
      6.457  0.1170E+01  0.1170E+01  0.7946E+01  0.7946E+01
      6.593  0.1004E+01  0.1005E+01  0.8083E+01  0.8083E+01
      6.729  0.1020E+01  0.1020E+01  0.8222E+01  0.8221E+01
      6.864  0.8662E+00  0.8671E+00  0.8340E+01  0.8339E+01
      7.000  0.5974E+00  0.5977E+00  0.8421E+01  0.8421E+01
      7.136  0.5558E+00  0.5556E+00  0.8497E+01  0.8497E+01
      7.272  0.7032E+00  0.7031E+00  0.8592E+01  0.8592E+01
      7.407  0.6201E+00  0.6205E+00  0.8677E+01  0.8676E+01
      7.543  0.5872E+00  0.5869E+00  0.8756E+01  0.8756E+01
      7.679  0.5671E+00  0.5676E+00  0.8834E+01  0.8834E+01
      7.815  0.3801E+00  0.3801E+00  0.8885E+01  0.8885E+01
      7.950  0.5306E+00  0.5299E+00  0.8958E+01  0.8957E+01
      8.086  0.7384E+00  0.7388E+00  0.9058E+01  0.9058E+01
      8.222  0.3598E+00  0.3607E+00  0.9107E+01  0.9107E+01
      8.358  0.2852E+00  0.2849E+00  0.9146E+01  0.9146E+01
      8.493  0.4832E+00  0.4827E+00  0.9212E+01  0.9211E+01
      8.629  0.6123E+00  0.6121E+00  0.9295E+01  0.9294E+01
      8.765  0.7311E+00  0.7310E+00  0.9394E+01  0.9394E+01
      8.901  0.7565E+00  0.7566E+00  0.9497E+01  0.9497E+01
      9.036  0.7345E+00  0.7343E+00  0.9597E+01  0.9596E+01
      9.172  0.8934E+00  0.8927E+00  0.9718E+01  0.9718E+01
      9.308  0.1116E+01  0.1116E+01  0.9870E+01  0.9869E+01
      9.444  0.8785E+00  0.8788E+00  0.9989E+01  0.9989E+01
      9.579  0.9238E+00  0.9233E+00  0.1011E+02  0.1011E+02
      9.715  0.1003E+01  0.1003E+01  0.1025E+02  0.1025E+02
      9.851  0.1080E+01  0.1080E+01  0.1040E+02  0.1040E+02
      9.986  0.1301E+01  0.1301E+01  0.1057E+02  0.1057E+02
     10.122  0.1230E+01  0.1230E+01  0.1074E+02  0.1074E+02
     10.258  0.1218E+01  0.1218E+01  0.1091E+02  0.1091E+02
     10.394  0.1166E+01  0.1166E+01  0.1107E+02  0.1107E+02
     10.529  0.1085E+01  0.1085E+01  0.1121E+02  0.1121E+02
     10.665  0.1053E+01  0.1053E+01  0.1136E+02  0.1136E+02
     10.801  0.8479E+00  0.8485E+00  0.1147E+02  0.1147E+02
     10.937  0.1007E+01  0.1007E+01  0.1161E+02  0.1161E+02
     11.072  0.1293E+01  0.1293E+01  0.1179E+02  0.1178E+02
     11.208  0.1386E+01  0.1385E+01  0.1197E+02  0.1197E+02
     11.344  0.1282E+01  0.1282E+01  0.1215E+02  0.1215E+02
     11.480  0.1230E+01  0.1230E+01  0.1232E+02  0.1231E+02
     11.615  0.1261E+01  0.1261E+01  0.1249E+02  0.1249E+02
     11.751  0.1397E+01  0.1396E+01  0.1268E+02  0.1268E+02
     11.887  0.1262E+01  0.1262E+01  0.1285E+02  0.1285E+02
     12.023  0.1040E+01  0.1040E+01  0.1299E+02  0.1299E+02
     12.158  0.9555E+00  0.9560E+00  0.1312E+02  0.1312E+02
     12.294  0.9703E+00  0.9699E+00  0.1325E+02  0.1325E+02
     12.430  0.9108E+00  0.9112E+00  0.1338E+02  0.1337E+02
     12.566  0.1020E+01  0.1020E+01  0.1351E+02  0.1351E+02
     12.701  0.9589E+00  0.9595E+00  0.1364E+02  0.1364E+02
     12.837  0.7638E+00  0.7636E+00  0.1375E+02  0.1375E+02
     12.973  0.8702E+00  0.8703E+00  0.1387E+02  0.1387E+02
     13.109  0.1205E+01  0.1204E+01  0.1403E+02  0.1403E+02
     13.244  0.1148E+01  0.1149E+01  0.1419E+02  0.1419E+02
     13.380  0.8474E+00  0.8476E+00  0.1430E+02  0.1430E+02
     13.516  0.9672E+00  0.9673E+00  0.1443E+02  0.1443E+02
     13.651  0.1122E+01  0.1122E+01  0.1459E+02  0.1459E+02
     13.787  0.1244E+01  0.1244E+01  0.1475E+02  0.1475E+02
     13.923  0.1087E+01  0.1087E+01  0.1490E+02  0.1490E+02
     14.059  0.1149E+01  0.1147E+01  0.1506E+02  0.1506E+02
     14.194  0.1580E+01  0.1573E+01  0.1527E+02  0.1527E+02
     14.330  0.1421E+01  0.1424E+01  0.1547E+02  0.1547E+02
     14.466  0.1174E+01  0.1196E+01  0.1563E+02  0.1563E+02
     14.602  0.9435E+00  0.9575E+00  0.1575E+02  0.1576E+02
     14.737  0.7514E+00  0.7271E+00  0.1586E+02  0.1586E+02
     14.873  0.5726E+00  0.5684E+00  0.1594E+02  0.1593E+02
     15.009  0.3128E+00  0.3406E+00  0.1598E+02  0.1598E+02
     15.145  0.9931E-01  0.1222E+00  0.1599E+02  0.1600E+02
     15.280  0.2224E-01  0.1174E-01  0.1599E+02  0.1600E+02
     15.416  0.3099E-01  0.0000E+00  0.1600E+02  0.1600E+02
     15.552  0.7472E-02  0.0000E+00  0.1600E+02  0.1600E+02
     15.688  0.5822E-03  0.0000E+00  0.1600E+02  0.1600E+02
     15.823  0.0000E+00  0.0000E+00  0.1600E+02  0.1600E+02
     15.959  0.0000E+00  0.0000E+00  0.1600E+02  0.1600E+02
     16.095  0.0000E+00  0.0000E+00  0.1600E+02  0.1600E+02
     16.231  0.0000E+00  0.0000E+00  0.1600E+02  0.1600E+02
     16.366  0.0000E+00  0.0000E+00  0.1600E+02  0.1600E+02
     16.502  0.0000E+00  0.0000E+00  0.1600E+02  0.1600E+02
     16.638  0.0000E+00  0.0000E+00  0.1600E+02  0.1600E+02
     16.774  0.0000E+00  0.0000E+00  0.1600E+02  0.1600E+02
     16.909  0.0000E+00  0.0000E+00  0.1600E+02  0.1600E+02
     17.045  0.0000E+00  0.0000E+00  0.1600E+02  0.1600E+02
     17.181  0.0000E+00  0.0000E+00  0.1600E+02  0.1600E+02
     17.18072869    -23.54146717  301      8.90514106      1.00000000
    -23.541  0.0000E+00  0.0000E+00  0.0000E+00  0.0000E+00  0.0000E+00  0.0000E+00  0.0000E+00  0.0000E+00  0.0000E+00  0.0000E+00  0.0000E+00  0.0000E+00  0.0000E+00  0.0000E+00  0.0000E+00  0.0000E+00  0.0000E+00  0.0000E+00
    -23.406  0.0000E+00  0.0000E+00  0.0000E+00  0.0000E+00  0.0000E+00  0.0000E+00  0.0000E+00  0.0000E+00  0.0000E+00  0.0000E+00  0.0000E+00  0.0000E+00  0.0000E+00  0.0000E+00  0.0000E+00  0.0000E+00  0.0000E+00  0.0000E+00
    -23.270  0.0000E+00  0.0000E+00  0.0000E+00  0.0000E+00  0.0000E+00  0.0000E+00  0.0000E+00  0.0000E+00  0.0000E+00  0.0000E+00  0.0000E+00  0.0000E+00  0.0000E+00  0.0000E+00  0.0000E+00  0.0000E+00  0.0000E+00  0.0000E+00
    -23.134  0.0000E+00  0.0000E+00  0.0000E+00  0.0000E+00  0.0000E+00  0.0000E+00  0.0000E+00  0.0000E+00  0.0000E+00  0.0000E+00  0.0000E+00  0.0000E+00  0.0000E+00  0.0000E+00  0.0000E+00  0.0000E+00  0.0000E+00  0.0000E+00
    -22.999  0.0000E+00  0.0000E+00  0.0000E+00  0.0000E+00  0.0000E+00  0.0000E+00  0.0000E+00  0.0000E+00  0.0000E+00  0.0000E+00  0.0000E+00  0.0000E+00  0.0000E+00  0.0000E+00  0.0000E+00  0.0000E+00  0.0000E+00  0.0000E+00
    -22.863  0.0000E+00  0.0000E+00  0.0000E+00  0.0000E+00  0.0000E+00  0.0000E+00  0.0000E+00  0.0000E+00  0.0000E+00  0.0000E+00  0.0000E+00  0.0000E+00  0.0000E+00  0.0000E+00  0.0000E+00  0.0000E+00  0.0000E+00  0.0000E+00
    -22.727  0.0000E+00  0.0000E+00  0.0000E+00  0.0000E+00  0.0000E+00  0.0000E+00  0.0000E+00  0.0000E+00  0.0000E+00  0.0000E+00  0.0000E+00  0.0000E+00  0.0000E+00  0.0000E+00  0.0000E+00  0.0000E+00  0.0000E+00  0.0000E+00
    -22.591  0.0000E+00  0.0000E+00  0.0000E+00  0.0000E+00  0.0000E+00  0.0000E+00  0.0000E+00  0.0000E+00  0.0000E+00  0.0000E+00  0.0000E+00  0.0000E+00  0.0000E+00  0.0000E+00  0.0000E+00  0.0000E+00  0.0000E+00  0.0000E+00
    -22.456  0.0000E+00  0.0000E+00  0.0000E+00  0.0000E+00  0.0000E+00  0.0000E+00  0.0000E+00  0.0000E+00  0.0000E+00  0.0000E+00  0.0000E+00  0.0000E+00  0.0000E+00  0.0000E+00  0.0000E+00  0.0000E+00  0.0000E+00  0.0000E+00
    -22.320  0.0000E+00  0.0000E+00  0.0000E+00  0.0000E+00  0.0000E+00  0.0000E+00  0.0000E+00  0.0000E+00  0.0000E+00  0.0000E+00  0.0000E+00  0.0000E+00  0.0000E+00  0.0000E+00  0.0000E+00  0.0000E+00  0.0000E+00  0.0000E+00
    -22.184  0.5251E-09  0.4867E-09  0.1261E-03  0.1208E-03  0.1261E-03  0.1208E-03  0.1256E-03  0.1203E-03  0.2795E-10  0.2654E-10  0.2789E-10  0.2647E-10  0.3240E-09  0.3092E-09  0.2795E-10  0.2654E-10  0.3657E-09  0.3491E-09
    -22.048  0.1117E-07  0.1086E-07  0.2618E-02  0.2536E-02  0.2618E-02  0.2536E-02  0.2609E-02  0.2528E-02  0.4923E-09  0.4781E-09  0.4911E-09  0.4769E-09  0.8109E-08  0.7855E-08  0.4923E-09  0.4781E-09  0.8494E-08  0.8227E-08
    -21.913  0.1639E-06  0.1590E-06  0.3842E-01  0.3722E-01  0.3842E-01  0.3722E-01  0.3830E-01  0.3709E-01  0.7281E-08  0.7064E-08  0.7263E-08  0.7047E-08  0.1182E-06  0.1145E-06  0.7281E-08  0.7064E-08  0.1242E-06  0.1202E-06
    -21.777  0.2265E-05  0.2203E-05  0.5262E+00  0.5112E+00  0.5262E+00  0.5112E+00  0.5245E+00  0.5096E+00  0.9880E-07  0.9618E-07  0.9855E-07  0.9593E-07  0.1641E-05  0.1593E-05  0.9880E-07  0.9618E-07  0.1719E-05  0.1668E-05
    -21.641  0.1477E-04  0.1462E-04  0.3318E+01  0.3279E+01  0.3318E+01  0.3279E+01  0.3313E+01  0.3274E+01  0.5808E-06  0.5766E-06  0.5789E-06  0.5747E-06  0.1105E-04  0.1090E-04  0.5808E-06  0.5766E-06  0.1133E-04  0.1119E-04
    -21.505  0.1260E-04  0.1282E-04  0.2914E+01  0.2956E+01  0.2914E+01  0.2956E+01  0.2919E+01  0.2961E+01  0.4487E-06  0.4584E-06  0.4466E-06  0.4562E-06  0.9912E-05  0.1005E-04  0.4487E-06  0.4584E-06  0.9840E-05  0.9978E-05
    -21.370  0.1599E-05  0.1651E-05  0.3918E+00  0.4036E+00  0.3918E+00  0.4036E+00  0.3935E+00  0.4054E+00  0.5630E-07  0.5843E-07  0.5598E-07  0.5810E-07  0.1291E-05  0.1329E-05  0.5630E-07  0.5843E-07  0.1259E-05  0.1296E-05
    -21.234  0.3753E-07  0.3933E-07  0.1544E-01  0.1624E-01  0.1544E-01  0.1624E-01  0.1566E-01  0.1639E-01  0.1685E-08  0.1776E-08  0.1666E-08  0.1762E-08  0.3597E-07  0.3872E-07  0.1685E-08  0.1776E-08  0.3130E-07  0.3420E-07
    -21.098  0.0000E+00  0.0000E+00  0.0000E+00  0.0000E+00  0.0000E+00  0.0000E+00  0.0000E+00  0.0000E+00  0.0000E+00  0.0000E+00  0.0000E+00  0.0000E+00  0.0000E+00  0.0000E+00  0.0000E+00  0.0000E+00  0.0000E+00  0.0000E+00
    -20.962  0.0000E+00  0.0000E+00  0.0000E+00  0.0000E+00  0.0000E+00  0.0000E+00  0.0000E+00  0.0000E+00  0.0000E+00  0.0000E+00  0.0000E+00  0.0000E+00  0.0000E+00  0.0000E+00  0.0000E+00  0.0000E+00  0.0000E+00  0.0000E+00
    -20.827  0.0000E+00  0.0000E+00  0.0000E+00  0.0000E+00  0.0000E+00  0.0000E+00  0.0000E+00  0.0000E+00  0.0000E+00  0.0000E+00  0.0000E+00  0.0000E+00  0.0000E+00  0.0000E+00  0.0000E+00  0.0000E+00  0.0000E+00  0.0000E+00
    -20.691  0.0000E+00  0.0000E+00  0.0000E+00  0.0000E+00  0.0000E+00  0.0000E+00  0.0000E+00  0.0000E+00  0.0000E+00  0.0000E+00  0.0000E+00  0.0000E+00  0.0000E+00  0.0000E+00  0.0000E+00  0.0000E+00  0.0000E+00  0.0000E+00
    -20.555  0.0000E+00  0.0000E+00  0.0000E+00  0.0000E+00  0.0000E+00  0.0000E+00  0.0000E+00  0.0000E+00  0.0000E+00  0.0000E+00  0.0000E+00  0.0000E+00  0.0000E+00  0.0000E+00  0.0000E+00  0.0000E+00  0.0000E+00  0.0000E+00
    -20.419  0.0000E+00  0.0000E+00  0.0000E+00  0.0000E+00  0.0000E+00  0.0000E+00  0.0000E+00  0.0000E+00  0.0000E+00  0.0000E+00  0.0000E+00  0.0000E+00  0.0000E+00  0.0000E+00  0.0000E+00  0.0000E+00  0.0000E+00  0.0000E+00
    -20.284  0.0000E+00  0.0000E+00  0.0000E+00  0.0000E+00  0.0000E+00  0.0000E+00  0.0000E+00  0.0000E+00  0.0000E+00  0.0000E+00  0.0000E+00  0.0000E+00  0.0000E+00  0.0000E+00  0.0000E+00  0.0000E+00  0.0000E+00  0.0000E+00
    -20.148  0.0000E+00  0.0000E+00  0.0000E+00  0.0000E+00  0.0000E+00  0.0000E+00  0.0000E+00  0.0000E+00  0.0000E+00  0.0000E+00  0.0000E+00  0.0000E+00  0.0000E+00  0.0000E+00  0.0000E+00  0.0000E+00  0.0000E+00  0.0000E+00
    -20.012  0.0000E+00  0.0000E+00  0.0000E+00  0.0000E+00  0.0000E+00  0.0000E+00  0.0000E+00  0.0000E+00  0.0000E+00  0.0000E+00  0.0000E+00  0.0000E+00  0.0000E+00  0.0000E+00  0.0000E+00  0.0000E+00  0.0000E+00  0.0000E+00
    -19.876  0.0000E+00  0.0000E+00  0.0000E+00  0.0000E+00  0.0000E+00  0.0000E+00  0.0000E+00  0.0000E+00  0.0000E+00  0.0000E+00  0.0000E+00  0.0000E+00  0.0000E+00  0.0000E+00  0.0000E+00  0.0000E+00  0.0000E+00  0.0000E+00
    -19.741  0.0000E+00  0.0000E+00  0.0000E+00  0.0000E+00  0.0000E+00  0.0000E+00  0.0000E+00  0.0000E+00  0.0000E+00  0.0000E+00  0.0000E+00  0.0000E+00  0.0000E+00  0.0000E+00  0.0000E+00  0.0000E+00  0.0000E+00  0.0000E+00
    -19.605  0.0000E+00  0.0000E+00  0.0000E+00  0.0000E+00  0.0000E+00  0.0000E+00  0.0000E+00  0.0000E+00  0.0000E+00  0.0000E+00  0.0000E+00  0.0000E+00  0.0000E+00  0.0000E+00  0.0000E+00  0.0000E+00  0.0000E+00  0.0000E+00
    -19.469  0.0000E+00  0.0000E+00  0.0000E+00  0.0000E+00  0.0000E+00  0.0000E+00  0.0000E+00  0.0000E+00  0.0000E+00  0.0000E+00  0.0000E+00  0.0000E+00  0.0000E+00  0.0000E+00  0.0000E+00  0.0000E+00  0.0000E+00  0.0000E+00
    -19.334  0.0000E+00  0.0000E+00  0.0000E+00  0.0000E+00  0.0000E+00  0.0000E+00  0.0000E+00  0.0000E+00  0.0000E+00  0.0000E+00  0.0000E+00  0.0000E+00  0.0000E+00  0.0000E+00  0.0000E+00  0.0000E+00  0.0000E+00  0.0000E+00
    -19.198  0.0000E+00  0.0000E+00  0.0000E+00  0.0000E+00  0.0000E+00  0.0000E+00  0.0000E+00  0.0000E+00  0.0000E+00  0.0000E+00  0.0000E+00  0.0000E+00  0.0000E+00  0.0000E+00  0.0000E+00  0.0000E+00  0.0000E+00  0.0000E+00
    -19.062  0.0000E+00  0.0000E+00  0.0000E+00  0.0000E+00  0.0000E+00  0.0000E+00  0.0000E+00  0.0000E+00  0.0000E+00  0.0000E+00  0.0000E+00  0.0000E+00  0.0000E+00  0.0000E+00  0.0000E+00  0.0000E+00  0.0000E+00  0.0000E+00
    -18.926  0.0000E+00  0.0000E+00  0.0000E+00  0.0000E+00  0.0000E+00  0.0000E+00  0.0000E+00  0.0000E+00  0.0000E+00  0.0000E+00  0.0000E+00  0.0000E+00  0.0000E+00  0.0000E+00  0.0000E+00  0.0000E+00  0.0000E+00  0.0000E+00
    -18.791  0.0000E+00  0.0000E+00  0.0000E+00  0.0000E+00  0.0000E+00  0.0000E+00  0.0000E+00  0.0000E+00  0.0000E+00  0.0000E+00  0.0000E+00  0.0000E+00  0.0000E+00  0.0000E+00  0.0000E+00  0.0000E+00  0.0000E+00  0.0000E+00
    -18.655  0.0000E+00  0.0000E+00  0.0000E+00  0.0000E+00  0.0000E+00  0.0000E+00  0.0000E+00  0.0000E+00  0.0000E+00  0.0000E+00  0.0000E+00  0.0000E+00  0.0000E+00  0.0000E+00  0.0000E+00  0.0000E+00  0.0000E+00  0.0000E+00
    -18.519  0.0000E+00  0.0000E+00  0.0000E+00  0.0000E+00  0.0000E+00  0.0000E+00  0.0000E+00  0.0000E+00  0.0000E+00  0.0000E+00  0.0000E+00  0.0000E+00  0.0000E+00  0.0000E+00  0.0000E+00  0.0000E+00  0.0000E+00  0.0000E+00
    -18.383  0.0000E+00  0.0000E+00  0.0000E+00  0.0000E+00  0.0000E+00  0.0000E+00  0.0000E+00  0.0000E+00  0.0000E+00  0.0000E+00  0.0000E+00  0.0000E+00  0.0000E+00  0.0000E+00  0.0000E+00  0.0000E+00  0.0000E+00  0.0000E+00
    -18.248  0.0000E+00  0.0000E+00  0.0000E+00  0.0000E+00  0.0000E+00  0.0000E+00  0.0000E+00  0.0000E+00  0.0000E+00  0.0000E+00  0.0000E+00  0.0000E+00  0.0000E+00  0.0000E+00  0.0000E+00  0.0000E+00  0.0000E+00  0.0000E+00
    -18.112  0.0000E+00  0.0000E+00  0.0000E+00  0.0000E+00  0.0000E+00  0.0000E+00  0.0000E+00  0.0000E+00  0.0000E+00  0.0000E+00  0.0000E+00  0.0000E+00  0.0000E+00  0.0000E+00  0.0000E+00  0.0000E+00  0.0000E+00  0.0000E+00
    -17.976  0.0000E+00  0.0000E+00  0.0000E+00  0.0000E+00  0.0000E+00  0.0000E+00  0.0000E+00  0.0000E+00  0.0000E+00  0.0000E+00  0.0000E+00  0.0000E+00  0.0000E+00  0.0000E+00  0.0000E+00  0.0000E+00  0.0000E+00  0.0000E+00
    -17.840  0.0000E+00  0.0000E+00  0.0000E+00  0.0000E+00  0.0000E+00  0.0000E+00  0.0000E+00  0.0000E+00  0.0000E+00  0.0000E+00  0.0000E+00  0.0000E+00  0.0000E+00  0.0000E+00  0.0000E+00  0.0000E+00  0.0000E+00  0.0000E+00
    -17.705  0.0000E+00  0.0000E+00  0.0000E+00  0.0000E+00  0.0000E+00  0.0000E+00  0.0000E+00  0.0000E+00  0.0000E+00  0.0000E+00  0.0000E+00  0.0000E+00  0.0000E+00  0.0000E+00  0.0000E+00  0.0000E+00  0.0000E+00  0.0000E+00
    -17.569  0.0000E+00  0.0000E+00  0.0000E+00  0.0000E+00  0.0000E+00  0.0000E+00  0.0000E+00  0.0000E+00  0.0000E+00  0.0000E+00  0.0000E+00  0.0000E+00  0.0000E+00  0.0000E+00  0.0000E+00  0.0000E+00  0.0000E+00  0.0000E+00
    -17.433  0.0000E+00  0.0000E+00  0.0000E+00  0.0000E+00  0.0000E+00  0.0000E+00  0.0000E+00  0.0000E+00  0.0000E+00  0.0000E+00  0.0000E+00  0.0000E+00  0.0000E+00  0.0000E+00  0.0000E+00  0.0000E+00  0.0000E+00  0.0000E+00
    -17.297  0.0000E+00  0.0000E+00  0.0000E+00  0.0000E+00  0.0000E+00  0.0000E+00  0.0000E+00  0.0000E+00  0.0000E+00  0.0000E+00  0.0000E+00  0.0000E+00  0.0000E+00  0.0000E+00  0.0000E+00  0.0000E+00  0.0000E+00  0.0000E+00
    -17.162  0.0000E+00  0.0000E+00  0.0000E+00  0.0000E+00  0.0000E+00  0.0000E+00  0.0000E+00  0.0000E+00  0.0000E+00  0.0000E+00  0.0000E+00  0.0000E+00  0.0000E+00  0.0000E+00  0.0000E+00  0.0000E+00  0.0000E+00  0.0000E+00
    -17.026  0.0000E+00  0.0000E+00  0.0000E+00  0.0000E+00  0.0000E+00  0.0000E+00  0.0000E+00  0.0000E+00  0.0000E+00  0.0000E+00  0.0000E+00  0.0000E+00  0.0000E+00  0.0000E+00  0.0000E+00  0.0000E+00  0.0000E+00  0.0000E+00
    -16.890  0.0000E+00  0.0000E+00  0.0000E+00  0.0000E+00  0.0000E+00  0.0000E+00  0.0000E+00  0.0000E+00  0.0000E+00  0.0000E+00  0.0000E+00  0.0000E+00  0.0000E+00  0.0000E+00  0.0000E+00  0.0000E+00  0.0000E+00  0.0000E+00
    -16.754  0.0000E+00  0.0000E+00  0.0000E+00  0.0000E+00  0.0000E+00  0.0000E+00  0.0000E+00  0.0000E+00  0.0000E+00  0.0000E+00  0.0000E+00  0.0000E+00  0.0000E+00  0.0000E+00  0.0000E+00  0.0000E+00  0.0000E+00  0.0000E+00