   4   4   1   0
  0.2036126E+02  0.4333694E-09  0.4335141E-09  0.4335141E-09  0.5000000E-15
  1.000000000000000E-004
  CAR 
 unknown system                          
     12.89841880    -27.06666035  301      6.08975467      1.00000000
    -27.067  0.0000E+00  0.0000E+00  0.0000E+00  0.0000E+00
    -26.933  0.0000E+00  0.0000E+00  0.0000E+00  0.0000E+00
    -26.800  0.0000E+00  0.0000E+00  0.0000E+00  0.0000E+00
    -26.667  0.0000E+00  0.0000E+00  0.0000E+00  0.0000E+00
    -26.534  0.0000E+00  0.0000E+00  0.0000E+00  0.0000E+00
    -26.401  0.0000E+00  0.0000E+00  0.0000E+00  0.0000E+00
    -26.267  0.0000E+00  0.0000E+00  0.0000E+00  0.0000E+00
    -26.134  0.0000E+00  0.0000E+00  0.0000E+00  0.0000E+00
    -26.001  0.0000E+00  0.0000E+00  0.0000E+00  0.0000E+00
    -25.868  0.0000E+00  0.0000E+00  0.0000E+00  0.0000E+00
    -25.734  0.1163E-02  0.1160E-02  0.1549E-03  0.1546E-03
    -25.601  0.1552E-01  0.1549E-01  0.2222E-02  0.2218E-02
    -25.468  0.2205E+00  0.2200E+00  0.3159E-01  0.3153E-01
    -25.335  0.2744E+01  0.2739E+01  0.3972E+00  0.3965E+00
    -25.202  0.1245E+02  0.1244E+02  0.2055E+01  0.2054E+01
    -25.068  0.6390E+01  0.6398E+01  0.2907E+01  0.2906E+01
    -24.935  0.6505E+00  0.6518E+00  0.2993E+01  0.2993E+01
    -24.802  0.0000E+00  0.0000E+00  0.3000E+01  0.3000E+01
    -24.669  0.0000E+00  0.0000E+00  0.3000E+01  0.3000E+01
    -24.536  0.0000E+00  0.0000E+00  0.3000E+01  0.3000E+01
    -24.402  0.0000E+00  0.0000E+00  0.3000E+01  0.3000E+01
    -24.269  0.0000E+00  0.0000E+00  0.3000E+01  0.3000E+01
    -24.136  0.0000E+00  0.0000E+00  0.3000E+01  0.3000E+01
    -24.003  0.0000E+00  0.0000E+00  0.3000E+01  0.3000E+01
    -23.869  0.0000E+00  0.0000E+00  0.3000E+01  0.3000E+01
    -23.736  0.0000E+00  0.0000E+00  0.3000E+01  0.3000E+01
    -23.603  0.0000E+00  0.0000E+00  0.3000E+01  0.3000E+01
    -23.470  0.0000E+00  0.0000E+00  0.3000E+01  0.3000E+01
    -23.337  0.0000E+00  0.0000E+00  0.3000E+01  0.3000E+01
    -23.203  0.0000E+00  0.0000E+00  0.3000E+01  0.3000E+01
    -23.070  0.0000E+00  0.0000E+00  0.3000E+01  0.3000E+01
    -22.937  0.0000E+00  0.0000E+00  0.3000E+01  0.3000E+01
    -22.804  0.0000E+00  0.0000E+00  0.3000E+01  0.3000E+01
    -22.671  0.0000E+00  0.0000E+00  0.3000E+01  0.3000E+01
    -22.537  0.0000E+00  0.0000E+00  0.3000E+01  0.3000E+01
    -22.404  0.0000E+00  0.0000E+00  0.3000E+01  0.3000E+01
    -22.271  0.0000E+00  0.0000E+00  0.3000E+01  0.3000E+01
    -22.138  0.0000E+00  0.0000E+00  0.3000E+01  0.3000E+01
    -22.004  0.0000E+00  0.0000E+00  0.3000E+01  0.3000E+01
    -21.871  0.0000E+00  0.0000E+00  0.3000E+01  0.3000E+01
    -21.738  0.0000E+00  0.0000E+00  0.3000E+01  0.3000E+01
    -21.605  0.0000E+00  0.0000E+00  0.3000E+01  0.3000E+01
    -21.472  0.0000E+00  0.0000E+00  0.3000E+01  0.3000E+01
    -21.338  0.0000E+00  0.0000E+00  0.3000E+01  0.3000E+01
    -21.205  0.0000E+00  0.0000E+00  0.3000E+01  0.3000E+01
    -21.072  0.0000E+00  0.0000E+00  0.3000E+01  0.3000E+01
    -20.939  0.0000E+00  0.0000E+00  0.3000E+01  0.3000E+01
    -20.805  0.0000E+00  0.0000E+00  0.3000E+01  0.3000E+01
    -20.672  0.0000E+00  0.0000E+00  0.3000E+01  0.3000E+01
    -20.539  0.0000E+00  0.0000E+00  0.3000E+01  0.3000E+01
    -20.406  0.0000E+00  0.0000E+00  0.3000E+01  0.3000E+01
    -20.273  0.0000E+00  0.0000E+00  0.3000E+01  0.3000E+01
    -20.139  0.0000E+00  0.0000E+00  0.3000E+01  0.3000E+01
    -20.006  0.0000E+00  0.0000E+00  0.3000E+01  0.3000E+01
    -19.873  0.0000E+00  0.0000E+00  0.3000E+01  0.3000E+01
    -19.740  0.0000E+00  0.0000E+00  0.3000E+01  0.3000E+01
    -19.607  0.0000E+00  0.0000E+00  0.3000E+01  0.3000E+01
    -19.473  0.0000E+00  0.0000E+00  0.3000E+01  0.3000E+01
    -19.340  0.0000E+00  0.0000E+00  0.3000E+01  0.3000E+01
    -19.207  0.0000E+00  0.0000E+00  0.3000E+01  0.3000E+01
    -19.074  0.0000E+00  0.0000E+00  0.3000E+01  0.3000E+01
    -18.940  0.0000E+00  0.0000E+00  0.3000E+01  0.3000E+01
    -18.807  0.0000E+00  0.0000E+00  0.3000E+01  0.3000E+01
    -18.674  0.0000E+00  0.0000E+00  0.3000E+01  0.3000E+01
    -18.541  0.0000E+00  0.0000E+00  0.3000E+01  0.3000E+01
    -18.408  0.0000E+00  0.0000E+00  0.3000E+01  0.3000E+01
    -18.274  0.0000E+00  0.0000E+00  0.3000E+01  0.3000E+01
    -18.141  0.0000E+00  0.0000E+00  0.3000E+01  0.3000E+01
    -18.008  0.0000E+00  0.0000E+00  0.3000E+01  0.3000E+01
    -17.875  0.0000E+00  0.0000E+00  0.3000E+01  0.3000E+01
    -17.741  0.0000E+00  0.0000E+00  0.3000E+01  0.3000E+01
    -17.608  0.0000E+00  0.0000E+00  0.3000E+01  0.3000E+01
    -17.475  0.0000E+00  0.0000E+00  0.3000E+01  0.3000E+01
    -17.342  0.0000E+00  0.0000E+00  0.3000E+01  0.3000E+01
    -17.209  0.0000E+00  0.0000E+00  0.3000E+01  0.3000E+01
    -17.075  0.0000E+00  0.0000E+00  0.3000E+01  0.3000E+01
    -16.942  0.0000E+00  0.0000E+00  0.3000E+01  0.3000E+01
    -16.809  0.0000E+00  0.0000E+00  0.3000E+01  0.3000E+01
    -16.676  0.0000E+00  0.0000E+00  0.3000E+01  0.3000E+01
    -16.543  0.0000E+00  0.0000E+00  0.3000E+01  0.3000E+01
    -16.409  0.0000E+00  0.0000E+00  0.3000E+01  0.3000E+01
    -16.276  0.0000E+00  0.0000E+00  0.3000E+01  0.3000E+01
    -16.143  0.0000E+00  0.0000E+00  0.3000E+01  0.3000E+01
    -16.010  0.0000E+00  0.0000E+00  0.3000E+01  0.3000E+01
    -15.876  0.0000E+00  0.0000E+00  0.3000E+01  0.3000E+01
    -15.743  0.0000E+00  0.0000E+00  0.3000E+01  0.3000E+01
    -15.610  0.0000E+00  0.0000E+00  0.3000E+01  0.3000E+01
    -15.477  0.0000E+00  0.0000E+00  0.3000E+01  0.3000E+01
    -15.344  0.0000E+00  0.0000E+00  0.3000E+01  0.3000E+01
    -15.210  0.0000E+00  0.0000E+00  0.3000E+01  0.3000E+01
    -15.077  0.0000E+00  0.0000E+00  0.3000E+01  0.3000E+01
    -14.944  0.0000E+00  0.0000E+00  0.3000E+01  0.3000E+01
    -14.811  0.0000E+00  0.0000E+00  0.3000E+01  0.3000E+01
    -14.677  0.0000E+00  0.0000E+00  0.3000E+01  0.3000E+01
    -14.544  0.0000E+00  0.0000E+00  0.3000E+01  0.3000E+01
    -14.411  0.0000E+00  0.0000E+00  0.3000E+01  0.3000E+01
    -14.278  0.0000E+00  0.0000E+00  0.3000E+01  0.3000E+01
    -14.145  0.0000E+00  0.0000E+00  0.3000E+01  0.3000E+01
    -14.011  0.0000E+00  0.0000E+00  0.3000E+01  0.3000E+01
    -13.878  0.0000E+00  0.0000E+00  0.3000E+01  0.3000E+01
    -13.745  0.0000E+00  0.0000E+00  0.3000E+01  0.3000E+01
    -13.612  0.0000E+00  0.0000E+00  0.3000E+01  0.3000E+01
    -13.479  0.0000E+00  0.0000E+00  0.3000E+01  0.3000E+01
    -13.345  0.0000E+00  0.0000E+00  0.3000E+01  0.3000E+01
    -13.212  0.0000E+00  0.0000E+00  0.3000E+01  0.3000E+01
    -13.079  0.0000E+00  0.0000E+00  0.3000E+01  0.3000E+01
    -12.946  0.0000E+00  0.0000E+00  0.3000E+01  0.3000E+01
    -12.812  0.0000E+00  0.0000E+00  0.3000E+01  0.3000E+01
    -12.679  0.0000E+00  0.0000E+00  0.3000E+01  0.3000E+01
    -12.546  0.0000E+00  0.0000E+00  0.3000E+01  0.3000E+01
    -12.413  0.0000E+00  0.0000E+00  0.3000E+01  0.3000E+01
    -12.280  0.0000E+00  0.0000E+00  0.3000E+01  0.3000E+01
    -12.146  0.0000E+00  0.0000E+00  0.3000E+01  0.3000E+01
    -12.013  0.0000E+00  0.0000E+00  0.3000E+01  0.3000E+01
    -11.880  0.0000E+00  0.0000E+00  0.3000E+01  0.3000E+01
    -11.747  0.0000E+00  0.0000E+00  0.3000E+01  0.3000E+01
    -11.613  0.0000E+00  0.0000E+00  0.3000E+01  0.3000E+01
    -11.480  0.0000E+00  0.0000E+00  0.3000E+01  0.3000E+01
    -11.347  0.0000E+00  0.0000E+00  0.3000E+01  0.3000E+01
    -11.214  0.0000E+00  0.0000E+00  0.3000E+01  0.3000E+01
    -11.081  0.0000E+00  0.0000E+00  0.3000E+01  0.3000E+01
    -10.947  0.0000E+00  0.0000E+00  0.3000E+01  0.3000E+01
    -10.814  0.0000E+00  0.0000E+00  0.3000E+01  0.3000E+01
    -10.681  0.0000E+00  0.0000E+00  0.3000E+01  0.3000E+01
    -10.548  0.0000E+00  0.0000E+00  0.3000E+01  0.3000E+01
    -10.415  0.0000E+00  0.0000E+00  0.3000E+01  0.3000E+01
    -10.281  0.0000E+00  0.0000E+00  0.3000E+01  0.3000E+01
    -10.148  0.0000E+00  0.0000E+00  0.3000E+01  0.3000E+01
    -10.015  0.0000E+00  0.0000E+00  0.3000E+01  0.3000E+01
     -9.882  0.0000E+00  0.0000E+00  0.3000E+01  0.3000E+01
     -9.748  0.0000E+00  0.0000E+00  0.3000E+01  0.3000E+01
     -9.615  0.0000E+00  0.0000E+00  0.3000E+01  0.3000E+01
     -9.482  0.0000E+00  0.0000E+00  0.3000E+01  0.3000E+01
     -9.349  0.0000E+00  0.0000E+00  0.3000E+01  0.3000E+01
     -9.216  0.0000E+00  0.0000E+00  0.3000E+01  0.3000E+01
     -9.082  0.0000E+00  0.0000E+00  0.3000E+01  0.3000E+01
     -8.949  0.0000E+00  0.0000E+00  0.3000E+01  0.3000E+01
     -8.816  0.0000E+00  0.0000E+00  0.3000E+01  0.3000E+01
     -8.683  0.0000E+00  0.0000E+00  0.3000E+01  0.3000E+01
     -8.550  0.0000E+00  0.0000E+00  0.3000E+01  0.3000E+01
     -8.416  0.0000E+00  0.0000E+00  0.3000E+01  0.3000E+01
     -8.283  0.0000E+00  0.0000E+00  0.3000E+01  0.3000E+01
     -8.150  0.0000E+00  0.0000E+00  0.3000E+01  0.3000E+01
     -8.017  0.0000E+00  0.0000E+00  0.3000E+01  0.3000E+01
     -7.883  0.0000E+00  0.0000E+00  0.3000E+01  0.3000E+01
     -7.750  0.0000E+00  0.0000E+00  0.3000E+01  0.3000E+01
     -7.617  0.0000E+00  0.0000E+00  0.3000E+01  0.3000E+01
     -7.484  0.0000E+00  0.0000E+00  0.3000E+01  0.3000E+01
     -7.351  0.0000E+00  0.0000E+00  0.3000E+01  0.3000E+01
     -7.217  0.0000E+00  0.0000E+00  0.3000E+01  0.3000E+01
     -7.084  0.0000E+00  0.0000E+00  0.3000E+01  0.3000E+01
     -6.951  0.0000E+00  0.0000E+00  0.3000E+01  0.3000E+01
     -6.818  0.0000E+00  0.0000E+00  0.3000E+01  0.3000E+01
     -6.684  0.0000E+00  0.0000E+00  0.3000E+01  0.3000E+01
     -6.551  0.0000E+00  0.0000E+00  0.3000E+01  0.3000E+01
     -6.418  0.0000E+00  0.0000E+00  0.3000E+01  0.3000E+01
     -6.285  0.0000E+00  0.0000E+00  0.3000E+01  0.3000E+01
     -6.152  0.0000E+00  0.0000E+00  0.3000E+01  0.3000E+01
     -6.018  0.0000E+00  0.0000E+00  0.3000E+01  0.3000E+01
     -5.885  0.0000E+00  0.0000E+00  0.3000E+01  0.3000E+01
     -5.752  0.0000E+00  0.0000E+00  0.3000E+01  0.3000E+01
     -5.619  0.0000E+00  0.0000E+00  0.3000E+01  0.3000E+01
     -5.486  0.0000E+00  0.0000E+00  0.3000E+01  0.3000E+01
     -5.352  0.0000E+00  0.0000E+00  0.3000E+01  0.3000E+01
     -5.219  0.0000E+00  0.0000E+00  0.3000E+01  0.3000E+01
     -5.086  0.0000E+00  0.0000E+00  0.3000E+01  0.3000E+01
     -4.953  0.0000E+00  0.0000E+00  0.3000E+01  0.3000E+01
     -4.819  0.0000E+00  0.0000E+00  0.3000E+01  0.3000E+01
     -4.686  0.0000E+00  0.0000E+00  0.3000E+01  0.3000E+01
     -4.553  0.0000E+00  0.0000E+00  0.3000E+01  0.3000E+01
     -4.420  0.0000E+00  0.0000E+00  0.3000E+01  0.3000E+01
     -4.287  0.0000E+00  0.0000E+00  0.3000E+01  0.3000E+01
     -4.153  0.0000E+00  0.0000E+00  0.3000E+01  0.3000E+01
     -4.020  0.1487E-06  0.1479E-06  0.3000E+01  0.3000E+01
     -3.887  0.1061E-04  0.1055E-04  0.3000E+01  0.3000E+01
     -3.754  0.1506E-03  0.1497E-03  0.3000E+01  0.3000E+01
     -3.620  0.2083E-02  0.2072E-02  0.3000E+01  0.3000E+01
     -3.487  0.1996E-01  0.1988E-01  0.3003E+01  0.3003E+01
     -3.354  0.6883E-01  0.6873E-01  0.3012E+01  0.3012E+01
     -3.221  0.1199E+00  0.1198E+00  0.3028E+01  0.3028E+01
     -3.088  0.1406E+00  0.1406E+00  0.3047E+01  0.3047E+01
     -2.954  0.1867E+00  0.1867E+00  0.3072E+01  0.3072E+01
     -2.821  0.2005E+00  0.2004E+00  0.3098E+01  0.3098E+01
     -2.688  0.2072E+00  0.2072E+00  0.3126E+01  0.3126E+01
     -2.555  0.2686E+00  0.2685E+00  0.3162E+01  0.3162E+01
     -2.422  0.2703E+00  0.2704E+00  0.3198E+01  0.3198E+01
     -2.288  0.2444E+00  0.2443E+00  0.3231E+01  0.3230E+01
     -2.155  0.3421E+00  0.3420E+00  0.3276E+01  0.3276E+01
     -2.022  0.3432E+00  0.3432E+00  0.3322E+01  0.3322E+01
     -1.889  0.3094E+00  0.3093E+00  0.3363E+01  0.3363E+01
     -1.755  0.3810E+00  0.3809E+00  0.3414E+01  0.3414E+01
     -1.622  0.3856E+00  0.3855E+00  0.3466E+01  0.3465E+01
     -1.489  0.4585E+00  0.4583E+00  0.3527E+01  0.3527E+01
     -1.356  0.4485E+00  0.4486E+00  0.3587E+01  0.3586E+01
     -1.223  0.3637E+00  0.3639E+00  0.3635E+01  0.3635E+01
     -1.089  0.4399E+00  0.4395E+00  0.3694E+01  0.3694E+01
     -0.956  0.4988E+00  0.4989E+00  0.3760E+01  0.3760E+01
     -0.823  0.4697E+00  0.4696E+00  0.3823E+01  0.3823E+01
     -0.690  0.5153E+00  0.5153E+00  0.3892E+01  0.3892E+01
     -0.556  0.4559E+00  0.4561E+00  0.3953E+01  0.3953E+01
     -0.423  0.4817E+00  0.4814E+00  0.4017E+01  0.4017E+01
     -0.290  0.5119E+00  0.5121E+00  0.4085E+01  0.4085E+01
     -0.157  0.5709E+00  0.5708E+00  0.4161E+01  0.4161E+01
     -0.024  0.4763E+00  0.4767E+00  0.4225E+01  0.4225E+01
      0.110  0.4629E+00  0.4626E+00  0.4287E+01  0.4287E+01
      0.243  0.5440E+00  0.5441E+00  0.4359E+01  0.4359E+01
      0.376  0.5495E+00  0.5493E+00  0.4433E+01  0.4432E+01
      0.509  0.6569E+00  0.6567E+00  0.4520E+01  0.4520E+01
      0.642  0.7413E+00  0.7411E+00  0.4619E+01  0.4619E+01
      0.776  0.7896E+00  0.7899E+00  0.4724E+01  0.4724E+01
      0.909  0.7167E+00  0.7167E+00  0.4820E+01  0.4820E+01
      1.042  0.8115E+00  0.8112E+00  0.4928E+01  0.4928E+01
      1.175  0.8351E+00  0.8353E+00  0.5040E+01  0.5040E+01
      1.309  0.7924E+00  0.7924E+00  0.5146E+01  0.5145E+01
      1.442  0.6962E+00  0.6966E+00  0.5239E+01  0.5238E+01
      1.575  0.6778E+00  0.6776E+00  0.5329E+01  0.5329E+01
      1.708  0.7191E+00  0.7197E+00  0.5425E+01  0.5425E+01
      1.841  0.5323E+00  0.5328E+00  0.5496E+01  0.5496E+01
      1.975  0.4972E+00  0.4969E+00  0.5563E+01  0.5563E+01
      2.108  0.7002E+00  0.7002E+00  0.5656E+01  0.5656E+01
      2.241  0.7192E+00  0.7188E+00  0.5752E+01  0.5752E+01
      2.374  0.7974E+00  0.7978E+00  0.5858E+01  0.5858E+01
      2.507  0.6735E+00  0.6737E+00  0.5948E+01  0.5948E+01
      2.641  0.7381E+00  0.7378E+00  0.6047E+01  0.6047E+01
      2.774  0.9259E+00  0.9256E+00  0.6170E+01  0.6170E+01
      2.907  0.8529E+00  0.8534E+00  0.6284E+01  0.6284E+01
      3.040  0.7416E+00  0.7414E+00  0.6383E+01  0.6383E+01
      3.174  0.8081E+00  0.8081E+00  0.6491E+01  0.6491E+01
      3.307  0.9071E+00  0.9066E+00  0.6612E+01  0.6612E+01
      3.440  0.1122E+01  0.1122E+01  0.6761E+01  0.6761E+01
      3.573  0.1230E+01  0.1229E+01  0.6926E+01  0.6925E+01
      3.706  0.1356E+01  0.1356E+01  0.7106E+01  0.7106E+01
      3.840  0.1509E+01  0.1509E+01  0.7308E+01  0.7307E+01
      3.973  0.1305E+01  0.1305E+01  0.7482E+01  0.7481E+01
      4.106  0.1814E+01  0.1813E+01  0.7724E+01  0.7723E+01
      4.239  0.1683E+01  0.1684E+01  0.7948E+01  0.7948E+01
      4.373  0.1244E+01  0.1245E+01  0.8114E+01  0.8114E+01
      4.506  0.1095E+01  0.1095E+01  0.8260E+01  0.8260E+01
      4.639  0.8940E+00  0.8943E+00  0.8380E+01  0.8380E+01
      4.772  0.7802E+00  0.7801E+00  0.8484E+01  0.8484E+01
      4.905  0.7925E+00  0.7924E+00  0.8590E+01  0.8590E+01
      5.039  0.7587E+00  0.7589E+00  0.8691E+01  0.8691E+01
      5.172  0.7239E+00  0.7239E+00  0.8788E+01  0.8788E+01
      5.305  0.6874E+00  0.6873E+00  0.8880E+01  0.8879E+01
      5.438  0.7459E+00  0.7458E+00  0.8979E+01  0.8979E+01
      5.571  0.8345E+00  0.8343E+00  0.9090E+01  0.9090E+01
      5.705  0.6520E+00  0.6526E+00  0.9177E+01  0.9177E+01
      5.838  0.6646E+00  0.6642E+00  0.9266E+01  0.9266E+01
      5.971  0.9126E+00  0.9121E+00  0.9388E+01  0.9388E+01
      6.104  0.9409E+00  0.9410E+00  0.9513E+01  0.9513E+01
      6.238  0.9866E+00  0.9864E+00  0.9645E+01  0.9645E+01
      6.371  0.1205E+01  0.1205E+01  0.9806E+01  0.9805E+01
      6.504  0.1442E+01  0.1442E+01  0.9998E+01  0.9998E+01
      6.637  0.1452E+01  0.1453E+01  0.1019E+02  0.1019E+02
      6.770  0.1382E+01  0.1383E+01  0.1038E+02  0.1038E+02
      6.904  0.1517E+01  0.1516E+01  0.1058E+02  0.1058E+02
      7.037  0.2002E+01  0.2002E+01  0.1085E+02  0.1085E+02
      7.170  0.1664E+01  0.1664E+01  0.1107E+02  0.1107E+02
      7.303  0.1227E+01  0.1227E+01  0.1123E+02  0.1123E+02
      7.437  0.1164E+01  0.1163E+01  0.1139E+02  0.1139E+02
      7.570  0.1276E+01  0.1276E+01  0.1156E+02  0.1156E+02
      7.703  0.1522E+01  0.1522E+01  0.1176E+02  0.1176E+02
      7.836  0.1812E+01  0.1811E+01  0.1200E+02  0.1200E+02
      7.969  0.2027E+01  0.2027E+01  0.1227E+02  0.1227E+02
      8.103  0.1891E+01  0.1891E+01  0.1252E+02  0.1252E+02
      8.236  0.1738E+01  0.1738E+01  0.1276E+02  0.1276E+02
      8.369  0.1440E+01  0.1439E+01  0.1295E+02  0.1295E+02
      8.502  0.1340E+01  0.1339E+01  0.1313E+02  0.1313E+02
      8.635  0.1462E+01  0.1462E+01  0.1332E+02  0.1332E+02
      8.769  0.1423E+01  0.1423E+01  0.1351E+02  0.1351E+02
      8.902  0.1207E+01  0.1207E+01  0.1367E+02  0.1367E+02
      9.035  0.1032E+01  0.1032E+01  0.1381E+02  0.1381E+02
      9.168  0.1206E+01  0.1205E+01  0.1397E+02  0.1397E+02
      9.302  0.1413E+01  0.1413E+01  0.1416E+02  0.1416E+02
      9.435  0.1382E+01  0.1382E+01  0.1434E+02  0.1434E+02
      9.568  0.1577E+01  0.1576E+01  0.1456E+02  0.1455E+02
      9.701  0.1730E+01  0.1731E+01  0.1479E+02  0.1479E+02
      9.834  0.1964E+01  0.1967E+01  0.1505E+02  0.1505E+02
      9.968  0.1766E+01  0.1765E+01  0.1528E+02  0.1528E+02
     10.101  0.1165E+01  0.1164E+01  0.1544E+02  0.1544E+02
     10.234  0.1022E+01  0.1028E+01  0.1558E+02  0.1558E+02
     10.367  0.9629E+00  0.9673E+00  0.1570E+02  0.1571E+02
     10.501  0.9763E+00  0.9636E+00  0.1583E+02  0.1583E+02
     10.634  0.6121E+00  0.6043E+00  0.1592E+02  0.1591E+02
     10.767  0.3901E+00  0.4356E+00  0.1597E+02  0.1597E+02
     10.900  0.1745E+00  0.1568E+00  0.1599E+02  0.1599E+02
     11.033  0.3860E-01  0.2347E-01  0.1600E+02  0.1600E+02
     11.167  0.1742E-01  0.1603E-01  0.1600E+02  0.1600E+02
     11.300  0.3682E-02  0.3893E-02  0.1600E+02  0.1600E+02
     11.433  0.3002E-03  0.3206E-03  0.1600E+02  0.1600E+02
     11.566  0.0000E+00  0.0000E+00  0.1600E+02  0.1600E+02
     11.699  0.0000E+00  0.0000E+00  0.1600E+02  0.1600E+02
     11.833  0.0000E+00  0.0000E+00  0.1600E+02  0.1600E+02
     11.966  0.0000E+00  0.0000E+00  0.1600E+02  0.1600E+02
     12.099  0.0000E+00  0.0000E+00  0.1600E+02  0.1600E+02
     12.232  0.0000E+00  0.0000E+00  0.1600E+02  0.1600E+02
     12.366  0.0000E+00  0.0000E+00  0.1600E+02  0.1600E+02
     12.499  0.0000E+00  0.0000E+00  0.1600E+02  0.1600E+02
     12.632  0.0000E+00  0.0000E+00  0.1600E+02  0.1600E+02
     12.765  0.0000E+00  0.0000E+00  0.1600E+02  0.1600E+02
     12.898  0.0000E+00  0.0000E+00  0.1600E+02  0.1600E+02
     12.89841880    -27.06666035  301      6.08975467      1.00000000
    -27.067  0.0000E+00  0.0000E+00  0.0000E+00  0.0000E+00  0.0000E+00  0.0000E+00  0.0000E+00  0.0000E+00  0.0000E+00  0.0000E+00  0.0000E+00  0.0000E+00  0.0000E+00  0.0000E+00  0.0000E+00  0.0000E+00  0.0000E+00  0.0000E+00
    -26.933  0.0000E+00  0.0000E+00  0.0000E+00  0.0000E+00  0.0000E+00  0.0000E+00  0.0000E+00  0.0000E+00  0.0000E+00  0.0000E+00  0.0000E+00  0.0000E+00  0.0000E+00  0.0000E+00  0.0000E+00  0.0000E+00  0.0000E+00  0.0000E+00
    -26.800  0.0000E+00  0.0000E+00  0.0000E+00  0.0000E+00  0.0000E+00  0.0000E+00  0.0000E+00  0.0000E+00  0.0000E+00  0.0000E+00  0.0000E+00  0.0000E+00  0.0000E+00  0.0000E+00  0.0000E+00  0.0000E+00  0.0000E+00  0.0000E+00
    -26.667  0.0000E+00  0.0000E+00  0.0000E+00  0.0000E+00  0.0000E+00  0.0000E+00  0.0000E+00  0.0000E+00  0.0000E+00  0.0000E+00  0.0000E+00  0.0000E+00  0.0000E+00  0.0000E+00  0.0000E+00  0.0000E+00  0.0000E+00  0.0000E+00
    -26.534  0.0000E+00  0.0000E+00  0.0000E+00  0.0000E+00  0.0000E+00  0.0000E+00  0.0000E+00  0.0000E+00  0.0000E+00  0.0000E+00  0.0000E+00  0.0000E+00  0.0000E+00  0.0000E+00  0.0000E+00  0.0000E+00  0.0000E+00  0.0000E+00
    -26.401  0.0000E+00  0.0000E+00  0.0000E+00  0.0000E+00  0.0000E+00  0.0000E+00  0.0000E+00  0.0000E+00  0.0000E+00  0.0000E+00  0.0000E+00  0.0000E+00  0.0000E+00  0.0000E+00  0.0000E+00  0.0000E+00  0.0000E+00  0.0000E+00
    -26.267  0.0000E+00  0.0000E+00  0.0000E+00  0.0000E+00  0.0000E+00  0.0000E+00  0.0000E+00  0.0000E+00  0.0000E+00  0.0000E+00  0.0000E+00  0.0000E+00  0.0000E+00  0.0000E+00  0.0000E+00  0.0000E+00  0.0000E+00  0.0000E+00
    -26.134  0.0000E+00  0.0000E+00  0.0000E+00  0.0000E+00  0.0000E+00  0.0000E+00  0.0000E+00  0.0000E+00  0.0000E+00  0.0000E+00  0.0000E+00  0.0000E+00  0.0000E+00  0.0000E+00  0.0000E+00  0.0000E+00  0.0000E+00  0.0000E+00
    -26.001  0.0000E+00  0.0000E+00  0.0000E+00  0.0000E+00  0.0000E+00  0.0000E+00  0.0000E+00  0.0000E+00  0.0000E+00  0.0000E+00  0.0000E+00  0.0000E+00  0.0000E+00  0.0000E+00  0.0000E+00  0.0000E+00  0.0000E+00  0.0000E+00
    -25.868  0.0000E+00  0.0000E+00  0.0000E+00  0.0000E+00  0.0000E+00  0.0000E+00  0.0000E+00  0.0000E+00  0.0000E+00  0.0000E+00  0.0000E+00  0.0000E+00  0.0000E+00  0.0000E+00  0.0000E+00  0.0000E+00  0.0000E+00  0.0000E+00
    -25.734  0.9461E-10  0.9471E-10  0.3807E-03  0.3799E-03  0.3807E-03  0.3799E-03  0.3793E-03  0.3785E-03  0.2862E-11  0.2829E-11  0.2855E-11  0.2823E-11  0.7193E-10  0.7182E-10  0.2862E-11  0.2829E-11  0.7302E-10  0.7292E-10
    -25.601  0.1263E-08  0.1264E-08  0.5081E-02  0.5071E-02  0.5081E-02  0.5071E-02  0.5062E-02  0.5052E-02  0.3820E-10  0.3776E-10  0.3811E-10  0.3768E-10  0.9602E-09  0.9587E-09  0.3820E-10  0.3776E-10  0.9747E-09  0.9733E-09
    -25.468  0.1794E-07  0.1796E-07  0.7218E-01  0.7203E-01  0.7218E-01  0.7203E-01  0.7192E-01  0.7177E-01  0.5426E-09  0.5363E-09  0.5413E-09  0.5352E-09  0.1364E-07  0.1362E-07  0.5426E-09  0.5363E-09  0.1385E-07  0.1383E-07
    -25.335  0.2235E-06  0.2237E-06  0.8983E+00  0.8967E+00  0.8983E+00  0.8967E+00  0.8955E+00  0.8939E+00  0.6738E-08  0.6660E-08  0.6721E-08  0.6645E-08  0.1701E-06  0.1699E-06  0.6738E-08  0.6660E-08  0.1725E-06  0.1723E-06
    -25.202  0.1014E-05  0.1017E-05  0.4072E+01  0.4070E+01  0.4072E+01  0.4070E+01  0.4069E+01  0.4067E+01  0.3020E-07  0.2986E-07  0.3009E-07  0.2975E-07  0.7767E-06  0.7769E-06  0.3020E-07  0.2986E-07  0.7828E-06  0.7832E-06
    -25.068  0.5179E-06  0.5203E-06  0.2088E+01  0.2091E+01  0.2088E+01  0.2091E+01  0.2093E+01  0.2096E+01  0.1527E-07  0.1510E-07  0.1519E-07  0.1502E-07  0.4000E-06  0.4008E-06  0.1527E-07  0.1510E-07  0.4002E-06  0.4011E-06
    -24.935  0.5255E-07  0.5282E-07  0.2125E+00  0.2129E+00  0.2125E+00  0.2129E+00  0.2133E+00  0.2137E+00  0.1546E-08  0.1529E-08  0.1537E-08  0.1520E-08  0.4070E-07  0.4081E-07  0.1546E-08  0.1529E-08  0.4061E-07  0.4074E-07
    -24.802  0.0000E+00  0.0000E+00  0.0000E+00  0.0000E+00  0.0000E+00  0.0000E+00  0.0000E+00  0.0000E+00  0.0000E+00  0.0000E+00  0.0000E+00  0.0000E+00  0.0000E+00  0.0000E+00  0.0000E+00  0.0000E+00  0.0000E+00  0.0000E+00
    -24.669  0.0000E+00  0.0000E+00  0.0000E+00  0.0000E+00  0.0000E+00  0.0000E+00  0.0000E+00  0.0000E+00  0.0000E+00  0.0000E+00  0.0000E+00  0.0000E+00  0.0000E+00  0.0000E+00  0.0000E+00  0.0000E+00  0.0000E+00  0.0000E+00
    -24.536  0.0000E+00  0.0000E+00  0.0000E+00  0.0000E+00  0.0000E+00  0.0000E+00  0.0000E+00  0.0000E+00  0.0000E+00  0.0000E+00  0.0000E+00  0.0000E+00  0.0000E+00  0.0000E+00  0.0000E+00  0.0000E+00  0.0000E+00  0.0000E+00
    -24.402  0.0000E+00  0.0000E+00  0.0000E+00  0.0000E+00  0.0000E+00  0.0000E+00  0.0000E+00  0.0000E+00  0.0000E+00  0.0000E+00  0.0000E+00  0.0000E+00  0.0000E+00  0.0000E+00  0.0000E+00  0.0000E+00  0.0000E+00  0.0000E+00
    -24.269  0.0000E+00  0.0000E+00  0.0000E+00  0.0000E+00  0.0000E+00  0.0000E+00  0.0000E+00  0.0000E+00  0.0000E+00  0.0000E+00  0.0000E+00  0.0000E+00  0.0000E+00  0.0000E+00  0.0000E+00  0.0000E+00  0.0000E+00  0.0000E+00
    -24.136  0.0000E+00  0.0000E+00  0.0000E+00  0.0000E+00  0.0000E+00  0.0000E+00  0.0000E+00  0.0000E+00  0.0000E+00  0.0000E+00  0.0000E+00  0.0000E+00  0.0000E+00  0.0000E+00  0.0000E+00  0.0000E+00  0.0000E+00  0.0000E+00
    -24.003  0.0000E+00  0.0000E+00  0.0000E+00  0.0000E+00  0.0000E+00  0.0000E+00  0.0000E+00  0.0000E+00  0.0000E+00  0.0000E+00  0.0000E+00  0.0000E+00  0.0000E+00  0.0000E+00  0.0000E+00  0.0000E+00  0.0000E+00  0.0000E+00
    -23.869  0.0000E+00  0.0000E+00  0.0000E+00  0.0000E+00  0.0000E+00  0.0000E+00  0.0000E+00  0.0000E+00  0.0000E+00  0.0000E+00  0.0000E+00  0.0000E+00  0.0000E+00  0.0000E+00  0.0000E+00  0.0000E+00  0.0000E+00  0.0000E+00
    -23.736  0.0000E+00  0.0000E+00  0.0000E+00  0.0000E+00  0.0000E+00  0.0000E+00  0.0000E+00  0.0000E+00  0.0000E+00  0.0000E+00  0.0000E+00  0.0000E+00  0.0000E+00  0.0000E+00  0.0000E+00  0.0000E+00  0.0000E+00  0.0000E+00
    -23.603  0.0000E+00  0.0000E+00  0.0000E+00  0.0000E+00  0.0000E+00  0.0000E+00  0.0000E+00  0.0000E+00  0.0000E+00  0.0000E+00  0.0000E+00  0.0000E+00  0.0000E+00  0.0000E+00  0.0000E+00  0.0000E+00  0.0000E+00  0.0000E+00
    -23.470  0.0000E+00  0.0000E+00  0.0000E+00  0.0000E+00  0.0000E+00  0.0000E+00  0.0000E+00  0.0000E+00  0.0000E+00  0.0000E+00  0.0000E+00  0.0000E+00  0.0000E+00  0.0000E+00  0.0000E+00  0.0000E+00  0.0000E+00  0.0000E+00
    -23.337  0.0000E+00  0.0000E+00  0.0000E+00  0.0000E+00  0.0000E+00  0.0000E+00  0.0000E+00  0.0000E+00  0.0000E+00  0.0000E+00  0.0000E+00  0.0000E+00  0.0000E+00  0.0000E+00  0.0000E+00  0.0000E+00  0.0000E+00  0.0000E+00
    -23.203  0.0000E+00  0.0000E+00  0.0000E+00  0.0000E+00  0.0000E+00  0.0000E+00  0.0000E+00  0.0000E+00  0.0000E+00  0.0000E+00  0.0000E+00  0.0000E+00  0.0000E+00  0.0000E+00  0.0000E+00  0.0000E+00  0.0000E+00  0.0000E+00
    -23.070  0.0000E+00  0.0000E+00  0.0000E+00  0.0000E+00  0.0000E+00  0.0000E+00  0.0000E+00  0.0000E+00  0.0000E+00  0.0000E+00  0.0000E+00  0.0000E+00  0.0000E+00  0.0000E+00  0.0000E+00  0.0000E+00  0.0000E+00  0.0000E+00
    -22.937  0.0000E+00  0.0000E+00  0.0000E+00  0.0000E+00  0.0000E+00  0.0000E+00  0.0000E+00  0.0000E+00  0.0000E+00  0.0000E+00  0.0000E+00  0.0000E+00  0.0000E+00  0.0000E+00  0.0000E+00  0.0000E+00  0.0000E+00  0.0000E+00
    -22.804  0.0000E+00  0.0000E+00  0.0000E+00  0.0000E+00  0.0000E+00  0.0000E+00  0.0000E+00  0.0000E+00  0.0000E+00  0.0000E+00  0.0000E+00  0.0000E+00  0.0000E+00  0.0000E+00  0.0000E+00  0.0000E+00  0.0000E+00  0.0000E+00
    -22.671  0.0000E+00  0.0000E+00  0.0000E+00  0.0000E+00  0.0000E+00  0.0000E+00  0.0000E+00  0.0000E+00  0.0000E+00  0.0000E+00  0.0000E+00  0.0000E+00  0.0000E+00  0.0000E+00  0.0000E+00  0.0000E+00  0.0000E+00  0.0000E+00
    -22.537  0.0000E+00  0.0000E+00  0.0000E+00  0.0000E+00  0.0000E+00  0.0000E+00  0.0000E+00  0.0000E+00  0.0000E+00  0.0000E+00  0.0000E+00  0.0000E+00  0.0000E+00  0.0000E+00  0.0000E+00  0.0000E+00  0.0000E+00  0.0000E+00
    -22.404  0.0000E+00  0.0000E+00  0.0000E+00  0.0000E+00  0.0000E+00  0.0000E+00  0.0000E+00  0.0000E+00  0.0000E+00  0.0000E+00  0.0000E+00  0.0000E+00  0.0000E+00  0.0000E+00  0.0000E+00  0.0000E+00  0.0000E+00  0.0000E+00
    -22.271  0.0000E+00  0.0000E+00  0.0000E+00  0.0000E+00  0.0000E+00  0.0000E+00  0.0000E+00  0.0000E+00  0.0000E+00  0.0000E+00  0.0000E+00  0.0000E+00  0.0000E+00  0.0000E+00  0.0000E+00  0.0000E+00  0.0000E+00  0.0000E+00
    -22.138  0.0000E+00  0.0000E+00  0.0000E+00  0.0000E+00  0.0000E+00  0.0000E+00  0.0000E+00  0.0000E+00  0.0000E+00  0.0000E+00  0.0000E+00  0.0000E+00  0.0000E+00  0.0000E+00  0.0000E+00  0.0000E+00  0.0000E+00  0.0000E+00
    -22.004  0.0000E+00  0.0000E+00  0.0000E+00  0.0000E+00  0.0000E+00  0.0000E+00  0.0000E+00  0.0000E+00  0.0000E+00  0.0000E+00  0.0000E+00  0.0000E+00  0.0000E+00  0.0000E+00  0.0000E+00  0.0000E+00  0.0000E+00  0.0000E+00
    -21.871  0.0000E+00  0.0000E+00  0.0000E+00  0.0000E+00  0.0000E+00  0.0000E+00  0.0000E+00  0.0000E+00  0.0000E+00  0.0000E+00  0.0000E+00  0.0000E+00  0.0000E+00  0.0000E+00  0.0000E+00  0.0000E+00  0.0000E+00  0.0000E+00
    -21.738  0.0000E+00  0.0000E+00  0.0000E+00  0.0000E+00  0.0000E+00  0.0000E+00  0.0000E+00  0.0000E+00  0.0000E+00  0.0000E+00  0.0000E+00  0.0000E+00  0.0000E+00  0.0000E+00  0.0000E+00  0.0000E+00  0.0000E+00  0.0000E+00
    -21.605  0.0000E+00  0.0000E+00  0.0000E+00  0.0000E+00  0.0000E+00  0.0000E+00  0.0000E+00  0.0000E+00  0.0000E+00  0.0000E+00  0.0000E+00  0.0000E+00  0.0000E+00  0.0000E+00  0.0000E+00  0.0000E+00  0.0000E+00  0.0000E+00
    -21.472  0.0000E+00  0.0000E+00  0.0000E+00  0.0000E+00  0.0000E+00  0.0000E+00  0.0000E+00  0.0000E+00  0.0000E+00  0.0000E+00  0.0000E+00  0.0000E+00  0.0000E+00  0.0000E+00  0.0000E+00  0.0000E+00  0.0000E+00  0.0000E+00
    -21.338  0.0000E+00  0.0000E+00  0.0000E+00  0.0000E+00  0.0000E+00  0.0000E+00  0.0000E+00  0.0000E+00  0.0000E+00  0.0000E+00  0.0000E+00  0.0000E+00  0.0000E+00  0.0000E+00  0.0000E+00  0.0000E+00  0.0000E+00  0.0000E+00
    -21.205  0.0000E+00  0.0000E+00  0.0000E+00  0.0000E+00  0.0000E+00  0.0000E+00  0.0000E+00  0.0000E+00  0.0000E+00  0.0000E+00  0.0000E+00  0.0000E+00  0.0000E+00  0.0000E+00  0.0000E+00  0.0000E+00  0.0000E+00  0.0000E+00
    -21.072  0.0000E+00  0.0000E+00  0.0000E+00  0.0000E+00  0.0000E+00  0.0000E+00  0.0000E+00  0.0000E+00  0.0000E+00  0.0000E+00  0.0000E+00  0.0000E+00  0.0000E+00  0.0000E+00  0.0000E+00  0.0000E+00  0.0000E+00  0.0000E+00
    -20.939  0.0000E+00  0.0000E+00  0.0000E+00  0.0000E+00  0.0000E+00  0.0000E+00  0.0000E+00  0.0000E+00  0.0000E+00  0.0000E+00  0.0000E+00  0.0000E+00  0.0000E+00  0.0000E+00  0.0000E+00  0.0000E+00  0.0000E+00  0.0000E+00
    -20.805  0.0000E+00  0.0000E+00  0.0000E+00  0.0000E+00  0.0000E+00  0.0000E+00  0.0000E+00  0.0000E+00  0.0000E+00  0.0000E+00  0.0000E+00  0.0000E+00  0.0000E+00  0.0000E+00  0.0000E+00  0.0000E+00  0.0000E+00  0.0000E+00
    -20.672  0.0000E+00  0.0000E+00  0.0000E+00  0.0000E+00  0.0000E+00  0.0000E+00  0.0000E+00  0.0000E+00  0.0000E+00  0.0000E+00  0.0000E+00  0.0000E+00  0.0000E+00  0.0000E+00  0.0000E+00  0.0000E+00  0.0000E+00  0.0000E+00
    -20.539  0.0000E+00  0.0000E+00  0.0000E+00  0.0000E+00  0.0000E+00  0.0000E+00  0.0000E+00  0.0000E+00  0.0000E+00  0.0000E+00  0.0000E+00  0.0000E+00  0.0000E+00  0.0000E+00  0.0000E+00  0.0000E+00  0.0000E+00  0.0000E+00
    -20.406  0.0000E+00  0.0000E+00  0.0000E+00  0.0000E+00  0.0000E+00  0.0000E+00  0.0000E+00  0.0000E+00  0.0000E+00  0.0000E+00  0.0000E+00  0.0000E+00  0.0000E+00  0.0000E+00  0.0000E+00  0.0000E+00  0.0000E+00  0.0000E+00