   4   4   1   0
  0.2153567E+02  0.4415462E-09  0.4416936E-09  0.4416936E-09  0.5000000E-15
  1.000000000000000E-004
  CAR 
 unknown system                          
     12.37034891    -27.70488624  301      5.60755728      1.00000000
    -27.705  0.0000E+00  0.0000E+00  0.0000E+00  0.0000E+00
    -27.571  0.0000E+00  0.0000E+00  0.0000E+00  0.0000E+00
    -27.438  0.0000E+00  0.0000E+00  0.0000E+00  0.0000E+00
    -27.304  0.0000E+00  0.0000E+00  0.0000E+00  0.0000E+00
    -27.171  0.0000E+00  0.0000E+00  0.0000E+00  0.0000E+00
    -27.037  0.0000E+00  0.0000E+00  0.0000E+00  0.0000E+00
    -26.903  0.0000E+00  0.0000E+00  0.0000E+00  0.0000E+00
    -26.770  0.0000E+00  0.0000E+00  0.0000E+00  0.0000E+00
    -26.636  0.0000E+00  0.0000E+00  0.0000E+00  0.0000E+00
    -26.503  0.0000E+00  0.0000E+00  0.0000E+00  0.0000E+00
    -26.369  0.1181E-02  0.1182E-02  0.1577E-03  0.1579E-03
    -26.235  0.1589E-01  0.1590E-01  0.2280E-02  0.2282E-02
    -26.102  0.2273E+00  0.2275E+00  0.3264E-01  0.3267E-01
    -25.968  0.2836E+01  0.2838E+01  0.4115E+00  0.4118E+00
    -25.835  0.1255E+02  0.1255E+02  0.2088E+01  0.2089E+01
    -25.701  0.6166E+01  0.6162E+01  0.2912E+01  0.2912E+01
    -25.568  0.6124E+00  0.6118E+00  0.2994E+01  0.2994E+01
    -25.434  0.0000E+00  0.0000E+00  0.3000E+01  0.3000E+01
    -25.300  0.0000E+00  0.0000E+00  0.3000E+01  0.3000E+01
    -25.167  0.0000E+00  0.0000E+00  0.3000E+01  0.3000E+01
    -25.033  0.0000E+00  0.0000E+00  0.3000E+01  0.3000E+01
    -24.900  0.0000E+00  0.0000E+00  0.3000E+01  0.3000E+01
    -24.766  0.0000E+00  0.0000E+00  0.3000E+01  0.3000E+01
    -24.632  0.0000E+00  0.0000E+00  0.3000E+01  0.3000E+01
    -24.499  0.0000E+00  0.0000E+00  0.3000E+01  0.3000E+01
    -24.365  0.0000E+00  0.0000E+00  0.3000E+01  0.3000E+01
    -24.232  0.0000E+00  0.0000E+00  0.3000E+01  0.3000E+01
    -24.098  0.0000E+00  0.0000E+00  0.3000E+01  0.3000E+01
    -23.965  0.0000E+00  0.0000E+00  0.3000E+01  0.3000E+01
    -23.831  0.0000E+00  0.0000E+00  0.3000E+01  0.3000E+01
    -23.697  0.0000E+00  0.0000E+00  0.3000E+01  0.3000E+01
    -23.564  0.0000E+00  0.0000E+00  0.3000E+01  0.3000E+01
    -23.430  0.0000E+00  0.0000E+00  0.3000E+01  0.3000E+01
    -23.297  0.0000E+00  0.0000E+00  0.3000E+01  0.3000E+01
    -23.163  0.0000E+00  0.0000E+00  0.3000E+01  0.3000E+01
    -23.029  0.0000E+00  0.0000E+00  0.3000E+01  0.3000E+01
    -22.896  0.0000E+00  0.0000E+00  0.3000E+01  0.3000E+01
    -22.762  0.0000E+00  0.0000E+00  0.3000E+01  0.3000E+01
    -22.629  0.0000E+00  0.0000E+00  0.3000E+01  0.3000E+01
    -22.495  0.0000E+00  0.0000E+00  0.3000E+01  0.3000E+01
    -22.362  0.0000E+00  0.0000E+00  0.3000E+01  0.3000E+01
    -22.228  0.0000E+00  0.0000E+00  0.3000E+01  0.3000E+01
    -22.094  0.0000E+00  0.0000E+00  0.3000E+01  0.3000E+01
    -21.961  0.0000E+00  0.0000E+00  0.3000E+01  0.3000E+01
    -21.827  0.0000E+00  0.0000E+00  0.3000E+01  0.3000E+01
    -21.694  0.0000E+00  0.0000E+00  0.3000E+01  0.3000E+01
    -21.560  0.0000E+00  0.0000E+00  0.3000E+01  0.3000E+01
    -21.426  0.0000E+00  0.0000E+00  0.3000E+01  0.3000E+01
    -21.293  0.0000E+00  0.0000E+00  0.3000E+01  0.3000E+01
    -21.159  0.0000E+00  0.0000E+00  0.3000E+01  0.3000E+01
    -21.026  0.0000E+00  0.0000E+00  0.3000E+01  0.3000E+01
    -20.892  0.0000E+00  0.0000E+00  0.3000E+01  0.3000E+01
    -20.759  0.0000E+00  0.0000E+00  0.3000E+01  0.3000E+01
    -20.625  0.0000E+00  0.0000E+00  0.3000E+01  0.3000E+01
    -20.491  0.0000E+00  0.0000E+00  0.3000E+01  0.3000E+01
    -20.358  0.0000E+00  0.0000E+00  0.3000E+01  0.3000E+01
    -20.224  0.0000E+00  0.0000E+00  0.3000E+01  0.3000E+01
    -20.091  0.0000E+00  0.0000E+00  0.3000E+01  0.3000E+01
    -19.957  0.0000E+00  0.0000E+00  0.3000E+01  0.3000E+01
    -19.823  0.0000E+00  0.0000E+00  0.3000E+01  0.3000E+01
    -19.690  0.0000E+00  0.0000E+00  0.3000E+01  0.3000E+01
    -19.556  0.0000E+00  0.0000E+00  0.3000E+01  0.3000E+01
    -19.423  0.0000E+00  0.0000E+00  0.3000E+01  0.3000E+01
    -19.289  0.0000E+00  0.0000E+00  0.3000E+01  0.3000E+01
    -19.156  0.0000E+00  0.0000E+00  0.3000E+01  0.3000E+01
    -19.022  0.0000E+00  0.0000E+00  0.3000E+01  0.3000E+01
    -18.888  0.0000E+00  0.0000E+00  0.3000E+01  0.3000E+01
    -18.755  0.0000E+00  0.0000E+00  0.3000E+01  0.3000E+01
    -18.621  0.0000E+00  0.0000E+00  0.3000E+01  0.3000E+01
    -18.488  0.0000E+00  0.0000E+00  0.3000E+01  0.3000E+01
    -18.354  0.0000E+00  0.0000E+00  0.3000E+01  0.3000E+01
    -18.220  0.0000E+00  0.0000E+00  0.3000E+01  0.3000E+01
    -18.087  0.0000E+00  0.0000E+00  0.3000E+01  0.3000E+01
    -17.953  0.0000E+00  0.0000E+00  0.3000E+01  0.3000E+01
    -17.820  0.0000E+00  0.0000E+00  0.3000E+01  0.3000E+01
    -17.686  0.0000E+00  0.0000E+00  0.3000E+01  0.3000E+01
    -17.552  0.0000E+00  0.0000E+00  0.3000E+01  0.3000E+01
    -17.419  0.0000E+00  0.0000E+00  0.3000E+01  0.3000E+01
    -17.285  0.0000E+00  0.0000E+00  0.3000E+01  0.3000E+01
    -17.152  0.0000E+00  0.0000E+00  0.3000E+01  0.3000E+01
    -17.018  0.0000E+00  0.0000E+00  0.3000E+01  0.3000E+01
    -16.885  0.0000E+00  0.0000E+00  0.3000E+01  0.3000E+01
    -16.751  0.0000E+00  0.0000E+00  0.3000E+01  0.3000E+01
    -16.617  0.0000E+00  0.0000E+00  0.3000E+01  0.3000E+01
    -16.484  0.0000E+00  0.0000E+00  0.3000E+01  0.3000E+01
    -16.350  0.0000E+00  0.0000E+00  0.3000E+01  0.3000E+01
    -16.217  0.0000E+00  0.0000E+00  0.3000E+01  0.3000E+01
    -16.083  0.0000E+00  0.0000E+00  0.3000E+01  0.3000E+01
    -15.949  0.0000E+00  0.0000E+00  0.3000E+01  0.3000E+01
    -15.816  0.0000E+00  0.0000E+00  0.3000E+01  0.3000E+01
    -15.682  0.0000E+00  0.0000E+00  0.3000E+01  0.3000E+01
    -15.549  0.0000E+00  0.0000E+00  0.3000E+01  0.3000E+01
    -15.415  0.0000E+00  0.0000E+00  0.3000E+01  0.3000E+01
    -15.282  0.0000E+00  0.0000E+00  0.3000E+01  0.3000E+01
    -15.148  0.0000E+00  0.0000E+00  0.3000E+01  0.3000E+01
    -15.014  0.0000E+00  0.0000E+00  0.3000E+01  0.3000E+01
    -14.881  0.0000E+00  0.0000E+00  0.3000E+01  0.3000E+01
    -14.747  0.0000E+00  0.0000E+00  0.3000E+01  0.3000E+01
    -14.614  0.0000E+00  0.0000E+00  0.3000E+01  0.3000E+01
    -14.480  0.0000E+00  0.0000E+00  0.3000E+01  0.3000E+01
    -14.346  0.0000E+00  0.0000E+00  0.3000E+01  0.3000E+01
    -14.213  0.0000E+00  0.0000E+00  0.3000E+01  0.3000E+01
    -14.079  0.0000E+00  0.0000E+00  0.3000E+01  0.3000E+01
    -13.946  0.0000E+00  0.0000E+00  0.3000E+01  0.3000E+01
    -13.812  0.0000E+00  0.0000E+00  0.3000E+01  0.3000E+01
    -13.679  0.0000E+00  0.0000E+00  0.3000E+01  0.3000E+01
    -13.545  0.0000E+00  0.0000E+00  0.3000E+01  0.3000E+01
    -13.411  0.0000E+00  0.0000E+00  0.3000E+01  0.3000E+01
    -13.278  0.0000E+00  0.0000E+00  0.3000E+01  0.3000E+01
    -13.144  0.0000E+00  0.0000E+00  0.3000E+01  0.3000E+01
    -13.011  0.0000E+00  0.0000E+00  0.3000E+01  0.3000E+01
    -12.877  0.0000E+00  0.0000E+00  0.3000E+01  0.3000E+01
    -12.743  0.0000E+00  0.0000E+00  0.3000E+01  0.3000E+01
    -12.610  0.0000E+00  0.0000E+00  0.3000E+01  0.3000E+01
    -12.476  0.0000E+00  0.0000E+00  0.3000E+01  0.3000E+01
    -12.343  0.0000E+00  0.0000E+00  0.3000E+01  0.3000E+01
    -12.209  0.0000E+00  0.0000E+00  0.3000E+01  0.3000E+01
    -12.076  0.0000E+00  0.0000E+00  0.3000E+01  0.3000E+01
    -11.942  0.0000E+00  0.0000E+00  0.3000E+01  0.3000E+01
    -11.808  0.0000E+00  0.0000E+00  0.3000E+01  0.3000E+01
    -11.675  0.0000E+00  0.0000E+00  0.3000E+01  0.3000E+01
    -11.541  0.0000E+00  0.0000E+00  0.3000E+01  0.3000E+01
    -11.408  0.0000E+00  0.0000E+00  0.3000E+01  0.3000E+01
    -11.274  0.0000E+00  0.0000E+00  0.3000E+01  0.3000E+01
    -11.140  0.0000E+00  0.0000E+00  0.3000E+01  0.3000E+01
    -11.007  0.0000E+00  0.0000E+00  0.3000E+01  0.3000E+01
    -10.873  0.0000E+00  0.0000E+00  0.3000E+01  0.3000E+01
    -10.740  0.0000E+00  0.0000E+00  0.3000E+01  0.3000E+01
    -10.606  0.0000E+00  0.0000E+00  0.3000E+01  0.3000E+01
    -10.473  0.0000E+00  0.0000E+00  0.3000E+01  0.3000E+01
    -10.339  0.0000E+00  0.0000E+00  0.3000E+01  0.3000E+01
    -10.205  0.0000E+00  0.0000E+00  0.3000E+01  0.3000E+01
    -10.072  0.0000E+00  0.0000E+00  0.3000E+01  0.3000E+01
     -9.938  0.0000E+00  0.0000E+00  0.3000E+01  0.3000E+01
     -9.805  0.0000E+00  0.0000E+00  0.3000E+01  0.3000E+01
     -9.671  0.0000E+00  0.0000E+00  0.3000E+01  0.3000E+01
     -9.537  0.0000E+00  0.0000E+00  0.3000E+01  0.3000E+01
     -9.404  0.0000E+00  0.0000E+00  0.3000E+01  0.3000E+01
     -9.270  0.0000E+00  0.0000E+00  0.3000E+01  0.3000E+01
     -9.137  0.0000E+00  0.0000E+00  0.3000E+01  0.3000E+01
     -9.003  0.0000E+00  0.0000E+00  0.3000E+01  0.3000E+01
     -8.870  0.0000E+00  0.0000E+00  0.3000E+01  0.3000E+01
     -8.736  0.0000E+00  0.0000E+00  0.3000E+01  0.3000E+01
     -8.602  0.0000E+00  0.0000E+00  0.3000E+01  0.3000E+01
     -8.469  0.0000E+00  0.0000E+00  0.3000E+01  0.3000E+01
     -8.335  0.0000E+00  0.0000E+00  0.3000E+01  0.3000E+01
     -8.202  0.0000E+00  0.0000E+00  0.3000E+01  0.3000E+01
     -8.068  0.0000E+00  0.0000E+00  0.3000E+01  0.3000E+01
     -7.934  0.0000E+00  0.0000E+00  0.3000E+01  0.3000E+01
     -7.801  0.0000E+00  0.0000E+00  0.3000E+01  0.3000E+01
     -7.667  0.0000E+00  0.0000E+00  0.3000E+01  0.3000E+01
     -7.534  0.0000E+00  0.0000E+00  0.3000E+01  0.3000E+01
     -7.400  0.0000E+00  0.0000E+00  0.3000E+01  0.3000E+01
     -7.267  0.0000E+00  0.0000E+00  0.3000E+01  0.3000E+01
     -7.133  0.0000E+00  0.0000E+00  0.3000E+01  0.3000E+01
     -6.999  0.0000E+00  0.0000E+00  0.3000E+01  0.3000E+01
     -6.866  0.0000E+00  0.0000E+00  0.3000E+01  0.3000E+01
     -6.732  0.0000E+00  0.0000E+00  0.3000E+01  0.3000E+01
     -6.599  0.0000E+00  0.0000E+00  0.3000E+01  0.3000E+01
     -6.465  0.0000E+00  0.0000E+00  0.3000E+01  0.3000E+01
     -6.331  0.0000E+00  0.0000E+00  0.3000E+01  0.3000E+01
     -6.198  0.0000E+00  0.0000E+00  0.3000E+01  0.3000E+01
     -6.064  0.0000E+00  0.0000E+00  0.3000E+01  0.3000E+01
     -5.931  0.0000E+00  0.0000E+00  0.3000E+01  0.3000E+01
     -5.797  0.0000E+00  0.0000E+00  0.3000E+01  0.3000E+01
     -5.664  0.0000E+00  0.0000E+00  0.3000E+01  0.3000E+01
     -5.530  0.0000E+00  0.0000E+00  0.3000E+01  0.3000E+01
     -5.396  0.0000E+00  0.0000E+00  0.3000E+01  0.3000E+01
     -5.263  0.0000E+00  0.0000E+00  0.3000E+01  0.3000E+01
     -5.129  0.0000E+00  0.0000E+00  0.3000E+01  0.3000E+01
     -4.996  0.0000E+00  0.0000E+00  0.3000E+01  0.3000E+01
     -4.862  0.0000E+00  0.0000E+00  0.3000E+01  0.3000E+01
     -4.728  0.0000E+00  0.0000E+00  0.3000E+01  0.3000E+01
     -4.595  0.0000E+00  0.0000E+00  0.3000E+01  0.3000E+01
     -4.461  0.0000E+00  0.0000E+00  0.3000E+01  0.3000E+01
     -4.328  0.0000E+00  0.0000E+00  0.3000E+01  0.3000E+01
     -4.194  0.8864E-07  0.8852E-07  0.3000E+01  0.3000E+01
     -4.060  0.6222E-05  0.6213E-05  0.3000E+01  0.3000E+01
     -3.927  0.9809E-04  0.9797E-04  0.3000E+01  0.3000E+01
     -3.793  0.1386E-02  0.1384E-02  0.3000E+01  0.3000E+01
     -3.660  0.1504E-01  0.1502E-01  0.3002E+01  0.3002E+01
     -3.526  0.6372E-01  0.6369E-01  0.3011E+01  0.3011E+01
     -3.393  0.1195E+00  0.1195E+00  0.3027E+01  0.3027E+01
     -3.259  0.1469E+00  0.1469E+00  0.3046E+01  0.3046E+01
     -3.125  0.1936E+00  0.1935E+00  0.3072E+01  0.3072E+01
     -2.992  0.2101E+00  0.2101E+00  0.3100E+01  0.3100E+01
     -2.858  0.2212E+00  0.2212E+00  0.3130E+01  0.3130E+01
     -2.725  0.2836E+00  0.2836E+00  0.3168E+01  0.3168E+01
     -2.591  0.2736E+00  0.2736E+00  0.3204E+01  0.3204E+01
     -2.457  0.2766E+00  0.2765E+00  0.3241E+01  0.3241E+01
     -2.324  0.3626E+00  0.3626E+00  0.3290E+01  0.3290E+01
     -2.190  0.3418E+00  0.3419E+00  0.3336E+01  0.3336E+01
     -2.057  0.3500E+00  0.3499E+00  0.3382E+01  0.3382E+01
     -1.923  0.4010E+00  0.4009E+00  0.3436E+01  0.3436E+01
     -1.790  0.4257E+00  0.4256E+00  0.3493E+01  0.3493E+01
     -1.656  0.4849E+00  0.4849E+00  0.3558E+01  0.3558E+01
     -1.522  0.4205E+00  0.4205E+00  0.3614E+01  0.3614E+01
     -1.389  0.3944E+00  0.3943E+00  0.3667E+01  0.3667E+01
     -1.255  0.5081E+00  0.5081E+00  0.3735E+01  0.3735E+01
     -1.122  0.4875E+00  0.4876E+00  0.3800E+01  0.3800E+01
     -0.988  0.5176E+00  0.5175E+00  0.3869E+01  0.3869E+01
     -0.854  0.4950E+00  0.4952E+00  0.3935E+01  0.3935E+01
     -0.721  0.4707E+00  0.4706E+00  0.3998E+01  0.3998E+01
     -0.587  0.5405E+00  0.5409E+00  0.4071E+01  0.4071E+01
     -0.454  0.5859E+00  0.5859E+00  0.4149E+01  0.4149E+01
     -0.320  0.5198E+00  0.5199E+00  0.4219E+01  0.4219E+01
     -0.187  0.4846E+00  0.4846E+00  0.4284E+01  0.4284E+01
     -0.053  0.5616E+00  0.5616E+00  0.4359E+01  0.4359E+01
      0.081  0.5801E+00  0.5801E+00  0.4436E+01  0.4436E+01
      0.214  0.6928E+00  0.6926E+00  0.4529E+01  0.4529E+01
      0.348  0.8083E+00  0.8082E+00  0.4637E+01  0.4637E+01
      0.481  0.8099E+00  0.8099E+00  0.4745E+01  0.4745E+01
      0.615  0.7389E+00  0.7389E+00  0.4844E+01  0.4844E+01
      0.749  0.8662E+00  0.8661E+00  0.4960E+01  0.4960E+01
      0.882  0.8253E+00  0.8253E+00  0.5071E+01  0.5071E+01
      1.016  0.7929E+00  0.7929E+00  0.5177E+01  0.5177E+01
      1.149  0.6747E+00  0.6748E+00  0.5267E+01  0.5267E+01
      1.283  0.7131E+00  0.7130E+00  0.5363E+01  0.5363E+01
      1.416  0.6878E+00  0.6880E+00  0.5455E+01  0.5455E+01
      1.550  0.4859E+00  0.4860E+00  0.5520E+01  0.5520E+01
      1.684  0.6007E+00  0.6007E+00  0.5600E+01  0.5600E+01
      1.817  0.6893E+00  0.6893E+00  0.5693E+01  0.5693E+01
      1.951  0.7899E+00  0.7898E+00  0.5798E+01  0.5798E+01
      2.084  0.7158E+00  0.7159E+00  0.5894E+01  0.5894E+01
      2.218  0.7125E+00  0.7125E+00  0.5989E+01  0.5989E+01
      2.352  0.8309E+00  0.8308E+00  0.6100E+01  0.6100E+01
      2.485  0.9578E+00  0.9578E+00  0.6229E+01  0.6229E+01
      2.619  0.7831E+00  0.7831E+00  0.6333E+01  0.6333E+01
      2.752  0.7685E+00  0.7685E+00  0.6436E+01  0.6436E+01
      2.886  0.8049E+00  0.8048E+00  0.6544E+01  0.6544E+01
      3.019  0.1042E+01  0.1042E+01  0.6683E+01  0.6683E+01
      3.153  0.1154E+01  0.1154E+01  0.6837E+01  0.6837E+01
      3.287  0.1312E+01  0.1312E+01  0.7013E+01  0.7013E+01
      3.420  0.1446E+01  0.1446E+01  0.7206E+01  0.7206E+01
      3.554  0.1396E+01  0.1397E+01  0.7393E+01  0.7393E+01
      3.687  0.1518E+01  0.1518E+01  0.7596E+01  0.7596E+01
      3.821  0.1983E+01  0.1983E+01  0.7861E+01  0.7861E+01
      3.955  0.1432E+01  0.1432E+01  0.8053E+01  0.8053E+01
      4.088  0.1199E+01  0.1199E+01  0.8214E+01  0.8214E+01
      4.222  0.1001E+01  0.1001E+01  0.8348E+01  0.8348E+01
      4.355  0.8429E+00  0.8429E+00  0.8461E+01  0.8461E+01
      4.489  0.8295E+00  0.8294E+00  0.8572E+01  0.8572E+01
      4.622  0.8087E+00  0.8088E+00  0.8680E+01  0.8680E+01
      4.756  0.7897E+00  0.7897E+00  0.8786E+01  0.8786E+01
      4.890  0.8094E+00  0.8094E+00  0.8894E+01  0.8894E+01
      5.023  0.7531E+00  0.7529E+00  0.8995E+01  0.8995E+01
      5.157  0.8929E+00  0.8929E+00  0.9114E+01  0.9114E+01
      5.290  0.7371E+00  0.7375E+00  0.9213E+01  0.9213E+01
      5.424  0.8284E+00  0.8281E+00  0.9324E+01  0.9324E+01
      5.558  0.9623E+00  0.9622E+00  0.9453E+01  0.9453E+01
      5.691  0.9734E+00  0.9734E+00  0.9583E+01  0.9583E+01
      5.825  0.1143E+01  0.1143E+01  0.9736E+01  0.9736E+01
      5.958  0.1472E+01  0.1472E+01  0.9933E+01  0.9932E+01
      6.092  0.1499E+01  0.1499E+01  0.1013E+02  0.1013E+02
      6.225  0.1482E+01  0.1482E+01  0.1033E+02  0.1033E+02
      6.359  0.1592E+01  0.1593E+01  0.1054E+02  0.1054E+02
      6.493  0.2028E+01  0.2028E+01  0.1082E+02  0.1082E+02
      6.626  0.1749E+01  0.1749E+01  0.1105E+02  0.1105E+02
      6.760  0.1326E+01  0.1326E+01  0.1123E+02  0.1123E+02
      6.893  0.1149E+01  0.1149E+01  0.1138E+02  0.1138E+02
      7.027  0.1424E+01  0.1424E+01  0.1157E+02  0.1157E+02
      7.161  0.1737E+01  0.1737E+01  0.1180E+02  0.1180E+02
      7.294  0.2012E+01  0.2011E+01  0.1207E+02  0.1207E+02
      7.428  0.2154E+01  0.2155E+01  0.1236E+02  0.1236E+02
      7.561  0.1942E+01  0.1942E+01  0.1262E+02  0.1262E+02
      7.695  0.1730E+01  0.1730E+01  0.1285E+02  0.1285E+02
      7.828  0.1474E+01  0.1474E+01  0.1305E+02  0.1305E+02
      7.962  0.1539E+01  0.1539E+01  0.1326E+02  0.1326E+02
      8.096  0.1518E+01  0.1518E+01  0.1346E+02  0.1346E+02
      8.229  0.1270E+01  0.1270E+01  0.1363E+02  0.1363E+02
      8.363  0.1230E+01  0.1230E+01  0.1379E+02  0.1379E+02
      8.496  0.1085E+01  0.1085E+01  0.1394E+02  0.1394E+02
      8.630  0.1496E+01  0.1496E+01  0.1414E+02  0.1414E+02
      8.764  0.1590E+01  0.1589E+01  0.1435E+02  0.1435E+02
      8.897  0.1679E+01  0.1680E+01  0.1458E+02  0.1458E+02
      9.031  0.2059E+01  0.2060E+01  0.1485E+02  0.1485E+02
      9.164  0.1991E+01  0.1989E+01  0.1512E+02  0.1512E+02
      9.298  0.1461E+01  0.1448E+01  0.1531E+02  0.1531E+02
      9.431  0.1067E+01  0.1076E+01  0.1546E+02  0.1546E+02
      9.565  0.1086E+01  0.1108E+01  0.1560E+02  0.1560E+02
      9.699  0.1025E+01  0.1022E+01  0.1574E+02  0.1574E+02
      9.832  0.8380E+00  0.8347E+00  0.1585E+02  0.1585E+02
      9.966  0.5544E+00  0.5406E+00  0.1593E+02  0.1593E+02
     10.099  0.3388E+00  0.3444E+00  0.1597E+02  0.1597E+02
     10.233  0.1555E+00  0.1562E+00  0.1599E+02  0.1599E+02
     10.367  0.2950E-01  0.2472E-01  0.1600E+02  0.1600E+02
     10.500  0.1654E-01  0.8302E-02  0.1600E+02  0.1600E+02
     10.634  0.8519E-02  0.1556E-01  0.1600E+02  0.1600E+02
     10.767  0.9012E-03  0.3870E-02  0.1600E+02  0.1600E+02
     10.901  0.0000E+00  0.3162E-03  0.1600E+02  0.1600E+02
     11.035  0.0000E+00  0.0000E+00  0.1600E+02  0.1600E+02
     11.168  0.0000E+00  0.0000E+00  0.1600E+02  0.1600E+02
     11.302  0.0000E+00  0.0000E+00  0.1600E+02  0.1600E+02
     11.435  0.0000E+00  0.0000E+00  0.1600E+02  0.1600E+02
     11.569  0.0000E+00  0.0000E+00  0.1600E+02  0.1600E+02
     11.702  0.0000E+00  0.0000E+00  0.1600E+02  0.1600E+02
     11.836  0.0000E+00  0.0000E+00  0.1600E+02  0.1600E+02
     11.970  0.0000E+00  0.0000E+00  0.1600E+02  0.1600E+02
     12.103  0.0000E+00  0.0000E+00  0.1600E+02  0.1600E+02
     12.237  0.0000E+00  0.0000E+00  0.1600E+02  0.1600E+02
     12.370  0.0000E+00  0.0000E+00  0.1600E+02  0.1600E+02
     12.37034891    -27.70488624  301      5.60755728      1.00000000
    -27.705  0.0000E+00  0.0000E+00  0.0000E+00  0.0000E+00  0.0000E+00  0.0000E+00  0.0000E+00  0.0000E+00  0.0000E+00  0.0000E+00  0.0000E+00  0.0000E+00  0.0000E+00  0.0000E+00  0.0000E+00  0.0000E+00  0.0000E+00  0.0000E+00
    -27.571  0.0000E+00  0.0000E+00  0.0000E+00  0.0000E+00  0.0000E+00  0.0000E+00  0.0000E+00  0.0000E+00  0.0000E+00  0.0000E+00  0.0000E+00  0.0000E+00  0.0000E+00  0.0000E+00  0.0000E+00  0.0000E+00  0.0000E+00  0.0000E+00
    -27.438  0.0000E+00  0.0000E+00  0.0000E+00  0.0000E+00  0.0000E+00  0.0000E+00  0.0000E+00  0.0000E+00  0.0000E+00  0.0000E+00  0.0000E+00  0.0000E+00  0.0000E+00  0.0000E+00  0.0000E+00  0.0000E+00  0.0000E+00  0.0000E+00
    -27.304  0.0000E+00  0.0000E+00  0.0000E+00  0.0000E+00  0.0000E+00  0.0000E+00  0.0000E+00  0.0000E+00  0.0000E+00  0.0000E+00  0.0000E+00  0.0000E+00  0.0000E+00  0.0000E+00  0.0000E+00  0.0000E+00  0.0000E+00  0.0000E+00
    -27.171  0.0000E+00  0.0000E+00  0.0000E+00  0.0000E+00  0.0000E+00  0.0000E+00  0.0000E+00  0.0000E+00  0.0000E+00  0.0000E+00  0.0000E+00  0.0000E+00  0.0000E+00  0.0000E+00  0.0000E+00  0.0000E+00  0.0000E+00  0.0000E+00
    -27.037  0.0000E+00  0.0000E+00  0.0000E+00  0.0000E+00  0.0000E+00  0.0000E+00  0.0000E+00  0.0000E+00  0.0000E+00  0.0000E+00  0.0000E+00  0.0000E+00  0.0000E+00  0.0000E+00  0.0000E+00  0.0000E+00  0.0000E+00  0.0000E+00
    -26.903  0.0000E+00  0.0000E+00  0.0000E+00  0.0000E+00  0.0000E+00  0.0000E+00  0.0000E+00  0.0000E+00  0.0000E+00  0.0000E+00  0.0000E+00  0.0000E+00  0.0000E+00  0.0000E+00  0.0000E+00  0.0000E+00  0.0000E+00  0.0000E+00
    -26.770  0.0000E+00  0.0000E+00  0.0000E+00  0.0000E+00  0.0000E+00  0.0000E+00  0.0000E+00  0.0000E+00  0.0000E+00  0.0000E+00  0.0000E+00  0.0000E+00  0.0000E+00  0.0000E+00  0.0000E+00  0.0000E+00  0.0000E+00  0.0000E+00
    -26.636  0.0000E+00  0.0000E+00  0.0000E+00  0.0000E+00  0.0000E+00  0.0000E+00  0.0000E+00  0.0000E+00  0.0000E+00  0.0000E+00  0.0000E+00  0.0000E+00  0.0000E+00  0.0000E+00  0.0000E+00  0.0000E+00  0.0000E+00  0.0000E+00
    -26.503  0.0000E+00  0.0000E+00  0.0000E+00  0.0000E+00  0.0000E+00  0.0000E+00  0.0000E+00  0.0000E+00  0.0000E+00  0.0000E+00  0.0000E+00  0.0000E+00  0.0000E+00  0.0000E+00  0.0000E+00  0.0000E+00  0.0000E+00  0.0000E+00
    -26.369  0.5394E-10  0.5387E-10  0.3866E-03  0.3869E-03  0.3866E-03  0.3869E-03  0.3853E-03  0.3856E-03  0.1566E-11  0.1548E-11  0.1561E-11  0.1544E-11  0.3984E-10  0.3972E-10  0.1566E-11  0.1548E-11  0.4039E-10  0.4029E-10
    -26.235  0.7257E-09  0.7247E-09  0.5201E-02  0.5206E-02  0.5201E-02  0.5206E-02  0.5183E-02  0.5188E-02  0.2106E-10  0.2082E-10  0.2100E-10  0.2077E-10  0.5360E-09  0.5343E-09  0.2106E-10  0.2082E-10  0.5435E-09  0.5421E-09
    -26.102  0.1038E-07  0.1037E-07  0.7441E-01  0.7448E-01  0.7441E-01  0.7448E-01  0.7416E-01  0.7422E-01  0.3013E-09  0.2979E-09  0.3004E-09  0.2970E-09  0.7669E-08  0.7645E-08  0.3013E-09  0.2979E-09  0.7775E-08  0.7755E-08
    -25.968  0.1296E-06  0.1294E-06  0.9284E+00  0.9291E+00  0.9284E+00  0.9291E+00  0.9256E+00  0.9264E+00  0.3751E-08  0.3707E-08  0.3739E-08  0.3696E-08  0.9580E-07  0.9550E-07  0.3751E-08  0.3707E-08  0.9705E-07  0.9679E-07
    -25.835  0.5735E-06  0.5723E-06  0.4106E+01  0.4107E+01  0.4106E+01  0.4107E+01  0.4104E+01  0.4104E+01  0.1642E-07  0.1618E-07  0.1634E-07  0.1612E-07  0.4258E-06  0.4242E-06  0.1642E-07  0.1618E-07  0.4294E-06  0.4281E-06
    -25.701  0.2809E-06  0.2801E-06  0.2015E+01  0.2014E+01  0.2015E+01  0.2014E+01  0.2020E+01  0.2019E+01  0.7953E-08  0.7818E-08  0.7906E-08  0.7774E-08  0.2097E-06  0.2088E-06  0.7953E-08  0.7818E-08  0.2103E-06  0.2095E-06
    -25.568  0.2784E-07  0.2776E-07  0.2001E+00  0.1999E+00  0.2001E+00  0.1999E+00  0.2008E+00  0.2006E+00  0.7859E-09  0.7717E-09  0.7808E-09  0.7670E-09  0.2082E-07  0.2073E-07  0.7859E-09  0.7717E-09  0.2085E-07  0.2076E-07
    -25.434  0.0000E+00  0.0000E+00  0.0000E+00  0.0000E+00  0.0000E+00  0.0000E+00  0.0000E+00  0.0000E+00  0.0000E+00  0.0000E+00  0.0000E+00  0.0000E+00  0.0000E+00  0.0000E+00  0.0000E+00  0.0000E+00  0.0000E+00  0.0000E+00
    -25.300  0.0000E+00  0.0000E+00  0.0000E+00  0.0000E+00  0.0000E+00  0.0000E+00  0.0000E+00  0.0000E+00  0.0000E+00  0.0000E+00  0.0000E+00  0.0000E+00  0.0000E+00  0.0000E+00  0.0000E+00  0.0000E+00  0.0000E+00  0.0000E+00
    -25.167  0.0000E+00  0.0000E+00  0.0000E+00  0.0000E+00  0.0000E+00  0.0000E+00  0.0000E+00  0.0000E+00  0.0000E+00  0.0000E+00  0.0000E+00  0.0000E+00  0.0000E+00  0.0000E+00  0.0000E+00  0.0000E+00  0.0000E+00  0.0000E+00
    -25.033  0.0000E+00  0.0000E+00  0.0000E+00  0.0000E+00  0.0000E+00  0.0000E+00  0.0000E+00  0.0000E+00  0.0000E+00  0.0000E+00  0.0000E+00  0.0000E+00  0.0000E+00  0.0000E+00  0.0000E+00  0.0000E+00  0.0000E+00  0.0000E+00
    -24.900  0.0000E+00  0.0000E+00  0.0000E+00  0.0000E+00  0.0000E+00  0.0000E+00  0.0000E+00  0.0000E+00  0.0000E+00  0.0000E+00  0.0000E+00  0.0000E+00  0.0000E+00  0.0000E+00  0.0000E+00  0.0000E+00  0.0000E+00  0.0000E+00
    -24.766  0.0000E+00  0.0000E+00  0.0000E+00  0.0000E+00  0.0000E+00  0.0000E+00  0.0000E+00  0.0000E+00  0.0000E+00  0.0000E+00  0.0000E+00  0.0000E+00  0.0000E+00  0.0000E+00  0.0000E+00  0.0000E+00  0.0000E+00  0.0000E+00
    -24.632  0.0000E+00  0.0000E+00  0.0000E+00  0.0000E+00  0.0000E+00  0.0000E+00  0.0000E+00  0.0000E+00  0.0000E+00  0.0000E+00  0.0000E+00  0.0000E+00  0.0000E+00  0.0000E+00  0.0000E+00  0.0000E+00  0.0000E+00  0.0000E+00
    -24.499  0.0000E+00  0.0000E+00  0.0000E+00  0.0000E+00  0.0000E+00  0.0000E+00  0.0000E+00  0.0000E+00  0.0000E+00  0.0000E+00  0.0000E+00  0.0000E+00  0.0000E+00  0.0000E+00  0.0000E+00  0.0000E+00  0.0000E+00  0.0000E+00
    -24.365  0.0000E+00  0.0000E+00  0.0000E+00  0.0000E+00  0.0000E+00  0.0000E+00  0.0000E+00  0.0000E+00  0.0000E+00  0.0000E+00  0.0000E+00  0.0000E+00  0.0000E+00  0.0000E+00  0.0000E+00  0.0000E+00  0.0000E+00  0.0000E+00
    -24.232  0.0000E+00  0.0000E+00  0.0000E+00  0.0000E+00  0.0000E+00  0.0000E+00  0.0000E+00  0.0000E+00  0.0000E+00  0.0000E+00  0.0000E+00  0.0000E+00  0.0000E+00  0.0000E+00  0.0000E+00  0.0000E+00  0.0000E+00  0.0000E+00
    -24.098  0.0000E+00  0.0000E+00  0.0000E+00  0.0000E+00  0.0000E+00  0.0000E+00  0.0000E+00  0.0000E+00  0.0000E+00  0.0000E+00  0.0000E+00  0.0000E+00  0.0000E+00  0.0000E+00  0.0000E+00  0.0000E+00  0.0000E+00  0.0000E+00
    -23.965  0.0000E+00  0.0000E+00  0.0000E+00  0.0000E+00  0.0000E+00  0.0000E+00  0.0000E+00  0.0000E+00  0.0000E+00  0.0000E+00  0.0000E+00  0.0000E+00  0.0000E+00  0.0000E+00  0.0000E+00  0.0000E+00  0.0000E+00  0.0000E+00
    -23.831  0.0000E+00  0.0000E+00  0.0000E+00  0.0000E+00  0.0000E+00  0.0000E+00  0.0000E+00  0.0000E+00  0.0000E+00  0.0000E+00  0.0000E+00  0.0000E+00  0.0000E+00  0.0000E+00  0.0000E+00  0.0000E+00  0.0000E+00  0.0000E+00
    -23.697  0.0000E+00  0.0000E+00  0.0000E+00  0.0000E+00  0.0000E+00  0.0000E+00  0.0000E+00  0.0000E+00  0.0000E+00  0.0000E+00  0.0000E+00  0.0000E+00  0.0000E+00  0.0000E+00  0.0000E+00  0.0000E+00  0.0000E+00  0.0000E+00
    -23.564  0.0000E+00  0.0000E+00  0.0000E+00  0.0000E+00  0.0000E+00  0.0000E+00  0.0000E+00  0.0000E+00  0.0000E+00  0.0000E+00  0.0000E+00  0.0000E+00  0.0000E+00  0.0000E+00  0.0000E+00  0.0000E+00  0.0000E+00  0.0000E+00
    -23.430  0.0000E+00  0.0000E+00  0.0000E+00  0.0000E+00  0.0000E+00  0.0000E+00  0.0000E+00  0.0000E+00  0.0000E+00  0.0000E+00  0.0000E+00  0.0000E+00  0.0000E+00  0.0000E+00  0.0000E+00  0.0000E+00  0.0000E+00  0.0000E+00
    -23.297  0.0000E+00  0.0000E+00  0.0000E+00  0.0000E+00  0.0000E+00  0.0000E+00  0.0000E+00  0.0000E+00  0.0000E+00  0.0000E+00  0.0000E+00  0.0000E+00  0.0000E+00  0.0000E+00  0.0000E+00  0.0000E+00  0.0000E+00  0.0000E+00
    -23.163  0.0000E+00  0.0000E+00  0.0000E+00  0.0000E+00  0.0000E+00  0.0000E+00  0.0000E+00  0.0000E+00  0.0000E+00  0.0000E+00  0.0000E+00  0.0000E+00  0.0000E+00  0.0000E+00  0.0000E+00  0.0000E+00  0.0000E+00  0.0000E+00
    -23.029  0.0000E+00  0.0000E+00  0.0000E+00  0.0000E+00  0.0000E+00  0.0000E+00  0.0000E+00  0.0000E+00  0.0000E+00  0.0000E+00  0.0000E+00  0.0000E+00  0.0000E+00  0.0000E+00  0.0000E+00  0.0000E+00  0.0000E+00  0.0000E+00
    -22.896  0.0000E+00  0.0000E+00  0.0000E+00  0.0000E+00  0.0000E+00  0.0000E+00  0.0000E+00  0.0000E+00  0.0000E+00  0.0000E+00  0.0000E+00  0.0000E+00  0.0000E+00  0.0000E+00  0.0000E+00  0.0000E+00  0.0000E+00  0.0000E+00
    -22.762  0.0000E+00  0.0000E+00  0.0000E+00  0.0000E+00  0.0000E+00  0.0000E+00  0.0000E+00  0.0000E+00  0.0000E+00  0.0000E+00  0.0000E+00  0.0000E+00  0.0000E+00  0.0000E+00  0.0000E+00  0.0000E+00  0.0000E+00  0.0000E+00
    -22.629  0.0000E+00  0.0000E+00  0.0000E+00  0.0000E+00  0.0000E+00  0.0000E+00  0.0000E+00  0.0000E+00  0.0000E+00  0.0000E+00  0.0000E+00  0.0000E+00  0.0000E+00  0.0000E+00  0.0000E+00  0.0000E+00  0.0000E+00  0.0000E+00
    -22.495  0.0000E+00  0.0000E+00  0.0000E+00  0.0000E+00  0.0000E+00  0.0000E+00  0.0000E+00  0.0000E+00  0.0000E+00  0.0000E+00  0.0000E+00  0.0000E+00  0.0000E+00  0.0000E+00  0.0000E+00  0.0000E+00  0.0000E+00  0.0000E+00
    -22.362  0.0000E+00  0.0000E+00  0.0000E+00  0.0000E+00  0.0000E+00  0.0000E+00  0.0000E+00  0.0000E+00  0.0000E+00  0.0000E+00  0.0000E+00  0.0000E+00  0.0000E+00  0.0000E+00  0.0000E+00  0.0000E+00  0.0000E+00  0.0000E+00
    -22.228  0.0000E+00  0.0000E+00  0.0000E+00  0.0000E+00  0.0000E+00  0.0000E+00  0.0000E+00  0.0000E+00  0.0000E+00  0.0000E+00  0.0000E+00  0.0000E+00  0.0000E+00  0.0000E+00  0.0000E+00  0.0000E+00  0.0000E+00  0.0000E+00
    -22.094  0.0000E+00  0.0000E+00  0.0000E+00  0.0000E+00  0.0000E+00  0.0000E+00  0.0000E+00  0.0000E+00  0.0000E+00  0.0000E+00  0.0000E+00  0.0000E+00  0.0000E+00  0.0000E+00  0.0000E+00  0.0000E+00  0.0000E+00  0.0000E+00
    -21.961  0.0000E+00  0.0000E+00  0.0000E+00  0.0000E+00  0.0000E+00  0.0000E+00  0.0000E+00  0.0000E+00  0.0000E+00  0.0000E+00  0.0000E+00  0.0000E+00  0.0000E+00  0.0000E+00  0.0000E+00  0.0000E+00  0.0000E+00  0.0000E+00
    -21.827  0.0000E+00  0.0000E+00  0.0000E+00  0.0000E+00  0.0000E+00  0.0000E+00  0.0000E+00  0.0000E+00  0.0000E+00  0.0000E+00  0.0000E+00  0.0000E+00  0.0000E+00  0.0000E+00  0.0000E+00  0.0000E+00  0.0000E+00  0.0000E+00
    -21.694  0.0000E+00  0.0000E+00  0.0000E+00  0.0000E+00  0.0000E+00  0.0000E+00  0.0000E+00  0.0000E+00  0.0000E+00  0.0000E+00  0.0000E+00  0.0000E+00  0.0000E+00  0.0000E+00  0.0000E+00  0.0000E+00  0.0000E+00  0.0000E+00
    -21.560  0.0000E+00  0.0000E+00  0.0000E+00  0.0000E+00  0.0000E+00  0.0000E+00  0.0000E+00  0.0000E+00  0.0000E+00  0.0000E+00  0.0000E+00  0.0000E+00  0.0000E+00  0.0000E+00  0.0000E+00  0.0000E+00  0.0000E+00  0.0000E+00
    -21.426  0.0000E+00  0.0000E+00  0.0000E+00  0.0000E+00  0.0000E+00  0.0000E+00  0.0000E+00  0.0000E+00  0.0000E+00  0.0000E+00  0.0000E+00  0.0000E+00  0.0000E+00  0.0000E+00  0.0000E+00  0.0000E+00  0.0000E+00  0.0000E+00
    -21.293  0.0000E+00  0.0000E+00  0.0000E+00  0.0000E+00  0.0000E+00  0.0000E+00  0.0000E+00  0.0000E+00  0.0000E+00  0.0000E+00  0.0000E+00  0.0000E+00  0.0000E+00  0.0000E+00  0.0000E+00  0.0000E+00  0.0000E+00  0.0000E+00
    -21.159  0.0000E+00  0.0000E+00  0.0000E+00  0.0000E+00  0.0000E+00  0.0000E+00  0.0000E+00  0.0000E+00  0.0000E+00  0.0000E+00  0.0000E+00  0.0000E+00  0.0000E+00  0.0000E+00  0.0000E+00  0.0000E+00  0.0000E+00  0.0000E+00
    -21.026  0.0000E+00  0.0000E+00  0.0000E+00  0.0000E+00  0.0000E+00  0.0000E+00  0.0000E+00  0.0000E+00  0.0000E+00  0.0000E+00  0.0000E+00  0.0000E+00  0.0000E+00  0.0000E+00  0.0000E+00  0.0000E+00  0.0000E+00  0.0000E+00