   4   4   1   0
  0.1814210E+02  0.4170159E-09  0.4171551E-09  0.4171551E-09  0.5000000E-15
  1.000000000000000E-004
  CAR 
 unknown system                          
     14.22420492    -25.72394225  301      7.13277144      1.00000000
    -25.724  0.0000E+00  0.0000E+00  0.0000E+00  0.0000E+00
    -25.591  0.0000E+00  0.0000E+00  0.0000E+00  0.0000E+00
    -25.458  0.0000E+00  0.0000E+00  0.0000E+00  0.0000E+00
    -25.324  0.0000E+00  0.0000E+00  0.0000E+00  0.0000E+00
    -25.191  0.0000E+00  0.0000E+00  0.0000E+00  0.0000E+00
    -25.058  0.0000E+00  0.0000E+00  0.0000E+00  0.0000E+00
    -24.925  0.0000E+00  0.0000E+00  0.0000E+00  0.0000E+00
    -24.792  0.0000E+00  0.0000E+00  0.0000E+00  0.0000E+00
    -24.659  0.0000E+00  0.0000E+00  0.0000E+00  0.0000E+00
    -24.525  0.0000E+00  0.0000E+00  0.0000E+00  0.0000E+00
    -24.392  0.1016E-02  0.1016E-02  0.1353E-03  0.1353E-03
    -24.259  0.1355E-01  0.1355E-01  0.1940E-02  0.1939E-02
    -24.126  0.1925E+00  0.1925E+00  0.2758E-01  0.2757E-01
    -23.993  0.2429E+01  0.2428E+01  0.3510E+00  0.3509E+00
    -23.860  0.1202E+02  0.1202E+02  0.1951E+01  0.1951E+01
    -23.727  0.7052E+01  0.7054E+01  0.2890E+01  0.2890E+01
    -23.593  0.7639E+00  0.7642E+00  0.2992E+01  0.2992E+01
    -23.460  0.0000E+00  0.0000E+00  0.3000E+01  0.3000E+01
    -23.327  0.0000E+00  0.0000E+00  0.3000E+01  0.3000E+01
    -23.194  0.0000E+00  0.0000E+00  0.3000E+01  0.3000E+01
    -23.061  0.0000E+00  0.0000E+00  0.3000E+01  0.3000E+01
    -22.928  0.0000E+00  0.0000E+00  0.3000E+01  0.3000E+01
    -22.794  0.0000E+00  0.0000E+00  0.3000E+01  0.3000E+01
    -22.661  0.0000E+00  0.0000E+00  0.3000E+01  0.3000E+01
    -22.528  0.0000E+00  0.0000E+00  0.3000E+01  0.3000E+01
    -22.395  0.0000E+00  0.0000E+00  0.3000E+01  0.3000E+01
    -22.262  0.0000E+00  0.0000E+00  0.3000E+01  0.3000E+01
    -22.129  0.0000E+00  0.0000E+00  0.3000E+01  0.3000E+01
    -21.995  0.0000E+00  0.0000E+00  0.3000E+01  0.3000E+01
    -21.862  0.0000E+00  0.0000E+00  0.3000E+01  0.3000E+01
    -21.729  0.0000E+00  0.0000E+00  0.3000E+01  0.3000E+01
    -21.596  0.0000E+00  0.0000E+00  0.3000E+01  0.3000E+01
    -21.463  0.0000E+00  0.0000E+00  0.3000E+01  0.3000E+01
    -21.330  0.0000E+00  0.0000E+00  0.3000E+01  0.3000E+01
    -21.196  0.0000E+00  0.0000E+00  0.3000E+01  0.3000E+01
    -21.063  0.0000E+00  0.0000E+00  0.3000E+01  0.3000E+01
    -20.930  0.0000E+00  0.0000E+00  0.3000E+01  0.3000E+01
    -20.797  0.0000E+00  0.0000E+00  0.3000E+01  0.3000E+01
    -20.664  0.0000E+00  0.0000E+00  0.3000E+01  0.3000E+01
    -20.531  0.0000E+00  0.0000E+00  0.3000E+01  0.3000E+01
    -20.398  0.0000E+00  0.0000E+00  0.3000E+01  0.3000E+01
    -20.264  0.0000E+00  0.0000E+00  0.3000E+01  0.3000E+01
    -20.131  0.0000E+00  0.0000E+00  0.3000E+01  0.3000E+01
    -19.998  0.0000E+00  0.0000E+00  0.3000E+01  0.3000E+01
    -19.865  0.0000E+00  0.0000E+00  0.3000E+01  0.3000E+01
    -19.732  0.0000E+00  0.0000E+00  0.3000E+01  0.3000E+01
    -19.599  0.0000E+00  0.0000E+00  0.3000E+01  0.3000E+01
    -19.465  0.0000E+00  0.0000E+00  0.3000E+01  0.3000E+01
    -19.332  0.0000E+00  0.0000E+00  0.3000E+01  0.3000E+01
    -19.199  0.0000E+00  0.0000E+00  0.3000E+01  0.3000E+01
    -19.066  0.0000E+00  0.0000E+00  0.3000E+01  0.3000E+01
    -18.933  0.0000E+00  0.0000E+00  0.3000E+01  0.3000E+01
    -18.800  0.0000E+00  0.0000E+00  0.3000E+01  0.3000E+01
    -18.666  0.0000E+00  0.0000E+00  0.3000E+01  0.3000E+01
    -18.533  0.0000E+00  0.0000E+00  0.3000E+01  0.3000E+01
    -18.400  0.0000E+00  0.0000E+00  0.3000E+01  0.3000E+01
    -18.267  0.0000E+00  0.0000E+00  0.3000E+01  0.3000E+01
    -18.134  0.0000E+00  0.0000E+00  0.3000E+01  0.3000E+01
    -18.001  0.0000E+00  0.0000E+00  0.3000E+01  0.3000E+01
    -17.867  0.0000E+00  0.0000E+00  0.3000E+01  0.3000E+01
    -17.734  0.0000E+00  0.0000E+00  0.3000E+01  0.3000E+01
    -17.601  0.0000E+00  0.0000E+00  0.3000E+01  0.3000E+01
    -17.468  0.0000E+00  0.0000E+00  0.3000E+01  0.3000E+01
    -17.335  0.0000E+00  0.0000E+00  0.3000E+01  0.3000E+01
    -17.202  0.0000E+00  0.0000E+00  0.3000E+01  0.3000E+01
    -17.069  0.0000E+00  0.0000E+00  0.3000E+01  0.3000E+01
    -16.935  0.0000E+00  0.0000E+00  0.3000E+01  0.3000E+01
    -16.802  0.0000E+00  0.0000E+00  0.3000E+01  0.3000E+01
    -16.669  0.0000E+00  0.0000E+00  0.3000E+01  0.3000E+01
    -16.536  0.0000E+00  0.0000E+00  0.3000E+01  0.3000E+01
    -16.403  0.0000E+00  0.0000E+00  0.3000E+01  0.3000E+01
    -16.270  0.0000E+00  0.0000E+00  0.3000E+01  0.3000E+01
    -16.136  0.0000E+00  0.0000E+00  0.3000E+01  0.3000E+01
    -16.003  0.0000E+00  0.0000E+00  0.3000E+01  0.3000E+01
    -15.870  0.0000E+00  0.0000E+00  0.3000E+01  0.3000E+01
    -15.737  0.0000E+00  0.0000E+00  0.3000E+01  0.3000E+01
    -15.604  0.0000E+00  0.0000E+00  0.3000E+01  0.3000E+01
    -15.471  0.0000E+00  0.0000E+00  0.3000E+01  0.3000E+01
    -15.337  0.0000E+00  0.0000E+00  0.3000E+01  0.3000E+01
    -15.204  0.0000E+00  0.0000E+00  0.3000E+01  0.3000E+01
    -15.071  0.0000E+00  0.0000E+00  0.3000E+01  0.3000E+01
    -14.938  0.0000E+00  0.0000E+00  0.3000E+01  0.3000E+01
    -14.805  0.0000E+00  0.0000E+00  0.3000E+01  0.3000E+01
    -14.672  0.0000E+00  0.0000E+00  0.3000E+01  0.3000E+01
    -14.538  0.0000E+00  0.0000E+00  0.3000E+01  0.3000E+01
    -14.405  0.0000E+00  0.0000E+00  0.3000E+01  0.3000E+01
    -14.272  0.0000E+00  0.0000E+00  0.3000E+01  0.3000E+01
    -14.139  0.0000E+00  0.0000E+00  0.3000E+01  0.3000E+01
    -14.006  0.0000E+00  0.0000E+00  0.3000E+01  0.3000E+01
    -13.873  0.0000E+00  0.0000E+00  0.3000E+01  0.3000E+01
    -13.739  0.0000E+00  0.0000E+00  0.3000E+01  0.3000E+01
    -13.606  0.0000E+00  0.0000E+00  0.3000E+01  0.3000E+01
    -13.473  0.0000E+00  0.0000E+00  0.3000E+01  0.3000E+01
    -13.340  0.0000E+00  0.0000E+00  0.3000E+01  0.3000E+01
    -13.207  0.0000E+00  0.0000E+00  0.3000E+01  0.3000E+01
    -13.074  0.0000E+00  0.0000E+00  0.3000E+01  0.3000E+01
    -12.941  0.0000E+00  0.0000E+00  0.3000E+01  0.3000E+01
    -12.807  0.0000E+00  0.0000E+00  0.3000E+01  0.3000E+01
    -12.674  0.0000E+00  0.0000E+00  0.3000E+01  0.3000E+01
    -12.541  0.0000E+00  0.0000E+00  0.3000E+01  0.3000E+01
    -12.408  0.0000E+00  0.0000E+00  0.3000E+01  0.3000E+01
    -12.275  0.0000E+00  0.0000E+00  0.3000E+01  0.3000E+01
    -12.142  0.0000E+00  0.0000E+00  0.3000E+01  0.3000E+01
    -12.008  0.0000E+00  0.0000E+00  0.3000E+01  0.3000E+01
    -11.875  0.0000E+00  0.0000E+00  0.3000E+01  0.3000E+01
    -11.742  0.0000E+00  0.0000E+00  0.3000E+01  0.3000E+01
    -11.609  0.0000E+00  0.0000E+00  0.3000E+01  0.3000E+01
    -11.476  0.0000E+00  0.0000E+00  0.3000E+01  0.3000E+01
    -11.343  0.0000E+00  0.0000E+00  0.3000E+01  0.3000E+01
    -11.209  0.0000E+00  0.0000E+00  0.3000E+01  0.3000E+01
    -11.076  0.0000E+00  0.0000E+00  0.3000E+01  0.3000E+01
    -10.943  0.0000E+00  0.0000E+00  0.3000E+01  0.3000E+01
    -10.810  0.0000E+00  0.0000E+00  0.3000E+01  0.3000E+01
    -10.677  0.0000E+00  0.0000E+00  0.3000E+01  0.3000E+01
    -10.544  0.0000E+00  0.0000E+00  0.3000E+01  0.3000E+01
    -10.410  0.0000E+00  0.0000E+00  0.3000E+01  0.3000E+01
    -10.277  0.0000E+00  0.0000E+00  0.3000E+01  0.3000E+01
    -10.144  0.0000E+00  0.0000E+00  0.3000E+01  0.3000E+01
    -10.011  0.0000E+00  0.0000E+00  0.3000E+01  0.3000E+01
     -9.878  0.0000E+00  0.0000E+00  0.3000E+01  0.3000E+01
     -9.745  0.0000E+00  0.0000E+00  0.3000E+01  0.3000E+01
     -9.612  0.0000E+00  0.0000E+00  0.3000E+01  0.3000E+01
     -9.478  0.0000E+00  0.0000E+00  0.3000E+01  0.3000E+01
     -9.345  0.0000E+00  0.0000E+00  0.3000E+01  0.3000E+01
     -9.212  0.0000E+00  0.0000E+00  0.3000E+01  0.3000E+01
     -9.079  0.0000E+00  0.0000E+00  0.3000E+01  0.3000E+01
     -8.946  0.0000E+00  0.0000E+00  0.3000E+01  0.3000E+01
     -8.813  0.0000E+00  0.0000E+00  0.3000E+01  0.3000E+01
     -8.679  0.0000E+00  0.0000E+00  0.3000E+01  0.3000E+01
     -8.546  0.0000E+00  0.0000E+00  0.3000E+01  0.3000E+01
     -8.413  0.0000E+00  0.0000E+00  0.3000E+01  0.3000E+01
     -8.280  0.0000E+00  0.0000E+00  0.3000E+01  0.3000E+01
     -8.147  0.0000E+00  0.0000E+00  0.3000E+01  0.3000E+01
     -8.014  0.0000E+00  0.0000E+00  0.3000E+01  0.3000E+01
     -7.880  0.0000E+00  0.0000E+00  0.3000E+01  0.3000E+01
     -7.747  0.0000E+00  0.0000E+00  0.3000E+01  0.3000E+01
     -7.614  0.0000E+00  0.0000E+00  0.3000E+01  0.3000E+01
     -7.481  0.0000E+00  0.0000E+00  0.3000E+01  0.3000E+01
     -7.348  0.0000E+00  0.0000E+00  0.3000E+01  0.3000E+01
     -7.215  0.0000E+00  0.0000E+00  0.3000E+01  0.3000E+01
     -7.081  0.0000E+00  0.0000E+00  0.3000E+01  0.3000E+01
     -6.948  0.0000E+00  0.0000E+00  0.3000E+01  0.3000E+01
     -6.815  0.0000E+00  0.0000E+00  0.3000E+01  0.3000E+01
     -6.682  0.0000E+00  0.0000E+00  0.3000E+01  0.3000E+01
     -6.549  0.0000E+00  0.0000E+00  0.3000E+01  0.3000E+01
     -6.416  0.0000E+00  0.0000E+00  0.3000E+01  0.3000E+01
     -6.283  0.0000E+00  0.0000E+00  0.3000E+01  0.3000E+01
     -6.149  0.0000E+00  0.0000E+00  0.3000E+01  0.3000E+01
     -6.016  0.0000E+00  0.0000E+00  0.3000E+01  0.3000E+01
     -5.883  0.0000E+00  0.0000E+00  0.3000E+01  0.3000E+01
     -5.750  0.0000E+00  0.0000E+00  0.3000E+01  0.3000E+01
     -5.617  0.0000E+00  0.0000E+00  0.3000E+01  0.3000E+01
     -5.484  0.0000E+00  0.0000E+00  0.3000E+01  0.3000E+01
     -5.350  0.0000E+00  0.0000E+00  0.3000E+01  0.3000E+01
     -5.217  0.0000E+00  0.0000E+00  0.3000E+01  0.3000E+01
     -5.084  0.0000E+00  0.0000E+00  0.3000E+01  0.3000E+01
     -4.951  0.0000E+00  0.0000E+00  0.3000E+01  0.3000E+01
     -4.818  0.0000E+00  0.0000E+00  0.3000E+01  0.3000E+01
     -4.685  0.0000E+00  0.0000E+00  0.3000E+01  0.3000E+01
     -4.551  0.0000E+00  0.0000E+00  0.3000E+01  0.3000E+01
     -4.418  0.0000E+00  0.0000E+00  0.3000E+01  0.3000E+01
     -4.285  0.0000E+00  0.0000E+00  0.3000E+01  0.3000E+01
     -4.152  0.0000E+00  0.0000E+00  0.3000E+01  0.3000E+01
     -4.019  0.0000E+00  0.0000E+00  0.3000E+01  0.3000E+01
     -3.886  0.0000E+00  0.0000E+00  0.3000E+01  0.3000E+01
     -3.752  0.0000E+00  0.0000E+00  0.3000E+01  0.3000E+01
     -3.619  0.1396E-05  0.1383E-05  0.3000E+01  0.3000E+01
     -3.486  0.2894E-04  0.2866E-04  0.3000E+01  0.3000E+01
     -3.353  0.4176E-03  0.4136E-03  0.3000E+01  0.3000E+01
     -3.220  0.5244E-02  0.5200E-02  0.3001E+01  0.3001E+01
     -3.087  0.3427E-01  0.3410E-01  0.3005E+01  0.3005E+01
     -2.953  0.7722E-01  0.7707E-01  0.3016E+01  0.3016E+01
     -2.820  0.1199E+00  0.1198E+00  0.3032E+01  0.3032E+01
     -2.687  0.1292E+00  0.1291E+00  0.3049E+01  0.3049E+01
     -2.554  0.1747E+00  0.1746E+00  0.3072E+01  0.3072E+01
     -2.421  0.1819E+00  0.1818E+00  0.3096E+01  0.3096E+01
     -2.288  0.1847E+00  0.1847E+00  0.3121E+01  0.3121E+01
     -2.155  0.2382E+00  0.2380E+00  0.3153E+01  0.3153E+01
     -2.021  0.2561E+00  0.2561E+00  0.3187E+01  0.3187E+01
     -1.888  0.2167E+00  0.2169E+00  0.3216E+01  0.3216E+01
     -1.755  0.2767E+00  0.2763E+00  0.3253E+01  0.3252E+01
     -1.622  0.3242E+00  0.3243E+00  0.3296E+01  0.3296E+01
     -1.489  0.3008E+00  0.3010E+00  0.3336E+01  0.3336E+01
     -1.356  0.3021E+00  0.3018E+00  0.3376E+01  0.3376E+01
     -1.222  0.3521E+00  0.3522E+00  0.3423E+01  0.3423E+01
     -1.089  0.3579E+00  0.3577E+00  0.3471E+01  0.3471E+01
     -0.956  0.4420E+00  0.4417E+00  0.3530E+01  0.3530E+01
     -0.823  0.4194E+00  0.4196E+00  0.3586E+01  0.3586E+01
     -0.690  0.3410E+00  0.3413E+00  0.3631E+01  0.3631E+01
     -0.557  0.4098E+00  0.4093E+00  0.3686E+01  0.3686E+01
     -0.423  0.4747E+00  0.4748E+00  0.3749E+01  0.3749E+01
     -0.290  0.4404E+00  0.4404E+00  0.3808E+01  0.3808E+01
     -0.157  0.5016E+00  0.5014E+00  0.3875E+01  0.3875E+01
     -0.024  0.4380E+00  0.4383E+00  0.3933E+01  0.3933E+01
      0.109  0.4369E+00  0.4366E+00  0.3992E+01  0.3991E+01
      0.242  0.4582E+00  0.4585E+00  0.4053E+01  0.4052E+01
      0.376  0.4604E+00  0.4600E+00  0.4114E+01  0.4114E+01
      0.509  0.5453E+00  0.5456E+00  0.4187E+01  0.4187E+01
      0.642  0.3737E+00  0.3741E+00  0.4237E+01  0.4237E+01
      0.775  0.4534E+00  0.4527E+00  0.4297E+01  0.4297E+01
      0.908  0.4945E+00  0.4949E+00  0.4363E+01  0.4363E+01
      1.041  0.5044E+00  0.5040E+00  0.4430E+01  0.4430E+01
      1.174  0.6193E+00  0.6190E+00  0.4513E+01  0.4513E+01
      1.308  0.6050E+00  0.6051E+00  0.4594E+01  0.4593E+01
      1.441  0.7020E+00  0.7017E+00  0.4687E+01  0.4687E+01
      1.574  0.6957E+00  0.6956E+00  0.4780E+01  0.4780E+01
      1.707  0.7120E+00  0.7120E+00  0.4875E+01  0.4875E+01
      1.840  0.8156E+00  0.8152E+00  0.4984E+01  0.4983E+01
      1.973  0.7930E+00  0.7931E+00  0.5089E+01  0.5089E+01
      2.107  0.7547E+00  0.7552E+00  0.5190E+01  0.5190E+01
      2.240  0.6416E+00  0.6416E+00  0.5276E+01  0.5275E+01
      2.373  0.6825E+00  0.6822E+00  0.5367E+01  0.5366E+01
      2.506  0.6602E+00  0.6608E+00  0.5455E+01  0.5455E+01
      2.639  0.4387E+00  0.4391E+00  0.5513E+01  0.5513E+01
      2.772  0.5709E+00  0.5700E+00  0.5590E+01  0.5589E+01
      2.906  0.7010E+00  0.7010E+00  0.5683E+01  0.5683E+01
      3.039  0.7839E+00  0.7832E+00  0.5787E+01  0.5787E+01
      3.172  0.7508E+00  0.7515E+00  0.5888E+01  0.5887E+01
      3.305  0.6462E+00  0.6461E+00  0.5974E+01  0.5974E+01
      3.438  0.7330E+00  0.7326E+00  0.6072E+01  0.6071E+01
      3.571  0.9467E+00  0.9463E+00  0.6198E+01  0.6197E+01
      3.705  0.7563E+00  0.7570E+00  0.6299E+01  0.6298E+01
      3.838  0.7573E+00  0.7570E+00  0.6400E+01  0.6399E+01
      3.971  0.7921E+00  0.7920E+00  0.6505E+01  0.6505E+01
      4.104  0.9699E+00  0.9690E+00  0.6635E+01  0.6634E+01
      4.237  0.1117E+01  0.1116E+01  0.6783E+01  0.6783E+01
      4.370  0.1307E+01  0.1306E+01  0.6958E+01  0.6957E+01
      4.503  0.1405E+01  0.1405E+01  0.7145E+01  0.7144E+01
      4.637  0.1437E+01  0.1438E+01  0.7337E+01  0.7336E+01
      4.770  0.1398E+01  0.1397E+01  0.7523E+01  0.7523E+01
      4.903  0.1709E+01  0.1708E+01  0.7751E+01  0.7750E+01
      5.036  0.1435E+01  0.1436E+01  0.7942E+01  0.7942E+01
      5.169  0.1171E+01  0.1173E+01  0.8099E+01  0.8098E+01
      5.302  0.1057E+01  0.1057E+01  0.8240E+01  0.8239E+01
      5.436  0.8566E+00  0.8579E+00  0.8354E+01  0.8354E+01
      5.569  0.6990E+00  0.6990E+00  0.8447E+01  0.8447E+01
      5.702  0.7027E+00  0.7022E+00  0.8541E+01  0.8541E+01
      5.835  0.7304E+00  0.7308E+00  0.8639E+01  0.8638E+01
      5.968  0.6788E+00  0.6789E+00  0.8729E+01  0.8729E+01
      6.101  0.6348E+00  0.6353E+00  0.8814E+01  0.8814E+01
      6.235  0.5145E+00  0.5143E+00  0.8883E+01  0.8882E+01
      6.368  0.6651E+00  0.6646E+00  0.8971E+01  0.8971E+01
      6.501  0.7825E+00  0.7825E+00  0.9076E+01  0.9075E+01
      6.634  0.5137E+00  0.5150E+00  0.9144E+01  0.9144E+01
      6.767  0.4570E+00  0.4562E+00  0.9205E+01  0.9205E+01
      6.900  0.7190E+00  0.7181E+00  0.9301E+01  0.9301E+01
      7.034  0.8971E+00  0.8969E+00  0.9421E+01  0.9420E+01
      7.167  0.7915E+00  0.7918E+00  0.9526E+01  0.9526E+01
      7.300  0.9691E+00  0.9679E+00  0.9655E+01  0.9655E+01
      7.433  0.1120E+01  0.1120E+01  0.9805E+01  0.9804E+01
      7.566  0.1169E+01  0.1169E+01  0.9961E+01  0.9960E+01
      7.699  0.1280E+01  0.1279E+01  0.1013E+02  0.1013E+02
      7.833  0.1288E+01  0.1290E+01  0.1030E+02  0.1030E+02
      7.966  0.1215E+01  0.1214E+01  0.1047E+02  0.1046E+02
      8.099  0.1714E+01  0.1713E+01  0.1069E+02  0.1069E+02
      8.232  0.1700E+01  0.1701E+01  0.1092E+02  0.1092E+02
      8.365  0.1400E+01  0.1401E+01  0.1111E+02  0.1111E+02
      8.498  0.9826E+00  0.9826E+00  0.1124E+02  0.1124E+02
      8.631  0.1190E+01  0.1190E+01  0.1140E+02  0.1140E+02
      8.765  0.1075E+01  0.1076E+01  0.1154E+02  0.1154E+02
      8.898  0.1390E+01  0.1389E+01  0.1173E+02  0.1173E+02
      9.031  0.1460E+01  0.1460E+01  0.1192E+02  0.1192E+02
      9.164  0.1619E+01  0.1618E+01  0.1214E+02  0.1214E+02
      9.297  0.1738E+01  0.1739E+01  0.1237E+02  0.1237E+02
      9.430  0.1619E+01  0.1619E+01  0.1258E+02  0.1258E+02
      9.564  0.1550E+01  0.1550E+01  0.1279E+02  0.1279E+02
      9.697  0.1298E+01  0.1298E+01  0.1296E+02  0.1296E+02
      9.830  0.1066E+01  0.1067E+01  0.1311E+02  0.1311E+02
      9.963  0.1183E+01  0.1182E+01  0.1326E+02  0.1326E+02
     10.096  0.1298E+01  0.1299E+01  0.1344E+02  0.1344E+02
     10.229  0.1164E+01  0.1165E+01  0.1359E+02  0.1359E+02
     10.363  0.1055E+01  0.1055E+01  0.1373E+02  0.1373E+02
     10.496  0.1162E+01  0.1162E+01  0.1389E+02  0.1389E+02
     10.629  0.1014E+01  0.1014E+01  0.1402E+02  0.1402E+02
     10.762  0.1157E+01  0.1157E+01  0.1418E+02  0.1418E+02
     10.895  0.1323E+01  0.1322E+01  0.1435E+02  0.1435E+02
     11.028  0.1331E+01  0.1332E+01  0.1453E+02  0.1453E+02
     11.162  0.1236E+01  0.1236E+01  0.1470E+02  0.1470E+02
     11.295  0.1533E+01  0.1533E+01  0.1490E+02  0.1490E+02
     11.428  0.1843E+01  0.1842E+01  0.1515E+02  0.1515E+02
     11.561  0.1568E+01  0.1571E+01  0.1536E+02  0.1536E+02
     11.694  0.1270E+01  0.1271E+01  0.1553E+02  0.1553E+02
     11.827  0.1104E+01  0.1107E+01  0.1567E+02  0.1567E+02
     11.960  0.8416E+00  0.8470E+00  0.1579E+02  0.1579E+02
     12.094  0.6820E+00  0.6865E+00  0.1588E+02  0.1588E+02
     12.227  0.5936E+00  0.5879E+00  0.1596E+02  0.1596E+02
     12.360  0.2570E+00  0.2528E+00  0.1599E+02  0.1599E+02
     12.493  0.6182E-01  0.6025E-01  0.1600E+02  0.1600E+02
     12.626  0.7088E-02  0.6885E-02  0.1600E+02  0.1600E+02
     12.759  0.3211E-03  0.3213E-03  0.1600E+02  0.1600E+02
     12.893  0.0000E+00  0.0000E+00  0.1600E+02  0.1600E+02
     13.026  0.0000E+00  0.0000E+00  0.1600E+02  0.1600E+02
     13.159  0.0000E+00  0.0000E+00  0.1600E+02  0.1600E+02
     13.292  0.0000E+00  0.0000E+00  0.1600E+02  0.1600E+02
     13.425  0.0000E+00  0.0000E+00  0.1600E+02  0.1600E+02
     13.558  0.0000E+00  0.0000E+00  0.1600E+02  0.1600E+02
     13.692  0.0000E+00  0.0000E+00  0.1600E+02  0.1600E+02
     13.825  0.0000E+00  0.0000E+00  0.1600E+02  0.1600E+02
     13.958  0.0000E+00  0.0000E+00  0.1600E+02  0.1600E+02
     14.091  0.0000E+00  0.0000E+00  0.1600E+02  0.1600E+02
     14.224  0.0000E+00  0.0000E+00  0.1600E+02  0.1600E+02
     14.22420492    -25.72394225  301      7.13277144      1.00000000
    -25.724  0.0000E+00  0.0000E+00  0.0000E+00  0.0000E+00  0.0000E+00  0.0000E+00  0.0000E+00  0.0000E+00  0.0000E+00  0.0000E+00  0.0000E+00  0.0000E+00  0.0000E+00  0.0000E+00  0.0000E+00  0.0000E+00  0.0000E+00  0.0000E+00
    -25.591  0.0000E+00  0.0000E+00  0.0000E+00  0.0000E+00  0.0000E+00  0.0000E+00  0.0000E+00  0.0000E+00  0.0000E+00  0.0000E+00  0.0000E+00  0.0000E+00  0.0000E+00  0.0000E+00  0.0000E+00  0.0000E+00  0.0000E+00  0.0000E+00
    -25.458  0.0000E+00  0.0000E+00  0.0000E+00  0.0000E+00  0.0000E+00  0.0000E+00  0.0000E+00  0.0000E+00  0.0000E+00  0.0000E+00  0.0000E+00  0.0000E+00  0.0000E+00  0.0000E+00  0.0000E+00  0.0000E+00  0.0000E+00  0.0000E+00
    -25.324  0.0000E+00  0.0000E+00  0.0000E+00  0.0000E+00  0.0000E+00  0.0000E+00  0.0000E+00  0.0000E+00  0.0000E+00  0.0000E+00  0.0000E+00  0.0000E+00  0.0000E+00  0.0000E+00  0.0000E+00  0.0000E+00  0.0000E+00  0.0000E+00
    -25.191  0.0000E+00  0.0000E+00  0.0000E+00  0.0000E+00  0.0000E+00  0.0000E+00  0.0000E+00  0.0000E+00  0.0000E+00  0.0000E+00  0.0000E+00  0.0000E+00  0.0000E+00  0.0000E+00  0.0000E+00  0.0000E+00  0.0000E+00  0.0000E+00
    -25.058  0.0000E+00  0.0000E+00  0.0000E+00  0.0000E+00  0.0000E+00  0.0000E+00  0.0000E+00  0.0000E+00  0.0000E+00  0.0000E+00  0.0000E+00  0.0000E+00  0.0000E+00  0.0000E+00  0.0000E+00  0.0000E+00  0.0000E+00  0.0000E+00
    -24.925  0.0000E+00  0.0000E+00  0.0000E+00  0.0000E+00  0.0000E+00  0.0000E+00  0.0000E+00  0.0000E+00  0.0000E+00  0.0000E+00  0.0000E+00  0.0000E+00  0.0000E+00  0.0000E+00  0.0000E+00  0.0000E+00  0.0000E+00  0.0000E+00
    -24.792  0.0000E+00  0.0000E+00  0.0000E+00  0.0000E+00  0.0000E+00  0.0000E+00  0.0000E+00  0.0000E+00  0.0000E+00  0.0000E+00  0.0000E+00  0.0000E+00  0.0000E+00  0.0000E+00  0.0000E+00  0.0000E+00  0.0000E+00  0.0000E+00
    -24.659  0.0000E+00  0.0000E+00  0.0000E+00  0.0000E+00  0.0000E+00  0.0000E+00  0.0000E+00  0.0000E+00  0.0000E+00  0.0000E+00  0.0000E+00  0.0000E+00  0.0000E+00  0.0000E+00  0.0000E+00  0.0000E+00  0.0000E+00  0.0000E+00
    -24.525  0.0000E+00  0.0000E+00  0.0000E+00  0.0000E+00  0.0000E+00  0.0000E+00  0.0000E+00  0.0000E+00  0.0000E+00  0.0000E+00  0.0000E+00  0.0000E+00  0.0000E+00  0.0000E+00  0.0000E+00  0.0000E+00  0.0000E+00  0.0000E+00
    -24.392  0.2602E-09  0.2609E-09  0.3326E-03  0.3325E-03  0.3326E-03  0.3325E-03  0.3314E-03  0.3313E-03  0.9075E-11  0.9134E-11  0.9051E-11  0.9110E-11  0.1987E-09  0.1991E-09  0.9075E-11  0.9134E-11  0.2038E-09  0.2042E-09
    -24.259  0.3470E-08  0.3479E-08  0.4435E-02  0.4433E-02  0.4435E-02  0.4433E-02  0.4419E-02  0.4417E-02  0.1210E-09  0.1218E-09  0.1207E-09  0.1215E-09  0.2649E-08  0.2654E-08  0.1210E-09  0.1218E-09  0.2718E-08  0.2723E-08
    -24.126  0.4930E-07  0.4943E-07  0.6300E-01  0.6298E-01  0.6300E-01  0.6298E-01  0.6278E-01  0.6275E-01  0.1718E-08  0.1729E-08  0.1713E-08  0.1725E-08  0.3764E-07  0.3772E-07  0.1718E-08  0.1729E-08  0.3862E-07  0.3870E-07
    -23.993  0.6232E-06  0.6249E-06  0.7947E+00  0.7944E+00  0.7947E+00  0.7944E+00  0.7922E+00  0.7919E+00  0.2154E-07  0.2168E-07  0.2148E-07  0.2162E-07  0.4770E-06  0.4779E-06  0.2154E-07  0.2168E-07  0.4884E-06  0.4894E-06
    -23.860  0.3094E-05  0.3104E-05  0.3930E+01  0.3929E+01  0.3930E+01  0.3929E+01  0.3926E+01  0.3926E+01  0.1030E-06  0.1037E-06  0.1025E-06  0.1033E-06  0.2398E-05  0.2404E-05  0.1030E-06  0.1037E-06  0.2431E-05  0.2436E-05
    -23.727  0.1796E-05  0.1802E-05  0.2304E+01  0.2304E+01  0.2304E+01  0.2304E+01  0.2309E+01  0.2310E+01  0.5760E-07  0.5803E-07  0.5729E-07  0.5772E-07  0.1415E-05  0.1419E-05  0.5760E-07  0.5803E-07  0.1415E-05  0.1419E-05
    -23.593  0.1925E-06  0.1932E-06  0.2495E+00  0.2495E+00  0.2495E+00  0.2495E+00  0.2504E+00  0.2505E+00  0.6117E-08  0.6164E-08  0.6080E-08  0.6128E-08  0.1528E-06  0.1532E-06  0.6117E-08  0.6164E-08  0.1519E-06  0.1523E-06
    -23.460  0.0000E+00  0.0000E+00  0.0000E+00  0.0000E+00  0.0000E+00  0.0000E+00  0.0000E+00  0.0000E+00  0.0000E+00  0.0000E+00  0.0000E+00  0.0000E+00  0.0000E+00  0.0000E+00  0.0000E+00  0.0000E+00  0.0000E+00  0.0000E+00
    -23.327  0.0000E+00  0.0000E+00  0.0000E+00  0.0000E+00  0.0000E+00  0.0000E+00  0.0000E+00  0.0000E+00  0.0000E+00  0.0000E+00  0.0000E+00  0.0000E+00  0.0000E+00  0.0000E+00  0.0000E+00  0.0000E+00  0.0000E+00  0.0000E+00
    -23.194  0.0000E+00  0.0000E+00  0.0000E+00  0.0000E+00  0.0000E+00  0.0000E+00  0.0000E+00  0.0000E+00  0.0000E+00  0.0000E+00  0.0000E+00  0.0000E+00  0.0000E+00  0.0000E+00  0.0000E+00  0.0000E+00  0.0000E+00  0.0000E+00
    -23.061  0.0000E+00  0.0000E+00  0.0000E+00  0.0000E+00  0.0000E+00  0.0000E+00  0.0000E+00  0.0000E+00  0.0000E+00  0.0000E+00  0.0000E+00  0.0000E+00  0.0000E+00  0.0000E+00  0.0000E+00  0.0000E+00  0.0000E+00  0.0000E+00
    -22.928  0.0000E+00  0.0000E+00  0.0000E+00  0.0000E+00  0.0000E+00  0.0000E+00  0.0000E+00  0.0000E+00  0.0000E+00  0.0000E+00  0.0000E+00  0.0000E+00  0.0000E+00  0.0000E+00  0.0000E+00  0.0000E+00  0.0000E+00  0.0000E+00
    -22.794  0.0000E+00  0.0000E+00  0.0000E+00  0.0000E+00  0.0000E+00  0.0000E+00  0.0000E+00  0.0000E+00  0.0000E+00  0.0000E+00  0.0000E+00  0.0000E+00  0.0000E+00  0.0000E+00  0.0000E+00  0.0000E+00  0.0000E+00  0.0000E+00
    -22.661  0.0000E+00  0.0000E+00  0.0000E+00  0.0000E+00  0.0000E+00  0.0000E+00  0.0000E+00  0.0000E+00  0.0000E+00  0.0000E+00  0.0000E+00  0.0000E+00  0.0000E+00  0.0000E+00  0.0000E+00  0.0000E+00  0.0000E+00  0.0000E+00
    -22.528  0.0000E+00  0.0000E+00  0.0000E+00  0.0000E+00  0.0000E+00  0.0000E+00  0.0000E+00  0.0000E+00  0.0000E+00  0.0000E+00  0.0000E+00  0.0000E+00  0.0000E+00  0.0000E+00  0.0000E+00  0.0000E+00  0.0000E+00  0.0000E+00
    -22.395  0.0000E+00  0.0000E+00  0.0000E+00  0.0000E+00  0.0000E+00  0.0000E+00  0.0000E+00  0.0000E+00  0.0000E+00  0.0000E+00  0.0000E+00  0.0000E+00  0.0000E+00  0.0000E+00  0.0000E+00  0.0000E+00  0.0000E+00  0.0000E+00
    -22.262  0.0000E+00  0.0000E+00  0.0000E+00  0.0000E+00  0.0000E+00  0.0000E+00  0.0000E+00  0.0000E+00  0.0000E+00  0.0000E+00  0.0000E+00  0.0000E+00  0.0000E+00  0.0000E+00  0.0000E+00  0.0000E+00  0.0000E+00  0.0000E+00
    -22.129  0.0000E+00  0.0000E+00  0.0000E+00  0.0000E+00  0.0000E+00  0.0000E+00  0.0000E+00  0.0000E+00  0.0000E+00  0.0000E+00  0.0000E+00  0.0000E+00  0.0000E+00  0.0000E+00  0.0000E+00  0.0000E+00  0.0000E+00  0.0000E+00
    -21.995  0.0000E+00  0.0000E+00  0.0000E+00  0.0000E+00  0.0000E+00  0.0000E+00  0.0000E+00  0.0000E+00  0.0000E+00  0.0000E+00  0.0000E+00  0.0000E+00  0.0000E+00  0.0000E+00  0.0000E+00  0.0000E+00  0.0000E+00  0.0000E+00
    -21.862  0.0000E+00  0.0000E+00  0.0000E+00  0.0000E+00  0.0000E+00  0.0000E+00  0.0000E+00  0.0000E+00  0.0000E+00  0.0000E+00  0.0000E+00  0.0000E+00  0.0000E+00  0.0000E+00  0.0000E+00  0.0000E+00  0.0000E+00  0.0000E+00
    -21.729  0.0000E+00  0.0000E+00  0.0000E+00  0.0000E+00  0.0000E+00  0.0000E+00  0.0000E+00  0.0000E+00  0.0000E+00  0.0000E+00  0.0000E+00  0.0000E+00  0.0000E+00  0.0000E+00  0.0000E+00  0.0000E+00  0.0000E+00  0.0000E+00
    -21.596  0.0000E+00  0.0000E+00  0.0000E+00  0.0000E+00  0.0000E+00  0.0000E+00  0.0000E+00  0.0000E+00  0.0000E+00  0.0000E+00  0.0000E+00  0.0000E+00  0.0000E+00  0.0000E+00  0.0000E+00  0.0000E+00  0.0000E+00  0.0000E+00
    -21.463  0.0000E+00  0.0000E+00  0.0000E+00  0.0000E+00  0.0000E+00  0.0000E+00  0.0000E+00  0.0000E+00  0.0000E+00  0.0000E+00  0.0000E+00  0.0000E+00  0.0000E+00  0.0000E+00  0.0000E+00  0.0000E+00  0.0000E+00  0.0000E+00
    -21.330  0.0000E+00  0.0000E+00  0.0000E+00  0.0000E+00  0.0000E+00  0.0000E+00  0.0000E+00  0.0000E+00  0.0000E+00  0.0000E+00  0.0000E+00  0.0000E+00  0.0000E+00  0.0000E+00  0.0000E+00  0.0000E+00  0.0000E+00  0.0000E+00
    -21.196  0.0000E+00  0.0000E+00  0.0000E+00  0.0000E+00  0.0000E+00  0.0000E+00  0.0000E+00  0.0000E+00  0.0000E+00  0.0000E+00  0.0000E+00  0.0000E+00  0.0000E+00  0.0000E+00  0.0000E+00  0.0000E+00  0.0000E+00  0.0000E+00
    -21.063  0.0000E+00  0.0000E+00  0.0000E+00  0.0000E+00  0.0000E+00  0.0000E+00  0.0000E+00  0.0000E+00  0.0000E+00  0.0000E+00  0.0000E+00  0.0000E+00  0.0000E+00  0.0000E+00  0.0000E+00  0.0000E+00  0.0000E+00  0.0000E+00
    -20.930  0.0000E+00  0.0000E+00  0.0000E+00  0.0000E+00  0.0000E+00  0.0000E+00  0.0000E+00  0.0000E+00  0.0000E+00  0.0000E+00  0.0000E+00  0.0000E+00  0.0000E+00  0.0000E+00  0.0000E+00  0.0000E+00  0.0000E+00  0.0000E+00
    -20.797  0.0000E+00  0.0000E+00  0.0000E+00  0.0000E+00  0.0000E+00  0.0000E+00  0.0000E+00  0.0000E+00  0.0000E+00  0.0000E+00  0.0000E+00  0.0000E+00  0.0000E+00  0.0000E+00  0.0000E+00  0.0000E+00  0.0000E+00  0.0000E+00
    -20.664  0.0000E+00  0.0000E+00  0.0000E+00  0.0000E+00  0.0000E+00  0.0000E+00  0.0000E+00  0.0000E+00  0.0000E+00  0.0000E+00  0.0000E+00  0.0000E+00  0.0000E+00  0.0000E+00  0.0000E+00  0.0000E+00  0.0000E+00  0.0000E+00
    -20.531  0.0000E+00  0.0000E+00  0.0000E+00  0.0000E+00  0.0000E+00  0.0000E+00  0.0000E+00  0.0000E+00  0.0000E+00  0.0000E+00  0.0000E+00  0.0000E+00  0.0000E+00  0.0000E+00  0.0000E+00  0.0000E+00  0.0000E+00  0.0000E+00
    -20.398  0.0000E+00  0.0000E+00  0.0000E+00  0.0000E+00  0.0000E+00  0.0000E+00  0.0000E+00  0.0000E+00  0.0000E+00  0.0000E+00  0.0000E+00  0.0000E+00  0.0000E+00  0.0000E+00  0.0000E+00  0.0000E+00  0.0000E+00  0.0000E+00
    -20.264  0.0000E+00  0.0000E+00  0.0000E+00  0.0000E+00  0.0000E+00  0.0000E+00  0.0000E+00  0.0000E+00  0.0000E+00  0.0000E+00  0.0000E+00  0.0000E+00  0.0000E+00  0.0000E+00  0.0000E+00  0.0000E+00  0.0000E+00  0.0000E+00
    -20.131  0.0000E+00  0.0000E+00  0.0000E+00  0.0000E+00  0.0000E+00  0.0000E+00  0.0000E+00  0.0000E+00  0.0000E+00  0.0000E+00  0.0000E+00  0.0000E+00  0.0000E+00  0.0000E+00  0.0000E+00  0.0000E+00  0.0000E+00  0.0000E+00
    -19.998  0.0000E+00  0.0000E+00  0.0000E+00  0.0000E+00  0.0000E+00  0.0000E+00  0.0000E+00  0.0000E+00  0.0000E+00  0.0000E+00  0.0000E+00  0.0000E+00  0.0000E+00  0.0000E+00  0.0000E+00  0.0000E+00  0.0000E+00  0.0000E+00
    -19.865  0.0000E+00  0.0000E+00  0.0000E+00  0.0000E+00  0.0000E+00  0.0000E+00  0.0000E+00  0.0000E+00  0.0000E+00  0.0000E+00  0.0000E+00  0.0000E+00  0.0000E+00  0.0000E+00  0.0000E+00  0.0000E+00  0.0000E+00  0.0000E+00
    -19.732  0.0000E+00  0.0000E+00  0.0000E+00  0.0000E+00  0.0000E+00  0.0000E+00  0.0000E+00  0.0000E+00  0.0000E+00  0.0000E+00  0.0000E+00  0.0000E+00  0.0000E+00  0.0000E+00  0.0000E+00  0.0000E+00  0.0000E+00  0.0000E+00
    -19.599  0.0000E+00  0.0000E+00  0.0000E+00  0.0000E+00  0.0000E+00  0.0000E+00  0.0000E+00  0.0000E+00  0.0000E+00  0.0000E+00  0.0000E+00  0.0000E+00  0.0000E+00  0.0000E+00  0.0000E+00  0.0000E+00  0.0000E+00  0.0000E+00
    -19.465  0.0000E+00  0.0000E+00  0.0000E+00  0.0000E+00  0.0000E+00  0.0000E+00  0.0000E+00  0.0000E+00  0.0000E+00  0.0000E+00  0.0000E+00  0.0000E+00  0.0000E+00  0.0000E+00  0.0000E+00  0.0000E+00  0.0000E+00  0.0000E+00
    -19.332  0.0000E+00  0.0000E+00  0.0000E+00  0.0000E+00  0.0000E+00  0.0000E+00  0.0000E+00  0.0000E+00  0.0000E+00  0.0000E+00  0.0000E+00  0.0000E+00  0.0000E+00  0.0000E+00  0.0000E+00  0.0000E+00  0.0000E+00  0.0000E+00
    -19.199  0.0000E+00  0.0000E+00  0.0000E+00  0.0000E+00  0.0000E+00  0.0000E+00  0.0000E+00  0.0000E+00  0.0000E+00  0.0000E+00  0.0000E+00  0.0000E+00  0.0000E+00  0.0000E+00  0.0000E+00  0.0000E+00  0.0000E+00  0.0000E+00
    -19.066  0.0000E+00  0.0000E+00  0.0000E+00  0.0000E+00  0.0000E+00  0.0000E+00  0.0000E+00  0.0000E+00  0.0000E+00  0.0000E+00  0.0000E+00  0.0000E+00  0.0000E+00  0.0000E+00  0.0000E+00  0.0000E+00  0.0000E+00  0.0000E+00