   8   8   1   0
  0.9192797E+01  0.4189664E-09  0.4189664E-09  0.4189664E-09  0.5000000E-15
  1.000000000000000E-004
  CAR 
 unknown system                          
     17.28578612    -24.80707146  301      9.98166104      1.00000000
    -24.807  0.0000E+00  0.0000E+00  0.0000E+00  0.0000E+00
    -24.667  0.0000E+00  0.0000E+00  0.0000E+00  0.0000E+00
    -24.526  0.0000E+00  0.0000E+00  0.0000E+00  0.0000E+00
    -24.386  0.0000E+00  0.0000E+00  0.0000E+00  0.0000E+00
    -24.246  0.0000E+00  0.0000E+00  0.0000E+00  0.0000E+00
    -24.106  0.0000E+00  0.0000E+00  0.0000E+00  0.0000E+00
    -23.965  0.0000E+00  0.0000E+00  0.0000E+00  0.0000E+00
    -23.825  0.0000E+00  0.0000E+00  0.0000E+00  0.0000E+00
    -23.685  0.0000E+00  0.0000E+00  0.0000E+00  0.0000E+00
    -23.544  0.0000E+00  0.0000E+00  0.0000E+00  0.0000E+00
    -23.404  0.5064E-04  0.5058E-04  0.7106E-05  0.7097E-05
    -23.264  0.8929E-03  0.8918E-03  0.1324E-03  0.1322E-03
    -23.123  0.1537E-01  0.1535E-01  0.2289E-02  0.2286E-02
    -22.983  0.2229E+00  0.2227E+00  0.3356E-01  0.3353E-01
    -22.843  0.1341E+01  0.1341E+01  0.2218E+00  0.2216E+00
    -22.702  0.3790E+01  0.3788E+01  0.7535E+00  0.7531E+00
    -22.562  0.7887E+01  0.7886E+01  0.1860E+01  0.1860E+01
    -22.422  0.7052E+01  0.7053E+01  0.2850E+01  0.2849E+01
    -22.282  0.4891E+01  0.4892E+01  0.3538E+01  0.3538E+01
    -22.141  0.3672E+01  0.3672E+01  0.4055E+01  0.4055E+01
    -22.001  0.5403E+01  0.5402E+01  0.4814E+01  0.4814E+01
    -21.861  0.7595E+01  0.7594E+01  0.5881E+01  0.5881E+01
    -21.720  0.1050E+02  0.1050E+02  0.7356E+01  0.7355E+01
    -21.580  0.1212E+02  0.1212E+02  0.9057E+01  0.9057E+01
    -21.440  0.1218E+02  0.1218E+02  0.1077E+02  0.1077E+02
    -21.299  0.7131E+01  0.7134E+01  0.1177E+02  0.1177E+02
    -21.159  0.1475E+01  0.1476E+01  0.1198E+02  0.1198E+02
    -21.019  0.9874E-01  0.9885E-01  0.1200E+02  0.1200E+02
    -20.878  0.0000E+00  0.0000E+00  0.1200E+02  0.1200E+02
    -20.738  0.0000E+00  0.0000E+00  0.1200E+02  0.1200E+02
    -20.598  0.0000E+00  0.0000E+00  0.1200E+02  0.1200E+02
    -20.457  0.0000E+00  0.0000E+00  0.1200E+02  0.1200E+02
    -20.317  0.0000E+00  0.0000E+00  0.1200E+02  0.1200E+02
    -20.177  0.0000E+00  0.0000E+00  0.1200E+02  0.1200E+02
    -20.037  0.0000E+00  0.0000E+00  0.1200E+02  0.1200E+02
    -19.896  0.0000E+00  0.0000E+00  0.1200E+02  0.1200E+02
    -19.756  0.0000E+00  0.0000E+00  0.1200E+02  0.1200E+02
    -19.616  0.0000E+00  0.0000E+00  0.1200E+02  0.1200E+02
    -19.475  0.0000E+00  0.0000E+00  0.1200E+02  0.1200E+02
    -19.335  0.0000E+00  0.0000E+00  0.1200E+02  0.1200E+02
    -19.195  0.0000E+00  0.0000E+00  0.1200E+02  0.1200E+02
    -19.054  0.0000E+00  0.0000E+00  0.1200E+02  0.1200E+02
    -18.914  0.0000E+00  0.0000E+00  0.1200E+02  0.1200E+02
    -18.774  0.0000E+00  0.0000E+00  0.1200E+02  0.1200E+02
    -18.633  0.0000E+00  0.0000E+00  0.1200E+02  0.1200E+02
    -18.493  0.0000E+00  0.0000E+00  0.1200E+02  0.1200E+02
    -18.353  0.0000E+00  0.0000E+00  0.1200E+02  0.1200E+02
    -18.213  0.0000E+00  0.0000E+00  0.1200E+02  0.1200E+02
    -18.072  0.0000E+00  0.0000E+00  0.1200E+02  0.1200E+02
    -17.932  0.0000E+00  0.0000E+00  0.1200E+02  0.1200E+02
    -17.792  0.0000E+00  0.0000E+00  0.1200E+02  0.1200E+02
    -17.651  0.0000E+00  0.0000E+00  0.1200E+02  0.1200E+02
    -17.511  0.0000E+00  0.0000E+00  0.1200E+02  0.1200E+02
    -17.371  0.0000E+00  0.0000E+00  0.1200E+02  0.1200E+02
    -17.230  0.0000E+00  0.0000E+00  0.1200E+02  0.1200E+02
    -17.090  0.0000E+00  0.0000E+00  0.1200E+02  0.1200E+02
    -16.950  0.0000E+00  0.0000E+00  0.1200E+02  0.1200E+02
    -16.809  0.0000E+00  0.0000E+00  0.1200E+02  0.1200E+02
    -16.669  0.0000E+00  0.0000E+00  0.1200E+02  0.1200E+02
    -16.529  0.0000E+00  0.0000E+00  0.1200E+02  0.1200E+02
    -16.388  0.0000E+00  0.0000E+00  0.1200E+02  0.1200E+02
    -16.248  0.0000E+00  0.0000E+00  0.1200E+02  0.1200E+02
    -16.108  0.0000E+00  0.0000E+00  0.1200E+02  0.1200E+02
    -15.968  0.0000E+00  0.0000E+00  0.1200E+02  0.1200E+02
    -15.827  0.0000E+00  0.0000E+00  0.1200E+02  0.1200E+02
    -15.687  0.0000E+00  0.0000E+00  0.1200E+02  0.1200E+02
    -15.547  0.0000E+00  0.0000E+00  0.1200E+02  0.1200E+02
    -15.406  0.0000E+00  0.0000E+00  0.1200E+02  0.1200E+02
    -15.266  0.0000E+00  0.0000E+00  0.1200E+02  0.1200E+02
    -15.126  0.0000E+00  0.0000E+00  0.1200E+02  0.1200E+02
    -14.985  0.0000E+00  0.0000E+00  0.1200E+02  0.1200E+02
    -14.845  0.0000E+00  0.0000E+00  0.1200E+02  0.1200E+02
    -14.705  0.0000E+00  0.0000E+00  0.1200E+02  0.1200E+02
    -14.564  0.0000E+00  0.0000E+00  0.1200E+02  0.1200E+02
    -14.424  0.0000E+00  0.0000E+00  0.1200E+02  0.1200E+02
    -14.284  0.0000E+00  0.0000E+00  0.1200E+02  0.1200E+02
    -14.144  0.0000E+00  0.0000E+00  0.1200E+02  0.1200E+02
    -14.003  0.0000E+00  0.0000E+00  0.1200E+02  0.1200E+02
    -13.863  0.0000E+00  0.0000E+00  0.1200E+02  0.1200E+02
    -13.723  0.0000E+00  0.0000E+00  0.1200E+02  0.1200E+02
    -13.582  0.0000E+00  0.0000E+00  0.1200E+02  0.1200E+02
    -13.442  0.0000E+00  0.0000E+00  0.1200E+02  0.1200E+02
    -13.302  0.0000E+00  0.0000E+00  0.1200E+02  0.1200E+02
    -13.161  0.0000E+00  0.0000E+00  0.1200E+02  0.1200E+02
    -13.021  0.0000E+00  0.0000E+00  0.1200E+02  0.1200E+02
    -12.881  0.0000E+00  0.0000E+00  0.1200E+02  0.1200E+02
    -12.740  0.0000E+00  0.0000E+00  0.1200E+02  0.1200E+02
    -12.600  0.0000E+00  0.0000E+00  0.1200E+02  0.1200E+02
    -12.460  0.0000E+00  0.0000E+00  0.1200E+02  0.1200E+02
    -12.320  0.0000E+00  0.0000E+00  0.1200E+02  0.1200E+02
    -12.179  0.0000E+00  0.0000E+00  0.1200E+02  0.1200E+02
    -12.039  0.0000E+00  0.0000E+00  0.1200E+02  0.1200E+02
    -11.899  0.0000E+00  0.0000E+00  0.1200E+02  0.1200E+02
    -11.758  0.0000E+00  0.0000E+00  0.1200E+02  0.1200E+02
    -11.618  0.0000E+00  0.0000E+00  0.1200E+02  0.1200E+02
    -11.478  0.0000E+00  0.0000E+00  0.1200E+02  0.1200E+02
    -11.337  0.0000E+00  0.0000E+00  0.1200E+02  0.1200E+02
    -11.197  0.0000E+00  0.0000E+00  0.1200E+02  0.1200E+02
    -11.057  0.0000E+00  0.0000E+00  0.1200E+02  0.1200E+02
    -10.916  0.0000E+00  0.0000E+00  0.1200E+02  0.1200E+02
    -10.776  0.0000E+00  0.0000E+00  0.1200E+02  0.1200E+02
    -10.636  0.0000E+00  0.0000E+00  0.1200E+02  0.1200E+02
    -10.495  0.0000E+00  0.0000E+00  0.1200E+02  0.1200E+02
    -10.355  0.0000E+00  0.0000E+00  0.1200E+02  0.1200E+02
    -10.215  0.0000E+00  0.0000E+00  0.1200E+02  0.1200E+02
    -10.075  0.0000E+00  0.0000E+00  0.1200E+02  0.1200E+02
     -9.934  0.0000E+00  0.0000E+00  0.1200E+02  0.1200E+02
     -9.794  0.0000E+00  0.0000E+00  0.1200E+02  0.1200E+02
     -9.654  0.0000E+00  0.0000E+00  0.1200E+02  0.1200E+02
     -9.513  0.0000E+00  0.0000E+00  0.1200E+02  0.1200E+02
     -9.373  0.0000E+00  0.0000E+00  0.1200E+02  0.1200E+02
     -9.233  0.0000E+00  0.0000E+00  0.1200E+02  0.1200E+02
     -9.092  0.0000E+00  0.0000E+00  0.1200E+02  0.1200E+02
     -8.952  0.0000E+00  0.0000E+00  0.1200E+02  0.1200E+02
     -8.812  0.0000E+00  0.0000E+00  0.1200E+02  0.1200E+02
     -8.671  0.0000E+00  0.0000E+00  0.1200E+02  0.1200E+02
     -8.531  0.0000E+00  0.0000E+00  0.1200E+02  0.1200E+02
     -8.391  0.0000E+00  0.0000E+00  0.1200E+02  0.1200E+02
     -8.251  0.0000E+00  0.0000E+00  0.1200E+02  0.1200E+02
     -8.110  0.0000E+00  0.0000E+00  0.1200E+02  0.1200E+02
     -7.970  0.0000E+00  0.0000E+00  0.1200E+02  0.1200E+02
     -7.830  0.0000E+00  0.0000E+00  0.1200E+02  0.1200E+02
     -7.689  0.0000E+00  0.0000E+00  0.1200E+02  0.1200E+02
     -7.549  0.0000E+00  0.0000E+00  0.1200E+02  0.1200E+02
     -7.409  0.0000E+00  0.0000E+00  0.1200E+02  0.1200E+02
     -7.268  0.0000E+00  0.0000E+00  0.1200E+02  0.1200E+02
     -7.128  0.0000E+00  0.0000E+00  0.1200E+02  0.1200E+02
     -6.988  0.0000E+00  0.0000E+00  0.1200E+02  0.1200E+02
     -6.847  0.0000E+00  0.0000E+00  0.1200E+02  0.1200E+02
     -6.707  0.0000E+00  0.0000E+00  0.1200E+02  0.1200E+02
     -6.567  0.0000E+00  0.0000E+00  0.1200E+02  0.1200E+02
     -6.427  0.0000E+00  0.0000E+00  0.1200E+02  0.1200E+02
     -6.286  0.0000E+00  0.0000E+00  0.1200E+02  0.1200E+02
     -6.146  0.0000E+00  0.0000E+00  0.1200E+02  0.1200E+02
     -6.006  0.0000E+00  0.0000E+00  0.1200E+02  0.1200E+02
     -5.865  0.0000E+00  0.0000E+00  0.1200E+02  0.1200E+02
     -5.725  0.0000E+00  0.0000E+00  0.1200E+02  0.1200E+02
     -5.585  0.0000E+00  0.0000E+00  0.1200E+02  0.1200E+02
     -5.444  0.0000E+00  0.0000E+00  0.1200E+02  0.1200E+02
     -5.304  0.1081E-04  0.1083E-04  0.1200E+02  0.1200E+02
     -5.164  0.1676E-03  0.1678E-03  0.1200E+02  0.1200E+02
     -5.023  0.2637E-02  0.2640E-02  0.1200E+02  0.1200E+02
     -4.883  0.2357E-01  0.2359E-01  0.1200E+02  0.1200E+02
     -4.743  0.2745E-01  0.2744E-01  0.1201E+02  0.1201E+02
     -4.602  0.1208E-01  0.1209E-01  0.1201E+02  0.1201E+02
     -4.462  0.9777E-01  0.9786E-01  0.1202E+02  0.1202E+02
     -4.322  0.1960E+00  0.1959E+00  0.1205E+02  0.1205E+02
     -4.182  0.5191E-01  0.5188E-01  0.1206E+02  0.1206E+02
     -4.041  0.1778E+00  0.1779E+00  0.1208E+02  0.1208E+02
     -3.901  0.4465E+00  0.4465E+00  0.1215E+02  0.1215E+02
     -3.761  0.2110E+00  0.2109E+00  0.1217E+02  0.1218E+02
     -3.620  0.2932E+00  0.2935E+00  0.1222E+02  0.1222E+02
     -3.480  0.8767E+00  0.8771E+00  0.1234E+02  0.1234E+02
     -3.340  0.6535E+00  0.6530E+00  0.1243E+02  0.1243E+02
     -3.199  0.8119E+00  0.8130E+00  0.1254E+02  0.1255E+02
     -3.059  0.1755E+01  0.1755E+01  0.1279E+02  0.1279E+02
     -2.919  0.1278E+01  0.1277E+01  0.1297E+02  0.1297E+02
     -2.778  0.1421E+01  0.1422E+01  0.1317E+02  0.1317E+02
     -2.638  0.2254E+01  0.2254E+01  0.1349E+02  0.1349E+02
     -2.498  0.1393E+01  0.1393E+01  0.1368E+02  0.1368E+02
     -2.358  0.2013E+01  0.2014E+01  0.1397E+02  0.1397E+02
     -2.217  0.1644E+01  0.1644E+01  0.1420E+02  0.1420E+02
     -2.077  0.1808E+01  0.1809E+01  0.1445E+02  0.1445E+02
     -1.937  0.1637E+01  0.1635E+01  0.1468E+02  0.1468E+02
     -1.796  0.1399E+01  0.1400E+01  0.1488E+02  0.1488E+02
     -1.656  0.1666E+01  0.1665E+01  0.1511E+02  0.1511E+02
     -1.516  0.8507E+00  0.8510E+00  0.1523E+02  0.1523E+02
     -1.375  0.1961E+01  0.1962E+01  0.1551E+02  0.1551E+02
     -1.235  0.1397E+01  0.1395E+01  0.1571E+02  0.1571E+02
     -1.095  0.2866E+00  0.2860E+00  0.1575E+02  0.1575E+02
     -0.954  0.2312E+00  0.2313E+00  0.1578E+02  0.1578E+02
     -0.814  0.1966E+00  0.1965E+00  0.1581E+02  0.1581E+02
     -0.674  0.1424E+00  0.1427E+00  0.1583E+02  0.1583E+02
     -0.534  0.7382E+00  0.7388E+00  0.1593E+02  0.1593E+02
     -0.393  0.4543E+00  0.4535E+00  0.1599E+02  0.1599E+02
     -0.253  0.4320E-01  0.4307E-01  0.1600E+02  0.1600E+02
     -0.113  0.0000E+00  0.0000E+00  0.1600E+02  0.1600E+02
      0.028  0.0000E+00  0.0000E+00  0.1600E+02  0.1600E+02
      0.168  0.0000E+00  0.0000E+00  0.1600E+02  0.1600E+02
      0.308  0.0000E+00  0.0000E+00  0.1600E+02  0.1600E+02
      0.449  0.0000E+00  0.0000E+00  0.1600E+02  0.1600E+02
      0.589  0.0000E+00  0.0000E+00  0.1600E+02  0.1600E+02
      0.729  0.0000E+00  0.0000E+00  0.1600E+02  0.1600E+02
      0.870  0.4417E-03  0.4416E-03  0.1600E+02  0.1600E+02
      1.010  0.6830E-02  0.6829E-02  0.1600E+02  0.1600E+02
      1.150  0.1039E+00  0.1038E+00  0.1602E+02  0.1602E+02
      1.291  0.7016E+00  0.7016E+00  0.1611E+02  0.1611E+02
      1.431  0.5014E+00  0.5015E+00  0.1618E+02  0.1618E+02
      1.571  0.5203E-01  0.5204E-01  0.1619E+02  0.1619E+02
      1.711  0.1857E-01  0.1858E-01  0.1619E+02  0.1619E+02
      1.852  0.2563E+00  0.2563E+00  0.1623E+02  0.1623E+02
      1.992  0.1411E+01  0.1411E+01  0.1643E+02  0.1643E+02
      2.132  0.2171E+01  0.2171E+01  0.1673E+02  0.1673E+02
      2.273  0.6750E+00  0.6750E+00  0.1683E+02  0.1683E+02
      2.413  0.3603E+00  0.3604E+00  0.1688E+02  0.1688E+02
      2.553  0.1369E+01  0.1369E+01  0.1707E+02  0.1707E+02
      2.694  0.1537E+01  0.1537E+01  0.1729E+02  0.1729E+02
      2.834  0.1619E+01  0.1619E+01  0.1751E+02  0.1751E+02
      2.974  0.2587E+01  0.2587E+01  0.1788E+02  0.1788E+02
      3.115  0.8166E+00  0.8164E+00  0.1799E+02  0.1799E+02
      3.255  0.9075E+00  0.9078E+00  0.1812E+02  0.1812E+02
      3.395  0.1715E+01  0.1715E+01  0.1836E+02  0.1836E+02
      3.535  0.2311E+01  0.2312E+01  0.1869E+02  0.1869E+02
      3.676  0.3562E+01  0.3563E+01  0.1919E+02  0.1919E+02
      3.816  0.3392E+01  0.3392E+01  0.1966E+02  0.1966E+02
      3.956  0.2742E+01  0.2742E+01  0.2005E+02  0.2005E+02
      4.097  0.3386E+01  0.3386E+01  0.2053E+02  0.2053E+02
      4.237  0.2136E+01  0.2135E+01  0.2083E+02  0.2083E+02
      4.377  0.2513E+01  0.2513E+01  0.2118E+02  0.2118E+02
      4.518  0.5579E+01  0.5579E+01  0.2196E+02  0.2196E+02
      4.658  0.7565E+01  0.7565E+01  0.2302E+02  0.2302E+02
      4.798  0.6686E+01  0.6686E+01  0.2396E+02  0.2396E+02
      4.939  0.5397E+01  0.5397E+01  0.2472E+02  0.2472E+02
      5.079  0.3670E+01  0.3670E+01  0.2524E+02  0.2524E+02
      5.219  0.1412E+01  0.1412E+01  0.2544E+02  0.2544E+02
      5.359  0.1321E+01  0.1322E+01  0.2562E+02  0.2562E+02
      5.500  0.2182E+01  0.2182E+01  0.2593E+02  0.2593E+02
      5.640  0.2125E+01  0.2126E+01  0.2623E+02  0.2623E+02
      5.780  0.2024E+01  0.2024E+01  0.2651E+02  0.2651E+02
      5.921  0.1814E+01  0.1815E+01  0.2677E+02  0.2677E+02
      6.061  0.2037E+01  0.2036E+01  0.2706E+02  0.2706E+02
      6.201  0.1065E+01  0.1064E+01  0.2720E+02  0.2720E+02
      6.342  0.1170E+01  0.1170E+01  0.2737E+02  0.2737E+02
      6.482  0.1115E+01  0.1116E+01  0.2753E+02  0.2753E+02
      6.622  0.9891E+00  0.9886E+00  0.2767E+02  0.2767E+02
      6.763  0.2991E+00  0.2985E+00  0.2771E+02  0.2771E+02
      6.903  0.2517E-01  0.2511E-01  0.2771E+02  0.2771E+02
      7.043  0.4629E-01  0.4637E-01  0.2772E+02  0.2772E+02
      7.184  0.3461E+00  0.3463E+00  0.2777E+02  0.2777E+02
      7.324  0.4436E+00  0.4434E+00  0.2783E+02  0.2783E+02
      7.464  0.8924E+00  0.8928E+00  0.2795E+02  0.2796E+02
      7.604  0.5891E+00  0.5888E+00  0.2804E+02  0.2804E+02
      7.745  0.7567E-01  0.7554E-01  0.2805E+02  0.2805E+02
      7.885  0.7519E-01  0.7515E-01  0.2806E+02  0.2806E+02
      8.025  0.1881E+00  0.1885E+00  0.2809E+02  0.2809E+02
      8.166  0.4596E+00  0.4597E+00  0.2815E+02  0.2815E+02
      8.306  0.6792E+00  0.6787E+00  0.2825E+02  0.2825E+02
      8.446  0.2183E+01  0.2183E+01  0.2855E+02  0.2855E+02
      8.587  0.1037E+01  0.1037E+01  0.2870E+02  0.2870E+02
      8.727  0.1085E+01  0.1085E+01  0.2885E+02  0.2885E+02
      8.867  0.2486E+01  0.2487E+01  0.2920E+02  0.2920E+02
      9.008  0.1792E+01  0.1790E+01  0.2945E+02  0.2945E+02
      9.148  0.1159E+01  0.1160E+01  0.2961E+02  0.2961E+02
      9.288  0.5237E+00  0.5231E+00  0.2969E+02  0.2969E+02
      9.428  0.6025E+00  0.6027E+00  0.2977E+02  0.2977E+02
      9.569  0.2352E+00  0.2352E+00  0.2981E+02  0.2981E+02
      9.709  0.2887E+00  0.2884E+00  0.2985E+02  0.2985E+02
      9.849  0.7355E+00  0.7355E+00  0.2995E+02  0.2995E+02
      9.990  0.3604E+00  0.3606E+00  0.3000E+02  0.3000E+02
     10.130  0.4884E+00  0.4883E+00  0.3007E+02  0.3007E+02
     10.270  0.1063E+01  0.1063E+01  0.3022E+02  0.3022E+02
     10.411  0.2154E+01  0.2156E+01  0.3052E+02  0.3052E+02
     10.551  0.5980E+01  0.5981E+01  0.3136E+02  0.3136E+02
     10.691  0.2575E+01  0.2574E+01  0.3172E+02  0.3172E+02
     10.832  0.1281E+01  0.1281E+01  0.3190E+02  0.3190E+02
     10.972  0.7431E+00  0.7424E+00  0.3201E+02  0.3201E+02
     11.112  0.9259E+00  0.9258E+00  0.3214E+02  0.3214E+02
     11.252  0.1272E+01  0.1273E+01  0.3232E+02  0.3232E+02
     11.393  0.1028E+01  0.1028E+01  0.3246E+02  0.3246E+02
     11.533  0.1428E+01  0.1428E+01  0.3266E+02  0.3266E+02
     11.673  0.2245E+01  0.2245E+01  0.3298E+02  0.3298E+02
     11.814  0.1459E+01  0.1459E+01  0.3318E+02  0.3318E+02
     11.954  0.9026E+00  0.9032E+00  0.3331E+02  0.3331E+02
     12.094  0.1365E+01  0.1375E+01  0.3350E+02  0.3350E+02
     12.235  0.2423E+01  0.2508E+01  0.3384E+02  0.3386E+02
     12.375  0.3108E+01  0.3003E+01  0.3428E+02  0.3428E+02
     12.515  0.5253E+01  0.5153E+01  0.3502E+02  0.3500E+02
     12.656  0.5988E+01  0.6027E+01  0.3586E+02  0.3585E+02
     12.796  0.2309E+01  0.2368E+01  0.3618E+02  0.3618E+02
     12.936  0.1136E+01  0.1117E+01  0.3634E+02  0.3634E+02
     13.077  0.1397E+01  0.1345E+01  0.3654E+02  0.3653E+02
     13.217  0.7560E+00  0.8144E+00  0.3665E+02  0.3664E+02
     13.357  0.1214E+01  0.1190E+01  0.3682E+02  0.3681E+02
     13.497  0.1850E+01  0.2026E+01  0.3708E+02  0.3709E+02
     13.638  0.2944E+01  0.3189E+01  0.3749E+02  0.3754E+02
     13.778  0.4544E+01  0.4011E+01  0.3813E+02  0.3811E+02
     13.918  0.4201E+01  0.4127E+01  0.3872E+02  0.3868E+02
     14.059  0.3197E+01  0.2692E+01  0.3917E+02  0.3906E+02
     14.199  0.2472E+01  0.2593E+01  0.3952E+02  0.3943E+02
     14.339  0.1212E+01  0.1089E+01  0.3969E+02  0.3958E+02
     14.480  0.1309E+01  0.5029E+00  0.3987E+02  0.3965E+02
     14.620  0.4242E+00  0.4974E+00  0.3993E+02  0.3972E+02
     14.760  0.8802E-01  0.2906E+00  0.3994E+02  0.3976E+02
     14.901  0.2651E+00  0.2615E+00  0.3998E+02  0.3980E+02
     15.041  0.1211E+00  0.4466E-01  0.4000E+02  0.3981E+02
     15.181  0.1029E-01  0.3026E-01  0.4000E+02  0.3981E+02
     15.321  0.0000E+00  0.3334E+00  0.4000E+02  0.3986E+02
     15.462  0.0000E+00  0.8094E+00  0.4000E+02  0.3997E+02
     15.602  0.0000E+00  0.1828E+00  0.4000E+02  0.4000E+02
     15.742  0.0000E+00  0.1289E-01  0.4000E+02  0.4000E+02
     15.883  0.0000E+00  0.0000E+00  0.4000E+02  0.4000E+02
     16.023  0.0000E+00  0.0000E+00  0.4000E+02  0.4000E+02
     16.163  0.0000E+00  0.0000E+00  0.4000E+02  0.4000E+02
     16.304  0.0000E+00  0.0000E+00  0.4000E+02  0.4000E+02
     16.444  0.0000E+00  0.0000E+00  0.4000E+02  0.4000E+02
     16.584  0.0000E+00  0.0000E+00  0.4000E+02  0.4000E+02
     16.725  0.0000E+00  0.0000E+00  0.4000E+02  0.4000E+02
     16.865  0.0000E+00  0.0000E+00  0.4000E+02  0.4000E+02
     17.005  0.0000E+00  0.0000E+00  0.4000E+02  0.4000E+02
     17.145  0.0000E+00  0.0000E+00  0.4000E+02  0.4000E+02
     17.286  0.0000E+00  0.0000E+00  0.4000E+02  0.4000E+02
     17.28578612    -24.80707146  301      9.98166104      1.00000000
    -24.807  0.0000E+00  0.0000E+00  0.0000E+00  0.0000E+00  0.0000E+00  0.0000E+00  0.0000E+00  0.0000E+00  0.0000E+00  0.0000E+00  0.0000E+00  0.0000E+00  0.0000E+00  0.0000E+00  0.0000E+00  0.0000E+00  0.0000E+00  0.0000E+00
    -24.667  0.0000E+00  0.0000E+00  0.0000E+00  0.0000E+00  0.0000E+00  0.0000E+00  0.0000E+00  0.0000E+00  0.0000E+00  0.0000E+00  0.0000E+00  0.0000E+00  0.0000E+00  0.0000E+00  0.0000E+00  0.0000E+00  0.0000E+00  0.0000E+00
    -24.526  0.0000E+00  0.0000E+00  0.0000E+00  0.0000E+00  0.0000E+00  0.0000E+00  0.0000E+00  0.0000E+00  0.0000E+00  0.0000E+00  0.0000E+00  0.0000E+00  0.0000E+00  0.0000E+00  0.0000E+00  0.0000E+00  0.0000E+00  0.0000E+00
    -24.386  0.0000E+00  0.0000E+00  0.0000E+00  0.0000E+00  0.0000E+00  0.0000E+00  0.0000E+00  0.0000E+00  0.0000E+00  0.0000E+00  0.0000E+00  0.0000E+00  0.0000E+00  0.0000E+00  0.0000E+00  0.0000E+00  0.0000E+00  0.0000E+00
    -24.246  0.0000E+00  0.0000E+00  0.0000E+00  0.0000E+00  0.0000E+00  0.0000E+00  0.0000E+00  0.0000E+00  0.0000E+00  0.0000E+00  0.0000E+00  0.0000E+00  0.0000E+00  0.0000E+00  0.0000E+00  0.0000E+00  0.0000E+00  0.0000E+00
    -24.106  0.0000E+00  0.0000E+00  0.0000E+00  0.0000E+00  0.0000E+00  0.0000E+00  0.0000E+00  0.0000E+00  0.0000E+00  0.0000E+00  0.0000E+00  0.0000E+00  0.0000E+00  0.0000E+00  0.0000E+00  0.0000E+00  0.0000E+00  0.0000E+00
    -23.965  0.0000E+00  0.0000E+00  0.0000E+00  0.0000E+00  0.0000E+00  0.0000E+00  0.0000E+00  0.0000E+00  0.0000E+00  0.0000E+00  0.0000E+00  0.0000E+00  0.0000E+00  0.0000E+00  0.0000E+00  0.0000E+00  0.0000E+00  0.0000E+00
    -23.825  0.0000E+00  0.0000E+00  0.0000E+00  0.0000E+00  0.0000E+00  0.0000E+00  0.0000E+00  0.0000E+00  0.0000E+00  0.0000E+00  0.0000E+00  0.0000E+00  0.0000E+00  0.0000E+00  0.0000E+00  0.0000E+00  0.0000E+00  0.0000E+00
    -23.685  0.0000E+00  0.0000E+00  0.0000E+00  0.0000E+00  0.0000E+00  0.0000E+00  0.0000E+00  0.0000E+00  0.0000E+00  0.0000E+00  0.0000E+00  0.0000E+00  0.0000E+00  0.0000E+00  0.0000E+00  0.0000E+00  0.0000E+00  0.0000E+00
    -23.544  0.0000E+00  0.0000E+00  0.0000E+00  0.0000E+00  0.0000E+00  0.0000E+00  0.0000E+00  0.0000E+00  0.0000E+00  0.0000E+00  0.0000E+00  0.0000E+00  0.0000E+00  0.0000E+00  0.0000E+00  0.0000E+00  0.0000E+00  0.0000E+00
    -23.404  0.1821E-08  0.1819E-08  0.4015E-05  0.4010E-05  0.4015E-05  0.4010E-05  0.4015E-05  0.4010E-05  0.9810E-09  0.9816E-09  0.9810E-09  0.9816E-09  0.1701E-08  0.1698E-08  0.9810E-09  0.9816E-09  0.1701E-08  0.1698E-08
    -23.264  0.4950E-07  0.4944E-07  0.7081E-04  0.7073E-04  0.7081E-04  0.7073E-04  0.7081E-04  0.7073E-04  0.1897E-07  0.1897E-07  0.1897E-07  0.1897E-07  0.3061E-07  0.3055E-07  0.1897E-07  0.1897E-07  0.3061E-07  0.3055E-07
    -23.123  0.9762E-06  0.9750E-06  0.1219E-02  0.1218E-02  0.1219E-02  0.1218E-02  0.1219E-02  0.1218E-02  0.3497E-06  0.3498E-06  0.3497E-06  0.3498E-06  0.5525E-06  0.5515E-06  0.3497E-06  0.3498E-06  0.5525E-06  0.5515E-06
    -22.983  0.1503E-04  0.1501E-04  0.1768E-01  0.1767E-01  0.1768E-01  0.1767E-01  0.1768E-01  0.1767E-01  0.5164E-05  0.5166E-05  0.5164E-05  0.5166E-05  0.8095E-05  0.8082E-05  0.5164E-05  0.5166E-05  0.8095E-05  0.8082E-05
    -22.843  0.1342E-03  0.1341E-03  0.1065E+00  0.1065E+00  0.1065E+00  0.1065E+00  0.1065E+00  0.1065E+00  0.3892E-04  0.3894E-04  0.3892E-04  0.3894E-04  0.5715E-04  0.5709E-04  0.3892E-04  0.3894E-04  0.5715E-04  0.5709E-04
    -22.702  0.6502E-03  0.6498E-03  0.3023E+00  0.3022E+00  0.3023E+00  0.3022E+00  0.3023E+00  0.3022E+00  0.1875E-03  0.1875E-03  0.1875E-03  0.1875E-03  0.2524E-03  0.2522E-03  0.1875E-03  0.1875E-03  0.2524E-03  0.2522E-03
    -22.562  0.1930E-02  0.1929E-02  0.6311E+00  0.6311E+00  0.6311E+00  0.6311E+00  0.6311E+00  0.6311E+00  0.4595E-03  0.4596E-03  0.4595E-03  0.4596E-03  0.4994E-03  0.4995E-03  0.4595E-03  0.4596E-03  0.4994E-03  0.4995E-03
    -22.422  0.2615E-02  0.2615E-02  0.5654E+00  0.5655E+00  0.5654E+00  0.5655E+00  0.5654E+00  0.5655E+00  0.4549E-03  0.4550E-03  0.4549E-03  0.4550E-03  0.4866E-03  0.4870E-03  0.4549E-03  0.4550E-03  0.4866E-03  0.4870E-03
    -22.282  0.2288E-02  0.2288E-02  0.3935E+00  0.3936E+00  0.3935E+00  0.3936E+00  0.3935E+00  0.3936E+00  0.4146E-03  0.4147E-03  0.4146E-03  0.4147E-03  0.3213E-03  0.3218E-03  0.4146E-03  0.4147E-03  0.3213E-03  0.3218E-03
    -22.141  0.1396E-02  0.1397E-02  0.2970E+00  0.2970E+00  0.2970E+00  0.2970E+00  0.2970E+00  0.2970E+00  0.4552E-03  0.4552E-03  0.4552E-03  0.4552E-03  0.1648E-03  0.1651E-03  0.4552E-03  0.4552E-03  0.1648E-03  0.1651E-03
    -22.001  0.1424E-02  0.1424E-02  0.4395E+00  0.4394E+00  0.4395E+00  0.4394E+00  0.4395E+00  0.4394E+00  0.7298E-03  0.7301E-03  0.7298E-03  0.7301E-03  0.2877E-03  0.2881E-03  0.7298E-03  0.7301E-03  0.2877E-03  0.2881E-03
    -21.861  0.1119E-02  0.1119E-02  0.6205E+00  0.6204E+00  0.6205E+00  0.6204E+00  0.6205E+00  0.6204E+00  0.8272E-03  0.8275E-03  0.8272E-03  0.8275E-03  0.5506E-03  0.5510E-03  0.8272E-03  0.8275E-03  0.5506E-03  0.5510E-03
    -21.720  0.8119E-03  0.8119E-03  0.8621E+00  0.8620E+00  0.8621E+00  0.8620E+00  0.8621E+00  0.8620E+00  0.7768E-03  0.7769E-03  0.7768E-03  0.7769E-03  0.8279E-03  0.8287E-03  0.7768E-03  0.7769E-03  0.8279E-03  0.8287E-03
    -21.580  0.6436E-03  0.6437E-03  0.9988E+00  0.9987E+00  0.9988E+00  0.9987E+00  0.9988E+00  0.9987E+00  0.7163E-03  0.7166E-03  0.7163E-03  0.7166E-03  0.7790E-03  0.7798E-03  0.7163E-03  0.7166E-03  0.7790E-03  0.7798E-03
    -21.440  0.3558E-03  0.3558E-03  0.1008E+01  0.1008E+01  0.1008E+01  0.1008E+01  0.1008E+01  0.1008E+01  0.4773E-03  0.4775E-03  0.4773E-03  0.4775E-03  0.4627E-03  0.4633E-03  0.4773E-03  0.4775E-03  0.4627E-03  0.4633E-03
    -21.299  0.1491E-03  0.1492E-03  0.5913E+00  0.5915E+00  0.5913E+00  0.5915E+00  0.5913E+00  0.5915E+00  0.1823E-03  0.1824E-03  0.1823E-03  0.1824E-03  0.1335E-03  0.1337E-03  0.1823E-03  0.1824E-03  0.1335E-03  0.1337E-03
    -21.159  0.1670E-04  0.1672E-04  0.1224E+00  0.1225E+00  0.1224E+00  0.1225E+00  0.1224E+00  0.1225E+00  0.2494E-04  0.2496E-04  0.2494E-04  0.2496E-04  0.1614E-04  0.1615E-04  0.2494E-04  0.2496E-04  0.1614E-04  0.1615E-04
    -21.019  0.3085E-06  0.3088E-06  0.8201E-02  0.8210E-02  0.8201E-02  0.8210E-02  0.8201E-02  0.8210E-02  0.1177E-05  0.1178E-05  0.1177E-05  0.1178E-05  0.6939E-06  0.6940E-06  0.1177E-05  0.1178E-05  0.6939E-06  0.6940E-06
    -20.878  0.0000E+00  0.0000E+00  0.0000E+00  0.0000E+00  0.0000E+00  0.0000E+00  0.0000E+00  0.0000E+00  0.0000E+00  0.0000E+00  0.0000E+00  0.0000E+00  0.0000E+00  0.0000E+00  0.0000E+00  0.0000E+00  0.0000E+00  0.0000E+00
    -20.738  0.0000E+00  0.0000E+00  0.0000E+00  0.0000E+00  0.0000E+00  0.0000E+00  0.0000E+00  0.0000E+00  0.0000E+00  0.0000E+00  0.0000E+00  0.0000E+00  0.0000E+00  0.0000E+00  0.0000E+00  0.0000E+00  0.0000E+00  0.0000E+00
    -20.598  0.0000E+00  0.0000E+00  0.0000E+00  0.0000E+00  0.0000E+00  0.0000E+00  0.0000E+00  0.0000E+00  0.0000E+00  0.0000E+00  0.0000E+00  0.0000E+00  0.0000E+00  0.0000E+00  0.0000E+00  0.0000E+00  0.0000E+00  0.0000E+00
    -20.457  0.0000E+00  0.0000E+00  0.0000E+00  0.0000E+00  0.0000E+00  0.0000E+00  0.0000E+00  0.0000E+00  0.0000E+00  0.0000E+00  0.0000E+00  0.0000E+00  0.0000E+00  0.0000E+00  0.0000E+00  0.0000E+00  0.0000E+00  0.0000E+00
    -20.317  0.0000E+00  0.0000E+00  0.0000E+00  0.0000E+00  0.0000E+00  0.0000E+00  0.0000E+00  0.0000E+00  0.0000E+00  0.0000E+00  0.0000E+00  0.0000E+00  0.0000E+00  0.0000E+00  0.0000E+00  0.0000E+00  0.0000E+00  0.0000E+00
    -20.177  0.0000E+00  0.0000E+00  0.0000E+00  0.0000E+00  0.0000E+00  0.0000E+00  0.0000E+00  0.0000E+00  0.0000E+00  0.0000E+00  0.0000E+00  0.0000E+00  0.0000E+00  0.0000E+00  0.0000E+00  0.0000E+00  0.0000E+00  0.0000E+00
    -20.037  0.0000E+00  0.0000E+00  0.0000E+00  0.0000E+00  0.0000E+00  0.0000E+00  0.0000E+00  0.0000E+00  0.0000E+00  0.0000E+00  0.0000E+00  0.0000E+00  0.0000E+00  0.0000E+00  0.0000E+00  0.0000E+00  0.0000E+00  0.0000E+00
    -19.896  0.0000E+00  0.0000E+00  0.0000E+00  0.0000E+00  0.0000E+00  0.0000E+00  0.0000E+00  0.0000E+00  0.0000E+00  0.0000E+00  0.0000E+00  0.0000E+00  0.0000E+00  0.0000E+00  0.0000E+00  0.0000E+00  0.0000E+00  0.0000E+00
    -19.756  0.0000E+00  0.0000E+00  0.0000E+00  0.0000E+00  0.0000E+00  0.0000E+00  0.0000E+00  0.0000E+00  0.0000E+00  0.0000E+00  0.0000E+00  0.0000E+00  0.0000E+00  0.0000E+00  0.0000E+00  0.0000E+00  0.0000E+00  0.0000E+00
    -19.616  0.0000E+00  0.0000E+00  0.0000E+00  0.0000E+00  0.0000E+00  0.0000E+00  0.0000E+00  0.0000E+00  0.0000E+00  0.0000E+00  0.0000E+00  0.0000E+00  0.0000E+00  0.0000E+00  0.0000E+00  0.0000E+00  0.0000E+00  0.0000E+00
    -19.475  0.0000E+00  0.0000E+00  0.0000E+00  0.0000E+00  0.0000E+00  0.0000E+00  0.0000E+00  0.0000E+00  0.0000E+00  0.0000E+00  0.0000E+00  0.0000E+00  0.0000E+00  0.0000E+00  0.0000E+00  0.0000E+00  0.0000E+00  0.0000E+00
    -19.335  0.0000E+00  0.0000E+00  0.0000E+00  0.0000E+00  0.0000E+00  0.0000E+00  0.0000E+00  0.0000E+00  0.0000E+00  0.0000E+00  0.0000E+00  0.0000E+00  0.0000E+00  0.0000E+00  0.0000E+00  0.0000E+00  0.0000E+00  0.0000E+00
    -19.195  0.0000E+00  0.0000E+00  0.0000E+00  0.0000E+00  0.0000E+00  0.0000E+00  0.0000E+00  0.0000E+00  0.0000E+00  0.0000E+00  0.0000E+00  0.0000E+00  0.0000E+00  0.0000E+00  0.0000E+00  0.0000E+00  0.0000E+00  0.0000E+00
    -19.054  0.0000E+00  0.0000E+00  0.0000E+00  0.0000E+00  0.0000E+00  0.0000E+00  0.0000E+00  0.0000E+00  0.0000E+00  0.0000E+00  0.0000E+00  0.0000E+00  0.0000E+00  0.0000E+00  0.0000E+00  0.0000E+00  0.0000E+00  0.0000E+00
    -18.914  0.0000E+00  0.0000E+00  0.0000E+00  0.0000E+00  0.0000E+00  0.0000E+00  0.0000E+00  0.0000E+00  0.0000E+00  0.0000E+00  0.0000E+00  0.0000E+00  0.0000E+00  0.0000E+00  0.0000E+00  0.0000E+00  0.0000E+00  0.0000E+00
    -18.774  0.0000E+00  0.0000E+00  0.0000E+00  0.0000E+00  0.0000E+00  0.0000E+00  0.0000E+00  0.0000E+00  0.0000E+00  0.0000E+00  0.0000E+00  0.0000E+00  0.0000E+00  0.0000E+00  0.0000E+00  0.0000E+00  0.0000E+00  0.0000E+00
    -18.633  0.0000E+00  0.0000E+00  0.0000E+00  0.0000E+00  0.0000E+00  0.0000E+00  0.0000E+00  0.0000E+00  0.0000E+00  0.0000E+00  0.0000E+00  0.0000E+00  0.0000E+00  0.0000E+00  0.0000E+00  0.0000E+00  0.0000E+00  0.0000E+00
    -18.493  0.0000E+00  0.0000E+00  0.0000E+00  0.0000E+00  0.0000E+00  0.0000E+00  0.0000E+00  0.0000E+00  0.0000E+00  0.0000E+00  0.0000E+00  0.0000E+00  0.0000E+00  0.0000E+00  0.0000E+00  0.0000E+00  0.0000E+00  0.0000E+00
    -18.353  0.0000E+00  0.0000E+00  0.0000E+00  0.0000E+00  0.0000E+00  0.0000E+00  0.0000E+00  0.0000E+00  0.0000E+00  0.0000E+00  0.0000E+00  0.0000E+00  0.0000E+00  0.0000E+00  0.0000E+00  0.0000E+00  0.0000E+00  0.0000E+00
    -18.213  0.0000E+00  0.0000E+00  0.0000E+00  0.0000E+00  0.0000E+00  0.0000E+00  0.0000E+00  0.0000E+00  0.0000E+00  0.0000E+00  0.0000E+00  0.0000E+00  0.0000E+00  0.0000E+00  0.0000E+00  0.0000E+00  0.0000E+00  0.0000E+00
    -18.072  0.0000E+00  0.0000E+00  0.0000E+00  0.0000E+00  0.0000E+00  0.0000E+00  0.0000E+00  0.0000E+00  0.0000E+00  0.0000E+00  0.0000E+00  0.0000E+00  0.0000E+00  0.0000E+00  0.0000E+00  0.0000E+00  0.0000E+00  0.0000E+00
    -17.932  0.0000E+00  0.0000E+00  0.0000E+00  0.0000E+00  0.0000E+00  0.0000E+00  0.0000E+00  0.0000E+00  0.0000E+00  0.0000E+00  0.0000E+00  0.0000E+00  0.0000E+00  0.0000E+00  0.0000E+00  0.0000E+00  0.0000E+00  0.0000E+00
    -17.792  0.0000E+00  0.0000E+00  0.0000E+00  0.0000E+00  0.0000E+00  0.0000E+00  0.0000E+00  0.0000E+00  0.0000E+00  0.0000E+00  0.0000E+00  0.0000E+00  0.0000E+00  0.0000E+00  0.0000E+00  0.0000E+00  0.0000E+00  0.0000E+00