   8   8   1   0
  0.1285579E+02  0.4685216E-09  0.4685216E-09  0.4685216E-09  0.5000000E-15
  1.000000000000000E-004
  CAR 
 unknown system                          
     11.67567407    -27.87542584  301      6.42176027      1.00000000
    -27.875  0.0000E+00  0.0000E+00  0.0000E+00  0.0000E+00
    -27.744  0.0000E+00  0.0000E+00  0.0000E+00  0.0000E+00
    -27.612  0.0000E+00  0.0000E+00  0.0000E+00  0.0000E+00
    -27.480  0.0000E+00  0.0000E+00  0.0000E+00  0.0000E+00
    -27.348  0.0000E+00  0.0000E+00  0.0000E+00  0.0000E+00
    -27.216  0.0000E+00  0.0000E+00  0.0000E+00  0.0000E+00
    -27.084  0.0000E+00  0.0000E+00  0.0000E+00  0.0000E+00
    -26.953  0.0000E+00  0.0000E+00  0.0000E+00  0.0000E+00
    -26.821  0.0000E+00  0.0000E+00  0.0000E+00  0.0000E+00
    -26.689  0.0000E+00  0.0000E+00  0.0000E+00  0.0000E+00
    -26.557  0.1634E-03  0.1646E-03  0.2155E-04  0.2171E-04
    -26.425  0.5323E-02  0.5363E-02  0.7234E-03  0.7288E-03
    -26.293  0.7250E-01  0.7304E-01  0.1028E-01  0.1036E-01
    -26.162  0.9448E+00  0.9513E+00  0.1348E+00  0.1358E+00
    -26.030  0.7483E+01  0.7516E+01  0.1121E+01  0.1127E+01
    -25.898  0.1776E+02  0.1778E+02  0.3463E+01  0.3471E+01
    -25.766  0.2337E+02  0.2340E+02  0.6544E+01  0.6555E+01
    -25.634  0.2882E+02  0.2880E+02  0.1034E+02  0.1035E+02
    -25.502  0.1116E+02  0.1111E+02  0.1182E+02  0.1182E+02
    -25.371  0.1221E+01  0.1212E+01  0.1199E+02  0.1199E+02
    -25.239  0.2067E-01  0.2051E-01  0.1200E+02  0.1200E+02
    -25.107  0.0000E+00  0.0000E+00  0.1200E+02  0.1200E+02
    -24.975  0.0000E+00  0.0000E+00  0.1200E+02  0.1200E+02
    -24.843  0.0000E+00  0.0000E+00  0.1200E+02  0.1200E+02
    -24.711  0.0000E+00  0.0000E+00  0.1200E+02  0.1200E+02
    -24.580  0.0000E+00  0.0000E+00  0.1200E+02  0.1200E+02
    -24.448  0.0000E+00  0.0000E+00  0.1200E+02  0.1200E+02
    -24.316  0.0000E+00  0.0000E+00  0.1200E+02  0.1200E+02
    -24.184  0.0000E+00  0.0000E+00  0.1200E+02  0.1200E+02
    -24.052  0.0000E+00  0.0000E+00  0.1200E+02  0.1200E+02
    -23.920  0.0000E+00  0.0000E+00  0.1200E+02  0.1200E+02
    -23.788  0.0000E+00  0.0000E+00  0.1200E+02  0.1200E+02
    -23.657  0.0000E+00  0.0000E+00  0.1200E+02  0.1200E+02
    -23.525  0.0000E+00  0.0000E+00  0.1200E+02  0.1200E+02
    -23.393  0.0000E+00  0.0000E+00  0.1200E+02  0.1200E+02
    -23.261  0.0000E+00  0.0000E+00  0.1200E+02  0.1200E+02
    -23.129  0.0000E+00  0.0000E+00  0.1200E+02  0.1200E+02
    -22.997  0.0000E+00  0.0000E+00  0.1200E+02  0.1200E+02
    -22.866  0.0000E+00  0.0000E+00  0.1200E+02  0.1200E+02
    -22.734  0.0000E+00  0.0000E+00  0.1200E+02  0.1200E+02
    -22.602  0.0000E+00  0.0000E+00  0.1200E+02  0.1200E+02
    -22.470  0.0000E+00  0.0000E+00  0.1200E+02  0.1200E+02
    -22.338  0.0000E+00  0.0000E+00  0.1200E+02  0.1200E+02
    -22.206  0.0000E+00  0.0000E+00  0.1200E+02  0.1200E+02
    -22.075  0.0000E+00  0.0000E+00  0.1200E+02  0.1200E+02
    -21.943  0.0000E+00  0.0000E+00  0.1200E+02  0.1200E+02
    -21.811  0.0000E+00  0.0000E+00  0.1200E+02  0.1200E+02
    -21.679  0.0000E+00  0.0000E+00  0.1200E+02  0.1200E+02
    -21.547  0.0000E+00  0.0000E+00  0.1200E+02  0.1200E+02
    -21.415  0.0000E+00  0.0000E+00  0.1200E+02  0.1200E+02
    -21.284  0.0000E+00  0.0000E+00  0.1200E+02  0.1200E+02
    -21.152  0.0000E+00  0.0000E+00  0.1200E+02  0.1200E+02
    -21.020  0.0000E+00  0.0000E+00  0.1200E+02  0.1200E+02
    -20.888  0.0000E+00  0.0000E+00  0.1200E+02  0.1200E+02
    -20.756  0.0000E+00  0.0000E+00  0.1200E+02  0.1200E+02
    -20.624  0.0000E+00  0.0000E+00  0.1200E+02  0.1200E+02
    -20.493  0.0000E+00  0.0000E+00  0.1200E+02  0.1200E+02
    -20.361  0.0000E+00  0.0000E+00  0.1200E+02  0.1200E+02
    -20.229  0.0000E+00  0.0000E+00  0.1200E+02  0.1200E+02
    -20.097  0.0000E+00  0.0000E+00  0.1200E+02  0.1200E+02
    -19.965  0.0000E+00  0.0000E+00  0.1200E+02  0.1200E+02
    -19.833  0.0000E+00  0.0000E+00  0.1200E+02  0.1200E+02
    -19.702  0.0000E+00  0.0000E+00  0.1200E+02  0.1200E+02
    -19.570  0.0000E+00  0.0000E+00  0.1200E+02  0.1200E+02
    -19.438  0.0000E+00  0.0000E+00  0.1200E+02  0.1200E+02
    -19.306  0.0000E+00  0.0000E+00  0.1200E+02  0.1200E+02
    -19.174  0.0000E+00  0.0000E+00  0.1200E+02  0.1200E+02
    -19.042  0.0000E+00  0.0000E+00  0.1200E+02  0.1200E+02
    -18.911  0.0000E+00  0.0000E+00  0.1200E+02  0.1200E+02
    -18.779  0.0000E+00  0.0000E+00  0.1200E+02  0.1200E+02
    -18.647  0.0000E+00  0.0000E+00  0.1200E+02  0.1200E+02
    -18.515  0.0000E+00  0.0000E+00  0.1200E+02  0.1200E+02
    -18.383  0.0000E+00  0.0000E+00  0.1200E+02  0.1200E+02
    -18.251  0.0000E+00  0.0000E+00  0.1200E+02  0.1200E+02
    -18.119  0.0000E+00  0.0000E+00  0.1200E+02  0.1200E+02
    -17.988  0.0000E+00  0.0000E+00  0.1200E+02  0.1200E+02
    -17.856  0.0000E+00  0.0000E+00  0.1200E+02  0.1200E+02
    -17.724  0.0000E+00  0.0000E+00  0.1200E+02  0.1200E+02
    -17.592  0.0000E+00  0.0000E+00  0.1200E+02  0.1200E+02
    -17.460  0.0000E+00  0.0000E+00  0.1200E+02  0.1200E+02
    -17.328  0.0000E+00  0.0000E+00  0.1200E+02  0.1200E+02
    -17.197  0.0000E+00  0.0000E+00  0.1200E+02  0.1200E+02
    -17.065  0.0000E+00  0.0000E+00  0.1200E+02  0.1200E+02
    -16.933  0.0000E+00  0.0000E+00  0.1200E+02  0.1200E+02
    -16.801  0.0000E+00  0.0000E+00  0.1200E+02  0.1200E+02
    -16.669  0.0000E+00  0.0000E+00  0.1200E+02  0.1200E+02
    -16.537  0.0000E+00  0.0000E+00  0.1200E+02  0.1200E+02
    -16.406  0.0000E+00  0.0000E+00  0.1200E+02  0.1200E+02
    -16.274  0.0000E+00  0.0000E+00  0.1200E+02  0.1200E+02
    -16.142  0.0000E+00  0.0000E+00  0.1200E+02  0.1200E+02
    -16.010  0.0000E+00  0.0000E+00  0.1200E+02  0.1200E+02
    -15.878  0.0000E+00  0.0000E+00  0.1200E+02  0.1200E+02
    -15.746  0.0000E+00  0.0000E+00  0.1200E+02  0.1200E+02
    -15.615  0.0000E+00  0.0000E+00  0.1200E+02  0.1200E+02
    -15.483  0.0000E+00  0.0000E+00  0.1200E+02  0.1200E+02
    -15.351  0.0000E+00  0.0000E+00  0.1200E+02  0.1200E+02
    -15.219  0.0000E+00  0.0000E+00  0.1200E+02  0.1200E+02
    -15.087  0.0000E+00  0.0000E+00  0.1200E+02  0.1200E+02
    -14.955  0.0000E+00  0.0000E+00  0.1200E+02  0.1200E+02
    -14.824  0.0000E+00  0.0000E+00  0.1200E+02  0.1200E+02
    -14.692  0.0000E+00  0.0000E+00  0.1200E+02  0.1200E+02
    -14.560  0.0000E+00  0.0000E+00  0.1200E+02  0.1200E+02
    -14.428  0.0000E+00  0.0000E+00  0.1200E+02  0.1200E+02
    -14.296  0.0000E+00  0.0000E+00  0.1200E+02  0.1200E+02
    -14.164  0.0000E+00  0.0000E+00  0.1200E+02  0.1200E+02
    -14.033  0.0000E+00  0.0000E+00  0.1200E+02  0.1200E+02
    -13.901  0.0000E+00  0.0000E+00  0.1200E+02  0.1200E+02
    -13.769  0.0000E+00  0.0000E+00  0.1200E+02  0.1200E+02
    -13.637  0.0000E+00  0.0000E+00  0.1200E+02  0.1200E+02
    -13.505  0.0000E+00  0.0000E+00  0.1200E+02  0.1200E+02
    -13.373  0.0000E+00  0.0000E+00  0.1200E+02  0.1200E+02
    -13.242  0.0000E+00  0.0000E+00  0.1200E+02  0.1200E+02
    -13.110  0.0000E+00  0.0000E+00  0.1200E+02  0.1200E+02
    -12.978  0.0000E+00  0.0000E+00  0.1200E+02  0.1200E+02
    -12.846  0.0000E+00  0.0000E+00  0.1200E+02  0.1200E+02
    -12.714  0.0000E+00  0.0000E+00  0.1200E+02  0.1200E+02
    -12.582  0.0000E+00  0.0000E+00  0.1200E+02  0.1200E+02
    -12.450  0.0000E+00  0.0000E+00  0.1200E+02  0.1200E+02
    -12.319  0.0000E+00  0.0000E+00  0.1200E+02  0.1200E+02
    -12.187  0.0000E+00  0.0000E+00  0.1200E+02  0.1200E+02
    -12.055  0.0000E+00  0.0000E+00  0.1200E+02  0.1200E+02
    -11.923  0.0000E+00  0.0000E+00  0.1200E+02  0.1200E+02
    -11.791  0.0000E+00  0.0000E+00  0.1200E+02  0.1200E+02
    -11.659  0.0000E+00  0.0000E+00  0.1200E+02  0.1200E+02
    -11.528  0.0000E+00  0.0000E+00  0.1200E+02  0.1200E+02
    -11.396  0.0000E+00  0.0000E+00  0.1200E+02  0.1200E+02
    -11.264  0.0000E+00  0.0000E+00  0.1200E+02  0.1200E+02
    -11.132  0.0000E+00  0.0000E+00  0.1200E+02  0.1200E+02
    -11.000  0.0000E+00  0.0000E+00  0.1200E+02  0.1200E+02
    -10.868  0.0000E+00  0.0000E+00  0.1200E+02  0.1200E+02
    -10.737  0.0000E+00  0.0000E+00  0.1200E+02  0.1200E+02
    -10.605  0.0000E+00  0.0000E+00  0.1200E+02  0.1200E+02
    -10.473  0.0000E+00  0.0000E+00  0.1200E+02  0.1200E+02
    -10.341  0.0000E+00  0.0000E+00  0.1200E+02  0.1200E+02
    -10.209  0.0000E+00  0.0000E+00  0.1200E+02  0.1200E+02
    -10.077  0.0000E+00  0.0000E+00  0.1200E+02  0.1200E+02
     -9.946  0.0000E+00  0.0000E+00  0.1200E+02  0.1200E+02
     -9.814  0.0000E+00  0.0000E+00  0.1200E+02  0.1200E+02
     -9.682  0.0000E+00  0.0000E+00  0.1200E+02  0.1200E+02
     -9.550  0.0000E+00  0.0000E+00  0.1200E+02  0.1200E+02
     -9.418  0.0000E+00  0.0000E+00  0.1200E+02  0.1200E+02
     -9.286  0.0000E+00  0.0000E+00  0.1200E+02  0.1200E+02
     -9.155  0.0000E+00  0.0000E+00  0.1200E+02  0.1200E+02
     -9.023  0.0000E+00  0.0000E+00  0.1200E+02  0.1200E+02
     -8.891  0.0000E+00  0.0000E+00  0.1200E+02  0.1200E+02
     -8.759  0.0000E+00  0.0000E+00  0.1200E+02  0.1200E+02
     -8.627  0.0000E+00  0.0000E+00  0.1200E+02  0.1200E+02
     -8.495  0.0000E+00  0.0000E+00  0.1200E+02  0.1200E+02
     -8.364  0.0000E+00  0.0000E+00  0.1200E+02  0.1200E+02
     -8.232  0.0000E+00  0.0000E+00  0.1200E+02  0.1200E+02
     -8.100  0.0000E+00  0.0000E+00  0.1200E+02  0.1200E+02
     -7.968  0.0000E+00  0.0000E+00  0.1200E+02  0.1200E+02
     -7.836  0.0000E+00  0.0000E+00  0.1200E+02  0.1200E+02
     -7.704  0.0000E+00  0.0000E+00  0.1200E+02  0.1200E+02
     -7.573  0.0000E+00  0.0000E+00  0.1200E+02  0.1200E+02
     -7.441  0.0000E+00  0.0000E+00  0.1200E+02  0.1200E+02
     -7.309  0.0000E+00  0.0000E+00  0.1200E+02  0.1200E+02
     -7.177  0.0000E+00  0.0000E+00  0.1200E+02  0.1200E+02
     -7.045  0.0000E+00  0.0000E+00  0.1200E+02  0.1200E+02
     -6.913  0.1107E-04  0.1099E-04  0.1200E+02  0.1200E+02
     -6.782  0.1432E-03  0.1421E-03  0.1200E+02  0.1200E+02
     -6.650  0.1996E-02  0.1981E-02  0.1200E+02  0.1200E+02
     -6.518  0.1889E-01  0.1880E-01  0.1200E+02  0.1200E+02
     -6.386  0.4417E-01  0.4413E-01  0.1201E+02  0.1201E+02
     -6.254  0.1144E+00  0.1139E+00  0.1202E+02  0.1202E+02
     -6.122  0.2233E+00  0.2234E+00  0.1205E+02  0.1205E+02
     -5.990  0.2647E+00  0.2639E+00  0.1209E+02  0.1209E+02
     -5.859  0.4164E+00  0.4169E+00  0.1214E+02  0.1214E+02
     -5.727  0.2627E+00  0.2624E+00  0.1218E+02  0.1218E+02
     -5.595  0.4066E+00  0.4065E+00  0.1223E+02  0.1223E+02
     -5.463  0.3175E+00  0.3176E+00  0.1227E+02  0.1227E+02
     -5.331  0.6929E+00  0.6907E+00  0.1236E+02  0.1236E+02
     -5.199  0.7974E+00  0.7984E+00  0.1247E+02  0.1247E+02
     -5.068  0.1186E+01  0.1183E+01  0.1263E+02  0.1263E+02
     -4.936  0.1426E+01  0.1426E+01  0.1281E+02  0.1281E+02
     -4.804  0.2327E+01  0.2322E+01  0.1312E+02  0.1312E+02
     -4.672  0.2698E+01  0.2698E+01  0.1348E+02  0.1348E+02
     -4.540  0.3148E+01  0.3146E+01  0.1389E+02  0.1389E+02
     -4.408  0.3120E+01  0.3119E+01  0.1431E+02  0.1430E+02
     -4.277  0.3460E+01  0.3459E+01  0.1476E+02  0.1476E+02
     -4.145  0.3493E+01  0.3493E+01  0.1522E+02  0.1522E+02
     -4.013  0.2615E+01  0.2621E+01  0.1557E+02  0.1557E+02
     -3.881  0.1475E+01  0.1479E+01  0.1576E+02  0.1576E+02
     -3.749  0.6831E+00  0.6834E+00  0.1585E+02  0.1585E+02
     -3.617  0.8593E+00  0.8605E+00  0.1597E+02  0.1597E+02
     -3.486  0.2265E+00  0.2287E+00  0.1600E+02  0.1600E+02
     -3.354  0.1952E-01  0.1974E-01  0.1600E+02  0.1600E+02
     -3.222  0.0000E+00  0.0000E+00  0.1600E+02  0.1600E+02
     -3.090  0.0000E+00  0.0000E+00  0.1600E+02  0.1600E+02
     -2.958  0.0000E+00  0.0000E+00  0.1600E+02  0.1600E+02
     -2.826  0.0000E+00  0.0000E+00  0.1600E+02  0.1600E+02
     -2.695  0.0000E+00  0.0000E+00  0.1600E+02  0.1600E+02
     -2.563  0.0000E+00  0.0000E+00  0.1600E+02  0.1600E+02
     -2.431  0.0000E+00  0.0000E+00  0.1600E+02  0.1600E+02
     -2.299  0.0000E+00  0.0000E+00  0.1600E+02  0.1600E+02
     -2.167  0.0000E+00  0.0000E+00  0.1600E+02  0.1600E+02
     -2.035  0.0000E+00  0.0000E+00  0.1600E+02  0.1600E+02
     -1.904  0.0000E+00  0.0000E+00  0.1600E+02  0.1600E+02
     -1.772  0.0000E+00  0.0000E+00  0.1600E+02  0.1600E+02
     -1.640  0.0000E+00  0.0000E+00  0.1600E+02  0.1600E+02
     -1.508  0.0000E+00  0.0000E+00  0.1600E+02  0.1600E+02
     -1.376  0.0000E+00  0.0000E+00  0.1600E+02  0.1600E+02
     -1.244  0.0000E+00  0.0000E+00  0.1600E+02  0.1600E+02
     -1.113  0.0000E+00  0.0000E+00  0.1600E+02  0.1600E+02
     -0.981  0.0000E+00  0.0000E+00  0.1600E+02  0.1600E+02
     -0.849  0.0000E+00  0.0000E+00  0.1600E+02  0.1600E+02
     -0.717  0.6025E-04  0.6021E-04  0.1600E+02  0.1600E+02
     -0.585  0.7808E-03  0.7803E-03  0.1600E+02  0.1600E+02
     -0.453  0.1082E-01  0.1081E-01  0.1600E+02  0.1600E+02
     -0.321  0.1360E+00  0.1360E+00  0.1602E+02  0.1602E+02
     -0.190  0.7451E+00  0.7450E+00  0.1612E+02  0.1612E+02
     -0.058  0.5286E+00  0.5288E+00  0.1619E+02  0.1619E+02
      0.074  0.2686E+00  0.2684E+00  0.1622E+02  0.1622E+02
      0.206  0.4453E+00  0.4453E+00  0.1628E+02  0.1628E+02
      0.338  0.1247E+01  0.1246E+01  0.1645E+02  0.1645E+02
      0.470  0.2062E+01  0.2062E+01  0.1672E+02  0.1672E+02
      0.601  0.9675E+00  0.9680E+00  0.1685E+02  0.1685E+02
      0.733  0.1005E+01  0.1005E+01  0.1698E+02  0.1698E+02
      0.865  0.2444E+01  0.2443E+01  0.1730E+02  0.1730E+02
      0.997  0.3208E+01  0.3209E+01  0.1772E+02  0.1772E+02
      1.129  0.1467E+01  0.1468E+01  0.1792E+02  0.1792E+02
      1.261  0.1566E+01  0.1565E+01  0.1813E+02  0.1813E+02
      1.392  0.2172E+01  0.2172E+01  0.1841E+02  0.1841E+02
      1.524  0.2560E+01  0.2560E+01  0.1875E+02  0.1875E+02
      1.656  0.1673E+01  0.1674E+01  0.1897E+02  0.1897E+02
      1.788  0.1552E+01  0.1550E+01  0.1918E+02  0.1918E+02
      1.920  0.3281E+01  0.3280E+01  0.1961E+02  0.1961E+02
      2.052  0.4703E+01  0.4702E+01  0.2023E+02  0.2023E+02
      2.183  0.7365E+01  0.7363E+01  0.2120E+02  0.2120E+02
      2.315  0.8769E+01  0.8769E+01  0.2236E+02  0.2236E+02
      2.447  0.8668E+01  0.8671E+01  0.2350E+02  0.2350E+02
      2.579  0.6357E+01  0.6357E+01  0.2434E+02  0.2434E+02
      2.711  0.5074E+01  0.5077E+01  0.2501E+02  0.2501E+02
      2.843  0.2607E+01  0.2609E+01  0.2536E+02  0.2536E+02
      2.974  0.1557E+01  0.1557E+01  0.2557E+02  0.2557E+02
      3.106  0.1138E+01  0.1136E+01  0.2572E+02  0.2572E+02
      3.238  0.2111E+01  0.2111E+01  0.2600E+02  0.2600E+02
      3.370  0.3125E+01  0.3122E+01  0.2641E+02  0.2641E+02
      3.502  0.4075E+01  0.4076E+01  0.2695E+02  0.2695E+02
      3.634  0.1964E+01  0.1964E+01  0.2721E+02  0.2721E+02
      3.765  0.1773E+01  0.1774E+01  0.2744E+02  0.2744E+02
      3.897  0.1014E+01  0.1016E+01  0.2757E+02  0.2757E+02
      4.029  0.6039E+00  0.6046E+00  0.2765E+02  0.2765E+02
      4.161  0.2896E+00  0.2899E+00  0.2769E+02  0.2769E+02
      4.293  0.2251E+00  0.2242E+00  0.2772E+02  0.2772E+02
      4.425  0.5695E+00  0.5686E+00  0.2780E+02  0.2780E+02
      4.556  0.6931E+00  0.6936E+00  0.2789E+02  0.2789E+02
      4.688  0.4771E+00  0.4777E+00  0.2795E+02  0.2795E+02
      4.820  0.8873E+00  0.8866E+00  0.2807E+02  0.2807E+02
      4.952  0.5846E+00  0.5845E+00  0.2815E+02  0.2815E+02
      5.084  0.3376E+00  0.3381E+00  0.2819E+02  0.2819E+02
      5.216  0.3338E+00  0.3349E+00  0.2824E+02  0.2824E+02
      5.347  0.1198E+01  0.1201E+01  0.2839E+02  0.2839E+02
      5.479  0.2794E+01  0.2794E+01  0.2876E+02  0.2876E+02
      5.611  0.3475E+01  0.3473E+01  0.2922E+02  0.2922E+02
      5.743  0.1847E+01  0.1847E+01  0.2946E+02  0.2946E+02
      5.875  0.1060E+01  0.1062E+01  0.2960E+02  0.2960E+02
      6.007  0.7233E+00  0.7231E+00  0.2970E+02  0.2970E+02
      6.139  0.6061E+00  0.6046E+00  0.2978E+02  0.2978E+02
      6.270  0.6128E+00  0.6144E+00  0.2986E+02  0.2986E+02
      6.402  0.9420E+00  0.9418E+00  0.2999E+02  0.2999E+02
      6.534  0.8832E+00  0.8856E+00  0.3010E+02  0.3010E+02
      6.666  0.2472E+01  0.2475E+01  0.3043E+02  0.3043E+02
      6.798  0.6062E+01  0.6060E+01  0.3123E+02  0.3123E+02
      6.930  0.3686E+01  0.3677E+01  0.3171E+02  0.3171E+02
      7.061  0.2119E+01  0.2116E+01  0.3199E+02  0.3199E+02
      7.193  0.2231E+01  0.2235E+01  0.3229E+02  0.3229E+02
      7.325  0.2001E+01  0.2000E+01  0.3255E+02  0.3255E+02
      7.457  0.2921E+01  0.2910E+01  0.3294E+02  0.3294E+02
      7.589  0.2657E+01  0.2673E+01  0.3329E+02  0.3329E+02
      7.721  0.2041E+01  0.2055E+01  0.3356E+02  0.3356E+02
      7.852  0.3890E+01  0.3936E+01  0.3407E+02  0.3408E+02
      7.984  0.7685E+01  0.7980E+01  0.3509E+02  0.3514E+02
      8.116  0.6101E+01  0.5851E+01  0.3589E+02  0.3591E+02
      8.248  0.3384E+01  0.3366E+01  0.3634E+02  0.3635E+02
      8.380  0.2584E+01  0.2886E+01  0.3668E+02  0.3674E+02
      8.512  0.1866E+01  0.1957E+01  0.3693E+02  0.3699E+02
      8.643  0.2207E+01  0.1994E+01  0.3722E+02  0.3726E+02
      8.775  0.5895E+01  0.6015E+01  0.3800E+02  0.3805E+02
      8.907  0.6691E+01  0.7111E+01  0.3888E+02  0.3899E+02
      9.039  0.4260E+01  0.5167E+01  0.3944E+02  0.3967E+02
      9.171  0.9861E+00  0.2068E+01  0.3958E+02  0.3995E+02
      9.303  0.3333E+00  0.3695E+00  0.3962E+02  0.4000E+02
      9.434  0.4003E+00  0.2724E-01  0.3967E+02  0.4000E+02
      9.566  0.2714E+00  0.0000E+00  0.3971E+02  0.4000E+02
      9.698  0.3417E+00  0.0000E+00  0.3975E+02  0.4000E+02
      9.830  0.8124E+00  0.0000E+00  0.3986E+02  0.4000E+02
      9.962  0.8829E+00  0.0000E+00  0.3998E+02  0.4000E+02
     10.094  0.1525E+00  0.0000E+00  0.4000E+02  0.4000E+02
     10.225  0.5941E-02  0.0000E+00  0.4000E+02  0.4000E+02
     10.357  0.0000E+00  0.0000E+00  0.4000E+02  0.4000E+02
     10.489  0.0000E+00  0.0000E+00  0.4000E+02  0.4000E+02
     10.621  0.0000E+00  0.0000E+00  0.4000E+02  0.4000E+02
     10.753  0.0000E+00  0.0000E+00  0.4000E+02  0.4000E+02
     10.885  0.0000E+00  0.0000E+00  0.4000E+02  0.4000E+02
     11.016  0.0000E+00  0.0000E+00  0.4000E+02  0.4000E+02
     11.148  0.0000E+00  0.0000E+00  0.4000E+02  0.4000E+02
     11.280  0.0000E+00  0.0000E+00  0.4000E+02  0.4000E+02
     11.412  0.0000E+00  0.0000E+00  0.4000E+02  0.4000E+02
     11.544  0.0000E+00  0.0000E+00  0.4000E+02  0.4000E+02
     11.676  0.0000E+00  0.0000E+00  0.4000E+02  0.4000E+02
     11.67567407    -27.87542584  301      6.42176027      1.00000000
    -27.875  0.0000E+00  0.0000E+00  0.0000E+00  0.0000E+00  0.0000E+00  0.0000E+00  0.0000E+00  0.0000E+00  0.0000E+00  0.0000E+00  0.0000E+00  0.0000E+00  0.0000E+00  0.0000E+00  0.0000E+00  0.0000E+00  0.0000E+00  0.0000E+00
    -27.744  0.0000E+00  0.0000E+00  0.0000E+00  0.0000E+00  0.0000E+00  0.0000E+00  0.0000E+00  0.0000E+00  0.0000E+00  0.0000E+00  0.0000E+00  0.0000E+00  0.0000E+00  0.0000E+00  0.0000E+00  0.0000E+00  0.0000E+00  0.0000E+00
    -27.612  0.0000E+00  0.0000E+00  0.0000E+00  0.0000E+00  0.0000E+00  0.0000E+00  0.0000E+00  0.0000E+00  0.0000E+00  0.0000E+00  0.0000E+00  0.0000E+00  0.0000E+00  0.0000E+00  0.0000E+00  0.0000E+00  0.0000E+00  0.0000E+00
    -27.480  0.0000E+00  0.0000E+00  0.0000E+00  0.0000E+00  0.0000E+00  0.0000E+00  0.0000E+00  0.0000E+00  0.0000E+00  0.0000E+00  0.0000E+00  0.0000E+00  0.0000E+00  0.0000E+00  0.0000E+00  0.0000E+00  0.0000E+00  0.0000E+00
    -27.348  0.0000E+00  0.0000E+00  0.0000E+00  0.0000E+00  0.0000E+00  0.0000E+00  0.0000E+00  0.0000E+00  0.0000E+00  0.0000E+00  0.0000E+00  0.0000E+00  0.0000E+00  0.0000E+00  0.0000E+00  0.0000E+00  0.0000E+00  0.0000E+00
    -27.216  0.0000E+00  0.0000E+00  0.0000E+00  0.0000E+00  0.0000E+00  0.0000E+00  0.0000E+00  0.0000E+00  0.0000E+00  0.0000E+00  0.0000E+00  0.0000E+00  0.0000E+00  0.0000E+00  0.0000E+00  0.0000E+00  0.0000E+00  0.0000E+00
    -27.084  0.0000E+00  0.0000E+00  0.0000E+00  0.0000E+00  0.0000E+00  0.0000E+00  0.0000E+00  0.0000E+00  0.0000E+00  0.0000E+00  0.0000E+00  0.0000E+00  0.0000E+00  0.0000E+00  0.0000E+00  0.0000E+00  0.0000E+00  0.0000E+00
    -26.953  0.0000E+00  0.0000E+00  0.0000E+00  0.0000E+00  0.0000E+00  0.0000E+00  0.0000E+00  0.0000E+00  0.0000E+00  0.0000E+00  0.0000E+00  0.0000E+00  0.0000E+00  0.0000E+00  0.0000E+00  0.0000E+00  0.0000E+00  0.0000E+00
    -26.821  0.0000E+00  0.0000E+00  0.0000E+00  0.0000E+00  0.0000E+00  0.0000E+00  0.0000E+00  0.0000E+00  0.0000E+00  0.0000E+00  0.0000E+00  0.0000E+00  0.0000E+00  0.0000E+00  0.0000E+00  0.0000E+00  0.0000E+00  0.0000E+00
    -26.689  0.0000E+00  0.0000E+00  0.0000E+00  0.0000E+00  0.0000E+00  0.0000E+00  0.0000E+00  0.0000E+00  0.0000E+00  0.0000E+00  0.0000E+00  0.0000E+00  0.0000E+00  0.0000E+00  0.0000E+00  0.0000E+00  0.0000E+00  0.0000E+00
    -26.557  0.1077E-08  0.1085E-08  0.1325E-04  0.1335E-04  0.1325E-04  0.1335E-04  0.1325E-04  0.1335E-04  0.4537E-09  0.4567E-09  0.4537E-09  0.4567E-09  0.6267E-09  0.6313E-09  0.4537E-09  0.4567E-09  0.6267E-09  0.6313E-09
    -26.425  0.9322E-07  0.9391E-07  0.4326E-03  0.4359E-03  0.4326E-03  0.4359E-03  0.4326E-03  0.4359E-03  0.2289E-07  0.2306E-07  0.2289E-07  0.2306E-07  0.2326E-07  0.2344E-07  0.2289E-07  0.2306E-07  0.2326E-07  0.2344E-07
    -26.293  0.1274E-05  0.1283E-05  0.5894E-02  0.5937E-02  0.5894E-02  0.5937E-02  0.5894E-02  0.5937E-02  0.3212E-06  0.3236E-06  0.3212E-06  0.3236E-06  0.3137E-06  0.3161E-06  0.3212E-06  0.3236E-06  0.3137E-06  0.3161E-06
    -26.162  0.1700E-04  0.1712E-04  0.7681E-01  0.7735E-01  0.7681E-01  0.7735E-01  0.7681E-01  0.7735E-01  0.4273E-05  0.4303E-05  0.4273E-05  0.4303E-05  0.4150E-05  0.4179E-05  0.4273E-05  0.4303E-05  0.4150E-05  0.4179E-05
    -26.030  0.1605E-03  0.1613E-03  0.6090E+00  0.6116E+00  0.6090E+00  0.6116E+00  0.6090E+00  0.6116E+00  0.3850E-04  0.3870E-04  0.3850E-04  0.3870E-04  0.3496E-04  0.3512E-04  0.3850E-04  0.3870E-04  0.3496E-04  0.3512E-04
    -25.898  0.4807E-03  0.4812E-03  0.1449E+01  0.1451E+01  0.1449E+01  0.1451E+01  0.1449E+01  0.1451E+01  0.1170E-03  0.1172E-03  0.1170E-03  0.1172E-03  0.8591E-04  0.8605E-04  0.1170E-03  0.1172E-03  0.8591E-04  0.8605E-04
    -25.766  0.4097E-03  0.4090E-03  0.1919E+01  0.1921E+01  0.1919E+01  0.1921E+01  0.1919E+01  0.1921E+01  0.1781E-03  0.1783E-03  0.1781E-03  0.1783E-03  0.1148E-03  0.1151E-03  0.1781E-03  0.1783E-03  0.1148E-03  0.1151E-03
    -25.634  0.1858E-03  0.1853E-03  0.2377E+01  0.2375E+01  0.2377E+01  0.2375E+01  0.2377E+01  0.2375E+01  0.1497E-03  0.1495E-03  0.1497E-03  0.1495E-03  0.1245E-03  0.1245E-03  0.1497E-03  0.1495E-03  0.1245E-03  0.1245E-03
    -25.502  0.3799E-04  0.3777E-04  0.9221E+00  0.9177E+00  0.9221E+00  0.9177E+00  0.9221E+00  0.9177E+00  0.4024E-04  0.4004E-04  0.4024E-04  0.4004E-04  0.3369E-04  0.3353E-04  0.4024E-04  0.4004E-04  0.3369E-04  0.3353E-04
    -25.371  0.3023E-05  0.3002E-05  0.1009E+00  0.1002E+00  0.1009E+00  0.1002E+00  0.1009E+00  0.1002E+00  0.3620E-05  0.3597E-05  0.3620E-05  0.3597E-05  0.3015E-05  0.2996E-05  0.3620E-05  0.3597E-05  0.3015E-05  0.2996E-05
    -25.239  0.1359E-16  0.1403E-16  0.1711E-02  0.1698E-02  0.1711E-02  0.1698E-02  0.1711E-02  0.1698E-02  0.2092E-07  0.2077E-07  0.2092E-07  0.2077E-07  0.1412E-07  0.1409E-07  0.2092E-07  0.2077E-07  0.1412E-07  0.1409E-07
    -25.107  0.0000E+00  0.0000E+00  0.0000E+00  0.0000E+00  0.0000E+00  0.0000E+00  0.0000E+00  0.0000E+00  0.0000E+00  0.0000E+00  0.0000E+00  0.0000E+00  0.0000E+00  0.0000E+00  0.0000E+00  0.0000E+00  0.0000E+00  0.0000E+00
    -24.975  0.0000E+00  0.0000E+00  0.0000E+00  0.0000E+00  0.0000E+00  0.0000E+00  0.0000E+00  0.0000E+00  0.0000E+00  0.0000E+00  0.0000E+00  0.0000E+00  0.0000E+00  0.0000E+00  0.0000E+00  0.0000E+00  0.0000E+00  0.0000E+00
    -24.843  0.0000E+00  0.0000E+00  0.0000E+00  0.0000E+00  0.0000E+00  0.0000E+00  0.0000E+00  0.0000E+00  0.0000E+00  0.0000E+00  0.0000E+00  0.0000E+00  0.0000E+00  0.0000E+00  0.0000E+00  0.0000E+00  0.0000E+00  0.0000E+00
    -24.711  0.0000E+00  0.0000E+00  0.0000E+00  0.0000E+00  0.0000E+00  0.0000E+00  0.0000E+00  0.0000E+00  0.0000E+00  0.0000E+00  0.0000E+00  0.0000E+00  0.0000E+00  0.0000E+00  0.0000E+00  0.0000E+00  0.0000E+00  0.0000E+00
    -24.580  0.0000E+00  0.0000E+00  0.0000E+00  0.0000E+00  0.0000E+00  0.0000E+00  0.0000E+00  0.0000E+00  0.0000E+00  0.0000E+00  0.0000E+00  0.0000E+00  0.0000E+00  0.0000E+00  0.0000E+00  0.0000E+00  0.0000E+00  0.0000E+00
    -24.448  0.0000E+00  0.0000E+00  0.0000E+00  0.0000E+00  0.0000E+00  0.0000E+00  0.0000E+00  0.0000E+00  0.0000E+00  0.0000E+00  0.0000E+00  0.0000E+00  0.0000E+00  0.0000E+00  0.0000E+00  0.0000E+00  0.0000E+00  0.0000E+00
    -24.316  0.0000E+00  0.0000E+00  0.0000E+00  0.0000E+00  0.0000E+00  0.0000E+00  0.0000E+00  0.0000E+00  0.0000E+00  0.0000E+00  0.0000E+00  0.0000E+00  0.0000E+00  0.0000E+00  0.0000E+00  0.0000E+00  0.0000E+00  0.0000E+00
    -24.184  0.0000E+00  0.0000E+00  0.0000E+00  0.0000E+00  0.0000E+00  0.0000E+00  0.0000E+00  0.0000E+00  0.0000E+00  0.0000E+00  0.0000E+00  0.0000E+00  0.0000E+00  0.0000E+00  0.0000E+00  0.0000E+00  0.0000E+00  0.0000E+00
    -24.052  0.0000E+00  0.0000E+00  0.0000E+00  0.0000E+00  0.0000E+00  0.0000E+00  0.0000E+00  0.0000E+00  0.0000E+00  0.0000E+00  0.0000E+00  0.0000E+00  0.0000E+00  0.0000E+00  0.0000E+00  0.0000E+00  0.0000E+00  0.0000E+00
    -23.920  0.0000E+00  0.0000E+00  0.0000E+00  0.0000E+00  0.0000E+00  0.0000E+00  0.0000E+00  0.0000E+00  0.0000E+00  0.0000E+00  0.0000E+00  0.0000E+00  0.0000E+00  0.0000E+00  0.0000E+00  0.0000E+00  0.0000E+00  0.0000E+00
    -23.788  0.0000E+00  0.0000E+00  0.0000E+00  0.0000E+00  0.0000E+00  0.0000E+00  0.0000E+00  0.0000E+00  0.0000E+00  0.0000E+00  0.0000E+00  0.0000E+00  0.0000E+00  0.0000E+00  0.0000E+00  0.0000E+00  0.0000E+00  0.0000E+00
    -23.657  0.0000E+00  0.0000E+00  0.0000E+00  0.0000E+00  0.0000E+00  0.0000E+00  0.0000E+00  0.0000E+00  0.0000E+00  0.0000E+00  0.0000E+00  0.0000E+00  0.0000E+00  0.0000E+00  0.0000E+00  0.0000E+00  0.0000E+00  0.0000E+00
    -23.525  0.0000E+00  0.0000E+00  0.0000E+00  0.0000E+00  0.0000E+00  0.0000E+00  0.0000E+00  0.0000E+00  0.0000E+00  0.0000E+00  0.0000E+00  0.0000E+00  0.0000E+00  0.0000E+00  0.0000E+00  0.0000E+00  0.0000E+00  0.0000E+00
    -23.393  0.0000E+00  0.0000E+00  0.0000E+00  0.0000E+00  0.0000E+00  0.0000E+00  0.0000E+00  0.0000E+00  0.0000E+00  0.0000E+00  0.0000E+00  0.0000E+00  0.0000E+00  0.0000E+00  0.0000E+00  0.0000E+00  0.0000E+00  0.0000E+00
    -23.261  0.0000E+00  0.0000E+00  0.0000E+00  0.0000E+00  0.0000E+00  0.0000E+00  0.0000E+00  0.0000E+00  0.0000E+00  0.0000E+00  0.0000E+00  0.0000E+00  0.0000E+00  0.0000E+00  0.0000E+00  0.0000E+00  0.0000E+00  0.0000E+00
    -23.129  0.0000E+00  0.0000E+00  0.0000E+00  0.0000E+00  0.0000E+00  0.0000E+00  0.0000E+00  0.0000E+00  0.0000E+00  0.0000E+00  0.0000E+00  0.0000E+00  0.0000E+00  0.0000E+00  0.0000E+00  0.0000E+00  0.0000E+00  0.0000E+00
    -22.997  0.0000E+00  0.0000E+00  0.0000E+00  0.0000E+00  0.0000E+00  0.0000E+00  0.0000E+00  0.0000E+00  0.0000E+00  0.0000E+00  0.0000E+00  0.0000E+00  0.0000E+00  0.0000E+00  0.0000E+00  0.0000E+00  0.0000E+00  0.0000E+00
    -22.866  0.0000E+00  0.0000E+00  0.0000E+00  0.0000E+00  0.0000E+00  0.0000E+00  0.0000E+00  0.0000E+00  0.0000E+00  0.0000E+00  0.0000E+00  0.0000E+00  0.0000E+00  0.0000E+00  0.0000E+00  0.0000E+00  0.0000E+00  0.0000E+00
    -22.734  0.0000E+00  0.0000E+00  0.0000E+00  0.0000E+00  0.0000E+00  0.0000E+00  0.0000E+00  0.0000E+00  0.0000E+00  0.0000E+00  0.0000E+00  0.0000E+00  0.0000E+00  0.0000E+00  0.0000E+00  0.0000E+00  0.0000E+00  0.0000E+00
    -22.602  0.0000E+00  0.0000E+00  0.0000E+00  0.0000E+00  0.0000E+00  0.0000E+00  0.0000E+00  0.0000E+00  0.0000E+00  0.0000E+00  0.0000E+00  0.0000E+00  0.0000E+00  0.0000E+00  0.0000E+00  0.0000E+00  0.0000E+00  0.0000E+00
    -22.470  0.0000E+00  0.0000E+00  0.0000E+00  0.0000E+00  0.0000E+00  0.0000E+00  0.0000E+00  0.0000E+00  0.0000E+00  0.0000E+00  0.0000E+00  0.0000E+00  0.0000E+00  0.0000E+00  0.0000E+00  0.0000E+00  0.0000E+00  0.0000E+00
    -22.338  0.0000E+00  0.0000E+00  0.0000E+00  0.0000E+00  0.0000E+00  0.0000E+00  0.0000E+00  0.0000E+00  0.0000E+00  0.0000E+00  0.0000E+00  0.0000E+00  0.0000E+00  0.0000E+00  0.0000E+00  0.0000E+00  0.0000E+00  0.0000E+00
    -22.206  0.0000E+00  0.0000E+00  0.0000E+00  0.0000E+00  0.0000E+00  0.0000E+00  0.0000E+00  0.0000E+00  0.0000E+00  0.0000E+00  0.0000E+00  0.0000E+00  0.0000E+00  0.0000E+00  0.0000E+00  0.0000E+00  0.0000E+00  0.0000E+00
    -22.075  0.0000E+00  0.0000E+00  0.0000E+00  0.0000E+00  0.0000E+00  0.0000E+00  0.0000E+00  0.0000E+00  0.0000E+00  0.0000E+00  0.0000E+00  0.0000E+00  0.0000E+00  0.0000E+00  0.0000E+00  0.0000E+00  0.0000E+00  0.0000E+00
    -21.943  0.0000E+00  0.0000E+00  0.0000E+00  0.0000E+00  0.0000E+00  0.0000E+00  0.0000E+00  0.0000E+00  0.0000E+00  0.0000E+00  0.0000E+00  0.0000E+00  0.0000E+00  0.0000E+00  0.0000E+00  0.0000E+00  0.0000E+00  0.0000E+00
    -21.811  0.0000E+00  0.0000E+00  0.0000E+00  0.0000E+00  0.0000E+00  0.0000E+00  0.0000E+00  0.0000E+00  0.0000E+00  0.0000E+00  0.0000E+00  0.0000E+00  0.0000E+00  0.0000E+00  0.0000E+00  0.0000E+00  0.0000E+00  0.0000E+00
    -21.679  0.0000E+00  0.0000E+00  0.0000E+00  0.0000E+00  0.0000E+00  0.0000E+00  0.0000E+00  0.0000E+00  0.0000E+00  0.0000E+00  0.0000E+00  0.0000E+00  0.0000E+00  0.0000E+00  0.0000E+00  0.0000E+00  0.0000E+00  0.0000E+00
    -21.547  0.0000E+00  0.0000E+00  0.0000E+00  0.0000E+00  0.0000E+00  0.0000E+00  0.0000E+00  0.0000E+00  0.0000E+00  0.0000E+00  0.0000E+00  0.0000E+00  0.0000E+00  0.0000E+00  0.0000E+00  0.0000E+00  0.0000E+00  0.0000E+00
    -21.415  0.0000E+00  0.0000E+00  0.0000E+00  0.0000E+00  0.0000E+00  0.0000E+00  0.0000E+00  0.0000E+00  0.0000E+00  0.0000E+00  0.0000E+00  0.0000E+00  0.0000E+00  0.0000E+00  0.0000E+00  0.0000E+00  0.0000E+00  0.0000E+00
    -21.284  0.0000E+00  0.0000E+00  0.0000E+00  0.0000E+00  0.0000E+00  0.0000E+00  0.0000E+00  0.0000E+00  0.0000E+00  0.0000E+00  0.0000E+00  0.0000E+00  0.0000E+00  0.0000E+00  0.0000E+00  0.0000E+00  0.0000E+00  0.0000E+00