   8   8   1   0
  0.1400071E+02  0.4820366E-09  0.4820366E-09  0.4820366E-09  0.5000000E-15
  1.000000000000000E-004
  CAR 
 unknown system                          
     10.68488350    -28.67556359  301      5.61670223      1.00000000
    -28.676  0.0000E+00  0.0000E+00  0.0000E+00  0.0000E+00
    -28.544  0.0000E+00  0.0000E+00  0.0000E+00  0.0000E+00
    -28.413  0.0000E+00  0.0000E+00  0.0000E+00  0.0000E+00
    -28.282  0.0000E+00  0.0000E+00  0.0000E+00  0.0000E+00
    -28.151  0.0000E+00  0.0000E+00  0.0000E+00  0.0000E+00
    -28.020  0.0000E+00  0.0000E+00  0.0000E+00  0.0000E+00
    -27.888  0.0000E+00  0.0000E+00  0.0000E+00  0.0000E+00
    -27.757  0.0000E+00  0.0000E+00  0.0000E+00  0.0000E+00
    -27.626  0.0000E+00  0.0000E+00  0.0000E+00  0.0000E+00
    -27.495  0.0000E+00  0.0000E+00  0.0000E+00  0.0000E+00
    -27.364  0.3088E-03  0.3101E-03  0.4052E-04  0.4068E-04
    -27.232  0.8300E-02  0.8334E-02  0.1129E-02  0.1134E-02
    -27.101  0.1146E+00  0.1150E+00  0.1616E-01  0.1622E-01
    -26.970  0.1465E+01  0.1470E+01  0.2083E+00  0.2091E+00
    -26.839  0.1116E+02  0.1118E+02  0.1672E+01  0.1676E+01
    -26.708  0.2656E+02  0.2658E+02  0.5157E+01  0.5164E+01
    -26.576  0.3485E+02  0.3484E+02  0.9730E+01  0.9736E+01
    -26.445  0.1534E+02  0.1530E+02  0.1174E+02  0.1174E+02
    -26.314  0.1774E+01  0.1767E+01  0.1198E+02  0.1198E+02
    -26.183  0.4971E-01  0.4951E-01  0.1200E+02  0.1200E+02
    -26.052  0.0000E+00  0.0000E+00  0.1200E+02  0.1200E+02
    -25.920  0.0000E+00  0.0000E+00  0.1200E+02  0.1200E+02
    -25.789  0.0000E+00  0.0000E+00  0.1200E+02  0.1200E+02
    -25.658  0.0000E+00  0.0000E+00  0.1200E+02  0.1200E+02
    -25.527  0.0000E+00  0.0000E+00  0.1200E+02  0.1200E+02
    -25.396  0.0000E+00  0.0000E+00  0.1200E+02  0.1200E+02
    -25.264  0.0000E+00  0.0000E+00  0.1200E+02  0.1200E+02
    -25.133  0.0000E+00  0.0000E+00  0.1200E+02  0.1200E+02
    -25.002  0.0000E+00  0.0000E+00  0.1200E+02  0.1200E+02
    -24.871  0.0000E+00  0.0000E+00  0.1200E+02  0.1200E+02
    -24.740  0.0000E+00  0.0000E+00  0.1200E+02  0.1200E+02
    -24.608  0.0000E+00  0.0000E+00  0.1200E+02  0.1200E+02
    -24.477  0.0000E+00  0.0000E+00  0.1200E+02  0.1200E+02
    -24.346  0.0000E+00  0.0000E+00  0.1200E+02  0.1200E+02
    -24.215  0.0000E+00  0.0000E+00  0.1200E+02  0.1200E+02
    -24.084  0.0000E+00  0.0000E+00  0.1200E+02  0.1200E+02
    -23.952  0.0000E+00  0.0000E+00  0.1200E+02  0.1200E+02
    -23.821  0.0000E+00  0.0000E+00  0.1200E+02  0.1200E+02
    -23.690  0.0000E+00  0.0000E+00  0.1200E+02  0.1200E+02
    -23.559  0.0000E+00  0.0000E+00  0.1200E+02  0.1200E+02
    -23.428  0.0000E+00  0.0000E+00  0.1200E+02  0.1200E+02
    -23.296  0.0000E+00  0.0000E+00  0.1200E+02  0.1200E+02
    -23.165  0.0000E+00  0.0000E+00  0.1200E+02  0.1200E+02
    -23.034  0.0000E+00  0.0000E+00  0.1200E+02  0.1200E+02
    -22.903  0.0000E+00  0.0000E+00  0.1200E+02  0.1200E+02
    -22.771  0.0000E+00  0.0000E+00  0.1200E+02  0.1200E+02
    -22.640  0.0000E+00  0.0000E+00  0.1200E+02  0.1200E+02
    -22.509  0.0000E+00  0.0000E+00  0.1200E+02  0.1200E+02
    -22.378  0.0000E+00  0.0000E+00  0.1200E+02  0.1200E+02
    -22.247  0.0000E+00  0.0000E+00  0.1200E+02  0.1200E+02
    -22.115  0.0000E+00  0.0000E+00  0.1200E+02  0.1200E+02
    -21.984  0.0000E+00  0.0000E+00  0.1200E+02  0.1200E+02
    -21.853  0.0000E+00  0.0000E+00  0.1200E+02  0.1200E+02
    -21.722  0.0000E+00  0.0000E+00  0.1200E+02  0.1200E+02
    -21.591  0.0000E+00  0.0000E+00  0.1200E+02  0.1200E+02
    -21.459  0.0000E+00  0.0000E+00  0.1200E+02  0.1200E+02
    -21.328  0.0000E+00  0.0000E+00  0.1200E+02  0.1200E+02
    -21.197  0.0000E+00  0.0000E+00  0.1200E+02  0.1200E+02
    -21.066  0.0000E+00  0.0000E+00  0.1200E+02  0.1200E+02
    -20.935  0.0000E+00  0.0000E+00  0.1200E+02  0.1200E+02
    -20.803  0.0000E+00  0.0000E+00  0.1200E+02  0.1200E+02
    -20.672  0.0000E+00  0.0000E+00  0.1200E+02  0.1200E+02
    -20.541  0.0000E+00  0.0000E+00  0.1200E+02  0.1200E+02
    -20.410  0.0000E+00  0.0000E+00  0.1200E+02  0.1200E+02
    -20.279  0.0000E+00  0.0000E+00  0.1200E+02  0.1200E+02
    -20.147  0.0000E+00  0.0000E+00  0.1200E+02  0.1200E+02
    -20.016  0.0000E+00  0.0000E+00  0.1200E+02  0.1200E+02
    -19.885  0.0000E+00  0.0000E+00  0.1200E+02  0.1200E+02
    -19.754  0.0000E+00  0.0000E+00  0.1200E+02  0.1200E+02
    -19.623  0.0000E+00  0.0000E+00  0.1200E+02  0.1200E+02
    -19.491  0.0000E+00  0.0000E+00  0.1200E+02  0.1200E+02
    -19.360  0.0000E+00  0.0000E+00  0.1200E+02  0.1200E+02
    -19.229  0.0000E+00  0.0000E+00  0.1200E+02  0.1200E+02
    -19.098  0.0000E+00  0.0000E+00  0.1200E+02  0.1200E+02
    -18.967  0.0000E+00  0.0000E+00  0.1200E+02  0.1200E+02
    -18.835  0.0000E+00  0.0000E+00  0.1200E+02  0.1200E+02
    -18.704  0.0000E+00  0.0000E+00  0.1200E+02  0.1200E+02
    -18.573  0.0000E+00  0.0000E+00  0.1200E+02  0.1200E+02
    -18.442  0.0000E+00  0.0000E+00  0.1200E+02  0.1200E+02
    -18.311  0.0000E+00  0.0000E+00  0.1200E+02  0.1200E+02
    -18.179  0.0000E+00  0.0000E+00  0.1200E+02  0.1200E+02
    -18.048  0.0000E+00  0.0000E+00  0.1200E+02  0.1200E+02
    -17.917  0.0000E+00  0.0000E+00  0.1200E+02  0.1200E+02
    -17.786  0.0000E+00  0.0000E+00  0.1200E+02  0.1200E+02
    -17.655  0.0000E+00  0.0000E+00  0.1200E+02  0.1200E+02
    -17.523  0.0000E+00  0.0000E+00  0.1200E+02  0.1200E+02
    -17.392  0.0000E+00  0.0000E+00  0.1200E+02  0.1200E+02
    -17.261  0.0000E+00  0.0000E+00  0.1200E+02  0.1200E+02
    -17.130  0.0000E+00  0.0000E+00  0.1200E+02  0.1200E+02
    -16.999  0.0000E+00  0.0000E+00  0.1200E+02  0.1200E+02
    -16.867  0.0000E+00  0.0000E+00  0.1200E+02  0.1200E+02
    -16.736  0.0000E+00  0.0000E+00  0.1200E+02  0.1200E+02
    -16.605  0.0000E+00  0.0000E+00  0.1200E+02  0.1200E+02
    -16.474  0.0000E+00  0.0000E+00  0.1200E+02  0.1200E+02
    -16.343  0.0000E+00  0.0000E+00  0.1200E+02  0.1200E+02
    -16.211  0.0000E+00  0.0000E+00  0.1200E+02  0.1200E+02
    -16.080  0.0000E+00  0.0000E+00  0.1200E+02  0.1200E+02
    -15.949  0.0000E+00  0.0000E+00  0.1200E+02  0.1200E+02
    -15.818  0.0000E+00  0.0000E+00  0.1200E+02  0.1200E+02
    -15.687  0.0000E+00  0.0000E+00  0.1200E+02  0.1200E+02
    -15.555  0.0000E+00  0.0000E+00  0.1200E+02  0.1200E+02
    -15.424  0.0000E+00  0.0000E+00  0.1200E+02  0.1200E+02
    -15.293  0.0000E+00  0.0000E+00  0.1200E+02  0.1200E+02
    -15.162  0.0000E+00  0.0000E+00  0.1200E+02  0.1200E+02
    -15.031  0.0000E+00  0.0000E+00  0.1200E+02  0.1200E+02
    -14.899  0.0000E+00  0.0000E+00  0.1200E+02  0.1200E+02
    -14.768  0.0000E+00  0.0000E+00  0.1200E+02  0.1200E+02
    -14.637  0.0000E+00  0.0000E+00  0.1200E+02  0.1200E+02
    -14.506  0.0000E+00  0.0000E+00  0.1200E+02  0.1200E+02
    -14.375  0.0000E+00  0.0000E+00  0.1200E+02  0.1200E+02
    -14.243  0.0000E+00  0.0000E+00  0.1200E+02  0.1200E+02
    -14.112  0.0000E+00  0.0000E+00  0.1200E+02  0.1200E+02
    -13.981  0.0000E+00  0.0000E+00  0.1200E+02  0.1200E+02
    -13.850  0.0000E+00  0.0000E+00  0.1200E+02  0.1200E+02
    -13.719  0.0000E+00  0.0000E+00  0.1200E+02  0.1200E+02
    -13.587  0.0000E+00  0.0000E+00  0.1200E+02  0.1200E+02
    -13.456  0.0000E+00  0.0000E+00  0.1200E+02  0.1200E+02
    -13.325  0.0000E+00  0.0000E+00  0.1200E+02  0.1200E+02
    -13.194  0.0000E+00  0.0000E+00  0.1200E+02  0.1200E+02
    -13.063  0.0000E+00  0.0000E+00  0.1200E+02  0.1200E+02
    -12.931  0.0000E+00  0.0000E+00  0.1200E+02  0.1200E+02
    -12.800  0.0000E+00  0.0000E+00  0.1200E+02  0.1200E+02
    -12.669  0.0000E+00  0.0000E+00  0.1200E+02  0.1200E+02
    -12.538  0.0000E+00  0.0000E+00  0.1200E+02  0.1200E+02
    -12.407  0.0000E+00  0.0000E+00  0.1200E+02  0.1200E+02
    -12.275  0.0000E+00  0.0000E+00  0.1200E+02  0.1200E+02
    -12.144  0.0000E+00  0.0000E+00  0.1200E+02  0.1200E+02
    -12.013  0.0000E+00  0.0000E+00  0.1200E+02  0.1200E+02
    -11.882  0.0000E+00  0.0000E+00  0.1200E+02  0.1200E+02
    -11.751  0.0000E+00  0.0000E+00  0.1200E+02  0.1200E+02
    -11.619  0.0000E+00  0.0000E+00  0.1200E+02  0.1200E+02
    -11.488  0.0000E+00  0.0000E+00  0.1200E+02  0.1200E+02
    -11.357  0.0000E+00  0.0000E+00  0.1200E+02  0.1200E+02
    -11.226  0.0000E+00  0.0000E+00  0.1200E+02  0.1200E+02
    -11.095  0.0000E+00  0.0000E+00  0.1200E+02  0.1200E+02
    -10.963  0.0000E+00  0.0000E+00  0.1200E+02  0.1200E+02
    -10.832  0.0000E+00  0.0000E+00  0.1200E+02  0.1200E+02
    -10.701  0.0000E+00  0.0000E+00  0.1200E+02  0.1200E+02
    -10.570  0.0000E+00  0.0000E+00  0.1200E+02  0.1200E+02
    -10.439  0.0000E+00  0.0000E+00  0.1200E+02  0.1200E+02
    -10.307  0.0000E+00  0.0000E+00  0.1200E+02  0.1200E+02
    -10.176  0.0000E+00  0.0000E+00  0.1200E+02  0.1200E+02
    -10.045  0.0000E+00  0.0000E+00  0.1200E+02  0.1200E+02
     -9.914  0.0000E+00  0.0000E+00  0.1200E+02  0.1200E+02
     -9.783  0.0000E+00  0.0000E+00  0.1200E+02  0.1200E+02
     -9.651  0.0000E+00  0.0000E+00  0.1200E+02  0.1200E+02
     -9.520  0.0000E+00  0.0000E+00  0.1200E+02  0.1200E+02
     -9.389  0.0000E+00  0.0000E+00  0.1200E+02  0.1200E+02
     -9.258  0.0000E+00  0.0000E+00  0.1200E+02  0.1200E+02
     -9.127  0.0000E+00  0.0000E+00  0.1200E+02  0.1200E+02
     -8.995  0.0000E+00  0.0000E+00  0.1200E+02  0.1200E+02
     -8.864  0.0000E+00  0.0000E+00  0.1200E+02  0.1200E+02
     -8.733  0.0000E+00  0.0000E+00  0.1200E+02  0.1200E+02
     -8.602  0.0000E+00  0.0000E+00  0.1200E+02  0.1200E+02
     -8.471  0.0000E+00  0.0000E+00  0.1200E+02  0.1200E+02
     -8.339  0.0000E+00  0.0000E+00  0.1200E+02  0.1200E+02
     -8.208  0.0000E+00  0.0000E+00  0.1200E+02  0.1200E+02
     -8.077  0.0000E+00  0.0000E+00  0.1200E+02  0.1200E+02
     -7.946  0.0000E+00  0.0000E+00  0.1200E+02  0.1200E+02
     -7.815  0.0000E+00  0.0000E+00  0.1200E+02  0.1200E+02
     -7.683  0.0000E+00  0.0000E+00  0.1200E+02  0.1200E+02
     -7.552  0.0000E+00  0.0000E+00  0.1200E+02  0.1200E+02
     -7.421  0.0000E+00  0.0000E+00  0.1200E+02  0.1200E+02
     -7.290  0.0000E+00  0.0000E+00  0.1200E+02  0.1200E+02
     -7.159  0.2009E-04  0.2000E-04  0.1200E+02  0.1200E+02
     -7.027  0.2712E-03  0.2699E-03  0.1200E+02  0.1200E+02
     -6.896  0.3518E-02  0.3501E-02  0.1200E+02  0.1200E+02
     -6.765  0.2742E-01  0.2735E-01  0.1200E+02  0.1200E+02
     -6.634  0.6205E-01  0.6195E-01  0.1201E+02  0.1201E+02
     -6.503  0.1987E+00  0.1984E+00  0.1204E+02  0.1204E+02
     -6.371  0.2457E+00  0.2456E+00  0.1207E+02  0.1207E+02
     -6.240  0.4470E+00  0.4468E+00  0.1213E+02  0.1213E+02
     -6.109  0.3185E+00  0.3186E+00  0.1217E+02  0.1217E+02
     -5.978  0.4265E+00  0.4263E+00  0.1223E+02  0.1223E+02
     -5.847  0.3878E+00  0.3877E+00  0.1228E+02  0.1228E+02
     -5.715  0.8115E+00  0.8103E+00  0.1238E+02  0.1238E+02
     -5.584  0.8421E+00  0.8422E+00  0.1250E+02  0.1249E+02
     -5.453  0.1182E+01  0.1181E+01  0.1265E+02  0.1265E+02
     -5.322  0.1256E+01  0.1255E+01  0.1282E+02  0.1282E+02
     -5.190  0.2605E+01  0.2602E+01  0.1316E+02  0.1316E+02
     -5.059  0.3305E+01  0.3303E+01  0.1359E+02  0.1359E+02
     -4.928  0.3585E+01  0.3586E+01  0.1406E+02  0.1406E+02
     -4.797  0.3657E+01  0.3654E+01  0.1454E+02  0.1454E+02
     -4.666  0.4463E+01  0.4462E+01  0.1513E+02  0.1513E+02
     -4.534  0.3435E+01  0.3441E+01  0.1558E+02  0.1558E+02
     -4.403  0.1591E+01  0.1594E+01  0.1579E+02  0.1579E+02
     -4.272  0.1032E+01  0.1032E+01  0.1593E+02  0.1593E+02
     -4.141  0.4963E+00  0.4985E+00  0.1599E+02  0.1599E+02
     -4.010  0.5451E-01  0.5488E-01  0.1600E+02  0.1600E+02
     -3.878  0.0000E+00  0.0000E+00  0.1600E+02  0.1600E+02
     -3.747  0.0000E+00  0.0000E+00  0.1600E+02  0.1600E+02
     -3.616  0.0000E+00  0.0000E+00  0.1600E+02  0.1600E+02
     -3.485  0.0000E+00  0.0000E+00  0.1600E+02  0.1600E+02
     -3.354  0.0000E+00  0.0000E+00  0.1600E+02  0.1600E+02
     -3.222  0.0000E+00  0.0000E+00  0.1600E+02  0.1600E+02
     -3.091  0.0000E+00  0.0000E+00  0.1600E+02  0.1600E+02
     -2.960  0.0000E+00  0.0000E+00  0.1600E+02  0.1600E+02
     -2.829  0.0000E+00  0.0000E+00  0.1600E+02  0.1600E+02
     -2.698  0.0000E+00  0.0000E+00  0.1600E+02  0.1600E+02
     -2.566  0.0000E+00  0.0000E+00  0.1600E+02  0.1600E+02
     -2.435  0.0000E+00  0.0000E+00  0.1600E+02  0.1600E+02
     -2.304  0.0000E+00  0.0000E+00  0.1600E+02  0.1600E+02
     -2.173  0.0000E+00  0.0000E+00  0.1600E+02  0.1600E+02
     -2.042  0.0000E+00  0.0000E+00  0.1600E+02  0.1600E+02
     -1.910  0.0000E+00  0.0000E+00  0.1600E+02  0.1600E+02
     -1.779  0.0000E+00  0.0000E+00  0.1600E+02  0.1600E+02
     -1.648  0.0000E+00  0.0000E+00  0.1600E+02  0.1600E+02
     -1.517  0.0000E+00  0.0000E+00  0.1600E+02  0.1600E+02
     -1.386  0.0000E+00  0.0000E+00  0.1600E+02  0.1600E+02
     -1.254  0.0000E+00  0.0000E+00  0.1600E+02  0.1600E+02
     -1.123  0.0000E+00  0.0000E+00  0.1600E+02  0.1600E+02
     -0.992  0.1013E-03  0.1012E-03  0.1600E+02  0.1600E+02
     -0.861  0.1295E-02  0.1293E-02  0.1600E+02  0.1600E+02
     -0.730  0.1766E-01  0.1765E-01  0.1600E+02  0.1600E+02
     -0.598  0.2064E+00  0.2062E+00  0.1603E+02  0.1603E+02
     -0.467  0.8278E+00  0.8277E+00  0.1614E+02  0.1614E+02
     -0.336  0.4568E+00  0.4569E+00  0.1620E+02  0.1620E+02
     -0.205  0.3734E+00  0.3733E+00  0.1625E+02  0.1625E+02
     -0.074  0.6844E+00  0.6841E+00  0.1634E+02  0.1634E+02
      0.058  0.1854E+01  0.1854E+01  0.1658E+02  0.1658E+02
      0.189  0.1695E+01  0.1696E+01  0.1680E+02  0.1680E+02
      0.320  0.8646E+00  0.8643E+00  0.1692E+02  0.1692E+02
      0.451  0.2185E+01  0.2183E+01  0.1720E+02  0.1720E+02
      0.582  0.3476E+01  0.3476E+01  0.1766E+02  0.1766E+02
      0.714  0.1842E+01  0.1843E+01  0.1790E+02  0.1790E+02
      0.845  0.1630E+01  0.1629E+01  0.1812E+02  0.1812E+02
      0.976  0.2588E+01  0.2588E+01  0.1846E+02  0.1846E+02
      1.107  0.2601E+01  0.2601E+01  0.1880E+02  0.1880E+02
      1.238  0.1812E+01  0.1812E+01  0.1904E+02  0.1904E+02
      1.370  0.1699E+01  0.1699E+01  0.1926E+02  0.1926E+02
      1.501  0.2726E+01  0.2725E+01  0.1962E+02  0.1962E+02
      1.632  0.5935E+01  0.5932E+01  0.2040E+02  0.2040E+02
      1.763  0.9411E+01  0.9411E+01  0.2163E+02  0.2163E+02
      1.894  0.8460E+01  0.8460E+01  0.2274E+02  0.2274E+02
      2.026  0.7646E+01  0.7647E+01  0.2375E+02  0.2375E+02
      2.157  0.6266E+01  0.6267E+01  0.2457E+02  0.2457E+02
      2.288  0.4394E+01  0.4396E+01  0.2515E+02  0.2515E+02
      2.419  0.2064E+01  0.2065E+01  0.2542E+02  0.2542E+02
      2.550  0.1452E+01  0.1451E+01  0.2561E+02  0.2561E+02
      2.682  0.2019E+01  0.2018E+01  0.2588E+02  0.2588E+02
      2.813  0.2941E+01  0.2940E+01  0.2627E+02  0.2626E+02
      2.944  0.4565E+01  0.4565E+01  0.2686E+02  0.2686E+02
      3.075  0.2751E+01  0.2752E+01  0.2723E+02  0.2723E+02
      3.206  0.1706E+01  0.1707E+01  0.2745E+02  0.2745E+02
      3.338  0.8842E+00  0.8853E+00  0.2757E+02  0.2757E+02
      3.469  0.6030E+00  0.6034E+00  0.2765E+02  0.2765E+02
      3.600  0.2870E+00  0.2873E+00  0.2769E+02  0.2769E+02
      3.731  0.4060E+00  0.4054E+00  0.2774E+02  0.2774E+02
      3.862  0.8273E+00  0.8268E+00  0.2785E+02  0.2785E+02
      3.994  0.5253E+00  0.5258E+00  0.2792E+02  0.2792E+02
      4.125  0.8005E+00  0.8001E+00  0.2802E+02  0.2802E+02
      4.256  0.8360E+00  0.8363E+00  0.2813E+02  0.2813E+02
      4.387  0.4161E+00  0.4162E+00  0.2819E+02  0.2819E+02
      4.518  0.2944E+00  0.2949E+00  0.2822E+02  0.2823E+02
      4.650  0.1061E+01  0.1062E+01  0.2836E+02  0.2836E+02
      4.781  0.3024E+01  0.3025E+01  0.2876E+02  0.2876E+02
      4.912  0.3783E+01  0.3781E+01  0.2926E+02  0.2926E+02
      5.043  0.1776E+01  0.1777E+01  0.2949E+02  0.2949E+02
      5.174  0.1100E+01  0.1100E+01  0.2964E+02  0.2964E+02
      5.306  0.7913E+00  0.7912E+00  0.2974E+02  0.2974E+02
      5.437  0.5815E+00  0.5812E+00  0.2982E+02  0.2982E+02
      5.568  0.1043E+01  0.1044E+01  0.2995E+02  0.2995E+02
      5.699  0.9952E+00  0.9969E+00  0.3009E+02  0.3009E+02
      5.830  0.2589E+01  0.2592E+01  0.3042E+02  0.3043E+02
      5.962  0.6198E+01  0.6195E+01  0.3124E+02  0.3124E+02
      6.093  0.3806E+01  0.3805E+01  0.3174E+02  0.3174E+02
      6.224  0.2783E+01  0.2785E+01  0.3210E+02  0.3210E+02
      6.355  0.2249E+01  0.2250E+01  0.3240E+02  0.3240E+02
      6.486  0.3088E+01  0.3104E+01  0.3281E+02  0.3281E+02
      6.618  0.3369E+01  0.3343E+01  0.3325E+02  0.3325E+02
      6.749  0.2569E+01  0.2596E+01  0.3359E+02  0.3359E+02
      6.880  0.5020E+01  0.5215E+01  0.3425E+02  0.3427E+02
      7.011  0.8241E+01  0.8238E+01  0.3533E+02  0.3536E+02
      7.142  0.4909E+01  0.4750E+01  0.3597E+02  0.3598E+02
      7.274  0.3884E+01  0.3974E+01  0.3648E+02  0.3650E+02
      7.405  0.2826E+01  0.3195E+01  0.3686E+02  0.3692E+02
      7.536  0.2310E+01  0.2427E+01  0.3716E+02  0.3724E+02
      7.667  0.5515E+01  0.5641E+01  0.3788E+02  0.3798E+02
      7.798  0.7396E+01  0.7467E+01  0.3885E+02  0.3896E+02
      7.930  0.5019E+01  0.4835E+01  0.3951E+02  0.3960E+02
      8.061  0.1149E+01  0.2107E+01  0.3966E+02  0.3988E+02
      8.192  0.9597E-01  0.3976E+00  0.3968E+02  0.3993E+02
      8.323  0.2413E-01  0.2968E-01  0.3968E+02  0.3994E+02
      8.454  0.1930E+00  0.2914E-02  0.3971E+02  0.3994E+02
      8.586  0.3199E+00  0.3690E-01  0.3975E+02  0.3994E+02
      8.717  0.3554E+00  0.2293E+00  0.3980E+02  0.3997E+02
      8.848  0.4769E+00  0.1913E+00  0.3986E+02  0.4000E+02
      8.979  0.8348E+00  0.2501E-01  0.3997E+02  0.4000E+02
      9.110  0.2122E+00  0.0000E+00  0.4000E+02  0.4000E+02
      9.242  0.1826E-01  0.0000E+00  0.4000E+02  0.4000E+02
      9.373  0.0000E+00  0.0000E+00  0.4000E+02  0.4000E+02
      9.504  0.0000E+00  0.0000E+00  0.4000E+02  0.4000E+02
      9.635  0.0000E+00  0.0000E+00  0.4000E+02  0.4000E+02
      9.766  0.0000E+00  0.0000E+00  0.4000E+02  0.4000E+02
      9.898  0.0000E+00  0.0000E+00  0.4000E+02  0.4000E+02
     10.029  0.0000E+00  0.0000E+00  0.4000E+02  0.4000E+02
     10.160  0.0000E+00  0.0000E+00  0.4000E+02  0.4000E+02
     10.291  0.0000E+00  0.0000E+00  0.4000E+02  0.4000E+02
     10.422  0.0000E+00  0.0000E+00  0.4000E+02  0.4000E+02
     10.554  0.0000E+00  0.0000E+00  0.4000E+02  0.4000E+02
     10.685  0.0000E+00  0.0000E+00  0.4000E+02  0.4000E+02
     10.68488350    -28.67556359  301      5.61670223      1.00000000
    -28.676  0.0000E+00  0.0000E+00  0.0000E+00  0.0000E+00  0.0000E+00  0.0000E+00  0.0000E+00  0.0000E+00  0.0000E+00  0.0000E+00  0.0000E+00  0.0000E+00  0.0000E+00  0.0000E+00  0.0000E+00  0.0000E+00  0.0000E+00  0.0000E+00
    -28.544  0.0000E+00  0.0000E+00  0.0000E+00  0.0000E+00  0.0000E+00  0.0000E+00  0.0000E+00  0.0000E+00  0.0000E+00  0.0000E+00  0.0000E+00  0.0000E+00  0.0000E+00  0.0000E+00  0.0000E+00  0.0000E+00  0.0000E+00  0.0000E+00
    -28.413  0.0000E+00  0.0000E+00  0.0000E+00  0.0000E+00  0.0000E+00  0.0000E+00  0.0000E+00  0.0000E+00  0.0000E+00  0.0000E+00  0.0000E+00  0.0000E+00  0.0000E+00  0.0000E+00  0.0000E+00  0.0000E+00  0.0000E+00  0.0000E+00
    -28.282  0.0000E+00  0.0000E+00  0.0000E+00  0.0000E+00  0.0000E+00  0.0000E+00  0.0000E+00  0.0000E+00  0.0000E+00  0.0000E+00  0.0000E+00  0.0000E+00  0.0000E+00  0.0000E+00  0.0000E+00  0.0000E+00  0.0000E+00  0.0000E+00
    -28.151  0.0000E+00  0.0000E+00  0.0000E+00  0.0000E+00  0.0000E+00  0.0000E+00  0.0000E+00  0.0000E+00  0.0000E+00  0.0000E+00  0.0000E+00  0.0000E+00  0.0000E+00  0.0000E+00  0.0000E+00  0.0000E+00  0.0000E+00  0.0000E+00
    -28.020  0.0000E+00  0.0000E+00  0.0000E+00  0.0000E+00  0.0000E+00  0.0000E+00  0.0000E+00  0.0000E+00  0.0000E+00  0.0000E+00  0.0000E+00  0.0000E+00  0.0000E+00  0.0000E+00  0.0000E+00  0.0000E+00  0.0000E+00  0.0000E+00
    -27.888  0.0000E+00  0.0000E+00  0.0000E+00  0.0000E+00  0.0000E+00  0.0000E+00  0.0000E+00  0.0000E+00  0.0000E+00  0.0000E+00  0.0000E+00  0.0000E+00  0.0000E+00  0.0000E+00  0.0000E+00  0.0000E+00  0.0000E+00  0.0000E+00
    -27.757  0.0000E+00  0.0000E+00  0.0000E+00  0.0000E+00  0.0000E+00  0.0000E+00  0.0000E+00  0.0000E+00  0.0000E+00  0.0000E+00  0.0000E+00  0.0000E+00  0.0000E+00  0.0000E+00  0.0000E+00  0.0000E+00  0.0000E+00  0.0000E+00
    -27.626  0.0000E+00  0.0000E+00  0.0000E+00  0.0000E+00  0.0000E+00  0.0000E+00  0.0000E+00  0.0000E+00  0.0000E+00  0.0000E+00  0.0000E+00  0.0000E+00  0.0000E+00  0.0000E+00  0.0000E+00  0.0000E+00  0.0000E+00  0.0000E+00
    -27.495  0.0000E+00  0.0000E+00  0.0000E+00  0.0000E+00  0.0000E+00  0.0000E+00  0.0000E+00  0.0000E+00  0.0000E+00  0.0000E+00  0.0000E+00  0.0000E+00  0.0000E+00  0.0000E+00  0.0000E+00  0.0000E+00  0.0000E+00  0.0000E+00
    -27.364  0.2067E-08  0.2076E-08  0.2516E-04  0.2526E-04  0.2516E-04  0.2526E-04  0.2516E-04  0.2526E-04  0.5209E-09  0.5227E-09  0.5209E-09  0.5227E-09  0.6298E-09  0.6317E-09  0.5209E-09  0.5227E-09  0.6298E-09  0.6317E-09
    -27.232  0.8854E-07  0.8891E-07  0.6774E-03  0.6802E-03  0.6774E-03  0.6802E-03  0.6774E-03  0.6802E-03  0.2139E-07  0.2147E-07  0.2139E-07  0.2147E-07  0.1823E-07  0.1830E-07  0.2139E-07  0.2147E-07  0.1823E-07  0.1830E-07
    -27.101  0.1169E-05  0.1174E-05  0.9353E-02  0.9391E-02  0.9353E-02  0.9391E-02  0.9353E-02  0.9391E-02  0.2972E-06  0.2983E-06  0.2972E-06  0.2983E-06  0.2539E-06  0.2549E-06  0.2972E-06  0.2983E-06  0.2539E-06  0.2549E-06
    -26.970  0.1531E-04  0.1537E-04  0.1196E+00  0.1201E+00  0.1196E+00  0.1201E+00  0.1196E+00  0.1201E+00  0.3864E-05  0.3877E-05  0.3864E-05  0.3877E-05  0.3270E-05  0.3282E-05  0.3864E-05  0.3877E-05  0.3270E-05  0.3282E-05
    -26.839  0.1313E-03  0.1316E-03  0.9117E+00  0.9138E+00  0.9117E+00  0.9138E+00  0.9117E+00  0.9138E+00  0.3286E-04  0.3293E-04  0.3286E-04  0.3293E-04  0.2587E-04  0.2592E-04  0.3286E-04  0.3293E-04  0.2587E-04  0.2592E-04
    -26.708  0.3004E-03  0.3004E-03  0.2178E+01  0.2180E+01  0.2178E+01  0.2180E+01  0.2178E+01  0.2180E+01  0.9486E-04  0.9492E-04  0.9486E-04  0.9492E-04  0.6336E-04  0.6337E-04  0.9486E-04  0.9492E-04  0.6336E-04  0.6337E-04
    -26.576  0.1778E-03  0.1775E-03  0.2871E+01  0.2871E+01  0.2871E+01  0.2871E+01  0.2871E+01  0.2871E+01  0.1054E-03  0.1053E-03  0.1054E-03  0.1053E-03  0.7838E-04  0.7831E-04  0.1054E-03  0.1053E-03  0.7838E-04  0.7831E-04
    -26.445  0.3878E-04  0.3866E-04  0.1266E+01  0.1263E+01  0.1266E+01  0.1263E+01  0.1266E+01  0.1263E+01  0.3340E-04  0.3330E-04  0.3340E-04  0.3330E-04  0.2704E-04  0.2696E-04  0.3340E-04  0.3330E-04  0.2704E-04  0.2696E-04
    -26.314  0.3245E-05  0.3232E-05  0.1465E+00  0.1459E+00  0.1465E+00  0.1459E+00  0.1465E+00  0.1459E+00  0.3315E-05  0.3303E-05  0.3315E-05  0.3303E-05  0.2712E-05  0.2701E-05  0.3315E-05  0.3303E-05  0.2712E-05  0.2701E-05
    -26.183  0.6204E-07  0.6179E-07  0.4112E-02  0.4095E-02  0.4112E-02  0.4095E-02  0.4112E-02  0.4095E-02  0.4653E-07  0.4634E-07  0.4653E-07  0.4634E-07  0.2755E-07  0.2747E-07  0.4653E-07  0.4634E-07  0.2755E-07  0.2747E-07
    -26.052  0.0000E+00  0.0000E+00  0.0000E+00  0.0000E+00  0.0000E+00  0.0000E+00  0.0000E+00  0.0000E+00  0.0000E+00  0.0000E+00  0.0000E+00  0.0000E+00  0.0000E+00  0.0000E+00  0.0000E+00  0.0000E+00  0.0000E+00  0.0000E+00
    -25.920  0.0000E+00  0.0000E+00  0.0000E+00  0.0000E+00  0.0000E+00  0.0000E+00  0.0000E+00  0.0000E+00  0.0000E+00  0.0000E+00  0.0000E+00  0.0000E+00  0.0000E+00  0.0000E+00  0.0000E+00  0.0000E+00  0.0000E+00  0.0000E+00
    -25.789  0.0000E+00  0.0000E+00  0.0000E+00  0.0000E+00  0.0000E+00  0.0000E+00  0.0000E+00  0.0000E+00  0.0000E+00  0.0000E+00  0.0000E+00  0.0000E+00  0.0000E+00  0.0000E+00  0.0000E+00  0.0000E+00  0.0000E+00  0.0000E+00
    -25.658  0.0000E+00  0.0000E+00  0.0000E+00  0.0000E+00  0.0000E+00  0.0000E+00  0.0000E+00  0.0000E+00  0.0000E+00  0.0000E+00  0.0000E+00  0.0000E+00  0.0000E+00  0.0000E+00  0.0000E+00  0.0000E+00  0.0000E+00  0.0000E+00
    -25.527  0.0000E+00  0.0000E+00  0.0000E+00  0.0000E+00  0.0000E+00  0.0000E+00  0.0000E+00  0.0000E+00  0.0000E+00  0.0000E+00  0.0000E+00  0.0000E+00  0.0000E+00  0.0000E+00  0.0000E+00  0.0000E+00  0.0000E+00  0.0000E+00
    -25.396  0.0000E+00  0.0000E+00  0.0000E+00  0.0000E+00  0.0000E+00  0.0000E+00  0.0000E+00  0.0000E+00  0.0000E+00  0.0000E+00  0.0000E+00  0.0000E+00  0.0000E+00  0.0000E+00  0.0000E+00  0.0000E+00  0.0000E+00  0.0000E+00
    -25.264  0.0000E+00  0.0000E+00  0.0000E+00  0.0000E+00  0.0000E+00  0.0000E+00  0.0000E+00  0.0000E+00  0.0000E+00  0.0000E+00  0.0000E+00  0.0000E+00  0.0000E+00  0.0000E+00  0.0000E+00  0.0000E+00  0.0000E+00  0.0000E+00
    -25.133  0.0000E+00  0.0000E+00  0.0000E+00  0.0000E+00  0.0000E+00  0.0000E+00  0.0000E+00  0.0000E+00  0.0000E+00  0.0000E+00  0.0000E+00  0.0000E+00  0.0000E+00  0.0000E+00  0.0000E+00  0.0000E+00  0.0000E+00  0.0000E+00
    -25.002  0.0000E+00  0.0000E+00  0.0000E+00  0.0000E+00  0.0000E+00  0.0000E+00  0.0000E+00  0.0000E+00  0.0000E+00  0.0000E+00  0.0000E+00  0.0000E+00  0.0000E+00  0.0000E+00  0.0000E+00  0.0000E+00  0.0000E+00  0.0000E+00
    -24.871  0.0000E+00  0.0000E+00  0.0000E+00  0.0000E+00  0.0000E+00  0.0000E+00  0.0000E+00  0.0000E+00  0.0000E+00  0.0000E+00  0.0000E+00  0.0000E+00  0.0000E+00  0.0000E+00  0.0000E+00  0.0000E+00  0.0000E+00  0.0000E+00
    -24.740  0.0000E+00  0.0000E+00  0.0000E+00  0.0000E+00  0.0000E+00  0.0000E+00  0.0000E+00  0.0000E+00  0.0000E+00  0.0000E+00  0.0000E+00  0.0000E+00  0.0000E+00  0.0000E+00  0.0000E+00  0.0000E+00  0.0000E+00  0.0000E+00
    -24.608  0.0000E+00  0.0000E+00  0.0000E+00  0.0000E+00  0.0000E+00  0.0000E+00  0.0000E+00  0.0000E+00  0.0000E+00  0.0000E+00  0.0000E+00  0.0000E+00  0.0000E+00  0.0000E+00  0.0000E+00  0.0000E+00  0.0000E+00  0.0000E+00
    -24.477  0.0000E+00  0.0000E+00  0.0000E+00  0.0000E+00  0.0000E+00  0.0000E+00  0.0000E+00  0.0000E+00  0.0000E+00  0.0000E+00  0.0000E+00  0.0000E+00  0.0000E+00  0.0000E+00  0.0000E+00  0.0000E+00  0.0000E+00  0.0000E+00
    -24.346  0.0000E+00  0.0000E+00  0.0000E+00  0.0000E+00  0.0000E+00  0.0000E+00  0.0000E+00  0.0000E+00  0.0000E+00  0.0000E+00  0.0000E+00  0.0000E+00  0.0000E+00  0.0000E+00  0.0000E+00  0.0000E+00  0.0000E+00  0.0000E+00
    -24.215  0.0000E+00  0.0000E+00  0.0000E+00  0.0000E+00  0.0000E+00  0.0000E+00  0.0000E+00  0.0000E+00  0.0000E+00  0.0000E+00  0.0000E+00  0.0000E+00  0.0000E+00  0.0000E+00  0.0000E+00  0.0000E+00  0.0000E+00  0.0000E+00
    -24.084  0.0000E+00  0.0000E+00  0.0000E+00  0.0000E+00  0.0000E+00  0.0000E+00  0.0000E+00  0.0000E+00  0.0000E+00  0.0000E+00  0.0000E+00  0.0000E+00  0.0000E+00  0.0000E+00  0.0000E+00  0.0000E+00  0.0000E+00  0.0000E+00
    -23.952  0.0000E+00  0.0000E+00  0.0000E+00  0.0000E+00  0.0000E+00  0.0000E+00  0.0000E+00  0.0000E+00  0.0000E+00  0.0000E+00  0.0000E+00  0.0000E+00  0.0000E+00  0.0000E+00  0.0000E+00  0.0000E+00  0.0000E+00  0.0000E+00
    -23.821  0.0000E+00  0.0000E+00  0.0000E+00  0.0000E+00  0.0000E+00  0.0000E+00  0.0000E+00  0.0000E+00  0.0000E+00  0.0000E+00  0.0000E+00  0.0000E+00  0.0000E+00  0.0000E+00  0.0000E+00  0.0000E+00  0.0000E+00  0.0000E+00
    -23.690  0.0000E+00  0.0000E+00  0.0000E+00  0.0000E+00  0.0000E+00  0.0000E+00  0.0000E+00  0.0000E+00  0.0000E+00  0.0000E+00  0.0000E+00  0.0000E+00  0.0000E+00  0.0000E+00  0.0000E+00  0.0000E+00  0.0000E+00  0.0000E+00
    -23.559  0.0000E+00  0.0000E+00  0.0000E+00  0.0000E+00  0.0000E+00  0.0000E+00  0.0000E+00  0.0000E+00  0.0000E+00  0.0000E+00  0.0000E+00  0.0000E+00  0.0000E+00  0.0000E+00  0.0000E+00  0.0000E+00  0.0000E+00  0.0000E+00
    -23.428  0.0000E+00  0.0000E+00  0.0000E+00  0.0000E+00  0.0000E+00  0.0000E+00  0.0000E+00  0.0000E+00  0.0000E+00  0.0000E+00  0.0000E+00  0.0000E+00  0.0000E+00  0.0000E+00  0.0000E+00  0.0000E+00  0.0000E+00  0.0000E+00
    -23.296  0.0000E+00  0.0000E+00  0.0000E+00  0.0000E+00  0.0000E+00  0.0000E+00  0.0000E+00  0.0000E+00  0.0000E+00  0.0000E+00  0.0000E+00  0.0000E+00  0.0000E+00  0.0000E+00  0.0000E+00  0.0000E+00  0.0000E+00  0.0000E+00
    -23.165  0.0000E+00  0.0000E+00  0.0000E+00  0.0000E+00  0.0000E+00  0.0000E+00  0.0000E+00  0.0000E+00  0.0000E+00  0.0000E+00  0.0000E+00  0.0000E+00  0.0000E+00  0.0000E+00  0.0000E+00  0.0000E+00  0.0000E+00  0.0000E+00
    -23.034  0.0000E+00  0.0000E+00  0.0000E+00  0.0000E+00  0.0000E+00  0.0000E+00  0.0000E+00  0.0000E+00  0.0000E+00  0.0000E+00  0.0000E+00  0.0000E+00  0.0000E+00  0.0000E+00  0.0000E+00  0.0000E+00  0.0000E+00  0.0000E+00
    -22.903  0.0000E+00  0.0000E+00  0.0000E+00  0.0000E+00  0.0000E+00  0.0000E+00  0.0000E+00  0.0000E+00  0.0000E+00  0.0000E+00  0.0000E+00  0.0000E+00  0.0000E+00  0.0000E+00  0.0000E+00  0.0000E+00  0.0000E+00  0.0000E+00
    -22.771  0.0000E+00  0.0000E+00  0.0000E+00  0.0000E+00  0.0000E+00  0.0000E+00  0.0000E+00  0.0000E+00  0.0000E+00  0.0000E+00  0.0000E+00  0.0000E+00  0.0000E+00  0.0000E+00  0.0000E+00  0.0000E+00  0.0000E+00  0.0000E+00
    -22.640  0.0000E+00  0.0000E+00  0.0000E+00  0.0000E+00  0.0000E+00  0.0000E+00  0.0000E+00  0.0000E+00  0.0000E+00  0.0000E+00  0.0000E+00  0.0000E+00  0.0000E+00  0.0000E+00  0.0000E+00  0.0000E+00  0.0000E+00  0.0000E+00
    -22.509  0.0000E+00  0.0000E+00  0.0000E+00  0.0000E+00  0.0000E+00  0.0000E+00  0.0000E+00  0.0000E+00  0.0000E+00  0.0000E+00  0.0000E+00  0.0000E+00  0.0000E+00  0.0000E+00  0.0000E+00  0.0000E+00  0.0000E+00  0.0000E+00
    -22.378  0.0000E+00  0.0000E+00  0.0000E+00  0.0000E+00  0.0000E+00  0.0000E+00  0.0000E+00  0.0000E+00  0.0000E+00  0.0000E+00  0.0000E+00  0.0000E+00  0.0000E+00  0.0000E+00  0.0000E+00  0.0000E+00  0.0000E+00  0.0000E+00
    -22.247  0.0000E+00  0.0000E+00  0.0000E+00  0.0000E+00  0.0000E+00  0.0000E+00  0.0000E+00  0.0000E+00  0.0000E+00  0.0000E+00  0.0000E+00  0.0000E+00  0.0000E+00  0.0000E+00  0.0000E+00  0.0000E+00  0.0000E+00  0.0000E+00
    -22.115  0.0000E+00  0.0000E+00  0.0000E+00  0.0000E+00  0.0000E+00  0.0000E+00  0.0000E+00  0.0000E+00  0.0000E+00  0.0000E+00  0.0000E+00  0.0000E+00  0.0000E+00  0.0000E+00  0.0000E+00  0.0000E+00  0.0000E+00  0.0000E+00