   8   8   1   0
  0.1361183E+02  0.4775316E-09  0.4775316E-09  0.4775316E-09  0.5000000E-15
  1.000000000000000E-004
  CAR 
 unknown system                          
     10.89268397    -28.40819028  301      5.87783697      1.00000000
    -28.408  0.0000E+00  0.0000E+00  0.0000E+00  0.0000E+00
    -28.277  0.0000E+00  0.0000E+00  0.0000E+00  0.0000E+00
    -28.146  0.0000E+00  0.0000E+00  0.0000E+00  0.0000E+00
    -28.015  0.0000E+00  0.0000E+00  0.0000E+00  0.0000E+00
    -27.884  0.0000E+00  0.0000E+00  0.0000E+00  0.0000E+00
    -27.753  0.0000E+00  0.0000E+00  0.0000E+00  0.0000E+00
    -27.622  0.0000E+00  0.0000E+00  0.0000E+00  0.0000E+00
    -27.491  0.0000E+00  0.0000E+00  0.0000E+00  0.0000E+00
    -27.360  0.0000E+00  0.0000E+00  0.0000E+00  0.0000E+00
    -27.229  0.0000E+00  0.0000E+00  0.0000E+00  0.0000E+00
    -27.098  0.2884E-03  0.2887E-03  0.3779E-04  0.3783E-04
    -26.967  0.7350E-02  0.7358E-02  0.1001E-02  0.1002E-02
    -26.836  0.1004E+00  0.1005E+00  0.1415E-01  0.1417E-01
    -26.705  0.1283E+01  0.1284E+01  0.1822E+00  0.1824E+00
    -26.574  0.9813E+01  0.9819E+01  0.1468E+01  0.1469E+01
    -26.443  0.2299E+02  0.2299E+02  0.4479E+01  0.4481E+01
    -26.312  0.3250E+02  0.3250E+02  0.8737E+01  0.8739E+01
    -26.181  0.2121E+02  0.2120E+02  0.1152E+02  0.1152E+02
    -26.050  0.3359E+01  0.3356E+01  0.1196E+02  0.1196E+02
    -25.919  0.2093E+00  0.2090E+00  0.1200E+02  0.1200E+02
    -25.788  0.0000E+00  0.0000E+00  0.1200E+02  0.1200E+02
    -25.657  0.0000E+00  0.0000E+00  0.1200E+02  0.1200E+02
    -25.526  0.0000E+00  0.0000E+00  0.1200E+02  0.1200E+02
    -25.395  0.0000E+00  0.0000E+00  0.1200E+02  0.1200E+02
    -25.264  0.0000E+00  0.0000E+00  0.1200E+02  0.1200E+02
    -25.133  0.0000E+00  0.0000E+00  0.1200E+02  0.1200E+02
    -25.002  0.0000E+00  0.0000E+00  0.1200E+02  0.1200E+02
    -24.871  0.0000E+00  0.0000E+00  0.1200E+02  0.1200E+02
    -24.740  0.0000E+00  0.0000E+00  0.1200E+02  0.1200E+02
    -24.609  0.0000E+00  0.0000E+00  0.1200E+02  0.1200E+02
    -24.478  0.0000E+00  0.0000E+00  0.1200E+02  0.1200E+02
    -24.347  0.0000E+00  0.0000E+00  0.1200E+02  0.1200E+02
    -24.216  0.0000E+00  0.0000E+00  0.1200E+02  0.1200E+02
    -24.085  0.0000E+00  0.0000E+00  0.1200E+02  0.1200E+02
    -23.954  0.0000E+00  0.0000E+00  0.1200E+02  0.1200E+02
    -23.823  0.0000E+00  0.0000E+00  0.1200E+02  0.1200E+02
    -23.692  0.0000E+00  0.0000E+00  0.1200E+02  0.1200E+02
    -23.561  0.0000E+00  0.0000E+00  0.1200E+02  0.1200E+02
    -23.430  0.0000E+00  0.0000E+00  0.1200E+02  0.1200E+02
    -23.299  0.0000E+00  0.0000E+00  0.1200E+02  0.1200E+02
    -23.168  0.0000E+00  0.0000E+00  0.1200E+02  0.1200E+02
    -23.037  0.0000E+00  0.0000E+00  0.1200E+02  0.1200E+02
    -22.906  0.0000E+00  0.0000E+00  0.1200E+02  0.1200E+02
    -22.775  0.0000E+00  0.0000E+00  0.1200E+02  0.1200E+02
    -22.644  0.0000E+00  0.0000E+00  0.1200E+02  0.1200E+02
    -22.513  0.0000E+00  0.0000E+00  0.1200E+02  0.1200E+02
    -22.382  0.0000E+00  0.0000E+00  0.1200E+02  0.1200E+02
    -22.251  0.0000E+00  0.0000E+00  0.1200E+02  0.1200E+02
    -22.120  0.0000E+00  0.0000E+00  0.1200E+02  0.1200E+02
    -21.989  0.0000E+00  0.0000E+00  0.1200E+02  0.1200E+02
    -21.858  0.0000E+00  0.0000E+00  0.1200E+02  0.1200E+02
    -21.727  0.0000E+00  0.0000E+00  0.1200E+02  0.1200E+02
    -21.596  0.0000E+00  0.0000E+00  0.1200E+02  0.1200E+02
    -21.465  0.0000E+00  0.0000E+00  0.1200E+02  0.1200E+02
    -21.334  0.0000E+00  0.0000E+00  0.1200E+02  0.1200E+02
    -21.203  0.0000E+00  0.0000E+00  0.1200E+02  0.1200E+02
    -21.072  0.0000E+00  0.0000E+00  0.1200E+02  0.1200E+02
    -20.941  0.0000E+00  0.0000E+00  0.1200E+02  0.1200E+02
    -20.810  0.0000E+00  0.0000E+00  0.1200E+02  0.1200E+02
    -20.679  0.0000E+00  0.0000E+00  0.1200E+02  0.1200E+02
    -20.548  0.0000E+00  0.0000E+00  0.1200E+02  0.1200E+02
    -20.417  0.0000E+00  0.0000E+00  0.1200E+02  0.1200E+02
    -20.286  0.0000E+00  0.0000E+00  0.1200E+02  0.1200E+02
    -20.155  0.0000E+00  0.0000E+00  0.1200E+02  0.1200E+02
    -20.024  0.0000E+00  0.0000E+00  0.1200E+02  0.1200E+02
    -19.893  0.0000E+00  0.0000E+00  0.1200E+02  0.1200E+02
    -19.762  0.0000E+00  0.0000E+00  0.1200E+02  0.1200E+02
    -19.631  0.0000E+00  0.0000E+00  0.1200E+02  0.1200E+02
    -19.500  0.0000E+00  0.0000E+00  0.1200E+02  0.1200E+02
    -19.369  0.0000E+00  0.0000E+00  0.1200E+02  0.1200E+02
    -19.238  0.0000E+00  0.0000E+00  0.1200E+02  0.1200E+02
    -19.107  0.0000E+00  0.0000E+00  0.1200E+02  0.1200E+02
    -18.976  0.0000E+00  0.0000E+00  0.1200E+02  0.1200E+02
    -18.845  0.0000E+00  0.0000E+00  0.1200E+02  0.1200E+02
    -18.714  0.0000E+00  0.0000E+00  0.1200E+02  0.1200E+02
    -18.583  0.0000E+00  0.0000E+00  0.1200E+02  0.1200E+02
    -18.452  0.0000E+00  0.0000E+00  0.1200E+02  0.1200E+02
    -18.321  0.0000E+00  0.0000E+00  0.1200E+02  0.1200E+02
    -18.190  0.0000E+00  0.0000E+00  0.1200E+02  0.1200E+02
    -18.059  0.0000E+00  0.0000E+00  0.1200E+02  0.1200E+02
    -17.928  0.0000E+00  0.0000E+00  0.1200E+02  0.1200E+02
    -17.797  0.0000E+00  0.0000E+00  0.1200E+02  0.1200E+02
    -17.666  0.0000E+00  0.0000E+00  0.1200E+02  0.1200E+02
    -17.535  0.0000E+00  0.0000E+00  0.1200E+02  0.1200E+02
    -17.404  0.0000E+00  0.0000E+00  0.1200E+02  0.1200E+02
    -17.273  0.0000E+00  0.0000E+00  0.1200E+02  0.1200E+02
    -17.142  0.0000E+00  0.0000E+00  0.1200E+02  0.1200E+02
    -17.011  0.0000E+00  0.0000E+00  0.1200E+02  0.1200E+02
    -16.880  0.0000E+00  0.0000E+00  0.1200E+02  0.1200E+02
    -16.749  0.0000E+00  0.0000E+00  0.1200E+02  0.1200E+02
    -16.618  0.0000E+00  0.0000E+00  0.1200E+02  0.1200E+02
    -16.487  0.0000E+00  0.0000E+00  0.1200E+02  0.1200E+02
    -16.356  0.0000E+00  0.0000E+00  0.1200E+02  0.1200E+02
    -16.225  0.0000E+00  0.0000E+00  0.1200E+02  0.1200E+02
    -16.094  0.0000E+00  0.0000E+00  0.1200E+02  0.1200E+02
    -15.963  0.0000E+00  0.0000E+00  0.1200E+02  0.1200E+02
    -15.832  0.0000E+00  0.0000E+00  0.1200E+02  0.1200E+02
    -15.701  0.0000E+00  0.0000E+00  0.1200E+02  0.1200E+02
    -15.570  0.0000E+00  0.0000E+00  0.1200E+02  0.1200E+02
    -15.439  0.0000E+00  0.0000E+00  0.1200E+02  0.1200E+02
    -15.308  0.0000E+00  0.0000E+00  0.1200E+02  0.1200E+02
    -15.177  0.0000E+00  0.0000E+00  0.1200E+02  0.1200E+02
    -15.046  0.0000E+00  0.0000E+00  0.1200E+02  0.1200E+02
    -14.915  0.0000E+00  0.0000E+00  0.1200E+02  0.1200E+02
    -14.784  0.0000E+00  0.0000E+00  0.1200E+02  0.1200E+02
    -14.653  0.0000E+00  0.0000E+00  0.1200E+02  0.1200E+02
    -14.522  0.0000E+00  0.0000E+00  0.1200E+02  0.1200E+02
    -14.391  0.0000E+00  0.0000E+00  0.1200E+02  0.1200E+02
    -14.260  0.0000E+00  0.0000E+00  0.1200E+02  0.1200E+02
    -14.129  0.0000E+00  0.0000E+00  0.1200E+02  0.1200E+02
    -13.998  0.0000E+00  0.0000E+00  0.1200E+02  0.1200E+02
    -13.867  0.0000E+00  0.0000E+00  0.1200E+02  0.1200E+02
    -13.736  0.0000E+00  0.0000E+00  0.1200E+02  0.1200E+02
    -13.605  0.0000E+00  0.0000E+00  0.1200E+02  0.1200E+02
    -13.474  0.0000E+00  0.0000E+00  0.1200E+02  0.1200E+02
    -13.343  0.0000E+00  0.0000E+00  0.1200E+02  0.1200E+02
    -13.212  0.0000E+00  0.0000E+00  0.1200E+02  0.1200E+02
    -13.081  0.0000E+00  0.0000E+00  0.1200E+02  0.1200E+02
    -12.950  0.0000E+00  0.0000E+00  0.1200E+02  0.1200E+02
    -12.819  0.0000E+00  0.0000E+00  0.1200E+02  0.1200E+02
    -12.688  0.0000E+00  0.0000E+00  0.1200E+02  0.1200E+02
    -12.557  0.0000E+00  0.0000E+00  0.1200E+02  0.1200E+02
    -12.426  0.0000E+00  0.0000E+00  0.1200E+02  0.1200E+02
    -12.295  0.0000E+00  0.0000E+00  0.1200E+02  0.1200E+02
    -12.164  0.0000E+00  0.0000E+00  0.1200E+02  0.1200E+02
    -12.033  0.0000E+00  0.0000E+00  0.1200E+02  0.1200E+02
    -11.902  0.0000E+00  0.0000E+00  0.1200E+02  0.1200E+02
    -11.771  0.0000E+00  0.0000E+00  0.1200E+02  0.1200E+02
    -11.640  0.0000E+00  0.0000E+00  0.1200E+02  0.1200E+02
    -11.509  0.0000E+00  0.0000E+00  0.1200E+02  0.1200E+02
    -11.378  0.0000E+00  0.0000E+00  0.1200E+02  0.1200E+02
    -11.247  0.0000E+00  0.0000E+00  0.1200E+02  0.1200E+02
    -11.116  0.0000E+00  0.0000E+00  0.1200E+02  0.1200E+02
    -10.985  0.0000E+00  0.0000E+00  0.1200E+02  0.1200E+02
    -10.854  0.0000E+00  0.0000E+00  0.1200E+02  0.1200E+02
    -10.723  0.0000E+00  0.0000E+00  0.1200E+02  0.1200E+02
    -10.592  0.0000E+00  0.0000E+00  0.1200E+02  0.1200E+02
    -10.461  0.0000E+00  0.0000E+00  0.1200E+02  0.1200E+02
    -10.330  0.0000E+00  0.0000E+00  0.1200E+02  0.1200E+02
    -10.199  0.0000E+00  0.0000E+00  0.1200E+02  0.1200E+02
    -10.068  0.0000E+00  0.0000E+00  0.1200E+02  0.1200E+02
     -9.937  0.0000E+00  0.0000E+00  0.1200E+02  0.1200E+02
     -9.806  0.0000E+00  0.0000E+00  0.1200E+02  0.1200E+02
     -9.675  0.0000E+00  0.0000E+00  0.1200E+02  0.1200E+02
     -9.544  0.0000E+00  0.0000E+00  0.1200E+02  0.1200E+02
     -9.413  0.0000E+00  0.0000E+00  0.1200E+02  0.1200E+02
     -9.282  0.0000E+00  0.0000E+00  0.1200E+02  0.1200E+02
     -9.151  0.0000E+00  0.0000E+00  0.1200E+02  0.1200E+02
     -9.020  0.0000E+00  0.0000E+00  0.1200E+02  0.1200E+02
     -8.889  0.0000E+00  0.0000E+00  0.1200E+02  0.1200E+02
     -8.758  0.0000E+00  0.0000E+00  0.1200E+02  0.1200E+02
     -8.627  0.0000E+00  0.0000E+00  0.1200E+02  0.1200E+02
     -8.496  0.0000E+00  0.0000E+00  0.1200E+02  0.1200E+02
     -8.365  0.0000E+00  0.0000E+00  0.1200E+02  0.1200E+02
     -8.234  0.0000E+00  0.0000E+00  0.1200E+02  0.1200E+02
     -8.103  0.0000E+00  0.0000E+00  0.1200E+02  0.1200E+02
     -7.972  0.0000E+00  0.0000E+00  0.1200E+02  0.1200E+02
     -7.841  0.0000E+00  0.0000E+00  0.1200E+02  0.1200E+02
     -7.710  0.0000E+00  0.0000E+00  0.1200E+02  0.1200E+02
     -7.579  0.0000E+00  0.0000E+00  0.1200E+02  0.1200E+02
     -7.448  0.0000E+00  0.0000E+00  0.1200E+02  0.1200E+02
     -7.317  0.0000E+00  0.0000E+00  0.1200E+02  0.1200E+02
     -7.186  0.2058E-05  0.2053E-05  0.1200E+02  0.1200E+02
     -7.055  0.2620E-04  0.2614E-04  0.1200E+02  0.1200E+02
     -6.924  0.3753E-03  0.3744E-03  0.1200E+02  0.1200E+02
     -6.793  0.4744E-02  0.4735E-02  0.1200E+02  0.1200E+02
     -6.662  0.3151E-01  0.3148E-01  0.1200E+02  0.1200E+02
     -6.531  0.6228E-01  0.6223E-01  0.1201E+02  0.1201E+02
     -6.400  0.2034E+00  0.2033E+00  0.1204E+02  0.1204E+02
     -6.269  0.2299E+00  0.2298E+00  0.1207E+02  0.1207E+02
     -6.138  0.4391E+00  0.4390E+00  0.1213E+02  0.1213E+02
     -6.007  0.3016E+00  0.3017E+00  0.1217E+02  0.1217E+02
     -5.876  0.4091E+00  0.4090E+00  0.1222E+02  0.1222E+02
     -5.745  0.3672E+00  0.3672E+00  0.1227E+02  0.1227E+02
     -5.614  0.6792E+00  0.6785E+00  0.1236E+02  0.1236E+02
     -5.483  0.8488E+00  0.8490E+00  0.1247E+02  0.1247E+02
     -5.352  0.1105E+01  0.1104E+01  0.1261E+02  0.1261E+02
     -5.221  0.1248E+01  0.1248E+01  0.1278E+02  0.1278E+02
     -5.090  0.2250E+01  0.2248E+01  0.1307E+02  0.1307E+02
     -4.959  0.3010E+01  0.3010E+01  0.1347E+02  0.1347E+02
     -4.828  0.3541E+01  0.3541E+01  0.1393E+02  0.1393E+02
     -4.697  0.3284E+01  0.3283E+01  0.1436E+02  0.1436E+02
     -4.566  0.3945E+01  0.3944E+01  0.1488E+02  0.1488E+02
     -4.435  0.4018E+01  0.4019E+01  0.1541E+02  0.1541E+02
     -4.304  0.2196E+01  0.2198E+01  0.1570E+02  0.1569E+02
     -4.173  0.1073E+01  0.1073E+01  0.1584E+02  0.1584E+02
     -4.042  0.9270E+00  0.9272E+00  0.1596E+02  0.1596E+02
     -3.911  0.2814E+00  0.2821E+00  0.1600E+02  0.1600E+02
     -3.780  0.2593E-01  0.2601E-01  0.1600E+02  0.1600E+02
     -3.649  0.0000E+00  0.0000E+00  0.1600E+02  0.1600E+02
     -3.518  0.0000E+00  0.0000E+00  0.1600E+02  0.1600E+02
     -3.387  0.0000E+00  0.0000E+00  0.1600E+02  0.1600E+02
     -3.256  0.0000E+00  0.0000E+00  0.1600E+02  0.1600E+02
     -3.125  0.0000E+00  0.0000E+00  0.1600E+02  0.1600E+02
     -2.994  0.0000E+00  0.0000E+00  0.1600E+02  0.1600E+02
     -2.863  0.0000E+00  0.0000E+00  0.1600E+02  0.1600E+02
     -2.732  0.0000E+00  0.0000E+00  0.1600E+02  0.1600E+02
     -2.601  0.0000E+00  0.0000E+00  0.1600E+02  0.1600E+02
     -2.470  0.0000E+00  0.0000E+00  0.1600E+02  0.1600E+02
     -2.339  0.0000E+00  0.0000E+00  0.1600E+02  0.1600E+02
     -2.208  0.0000E+00  0.0000E+00  0.1600E+02  0.1600E+02
     -2.077  0.0000E+00  0.0000E+00  0.1600E+02  0.1600E+02
     -1.946  0.0000E+00  0.0000E+00  0.1600E+02  0.1600E+02
     -1.815  0.0000E+00  0.0000E+00  0.1600E+02  0.1600E+02
     -1.684  0.0000E+00  0.0000E+00  0.1600E+02  0.1600E+02
     -1.553  0.0000E+00  0.0000E+00  0.1600E+02  0.1600E+02
     -1.422  0.0000E+00  0.0000E+00  0.1600E+02  0.1600E+02
     -1.291  0.0000E+00  0.0000E+00  0.1600E+02  0.1600E+02
     -1.160  0.0000E+00  0.0000E+00  0.1600E+02  0.1600E+02
     -1.029  0.0000E+00  0.0000E+00  0.1600E+02  0.1600E+02
     -0.898  0.9715E-04  0.9707E-04  0.1600E+02  0.1600E+02
     -0.767  0.1236E-02  0.1235E-02  0.1600E+02  0.1600E+02
     -0.636  0.1680E-01  0.1679E-01  0.1600E+02  0.1600E+02
     -0.505  0.1972E+00  0.1970E+00  0.1603E+02  0.1603E+02
     -0.374  0.8197E+00  0.8196E+00  0.1614E+02  0.1614E+02
     -0.243  0.4542E+00  0.4543E+00  0.1620E+02  0.1620E+02
     -0.112  0.3487E+00  0.3486E+00  0.1624E+02  0.1624E+02
      0.019  0.5924E+00  0.5922E+00  0.1632E+02  0.1632E+02
      0.150  0.1684E+01  0.1684E+01  0.1654E+02  0.1654E+02
      0.281  0.1865E+01  0.1865E+01  0.1678E+02  0.1678E+02
      0.412  0.8013E+00  0.8013E+00  0.1689E+02  0.1689E+02
      0.543  0.1719E+01  0.1719E+01  0.1711E+02  0.1711E+02
      0.674  0.3327E+01  0.3327E+01  0.1755E+02  0.1755E+02
      0.805  0.2350E+01  0.2351E+01  0.1786E+02  0.1786E+02
      0.936  0.1368E+01  0.1368E+01  0.1804E+02  0.1804E+02
      1.067  0.2145E+01  0.2144E+01  0.1832E+02  0.1832E+02
      1.198  0.2810E+01  0.2810E+01  0.1869E+02  0.1869E+02
      1.329  0.1927E+01  0.1927E+01  0.1894E+02  0.1894E+02
      1.460  0.1623E+01  0.1623E+01  0.1915E+02  0.1915E+02
      1.591  0.2377E+01  0.2377E+01  0.1947E+02  0.1947E+02
      1.722  0.4202E+01  0.4201E+01  0.2002E+02  0.2002E+02
      1.853  0.8045E+01  0.8044E+01  0.2107E+02  0.2107E+02
      1.984  0.8969E+01  0.8970E+01  0.2225E+02  0.2225E+02
      2.115  0.8411E+01  0.8411E+01  0.2335E+02  0.2335E+02
      2.246  0.6587E+01  0.6587E+01  0.2421E+02  0.2421E+02
      2.377  0.5435E+01  0.5436E+01  0.2493E+02  0.2493E+02
      2.508  0.2956E+01  0.2957E+01  0.2532E+02  0.2532E+02
      2.640  0.1619E+01  0.1619E+01  0.2553E+02  0.2553E+02
      2.771  0.1398E+01  0.1397E+01  0.2572E+02  0.2572E+02
      2.902  0.2273E+01  0.2273E+01  0.2601E+02  0.2601E+02
      3.033  0.3644E+01  0.3642E+01  0.2649E+02  0.2649E+02
      3.164  0.3992E+01  0.3993E+01  0.2701E+02  0.2701E+02
      3.295  0.2156E+01  0.2157E+01  0.2730E+02  0.2730E+02
      3.426  0.1477E+01  0.1478E+01  0.2749E+02  0.2749E+02
      3.557  0.8015E+00  0.8019E+00  0.2760E+02  0.2760E+02
      3.688  0.4797E+00  0.4799E+00  0.2766E+02  0.2766E+02
      3.819  0.2868E+00  0.2868E+00  0.2770E+02  0.2770E+02
      3.950  0.4103E+00  0.4100E+00  0.2775E+02  0.2775E+02
      4.081  0.8216E+00  0.8215E+00  0.2786E+02  0.2786E+02
      4.212  0.4744E+00  0.4746E+00  0.2792E+02  0.2792E+02
      4.343  0.8279E+00  0.8277E+00  0.2803E+02  0.2803E+02
      4.474  0.7894E+00  0.7896E+00  0.2813E+02  0.2813E+02
      4.605  0.3901E+00  0.3901E+00  0.2819E+02  0.2819E+02
      4.736  0.2944E+00  0.2946E+00  0.2822E+02  0.2822E+02
      4.867  0.1000E+01  0.9999E+00  0.2836E+02  0.2836E+02
      4.998  0.2825E+01  0.2825E+01  0.2873E+02  0.2873E+02
      5.129  0.3733E+01  0.3733E+01  0.2921E+02  0.2921E+02
      5.260  0.1943E+01  0.1944E+01  0.2947E+02  0.2947E+02
      5.391  0.1103E+01  0.1103E+01  0.2961E+02  0.2961E+02
      5.522  0.7848E+00  0.7847E+00  0.2972E+02  0.2972E+02
      5.653  0.5816E+00  0.5813E+00  0.2980E+02  0.2980E+02
      5.784  0.8691E+00  0.8690E+00  0.2991E+02  0.2991E+02
      5.915  0.9211E+00  0.9195E+00  0.3003E+02  0.3003E+02
      6.046  0.1600E+01  0.1598E+01  0.3024E+02  0.3024E+02
      6.177  0.4713E+01  0.4722E+01  0.3086E+02  0.3086E+02
      6.308  0.5464E+01  0.5461E+01  0.3157E+02  0.3157E+02
      6.439  0.2574E+01  0.2574E+01  0.3191E+02  0.3191E+02
      6.570  0.2521E+01  0.2520E+01  0.3224E+02  0.3224E+02
      6.701  0.2238E+01  0.2243E+01  0.3254E+02  0.3254E+02
      6.832  0.3261E+01  0.3266E+01  0.3296E+02  0.3297E+02
      6.963  0.2825E+01  0.2858E+01  0.3334E+02  0.3334E+02
      7.094  0.2574E+01  0.2575E+01  0.3367E+02  0.3368E+02
      7.225  0.5917E+01  0.6075E+01  0.3445E+02  0.3448E+02
      7.356  0.7810E+01  0.7747E+01  0.3547E+02  0.3549E+02
      7.487  0.4546E+01  0.4487E+01  0.3607E+02  0.3608E+02
      7.618  0.3264E+01  0.3437E+01  0.3650E+02  0.3653E+02
      7.749  0.2274E+01  0.2743E+01  0.3680E+02  0.3689E+02
      7.880  0.1888E+01  0.2051E+01  0.3705E+02  0.3716E+02
      8.011  0.5176E+01  0.5495E+01  0.3772E+02  0.3788E+02
      8.142  0.7553E+01  0.8026E+01  0.3871E+02  0.3893E+02
      8.273  0.4406E+01  0.5698E+01  0.3929E+02  0.3968E+02
      8.404  0.1765E+01  0.2044E+01  0.3952E+02  0.3995E+02
      8.535  0.4017E+00  0.3353E+00  0.3958E+02  0.4000E+02
      8.666  0.1061E+00  0.2324E-01  0.3959E+02  0.4000E+02
      8.797  0.4531E+00  0.0000E+00  0.3965E+02  0.4000E+02
      8.928  0.1133E+01  0.0000E+00  0.3980E+02  0.4000E+02
      9.059  0.1012E+01  0.0000E+00  0.3993E+02  0.4000E+02
      9.190  0.4108E+00  0.0000E+00  0.3999E+02  0.4000E+02
      9.321  0.8054E-01  0.0000E+00  0.4000E+02  0.4000E+02
      9.452  0.6134E-02  0.0000E+00  0.4000E+02  0.4000E+02
      9.583  0.0000E+00  0.0000E+00  0.4000E+02  0.4000E+02
      9.714  0.0000E+00  0.0000E+00  0.4000E+02  0.4000E+02
      9.845  0.0000E+00  0.0000E+00  0.4000E+02  0.4000E+02
      9.976  0.0000E+00  0.0000E+00  0.4000E+02  0.4000E+02
     10.107  0.0000E+00  0.0000E+00  0.4000E+02  0.4000E+02
     10.238  0.0000E+00  0.0000E+00  0.4000E+02  0.4000E+02
     10.369  0.0000E+00  0.0000E+00  0.4000E+02  0.4000E+02
     10.500  0.0000E+00  0.0000E+00  0.4000E+02  0.4000E+02
     10.631  0.0000E+00  0.0000E+00  0.4000E+02  0.4000E+02
     10.762  0.0000E+00  0.0000E+00  0.4000E+02  0.4000E+02
     10.893  0.0000E+00  0.0000E+00  0.4000E+02  0.4000E+02
     10.89268397    -28.40819028  301      5.87783697      1.00000000
    -28.408  0.0000E+00  0.0000E+00  0.0000E+00  0.0000E+00  0.0000E+00  0.0000E+00  0.0000E+00  0.0000E+00  0.0000E+00  0.0000E+00  0.0000E+00  0.0000E+00  0.0000E+00  0.0000E+00  0.0000E+00  0.0000E+00  0.0000E+00  0.0000E+00
    -28.277  0.0000E+00  0.0000E+00  0.0000E+00  0.0000E+00  0.0000E+00  0.0000E+00  0.0000E+00  0.0000E+00  0.0000E+00  0.0000E+00  0.0000E+00  0.0000E+00  0.0000E+00  0.0000E+00  0.0000E+00  0.0000E+00  0.0000E+00  0.0000E+00
    -28.146  0.0000E+00  0.0000E+00  0.0000E+00  0.0000E+00  0.0000E+00  0.0000E+00  0.0000E+00  0.0000E+00  0.0000E+00  0.0000E+00  0.0000E+00  0.0000E+00  0.0000E+00  0.0000E+00  0.0000E+00  0.0000E+00  0.0000E+00  0.0000E+00
    -28.015  0.0000E+00  0.0000E+00  0.0000E+00  0.0000E+00  0.0000E+00  0.0000E+00  0.0000E+00  0.0000E+00  0.0000E+00  0.0000E+00  0.0000E+00  0.0000E+00  0.0000E+00  0.0000E+00  0.0000E+00  0.0000E+00  0.0000E+00  0.0000E+00
    -27.884  0.0000E+00  0.0000E+00  0.0000E+00  0.0000E+00  0.0000E+00  0.0000E+00  0.0000E+00  0.0000E+00  0.0000E+00  0.0000E+00  0.0000E+00  0.0000E+00  0.0000E+00  0.0000E+00  0.0000E+00  0.0000E+00  0.0000E+00  0.0000E+00
    -27.753  0.0000E+00  0.0000E+00  0.0000E+00  0.0000E+00  0.0000E+00  0.0000E+00  0.0000E+00  0.0000E+00  0.0000E+00  0.0000E+00  0.0000E+00  0.0000E+00  0.0000E+00  0.0000E+00  0.0000E+00  0.0000E+00  0.0000E+00  0.0000E+00
    -27.622  0.0000E+00  0.0000E+00  0.0000E+00  0.0000E+00  0.0000E+00  0.0000E+00  0.0000E+00  0.0000E+00  0.0000E+00  0.0000E+00  0.0000E+00  0.0000E+00  0.0000E+00  0.0000E+00  0.0000E+00  0.0000E+00  0.0000E+00  0.0000E+00
    -27.491  0.0000E+00  0.0000E+00  0.0000E+00  0.0000E+00  0.0000E+00  0.0000E+00  0.0000E+00  0.0000E+00  0.0000E+00  0.0000E+00  0.0000E+00  0.0000E+00  0.0000E+00  0.0000E+00  0.0000E+00  0.0000E+00  0.0000E+00  0.0000E+00
    -27.360  0.0000E+00  0.0000E+00  0.0000E+00  0.0000E+00  0.0000E+00  0.0000E+00  0.0000E+00  0.0000E+00  0.0000E+00  0.0000E+00  0.0000E+00  0.0000E+00  0.0000E+00  0.0000E+00  0.0000E+00  0.0000E+00  0.0000E+00  0.0000E+00
    -27.229  0.0000E+00  0.0000E+00  0.0000E+00  0.0000E+00  0.0000E+00  0.0000E+00  0.0000E+00  0.0000E+00  0.0000E+00  0.0000E+00  0.0000E+00  0.0000E+00  0.0000E+00  0.0000E+00  0.0000E+00  0.0000E+00  0.0000E+00  0.0000E+00
    -27.098  0.2221E-08  0.2223E-08  0.2347E-04  0.2349E-04  0.2347E-04  0.2349E-04  0.2347E-04  0.2349E-04  0.6149E-09  0.6148E-09  0.6149E-09  0.6148E-09  0.7570E-09  0.7592E-09  0.6149E-09  0.6148E-09  0.7570E-09  0.7592E-09
    -26.967  0.9270E-07  0.9279E-07  0.5991E-03  0.5997E-03  0.5991E-03  0.5997E-03  0.5991E-03  0.5997E-03  0.2251E-07  0.2252E-07  0.2251E-07  0.2252E-07  0.2029E-07  0.2034E-07  0.2251E-07  0.2252E-07  0.2029E-07  0.2034E-07
    -26.836  0.1242E-05  0.1243E-05  0.8187E-02  0.8195E-02  0.8187E-02  0.8195E-02  0.8187E-02  0.8195E-02  0.3134E-06  0.3135E-06  0.3134E-06  0.3135E-06  0.2789E-06  0.2796E-06  0.3134E-06  0.3135E-06  0.2789E-06  0.2796E-06
    -26.705  0.1622E-04  0.1624E-04  0.1046E+00  0.1047E+00  0.1046E+00  0.1047E+00  0.1046E+00  0.1047E+00  0.4066E-05  0.4067E-05  0.4066E-05  0.4067E-05  0.3592E-05  0.3600E-05  0.4066E-05  0.4067E-05  0.3592E-05  0.3600E-05
    -26.574  0.1428E-03  0.1429E-03  0.8010E+00  0.8014E+00  0.8010E+00  0.8014E+00  0.8010E+00  0.8014E+00  0.3493E-04  0.3493E-04  0.3493E-04  0.3493E-04  0.2872E-04  0.2878E-04  0.3493E-04  0.3493E-04  0.2872E-04  0.2878E-04
    -26.443  0.3560E-03  0.3560E-03  0.1882E+01  0.1883E+01  0.1882E+01  0.1883E+01  0.1882E+01  0.1883E+01  0.1027E-03  0.1026E-03  0.1027E-03  0.1026E-03  0.6927E-04  0.6933E-04  0.1027E-03  0.1026E-03  0.6927E-04  0.6933E-04
    -26.312  0.2427E-03  0.2426E-03  0.2676E+01  0.2676E+01  0.2676E+01  0.2676E+01  0.2676E+01  0.2676E+01  0.1333E-03  0.1332E-03  0.1333E-03  0.1332E-03  0.9611E-04  0.9609E-04  0.1333E-03  0.1332E-03  0.9611E-04  0.9609E-04
    -26.181  0.6920E-04  0.6915E-04  0.1751E+01  0.1750E+01  0.1751E+01  0.1750E+01  0.1751E+01  0.1750E+01  0.5985E-04  0.5979E-04  0.5985E-04  0.5979E-04  0.4923E-04  0.4918E-04  0.5985E-04  0.5979E-04  0.4923E-04  0.4918E-04
    -26.050  0.7270E-05  0.7263E-05  0.2774E+00  0.2772E+00  0.2774E+00  0.2772E+00  0.2774E+00  0.2772E+00  0.7701E-05  0.7691E-05  0.7701E-05  0.7691E-05  0.6291E-05  0.6281E-05  0.7701E-05  0.7691E-05  0.6291E-05  0.6281E-05
    -25.919  0.2385E-06  0.2382E-06  0.1730E-01  0.1728E-01  0.1730E-01  0.1728E-01  0.1730E-01  0.1728E-01  0.3487E-06  0.3483E-06  0.3487E-06  0.3483E-06  0.2615E-06  0.2611E-06  0.3487E-06  0.3483E-06  0.2615E-06  0.2611E-06
    -25.788  0.0000E+00  0.0000E+00  0.0000E+00  0.0000E+00  0.0000E+00  0.0000E+00  0.0000E+00  0.0000E+00  0.0000E+00  0.0000E+00  0.0000E+00  0.0000E+00  0.0000E+00  0.0000E+00  0.0000E+00  0.0000E+00  0.0000E+00  0.0000E+00
    -25.657  0.0000E+00  0.0000E+00  0.0000E+00  0.0000E+00  0.0000E+00  0.0000E+00  0.0000E+00  0.0000E+00  0.0000E+00  0.0000E+00  0.0000E+00  0.0000E+00  0.0000E+00  0.0000E+00  0.0000E+00  0.0000E+00  0.0000E+00  0.0000E+00
    -25.526  0.0000E+00  0.0000E+00  0.0000E+00  0.0000E+00  0.0000E+00  0.0000E+00  0.0000E+00  0.0000E+00  0.0000E+00  0.0000E+00  0.0000E+00  0.0000E+00  0.0000E+00  0.0000E+00  0.0000E+00  0.0000E+00  0.0000E+00  0.0000E+00
    -25.395  0.0000E+00  0.0000E+00  0.0000E+00  0.0000E+00  0.0000E+00  0.0000E+00  0.0000E+00  0.0000E+00  0.0000E+00  0.0000E+00  0.0000E+00  0.0000E+00  0.0000E+00  0.0000E+00  0.0000E+00  0.0000E+00  0.0000E+00  0.0000E+00
    -25.264  0.0000E+00  0.0000E+00  0.0000E+00  0.0000E+00  0.0000E+00  0.0000E+00  0.0000E+00  0.0000E+00  0.0000E+00  0.0000E+00  0.0000E+00  0.0000E+00  0.0000E+00  0.0000E+00  0.0000E+00  0.0000E+00  0.0000E+00  0.0000E+00
    -25.133  0.0000E+00  0.0000E+00  0.0000E+00  0.0000E+00  0.0000E+00  0.0000E+00  0.0000E+00  0.0000E+00  0.0000E+00  0.0000E+00  0.0000E+00  0.0000E+00  0.0000E+00  0.0000E+00  0.0000E+00  0.0000E+00  0.0000E+00  0.0000E+00
    -25.002  0.0000E+00  0.0000E+00  0.0000E+00  0.0000E+00  0.0000E+00  0.0000E+00  0.0000E+00  0.0000E+00  0.0000E+00  0.0000E+00  0.0000E+00  0.0000E+00  0.0000E+00  0.0000E+00  0.0000E+00  0.0000E+00  0.0000E+00  0.0000E+00
    -24.871  0.0000E+00  0.0000E+00  0.0000E+00  0.0000E+00  0.0000E+00  0.0000E+00  0.0000E+00  0.0000E+00  0.0000E+00  0.0000E+00  0.0000E+00  0.0000E+00  0.0000E+00  0.0000E+00  0.0000E+00  0.0000E+00  0.0000E+00  0.0000E+00
    -24.740  0.0000E+00  0.0000E+00  0.0000E+00  0.0000E+00  0.0000E+00  0.0000E+00  0.0000E+00  0.0000E+00  0.0000E+00  0.0000E+00  0.0000E+00  0.0000E+00  0.0000E+00  0.0000E+00  0.0000E+00  0.0000E+00  0.0000E+00  0.0000E+00
    -24.609  0.0000E+00  0.0000E+00  0.0000E+00  0.0000E+00  0.0000E+00  0.0000E+00  0.0000E+00  0.0000E+00  0.0000E+00  0.0000E+00  0.0000E+00  0.0000E+00  0.0000E+00  0.0000E+00  0.0000E+00  0.0000E+00  0.0000E+00  0.0000E+00
    -24.478  0.0000E+00  0.0000E+00  0.0000E+00  0.0000E+00  0.0000E+00  0.0000E+00  0.0000E+00  0.0000E+00  0.0000E+00  0.0000E+00  0.0000E+00  0.0000E+00  0.0000E+00  0.0000E+00  0.0000E+00  0.0000E+00  0.0000E+00  0.0000E+00
    -24.347  0.0000E+00  0.0000E+00  0.0000E+00  0.0000E+00  0.0000E+00  0.0000E+00  0.0000E+00  0.0000E+00  0.0000E+00  0.0000E+00  0.0000E+00  0.0000E+00  0.0000E+00  0.0000E+00  0.0000E+00  0.0000E+00  0.0000E+00  0.0000E+00
    -24.216  0.0000E+00  0.0000E+00  0.0000E+00  0.0000E+00  0.0000E+00  0.0000E+00  0.0000E+00  0.0000E+00  0.0000E+00  0.0000E+00  0.0000E+00  0.0000E+00  0.0000E+00  0.0000E+00  0.0000E+00  0.0000E+00  0.0000E+00  0.0000E+00
    -24.085  0.0000E+00  0.0000E+00  0.0000E+00  0.0000E+00  0.0000E+00  0.0000E+00  0.0000E+00  0.0000E+00  0.0000E+00  0.0000E+00  0.0000E+00  0.0000E+00  0.0000E+00  0.0000E+00  0.0000E+00  0.0000E+00  0.0000E+00  0.0000E+00
    -23.954  0.0000E+00  0.0000E+00  0.0000E+00  0.0000E+00  0.0000E+00  0.0000E+00  0.0000E+00  0.0000E+00  0.0000E+00  0.0000E+00  0.0000E+00  0.0000E+00  0.0000E+00  0.0000E+00  0.0000E+00  0.0000E+00  0.0000E+00  0.0000E+00
    -23.823  0.0000E+00  0.0000E+00  0.0000E+00  0.0000E+00  0.0000E+00  0.0000E+00  0.0000E+00  0.0000E+00  0.0000E+00  0.0000E+00  0.0000E+00  0.0000E+00  0.0000E+00  0.0000E+00  0.0000E+00  0.0000E+00  0.0000E+00  0.0000E+00
    -23.692  0.0000E+00  0.0000E+00  0.0000E+00  0.0000E+00  0.0000E+00  0.0000E+00  0.0000E+00  0.0000E+00  0.0000E+00  0.0000E+00  0.0000E+00  0.0000E+00  0.0000E+00  0.0000E+00  0.0000E+00  0.0000E+00  0.0000E+00  0.0000E+00
    -23.561  0.0000E+00  0.0000E+00  0.0000E+00  0.0000E+00  0.0000E+00  0.0000E+00  0.0000E+00  0.0000E+00  0.0000E+00  0.0000E+00  0.0000E+00  0.0000E+00  0.0000E+00  0.0000E+00  0.0000E+00  0.0000E+00  0.0000E+00  0.0000E+00
    -23.430  0.0000E+00  0.0000E+00  0.0000E+00  0.0000E+00  0.0000E+00  0.0000E+00  0.0000E+00  0.0000E+00  0.0000E+00  0.0000E+00  0.0000E+00  0.0000E+00  0.0000E+00  0.0000E+00  0.0000E+00  0.0000E+00  0.0000E+00  0.0000E+00
    -23.299  0.0000E+00  0.0000E+00  0.0000E+00  0.0000E+00  0.0000E+00  0.0000E+00  0.0000E+00  0.0000E+00  0.0000E+00  0.0000E+00  0.0000E+00  0.0000E+00  0.0000E+00  0.0000E+00  0.0000E+00  0.0000E+00  0.0000E+00  0.0000E+00
    -23.168  0.0000E+00  0.0000E+00  0.0000E+00  0.0000E+00  0.0000E+00  0.0000E+00  0.0000E+00  0.0000E+00  0.0000E+00  0.0000E+00  0.0000E+00  0.0000E+00  0.0000E+00  0.0000E+00  0.0000E+00  0.0000E+00  0.0000E+00  0.0000E+00
    -23.037  0.0000E+00  0.0000E+00  0.0000E+00  0.0000E+00  0.0000E+00  0.0000E+00  0.0000E+00  0.0000E+00  0.0000E+00  0.0000E+00  0.0000E+00  0.0000E+00  0.0000E+00  0.0000E+00  0.0000E+00  0.0000E+00  0.0000E+00  0.0000E+00
    -22.906  0.0000E+00  0.0000E+00  0.0000E+00  0.0000E+00  0.0000E+00  0.0000E+00  0.0000E+00  0.0000E+00  0.0000E+00  0.0000E+00  0.0000E+00  0.0000E+00  0.0000E+00  0.0000E+00  0.0000E+00  0.0000E+00  0.0000E+00  0.0000E+00
    -22.775  0.0000E+00  0.0000E+00  0.0000E+00  0.0000E+00  0.0000E+00  0.0000E+00  0.0000E+00  0.0000E+00  0.0000E+00  0.0000E+00  0.0000E+00  0.0000E+00  0.0000E+00  0.0000E+00  0.0000E+00  0.0000E+00  0.0000E+00  0.0000E+00
    -22.644  0.0000E+00  0.0000E+00  0.0000E+00  0.0000E+00  0.0000E+00  0.0000E+00  0.0000E+00  0.0000E+00  0.0000E+00  0.0000E+00  0.0000E+00  0.0000E+00  0.0000E+00  0.0000E+00  0.0000E+00  0.0000E+00  0.0000E+00  0.0000E+00
    -22.513  0.0000E+00  0.0000E+00  0.0000E+00  0.0000E+00  0.0000E+00  0.0000E+00  0.0000E+00  0.0000E+00  0.0000E+00  0.0000E+00  0.0000E+00  0.0000E+00  0.0000E+00  0.0000E+00  0.0000E+00  0.0000E+00  0.0000E+00  0.0000E+00
    -22.382  0.0000E+00  0.0000E+00  0.0000E+00  0.0000E+00  0.0000E+00  0.0000E+00  0.0000E+00  0.0000E+00  0.0000E+00  0.0000E+00  0.0000E+00  0.0000E+00  0.0000E+00  0.0000E+00  0.0000E+00  0.0000E+00  0.0000E+00  0.0000E+00
    -22.251  0.0000E+00  0.0000E+00  0.0000E+00  0.0000E+00  0.0000E+00  0.0000E+00  0.0000E+00  0.0000E+00  0.0000E+00  0.0000E+00  0.0000E+00  0.0000E+00  0.0000E+00  0.0000E+00  0.0000E+00  0.0000E+00  0.0000E+00  0.0000E+00
    -22.120  0.0000E+00  0.0000E+00  0.0000E+00  0.0000E+00  0.0000E+00  0.0000E+00  0.0000E+00  0.0000E+00  0.0000E+00  0.0000E+00  0.0000E+00  0.0000E+00  0.0000E+00  0.0000E+00  0.0000E+00  0.0000E+00  0.0000E+00  0.0000E+00
    -21.989  0.0000E+00  0.0000E+00  0.0000E+00  0.0000E+00  0.0000E+00  0.0000E+00  0.0000E+00  0.0000E+00  0.0000E+00  0.0000E+00  0.0000E+00  0.0000E+00  0.0000E+00  0.0000E+00  0.0000E+00  0.0000E+00  0.0000E+00  0.0000E+00
    -21.858  0.0000E+00  0.0000E+00  0.0000E+00  0.0000E+00  0.0000E+00  0.0000E+00  0.0000E+00  0.0000E+00  0.0000E+00  0.0000E+00  0.0000E+00  0.0000E+00  0.0000E+00  0.0000E+00  0.0000E+00  0.0000E+00  0.0000E+00  0.0000E+00