   8   8   1   0
  0.1248851E+02  0.4640166E-09  0.4640166E-09  0.4640166E-09  0.5000000E-15
  1.000000000000000E-004
  CAR 
 unknown system                          
     12.10712728    -27.60328653  301      6.70517176      1.00000000
    -27.603  0.0000E+00  0.0000E+00  0.0000E+00  0.0000E+00
    -27.471  0.0000E+00  0.0000E+00  0.0000E+00  0.0000E+00
    -27.339  0.0000E+00  0.0000E+00  0.0000E+00  0.0000E+00
    -27.206  0.0000E+00  0.0000E+00  0.0000E+00  0.0000E+00
    -27.074  0.0000E+00  0.0000E+00  0.0000E+00  0.0000E+00
    -26.941  0.0000E+00  0.0000E+00  0.0000E+00  0.0000E+00
    -26.809  0.0000E+00  0.0000E+00  0.0000E+00  0.0000E+00
    -26.677  0.0000E+00  0.0000E+00  0.0000E+00  0.0000E+00
    -26.544  0.0000E+00  0.0000E+00  0.0000E+00  0.0000E+00
    -26.412  0.0000E+00  0.0000E+00  0.0000E+00  0.0000E+00
    -26.280  0.1187E-03  0.1196E-03  0.1571E-04  0.1583E-04
    -26.147  0.4510E-02  0.4544E-02  0.6127E-03  0.6173E-03
    -26.015  0.6155E-01  0.6202E-01  0.8760E-02  0.8827E-02
    -25.883  0.8088E+00  0.8145E+00  0.1158E+00  0.1166E+00
    -25.750  0.6501E+01  0.6531E+01  0.9764E+00  0.9811E+00
    -25.618  0.1596E+02  0.1597E+02  0.3089E+01  0.3096E+01
    -25.485  0.1890E+02  0.1892E+02  0.5591E+01  0.5600E+01
    -25.353  0.2755E+02  0.2756E+02  0.9238E+01  0.9248E+01
    -25.221  0.1763E+02  0.1758E+02  0.1158E+02  0.1158E+02
    -25.088  0.2918E+01  0.2899E+01  0.1197E+02  0.1197E+02
    -24.956  0.1768E+00  0.1691E+00  0.1200E+02  0.1200E+02
    -24.824  0.0000E+00  0.0000E+00  0.1200E+02  0.1200E+02
    -24.691  0.0000E+00  0.0000E+00  0.1200E+02  0.1200E+02
    -24.559  0.0000E+00  0.0000E+00  0.1200E+02  0.1200E+02
    -24.426  0.0000E+00  0.0000E+00  0.1200E+02  0.1200E+02
    -24.294  0.0000E+00  0.0000E+00  0.1200E+02  0.1200E+02
    -24.162  0.0000E+00  0.0000E+00  0.1200E+02  0.1200E+02
    -24.029  0.0000E+00  0.0000E+00  0.1200E+02  0.1200E+02
    -23.897  0.0000E+00  0.0000E+00  0.1200E+02  0.1200E+02
    -23.765  0.0000E+00  0.0000E+00  0.1200E+02  0.1200E+02
    -23.632  0.0000E+00  0.0000E+00  0.1200E+02  0.1200E+02
    -23.500  0.0000E+00  0.0000E+00  0.1200E+02  0.1200E+02
    -23.368  0.0000E+00  0.0000E+00  0.1200E+02  0.1200E+02
    -23.235  0.0000E+00  0.0000E+00  0.1200E+02  0.1200E+02
    -23.103  0.0000E+00  0.0000E+00  0.1200E+02  0.1200E+02
    -22.970  0.0000E+00  0.0000E+00  0.1200E+02  0.1200E+02
    -22.838  0.0000E+00  0.0000E+00  0.1200E+02  0.1200E+02
    -22.706  0.0000E+00  0.0000E+00  0.1200E+02  0.1200E+02
    -22.573  0.0000E+00  0.0000E+00  0.1200E+02  0.1200E+02
    -22.441  0.0000E+00  0.0000E+00  0.1200E+02  0.1200E+02
    -22.309  0.0000E+00  0.0000E+00  0.1200E+02  0.1200E+02
    -22.176  0.0000E+00  0.0000E+00  0.1200E+02  0.1200E+02
    -22.044  0.0000E+00  0.0000E+00  0.1200E+02  0.1200E+02
    -21.911  0.0000E+00  0.0000E+00  0.1200E+02  0.1200E+02
    -21.779  0.0000E+00  0.0000E+00  0.1200E+02  0.1200E+02
    -21.647  0.0000E+00  0.0000E+00  0.1200E+02  0.1200E+02
    -21.514  0.0000E+00  0.0000E+00  0.1200E+02  0.1200E+02
    -21.382  0.0000E+00  0.0000E+00  0.1200E+02  0.1200E+02
    -21.250  0.0000E+00  0.0000E+00  0.1200E+02  0.1200E+02
    -21.117  0.0000E+00  0.0000E+00  0.1200E+02  0.1200E+02
    -20.985  0.0000E+00  0.0000E+00  0.1200E+02  0.1200E+02
    -20.853  0.0000E+00  0.0000E+00  0.1200E+02  0.1200E+02
    -20.720  0.0000E+00  0.0000E+00  0.1200E+02  0.1200E+02
    -20.588  0.0000E+00  0.0000E+00  0.1200E+02  0.1200E+02
    -20.455  0.0000E+00  0.0000E+00  0.1200E+02  0.1200E+02
    -20.323  0.0000E+00  0.0000E+00  0.1200E+02  0.1200E+02
    -20.191  0.0000E+00  0.0000E+00  0.1200E+02  0.1200E+02
    -20.058  0.0000E+00  0.0000E+00  0.1200E+02  0.1200E+02
    -19.926  0.0000E+00  0.0000E+00  0.1200E+02  0.1200E+02
    -19.794  0.0000E+00  0.0000E+00  0.1200E+02  0.1200E+02
    -19.661  0.0000E+00  0.0000E+00  0.1200E+02  0.1200E+02
    -19.529  0.0000E+00  0.0000E+00  0.1200E+02  0.1200E+02
    -19.396  0.0000E+00  0.0000E+00  0.1200E+02  0.1200E+02
    -19.264  0.0000E+00  0.0000E+00  0.1200E+02  0.1200E+02
    -19.132  0.0000E+00  0.0000E+00  0.1200E+02  0.1200E+02
    -18.999  0.0000E+00  0.0000E+00  0.1200E+02  0.1200E+02
    -18.867  0.0000E+00  0.0000E+00  0.1200E+02  0.1200E+02
    -18.735  0.0000E+00  0.0000E+00  0.1200E+02  0.1200E+02
    -18.602  0.0000E+00  0.0000E+00  0.1200E+02  0.1200E+02
    -18.470  0.0000E+00  0.0000E+00  0.1200E+02  0.1200E+02
    -18.338  0.0000E+00  0.0000E+00  0.1200E+02  0.1200E+02
    -18.205  0.0000E+00  0.0000E+00  0.1200E+02  0.1200E+02
    -18.073  0.0000E+00  0.0000E+00  0.1200E+02  0.1200E+02
    -17.940  0.0000E+00  0.0000E+00  0.1200E+02  0.1200E+02
    -17.808  0.0000E+00  0.0000E+00  0.1200E+02  0.1200E+02
    -17.676  0.0000E+00  0.0000E+00  0.1200E+02  0.1200E+02
    -17.543  0.0000E+00  0.0000E+00  0.1200E+02  0.1200E+02
    -17.411  0.0000E+00  0.0000E+00  0.1200E+02  0.1200E+02
    -17.279  0.0000E+00  0.0000E+00  0.1200E+02  0.1200E+02
    -17.146  0.0000E+00  0.0000E+00  0.1200E+02  0.1200E+02
    -17.014  0.0000E+00  0.0000E+00  0.1200E+02  0.1200E+02
    -16.881  0.0000E+00  0.0000E+00  0.1200E+02  0.1200E+02
    -16.749  0.0000E+00  0.0000E+00  0.1200E+02  0.1200E+02
    -16.617  0.0000E+00  0.0000E+00  0.1200E+02  0.1200E+02
    -16.484  0.0000E+00  0.0000E+00  0.1200E+02  0.1200E+02
    -16.352  0.0000E+00  0.0000E+00  0.1200E+02  0.1200E+02
    -16.220  0.0000E+00  0.0000E+00  0.1200E+02  0.1200E+02
    -16.087  0.0000E+00  0.0000E+00  0.1200E+02  0.1200E+02
    -15.955  0.0000E+00  0.0000E+00  0.1200E+02  0.1200E+02
    -15.823  0.0000E+00  0.0000E+00  0.1200E+02  0.1200E+02
    -15.690  0.0000E+00  0.0000E+00  0.1200E+02  0.1200E+02
    -15.558  0.0000E+00  0.0000E+00  0.1200E+02  0.1200E+02
    -15.425  0.0000E+00  0.0000E+00  0.1200E+02  0.1200E+02
    -15.293  0.0000E+00  0.0000E+00  0.1200E+02  0.1200E+02
    -15.161  0.0000E+00  0.0000E+00  0.1200E+02  0.1200E+02
    -15.028  0.0000E+00  0.0000E+00  0.1200E+02  0.1200E+02
    -14.896  0.0000E+00  0.0000E+00  0.1200E+02  0.1200E+02
    -14.764  0.0000E+00  0.0000E+00  0.1200E+02  0.1200E+02
    -14.631  0.0000E+00  0.0000E+00  0.1200E+02  0.1200E+02
    -14.499  0.0000E+00  0.0000E+00  0.1200E+02  0.1200E+02
    -14.366  0.0000E+00  0.0000E+00  0.1200E+02  0.1200E+02
    -14.234  0.0000E+00  0.0000E+00  0.1200E+02  0.1200E+02
    -14.102  0.0000E+00  0.0000E+00  0.1200E+02  0.1200E+02
    -13.969  0.0000E+00  0.0000E+00  0.1200E+02  0.1200E+02
    -13.837  0.0000E+00  0.0000E+00  0.1200E+02  0.1200E+02
    -13.705  0.0000E+00  0.0000E+00  0.1200E+02  0.1200E+02
    -13.572  0.0000E+00  0.0000E+00  0.1200E+02  0.1200E+02
    -13.440  0.0000E+00  0.0000E+00  0.1200E+02  0.1200E+02
    -13.308  0.0000E+00  0.0000E+00  0.1200E+02  0.1200E+02
    -13.175  0.0000E+00  0.0000E+00  0.1200E+02  0.1200E+02
    -13.043  0.0000E+00  0.0000E+00  0.1200E+02  0.1200E+02
    -12.910  0.0000E+00  0.0000E+00  0.1200E+02  0.1200E+02
    -12.778  0.0000E+00  0.0000E+00  0.1200E+02  0.1200E+02
    -12.646  0.0000E+00  0.0000E+00  0.1200E+02  0.1200E+02
    -12.513  0.0000E+00  0.0000E+00  0.1200E+02  0.1200E+02
    -12.381  0.0000E+00  0.0000E+00  0.1200E+02  0.1200E+02
    -12.249  0.0000E+00  0.0000E+00  0.1200E+02  0.1200E+02
    -12.116  0.0000E+00  0.0000E+00  0.1200E+02  0.1200E+02
    -11.984  0.0000E+00  0.0000E+00  0.1200E+02  0.1200E+02
    -11.851  0.0000E+00  0.0000E+00  0.1200E+02  0.1200E+02
    -11.719  0.0000E+00  0.0000E+00  0.1200E+02  0.1200E+02
    -11.587  0.0000E+00  0.0000E+00  0.1200E+02  0.1200E+02
    -11.454  0.0000E+00  0.0000E+00  0.1200E+02  0.1200E+02
    -11.322  0.0000E+00  0.0000E+00  0.1200E+02  0.1200E+02
    -11.190  0.0000E+00  0.0000E+00  0.1200E+02  0.1200E+02
    -11.057  0.0000E+00  0.0000E+00  0.1200E+02  0.1200E+02
    -10.925  0.0000E+00  0.0000E+00  0.1200E+02  0.1200E+02
    -10.793  0.0000E+00  0.0000E+00  0.1200E+02  0.1200E+02
    -10.660  0.0000E+00  0.0000E+00  0.1200E+02  0.1200E+02
    -10.528  0.0000E+00  0.0000E+00  0.1200E+02  0.1200E+02
    -10.395  0.0000E+00  0.0000E+00  0.1200E+02  0.1200E+02
    -10.263  0.0000E+00  0.0000E+00  0.1200E+02  0.1200E+02
    -10.131  0.0000E+00  0.0000E+00  0.1200E+02  0.1200E+02
     -9.998  0.0000E+00  0.0000E+00  0.1200E+02  0.1200E+02
     -9.866  0.0000E+00  0.0000E+00  0.1200E+02  0.1200E+02
     -9.734  0.0000E+00  0.0000E+00  0.1200E+02  0.1200E+02
     -9.601  0.0000E+00  0.0000E+00  0.1200E+02  0.1200E+02
     -9.469  0.0000E+00  0.0000E+00  0.1200E+02  0.1200E+02
     -9.336  0.0000E+00  0.0000E+00  0.1200E+02  0.1200E+02
     -9.204  0.0000E+00  0.0000E+00  0.1200E+02  0.1200E+02
     -9.072  0.0000E+00  0.0000E+00  0.1200E+02  0.1200E+02
     -8.939  0.0000E+00  0.0000E+00  0.1200E+02  0.1200E+02
     -8.807  0.0000E+00  0.0000E+00  0.1200E+02  0.1200E+02
     -8.675  0.0000E+00  0.0000E+00  0.1200E+02  0.1200E+02
     -8.542  0.0000E+00  0.0000E+00  0.1200E+02  0.1200E+02
     -8.410  0.0000E+00  0.0000E+00  0.1200E+02  0.1200E+02
     -8.278  0.0000E+00  0.0000E+00  0.1200E+02  0.1200E+02
     -8.145  0.0000E+00  0.0000E+00  0.1200E+02  0.1200E+02
     -8.013  0.0000E+00  0.0000E+00  0.1200E+02  0.1200E+02
     -7.880  0.0000E+00  0.0000E+00  0.1200E+02  0.1200E+02
     -7.748  0.0000E+00  0.0000E+00  0.1200E+02  0.1200E+02
     -7.616  0.0000E+00  0.0000E+00  0.1200E+02  0.1200E+02
     -7.483  0.0000E+00  0.0000E+00  0.1200E+02  0.1200E+02
     -7.351  0.0000E+00  0.0000E+00  0.1200E+02  0.1200E+02
     -7.219  0.0000E+00  0.0000E+00  0.1200E+02  0.1200E+02
     -7.086  0.0000E+00  0.0000E+00  0.1200E+02  0.1200E+02
     -6.954  0.0000E+00  0.0000E+00  0.1200E+02  0.1200E+02
     -6.822  0.8976E-05  0.8923E-05  0.1200E+02  0.1200E+02
     -6.689  0.1175E-03  0.1168E-03  0.1200E+02  0.1200E+02
     -6.557  0.1653E-02  0.1644E-02  0.1200E+02  0.1200E+02
     -6.424  0.1662E-01  0.1656E-01  0.1200E+02  0.1200E+02
     -6.292  0.4150E-01  0.4149E-01  0.1201E+02  0.1201E+02
     -6.160  0.8975E-01  0.8943E-01  0.1202E+02  0.1202E+02
     -6.027  0.2227E+00  0.2227E+00  0.1205E+02  0.1205E+02
     -5.895  0.2055E+00  0.2051E+00  0.1208E+02  0.1208E+02
     -5.763  0.4343E+00  0.4344E+00  0.1213E+02  0.1213E+02
     -5.630  0.2358E+00  0.2360E+00  0.1217E+02  0.1217E+02
     -5.498  0.3787E+00  0.3784E+00  0.1222E+02  0.1222E+02
     -5.365  0.3345E+00  0.3349E+00  0.1226E+02  0.1226E+02
     -5.233  0.4340E+00  0.4326E+00  0.1232E+02  0.1232E+02
     -5.101  0.8989E+00  0.8991E+00  0.1244E+02  0.1244E+02
     -4.968  0.8857E+00  0.8837E+00  0.1255E+02  0.1255E+02
     -4.836  0.1578E+01  0.1578E+01  0.1276E+02  0.1276E+02
     -4.704  0.1884E+01  0.1881E+01  0.1301E+02  0.1301E+02
     -4.571  0.2597E+01  0.2597E+01  0.1336E+02  0.1335E+02
     -4.439  0.2754E+01  0.2753E+01  0.1372E+02  0.1372E+02
     -4.307  0.2991E+01  0.2990E+01  0.1412E+02  0.1412E+02
     -4.174  0.3253E+01  0.3252E+01  0.1455E+02  0.1455E+02
     -4.042  0.3253E+01  0.3254E+01  0.1498E+02  0.1498E+02
     -3.909  0.3021E+01  0.3022E+01  0.1538E+02  0.1538E+02
     -3.777  0.1967E+01  0.1971E+01  0.1564E+02  0.1564E+02
     -3.645  0.1117E+01  0.1120E+01  0.1579E+02  0.1579E+02
     -3.512  0.5854E+00  0.5841E+00  0.1587E+02  0.1587E+02
     -3.380  0.8029E+00  0.8045E+00  0.1598E+02  0.1598E+02
     -3.248  0.1689E+00  0.1702E+00  0.1600E+02  0.1600E+02
     -3.115  0.1369E-01  0.1381E-01  0.1600E+02  0.1600E+02
     -2.983  0.0000E+00  0.0000E+00  0.1600E+02  0.1600E+02
     -2.850  0.0000E+00  0.0000E+00  0.1600E+02  0.1600E+02
     -2.718  0.0000E+00  0.0000E+00  0.1600E+02  0.1600E+02
     -2.586  0.0000E+00  0.0000E+00  0.1600E+02  0.1600E+02
     -2.453  0.0000E+00  0.0000E+00  0.1600E+02  0.1600E+02
     -2.321  0.0000E+00  0.0000E+00  0.1600E+02  0.1600E+02
     -2.189  0.0000E+00  0.0000E+00  0.1600E+02  0.1600E+02
     -2.056  0.0000E+00  0.0000E+00  0.1600E+02  0.1600E+02
     -1.924  0.0000E+00  0.0000E+00  0.1600E+02  0.1600E+02
     -1.792  0.0000E+00  0.0000E+00  0.1600E+02  0.1600E+02
     -1.659  0.0000E+00  0.0000E+00  0.1600E+02  0.1600E+02
     -1.527  0.0000E+00  0.0000E+00  0.1600E+02  0.1600E+02
     -1.394  0.0000E+00  0.0000E+00  0.1600E+02  0.1600E+02
     -1.262  0.0000E+00  0.0000E+00  0.1600E+02  0.1600E+02
     -1.130  0.0000E+00  0.0000E+00  0.1600E+02  0.1600E+02
     -0.997  0.0000E+00  0.0000E+00  0.1600E+02  0.1600E+02
     -0.865  0.0000E+00  0.0000E+00  0.1600E+02  0.1600E+02
     -0.733  0.0000E+00  0.0000E+00  0.1600E+02  0.1600E+02
     -0.600  0.7174E-04  0.7173E-04  0.1600E+02  0.1600E+02
     -0.468  0.9404E-03  0.9402E-03  0.1600E+02  0.1600E+02
     -0.335  0.1315E-01  0.1314E-01  0.1600E+02  0.1600E+02
     -0.203  0.1632E+00  0.1631E+00  0.1602E+02  0.1602E+02
     -0.071  0.7858E+00  0.7858E+00  0.1613E+02  0.1613E+02
      0.062  0.4633E+00  0.4633E+00  0.1619E+02  0.1619E+02
      0.194  0.2495E+00  0.2494E+00  0.1622E+02  0.1622E+02
      0.326  0.4457E+00  0.4457E+00  0.1628E+02  0.1628E+02
      0.459  0.1227E+01  0.1227E+01  0.1644E+02  0.1644E+02
      0.591  0.2046E+01  0.2046E+01  0.1671E+02  0.1671E+02
      0.723  0.9686E+00  0.9689E+00  0.1684E+02  0.1684E+02
      0.856  0.9206E+00  0.9202E+00  0.1697E+02  0.1696E+02
      0.988  0.2216E+01  0.2216E+01  0.1726E+02  0.1726E+02
      1.121  0.3184E+01  0.3184E+01  0.1768E+02  0.1768E+02
      1.253  0.1646E+01  0.1647E+01  0.1790E+02  0.1790E+02
      1.385  0.1425E+01  0.1425E+01  0.1809E+02  0.1809E+02
      1.518  0.1893E+01  0.1893E+01  0.1834E+02  0.1834E+02
      1.650  0.2535E+01  0.2534E+01  0.1868E+02  0.1868E+02
      1.782  0.1963E+01  0.1963E+01  0.1894E+02  0.1894E+02
      1.915  0.1199E+01  0.1198E+01  0.1910E+02  0.1910E+02
      2.047  0.3206E+01  0.3205E+01  0.1952E+02  0.1952E+02
      2.180  0.4340E+01  0.4340E+01  0.2010E+02  0.2009E+02
      2.312  0.6187E+01  0.6186E+01  0.2091E+02  0.2091E+02
      2.444  0.8219E+01  0.8219E+01  0.2200E+02  0.2200E+02
      2.577  0.9175E+01  0.9175E+01  0.2322E+02  0.2322E+02
      2.709  0.6931E+01  0.6932E+01  0.2414E+02  0.2414E+02
      2.841  0.5576E+01  0.5577E+01  0.2488E+02  0.2488E+02
      2.974  0.3176E+01  0.3178E+01  0.2530E+02  0.2530E+02
      3.106  0.1766E+01  0.1767E+01  0.2553E+02  0.2553E+02
      3.238  0.9568E+00  0.9550E+00  0.2566E+02  0.2566E+02
      3.371  0.1814E+01  0.1813E+01  0.2590E+02  0.2590E+02
      3.503  0.2387E+01  0.2387E+01  0.2622E+02  0.2622E+02
      3.636  0.4121E+01  0.4119E+01  0.2676E+02  0.2676E+02
      3.768  0.2521E+01  0.2522E+01  0.2710E+02  0.2710E+02
      3.900  0.1688E+01  0.1687E+01  0.2732E+02  0.2732E+02
      4.033  0.1471E+01  0.1473E+01  0.2752E+02  0.2752E+02
      4.165  0.8273E+00  0.8285E+00  0.2763E+02  0.2763E+02
      4.297  0.3744E+00  0.3748E+00  0.2768E+02  0.2768E+02
      4.430  0.2296E+00  0.2291E+00  0.2771E+02  0.2771E+02
      4.562  0.2489E+00  0.2484E+00  0.2774E+02  0.2774E+02
      4.695  0.7169E+00  0.7164E+00  0.2784E+02  0.2784E+02
      4.827  0.5389E+00  0.5397E+00  0.2791E+02  0.2791E+02
      4.959  0.6076E+00  0.6078E+00  0.2799E+02  0.2799E+02
      5.092  0.8448E+00  0.8442E+00  0.2810E+02  0.2810E+02
      5.224  0.4128E+00  0.4127E+00  0.2816E+02  0.2816E+02
      5.356  0.3379E+00  0.3386E+00  0.2820E+02  0.2820E+02
      5.489  0.4255E+00  0.4261E+00  0.2826E+02  0.2826E+02
      5.621  0.1576E+01  0.1579E+01  0.2847E+02  0.2847E+02
      5.753  0.2920E+01  0.2919E+01  0.2885E+02  0.2885E+02
      5.886  0.3265E+01  0.3264E+01  0.2929E+02  0.2929E+02
      6.018  0.1509E+01  0.1509E+01  0.2949E+02  0.2949E+02
      6.151  0.1018E+01  0.1018E+01  0.2962E+02  0.2962E+02
      6.283  0.6677E+00  0.6679E+00  0.2971E+02  0.2971E+02
      6.415  0.5707E+00  0.5693E+00  0.2979E+02  0.2979E+02
      6.548  0.5896E+00  0.5914E+00  0.2986E+02  0.2986E+02
      6.680  0.9081E+00  0.9090E+00  0.2998E+02  0.2998E+02
      6.812  0.7820E+00  0.7936E+00  0.3009E+02  0.3009E+02
      6.945  0.2161E+01  0.2162E+01  0.3037E+02  0.3038E+02
      7.077  0.5731E+01  0.5728E+01  0.3113E+02  0.3113E+02
      7.210  0.4121E+01  0.4111E+01  0.3168E+02  0.3168E+02
      7.342  0.1934E+01  0.1941E+01  0.3193E+02  0.3194E+02
      7.474  0.2189E+01  0.2188E+01  0.3223E+02  0.3223E+02
      7.607  0.1831E+01  0.1829E+01  0.3247E+02  0.3247E+02
      7.739  0.2387E+01  0.2400E+01  0.3279E+02  0.3279E+02
      7.871  0.2904E+01  0.2906E+01  0.3317E+02  0.3317E+02
      8.004  0.1971E+01  0.1977E+01  0.3343E+02  0.3344E+02
      8.136  0.2298E+01  0.2378E+01  0.3374E+02  0.3375E+02
      8.268  0.6052E+01  0.6016E+01  0.3454E+02  0.3455E+02
      8.401  0.7908E+01  0.7767E+01  0.3559E+02  0.3558E+02
      8.533  0.3969E+01  0.4135E+01  0.3611E+02  0.3612E+02
      8.666  0.2582E+01  0.2741E+01  0.3645E+02  0.3649E+02
      8.798  0.2417E+01  0.2095E+01  0.3678E+02  0.3677E+02
      8.930  0.2191E+01  0.1942E+01  0.3707E+02  0.3702E+02
      9.063  0.2740E+01  0.2876E+01  0.3743E+02  0.3740E+02
      9.195  0.6141E+01  0.6842E+01  0.3824E+02  0.3831E+02
      9.327  0.5609E+01  0.6338E+01  0.3899E+02  0.3915E+02
      9.460  0.2942E+01  0.3448E+01  0.3937E+02  0.3961E+02
      9.592  0.1318E+01  0.8969E+00  0.3955E+02  0.3973E+02
      9.725  0.6107E+00  0.1049E+00  0.3963E+02  0.3974E+02
      9.857  0.5215E+00  0.2187E-01  0.3970E+02  0.3975E+02
      9.989  0.1141E+01  0.1938E+00  0.3985E+02  0.3977E+02
     10.122  0.8857E+00  0.8245E+00  0.3997E+02  0.3988E+02
     10.254  0.1980E+00  0.5068E+00  0.4000E+02  0.3995E+02
     10.386  0.1236E-01  0.3129E+00  0.4000E+02  0.3999E+02
     10.519  0.0000E+00  0.6939E-01  0.4000E+02  0.4000E+02
     10.651  0.0000E+00  0.5821E-02  0.4000E+02  0.4000E+02
     10.783  0.0000E+00  0.0000E+00  0.4000E+02  0.4000E+02
     10.916  0.0000E+00  0.0000E+00  0.4000E+02  0.4000E+02
     11.048  0.0000E+00  0.0000E+00  0.4000E+02  0.4000E+02
     11.181  0.0000E+00  0.0000E+00  0.4000E+02  0.4000E+02
     11.313  0.0000E+00  0.0000E+00  0.4000E+02  0.4000E+02
     11.445  0.0000E+00  0.0000E+00  0.4000E+02  0.4000E+02
     11.578  0.0000E+00  0.0000E+00  0.4000E+02  0.4000E+02
     11.710  0.0000E+00  0.0000E+00  0.4000E+02  0.4000E+02
     11.842  0.0000E+00  0.0000E+00  0.4000E+02  0.4000E+02
     11.975  0.0000E+00  0.0000E+00  0.4000E+02  0.4000E+02
     12.107  0.0000E+00  0.0000E+00  0.4000E+02  0.4000E+02
     12.10712728    -27.60328653  301      6.70517176      1.00000000
    -27.603  0.0000E+00  0.0000E+00  0.0000E+00  0.0000E+00  0.0000E+00  0.0000E+00  0.0000E+00  0.0000E+00  0.0000E+00  0.0000E+00  0.0000E+00  0.0000E+00  0.0000E+00  0.0000E+00  0.0000E+00  0.0000E+00  0.0000E+00  0.0000E+00
    -27.471  0.0000E+00  0.0000E+00  0.0000E+00  0.0000E+00  0.0000E+00  0.0000E+00  0.0000E+00  0.0000E+00  0.0000E+00  0.0000E+00  0.0000E+00  0.0000E+00  0.0000E+00  0.0000E+00  0.0000E+00  0.0000E+00  0.0000E+00  0.0000E+00
    -27.339  0.0000E+00  0.0000E+00  0.0000E+00  0.0000E+00  0.0000E+00  0.0000E+00  0.0000E+00  0.0000E+00  0.0000E+00  0.0000E+00  0.0000E+00  0.0000E+00  0.0000E+00  0.0000E+00  0.0000E+00  0.0000E+00  0.0000E+00  0.0000E+00
    -27.206  0.0000E+00  0.0000E+00  0.0000E+00  0.0000E+00  0.0000E+00  0.0000E+00  0.0000E+00  0.0000E+00  0.0000E+00  0.0000E+00  0.0000E+00  0.0000E+00  0.0000E+00  0.0000E+00  0.0000E+00  0.0000E+00  0.0000E+00  0.0000E+00
    -27.074  0.0000E+00  0.0000E+00  0.0000E+00  0.0000E+00  0.0000E+00  0.0000E+00  0.0000E+00  0.0000E+00  0.0000E+00  0.0000E+00  0.0000E+00  0.0000E+00  0.0000E+00  0.0000E+00  0.0000E+00  0.0000E+00  0.0000E+00  0.0000E+00
    -26.941  0.0000E+00  0.0000E+00  0.0000E+00  0.0000E+00  0.0000E+00  0.0000E+00  0.0000E+00  0.0000E+00  0.0000E+00  0.0000E+00  0.0000E+00  0.0000E+00  0.0000E+00  0.0000E+00  0.0000E+00  0.0000E+00  0.0000E+00  0.0000E+00
    -26.809  0.0000E+00  0.0000E+00  0.0000E+00  0.0000E+00  0.0000E+00  0.0000E+00  0.0000E+00  0.0000E+00  0.0000E+00  0.0000E+00  0.0000E+00  0.0000E+00  0.0000E+00  0.0000E+00  0.0000E+00  0.0000E+00  0.0000E+00  0.0000E+00
    -26.677  0.0000E+00  0.0000E+00  0.0000E+00  0.0000E+00  0.0000E+00  0.0000E+00  0.0000E+00  0.0000E+00  0.0000E+00  0.0000E+00  0.0000E+00  0.0000E+00  0.0000E+00  0.0000E+00  0.0000E+00  0.0000E+00  0.0000E+00  0.0000E+00
    -26.544  0.0000E+00  0.0000E+00  0.0000E+00  0.0000E+00  0.0000E+00  0.0000E+00  0.0000E+00  0.0000E+00  0.0000E+00  0.0000E+00  0.0000E+00  0.0000E+00  0.0000E+00  0.0000E+00  0.0000E+00  0.0000E+00  0.0000E+00  0.0000E+00
    -26.412  0.0000E+00  0.0000E+00  0.0000E+00  0.0000E+00  0.0000E+00  0.0000E+00  0.0000E+00  0.0000E+00  0.0000E+00  0.0000E+00  0.0000E+00  0.0000E+00  0.0000E+00  0.0000E+00  0.0000E+00  0.0000E+00  0.0000E+00  0.0000E+00
    -26.280  0.1097E-08  0.1106E-08  0.9603E-05  0.9676E-05  0.9603E-05  0.9676E-05  0.9603E-05  0.9676E-05  0.2652E-09  0.2680E-09  0.2652E-09  0.2680E-09  0.3208E-09  0.3231E-09  0.2652E-09  0.2680E-09  0.3208E-09  0.3231E-09
    -26.147  0.9017E-07  0.9086E-07  0.3659E-03  0.3687E-03  0.3659E-03  0.3687E-03  0.3659E-03  0.3687E-03  0.2344E-07  0.2364E-07  0.2344E-07  0.2364E-07  0.2461E-07  0.2484E-07  0.2344E-07  0.2364E-07  0.2461E-07  0.2484E-07
    -26.015  0.1267E-05  0.1277E-05  0.4995E-02  0.5033E-02  0.4995E-02  0.5033E-02  0.4995E-02  0.5033E-02  0.3227E-06  0.3256E-06  0.3227E-06  0.3256E-06  0.3295E-06  0.3325E-06  0.3227E-06  0.3256E-06  0.3295E-06  0.3325E-06
    -25.883  0.1712E-04  0.1725E-04  0.6564E-01  0.6611E-01  0.6564E-01  0.6611E-01  0.6564E-01  0.6611E-01  0.4347E-05  0.4384E-05  0.4347E-05  0.4384E-05  0.4407E-05  0.4445E-05  0.4347E-05  0.4384E-05  0.4407E-05  0.4445E-05
    -25.750  0.1667E-03  0.1676E-03  0.5282E+00  0.5306E+00  0.5282E+00  0.5306E+00  0.5282E+00  0.5306E+00  0.4018E-04  0.4042E-04  0.4018E-04  0.4042E-04  0.3815E-04  0.3839E-04  0.4018E-04  0.4042E-04  0.3815E-04  0.3839E-04
    -25.618  0.5477E-03  0.5484E-03  0.1300E+01  0.1301E+01  0.1300E+01  0.1301E+01  0.1300E+01  0.1301E+01  0.1253E-03  0.1257E-03  0.1253E-03  0.1257E-03  0.9800E-04  0.9820E-04  0.1253E-03  0.1257E-03  0.9800E-04  0.9820E-04
    -25.485  0.5133E-03  0.5127E-03  0.1549E+01  0.1551E+01  0.1549E+01  0.1551E+01  0.1549E+01  0.1551E+01  0.1918E-03  0.1921E-03  0.1918E-03  0.1921E-03  0.1159E-03  0.1161E-03  0.1918E-03  0.1921E-03  0.1159E-03  0.1161E-03
    -25.353  0.2757E-03  0.2750E-03  0.2270E+01  0.2271E+01  0.2270E+01  0.2271E+01  0.2270E+01  0.2271E+01  0.2039E-03  0.2038E-03  0.2039E-03  0.2038E-03  0.1647E-03  0.1647E-03  0.2039E-03  0.2038E-03  0.1647E-03  0.1647E-03
    -25.221  0.8115E-04  0.8077E-04  0.1456E+01  0.1452E+01  0.1456E+01  0.1452E+01  0.1456E+01  0.1452E+01  0.8481E-04  0.8445E-04  0.8481E-04  0.8445E-04  0.7334E-04  0.7301E-04  0.8481E-04  0.8445E-04  0.7334E-04  0.7301E-04
    -25.088  0.9161E-05  0.9096E-05  0.2412E+00  0.2396E+00  0.2412E+00  0.2396E+00  0.2412E+00  0.2396E+00  0.1092E-04  0.1084E-04  0.1092E-04  0.1084E-04  0.9005E-05  0.8940E-05  0.1092E-04  0.1084E-04  0.9005E-05  0.8940E-05
    -24.956  0.3388E-06  0.3362E-06  0.1463E-01  0.1399E-01  0.1463E-01  0.1399E-01  0.1463E-01  0.1399E-01  0.4079E-06  0.4029E-06  0.4079E-06  0.4029E-06  0.3753E-06  0.3294E-06  0.4079E-06  0.4029E-06  0.3753E-06  0.3294E-06
    -24.824  0.0000E+00  0.0000E+00  0.0000E+00  0.0000E+00  0.0000E+00  0.0000E+00  0.0000E+00  0.0000E+00  0.0000E+00  0.0000E+00  0.0000E+00  0.0000E+00  0.0000E+00  0.0000E+00  0.0000E+00  0.0000E+00  0.0000E+00  0.0000E+00
    -24.691  0.0000E+00  0.0000E+00  0.0000E+00  0.0000E+00  0.0000E+00  0.0000E+00  0.0000E+00  0.0000E+00  0.0000E+00  0.0000E+00  0.0000E+00  0.0000E+00  0.0000E+00  0.0000E+00  0.0000E+00  0.0000E+00  0.0000E+00  0.0000E+00
    -24.559  0.0000E+00  0.0000E+00  0.0000E+00  0.0000E+00  0.0000E+00  0.0000E+00  0.0000E+00  0.0000E+00  0.0000E+00  0.0000E+00  0.0000E+00  0.0000E+00  0.0000E+00  0.0000E+00  0.0000E+00  0.0000E+00  0.0000E+00  0.0000E+00
    -24.426  0.0000E+00  0.0000E+00  0.0000E+00  0.0000E+00  0.0000E+00  0.0000E+00  0.0000E+00  0.0000E+00  0.0000E+00  0.0000E+00  0.0000E+00  0.0000E+00  0.0000E+00  0.0000E+00  0.0000E+00  0.0000E+00  0.0000E+00  0.0000E+00
    -24.294  0.0000E+00  0.0000E+00  0.0000E+00  0.0000E+00  0.0000E+00  0.0000E+00  0.0000E+00  0.0000E+00  0.0000E+00  0.0000E+00  0.0000E+00  0.0000E+00  0.0000E+00  0.0000E+00  0.0000E+00  0.0000E+00  0.0000E+00  0.0000E+00
    -24.162  0.0000E+00  0.0000E+00  0.0000E+00  0.0000E+00  0.0000E+00  0.0000E+00  0.0000E+00  0.0000E+00  0.0000E+00  0.0000E+00  0.0000E+00  0.0000E+00  0.0000E+00  0.0000E+00  0.0000E+00  0.0000E+00  0.0000E+00  0.0000E+00
    -24.029  0.0000E+00  0.0000E+00  0.0000E+00  0.0000E+00  0.0000E+00  0.0000E+00  0.0000E+00  0.0000E+00  0.0000E+00  0.0000E+00  0.0000E+00  0.0000E+00  0.0000E+00  0.0000E+00  0.0000E+00  0.0000E+00  0.0000E+00  0.0000E+00
    -23.897  0.0000E+00  0.0000E+00  0.0000E+00  0.0000E+00  0.0000E+00  0.0000E+00  0.0000E+00  0.0000E+00  0.0000E+00  0.0000E+00  0.0000E+00  0.0000E+00  0.0000E+00  0.0000E+00  0.0000E+00  0.0000E+00  0.0000E+00  0.0000E+00
    -23.765  0.0000E+00  0.0000E+00  0.0000E+00  0.0000E+00  0.0000E+00  0.0000E+00  0.0000E+00  0.0000E+00  0.0000E+00  0.0000E+00  0.0000E+00  0.0000E+00  0.0000E+00  0.0000E+00  0.0000E+00  0.0000E+00  0.0000E+00  0.0000E+00
    -23.632  0.0000E+00  0.0000E+00  0.0000E+00  0.0000E+00  0.0000E+00  0.0000E+00  0.0000E+00  0.0000E+00  0.0000E+00  0.0000E+00  0.0000E+00  0.0000E+00  0.0000E+00  0.0000E+00  0.0000E+00  0.0000E+00  0.0000E+00  0.0000E+00
    -23.500  0.0000E+00  0.0000E+00  0.0000E+00  0.0000E+00  0.0000E+00  0.0000E+00  0.0000E+00  0.0000E+00  0.0000E+00  0.0000E+00  0.0000E+00  0.0000E+00  0.0000E+00  0.0000E+00  0.0000E+00  0.0000E+00  0.0000E+00  0.0000E+00
    -23.368  0.0000E+00  0.0000E+00  0.0000E+00  0.0000E+00  0.0000E+00  0.0000E+00  0.0000E+00  0.0000E+00  0.0000E+00  0.0000E+00  0.0000E+00  0.0000E+00  0.0000E+00  0.0000E+00  0.0000E+00  0.0000E+00  0.0000E+00  0.0000E+00
    -23.235  0.0000E+00  0.0000E+00  0.0000E+00  0.0000E+00  0.0000E+00  0.0000E+00  0.0000E+00  0.0000E+00  0.0000E+00  0.0000E+00  0.0000E+00  0.0000E+00  0.0000E+00  0.0000E+00  0.0000E+00  0.0000E+00  0.0000E+00  0.0000E+00
    -23.103  0.0000E+00  0.0000E+00  0.0000E+00  0.0000E+00  0.0000E+00  0.0000E+00  0.0000E+00  0.0000E+00  0.0000E+00  0.0000E+00  0.0000E+00  0.0000E+00  0.0000E+00  0.0000E+00  0.0000E+00  0.0000E+00  0.0000E+00  0.0000E+00
    -22.970  0.0000E+00  0.0000E+00  0.0000E+00  0.0000E+00  0.0000E+00  0.0000E+00  0.0000E+00  0.0000E+00  0.0000E+00  0.0000E+00  0.0000E+00  0.0000E+00  0.0000E+00  0.0000E+00  0.0000E+00  0.0000E+00  0.0000E+00  0.0000E+00
    -22.838  0.0000E+00  0.0000E+00  0.0000E+00  0.0000E+00  0.0000E+00  0.0000E+00  0.0000E+00  0.0000E+00  0.0000E+00  0.0000E+00  0.0000E+00  0.0000E+00  0.0000E+00  0.0000E+00  0.0000E+00  0.0000E+00  0.0000E+00  0.0000E+00
    -22.706  0.0000E+00  0.0000E+00  0.0000E+00  0.0000E+00  0.0000E+00  0.0000E+00  0.0000E+00  0.0000E+00  0.0000E+00  0.0000E+00  0.0000E+00  0.0000E+00  0.0000E+00  0.0000E+00  0.0000E+00  0.0000E+00  0.0000E+00  0.0000E+00
    -22.573  0.0000E+00  0.0000E+00  0.0000E+00  0.0000E+00  0.0000E+00  0.0000E+00  0.0000E+00  0.0000E+00  0.0000E+00  0.0000E+00  0.0000E+00  0.0000E+00  0.0000E+00  0.0000E+00  0.0000E+00  0.0000E+00  0.0000E+00  0.0000E+00
    -22.441  0.0000E+00  0.0000E+00  0.0000E+00  0.0000E+00  0.0000E+00  0.0000E+00  0.0000E+00  0.0000E+00  0.0000E+00  0.0000E+00  0.0000E+00  0.0000E+00  0.0000E+00  0.0000E+00  0.0000E+00  0.0000E+00  0.0000E+00  0.0000E+00
    -22.309  0.0000E+00  0.0000E+00  0.0000E+00  0.0000E+00  0.0000E+00  0.0000E+00  0.0000E+00  0.0000E+00  0.0000E+00  0.0000E+00  0.0000E+00  0.0000E+00  0.0000E+00  0.0000E+00  0.0000E+00  0.0000E+00  0.0000E+00  0.0000E+00
    -22.176  0.0000E+00  0.0000E+00  0.0000E+00  0.0000E+00  0.0000E+00  0.0000E+00  0.0000E+00  0.0000E+00  0.0000E+00  0.0000E+00  0.0000E+00  0.0000E+00  0.0000E+00  0.0000E+00  0.0000E+00  0.0000E+00  0.0000E+00  0.0000E+00
    -22.044  0.0000E+00  0.0000E+00  0.0000E+00  0.0000E+00  0.0000E+00  0.0000E+00  0.0000E+00  0.0000E+00  0.0000E+00  0.0000E+00  0.0000E+00  0.0000E+00  0.0000E+00  0.0000E+00  0.0000E+00  0.0000E+00  0.0000E+00  0.0000E+00
    -21.911  0.0000E+00  0.0000E+00  0.0000E+00  0.0000E+00  0.0000E+00  0.0000E+00  0.0000E+00  0.0000E+00  0.0000E+00  0.0000E+00  0.0000E+00  0.0000E+00  0.0000E+00  0.0000E+00  0.0000E+00  0.0000E+00  0.0000E+00  0.0000E+00
    -21.779  0.0000E+00  0.0000E+00  0.0000E+00  0.0000E+00  0.0000E+00  0.0000E+00  0.0000E+00  0.0000E+00  0.0000E+00  0.0000E+00  0.0000E+00  0.0000E+00  0.0000E+00  0.0000E+00  0.0000E+00  0.0000E+00  0.0000E+00  0.0000E+00
    -21.647  0.0000E+00  0.0000E+00  0.0000E+00  0.0000E+00  0.0000E+00  0.0000E+00  0.0000E+00  0.0000E+00  0.0000E+00  0.0000E+00  0.0000E+00  0.0000E+00  0.0000E+00  0.0000E+00  0.0000E+00  0.0000E+00  0.0000E+00  0.0000E+00
    -21.514  0.0000E+00  0.0000E+00  0.0000E+00  0.0000E+00  0.0000E+00  0.0000E+00  0.0000E+00  0.0000E+00  0.0000E+00  0.0000E+00  0.0000E+00  0.0000E+00  0.0000E+00  0.0000E+00  0.0000E+00  0.0000E+00  0.0000E+00  0.0000E+00
    -21.382  0.0000E+00  0.0000E+00  0.0000E+00  0.0000E+00  0.0000E+00  0.0000E+00  0.0000E+00  0.0000E+00  0.0000E+00  0.0000E+00  0.0000E+00  0.0000E+00  0.0000E+00  0.0000E+00  0.0000E+00  0.0000E+00  0.0000E+00  0.0000E+00
    -21.250  0.0000E+00  0.0000E+00  0.0000E+00  0.0000E+00  0.0000E+00  0.0000E+00  0.0000E+00  0.0000E+00  0.0000E+00  0.0000E+00  0.0000E+00  0.0000E+00  0.0000E+00  0.0000E+00  0.0000E+00  0.0000E+00  0.0000E+00  0.0000E+00
    -21.117  0.0000E+00  0.0000E+00  0.0000E+00  0.0000E+00  0.0000E+00  0.0000E+00  0.0000E+00  0.0000E+00  0.0000E+00  0.0000E+00  0.0000E+00  0.0000E+00  0.0000E+00  0.0000E+00  0.0000E+00  0.0000E+00  0.0000E+00  0.0000E+00
    -20.985  0.0000E+00  0.0000E+00  0.0000E+00  0.0000E+00  0.0000E+00  0.0000E+00  0.0000E+00  0.0000E+00  0.0000E+00  0.0000E+00  0.0000E+00  0.0000E+00  0.0000E+00  0.0000E+00  0.0000E+00  0.0000E+00  0.0000E+00  0.0000E+00