   8   8   1   0
  0.1108931E+02  0.4459965E-09  0.4459965E-09  0.4459965E-09  0.5000000E-15
  1.000000000000000E-004
  CAR 
 unknown system                          
     13.67789186    -26.47296856  301      7.91414344      1.00000000
    -26.473  0.0000E+00  0.0000E+00  0.0000E+00  0.0000E+00
    -26.339  0.0000E+00  0.0000E+00  0.0000E+00  0.0000E+00
    -26.205  0.0000E+00  0.0000E+00  0.0000E+00  0.0000E+00
    -26.071  0.0000E+00  0.0000E+00  0.0000E+00  0.0000E+00
    -25.938  0.0000E+00  0.0000E+00  0.0000E+00  0.0000E+00
    -25.804  0.0000E+00  0.0000E+00  0.0000E+00  0.0000E+00
    -25.670  0.0000E+00  0.0000E+00  0.0000E+00  0.0000E+00
    -25.536  0.0000E+00  0.0000E+00  0.0000E+00  0.0000E+00
    -25.402  0.0000E+00  0.0000E+00  0.0000E+00  0.0000E+00
    -25.268  0.0000E+00  0.0000E+00  0.0000E+00  0.0000E+00
    -25.135  0.9760E-04  0.9781E-04  0.1306E-04  0.1309E-04
    -25.001  0.2299E-02  0.2304E-02  0.3208E-03  0.3215E-03
    -24.867  0.3367E-01  0.3374E-01  0.4827E-02  0.4837E-02
    -24.733  0.4454E+00  0.4462E+00  0.6443E-01  0.6456E-01
    -24.599  0.3467E+01  0.3471E+01  0.5284E+00  0.5291E+00
    -24.465  0.1069E+02  0.1069E+02  0.1959E+01  0.1960E+01
    -24.332  0.1112E+02  0.1111E+02  0.3447E+01  0.3448E+01
    -24.198  0.1020E+02  0.1020E+02  0.4813E+01  0.4814E+01
    -24.064  0.1642E+02  0.1643E+02  0.7014E+01  0.7017E+01
    -23.930  0.2134E+02  0.2134E+02  0.9872E+01  0.9874E+01
    -23.796  0.1320E+02  0.1319E+02  0.1164E+02  0.1164E+02
    -23.662  0.2441E+01  0.2437E+01  0.1197E+02  0.1197E+02
    -23.529  0.1506E+00  0.1502E+00  0.1200E+02  0.1200E+02
    -23.395  0.0000E+00  0.0000E+00  0.1200E+02  0.1200E+02
    -23.261  0.0000E+00  0.0000E+00  0.1200E+02  0.1200E+02
    -23.127  0.0000E+00  0.0000E+00  0.1200E+02  0.1200E+02
    -22.993  0.0000E+00  0.0000E+00  0.1200E+02  0.1200E+02
    -22.859  0.0000E+00  0.0000E+00  0.1200E+02  0.1200E+02
    -22.726  0.0000E+00  0.0000E+00  0.1200E+02  0.1200E+02
    -22.592  0.0000E+00  0.0000E+00  0.1200E+02  0.1200E+02
    -22.458  0.0000E+00  0.0000E+00  0.1200E+02  0.1200E+02
    -22.324  0.0000E+00  0.0000E+00  0.1200E+02  0.1200E+02
    -22.190  0.0000E+00  0.0000E+00  0.1200E+02  0.1200E+02
    -22.056  0.0000E+00  0.0000E+00  0.1200E+02  0.1200E+02
    -21.923  0.0000E+00  0.0000E+00  0.1200E+02  0.1200E+02
    -21.789  0.0000E+00  0.0000E+00  0.1200E+02  0.1200E+02
    -21.655  0.0000E+00  0.0000E+00  0.1200E+02  0.1200E+02
    -21.521  0.0000E+00  0.0000E+00  0.1200E+02  0.1200E+02
    -21.387  0.0000E+00  0.0000E+00  0.1200E+02  0.1200E+02
    -21.253  0.0000E+00  0.0000E+00  0.1200E+02  0.1200E+02
    -21.120  0.0000E+00  0.0000E+00  0.1200E+02  0.1200E+02
    -20.986  0.0000E+00  0.0000E+00  0.1200E+02  0.1200E+02
    -20.852  0.0000E+00  0.0000E+00  0.1200E+02  0.1200E+02
    -20.718  0.0000E+00  0.0000E+00  0.1200E+02  0.1200E+02
    -20.584  0.0000E+00  0.0000E+00  0.1200E+02  0.1200E+02
    -20.450  0.0000E+00  0.0000E+00  0.1200E+02  0.1200E+02
    -20.317  0.0000E+00  0.0000E+00  0.1200E+02  0.1200E+02
    -20.183  0.0000E+00  0.0000E+00  0.1200E+02  0.1200E+02
    -20.049  0.0000E+00  0.0000E+00  0.1200E+02  0.1200E+02
    -19.915  0.0000E+00  0.0000E+00  0.1200E+02  0.1200E+02
    -19.781  0.0000E+00  0.0000E+00  0.1200E+02  0.1200E+02
    -19.647  0.0000E+00  0.0000E+00  0.1200E+02  0.1200E+02
    -19.513  0.0000E+00  0.0000E+00  0.1200E+02  0.1200E+02
    -19.380  0.0000E+00  0.0000E+00  0.1200E+02  0.1200E+02
    -19.246  0.0000E+00  0.0000E+00  0.1200E+02  0.1200E+02
    -19.112  0.0000E+00  0.0000E+00  0.1200E+02  0.1200E+02
    -18.978  0.0000E+00  0.0000E+00  0.1200E+02  0.1200E+02
    -18.844  0.0000E+00  0.0000E+00  0.1200E+02  0.1200E+02
    -18.710  0.0000E+00  0.0000E+00  0.1200E+02  0.1200E+02
    -18.577  0.0000E+00  0.0000E+00  0.1200E+02  0.1200E+02
    -18.443  0.0000E+00  0.0000E+00  0.1200E+02  0.1200E+02
    -18.309  0.0000E+00  0.0000E+00  0.1200E+02  0.1200E+02
    -18.175  0.0000E+00  0.0000E+00  0.1200E+02  0.1200E+02
    -18.041  0.0000E+00  0.0000E+00  0.1200E+02  0.1200E+02
    -17.907  0.0000E+00  0.0000E+00  0.1200E+02  0.1200E+02
    -17.774  0.0000E+00  0.0000E+00  0.1200E+02  0.1200E+02
    -17.640  0.0000E+00  0.0000E+00  0.1200E+02  0.1200E+02
    -17.506  0.0000E+00  0.0000E+00  0.1200E+02  0.1200E+02
    -17.372  0.0000E+00  0.0000E+00  0.1200E+02  0.1200E+02
    -17.238  0.0000E+00  0.0000E+00  0.1200E+02  0.1200E+02
    -17.104  0.0000E+00  0.0000E+00  0.1200E+02  0.1200E+02
    -16.971  0.0000E+00  0.0000E+00  0.1200E+02  0.1200E+02
    -16.837  0.0000E+00  0.0000E+00  0.1200E+02  0.1200E+02
    -16.703  0.0000E+00  0.0000E+00  0.1200E+02  0.1200E+02
    -16.569  0.0000E+00  0.0000E+00  0.1200E+02  0.1200E+02
    -16.435  0.0000E+00  0.0000E+00  0.1200E+02  0.1200E+02
    -16.301  0.0000E+00  0.0000E+00  0.1200E+02  0.1200E+02
    -16.168  0.0000E+00  0.0000E+00  0.1200E+02  0.1200E+02
    -16.034  0.0000E+00  0.0000E+00  0.1200E+02  0.1200E+02
    -15.900  0.0000E+00  0.0000E+00  0.1200E+02  0.1200E+02
    -15.766  0.0000E+00  0.0000E+00  0.1200E+02  0.1200E+02
    -15.632  0.0000E+00  0.0000E+00  0.1200E+02  0.1200E+02
    -15.498  0.0000E+00  0.0000E+00  0.1200E+02  0.1200E+02
    -15.365  0.0000E+00  0.0000E+00  0.1200E+02  0.1200E+02
    -15.231  0.0000E+00  0.0000E+00  0.1200E+02  0.1200E+02
    -15.097  0.0000E+00  0.0000E+00  0.1200E+02  0.1200E+02
    -14.963  0.0000E+00  0.0000E+00  0.1200E+02  0.1200E+02
    -14.829  0.0000E+00  0.0000E+00  0.1200E+02  0.1200E+02
    -14.695  0.0000E+00  0.0000E+00  0.1200E+02  0.1200E+02
    -14.562  0.0000E+00  0.0000E+00  0.1200E+02  0.1200E+02
    -14.428  0.0000E+00  0.0000E+00  0.1200E+02  0.1200E+02
    -14.294  0.0000E+00  0.0000E+00  0.1200E+02  0.1200E+02
    -14.160  0.0000E+00  0.0000E+00  0.1200E+02  0.1200E+02
    -14.026  0.0000E+00  0.0000E+00  0.1200E+02  0.1200E+02
    -13.892  0.0000E+00  0.0000E+00  0.1200E+02  0.1200E+02
    -13.759  0.0000E+00  0.0000E+00  0.1200E+02  0.1200E+02
    -13.625  0.0000E+00  0.0000E+00  0.1200E+02  0.1200E+02
    -13.491  0.0000E+00  0.0000E+00  0.1200E+02  0.1200E+02
    -13.357  0.0000E+00  0.0000E+00  0.1200E+02  0.1200E+02
    -13.223  0.0000E+00  0.0000E+00  0.1200E+02  0.1200E+02
    -13.089  0.0000E+00  0.0000E+00  0.1200E+02  0.1200E+02
    -12.956  0.0000E+00  0.0000E+00  0.1200E+02  0.1200E+02
    -12.822  0.0000E+00  0.0000E+00  0.1200E+02  0.1200E+02
    -12.688  0.0000E+00  0.0000E+00  0.1200E+02  0.1200E+02
    -12.554  0.0000E+00  0.0000E+00  0.1200E+02  0.1200E+02
    -12.420  0.0000E+00  0.0000E+00  0.1200E+02  0.1200E+02
    -12.286  0.0000E+00  0.0000E+00  0.1200E+02  0.1200E+02
    -12.152  0.0000E+00  0.0000E+00  0.1200E+02  0.1200E+02
    -12.019  0.0000E+00  0.0000E+00  0.1200E+02  0.1200E+02
    -11.885  0.0000E+00  0.0000E+00  0.1200E+02  0.1200E+02
    -11.751  0.0000E+00  0.0000E+00  0.1200E+02  0.1200E+02
    -11.617  0.0000E+00  0.0000E+00  0.1200E+02  0.1200E+02
    -11.483  0.0000E+00  0.0000E+00  0.1200E+02  0.1200E+02
    -11.349  0.0000E+00  0.0000E+00  0.1200E+02  0.1200E+02
    -11.216  0.0000E+00  0.0000E+00  0.1200E+02  0.1200E+02
    -11.082  0.0000E+00  0.0000E+00  0.1200E+02  0.1200E+02
    -10.948  0.0000E+00  0.0000E+00  0.1200E+02  0.1200E+02
    -10.814  0.0000E+00  0.0000E+00  0.1200E+02  0.1200E+02
    -10.680  0.0000E+00  0.0000E+00  0.1200E+02  0.1200E+02
    -10.546  0.0000E+00  0.0000E+00  0.1200E+02  0.1200E+02
    -10.413  0.0000E+00  0.0000E+00  0.1200E+02  0.1200E+02
    -10.279  0.0000E+00  0.0000E+00  0.1200E+02  0.1200E+02
    -10.145  0.0000E+00  0.0000E+00  0.1200E+02  0.1200E+02
    -10.011  0.0000E+00  0.0000E+00  0.1200E+02  0.1200E+02
     -9.877  0.0000E+00  0.0000E+00  0.1200E+02  0.1200E+02
     -9.743  0.0000E+00  0.0000E+00  0.1200E+02  0.1200E+02
     -9.610  0.0000E+00  0.0000E+00  0.1200E+02  0.1200E+02
     -9.476  0.0000E+00  0.0000E+00  0.1200E+02  0.1200E+02
     -9.342  0.0000E+00  0.0000E+00  0.1200E+02  0.1200E+02
     -9.208  0.0000E+00  0.0000E+00  0.1200E+02  0.1200E+02
     -9.074  0.0000E+00  0.0000E+00  0.1200E+02  0.1200E+02
     -8.940  0.0000E+00  0.0000E+00  0.1200E+02  0.1200E+02
     -8.807  0.0000E+00  0.0000E+00  0.1200E+02  0.1200E+02
     -8.673  0.0000E+00  0.0000E+00  0.1200E+02  0.1200E+02
     -8.539  0.0000E+00  0.0000E+00  0.1200E+02  0.1200E+02
     -8.405  0.0000E+00  0.0000E+00  0.1200E+02  0.1200E+02
     -8.271  0.0000E+00  0.0000E+00  0.1200E+02  0.1200E+02
     -8.137  0.0000E+00  0.0000E+00  0.1200E+02  0.1200E+02
     -8.004  0.0000E+00  0.0000E+00  0.1200E+02  0.1200E+02
     -7.870  0.0000E+00  0.0000E+00  0.1200E+02  0.1200E+02
     -7.736  0.0000E+00  0.0000E+00  0.1200E+02  0.1200E+02
     -7.602  0.0000E+00  0.0000E+00  0.1200E+02  0.1200E+02
     -7.468  0.0000E+00  0.0000E+00  0.1200E+02  0.1200E+02
     -7.334  0.0000E+00  0.0000E+00  0.1200E+02  0.1200E+02
     -7.201  0.0000E+00  0.0000E+00  0.1200E+02  0.1200E+02
     -7.067  0.0000E+00  0.0000E+00  0.1200E+02  0.1200E+02
     -6.933  0.0000E+00  0.0000E+00  0.1200E+02  0.1200E+02
     -6.799  0.0000E+00  0.0000E+00  0.1200E+02  0.1200E+02
     -6.665  0.0000E+00  0.0000E+00  0.1200E+02  0.1200E+02
     -6.531  0.0000E+00  0.0000E+00  0.1200E+02  0.1200E+02
     -6.398  0.2957E-05  0.2952E-05  0.1200E+02  0.1200E+02
     -6.264  0.4000E-04  0.3993E-04  0.1200E+02  0.1200E+02
     -6.130  0.5755E-03  0.5745E-03  0.1200E+02  0.1200E+02
     -5.996  0.7338E-02  0.7327E-02  0.1200E+02  0.1200E+02
     -5.862  0.3421E-01  0.3420E-01  0.1201E+02  0.1201E+02
     -5.728  0.3009E-01  0.3009E-01  0.1201E+02  0.1201E+02
     -5.595  0.1227E+00  0.1226E+00  0.1203E+02  0.1203E+02
     -5.461  0.1960E+00  0.1961E+00  0.1205E+02  0.1205E+02
     -5.327  0.1421E+00  0.1420E+00  0.1207E+02  0.1207E+02
     -5.193  0.4185E+00  0.4184E+00  0.1213E+02  0.1213E+02
     -5.059  0.2031E+00  0.2033E+00  0.1215E+02  0.1215E+02
     -4.925  0.2593E+00  0.2591E+00  0.1219E+02  0.1219E+02
     -4.792  0.3689E+00  0.3690E+00  0.1224E+02  0.1224E+02
     -4.658  0.2360E+00  0.2360E+00  0.1227E+02  0.1227E+02
     -4.524  0.5890E+00  0.5883E+00  0.1235E+02  0.1235E+02
     -4.390  0.1160E+01  0.1160E+01  0.1250E+02  0.1250E+02
     -4.256  0.1303E+01  0.1303E+01  0.1268E+02  0.1268E+02
     -4.122  0.2100E+01  0.2099E+01  0.1296E+02  0.1296E+02
     -3.988  0.2076E+01  0.2077E+01  0.1324E+02  0.1324E+02
     -3.855  0.1949E+01  0.1949E+01  0.1350E+02  0.1350E+02
     -3.721  0.2195E+01  0.2195E+01  0.1379E+02  0.1379E+02
     -3.587  0.2497E+01  0.2497E+01  0.1413E+02  0.1413E+02
     -3.453  0.2650E+01  0.2650E+01  0.1449E+02  0.1448E+02
     -3.319  0.3056E+01  0.3056E+01  0.1489E+02  0.1489E+02
     -3.185  0.1766E+01  0.1767E+01  0.1513E+02  0.1513E+02
     -3.052  0.2083E+01  0.2083E+01  0.1541E+02  0.1541E+02
     -2.918  0.1601E+01  0.1602E+01  0.1563E+02  0.1563E+02
     -2.784  0.1049E+01  0.1050E+01  0.1577E+02  0.1577E+02
     -2.650  0.3167E+00  0.3171E+00  0.1581E+02  0.1581E+02
     -2.516  0.4339E+00  0.4332E+00  0.1587E+02  0.1587E+02
     -2.382  0.7965E+00  0.7970E+00  0.1597E+02  0.1597E+02
     -2.249  0.1726E+00  0.1730E+00  0.1600E+02  0.1600E+02
     -2.115  0.1364E-01  0.1368E-01  0.1600E+02  0.1600E+02
     -1.981  0.0000E+00  0.0000E+00  0.1600E+02  0.1600E+02
     -1.847  0.0000E+00  0.0000E+00  0.1600E+02  0.1600E+02
     -1.713  0.0000E+00  0.0000E+00  0.1600E+02  0.1600E+02
     -1.579  0.0000E+00  0.0000E+00  0.1600E+02  0.1600E+02
     -1.446  0.0000E+00  0.0000E+00  0.1600E+02  0.1600E+02
     -1.312  0.0000E+00  0.0000E+00  0.1600E+02  0.1600E+02
     -1.178  0.0000E+00  0.0000E+00  0.1600E+02  0.1600E+02
     -1.044  0.0000E+00  0.0000E+00  0.1600E+02  0.1600E+02
     -0.910  0.0000E+00  0.0000E+00  0.1600E+02  0.1600E+02
     -0.776  0.0000E+00  0.0000E+00  0.1600E+02  0.1600E+02
     -0.643  0.0000E+00  0.0000E+00  0.1600E+02  0.1600E+02
     -0.509  0.0000E+00  0.0000E+00  0.1600E+02  0.1600E+02
     -0.375  0.0000E+00  0.0000E+00  0.1600E+02  0.1600E+02
     -0.241  0.0000E+00  0.0000E+00  0.1600E+02  0.1600E+02
     -0.107  0.9690E-04  0.9689E-04  0.1600E+02  0.1600E+02
      0.027  0.1311E-02  0.1310E-02  0.1600E+02  0.1600E+02
      0.160  0.1878E-01  0.1878E-01  0.1600E+02  0.1600E+02
      0.294  0.2264E+00  0.2264E+00  0.1603E+02  0.1603E+02
      0.428  0.8315E+00  0.8315E+00  0.1614E+02  0.1614E+02
      0.562  0.3336E+00  0.3336E+00  0.1619E+02  0.1619E+02
      0.696  0.1287E+00  0.1286E+00  0.1621E+02  0.1621E+02
      0.830  0.3944E+00  0.3943E+00  0.1626E+02  0.1626E+02
      0.963  0.9587E+00  0.9586E+00  0.1639E+02  0.1639E+02
      1.097  0.1919E+01  0.1919E+01  0.1664E+02  0.1664E+02
      1.231  0.1291E+01  0.1291E+01  0.1682E+02  0.1682E+02
      1.365  0.5829E+00  0.5829E+00  0.1690E+02  0.1690E+02
      1.499  0.1303E+01  0.1302E+01  0.1707E+02  0.1707E+02
      1.633  0.2178E+01  0.2178E+01  0.1736E+02  0.1736E+02
      1.766  0.2859E+01  0.2859E+01  0.1775E+02  0.1775E+02
      1.900  0.1305E+01  0.1305E+01  0.1792E+02  0.1792E+02
      2.034  0.1384E+01  0.1384E+01  0.1811E+02  0.1811E+02
      2.168  0.1404E+01  0.1404E+01  0.1830E+02  0.1830E+02
      2.302  0.2207E+01  0.2207E+01  0.1859E+02  0.1859E+02
      2.436  0.2295E+01  0.2295E+01  0.1890E+02  0.1890E+02
      2.569  0.1613E+01  0.1613E+01  0.1912E+02  0.1912E+02
      2.703  0.3204E+01  0.3204E+01  0.1954E+02  0.1954E+02
      2.837  0.3511E+01  0.3511E+01  0.2002E+02  0.2002E+02
      2.971  0.5080E+01  0.5080E+01  0.2070E+02  0.2070E+02
      3.105  0.5154E+01  0.5154E+01  0.2139E+02  0.2139E+02
      3.239  0.8744E+01  0.8744E+01  0.2256E+02  0.2256E+02
      3.373  0.8628E+01  0.8629E+01  0.2371E+02  0.2371E+02
      3.506  0.5921E+01  0.5920E+01  0.2451E+02  0.2451E+02
      3.640  0.4803E+01  0.4804E+01  0.2515E+02  0.2515E+02
      3.774  0.2499E+01  0.2500E+01  0.2549E+02  0.2549E+02
      3.908  0.9441E+00  0.9440E+00  0.2562E+02  0.2562E+02
      4.042  0.9064E+00  0.9060E+00  0.2574E+02  0.2574E+02
      4.176  0.2020E+01  0.2020E+01  0.2601E+02  0.2601E+02
      4.309  0.2322E+01  0.2322E+01  0.2632E+02  0.2632E+02
      4.443  0.3193E+01  0.3192E+01  0.2675E+02  0.2675E+02
      4.577  0.2195E+01  0.2195E+01  0.2704E+02  0.2704E+02
      4.711  0.1227E+01  0.1226E+01  0.2721E+02  0.2721E+02
      4.845  0.1627E+01  0.1627E+01  0.2742E+02  0.2742E+02
      4.979  0.1444E+01  0.1445E+01  0.2762E+02  0.2762E+02
      5.112  0.5580E+00  0.5582E+00  0.2769E+02  0.2769E+02
      5.246  0.1321E+00  0.1320E+00  0.2771E+02  0.2771E+02
      5.380  0.3862E-01  0.3858E-01  0.2772E+02  0.2772E+02
      5.514  0.2645E+00  0.2644E+00  0.2775E+02  0.2775E+02
      5.648  0.5819E+00  0.5818E+00  0.2783E+02  0.2783E+02
      5.782  0.6286E+00  0.6288E+00  0.2791E+02  0.2791E+02
      5.915  0.6691E+00  0.6693E+00  0.2800E+02  0.2800E+02
      6.049  0.4280E+00  0.4277E+00  0.2806E+02  0.2806E+02
      6.183  0.4730E+00  0.4729E+00  0.2812E+02  0.2812E+02
      6.317  0.3122E+00  0.3124E+00  0.2817E+02  0.2817E+02
      6.451  0.3933E+00  0.3932E+00  0.2822E+02  0.2822E+02
      6.585  0.9567E+00  0.9570E+00  0.2835E+02  0.2835E+02
      6.718  0.2062E+01  0.2063E+01  0.2862E+02  0.2862E+02
      6.852  0.2301E+01  0.2300E+01  0.2893E+02  0.2893E+02
      6.986  0.2829E+01  0.2829E+01  0.2931E+02  0.2931E+02
      7.120  0.1372E+01  0.1372E+01  0.2949E+02  0.2949E+02
      7.254  0.9987E+00  0.9988E+00  0.2963E+02  0.2963E+02
      7.388  0.5112E+00  0.5114E+00  0.2970E+02  0.2970E+02
      7.521  0.6015E+00  0.6012E+00  0.2978E+02  0.2978E+02
      7.655  0.3322E+00  0.3323E+00  0.2982E+02  0.2982E+02
      7.789  0.7404E+00  0.7409E+00  0.2992E+02  0.2992E+02
      7.923  0.6169E+00  0.6167E+00  0.3000E+02  0.3000E+02
      8.057  0.7557E+00  0.7573E+00  0.3010E+02  0.3011E+02
      8.191  0.1809E+01  0.1812E+01  0.3035E+02  0.3035E+02
      8.324  0.5200E+01  0.5205E+01  0.3104E+02  0.3104E+02
      8.458  0.4472E+01  0.4464E+01  0.3164E+02  0.3164E+02
      8.592  0.1645E+01  0.1644E+01  0.3186E+02  0.3186E+02
      8.726  0.1345E+01  0.1351E+01  0.3205E+02  0.3205E+02
      8.860  0.1921E+01  0.1923E+01  0.3230E+02  0.3230E+02
      8.994  0.1229E+01  0.1221E+01  0.3247E+02  0.3247E+02
      9.127  0.1910E+01  0.1907E+01  0.3272E+02  0.3272E+02
      9.261  0.2639E+01  0.2636E+01  0.3308E+02  0.3308E+02
      9.395  0.1710E+01  0.1714E+01  0.3331E+02  0.3331E+02
      9.529  0.1531E+01  0.1525E+01  0.3351E+02  0.3351E+02
      9.663  0.2493E+01  0.2453E+01  0.3385E+02  0.3384E+02
      9.797  0.5510E+01  0.5629E+01  0.3458E+02  0.3459E+02
      9.930  0.7990E+01  0.8021E+01  0.3565E+02  0.3567E+02
     10.064  0.3669E+01  0.3590E+01  0.3614E+02  0.3615E+02
     10.198  0.2002E+01  0.1998E+01  0.3641E+02  0.3642E+02
     10.332  0.1528E+01  0.1359E+01  0.3662E+02  0.3660E+02
     10.466  0.1792E+01  0.1450E+01  0.3686E+02  0.3680E+02
     10.600  0.1478E+01  0.1778E+01  0.3706E+02  0.3704E+02
     10.733  0.2938E+01  0.3408E+01  0.3745E+02  0.3749E+02
     10.867  0.6186E+01  0.6255E+01  0.3828E+02  0.3833E+02
     11.001  0.5283E+01  0.5502E+01  0.3899E+02  0.3907E+02
     11.135  0.3443E+01  0.3943E+01  0.3945E+02  0.3959E+02
     11.269  0.2267E+01  0.1584E+01  0.3976E+02  0.3981E+02
     11.403  0.6485E+00  0.5793E+00  0.3984E+02  0.3989E+02
     11.537  0.4815E+00  0.3164E+00  0.3991E+02  0.3993E+02
     11.670  0.5030E+00  0.5128E-01  0.3998E+02  0.3994E+02
     11.804  0.1608E+00  0.1190E+00  0.4000E+02  0.3995E+02
     11.938  0.1348E-01  0.2734E+00  0.4000E+02  0.3999E+02
     12.072  0.0000E+00  0.6774E-01  0.4000E+02  0.4000E+02
     12.206  0.0000E+00  0.5503E-02  0.4000E+02  0.4000E+02
     12.340  0.0000E+00  0.0000E+00  0.4000E+02  0.4000E+02
     12.473  0.0000E+00  0.0000E+00  0.4000E+02  0.4000E+02
     12.607  0.0000E+00  0.0000E+00  0.4000E+02  0.4000E+02
     12.741  0.0000E+00  0.0000E+00  0.4000E+02  0.4000E+02
     12.875  0.0000E+00  0.0000E+00  0.4000E+02  0.4000E+02
     13.009  0.0000E+00  0.0000E+00  0.4000E+02  0.4000E+02
     13.143  0.0000E+00  0.0000E+00  0.4000E+02  0.4000E+02
     13.276  0.0000E+00  0.0000E+00  0.4000E+02  0.4000E+02
     13.410  0.0000E+00  0.0000E+00  0.4000E+02  0.4000E+02
     13.544  0.0000E+00  0.0000E+00  0.4000E+02  0.4000E+02
     13.678  0.0000E+00  0.0000E+00  0.4000E+02  0.4000E+02
     13.67789186    -26.47296856  301      7.91414344      1.00000000
    -26.473  0.0000E+00  0.0000E+00  0.0000E+00  0.0000E+00  0.0000E+00  0.0000E+00  0.0000E+00  0.0000E+00  0.0000E+00  0.0000E+00  0.0000E+00  0.0000E+00  0.0000E+00  0.0000E+00  0.0000E+00  0.0000E+00  0.0000E+00  0.0000E+00
    -26.339  0.0000E+00  0.0000E+00  0.0000E+00  0.0000E+00  0.0000E+00  0.0000E+00  0.0000E+00  0.0000E+00  0.0000E+00  0.0000E+00  0.0000E+00  0.0000E+00  0.0000E+00  0.0000E+00  0.0000E+00  0.0000E+00  0.0000E+00  0.0000E+00
    -26.205  0.0000E+00  0.0000E+00  0.0000E+00  0.0000E+00  0.0000E+00  0.0000E+00  0.0000E+00  0.0000E+00  0.0000E+00  0.0000E+00  0.0000E+00  0.0000E+00  0.0000E+00  0.0000E+00  0.0000E+00  0.0000E+00  0.0000E+00  0.0000E+00
    -26.071  0.0000E+00  0.0000E+00  0.0000E+00  0.0000E+00  0.0000E+00  0.0000E+00  0.0000E+00  0.0000E+00  0.0000E+00  0.0000E+00  0.0000E+00  0.0000E+00  0.0000E+00  0.0000E+00  0.0000E+00  0.0000E+00  0.0000E+00  0.0000E+00
    -25.938  0.0000E+00  0.0000E+00  0.0000E+00  0.0000E+00  0.0000E+00  0.0000E+00  0.0000E+00  0.0000E+00  0.0000E+00  0.0000E+00  0.0000E+00  0.0000E+00  0.0000E+00  0.0000E+00  0.0000E+00  0.0000E+00  0.0000E+00  0.0000E+00
    -25.804  0.0000E+00  0.0000E+00  0.0000E+00  0.0000E+00  0.0000E+00  0.0000E+00  0.0000E+00  0.0000E+00  0.0000E+00  0.0000E+00  0.0000E+00  0.0000E+00  0.0000E+00  0.0000E+00  0.0000E+00  0.0000E+00  0.0000E+00  0.0000E+00
    -25.670  0.0000E+00  0.0000E+00  0.0000E+00  0.0000E+00  0.0000E+00  0.0000E+00  0.0000E+00  0.0000E+00  0.0000E+00  0.0000E+00  0.0000E+00  0.0000E+00  0.0000E+00  0.0000E+00  0.0000E+00  0.0000E+00  0.0000E+00  0.0000E+00
    -25.536  0.0000E+00  0.0000E+00  0.0000E+00  0.0000E+00  0.0000E+00  0.0000E+00  0.0000E+00  0.0000E+00  0.0000E+00  0.0000E+00  0.0000E+00  0.0000E+00  0.0000E+00  0.0000E+00  0.0000E+00  0.0000E+00  0.0000E+00  0.0000E+00
    -25.402  0.0000E+00  0.0000E+00  0.0000E+00  0.0000E+00  0.0000E+00  0.0000E+00  0.0000E+00  0.0000E+00  0.0000E+00  0.0000E+00  0.0000E+00  0.0000E+00  0.0000E+00  0.0000E+00  0.0000E+00  0.0000E+00  0.0000E+00  0.0000E+00
    -25.268  0.0000E+00  0.0000E+00  0.0000E+00  0.0000E+00  0.0000E+00  0.0000E+00  0.0000E+00  0.0000E+00  0.0000E+00  0.0000E+00  0.0000E+00  0.0000E+00  0.0000E+00  0.0000E+00  0.0000E+00  0.0000E+00  0.0000E+00  0.0000E+00
    -25.135  0.1989E-08  0.1994E-08  0.7836E-05  0.7852E-05  0.7836E-05  0.7852E-05  0.7836E-05  0.7852E-05  0.5414E-09  0.5411E-09  0.5414E-09  0.5411E-09  0.7312E-09  0.7335E-09  0.5414E-09  0.5411E-09  0.7312E-09  0.7335E-09
    -25.001  0.7291E-07  0.7307E-07  0.1850E-03  0.1854E-03  0.1850E-03  0.1854E-03  0.1850E-03  0.1854E-03  0.2219E-07  0.2220E-07  0.2219E-07  0.2220E-07  0.2740E-07  0.2748E-07  0.2219E-07  0.2220E-07  0.2740E-07  0.2748E-07
    -24.867  0.1180E-05  0.1183E-05  0.2710E-02  0.2716E-02  0.2710E-02  0.2716E-02  0.2710E-02  0.2716E-02  0.3303E-06  0.3304E-06  0.3303E-06  0.3304E-06  0.4095E-06  0.4107E-06  0.3303E-06  0.3304E-06  0.4095E-06  0.4107E-06
    -24.733  0.1632E-04  0.1635E-04  0.3585E-01  0.3592E-01  0.3585E-01  0.3592E-01  0.3585E-01  0.3592E-01  0.4525E-05  0.4527E-05  0.4525E-05  0.4527E-05  0.5530E-05  0.5545E-05  0.4525E-05  0.4527E-05  0.5530E-05  0.5545E-05
    -24.599  0.1667E-03  0.1670E-03  0.2795E+00  0.2799E+00  0.2795E+00  0.2799E+00  0.2795E+00  0.2799E+00  0.4363E-04  0.4364E-04  0.4363E-04  0.4364E-04  0.4994E-04  0.5003E-04  0.4363E-04  0.4364E-04  0.4994E-04  0.5003E-04
    -24.465  0.7664E-03  0.7670E-03  0.8640E+00  0.8644E+00  0.8640E+00  0.8644E+00  0.8640E+00  0.8644E+00  0.1713E-03  0.1712E-03  0.1713E-03  0.1712E-03  0.1713E-03  0.1715E-03  0.1713E-03  0.1712E-03  0.1713E-03  0.1715E-03
    -24.332  0.1125E-02  0.1125E-02  0.9014E+00  0.9011E+00  0.9014E+00  0.9011E+00  0.9014E+00  0.9011E+00  0.2297E-03  0.2295E-03  0.2297E-03  0.2295E-03  0.1781E-03  0.1781E-03  0.2297E-03  0.2295E-03  0.1781E-03  0.1781E-03
    -24.198  0.8068E-03  0.8066E-03  0.8330E+00  0.8333E+00  0.8330E+00  0.8333E+00  0.8330E+00  0.8333E+00  0.3013E-03  0.3012E-03  0.3013E-03  0.3012E-03  0.1478E-03  0.1478E-03  0.3013E-03  0.3012E-03  0.1478E-03  0.1478E-03
    -24.064  0.5566E-03  0.5564E-03  0.1349E+01  0.1350E+01  0.1349E+01  0.1350E+01  0.1349E+01  0.1350E+01  0.3840E-03  0.3838E-03  0.3840E-03  0.3838E-03  0.2848E-03  0.2848E-03  0.3840E-03  0.3838E-03  0.2848E-03  0.2848E-03
    -23.930  0.3104E-03  0.3102E-03  0.1760E+01  0.1760E+01  0.1760E+01  0.1760E+01  0.1760E+01  0.1760E+01  0.3172E-03  0.3169E-03  0.3172E-03  0.3169E-03  0.3055E-03  0.3051E-03  0.3172E-03  0.3169E-03  0.3055E-03  0.3051E-03
    -23.796  0.1038E-03  0.1036E-03  0.1092E+01  0.1091E+01  0.1092E+01  0.1091E+01  0.1092E+01  0.1091E+01  0.1257E-03  0.1255E-03  0.1257E-03  0.1255E-03  0.1097E-03  0.1094E-03  0.1257E-03  0.1255E-03  0.1097E-03  0.1094E-03
    -23.662  0.1365E-04  0.1362E-04  0.2021E+00  0.2017E+00  0.2021E+00  0.2017E+00  0.2021E+00  0.2017E+00  0.1758E-04  0.1753E-04  0.1758E-04  0.1753E-04  0.1333E-04  0.1329E-04  0.1758E-04  0.1753E-04  0.1333E-04  0.1329E-04
    -23.529  0.6842E-06  0.6827E-06  0.1248E-01  0.1245E-01  0.1248E-01  0.1245E-01  0.1248E-01  0.1245E-01  0.8285E-06  0.8261E-06  0.8285E-06  0.8261E-06  0.3418E-06  0.3410E-06  0.8285E-06  0.8261E-06  0.3418E-06  0.3410E-06
    -23.395  0.0000E+00  0.0000E+00  0.0000E+00  0.0000E+00  0.0000E+00  0.0000E+00  0.0000E+00  0.0000E+00  0.0000E+00  0.0000E+00  0.0000E+00  0.0000E+00  0.0000E+00  0.0000E+00  0.0000E+00  0.0000E+00  0.0000E+00  0.0000E+00
    -23.261  0.0000E+00  0.0000E+00  0.0000E+00  0.0000E+00  0.0000E+00  0.0000E+00  0.0000E+00  0.0000E+00  0.0000E+00  0.0000E+00  0.0000E+00  0.0000E+00  0.0000E+00  0.0000E+00  0.0000E+00  0.0000E+00  0.0000E+00  0.0000E+00
    -23.127  0.0000E+00  0.0000E+00  0.0000E+00  0.0000E+00  0.0000E+00  0.0000E+00  0.0000E+00  0.0000E+00  0.0000E+00  0.0000E+00  0.0000E+00  0.0000E+00  0.0000E+00  0.0000E+00  0.0000E+00  0.0000E+00  0.0000E+00  0.0000E+00
    -22.993  0.0000E+00  0.0000E+00  0.0000E+00  0.0000E+00  0.0000E+00  0.0000E+00  0.0000E+00  0.0000E+00  0.0000E+00  0.0000E+00  0.0000E+00  0.0000E+00  0.0000E+00  0.0000E+00  0.0000E+00  0.0000E+00  0.0000E+00  0.0000E+00
    -22.859  0.0000E+00  0.0000E+00  0.0000E+00  0.0000E+00  0.0000E+00  0.0000E+00  0.0000E+00  0.0000E+00  0.0000E+00  0.0000E+00  0.0000E+00  0.0000E+00  0.0000E+00  0.0000E+00  0.0000E+00  0.0000E+00  0.0000E+00  0.0000E+00
    -22.726  0.0000E+00  0.0000E+00  0.0000E+00  0.0000E+00  0.0000E+00  0.0000E+00  0.0000E+00  0.0000E+00  0.0000E+00  0.0000E+00  0.0000E+00  0.0000E+00  0.0000E+00  0.0000E+00  0.0000E+00  0.0000E+00  0.0000E+00  0.0000E+00
    -22.592  0.0000E+00  0.0000E+00  0.0000E+00  0.0000E+00  0.0000E+00  0.0000E+00  0.0000E+00  0.0000E+00  0.0000E+00  0.0000E+00  0.0000E+00  0.0000E+00  0.0000E+00  0.0000E+00  0.0000E+00  0.0000E+00  0.0000E+00  0.0000E+00
    -22.458  0.0000E+00  0.0000E+00  0.0000E+00  0.0000E+00  0.0000E+00  0.0000E+00  0.0000E+00  0.0000E+00  0.0000E+00  0.0000E+00  0.0000E+00  0.0000E+00  0.0000E+00  0.0000E+00  0.0000E+00  0.0000E+00  0.0000E+00  0.0000E+00
    -22.324  0.0000E+00  0.0000E+00  0.0000E+00  0.0000E+00  0.0000E+00  0.0000E+00  0.0000E+00  0.0000E+00  0.0000E+00  0.0000E+00  0.0000E+00  0.0000E+00  0.0000E+00  0.0000E+00  0.0000E+00  0.0000E+00  0.0000E+00  0.0000E+00
    -22.190  0.0000E+00  0.0000E+00  0.0000E+00  0.0000E+00  0.0000E+00  0.0000E+00  0.0000E+00  0.0000E+00  0.0000E+00  0.0000E+00  0.0000E+00  0.0000E+00  0.0000E+00  0.0000E+00  0.0000E+00  0.0000E+00  0.0000E+00  0.0000E+00
    -22.056  0.0000E+00  0.0000E+00  0.0000E+00  0.0000E+00  0.0000E+00  0.0000E+00  0.0000E+00  0.0000E+00  0.0000E+00  0.0000E+00  0.0000E+00  0.0000E+00  0.0000E+00  0.0000E+00  0.0000E+00  0.0000E+00  0.0000E+00  0.0000E+00
    -21.923  0.0000E+00  0.0000E+00  0.0000E+00  0.0000E+00  0.0000E+00  0.0000E+00  0.0000E+00  0.0000E+00  0.0000E+00  0.0000E+00  0.0000E+00  0.0000E+00  0.0000E+00  0.0000E+00  0.0000E+00  0.0000E+00  0.0000E+00  0.0000E+00
    -21.789  0.0000E+00  0.0000E+00  0.0000E+00  0.0000E+00  0.0000E+00  0.0000E+00  0.0000E+00  0.0000E+00  0.0000E+00  0.0000E+00  0.0000E+00  0.0000E+00  0.0000E+00  0.0000E+00  0.0000E+00  0.0000E+00  0.0000E+00  0.0000E+00
    -21.655  0.0000E+00  0.0000E+00  0.0000E+00  0.0000E+00  0.0000E+00  0.0000E+00  0.0000E+00  0.0000E+00  0.0000E+00  0.0000E+00  0.0000E+00  0.0000E+00  0.0000E+00  0.0000E+00  0.0000E+00  0.0000E+00  0.0000E+00  0.0000E+00
    -21.521  0.0000E+00  0.0000E+00  0.0000E+00  0.0000E+00  0.0000E+00  0.0000E+00  0.0000E+00  0.0000E+00  0.0000E+00  0.0000E+00  0.0000E+00  0.0000E+00  0.0000E+00  0.0000E+00  0.0000E+00  0.0000E+00  0.0000E+00  0.0000E+00
    -21.387  0.0000E+00  0.0000E+00  0.0000E+00  0.0000E+00  0.0000E+00  0.0000E+00  0.0000E+00  0.0000E+00  0.0000E+00  0.0000E+00  0.0000E+00  0.0000E+00  0.0000E+00  0.0000E+00  0.0000E+00  0.0000E+00  0.0000E+00  0.0000E+00
    -21.253  0.0000E+00  0.0000E+00  0.0000E+00  0.0000E+00  0.0000E+00  0.0000E+00  0.0000E+00  0.0000E+00  0.0000E+00  0.0000E+00  0.0000E+00  0.0000E+00  0.0000E+00  0.0000E+00  0.0000E+00  0.0000E+00  0.0000E+00  0.0000E+00
    -21.120  0.0000E+00  0.0000E+00  0.0000E+00  0.0000E+00  0.0000E+00  0.0000E+00  0.0000E+00  0.0000E+00  0.0000E+00  0.0000E+00  0.0000E+00  0.0000E+00  0.0000E+00  0.0000E+00  0.0000E+00  0.0000E+00  0.0000E+00  0.0000E+00
    -20.986  0.0000E+00  0.0000E+00  0.0000E+00  0.0000E+00  0.0000E+00  0.0000E+00  0.0000E+00  0.0000E+00  0.0000E+00  0.0000E+00  0.0000E+00  0.0000E+00  0.0000E+00  0.0000E+00  0.0000E+00  0.0000E+00  0.0000E+00  0.0000E+00
    -20.852  0.0000E+00  0.0000E+00  0.0000E+00  0.0000E+00  0.0000E+00  0.0000E+00  0.0000E+00  0.0000E+00  0.0000E+00  0.0000E+00  0.0000E+00  0.0000E+00  0.0000E+00  0.0000E+00  0.0000E+00  0.0000E+00  0.0000E+00  0.0000E+00
    -20.718  0.0000E+00  0.0000E+00  0.0000E+00  0.0000E+00  0.0000E+00  0.0000E+00  0.0000E+00  0.0000E+00  0.0000E+00  0.0000E+00  0.0000E+00  0.0000E+00  0.0000E+00  0.0000E+00  0.0000E+00  0.0000E+00  0.0000E+00  0.0000E+00
    -20.584  0.0000E+00  0.0000E+00  0.0000E+00  0.0000E+00  0.0000E+00  0.0000E+00  0.0000E+00  0.0000E+00  0.0000E+00  0.0000E+00  0.0000E+00  0.0000E+00  0.0000E+00  0.0000E+00  0.0000E+00  0.0000E+00  0.0000E+00  0.0000E+00
    -20.450  0.0000E+00  0.0000E+00  0.0000E+00  0.0000E+00  0.0000E+00  0.0000E+00  0.0000E+00  0.0000E+00  0.0000E+00  0.0000E+00  0.0000E+00  0.0000E+00  0.0000E+00  0.0000E+00  0.0000E+00  0.0000E+00  0.0000E+00  0.0000E+00
    -20.317  0.0000E+00  0.0000E+00  0.0000E+00  0.0000E+00  0.0000E+00  0.0000E+00  0.0000E+00  0.0000E+00  0.0000E+00  0.0000E+00  0.0000E+00  0.0000E+00  0.0000E+00  0.0000E+00  0.0000E+00  0.0000E+00  0.0000E+00  0.0000E+00
    -20.183  0.0000E+00  0.0000E+00  0.0000E+00  0.0000E+00  0.0000E+00  0.0000E+00  0.0000E+00  0.0000E+00  0.0000E+00  0.0000E+00  0.0000E+00  0.0000E+00  0.0000E+00  0.0000E+00  0.0000E+00  0.0000E+00  0.0000E+00  0.0000E+00
    -20.049  0.0000E+00  0.0000E+00  0.0000E+00  0.0000E+00  0.0000E+00  0.0000E+00  0.0000E+00  0.0000E+00  0.0000E+00  0.0000E+00  0.0000E+00  0.0000E+00  0.0000E+00  0.0000E+00  0.0000E+00  0.0000E+00  0.0000E+00  0.0000E+00
    -19.915  0.0000E+00  0.0000E+00  0.0000E+00  0.0000E+00  0.0000E+00  0.0000E+00  0.0000E+00  0.0000E+00  0.0000E+00  0.0000E+00  0.0000E+00  0.0000E+00  0.0000E+00  0.0000E+00  0.0000E+00  0.0000E+00  0.0000E+00  0.0000E+00
    -19.781  0.0000E+00  0.0000E+00  0.0000E+00  0.0000E+00  0.0000E+00  0.0000E+00  0.0000E+00  0.0000E+00  0.0000E+00  0.0000E+00  0.0000E+00  0.0000E+00  0.0000E+00  0.0000E+00  0.0000E+00  0.0000E+00  0.0000E+00  0.0000E+00