   8   8   1   0
  0.8899432E+01  0.4144614E-09  0.4144614E-09  0.4144614E-09  0.5000000E-15
  1.000000000000000E-004
  CAR 
 unknown system                          
     17.49692138    -24.52086649  301     10.35874664      1.00000000
    -24.521  0.0000E+00  0.0000E+00  0.0000E+00  0.0000E+00
    -24.381  0.0000E+00  0.0000E+00  0.0000E+00  0.0000E+00
    -24.241  0.0000E+00  0.0000E+00  0.0000E+00  0.0000E+00
    -24.101  0.0000E+00  0.0000E+00  0.0000E+00  0.0000E+00
    -23.961  0.0000E+00  0.0000E+00  0.0000E+00  0.0000E+00
    -23.821  0.0000E+00  0.0000E+00  0.0000E+00  0.0000E+00
    -23.681  0.0000E+00  0.0000E+00  0.0000E+00  0.0000E+00
    -23.540  0.0000E+00  0.0000E+00  0.0000E+00  0.0000E+00
    -23.400  0.0000E+00  0.0000E+00  0.0000E+00  0.0000E+00
    -23.260  0.0000E+00  0.0000E+00  0.0000E+00  0.0000E+00
    -23.120  0.5166E-04  0.5148E-04  0.7236E-05  0.7211E-05
    -22.980  0.8600E-03  0.8570E-03  0.1277E-03  0.1272E-03
    -22.840  0.1485E-01  0.1479E-01  0.2207E-02  0.2199E-02
    -22.700  0.2134E+00  0.2128E+00  0.3210E-01  0.3200E-01
    -22.560  0.1205E+01  0.1204E+01  0.2009E+00  0.2006E+00
    -22.420  0.2971E+01  0.2967E+01  0.6170E+00  0.6161E+00
    -22.280  0.6854E+01  0.6850E+01  0.1577E+01  0.1576E+01
    -22.140  0.7159E+01  0.7162E+01  0.2580E+01  0.2579E+01
    -22.000  0.4996E+01  0.4998E+01  0.3280E+01  0.3279E+01
    -21.860  0.3486E+01  0.3488E+01  0.3771E+01  0.3771E+01
    -21.720  0.3547E+01  0.3545E+01  0.4270E+01  0.4269E+01
    -21.580  0.5517E+01  0.5514E+01  0.5044E+01  0.5043E+01
    -21.440  0.7043E+01  0.7041E+01  0.6031E+01  0.6029E+01
    -21.300  0.9820E+01  0.9815E+01  0.7407E+01  0.7404E+01
    -21.159  0.1077E+02  0.1077E+02  0.8917E+01  0.8915E+01
    -21.019  0.1137E+02  0.1137E+02  0.1051E+02  0.1051E+02
    -20.879  0.7953E+01  0.7961E+01  0.1163E+02  0.1163E+02
    -20.739  0.2390E+01  0.2397E+01  0.1196E+02  0.1196E+02
    -20.599  0.2254E+00  0.2263E+00  0.1200E+02  0.1200E+02
    -20.459  0.5728E-02  0.5753E-02  0.1200E+02  0.1200E+02
    -20.319  0.0000E+00  0.0000E+00  0.1200E+02  0.1200E+02
    -20.179  0.0000E+00  0.0000E+00  0.1200E+02  0.1200E+02
    -20.039  0.0000E+00  0.0000E+00  0.1200E+02  0.1200E+02
    -19.899  0.0000E+00  0.0000E+00  0.1200E+02  0.1200E+02
    -19.759  0.0000E+00  0.0000E+00  0.1200E+02  0.1200E+02
    -19.619  0.0000E+00  0.0000E+00  0.1200E+02  0.1200E+02
    -19.479  0.0000E+00  0.0000E+00  0.1200E+02  0.1200E+02
    -19.339  0.0000E+00  0.0000E+00  0.1200E+02  0.1200E+02
    -19.199  0.0000E+00  0.0000E+00  0.1200E+02  0.1200E+02
    -19.059  0.0000E+00  0.0000E+00  0.1200E+02  0.1200E+02
    -18.918  0.0000E+00  0.0000E+00  0.1200E+02  0.1200E+02
    -18.778  0.0000E+00  0.0000E+00  0.1200E+02  0.1200E+02
    -18.638  0.0000E+00  0.0000E+00  0.1200E+02  0.1200E+02
    -18.498  0.0000E+00  0.0000E+00  0.1200E+02  0.1200E+02
    -18.358  0.0000E+00  0.0000E+00  0.1200E+02  0.1200E+02
    -18.218  0.0000E+00  0.0000E+00  0.1200E+02  0.1200E+02
    -18.078  0.0000E+00  0.0000E+00  0.1200E+02  0.1200E+02
    -17.938  0.0000E+00  0.0000E+00  0.1200E+02  0.1200E+02
    -17.798  0.0000E+00  0.0000E+00  0.1200E+02  0.1200E+02
    -17.658  0.0000E+00  0.0000E+00  0.1200E+02  0.1200E+02
    -17.518  0.0000E+00  0.0000E+00  0.1200E+02  0.1200E+02
    -17.378  0.0000E+00  0.0000E+00  0.1200E+02  0.1200E+02
    -17.238  0.0000E+00  0.0000E+00  0.1200E+02  0.1200E+02
    -17.098  0.0000E+00  0.0000E+00  0.1200E+02  0.1200E+02
    -16.958  0.0000E+00  0.0000E+00  0.1200E+02  0.1200E+02
    -16.818  0.0000E+00  0.0000E+00  0.1200E+02  0.1200E+02
    -16.678  0.0000E+00  0.0000E+00  0.1200E+02  0.1200E+02
    -16.537  0.0000E+00  0.0000E+00  0.1200E+02  0.1200E+02
    -16.397  0.0000E+00  0.0000E+00  0.1200E+02  0.1200E+02
    -16.257  0.0000E+00  0.0000E+00  0.1200E+02  0.1200E+02
    -16.117  0.0000E+00  0.0000E+00  0.1200E+02  0.1200E+02
    -15.977  0.0000E+00  0.0000E+00  0.1200E+02  0.1200E+02
    -15.837  0.0000E+00  0.0000E+00  0.1200E+02  0.1200E+02
    -15.697  0.0000E+00  0.0000E+00  0.1200E+02  0.1200E+02
    -15.557  0.0000E+00  0.0000E+00  0.1200E+02  0.1200E+02
    -15.417  0.0000E+00  0.0000E+00  0.1200E+02  0.1200E+02
    -15.277  0.0000E+00  0.0000E+00  0.1200E+02  0.1200E+02
    -15.137  0.0000E+00  0.0000E+00  0.1200E+02  0.1200E+02
    -14.997  0.0000E+00  0.0000E+00  0.1200E+02  0.1200E+02
    -14.857  0.0000E+00  0.0000E+00  0.1200E+02  0.1200E+02
    -14.717  0.0000E+00  0.0000E+00  0.1200E+02  0.1200E+02
    -14.577  0.0000E+00  0.0000E+00  0.1200E+02  0.1200E+02
    -14.437  0.0000E+00  0.0000E+00  0.1200E+02  0.1200E+02
    -14.297  0.0000E+00  0.0000E+00  0.1200E+02  0.1200E+02
    -14.156  0.0000E+00  0.0000E+00  0.1200E+02  0.1200E+02
    -14.016  0.0000E+00  0.0000E+00  0.1200E+02  0.1200E+02
    -13.876  0.0000E+00  0.0000E+00  0.1200E+02  0.1200E+02
    -13.736  0.0000E+00  0.0000E+00  0.1200E+02  0.1200E+02
    -13.596  0.0000E+00  0.0000E+00  0.1200E+02  0.1200E+02
    -13.456  0.0000E+00  0.0000E+00  0.1200E+02  0.1200E+02
    -13.316  0.0000E+00  0.0000E+00  0.1200E+02  0.1200E+02
    -13.176  0.0000E+00  0.0000E+00  0.1200E+02  0.1200E+02
    -13.036  0.0000E+00  0.0000E+00  0.1200E+02  0.1200E+02
    -12.896  0.0000E+00  0.0000E+00  0.1200E+02  0.1200E+02
    -12.756  0.0000E+00  0.0000E+00  0.1200E+02  0.1200E+02
    -12.616  0.0000E+00  0.0000E+00  0.1200E+02  0.1200E+02
    -12.476  0.0000E+00  0.0000E+00  0.1200E+02  0.1200E+02
    -12.336  0.0000E+00  0.0000E+00  0.1200E+02  0.1200E+02
    -12.196  0.0000E+00  0.0000E+00  0.1200E+02  0.1200E+02
    -12.056  0.0000E+00  0.0000E+00  0.1200E+02  0.1200E+02
    -11.916  0.0000E+00  0.0000E+00  0.1200E+02  0.1200E+02
    -11.775  0.0000E+00  0.0000E+00  0.1200E+02  0.1200E+02
    -11.635  0.0000E+00  0.0000E+00  0.1200E+02  0.1200E+02
    -11.495  0.0000E+00  0.0000E+00  0.1200E+02  0.1200E+02
    -11.355  0.0000E+00  0.0000E+00  0.1200E+02  0.1200E+02
    -11.215  0.0000E+00  0.0000E+00  0.1200E+02  0.1200E+02
    -11.075  0.0000E+00  0.0000E+00  0.1200E+02  0.1200E+02
    -10.935  0.0000E+00  0.0000E+00  0.1200E+02  0.1200E+02
    -10.795  0.0000E+00  0.0000E+00  0.1200E+02  0.1200E+02
    -10.655  0.0000E+00  0.0000E+00  0.1200E+02  0.1200E+02
    -10.515  0.0000E+00  0.0000E+00  0.1200E+02  0.1200E+02
    -10.375  0.0000E+00  0.0000E+00  0.1200E+02  0.1200E+02
    -10.235  0.0000E+00  0.0000E+00  0.1200E+02  0.1200E+02
    -10.095  0.0000E+00  0.0000E+00  0.1200E+02  0.1200E+02
     -9.955  0.0000E+00  0.0000E+00  0.1200E+02  0.1200E+02
     -9.815  0.0000E+00  0.0000E+00  0.1200E+02  0.1200E+02
     -9.675  0.0000E+00  0.0000E+00  0.1200E+02  0.1200E+02
     -9.535  0.0000E+00  0.0000E+00  0.1200E+02  0.1200E+02
     -9.394  0.0000E+00  0.0000E+00  0.1200E+02  0.1200E+02
     -9.254  0.0000E+00  0.0000E+00  0.1200E+02  0.1200E+02
     -9.114  0.0000E+00  0.0000E+00  0.1200E+02  0.1200E+02
     -8.974  0.0000E+00  0.0000E+00  0.1200E+02  0.1200E+02
     -8.834  0.0000E+00  0.0000E+00  0.1200E+02  0.1200E+02
     -8.694  0.0000E+00  0.0000E+00  0.1200E+02  0.1200E+02
     -8.554  0.0000E+00  0.0000E+00  0.1200E+02  0.1200E+02
     -8.414  0.0000E+00  0.0000E+00  0.1200E+02  0.1200E+02
     -8.274  0.0000E+00  0.0000E+00  0.1200E+02  0.1200E+02
     -8.134  0.0000E+00  0.0000E+00  0.1200E+02  0.1200E+02
     -7.994  0.0000E+00  0.0000E+00  0.1200E+02  0.1200E+02
     -7.854  0.0000E+00  0.0000E+00  0.1200E+02  0.1200E+02
     -7.714  0.0000E+00  0.0000E+00  0.1200E+02  0.1200E+02
     -7.574  0.0000E+00  0.0000E+00  0.1200E+02  0.1200E+02
     -7.434  0.0000E+00  0.0000E+00  0.1200E+02  0.1200E+02
     -7.294  0.0000E+00  0.0000E+00  0.1200E+02  0.1200E+02
     -7.154  0.0000E+00  0.0000E+00  0.1200E+02  0.1200E+02
     -7.013  0.0000E+00  0.0000E+00  0.1200E+02  0.1200E+02
     -6.873  0.0000E+00  0.0000E+00  0.1200E+02  0.1200E+02
     -6.733  0.0000E+00  0.0000E+00  0.1200E+02  0.1200E+02
     -6.593  0.0000E+00  0.0000E+00  0.1200E+02  0.1200E+02
     -6.453  0.0000E+00  0.0000E+00  0.1200E+02  0.1200E+02
     -6.313  0.0000E+00  0.0000E+00  0.1200E+02  0.1200E+02
     -6.173  0.0000E+00  0.0000E+00  0.1200E+02  0.1200E+02
     -6.033  0.0000E+00  0.0000E+00  0.1200E+02  0.1200E+02
     -5.893  0.0000E+00  0.0000E+00  0.1200E+02  0.1200E+02
     -5.753  0.0000E+00  0.0000E+00  0.1200E+02  0.1200E+02
     -5.613  0.0000E+00  0.0000E+00  0.1200E+02  0.1200E+02
     -5.473  0.0000E+00  0.0000E+00  0.1200E+02  0.1200E+02
     -5.333  0.0000E+00  0.0000E+00  0.1200E+02  0.1200E+02
     -5.193  0.1167E-05  0.1171E-05  0.1200E+02  0.1200E+02
     -5.053  0.1804E-04  0.1810E-04  0.1200E+02  0.1200E+02
     -4.913  0.2955E-03  0.2964E-03  0.1200E+02  0.1200E+02
     -4.773  0.4459E-02  0.4472E-02  0.1200E+02  0.1200E+02
     -4.632  0.2955E-01  0.2958E-01  0.1200E+02  0.1200E+02
     -4.492  0.2116E-01  0.2113E-01  0.1201E+02  0.1201E+02
     -4.352  0.1086E-01  0.1088E-01  0.1201E+02  0.1201E+02
     -4.212  0.9905E-01  0.9925E-01  0.1202E+02  0.1202E+02
     -4.072  0.1953E+00  0.1952E+00  0.1205E+02  0.1205E+02
     -3.932  0.4906E-01  0.4899E-01  0.1206E+02  0.1206E+02
     -3.792  0.1607E+00  0.1610E+00  0.1208E+02  0.1208E+02
     -3.652  0.5218E+00  0.5218E+00  0.1215E+02  0.1215E+02
     -3.512  0.2171E+00  0.2169E+00  0.1218E+02  0.1218E+02
     -3.372  0.4982E+00  0.4987E+00  0.1225E+02  0.1225E+02
     -3.232  0.8299E+00  0.8297E+00  0.1237E+02  0.1237E+02
     -3.092  0.6287E+00  0.6289E+00  0.1246E+02  0.1246E+02
     -2.952  0.1288E+01  0.1288E+01  0.1264E+02  0.1264E+02
     -2.812  0.9875E+00  0.9874E+00  0.1278E+02  0.1278E+02
     -2.672  0.1444E+01  0.1445E+01  0.1298E+02  0.1298E+02
     -2.532  0.1590E+01  0.1590E+01  0.1320E+02  0.1320E+02
     -2.391  0.1541E+01  0.1542E+01  0.1342E+02  0.1342E+02
     -2.251  0.1923E+01  0.1923E+01  0.1369E+02  0.1369E+02
     -2.111  0.2049E+01  0.2049E+01  0.1397E+02  0.1398E+02
     -1.971  0.1396E+01  0.1396E+01  0.1417E+02  0.1417E+02
     -1.831  0.1682E+01  0.1683E+01  0.1441E+02  0.1441E+02
     -1.691  0.1736E+01  0.1735E+01  0.1465E+02  0.1465E+02
     -1.551  0.6982E+00  0.6984E+00  0.1475E+02  0.1475E+02
     -1.411  0.1842E+01  0.1843E+01  0.1501E+02  0.1501E+02
     -1.271  0.1152E+01  0.1151E+01  0.1517E+02  0.1517E+02
     -1.131  0.1257E+01  0.1258E+01  0.1535E+02  0.1535E+02
     -0.991  0.2090E+01  0.2089E+01  0.1564E+02  0.1564E+02
     -0.851  0.6887E+00  0.6878E+00  0.1574E+02  0.1574E+02
     -0.711  0.9749E-01  0.9750E-01  0.1575E+02  0.1575E+02
     -0.571  0.2592E+00  0.2593E+00  0.1579E+02  0.1579E+02
     -0.431  0.1445E+00  0.1443E+00  0.1581E+02  0.1581E+02
     -0.291  0.1702E+00  0.1705E+00  0.1583E+02  0.1583E+02
     -0.151  0.7893E+00  0.7896E+00  0.1594E+02  0.1594E+02
     -0.010  0.3768E+00  0.3763E+00  0.1600E+02  0.1600E+02
      0.130  0.3266E-01  0.3259E-01  0.1600E+02  0.1600E+02
      0.270  0.0000E+00  0.0000E+00  0.1600E+02  0.1600E+02
      0.410  0.0000E+00  0.0000E+00  0.1600E+02  0.1600E+02
      0.550  0.0000E+00  0.0000E+00  0.1600E+02  0.1600E+02
      0.690  0.0000E+00  0.0000E+00  0.1600E+02  0.1600E+02
      0.830  0.0000E+00  0.0000E+00  0.1600E+02  0.1600E+02
      0.970  0.8973E-04  0.8985E-04  0.1600E+02  0.1600E+02
      1.110  0.1386E-02  0.1388E-02  0.1600E+02  0.1600E+02
      1.250  0.2242E-01  0.2245E-01  0.1600E+02  0.1600E+02
      1.390  0.2860E+00  0.2863E+00  0.1604E+02  0.1604E+02
      1.530  0.8250E+00  0.8249E+00  0.1616E+02  0.1616E+02
      1.670  0.2189E+00  0.2187E+00  0.1619E+02  0.1619E+02
      1.810  0.1775E-01  0.1773E-01  0.1619E+02  0.1619E+02
      1.950  0.2743E-01  0.2746E-01  0.1620E+02  0.1620E+02
      2.090  0.3822E+00  0.3826E+00  0.1625E+02  0.1625E+02
      2.230  0.1953E+01  0.1954E+01  0.1652E+02  0.1652E+02
      2.371  0.1889E+01  0.1889E+01  0.1679E+02  0.1679E+02
      2.511  0.3340E+00  0.3338E+00  0.1683E+02  0.1683E+02
      2.651  0.4739E+00  0.4742E+00  0.1690E+02  0.1690E+02
      2.791  0.1651E+01  0.1651E+01  0.1713E+02  0.1713E+02
      2.931  0.1292E+01  0.1292E+01  0.1731E+02  0.1731E+02
      3.071  0.1736E+01  0.1737E+01  0.1756E+02  0.1756E+02
      3.211  0.2529E+01  0.2528E+01  0.1791E+02  0.1791E+02
      3.351  0.5899E+00  0.5896E+00  0.1799E+02  0.1799E+02
      3.491  0.9050E+00  0.9053E+00  0.1812E+02  0.1812E+02
      3.631  0.2041E+01  0.2041E+01  0.1841E+02  0.1841E+02
      3.771  0.2597E+01  0.2597E+01  0.1877E+02  0.1877E+02
      3.911  0.3623E+01  0.3623E+01  0.1928E+02  0.1928E+02
      4.051  0.3297E+01  0.3297E+01  0.1974E+02  0.1974E+02
      4.191  0.2973E+01  0.2973E+01  0.2016E+02  0.2016E+02
      4.331  0.3239E+01  0.3239E+01  0.2061E+02  0.2061E+02
      4.471  0.2011E+01  0.2011E+01  0.2090E+02  0.2090E+02
      4.611  0.2330E+01  0.2330E+01  0.2122E+02  0.2122E+02
      4.752  0.4184E+01  0.4184E+01  0.2181E+02  0.2181E+02
      4.892  0.6497E+01  0.6497E+01  0.2272E+02  0.2272E+02
      5.032  0.6863E+01  0.6864E+01  0.2368E+02  0.2368E+02
      5.172  0.5792E+01  0.5792E+01  0.2450E+02  0.2450E+02
      5.312  0.3741E+01  0.3741E+01  0.2502E+02  0.2502E+02
      5.452  0.2597E+01  0.2597E+01  0.2539E+02  0.2539E+02
      5.592  0.1514E+01  0.1514E+01  0.2560E+02  0.2560E+02
      5.732  0.1729E+01  0.1728E+01  0.2585E+02  0.2585E+02
      5.872  0.2140E+01  0.2141E+01  0.2615E+02  0.2615E+02
      6.012  0.1836E+01  0.1836E+01  0.2640E+02  0.2640E+02
      6.152  0.1737E+01  0.1737E+01  0.2665E+02  0.2665E+02
      6.292  0.2268E+01  0.2268E+01  0.2697E+02  0.2697E+02
      6.432  0.1350E+01  0.1350E+01  0.2716E+02  0.2716E+02
      6.572  0.1276E+01  0.1276E+01  0.2733E+02  0.2733E+02
      6.712  0.7584E+00  0.7586E+00  0.2744E+02  0.2744E+02
      6.852  0.9788E+00  0.9789E+00  0.2758E+02  0.2758E+02
      6.992  0.7746E+00  0.7745E+00  0.2769E+02  0.2769E+02
      7.133  0.1606E+00  0.1606E+00  0.2771E+02  0.2771E+02
      7.273  0.2053E-01  0.2052E-01  0.2771E+02  0.2771E+02
      7.413  0.1395E+00  0.1395E+00  0.2773E+02  0.2773E+02
      7.553  0.4847E+00  0.4846E+00  0.2780E+02  0.2780E+02
      7.693  0.6100E+00  0.6098E+00  0.2789E+02  0.2789E+02
      7.833  0.7907E+00  0.7909E+00  0.2800E+02  0.2800E+02
      7.973  0.3302E+00  0.3303E+00  0.2804E+02  0.2804E+02
      8.113  0.6471E-01  0.6467E-01  0.2805E+02  0.2805E+02
      8.253  0.1093E+00  0.1093E+00  0.2807E+02  0.2807E+02
      8.393  0.1134E+00  0.1135E+00  0.2808E+02  0.2808E+02
      8.533  0.4924E+00  0.4923E+00  0.2815E+02  0.2815E+02
      8.673  0.1236E+01  0.1235E+01  0.2833E+02  0.2833E+02
      8.813  0.1986E+01  0.1986E+01  0.2860E+02  0.2860E+02
      8.953  0.7210E+00  0.7214E+00  0.2871E+02  0.2871E+02
      9.093  0.1164E+01  0.1164E+01  0.2887E+02  0.2887E+02
      9.233  0.2346E+01  0.2347E+01  0.2920E+02  0.2920E+02
      9.373  0.1968E+01  0.1967E+01  0.2947E+02  0.2947E+02
      9.514  0.9278E+00  0.9282E+00  0.2960E+02  0.2960E+02
      9.654  0.6606E+00  0.6602E+00  0.2970E+02  0.2970E+02
      9.794  0.5882E+00  0.5884E+00  0.2978E+02  0.2978E+02
      9.934  0.2003E+00  0.2004E+00  0.2981E+02  0.2981E+02
     10.074  0.2898E+00  0.2894E+00  0.2985E+02  0.2985E+02
     10.214  0.7096E+00  0.7096E+00  0.2995E+02  0.2995E+02
     10.354  0.3625E+00  0.3629E+00  0.3000E+02  0.3000E+02
     10.494  0.3814E+00  0.3811E+00  0.3005E+02  0.3005E+02
     10.634  0.1005E+01  0.1005E+01  0.3019E+02  0.3019E+02
     10.774  0.1427E+01  0.1425E+01  0.3039E+02  0.3039E+02
     10.914  0.5455E+01  0.5452E+01  0.3116E+02  0.3116E+02
     11.054  0.3597E+01  0.3602E+01  0.3166E+02  0.3166E+02
     11.194  0.1333E+01  0.1334E+01  0.3185E+02  0.3185E+02
     11.334  0.9564E+00  0.9565E+00  0.3198E+02  0.3198E+02
     11.474  0.5386E+00  0.5380E+00  0.3206E+02  0.3206E+02
     11.614  0.1155E+01  0.1154E+01  0.3222E+02  0.3222E+02
     11.754  0.1136E+01  0.1137E+01  0.3238E+02  0.3238E+02
     11.895  0.1167E+01  0.1167E+01  0.3254E+02  0.3254E+02
     12.035  0.1586E+01  0.1585E+01  0.3277E+02  0.3277E+02
     12.175  0.2191E+01  0.2192E+01  0.3307E+02  0.3307E+02
     12.315  0.1013E+01  0.1014E+01  0.3322E+02  0.3322E+02
     12.455  0.8528E+00  0.8527E+00  0.3334E+02  0.3334E+02
     12.595  0.1708E+01  0.1712E+01  0.3358E+02  0.3358E+02
     12.735  0.2672E+01  0.2706E+01  0.3395E+02  0.3396E+02
     12.875  0.2865E+01  0.2827E+01  0.3435E+02  0.3435E+02
     13.015  0.4864E+01  0.4848E+01  0.3503E+02  0.3503E+02
     13.155  0.5651E+01  0.5642E+01  0.3583E+02  0.3582E+02
     13.295  0.2481E+01  0.2497E+01  0.3617E+02  0.3617E+02
     13.435  0.1072E+01  0.1082E+01  0.3632E+02  0.3633E+02
     13.575  0.1201E+01  0.1243E+01  0.3649E+02  0.3650E+02
     13.715  0.9226E+00  0.8993E+00  0.3662E+02  0.3663E+02
     13.855  0.7934E+00  0.9283E+00  0.3674E+02  0.3676E+02
     13.995  0.1966E+01  0.2479E+01  0.3701E+02  0.3711E+02
     14.135  0.2587E+01  0.2450E+01  0.3737E+02  0.3745E+02
     14.276  0.3475E+01  0.3220E+01  0.3786E+02  0.3790E+02
     14.416  0.4388E+01  0.4429E+01  0.3848E+02  0.3852E+02
     14.556  0.3194E+01  0.2750E+01  0.3892E+02  0.3891E+02
     14.696  0.3517E+01  0.3281E+01  0.3942E+02  0.3937E+02
     14.836  0.1872E+01  0.2626E+01  0.3968E+02  0.3974E+02
     14.976  0.1050E+01  0.9187E+00  0.3983E+02  0.3987E+02
     15.116  0.6686E+00  0.4445E+00  0.3992E+02  0.3993E+02
     15.256  0.9057E-01  0.2102E+00  0.3994E+02  0.3996E+02
     15.396  0.1165E-01  0.2510E+00  0.3994E+02  0.3999E+02
     15.536  0.1114E+00  0.4106E-01  0.3995E+02  0.4000E+02
     15.676  0.2699E+00  0.2758E-02  0.3999E+02  0.4000E+02
     15.816  0.6117E-01  0.0000E+00  0.4000E+02  0.4000E+02
     15.956  0.4338E-02  0.0000E+00  0.4000E+02  0.4000E+02
     16.096  0.0000E+00  0.0000E+00  0.4000E+02  0.4000E+02
     16.236  0.0000E+00  0.0000E+00  0.4000E+02  0.4000E+02
     16.376  0.0000E+00  0.0000E+00  0.4000E+02  0.4000E+02
     16.517  0.0000E+00  0.0000E+00  0.4000E+02  0.4000E+02
     16.657  0.0000E+00  0.0000E+00  0.4000E+02  0.4000E+02
     16.797  0.0000E+00  0.0000E+00  0.4000E+02  0.4000E+02
     16.937  0.0000E+00  0.0000E+00  0.4000E+02  0.4000E+02
     17.077  0.0000E+00  0.0000E+00  0.4000E+02  0.4000E+02
     17.217  0.0000E+00  0.0000E+00  0.4000E+02  0.4000E+02
     17.357  0.0000E+00  0.0000E+00  0.4000E+02  0.4000E+02
     17.497  0.0000E+00  0.0000E+00  0.4000E+02  0.4000E+02
     17.49692138    -24.52086649  301     10.35874664      1.00000000
    -24.521  0.0000E+00  0.0000E+00  0.0000E+00  0.0000E+00  0.0000E+00  0.0000E+00  0.0000E+00  0.0000E+00  0.0000E+00  0.0000E+00  0.0000E+00  0.0000E+00  0.0000E+00  0.0000E+00  0.0000E+00  0.0000E+00  0.0000E+00  0.0000E+00
    -24.381  0.0000E+00  0.0000E+00  0.0000E+00  0.0000E+00  0.0000E+00  0.0000E+00  0.0000E+00  0.0000E+00  0.0000E+00  0.0000E+00  0.0000E+00  0.0000E+00  0.0000E+00  0.0000E+00  0.0000E+00  0.0000E+00  0.0000E+00  0.0000E+00
    -24.241  0.0000E+00  0.0000E+00  0.0000E+00  0.0000E+00  0.0000E+00  0.0000E+00  0.0000E+00  0.0000E+00  0.0000E+00  0.0000E+00  0.0000E+00  0.0000E+00  0.0000E+00  0.0000E+00  0.0000E+00  0.0000E+00  0.0000E+00  0.0000E+00
    -24.101  0.0000E+00  0.0000E+00  0.0000E+00  0.0000E+00  0.0000E+00  0.0000E+00  0.0000E+00  0.0000E+00  0.0000E+00  0.0000E+00  0.0000E+00  0.0000E+00  0.0000E+00  0.0000E+00  0.0000E+00  0.0000E+00  0.0000E+00  0.0000E+00
    -23.961  0.0000E+00  0.0000E+00  0.0000E+00  0.0000E+00  0.0000E+00  0.0000E+00  0.0000E+00  0.0000E+00  0.0000E+00  0.0000E+00  0.0000E+00  0.0000E+00  0.0000E+00  0.0000E+00  0.0000E+00  0.0000E+00  0.0000E+00  0.0000E+00
    -23.821  0.0000E+00  0.0000E+00  0.0000E+00  0.0000E+00  0.0000E+00  0.0000E+00  0.0000E+00  0.0000E+00  0.0000E+00  0.0000E+00  0.0000E+00  0.0000E+00  0.0000E+00  0.0000E+00  0.0000E+00  0.0000E+00  0.0000E+00  0.0000E+00
    -23.681  0.0000E+00  0.0000E+00  0.0000E+00  0.0000E+00  0.0000E+00  0.0000E+00  0.0000E+00  0.0000E+00  0.0000E+00  0.0000E+00  0.0000E+00  0.0000E+00  0.0000E+00  0.0000E+00  0.0000E+00  0.0000E+00  0.0000E+00  0.0000E+00
    -23.540  0.0000E+00  0.0000E+00  0.0000E+00  0.0000E+00  0.0000E+00  0.0000E+00  0.0000E+00  0.0000E+00  0.0000E+00  0.0000E+00  0.0000E+00  0.0000E+00  0.0000E+00  0.0000E+00  0.0000E+00  0.0000E+00  0.0000E+00  0.0000E+00
    -23.400  0.0000E+00  0.0000E+00  0.0000E+00  0.0000E+00  0.0000E+00  0.0000E+00  0.0000E+00  0.0000E+00  0.0000E+00  0.0000E+00  0.0000E+00  0.0000E+00  0.0000E+00  0.0000E+00  0.0000E+00  0.0000E+00  0.0000E+00  0.0000E+00
    -23.260  0.0000E+00  0.0000E+00  0.0000E+00  0.0000E+00  0.0000E+00  0.0000E+00  0.0000E+00  0.0000E+00  0.0000E+00  0.0000E+00  0.0000E+00  0.0000E+00  0.0000E+00  0.0000E+00  0.0000E+00  0.0000E+00  0.0000E+00  0.0000E+00
    -23.120  0.2264E-08  0.2256E-08  0.4089E-05  0.4075E-05  0.4089E-05  0.4075E-05  0.4089E-05  0.4075E-05  0.1232E-08  0.1232E-08  0.1232E-08  0.1232E-08  0.2155E-08  0.2145E-08  0.1232E-08  0.1232E-08  0.2155E-08  0.2145E-08
    -22.980  0.5634E-07  0.5615E-07  0.6808E-04  0.6784E-04  0.6808E-04  0.6784E-04  0.6808E-04  0.6784E-04  0.2055E-07  0.2055E-07  0.2055E-07  0.2055E-07  0.3331E-07  0.3315E-07  0.2055E-07  0.2055E-07  0.3331E-07  0.3315E-07
    -22.840  0.1047E-05  0.1043E-05  0.1176E-02  0.1171E-02  0.1176E-02  0.1171E-02  0.1176E-02  0.1171E-02  0.3959E-06  0.3957E-06  0.3959E-06  0.3957E-06  0.6468E-06  0.6438E-06  0.3959E-06  0.3957E-06  0.6468E-06  0.6438E-06
    -22.700  0.1601E-04  0.1596E-04  0.1690E-01  0.1685E-01  0.1690E-01  0.1685E-01  0.1690E-01  0.1685E-01  0.5781E-05  0.5779E-05  0.5781E-05  0.5779E-05  0.9300E-05  0.9261E-05  0.5781E-05  0.5779E-05  0.9300E-05  0.9261E-05
    -22.560  0.1339E-03  0.1336E-03  0.9551E-01  0.9539E-01  0.9551E-01  0.9539E-01  0.9551E-01  0.9539E-01  0.3938E-04  0.3938E-04  0.3938E-04  0.3938E-04  0.5933E-04  0.5919E-04  0.3938E-04  0.3938E-04  0.5933E-04  0.5919E-04
    -22.420  0.5902E-03  0.5891E-03  0.2365E+00  0.2361E+00  0.2365E+00  0.2361E+00  0.2365E+00  0.2361E+00  0.1731E-03  0.1729E-03  0.1731E-03  0.1729E-03  0.2469E-03  0.2465E-03  0.1731E-03  0.1729E-03  0.2469E-03  0.2465E-03
    -22.280  0.1826E-02  0.1824E-02  0.5473E+00  0.5470E+00  0.5473E+00  0.5470E+00  0.5473E+00  0.5470E+00  0.4888E-03  0.4888E-03  0.4888E-03  0.4888E-03  0.5500E-03  0.5498E-03  0.4888E-03  0.4888E-03  0.5500E-03  0.5498E-03
    -22.140  0.3041E-02  0.3041E-02  0.5727E+00  0.5729E+00  0.5727E+00  0.5729E+00  0.5727E+00  0.5729E+00  0.5287E-03  0.5292E-03  0.5287E-03  0.5292E-03  0.6026E-03  0.6029E-03  0.5287E-03  0.5292E-03  0.6026E-03  0.6029E-03
    -22.000  0.2623E-02  0.2623E-02  0.4009E+00  0.4010E+00  0.4009E+00  0.4010E+00  0.4009E+00  0.4010E+00  0.4942E-03  0.4945E-03  0.4942E-03  0.4945E-03  0.4282E-03  0.4285E-03  0.4942E-03  0.4945E-03  0.4282E-03  0.4285E-03
    -21.860  0.2198E-02  0.2200E-02  0.2804E+00  0.2806E+00  0.2804E+00  0.2806E+00  0.2804E+00  0.2806E+00  0.4123E-03  0.4125E-03  0.4123E-03  0.4125E-03  0.2451E-03  0.2455E-03  0.4123E-03  0.4125E-03  0.2451E-03  0.2455E-03
    -21.720  0.1242E-02  0.1241E-02  0.2874E+00  0.2872E+00  0.2874E+00  0.2872E+00  0.2874E+00  0.2872E+00  0.6226E-03  0.6224E-03  0.6226E-03  0.6224E-03  0.1917E-03  0.1915E-03  0.6226E-03  0.6224E-03  0.1917E-03  0.1915E-03
    -21.580  0.1657E-02  0.1658E-02  0.4488E+00  0.4485E+00  0.4488E+00  0.4485E+00  0.4488E+00  0.4485E+00  0.9204E-03  0.9202E-03  0.9204E-03  0.9202E-03  0.4022E-03  0.4018E-03  0.9204E-03  0.9202E-03  0.4022E-03  0.4018E-03
    -21.440  0.1144E-02  0.1145E-02  0.5753E+00  0.5752E+00  0.5753E+00  0.5752E+00  0.5753E+00  0.5752E+00  0.8846E-03  0.8853E-03  0.8846E-03  0.8853E-03  0.6743E-03  0.6742E-03  0.8846E-03  0.8853E-03  0.6743E-03  0.6742E-03
    -21.300  0.8800E-03  0.8800E-03  0.8060E+00  0.8055E+00  0.8060E+00  0.8055E+00  0.8060E+00  0.8055E+00  0.8902E-03  0.8901E-03  0.8902E-03  0.8901E-03  0.9820E-03  0.9817E-03  0.8902E-03  0.8901E-03  0.9820E-03  0.9817E-03
    -21.159  0.7326E-03  0.7334E-03  0.8868E+00  0.8868E+00  0.8868E+00  0.8868E+00  0.8868E+00  0.8868E+00  0.8034E-03  0.8040E-03  0.8034E-03  0.8040E-03  0.8951E-03  0.8957E-03  0.8034E-03  0.8040E-03  0.8951E-03  0.8957E-03
    -21.019  0.4142E-03  0.4144E-03  0.9402E+00  0.9403E+00  0.9402E+00  0.9403E+00  0.9402E+00  0.9403E+00  0.5828E-03  0.5833E-03  0.5828E-03  0.5833E-03  0.5783E-03  0.5785E-03  0.5828E-03  0.5833E-03  0.5783E-03  0.5785E-03
    -20.879  0.2297E-03  0.2301E-03  0.6594E+00  0.6601E+00  0.6594E+00  0.6601E+00  0.6594E+00  0.6601E+00  0.2681E-03  0.2684E-03  0.2681E-03  0.2684E-03  0.2058E-03  0.2061E-03  0.2681E-03  0.2684E-03  0.2058E-03  0.2061E-03
    -20.739  0.3503E-04  0.3517E-04  0.1984E+00  0.1990E+00  0.1984E+00  0.1990E+00  0.1984E+00  0.1990E+00  0.5388E-04  0.5402E-04  0.5388E-04  0.5402E-04  0.3291E-04  0.3298E-04  0.5388E-04  0.5402E-04  0.3291E-04  0.3298E-04
    -20.599  0.1527E-05  0.1534E-05  0.1872E-01  0.1880E-01  0.1872E-01  0.1880E-01  0.1872E-01  0.1880E-01  0.3605E-05  0.3618E-05  0.3605E-05  0.3618E-05  0.1894E-05  0.1899E-05  0.3605E-05  0.3618E-05  0.1894E-05  0.1899E-05
    -20.459  0.1973E-15  0.1047E-16  0.4762E-03  0.4783E-03  0.4762E-03  0.4783E-03  0.4762E-03  0.4783E-03  0.5831E-12  0.1596E-12  0.5831E-12  0.1596E-12  0.1315E-07  0.1313E-07  0.5831E-12  0.1596E-12  0.1315E-07  0.1313E-07
    -20.319  0.0000E+00  0.0000E+00  0.0000E+00  0.0000E+00  0.0000E+00  0.0000E+00  0.0000E+00  0.0000E+00  0.0000E+00  0.0000E+00  0.0000E+00  0.0000E+00  0.0000E+00  0.0000E+00  0.0000E+00  0.0000E+00  0.0000E+00  0.0000E+00
    -20.179  0.0000E+00  0.0000E+00  0.0000E+00  0.0000E+00  0.0000E+00  0.0000E+00  0.0000E+00  0.0000E+00  0.0000E+00  0.0000E+00  0.0000E+00  0.0000E+00  0.0000E+00  0.0000E+00  0.0000E+00  0.0000E+00  0.0000E+00  0.0000E+00
    -20.039  0.0000E+00  0.0000E+00  0.0000E+00  0.0000E+00  0.0000E+00  0.0000E+00  0.0000E+00  0.0000E+00  0.0000E+00  0.0000E+00  0.0000E+00  0.0000E+00  0.0000E+00  0.0000E+00  0.0000E+00  0.0000E+00  0.0000E+00  0.0000E+00
    -19.899  0.0000E+00  0.0000E+00  0.0000E+00  0.0000E+00  0.0000E+00  0.0000E+00  0.0000E+00  0.0000E+00  0.0000E+00  0.0000E+00  0.0000E+00  0.0000E+00  0.0000E+00  0.0000E+00  0.0000E+00  0.0000E+00  0.0000E+00  0.0000E+00
    -19.759  0.0000E+00  0.0000E+00  0.0000E+00  0.0000E+00  0.0000E+00  0.0000E+00  0.0000E+00  0.0000E+00  0.0000E+00  0.0000E+00  0.0000E+00  0.0000E+00  0.0000E+00  0.0000E+00  0.0000E+00  0.0000E+00  0.0000E+00  0.0000E+00
    -19.619  0.0000E+00  0.0000E+00  0.0000E+00  0.0000E+00  0.0000E+00  0.0000E+00  0.0000E+00  0.0000E+00  0.0000E+00  0.0000E+00  0.0000E+00  0.0000E+00  0.0000E+00  0.0000E+00  0.0000E+00  0.0000E+00  0.0000E+00  0.0000E+00
    -19.479  0.0000E+00  0.0000E+00  0.0000E+00  0.0000E+00  0.0000E+00  0.0000E+00  0.0000E+00  0.0000E+00  0.0000E+00  0.0000E+00  0.0000E+00  0.0000E+00  0.0000E+00  0.0000E+00  0.0000E+00  0.0000E+00  0.0000E+00  0.0000E+00
    -19.339  0.0000E+00  0.0000E+00  0.0000E+00  0.0000E+00  0.0000E+00  0.0000E+00  0.0000E+00  0.0000E+00  0.0000E+00  0.0000E+00  0.0000E+00  0.0000E+00  0.0000E+00  0.0000E+00  0.0000E+00  0.0000E+00  0.0000E+00  0.0000E+00
    -19.199  0.0000E+00  0.0000E+00  0.0000E+00  0.0000E+00  0.0000E+00  0.0000E+00  0.0000E+00  0.0000E+00  0.0000E+00  0.0000E+00  0.0000E+00  0.0000E+00  0.0000E+00  0.0000E+00  0.0000E+00  0.0000E+00  0.0000E+00  0.0000E+00
    -19.059  0.0000E+00  0.0000E+00  0.0000E+00  0.0000E+00  0.0000E+00  0.0000E+00  0.0000E+00  0.0000E+00  0.0000E+00  0.0000E+00  0.0000E+00  0.0000E+00  0.0000E+00  0.0000E+00  0.0000E+00  0.0000E+00  0.0000E+00  0.0000E+00
    -18.918  0.0000E+00  0.0000E+00  0.0000E+00  0.0000E+00  0.0000E+00  0.0000E+00  0.0000E+00  0.0000E+00  0.0000E+00  0.0000E+00  0.0000E+00  0.0000E+00  0.0000E+00  0.0000E+00  0.0000E+00  0.0000E+00  0.0000E+00  0.0000E+00
    -18.778  0.0000E+00  0.0000E+00  0.0000E+00  0.0000E+00  0.0000E+00  0.0000E+00  0.0000E+00  0.0000E+00  0.0000E+00  0.0000E+00  0.0000E+00  0.0000E+00  0.0000E+00  0.0000E+00  0.0000E+00  0.0000E+00  0.0000E+00  0.0000E+00
    -18.638  0.0000E+00  0.0000E+00  0.0000E+00  0.0000E+00  0.0000E+00  0.0000E+00  0.0000E+00  0.0000E+00  0.0000E+00  0.0000E+00  0.0000E+00  0.0000E+00  0.0000E+00  0.0000E+00  0.0000E+00  0.0000E+00  0.0000E+00  0.0000E+00
    -18.498  0.0000E+00  0.0000E+00  0.0000E+00  0.0000E+00  0.0000E+00  0.0000E+00  0.0000E+00  0.0000E+00  0.0000E+00  0.0000E+00  0.0000E+00  0.0000E+00  0.0000E+00  0.0000E+00  0.0000E+00  0.0000E+00  0.0000E+00  0.0000E+00
    -18.358  0.0000E+00  0.0000E+00  0.0000E+00  0.0000E+00  0.0000E+00  0.0000E+00  0.0000E+00  0.0000E+00  0.0000E+00  0.0000E+00  0.0000E+00  0.0000E+00  0.0000E+00  0.0000E+00  0.0000E+00  0.0000E+00  0.0000E+00  0.0000E+00
    -18.218  0.0000E+00  0.0000E+00  0.0000E+00  0.0000E+00  0.0000E+00  0.0000E+00  0.0000E+00  0.0000E+00  0.0000E+00  0.0000E+00  0.0000E+00  0.0000E+00  0.0000E+00  0.0000E+00  0.0000E+00  0.0000E+00  0.0000E+00  0.0000E+00
    -18.078  0.0000E+00  0.0000E+00  0.0000E+00  0.0000E+00  0.0000E+00  0.0000E+00  0.0000E+00  0.0000E+00  0.0000E+00  0.0000E+00  0.0000E+00  0.0000E+00  0.0000E+00  0.0000E+00  0.0000E+00  0.0000E+00  0.0000E+00  0.0000E+00
    -17.938  0.0000E+00  0.0000E+00  0.0000E+00  0.0000E+00  0.0000E+00  0.0000E+00  0.0000E+00  0.0000E+00  0.0000E+00  0.0000E+00  0.0000E+00  0.0000E+00  0.0000E+00  0.0000E+00  0.0000E+00  0.0000E+00  0.0000E+00  0.0000E+00
    -17.798  0.0000E+00  0.0000E+00  0.0000E+00  0.0000E+00  0.0000E+00  0.0000E+00  0.0000E+00  0.0000E+00  0.0000E+00  0.0000E+00  0.0000E+00  0.0000E+00  0.0000E+00  0.0000E+00  0.0000E+00  0.0000E+00  0.0000E+00  0.0000E+00
    -17.658  0.0000E+00  0.0000E+00  0.0000E+00  0.0000E+00  0.0000E+00  0.0000E+00  0.0000E+00  0.0000E+00  0.0000E+00  0.0000E+00  0.0000E+00  0.0000E+00  0.0000E+00  0.0000E+00  0.0000E+00  0.0000E+00  0.0000E+00  0.0000E+00
    -17.518  0.0000E+00  0.0000E+00  0.0000E+00  0.0000E+00  0.0000E+00  0.0000E+00  0.0000E+00  0.0000E+00  0.0000E+00  0.0000E+00  0.0000E+00  0.0000E+00  0.0000E+00  0.0000E+00  0.0000E+00  0.0000E+00  0.0000E+00  0.0000E+00