   8   8   1   0
  0.1521167E+02  0.4955517E-09  0.4955517E-09  0.4955517E-09  0.5000000E-15
  1.000000000000000E-004
  CAR 
 unknown system                          
      9.48112312    -29.41632681  301      4.87609030      1.00000000
    -29.416  0.0000E+00  0.0000E+00  0.0000E+00  0.0000E+00
    -29.287  0.0000E+00  0.0000E+00  0.0000E+00  0.0000E+00
    -29.157  0.0000E+00  0.0000E+00  0.0000E+00  0.0000E+00
    -29.027  0.0000E+00  0.0000E+00  0.0000E+00  0.0000E+00
    -28.898  0.0000E+00  0.0000E+00  0.0000E+00  0.0000E+00
    -28.768  0.0000E+00  0.0000E+00  0.0000E+00  0.0000E+00
    -28.638  0.0000E+00  0.0000E+00  0.0000E+00  0.0000E+00
    -28.509  0.0000E+00  0.0000E+00  0.0000E+00  0.0000E+00
    -28.379  0.0000E+00  0.0000E+00  0.0000E+00  0.0000E+00
    -28.249  0.0000E+00  0.0000E+00  0.0000E+00  0.0000E+00
    -28.120  0.7161E-03  0.7212E-03  0.9285E-04  0.9350E-04
    -27.990  0.1361E-01  0.1370E-01  0.1857E-02  0.1870E-02
    -27.860  0.1822E+00  0.1835E+00  0.2548E-01  0.2566E-01
    -27.731  0.2252E+01  0.2267E+01  0.3175E+00  0.3196E+00
    -27.601  0.1641E+02  0.1648E+02  0.2445E+01  0.2456E+01
    -27.471  0.3866E+02  0.3869E+02  0.7457E+01  0.7473E+01
    -27.342  0.2941E+02  0.2933E+02  0.1127E+02  0.1128E+02
    -27.212  0.5134E+01  0.5102E+01  0.1194E+02  0.1194E+02
    -27.082  0.3700E+00  0.3674E+00  0.1200E+02  0.1200E+02
    -26.953  0.0000E+00  0.0000E+00  0.1200E+02  0.1200E+02
    -26.823  0.0000E+00  0.0000E+00  0.1200E+02  0.1200E+02
    -26.694  0.0000E+00  0.0000E+00  0.1200E+02  0.1200E+02
    -26.564  0.0000E+00  0.0000E+00  0.1200E+02  0.1200E+02
    -26.434  0.0000E+00  0.0000E+00  0.1200E+02  0.1200E+02
    -26.305  0.0000E+00  0.0000E+00  0.1200E+02  0.1200E+02
    -26.175  0.0000E+00  0.0000E+00  0.1200E+02  0.1200E+02
    -26.045  0.0000E+00  0.0000E+00  0.1200E+02  0.1200E+02
    -25.916  0.0000E+00  0.0000E+00  0.1200E+02  0.1200E+02
    -25.786  0.0000E+00  0.0000E+00  0.1200E+02  0.1200E+02
    -25.656  0.0000E+00  0.0000E+00  0.1200E+02  0.1200E+02
    -25.527  0.0000E+00  0.0000E+00  0.1200E+02  0.1200E+02
    -25.397  0.0000E+00  0.0000E+00  0.1200E+02  0.1200E+02
    -25.267  0.0000E+00  0.0000E+00  0.1200E+02  0.1200E+02
    -25.138  0.0000E+00  0.0000E+00  0.1200E+02  0.1200E+02
    -25.008  0.0000E+00  0.0000E+00  0.1200E+02  0.1200E+02
    -24.878  0.0000E+00  0.0000E+00  0.1200E+02  0.1200E+02
    -24.749  0.0000E+00  0.0000E+00  0.1200E+02  0.1200E+02
    -24.619  0.0000E+00  0.0000E+00  0.1200E+02  0.1200E+02
    -24.489  0.0000E+00  0.0000E+00  0.1200E+02  0.1200E+02
    -24.360  0.0000E+00  0.0000E+00  0.1200E+02  0.1200E+02
    -24.230  0.0000E+00  0.0000E+00  0.1200E+02  0.1200E+02
    -24.100  0.0000E+00  0.0000E+00  0.1200E+02  0.1200E+02
    -23.971  0.0000E+00  0.0000E+00  0.1200E+02  0.1200E+02
    -23.841  0.0000E+00  0.0000E+00  0.1200E+02  0.1200E+02
    -23.711  0.0000E+00  0.0000E+00  0.1200E+02  0.1200E+02
    -23.582  0.0000E+00  0.0000E+00  0.1200E+02  0.1200E+02
    -23.452  0.0000E+00  0.0000E+00  0.1200E+02  0.1200E+02
    -23.322  0.0000E+00  0.0000E+00  0.1200E+02  0.1200E+02
    -23.193  0.0000E+00  0.0000E+00  0.1200E+02  0.1200E+02
    -23.063  0.0000E+00  0.0000E+00  0.1200E+02  0.1200E+02
    -22.933  0.0000E+00  0.0000E+00  0.1200E+02  0.1200E+02
    -22.804  0.0000E+00  0.0000E+00  0.1200E+02  0.1200E+02
    -22.674  0.0000E+00  0.0000E+00  0.1200E+02  0.1200E+02
    -22.544  0.0000E+00  0.0000E+00  0.1200E+02  0.1200E+02
    -22.415  0.0000E+00  0.0000E+00  0.1200E+02  0.1200E+02
    -22.285  0.0000E+00  0.0000E+00  0.1200E+02  0.1200E+02
    -22.155  0.0000E+00  0.0000E+00  0.1200E+02  0.1200E+02
    -22.026  0.0000E+00  0.0000E+00  0.1200E+02  0.1200E+02
    -21.896  0.0000E+00  0.0000E+00  0.1200E+02  0.1200E+02
    -21.766  0.0000E+00  0.0000E+00  0.1200E+02  0.1200E+02
    -21.637  0.0000E+00  0.0000E+00  0.1200E+02  0.1200E+02
    -21.507  0.0000E+00  0.0000E+00  0.1200E+02  0.1200E+02
    -21.378  0.0000E+00  0.0000E+00  0.1200E+02  0.1200E+02
    -21.248  0.0000E+00  0.0000E+00  0.1200E+02  0.1200E+02
    -21.118  0.0000E+00  0.0000E+00  0.1200E+02  0.1200E+02
    -20.989  0.0000E+00  0.0000E+00  0.1200E+02  0.1200E+02
    -20.859  0.0000E+00  0.0000E+00  0.1200E+02  0.1200E+02
    -20.729  0.0000E+00  0.0000E+00  0.1200E+02  0.1200E+02
    -20.600  0.0000E+00  0.0000E+00  0.1200E+02  0.1200E+02
    -20.470  0.0000E+00  0.0000E+00  0.1200E+02  0.1200E+02
    -20.340  0.0000E+00  0.0000E+00  0.1200E+02  0.1200E+02
    -20.211  0.0000E+00  0.0000E+00  0.1200E+02  0.1200E+02
    -20.081  0.0000E+00  0.0000E+00  0.1200E+02  0.1200E+02
    -19.951  0.0000E+00  0.0000E+00  0.1200E+02  0.1200E+02
    -19.822  0.0000E+00  0.0000E+00  0.1200E+02  0.1200E+02
    -19.692  0.0000E+00  0.0000E+00  0.1200E+02  0.1200E+02
    -19.562  0.0000E+00  0.0000E+00  0.1200E+02  0.1200E+02
    -19.433  0.0000E+00  0.0000E+00  0.1200E+02  0.1200E+02
    -19.303  0.0000E+00  0.0000E+00  0.1200E+02  0.1200E+02
    -19.173  0.0000E+00  0.0000E+00  0.1200E+02  0.1200E+02
    -19.044  0.0000E+00  0.0000E+00  0.1200E+02  0.1200E+02
    -18.914  0.0000E+00  0.0000E+00  0.1200E+02  0.1200E+02
    -18.784  0.0000E+00  0.0000E+00  0.1200E+02  0.1200E+02
    -18.655  0.0000E+00  0.0000E+00  0.1200E+02  0.1200E+02
    -18.525  0.0000E+00  0.0000E+00  0.1200E+02  0.1200E+02
    -18.395  0.0000E+00  0.0000E+00  0.1200E+02  0.1200E+02
    -18.266  0.0000E+00  0.0000E+00  0.1200E+02  0.1200E+02
    -18.136  0.0000E+00  0.0000E+00  0.1200E+02  0.1200E+02
    -18.006  0.0000E+00  0.0000E+00  0.1200E+02  0.1200E+02
    -17.877  0.0000E+00  0.0000E+00  0.1200E+02  0.1200E+02
    -17.747  0.0000E+00  0.0000E+00  0.1200E+02  0.1200E+02
    -17.617  0.0000E+00  0.0000E+00  0.1200E+02  0.1200E+02
    -17.488  0.0000E+00  0.0000E+00  0.1200E+02  0.1200E+02
    -17.358  0.0000E+00  0.0000E+00  0.1200E+02  0.1200E+02
    -17.228  0.0000E+00  0.0000E+00  0.1200E+02  0.1200E+02
    -17.099  0.0000E+00  0.0000E+00  0.1200E+02  0.1200E+02
    -16.969  0.0000E+00  0.0000E+00  0.1200E+02  0.1200E+02
    -16.839  0.0000E+00  0.0000E+00  0.1200E+02  0.1200E+02
    -16.710  0.0000E+00  0.0000E+00  0.1200E+02  0.1200E+02
    -16.580  0.0000E+00  0.0000E+00  0.1200E+02  0.1200E+02
    -16.451  0.0000E+00  0.0000E+00  0.1200E+02  0.1200E+02
    -16.321  0.0000E+00  0.0000E+00  0.1200E+02  0.1200E+02
    -16.191  0.0000E+00  0.0000E+00  0.1200E+02  0.1200E+02
    -16.062  0.0000E+00  0.0000E+00  0.1200E+02  0.1200E+02
    -15.932  0.0000E+00  0.0000E+00  0.1200E+02  0.1200E+02
    -15.802  0.0000E+00  0.0000E+00  0.1200E+02  0.1200E+02
    -15.673  0.0000E+00  0.0000E+00  0.1200E+02  0.1200E+02
    -15.543  0.0000E+00  0.0000E+00  0.1200E+02  0.1200E+02
    -15.413  0.0000E+00  0.0000E+00  0.1200E+02  0.1200E+02
    -15.284  0.0000E+00  0.0000E+00  0.1200E+02  0.1200E+02
    -15.154  0.0000E+00  0.0000E+00  0.1200E+02  0.1200E+02
    -15.024  0.0000E+00  0.0000E+00  0.1200E+02  0.1200E+02
    -14.895  0.0000E+00  0.0000E+00  0.1200E+02  0.1200E+02
    -14.765  0.0000E+00  0.0000E+00  0.1200E+02  0.1200E+02
    -14.635  0.0000E+00  0.0000E+00  0.1200E+02  0.1200E+02
    -14.506  0.0000E+00  0.0000E+00  0.1200E+02  0.1200E+02
    -14.376  0.0000E+00  0.0000E+00  0.1200E+02  0.1200E+02
    -14.246  0.0000E+00  0.0000E+00  0.1200E+02  0.1200E+02
    -14.117  0.0000E+00  0.0000E+00  0.1200E+02  0.1200E+02
    -13.987  0.0000E+00  0.0000E+00  0.1200E+02  0.1200E+02
    -13.857  0.0000E+00  0.0000E+00  0.1200E+02  0.1200E+02
    -13.728  0.0000E+00  0.0000E+00  0.1200E+02  0.1200E+02
    -13.598  0.0000E+00  0.0000E+00  0.1200E+02  0.1200E+02
    -13.468  0.0000E+00  0.0000E+00  0.1200E+02  0.1200E+02
    -13.339  0.0000E+00  0.0000E+00  0.1200E+02  0.1200E+02
    -13.209  0.0000E+00  0.0000E+00  0.1200E+02  0.1200E+02
    -13.079  0.0000E+00  0.0000E+00  0.1200E+02  0.1200E+02
    -12.950  0.0000E+00  0.0000E+00  0.1200E+02  0.1200E+02
    -12.820  0.0000E+00  0.0000E+00  0.1200E+02  0.1200E+02
    -12.690  0.0000E+00  0.0000E+00  0.1200E+02  0.1200E+02
    -12.561  0.0000E+00  0.0000E+00  0.1200E+02  0.1200E+02
    -12.431  0.0000E+00  0.0000E+00  0.1200E+02  0.1200E+02
    -12.301  0.0000E+00  0.0000E+00  0.1200E+02  0.1200E+02
    -12.172  0.0000E+00  0.0000E+00  0.1200E+02  0.1200E+02
    -12.042  0.0000E+00  0.0000E+00  0.1200E+02  0.1200E+02
    -11.912  0.0000E+00  0.0000E+00  0.1200E+02  0.1200E+02
    -11.783  0.0000E+00  0.0000E+00  0.1200E+02  0.1200E+02
    -11.653  0.0000E+00  0.0000E+00  0.1200E+02  0.1200E+02
    -11.523  0.0000E+00  0.0000E+00  0.1200E+02  0.1200E+02
    -11.394  0.0000E+00  0.0000E+00  0.1200E+02  0.1200E+02
    -11.264  0.0000E+00  0.0000E+00  0.1200E+02  0.1200E+02
    -11.135  0.0000E+00  0.0000E+00  0.1200E+02  0.1200E+02
    -11.005  0.0000E+00  0.0000E+00  0.1200E+02  0.1200E+02
    -10.875  0.0000E+00  0.0000E+00  0.1200E+02  0.1200E+02
    -10.746  0.0000E+00  0.0000E+00  0.1200E+02  0.1200E+02
    -10.616  0.0000E+00  0.0000E+00  0.1200E+02  0.1200E+02
    -10.486  0.0000E+00  0.0000E+00  0.1200E+02  0.1200E+02
    -10.357  0.0000E+00  0.0000E+00  0.1200E+02  0.1200E+02
    -10.227  0.0000E+00  0.0000E+00  0.1200E+02  0.1200E+02
    -10.097  0.0000E+00  0.0000E+00  0.1200E+02  0.1200E+02
     -9.968  0.0000E+00  0.0000E+00  0.1200E+02  0.1200E+02
     -9.838  0.0000E+00  0.0000E+00  0.1200E+02  0.1200E+02
     -9.708  0.0000E+00  0.0000E+00  0.1200E+02  0.1200E+02
     -9.579  0.0000E+00  0.0000E+00  0.1200E+02  0.1200E+02
     -9.449  0.0000E+00  0.0000E+00  0.1200E+02  0.1200E+02
     -9.319  0.0000E+00  0.0000E+00  0.1200E+02  0.1200E+02
     -9.190  0.0000E+00  0.0000E+00  0.1200E+02  0.1200E+02
     -9.060  0.0000E+00  0.0000E+00  0.1200E+02  0.1200E+02
     -8.930  0.0000E+00  0.0000E+00  0.1200E+02  0.1200E+02
     -8.801  0.0000E+00  0.0000E+00  0.1200E+02  0.1200E+02
     -8.671  0.0000E+00  0.0000E+00  0.1200E+02  0.1200E+02
     -8.541  0.0000E+00  0.0000E+00  0.1200E+02  0.1200E+02
     -8.412  0.0000E+00  0.0000E+00  0.1200E+02  0.1200E+02
     -8.282  0.0000E+00  0.0000E+00  0.1200E+02  0.1200E+02
     -8.152  0.0000E+00  0.0000E+00  0.1200E+02  0.1200E+02
     -8.023  0.0000E+00  0.0000E+00  0.1200E+02  0.1200E+02
     -7.893  0.0000E+00  0.0000E+00  0.1200E+02  0.1200E+02
     -7.763  0.0000E+00  0.0000E+00  0.1200E+02  0.1200E+02
     -7.634  0.0000E+00  0.0000E+00  0.1200E+02  0.1200E+02
     -7.504  0.2302E-05  0.2285E-05  0.1200E+02  0.1200E+02
     -7.374  0.2847E-04  0.2826E-04  0.1200E+02  0.1200E+02
     -7.245  0.4169E-03  0.4138E-03  0.1200E+02  0.1200E+02
     -7.115  0.5123E-02  0.5088E-02  0.1200E+02  0.1200E+02
     -6.985  0.3502E-01  0.3489E-01  0.1201E+02  0.1201E+02
     -6.856  0.9464E-01  0.9431E-01  0.1202E+02  0.1202E+02
     -6.726  0.2511E+00  0.2508E+00  0.1205E+02  0.1205E+02
     -6.596  0.3627E+00  0.3619E+00  0.1210E+02  0.1210E+02
     -6.467  0.4407E+00  0.4412E+00  0.1215E+02  0.1215E+02
     -6.337  0.4242E+00  0.4238E+00  0.1221E+02  0.1221E+02
     -6.208  0.4576E+00  0.4576E+00  0.1227E+02  0.1227E+02
     -6.078  0.7956E+00  0.7936E+00  0.1237E+02  0.1237E+02
     -5.948  0.9715E+00  0.9715E+00  0.1250E+02  0.1250E+02
     -5.819  0.1148E+01  0.1148E+01  0.1265E+02  0.1265E+02
     -5.689  0.1213E+01  0.1210E+01  0.1280E+02  0.1280E+02
     -5.559  0.2637E+01  0.2632E+01  0.1315E+02  0.1314E+02
     -5.430  0.3923E+01  0.3920E+01  0.1366E+02  0.1365E+02
     -5.300  0.3820E+01  0.3820E+01  0.1415E+02  0.1415E+02
     -5.170  0.4716E+01  0.4710E+01  0.1476E+02  0.1476E+02
     -5.041  0.5219E+01  0.5225E+01  0.1544E+02  0.1544E+02
     -4.911  0.2508E+01  0.2516E+01  0.1577E+02  0.1577E+02
     -4.781  0.1322E+01  0.1325E+01  0.1594E+02  0.1594E+02
     -4.652  0.4191E+00  0.4224E+00  0.1599E+02  0.1599E+02
     -4.522  0.3971E-01  0.4013E-01  0.1600E+02  0.1600E+02
     -4.392  0.0000E+00  0.0000E+00  0.1600E+02  0.1600E+02
     -4.263  0.0000E+00  0.0000E+00  0.1600E+02  0.1600E+02
     -4.133  0.0000E+00  0.0000E+00  0.1600E+02  0.1600E+02
     -4.003  0.0000E+00  0.0000E+00  0.1600E+02  0.1600E+02
     -3.874  0.0000E+00  0.0000E+00  0.1600E+02  0.1600E+02
     -3.744  0.0000E+00  0.0000E+00  0.1600E+02  0.1600E+02
     -3.614  0.0000E+00  0.0000E+00  0.1600E+02  0.1600E+02
     -3.485  0.0000E+00  0.0000E+00  0.1600E+02  0.1600E+02
     -3.355  0.0000E+00  0.0000E+00  0.1600E+02  0.1600E+02
     -3.225  0.0000E+00  0.0000E+00  0.1600E+02  0.1600E+02
     -3.096  0.0000E+00  0.0000E+00  0.1600E+02  0.1600E+02
     -2.966  0.0000E+00  0.0000E+00  0.1600E+02  0.1600E+02
     -2.836  0.0000E+00  0.0000E+00  0.1600E+02  0.1600E+02
     -2.707  0.0000E+00  0.0000E+00  0.1600E+02  0.1600E+02
     -2.577  0.0000E+00  0.0000E+00  0.1600E+02  0.1600E+02
     -2.447  0.0000E+00  0.0000E+00  0.1600E+02  0.1600E+02
     -2.318  0.0000E+00  0.0000E+00  0.1600E+02  0.1600E+02
     -2.188  0.0000E+00  0.0000E+00  0.1600E+02  0.1600E+02
     -2.058  0.0000E+00  0.0000E+00  0.1600E+02  0.1600E+02
     -1.929  0.0000E+00  0.0000E+00  0.1600E+02  0.1600E+02
     -1.799  0.0000E+00  0.0000E+00  0.1600E+02  0.1600E+02
     -1.669  0.0000E+00  0.0000E+00  0.1600E+02  0.1600E+02
     -1.540  0.0000E+00  0.0000E+00  0.1600E+02  0.1600E+02
     -1.410  0.0000E+00  0.0000E+00  0.1600E+02  0.1600E+02
     -1.281  0.7102E-04  0.7094E-04  0.1600E+02  0.1600E+02
     -1.151  0.8781E-03  0.8771E-03  0.1600E+02  0.1600E+02
     -1.021  0.1169E-01  0.1168E-01  0.1600E+02  0.1600E+02
     -0.892  0.1404E+00  0.1402E+00  0.1602E+02  0.1602E+02
     -0.762  0.7523E+00  0.7521E+00  0.1612E+02  0.1612E+02
     -0.632  0.6066E+00  0.6068E+00  0.1620E+02  0.1620E+02
     -0.503  0.4112E+00  0.4112E+00  0.1625E+02  0.1625E+02
     -0.373  0.7426E+00  0.7421E+00  0.1635E+02  0.1635E+02
     -0.243  0.2007E+01  0.2007E+01  0.1661E+02  0.1661E+02
     -0.114  0.1616E+01  0.1617E+01  0.1682E+02  0.1682E+02
      0.016  0.1126E+01  0.1125E+01  0.1696E+02  0.1696E+02
      0.146  0.2959E+01  0.2958E+01  0.1735E+02  0.1735E+02
      0.275  0.3303E+01  0.3304E+01  0.1777E+02  0.1777E+02
      0.405  0.1576E+01  0.1576E+01  0.1798E+02  0.1798E+02
      0.535  0.2307E+01  0.2306E+01  0.1828E+02  0.1828E+02
      0.664  0.3161E+01  0.3161E+01  0.1869E+02  0.1869E+02
      0.794  0.2265E+01  0.2265E+01  0.1898E+02  0.1898E+02
      0.924  0.1746E+01  0.1747E+01  0.1921E+02  0.1921E+02
      1.053  0.1727E+01  0.1727E+01  0.1944E+02  0.1943E+02
      1.183  0.4734E+01  0.4731E+01  0.2005E+02  0.2005E+02
      1.313  0.1001E+02  0.1001E+02  0.2135E+02  0.2135E+02
      1.442  0.8199E+01  0.8200E+01  0.2241E+02  0.2241E+02
      1.572  0.8202E+01  0.8203E+01  0.2348E+02  0.2348E+02
      1.702  0.6930E+01  0.6932E+01  0.2438E+02  0.2438E+02
      1.831  0.5059E+01  0.5061E+01  0.2503E+02  0.2503E+02
      1.961  0.2533E+01  0.2534E+01  0.2537E+02  0.2537E+02
      2.091  0.1612E+01  0.1612E+01  0.2558E+02  0.2558E+02
      2.220  0.2363E+01  0.2361E+01  0.2588E+02  0.2588E+02
      2.350  0.3660E+01  0.3658E+01  0.2636E+02  0.2636E+02
      2.480  0.4701E+01  0.4702E+01  0.2697E+02  0.2697E+02
      2.609  0.2754E+01  0.2755E+01  0.2733E+02  0.2733E+02
      2.739  0.1314E+01  0.1315E+01  0.2750E+02  0.2750E+02
      2.869  0.7438E+00  0.7444E+00  0.2760E+02  0.2760E+02
      2.998  0.4823E+00  0.4825E+00  0.2766E+02  0.2766E+02
      3.128  0.3541E+00  0.3540E+00  0.2770E+02  0.2770E+02
      3.258  0.8160E+00  0.8145E+00  0.2781E+02  0.2781E+02
      3.387  0.7220E+00  0.7227E+00  0.2790E+02  0.2790E+02
      3.517  0.7511E+00  0.7505E+00  0.2800E+02  0.2800E+02
      3.647  0.9344E+00  0.9352E+00  0.2812E+02  0.2812E+02
      3.776  0.4901E+00  0.4906E+00  0.2819E+02  0.2819E+02
      3.906  0.3371E+00  0.3377E+00  0.2823E+02  0.2823E+02
      4.035  0.1350E+01  0.1350E+01  0.2841E+02  0.2841E+02
      4.165  0.3696E+01  0.3695E+01  0.2888E+02  0.2888E+02
      4.295  0.3639E+01  0.3639E+01  0.2936E+02  0.2936E+02
      4.424  0.1566E+01  0.1568E+01  0.2956E+02  0.2956E+02
      4.554  0.1059E+01  0.1059E+01  0.2970E+02  0.2970E+02
      4.684  0.7385E+00  0.7379E+00  0.2979E+02  0.2979E+02
      4.813  0.1008E+01  0.1009E+01  0.2993E+02  0.2993E+02
      4.943  0.1242E+01  0.1241E+01  0.3009E+02  0.3009E+02
      5.073  0.3054E+01  0.3056E+01  0.3048E+02  0.3048E+02
      5.202  0.6447E+01  0.6445E+01  0.3132E+02  0.3132E+02
      5.332  0.3898E+01  0.3902E+01  0.3182E+02  0.3183E+02
      5.462  0.3143E+01  0.3137E+01  0.3223E+02  0.3223E+02
      5.591  0.2905E+01  0.2923E+01  0.3261E+02  0.3261E+02
      5.721  0.4164E+01  0.4166E+01  0.3315E+02  0.3315E+02
      5.851  0.3338E+01  0.3381E+01  0.3359E+02  0.3359E+02
      5.980  0.6045E+01  0.6078E+01  0.3437E+02  0.3438E+02
      6.110  0.8280E+01  0.8196E+01  0.3544E+02  0.3545E+02
      6.240  0.4264E+01  0.4312E+01  0.3600E+02  0.3601E+02
      6.369  0.4544E+01  0.4286E+01  0.3659E+02  0.3656E+02
      6.499  0.2919E+01  0.3083E+01  0.3697E+02  0.3696E+02
      6.629  0.4344E+01  0.4780E+01  0.3753E+02  0.3758E+02
      6.758  0.7956E+01  0.7606E+01  0.3857E+02  0.3857E+02
      6.888  0.6742E+01  0.5987E+01  0.3944E+02  0.3935E+02
      7.018  0.2635E+01  0.3104E+01  0.3978E+02  0.3975E+02
      7.147  0.7002E+00  0.8458E+00  0.3987E+02  0.3986E+02
      7.277  0.9355E-01  0.4589E+00  0.3989E+02  0.3992E+02
      7.407  0.3719E-01  0.1001E+00  0.3989E+02  0.3993E+02
      7.536  0.2445E+00  0.2157E-01  0.3992E+02  0.3994E+02
      7.666  0.4421E+00  0.1244E+00  0.3998E+02  0.3995E+02
      7.796  0.1300E+00  0.2757E+00  0.4000E+02  0.3999E+02
      7.925  0.1229E-01  0.7252E-01  0.4000E+02  0.4000E+02
      8.055  0.0000E+00  0.6458E-02  0.4000E+02  0.4000E+02
      8.185  0.0000E+00  0.0000E+00  0.4000E+02  0.4000E+02
      8.314  0.0000E+00  0.0000E+00  0.4000E+02  0.4000E+02
      8.444  0.0000E+00  0.0000E+00  0.4000E+02  0.4000E+02
      8.574  0.0000E+00  0.0000E+00  0.4000E+02  0.4000E+02
      8.703  0.0000E+00  0.0000E+00  0.4000E+02  0.4000E+02
      8.833  0.0000E+00  0.0000E+00  0.4000E+02  0.4000E+02
      8.962  0.0000E+00  0.0000E+00  0.4000E+02  0.4000E+02
      9.092  0.0000E+00  0.0000E+00  0.4000E+02  0.4000E+02
      9.222  0.0000E+00  0.0000E+00  0.4000E+02  0.4000E+02
      9.351  0.0000E+00  0.0000E+00  0.4000E+02  0.4000E+02
      9.481  0.0000E+00  0.0000E+00  0.4000E+02  0.4000E+02
      9.48112312    -29.41632681  301      4.87609030      1.00000000
    -29.416  0.0000E+00  0.0000E+00  0.0000E+00  0.0000E+00  0.0000E+00  0.0000E+00  0.0000E+00  0.0000E+00  0.0000E+00  0.0000E+00  0.0000E+00  0.0000E+00  0.0000E+00  0.0000E+00  0.0000E+00  0.0000E+00  0.0000E+00  0.0000E+00
    -29.287  0.0000E+00  0.0000E+00  0.0000E+00  0.0000E+00  0.0000E+00  0.0000E+00  0.0000E+00  0.0000E+00  0.0000E+00  0.0000E+00  0.0000E+00  0.0000E+00  0.0000E+00  0.0000E+00  0.0000E+00  0.0000E+00  0.0000E+00  0.0000E+00
    -29.157  0.0000E+00  0.0000E+00  0.0000E+00  0.0000E+00  0.0000E+00  0.0000E+00  0.0000E+00  0.0000E+00  0.0000E+00  0.0000E+00  0.0000E+00  0.0000E+00  0.0000E+00  0.0000E+00  0.0000E+00  0.0000E+00  0.0000E+00  0.0000E+00
    -29.027  0.0000E+00  0.0000E+00  0.0000E+00  0.0000E+00  0.0000E+00  0.0000E+00  0.0000E+00  0.0000E+00  0.0000E+00  0.0000E+00  0.0000E+00  0.0000E+00  0.0000E+00  0.0000E+00  0.0000E+00  0.0000E+00  0.0000E+00  0.0000E+00
    -28.898  0.0000E+00  0.0000E+00  0.0000E+00  0.0000E+00  0.0000E+00  0.0000E+00  0.0000E+00  0.0000E+00  0.0000E+00  0.0000E+00  0.0000E+00  0.0000E+00  0.0000E+00  0.0000E+00  0.0000E+00  0.0000E+00  0.0000E+00  0.0000E+00
    -28.768  0.0000E+00  0.0000E+00  0.0000E+00  0.0000E+00  0.0000E+00  0.0000E+00  0.0000E+00  0.0000E+00  0.0000E+00  0.0000E+00  0.0000E+00  0.0000E+00  0.0000E+00  0.0000E+00  0.0000E+00  0.0000E+00  0.0000E+00  0.0000E+00
    -28.638  0.0000E+00  0.0000E+00  0.0000E+00  0.0000E+00  0.0000E+00  0.0000E+00  0.0000E+00  0.0000E+00  0.0000E+00  0.0000E+00  0.0000E+00  0.0000E+00  0.0000E+00  0.0000E+00  0.0000E+00  0.0000E+00  0.0000E+00  0.0000E+00
    -28.509  0.0000E+00  0.0000E+00  0.0000E+00  0.0000E+00  0.0000E+00  0.0000E+00  0.0000E+00  0.0000E+00  0.0000E+00  0.0000E+00  0.0000E+00  0.0000E+00  0.0000E+00  0.0000E+00  0.0000E+00  0.0000E+00  0.0000E+00  0.0000E+00
    -28.379  0.0000E+00  0.0000E+00  0.0000E+00  0.0000E+00  0.0000E+00  0.0000E+00  0.0000E+00  0.0000E+00  0.0000E+00  0.0000E+00  0.0000E+00  0.0000E+00  0.0000E+00  0.0000E+00  0.0000E+00  0.0000E+00  0.0000E+00  0.0000E+00
    -28.249  0.0000E+00  0.0000E+00  0.0000E+00  0.0000E+00  0.0000E+00  0.0000E+00  0.0000E+00  0.0000E+00  0.0000E+00  0.0000E+00  0.0000E+00  0.0000E+00  0.0000E+00  0.0000E+00  0.0000E+00  0.0000E+00  0.0000E+00  0.0000E+00
    -28.120  0.3099E-08  0.3121E-08  0.5857E-04  0.5898E-04  0.5857E-04  0.5898E-04  0.5857E-04  0.5898E-04  0.8785E-09  0.8845E-09  0.8785E-09  0.8845E-09  0.7447E-09  0.7505E-09  0.8785E-09  0.8845E-09  0.7447E-09  0.7505E-09
    -27.990  0.7808E-07  0.7863E-07  0.1114E-02  0.1122E-02  0.1114E-02  0.1122E-02  0.1114E-02  0.1122E-02  0.2024E-07  0.2038E-07  0.2024E-07  0.2038E-07  0.1541E-07  0.1553E-07  0.2024E-07  0.2038E-07  0.1541E-07  0.1553E-07
    -27.860  0.1002E-05  0.1009E-05  0.1493E-01  0.1503E-01  0.1493E-01  0.1503E-01  0.1493E-01  0.1503E-01  0.2654E-06  0.2672E-06  0.2654E-06  0.2672E-06  0.2030E-06  0.2044E-06  0.2654E-06  0.2672E-06  0.2030E-06  0.2044E-06
    -27.731  0.1257E-04  0.1266E-04  0.1845E+00  0.1857E+00  0.1845E+00  0.1857E+00  0.1845E+00  0.1857E+00  0.3332E-05  0.3354E-05  0.3332E-05  0.3354E-05  0.2525E-05  0.2542E-05  0.3332E-05  0.3354E-05  0.2525E-05  0.2542E-05
    -27.601  0.9537E-04  0.9574E-04  0.1346E+01  0.1351E+01  0.1346E+01  0.1351E+01  0.1346E+01  0.1351E+01  0.2652E-04  0.2663E-04  0.2652E-04  0.2663E-04  0.1887E-04  0.1895E-04  0.2652E-04  0.2663E-04  0.1887E-04  0.1895E-04
    -27.471  0.1676E-03  0.1674E-03  0.3180E+01  0.3183E+01  0.3180E+01  0.3183E+01  0.3180E+01  0.3183E+01  0.6574E-04  0.6579E-04  0.6574E-04  0.6579E-04  0.4474E-04  0.4478E-04  0.6574E-04  0.6579E-04  0.4474E-04  0.4478E-04
    -27.342  0.6241E-04  0.6213E-04  0.2425E+01  0.2418E+01  0.2425E+01  0.2418E+01  0.2425E+01  0.2418E+01  0.3986E-04  0.3974E-04  0.3986E-04  0.3974E-04  0.3005E-04  0.2997E-04  0.3986E-04  0.3974E-04  0.3005E-04  0.2997E-04
    -27.212  0.7567E-05  0.7516E-05  0.4237E+00  0.4211E+00  0.4237E+00  0.4211E+00  0.4237E+00  0.4211E+00  0.5871E-05  0.5837E-05  0.5871E-05  0.5837E-05  0.4542E-05  0.4517E-05  0.5871E-05  0.5837E-05  0.4542E-05  0.4517E-05
    -27.082  0.2719E-06  0.2699E-06  0.3055E-01  0.3034E-01  0.3055E-01  0.3034E-01  0.3055E-01  0.3034E-01  0.3465E-06  0.3444E-06  0.3465E-06  0.3444E-06  0.2916E-06  0.2899E-06  0.3465E-06  0.3444E-06  0.2916E-06  0.2899E-06
    -26.953  0.0000E+00  0.0000E+00  0.0000E+00  0.0000E+00  0.0000E+00  0.0000E+00  0.0000E+00  0.0000E+00  0.0000E+00  0.0000E+00  0.0000E+00  0.0000E+00  0.0000E+00  0.0000E+00  0.0000E+00  0.0000E+00  0.0000E+00  0.0000E+00
    -26.823  0.0000E+00  0.0000E+00  0.0000E+00  0.0000E+00  0.0000E+00  0.0000E+00  0.0000E+00  0.0000E+00  0.0000E+00  0.0000E+00  0.0000E+00  0.0000E+00  0.0000E+00  0.0000E+00  0.0000E+00  0.0000E+00  0.0000E+00  0.0000E+00
    -26.694  0.0000E+00  0.0000E+00  0.0000E+00  0.0000E+00  0.0000E+00  0.0000E+00  0.0000E+00  0.0000E+00  0.0000E+00  0.0000E+00  0.0000E+00  0.0000E+00  0.0000E+00  0.0000E+00  0.0000E+00  0.0000E+00  0.0000E+00  0.0000E+00
    -26.564  0.0000E+00  0.0000E+00  0.0000E+00  0.0000E+00  0.0000E+00  0.0000E+00  0.0000E+00  0.0000E+00  0.0000E+00  0.0000E+00  0.0000E+00  0.0000E+00  0.0000E+00  0.0000E+00  0.0000E+00  0.0000E+00  0.0000E+00  0.0000E+00
    -26.434  0.0000E+00  0.0000E+00  0.0000E+00  0.0000E+00  0.0000E+00  0.0000E+00  0.0000E+00  0.0000E+00  0.0000E+00  0.0000E+00  0.0000E+00  0.0000E+00  0.0000E+00  0.0000E+00  0.0000E+00  0.0000E+00  0.0000E+00  0.0000E+00
    -26.305  0.0000E+00  0.0000E+00  0.0000E+00  0.0000E+00  0.0000E+00  0.0000E+00  0.0000E+00  0.0000E+00  0.0000E+00  0.0000E+00  0.0000E+00  0.0000E+00  0.0000E+00  0.0000E+00  0.0000E+00  0.0000E+00  0.0000E+00  0.0000E+00
    -26.175  0.0000E+00  0.0000E+00  0.0000E+00  0.0000E+00  0.0000E+00  0.0000E+00  0.0000E+00  0.0000E+00  0.0000E+00  0.0000E+00  0.0000E+00  0.0000E+00  0.0000E+00  0.0000E+00  0.0000E+00  0.0000E+00  0.0000E+00  0.0000E+00
    -26.045  0.0000E+00  0.0000E+00  0.0000E+00  0.0000E+00  0.0000E+00  0.0000E+00  0.0000E+00  0.0000E+00  0.0000E+00  0.0000E+00  0.0000E+00  0.0000E+00  0.0000E+00  0.0000E+00  0.0000E+00  0.0000E+00  0.0000E+00  0.0000E+00
    -25.916  0.0000E+00  0.0000E+00  0.0000E+00  0.0000E+00  0.0000E+00  0.0000E+00  0.0000E+00  0.0000E+00  0.0000E+00  0.0000E+00  0.0000E+00  0.0000E+00  0.0000E+00  0.0000E+00  0.0000E+00  0.0000E+00  0.0000E+00  0.0000E+00
    -25.786  0.0000E+00  0.0000E+00  0.0000E+00  0.0000E+00  0.0000E+00  0.0000E+00  0.0000E+00  0.0000E+00  0.0000E+00  0.0000E+00  0.0000E+00  0.0000E+00  0.0000E+00  0.0000E+00  0.0000E+00  0.0000E+00  0.0000E+00  0.0000E+00
    -25.656  0.0000E+00  0.0000E+00  0.0000E+00  0.0000E+00  0.0000E+00  0.0000E+00  0.0000E+00  0.0000E+00  0.0000E+00  0.0000E+00  0.0000E+00  0.0000E+00  0.0000E+00  0.0000E+00  0.0000E+00  0.0000E+00  0.0000E+00  0.0000E+00
    -25.527  0.0000E+00  0.0000E+00  0.0000E+00  0.0000E+00  0.0000E+00  0.0000E+00  0.0000E+00  0.0000E+00  0.0000E+00  0.0000E+00  0.0000E+00  0.0000E+00  0.0000E+00  0.0000E+00  0.0000E+00  0.0000E+00  0.0000E+00  0.0000E+00
    -25.397  0.0000E+00  0.0000E+00  0.0000E+00  0.0000E+00  0.0000E+00  0.0000E+00  0.0000E+00  0.0000E+00  0.0000E+00  0.0000E+00  0.0000E+00  0.0000E+00  0.0000E+00  0.0000E+00  0.0000E+00  0.0000E+00  0.0000E+00  0.0000E+00
    -25.267  0.0000E+00  0.0000E+00  0.0000E+00  0.0000E+00  0.0000E+00  0.0000E+00  0.0000E+00  0.0000E+00  0.0000E+00  0.0000E+00  0.0000E+00  0.0000E+00  0.0000E+00  0.0000E+00  0.0000E+00  0.0000E+00  0.0000E+00  0.0000E+00
    -25.138  0.0000E+00  0.0000E+00  0.0000E+00  0.0000E+00  0.0000E+00  0.0000E+00  0.0000E+00  0.0000E+00  0.0000E+00  0.0000E+00  0.0000E+00  0.0000E+00  0.0000E+00  0.0000E+00  0.0000E+00  0.0000E+00  0.0000E+00  0.0000E+00
    -25.008  0.0000E+00  0.0000E+00  0.0000E+00  0.0000E+00  0.0000E+00  0.0000E+00  0.0000E+00  0.0000E+00  0.0000E+00  0.0000E+00  0.0000E+00  0.0000E+00  0.0000E+00  0.0000E+00  0.0000E+00  0.0000E+00  0.0000E+00  0.0000E+00
    -24.878  0.0000E+00  0.0000E+00  0.0000E+00  0.0000E+00  0.0000E+00  0.0000E+00  0.0000E+00  0.0000E+00  0.0000E+00  0.0000E+00  0.0000E+00  0.0000E+00  0.0000E+00  0.0000E+00  0.0000E+00  0.0000E+00  0.0000E+00  0.0000E+00
    -24.749  0.0000E+00  0.0000E+00  0.0000E+00  0.0000E+00  0.0000E+00  0.0000E+00  0.0000E+00  0.0000E+00  0.0000E+00  0.0000E+00  0.0000E+00  0.0000E+00  0.0000E+00  0.0000E+00  0.0000E+00  0.0000E+00  0.0000E+00  0.0000E+00
    -24.619  0.0000E+00  0.0000E+00  0.0000E+00  0.0000E+00  0.0000E+00  0.0000E+00  0.0000E+00  0.0000E+00  0.0000E+00  0.0000E+00  0.0000E+00  0.0000E+00  0.0000E+00  0.0000E+00  0.0000E+00  0.0000E+00  0.0000E+00  0.0000E+00
    -24.489  0.0000E+00  0.0000E+00  0.0000E+00  0.0000E+00  0.0000E+00  0.0000E+00  0.0000E+00  0.0000E+00  0.0000E+00  0.0000E+00  0.0000E+00  0.0000E+00  0.0000E+00  0.0000E+00  0.0000E+00  0.0000E+00  0.0000E+00  0.0000E+00
    -24.360  0.0000E+00  0.0000E+00  0.0000E+00  0.0000E+00  0.0000E+00  0.0000E+00  0.0000E+00  0.0000E+00  0.0000E+00  0.0000E+00  0.0000E+00  0.0000E+00  0.0000E+00  0.0000E+00  0.0000E+00  0.0000E+00  0.0000E+00  0.0000E+00
    -24.230  0.0000E+00  0.0000E+00  0.0000E+00  0.0000E+00  0.0000E+00  0.0000E+00  0.0000E+00  0.0000E+00  0.0000E+00  0.0000E+00  0.0000E+00  0.0000E+00  0.0000E+00  0.0000E+00  0.0000E+00  0.0000E+00  0.0000E+00  0.0000E+00
    -24.100  0.0000E+00  0.0000E+00  0.0000E+00  0.0000E+00  0.0000E+00  0.0000E+00  0.0000E+00  0.0000E+00  0.0000E+00  0.0000E+00  0.0000E+00  0.0000E+00  0.0000E+00  0.0000E+00  0.0000E+00  0.0000E+00  0.0000E+00  0.0000E+00
    -23.971  0.0000E+00  0.0000E+00  0.0000E+00  0.0000E+00  0.0000E+00  0.0000E+00  0.0000E+00  0.0000E+00  0.0000E+00  0.0000E+00  0.0000E+00  0.0000E+00  0.0000E+00  0.0000E+00  0.0000E+00  0.0000E+00  0.0000E+00  0.0000E+00
    -23.841  0.0000E+00  0.0000E+00  0.0000E+00  0.0000E+00  0.0000E+00  0.0000E+00  0.0000E+00  0.0000E+00  0.0000E+00  0.0000E+00  0.0000E+00  0.0000E+00  0.0000E+00  0.0000E+00  0.0000E+00  0.0000E+00  0.0000E+00  0.0000E+00
    -23.711  0.0000E+00  0.0000E+00  0.0000E+00  0.0000E+00  0.0000E+00  0.0000E+00  0.0000E+00  0.0000E+00  0.0000E+00  0.0000E+00  0.0000E+00  0.0000E+00  0.0000E+00  0.0000E+00  0.0000E+00  0.0000E+00  0.0000E+00  0.0000E+00
    -23.582  0.0000E+00  0.0000E+00  0.0000E+00  0.0000E+00  0.0000E+00  0.0000E+00  0.0000E+00  0.0000E+00  0.0000E+00  0.0000E+00  0.0000E+00  0.0000E+00  0.0000E+00  0.0000E+00  0.0000E+00  0.0000E+00  0.0000E+00  0.0000E+00
    -23.452  0.0000E+00  0.0000E+00  0.0000E+00  0.0000E+00  0.0000E+00  0.0000E+00  0.0000E+00  0.0000E+00  0.0000E+00  0.0000E+00  0.0000E+00  0.0000E+00  0.0000E+00  0.0000E+00  0.0000E+00  0.0000E+00  0.0000E+00  0.0000E+00
    -23.322  0.0000E+00  0.0000E+00  0.0000E+00  0.0000E+00  0.0000E+00  0.0000E+00  0.0000E+00  0.0000E+00  0.0000E+00  0.0000E+00  0.0000E+00  0.0000E+00  0.0000E+00  0.0000E+00  0.0000E+00  0.0000E+00  0.0000E+00  0.0000E+00
    -23.193  0.0000E+00  0.0000E+00  0.0000E+00  0.0000E+00  0.0000E+00  0.0000E+00  0.0000E+00  0.0000E+00  0.0000E+00  0.0000E+00  0.0000E+00  0.0000E+00  0.0000E+00  0.0000E+00  0.0000E+00  0.0000E+00  0.0000E+00  0.0000E+00
    -23.063  0.0000E+00  0.0000E+00  0.0000E+00  0.0000E+00  0.0000E+00  0.0000E+00  0.0000E+00  0.0000E+00  0.0000E+00  0.0000E+00  0.0000E+00  0.0000E+00  0.0000E+00  0.0000E+00  0.0000E+00  0.0000E+00  0.0000E+00  0.0000E+00
    -22.933  0.0000E+00  0.0000E+00  0.0000E+00  0.0000E+00  0.0000E+00  0.0000E+00  0.0000E+00  0.0000E+00  0.0000E+00  0.0000E+00  0.0000E+00  0.0000E+00  0.0000E+00  0.0000E+00  0.0000E+00  0.0000E+00  0.0000E+00  0.0000E+00