   8   8   1   0
  0.9492538E+01  0.4234714E-09  0.4234714E-09  0.4234714E-09  0.5000000E-15
  1.000000000000000E-004
  CAR 
 unknown system                          
     16.39991244    -25.06733605  301      9.61388095      1.00000000
    -25.067  0.0000E+00  0.0000E+00  0.0000E+00  0.0000E+00
    -24.929  0.0000E+00  0.0000E+00  0.0000E+00  0.0000E+00
    -24.791  0.0000E+00  0.0000E+00  0.0000E+00  0.0000E+00
    -24.653  0.0000E+00  0.0000E+00  0.0000E+00  0.0000E+00
    -24.514  0.0000E+00  0.0000E+00  0.0000E+00  0.0000E+00
    -24.376  0.0000E+00  0.0000E+00  0.0000E+00  0.0000E+00
    -24.238  0.0000E+00  0.0000E+00  0.0000E+00  0.0000E+00
    -24.100  0.0000E+00  0.0000E+00  0.0000E+00  0.0000E+00
    -23.962  0.0000E+00  0.0000E+00  0.0000E+00  0.0000E+00
    -23.823  0.0000E+00  0.0000E+00  0.0000E+00  0.0000E+00
    -23.685  0.5982E-04  0.5980E-04  0.8269E-05  0.8265E-05
    -23.547  0.1037E-02  0.1036E-02  0.1516E-03  0.1515E-03
    -23.409  0.1760E-01  0.1760E-01  0.2585E-02  0.2584E-02
    -23.270  0.2453E+00  0.2452E+00  0.3649E-01  0.3647E-01
    -23.132  0.1527E+01  0.1527E+01  0.2476E+00  0.2475E+00
    -22.994  0.4694E+01  0.4694E+01  0.8964E+00  0.8963E+00
    -22.856  0.8726E+01  0.8726E+01  0.2103E+01  0.2102E+01
    -22.718  0.7083E+01  0.7084E+01  0.3082E+01  0.3082E+01
    -22.579  0.4813E+01  0.4813E+01  0.3749E+01  0.3749E+01
    -22.441  0.4822E+01  0.4821E+01  0.4418E+01  0.4418E+01
    -22.303  0.7535E+01  0.7535E+01  0.5461E+01  0.5461E+01
    -22.165  0.1043E+02  0.1043E+02  0.6904E+01  0.6904E+01
    -22.026  0.1341E+02  0.1341E+02  0.8759E+01  0.8759E+01
    -21.888  0.1348E+02  0.1348E+02  0.1062E+02  0.1062E+02
    -21.750  0.8078E+01  0.8080E+01  0.1174E+02  0.1174E+02
    -21.612  0.1682E+01  0.1683E+01  0.1198E+02  0.1198E+02
    -21.474  0.1176E+00  0.1177E+00  0.1200E+02  0.1200E+02
    -21.335  0.0000E+00  0.0000E+00  0.1200E+02  0.1200E+02
    -21.197  0.0000E+00  0.0000E+00  0.1200E+02  0.1200E+02
    -21.059  0.0000E+00  0.0000E+00  0.1200E+02  0.1200E+02
    -20.921  0.0000E+00  0.0000E+00  0.1200E+02  0.1200E+02
    -20.782  0.0000E+00  0.0000E+00  0.1200E+02  0.1200E+02
    -20.644  0.0000E+00  0.0000E+00  0.1200E+02  0.1200E+02
    -20.506  0.0000E+00  0.0000E+00  0.1200E+02  0.1200E+02
    -20.368  0.0000E+00  0.0000E+00  0.1200E+02  0.1200E+02
    -20.229  0.0000E+00  0.0000E+00  0.1200E+02  0.1200E+02
    -20.091  0.0000E+00  0.0000E+00  0.1200E+02  0.1200E+02
    -19.953  0.0000E+00  0.0000E+00  0.1200E+02  0.1200E+02
    -19.815  0.0000E+00  0.0000E+00  0.1200E+02  0.1200E+02
    -19.677  0.0000E+00  0.0000E+00  0.1200E+02  0.1200E+02
    -19.538  0.0000E+00  0.0000E+00  0.1200E+02  0.1200E+02
    -19.400  0.0000E+00  0.0000E+00  0.1200E+02  0.1200E+02
    -19.262  0.0000E+00  0.0000E+00  0.1200E+02  0.1200E+02
    -19.124  0.0000E+00  0.0000E+00  0.1200E+02  0.1200E+02
    -18.985  0.0000E+00  0.0000E+00  0.1200E+02  0.1200E+02
    -18.847  0.0000E+00  0.0000E+00  0.1200E+02  0.1200E+02
    -18.709  0.0000E+00  0.0000E+00  0.1200E+02  0.1200E+02
    -18.571  0.0000E+00  0.0000E+00  0.1200E+02  0.1200E+02
    -18.433  0.0000E+00  0.0000E+00  0.1200E+02  0.1200E+02
    -18.294  0.0000E+00  0.0000E+00  0.1200E+02  0.1200E+02
    -18.156  0.0000E+00  0.0000E+00  0.1200E+02  0.1200E+02
    -18.018  0.0000E+00  0.0000E+00  0.1200E+02  0.1200E+02
    -17.880  0.0000E+00  0.0000E+00  0.1200E+02  0.1200E+02
    -17.741  0.0000E+00  0.0000E+00  0.1200E+02  0.1200E+02
    -17.603  0.0000E+00  0.0000E+00  0.1200E+02  0.1200E+02
    -17.465  0.0000E+00  0.0000E+00  0.1200E+02  0.1200E+02
    -17.327  0.0000E+00  0.0000E+00  0.1200E+02  0.1200E+02
    -17.189  0.0000E+00  0.0000E+00  0.1200E+02  0.1200E+02
    -17.050  0.0000E+00  0.0000E+00  0.1200E+02  0.1200E+02
    -16.912  0.0000E+00  0.0000E+00  0.1200E+02  0.1200E+02
    -16.774  0.0000E+00  0.0000E+00  0.1200E+02  0.1200E+02
    -16.636  0.0000E+00  0.0000E+00  0.1200E+02  0.1200E+02
    -16.497  0.0000E+00  0.0000E+00  0.1200E+02  0.1200E+02
    -16.359  0.0000E+00  0.0000E+00  0.1200E+02  0.1200E+02
    -16.221  0.0000E+00  0.0000E+00  0.1200E+02  0.1200E+02
    -16.083  0.0000E+00  0.0000E+00  0.1200E+02  0.1200E+02
    -15.945  0.0000E+00  0.0000E+00  0.1200E+02  0.1200E+02
    -15.806  0.0000E+00  0.0000E+00  0.1200E+02  0.1200E+02
    -15.668  0.0000E+00  0.0000E+00  0.1200E+02  0.1200E+02
    -15.530  0.0000E+00  0.0000E+00  0.1200E+02  0.1200E+02
    -15.392  0.0000E+00  0.0000E+00  0.1200E+02  0.1200E+02
    -15.253  0.0000E+00  0.0000E+00  0.1200E+02  0.1200E+02
    -15.115  0.0000E+00  0.0000E+00  0.1200E+02  0.1200E+02
    -14.977  0.0000E+00  0.0000E+00  0.1200E+02  0.1200E+02
    -14.839  0.0000E+00  0.0000E+00  0.1200E+02  0.1200E+02
    -14.701  0.0000E+00  0.0000E+00  0.1200E+02  0.1200E+02
    -14.562  0.0000E+00  0.0000E+00  0.1200E+02  0.1200E+02
    -14.424  0.0000E+00  0.0000E+00  0.1200E+02  0.1200E+02
    -14.286  0.0000E+00  0.0000E+00  0.1200E+02  0.1200E+02
    -14.148  0.0000E+00  0.0000E+00  0.1200E+02  0.1200E+02
    -14.009  0.0000E+00  0.0000E+00  0.1200E+02  0.1200E+02
    -13.871  0.0000E+00  0.0000E+00  0.1200E+02  0.1200E+02
    -13.733  0.0000E+00  0.0000E+00  0.1200E+02  0.1200E+02
    -13.595  0.0000E+00  0.0000E+00  0.1200E+02  0.1200E+02
    -13.457  0.0000E+00  0.0000E+00  0.1200E+02  0.1200E+02
    -13.318  0.0000E+00  0.0000E+00  0.1200E+02  0.1200E+02
    -13.180  0.0000E+00  0.0000E+00  0.1200E+02  0.1200E+02
    -13.042  0.0000E+00  0.0000E+00  0.1200E+02  0.1200E+02
    -12.904  0.0000E+00  0.0000E+00  0.1200E+02  0.1200E+02
    -12.765  0.0000E+00  0.0000E+00  0.1200E+02  0.1200E+02
    -12.627  0.0000E+00  0.0000E+00  0.1200E+02  0.1200E+02
    -12.489  0.0000E+00  0.0000E+00  0.1200E+02  0.1200E+02
    -12.351  0.0000E+00  0.0000E+00  0.1200E+02  0.1200E+02
    -12.212  0.0000E+00  0.0000E+00  0.1200E+02  0.1200E+02
    -12.074  0.0000E+00  0.0000E+00  0.1200E+02  0.1200E+02
    -11.936  0.0000E+00  0.0000E+00  0.1200E+02  0.1200E+02
    -11.798  0.0000E+00  0.0000E+00  0.1200E+02  0.1200E+02
    -11.660  0.0000E+00  0.0000E+00  0.1200E+02  0.1200E+02
    -11.521  0.0000E+00  0.0000E+00  0.1200E+02  0.1200E+02
    -11.383  0.0000E+00  0.0000E+00  0.1200E+02  0.1200E+02
    -11.245  0.0000E+00  0.0000E+00  0.1200E+02  0.1200E+02
    -11.107  0.0000E+00  0.0000E+00  0.1200E+02  0.1200E+02
    -10.968  0.0000E+00  0.0000E+00  0.1200E+02  0.1200E+02
    -10.830  0.0000E+00  0.0000E+00  0.1200E+02  0.1200E+02
    -10.692  0.0000E+00  0.0000E+00  0.1200E+02  0.1200E+02
    -10.554  0.0000E+00  0.0000E+00  0.1200E+02  0.1200E+02
    -10.416  0.0000E+00  0.0000E+00  0.1200E+02  0.1200E+02
    -10.277  0.0000E+00  0.0000E+00  0.1200E+02  0.1200E+02
    -10.139  0.0000E+00  0.0000E+00  0.1200E+02  0.1200E+02
    -10.001  0.0000E+00  0.0000E+00  0.1200E+02  0.1200E+02
     -9.863  0.0000E+00  0.0000E+00  0.1200E+02  0.1200E+02
     -9.724  0.0000E+00  0.0000E+00  0.1200E+02  0.1200E+02
     -9.586  0.0000E+00  0.0000E+00  0.1200E+02  0.1200E+02
     -9.448  0.0000E+00  0.0000E+00  0.1200E+02  0.1200E+02
     -9.310  0.0000E+00  0.0000E+00  0.1200E+02  0.1200E+02
     -9.172  0.0000E+00  0.0000E+00  0.1200E+02  0.1200E+02
     -9.033  0.0000E+00  0.0000E+00  0.1200E+02  0.1200E+02
     -8.895  0.0000E+00  0.0000E+00  0.1200E+02  0.1200E+02
     -8.757  0.0000E+00  0.0000E+00  0.1200E+02  0.1200E+02
     -8.619  0.0000E+00  0.0000E+00  0.1200E+02  0.1200E+02
     -8.480  0.0000E+00  0.0000E+00  0.1200E+02  0.1200E+02
     -8.342  0.0000E+00  0.0000E+00  0.1200E+02  0.1200E+02
     -8.204  0.0000E+00  0.0000E+00  0.1200E+02  0.1200E+02
     -8.066  0.0000E+00  0.0000E+00  0.1200E+02  0.1200E+02
     -7.928  0.0000E+00  0.0000E+00  0.1200E+02  0.1200E+02
     -7.789  0.0000E+00  0.0000E+00  0.1200E+02  0.1200E+02
     -7.651  0.0000E+00  0.0000E+00  0.1200E+02  0.1200E+02
     -7.513  0.0000E+00  0.0000E+00  0.1200E+02  0.1200E+02
     -7.375  0.0000E+00  0.0000E+00  0.1200E+02  0.1200E+02
     -7.236  0.0000E+00  0.0000E+00  0.1200E+02  0.1200E+02
     -7.098  0.0000E+00  0.0000E+00  0.1200E+02  0.1200E+02
     -6.960  0.0000E+00  0.0000E+00  0.1200E+02  0.1200E+02
     -6.822  0.0000E+00  0.0000E+00  0.1200E+02  0.1200E+02
     -6.684  0.0000E+00  0.0000E+00  0.1200E+02  0.1200E+02
     -6.545  0.0000E+00  0.0000E+00  0.1200E+02  0.1200E+02
     -6.407  0.0000E+00  0.0000E+00  0.1200E+02  0.1200E+02
     -6.269  0.0000E+00  0.0000E+00  0.1200E+02  0.1200E+02
     -6.131  0.0000E+00  0.0000E+00  0.1200E+02  0.1200E+02
     -5.992  0.0000E+00  0.0000E+00  0.1200E+02  0.1200E+02
     -5.854  0.0000E+00  0.0000E+00  0.1200E+02  0.1200E+02
     -5.716  0.0000E+00  0.0000E+00  0.1200E+02  0.1200E+02
     -5.578  0.2776E-05  0.2775E-05  0.1200E+02  0.1200E+02
     -5.440  0.4124E-04  0.4123E-04  0.1200E+02  0.1200E+02
     -5.301  0.6468E-03  0.6466E-03  0.1200E+02  0.1200E+02
     -5.163  0.8633E-02  0.8630E-02  0.1200E+02  0.1200E+02
     -5.025  0.3444E-01  0.3444E-01  0.1201E+02  0.1201E+02
     -4.887  0.1609E-01  0.1609E-01  0.1201E+02  0.1201E+02
     -4.748  0.4196E-01  0.4195E-01  0.1201E+02  0.1201E+02
     -4.610  0.1985E+00  0.1985E+00  0.1204E+02  0.1204E+02
     -4.472  0.1024E+00  0.1025E+00  0.1206E+02  0.1206E+02
     -4.334  0.9772E-01  0.9770E-01  0.1207E+02  0.1207E+02
     -4.195  0.4049E+00  0.4049E+00  0.1213E+02  0.1213E+02
     -4.057  0.2121E+00  0.2122E+00  0.1215E+02  0.1215E+02
     -3.919  0.2209E+00  0.2209E+00  0.1219E+02  0.1219E+02
     -3.781  0.4703E+00  0.4704E+00  0.1225E+02  0.1225E+02
     -3.643  0.7724E+00  0.7725E+00  0.1236E+02  0.1236E+02
     -3.504  0.5959E+00  0.5958E+00  0.1244E+02  0.1244E+02
     -3.366  0.1184E+01  0.1184E+01  0.1260E+02  0.1260E+02
     -3.228  0.2115E+01  0.2115E+01  0.1290E+02  0.1290E+02
     -3.090  0.8626E+00  0.8626E+00  0.1302E+02  0.1302E+02
     -2.951  0.2261E+01  0.2262E+01  0.1333E+02  0.1333E+02
     -2.813  0.1984E+01  0.1984E+01  0.1360E+02  0.1360E+02
     -2.675  0.1113E+01  0.1114E+01  0.1376E+02  0.1376E+02
     -2.537  0.2437E+01  0.2437E+01  0.1410E+02  0.1410E+02
     -2.399  0.1593E+01  0.1593E+01  0.1432E+02  0.1432E+02
     -2.260  0.1984E+01  0.1984E+01  0.1459E+02  0.1459E+02
     -2.122  0.1785E+01  0.1785E+01  0.1484E+02  0.1484E+02
     -1.984  0.1721E+01  0.1721E+01  0.1508E+02  0.1508E+02
     -1.846  0.9108E+00  0.9108E+00  0.1520E+02  0.1520E+02
     -1.707  0.1781E+01  0.1782E+01  0.1545E+02  0.1545E+02
     -1.569  0.1606E+01  0.1606E+01  0.1567E+02  0.1567E+02
     -1.431  0.5150E+00  0.5147E+00  0.1574E+02  0.1574E+02
     -1.293  0.2615E+00  0.2615E+00  0.1578E+02  0.1578E+02
     -1.155  0.1950E+00  0.1950E+00  0.1581E+02  0.1581E+02
     -1.016  0.1746E+00  0.1747E+00  0.1583E+02  0.1583E+02
     -0.878  0.7821E+00  0.7822E+00  0.1594E+02  0.1594E+02
     -0.740  0.4019E+00  0.4017E+00  0.1599E+02  0.1599E+02
     -0.602  0.3705E-01  0.3703E-01  0.1600E+02  0.1600E+02
     -0.463  0.0000E+00  0.0000E+00  0.1600E+02  0.1600E+02
     -0.325  0.0000E+00  0.0000E+00  0.1600E+02  0.1600E+02
     -0.187  0.0000E+00  0.0000E+00  0.1600E+02  0.1600E+02
     -0.049  0.0000E+00  0.0000E+00  0.1600E+02  0.1600E+02
      0.089  0.0000E+00  0.0000E+00  0.1600E+02  0.1600E+02
      0.228  0.0000E+00  0.0000E+00  0.1600E+02  0.1600E+02
      0.366  0.0000E+00  0.0000E+00  0.1600E+02  0.1600E+02
      0.504  0.0000E+00  0.0000E+00  0.1600E+02  0.1600E+02
      0.642  0.1416E-03  0.1414E-03  0.1600E+02  0.1600E+02
      0.781  0.2102E-02  0.2099E-02  0.1600E+02  0.1600E+02
      0.919  0.3252E-01  0.3249E-01  0.1600E+02  0.1600E+02
      1.057  0.3673E+00  0.3670E+00  0.1606E+02  0.1606E+02
      1.195  0.8009E+00  0.8011E+00  0.1617E+02  0.1617E+02
      1.333  0.1733E+00  0.1735E+00  0.1619E+02  0.1619E+02
      1.472  0.2360E-01  0.2361E-01  0.1619E+02  0.1619E+02
      1.610  0.1474E+00  0.1473E+00  0.1621E+02  0.1621E+02
      1.748  0.8719E+00  0.8715E+00  0.1633E+02  0.1633E+02
      1.886  0.1972E+01  0.1972E+01  0.1661E+02  0.1661E+02
      2.025  0.1441E+01  0.1442E+01  0.1681E+02  0.1681E+02
      2.163  0.3294E+00  0.3294E+00  0.1685E+02  0.1685E+02
      2.301  0.8990E+00  0.8988E+00  0.1698E+02  0.1698E+02
      2.439  0.1685E+01  0.1685E+01  0.1721E+02  0.1721E+02
      2.577  0.1445E+01  0.1445E+01  0.1741E+02  0.1741E+02
      2.716  0.2669E+01  0.2669E+01  0.1778E+02  0.1778E+02
      2.854  0.1326E+01  0.1326E+01  0.1796E+02  0.1796E+02
      2.992  0.8415E+00  0.8415E+00  0.1808E+02  0.1808E+02
      3.130  0.1268E+01  0.1268E+01  0.1826E+02  0.1826E+02
      3.269  0.2197E+01  0.2197E+01  0.1856E+02  0.1856E+02
      3.407  0.2518E+01  0.2519E+01  0.1891E+02  0.1891E+02
      3.545  0.4025E+01  0.4025E+01  0.1946E+02  0.1946E+02
      3.683  0.2506E+01  0.2506E+01  0.1981E+02  0.1981E+02
      3.822  0.3292E+01  0.3293E+01  0.2027E+02  0.2027E+02
      3.960  0.2842E+01  0.2842E+01  0.2066E+02  0.2066E+02
      4.098  0.2317E+01  0.2316E+01  0.2098E+02  0.2098E+02
      4.236  0.5049E+01  0.5048E+01  0.2168E+02  0.2168E+02
      4.374  0.8571E+01  0.8570E+01  0.2287E+02  0.2287E+02
      4.513  0.6931E+01  0.6933E+01  0.2383E+02  0.2383E+02
      4.651  0.5635E+01  0.5635E+01  0.2461E+02  0.2461E+02
      4.789  0.4372E+01  0.4372E+01  0.2521E+02  0.2521E+02
      4.927  0.1288E+01  0.1289E+01  0.2539E+02  0.2539E+02
      5.066  0.1192E+01  0.1192E+01  0.2556E+02  0.2556E+02
      5.204  0.2038E+01  0.2038E+01  0.2584E+02  0.2584E+02
      5.342  0.2400E+01  0.2400E+01  0.2617E+02  0.2617E+02
      5.480  0.1948E+01  0.1948E+01  0.2644E+02  0.2644E+02
      5.618  0.1905E+01  0.1905E+01  0.2670E+02  0.2670E+02
      5.757  0.2106E+01  0.2106E+01  0.2700E+02  0.2700E+02
      5.895  0.1214E+01  0.1214E+01  0.2716E+02  0.2716E+02
      6.033  0.9945E+00  0.9943E+00  0.2730E+02  0.2730E+02
      6.171  0.1523E+01  0.1523E+01  0.2751E+02  0.2751E+02
      6.310  0.1095E+01  0.1095E+01  0.2767E+02  0.2767E+02
      6.448  0.3081E+00  0.3080E+00  0.2771E+02  0.2771E+02
      6.586  0.2463E-01  0.2461E-01  0.2771E+02  0.2771E+02
      6.724  0.3017E-01  0.3018E-01  0.2772E+02  0.2772E+02
      6.862  0.2747E+00  0.2747E+00  0.2775E+02  0.2775E+02
      7.001  0.4295E+00  0.4295E+00  0.2781E+02  0.2781E+02
      7.139  0.7822E+00  0.7821E+00  0.2792E+02  0.2792E+02
      7.277  0.7957E+00  0.7958E+00  0.2803E+02  0.2803E+02
      7.415  0.1093E+00  0.1093E+00  0.2805E+02  0.2805E+02
      7.554  0.4983E-01  0.4982E-01  0.2806E+02  0.2806E+02
      7.692  0.2788E+00  0.2789E+00  0.2809E+02  0.2809E+02
      7.830  0.4608E+00  0.4608E+00  0.2816E+02  0.2816E+02
      7.968  0.4625E+00  0.4624E+00  0.2822E+02  0.2822E+02
      8.106  0.2067E+01  0.2066E+01  0.2851E+02  0.2851E+02
      8.245  0.1337E+01  0.1337E+01  0.2869E+02  0.2869E+02
      8.383  0.1146E+01  0.1146E+01  0.2885E+02  0.2885E+02
      8.521  0.2622E+01  0.2622E+01  0.2921E+02  0.2921E+02
      8.659  0.1649E+01  0.1648E+01  0.2944E+02  0.2944E+02
      8.798  0.1277E+01  0.1277E+01  0.2962E+02  0.2962E+02
      8.936  0.4516E+00  0.4516E+00  0.2968E+02  0.2968E+02
      9.074  0.6141E+00  0.6141E+00  0.2977E+02  0.2977E+02
      9.212  0.2746E+00  0.2746E+00  0.2981E+02  0.2981E+02
      9.350  0.2884E+00  0.2883E+00  0.2985E+02  0.2985E+02
      9.489  0.7573E+00  0.7573E+00  0.2995E+02  0.2995E+02
      9.627  0.3798E+00  0.3797E+00  0.3000E+02  0.3000E+02
      9.765  0.5533E+00  0.5519E+00  0.3008E+02  0.3008E+02
      9.903  0.1145E+01  0.1146E+01  0.3024E+02  0.3024E+02
     10.042  0.2730E+01  0.2734E+01  0.3062E+02  0.3062E+02
     10.180  0.5954E+01  0.5953E+01  0.3144E+02  0.3144E+02
     10.318  0.2273E+01  0.2272E+01  0.3175E+02  0.3175E+02
     10.456  0.1205E+01  0.1205E+01  0.3192E+02  0.3192E+02
     10.594  0.7934E+00  0.7934E+00  0.3203E+02  0.3203E+02
     10.733  0.1200E+01  0.1202E+01  0.3220E+02  0.3220E+02
     10.871  0.1222E+01  0.1221E+01  0.3237E+02  0.3237E+02
     11.009  0.1147E+01  0.1143E+01  0.3252E+02  0.3252E+02
     11.147  0.1711E+01  0.1701E+01  0.3276E+02  0.3276E+02
     11.286  0.2286E+01  0.2289E+01  0.3308E+02  0.3308E+02
     11.424  0.1180E+01  0.1186E+01  0.3324E+02  0.3324E+02
     11.562  0.1016E+01  0.1006E+01  0.3338E+02  0.3338E+02
     11.700  0.1917E+01  0.1896E+01  0.3365E+02  0.3364E+02
     11.839  0.2805E+01  0.2770E+01  0.3403E+02  0.3403E+02
     11.977  0.4217E+01  0.4375E+01  0.3462E+02  0.3463E+02
     12.115  0.6624E+01  0.6675E+01  0.3553E+02  0.3555E+02
     12.253  0.4181E+01  0.4076E+01  0.3611E+02  0.3612E+02
     12.391  0.1148E+01  0.1076E+01  0.3627E+02  0.3627E+02
     12.530  0.1439E+01  0.1137E+01  0.3648E+02  0.3643E+02
     12.668  0.1046E+01  0.7579E+00  0.3662E+02  0.3654E+02
     12.806  0.8871E+00  0.1136E+01  0.3674E+02  0.3669E+02
     12.944  0.1874E+01  0.2157E+01  0.3700E+02  0.3699E+02
     13.083  0.2915E+01  0.2205E+01  0.3741E+02  0.3730E+02
     13.221  0.4455E+01  0.4298E+01  0.3802E+02  0.3789E+02
     13.359  0.4495E+01  0.4694E+01  0.3865E+02  0.3854E+02
     13.497  0.2796E+01  0.3046E+01  0.3903E+02  0.3896E+02
     13.635  0.3446E+01  0.3036E+01  0.3951E+02  0.3938E+02
     13.774  0.1712E+01  0.1929E+01  0.3975E+02  0.3965E+02
     13.912  0.5485E+00  0.9110E+00  0.3982E+02  0.3978E+02
     14.050  0.6639E+00  0.8757E+00  0.3992E+02  0.3990E+02
     14.188  0.1346E+00  0.2499E+00  0.3993E+02  0.3993E+02
     14.327  0.2949E-01  0.2973E-01  0.3994E+02  0.3994E+02
     14.465  0.1794E+00  0.1136E+00  0.3996E+02  0.3995E+02
     14.603  0.2271E+00  0.2710E+00  0.4000E+02  0.3999E+02
     14.741  0.3284E-01  0.6304E-01  0.4000E+02  0.4000E+02
     14.879  0.0000E+00  0.4653E-02  0.4000E+02  0.4000E+02
     15.018  0.0000E+00  0.0000E+00  0.4000E+02  0.4000E+02
     15.156  0.0000E+00  0.0000E+00  0.4000E+02  0.4000E+02
     15.294  0.0000E+00  0.0000E+00  0.4000E+02  0.4000E+02
     15.432  0.0000E+00  0.0000E+00  0.4000E+02  0.4000E+02
     15.571  0.0000E+00  0.0000E+00  0.4000E+02  0.4000E+02
     15.709  0.0000E+00  0.0000E+00  0.4000E+02  0.4000E+02
     15.847  0.0000E+00  0.0000E+00  0.4000E+02  0.4000E+02
     15.985  0.0000E+00  0.0000E+00  0.4000E+02  0.4000E+02
     16.123  0.0000E+00  0.0000E+00  0.4000E+02  0.4000E+02
     16.262  0.0000E+00  0.0000E+00  0.4000E+02  0.4000E+02
     16.400  0.0000E+00  0.0000E+00  0.4000E+02  0.4000E+02
     16.39991244    -25.06733605  301      9.61388095      1.00000000
    -25.067  0.0000E+00  0.0000E+00  0.0000E+00  0.0000E+00  0.0000E+00  0.0000E+00  0.0000E+00  0.0000E+00  0.0000E+00  0.0000E+00  0.0000E+00  0.0000E+00  0.0000E+00  0.0000E+00  0.0000E+00  0.0000E+00  0.0000E+00  0.0000E+00
    -24.929  0.0000E+00  0.0000E+00  0.0000E+00  0.0000E+00  0.0000E+00  0.0000E+00  0.0000E+00  0.0000E+00  0.0000E+00  0.0000E+00  0.0000E+00  0.0000E+00  0.0000E+00  0.0000E+00  0.0000E+00  0.0000E+00  0.0000E+00  0.0000E+00
    -24.791  0.0000E+00  0.0000E+00  0.0000E+00  0.0000E+00  0.0000E+00  0.0000E+00  0.0000E+00  0.0000E+00  0.0000E+00  0.0000E+00  0.0000E+00  0.0000E+00  0.0000E+00  0.0000E+00  0.0000E+00  0.0000E+00  0.0000E+00  0.0000E+00
    -24.653  0.0000E+00  0.0000E+00  0.0000E+00  0.0000E+00  0.0000E+00  0.0000E+00  0.0000E+00  0.0000E+00  0.0000E+00  0.0000E+00  0.0000E+00  0.0000E+00  0.0000E+00  0.0000E+00  0.0000E+00  0.0000E+00  0.0000E+00  0.0000E+00
    -24.514  0.0000E+00  0.0000E+00  0.0000E+00  0.0000E+00  0.0000E+00  0.0000E+00  0.0000E+00  0.0000E+00  0.0000E+00  0.0000E+00  0.0000E+00  0.0000E+00  0.0000E+00  0.0000E+00  0.0000E+00  0.0000E+00  0.0000E+00  0.0000E+00
    -24.376  0.0000E+00  0.0000E+00  0.0000E+00  0.0000E+00  0.0000E+00  0.0000E+00  0.0000E+00  0.0000E+00  0.0000E+00  0.0000E+00  0.0000E+00  0.0000E+00  0.0000E+00  0.0000E+00  0.0000E+00  0.0000E+00  0.0000E+00  0.0000E+00
    -24.238  0.0000E+00  0.0000E+00  0.0000E+00  0.0000E+00  0.0000E+00  0.0000E+00  0.0000E+00  0.0000E+00  0.0000E+00  0.0000E+00  0.0000E+00  0.0000E+00  0.0000E+00  0.0000E+00  0.0000E+00  0.0000E+00  0.0000E+00  0.0000E+00
    -24.100  0.0000E+00  0.0000E+00  0.0000E+00  0.0000E+00  0.0000E+00  0.0000E+00  0.0000E+00  0.0000E+00  0.0000E+00  0.0000E+00  0.0000E+00  0.0000E+00  0.0000E+00  0.0000E+00  0.0000E+00  0.0000E+00  0.0000E+00  0.0000E+00
    -23.962  0.0000E+00  0.0000E+00  0.0000E+00  0.0000E+00  0.0000E+00  0.0000E+00  0.0000E+00  0.0000E+00  0.0000E+00  0.0000E+00  0.0000E+00  0.0000E+00  0.0000E+00  0.0000E+00  0.0000E+00  0.0000E+00  0.0000E+00  0.0000E+00
    -23.823  0.0000E+00  0.0000E+00  0.0000E+00  0.0000E+00  0.0000E+00  0.0000E+00  0.0000E+00  0.0000E+00  0.0000E+00  0.0000E+00  0.0000E+00  0.0000E+00  0.0000E+00  0.0000E+00  0.0000E+00  0.0000E+00  0.0000E+00  0.0000E+00
    -23.685  0.1758E-08  0.1757E-08  0.4752E-05  0.4750E-05  0.4752E-05  0.4750E-05  0.4752E-05  0.4750E-05  0.9416E-09  0.9412E-09  0.9416E-09  0.9412E-09  0.1612E-08  0.1609E-08  0.9416E-09  0.9412E-09  0.1612E-08  0.1609E-08
    -23.547  0.4884E-07  0.4882E-07  0.8238E-04  0.8234E-04  0.8238E-04  0.8234E-04  0.8238E-04  0.8234E-04  0.1838E-07  0.1838E-07  0.1838E-07  0.1838E-07  0.2911E-07  0.2908E-07  0.1838E-07  0.1838E-07  0.2911E-07  0.2908E-07
    -23.409  0.1015E-05  0.1014E-05  0.1400E-02  0.1399E-02  0.1400E-02  0.1399E-02  0.1400E-02  0.1399E-02  0.3452E-06  0.3452E-06  0.3452E-06  0.3452E-06  0.5266E-06  0.5260E-06  0.3452E-06  0.3452E-06  0.5266E-06  0.5260E-06
    -23.270  0.1495E-04  0.1495E-04  0.1950E-01  0.1950E-01  0.1950E-01  0.1950E-01  0.1950E-01  0.1950E-01  0.4918E-05  0.4918E-05  0.4918E-05  0.4918E-05  0.7457E-05  0.7449E-05  0.4918E-05  0.4918E-05  0.7457E-05  0.7449E-05
    -23.132  0.1370E-03  0.1369E-03  0.1216E+00  0.1216E+00  0.1216E+00  0.1216E+00  0.1216E+00  0.1216E+00  0.3932E-04  0.3934E-04  0.3932E-04  0.3934E-04  0.5588E-04  0.5584E-04  0.3932E-04  0.3934E-04  0.5588E-04  0.5584E-04
    -22.994  0.6933E-03  0.6932E-03  0.3754E+00  0.3753E+00  0.3754E+00  0.3753E+00  0.3754E+00  0.3753E+00  0.1944E-03  0.1945E-03  0.1944E-03  0.1945E-03  0.2471E-03  0.2470E-03  0.1944E-03  0.1945E-03  0.2471E-03  0.2470E-03
    -22.856  0.1913E-02  0.1913E-02  0.6997E+00  0.6997E+00  0.6997E+00  0.6997E+00  0.6997E+00  0.6997E+00  0.4142E-03  0.4145E-03  0.4142E-03  0.4145E-03  0.4441E-03  0.4442E-03  0.4142E-03  0.4145E-03  0.4441E-03  0.4442E-03
    -22.718  0.2241E-02  0.2241E-02  0.5694E+00  0.5694E+00  0.5694E+00  0.5694E+00  0.5694E+00  0.5694E+00  0.4004E-03  0.4005E-03  0.4004E-03  0.4005E-03  0.3877E-03  0.3880E-03  0.4004E-03  0.4005E-03  0.3877E-03  0.3880E-03
    -22.579  0.1830E-02  0.1830E-02  0.3883E+00  0.3883E+00  0.3883E+00  0.3883E+00  0.3883E+00  0.3883E+00  0.3628E-03  0.3629E-03  0.3628E-03  0.3629E-03  0.2276E-03  0.2279E-03  0.3628E-03  0.3629E-03  0.2276E-03  0.2279E-03
    -22.441  0.1159E-02  0.1159E-02  0.3917E+00  0.3917E+00  0.3917E+00  0.3917E+00  0.3917E+00  0.3917E+00  0.5196E-03  0.5198E-03  0.5196E-03  0.5198E-03  0.1814E-03  0.1818E-03  0.5196E-03  0.5198E-03  0.1814E-03  0.1818E-03
    -22.303  0.1184E-02  0.1184E-02  0.6151E+00  0.6151E+00  0.6151E+00  0.6151E+00  0.6151E+00  0.6151E+00  0.7352E-03  0.7357E-03  0.7352E-03  0.7357E-03  0.3869E-03  0.3876E-03  0.7352E-03  0.7357E-03  0.3869E-03  0.3876E-03
    -22.165  0.8031E-03  0.8031E-03  0.8558E+00  0.8557E+00  0.8558E+00  0.8557E+00  0.8558E+00  0.8557E+00  0.6822E-03  0.6828E-03  0.6822E-03  0.6828E-03  0.6440E-03  0.6454E-03  0.6822E-03  0.6828E-03  0.6440E-03  0.6454E-03
    -22.026  0.6279E-03  0.6279E-03  0.1104E+01  0.1104E+01  0.1104E+01  0.1104E+01  0.1104E+01  0.1104E+01  0.6720E-03  0.6727E-03  0.6720E-03  0.6727E-03  0.7291E-03  0.7310E-03  0.6720E-03  0.6727E-03  0.7291E-03  0.7310E-03
    -21.888  0.3445E-03  0.3445E-03  0.1114E+01  0.1114E+01  0.1114E+01  0.1114E+01  0.1114E+01  0.1114E+01  0.4537E-03  0.4541E-03  0.4537E-03  0.4541E-03  0.4412E-03  0.4421E-03  0.4537E-03  0.4541E-03  0.4412E-03  0.4421E-03
    -21.750  0.1454E-03  0.1454E-03  0.6695E+00  0.6696E+00  0.6695E+00  0.6696E+00  0.6695E+00  0.6696E+00  0.1749E-03  0.1751E-03  0.1749E-03  0.1751E-03  0.1352E-03  0.1354E-03  0.1749E-03  0.1751E-03  0.1352E-03  0.1354E-03
    -21.612  0.1754E-04  0.1754E-04  0.1396E+00  0.1396E+00  0.1396E+00  0.1396E+00  0.1396E+00  0.1396E+00  0.2558E-04  0.2561E-04  0.2558E-04  0.2561E-04  0.1624E-04  0.1624E-04  0.2558E-04  0.2561E-04  0.1624E-04  0.1624E-04
    -21.474  0.6537E-06  0.6538E-06  0.9765E-02  0.9769E-02  0.9765E-02  0.9769E-02  0.9765E-02  0.9769E-02  0.1398E-05  0.1400E-05  0.1398E-05  0.1400E-05  0.7361E-06  0.7347E-06  0.1398E-05  0.1400E-05  0.7361E-06  0.7347E-06
    -21.335  0.0000E+00  0.0000E+00  0.0000E+00  0.0000E+00  0.0000E+00  0.0000E+00  0.0000E+00  0.0000E+00  0.0000E+00  0.0000E+00  0.0000E+00  0.0000E+00  0.0000E+00  0.0000E+00  0.0000E+00  0.0000E+00  0.0000E+00  0.0000E+00
    -21.197  0.0000E+00  0.0000E+00  0.0000E+00  0.0000E+00  0.0000E+00  0.0000E+00  0.0000E+00  0.0000E+00  0.0000E+00  0.0000E+00  0.0000E+00  0.0000E+00  0.0000E+00  0.0000E+00  0.0000E+00  0.0000E+00  0.0000E+00  0.0000E+00
    -21.059  0.0000E+00  0.0000E+00  0.0000E+00  0.0000E+00  0.0000E+00  0.0000E+00  0.0000E+00  0.0000E+00  0.0000E+00  0.0000E+00  0.0000E+00  0.0000E+00  0.0000E+00  0.0000E+00  0.0000E+00  0.0000E+00  0.0000E+00  0.0000E+00
    -20.921  0.0000E+00  0.0000E+00  0.0000E+00  0.0000E+00  0.0000E+00  0.0000E+00  0.0000E+00  0.0000E+00  0.0000E+00  0.0000E+00  0.0000E+00  0.0000E+00  0.0000E+00  0.0000E+00  0.0000E+00  0.0000E+00  0.0000E+00  0.0000E+00
    -20.782  0.0000E+00  0.0000E+00  0.0000E+00  0.0000E+00  0.0000E+00  0.0000E+00  0.0000E+00  0.0000E+00  0.0000E+00  0.0000E+00  0.0000E+00  0.0000E+00  0.0000E+00  0.0000E+00  0.0000E+00  0.0000E+00  0.0000E+00  0.0000E+00
    -20.644  0.0000E+00  0.0000E+00  0.0000E+00  0.0000E+00  0.0000E+00  0.0000E+00  0.0000E+00  0.0000E+00  0.0000E+00  0.0000E+00  0.0000E+00  0.0000E+00  0.0000E+00  0.0000E+00  0.0000E+00  0.0000E+00  0.0000E+00  0.0000E+00
    -20.506  0.0000E+00  0.0000E+00  0.0000E+00  0.0000E+00  0.0000E+00  0.0000E+00  0.0000E+00  0.0000E+00  0.0000E+00  0.0000E+00  0.0000E+00  0.0000E+00  0.0000E+00  0.0000E+00  0.0000E+00  0.0000E+00  0.0000E+00  0.0000E+00
    -20.368  0.0000E+00  0.0000E+00  0.0000E+00  0.0000E+00  0.0000E+00  0.0000E+00  0.0000E+00  0.0000E+00  0.0000E+00  0.0000E+00  0.0000E+00  0.0000E+00  0.0000E+00  0.0000E+00  0.0000E+00  0.0000E+00  0.0000E+00  0.0000E+00
    -20.229  0.0000E+00  0.0000E+00  0.0000E+00  0.0000E+00  0.0000E+00  0.0000E+00  0.0000E+00  0.0000E+00  0.0000E+00  0.0000E+00  0.0000E+00  0.0000E+00  0.0000E+00  0.0000E+00  0.0000E+00  0.0000E+00  0.0000E+00  0.0000E+00
    -20.091  0.0000E+00  0.0000E+00  0.0000E+00  0.0000E+00  0.0000E+00  0.0000E+00  0.0000E+00  0.0000E+00  0.0000E+00  0.0000E+00  0.0000E+00  0.0000E+00  0.0000E+00  0.0000E+00  0.0000E+00  0.0000E+00  0.0000E+00  0.0000E+00
    -19.953  0.0000E+00  0.0000E+00  0.0000E+00  0.0000E+00  0.0000E+00  0.0000E+00  0.0000E+00  0.0000E+00  0.0000E+00  0.0000E+00  0.0000E+00  0.0000E+00  0.0000E+00  0.0000E+00  0.0000E+00  0.0000E+00  0.0000E+00  0.0000E+00
    -19.815  0.0000E+00  0.0000E+00  0.0000E+00  0.0000E+00  0.0000E+00  0.0000E+00  0.0000E+00  0.0000E+00  0.0000E+00  0.0000E+00  0.0000E+00  0.0000E+00  0.0000E+00  0.0000E+00  0.0000E+00  0.0000E+00  0.0000E+00  0.0000E+00
    -19.677  0.0000E+00  0.0000E+00  0.0000E+00  0.0000E+00  0.0000E+00  0.0000E+00  0.0000E+00  0.0000E+00  0.0000E+00  0.0000E+00  0.0000E+00  0.0000E+00  0.0000E+00  0.0000E+00  0.0000E+00  0.0000E+00  0.0000E+00  0.0000E+00
    -19.538  0.0000E+00  0.0000E+00  0.0000E+00  0.0000E+00  0.0000E+00  0.0000E+00  0.0000E+00  0.0000E+00  0.0000E+00  0.0000E+00  0.0000E+00  0.0000E+00  0.0000E+00  0.0000E+00  0.0000E+00  0.0000E+00  0.0000E+00  0.0000E+00
    -19.400  0.0000E+00  0.0000E+00  0.0000E+00  0.0000E+00  0.0000E+00  0.0000E+00  0.0000E+00  0.0000E+00  0.0000E+00  0.0000E+00  0.0000E+00  0.0000E+00  0.0000E+00  0.0000E+00  0.0000E+00  0.0000E+00  0.0000E+00  0.0000E+00
    -19.262  0.0000E+00  0.0000E+00  0.0000E+00  0.0000E+00  0.0000E+00  0.0000E+00  0.0000E+00  0.0000E+00  0.0000E+00  0.0000E+00  0.0000E+00  0.0000E+00  0.0000E+00  0.0000E+00  0.0000E+00  0.0000E+00  0.0000E+00  0.0000E+00
    -19.124  0.0000E+00  0.0000E+00  0.0000E+00  0.0000E+00  0.0000E+00  0.0000E+00  0.0000E+00  0.0000E+00  0.0000E+00  0.0000E+00  0.0000E+00  0.0000E+00  0.0000E+00  0.0000E+00  0.0000E+00  0.0000E+00  0.0000E+00  0.0000E+00
    -18.985  0.0000E+00  0.0000E+00  0.0000E+00  0.0000E+00  0.0000E+00  0.0000E+00  0.0000E+00  0.0000E+00  0.0000E+00  0.0000E+00  0.0000E+00  0.0000E+00  0.0000E+00  0.0000E+00  0.0000E+00  0.0000E+00  0.0000E+00  0.0000E+00
    -18.847  0.0000E+00  0.0000E+00  0.0000E+00  0.0000E+00  0.0000E+00  0.0000E+00  0.0000E+00  0.0000E+00  0.0000E+00  0.0000E+00  0.0000E+00  0.0000E+00  0.0000E+00  0.0000E+00  0.0000E+00  0.0000E+00  0.0000E+00  0.0000E+00
    -18.709  0.0000E+00  0.0000E+00  0.0000E+00  0.0000E+00  0.0000E+00  0.0000E+00  0.0000E+00  0.0000E+00  0.0000E+00  0.0000E+00  0.0000E+00  0.0000E+00  0.0000E+00  0.0000E+00  0.0000E+00  0.0000E+00  0.0000E+00  0.0000E+00
    -18.571  0.0000E+00  0.0000E+00  0.0000E+00  0.0000E+00  0.0000E+00  0.0000E+00  0.0000E+00  0.0000E+00  0.0000E+00  0.0000E+00  0.0000E+00  0.0000E+00  0.0000E+00  0.0000E+00  0.0000E+00  0.0000E+00  0.0000E+00  0.0000E+00
    -18.433  0.0000E+00  0.0000E+00  0.0000E+00  0.0000E+00  0.0000E+00  0.0000E+00  0.0000E+00  0.0000E+00  0.0000E+00  0.0000E+00  0.0000E+00  0.0000E+00  0.0000E+00  0.0000E+00  0.0000E+00  0.0000E+00  0.0000E+00  0.0000E+00
    -18.294  0.0000E+00  0.0000E+00  0.0000E+00  0.0000E+00  0.0000E+00  0.0000E+00  0.0000E+00  0.0000E+00  0.0000E+00  0.0000E+00  0.0000E+00  0.0000E+00  0.0000E+00  0.0000E+00  0.0000E+00  0.0000E+00  0.0000E+00  0.0000E+00
    -18.156  0.0000E+00  0.0000E+00  0.0000E+00  0.0000E+00  0.0000E+00  0.0000E+00  0.0000E+00  0.0000E+00  0.0000E+00  0.0000E+00  0.0000E+00  0.0000E+00  0.0000E+00  0.0000E+00  0.0000E+00  0.0000E+00  0.0000E+00  0.0000E+00