   8   8   1   0
  0.1142875E+02  0.4505015E-09  0.4505015E-09  0.4505015E-09  0.5000000E-15
  1.000000000000000E-004
  CAR 
 unknown system                          
     13.34052295    -26.76239202  301      7.59998119      1.00000000
    -26.762  0.0000E+00  0.0000E+00  0.0000E+00  0.0000E+00
    -26.629  0.0000E+00  0.0000E+00  0.0000E+00  0.0000E+00
    -26.495  0.0000E+00  0.0000E+00  0.0000E+00  0.0000E+00
    -26.361  0.0000E+00  0.0000E+00  0.0000E+00  0.0000E+00
    -26.228  0.0000E+00  0.0000E+00  0.0000E+00  0.0000E+00
    -26.094  0.0000E+00  0.0000E+00  0.0000E+00  0.0000E+00
    -25.960  0.0000E+00  0.0000E+00  0.0000E+00  0.0000E+00
    -25.827  0.0000E+00  0.0000E+00  0.0000E+00  0.0000E+00
    -25.693  0.0000E+00  0.0000E+00  0.0000E+00  0.0000E+00
    -25.559  0.0000E+00  0.0000E+00  0.0000E+00  0.0000E+00
    -25.426  0.9969E-04  0.1001E-03  0.1333E-04  0.1338E-04
    -25.292  0.2676E-02  0.2687E-02  0.3711E-03  0.3726E-03
    -25.158  0.3854E-01  0.3870E-01  0.5523E-02  0.5546E-02
    -25.025  0.5122E+00  0.5142E+00  0.7400E-01  0.7428E-01
    -24.891  0.4098E+01  0.4108E+01  0.6217E+00  0.6234E+00
    -24.757  0.1194E+02  0.1195E+02  0.2218E+01  0.2220E+01
    -24.624  0.1181E+02  0.1181E+02  0.3796E+01  0.3799E+01
    -24.490  0.1352E+02  0.1353E+02  0.5604E+01  0.5608E+01
    -24.356  0.2143E+02  0.2144E+02  0.8473E+01  0.8478E+01
    -24.223  0.1978E+02  0.1976E+02  0.1112E+02  0.1112E+02
    -24.089  0.5935E+01  0.5918E+01  0.1191E+02  0.1191E+02
    -23.955  0.5583E+00  0.5561E+00  0.1199E+02  0.1199E+02
    -23.822  0.5369E-02  0.5347E-02  0.1200E+02  0.1200E+02
    -23.688  0.0000E+00  0.0000E+00  0.1200E+02  0.1200E+02
    -23.554  0.0000E+00  0.0000E+00  0.1200E+02  0.1200E+02
    -23.420  0.0000E+00  0.0000E+00  0.1200E+02  0.1200E+02
    -23.287  0.0000E+00  0.0000E+00  0.1200E+02  0.1200E+02
    -23.153  0.0000E+00  0.0000E+00  0.1200E+02  0.1200E+02
    -23.019  0.0000E+00  0.0000E+00  0.1200E+02  0.1200E+02
    -22.886  0.0000E+00  0.0000E+00  0.1200E+02  0.1200E+02
    -22.752  0.0000E+00  0.0000E+00  0.1200E+02  0.1200E+02
    -22.618  0.0000E+00  0.0000E+00  0.1200E+02  0.1200E+02
    -22.485  0.0000E+00  0.0000E+00  0.1200E+02  0.1200E+02
    -22.351  0.0000E+00  0.0000E+00  0.1200E+02  0.1200E+02
    -22.217  0.0000E+00  0.0000E+00  0.1200E+02  0.1200E+02
    -22.084  0.0000E+00  0.0000E+00  0.1200E+02  0.1200E+02
    -21.950  0.0000E+00  0.0000E+00  0.1200E+02  0.1200E+02
    -21.816  0.0000E+00  0.0000E+00  0.1200E+02  0.1200E+02
    -21.683  0.0000E+00  0.0000E+00  0.1200E+02  0.1200E+02
    -21.549  0.0000E+00  0.0000E+00  0.1200E+02  0.1200E+02
    -21.415  0.0000E+00  0.0000E+00  0.1200E+02  0.1200E+02
    -21.282  0.0000E+00  0.0000E+00  0.1200E+02  0.1200E+02
    -21.148  0.0000E+00  0.0000E+00  0.1200E+02  0.1200E+02
    -21.014  0.0000E+00  0.0000E+00  0.1200E+02  0.1200E+02
    -20.881  0.0000E+00  0.0000E+00  0.1200E+02  0.1200E+02
    -20.747  0.0000E+00  0.0000E+00  0.1200E+02  0.1200E+02
    -20.613  0.0000E+00  0.0000E+00  0.1200E+02  0.1200E+02
    -20.480  0.0000E+00  0.0000E+00  0.1200E+02  0.1200E+02
    -20.346  0.0000E+00  0.0000E+00  0.1200E+02  0.1200E+02
    -20.212  0.0000E+00  0.0000E+00  0.1200E+02  0.1200E+02
    -20.079  0.0000E+00  0.0000E+00  0.1200E+02  0.1200E+02
    -19.945  0.0000E+00  0.0000E+00  0.1200E+02  0.1200E+02
    -19.811  0.0000E+00  0.0000E+00  0.1200E+02  0.1200E+02
    -19.678  0.0000E+00  0.0000E+00  0.1200E+02  0.1200E+02
    -19.544  0.0000E+00  0.0000E+00  0.1200E+02  0.1200E+02
    -19.410  0.0000E+00  0.0000E+00  0.1200E+02  0.1200E+02
    -19.277  0.0000E+00  0.0000E+00  0.1200E+02  0.1200E+02
    -19.143  0.0000E+00  0.0000E+00  0.1200E+02  0.1200E+02
    -19.009  0.0000E+00  0.0000E+00  0.1200E+02  0.1200E+02
    -18.875  0.0000E+00  0.0000E+00  0.1200E+02  0.1200E+02
    -18.742  0.0000E+00  0.0000E+00  0.1200E+02  0.1200E+02
    -18.608  0.0000E+00  0.0000E+00  0.1200E+02  0.1200E+02
    -18.474  0.0000E+00  0.0000E+00  0.1200E+02  0.1200E+02
    -18.341  0.0000E+00  0.0000E+00  0.1200E+02  0.1200E+02
    -18.207  0.0000E+00  0.0000E+00  0.1200E+02  0.1200E+02
    -18.073  0.0000E+00  0.0000E+00  0.1200E+02  0.1200E+02
    -17.940  0.0000E+00  0.0000E+00  0.1200E+02  0.1200E+02
    -17.806  0.0000E+00  0.0000E+00  0.1200E+02  0.1200E+02
    -17.672  0.0000E+00  0.0000E+00  0.1200E+02  0.1200E+02
    -17.539  0.0000E+00  0.0000E+00  0.1200E+02  0.1200E+02
    -17.405  0.0000E+00  0.0000E+00  0.1200E+02  0.1200E+02
    -17.271  0.0000E+00  0.0000E+00  0.1200E+02  0.1200E+02
    -17.138  0.0000E+00  0.0000E+00  0.1200E+02  0.1200E+02
    -17.004  0.0000E+00  0.0000E+00  0.1200E+02  0.1200E+02
    -16.870  0.0000E+00  0.0000E+00  0.1200E+02  0.1200E+02
    -16.737  0.0000E+00  0.0000E+00  0.1200E+02  0.1200E+02
    -16.603  0.0000E+00  0.0000E+00  0.1200E+02  0.1200E+02
    -16.469  0.0000E+00  0.0000E+00  0.1200E+02  0.1200E+02
    -16.336  0.0000E+00  0.0000E+00  0.1200E+02  0.1200E+02
    -16.202  0.0000E+00  0.0000E+00  0.1200E+02  0.1200E+02
    -16.068  0.0000E+00  0.0000E+00  0.1200E+02  0.1200E+02
    -15.935  0.0000E+00  0.0000E+00  0.1200E+02  0.1200E+02
    -15.801  0.0000E+00  0.0000E+00  0.1200E+02  0.1200E+02
    -15.667  0.0000E+00  0.0000E+00  0.1200E+02  0.1200E+02
    -15.534  0.0000E+00  0.0000E+00  0.1200E+02  0.1200E+02
    -15.400  0.0000E+00  0.0000E+00  0.1200E+02  0.1200E+02
    -15.266  0.0000E+00  0.0000E+00  0.1200E+02  0.1200E+02
    -15.133  0.0000E+00  0.0000E+00  0.1200E+02  0.1200E+02
    -14.999  0.0000E+00  0.0000E+00  0.1200E+02  0.1200E+02
    -14.865  0.0000E+00  0.0000E+00  0.1200E+02  0.1200E+02
    -14.732  0.0000E+00  0.0000E+00  0.1200E+02  0.1200E+02
    -14.598  0.0000E+00  0.0000E+00  0.1200E+02  0.1200E+02
    -14.464  0.0000E+00  0.0000E+00  0.1200E+02  0.1200E+02
    -14.330  0.0000E+00  0.0000E+00  0.1200E+02  0.1200E+02
    -14.197  0.0000E+00  0.0000E+00  0.1200E+02  0.1200E+02
    -14.063  0.0000E+00  0.0000E+00  0.1200E+02  0.1200E+02
    -13.929  0.0000E+00  0.0000E+00  0.1200E+02  0.1200E+02
    -13.796  0.0000E+00  0.0000E+00  0.1200E+02  0.1200E+02
    -13.662  0.0000E+00  0.0000E+00  0.1200E+02  0.1200E+02
    -13.528  0.0000E+00  0.0000E+00  0.1200E+02  0.1200E+02
    -13.395  0.0000E+00  0.0000E+00  0.1200E+02  0.1200E+02
    -13.261  0.0000E+00  0.0000E+00  0.1200E+02  0.1200E+02
    -13.127  0.0000E+00  0.0000E+00  0.1200E+02  0.1200E+02
    -12.994  0.0000E+00  0.0000E+00  0.1200E+02  0.1200E+02
    -12.860  0.0000E+00  0.0000E+00  0.1200E+02  0.1200E+02
    -12.726  0.0000E+00  0.0000E+00  0.1200E+02  0.1200E+02
    -12.593  0.0000E+00  0.0000E+00  0.1200E+02  0.1200E+02
    -12.459  0.0000E+00  0.0000E+00  0.1200E+02  0.1200E+02
    -12.325  0.0000E+00  0.0000E+00  0.1200E+02  0.1200E+02
    -12.192  0.0000E+00  0.0000E+00  0.1200E+02  0.1200E+02
    -12.058  0.0000E+00  0.0000E+00  0.1200E+02  0.1200E+02
    -11.924  0.0000E+00  0.0000E+00  0.1200E+02  0.1200E+02
    -11.791  0.0000E+00  0.0000E+00  0.1200E+02  0.1200E+02
    -11.657  0.0000E+00  0.0000E+00  0.1200E+02  0.1200E+02
    -11.523  0.0000E+00  0.0000E+00  0.1200E+02  0.1200E+02
    -11.390  0.0000E+00  0.0000E+00  0.1200E+02  0.1200E+02
    -11.256  0.0000E+00  0.0000E+00  0.1200E+02  0.1200E+02
    -11.122  0.0000E+00  0.0000E+00  0.1200E+02  0.1200E+02
    -10.989  0.0000E+00  0.0000E+00  0.1200E+02  0.1200E+02
    -10.855  0.0000E+00  0.0000E+00  0.1200E+02  0.1200E+02
    -10.721  0.0000E+00  0.0000E+00  0.1200E+02  0.1200E+02
    -10.588  0.0000E+00  0.0000E+00  0.1200E+02  0.1200E+02
    -10.454  0.0000E+00  0.0000E+00  0.1200E+02  0.1200E+02
    -10.320  0.0000E+00  0.0000E+00  0.1200E+02  0.1200E+02
    -10.187  0.0000E+00  0.0000E+00  0.1200E+02  0.1200E+02
    -10.053  0.0000E+00  0.0000E+00  0.1200E+02  0.1200E+02
     -9.919  0.0000E+00  0.0000E+00  0.1200E+02  0.1200E+02
     -9.785  0.0000E+00  0.0000E+00  0.1200E+02  0.1200E+02
     -9.652  0.0000E+00  0.0000E+00  0.1200E+02  0.1200E+02
     -9.518  0.0000E+00  0.0000E+00  0.1200E+02  0.1200E+02
     -9.384  0.0000E+00  0.0000E+00  0.1200E+02  0.1200E+02
     -9.251  0.0000E+00  0.0000E+00  0.1200E+02  0.1200E+02
     -9.117  0.0000E+00  0.0000E+00  0.1200E+02  0.1200E+02
     -8.983  0.0000E+00  0.0000E+00  0.1200E+02  0.1200E+02
     -8.850  0.0000E+00  0.0000E+00  0.1200E+02  0.1200E+02
     -8.716  0.0000E+00  0.0000E+00  0.1200E+02  0.1200E+02
     -8.582  0.0000E+00  0.0000E+00  0.1200E+02  0.1200E+02
     -8.449  0.0000E+00  0.0000E+00  0.1200E+02  0.1200E+02
     -8.315  0.0000E+00  0.0000E+00  0.1200E+02  0.1200E+02
     -8.181  0.0000E+00  0.0000E+00  0.1200E+02  0.1200E+02
     -8.048  0.0000E+00  0.0000E+00  0.1200E+02  0.1200E+02
     -7.914  0.0000E+00  0.0000E+00  0.1200E+02  0.1200E+02
     -7.780  0.0000E+00  0.0000E+00  0.1200E+02  0.1200E+02
     -7.647  0.0000E+00  0.0000E+00  0.1200E+02  0.1200E+02
     -7.513  0.0000E+00  0.0000E+00  0.1200E+02  0.1200E+02
     -7.379  0.0000E+00  0.0000E+00  0.1200E+02  0.1200E+02
     -7.246  0.0000E+00  0.0000E+00  0.1200E+02  0.1200E+02
     -7.112  0.0000E+00  0.0000E+00  0.1200E+02  0.1200E+02
     -6.978  0.0000E+00  0.0000E+00  0.1200E+02  0.1200E+02
     -6.845  0.0000E+00  0.0000E+00  0.1200E+02  0.1200E+02
     -6.711  0.0000E+00  0.0000E+00  0.1200E+02  0.1200E+02
     -6.577  0.0000E+00  0.0000E+00  0.1200E+02  0.1200E+02
     -6.444  0.1642E-04  0.1634E-04  0.1200E+02  0.1200E+02
     -6.310  0.2206E-03  0.2195E-03  0.1200E+02  0.1200E+02
     -6.176  0.3059E-02  0.3045E-02  0.1200E+02  0.1200E+02
     -6.043  0.2446E-01  0.2440E-01  0.1200E+02  0.1200E+02
     -5.909  0.3499E-01  0.3501E-01  0.1201E+02  0.1201E+02
     -5.775  0.8146E-01  0.8119E-01  0.1202E+02  0.1202E+02
     -5.642  0.2152E+00  0.2152E+00  0.1205E+02  0.1205E+02
     -5.508  0.1378E+00  0.1377E+00  0.1207E+02  0.1207E+02
     -5.374  0.3949E+00  0.3945E+00  0.1212E+02  0.1212E+02
     -5.240  0.2513E+00  0.2518E+00  0.1215E+02  0.1215E+02
     -5.107  0.2517E+00  0.2512E+00  0.1219E+02  0.1219E+02
     -4.973  0.3759E+00  0.3760E+00  0.1224E+02  0.1224E+02
     -4.839  0.2411E+00  0.2413E+00  0.1227E+02  0.1227E+02
     -4.706  0.5688E+00  0.5671E+00  0.1235E+02  0.1235E+02
     -4.572  0.1042E+01  0.1042E+01  0.1248E+02  0.1248E+02
     -4.438  0.1238E+01  0.1236E+01  0.1265E+02  0.1265E+02
     -4.305  0.1998E+01  0.1997E+01  0.1292E+02  0.1292E+02
     -4.171  0.2156E+01  0.2156E+01  0.1321E+02  0.1321E+02
     -4.037  0.2033E+01  0.2033E+01  0.1348E+02  0.1348E+02
     -3.904  0.2442E+01  0.2442E+01  0.1380E+02  0.1380E+02
     -3.770  0.2519E+01  0.2517E+01  0.1414E+02  0.1414E+02
     -3.636  0.2943E+01  0.2943E+01  0.1454E+02  0.1453E+02
     -3.503  0.2997E+01  0.2997E+01  0.1494E+02  0.1494E+02
     -3.369  0.1943E+01  0.1944E+01  0.1520E+02  0.1520E+02
     -3.235  0.2240E+01  0.2241E+01  0.1550E+02  0.1550E+02
     -3.102  0.1440E+01  0.1441E+01  0.1569E+02  0.1569E+02
     -2.968  0.7729E+00  0.7753E+00  0.1579E+02  0.1579E+02
     -2.834  0.2974E+00  0.2968E+00  0.1583E+02  0.1583E+02
     -2.701  0.8183E+00  0.8175E+00  0.1594E+02  0.1594E+02
     -2.567  0.3734E+00  0.3752E+00  0.1599E+02  0.1599E+02
     -2.433  0.3607E-01  0.3632E-01  0.1600E+02  0.1600E+02
     -2.300  0.0000E+00  0.0000E+00  0.1600E+02  0.1600E+02
     -2.166  0.0000E+00  0.0000E+00  0.1600E+02  0.1600E+02
     -2.032  0.0000E+00  0.0000E+00  0.1600E+02  0.1600E+02
     -1.899  0.0000E+00  0.0000E+00  0.1600E+02  0.1600E+02
     -1.765  0.0000E+00  0.0000E+00  0.1600E+02  0.1600E+02
     -1.631  0.0000E+00  0.0000E+00  0.1600E+02  0.1600E+02
     -1.498  0.0000E+00  0.0000E+00  0.1600E+02  0.1600E+02
     -1.364  0.0000E+00  0.0000E+00  0.1600E+02  0.1600E+02
     -1.230  0.0000E+00  0.0000E+00  0.1600E+02  0.1600E+02
     -1.097  0.0000E+00  0.0000E+00  0.1600E+02  0.1600E+02
     -0.963  0.0000E+00  0.0000E+00  0.1600E+02  0.1600E+02
     -0.829  0.0000E+00  0.0000E+00  0.1600E+02  0.1600E+02
     -0.695  0.0000E+00  0.0000E+00  0.1600E+02  0.1600E+02
     -0.562  0.0000E+00  0.0000E+00  0.1600E+02  0.1600E+02
     -0.428  0.0000E+00  0.0000E+00  0.1600E+02  0.1600E+02
     -0.294  0.0000E+00  0.0000E+00  0.1600E+02  0.1600E+02
     -0.161  0.4194E-03  0.4190E-03  0.1600E+02  0.1600E+02
     -0.027  0.5635E-02  0.5629E-02  0.1600E+02  0.1600E+02
      0.107  0.7698E-01  0.7690E-01  0.1601E+02  0.1601E+02
      0.240  0.5931E+00  0.5929E+00  0.1609E+02  0.1609E+02
      0.374  0.6608E+00  0.6611E+00  0.1618E+02  0.1618E+02
      0.508  0.1469E+00  0.1469E+00  0.1620E+02  0.1620E+02
      0.641  0.3083E+00  0.3081E+00  0.1624E+02  0.1624E+02
      0.775  0.6545E+00  0.6542E+00  0.1633E+02  0.1633E+02
      0.909  0.1635E+01  0.1635E+01  0.1655E+02  0.1655E+02
      1.042  0.1782E+01  0.1783E+01  0.1678E+02  0.1678E+02
      1.176  0.6194E+00  0.6196E+00  0.1687E+02  0.1687E+02
      1.310  0.1055E+01  0.1054E+01  0.1701E+02  0.1701E+02
      1.443  0.2120E+01  0.2120E+01  0.1729E+02  0.1729E+02
      1.577  0.2927E+01  0.2927E+01  0.1768E+02  0.1768E+02
      1.711  0.1600E+01  0.1600E+01  0.1790E+02  0.1790E+02
      1.844  0.1327E+01  0.1326E+01  0.1807E+02  0.1807E+02
      1.978  0.1470E+01  0.1470E+01  0.1827E+02  0.1827E+02
      2.112  0.2186E+01  0.2186E+01  0.1857E+02  0.1856E+02
      2.245  0.2365E+01  0.2365E+01  0.1888E+02  0.1888E+02
      2.379  0.1332E+01  0.1331E+01  0.1906E+02  0.1906E+02
      2.513  0.2842E+01  0.2840E+01  0.1944E+02  0.1944E+02
      2.646  0.3991E+01  0.3991E+01  0.1998E+02  0.1997E+02
      2.780  0.4974E+01  0.4973E+01  0.2064E+02  0.2064E+02
      2.914  0.5711E+01  0.5710E+01  0.2140E+02  0.2140E+02
      3.047  0.8853E+01  0.8853E+01  0.2259E+02  0.2259E+02
      3.181  0.8392E+01  0.8394E+01  0.2371E+02  0.2371E+02
      3.315  0.6225E+01  0.6224E+01  0.2454E+02  0.2454E+02
      3.448  0.4633E+01  0.4636E+01  0.2517E+02  0.2517E+02
      3.582  0.2347E+01  0.2349E+01  0.2548E+02  0.2548E+02
      3.716  0.9799E+00  0.9796E+00  0.2561E+02  0.2561E+02
      3.849  0.9460E+00  0.9447E+00  0.2574E+02  0.2574E+02
      3.983  0.2018E+01  0.2019E+01  0.2601E+02  0.2601E+02
      4.117  0.2509E+01  0.2508E+01  0.2635E+02  0.2635E+02
      4.251  0.3500E+01  0.3499E+01  0.2682E+02  0.2682E+02
      4.384  0.1958E+01  0.1960E+01  0.2708E+02  0.2708E+02
      4.518  0.1364E+01  0.1363E+01  0.2726E+02  0.2726E+02
      4.652  0.1687E+01  0.1687E+01  0.2749E+02  0.2749E+02
      4.785  0.1117E+01  0.1119E+01  0.2764E+02  0.2764E+02
      4.919  0.4229E+00  0.4233E+00  0.2769E+02  0.2769E+02
      5.053  0.1239E+00  0.1236E+00  0.2771E+02  0.2771E+02
      5.186  0.8241E-01  0.8223E-01  0.2772E+02  0.2772E+02
      5.320  0.4412E+00  0.4408E+00  0.2778E+02  0.2778E+02
      5.454  0.6500E+00  0.6499E+00  0.2787E+02  0.2787E+02
      5.587  0.5674E+00  0.5682E+00  0.2794E+02  0.2794E+02
      5.721  0.6335E+00  0.6335E+00  0.2803E+02  0.2803E+02
      5.855  0.5399E+00  0.5388E+00  0.2810E+02  0.2810E+02
      5.988  0.3601E+00  0.3608E+00  0.2815E+02  0.2815E+02
      6.122  0.3601E+00  0.3600E+00  0.2820E+02  0.2820E+02
      6.256  0.5061E+00  0.5068E+00  0.2827E+02  0.2827E+02
      6.389  0.1648E+01  0.1649E+01  0.2849E+02  0.2849E+02
      6.523  0.2332E+01  0.2330E+01  0.2880E+02  0.2880E+02
      6.657  0.3015E+01  0.3014E+01  0.2920E+02  0.2920E+02
      6.790  0.1830E+01  0.1831E+01  0.2945E+02  0.2945E+02
      6.924  0.1079E+01  0.1080E+01  0.2959E+02  0.2959E+02
      7.058  0.6158E+00  0.6156E+00  0.2967E+02  0.2967E+02
      7.191  0.6351E+00  0.6349E+00  0.2976E+02  0.2976E+02
      7.325  0.3833E+00  0.3829E+00  0.2981E+02  0.2981E+02
      7.459  0.6599E+00  0.6613E+00  0.2990E+02  0.2990E+02
      7.592  0.7278E+00  0.7269E+00  0.3000E+02  0.3000E+02
      7.726  0.7087E+00  0.7098E+00  0.3009E+02  0.3009E+02
      7.860  0.1827E+01  0.1829E+01  0.3034E+02  0.3034E+02
      7.993  0.5149E+01  0.5153E+01  0.3102E+02  0.3103E+02
      8.127  0.4575E+01  0.4567E+01  0.3164E+02  0.3164E+02
      8.261  0.1727E+01  0.1726E+01  0.3187E+02  0.3187E+02
      8.394  0.1534E+01  0.1535E+01  0.3208E+02  0.3208E+02
      8.528  0.1954E+01  0.1955E+01  0.3234E+02  0.3234E+02
      8.662  0.1349E+01  0.1352E+01  0.3252E+02  0.3252E+02
      8.796  0.2252E+01  0.2256E+01  0.3282E+02  0.3282E+02
      8.929  0.2558E+01  0.2557E+01  0.3316E+02  0.3316E+02
      9.063  0.1623E+01  0.1623E+01  0.3338E+02  0.3338E+02
      9.197  0.1765E+01  0.1724E+01  0.3361E+02  0.3361E+02
      9.330  0.3763E+01  0.3636E+01  0.3412E+02  0.3410E+02
      9.464  0.7426E+01  0.7588E+01  0.3511E+02  0.3511E+02
      9.598  0.6331E+01  0.6380E+01  0.3596E+02  0.3596E+02
      9.731  0.2449E+01  0.2279E+01  0.3629E+02  0.3627E+02
      9.865  0.1973E+01  0.2009E+01  0.3655E+02  0.3654E+02
      9.999  0.1743E+01  0.2017E+01  0.3679E+02  0.3681E+02
     10.132  0.1717E+01  0.1656E+01  0.3702E+02  0.3703E+02
     10.266  0.2221E+01  0.2266E+01  0.3731E+02  0.3734E+02
     10.400  0.5861E+01  0.5729E+01  0.3810E+02  0.3810E+02
     10.533  0.6207E+01  0.6281E+01  0.3893E+02  0.3894E+02
     10.667  0.4350E+01  0.4386E+01  0.3951E+02  0.3953E+02
     10.801  0.1728E+01  0.1735E+01  0.3974E+02  0.3976E+02
     10.934  0.2383E+00  0.6124E+00  0.3978E+02  0.3985E+02
     11.068  0.2099E+00  0.3225E+00  0.3980E+02  0.3989E+02
     11.202  0.6787E+00  0.3569E+00  0.3990E+02  0.3994E+02
     11.335  0.2875E+00  0.3355E+00  0.3993E+02  0.3998E+02
     11.469  0.1457E+00  0.1169E+00  0.3995E+02  0.4000E+02
     11.603  0.2735E+00  0.1040E-01  0.3999E+02  0.4000E+02
     11.736  0.6792E-01  0.0000E+00  0.4000E+02  0.4000E+02
     11.870  0.5537E-02  0.0000E+00  0.4000E+02  0.4000E+02
     12.004  0.0000E+00  0.0000E+00  0.4000E+02  0.4000E+02
     12.137  0.0000E+00  0.0000E+00  0.4000E+02  0.4000E+02
     12.271  0.0000E+00  0.0000E+00  0.4000E+02  0.4000E+02
     12.405  0.0000E+00  0.0000E+00  0.4000E+02  0.4000E+02
     12.538  0.0000E+00  0.0000E+00  0.4000E+02  0.4000E+02
     12.672  0.0000E+00  0.0000E+00  0.4000E+02  0.4000E+02
     12.806  0.0000E+00  0.0000E+00  0.4000E+02  0.4000E+02
     12.939  0.0000E+00  0.0000E+00  0.4000E+02  0.4000E+02
     13.073  0.0000E+00  0.0000E+00  0.4000E+02  0.4000E+02
     13.207  0.0000E+00  0.0000E+00  0.4000E+02  0.4000E+02
     13.341  0.0000E+00  0.0000E+00  0.4000E+02  0.4000E+02
     13.34052295    -26.76239202  301      7.59998119      1.00000000
    -26.762  0.0000E+00  0.0000E+00  0.0000E+00  0.0000E+00  0.0000E+00  0.0000E+00  0.0000E+00  0.0000E+00  0.0000E+00  0.0000E+00  0.0000E+00  0.0000E+00  0.0000E+00  0.0000E+00  0.0000E+00  0.0000E+00  0.0000E+00  0.0000E+00
    -26.629  0.0000E+00  0.0000E+00  0.0000E+00  0.0000E+00  0.0000E+00  0.0000E+00  0.0000E+00  0.0000E+00  0.0000E+00  0.0000E+00  0.0000E+00  0.0000E+00  0.0000E+00  0.0000E+00  0.0000E+00  0.0000E+00  0.0000E+00  0.0000E+00
    -26.495  0.0000E+00  0.0000E+00  0.0000E+00  0.0000E+00  0.0000E+00  0.0000E+00  0.0000E+00  0.0000E+00  0.0000E+00  0.0000E+00  0.0000E+00  0.0000E+00  0.0000E+00  0.0000E+00  0.0000E+00  0.0000E+00  0.0000E+00  0.0000E+00
    -26.361  0.0000E+00  0.0000E+00  0.0000E+00  0.0000E+00  0.0000E+00  0.0000E+00  0.0000E+00  0.0000E+00  0.0000E+00  0.0000E+00  0.0000E+00  0.0000E+00  0.0000E+00  0.0000E+00  0.0000E+00  0.0000E+00  0.0000E+00  0.0000E+00
    -26.228  0.0000E+00  0.0000E+00  0.0000E+00  0.0000E+00  0.0000E+00  0.0000E+00  0.0000E+00  0.0000E+00  0.0000E+00  0.0000E+00  0.0000E+00  0.0000E+00  0.0000E+00  0.0000E+00  0.0000E+00  0.0000E+00  0.0000E+00  0.0000E+00
    -26.094  0.0000E+00  0.0000E+00  0.0000E+00  0.0000E+00  0.0000E+00  0.0000E+00  0.0000E+00  0.0000E+00  0.0000E+00  0.0000E+00  0.0000E+00  0.0000E+00  0.0000E+00  0.0000E+00  0.0000E+00  0.0000E+00  0.0000E+00  0.0000E+00
    -25.960  0.0000E+00  0.0000E+00  0.0000E+00  0.0000E+00  0.0000E+00  0.0000E+00  0.0000E+00  0.0000E+00  0.0000E+00  0.0000E+00  0.0000E+00  0.0000E+00  0.0000E+00  0.0000E+00  0.0000E+00  0.0000E+00  0.0000E+00  0.0000E+00
    -25.827  0.0000E+00  0.0000E+00  0.0000E+00  0.0000E+00  0.0000E+00  0.0000E+00  0.0000E+00  0.0000E+00  0.0000E+00  0.0000E+00  0.0000E+00  0.0000E+00  0.0000E+00  0.0000E+00  0.0000E+00  0.0000E+00  0.0000E+00  0.0000E+00
    -25.693  0.0000E+00  0.0000E+00  0.0000E+00  0.0000E+00  0.0000E+00  0.0000E+00  0.0000E+00  0.0000E+00  0.0000E+00  0.0000E+00  0.0000E+00  0.0000E+00  0.0000E+00  0.0000E+00  0.0000E+00  0.0000E+00  0.0000E+00  0.0000E+00
    -25.559  0.0000E+00  0.0000E+00  0.0000E+00  0.0000E+00  0.0000E+00  0.0000E+00  0.0000E+00  0.0000E+00  0.0000E+00  0.0000E+00  0.0000E+00  0.0000E+00  0.0000E+00  0.0000E+00  0.0000E+00  0.0000E+00  0.0000E+00  0.0000E+00
    -25.426  0.1695E-08  0.1702E-08  0.8020E-05  0.8053E-05  0.8020E-05  0.8053E-05  0.8020E-05  0.8053E-05  0.4470E-09  0.4476E-09  0.4470E-09  0.4476E-09  0.5850E-09  0.5885E-09  0.4470E-09  0.4476E-09  0.5850E-09  0.5885E-09
    -25.292  0.7832E-07  0.7865E-07  0.2159E-03  0.2168E-03  0.2159E-03  0.2168E-03  0.2159E-03  0.2168E-03  0.2234E-07  0.2238E-07  0.2234E-07  0.2238E-07  0.2617E-07  0.2632E-07  0.2234E-07  0.2238E-07  0.2617E-07  0.2632E-07
    -25.158  0.1203E-05  0.1208E-05  0.3109E-02  0.3122E-02  0.3109E-02  0.3122E-02  0.3109E-02  0.3122E-02  0.3258E-06  0.3265E-06  0.3258E-06  0.3265E-06  0.3858E-06  0.3879E-06  0.3258E-06  0.3265E-06  0.3858E-06  0.3879E-06
    -25.025  0.1660E-04  0.1667E-04  0.4133E-01  0.4149E-01  0.4133E-01  0.4149E-01  0.4133E-01  0.4149E-01  0.4492E-05  0.4501E-05  0.4492E-05  0.4501E-05  0.5226E-05  0.5254E-05  0.4492E-05  0.4501E-05  0.5226E-05  0.5254E-05
    -24.891  0.1703E-03  0.1708E-03  0.3311E+00  0.3319E+00  0.3311E+00  0.3319E+00  0.3311E+00  0.3319E+00  0.4350E-04  0.4355E-04  0.4350E-04  0.4355E-04  0.4747E-04  0.4767E-04  0.4350E-04  0.4355E-04  0.4747E-04  0.4767E-04
    -24.757  0.7287E-03  0.7297E-03  0.9669E+00  0.9676E+00  0.9669E+00  0.9676E+00  0.9669E+00  0.9676E+00  0.1590E-03  0.1589E-03  0.1590E-03  0.1589E-03  0.1510E-03  0.1513E-03  0.1590E-03  0.1589E-03  0.1510E-03  0.1513E-03
    -24.624  0.9392E-03  0.9390E-03  0.9602E+00  0.9599E+00  0.9602E+00  0.9599E+00  0.9602E+00  0.9599E+00  0.2142E-03  0.2141E-03  0.2142E-03  0.2141E-03  0.1454E-03  0.1455E-03  0.2142E-03  0.2141E-03  0.1454E-03  0.1455E-03
    -24.490  0.6473E-03  0.6469E-03  0.1107E+01  0.1108E+01  0.1107E+01  0.1108E+01  0.1107E+01  0.1108E+01  0.3022E-03  0.3021E-03  0.3022E-03  0.3021E-03  0.1669E-03  0.1670E-03  0.3022E-03  0.3021E-03  0.1669E-03  0.1670E-03
    -24.356  0.3981E-03  0.3977E-03  0.1764E+01  0.1765E+01  0.1764E+01  0.1765E+01  0.1764E+01  0.1765E+01  0.3250E-03  0.3247E-03  0.3250E-03  0.3247E-03  0.2808E-03  0.2807E-03  0.3250E-03  0.3247E-03  0.2808E-03  0.2807E-03
    -24.223  0.1694E-03  0.1690E-03  0.1634E+01  0.1632E+01  0.1634E+01  0.1632E+01  0.1634E+01  0.1632E+01  0.1889E-03  0.1885E-03  0.1889E-03  0.1885E-03  0.1737E-03  0.1733E-03  0.1889E-03  0.1885E-03  0.1737E-03  0.1733E-03
    -24.089  0.3222E-04  0.3211E-04  0.4910E+00  0.4896E+00  0.4910E+00  0.4896E+00  0.4910E+00  0.4896E+00  0.3920E-04  0.3906E-04  0.3920E-04  0.3906E-04  0.3205E-04  0.3192E-04  0.3920E-04  0.3906E-04  0.3205E-04  0.3192E-04
    -23.955  0.2104E-05  0.2095E-05  0.4622E-01  0.4603E-01  0.4622E-01  0.4603E-01  0.4622E-01  0.4603E-01  0.2985E-05  0.2973E-05  0.2985E-05  0.2973E-05  0.2097E-05  0.2087E-05  0.2985E-05  0.2973E-05  0.2097E-05  0.2087E-05
    -23.822  0.1585E-16  0.3311E-16  0.4452E-03  0.4433E-03  0.4452E-03  0.4433E-03  0.4452E-03  0.4433E-03  0.6819E-14  0.4283E-13  0.6819E-14  0.4283E-13  0.3354E-08  0.3323E-08  0.6819E-14  0.4283E-13  0.3354E-08  0.3323E-08
    -23.688  0.0000E+00  0.0000E+00  0.0000E+00  0.0000E+00  0.0000E+00  0.0000E+00  0.0000E+00  0.0000E+00  0.0000E+00  0.0000E+00  0.0000E+00  0.0000E+00  0.0000E+00  0.0000E+00  0.0000E+00  0.0000E+00  0.0000E+00  0.0000E+00
    -23.554  0.0000E+00  0.0000E+00  0.0000E+00  0.0000E+00  0.0000E+00  0.0000E+00  0.0000E+00  0.0000E+00  0.0000E+00  0.0000E+00  0.0000E+00  0.0000E+00  0.0000E+00  0.0000E+00  0.0000E+00  0.0000E+00  0.0000E+00  0.0000E+00
    -23.420  0.0000E+00  0.0000E+00  0.0000E+00  0.0000E+00  0.0000E+00  0.0000E+00  0.0000E+00  0.0000E+00  0.0000E+00  0.0000E+00  0.0000E+00  0.0000E+00  0.0000E+00  0.0000E+00  0.0000E+00  0.0000E+00  0.0000E+00  0.0000E+00
    -23.287  0.0000E+00  0.0000E+00  0.0000E+00  0.0000E+00  0.0000E+00  0.0000E+00  0.0000E+00  0.0000E+00  0.0000E+00  0.0000E+00  0.0000E+00  0.0000E+00  0.0000E+00  0.0000E+00  0.0000E+00  0.0000E+00  0.0000E+00  0.0000E+00
    -23.153  0.0000E+00  0.0000E+00  0.0000E+00  0.0000E+00  0.0000E+00  0.0000E+00  0.0000E+00  0.0000E+00  0.0000E+00  0.0000E+00  0.0000E+00  0.0000E+00  0.0000E+00  0.0000E+00  0.0000E+00  0.0000E+00  0.0000E+00  0.0000E+00
    -23.019  0.0000E+00  0.0000E+00  0.0000E+00  0.0000E+00  0.0000E+00  0.0000E+00  0.0000E+00  0.0000E+00  0.0000E+00  0.0000E+00  0.0000E+00  0.0000E+00  0.0000E+00  0.0000E+00  0.0000E+00  0.0000E+00  0.0000E+00  0.0000E+00
    -22.886  0.0000E+00  0.0000E+00  0.0000E+00  0.0000E+00  0.0000E+00  0.0000E+00  0.0000E+00  0.0000E+00  0.0000E+00  0.0000E+00  0.0000E+00  0.0000E+00  0.0000E+00  0.0000E+00  0.0000E+00  0.0000E+00  0.0000E+00  0.0000E+00
    -22.752  0.0000E+00  0.0000E+00  0.0000E+00  0.0000E+00  0.0000E+00  0.0000E+00  0.0000E+00  0.0000E+00  0.0000E+00  0.0000E+00  0.0000E+00  0.0000E+00  0.0000E+00  0.0000E+00  0.0000E+00  0.0000E+00  0.0000E+00  0.0000E+00
    -22.618  0.0000E+00  0.0000E+00  0.0000E+00  0.0000E+00  0.0000E+00  0.0000E+00  0.0000E+00  0.0000E+00  0.0000E+00  0.0000E+00  0.0000E+00  0.0000E+00  0.0000E+00  0.0000E+00  0.0000E+00  0.0000E+00  0.0000E+00  0.0000E+00
    -22.485  0.0000E+00  0.0000E+00  0.0000E+00  0.0000E+00  0.0000E+00  0.0000E+00  0.0000E+00  0.0000E+00  0.0000E+00  0.0000E+00  0.0000E+00  0.0000E+00  0.0000E+00  0.0000E+00  0.0000E+00  0.0000E+00  0.0000E+00  0.0000E+00
    -22.351  0.0000E+00  0.0000E+00  0.0000E+00  0.0000E+00  0.0000E+00  0.0000E+00  0.0000E+00  0.0000E+00  0.0000E+00  0.0000E+00  0.0000E+00  0.0000E+00  0.0000E+00  0.0000E+00  0.0000E+00  0.0000E+00  0.0000E+00  0.0000E+00
    -22.217  0.0000E+00  0.0000E+00  0.0000E+00  0.0000E+00  0.0000E+00  0.0000E+00  0.0000E+00  0.0000E+00  0.0000E+00  0.0000E+00  0.0000E+00  0.0000E+00  0.0000E+00  0.0000E+00  0.0000E+00  0.0000E+00  0.0000E+00  0.0000E+00
    -22.084  0.0000E+00  0.0000E+00  0.0000E+00  0.0000E+00  0.0000E+00  0.0000E+00  0.0000E+00  0.0000E+00  0.0000E+00  0.0000E+00  0.0000E+00  0.0000E+00  0.0000E+00  0.0000E+00  0.0000E+00  0.0000E+00  0.0000E+00  0.0000E+00
    -21.950  0.0000E+00  0.0000E+00  0.0000E+00  0.0000E+00  0.0000E+00  0.0000E+00  0.0000E+00  0.0000E+00  0.0000E+00  0.0000E+00  0.0000E+00  0.0000E+00  0.0000E+00  0.0000E+00  0.0000E+00  0.0000E+00  0.0000E+00  0.0000E+00
    -21.816  0.0000E+00  0.0000E+00  0.0000E+00  0.0000E+00  0.0000E+00  0.0000E+00  0.0000E+00  0.0000E+00  0.0000E+00  0.0000E+00  0.0000E+00  0.0000E+00  0.0000E+00  0.0000E+00  0.0000E+00  0.0000E+00  0.0000E+00  0.0000E+00
    -21.683  0.0000E+00  0.0000E+00  0.0000E+00  0.0000E+00  0.0000E+00  0.0000E+00  0.0000E+00  0.0000E+00  0.0000E+00  0.0000E+00  0.0000E+00  0.0000E+00  0.0000E+00  0.0000E+00  0.0000E+00  0.0000E+00  0.0000E+00  0.0000E+00
    -21.549  0.0000E+00  0.0000E+00  0.0000E+00  0.0000E+00  0.0000E+00  0.0000E+00  0.0000E+00  0.0000E+00  0.0000E+00  0.0000E+00  0.0000E+00  0.0000E+00  0.0000E+00  0.0000E+00  0.0000E+00  0.0000E+00  0.0000E+00  0.0000E+00
    -21.415  0.0000E+00  0.0000E+00  0.0000E+00  0.0000E+00  0.0000E+00  0.0000E+00  0.0000E+00  0.0000E+00  0.0000E+00  0.0000E+00  0.0000E+00  0.0000E+00  0.0000E+00  0.0000E+00  0.0000E+00  0.0000E+00  0.0000E+00  0.0000E+00
    -21.282  0.0000E+00  0.0000E+00  0.0000E+00  0.0000E+00  0.0000E+00  0.0000E+00  0.0000E+00  0.0000E+00  0.0000E+00  0.0000E+00  0.0000E+00  0.0000E+00  0.0000E+00  0.0000E+00  0.0000E+00  0.0000E+00  0.0000E+00  0.0000E+00
    -21.148  0.0000E+00  0.0000E+00  0.0000E+00  0.0000E+00  0.0000E+00  0.0000E+00  0.0000E+00  0.0000E+00  0.0000E+00  0.0000E+00  0.0000E+00  0.0000E+00  0.0000E+00  0.0000E+00  0.0000E+00  0.0000E+00  0.0000E+00  0.0000E+00
    -21.014  0.0000E+00  0.0000E+00  0.0000E+00  0.0000E+00  0.0000E+00  0.0000E+00  0.0000E+00  0.0000E+00  0.0000E+00  0.0000E+00  0.0000E+00  0.0000E+00  0.0000E+00  0.0000E+00  0.0000E+00  0.0000E+00  0.0000E+00  0.0000E+00
    -20.881  0.0000E+00  0.0000E+00  0.0000E+00  0.0000E+00  0.0000E+00  0.0000E+00  0.0000E+00  0.0000E+00  0.0000E+00  0.0000E+00  0.0000E+00  0.0000E+00  0.0000E+00  0.0000E+00  0.0000E+00  0.0000E+00  0.0000E+00  0.0000E+00
    -20.747  0.0000E+00  0.0000E+00  0.0000E+00  0.0000E+00  0.0000E+00  0.0000E+00  0.0000E+00  0.0000E+00  0.0000E+00  0.0000E+00  0.0000E+00  0.0000E+00  0.0000E+00  0.0000E+00  0.0000E+00  0.0000E+00  0.0000E+00  0.0000E+00
    -20.613  0.0000E+00  0.0000E+00  0.0000E+00  0.0000E+00  0.0000E+00  0.0000E+00  0.0000E+00  0.0000E+00  0.0000E+00  0.0000E+00  0.0000E+00  0.0000E+00  0.0000E+00  0.0000E+00  0.0000E+00  0.0000E+00  0.0000E+00  0.0000E+00
    -20.480  0.0000E+00  0.0000E+00  0.0000E+00  0.0000E+00  0.0000E+00  0.0000E+00  0.0000E+00  0.0000E+00  0.0000E+00  0.0000E+00  0.0000E+00  0.0000E+00  0.0000E+00  0.0000E+00  0.0000E+00  0.0000E+00  0.0000E+00  0.0000E+00
    -20.346  0.0000E+00  0.0000E+00  0.0000E+00  0.0000E+00  0.0000E+00  0.0000E+00  0.0000E+00  0.0000E+00  0.0000E+00  0.0000E+00  0.0000E+00  0.0000E+00  0.0000E+00  0.0000E+00  0.0000E+00  0.0000E+00  0.0000E+00  0.0000E+00
    -20.212  0.0000E+00  0.0000E+00  0.0000E+00  0.0000E+00  0.0000E+00  0.0000E+00  0.0000E+00  0.0000E+00  0.0000E+00  0.0000E+00  0.0000E+00  0.0000E+00  0.0000E+00  0.0000E+00  0.0000E+00  0.0000E+00  0.0000E+00  0.0000E+00
    -20.079  0.0000E+00  0.0000E+00  0.0000E+00  0.0000E+00  0.0000E+00  0.0000E+00  0.0000E+00  0.0000E+00  0.0000E+00  0.0000E+00  0.0000E+00  0.0000E+00  0.0000E+00  0.0000E+00  0.0000E+00  0.0000E+00  0.0000E+00  0.0000E+00