   8   8   1   0
  0.1043071E+02  0.4369865E-09  0.4369865E-09  0.4369865E-09  0.5000000E-15
  1.000000000000000E-004
  CAR 
 unknown system                          
     14.69197865    -25.90566856  301      8.56791681      1.00000000
    -25.906  0.0000E+00  0.0000E+00  0.0000E+00  0.0000E+00
    -25.770  0.0000E+00  0.0000E+00  0.0000E+00  0.0000E+00
    -25.635  0.0000E+00  0.0000E+00  0.0000E+00  0.0000E+00
    -25.500  0.0000E+00  0.0000E+00  0.0000E+00  0.0000E+00
    -25.364  0.0000E+00  0.0000E+00  0.0000E+00  0.0000E+00
    -25.229  0.0000E+00  0.0000E+00  0.0000E+00  0.0000E+00
    -25.094  0.0000E+00  0.0000E+00  0.0000E+00  0.0000E+00
    -24.958  0.0000E+00  0.0000E+00  0.0000E+00  0.0000E+00
    -24.823  0.0000E+00  0.0000E+00  0.0000E+00  0.0000E+00
    -24.688  0.0000E+00  0.0000E+00  0.0000E+00  0.0000E+00
    -24.552  0.7517E-04  0.7545E-04  0.1017E-04  0.1021E-04
    -24.417  0.1624E-02  0.1630E-02  0.2299E-03  0.2308E-03
    -24.282  0.2512E-01  0.2521E-01  0.3629E-02  0.3642E-02
    -24.146  0.3374E+00  0.3386E+00  0.4929E-01  0.4946E-01
    -24.011  0.2451E+01  0.2456E+01  0.3809E+00  0.3818E+00
    -23.876  0.8164E+01  0.8173E+01  0.1486E+01  0.1488E+01
    -23.740  0.1035E+02  0.1035E+02  0.2887E+01  0.2889E+01
    -23.605  0.7313E+01  0.7311E+01  0.3877E+01  0.3878E+01
    -23.470  0.8509E+01  0.8515E+01  0.5033E+01  0.5035E+01
    -23.334  0.1363E+02  0.1364E+02  0.6879E+01  0.6882E+01
    -23.199  0.1803E+02  0.1804E+02  0.9321E+01  0.9324E+01
    -23.064  0.1477E+02  0.1475E+02  0.1132E+02  0.1132E+02
    -22.929  0.4503E+01  0.4491E+01  0.1193E+02  0.1193E+02
    -22.793  0.4266E+00  0.4250E+00  0.1200E+02  0.1200E+02
    -22.658  0.6093E-02  0.6069E-02  0.1200E+02  0.1200E+02
    -22.523  0.0000E+00  0.0000E+00  0.1200E+02  0.1200E+02
    -22.387  0.0000E+00  0.0000E+00  0.1200E+02  0.1200E+02
    -22.252  0.0000E+00  0.0000E+00  0.1200E+02  0.1200E+02
    -22.117  0.0000E+00  0.0000E+00  0.1200E+02  0.1200E+02
    -21.981  0.0000E+00  0.0000E+00  0.1200E+02  0.1200E+02
    -21.846  0.0000E+00  0.0000E+00  0.1200E+02  0.1200E+02
    -21.711  0.0000E+00  0.0000E+00  0.1200E+02  0.1200E+02
    -21.575  0.0000E+00  0.0000E+00  0.1200E+02  0.1200E+02
    -21.440  0.0000E+00  0.0000E+00  0.1200E+02  0.1200E+02
    -21.305  0.0000E+00  0.0000E+00  0.1200E+02  0.1200E+02
    -21.169  0.0000E+00  0.0000E+00  0.1200E+02  0.1200E+02
    -21.034  0.0000E+00  0.0000E+00  0.1200E+02  0.1200E+02
    -20.899  0.0000E+00  0.0000E+00  0.1200E+02  0.1200E+02
    -20.763  0.0000E+00  0.0000E+00  0.1200E+02  0.1200E+02
    -20.628  0.0000E+00  0.0000E+00  0.1200E+02  0.1200E+02
    -20.493  0.0000E+00  0.0000E+00  0.1200E+02  0.1200E+02
    -20.357  0.0000E+00  0.0000E+00  0.1200E+02  0.1200E+02
    -20.222  0.0000E+00  0.0000E+00  0.1200E+02  0.1200E+02
    -20.087  0.0000E+00  0.0000E+00  0.1200E+02  0.1200E+02
    -19.951  0.0000E+00  0.0000E+00  0.1200E+02  0.1200E+02
    -19.816  0.0000E+00  0.0000E+00  0.1200E+02  0.1200E+02
    -19.681  0.0000E+00  0.0000E+00  0.1200E+02  0.1200E+02
    -19.545  0.0000E+00  0.0000E+00  0.1200E+02  0.1200E+02
    -19.410  0.0000E+00  0.0000E+00  0.1200E+02  0.1200E+02
    -19.275  0.0000E+00  0.0000E+00  0.1200E+02  0.1200E+02
    -19.139  0.0000E+00  0.0000E+00  0.1200E+02  0.1200E+02
    -19.004  0.0000E+00  0.0000E+00  0.1200E+02  0.1200E+02
    -18.869  0.0000E+00  0.0000E+00  0.1200E+02  0.1200E+02
    -18.733  0.0000E+00  0.0000E+00  0.1200E+02  0.1200E+02
    -18.598  0.0000E+00  0.0000E+00  0.1200E+02  0.1200E+02
    -18.463  0.0000E+00  0.0000E+00  0.1200E+02  0.1200E+02
    -18.327  0.0000E+00  0.0000E+00  0.1200E+02  0.1200E+02
    -18.192  0.0000E+00  0.0000E+00  0.1200E+02  0.1200E+02
    -18.057  0.0000E+00  0.0000E+00  0.1200E+02  0.1200E+02
    -17.921  0.0000E+00  0.0000E+00  0.1200E+02  0.1200E+02
    -17.786  0.0000E+00  0.0000E+00  0.1200E+02  0.1200E+02
    -17.651  0.0000E+00  0.0000E+00  0.1200E+02  0.1200E+02
    -17.515  0.0000E+00  0.0000E+00  0.1200E+02  0.1200E+02
    -17.380  0.0000E+00  0.0000E+00  0.1200E+02  0.1200E+02
    -17.245  0.0000E+00  0.0000E+00  0.1200E+02  0.1200E+02
    -17.110  0.0000E+00  0.0000E+00  0.1200E+02  0.1200E+02
    -16.974  0.0000E+00  0.0000E+00  0.1200E+02  0.1200E+02
    -16.839  0.0000E+00  0.0000E+00  0.1200E+02  0.1200E+02
    -16.704  0.0000E+00  0.0000E+00  0.1200E+02  0.1200E+02
    -16.568  0.0000E+00  0.0000E+00  0.1200E+02  0.1200E+02
    -16.433  0.0000E+00  0.0000E+00  0.1200E+02  0.1200E+02
    -16.298  0.0000E+00  0.0000E+00  0.1200E+02  0.1200E+02
    -16.162  0.0000E+00  0.0000E+00  0.1200E+02  0.1200E+02
    -16.027  0.0000E+00  0.0000E+00  0.1200E+02  0.1200E+02
    -15.892  0.0000E+00  0.0000E+00  0.1200E+02  0.1200E+02
    -15.756  0.0000E+00  0.0000E+00  0.1200E+02  0.1200E+02
    -15.621  0.0000E+00  0.0000E+00  0.1200E+02  0.1200E+02
    -15.486  0.0000E+00  0.0000E+00  0.1200E+02  0.1200E+02
    -15.350  0.0000E+00  0.0000E+00  0.1200E+02  0.1200E+02
    -15.215  0.0000E+00  0.0000E+00  0.1200E+02  0.1200E+02
    -15.080  0.0000E+00  0.0000E+00  0.1200E+02  0.1200E+02
    -14.944  0.0000E+00  0.0000E+00  0.1200E+02  0.1200E+02
    -14.809  0.0000E+00  0.0000E+00  0.1200E+02  0.1200E+02
    -14.674  0.0000E+00  0.0000E+00  0.1200E+02  0.1200E+02
    -14.538  0.0000E+00  0.0000E+00  0.1200E+02  0.1200E+02
    -14.403  0.0000E+00  0.0000E+00  0.1200E+02  0.1200E+02
    -14.268  0.0000E+00  0.0000E+00  0.1200E+02  0.1200E+02
    -14.132  0.0000E+00  0.0000E+00  0.1200E+02  0.1200E+02
    -13.997  0.0000E+00  0.0000E+00  0.1200E+02  0.1200E+02
    -13.862  0.0000E+00  0.0000E+00  0.1200E+02  0.1200E+02
    -13.726  0.0000E+00  0.0000E+00  0.1200E+02  0.1200E+02
    -13.591  0.0000E+00  0.0000E+00  0.1200E+02  0.1200E+02
    -13.456  0.0000E+00  0.0000E+00  0.1200E+02  0.1200E+02
    -13.320  0.0000E+00  0.0000E+00  0.1200E+02  0.1200E+02
    -13.185  0.0000E+00  0.0000E+00  0.1200E+02  0.1200E+02
    -13.050  0.0000E+00  0.0000E+00  0.1200E+02  0.1200E+02
    -12.914  0.0000E+00  0.0000E+00  0.1200E+02  0.1200E+02
    -12.779  0.0000E+00  0.0000E+00  0.1200E+02  0.1200E+02
    -12.644  0.0000E+00  0.0000E+00  0.1200E+02  0.1200E+02
    -12.508  0.0000E+00  0.0000E+00  0.1200E+02  0.1200E+02
    -12.373  0.0000E+00  0.0000E+00  0.1200E+02  0.1200E+02
    -12.238  0.0000E+00  0.0000E+00  0.1200E+02  0.1200E+02
    -12.102  0.0000E+00  0.0000E+00  0.1200E+02  0.1200E+02
    -11.967  0.0000E+00  0.0000E+00  0.1200E+02  0.1200E+02
    -11.832  0.0000E+00  0.0000E+00  0.1200E+02  0.1200E+02
    -11.696  0.0000E+00  0.0000E+00  0.1200E+02  0.1200E+02
    -11.561  0.0000E+00  0.0000E+00  0.1200E+02  0.1200E+02
    -11.426  0.0000E+00  0.0000E+00  0.1200E+02  0.1200E+02
    -11.291  0.0000E+00  0.0000E+00  0.1200E+02  0.1200E+02
    -11.155  0.0000E+00  0.0000E+00  0.1200E+02  0.1200E+02
    -11.020  0.0000E+00  0.0000E+00  0.1200E+02  0.1200E+02
    -10.885  0.0000E+00  0.0000E+00  0.1200E+02  0.1200E+02
    -10.749  0.0000E+00  0.0000E+00  0.1200E+02  0.1200E+02
    -10.614  0.0000E+00  0.0000E+00  0.1200E+02  0.1200E+02
    -10.479  0.0000E+00  0.0000E+00  0.1200E+02  0.1200E+02
    -10.343  0.0000E+00  0.0000E+00  0.1200E+02  0.1200E+02
    -10.208  0.0000E+00  0.0000E+00  0.1200E+02  0.1200E+02
    -10.073  0.0000E+00  0.0000E+00  0.1200E+02  0.1200E+02
     -9.937  0.0000E+00  0.0000E+00  0.1200E+02  0.1200E+02
     -9.802  0.0000E+00  0.0000E+00  0.1200E+02  0.1200E+02
     -9.667  0.0000E+00  0.0000E+00  0.1200E+02  0.1200E+02
     -9.531  0.0000E+00  0.0000E+00  0.1200E+02  0.1200E+02
     -9.396  0.0000E+00  0.0000E+00  0.1200E+02  0.1200E+02
     -9.261  0.0000E+00  0.0000E+00  0.1200E+02  0.1200E+02
     -9.125  0.0000E+00  0.0000E+00  0.1200E+02  0.1200E+02
     -8.990  0.0000E+00  0.0000E+00  0.1200E+02  0.1200E+02
     -8.855  0.0000E+00  0.0000E+00  0.1200E+02  0.1200E+02
     -8.719  0.0000E+00  0.0000E+00  0.1200E+02  0.1200E+02
     -8.584  0.0000E+00  0.0000E+00  0.1200E+02  0.1200E+02
     -8.449  0.0000E+00  0.0000E+00  0.1200E+02  0.1200E+02
     -8.313  0.0000E+00  0.0000E+00  0.1200E+02  0.1200E+02
     -8.178  0.0000E+00  0.0000E+00  0.1200E+02  0.1200E+02
     -8.043  0.0000E+00  0.0000E+00  0.1200E+02  0.1200E+02
     -7.907  0.0000E+00  0.0000E+00  0.1200E+02  0.1200E+02
     -7.772  0.0000E+00  0.0000E+00  0.1200E+02  0.1200E+02
     -7.637  0.0000E+00  0.0000E+00  0.1200E+02  0.1200E+02
     -7.501  0.0000E+00  0.0000E+00  0.1200E+02  0.1200E+02
     -7.366  0.0000E+00  0.0000E+00  0.1200E+02  0.1200E+02
     -7.231  0.0000E+00  0.0000E+00  0.1200E+02  0.1200E+02
     -7.095  0.0000E+00  0.0000E+00  0.1200E+02  0.1200E+02
     -6.960  0.0000E+00  0.0000E+00  0.1200E+02  0.1200E+02
     -6.825  0.0000E+00  0.0000E+00  0.1200E+02  0.1200E+02
     -6.689  0.0000E+00  0.0000E+00  0.1200E+02  0.1200E+02
     -6.554  0.0000E+00  0.0000E+00  0.1200E+02  0.1200E+02
     -6.419  0.0000E+00  0.0000E+00  0.1200E+02  0.1200E+02
     -6.283  0.0000E+00  0.0000E+00  0.1200E+02  0.1200E+02
     -6.148  0.0000E+00  0.0000E+00  0.1200E+02  0.1200E+02
     -6.013  0.1843E-04  0.1832E-04  0.1200E+02  0.1200E+02
     -5.877  0.2564E-03  0.2549E-03  0.1200E+02  0.1200E+02
     -5.742  0.3606E-02  0.3587E-02  0.1200E+02  0.1200E+02
     -5.607  0.2661E-01  0.2654E-01  0.1200E+02  0.1200E+02
     -5.472  0.2869E-01  0.2873E-01  0.1201E+02  0.1201E+02
     -5.336  0.4698E-01  0.4679E-01  0.1201E+02  0.1201E+02
     -5.201  0.2012E+00  0.2010E+00  0.1204E+02  0.1204E+02
     -5.066  0.1158E+00  0.1161E+00  0.1206E+02  0.1206E+02
     -4.930  0.2020E+00  0.2013E+00  0.1208E+02  0.1208E+02
     -4.795  0.4044E+00  0.4048E+00  0.1214E+02  0.1214E+02
     -4.660  0.1319E+00  0.1321E+00  0.1216E+02  0.1216E+02
     -4.524  0.2821E+00  0.2816E+00  0.1220E+02  0.1220E+02
     -4.389  0.3855E+00  0.3856E+00  0.1225E+02  0.1225E+02
     -4.254  0.3211E+00  0.3212E+00  0.1229E+02  0.1229E+02
     -4.118  0.7064E+00  0.7045E+00  0.1239E+02  0.1239E+02
     -3.983  0.1519E+01  0.1519E+01  0.1259E+02  0.1259E+02
     -3.848  0.1401E+01  0.1400E+01  0.1278E+02  0.1278E+02
     -3.712  0.2133E+01  0.2132E+01  0.1307E+02  0.1307E+02
     -3.577  0.1963E+01  0.1962E+01  0.1334E+02  0.1334E+02
     -3.442  0.1869E+01  0.1871E+01  0.1359E+02  0.1359E+02
     -3.306  0.1622E+01  0.1619E+01  0.1381E+02  0.1381E+02
     -3.171  0.2824E+01  0.2825E+01  0.1419E+02  0.1419E+02
     -3.036  0.1742E+01  0.1742E+01  0.1443E+02  0.1443E+02
     -2.900  0.3141E+01  0.3141E+01  0.1485E+02  0.1485E+02
     -2.765  0.1674E+01  0.1678E+01  0.1508E+02  0.1508E+02
     -2.630  0.1339E+01  0.1337E+01  0.1526E+02  0.1526E+02
     -2.494  0.1976E+01  0.1977E+01  0.1553E+02  0.1553E+02
     -2.359  0.1257E+01  0.1258E+01  0.1570E+02  0.1570E+02
     -2.224  0.5851E+00  0.5860E+00  0.1578E+02  0.1578E+02
     -2.088  0.2157E+00  0.2162E+00  0.1581E+02  0.1581E+02
     -1.953  0.3374E+00  0.3361E+00  0.1586E+02  0.1586E+02
     -1.818  0.8284E+00  0.8287E+00  0.1597E+02  0.1597E+02
     -1.682  0.2208E+00  0.2219E+00  0.1600E+02  0.1600E+02
     -1.547  0.1773E-01  0.1783E-01  0.1600E+02  0.1600E+02
     -1.412  0.0000E+00  0.0000E+00  0.1600E+02  0.1600E+02
     -1.276  0.0000E+00  0.0000E+00  0.1600E+02  0.1600E+02
     -1.141  0.0000E+00  0.0000E+00  0.1600E+02  0.1600E+02
     -1.006  0.0000E+00  0.0000E+00  0.1600E+02  0.1600E+02
     -0.870  0.0000E+00  0.0000E+00  0.1600E+02  0.1600E+02
     -0.735  0.0000E+00  0.0000E+00  0.1600E+02  0.1600E+02
     -0.600  0.0000E+00  0.0000E+00  0.1600E+02  0.1600E+02
     -0.464  0.0000E+00  0.0000E+00  0.1600E+02  0.1600E+02
     -0.329  0.0000E+00  0.0000E+00  0.1600E+02  0.1600E+02
     -0.194  0.0000E+00  0.0000E+00  0.1600E+02  0.1600E+02
     -0.058  0.0000E+00  0.0000E+00  0.1600E+02  0.1600E+02
      0.077  0.0000E+00  0.0000E+00  0.1600E+02  0.1600E+02
      0.212  0.2534E-03  0.2524E-03  0.1600E+02  0.1600E+02
      0.347  0.3533E-02  0.3519E-02  0.1600E+02  0.1600E+02
      0.483  0.5088E-01  0.5069E-01  0.1601E+02  0.1601E+02
      0.618  0.4775E+00  0.4764E+00  0.1607E+02  0.1607E+02
      0.753  0.7452E+00  0.7460E+00  0.1617E+02  0.1617E+02
      0.889  0.1403E+00  0.1407E+00  0.1619E+02  0.1619E+02
      1.024  0.1149E+00  0.1147E+00  0.1621E+02  0.1621E+02
      1.159  0.4600E+00  0.4594E+00  0.1627E+02  0.1627E+02
      1.295  0.1194E+01  0.1193E+01  0.1643E+02  0.1643E+02
      1.430  0.2012E+01  0.2012E+01  0.1670E+02  0.1670E+02
      1.565  0.9264E+00  0.9282E+00  0.1683E+02  0.1683E+02
      1.701  0.5816E+00  0.5810E+00  0.1691E+02  0.1691E+02
      1.836  0.1384E+01  0.1383E+01  0.1710E+02  0.1710E+02
      1.971  0.1898E+01  0.1898E+01  0.1735E+02  0.1735E+02
      2.107  0.2719E+01  0.2718E+01  0.1772E+02  0.1772E+02
      2.242  0.1451E+01  0.1454E+01  0.1792E+02  0.1792E+02
      2.377  0.1219E+01  0.1218E+01  0.1808E+02  0.1808E+02
      2.513  0.1206E+01  0.1206E+01  0.1825E+02  0.1825E+02
      2.648  0.2012E+01  0.2011E+01  0.1852E+02  0.1852E+02
      2.783  0.2310E+01  0.2311E+01  0.1883E+02  0.1883E+02
      2.919  0.2371E+01  0.2371E+01  0.1915E+02  0.1915E+02
      3.054  0.3372E+01  0.3373E+01  0.1961E+02  0.1961E+02
      3.189  0.2598E+01  0.2597E+01  0.1996E+02  0.1996E+02
      3.325  0.4311E+01  0.4310E+01  0.2055E+02  0.2055E+02
      3.460  0.3989E+01  0.3988E+01  0.2109E+02  0.2109E+02
      3.595  0.6970E+01  0.6965E+01  0.2203E+02  0.2203E+02
      3.731  0.9330E+01  0.9331E+01  0.2329E+02  0.2329E+02
      3.866  0.6870E+01  0.6874E+01  0.2422E+02  0.2422E+02
      4.001  0.4831E+01  0.4832E+01  0.2488E+02  0.2488E+02
      4.137  0.3380E+01  0.3382E+01  0.2534E+02  0.2534E+02
      4.272  0.1554E+01  0.1555E+01  0.2556E+02  0.2556E+02
      4.407  0.8635E+00  0.8640E+00  0.2567E+02  0.2567E+02
      4.543  0.1888E+01  0.1887E+01  0.2593E+02  0.2593E+02
      4.678  0.2080E+01  0.2080E+01  0.2621E+02  0.2621E+02
      4.813  0.2298E+01  0.2298E+01  0.2652E+02  0.2652E+02
      4.949  0.2697E+01  0.2697E+01  0.2689E+02  0.2689E+02
      5.084  0.1487E+01  0.1488E+01  0.2709E+02  0.2709E+02
      5.219  0.1140E+01  0.1140E+01  0.2725E+02  0.2725E+02
      5.355  0.1617E+01  0.1616E+01  0.2747E+02  0.2747E+02
      5.490  0.1453E+01  0.1454E+01  0.2766E+02  0.2766E+02
      5.625  0.3365E+00  0.3368E+00  0.2771E+02  0.2771E+02
      5.760  0.2806E-01  0.2808E-01  0.2771E+02  0.2771E+02
      5.896  0.3149E-01  0.3143E-01  0.2772E+02  0.2772E+02
      6.031  0.2781E+00  0.2777E+00  0.2775E+02  0.2775E+02
      6.166  0.4942E+00  0.4941E+00  0.2782E+02  0.2782E+02
      6.302  0.7088E+00  0.7089E+00  0.2792E+02  0.2792E+02
      6.437  0.7545E+00  0.7550E+00  0.2802E+02  0.2802E+02
      6.572  0.2257E+00  0.2255E+00  0.2805E+02  0.2805E+02
      6.708  0.2822E+00  0.2816E+00  0.2809E+02  0.2809E+02
      6.843  0.4725E+00  0.4730E+00  0.2815E+02  0.2815E+02
      6.978  0.2697E+00  0.2696E+00  0.2819E+02  0.2819E+02
      7.114  0.8384E+00  0.8390E+00  0.2830E+02  0.2830E+02
      7.249  0.2015E+01  0.2016E+01  0.2857E+02  0.2858E+02
      7.384  0.1545E+01  0.1543E+01  0.2878E+02  0.2878E+02
      7.520  0.2739E+01  0.2738E+01  0.2915E+02  0.2915E+02
      7.655  0.1870E+01  0.1871E+01  0.2941E+02  0.2941E+02
      7.790  0.1296E+01  0.1297E+01  0.2958E+02  0.2958E+02
      7.926  0.5813E+00  0.5815E+00  0.2966E+02  0.2966E+02
      8.061  0.5797E+00  0.5800E+00  0.2974E+02  0.2974E+02
      8.196  0.4172E+00  0.4165E+00  0.2980E+02  0.2980E+02
      8.332  0.3218E+00  0.3225E+00  0.2984E+02  0.2984E+02
      8.467  0.8088E+00  0.8091E+00  0.2995E+02  0.2995E+02
      8.602  0.4399E+00  0.4398E+00  0.3001E+02  0.3001E+02
      8.738  0.8241E+00  0.8262E+00  0.3012E+02  0.3012E+02
      8.873  0.1667E+01  0.1667E+01  0.3035E+02  0.3035E+02
      9.008  0.5111E+01  0.5112E+01  0.3104E+02  0.3104E+02
      9.144  0.4430E+01  0.4426E+01  0.3164E+02  0.3164E+02
      9.279  0.1556E+01  0.1556E+01  0.3185E+02  0.3185E+02
      9.414  0.1076E+01  0.1078E+01  0.3200E+02  0.3200E+02
      9.550  0.1618E+01  0.1621E+01  0.3222E+02  0.3222E+02
      9.685  0.1262E+01  0.1261E+01  0.3239E+02  0.3239E+02
      9.820  0.1368E+01  0.1371E+01  0.3258E+02  0.3258E+02
      9.956  0.2220E+01  0.2230E+01  0.3288E+02  0.3288E+02
     10.091  0.2144E+01  0.2132E+01  0.3317E+02  0.3317E+02
     10.226  0.1289E+01  0.1276E+01  0.3334E+02  0.3334E+02
     10.362  0.1559E+01  0.1562E+01  0.3355E+02  0.3355E+02
     10.497  0.2631E+01  0.2610E+01  0.3391E+02  0.3391E+02
     10.632  0.5330E+01  0.5229E+01  0.3463E+02  0.3461E+02
     10.768  0.7593E+01  0.7732E+01  0.3566E+02  0.3566E+02
     10.903  0.3610E+01  0.3599E+01  0.3615E+02  0.3615E+02
     11.038  0.1471E+01  0.1430E+01  0.3635E+02  0.3635E+02
     11.174  0.1550E+01  0.1554E+01  0.3656E+02  0.3656E+02
     11.309  0.1291E+01  0.1256E+01  0.3674E+02  0.3673E+02
     11.444  0.1794E+01  0.1865E+01  0.3698E+02  0.3698E+02
     11.579  0.1840E+01  0.2047E+01  0.3723E+02  0.3726E+02
     11.715  0.4404E+01  0.4493E+01  0.3783E+02  0.3787E+02
     11.850  0.5701E+01  0.5632E+01  0.3860E+02  0.3863E+02
     11.985  0.4944E+01  0.3906E+01  0.3927E+02  0.3916E+02
     12.121  0.3301E+01  0.3614E+01  0.3972E+02  0.3965E+02
     12.256  0.1345E+01  0.1835E+01  0.3990E+02  0.3990E+02
     12.391  0.2401E+00  0.2578E+00  0.3993E+02  0.3993E+02
     12.527  0.1646E-01  0.1274E-01  0.3994E+02  0.3994E+02
     12.662  0.1433E-01  0.1073E-01  0.3994E+02  0.3994E+02
     12.797  0.1430E+00  0.1172E+00  0.3996E+02  0.3995E+02
     12.933  0.2592E+00  0.2726E+00  0.3999E+02  0.3999E+02
     13.068  0.5121E-01  0.6611E-01  0.4000E+02  0.4000E+02
     13.203  0.3870E-02  0.5198E-02  0.4000E+02  0.4000E+02
     13.339  0.0000E+00  0.0000E+00  0.4000E+02  0.4000E+02
     13.474  0.0000E+00  0.0000E+00  0.4000E+02  0.4000E+02
     13.609  0.0000E+00  0.0000E+00  0.4000E+02  0.4000E+02
     13.745  0.0000E+00  0.0000E+00  0.4000E+02  0.4000E+02
     13.880  0.0000E+00  0.0000E+00  0.4000E+02  0.4000E+02
     14.015  0.0000E+00  0.0000E+00  0.4000E+02  0.4000E+02
     14.151  0.0000E+00  0.0000E+00  0.4000E+02  0.4000E+02
     14.286  0.0000E+00  0.0000E+00  0.4000E+02  0.4000E+02
     14.421  0.0000E+00  0.0000E+00  0.4000E+02  0.4000E+02
     14.557  0.0000E+00  0.0000E+00  0.4000E+02  0.4000E+02
     14.692  0.0000E+00  0.0000E+00  0.4000E+02  0.4000E+02
     14.69197865    -25.90566856  301      8.56791681      1.00000000
    -25.906  0.0000E+00  0.0000E+00  0.0000E+00  0.0000E+00  0.0000E+00  0.0000E+00  0.0000E+00  0.0000E+00  0.0000E+00  0.0000E+00  0.0000E+00  0.0000E+00  0.0000E+00  0.0000E+00  0.0000E+00  0.0000E+00  0.0000E+00  0.0000E+00
    -25.770  0.0000E+00  0.0000E+00  0.0000E+00  0.0000E+00  0.0000E+00  0.0000E+00  0.0000E+00  0.0000E+00  0.0000E+00  0.0000E+00  0.0000E+00  0.0000E+00  0.0000E+00  0.0000E+00  0.0000E+00  0.0000E+00  0.0000E+00  0.0000E+00
    -25.635  0.0000E+00  0.0000E+00  0.0000E+00  0.0000E+00  0.0000E+00  0.0000E+00  0.0000E+00  0.0000E+00  0.0000E+00  0.0000E+00  0.0000E+00  0.0000E+00  0.0000E+00  0.0000E+00  0.0000E+00  0.0000E+00  0.0000E+00  0.0000E+00
    -25.500  0.0000E+00  0.0000E+00  0.0000E+00  0.0000E+00  0.0000E+00  0.0000E+00  0.0000E+00  0.0000E+00  0.0000E+00  0.0000E+00  0.0000E+00  0.0000E+00  0.0000E+00  0.0000E+00  0.0000E+00  0.0000E+00  0.0000E+00  0.0000E+00
    -25.364  0.0000E+00  0.0000E+00  0.0000E+00  0.0000E+00  0.0000E+00  0.0000E+00  0.0000E+00  0.0000E+00  0.0000E+00  0.0000E+00  0.0000E+00  0.0000E+00  0.0000E+00  0.0000E+00  0.0000E+00  0.0000E+00  0.0000E+00  0.0000E+00
    -25.229  0.0000E+00  0.0000E+00  0.0000E+00  0.0000E+00  0.0000E+00  0.0000E+00  0.0000E+00  0.0000E+00  0.0000E+00  0.0000E+00  0.0000E+00  0.0000E+00  0.0000E+00  0.0000E+00  0.0000E+00  0.0000E+00  0.0000E+00  0.0000E+00
    -25.094  0.0000E+00  0.0000E+00  0.0000E+00  0.0000E+00  0.0000E+00  0.0000E+00  0.0000E+00  0.0000E+00  0.0000E+00  0.0000E+00  0.0000E+00  0.0000E+00  0.0000E+00  0.0000E+00  0.0000E+00  0.0000E+00  0.0000E+00  0.0000E+00
    -24.958  0.0000E+00  0.0000E+00  0.0000E+00  0.0000E+00  0.0000E+00  0.0000E+00  0.0000E+00  0.0000E+00  0.0000E+00  0.0000E+00  0.0000E+00  0.0000E+00  0.0000E+00  0.0000E+00  0.0000E+00  0.0000E+00  0.0000E+00  0.0000E+00
    -24.823  0.0000E+00  0.0000E+00  0.0000E+00  0.0000E+00  0.0000E+00  0.0000E+00  0.0000E+00  0.0000E+00  0.0000E+00  0.0000E+00  0.0000E+00  0.0000E+00  0.0000E+00  0.0000E+00  0.0000E+00  0.0000E+00  0.0000E+00  0.0000E+00
    -24.688  0.0000E+00  0.0000E+00  0.0000E+00  0.0000E+00  0.0000E+00  0.0000E+00  0.0000E+00  0.0000E+00  0.0000E+00  0.0000E+00  0.0000E+00  0.0000E+00  0.0000E+00  0.0000E+00  0.0000E+00  0.0000E+00  0.0000E+00  0.0000E+00
    -24.552  0.1189E-08  0.1193E-08  0.6009E-05  0.6031E-05  0.6009E-05  0.6031E-05  0.6009E-05  0.6031E-05  0.6238E-09  0.6272E-09  0.6238E-09  0.6272E-09  0.1029E-08  0.1031E-08  0.6238E-09  0.6272E-09  0.1029E-08  0.1031E-08
    -24.417  0.6069E-07  0.6092E-07  0.1300E-03  0.1305E-03  0.1300E-03  0.1305E-03  0.1300E-03  0.1305E-03  0.2015E-07  0.2026E-07  0.2015E-07  0.2026E-07  0.2901E-07  0.2910E-07  0.2015E-07  0.2026E-07  0.2901E-07  0.2910E-07
    -24.282  0.1085E-05  0.1089E-05  0.2012E-02  0.2019E-02  0.2012E-02  0.2019E-02  0.2012E-02  0.2019E-02  0.3237E-06  0.3254E-06  0.3237E-06  0.3254E-06  0.4400E-06  0.4413E-06  0.3237E-06  0.3254E-06  0.4400E-06  0.4413E-06
    -24.146  0.1537E-04  0.1543E-04  0.2703E-01  0.2712E-01  0.2703E-01  0.2712E-01  0.2703E-01  0.2712E-01  0.4514E-05  0.4536E-05  0.4514E-05  0.4536E-05  0.6063E-05  0.6079E-05  0.4514E-05  0.4536E-05  0.6063E-05  0.6079E-05
    -24.011  0.1543E-03  0.1547E-03  0.1967E+00  0.1971E+00  0.1967E+00  0.1971E+00  0.1967E+00  0.1971E+00  0.4225E-04  0.4243E-04  0.4225E-04  0.4243E-04  0.5308E-04  0.5319E-04  0.4225E-04  0.4243E-04  0.5308E-04  0.5319E-04
    -23.876  0.7880E-03  0.7893E-03  0.6572E+00  0.6579E+00  0.6572E+00  0.6579E+00  0.6572E+00  0.6579E+00  0.1918E-03  0.1924E-03  0.1918E-03  0.1924E-03  0.2093E-03  0.2095E-03  0.1918E-03  0.1924E-03  0.2093E-03  0.2095E-03
    -23.740  0.1506E-02  0.1506E-02  0.8357E+00  0.8354E+00  0.8357E+00  0.8354E+00  0.8357E+00  0.8354E+00  0.2872E-03  0.2874E-03  0.2872E-03  0.2874E-03  0.2721E-03  0.2720E-03  0.2872E-03  0.2874E-03  0.2721E-03  0.2720E-03
    -23.605  0.1272E-02  0.1271E-02  0.5929E+00  0.5927E+00  0.5929E+00  0.5927E+00  0.5929E+00  0.5927E+00  0.2895E-03  0.2898E-03  0.2895E-03  0.2898E-03  0.1731E-03  0.1730E-03  0.2895E-03  0.2898E-03  0.1731E-03  0.1730E-03
    -23.470  0.8892E-03  0.8890E-03  0.6949E+00  0.6954E+00  0.6949E+00  0.6954E+00  0.6949E+00  0.6954E+00  0.4283E-03  0.4290E-03  0.4283E-03  0.4290E-03  0.1943E-03  0.1946E-03  0.4283E-03  0.4290E-03  0.1943E-03  0.1946E-03
    -23.334  0.6637E-03  0.6633E-03  0.1119E+01  0.1120E+01  0.1119E+01  0.1120E+01  0.1119E+01  0.1120E+01  0.4960E-03  0.4964E-03  0.4960E-03  0.4964E-03  0.3933E-03  0.3938E-03  0.4960E-03  0.4964E-03  0.3933E-03  0.3938E-03
    -23.199  0.4201E-03  0.4197E-03  0.1487E+01  0.1487E+01  0.1487E+01  0.1487E+01  0.1487E+01  0.1487E+01  0.4385E-03  0.4385E-03  0.4385E-03  0.4385E-03  0.4449E-03  0.4450E-03  0.4385E-03  0.4385E-03  0.4449E-03  0.4450E-03
    -23.064  0.1863E-03  0.1860E-03  0.1221E+01  0.1220E+01  0.1221E+01  0.1220E+01  0.1221E+01  0.1220E+01  0.2291E-03  0.2289E-03  0.2291E-03  0.2289E-03  0.2084E-03  0.2081E-03  0.2291E-03  0.2289E-03  0.2084E-03  0.2081E-03
    -22.929  0.3776E-04  0.3764E-04  0.3730E+00  0.3720E+00  0.3730E+00  0.3720E+00  0.3730E+00  0.3720E+00  0.4833E-04  0.4821E-04  0.4833E-04  0.4821E-04  0.3605E-04  0.3591E-04  0.4833E-04  0.4821E-04  0.3605E-04  0.3591E-04
    -22.793  0.2494E-05  0.2484E-05  0.3536E-01  0.3523E-01  0.3536E-01  0.3523E-01  0.3536E-01  0.3523E-01  0.3275E-05  0.3265E-05  0.3275E-05  0.3265E-05  0.2419E-05  0.2407E-05  0.3275E-05  0.3265E-05  0.2419E-05  0.2407E-05
    -22.658  0.5034E-17  0.7596E-17  0.5058E-03  0.5037E-03  0.5058E-03  0.5037E-03  0.5058E-03  0.5037E-03  0.8925E-13  0.5145E-13  0.8925E-13  0.5145E-13  0.6295E-08  0.6247E-08  0.8925E-13  0.5145E-13  0.6295E-08  0.6247E-08
    -22.523  0.0000E+00  0.0000E+00  0.0000E+00  0.0000E+00  0.0000E+00  0.0000E+00  0.0000E+00  0.0000E+00  0.0000E+00  0.0000E+00  0.0000E+00  0.0000E+00  0.0000E+00  0.0000E+00  0.0000E+00  0.0000E+00  0.0000E+00  0.0000E+00
    -22.387  0.0000E+00  0.0000E+00  0.0000E+00  0.0000E+00  0.0000E+00  0.0000E+00  0.0000E+00  0.0000E+00  0.0000E+00  0.0000E+00  0.0000E+00  0.0000E+00  0.0000E+00  0.0000E+00  0.0000E+00  0.0000E+00  0.0000E+00  0.0000E+00
    -22.252  0.0000E+00  0.0000E+00  0.0000E+00  0.0000E+00  0.0000E+00  0.0000E+00  0.0000E+00  0.0000E+00  0.0000E+00  0.0000E+00  0.0000E+00  0.0000E+00  0.0000E+00  0.0000E+00  0.0000E+00  0.0000E+00  0.0000E+00  0.0000E+00
    -22.117  0.0000E+00  0.0000E+00  0.0000E+00  0.0000E+00  0.0000E+00  0.0000E+00  0.0000E+00  0.0000E+00  0.0000E+00  0.0000E+00  0.0000E+00  0.0000E+00  0.0000E+00  0.0000E+00  0.0000E+00  0.0000E+00  0.0000E+00  0.0000E+00
    -21.981  0.0000E+00  0.0000E+00  0.0000E+00  0.0000E+00  0.0000E+00  0.0000E+00  0.0000E+00  0.0000E+00  0.0000E+00  0.0000E+00  0.0000E+00  0.0000E+00  0.0000E+00  0.0000E+00  0.0000E+00  0.0000E+00  0.0000E+00  0.0000E+00
    -21.846  0.0000E+00  0.0000E+00  0.0000E+00  0.0000E+00  0.0000E+00  0.0000E+00  0.0000E+00  0.0000E+00  0.0000E+00  0.0000E+00  0.0000E+00  0.0000E+00  0.0000E+00  0.0000E+00  0.0000E+00  0.0000E+00  0.0000E+00  0.0000E+00
    -21.711  0.0000E+00  0.0000E+00  0.0000E+00  0.0000E+00  0.0000E+00  0.0000E+00  0.0000E+00  0.0000E+00  0.0000E+00  0.0000E+00  0.0000E+00  0.0000E+00  0.0000E+00  0.0000E+00  0.0000E+00  0.0000E+00  0.0000E+00  0.0000E+00
    -21.575  0.0000E+00  0.0000E+00  0.0000E+00  0.0000E+00  0.0000E+00  0.0000E+00  0.0000E+00  0.0000E+00  0.0000E+00  0.0000E+00  0.0000E+00  0.0000E+00  0.0000E+00  0.0000E+00  0.0000E+00  0.0000E+00  0.0000E+00  0.0000E+00
    -21.440  0.0000E+00  0.0000E+00  0.0000E+00  0.0000E+00  0.0000E+00  0.0000E+00  0.0000E+00  0.0000E+00  0.0000E+00  0.0000E+00  0.0000E+00  0.0000E+00  0.0000E+00  0.0000E+00  0.0000E+00  0.0000E+00  0.0000E+00  0.0000E+00
    -21.305  0.0000E+00  0.0000E+00  0.0000E+00  0.0000E+00  0.0000E+00  0.0000E+00  0.0000E+00  0.0000E+00  0.0000E+00  0.0000E+00  0.0000E+00  0.0000E+00  0.0000E+00  0.0000E+00  0.0000E+00  0.0000E+00  0.0000E+00  0.0000E+00
    -21.169  0.0000E+00  0.0000E+00  0.0000E+00  0.0000E+00  0.0000E+00  0.0000E+00  0.0000E+00  0.0000E+00  0.0000E+00  0.0000E+00  0.0000E+00  0.0000E+00  0.0000E+00  0.0000E+00  0.0000E+00  0.0000E+00  0.0000E+00  0.0000E+00
    -21.034  0.0000E+00  0.0000E+00  0.0000E+00  0.0000E+00  0.0000E+00  0.0000E+00  0.0000E+00  0.0000E+00  0.0000E+00  0.0000E+00  0.0000E+00  0.0000E+00  0.0000E+00  0.0000E+00  0.0000E+00  0.0000E+00  0.0000E+00  0.0000E+00
    -20.899  0.0000E+00  0.0000E+00  0.0000E+00  0.0000E+00  0.0000E+00  0.0000E+00  0.0000E+00  0.0000E+00  0.0000E+00  0.0000E+00  0.0000E+00  0.0000E+00  0.0000E+00  0.0000E+00  0.0000E+00  0.0000E+00  0.0000E+00  0.0000E+00
    -20.763  0.0000E+00  0.0000E+00  0.0000E+00  0.0000E+00  0.0000E+00  0.0000E+00  0.0000E+00  0.0000E+00  0.0000E+00  0.0000E+00  0.0000E+00  0.0000E+00  0.0000E+00  0.0000E+00  0.0000E+00  0.0000E+00  0.0000E+00  0.0000E+00
    -20.628  0.0000E+00  0.0000E+00  0.0000E+00  0.0000E+00  0.0000E+00  0.0000E+00  0.0000E+00  0.0000E+00  0.0000E+00  0.0000E+00  0.0000E+00  0.0000E+00  0.0000E+00  0.0000E+00  0.0000E+00  0.0000E+00  0.0000E+00  0.0000E+00
    -20.493  0.0000E+00  0.0000E+00  0.0000E+00  0.0000E+00  0.0000E+00  0.0000E+00  0.0000E+00  0.0000E+00  0.0000E+00  0.0000E+00  0.0000E+00  0.0000E+00  0.0000E+00  0.0000E+00  0.0000E+00  0.0000E+00  0.0000E+00  0.0000E+00
    -20.357  0.0000E+00  0.0000E+00  0.0000E+00  0.0000E+00  0.0000E+00  0.0000E+00  0.0000E+00  0.0000E+00  0.0000E+00  0.0000E+00  0.0000E+00  0.0000E+00  0.0000E+00  0.0000E+00  0.0000E+00  0.0000E+00  0.0000E+00  0.0000E+00
    -20.222  0.0000E+00  0.0000E+00  0.0000E+00  0.0000E+00  0.0000E+00  0.0000E+00  0.0000E+00  0.0000E+00  0.0000E+00  0.0000E+00  0.0000E+00  0.0000E+00  0.0000E+00  0.0000E+00  0.0000E+00  0.0000E+00  0.0000E+00  0.0000E+00
    -20.087  0.0000E+00  0.0000E+00  0.0000E+00  0.0000E+00  0.0000E+00  0.0000E+00  0.0000E+00  0.0000E+00  0.0000E+00  0.0000E+00  0.0000E+00  0.0000E+00  0.0000E+00  0.0000E+00  0.0000E+00  0.0000E+00  0.0000E+00  0.0000E+00
    -19.951  0.0000E+00  0.0000E+00  0.0000E+00  0.0000E+00  0.0000E+00  0.0000E+00  0.0000E+00  0.0000E+00  0.0000E+00  0.0000E+00  0.0000E+00  0.0000E+00  0.0000E+00  0.0000E+00  0.0000E+00  0.0000E+00  0.0000E+00  0.0000E+00
    -19.816  0.0000E+00  0.0000E+00  0.0000E+00  0.0000E+00  0.0000E+00  0.0000E+00  0.0000E+00  0.0000E+00  0.0000E+00  0.0000E+00  0.0000E+00  0.0000E+00  0.0000E+00  0.0000E+00  0.0000E+00  0.0000E+00  0.0000E+00  0.0000E+00
    -19.681  0.0000E+00  0.0000E+00  0.0000E+00  0.0000E+00  0.0000E+00  0.0000E+00  0.0000E+00  0.0000E+00  0.0000E+00  0.0000E+00  0.0000E+00  0.0000E+00  0.0000E+00  0.0000E+00  0.0000E+00  0.0000E+00  0.0000E+00  0.0000E+00
    -19.545  0.0000E+00  0.0000E+00  0.0000E+00  0.0000E+00  0.0000E+00  0.0000E+00  0.0000E+00  0.0000E+00  0.0000E+00  0.0000E+00  0.0000E+00  0.0000E+00  0.0000E+00  0.0000E+00  0.0000E+00  0.0000E+00  0.0000E+00  0.0000E+00
    -19.410  0.0000E+00  0.0000E+00  0.0000E+00  0.0000E+00  0.0000E+00  0.0000E+00  0.0000E+00  0.0000E+00  0.0000E+00  0.0000E+00  0.0000E+00  0.0000E+00  0.0000E+00  0.0000E+00  0.0000E+00  0.0000E+00  0.0000E+00  0.0000E+00
    -19.275  0.0000E+00  0.0000E+00  0.0000E+00  0.0000E+00  0.0000E+00  0.0000E+00  0.0000E+00  0.0000E+00  0.0000E+00  0.0000E+00  0.0000E+00  0.0000E+00  0.0000E+00  0.0000E+00  0.0000E+00  0.0000E+00  0.0000E+00  0.0000E+00
    -19.139  0.0000E+00  0.0000E+00  0.0000E+00  0.0000E+00  0.0000E+00  0.0000E+00  0.0000E+00  0.0000E+00  0.0000E+00  0.0000E+00  0.0000E+00  0.0000E+00  0.0000E+00  0.0000E+00  0.0000E+00  0.0000E+00  0.0000E+00  0.0000E+00