   2   2   1   0
  0.2052581E+02  0.3449664E-09  0.3449664E-09  0.3449664E-09  0.5000000E-15
   1.0000000000000000E-004
  CAR 
 unknown system                          
     10.50734361    -28.80786687  301      3.99153005      1.00000000
    -28.808  0.0000E+00  0.0000E+00  0.0000E+00  0.0000E+00
    -28.677  0.0000E+00  0.0000E+00  0.0000E+00  0.0000E+00
    -28.546  0.0000E+00  0.0000E+00  0.0000E+00  0.0000E+00
    -28.415  0.0000E+00  0.0000E+00  0.0000E+00  0.0000E+00
    -28.284  0.0000E+00  0.0000E+00  0.0000E+00  0.0000E+00
    -28.153  0.0000E+00  0.0000E+00  0.0000E+00  0.0000E+00
    -28.022  0.0000E+00  0.0000E+00  0.0000E+00  0.0000E+00
    -27.891  0.0000E+00  0.0000E+00  0.0000E+00  0.0000E+00
    -27.759  0.0000E+00  0.0000E+00  0.0000E+00  0.0000E+00
    -27.628  0.0000E+00  0.0000E+00  0.0000E+00  0.0000E+00
    -27.497  0.0000E+00  0.0000E+00  0.0000E+00  0.0000E+00
    -27.366  0.0000E+00  0.0000E+00  0.0000E+00  0.0000E+00
    -27.235  0.0000E+00  0.0000E+00  0.0000E+00  0.0000E+00
    -27.104  0.0000E+00  0.0000E+00  0.0000E+00  0.0000E+00
    -26.973  0.2704E+01  0.2728E+01  0.6419E-01  0.6531E-01
    -26.842  0.1074E+02  0.1108E+02  0.9873E+00  0.9910E+00
    -26.711  0.5706E+01  0.5703E+01  0.1739E+01  0.1741E+01
    -26.580  0.6982E+01  0.7003E+01  0.2377E+01  0.2379E+01
    -26.449  0.8304E+01  0.8336E+01  0.3212E+01  0.3214E+01
    -26.318  0.9313E+01  0.9351E+01  0.4198E+01  0.4200E+01
    -26.187  0.1748E+02  0.1748E+02  0.5678E+01  0.5683E+01
    -26.056  0.1201E+01  0.1201E+01  0.6000E+01  0.6000E+01
    -25.925  0.0000E+00  0.0000E+00  0.6000E+01  0.6000E+01
    -25.794  0.0000E+00  0.0000E+00  0.6000E+01  0.6000E+01
    -25.663  0.0000E+00  0.0000E+00  0.6000E+01  0.6000E+01
    -25.532  0.0000E+00  0.0000E+00  0.6000E+01  0.6000E+01
    -25.401  0.0000E+00  0.0000E+00  0.6000E+01  0.6000E+01
    -25.269  0.0000E+00  0.0000E+00  0.6000E+01  0.6000E+01
    -25.138  0.0000E+00  0.0000E+00  0.6000E+01  0.6000E+01
    -25.007  0.0000E+00  0.0000E+00  0.6000E+01  0.6000E+01
    -24.876  0.0000E+00  0.0000E+00  0.6000E+01  0.6000E+01
    -24.745  0.0000E+00  0.0000E+00  0.6000E+01  0.6000E+01
    -24.614  0.0000E+00  0.0000E+00  0.6000E+01  0.6000E+01
    -24.483  0.0000E+00  0.0000E+00  0.6000E+01  0.6000E+01
    -24.352  0.0000E+00  0.0000E+00  0.6000E+01  0.6000E+01
    -24.221  0.0000E+00  0.0000E+00  0.6000E+01  0.6000E+01
    -24.090  0.0000E+00  0.0000E+00  0.6000E+01  0.6000E+01
    -23.959  0.0000E+00  0.0000E+00  0.6000E+01  0.6000E+01
    -23.828  0.0000E+00  0.0000E+00  0.6000E+01  0.6000E+01
    -23.697  0.0000E+00  0.0000E+00  0.6000E+01  0.6000E+01
    -23.566  0.0000E+00  0.0000E+00  0.6000E+01  0.6000E+01
    -23.435  0.0000E+00  0.0000E+00  0.6000E+01  0.6000E+01
    -23.304  0.0000E+00  0.0000E+00  0.6000E+01  0.6000E+01
    -23.173  0.0000E+00  0.0000E+00  0.6000E+01  0.6000E+01
    -23.042  0.0000E+00  0.0000E+00  0.6000E+01  0.6000E+01
    -22.911  0.0000E+00  0.0000E+00  0.6000E+01  0.6000E+01
    -22.780  0.0000E+00  0.0000E+00  0.6000E+01  0.6000E+01
    -22.648  0.0000E+00  0.0000E+00  0.6000E+01  0.6000E+01
    -22.517  0.0000E+00  0.0000E+00  0.6000E+01  0.6000E+01
    -22.386  0.0000E+00  0.0000E+00  0.6000E+01  0.6000E+01
    -22.255  0.0000E+00  0.0000E+00  0.6000E+01  0.6000E+01
    -22.124  0.0000E+00  0.0000E+00  0.6000E+01  0.6000E+01
    -21.993  0.0000E+00  0.0000E+00  0.6000E+01  0.6000E+01
    -21.862  0.0000E+00  0.0000E+00  0.6000E+01  0.6000E+01
    -21.731  0.0000E+00  0.0000E+00  0.6000E+01  0.6000E+01
    -21.600  0.0000E+00  0.0000E+00  0.6000E+01  0.6000E+01
    -21.469  0.0000E+00  0.0000E+00  0.6000E+01  0.6000E+01
    -21.338  0.0000E+00  0.0000E+00  0.6000E+01  0.6000E+01
    -21.207  0.0000E+00  0.0000E+00  0.6000E+01  0.6000E+01
    -21.076  0.0000E+00  0.0000E+00  0.6000E+01  0.6000E+01
    -20.945  0.0000E+00  0.0000E+00  0.6000E+01  0.6000E+01
    -20.814  0.0000E+00  0.0000E+00  0.6000E+01  0.6000E+01
    -20.683  0.0000E+00  0.0000E+00  0.6000E+01  0.6000E+01
    -20.552  0.0000E+00  0.0000E+00  0.6000E+01  0.6000E+01
    -20.421  0.0000E+00  0.0000E+00  0.6000E+01  0.6000E+01
    -20.290  0.0000E+00  0.0000E+00  0.6000E+01  0.6000E+01
    -20.159  0.0000E+00  0.0000E+00  0.6000E+01  0.6000E+01
    -20.027  0.0000E+00  0.0000E+00  0.6000E+01  0.6000E+01
    -19.896  0.0000E+00  0.0000E+00  0.6000E+01  0.6000E+01
    -19.765  0.0000E+00  0.0000E+00  0.6000E+01  0.6000E+01
    -19.634  0.0000E+00  0.0000E+00  0.6000E+01  0.6000E+01
    -19.503  0.0000E+00  0.0000E+00  0.6000E+01  0.6000E+01
    -19.372  0.0000E+00  0.0000E+00  0.6000E+01  0.6000E+01
    -19.241  0.0000E+00  0.0000E+00  0.6000E+01  0.6000E+01
    -19.110  0.0000E+00  0.0000E+00  0.6000E+01  0.6000E+01
    -18.979  0.0000E+00  0.0000E+00  0.6000E+01  0.6000E+01
    -18.848  0.0000E+00  0.0000E+00  0.6000E+01  0.6000E+01
    -18.717  0.0000E+00  0.0000E+00  0.6000E+01  0.6000E+01
    -18.586  0.0000E+00  0.0000E+00  0.6000E+01  0.6000E+01
    -18.455  0.0000E+00  0.0000E+00  0.6000E+01  0.6000E+01
    -18.324  0.0000E+00  0.0000E+00  0.6000E+01  0.6000E+01
    -18.193  0.0000E+00  0.0000E+00  0.6000E+01  0.6000E+01
    -18.062  0.0000E+00  0.0000E+00  0.6000E+01  0.6000E+01
    -17.931  0.0000E+00  0.0000E+00  0.6000E+01  0.6000E+01
    -17.800  0.0000E+00  0.0000E+00  0.6000E+01  0.6000E+01
    -17.669  0.0000E+00  0.0000E+00  0.6000E+01  0.6000E+01
    -17.538  0.0000E+00  0.0000E+00  0.6000E+01  0.6000E+01
    -17.406  0.0000E+00  0.0000E+00  0.6000E+01  0.6000E+01
    -17.275  0.0000E+00  0.0000E+00  0.6000E+01  0.6000E+01
    -17.144  0.0000E+00  0.0000E+00  0.6000E+01  0.6000E+01
    -17.013  0.0000E+00  0.0000E+00  0.6000E+01  0.6000E+01
    -16.882  0.0000E+00  0.0000E+00  0.6000E+01  0.6000E+01
    -16.751  0.0000E+00  0.0000E+00  0.6000E+01  0.6000E+01
    -16.620  0.0000E+00  0.0000E+00  0.6000E+01  0.6000E+01
    -16.489  0.0000E+00  0.0000E+00  0.6000E+01  0.6000E+01
    -16.358  0.0000E+00  0.0000E+00  0.6000E+01  0.6000E+01
    -16.227  0.0000E+00  0.0000E+00  0.6000E+01  0.6000E+01
    -16.096  0.0000E+00  0.0000E+00  0.6000E+01  0.6000E+01
    -15.965  0.0000E+00  0.0000E+00  0.6000E+01  0.6000E+01
    -15.834  0.0000E+00  0.0000E+00  0.6000E+01  0.6000E+01
    -15.703  0.0000E+00  0.0000E+00  0.6000E+01  0.6000E+01
    -15.572  0.0000E+00  0.0000E+00  0.6000E+01  0.6000E+01
    -15.441  0.0000E+00  0.0000E+00  0.6000E+01  0.6000E+01
    -15.310  0.0000E+00  0.0000E+00  0.6000E+01  0.6000E+01
    -15.179  0.0000E+00  0.0000E+00  0.6000E+01  0.6000E+01
    -15.048  0.0000E+00  0.0000E+00  0.6000E+01  0.6000E+01
    -14.916  0.0000E+00  0.0000E+00  0.6000E+01  0.6000E+01
    -14.785  0.0000E+00  0.0000E+00  0.6000E+01  0.6000E+01
    -14.654  0.0000E+00  0.0000E+00  0.6000E+01  0.6000E+01
    -14.523  0.0000E+00  0.0000E+00  0.6000E+01  0.6000E+01
    -14.392  0.0000E+00  0.0000E+00  0.6000E+01  0.6000E+01
    -14.261  0.0000E+00  0.0000E+00  0.6000E+01  0.6000E+01
    -14.130  0.0000E+00  0.0000E+00  0.6000E+01  0.6000E+01
    -13.999  0.0000E+00  0.0000E+00  0.6000E+01  0.6000E+01
    -13.868  0.0000E+00  0.0000E+00  0.6000E+01  0.6000E+01
    -13.737  0.0000E+00  0.0000E+00  0.6000E+01  0.6000E+01
    -13.606  0.0000E+00  0.0000E+00  0.6000E+01  0.6000E+01
    -13.475  0.0000E+00  0.0000E+00  0.6000E+01  0.6000E+01
    -13.344  0.0000E+00  0.0000E+00  0.6000E+01  0.6000E+01
    -13.213  0.0000E+00  0.0000E+00  0.6000E+01  0.6000E+01
    -13.082  0.0000E+00  0.0000E+00  0.6000E+01  0.6000E+01
    -12.951  0.0000E+00  0.0000E+00  0.6000E+01  0.6000E+01
    -12.820  0.0000E+00  0.0000E+00  0.6000E+01  0.6000E+01
    -12.689  0.0000E+00  0.0000E+00  0.6000E+01  0.6000E+01
    -12.558  0.0000E+00  0.0000E+00  0.6000E+01  0.6000E+01
    -12.427  0.0000E+00  0.0000E+00  0.6000E+01  0.6000E+01
    -12.295  0.0000E+00  0.0000E+00  0.6000E+01  0.6000E+01
    -12.164  0.0000E+00  0.0000E+00  0.6000E+01  0.6000E+01
    -12.033  0.0000E+00  0.0000E+00  0.6000E+01  0.6000E+01
    -11.902  0.0000E+00  0.0000E+00  0.6000E+01  0.6000E+01
    -11.771  0.0000E+00  0.0000E+00  0.6000E+01  0.6000E+01
    -11.640  0.0000E+00  0.0000E+00  0.6000E+01  0.6000E+01
    -11.509  0.0000E+00  0.0000E+00  0.6000E+01  0.6000E+01
    -11.378  0.0000E+00  0.0000E+00  0.6000E+01  0.6000E+01
    -11.247  0.0000E+00  0.0000E+00  0.6000E+01  0.6000E+01
    -11.116  0.0000E+00  0.0000E+00  0.6000E+01  0.6000E+01
    -10.985  0.0000E+00  0.0000E+00  0.6000E+01  0.6000E+01
    -10.854  0.0000E+00  0.0000E+00  0.6000E+01  0.6000E+01
    -10.723  0.0000E+00  0.0000E+00  0.6000E+01  0.6000E+01
    -10.592  0.0000E+00  0.0000E+00  0.6000E+01  0.6000E+01
    -10.461  0.0000E+00  0.0000E+00  0.6000E+01  0.6000E+01
    -10.330  0.0000E+00  0.0000E+00  0.6000E+01  0.6000E+01
    -10.199  0.0000E+00  0.0000E+00  0.6000E+01  0.6000E+01
    -10.068  0.0000E+00  0.0000E+00  0.6000E+01  0.6000E+01
     -9.937  0.0000E+00  0.0000E+00  0.6000E+01  0.6000E+01
     -9.806  0.0000E+00  0.0000E+00  0.6000E+01  0.6000E+01
     -9.674  0.0000E+00  0.0000E+00  0.6000E+01  0.6000E+01
     -9.543  0.0000E+00  0.0000E+00  0.6000E+01  0.6000E+01
     -9.412  0.0000E+00  0.0000E+00  0.6000E+01  0.6000E+01
     -9.281  0.0000E+00  0.0000E+00  0.6000E+01  0.6000E+01
     -9.150  0.0000E+00  0.0000E+00  0.6000E+01  0.6000E+01
     -9.019  0.0000E+00  0.0000E+00  0.6000E+01  0.6000E+01
     -8.888  0.0000E+00  0.0000E+00  0.6000E+01  0.6000E+01
     -8.757  0.0000E+00  0.0000E+00  0.6000E+01  0.6000E+01
     -8.626  0.0000E+00  0.0000E+00  0.6000E+01  0.6000E+01
     -8.495  0.0000E+00  0.0000E+00  0.6000E+01  0.6000E+01
     -8.364  0.0000E+00  0.0000E+00  0.6000E+01  0.6000E+01
     -8.233  0.0000E+00  0.0000E+00  0.6000E+01  0.6000E+01
     -8.102  0.0000E+00  0.0000E+00  0.6000E+01  0.6000E+01
     -7.971  0.0000E+00  0.0000E+00  0.6000E+01  0.6000E+01
     -7.840  0.0000E+00  0.0000E+00  0.6000E+01  0.6000E+01
     -7.709  0.0000E+00  0.0000E+00  0.6000E+01  0.6000E+01
     -7.578  0.0000E+00  0.0000E+00  0.6000E+01  0.6000E+01
     -7.447  0.0000E+00  0.0000E+00  0.6000E+01  0.6000E+01
     -7.316  0.0000E+00  0.0000E+00  0.6000E+01  0.6000E+01
     -7.185  0.0000E+00  0.0000E+00  0.6000E+01  0.6000E+01
     -7.053  0.0000E+00  0.0000E+00  0.6000E+01  0.6000E+01
     -6.922  0.0000E+00  0.0000E+00  0.6000E+01  0.6000E+01
     -6.791  0.0000E+00  0.0000E+00  0.6000E+01  0.6000E+01
     -6.660  0.0000E+00  0.0000E+00  0.6000E+01  0.6000E+01
     -6.529  0.0000E+00  0.0000E+00  0.6000E+01  0.6000E+01
     -6.398  0.0000E+00  0.0000E+00  0.6000E+01  0.6000E+01
     -6.267  0.0000E+00  0.0000E+00  0.6000E+01  0.6000E+01
     -6.136  0.0000E+00  0.0000E+00  0.6000E+01  0.6000E+01
     -6.005  0.0000E+00  0.0000E+00  0.6000E+01  0.6000E+01
     -5.874  0.0000E+00  0.0000E+00  0.6000E+01  0.6000E+01
     -5.743  0.0000E+00  0.0000E+00  0.6000E+01  0.6000E+01
     -5.612  0.0000E+00  0.0000E+00  0.6000E+01  0.6000E+01
     -5.481  0.0000E+00  0.0000E+00  0.6000E+01  0.6000E+01
     -5.350  0.0000E+00  0.0000E+00  0.6000E+01  0.6000E+01
     -5.219  0.0000E+00  0.0000E+00  0.6000E+01  0.6000E+01
     -5.088  0.0000E+00  0.0000E+00  0.6000E+01  0.6000E+01
     -4.957  0.0000E+00  0.0000E+00  0.6000E+01  0.6000E+01
     -4.826  0.0000E+00  0.0000E+00  0.6000E+01  0.6000E+01
     -4.695  0.0000E+00  0.0000E+00  0.6000E+01  0.6000E+01
     -4.563  0.0000E+00  0.0000E+00  0.6000E+01  0.6000E+01
     -4.432  0.0000E+00  0.0000E+00  0.6000E+01  0.6000E+01
     -4.301  0.0000E+00  0.0000E+00  0.6000E+01  0.6000E+01
     -4.170  0.0000E+00  0.0000E+00  0.6000E+01  0.6000E+01
     -4.039  0.0000E+00  0.0000E+00  0.6000E+01  0.6000E+01
     -3.908  0.0000E+00  0.0000E+00  0.6000E+01  0.6000E+01
     -3.777  0.0000E+00  0.0000E+00  0.6000E+01  0.6000E+01
     -3.646  0.0000E+00  0.0000E+00  0.6000E+01  0.6000E+01
     -3.515  0.0000E+00  0.0000E+00  0.6000E+01  0.6000E+01
     -3.384  0.0000E+00  0.0000E+00  0.6000E+01  0.6000E+01
     -3.253  0.0000E+00  0.0000E+00  0.6000E+01  0.6000E+01
     -3.122  0.0000E+00  0.0000E+00  0.6000E+01  0.6000E+01
     -2.991  0.0000E+00  0.0000E+00  0.6000E+01  0.6000E+01
     -2.860  0.0000E+00  0.0000E+00  0.6000E+01  0.6000E+01
     -2.729  0.0000E+00  0.0000E+00  0.6000E+01  0.6000E+01
     -2.598  0.0000E+00  0.0000E+00  0.6000E+01  0.6000E+01
     -2.467  0.0000E+00  0.0000E+00  0.6000E+01  0.6000E+01
     -2.336  0.0000E+00  0.0000E+00  0.6000E+01  0.6000E+01
     -2.205  0.0000E+00  0.0000E+00  0.6000E+01  0.6000E+01
     -2.074  0.0000E+00  0.0000E+00  0.6000E+01  0.6000E+01
     -1.942  0.0000E+00  0.0000E+00  0.6000E+01  0.6000E+01
     -1.811  0.0000E+00  0.0000E+00  0.6000E+01  0.6000E+01
     -1.680  0.0000E+00  0.0000E+00  0.6000E+01  0.6000E+01
     -1.549  0.3163E-02  0.3284E-02  0.6000E+01  0.6000E+01
     -1.418  0.1522E-01  0.1548E-01  0.6001E+01  0.6001E+01
     -1.287  0.3648E-01  0.3691E-01  0.6004E+01  0.6005E+01
     -1.156  0.5873E-01  0.5900E-01  0.6011E+01  0.6011E+01
     -1.025  0.7126E-01  0.7138E-01  0.6019E+01  0.6020E+01
     -0.894  0.7569E-01  0.7576E-01  0.6029E+01  0.6029E+01
     -0.763  0.8303E-01  0.8318E-01  0.6039E+01  0.6040E+01
     -0.632  0.9526E-01  0.9548E-01  0.6051E+01  0.6051E+01
     -0.501  0.1101E+00  0.1103E+00  0.6065E+01  0.6065E+01
     -0.370  0.1257E+00  0.1260E+00  0.6080E+01  0.6080E+01
     -0.239  0.1413E+00  0.1415E+00  0.6098E+01  0.6098E+01
     -0.108  0.1527E+00  0.1528E+00  0.6117E+01  0.6117E+01
      0.023  0.1723E+00  0.1727E+00  0.6138E+01  0.6138E+01
      0.154  0.1974E+00  0.1977E+00  0.6162E+01  0.6163E+01
      0.285  0.2213E+00  0.2216E+00  0.6190E+01  0.6190E+01
      0.416  0.2448E+00  0.2451E+00  0.6220E+01  0.6221E+01
      0.547  0.2773E+00  0.2779E+00  0.6254E+01  0.6255E+01
      0.679  0.3372E+00  0.3382E+00  0.6294E+01  0.6295E+01
      0.810  0.4971E+00  0.5008E+00  0.6345E+01  0.6346E+01
      0.941  0.8852E+00  0.8918E+00  0.6431E+01  0.6433E+01
      1.072  0.1379E+01  0.1376E+01  0.6597E+01  0.6599E+01
      1.203  0.1091E+01  0.1089E+01  0.6754E+01  0.6756E+01
      1.334  0.8808E+00  0.8821E+00  0.6877E+01  0.6878E+01
      1.465  0.1038E+01  0.1040E+01  0.7002E+01  0.7003E+01
      1.596  0.1235E+01  0.1238E+01  0.7150E+01  0.7152E+01
      1.727  0.1657E+01  0.1662E+01  0.7339E+01  0.7342E+01
      1.858  0.2345E+01  0.2331E+01  0.7627E+01  0.7631E+01
      1.989  0.1527E+01  0.1517E+01  0.7881E+01  0.7883E+01
      2.120  0.8563E+00  0.8534E+00  0.8028E+01  0.8029E+01
      2.251  0.5281E+00  0.5268E+00  0.8107E+01  0.8108E+01
      2.382  0.4420E+00  0.4414E+00  0.8170E+01  0.8170E+01
      2.513  0.4283E+00  0.4287E+00  0.8226E+01  0.8226E+01
      2.644  0.1250E+01  0.1261E+01  0.8290E+01  0.8292E+01
      2.775  0.3379E+01  0.3391E+01  0.8570E+01  0.8574E+01
      2.906  0.3172E+01  0.3172E+01  0.8994E+01  0.8998E+01
      3.037  0.1573E+01  0.1561E+01  0.9315E+01  0.9317E+01
      3.169  0.9958E+00  0.9965E+00  0.9461E+01  0.9462E+01
      3.300  0.1306E+01  0.1308E+01  0.9613E+01  0.9614E+01
      3.431  0.1396E+01  0.1398E+01  0.9787E+01  0.9788E+01
      3.562  0.1650E+01  0.1653E+01  0.9983E+01  0.9986E+01
      3.693  0.2209E+01  0.2215E+01  0.1023E+02  0.1024E+02
      3.824  0.3521E+01  0.3502E+01  0.1060E+02  0.1061E+02
      3.955  0.1920E+01  0.1915E+01  0.1093E+02  0.1093E+02
      4.086  0.1660E+01  0.1659E+01  0.1116E+02  0.1116E+02
      4.217  0.1454E+01  0.1450E+01  0.1137E+02  0.1137E+02
      4.348  0.9125E+00  0.9052E+00  0.1153E+02  0.1153E+02
      4.479  0.7164E+00  0.7148E+00  0.1163E+02  0.1163E+02
      4.610  0.5472E+00  0.5466E+00  0.1172E+02  0.1172E+02
      4.741  0.5327E+00  0.5320E+00  0.1179E+02  0.1179E+02
      4.872  0.4708E+00  0.4701E+00  0.1185E+02  0.1185E+02
      5.003  0.4077E+00  0.4070E+00  0.1191E+02  0.1191E+02
      5.134  0.3056E+00  0.3049E+00  0.1196E+02  0.1196E+02
      5.265  0.2293E+00  0.2315E+00  0.1199E+02  0.1199E+02
      5.396  0.4682E+00  0.4719E+00  0.1203E+02  0.1203E+02
      5.527  0.5800E+00  0.5818E+00  0.1210E+02  0.1210E+02
      5.658  0.7826E+00  0.7843E+00  0.1219E+02  0.1219E+02
      5.790  0.9744E+00  0.9757E+00  0.1230E+02  0.1230E+02
      5.921  0.1157E+01  0.1158E+01  0.1244E+02  0.1244E+02
      6.052  0.1319E+01  0.1320E+01  0.1261E+02  0.1261E+02
      6.183  0.1511E+01  0.1512E+01  0.1279E+02  0.1279E+02
      6.314  0.1523E+01  0.1524E+01  0.1299E+02  0.1300E+02
      6.445  0.1939E+01  0.1934E+01  0.1322E+02  0.1322E+02
      6.576  0.2053E+01  0.2050E+01  0.1349E+02  0.1349E+02
      6.707  0.1683E+01  0.1683E+01  0.1373E+02  0.1374E+02
      6.838  0.1818E+01  0.1813E+01  0.1395E+02  0.1395E+02
      6.969  0.1366E+01  0.1363E+01  0.1415E+02  0.1415E+02
      7.100  0.1325E+01  0.1326E+01  0.1432E+02  0.1432E+02
      7.231  0.1888E+01  0.1885E+01  0.1453E+02  0.1453E+02
      7.362  0.3897E+01  0.3945E+01  0.1485E+02  0.1485E+02
      7.493  0.3217E+01  0.3195E+01  0.1543E+02  0.1542E+02
      7.624  0.1628E+01  0.1566E+01  0.1564E+02  0.1564E+02
      7.755  0.1123E+01  0.1159E+01  0.1582E+02  0.1582E+02
      7.886  0.5444E+00  0.5536E+00  0.1593E+02  0.1593E+02
      8.017  0.2348E+00  0.2332E+00  0.1598E+02  0.1598E+02
      8.148  0.1212E-01  0.1207E-01  0.1600E+02  0.1600E+02
      8.279  0.7200E-02  0.7165E-02  0.1600E+02  0.1600E+02
      8.411  0.3555E-02  0.3534E-02  0.1600E+02  0.1600E+02
      8.542  0.1183E-02  0.1173E-02  0.1600E+02  0.1600E+02
      8.673  0.8411E-04  0.8171E-04  0.1600E+02  0.1600E+02
      8.804  0.0000E+00  0.0000E+00  0.1600E+02  0.1600E+02
      8.935  0.0000E+00  0.0000E+00  0.1600E+02  0.1600E+02
      9.066  0.0000E+00  0.0000E+00  0.1600E+02  0.1600E+02
      9.197  0.0000E+00  0.0000E+00  0.1600E+02  0.1600E+02
      9.328  0.0000E+00  0.0000E+00  0.1600E+02  0.1600E+02
      9.459  0.0000E+00  0.0000E+00  0.1600E+02  0.1600E+02
      9.590  0.0000E+00  0.0000E+00  0.1600E+02  0.1600E+02
      9.721  0.0000E+00  0.0000E+00  0.1600E+02  0.1600E+02
      9.852  0.0000E+00  0.0000E+00  0.1600E+02  0.1600E+02
      9.983  0.0000E+00  0.0000E+00  0.1600E+02  0.1600E+02
     10.114  0.0000E+00  0.0000E+00  0.1600E+02  0.1600E+02
     10.245  0.0000E+00  0.0000E+00  0.1600E+02  0.1600E+02
     10.376  0.0000E+00  0.0000E+00  0.1600E+02  0.1600E+02
     10.507  0.0000E+00  0.0000E+00  0.1600E+02  0.1600E+02
     10.50734361    -28.80786687  301      3.99153005      1.00000000
    -28.808  0.0000E+00  0.0000E+00  0.0000E+00  0.0000E+00  0.0000E+00  0.0000E+00  0.0000E+00  0.0000E+00  0.0000E+00  0.0000E+00  0.0000E+00  0.0000E+00  0.0000E+00  0.0000E+00  0.0000E+00  0.0000E+00  0.0000E+00  0.0000E+00
    -28.677  0.0000E+00  0.0000E+00  0.0000E+00  0.0000E+00  0.0000E+00  0.0000E+00  0.0000E+00  0.0000E+00  0.0000E+00  0.0000E+00  0.0000E+00  0.0000E+00  0.0000E+00  0.0000E+00  0.0000E+00  0.0000E+00  0.0000E+00  0.0000E+00
    -28.546  0.0000E+00  0.0000E+00  0.0000E+00  0.0000E+00  0.0000E+00  0.0000E+00  0.0000E+00  0.0000E+00  0.0000E+00  0.0000E+00  0.0000E+00  0.0000E+00  0.0000E+00  0.0000E+00  0.0000E+00  0.0000E+00  0.0000E+00  0.0000E+00
    -28.415  0.0000E+00  0.0000E+00  0.0000E+00  0.0000E+00  0.0000E+00  0.0000E+00  0.0000E+00  0.0000E+00  0.0000E+00  0.0000E+00  0.0000E+00  0.0000E+00  0.0000E+00  0.0000E+00  0.0000E+00  0.0000E+00  0.0000E+00  0.0000E+00
    -28.284  0.0000E+00  0.0000E+00  0.0000E+00  0.0000E+00  0.0000E+00  0.0000E+00  0.0000E+00  0.0000E+00  0.0000E+00  0.0000E+00  0.0000E+00  0.0000E+00  0.0000E+00  0.0000E+00  0.0000E+00  0.0000E+00  0.0000E+00  0.0000E+00
    -28.153  0.0000E+00  0.0000E+00  0.0000E+00  0.0000E+00  0.0000E+00  0.0000E+00  0.0000E+00  0.0000E+00  0.0000E+00  0.0000E+00  0.0000E+00  0.0000E+00  0.0000E+00  0.0000E+00  0.0000E+00  0.0000E+00  0.0000E+00  0.0000E+00
    -28.022  0.0000E+00  0.0000E+00  0.0000E+00  0.0000E+00  0.0000E+00  0.0000E+00  0.0000E+00  0.0000E+00  0.0000E+00  0.0000E+00  0.0000E+00  0.0000E+00  0.0000E+00  0.0000E+00  0.0000E+00  0.0000E+00  0.0000E+00  0.0000E+00
    -27.891  0.0000E+00  0.0000E+00  0.0000E+00  0.0000E+00  0.0000E+00  0.0000E+00  0.0000E+00  0.0000E+00  0.0000E+00  0.0000E+00  0.0000E+00  0.0000E+00  0.0000E+00  0.0000E+00  0.0000E+00  0.0000E+00  0.0000E+00  0.0000E+00
    -27.759  0.0000E+00  0.0000E+00  0.0000E+00  0.0000E+00  0.0000E+00  0.0000E+00  0.0000E+00  0.0000E+00  0.0000E+00  0.0000E+00  0.0000E+00  0.0000E+00  0.0000E+00  0.0000E+00  0.0000E+00  0.0000E+00  0.0000E+00  0.0000E+00
    -27.628  0.0000E+00  0.0000E+00  0.0000E+00  0.0000E+00  0.0000E+00  0.0000E+00  0.0000E+00  0.0000E+00  0.0000E+00  0.0000E+00  0.0000E+00  0.0000E+00  0.0000E+00  0.0000E+00  0.0000E+00  0.0000E+00  0.0000E+00  0.0000E+00
    -27.497  0.0000E+00  0.0000E+00  0.0000E+00  0.0000E+00  0.0000E+00  0.0000E+00  0.0000E+00  0.0000E+00  0.0000E+00  0.0000E+00  0.0000E+00  0.0000E+00  0.0000E+00  0.0000E+00  0.0000E+00  0.0000E+00  0.0000E+00  0.0000E+00
    -27.366  0.0000E+00  0.0000E+00  0.0000E+00  0.0000E+00  0.0000E+00  0.0000E+00  0.0000E+00  0.0000E+00  0.0000E+00  0.0000E+00  0.0000E+00  0.0000E+00  0.0000E+00  0.0000E+00  0.0000E+00  0.0000E+00  0.0000E+00  0.0000E+00
    -27.235  0.0000E+00  0.0000E+00  0.0000E+00  0.0000E+00  0.0000E+00  0.0000E+00  0.0000E+00  0.0000E+00  0.0000E+00  0.0000E+00  0.0000E+00  0.0000E+00  0.0000E+00  0.0000E+00  0.0000E+00  0.0000E+00  0.0000E+00  0.0000E+00
    -27.104  0.0000E+00  0.0000E+00  0.0000E+00  0.0000E+00  0.0000E+00  0.0000E+00  0.0000E+00  0.0000E+00  0.0000E+00  0.0000E+00  0.0000E+00  0.0000E+00  0.0000E+00  0.0000E+00  0.0000E+00  0.0000E+00  0.0000E+00  0.0000E+00
    -26.973  0.1705E-03  0.1732E-03  0.4400E+00  0.4440E+00  0.4400E+00  0.4440E+00  0.4400E+00  0.4440E+00  0.7177E-04  0.7401E-04  0.7177E-04  0.7401E-04  0.3257E-04  0.3362E-04  0.7177E-04  0.7401E-04  0.3257E-04  0.3362E-04
    -26.842  0.1627E-02  0.1656E-02  0.1754E+01  0.1808E+01  0.1754E+01  0.1808E+01  0.1754E+01  0.1808E+01  0.5488E-03  0.5561E-03  0.5488E-03  0.5561E-03  0.2422E-03  0.2626E-03  0.5488E-03  0.5561E-03  0.2422E-03  0.2626E-03
    -26.711  0.1136E-02  0.1136E-02  0.9354E+00  0.9348E+00  0.9354E+00  0.9348E+00  0.9354E+00  0.9348E+00  0.3097E-03  0.3125E-03  0.3097E-03  0.3125E-03  0.8086E-04  0.8191E-04  0.3097E-03  0.3125E-03  0.8086E-04  0.8191E-04
    -26.580  0.7570E-03  0.7607E-03  0.1148E+01  0.1152E+01  0.1148E+01  0.1152E+01  0.1148E+01  0.1152E+01  0.7992E-03  0.8063E-03  0.7992E-03  0.8063E-03  0.8063E-04  0.8087E-04  0.7992E-03  0.8063E-03  0.8063E-04  0.8087E-04
    -26.449  0.8536E-03  0.8599E-03  0.1370E+01  0.1375E+01  0.1370E+01  0.1375E+01  0.1370E+01  0.1375E+01  0.9027E-03  0.9074E-03  0.9027E-03  0.9074E-03  0.4652E-04  0.4657E-04  0.9027E-03  0.9074E-03  0.4652E-04  0.4657E-04
    -26.318  0.5720E-03  0.5733E-03  0.1541E+01  0.1547E+01  0.1541E+01  0.1547E+01  0.1541E+01  0.1547E+01  0.7748E-03  0.7783E-03  0.7748E-03  0.7783E-03  0.2916E-04  0.2875E-04  0.7748E-03  0.7783E-03  0.2916E-04  0.2875E-04
    -26.187  0.4452E-03  0.4421E-03  0.2901E+01  0.2900E+01  0.2901E+01  0.2900E+01  0.2901E+01  0.2900E+01  0.6158E-03  0.6112E-03  0.6158E-03  0.6112E-03  0.1716E-04  0.1644E-04  0.6158E-03  0.6112E-03  0.1716E-04  0.1644E-04
    -26.056  0.1624E-04  0.1624E-04  0.1995E+00  0.1995E+00  0.1995E+00  0.1995E+00  0.1995E+00  0.1995E+00  0.2082E-04  0.2072E-04  0.2082E-04  0.2072E-04  0.2600E-06  0.2429E-06  0.2082E-04  0.2072E-04  0.2600E-06  0.2429E-06
    -25.925  0.0000E+00  0.0000E+00  0.0000E+00  0.0000E+00  0.0000E+00  0.0000E+00  0.0000E+00  0.0000E+00  0.0000E+00  0.0000E+00  0.0000E+00  0.0000E+00  0.0000E+00  0.0000E+00  0.0000E+00  0.0000E+00  0.0000E+00  0.0000E+00
    -25.794  0.0000E+00  0.0000E+00  0.0000E+00  0.0000E+00  0.0000E+00  0.0000E+00  0.0000E+00  0.0000E+00  0.0000E+00  0.0000E+00  0.0000E+00  0.0000E+00  0.0000E+00  0.0000E+00  0.0000E+00  0.0000E+00  0.0000E+00  0.0000E+00
    -25.663  0.0000E+00  0.0000E+00  0.0000E+00  0.0000E+00  0.0000E+00  0.0000E+00  0.0000E+00  0.0000E+00  0.0000E+00  0.0000E+00  0.0000E+00  0.0000E+00  0.0000E+00  0.0000E+00  0.0000E+00  0.0000E+00  0.0000E+00  0.0000E+00
    -25.532  0.0000E+00  0.0000E+00  0.0000E+00  0.0000E+00  0.0000E+00  0.0000E+00  0.0000E+00  0.0000E+00  0.0000E+00  0.0000E+00  0.0000E+00  0.0000E+00  0.0000E+00  0.0000E+00  0.0000E+00  0.0000E+00  0.0000E+00  0.0000E+00
    -25.401  0.0000E+00  0.0000E+00  0.0000E+00  0.0000E+00  0.0000E+00  0.0000E+00  0.0000E+00  0.0000E+00  0.0000E+00  0.0000E+00  0.0000E+00  0.0000E+00  0.0000E+00  0.0000E+00  0.0000E+00  0.0000E+00  0.0000E+00  0.0000E+00
    -25.269  0.0000E+00  0.0000E+00  0.0000E+00  0.0000E+00  0.0000E+00  0.0000E+00  0.0000E+00  0.0000E+00  0.0000E+00  0.0000E+00  0.0000E+00  0.0000E+00  0.0000E+00  0.0000E+00  0.0000E+00  0.0000E+00  0.0000E+00  0.0000E+00
    -25.138  0.0000E+00  0.0000E+00  0.0000E+00  0.0000E+00  0.0000E+00  0.0000E+00  0.0000E+00  0.0000E+00  0.0000E+00  0.0000E+00  0.0000E+00  0.0000E+00  0.0000E+00  0.0000E+00  0.0000E+00  0.0000E+00  0.0000E+00  0.0000E+00
    -25.007  0.0000E+00  0.0000E+00  0.0000E+00  0.0000E+00  0.0000E+00  0.0000E+00  0.0000E+00  0.0000E+00  0.0000E+00  0.0000E+00  0.0000E+00  0.0000E+00  0.0000E+00  0.0000E+00  0.0000E+00  0.0000E+00  0.0000E+00  0.0000E+00
    -24.876  0.0000E+00  0.0000E+00  0.0000E+00  0.0000E+00  0.0000E+00  0.0000E+00  0.0000E+00  0.0000E+00  0.0000E+00  0.0000E+00  0.0000E+00  0.0000E+00  0.0000E+00  0.0000E+00  0.0000E+00  0.0000E+00  0.0000E+00  0.0000E+00
    -24.745  0.0000E+00  0.0000E+00  0.0000E+00  0.0000E+00  0.0000E+00  0.0000E+00  0.0000E+00  0.0000E+00  0.0000E+00  0.0000E+00  0.0000E+00  0.0000E+00  0.0000E+00  0.0000E+00  0.0000E+00  0.0000E+00  0.0000E+00  0.0000E+00
    -24.614  0.0000E+00  0.0000E+00  0.0000E+00  0.0000E+00  0.0000E+00  0.0000E+00  0.0000E+00  0.0000E+00  0.0000E+00  0.0000E+00  0.0000E+00  0.0000E+00  0.0000E+00  0.0000E+00  0.0000E+00  0.0000E+00  0.0000E+00  0.0000E+00
    -24.483  0.0000E+00  0.0000E+00  0.0000E+00  0.0000E+00  0.0000E+00  0.0000E+00  0.0000E+00  0.0000E+00  0.0000E+00  0.0000E+00  0.0000E+00  0.0000E+00  0.0000E+00  0.0000E+00  0.0000E+00  0.0000E+00  0.0000E+00  0.0000E+00
    -24.352  0.0000E+00  0.0000E+00  0.0000E+00  0.0000E+00  0.0000E+00  0.0000E+00  0.0000E+00  0.0000E+00  0.0000E+00  0.0000E+00  0.0000E+00  0.0000E+00  0.0000E+00  0.0000E+00  0.0000E+00  0.0000E+00  0.0000E+00  0.0000E+00
    -24.221  0.0000E+00  0.0000E+00  0.0000E+00  0.0000E+00  0.0000E+00  0.0000E+00  0.0000E+00  0.0000E+00  0.0000E+00  0.0000E+00  0.0000E+00  0.0000E+00  0.0000E+00  0.0000E+00  0.0000E+00  0.0000E+00  0.0000E+00  0.0000E+00
    -24.090  0.0000E+00  0.0000E+00  0.0000E+00  0.0000E+00  0.0000E+00  0.0000E+00  0.0000E+00  0.0000E+00  0.0000E+00  0.0000E+00  0.0000E+00  0.0000E+00  0.0000E+00  0.0000E+00  0.0000E+00  0.0000E+00  0.0000E+00  0.0000E+00
    -23.959  0.0000E+00  0.0000E+00  0.0000E+00  0.0000E+00  0.0000E+00  0.0000E+00  0.0000E+00  0.0000E+00  0.0000E+00  0.0000E+00  0.0000E+00  0.0000E+00  0.0000E+00  0.0000E+00  0.0000E+00  0.0000E+00  0.0000E+00  0.0000E+00
    -23.828  0.0000E+00  0.0000E+00  0.0000E+00  0.0000E+00  0.0000E+00  0.0000E+00  0.0000E+00  0.0000E+00  0.0000E+00  0.0000E+00  0.0000E+00  0.0000E+00  0.0000E+00  0.0000E+00  0.0000E+00  0.0000E+00  0.0000E+00  0.0000E+00
    -23.697  0.0000E+00  0.0000E+00  0.0000E+00  0.0000E+00  0.0000E+00  0.0000E+00  0.0000E+00  0.0000E+00  0.0000E+00  0.0000E+00  0.0000E+00  0.0000E+00  0.0000E+00  0.0000E+00  0.0000E+00  0.0000E+00  0.0000E+00  0.0000E+00
    -23.566  0.0000E+00  0.0000E+00  0.0000E+00  0.0000E+00  0.0000E+00  0.0000E+00  0.0000E+00  0.0000E+00  0.0000E+00  0.0000E+00  0.0000E+00  0.0000E+00  0.0000E+00  0.0000E+00  0.0000E+00  0.0000E+00  0.0000E+00  0.0000E+00
    -23.435  0.0000E+00  0.0000E+00  0.0000E+00  0.0000E+00  0.0000E+00  0.0000E+00  0.0000E+00  0.0000E+00  0.0000E+00  0.0000E+00  0.0000E+00  0.0000E+00  0.0000E+00  0.0000E+00  0.0000E+00  0.0000E+00  0.0000E+00  0.0000E+00
    -23.304  0.0000E+00  0.0000E+00  0.0000E+00  0.0000E+00  0.0000E+00  0.0000E+00  0.0000E+00  0.0000E+00  0.0000E+00  0.0000E+00  0.0000E+00  0.0000E+00  0.0000E+00  0.0000E+00  0.0000E+00  0.0000E+00  0.0000E+00  0.0000E+00
    -23.173  0.0000E+00  0.0000E+00  0.0000E+00  0.0000E+00  0.0000E+00  0.0000E+00  0.0000E+00  0.0000E+00  0.0000E+00  0.0000E+00  0.0000E+00  0.0000E+00  0.0000E+00  0.0000E+00  0.0000E+00  0.0000E+00  0.0000E+00  0.0000E+00
    -23.042  0.0000E+00  0.0000E+00  0.0000E+00  0.0000E+00  0.0000E+00  0.0000E+00  0.0000E+00  0.0000E+00  0.0000E+00  0.0000E+00  0.0000E+00  0.0000E+00  0.0000E+00  0.0000E+00  0.0000E+00  0.0000E+00  0.0000E+00  0.0000E+00
    -22.911  0.0000E+00  0.0000E+00  0.0000E+00  0.0000E+00  0.0000E+00  0.0000E+00  0.0000E+00  0.0000E+00  0.0000E+00  0.0000E+00  0.0000E+00  0.0000E+00  0.0000E+00  0.0000E+00  0.0000E+00  0.0000E+00  0.0000E+00  0.0000E+00
    -22.780  0.0000E+00  0.0000E+00  0.0000E+00  0.0000E+00  0.0000E+00  0.0000E+00  0.0000E+00  0.0000E+00  0.0000E+00  0.0000E+00  0.0000E+00  0.0000E+00  0.0000E+00  0.0000E+00  0.0000E+00  0.0000E+00  0.0000E+00  0.0000E+00
    -22.648  0.0000E+00  0.0000E+00  0.0000E+00  0.0000E+00  0.0000E+00  0.0000E+00  0.0000E+00  0.0000E+00  0.0000E+00  0.0000E+00  0.0000E+00  0.0000E+00  0.0000E+00  0.0000E+00  0.0000E+00  0.0000E+00  0.0000E+00  0.0000E+00
    -22.517  0.0000E+00  0.0000E+00  0.0000E+00  0.0000E+00  0.0000E+00  0.0000E+00  0.0000E+00  0.0000E+00  0.0000E+00  0.0000E+00  0.0000E+00  0.0000E+00  0.0000E+00  0.0000E+00  0.0000E+00  0.0000E+00  0.0000E+00  0.0000E+00
    -22.386  0.0000E+00  0.0000E+00  0.0000E+00  0.0000E+00  0.0000E+00  0.0000E+00  0.0000E+00  0.0000E+00  0.0000E+00  0.0000E+00  0.0000E+00  0.0000E+00  0.0000E+00  0.0000E+00  0.0000E+00  0.0000E+00  0.0000E+00  0.0000E+00
    -22.255  0.0000E+00  0.0000E+00  0.0000E+00  0.0000E+00  0.0000E+00  0.0000E+00  0.0000E+00  0.0000E+00  0.0000E+00  0.0000E+00  0.0000E+00  0.0000E+00  0.0000E+00  0.0000E+00  0.0000E+00  0.0000E+00  0.0000E+00  0.0000E+00