 vasp.6.4.1 05Apr23 (build Jul 24 2024 14:19:02) complex                         
 executed on             LinuxGNU date 2024.10.22  14:21:49
 running    1 mpi-ranks, with   24 threads/rank, on    1 nodes
 distrk:  each k-point on    1 cores,    1 groups
 distr:  one band on NCORE=   1 cores,    1 groups


--------------------------------------------------------------------------------------------------------


 INCAR:
   ISTART = 0
   ALGO = Fast
   EDIFF = 0.0001
   ENCUT = 520
   IBRION = -1
   ISIF = 2
   ISMEAR = -5
   ISPIN = 2
   LASPH = True
   LMAXMIX = 6
   LORBIT = 11
   LREAL = Auto
   LWAVE = False
   MAGMOM = 2*0.6
   NELM = 100
   NSW = 0
   PREC = Accurate
   SIGMA = 0.05

 POTCAR:    PAW_PBE Nb_pv 08Apr2002               
 POTCAR:    PAW_PBE Nb_pv 08Apr2002               
   SHA256 =  bac2b60850b34f8515cf56f9feae68b678e347865051052a0e1f5d2c6a691c0a Nb_pv/POTCAR          
   COPYR  = (c) Copyright 08Apr2002 Georg Kresse                                                    
   COPYR  = This file is part of the software VASP. Any use, copying, and all other rights are regul
   COPYR  = If you do not have a valid VASP license, you may not use, copy or distribute this file. 
   VRHFIN =Nb: 4p5s4d                                                                               
   LEXCH  = PE                                                                                      
   EATOM  =  1043.3917 eV,   76.6871 Ry                                                             
                                                                                                    
   TITEL  = PAW_PBE Nb_pv 08Apr2002                                                                 
   LULTRA =        F    use ultrasoft PP ?                                                          
   IUNSCR =        1    unscreen: 0-lin 1-nonlin 2-no                                               
   RPACOR =    2.200    partial core radius                                                         
   POMASS =   92.000; ZVAL   =   11.000    mass and valenz                                          
   RCORE  =    2.750    outmost cutoff radius                                                       
   RWIGS  =    2.840; RWIGS  =    1.503    wigner-seitz radius (au A)                               
   ENMAX  =  208.608; ENMIN  =  156.456 eV                                                          
   RCLOC  =    2.201    cutoff for local pot                                                        
   LCOR   =        T    correct aug charges                                                         
   LPAW   =        T    paw PP                                                                      
   EAUG   =  355.067                                                                                
   DEXC   =    0.000                                                                                
   RMAX   =    2.804    core radius for proj-oper                                                   
   RAUG   =    1.300    factor for augmentation sphere                                              
   RDEP   =    2.776    radius for radial grids                                                     
   RDEPT  =    2.198    core radius for aug-charge                                                  
                                                                                                    
   Atomic configuration                                                                             
   11 entries                                                                                       
     n  l   j            E        occ.                                                              
     1  0  0.50    -18805.2456   2.0000                                                             
     2  0  0.50     -2630.2869   2.0000                                                             
     2  1  1.50     -2348.4045   6.0000                                                             
     3  0  0.50      -438.8756   2.0000                                                             
     3  1  1.50      -346.7587   6.0000                                                             
     3  2  2.50      -196.2559  10.0000                                                             
     4  0  0.50       -58.3859   2.0000                                                             
     4  1  1.50       -34.5141   6.0000                                                             
     4  2  2.50        -3.0408   4.0000                                                             
     5  0  0.50        -3.9816   1.0000                                                             
     4  3  2.50        -1.3606   0.0000                                                             
   Description                                                                                      
     l       E           TYP  RCUT    TYP  RCUT                                                     
     1    -34.5140617     23  2.600                                                                 
     1     -1.3605826     23  2.600                                                                 
     2     -3.0407924     23  2.600                                                                 
     2     -1.4463597     23  2.600                                                                 
     0     -3.9816219     23  2.750                                                                 
     0     20.4087390     23  2.750                                                                 
  local pseudopotential read in
  partial core-charges read in
  partial kinetic energy density read in
  atomic valenz-charges read in
  non local Contribution for L=           1  read in
    real space projection operators read in
  non local Contribution for L=           1  read in
    real space projection operators read in
  non local Contribution for L=           2  read in
    real space projection operators read in
  non local Contribution for L=           2  read in
    real space projection operators read in
  non local Contribution for L=           0  read in
    real space projection operators read in
  non local Contribution for L=           0  read in
    real space projection operators read in
    PAW grid and wavefunctions read in

   number of l-projection  operators is LMAX  =           6
   number of lm-projection operators is LMMAX =          18

 -----------------------------------------------------------------------------
|                                                                             |
|               ----> ADVICE to this user running VASP <----                  |
|                                                                             |
|     You have a (more or less) 'small supercell' and for smaller cells       |
|     it is recommended to use the reciprocal-space projection scheme!        |
|     The real-space optimization is not efficient for small cells and it     |
|     is also less accurate ...                                               |
|     Therefore, set LREAL=.FALSE. in the INCAR file.                         |
|                                                                             |
 -----------------------------------------------------------------------------

 Optimization of the real space projectors (new method)

 maximal supplied QI-value         = 13.61
 optimisation between [QCUT,QGAM] = [ 11.57, 23.27] = [ 37.45,151.59] Ry 
 Optimized for a Real-space Cutoff    1.63 Angstroem

   l    n(q)    QCUT    max X(q) W(low)/X(q) W(high)/X(q)  e(spline) 
   1     11    11.565     4.545    0.12E-04    0.18E-04    0.64E-07
   1     11    11.565     6.014    0.42E-04    0.48E-04    0.13E-06
   2     10    11.565   266.542    0.24E-03    0.87E-04    0.13E-05
   2     10    11.565   232.726    0.24E-03    0.87E-04    0.13E-05
   0     11    11.565    38.050    0.76E-04    0.32E-05    0.94E-06
   0     11    11.565    16.565    0.58E-04    0.25E-05    0.73E-06
  PAW_PBE Nb_pv 08Apr2002               :
 energy of atom  1       EATOM=-1043.3917
 kinetic energy error for atom=    0.0011 (will be added to EATOM!!)


 POSCAR: Nb2
  positions in direct lattice
  velocities in cartesian coordinates
 exchange correlation table for  LEXCH =        8
   RHO(1)=    0.500       N(1)  =     2000
   RHO(2)=  100.500       N(2)  =     4000



--------------------------------------------------------------------------------------------------------


 ion  position               nearest neighbor table
   1  0.000  0.000  0.000-   2 2.99   2 2.99   2 2.99   2 2.99   2 2.99   2 2.99   2 2.99   2 2.99

   2  0.500  0.500  0.500-   1 2.99   1 2.99   1 2.99   1 2.99   1 2.99   1 2.99   1 2.99   1 2.99


  LATTYP: Found a simple cubic cell.
 ALAT       =     3.4496639217
  
  Lattice vectors:
  
 A1 = (   3.4496639217,   0.0000000000,   0.0000000000)
 A2 = (   0.0000000000,   3.4496639217,   0.0000000000)
 A3 = (  -0.0000000000,  -0.0000000000,   3.4496639217)


Analysis of symmetry for initial positions (statically):
=====================================================================
 Subroutine PRICEL returns following result:
 
  LATTYP: Found a body centered cubic cell.
 ALAT       =     3.4496639217
  
  Lattice vectors:
  
 A1 = (   1.7248319608,   1.7248319608,  -1.7248319608)
 A2 = (  -1.7248319608,   1.7248319608,   1.7248319608)
 A3 = (   1.7248319608,  -1.7248319608,   1.7248319608)
 
   2 primitive cells build up your supercell.
 

 Routine SETGRP: Setting up the symmetry group for a 
 simple cubic supercell.


 Subroutine GETGRP returns: Found 48 space group operations
 (whereof 48 operations were pure point group operations)
 out of a pool of 48 trial point group operations.


The static configuration has the point symmetry O_h .


Analysis of symmetry for dynamics (positions and initial velocities):
=====================================================================
 Subroutine PRICEL returns following result:
 
  LATTYP: Found a body centered cubic cell.
 ALAT       =     3.4496639217
  
  Lattice vectors:
  
 A1 = (   1.7248319608,   1.7248319608,  -1.7248319608)
 A2 = (  -1.7248319608,   1.7248319608,   1.7248319608)
 A3 = (   1.7248319608,  -1.7248319608,   1.7248319608)
 
   2 primitive cells build up your supercell.
 

 Routine SETGRP: Setting up the symmetry group for a 
 simple cubic supercell.


 Subroutine GETGRP returns: Found 48 space group operations
 (whereof 48 operations were pure point group operations)
 out of a pool of 48 trial point group operations.


The dynamic configuration has the point symmetry O_h .


Analysis of structural, dynamic, and magnetic symmetry:
=====================================================================
 Subroutine PRICEL returns following result:
 
  LATTYP: Found a body centered cubic cell.
 ALAT       =     3.4496639217
  
  Lattice vectors:
  
 A1 = (   1.7248319608,   1.7248319608,  -1.7248319608)
 A2 = (  -1.7248319608,   1.7248319608,   1.7248319608)
 A3 = (   1.7248319608,  -1.7248319608,   1.7248319608)
 
   2 primitive cells build up your supercell.
 

 Routine SETGRP: Setting up the symmetry group for a 
 simple cubic supercell.


 Subroutine GETGRP returns: Found 48 space group operations
 (whereof 48 operations were pure point group operations)
 out of a pool of 48 trial point group operations.


The overall configuration has the point symmetry O_h .


 Subroutine INISYM returns: Found 48 space group operations
 (whereof 48 operations are pure point group operations),
 and found     2 'primitive' translations


----------------------------------------------------------------------------------------

                                     Primitive cell                                     

  volume of cell :      20.5258

  direct lattice vectors                    reciprocal lattice vectors
     1.724831961  1.724831961 -1.724831961     0.289883311  0.289883311  0.000000000
    -1.724831961  1.724831961  1.724831961    -0.000000000  0.289883311  0.289883311
     1.724831961 -1.724831961  1.724831961     0.289883311 -0.000000000  0.289883311

  length of vectors
     2.987496591  2.987496591  2.987496591     0.409956910  0.409956910  0.409956910

  position of ions in fractional coordinates (direct lattice)
     0.000000000  0.000000000  0.000000000

  ion indices of the primitive-cell ions
   primitive index   ion index
                 1           1

----------------------------------------------------------------------------------------



 KPOINTS: pymatgen with grid density = 869 / numbe

Automatic generation of k-mesh.
 Grid dimensions read from file:
 generate k-points for:    7    7    7

 Generating k-lattice:

  Cartesian coordinates                     Fractional coordinates (reciprocal lattice)
     0.041411902 -0.000000000  0.000000000     0.142857143  0.000000000  0.000000000
    -0.000000000  0.041411902  0.000000000     0.000000000  0.142857143  0.000000000
    -0.000000000 -0.000000000  0.041411902    -0.000000000 -0.000000000  0.142857143

  Length of vectors
     0.041411902  0.041411902  0.041411902

  Shift w.r.t. Gamma in fractional coordinates (k-lattice)
     0.000000000  0.000000000  0.000000000

 TETIRR: Found    163 inequivalent tetrahedra from     2058
 
 Subroutine IBZKPT returns following result:
 ===========================================
 
 Found     20 irreducible k-points:
 
 Following reciprocal coordinates:
            Coordinates               Weight
  0.000000  0.000000  0.000000      1.000000
  0.142857  0.000000  0.000000      6.000000
  0.285714  0.000000  0.000000      6.000000
  0.428571  0.000000  0.000000      6.000000
  0.142857  0.142857  0.000000     12.000000
  0.285714  0.142857  0.000000     24.000000
  0.428571  0.142857  0.000000     24.000000
  0.285714  0.285714  0.000000     12.000000
  0.428571  0.285714  0.000000     24.000000
  0.428571  0.428571  0.000000     12.000000
  0.142857  0.142857  0.142857      8.000000
  0.285714  0.142857  0.142857     24.000000
  0.428571  0.142857  0.142857     24.000000
  0.285714  0.285714  0.142857     24.000000
  0.428571  0.285714  0.142857     48.000000
  0.428571  0.428571  0.142857     24.000000
  0.285714  0.285714  0.285714      8.000000
  0.428571  0.285714  0.285714     24.000000
  0.428571  0.428571  0.285714     24.000000
  0.428571  0.428571  0.428571      8.000000
 
 Following cartesian coordinates:
            Coordinates               Weight
  0.000000  0.000000  0.000000      1.000000
  0.043006  0.000000  0.000000      6.000000
  0.086012  0.000000  0.000000      6.000000
  0.129019  0.000000  0.000000      6.000000
  0.043006  0.043006  0.000000     12.000000
  0.086012  0.043006  0.000000     24.000000
  0.129019  0.043006  0.000000     24.000000
  0.086012  0.086012  0.000000     12.000000
  0.129019  0.086012  0.000000     24.000000
  0.129019  0.129019  0.000000     12.000000
  0.043006  0.043006  0.043006      8.000000
  0.086012  0.043006  0.043006     24.000000
  0.129019  0.043006  0.043006     24.000000
  0.086012  0.086012  0.043006     24.000000
  0.129019  0.086012  0.043006     48.000000
  0.129019  0.129019  0.043006     24.000000
  0.086012  0.086012  0.086012      8.000000
  0.129019  0.086012  0.086012     24.000000
  0.129019  0.129019  0.086012     24.000000
  0.129019  0.129019  0.129019      8.000000
 


--------------------------------------------------------------------------------------------------------




 Dimension of arrays:
   k-points           NKPTS =     20   k-points in BZ     NKDIM =     20   number of bands    NBANDS=     16
   number of dos      NEDOS =    301   number of ions     NIONS =      2
   non local maximal  LDIM  =      6   non local SUM 2l+1 LMDIM =     18
   total plane-waves  NPLWV =  21952
   max r-space proj   IRMAX =   9701   max aug-charges    IRDMAX=  33118
   dimension x,y,z NGX =    28 NGY =   28 NGZ =   28
   dimension x,y,z NGXF=    56 NGYF=   56 NGZF=   56
   support grid    NGXF=    56 NGYF=   56 NGZF=   56
   ions per type =               2
   NGX,Y,Z   is equivalent  to a cutoff of  13.49, 13.49, 13.49 a.u.
   NGXF,Y,Z  is equivalent  to a cutoff of  26.99, 26.99, 26.99 a.u.

 SYSTEM =  unknown system                          
 POSCAR =  Nb2                                     

 Startparameter for this run:
   NWRITE =      2    write-flag & timer
   PREC   = accura    normal or accurate (medium, high low for compatibility)
   ISTART =      0    job   : 0-new  1-cont  2-samecut
   ICHARG =      2    charge: 1-file 2-atom 10-const
   ISPIN  =      2    spin polarized calculation?
   LNONCOLLINEAR =      F non collinear calculations
   LSORBIT =      F    spin-orbit coupling
   INIWAV =      1    electr: 0-lowe 1-rand  2-diag
   LASPH  =      T    aspherical Exc in radial PAW
 Electronic Relaxation 1
   ENCUT  =  520.0 eV  38.22 Ry    6.18 a.u.   6.41  6.41  6.41*2*pi/ulx,y,z
   ENINI  =  520.0     initial cutoff
   ENAUG  =  355.1 eV  augmentation charge cutoff
   NELM   =    100;   NELMIN=  2; NELMDL= -5     # of ELM steps 
   EDIFF  = 0.1E-03   stopping-criterion for ELM
   LREAL  =      T    real-space projection
   NLSPLINE    = F    spline interpolate recip. space projectors
   LCOMPAT=      F    compatible to vasp.4.4
   GGA_COMPAT  = T    GGA compatible to vasp.4.4-vasp.4.6
   LMAXPAW     = -100 max onsite density
   LMAXMIX     =    6 max onsite mixed and CHGCAR
   VOSKOWN=      0    Vosko Wilk Nusair interpolation
   ROPT   =   -0.00025
 Ionic relaxation
   EDIFFG = 0.1E-02   stopping-criterion for IOM
   NSW    =      0    number of steps for IOM
   NBLOCK =      1;   KBLOCK =      1    inner block; outer block 
   IBRION =     -1    ionic relax: 0-MD 1-quasi-New 2-CG
   NFREE  =      0    steps in history (QN), initial steepest desc. (CG)
   ISIF   =      2    stress and relaxation
   IWAVPR =     10    prediction:  0-non 1-charg 2-wave 3-comb
   ISYM   =      2    0-nonsym 1-usesym 2-fastsym
   LCORR  =      T    Harris-Foulkes like correction to forces

   POTIM  = 0.5000    time-step for ionic-motion
   TEIN   =    0.0    initial temperature
   TEBEG  =    0.0;   TEEND  =   0.0 temperature during run
   SMASS  =  -3.00    Nose mass-parameter (am)
   estimated Nose-frequenzy (Omega)   =  0.10E-29 period in steps = 0.13E+47 mass=  -0.272E-27a.u.
   SCALEE = 1.0000    scale energy and forces
   NPACO  =    256;   APACO  = 10.0  distance and # of slots for P.C.
   PSTRESS=    0.0 pullay stress

  Mass of Ions in am
   POMASS =  92.00
  Ionic Valenz
   ZVAL   =  11.00
  Atomic Wigner-Seitz radii
   RWIGS  =  -1.00
  virtual crystal weights 
   VCA    =   1.00
   NELECT =      22.0000    total number of electrons
   NUPDOWN=      -1.0000    fix difference up-down

 DOS related values:
   EMIN   =  10.00;   EMAX   =-10.00  energy-range for DOS
   EFERMI =   0.00;   METHOD = LEGACY      
   ISMEAR =    -5;   SIGMA  =   0.05  broadening in eV -4-tet -1-fermi 0-gaus

 Electronic relaxation 2 (details)
   IALGO  =     68    algorithm
   LDIAG  =      T    sub-space diagonalisation (order eigenvalues)
   LSUBROT=      F    optimize rotation matrix (better conditioning)
   TURBO    =      0    0=normal 1=particle mesh
   IRESTART =      0    0=no restart 2=restart with 2 vectors
   NREBOOT  =      0    no. of reboots
   NMIN     =      0    reboot dimension
   EREF     =   0.00    reference energy to select bands
   IMIX   =      4    mixing-type and parameters
     AMIX     =   0.40;   BMIX     =  1.00
     AMIX_MAG =   1.60;   BMIX_MAG =  1.00
     AMIN     =   0.10
     WC   =   100.;   INIMIX=   1;  MIXPRE=   1;  MAXMIX= -45

 Intra band minimization:
   WEIMIN = 0.0000     energy-eigenvalue tresh-hold
   EBREAK =  0.16E-05  absolut break condition
   DEPER  =   0.30     relativ break condition  

   TIME   =   0.40     timestep for ELM

  volume/ion in A,a.u.               =      20.53       138.52
  Fermi-wavevector in a.u.,A,eV,Ry     =   1.329757  2.512876 24.058550  1.768254
  Thomas-Fermi vector in A             =   2.458895

 Write flags
   LWAVE        =      F    write WAVECAR
   LDOWNSAMPLE  =      F    k-point downsampling of WAVECAR
   LCHARG       =      T    write CHGCAR
   LVTOT        =      F    write LOCPOT, total local potential
   LVHAR        =      F    write LOCPOT, Hartree potential only
   LELF         =      F    write electronic localiz. function (ELF)
   LORBIT       =     11    0 simple, 1 ext, 2 COOP (PROOUT), +10 PAW based schemes


 Dipole corrections
   LMONO  =      F    monopole corrections only (constant potential shift)
   LDIPOL =      F    correct potential (dipole corrections)
   IDIPOL =      0    1-x, 2-y, 3-z, 4-all directions 
   EPSILON=  1.0000000 bulk dielectric constant

 Exchange correlation treatment:
   GGA     =    --    GGA type
   LEXCH   =     8    internal setting for exchange type
   LIBXC   =     F    Libxc                    
   VOSKOWN =     0    Vosko Wilk Nusair interpolation
   LHFCALC =     F    Hartree Fock is set to
   LHFONE  =     F    Hartree Fock one center treatment
   AEXX    =    0.0000 exact exchange contribution

 Linear response parameters
   LEPSILON=     F    determine dielectric tensor
   LRPA    =     F    only Hartree local field effects (RPA)
   LNABLA  =     F    use nabla operator in PAW spheres
   LVEL    =     F    velocity operator in full k-point grid
   CSHIFT  =0.1000    complex shift for real part using Kramers Kronig
   OMEGAMAX=  -1.0    maximum frequency
   DEG_THRESHOLD= 0.2000000E-02 threshold for treating states as degnerate
   RTIME   =   -0.100 relaxation time in fs
  (WPLASMAI=    0.000 imaginary part of plasma frequency in eV, 0.658/RTIME)
   DFIELD  = 0.0000000 0.0000000 0.0000000 field for delta impulse in time

  Optional k-point grid parameters
   LKPOINTS_OPT  =     F    use optional k-point grid
   KPOINTS_OPT_MODE=     1    mode for optional k-point grid

 Orbital magnetization related:
   ORBITALMAG=     F  switch on orbital magnetization
   LCHIMAG   =     F  perturbation theory with respect to B field
   DQ        =  0.001000  dq finite difference perturbation B field
   LLRAUG    =     F  two centre corrections for induced B field
   LBONE     =     F  B-component reconstruction in AE one-centre
   LVGVCALC  =     T  calculate vGv susceptibility
   LVGVAPPL  =     F  apply vGv susceptibility instead of pGv for G=0

 Random number generation:
   RANDOM_GENERATOR = DEFAULT
   PCG_SEED         = not used


--------------------------------------------------------------------------------------------------------


 Static calculation
 charge density and potential will be updated during run
 spin polarized calculation
 RMM-DIIS sequential band-by-band and
  variant of blocked Davidson during initial phase
 perform sub-space diagonalisation
    before iterative eigenvector-optimisation
 modified Broyden-mixing scheme, WC =      100.0
 initial mixing is a Kerker type mixing with AMIX =  0.4000 and BMIX =      1.0000
 Hartree-type preconditioning will be used
 using additional bands            5
 real space projection scheme for non local part
 use partial core corrections
 calculate Harris-corrections to forces   (improved forces if not selfconsistent)
 use gradient corrections 
 use of overlap-Matrix (Vanderbilt PP)
 Fermi weights with tetrahedron method with Bloechl corrections


--------------------------------------------------------------------------------------------------------


  energy-cutoff  :      520.00
  volume of cell :       41.05
      direct lattice vectors                 reciprocal lattice vectors
     3.449663922  0.000000000  0.000000000     0.289883311 -0.000000000  0.000000000
     0.000000000  3.449663922  0.000000000    -0.000000000  0.289883311  0.000000000
    -0.000000000 -0.000000000  3.449663922    -0.000000000 -0.000000000  0.289883311

  length of vectors
     3.449663922  3.449663922  3.449663922     0.289883311  0.289883311  0.289883311



 k-points in units of 2pi/SCALE and weight: pymatgen with grid density = 869 / numbe
   0.00000000  0.00000000  0.00000000       0.003
   0.04300621  0.00000000  0.00000000       0.017
   0.08601242  0.00000000  0.00000000       0.017
   0.12901863  0.00000000  0.00000000       0.017
   0.04300621  0.04300621  0.00000000       0.035
   0.08601242  0.04300621  0.00000000       0.070
   0.12901863  0.04300621  0.00000000       0.070
   0.08601242  0.08601242  0.00000000       0.035
   0.12901863  0.08601242  0.00000000       0.070
   0.12901863  0.12901863  0.00000000       0.035
   0.04300621  0.04300621  0.04300621       0.023
   0.08601242  0.04300621  0.04300621       0.070
   0.12901863  0.04300621  0.04300621       0.070
   0.08601242  0.08601242  0.04300621       0.070
   0.12901863  0.08601242  0.04300621       0.140
   0.12901863  0.12901863  0.04300621       0.070
   0.08601242  0.08601242  0.08601242       0.023
   0.12901863  0.08601242  0.08601242       0.070
   0.12901863  0.12901863  0.08601242       0.070
   0.12901863  0.12901863  0.12901863       0.023

 k-points in reciprocal lattice and weights: pymatgen with grid density = 869 / numbe
   0.00000000  0.00000000  0.00000000       0.003
   0.14285714  0.00000000  0.00000000       0.017
   0.28571429  0.00000000  0.00000000       0.017
   0.42857143  0.00000000  0.00000000       0.017
   0.14285714  0.14285714  0.00000000       0.035
   0.28571429  0.14285714  0.00000000       0.070
   0.42857143  0.14285714  0.00000000       0.070
   0.28571429  0.28571429  0.00000000       0.035
   0.42857143  0.28571429  0.00000000       0.070
   0.42857143  0.42857143  0.00000000       0.035
   0.14285714  0.14285714  0.14285714       0.023
   0.28571429  0.14285714  0.14285714       0.070
   0.42857143  0.14285714  0.14285714       0.070
   0.28571429  0.28571429  0.14285714       0.070
   0.42857143  0.28571429  0.14285714       0.140
   0.42857143  0.42857143  0.14285714       0.070
   0.28571429  0.28571429  0.28571429       0.023
   0.42857143  0.28571429  0.28571429       0.070
   0.42857143  0.42857143  0.28571429       0.070
   0.42857143  0.42857143  0.42857143       0.023

 position of ions in fractional coordinates (direct lattice) 
   0.00000000  0.00000000  0.00000000
   0.50000000  0.50000000  0.50000000

 position of ions in cartesian coordinates  (Angst):
   0.00000000  0.00000000  0.00000000
   1.72483196  1.72483196  1.72483196



--------------------------------------------------------------------------------------------------------


 k-point   1 :   0.0000 0.0000 0.0000  plane waves:    1141
 k-point   2 :   0.1429 0.0000 0.0000  plane waves:    1109
 k-point   3 :   0.2857 0.0000 0.0000  plane waves:    1109
 k-point   4 :   0.4286 0.0000 0.0000  plane waves:    1116
 k-point   5 :   0.1429 0.1429 0.0000  plane waves:    1107
 k-point   6 :   0.2857 0.1429 0.0000  plane waves:    1107
 k-point   7 :   0.4286 0.1429 0.0000  plane waves:    1108
 k-point   8 :   0.2857 0.2857 0.0000  plane waves:    1105
 k-point   9 :   0.4286 0.2857 0.0000  plane waves:    1107
 k-point  10 :   0.4286 0.4286 0.0000  plane waves:    1099
 k-point  11 :   0.1429 0.1429 0.1429  plane waves:    1096
 k-point  12 :   0.2857 0.1429 0.1429  plane waves:    1108
 k-point  13 :   0.4286 0.1429 0.1429  plane waves:    1116
 k-point  14 :   0.2857 0.2857 0.1429  plane waves:    1104
 k-point  15 :   0.4286 0.2857 0.1429  plane waves:    1108
 k-point  16 :   0.4286 0.4286 0.1429  plane waves:    1096
 k-point  17 :   0.2857 0.2857 0.2857  plane waves:    1105
 k-point  18 :   0.4286 0.2857 0.2857  plane waves:    1097
 k-point  19 :   0.4286 0.4286 0.2857  plane waves:    1096
 k-point  20 :   0.4286 0.4286 0.4286  plane waves:    1082

 maximum and minimum number of plane-waves per node :      1141     1082

 maximum number of plane-waves:      1141
 maximum index in each direction: 
   IXMAX=    6   IYMAX=    6   IZMAX=    6
   IXMIN=   -6   IYMIN=   -6   IZMIN=   -6


 serial   3D FFT for wavefunctions
 parallel 3D FFT for charge:
    minimum data exchange during FFTs selected (reduces bandwidth)


 total amount of memory used by VASP MPI-rank0    68726. kBytes
=======================================================================

   base      :      30000. kBytes
   nonlr-proj:       5644. kBytes
   fftplans  :       6192. kBytes
   grid      :      14776. kBytes
   one-center:         62. kBytes
   wavefun   :      12052. kBytes

     INWAV:  cpu time      0.0061: real time      0.0001
 Broyden mixing: mesh for mixing (old mesh)
   NGX = 13   NGY = 13   NGZ = 13
  (NGX  = 56   NGY  = 56   NGZ  = 56)
  gives a total of   2197 points

 initial charge density was supplied:
 charge density of overlapping atoms calculated
 number of electron      22.0000000 magnetization       1.2000000
 keeping initial charge density in first step


--------------------------------------------------------------------------------------------------------


 Maximum index for non-local projection operator         1034
 Maximum index for augmentation-charges        31919 (set IRDMAX)


--------------------------------------------------------------------------------------------------------


 First call to EWALD:  gamma=   0.514
 Maximum number of real-space cells 3x 3x 3
 Maximum number of reciprocal cells 3x 3x 3

    FEWALD:  cpu time      0.0063: real time      0.0063


--------------------------------------- Ionic step        1  -------------------------------------------




--------------------------------------- Iteration      1(   1)  ---------------------------------------


    POTLOK:  cpu time      2.0570: real time      0.1485
    SETDIJ:  cpu time      1.0901: real time      0.2527
     EDDAV:  cpu time     99.7075: real time      5.7376
 BZINTS: Fermi energy:   22.025238;   22.000000 electrons
         Band energy:-0.526243E+02;  BLOECHL correction:   -0.705443
       DOS:  cpu time      0.1192: real time      0.0092
    --------------------------------------------
      LOOP:  cpu time    102.9737: real time      6.1480

 eigenvalue-minimisations  :  1392
 total energy-change (2. order) : 0.1933952E+03  (-0.1166630E+04)
 number of electron      22.0000000 magnetization       1.2000000
 augmentation part       22.0000000 magnetization       1.2000000

 Free energy of the ion-electron system (eV)
  ---------------------------------------------------
  alpha Z        PSCENC =       220.55575184
  Ewald energy   TEWEN  =     -1838.12302340
  -Hartree energ DENC   =      -306.83707022
  -exchange      EXHF   =         0.00000000
  -V(xc)+E(xc)   XCENC  =        51.73410939
  PAW double counting   =      1671.32378679    -1639.41528309
  entropy T*S    EENTRO =         0.00000000
  eigenvalues    EBANDS =       -52.62434335
  atomic energy  EATOM  =      2086.78124273
  Solvation  Ediel_sol  =         0.00000000
  ---------------------------------------------------
  free energy    TOTEN  =       193.39517069 eV

  energy without entropy =      193.39517069  energy(sigma->0) =      193.39517069


--------------------------------------------------------------------------------------------------------




--------------------------------------- Iteration      1(   2)  ---------------------------------------


     EDDAV:  cpu time    110.6321: real time      6.2566
 BZINTS: Fermi energy:    6.293154;   22.000000 electrons
         Band energy:-0.257064E+03;  BLOECHL correction:   -0.342702
       DOS:  cpu time      0.1226: real time      0.0121
    --------------------------------------------
      LOOP:  cpu time    110.7547: real time      6.2686

 eigenvalue-minimisations  :  1368
 total energy-change (2. order) :-0.2044394E+03  (-0.2026113E+03)
 number of electron      22.0000000 magnetization       1.2000000
 augmentation part       22.0000000 magnetization       1.2000000

 Free energy of the ion-electron system (eV)
  ---------------------------------------------------
  alpha Z        PSCENC =       220.55575184
  Ewald energy   TEWEN  =     -1838.12302340
  -Hartree energ DENC   =      -306.83707022
  -exchange      EXHF   =         0.00000000
  -V(xc)+E(xc)   XCENC  =        51.73410939
  PAW double counting   =      1671.32378679    -1639.41528309
  entropy T*S    EENTRO =         0.00000000
  eigenvalues    EBANDS =      -257.06374631
  atomic energy  EATOM  =      2086.78124273
  Solvation  Ediel_sol  =         0.00000000
  ---------------------------------------------------
  free energy    TOTEN  =       -11.04423226 eV

  energy without entropy =      -11.04423226  energy(sigma->0) =      -11.04423226


--------------------------------------------------------------------------------------------------------




--------------------------------------- Iteration      1(   3)  ---------------------------------------


     EDDAV:  cpu time    163.9225: real time      9.0424
 BZINTS: Fermi energy:    4.705525;   22.000000 electrons
         Band energy:-0.266931E+03;  BLOECHL correction:   -0.176729
       DOS:  cpu time      0.1224: real time      0.0120
    --------------------------------------------
      LOOP:  cpu time    164.0448: real time      9.0544

 eigenvalue-minimisations  :  2048
 total energy-change (2. order) :-0.9867515E+01  (-0.9138427E+01)
 number of electron      22.0000000 magnetization       1.2000000
 augmentation part       22.0000000 magnetization       1.2000000

 Free energy of the ion-electron system (eV)
  ---------------------------------------------------
  alpha Z        PSCENC =       220.55575184
  Ewald energy   TEWEN  =     -1838.12302340
  -Hartree energ DENC   =      -306.83707022
  -exchange      EXHF   =         0.00000000
  -V(xc)+E(xc)   XCENC  =        51.73410939
  PAW double counting   =      1671.32378679    -1639.41528309
  entropy T*S    EENTRO =         0.00000000
  eigenvalues    EBANDS =      -266.93126150
  atomic energy  EATOM  =      2086.78124273
  Solvation  Ediel_sol  =         0.00000000
  ---------------------------------------------------
  free energy    TOTEN  =       -20.91174745 eV

  energy without entropy =      -20.91174745  energy(sigma->0) =      -20.91174745


--------------------------------------------------------------------------------------------------------




--------------------------------------- Iteration      1(   4)  ---------------------------------------


     EDDAV:  cpu time    404.8862: real time     19.7551
 BZINTS: Fermi energy:    4.682316;   22.000000 electrons
         Band energy:-0.267114E+03;  BLOECHL correction:   -0.171826
       DOS:  cpu time      0.1214: real time      0.0116
    --------------------------------------------
      LOOP:  cpu time    405.0076: real time     19.7667

 eigenvalue-minimisations  :  1696
 total energy-change (2. order) :-0.1828554E+00  (-0.1812725E+00)
 number of electron      22.0000000 magnetization       1.2000000
 augmentation part       22.0000000 magnetization       1.2000000

 Free energy of the ion-electron system (eV)
  ---------------------------------------------------
  alpha Z        PSCENC =       220.55575184
  Ewald energy   TEWEN  =     -1838.12302340
  -Hartree energ DENC   =      -306.83707022
  -exchange      EXHF   =         0.00000000
  -V(xc)+E(xc)   XCENC  =        51.73410939
  PAW double counting   =      1671.32378679    -1639.41528309
  entropy T*S    EENTRO =         0.00000000
  eigenvalues    EBANDS =      -267.11411691
  atomic energy  EATOM  =      2086.78124273
  Solvation  Ediel_sol  =         0.00000000
  ---------------------------------------------------
  free energy    TOTEN  =       -21.09460286 eV

  energy without entropy =      -21.09460286  energy(sigma->0) =      -21.09460286


--------------------------------------------------------------------------------------------------------




--------------------------------------- Iteration      1(   5)  ---------------------------------------


     EDDAV:  cpu time    134.2749: real time      7.6535
 BZINTS: Fermi energy:    4.681770;   22.000000 electrons
         Band energy:-0.267118E+03;  BLOECHL correction:   -0.171408
       DOS:  cpu time      0.2168: real time      0.0124
    CHARGE:  cpu time      6.6097: real time      0.3944
    MIXING:  cpu time      0.0013: real time      0.0013
    --------------------------------------------
      LOOP:  cpu time    141.1027: real time      8.0616

 eigenvalue-minimisations  :  2000
 total energy-change (2. order) :-0.4137327E-02  (-0.4151496E-02)
 number of electron      21.9999994 magnetization       0.4203110
 augmentation part        7.7100681 magnetization      -0.0261471

 Broyden mixing:
  rms(total) = 0.19606E+01    rms(broyden)= 0.19606E+01
  rms(prec ) = 0.25266E+01
  weight for this iteration     100.00

 Free energy of the ion-electron system (eV)
  ---------------------------------------------------
  alpha Z        PSCENC =       220.55575184
  Ewald energy   TEWEN  =     -1838.12302340
  -Hartree energ DENC   =      -306.83707022
  -exchange      EXHF   =         0.00000000
  -V(xc)+E(xc)   XCENC  =        51.73410939
  PAW double counting   =      1671.32378679    -1639.41528309
  entropy T*S    EENTRO =         0.00000000
  eigenvalues    EBANDS =      -267.11825423
  atomic energy  EATOM  =      2086.78124273
  Solvation  Ediel_sol  =         0.00000000
  ---------------------------------------------------
  free energy    TOTEN  =       -21.09874019 eV

  energy without entropy =      -21.09874019  energy(sigma->0) =      -21.09874019


--------------------------------------------------------------------------------------------------------




--------------------------------------- Iteration      1(   6)  ---------------------------------------


    POTLOK:  cpu time      1.8512: real time      0.1396
    SETDIJ:  cpu time      1.1083: real time      0.2527
    EDDIAG:  cpu time     24.9671: real time      1.4253
  RMM-DIIS:  cpu time     64.8468: real time      3.6717
    ORTHCH:  cpu time      0.3149: real time      0.0213
 BZINTS: Fermi energy:    4.267355;   22.000000 electrons
         Band energy:-0.283867E+03;  BLOECHL correction:   -0.178344
       DOS:  cpu time      0.1241: real time      0.0103
    CHARGE:  cpu time     13.7172: real time      0.7264
    MIXING:  cpu time      0.0012: real time      0.0012
    --------------------------------------------
      LOOP:  cpu time    106.9308: real time      6.2485

 eigenvalue-minimisations  :  1401
 total energy-change (2. order) : 0.1011643E+01  (-0.1107968E+00)
 number of electron      21.9999994 magnetization       0.2879224
 augmentation part        7.8596289 magnetization      -0.0039176

 Broyden mixing:
  rms(total) = 0.64477E+00    rms(broyden)= 0.64477E+00
  rms(prec ) = 0.10339E+01
  weight for this iteration     100.00

 eigenvalues of (default mixing * dielectric matrix)
  average eigenvalue GAMMA=   1.3593
  1.3593

 Free energy of the ion-electron system (eV)
  ---------------------------------------------------
  alpha Z        PSCENC =       220.55575184
  Ewald energy   TEWEN  =     -1838.12302340
  -Hartree energ DENC   =      -284.57635525
  -exchange      EXHF   =         0.00000000
  -V(xc)+E(xc)   XCENC  =        50.58608534
  PAW double counting   =      2049.14031091    -2020.58445111
  entropy T*S    EENTRO =         0.00000000
  eigenvalues    EBANDS =      -283.86665782
  atomic energy  EATOM  =      2086.78124273
  Solvation  Ediel_sol  =         0.00000000
  ---------------------------------------------------
  free energy    TOTEN  =       -20.08709676 eV

  energy without entropy =      -20.08709676  energy(sigma->0) =      -20.08709676


--------------------------------------------------------------------------------------------------------




--------------------------------------- Iteration      1(   7)  ---------------------------------------


    POTLOK:  cpu time      2.6571: real time      0.1859
    SETDIJ:  cpu time      1.0856: real time      0.2569
    EDDIAG:  cpu time     23.6539: real time      1.3843
  RMM-DIIS:  cpu time     90.0310: real time      5.0036
    ORTHCH:  cpu time      0.3610: real time      0.0226
 BZINTS: Fermi energy:    3.927806;   22.000000 electrons
         Band energy:-0.297001E+03;  BLOECHL correction:   -0.180846
       DOS:  cpu time      0.1192: real time      0.0092
    CHARGE:  cpu time      6.2214: real time      0.3799
    MIXING:  cpu time      0.0012: real time      0.0012
    --------------------------------------------
      LOOP:  cpu time    124.1304: real time      7.2437

 eigenvalue-minimisations  :  1739
 total energy-change (2. order) : 0.1272443E+00  (-0.2784371E+00)
 number of electron      21.9999994 magnetization       0.1195345
 augmentation part        8.0540105 magnetization       0.0476381

 Broyden mixing:
  rms(total) = 0.20277E+00    rms(broyden)= 0.20277E+00
  rms(prec ) = 0.23190E+00
  weight for this iteration     100.00

 eigenvalues of (default mixing * dielectric matrix)
  average eigenvalue GAMMA=   1.0128
  1.4626  0.5629

 Free energy of the ion-electron system (eV)
  ---------------------------------------------------
  alpha Z        PSCENC =       220.55575184
  Ewald energy   TEWEN  =     -1838.12302340
  -Hartree energ DENC   =      -267.81802425
  -exchange      EXHF   =         0.00000000
  -V(xc)+E(xc)   XCENC  =        49.75891020
  PAW double counting   =      2293.80699798    -2267.92022425
  entropy T*S    EENTRO =         0.00000000
  eigenvalues    EBANDS =      -297.00148327
  atomic energy  EATOM  =      2086.78124273
  Solvation  Ediel_sol  =         0.00000000
  ---------------------------------------------------
  free energy    TOTEN  =       -19.95985242 eV

  energy without entropy =      -19.95985242  energy(sigma->0) =      -19.95985242


--------------------------------------------------------------------------------------------------------




--------------------------------------- Iteration      1(   8)  ---------------------------------------


    POTLOK:  cpu time      1.3471: real time      0.1151
    SETDIJ:  cpu time      1.0151: real time      0.2437
    EDDIAG:  cpu time     28.2772: real time      1.6150
  RMM-DIIS:  cpu time     91.9820: real time      5.0817
    ORTHCH:  cpu time      0.5166: real time      0.0335
 BZINTS: Fermi energy:    3.947898;   22.000000 electrons
         Band energy:-0.296033E+03;  BLOECHL correction:   -0.180828
       DOS:  cpu time      0.1194: real time      0.0094
    CHARGE:  cpu time      9.7098: real time      0.5450
    MIXING:  cpu time      0.0014: real time      0.0014
    --------------------------------------------
      LOOP:  cpu time    132.9686: real time      7.6450

 eigenvalue-minimisations  :  1889
 total energy-change (2. order) :-0.1262841E-01  (-0.1509276E-01)
 number of electron      21.9999994 magnetization       0.0910628
 augmentation part        8.0591558 magnetization       0.0336067

 Broyden mixing:
  rms(total) = 0.10187E+00    rms(broyden)= 0.10187E+00
  rms(prec ) = 0.13546E+00
  weight for this iteration     100.00

 eigenvalues of (default mixing * dielectric matrix)
  average eigenvalue GAMMA=   1.0153
  1.6526  0.6967  0.6967

 Free energy of the ion-electron system (eV)
  ---------------------------------------------------
  alpha Z        PSCENC =       220.55575184
  Ewald energy   TEWEN  =     -1838.12302340
  -Hartree energ DENC   =      -268.67929064
  -exchange      EXHF   =         0.00000000
  -V(xc)+E(xc)   XCENC  =        49.79375576
  PAW double counting   =      2322.17193718    -2296.43991498
  entropy T*S    EENTRO =         0.00000000
  eigenvalues    EBANDS =      -296.03293932
  atomic energy  EATOM  =      2086.78124273
  Solvation  Ediel_sol  =         0.00000000
  ---------------------------------------------------
  free energy    TOTEN  =       -19.97248083 eV

  energy without entropy =      -19.97248083  energy(sigma->0) =      -19.97248083


--------------------------------------------------------------------------------------------------------




--------------------------------------- Iteration      1(   9)  ---------------------------------------


    POTLOK:  cpu time      2.1315: real time      0.1484
    SETDIJ:  cpu time      1.0183: real time      0.2432
    EDDIAG:  cpu time     23.7702: real time      1.4066
  RMM-DIIS:  cpu time     96.4863: real time      5.3162
    ORTHCH:  cpu time      0.4502: real time      0.0242
 BZINTS: Fermi energy:    3.958179;   22.000000 electrons
         Band energy:-0.295529E+03;  BLOECHL correction:   -0.180838
       DOS:  cpu time      0.1191: real time      0.0090
    CHARGE:  cpu time      9.3161: real time      0.5220
    MIXING:  cpu time      0.0016: real time      0.0016
    --------------------------------------------
      LOOP:  cpu time    133.2933: real time      7.6713

 eigenvalue-minimisations  :  1817
 total energy-change (2. order) :-0.1062852E-02  (-0.3597123E-02)
 number of electron      21.9999994 magnetization       0.0515570
 augmentation part        8.0595056 magnetization       0.0123192

 Broyden mixing:
  rms(total) = 0.82456E-01    rms(broyden)= 0.82456E-01
  rms(prec ) = 0.11307E+00
  weight for this iteration     100.00

 eigenvalues of (default mixing * dielectric matrix)
  average eigenvalue GAMMA=   1.0070
  1.8446  0.8142  0.8142  0.5550

 Free energy of the ion-electron system (eV)
  ---------------------------------------------------
  alpha Z        PSCENC =       220.55575184
  Ewald energy   TEWEN  =     -1838.12302340
  -Hartree energ DENC   =      -269.16600152
  -exchange      EXHF   =         0.00000000
  -V(xc)+E(xc)   XCENC  =        49.81640218
  PAW double counting   =      2351.51023949    -2325.81942795
  entropy T*S    EENTRO =         0.00000000
  eigenvalues    EBANDS =      -295.52872705
  atomic energy  EATOM  =      2086.78124273
  Solvation  Ediel_sol  =         0.00000000
  ---------------------------------------------------
  free energy    TOTEN  =       -19.97354368 eV

  energy without entropy =      -19.97354368  energy(sigma->0) =      -19.97354368


--------------------------------------------------------------------------------------------------------




--------------------------------------- Iteration      1(  10)  ---------------------------------------


    POTLOK:  cpu time      2.8162: real time      0.1765
    SETDIJ:  cpu time      1.0473: real time      0.2541
    EDDIAG:  cpu time     35.4876: real time      1.9580
  RMM-DIIS:  cpu time     86.6699: real time      4.6849
    ORTHCH:  cpu time      0.4361: real time      0.0217
 BZINTS: Fermi energy:    3.979418;   22.000000 electrons
         Band energy:-0.294571E+03;  BLOECHL correction:   -0.180963
       DOS:  cpu time      0.1135: real time      0.0097
    CHARGE:  cpu time      8.7544: real time      0.4913
    MIXING:  cpu time      0.0021: real time      0.0021
    --------------------------------------------
      LOOP:  cpu time    135.3271: real time      7.5983

 eigenvalue-minimisations  :  1532
 total energy-change (2. order) : 0.2919983E-02  (-0.7443150E-03)
 number of electron      21.9999994 magnetization      -0.0067400
 augmentation part        8.0508030 magnetization      -0.0206430

 Broyden mixing:
  rms(total) = 0.61006E-01    rms(broyden)= 0.61006E-01
  rms(prec ) = 0.69922E-01
  weight for this iteration     100.00

 eigenvalues of (default mixing * dielectric matrix)
  average eigenvalue GAMMA=   1.3447
  2.5008  1.4103  1.4103  0.6284  0.7735

 Free energy of the ion-electron system (eV)
  ---------------------------------------------------
  alpha Z        PSCENC =       220.55575184
  Ewald energy   TEWEN  =     -1838.12302340
  -Hartree energ DENC   =      -270.14671241
  -exchange      EXHF   =         0.00000000
  -V(xc)+E(xc)   XCENC  =        49.86298575
  PAW double counting   =      2408.84098090    -2383.17044996
  entropy T*S    EENTRO =         0.00000000
  eigenvalues    EBANDS =      -294.57139915
  atomic energy  EATOM  =      2086.78124273
  Solvation  Ediel_sol  =         0.00000000
  ---------------------------------------------------
  free energy    TOTEN  =       -19.97062370 eV

  energy without entropy =      -19.97062370  energy(sigma->0) =      -19.97062370


--------------------------------------------------------------------------------------------------------




--------------------------------------- Iteration      1(  11)  ---------------------------------------


    POTLOK:  cpu time      1.5277: real time      0.1227
    SETDIJ:  cpu time      1.1065: real time      0.2440
    EDDIAG:  cpu time     23.4579: real time      1.3614
  RMM-DIIS:  cpu time     87.0456: real time      4.8345
    ORTHCH:  cpu time      0.3074: real time      0.0209
 BZINTS: Fermi energy:    3.991097;   22.000000 electrons
         Band energy:-0.294021E+03;  BLOECHL correction:   -0.181023
       DOS:  cpu time      0.1222: real time      0.0089
    CHARGE:  cpu time     13.6675: real time      0.7303
    MIXING:  cpu time      0.0015: real time      0.0015
    --------------------------------------------
      LOOP:  cpu time    127.2363: real time      7.3242

 eigenvalue-minimisations  :  1695
 total energy-change (2. order) :-0.8234896E-04  (-0.6136642E-03)
 number of electron      21.9999994 magnetization      -0.0042086
 augmentation part        8.0440317 magnetization      -0.0002223

 Broyden mixing:
  rms(total) = 0.24346E-02    rms(broyden)= 0.24346E-02
  rms(prec ) = 0.35916E-02
  weight for this iteration     100.00

 eigenvalues of (default mixing * dielectric matrix)
  average eigenvalue GAMMA=   1.2745
  2.5730  1.4243  1.4243  0.8463  0.7501  0.6288

 Free energy of the ion-electron system (eV)
  ---------------------------------------------------
  alpha Z        PSCENC =       220.55575184
  Ewald energy   TEWEN  =     -1838.12302340
  -Hartree energ DENC   =      -270.65989622
  -exchange      EXHF   =         0.00000000
  -V(xc)+E(xc)   XCENC  =        49.88724961
  PAW double counting   =      2476.70614160    -2451.09722709
  entropy T*S    EENTRO =         0.00000000
  eigenvalues    EBANDS =      -294.02094512
  atomic energy  EATOM  =      2086.78124273
  Solvation  Ediel_sol  =         0.00000000
  ---------------------------------------------------
  free energy    TOTEN  =       -19.97070604 eV

  energy without entropy =      -19.97070604  energy(sigma->0) =      -19.97070604


--------------------------------------------------------------------------------------------------------




--------------------------------------- Iteration      1(  12)  ---------------------------------------


    POTLOK:  cpu time      2.2634: real time      0.1544
    SETDIJ:  cpu time      1.1181: real time      0.2502
    EDDIAG:  cpu time     30.2561: real time      1.6947
  RMM-DIIS:  cpu time     61.2135: real time      3.5021
    ORTHCH:  cpu time      0.3176: real time      0.0192
 BZINTS: Fermi energy:    3.991530;   22.000000 electrons
         Band energy:-0.294004E+03;  BLOECHL correction:   -0.181022
       DOS:  cpu time      0.1356: real time      0.0106
    --------------------------------------------
      LOOP:  cpu time     95.3043: real time      5.6312

 eigenvalue-minimisations  :  1333
 total energy-change (2. order) :-0.9093591E-04  (-0.8631744E-04)
 number of electron      21.9999994 magnetization      -0.0042086
 augmentation part        8.0440317 magnetization      -0.0002223

 Free energy of the ion-electron system (eV)
  ---------------------------------------------------
  alpha Z        PSCENC =       220.55575184
  Ewald energy   TEWEN  =     -1838.12302340
  -Hartree energ DENC   =      -270.69361549
  -exchange      EXHF   =         0.00000000
  -V(xc)+E(xc)   XCENC  =        49.88888244
  PAW double counting   =      2476.38489016    -2450.76094159
  entropy T*S    EENTRO =         0.00000000
  eigenvalues    EBANDS =      -294.00398369
  atomic energy  EATOM  =      2086.78124273
  Solvation  Ediel_sol  =         0.00000000
  ---------------------------------------------------
  free energy    TOTEN  =       -19.97079698 eV

  energy without entropy =      -19.97079698  energy(sigma->0) =      -19.97079698


--------------------------------------------------------------------------------------------------------




 average (electrostatic) potential at core
  the test charge radii are     1.2125
  (the norm of the test charge is              1.0000)
       1 -36.3444       2 -36.3444



 E-fermi :   3.9915     XC(G=0): -11.7799     alpha+bet :-11.3974

 Fermi energy:         3.9915300505

 spin component 1

 k-point     1 :       0.0000    0.0000    0.0000
  band No.  band energies     occupation 
      1     -26.7653      1.00000
      2     -26.7653      1.00000
      3     -26.7653      1.00000
      4     -26.1449      1.00000
      5     -26.1449      1.00000
      6     -26.1449      1.00000
      7      -1.6591      1.00000
      8       0.9504      1.00000
      9       0.9504      1.00000
     10       4.3578     -0.07166
     11       4.3578     -0.01600
     12       4.3578      0.00000
     13       6.8500      0.00000
     14       6.8500      0.00000
     15       8.7203      0.00000
     16       8.7203      0.00000

 k-point     2 :       0.1429    0.0000    0.0000
  band No.  band energies     occupation 
      1     -26.7649      1.00000
      2     -26.7334      1.00000
      3     -26.7334      1.00000
      4     -26.2082      1.00000
      5     -26.1743      1.00000
      6     -26.1743      1.00000
      7      -1.2983      1.00000
      8       1.1533      1.00000
      9       1.2186      1.00000
     10       4.3315     -0.12657
     11       4.3315     -0.03114
     12       4.5253      0.00000
     13       6.3870      0.00000
     14       7.0182      0.00000
     15       7.7464      0.00000
     16       7.7477      0.00000

 k-point     3 :       0.2857    0.0000    0.0000
  band No.  band energies     occupation 
      1     -26.7474      1.00000
      2     -26.6446      1.00000
      3     -26.6446      1.00000
      4     -26.3656      1.00000
      5     -26.2574      1.00000
      6     -26.2574      1.00000
      7      -0.3170      1.00000
      8       1.7503      1.00000
      9       1.7776      1.00000
     10       4.3508      0.12187
     11       4.3508     -0.11059
     12       5.0134      0.00000
     13       5.2615      0.00000
     14       6.3320      0.00000
     15       6.3323      0.00000
     16       7.4270      0.00000

 k-point     4 :       0.4286    0.0000    0.0000
  band No.  band energies     occupation 
      1     -26.6795      1.00000
      2     -26.5442      1.00000
      3     -26.5179      1.00000
      4     -26.5179      1.00000
      5     -26.3796      1.00000
      6     -26.3796      1.00000
      7       0.9569      1.00000
      8       1.8618      1.00000
      9       2.7031      1.00000
     10       3.9289      0.94653
     11       4.6090     -0.30660
     12       4.6090      0.00000
     13       5.2529      0.00000
     14       5.2529      0.00000
     15       5.7742      0.00000
     16       6.7146      0.00000

 k-point     5 :       0.1429    0.1429    0.0000
  band No.  band energies     occupation 
      1     -26.8168      1.00000
      2     -26.7042      1.00000
      3     -26.6541      1.00000
      4     -26.3213      1.00000
      5     -26.2003      1.00000
      6     -26.1458      1.00000
      7      -0.9649      1.00000
      8       1.3475      1.00000
      9       1.4741      1.00000
     10       3.9782      0.64155
     11       4.2225      0.02204
     12       5.0353     -0.00552
     13       6.4466      0.00000
     14       6.6874      0.00000
     15       6.8799      0.00000
     16       6.9194      0.00000

 k-point     6 :       0.2857    0.1429    0.0000
  band No.  band energies     occupation 
      1     -26.8412      1.00000
      2     -26.6232      1.00000
      3     -26.5375      1.00000
      4     -26.5032      1.00000
      5     -26.2741      1.00000
      6     -26.1833      1.00000
      7      -0.0796      1.00000
      8       1.7663      1.00000
      9       2.1075      1.00000
     10       3.7676      0.98647
     11       4.0328      0.55041
     12       5.3940     -0.05265
     13       5.7790      0.00000
     14       5.8439      0.00000
     15       5.8482      0.00000
     16       7.2720      0.00000

 k-point     7 :       0.4286    0.1429    0.0000
  band No.  band energies     occupation 
      1     -26.8005      1.00000
      2     -26.6809      1.00000
      3     -26.5082      1.00000
      4     -26.4056      1.00000
      5     -26.3835      1.00000
      6     -26.2788      1.00000
      7       1.0184      1.00000
      8       1.8122      1.00000
      9       2.8384      1.00000
     10       3.6309      1.00368
     11       3.8891      0.85589
     12       4.4268     -0.03572
     13       5.3981      0.00000
     14       5.4531      0.00000
     15       6.6699      0.00000
     16       7.6535      0.00000

 k-point     8 :       0.2857    0.2857    0.0000
  band No.  band energies     occupation 
      1     -26.9307      1.00000
      2     -26.7015      1.00000
      3     -26.5644      1.00000
      4     -26.3965      1.00000
      5     -26.3225      1.00000
      6     -26.1478      1.00000
      7       0.4461      1.00000
      8       1.6657      1.00000
      9       2.9481      1.00000
     10       3.2405      1.00000
     11       3.9617      0.85438
     12       4.2350      0.04917
     13       5.4848      0.00000
     14       6.5062      0.00000
     15       6.8634      0.00000
     16       7.0571      0.00000

 k-point     9 :       0.4286    0.2857    0.0000
  band No.  band energies     occupation 
      1     -26.9459      1.00000
      2     -26.8651      1.00000
      3     -26.4824      1.00000
      4     -26.3960      1.00000
      5     -26.2717      1.00000
      6     -26.1823      1.00000
      7       0.9329      1.00000
      8       1.3456      1.00000
      9       3.1074      1.00000
     10       3.4397      1.00000
     11       3.7854      0.82094
     12       4.1567      0.06550
     13       5.9257      0.00000
     14       6.3946      0.00000
     15       7.5368      0.00000
     16       7.9332      0.00000

 k-point    10 :       0.4286    0.4286    0.0000
  band No.  band energies     occupation 
      1     -27.0204      1.00000
      2     -26.9919      1.00000
      3     -26.4494      1.00000
      4     -26.4185      1.00000
      5     -26.1818      1.00000
      6     -26.1495      1.00000
      7       0.7946      1.00000
      8       0.9197      1.00000
      9       2.7316      1.00000
     10       2.8432      1.00000
     11       5.0426     -0.15714
     12       5.2782     -0.10094
     13       6.5082      0.00000
     14       6.8358      0.00000
     15       7.3371      0.00000
     16       8.1377      0.00000

 k-point    11 :       0.1429    0.1429    0.1429
  band No.  band energies     occupation 
      1     -26.7825      1.00000
      2     -26.7825      1.00000
      3     -26.5606      1.00000
      4     -26.4129      1.00000
      5     -26.1777      1.00000
      6     -26.1777      1.00000
      7      -0.6435      1.00000
      8       1.6317      1.00000
      9       1.6317      1.00000
     10       3.8647      0.89110
     11       3.8647      0.72119
     12       5.3809     -0.04955
     13       5.5697      0.00000
     14       6.6665      0.00000
     15       6.6665      0.00000
     16       7.8886      0.00000

 k-point    12 :       0.2857    0.1429    0.1429
  band No.  band energies     occupation 
      1     -26.8422      1.00000
      2     -26.6870      1.00000
      3     -26.5811      1.00000
      4     -26.4440      1.00000
      5     -26.2681      1.00000
      6     -26.1864      1.00000
      7       0.1908      1.00000
      8       2.0734      1.00000
      9       2.1617      1.00000
     10       3.6036      1.01461
     11       3.6081      1.06733
     12       4.3195      0.08745
     13       6.1348      0.00000
     14       6.4573      0.00000
     15       6.6120      0.00000
     16       7.1752      0.00000

 k-point    13 :       0.4286    0.1429    0.1429
  band No.  band energies     occupation 
      1     -26.8329      1.00000
      2     -26.7393      1.00000
      3     -26.5503      1.00000
      4     -26.4007      1.00000
      5     -26.3337      1.00000
      6     -26.2428      1.00000
      7       1.1798      1.00000
      8       1.9781      1.00000
      9       2.6846      1.00000
     10       3.2393      1.00985
     11       3.7971      0.96688
     12       4.0692      0.24086
     13       5.6796      0.00000
     14       5.8045      0.00000
     15       7.2588      0.00000
     16       7.5244      0.00000

 k-point    14 :       0.2857    0.2857    0.1429
  band No.  band energies     occupation 
      1     -26.8913      1.00000
      2     -26.7314      1.00000
      3     -26.6537      1.00000
      4     -26.3349      1.00000
      5     -26.3151      1.00000
      6     -26.1856      1.00000
      7       0.7846      1.00000
      8       2.0083      1.00000
      9       2.9584      1.00000
     10       3.1305      1.00000
     11       3.4661      1.02116
     12       3.5044      0.89844
     13       6.3135      0.00000
     14       6.6142      0.00000
     15       7.0625      0.00000
     16       7.6010      0.00000

 k-point    15 :       0.4286    0.2857    0.1429
  band No.  band energies     occupation 
      1     -26.9172      1.00000
      2     -26.8610      1.00000
      3     -26.5421      1.00000
      4     -26.4170      1.00000
      5     -26.2530      1.00000
      6     -26.2034      1.00000
      7       1.2575      1.00000
      8       1.6409      1.00000
      9       2.9645      1.00000
     10       3.0411      1.00000
     11       3.8059      0.87552
     12       3.8169      0.71845
     13       6.2569      0.00000
     14       6.4681      0.00000
     15       7.4175      0.00000
     16       7.7984      0.00000

 k-point    16 :       0.4286    0.4286    0.1429
  band No.  band energies     occupation 
      1     -26.9770      1.00000
      2     -26.9576      1.00000
      3     -26.4912      1.00000
      4     -26.4432      1.00000
      5     -26.2070      1.00000
      6     -26.1921      1.00000
      7       1.1468      1.00000
      8       1.2452      1.00000
      9       2.6819      1.00000
     10       2.7635      1.00000
     11       4.6918     -0.06235
     12       4.7207     -0.12150
     13       6.7013      0.00000
     14       6.9042      0.00000
     15       7.3612      0.00000
     16       7.6985      0.00000

 k-point    17 :       0.2857    0.2857    0.2857
  band No.  band energies     occupation 
      1     -26.8017      1.00000
      2     -26.7810      1.00000
      3     -26.7810      1.00000
      4     -26.2924      1.00000
      5     -26.2924      1.00000
      6     -26.2715      1.00000
      7       1.5814      1.00000
      8       2.4972      1.00000
      9       2.9281      1.00000
     10       2.9281      1.00000
     11       2.9463      1.02668
     12       2.9463      1.07703
     13       7.0092      0.00000
     14       7.0092      0.00000
     15       7.1862      0.00000
     16       7.1862      0.00000

 k-point    18 :       0.4286    0.2857    0.2857
  band No.  band energies     occupation 
      1     -26.8610      1.00000
      2     -26.8593      1.00000
      3     -26.6225      1.00000
      4     -26.4480      1.00000
      5     -26.2640      1.00000
      6     -26.2506      1.00000
      7       1.9153      1.00000
      8       2.0344      1.00000
      9       2.8269      1.00000
     10       2.8710      1.00000
     11       3.2717      1.01944
     12       3.5862      0.99617
     13       6.8283      0.00000
     14       6.8709      0.00000
     15       7.3794      0.00000
     16       7.4375      0.00000

 k-point    19 :       0.4286    0.4286    0.2857
  band No.  band energies     occupation 
      1     -26.8681      1.00000
      2     -26.8553      1.00000
      3     -26.5854      1.00000
      4     -26.4887      1.00000
      5     -26.3119      1.00000
      6     -26.2846      1.00000
      7       1.9736      1.00000
      8       2.0442      1.00000
      9       2.6330      1.00000
     10       2.7662      1.00000
     11       3.7567      0.90418
     12       3.9232      0.81463
     13       7.1137      0.00000
     14       7.1708      0.00000
     15       7.4068      0.00000
     16       7.4548      0.00000

 k-point    20 :       0.4286    0.4286    0.4286
  band No.  band energies     occupation 
      1     -26.7652      1.00000
      2     -26.6799      1.00000
      3     -26.6799      1.00000
      4     -26.4858      1.00000
      5     -26.4858      1.00000
      6     -26.3973      1.00000
      7       2.4154      1.00000
      8       2.7706      1.00000
      9       2.7706      1.00000
     10       3.1774      1.00000
     11       3.2080      1.00000
     12       3.2080      1.00000
     13       7.4251      0.00000
     14       7.4252      0.00000
     15       7.4308      0.00000
     16       7.4308      0.00000
 Fermi energy:         3.9915300505

 spin component 2

 k-point     1 :       0.0000    0.0000    0.0000
  band No.  band energies     occupation 
      1     -26.7657      1.00000
      2     -26.7657      1.00000
      3     -26.7657      1.00000
      4     -26.1453      1.00000
      5     -26.1453      1.00000
      6     -26.1453      1.00000
      7      -1.6612      1.00000
      8       0.9489      1.00000
      9       0.9489      1.00000
     10       4.3568     -0.07248
     11       4.3568     -0.01622
     12       4.3568      0.00000
     13       6.8492      0.00000
     14       6.8492      0.00000
     15       8.7196      0.00000
     16       8.7197      0.00000

 k-point     2 :       0.1429    0.0000    0.0000
  band No.  band energies     occupation 
      1     -26.7653      1.00000
      2     -26.7338      1.00000
      3     -26.7338      1.00000
      4     -26.2086      1.00000
      5     -26.1746      1.00000
      6     -26.1746      1.00000
      7      -1.3004      1.00000
      8       1.1518      1.00000
      9       1.2171      1.00000
     10       4.3305     -0.12499
     11       4.3305     -0.03102
     12       4.5244      0.00000
     13       6.3861      0.00000
     14       7.0170      0.00000
     15       7.7455      0.00000
     16       7.7455      0.00000

 k-point     3 :       0.2857    0.0000    0.0000
  band No.  band energies     occupation 
      1     -26.7478      1.00000
      2     -26.6450      1.00000
      3     -26.6450      1.00000
      4     -26.3660      1.00000
      5     -26.2577      1.00000
      6     -26.2577      1.00000
      7      -0.3191      1.00000
      8       1.7488      1.00000
      9       1.7760      1.00000
     10       4.3498      0.12561
     11       4.3498     -0.11025
     12       5.0124      0.00000
     13       5.2604      0.00000
     14       6.3310      0.00000
     15       6.3311      0.00000
     16       7.4256      0.00000

 k-point     4 :       0.4286    0.0000    0.0000
  band No.  band energies     occupation 
      1     -26.6799      1.00000
      2     -26.5446      1.00000
      3     -26.5183      1.00000
      4     -26.5183      1.00000
      5     -26.3800      1.00000
      6     -26.3800      1.00000
      7       0.9550      1.00000
      8       1.8600      1.00000
      9       2.7018      1.00000
     10       3.9277      0.94719
     11       4.6079     -0.30551
     12       4.6079      0.00000
     13       5.2518      0.00000
     14       5.2518      0.00000
     15       5.7734      0.00000
     16       6.7152      0.00000

 k-point     5 :       0.1429    0.1429    0.0000
  band No.  band energies     occupation 
      1     -26.8172      1.00000
      2     -26.7046      1.00000
      3     -26.6544      1.00000
      4     -26.3217      1.00000
      5     -26.2006      1.00000
      6     -26.1461      1.00000
      7      -0.9669      1.00000
      8       1.3460      1.00000
      9       1.4727      1.00000
     10       3.9772      0.64426
     11       4.2214      0.02339
     12       5.0344     -0.00554
     13       6.4457      0.00000
     14       6.6864      0.00000
     15       6.8791      0.00000
     16       6.9183      0.00000

 k-point     6 :       0.2857    0.1429    0.0000
  band No.  band energies     occupation 
      1     -26.8416      1.00000
      2     -26.6236      1.00000
      3     -26.5378      1.00000
      4     -26.5036      1.00000
      5     -26.2745      1.00000
      6     -26.1836      1.00000
      7      -0.0816      1.00000
      8       1.7648      1.00000
      9       2.1060      1.00000
     10       3.7665      0.98692
     11       4.0317      0.55531
     12       5.3924     -0.05295
     13       5.7771      0.00000
     14       5.8426      0.00000
     15       5.8471      0.00000
     16       7.2684      0.00000

 k-point     7 :       0.4286    0.1429    0.0000
  band No.  band energies     occupation 
      1     -26.8009      1.00000
      2     -26.6813      1.00000
      3     -26.5085      1.00000
      4     -26.4060      1.00000
      5     -26.3838      1.00000
      6     -26.2791      1.00000
      7       1.0165      1.00000
      8       1.8106      1.00000
      9       2.8369      1.00000
     10       3.6295      1.00371
     11       3.8880      0.85738
     12       4.4257     -0.03564
     13       5.3970      0.00000
     14       5.4521      0.00000
     15       6.6691      0.00000
     16       7.6941      0.00000

 k-point     8 :       0.2857    0.2857    0.0000
  band No.  band energies     occupation 
      1     -26.9311      1.00000
      2     -26.7020      1.00000
      3     -26.5648      1.00000
      4     -26.3969      1.00000
      5     -26.3229      1.00000
      6     -26.1481      1.00000
      7       0.4442      1.00000
      8       1.6642      1.00000
      9       2.9466      1.00000
     10       3.2394      1.00000
     11       3.9603      0.85708
     12       4.2339      0.05008
     13       5.4837      0.00000
     14       6.5053      0.00000
     15       6.8625      0.00000
     16       7.0563      0.00000

 k-point     9 :       0.4286    0.2857    0.0000
  band No.  band energies     occupation 
      1     -26.9463      1.00000
      2     -26.8655      1.00000
      3     -26.4828      1.00000
      4     -26.3964      1.00000
      5     -26.2721      1.00000
      6     -26.1826      1.00000
      7       0.9312      1.00000
      8       1.3440      1.00000
      9       3.1062      1.00000
     10       3.4386      1.00000
     11       3.7839      0.82189
     12       4.1551      0.06716
     13       5.9247      0.00000
     14       6.3936      0.00000
     15       7.5360      0.00000
     16       7.9321      0.00000

 k-point    10 :       0.4286    0.4286    0.0000
  band No.  band energies     occupation 
      1     -27.0208      1.00000
      2     -26.9924      1.00000
      3     -26.4498      1.00000
      4     -26.4189      1.00000
      5     -26.1821      1.00000
      6     -26.1499      1.00000
      7       0.7930      1.00000
      8       0.9181      1.00000
      9       2.7304      1.00000
     10       2.8420      1.00000
     11       5.0409     -0.15674
     12       5.2763     -0.10158
     13       6.5073      0.00000
     14       6.8349      0.00000
     15       7.3364      0.00000
     16       8.1367      0.00000

 k-point    11 :       0.1429    0.1429    0.1429
  band No.  band energies     occupation 
      1     -26.7829      1.00000
      2     -26.7829      1.00000
      3     -26.5610      1.00000
      4     -26.4133      1.00000
      5     -26.1781      1.00000
      6     -26.1781      1.00000
      7      -0.6456      1.00000
      8       1.6303      1.00000
      9       1.6303      1.00000
     10       3.8636      0.89253
     11       3.8636      0.72434
     12       5.3798     -0.04963
     13       5.5687      0.00000
     14       6.6657      0.00000
     15       6.6665      0.00000
     16       7.8877      0.00000

 k-point    12 :       0.2857    0.1429    0.1429
  band No.  band energies     occupation 
      1     -26.8426      1.00000
      2     -26.6874      1.00000
      3     -26.5815      1.00000
      4     -26.4444      1.00000
      5     -26.2685      1.00000
      6     -26.1868      1.00000
      7       0.1888      1.00000
      8       2.0720      1.00000
      9       2.1602      1.00000
     10       3.6024      1.01465
     11       3.6070      1.06729
     12       4.3183      0.08840
     13       6.1338      0.00000
     14       6.4564      0.00000
     15       6.6110      0.00000
     16       7.1744      0.00000

 k-point    13 :       0.4286    0.1429    0.1429
  band No.  band energies     occupation 
      1     -26.8333      1.00000
      2     -26.7397      1.00000
      3     -26.5507      1.00000
      4     -26.4011      1.00000
      5     -26.3340      1.00000
      6     -26.2432      1.00000
      7       1.1780      1.00000
      8       1.9765      1.00000
      9       2.6832      1.00000
     10       3.2380      1.00980
     11       3.7959      0.96714
     12       4.0679      0.24336
     13       5.6787      0.00000
     14       5.8035      0.00000
     15       7.2587      0.00000
     16       7.5266      0.00000

 k-point    14 :       0.2857    0.2857    0.1429
  band No.  band energies     occupation 
      1     -26.8917      1.00000
      2     -26.7318      1.00000
      3     -26.6541      1.00000
      4     -26.3353      1.00000
      5     -26.3154      1.00000
      6     -26.1860      1.00000
      7       0.7827      1.00000
      8       2.0068      1.00000
      9       2.9569      1.00000
     10       3.1294      1.00000
     11       3.4649      1.02092
     12       3.5031      0.89983
     13       6.3125      0.00000
     14       6.6133      0.00000
     15       7.0617      0.00000
     16       7.6001      0.00000

 k-point    15 :       0.4286    0.2857    0.1429
  band No.  band energies     occupation 
      1     -26.9177      1.00000
      2     -26.8614      1.00000
      3     -26.5425      1.00000
      4     -26.4174      1.00000
      5     -26.2533      1.00000
      6     -26.2038      1.00000
      7       1.2559      1.00000
      8       1.6394      1.00000
      9       2.9633      1.00000
     10       3.0398      1.00000
     11       3.8044      0.87630
     12       3.8154      0.72134
     13       6.2560      0.00000
     14       6.4673      0.00000
     15       7.4167      0.00000
     16       7.7981      0.00000

 k-point    16 :       0.4286    0.4286    0.1429
  band No.  band energies     occupation 
      1     -26.9774      1.00000
      2     -26.9580      1.00000
      3     -26.4916      1.00000
      4     -26.4436      1.00000
      5     -26.2074      1.00000
      6     -26.1924      1.00000
      7       1.1452      1.00000
      8       1.2436      1.00000
      9       2.6807      1.00000
     10       2.7623      1.00000
     11       4.6901     -0.06067
     12       4.7190     -0.12052
     13       6.7005      0.00000
     14       6.9034      0.00000
     15       7.3605      0.00000
     16       7.6980      0.00000

 k-point    17 :       0.2857    0.2857    0.2857
  band No.  band energies     occupation 
      1     -26.8021      1.00000
      2     -26.7814      1.00000
      3     -26.7814      1.00000
      4     -26.2927      1.00000
      5     -26.2927      1.00000
      6     -26.2719      1.00000
      7       1.5795      1.00000
      8       2.4959      1.00000
      9       2.9268      1.00000
     10       2.9268      1.00000
     11       2.9449      1.02662
     12       2.9449      1.07673
     13       7.0084      0.00000
     14       7.0084      0.00000
     15       7.1854      0.00000
     16       7.1854      0.00000

 k-point    18 :       0.4286    0.2857    0.2857
  band No.  band energies     occupation 
      1     -26.8615      1.00000
      2     -26.8597      1.00000
      3     -26.6229      1.00000
      4     -26.4484      1.00000
      5     -26.2644      1.00000
      6     -26.2509      1.00000
      7       1.9137      1.00000
      8       2.0330      1.00000
      9       2.8256      1.00000
     10       2.8696      1.00000
     11       3.2702      1.01956
     12       3.5847      0.99647
     13       6.8274      0.00000
     14       6.8701      0.00000
     15       7.3787      0.00000
     16       7.4368      0.00000

 k-point    19 :       0.4286    0.4286    0.2857
  band No.  band energies     occupation 
      1     -26.8685      1.00000
      2     -26.8558      1.00000
      3     -26.5858      1.00000
      4     -26.4891      1.00000
      5     -26.3122      1.00000
      6     -26.2850      1.00000
      7       1.9721      1.00000
      8       2.0427      1.00000
      9       2.6318      1.00000
     10       2.7649      1.00000
     11       3.7552      0.90499
     12       3.9217      0.81592
     13       7.1129      0.00000
     14       7.1701      0.00000
     15       7.4062      0.00000
     16       7.4541      0.00000

 k-point    20 :       0.4286    0.4286    0.4286
  band No.  band energies     occupation 
      1     -26.7657      1.00000
      2     -26.6803      1.00000
      3     -26.6803      1.00000
      4     -26.4862      1.00000
      5     -26.4862      1.00000
      6     -26.3976      1.00000
      7       2.4140      1.00000
      8       2.7693      1.00000
      9       2.7693      1.00000
     10       3.1759      1.00000
     11       3.2065      1.00000
     12       3.2065      1.00000
     13       7.4245      0.00000
     14       7.4245      0.00000
     15       7.4302      0.00000
     16       7.4302      0.00000


--------------------------------------------------------------------------------------------------------


 soft charge-density along one line, spin component           1
         0         1         2         3         4         5         6         7         8         9
 total charge-density along one line

 soft charge-density along one line, spin component           2
         0         1         2         3         4         5         6         7         8         9
 total charge-density along one line

 pseudopotential strength for first ion, spin component:           1
-28.752   0.000   0.000   6.391  -0.000  -0.000  -0.000  -0.000
  0.000 -28.752  -0.000  -0.000   6.391   0.000  -0.000  -0.000
  0.000  -0.000 -28.752  -0.000   0.000   6.391  -0.000  -0.000
  6.391  -0.000  -0.000   4.053   0.000   0.000   0.000   0.000
 -0.000   6.391   0.000   0.000   4.053   0.000   0.000   0.000
 -0.000   0.000   6.391   0.000   0.000   4.053   0.000   0.000
 -0.000  -0.000  -0.000   0.000   0.000   0.000  -6.621  -0.000
 -0.000  -0.000  -0.000   0.000   0.000   0.000  -0.000  -6.621
  0.000  -0.000   0.000  -0.000   0.000  -0.000   0.000   0.000
 -0.000  -0.000  -0.000   0.000  -0.000   0.000   0.000   0.000
  0.000  -0.000   0.000  -0.000   0.000  -0.000  -0.000  -0.000
 -0.000  -0.000  -0.000   0.000   0.000   0.000  -7.529  -0.000
 -0.000  -0.000  -0.000   0.000   0.000   0.000  -0.000  -7.529
  0.000  -0.000   0.000  -0.000   0.000  -0.000   0.000   0.000
 -0.000  -0.000  -0.000   0.000  -0.000   0.000   0.000   0.000
  0.000  -0.000   0.000  -0.000   0.000  -0.000  -0.000  -0.000
  0.000   0.000   0.000   0.000  -0.000   0.000  -0.000  -0.000
 -0.000  -0.000  -0.000  -0.000  -0.000  -0.000   0.000   0.000
 pseudopotential strength for first ion, spin component:           2
-28.752   0.000   0.000   6.391  -0.000  -0.000  -0.000  -0.000
  0.000 -28.752  -0.000  -0.000   6.391   0.000  -0.000  -0.000
  0.000  -0.000 -28.752  -0.000   0.000   6.391  -0.000  -0.000
  6.391  -0.000  -0.000   4.053   0.000   0.000   0.000   0.000
 -0.000   6.391   0.000   0.000   4.053   0.000  -0.000   0.000
 -0.000   0.000   6.391   0.000   0.000   4.053   0.000  -0.000
 -0.000  -0.000  -0.000   0.000  -0.000   0.000  -6.621  -0.000
 -0.000  -0.000  -0.000   0.000   0.000  -0.000  -0.000  -6.621
  0.000  -0.000   0.000  -0.000   0.000  -0.000   0.000   0.000
 -0.000   0.000  -0.000  -0.000  -0.000   0.000   0.000   0.000
  0.000  -0.000   0.000  -0.000   0.000  -0.000  -0.000  -0.000
 -0.000  -0.000  -0.000   0.000  -0.000   0.000  -7.529  -0.000
 -0.000  -0.000  -0.000   0.000   0.000  -0.000  -0.000  -7.529
  0.000  -0.000   0.000  -0.000   0.000  -0.000   0.000   0.000
 -0.000   0.000  -0.000  -0.000  -0.000   0.000   0.000   0.000
  0.000  -0.000   0.000  -0.000   0.000  -0.000  -0.000  -0.000
  0.000   0.000   0.000   0.000  -0.000   0.000  -0.000  -0.000
 -0.000  -0.000  -0.000  -0.000  -0.000  -0.000   0.000   0.000
 total augmentation occupancy for first ion, spin component:           1
  1.991   0.000   0.000  -0.024  -0.000  -0.000   0.000  -0.000  -0.000   0.000   0.000  -0.000  -0.000   0.000   0.000   0.000
  0.000   1.991   0.000  -0.000  -0.024  -0.000   0.000   0.000  -0.000  -0.000   0.000   0.000   0.000  -0.000   0.000  -0.000
  0.000   0.000   1.991  -0.000  -0.000  -0.024   0.000   0.000   0.000  -0.000  -0.000   0.000   0.000   0.000   0.000  -0.000
 -0.024  -0.000  -0.000   0.180   0.000   0.000   0.000  -0.000   0.000   0.000  -0.000   0.000  -0.000   0.000  -0.000  -0.000
 -0.000  -0.024  -0.000   0.000   0.180   0.000   0.000   0.000   0.000   0.000  -0.000  -0.000   0.000  -0.000   0.000   0.000
 -0.000  -0.000  -0.024   0.000   0.000   0.180  -0.000   0.000   0.000   0.000   0.000   0.000   0.000  -0.000   0.000  -0.000
  0.000   0.000   0.000   0.000   0.000  -0.000   4.687   0.000  -0.000   0.000   0.000  -2.444  -0.000   0.000  -0.000  -0.000
  0.000  -0.000   0.000  -0.000   0.000   0.000   0.000   4.687   0.000   0.000  -0.000  -0.000  -2.444  -0.000  -0.000   0.000
  0.000   0.000   0.000  -0.000   0.000  -0.000  -0.000   0.000   4.325   0.000  -0.000   0.000  -0.000  -2.412  -0.000  -0.000
  0.000  -0.000  -0.000   0.000   0.000   0.000   0.000   0.000   0.000   4.687   0.000  -0.000  -0.000  -0.000  -2.444  -0.000
  0.000  -0.000   0.000  -0.000   0.000   0.000   0.000  -0.000   0.000   0.000   4.325  -0.000   0.000  -0.000  -0.000  -2.412
  0.000   0.000  -0.000   0.000  -0.000   0.000  -2.444  -0.000   0.000  -0.000  -0.000   1.306   0.000  -0.000   0.000  -0.000
  0.000   0.000   0.000  -0.000   0.000   0.000  -0.000  -2.444  -0.000  -0.000   0.000   0.000   1.306   0.000   0.000  -0.000
  0.000   0.000  -0.000  -0.000   0.000  -0.000   0.000  -0.000  -2.412  -0.000  -0.000  -0.000   0.000   1.362   0.000  -0.000
  0.000   0.000  -0.000  -0.000   0.000   0.000  -0.000  -0.000  -0.000  -2.444  -0.000   0.000   0.000   0.000   1.306   0.000
  0.000  -0.000   0.000   0.000   0.000  -0.000  -0.000   0.000  -0.000  -0.000  -2.412  -0.000  -0.000   0.000   0.000   1.362
  0.000  -0.000  -0.000   0.000   0.000   0.000  -0.000  -0.000  -0.000  -0.000  -0.000  -0.000  -0.000   0.000  -0.000   0.000
  0.000   0.000  -0.000   0.000   0.000   0.000  -0.000  -0.000  -0.000  -0.000  -0.000   0.000  -0.000   0.000   0.000  -0.000
 total augmentation occupancy for first ion, spin component:           2
  0.000   0.000   0.000   0.000   0.000   0.000   0.000   0.000   0.000   0.000   0.000  -0.000   0.000   0.000   0.000   0.000
  0.000   0.000   0.000   0.000   0.000   0.000  -0.000  -0.000  -0.000   0.000   0.000   0.000   0.000   0.000   0.000   0.000
  0.000   0.000   0.000   0.000   0.000   0.000  -0.000  -0.000   0.000   0.000   0.000   0.000  -0.000   0.000   0.000   0.000
  0.000   0.000   0.000  -0.000  -0.000  -0.000  -0.000   0.000  -0.000   0.000   0.000   0.000  -0.000  -0.000   0.000  -0.000
  0.000   0.000   0.000  -0.000  -0.000  -0.000   0.000  -0.000   0.000  -0.000  -0.000   0.000   0.000   0.000   0.000   0.000
  0.000   0.000   0.000  -0.000  -0.000  -0.000  -0.000   0.000   0.000   0.000  -0.000  -0.000   0.000  -0.000   0.000   0.000
  0.000   0.000   0.000  -0.000  -0.000   0.000  -0.002  -0.000   0.000  -0.000   0.000   0.001   0.000  -0.000   0.000  -0.000
  0.000  -0.000   0.000   0.000  -0.000   0.000  -0.000  -0.002  -0.000  -0.000   0.000   0.000   0.001   0.000   0.000  -0.000
  0.000  -0.000   0.000  -0.000   0.000   0.000   0.000  -0.000  -0.003  -0.000  -0.000  -0.000   0.000   0.002   0.000   0.000
  0.000   0.000  -0.000  -0.000   0.000   0.000  -0.000  -0.000  -0.000  -0.002  -0.000   0.000   0.000   0.000   0.001   0.000
 -0.000   0.000   0.000   0.000  -0.000   0.000   0.000   0.000   0.000  -0.000  -0.003  -0.000  -0.000   0.000   0.000   0.002
 -0.000  -0.000   0.000   0.000   0.000  -0.000   0.001   0.000  -0.000   0.000  -0.000  -0.001  -0.000   0.000  -0.000   0.000
 -0.000  -0.000  -0.000   0.000   0.000   0.000   0.000   0.001   0.000   0.000  -0.000  -0.000  -0.001   0.000  -0.000   0.000
 -0.000   0.000   0.000  -0.000  -0.000  -0.000  -0.000  -0.000   0.002   0.000   0.000   0.000   0.000  -0.002   0.000  -0.000
  0.000  -0.000   0.000   0.000   0.000  -0.000   0.000   0.000   0.000   0.001   0.000  -0.000  -0.000   0.000  -0.001  -0.000
  0.000   0.000   0.000   0.000   0.000  -0.000  -0.000  -0.000   0.000   0.000   0.002   0.000   0.000  -0.000  -0.000  -0.002
  0.000   0.000   0.000   0.000   0.000   0.000  -0.000  -0.000  -0.000  -0.000   0.000   0.000  -0.000   0.000   0.000  -0.000
  0.000   0.000   0.000   0.000   0.000  -0.000   0.000   0.000   0.000   0.000   0.000  -0.000  -0.000  -0.000  -0.000  -0.000


------------------------ aborting loop because EDIFF is reached ----------------------------------------





 total charge

# of ion       s       p       d       tot
------------------------------------------
    1        0.382   6.249   2.905   9.536
    2        0.382   6.249   2.905   9.536
--------------------------------------------------
tot          0.764  12.498   5.810  19.073



 magnetization (x)

# of ion       s       p       d       tot
------------------------------------------
    1       -0.000  -0.000  -0.001  -0.001
    2       -0.000  -0.000  -0.001  -0.001
--------------------------------------------------
tot         -0.000  -0.000  -0.001  -0.002

    CHARGE:  cpu time      8.2118: real time      0.4754
    FORLOC:  cpu time      0.0004: real time      0.0004
    FORNL :  cpu time     36.8224: real time      2.0602
    STRESS:  cpu time    110.2927: real time      6.1651
    FORCOR:  cpu time      1.8666: real time      0.1387
    FORHAR:  cpu time      0.9999: real time      0.0510
    MIXING:  cpu time      0.0017: real time      0.0017
    OFIELD:  cpu time      0.0000: real time      0.0000

  FORCE on cell =-STRESS in cart. coord.  units (eV):
  Direction    XX          YY          ZZ          XY          YZ          ZX
  --------------------------------------------------------------------------------------
  Alpha Z   220.55575   220.55575   220.55575
  Ewald    -612.70763  -612.70763  -612.70763    -0.00000     0.00000     0.00000
  Hartree    90.22527    90.22527    90.22527    -0.00000    -0.00000    -0.00000
  E(xc)     -93.98893   -93.98893   -93.98893    -0.00000    -0.00000    -0.00000
  Local     196.57379   196.57379   196.57379    -0.00000    -0.00000    -0.00000
  n-local   -88.18017   -84.42375   -79.58430     2.53223    -0.49521     0.72695
  augment    54.12911    54.12911    54.12911     0.00000    -0.00000     0.00000
  Kinetic   217.34882   222.39523   235.79631     0.91504    -2.05659     0.18670
  Fock        0.00000     0.00000     0.00000     0.00000     0.00000     0.00000
  -------------------------------------------------------------------------------------
  Total      -4.09525    -4.09525    -4.09525    -0.00000    -0.00000    -0.00000
  in kB    -159.83083  -159.83083  -159.83083    -0.00000    -0.00000    -0.00000
  external pressure =     -159.83 kB  Pullay stress =        0.00 kB


 VOLUME and BASIS-vectors are now :
 -----------------------------------------------------------------------------
  energy-cutoff  :      520.00
  volume of cell :       41.05
      direct lattice vectors                 reciprocal lattice vectors
     3.449663922  0.000000000  0.000000000     0.289883311 -0.000000000  0.000000000
     0.000000000  3.449663922  0.000000000    -0.000000000  0.289883311  0.000000000
    -0.000000000 -0.000000000  3.449663922    -0.000000000 -0.000000000  0.289883311

  length of vectors
     3.449663922  3.449663922  3.449663922     0.289883311  0.289883311  0.289883311


 FORCES acting on ions
    electron-ion (+dipol)            ewald-force                    non-local-force                 convergence-correction
 -----------------------------------------------------------------------------------------------
   -.618E-14 -.132E-13 -.197E-13   -.781E-14 -.174E-14 -.274E-14   0.106E-21 0.307E-22 -.192E-21   -.357E-14 -.166E-13 0.399E-13
   0.128E-12 0.157E-11 0.169E-11   0.930E-14 0.202E-14 0.205E-14   0.634E-22 0.207E-22 0.232E-22   -.543E-14 -.596E-13 -.354E-13
 -----------------------------------------------------------------------------------------------
   0.122E-12 0.155E-11 0.167E-11   0.149E-14 0.279E-15 -.697E-15   0.169E-21 0.515E-22 -.169E-21   -.900E-14 -.762E-13 0.452E-14


 POSITION                                       TOTAL-FORCE (eV/Angst)
 -----------------------------------------------------------------------------------
      0.00000      0.00000      0.00000        -0.000000      0.000000      0.000000
      1.72483      1.72483      1.72483         0.000000     -0.000000     -0.000000
 -----------------------------------------------------------------------------------
    total drift:                                0.000000      0.000000      0.000000


--------------------------------------------------------------------------------------------------------



  FREE ENERGIE OF THE ION-ELECTRON SYSTEM (eV)
  ---------------------------------------------------
  free  energy   TOTEN  =       -19.97079698 eV

  energy  without entropy=      -19.97079698  energy(sigma->0) =      -19.97079698



--------------------------------------------------------------------------------------------------------


    POTLOK:  cpu time      2.7429: real time      0.3744


--------------------------------------------------------------------------------------------------------


     LOOP+:  cpu time   1941.8029: real time    108.3709
 -----------------------------------------------------------------------------
|                                                                             |
|           W    W    AA    RRRRR   N    N  II  N    N   GGGG   !!!           |
|           W    W   A  A   R    R  NN   N  II  NN   N  G    G  !!!           |
|           W    W  A    A  R    R  N N  N  II  N N  N  G       !!!           |
|           W WW W  AAAAAA  RRRRR   N  N N  II  N  N N  G  GGG   !            |
|           WW  WW  A    A  R   R   N   NN  II  N   NN  G    G                |
|           W    W  A    A  R    R  N    N  II  N    N   GGGG   !!!           |
|                                                                             |
|     Tetrahedron method does not include variations of the Fermi             |
|     occupations, so forces and stress will be inaccurate. We suggest        |
|     using a different smearing scheme ISMEAR = 1 or 2 for metals in         |
|     relaxations.                                                            |
|                                                                             |
 -----------------------------------------------------------------------------

    4ORBIT:  cpu time      0.0000: real time      0.0000



 total charge

# of ion       s       p       d       tot
------------------------------------------
    1        0.382   6.249   2.905   9.536
    2        0.382   6.249   2.905   9.536
--------------------------------------------------
tot          0.764  12.498   5.810  19.073



 magnetization (x)

# of ion       s       p       d       tot
------------------------------------------
    1       -0.000  -0.000  -0.001  -0.001
    2       -0.000  -0.000  -0.001  -0.001
--------------------------------------------------
tot         -0.000  -0.000  -0.001  -0.002

 BZINTS: Fermi energy:    3.991530;   22.000000 electrons
         Band energy:-0.294004E+03;  BLOECHL correction:   -0.181022

 total amount of memory used by VASP MPI-rank0    68726. kBytes
=======================================================================

   base      :      30000. kBytes
   nonlr-proj:       5644. kBytes
   fftplans  :       6192. kBytes
   grid      :      14776. kBytes
   one-center:         62. kBytes
   wavefun   :      12052. kBytes

  
  
 General timing and accounting informations for this job:
 ========================================================
  
                  Total CPU time used (sec):     1961.506
                            User time (sec):     1894.273
                          System time (sec):       67.233
                         Elapsed time (sec):      109.862
  
                   Maximum memory used (kb):      299056.
                   Average memory used (kb):          N/A
  
                          Minor page faults:      2244792
                          Major page faults:          102
                 Voluntary context switches:       775067
