  16  16   1   0
  0.1809287E+02  0.4070503E-09  0.4070503E-09  0.1747155E-08  0.5000000E-15
  1.000000000000000E-004
  CAR 
 unknown system                          
     10.35935145     -4.00453717  301      6.38611609      1.00000000
     -4.005  0.0000E+00  0.0000E+00  0.0000E+00  0.0000E+00
     -3.957  0.0000E+00  0.0000E+00  0.0000E+00  0.0000E+00
     -3.909  0.0000E+00  0.0000E+00  0.0000E+00  0.0000E+00
     -3.861  0.0000E+00  0.0000E+00  0.0000E+00  0.0000E+00
     -3.813  0.0000E+00  0.0000E+00  0.0000E+00  0.0000E+00
     -3.765  0.1024E-04  0.1055E-04  0.4902E-06  0.5049E-06
     -3.717  0.7184E-04  0.7403E-04  0.3930E-05  0.4050E-05
     -3.669  0.2318E-03  0.2390E-03  0.1503E-04  0.1549E-04
     -3.622  0.5635E-03  0.5809E-03  0.4201E-04  0.4330E-04
     -3.574  0.1444E-02  0.1489E-02  0.1112E-03  0.1146E-03
     -3.526  0.3839E-02  0.3955E-02  0.2950E-03  0.3039E-03
     -3.478  0.9757E-02  0.1005E-01  0.7622E-03  0.7849E-03
     -3.430  0.2388E-01  0.2455E-01  0.1905E-02  0.1960E-02
     -3.382  0.5480E-01  0.5616E-01  0.4529E-02  0.4649E-02
     -3.334  0.1116E+00  0.1139E+00  0.9874E-02  0.1010E-01
     -3.286  0.1924E+00  0.1951E+00  0.1909E-01  0.1944E-01
     -3.238  0.2761E+00  0.2784E+00  0.3231E-01  0.3277E-01
     -3.191  0.3455E+00  0.3472E+00  0.4885E-01  0.4939E-01
     -3.143  0.4178E+00  0.4197E+00  0.6885E-01  0.6949E-01
     -3.095  0.5108E+00  0.5126E+00  0.9331E-01  0.9403E-01
     -3.047  0.5816E+00  0.5807E+00  0.1212E+00  0.1218E+00
     -2.999  0.5870E+00  0.5829E+00  0.1493E+00  0.1497E+00
     -2.951  0.5872E+00  0.5839E+00  0.1774E+00  0.1777E+00
     -2.903  0.6518E+00  0.6530E+00  0.2086E+00  0.2090E+00
     -2.855  0.7304E+00  0.7367E+00  0.2436E+00  0.2442E+00
     -2.808  0.7598E+00  0.7682E+00  0.2800E+00  0.2810E+00
     -2.760  0.7659E+00  0.7746E+00  0.3166E+00  0.3181E+00
     -2.712  0.7847E+00  0.7948E+00  0.3542E+00  0.3562E+00
     -2.664  0.8121E+00  0.8232E+00  0.3931E+00  0.3956E+00
     -2.616  0.8204E+00  0.8294E+00  0.4324E+00  0.4354E+00
     -2.568  0.8029E+00  0.8133E+00  0.4709E+00  0.4743E+00
     -2.520  0.8337E+00  0.8488E+00  0.5108E+00  0.5150E+00
     -2.472  0.9547E+00  0.9693E+00  0.5566E+00  0.5614E+00
     -2.425  0.1062E+01  0.1074E+01  0.6074E+00  0.6129E+00
     -2.377  0.1080E+01  0.1093E+01  0.6591E+00  0.6652E+00
     -2.329  0.1087E+01  0.1104E+01  0.7112E+00  0.7181E+00
     -2.281  0.1143E+01  0.1159E+01  0.7660E+00  0.7736E+00
     -2.233  0.1152E+01  0.1149E+01  0.8211E+00  0.8286E+00
     -2.185  0.1043E+01  0.1022E+01  0.8711E+00  0.8775E+00
     -2.137  0.9565E+00  0.9552E+00  0.9169E+00  0.9233E+00
     -2.089  0.1034E+01  0.1068E+01  0.9664E+00  0.9744E+00
     -2.041  0.1218E+01  0.1264E+01  0.1025E+01  0.1035E+01
     -1.994  0.1381E+01  0.1413E+01  0.1091E+01  0.1103E+01
     -1.946  0.1431E+01  0.1444E+01  0.1160E+01  0.1172E+01
     -1.898  0.1413E+01  0.1429E+01  0.1227E+01  0.1240E+01
     -1.850  0.1447E+01  0.1468E+01  0.1297E+01  0.1311E+01
     -1.802  0.1467E+01  0.1462E+01  0.1367E+01  0.1381E+01
     -1.754  0.1374E+01  0.1354E+01  0.1433E+01  0.1445E+01
     -1.706  0.1319E+01  0.1325E+01  0.1496E+01  0.1509E+01
     -1.658  0.1402E+01  0.1436E+01  0.1563E+01  0.1578E+01
     -1.611  0.1506E+01  0.1546E+01  0.1635E+01  0.1652E+01
     -1.563  0.1573E+01  0.1605E+01  0.1711E+01  0.1729E+01
     -1.515  0.1626E+01  0.1648E+01  0.1788E+01  0.1807E+01
     -1.467  0.1656E+01  0.1663E+01  0.1868E+01  0.1887E+01
     -1.419  0.1635E+01  0.1620E+01  0.1946E+01  0.1965E+01
     -1.371  0.1582E+01  0.1568E+01  0.2022E+01  0.2040E+01
     -1.323  0.1582E+01  0.1600E+01  0.2098E+01  0.2117E+01
     -1.275  0.1679E+01  0.1718E+01  0.2178E+01  0.2199E+01
     -1.228  0.1778E+01  0.1795E+01  0.2263E+01  0.2285E+01
     -1.180  0.1744E+01  0.1718E+01  0.2347E+01  0.2367E+01
     -1.132  0.1588E+01  0.1548E+01  0.2423E+01  0.2441E+01
     -1.084  0.1455E+01  0.1427E+01  0.2492E+01  0.2510E+01
     -1.036  0.1352E+01  0.1324E+01  0.2557E+01  0.2573E+01
     -0.988  0.1244E+01  0.1218E+01  0.2617E+01  0.2631E+01
     -0.940  0.1207E+01  0.1212E+01  0.2675E+01  0.2690E+01
     -0.892  0.1287E+01  0.1335E+01  0.2736E+01  0.2753E+01
     -0.844  0.1458E+01  0.1521E+01  0.2806E+01  0.2826E+01
     -0.797  0.1626E+01  0.1644E+01  0.2884E+01  0.2905E+01
     -0.749  0.1657E+01  0.1612E+01  0.2963E+01  0.2982E+01
     -0.701  0.1563E+01  0.1515E+01  0.3038E+01  0.3055E+01
     -0.653  0.1504E+01  0.1480E+01  0.3110E+01  0.3126E+01
     -0.605  0.1527E+01  0.1494E+01  0.3184E+01  0.3197E+01
     -0.557  0.1582E+01  0.1533E+01  0.3259E+01  0.3271E+01
     -0.509  0.1656E+01  0.1618E+01  0.3339E+01  0.3348E+01
     -0.461  0.1753E+01  0.1739E+01  0.3423E+01  0.3432E+01
     -0.414  0.1862E+01  0.1843E+01  0.3512E+01  0.3520E+01
     -0.366  0.1910E+01  0.1869E+01  0.3603E+01  0.3609E+01
     -0.318  0.1832E+01  0.1802E+01  0.3691E+01  0.3696E+01
     -0.270  0.1692E+01  0.1699E+01  0.3772E+01  0.3777E+01
     -0.222  0.1660E+01  0.1691E+01  0.3852E+01  0.3858E+01
     -0.174  0.1766E+01  0.1795E+01  0.3936E+01  0.3944E+01
     -0.126  0.1867E+01  0.1875E+01  0.4026E+01  0.4034E+01
     -0.078  0.1873E+01  0.1865E+01  0.4115E+01  0.4123E+01
     -0.031  0.1849E+01  0.1835E+01  0.4204E+01  0.4211E+01
      0.017  0.1916E+01  0.1915E+01  0.4296E+01  0.4303E+01
      0.065  0.2068E+01  0.2083E+01  0.4395E+01  0.4403E+01
      0.113  0.2198E+01  0.2224E+01  0.4500E+01  0.4509E+01
      0.161  0.2313E+01  0.2340E+01  0.4611E+01  0.4621E+01
      0.209  0.2395E+01  0.2394E+01  0.4726E+01  0.4736E+01
      0.257  0.2380E+01  0.2353E+01  0.4840E+01  0.4849E+01
      0.305  0.2326E+01  0.2310E+01  0.4951E+01  0.4959E+01
      0.353  0.2303E+01  0.2282E+01  0.5061E+01  0.5069E+01
      0.400  0.2230E+01  0.2171E+01  0.5168E+01  0.5173E+01
      0.448  0.2094E+01  0.2027E+01  0.5269E+01  0.5270E+01
      0.496  0.2056E+01  0.2033E+01  0.5367E+01  0.5367E+01
      0.544  0.2122E+01  0.2136E+01  0.5469E+01  0.5469E+01
      0.592  0.2081E+01  0.2092E+01  0.5568E+01  0.5570E+01
      0.640  0.1917E+01  0.1931E+01  0.5660E+01  0.5662E+01
      0.688  0.1866E+01  0.1897E+01  0.5750E+01  0.5753E+01
      0.736  0.1990E+01  0.2005E+01  0.5845E+01  0.5849E+01
      0.783  0.2090E+01  0.2056E+01  0.5945E+01  0.5948E+01
      0.831  0.2075E+01  0.2017E+01  0.6044E+01  0.6044E+01
      0.879  0.2019E+01  0.1966E+01  0.6141E+01  0.6138E+01
      0.927  0.1945E+01  0.1893E+01  0.6234E+01  0.6229E+01
      0.975  0.1890E+01  0.1836E+01  0.6325E+01  0.6317E+01
      1.023  0.1979E+01  0.1893E+01  0.6420E+01  0.6408E+01
      1.071  0.2320E+01  0.2166E+01  0.6531E+01  0.6511E+01
      1.119  0.2748E+01  0.2583E+01  0.6662E+01  0.6635E+01
      1.166  0.2957E+01  0.2880E+01  0.6804E+01  0.6773E+01
      1.214  0.2880E+01  0.2894E+01  0.6942E+01  0.6912E+01
      1.262  0.2645E+01  0.2698E+01  0.7069E+01  0.7041E+01
      1.310  0.2362E+01  0.2420E+01  0.7182E+01  0.7157E+01
      1.358  0.2101E+01  0.2138E+01  0.7283E+01  0.7259E+01
      1.406  0.1955E+01  0.1958E+01  0.7376E+01  0.7353E+01
      1.454  0.1970E+01  0.1938E+01  0.7471E+01  0.7446E+01
      1.502  0.2131E+01  0.2082E+01  0.7573E+01  0.7546E+01
      1.549  0.2392E+01  0.2353E+01  0.7687E+01  0.7659E+01
      1.597  0.2637E+01  0.2620E+01  0.7814E+01  0.7784E+01
      1.645  0.2787E+01  0.2775E+01  0.7947E+01  0.7917E+01
      1.693  0.2849E+01  0.2829E+01  0.8084E+01  0.8053E+01
      1.741  0.2837E+01  0.2818E+01  0.8220E+01  0.8188E+01
      1.789  0.2781E+01  0.2767E+01  0.8353E+01  0.8320E+01
      1.837  0.2765E+01  0.2708E+01  0.8485E+01  0.8450E+01
      1.885  0.2953E+01  0.2801E+01  0.8627E+01  0.8584E+01
      1.933  0.3248E+01  0.3082E+01  0.8782E+01  0.8732E+01
      1.980  0.3314E+01  0.3252E+01  0.8941E+01  0.8887E+01
      2.028  0.3126E+01  0.3129E+01  0.9091E+01  0.9037E+01
      2.076  0.2909E+01  0.2887E+01  0.9230E+01  0.9176E+01
      2.124  0.2708E+01  0.2664E+01  0.9360E+01  0.9303E+01
      2.172  0.2465E+01  0.2437E+01  0.9478E+01  0.9420E+01
      2.220  0.2196E+01  0.2215E+01  0.9583E+01  0.9526E+01
      2.268  0.2032E+01  0.2037E+01  0.9680E+01  0.9624E+01
      2.316  0.2081E+01  0.1999E+01  0.9780E+01  0.9720E+01
      2.363  0.2236E+01  0.2137E+01  0.9887E+01  0.9822E+01
      2.411  0.2356E+01  0.2310E+01  0.1000E+02  0.9933E+01
      2.459  0.2394E+01  0.2379E+01  0.1012E+02  0.1005E+02
      2.507  0.2377E+01  0.2328E+01  0.1023E+02  0.1016E+02
      2.555  0.2409E+01  0.2275E+01  0.1034E+02  0.1027E+02
      2.603  0.2523E+01  0.2339E+01  0.1047E+02  0.1038E+02
      2.651  0.2630E+01  0.2467E+01  0.1059E+02  0.1050E+02
      2.699  0.2683E+01  0.2540E+01  0.1072E+02  0.1062E+02
      2.746  0.2760E+01  0.2597E+01  0.1085E+02  0.1074E+02
      2.794  0.2911E+01  0.2724E+01  0.1099E+02  0.1087E+02
      2.842  0.3030E+01  0.2908E+01  0.1114E+02  0.1101E+02
      2.890  0.3003E+01  0.3038E+01  0.1128E+02  0.1116E+02
      2.938  0.2871E+01  0.2998E+01  0.1142E+02  0.1130E+02
      2.986  0.2812E+01  0.2839E+01  0.1155E+02  0.1144E+02
      3.034  0.2959E+01  0.2747E+01  0.1169E+02  0.1157E+02
      3.082  0.3238E+01  0.2828E+01  0.1185E+02  0.1171E+02
      3.130  0.3442E+01  0.3058E+01  0.1201E+02  0.1185E+02
      3.177  0.3507E+01  0.3286E+01  0.1218E+02  0.1201E+02
      3.225  0.3529E+01  0.3404E+01  0.1235E+02  0.1217E+02
      3.273  0.3526E+01  0.3466E+01  0.1252E+02  0.1234E+02
      3.321  0.3472E+01  0.3496E+01  0.1269E+02  0.1251E+02
      3.369  0.3396E+01  0.3463E+01  0.1285E+02  0.1267E+02
      3.417  0.3427E+01  0.3349E+01  0.1301E+02  0.1283E+02
      3.465  0.3660E+01  0.3223E+01  0.1319E+02  0.1299E+02
      3.513  0.3976E+01  0.3288E+01  0.1338E+02  0.1314E+02
      3.560  0.4149E+01  0.3668E+01  0.1358E+02  0.1332E+02
      3.608  0.4067E+01  0.4025E+01  0.1377E+02  0.1351E+02
      3.656  0.3844E+01  0.3982E+01  0.1396E+02  0.1370E+02
      3.704  0.3735E+01  0.3692E+01  0.1414E+02  0.1388E+02
      3.752  0.3898E+01  0.3528E+01  0.1432E+02  0.1405E+02
      3.800  0.4307E+01  0.3620E+01  0.1453E+02  0.1422E+02
      3.848  0.4674E+01  0.3884E+01  0.1475E+02  0.1441E+02
      3.896  0.4715E+01  0.4189E+01  0.1498E+02  0.1461E+02
      3.943  0.4553E+01  0.4360E+01  0.1520E+02  0.1482E+02
      3.991  0.4539E+01  0.4289E+01  0.1541E+02  0.1502E+02
      4.039  0.4689E+01  0.4170E+01  0.1564E+02  0.1522E+02
      4.087  0.4754E+01  0.4281E+01  0.1587E+02  0.1543E+02
      4.135  0.4696E+01  0.4467E+01  0.1609E+02  0.1564E+02
      4.183  0.4554E+01  0.4474E+01  0.1631E+02  0.1586E+02
      4.231  0.4382E+01  0.4340E+01  0.1652E+02  0.1606E+02
      4.279  0.4255E+01  0.4172E+01  0.1672E+02  0.1626E+02
      4.327  0.4269E+01  0.4021E+01  0.1693E+02  0.1646E+02
      4.374  0.4564E+01  0.3845E+01  0.1715E+02  0.1664E+02
      4.422  0.4930E+01  0.3701E+01  0.1738E+02  0.1682E+02
      4.470  0.4972E+01  0.3842E+01  0.1762E+02  0.1700E+02
      4.518  0.4835E+01  0.4228E+01  0.1785E+02  0.1721E+02
      4.566  0.4987E+01  0.4552E+01  0.1809E+02  0.1742E+02
      4.614  0.5511E+01  0.4649E+01  0.1836E+02  0.1765E+02
      4.662  0.6219E+01  0.4632E+01  0.1865E+02  0.1787E+02
      4.710  0.6899E+01  0.4719E+01  0.1898E+02  0.1809E+02
      4.757  0.7313E+01  0.5027E+01  0.1933E+02  0.1834E+02
      4.805  0.7480E+01  0.5520E+01  0.1969E+02  0.1860E+02
      4.853  0.7691E+01  0.6055E+01  0.2006E+02  0.1889E+02
      4.901  0.8129E+01  0.6392E+01  0.2045E+02  0.1920E+02
      4.949  0.8530E+01  0.6520E+01  0.2086E+02  0.1951E+02
      4.997  0.8331E+01  0.6625E+01  0.2126E+02  0.1983E+02
      5.045  0.7549E+01  0.6763E+01  0.2162E+02  0.2015E+02
      5.093  0.6740E+01  0.6902E+01  0.2194E+02  0.2048E+02
      5.140  0.6221E+01  0.7020E+01  0.2224E+02  0.2082E+02
      5.188  0.6036E+01  0.6975E+01  0.2253E+02  0.2115E+02
      5.236  0.6153E+01  0.6512E+01  0.2282E+02  0.2146E+02
      5.284  0.6453E+01  0.5835E+01  0.2313E+02  0.2174E+02
      5.332  0.6774E+01  0.5414E+01  0.2346E+02  0.2200E+02
      5.380  0.6890E+01  0.5359E+01  0.2379E+02  0.2226E+02
      5.428  0.6700E+01  0.5528E+01  0.2411E+02  0.2252E+02
      5.476  0.6345E+01  0.5822E+01  0.2441E+02  0.2280E+02
      5.524  0.5829E+01  0.6071E+01  0.2469E+02  0.2309E+02
      5.571  0.5101E+01  0.6102E+01  0.2494E+02  0.2338E+02
      5.619  0.4441E+01  0.5877E+01  0.2515E+02  0.2367E+02
      5.667  0.4160E+01  0.5572E+01  0.2535E+02  0.2393E+02
      5.715  0.4183E+01  0.5473E+01  0.2555E+02  0.2420E+02
      5.763  0.4287E+01  0.5398E+01  0.2575E+02  0.2445E+02
      5.811  0.4396E+01  0.5007E+01  0.2597E+02  0.2469E+02
      5.859  0.4442E+01  0.4377E+01  0.2618E+02  0.2490E+02
      5.907  0.4367E+01  0.3803E+01  0.2639E+02  0.2509E+02
      5.954  0.4297E+01  0.3496E+01  0.2659E+02  0.2525E+02
      6.002  0.4336E+01  0.3532E+01  0.2680E+02  0.2542E+02
      6.050  0.4542E+01  0.3723E+01  0.2702E+02  0.2560E+02
      6.098  0.4918E+01  0.3849E+01  0.2725E+02  0.2579E+02
      6.146  0.5345E+01  0.3924E+01  0.2751E+02  0.2597E+02
      6.194  0.5723E+01  0.3942E+01  0.2778E+02  0.2616E+02
      6.242  0.5973E+01  0.3888E+01  0.2807E+02  0.2635E+02
      6.290  0.6130E+01  0.3879E+01  0.2836E+02  0.2653E+02
      6.337  0.6555E+01  0.4087E+01  0.2868E+02  0.2673E+02
      6.385  0.7679E+01  0.4463E+01  0.2905E+02  0.2694E+02
      6.433  0.9610E+01  0.4800E+01  0.2951E+02  0.2717E+02
      6.481  0.1225E+02  0.4992E+01  0.3009E+02  0.2741E+02
      6.529  0.1499E+02  0.5063E+01  0.3081E+02  0.2766E+02
      6.577  0.1668E+02  0.5161E+01  0.3161E+02  0.2790E+02
      6.625  0.1635E+02  0.5286E+01  0.3239E+02  0.2816E+02
      6.673  0.1419E+02  0.5424E+01  0.3307E+02  0.2842E+02
      6.720  0.1138E+02  0.5848E+01  0.3362E+02  0.2870E+02
      6.768  0.8939E+01  0.6673E+01  0.3404E+02  0.2902E+02
      6.816  0.7221E+01  0.7684E+01  0.3439E+02  0.2938E+02
      6.864  0.6097E+01  0.8800E+01  0.3468E+02  0.2981E+02
      6.912  0.5205E+01  0.1021E+02  0.3493E+02  0.3029E+02
      6.960  0.4462E+01  0.1201E+02  0.3515E+02  0.3087E+02
      7.008  0.3984E+01  0.1405E+02  0.3534E+02  0.3154E+02
      7.056  0.3754E+01  0.1581E+02  0.3552E+02  0.3230E+02
      7.104  0.3682E+01  0.1630E+02  0.3569E+02  0.3308E+02
      7.151  0.3700E+01  0.1493E+02  0.3587E+02  0.3380E+02
      7.199  0.3733E+01  0.1235E+02  0.3605E+02  0.3439E+02
      7.247  0.3754E+01  0.9567E+01  0.3623E+02  0.3484E+02
      7.295  0.3856E+01  0.7202E+01  0.3642E+02  0.3519E+02
      7.343  0.4173E+01  0.5682E+01  0.3662E+02  0.3546E+02
      7.391  0.4779E+01  0.4980E+01  0.3684E+02  0.3570E+02
      7.439  0.5550E+01  0.4728E+01  0.3711E+02  0.3593E+02
      7.487  0.6091E+01  0.4568E+01  0.3740E+02  0.3615E+02
      7.534  0.6287E+01  0.4354E+01  0.3770E+02  0.3636E+02
      7.582  0.6440E+01  0.4197E+01  0.3801E+02  0.3656E+02
      7.630  0.6783E+01  0.4281E+01  0.3834E+02  0.3676E+02
      7.678  0.7105E+01  0.4729E+01  0.3868E+02  0.3699E+02
      7.726  0.6934E+01  0.5440E+01  0.3901E+02  0.3725E+02
      7.774  0.6362E+01  0.6148E+01  0.3931E+02  0.3754E+02
      7.822  0.5745E+01  0.6655E+01  0.3959E+02  0.3786E+02
      7.870  0.5119E+01  0.7025E+01  0.3983E+02  0.3820E+02
      7.917  0.4535E+01  0.7298E+01  0.4005E+02  0.3855E+02
      7.965  0.4110E+01  0.7433E+01  0.4025E+02  0.3891E+02
      8.013  0.3829E+01  0.7382E+01  0.4043E+02  0.3926E+02
      8.061  0.3657E+01  0.6946E+01  0.4061E+02  0.3959E+02
      8.109  0.3653E+01  0.6109E+01  0.4078E+02  0.3988E+02
      8.157  0.3767E+01  0.5347E+01  0.4096E+02  0.4014E+02
      8.205  0.3787E+01  0.4992E+01  0.4114E+02  0.4038E+02
      8.253  0.3704E+01  0.4934E+01  0.4132E+02  0.4062E+02
      8.301  0.3650E+01  0.4993E+01  0.4150E+02  0.4086E+02
      8.348  0.3664E+01  0.4967E+01  0.4167E+02  0.4109E+02
      8.396  0.3668E+01  0.4787E+01  0.4185E+02  0.4132E+02
      8.444  0.3540E+01  0.4610E+01  0.4202E+02  0.4154E+02
      8.492  0.3357E+01  0.4521E+01  0.4218E+02  0.4176E+02
      8.540  0.3291E+01  0.4320E+01  0.4234E+02  0.4197E+02
      8.588  0.3251E+01  0.3856E+01  0.4249E+02  0.4215E+02
      8.636  0.3029E+01  0.3374E+01  0.4264E+02  0.4231E+02
      8.684  0.2776E+01  0.3182E+01  0.4277E+02  0.4247E+02
      8.731  0.2706E+01  0.3273E+01  0.4290E+02  0.4262E+02
      8.779  0.2614E+01  0.3406E+01  0.4302E+02  0.4279E+02
      8.827  0.2289E+01  0.3426E+01  0.4313E+02  0.4295E+02
      8.875  0.1877E+01  0.3274E+01  0.4322E+02  0.4311E+02
      8.923  0.1576E+01  0.2906E+01  0.4330E+02  0.4325E+02
      8.971  0.1471E+01  0.2457E+01  0.4337E+02  0.4336E+02
      9.019  0.1490E+01  0.2154E+01  0.4344E+02  0.4347E+02
      9.067  0.1462E+01  0.2039E+01  0.4351E+02  0.4356E+02
      9.114  0.1367E+01  0.1966E+01  0.4358E+02  0.4366E+02
      9.162  0.1240E+01  0.1732E+01  0.4364E+02  0.4374E+02
      9.210  0.1033E+01  0.1344E+01  0.4369E+02  0.4381E+02
      9.258  0.7520E+00  0.9986E+00  0.4372E+02  0.4385E+02
      9.306  0.5564E+00  0.7693E+00  0.4375E+02  0.4389E+02
      9.354  0.5663E+00  0.6091E+00  0.4378E+02  0.4392E+02
      9.402  0.7366E+00  0.4583E+00  0.4381E+02  0.4394E+02
      9.450  0.8868E+00  0.3273E+00  0.4385E+02  0.4396E+02
      9.498  0.8741E+00  0.2459E+00  0.4390E+02  0.4397E+02
      9.545  0.7390E+00  0.1926E+00  0.4393E+02  0.4398E+02
      9.593  0.5651E+00  0.1522E+00  0.4396E+02  0.4399E+02
      9.641  0.3856E+00  0.1194E+00  0.4398E+02  0.4399E+02
      9.689  0.2332E+00  0.8111E-01  0.4399E+02  0.4400E+02
      9.737  0.1311E+00  0.4324E-01  0.4399E+02  0.4400E+02
      9.785  0.6789E-01  0.1921E-01  0.4400E+02  0.4400E+02
      9.833  0.3107E-01  0.7845E-02  0.4400E+02  0.4400E+02
      9.881  0.1249E-01  0.3093E-02  0.4400E+02  0.4400E+02
      9.928  0.4996E-02  0.1066E-02  0.4400E+02  0.4400E+02
      9.976  0.1716E-02  0.4112E-03  0.4400E+02  0.4400E+02
     10.024  0.4569E-03  0.0000E+00  0.4400E+02  0.4400E+02
     10.072  0.1761E-03  0.0000E+00  0.4400E+02  0.4400E+02
     10.120  0.0000E+00  0.0000E+00  0.4400E+02  0.4400E+02
     10.168  0.0000E+00  0.0000E+00  0.4400E+02  0.4400E+02
     10.216  0.0000E+00  0.0000E+00  0.4400E+02  0.4400E+02
     10.264  0.0000E+00  0.0000E+00  0.4400E+02  0.4400E+02
     10.311  0.0000E+00  0.0000E+00  0.4400E+02  0.4400E+02
     10.359  0.0000E+00  0.0000E+00  0.4400E+02  0.4400E+02
     10.35935145     -4.00453717  301      6.38611609      1.00000000
     -4.005  0.0000E+00  0.0000E+00  0.0000E+00  0.0000E+00  0.0000E+00  0.0000E+00  0.0000E+00  0.0000E+00  0.0000E+00  0.0000E+00  0.0000E+00  0.0000E+00  0.0000E+00  0.0000E+00  0.0000E+00  0.0000E+00  0.0000E+00  0.0000E+00
     -3.957  0.0000E+00  0.0000E+00  0.0000E+00  0.0000E+00  0.0000E+00  0.0000E+00  0.0000E+00  0.0000E+00  0.0000E+00  0.0000E+00  0.0000E+00  0.0000E+00  0.0000E+00  0.0000E+00  0.0000E+00  0.0000E+00  0.0000E+00  0.0000E+00
     -3.909  0.0000E+00  0.0000E+00  0.0000E+00  0.0000E+00  0.0000E+00  0.0000E+00  0.0000E+00  0.0000E+00  0.0000E+00  0.0000E+00  0.0000E+00  0.0000E+00  0.0000E+00  0.0000E+00  0.0000E+00  0.0000E+00  0.0000E+00  0.0000E+00
     -3.861  0.0000E+00  0.0000E+00  0.0000E+00  0.0000E+00  0.0000E+00  0.0000E+00  0.0000E+00  0.0000E+00  0.0000E+00  0.0000E+00  0.0000E+00  0.0000E+00  0.0000E+00  0.0000E+00  0.0000E+00  0.0000E+00  0.0000E+00  0.0000E+00
     -3.813  0.0000E+00  0.0000E+00  0.0000E+00  0.0000E+00  0.0000E+00  0.0000E+00  0.0000E+00  0.0000E+00  0.0000E+00  0.0000E+00  0.0000E+00  0.0000E+00  0.0000E+00  0.0000E+00  0.0000E+00  0.0000E+00  0.0000E+00  0.0000E+00
     -3.765  0.2299E-06  0.2274E-06  0.8884E-20  0.1351E-19  0.8126E-09  0.6216E-09  0.8884E-20  0.1351E-19  0.1192E-19  0.1977E-18  0.4981E-16  0.1730E-15  0.5481E-11  0.8121E-12  0.4981E-16  0.1730E-15  0.1751E-16  0.6571E-17
     -3.717  0.1596E-05  0.1580E-05  0.3967E-08  0.4024E-08  0.1044E-07  0.9085E-08  0.3967E-08  0.4024E-08  0.5542E-18  0.2479E-17  0.3184E-10  0.2556E-10  0.5745E-10  0.2449E-10  0.3184E-10  0.2556E-10  0.1483E-10  0.1409E-10
     -3.669  0.5117E-05  0.5065E-05  0.2062E-07  0.2091E-07  0.4296E-07  0.3856E-07  0.2062E-07  0.2091E-07  0.1158E-09  0.1152E-09  0.2920E-09  0.2535E-09  0.1914E-09  0.8513E-10  0.2920E-09  0.2535E-09  0.5062E-10  0.4798E-10
     -3.622  0.1243E-04  0.1230E-04  0.5228E-07  0.5300E-07  0.1069E-06  0.9622E-07  0.5228E-07  0.5300E-07  0.3984E-09  0.3956E-09  0.8509E-09  0.7478E-09  0.4461E-09  0.1895E-09  0.8509E-09  0.7478E-09  0.1050E-09  0.9953E-10
     -3.574  0.3185E-04  0.3152E-04  0.1347E-06  0.1366E-06  0.2772E-06  0.2493E-06  0.1347E-06  0.1366E-06  0.8246E-09  0.8193E-09  0.1981E-08  0.1725E-08  0.1358E-08  0.6888E-09  0.1981E-08  0.1725E-08  0.4443E-09  0.4205E-09
     -3.526  0.8451E-04  0.8359E-04  0.3903E-06  0.3960E-06  0.7800E-06  0.7049E-06  0.3903E-06  0.3960E-06  0.2838E-08  0.2824E-08  0.6309E-08  0.5528E-08  0.3990E-08  0.2203E-08  0.6309E-08  0.5528E-08  0.1487E-08  0.1406E-08
     -3.478  0.2147E-03  0.2122E-03  0.1012E-05  0.1026E-05  0.2005E-05  0.1813E-05  0.1012E-05  0.1026E-05  0.8129E-08  0.8083E-08  0.1720E-07  0.1513E-07  0.1000E-07  0.5469E-08  0.1720E-07  0.1513E-07  0.3653E-08  0.3454E-08
     -3.430  0.5253E-03  0.5184E-03  0.2513E-05  0.2547E-05  0.4948E-05  0.4475E-05  0.2513E-05  0.2547E-05  0.1950E-07  0.1939E-07  0.4191E-07  0.3680E-07  0.2456E-07  0.1345E-07  0.4191E-07  0.3680E-07  0.9002E-08  0.8507E-08
     -3.382  0.1204E-02  0.1184E-02  0.6155E-05  0.6226E-05  0.1185E-04  0.1074E-04  0.6155E-05  0.6226E-05  0.4942E-07  0.4908E-07  0.1045E-06  0.9176E-07  0.5879E-07  0.3317E-07  0.1045E-06  0.9176E-07  0.2226E-07  0.2101E-07
     -3.334  0.2445E-02  0.2394E-02  0.1407E-04  0.1419E-04  0.2611E-04  0.2371E-04  0.1407E-04  0.1419E-04  0.1231E-06  0.1221E-06  0.2515E-06  0.2210E-06  0.1301E-06  0.7740E-07  0.2515E-06  0.2210E-06  0.5267E-07  0.4955E-07
     -3.286  0.4196E-02  0.4084E-02  0.2846E-04  0.2856E-04  0.5032E-04  0.4586E-04  0.2846E-04  0.2856E-04  0.2831E-06  0.2796E-06  0.5485E-06  0.4826E-06  0.2566E-06  0.1640E-06  0.5485E-06  0.4826E-06  0.1157E-06  0.1085E-06
     -3.238  0.5981E-02  0.5787E-02  0.4969E-04  0.4967E-04  0.8370E-04  0.7660E-04  0.4969E-04  0.4967E-04  0.5641E-06  0.5550E-06  0.1040E-05  0.9153E-06  0.4636E-06  0.3258E-06  0.1040E-05  0.9153E-06  0.2411E-06  0.2258E-06
     -3.191  0.7411E-02  0.7144E-02  0.7824E-04  0.7806E-04  0.1265E-03  0.1164E-03  0.7824E-04  0.7806E-04  0.1021E-05  0.1002E-05  0.1806E-05  0.1593E-05  0.8123E-06  0.6285E-06  0.1806E-05  0.1593E-05  0.4846E-06  0.4527E-06
     -3.143  0.8847E-02  0.8525E-02  0.1188E-03  0.1184E-03  0.1856E-03  0.1719E-03  0.1188E-03  0.1184E-03  0.1778E-05  0.1745E-05  0.3037E-05  0.2687E-05  0.1380E-05  0.1134E-05  0.3037E-05  0.2687E-05  0.9012E-06  0.8369E-06
     -3.095  0.1069E-01  0.1029E-01  0.1728E-03  0.1717E-03  0.2629E-03  0.2442E-03  0.1728E-03  0.1717E-03  0.3025E-05  0.2959E-05  0.4935E-05  0.4377E-05  0.2107E-05  0.1771E-05  0.4935E-05  0.4377E-05  0.1426E-05  0.1314E-05
     -3.047  0.1205E-01  0.1154E-01  0.2221E-03  0.2193E-03  0.3357E-03  0.3108E-03  0.2221E-03  0.2193E-03  0.4614E-05  0.4487E-05  0.7212E-05  0.6396E-05  0.2756E-05  0.2341E-05  0.7212E-05  0.6396E-05  0.1860E-05  0.1702E-05
     -2.999  0.1201E-01  0.1144E-01  0.2509E-03  0.2469E-03  0.3884E-03  0.3580E-03  0.2509E-03  0.2469E-03  0.6186E-05  0.5998E-05  0.9472E-05  0.8399E-05  0.3344E-05  0.2911E-05  0.9472E-05  0.8399E-05  0.2223E-05  0.2036E-05
     -2.951  0.1181E-01  0.1126E-01  0.2892E-03  0.2858E-03  0.4557E-03  0.4219E-03  0.2892E-03  0.2858E-03  0.8300E-05  0.8065E-05  0.1262E-04  0.1123E-04  0.4358E-05  0.3933E-05  0.1262E-04  0.1123E-04  0.3013E-05  0.2784E-05
     -2.903  0.1289E-01  0.1237E-01  0.3738E-03  0.3709E-03  0.5519E-03  0.5185E-03  0.3738E-03  0.3709E-03  0.1166E-04  0.1132E-04  0.1742E-04  0.1556E-04  0.6065E-05  0.5569E-05  0.1742E-04  0.1556E-04  0.4764E-05  0.4422E-05
     -2.855  0.1427E-01  0.1379E-01  0.4795E-03  0.4754E-03  0.6132E-03  0.5870E-03  0.4795E-03  0.4754E-03  0.1529E-04  0.1479E-04  0.2220E-04  0.1985E-04  0.8005E-05  0.7313E-05  0.2220E-04  0.1985E-04  0.7367E-05  0.6809E-05
     -2.808  0.1469E-01  0.1422E-01  0.5589E-03  0.5512E-03  0.6250E-03  0.6080E-03  0.5589E-03  0.5512E-03  0.1849E-04  0.1782E-04  0.2616E-04  0.2337E-04  0.9652E-05  0.8700E-05  0.2616E-04  0.2337E-04  0.9828E-05  0.8970E-05
     -2.760  0.1461E-01  0.1414E-01  0.6048E-03  0.5945E-03  0.6738E-03  0.6618E-03  0.6048E-03  0.5945E-03  0.2273E-04  0.2196E-04  0.3163E-04  0.2842E-04  0.1094E-04  0.9866E-05  0.3163E-04  0.2842E-04  0.1091E-04  0.9871E-05
     -2.712  0.1475E-01  0.1429E-01  0.6457E-03  0.6368E-03  0.7748E-03  0.7645E-03  0.6457E-03  0.6368E-03  0.2959E-04  0.2869E-04  0.3916E-04  0.3568E-04  0.1220E-04  0.1105E-04  0.3916E-04  0.3568E-04  0.1097E-04  0.9912E-05
     -2.664  0.1507E-01  0.1459E-01  0.7112E-03  0.7056E-03  0.8418E-03  0.8308E-03  0.7112E-03  0.7056E-03  0.3887E-04  0.3768E-04  0.4636E-04  0.4272E-04  0.1365E-04  0.1216E-04  0.4636E-04  0.4272E-04  0.1160E-04  0.1057E-04
     -2.616  0.1504E-01  0.1451E-01  0.7769E-03  0.7699E-03  0.8522E-03  0.8406E-03  0.7769E-03  0.7699E-03  0.4673E-04  0.4489E-04  0.5182E-04  0.4770E-04  0.1508E-04  0.1324E-04  0.5182E-04  0.4770E-04  0.1323E-04  0.1213E-04
     -2.568  0.1448E-01  0.1398E-01  0.8072E-03  0.7987E-03  0.8854E-03  0.8837E-03  0.8072E-03  0.7987E-03  0.4873E-04  0.4649E-04  0.5676E-04  0.5206E-04  0.1722E-04  0.1549E-04  0.5676E-04  0.5206E-04  0.1598E-04  0.1472E-04
     -2.520  0.1471E-01  0.1425E-01  0.8814E-03  0.8760E-03  0.1028E-02  0.1038E-02  0.8814E-03  0.8760E-03  0.5051E-04  0.4856E-04  0.6579E-04  0.6039E-04  0.2251E-04  0.2087E-04  0.6579E-04  0.6039E-04  0.2168E-04  0.1999E-04
     -2.472  0.1651E-01  0.1593E-01  0.1069E-02  0.1064E-02  0.1263E-02  0.1268E-02  0.1069E-02  0.1064E-02  0.6132E-04  0.5952E-04  0.7980E-04  0.7333E-04  0.3190E-04  0.2941E-04  0.7980E-04  0.7333E-04  0.3040E-04  0.2788E-04
     -2.425  0.1809E-01  0.1738E-01  0.1253E-02  0.1245E-02  0.1446E-02  0.1443E-02  0.1253E-02  0.1245E-02  0.7866E-04  0.7644E-04  0.9070E-04  0.8419E-04  0.4154E-04  0.3740E-04  0.9070E-04  0.8419E-04  0.3731E-04  0.3390E-04
     -2.377  0.1812E-01  0.1742E-01  0.1330E-02  0.1322E-02  0.1511E-02  0.1504E-02  0.1330E-02  0.1322E-02  0.9595E-04  0.9286E-04  0.9788E-04  0.9219E-04  0.4647E-04  0.4088E-04  0.9788E-04  0.9219E-04  0.3895E-04  0.3525E-04
     -2.329  0.1795E-01  0.1730E-01  0.1394E-02  0.1387E-02  0.1581E-02  0.1581E-02  0.1394E-02  0.1387E-02  0.1131E-03  0.1089E-03  0.1142E-03  0.1083E-03  0.4726E-04  0.4140E-04  0.1142E-03  0.1083E-03  0.3943E-04  0.3582E-04
     -2.281  0.1856E-01  0.1786E-01  0.1506E-02  0.1493E-02  0.1755E-02  0.1760E-02  0.1506E-02  0.1493E-02  0.1294E-03  0.1243E-03  0.1410E-03  0.1332E-03  0.4828E-04  0.4262E-04  0.1410E-03  0.1332E-03  0.4216E-04  0.3819E-04
     -2.233  0.1841E-01  0.1741E-01  0.1531E-02  0.1499E-02  0.1891E-02  0.1855E-02  0.1531E-02  0.1499E-02  0.1376E-03  0.1317E-03  0.1601E-03  0.1482E-03  0.4838E-04  0.4236E-04  0.1601E-03  0.1482E-03  0.4241E-04  0.3776E-04
     -2.185  0.1636E-01  0.1516E-01  0.1413E-02  0.1371E-02  0.1823E-02  0.1745E-02  0.1413E-02  0.1371E-02  0.1357E-03  0.1298E-03  0.1628E-03  0.1478E-03  0.4448E-04  0.3858E-04  0.1628E-03  0.1478E-03  0.3867E-04  0.3407E-04
     -2.137  0.1454E-01  0.1369E-01  0.1378E-02  0.1360E-02  0.1748E-02  0.1727E-02  0.1378E-02  0.1360E-02  0.1429E-03  0.1383E-03  0.1694E-03  0.1563E-03  0.4330E-04  0.3895E-04  0.1694E-03  0.1563E-03  0.3926E-04  0.3539E-04
     -2.089  0.1516E-01  0.1472E-01  0.1597E-02  0.1610E-02  0.1972E-02  0.2054E-02  0.1597E-02  0.1610E-02  0.1762E-03  0.1712E-03  0.1946E-03  0.1846E-03  0.5512E-04  0.5179E-04  0.1946E-03  0.1846E-03  0.4981E-04  0.4632E-04
     -2.041  0.1731E-01  0.1687E-01  0.1966E-02  0.1987E-02  0.2442E-02  0.2556E-02  0.1966E-02  0.1987E-02  0.2226E-03  0.2144E-03  0.2259E-03  0.2157E-03  0.7960E-04  0.7416E-04  0.2259E-03  0.2157E-03  0.6837E-04  0.6403E-04
     -1.994  0.1909E-01  0.1836E-01  0.2298E-02  0.2300E-02  0.2892E-02  0.2947E-02  0.2298E-02  0.2300E-02  0.2557E-03  0.2440E-03  0.2548E-03  0.2420E-03  0.1031E-03  0.9259E-04  0.2548E-03  0.2420E-03  0.8890E-04  0.8205E-04
     -1.946  0.1932E-01  0.1833E-01  0.2443E-02  0.2423E-02  0.3108E-02  0.3084E-02  0.2443E-02  0.2423E-02  0.2640E-03  0.2520E-03  0.2820E-03  0.2662E-03  0.1106E-03  0.9599E-04  0.2820E-03  0.2662E-03  0.1018E-03  0.9208E-04
     -1.898  0.1860E-01  0.1765E-01  0.2477E-02  0.2458E-02  0.3162E-02  0.3161E-02  0.2477E-02  0.2458E-02  0.2741E-03  0.2658E-03  0.3120E-03  0.2966E-03  0.1065E-03  0.9210E-04  0.3120E-03  0.2966E-03  0.1055E-03  0.9421E-04
     -1.850  0.1849E-01  0.1753E-01  0.2596E-02  0.2571E-02  0.3370E-02  0.3417E-02  0.2596E-02  0.2571E-02  0.3107E-03  0.3023E-03  0.3569E-03  0.3379E-03  0.1066E-03  0.9313E-04  0.3569E-03  0.3379E-03  0.1082E-03  0.9580E-04
     -1.802  0.1812E-01  0.1683E-01  0.2660E-02  0.2593E-02  0.3618E-02  0.3600E-02  0.2660E-02  0.2593E-02  0.3427E-03  0.3272E-03  0.3951E-03  0.3639E-03  0.1070E-03  0.9151E-04  0.3951E-03  0.3639E-03  0.1075E-03  0.9411E-04
     -1.754  0.1626E-01  0.1486E-01  0.2511E-02  0.2426E-02  0.3628E-02  0.3572E-02  0.2511E-02  0.2426E-02  0.3545E-03  0.3347E-03  0.4084E-03  0.3733E-03  0.9591E-04  0.8030E-04  0.4084E-03  0.3733E-03  0.9683E-04  0.8423E-04
     -1.706  0.1480E-01  0.1375E-01  0.2449E-02  0.2399E-02  0.3730E-02  0.3749E-02  0.2449E-02  0.2399E-02  0.3930E-03  0.3746E-03  0.4467E-03  0.4214E-03  0.8573E-04  0.7389E-04  0.4467E-03  0.4214E-03  0.8719E-04  0.7666E-04
     -1.658  0.1500E-01  0.1427E-01  0.2644E-02  0.2643E-02  0.4161E-02  0.4221E-02  0.2644E-02  0.2643E-02  0.4697E-03  0.4530E-03  0.5299E-03  0.5113E-03  0.9175E-04  0.8227E-04  0.5299E-03  0.5113E-03  0.8877E-04  0.7949E-04
     -1.611  0.1549E-01  0.1478E-01  0.2895E-02  0.2926E-02  0.4603E-02  0.4624E-02  0.2895E-02  0.2926E-02  0.5411E-03  0.5234E-03  0.6066E-03  0.5823E-03  0.1078E-03  0.9689E-04  0.6066E-03  0.5823E-03  0.9655E-04  0.8774E-04