  16  16   1   0
  0.1347942E+02  0.3690082E-09  0.3690082E-09  0.1583869E-08  0.5000000E-15
  1.000000000000000E-004
  CAR 
 unknown system                          
     14.53339552     -2.98973429  301      9.35715148      1.00000000
     -2.990  0.0000E+00  0.0000E+00  0.0000E+00  0.0000E+00
     -2.931  0.0000E+00  0.0000E+00  0.0000E+00  0.0000E+00
     -2.873  0.0000E+00  0.0000E+00  0.0000E+00  0.0000E+00
     -2.815  0.0000E+00  0.0000E+00  0.0000E+00  0.0000E+00
     -2.756  0.0000E+00  0.0000E+00  0.0000E+00  0.0000E+00
     -2.698  0.0000E+00  0.0000E+00  0.0000E+00  0.0000E+00
     -2.639  0.4510E-05  0.4506E-05  0.2634E-06  0.2632E-06
     -2.581  0.3342E-04  0.3339E-04  0.2216E-05  0.2214E-05
     -2.522  0.8400E-04  0.8393E-04  0.7122E-05  0.7116E-05
     -2.464  0.4005E-03  0.4002E-03  0.3052E-04  0.3049E-04
     -2.406  0.1227E-02  0.1226E-02  0.1022E-03  0.1021E-03
     -2.347  0.3858E-02  0.3855E-02  0.3275E-03  0.3273E-03
     -2.289  0.1194E-01  0.1193E-01  0.1025E-02  0.1024E-02
     -2.230  0.3365E-01  0.3363E-01  0.2991E-02  0.2989E-02
     -2.172  0.8085E-01  0.8081E-01  0.7713E-02  0.7708E-02
     -2.114  0.1551E+00  0.1551E+00  0.1677E-01  0.1677E-01
     -2.055  0.2305E+00  0.2304E+00  0.3023E-01  0.3022E-01
     -1.997  0.2786E+00  0.2786E+00  0.4651E-01  0.4650E-01
     -1.938  0.3272E+00  0.3272E+00  0.6562E-01  0.6561E-01
     -1.880  0.4204E+00  0.4204E+00  0.9018E-01  0.9016E-01
     -1.822  0.5004E+00  0.5004E+00  0.1194E+00  0.1194E+00
     -1.763  0.4815E+00  0.4815E+00  0.1475E+00  0.1475E+00
     -1.705  0.4446E+00  0.4446E+00  0.1735E+00  0.1735E+00
     -1.646  0.5146E+00  0.5145E+00  0.2036E+00  0.2036E+00
     -1.588  0.6139E+00  0.6138E+00  0.2395E+00  0.2394E+00
     -1.529  0.6320E+00  0.6320E+00  0.2764E+00  0.2764E+00
     -1.471  0.6205E+00  0.6205E+00  0.3126E+00  0.3126E+00
     -1.413  0.6359E+00  0.6359E+00  0.3498E+00  0.3498E+00
     -1.354  0.6698E+00  0.6698E+00  0.3889E+00  0.3889E+00
     -1.296  0.6854E+00  0.6854E+00  0.4290E+00  0.4290E+00
     -1.237  0.6411E+00  0.6412E+00  0.4664E+00  0.4664E+00
     -1.179  0.6322E+00  0.6322E+00  0.5034E+00  0.5034E+00
     -1.121  0.7663E+00  0.7662E+00  0.5482E+00  0.5482E+00
     -1.062  0.9022E+00  0.9021E+00  0.6009E+00  0.6009E+00
     -1.004  0.8984E+00  0.8984E+00  0.6534E+00  0.6534E+00
     -0.945  0.8719E+00  0.8719E+00  0.7044E+00  0.7043E+00
     -0.887  0.9496E+00  0.9495E+00  0.7599E+00  0.7598E+00
     -0.829  0.1003E+01  0.1003E+01  0.8185E+00  0.8185E+00
     -0.770  0.8663E+00  0.8664E+00  0.8691E+00  0.8691E+00
     -0.712  0.7152E+00  0.7153E+00  0.9109E+00  0.9109E+00
     -0.653  0.7839E+00  0.7838E+00  0.9567E+00  0.9567E+00
     -0.595  0.9841E+00  0.9840E+00  0.1014E+01  0.1014E+01
     -0.536  0.1165E+01  0.1165E+01  0.1082E+01  0.1082E+01
     -0.478  0.1216E+01  0.1216E+01  0.1153E+01  0.1153E+01
     -0.420  0.1151E+01  0.1151E+01  0.1221E+01  0.1221E+01
     -0.361  0.1194E+01  0.1194E+01  0.1290E+01  0.1290E+01
     -0.303  0.1263E+01  0.1263E+01  0.1364E+01  0.1364E+01
     -0.244  0.1130E+01  0.1130E+01  0.1430E+01  0.1430E+01
     -0.186  0.1037E+01  0.1037E+01  0.1491E+01  0.1491E+01
     -0.128  0.1155E+01  0.1155E+01  0.1558E+01  0.1558E+01
     -0.069  0.1263E+01  0.1263E+01  0.1632E+01  0.1632E+01
     -0.011  0.1294E+01  0.1294E+01  0.1708E+01  0.1708E+01
      0.048  0.1332E+01  0.1332E+01  0.1786E+01  0.1786E+01
      0.106  0.1377E+01  0.1377E+01  0.1866E+01  0.1866E+01
      0.164  0.1367E+01  0.1367E+01  0.1946E+01  0.1946E+01
      0.223  0.1285E+01  0.1285E+01  0.2021E+01  0.2021E+01
      0.281  0.1295E+01  0.1295E+01  0.2097E+01  0.2097E+01
      0.340  0.1460E+01  0.1460E+01  0.2182E+01  0.2182E+01
      0.398  0.1590E+01  0.1590E+01  0.2275E+01  0.2275E+01
      0.456  0.1504E+01  0.1504E+01  0.2363E+01  0.2363E+01
      0.515  0.1303E+01  0.1303E+01  0.2439E+01  0.2439E+01
      0.573  0.1207E+01  0.1207E+01  0.2510E+01  0.2510E+01
      0.632  0.1127E+01  0.1127E+01  0.2576E+01  0.2576E+01
      0.690  0.1013E+01  0.1013E+01  0.2635E+01  0.2635E+01
      0.749  0.1001E+01  0.1001E+01  0.2694E+01  0.2694E+01
      0.807  0.1124E+01  0.1124E+01  0.2759E+01  0.2759E+01
      0.865  0.1331E+01  0.1331E+01  0.2837E+01  0.2837E+01
      0.924  0.1449E+01  0.1449E+01  0.2922E+01  0.2922E+01
      0.982  0.1381E+01  0.1381E+01  0.3002E+01  0.3002E+01
      1.041  0.1296E+01  0.1296E+01  0.3078E+01  0.3078E+01
      1.099  0.1323E+01  0.1323E+01  0.3156E+01  0.3155E+01
      1.157  0.1356E+01  0.1356E+01  0.3235E+01  0.3235E+01
      1.216  0.1354E+01  0.1354E+01  0.3314E+01  0.3314E+01
      1.274  0.1428E+01  0.1428E+01  0.3397E+01  0.3397E+01
      1.333  0.1613E+01  0.1613E+01  0.3492E+01  0.3492E+01
      1.391  0.1692E+01  0.1692E+01  0.3591E+01  0.3590E+01
      1.449  0.1558E+01  0.1558E+01  0.3682E+01  0.3681E+01
      1.508  0.1381E+01  0.1382E+01  0.3762E+01  0.3762E+01
      1.566  0.1345E+01  0.1345E+01  0.3841E+01  0.3841E+01
      1.625  0.1401E+01  0.1400E+01  0.3923E+01  0.3923E+01
      1.683  0.1470E+01  0.1470E+01  0.4009E+01  0.4009E+01
      1.742  0.1506E+01  0.1506E+01  0.4097E+01  0.4097E+01
      1.800  0.1485E+01  0.1485E+01  0.4184E+01  0.4183E+01
      1.858  0.1559E+01  0.1559E+01  0.4275E+01  0.4275E+01
      1.917  0.1729E+01  0.1729E+01  0.4376E+01  0.4376E+01
      1.975  0.1795E+01  0.1795E+01  0.4481E+01  0.4480E+01
      2.034  0.1801E+01  0.1800E+01  0.4586E+01  0.4586E+01
      2.092  0.1853E+01  0.1853E+01  0.4694E+01  0.4694E+01
      2.150  0.1996E+01  0.1995E+01  0.4811E+01  0.4811E+01
      2.209  0.2072E+01  0.2072E+01  0.4932E+01  0.4932E+01
      2.267  0.2050E+01  0.2050E+01  0.5052E+01  0.5052E+01
      2.326  0.1954E+01  0.1954E+01  0.5166E+01  0.5166E+01
      2.384  0.1773E+01  0.1773E+01  0.5269E+01  0.5269E+01
      2.442  0.1769E+01  0.1769E+01  0.5373E+01  0.5373E+01
      2.501  0.1842E+01  0.1842E+01  0.5480E+01  0.5480E+01
      2.559  0.1742E+01  0.1742E+01  0.5582E+01  0.5582E+01
      2.618  0.1540E+01  0.1540E+01  0.5672E+01  0.5672E+01
      2.676  0.1532E+01  0.1532E+01  0.5762E+01  0.5762E+01
      2.734  0.1735E+01  0.1735E+01  0.5863E+01  0.5863E+01
      2.793  0.1846E+01  0.1846E+01  0.5971E+01  0.5971E+01
      2.851  0.1898E+01  0.1898E+01  0.6082E+01  0.6082E+01
      2.910  0.1856E+01  0.1856E+01  0.6191E+01  0.6191E+01
      2.968  0.1643E+01  0.1643E+01  0.6287E+01  0.6287E+01
      3.027  0.1576E+01  0.1576E+01  0.6379E+01  0.6379E+01
      3.085  0.1850E+01  0.1849E+01  0.6487E+01  0.6487E+01
      3.143  0.2240E+01  0.2240E+01  0.6618E+01  0.6618E+01
      3.202  0.2410E+01  0.2410E+01  0.6759E+01  0.6758E+01
      3.260  0.2330E+01  0.2330E+01  0.6895E+01  0.6895E+01
      3.319  0.2203E+01  0.2203E+01  0.7024E+01  0.7023E+01
      3.377  0.2040E+01  0.2040E+01  0.7143E+01  0.7143E+01
      3.435  0.1794E+01  0.1794E+01  0.7248E+01  0.7247E+01
      3.494  0.1642E+01  0.1642E+01  0.7344E+01  0.7343E+01
      3.552  0.1663E+01  0.1663E+01  0.7441E+01  0.7441E+01
      3.611  0.1805E+01  0.1805E+01  0.7546E+01  0.7546E+01
      3.669  0.1919E+01  0.1919E+01  0.7658E+01  0.7658E+01
      3.727  0.1879E+01  0.1879E+01  0.7768E+01  0.7768E+01
      3.786  0.1882E+01  0.1882E+01  0.7878E+01  0.7878E+01
      3.844  0.2105E+01  0.2105E+01  0.8001E+01  0.8001E+01
      3.903  0.2333E+01  0.2333E+01  0.8138E+01  0.8137E+01
      3.961  0.2492E+01  0.2491E+01  0.8283E+01  0.8283E+01
      4.020  0.2547E+01  0.2547E+01  0.8432E+01  0.8432E+01
      4.078  0.2604E+01  0.2604E+01  0.8584E+01  0.8584E+01
      4.136  0.2819E+01  0.2818E+01  0.8749E+01  0.8749E+01
      4.195  0.2957E+01  0.2957E+01  0.8922E+01  0.8922E+01
      4.253  0.2832E+01  0.2832E+01  0.9087E+01  0.9087E+01
      4.312  0.2538E+01  0.2539E+01  0.9236E+01  0.9235E+01
      4.370  0.2279E+01  0.2279E+01  0.9369E+01  0.9369E+01
      4.428  0.2240E+01  0.2240E+01  0.9500E+01  0.9500E+01
      4.487  0.2248E+01  0.2248E+01  0.9631E+01  0.9631E+01
      4.545  0.2165E+01  0.2165E+01  0.9758E+01  0.9758E+01
      4.604  0.2053E+01  0.2053E+01  0.9878E+01  0.9878E+01
      4.662  0.2132E+01  0.2132E+01  0.1000E+02  0.1000E+02
      4.720  0.2399E+01  0.2399E+01  0.1014E+02  0.1014E+02
      4.779  0.2535E+01  0.2534E+01  0.1029E+02  0.1029E+02
      4.837  0.2454E+01  0.2454E+01  0.1043E+02  0.1043E+02
      4.896  0.2430E+01  0.2430E+01  0.1058E+02  0.1058E+02
      4.954  0.2527E+01  0.2527E+01  0.1072E+02  0.1072E+02
      5.012  0.2537E+01  0.2537E+01  0.1087E+02  0.1087E+02
      5.071  0.2550E+01  0.2550E+01  0.1102E+02  0.1102E+02
      5.129  0.2767E+01  0.2766E+01  0.1118E+02  0.1118E+02
      5.188  0.2902E+01  0.2902E+01  0.1135E+02  0.1135E+02
      5.246  0.2825E+01  0.2826E+01  0.1152E+02  0.1152E+02
      5.305  0.2811E+01  0.2811E+01  0.1168E+02  0.1168E+02
      5.363  0.2972E+01  0.2971E+01  0.1186E+02  0.1186E+02
      5.421  0.3088E+01  0.3087E+01  0.1204E+02  0.1204E+02
      5.480  0.3190E+01  0.3189E+01  0.1222E+02  0.1222E+02
      5.538  0.3228E+01  0.3228E+01  0.1241E+02  0.1241E+02
      5.597  0.3122E+01  0.3122E+01  0.1259E+02  0.1259E+02
      5.655  0.3186E+01  0.3185E+01  0.1278E+02  0.1278E+02
      5.713  0.3390E+01  0.3389E+01  0.1298E+02  0.1298E+02
      5.772  0.3502E+01  0.3502E+01  0.1318E+02  0.1318E+02
      5.830  0.3594E+01  0.3594E+01  0.1339E+02  0.1339E+02
      5.889  0.3738E+01  0.3738E+01  0.1361E+02  0.1361E+02
      5.947  0.3812E+01  0.3812E+01  0.1383E+02  0.1383E+02
      6.005  0.3788E+01  0.3788E+01  0.1406E+02  0.1405E+02
      6.064  0.3775E+01  0.3774E+01  0.1428E+02  0.1428E+02
      6.122  0.3829E+01  0.3828E+01  0.1450E+02  0.1450E+02
      6.181  0.3884E+01  0.3884E+01  0.1473E+02  0.1473E+02
      6.239  0.3855E+01  0.3855E+01  0.1495E+02  0.1495E+02
      6.298  0.3729E+01  0.3730E+01  0.1517E+02  0.1517E+02
      6.356  0.3703E+01  0.3704E+01  0.1539E+02  0.1539E+02
      6.414  0.3828E+01  0.3828E+01  0.1561E+02  0.1561E+02
      6.473  0.3953E+01  0.3953E+01  0.1584E+02  0.1584E+02
      6.531  0.3914E+01  0.3914E+01  0.1607E+02  0.1607E+02
      6.590  0.3707E+01  0.3708E+01  0.1629E+02  0.1629E+02
      6.648  0.3486E+01  0.3486E+01  0.1649E+02  0.1649E+02
      6.706  0.3497E+01  0.3496E+01  0.1669E+02  0.1669E+02
      6.765  0.3667E+01  0.3666E+01  0.1691E+02  0.1691E+02
      6.823  0.3742E+01  0.3742E+01  0.1713E+02  0.1713E+02
      6.882  0.3859E+01  0.3859E+01  0.1735E+02  0.1735E+02
      6.940  0.3882E+01  0.3883E+01  0.1758E+02  0.1758E+02
      6.998  0.3641E+01  0.3642E+01  0.1779E+02  0.1779E+02
      7.057  0.3518E+01  0.3518E+01  0.1800E+02  0.1800E+02
      7.115  0.3926E+01  0.3924E+01  0.1823E+02  0.1823E+02
      7.174  0.4775E+01  0.4773E+01  0.1851E+02  0.1851E+02
      7.232  0.5500E+01  0.5498E+01  0.1883E+02  0.1883E+02
      7.291  0.5869E+01  0.5867E+01  0.1917E+02  0.1917E+02
      7.349  0.6066E+01  0.6064E+01  0.1953E+02  0.1952E+02
      7.407  0.6300E+01  0.6298E+01  0.1989E+02  0.1989E+02
      7.466  0.6601E+01  0.6600E+01  0.2028E+02  0.2028E+02
      7.524  0.7018E+01  0.7017E+01  0.2069E+02  0.2069E+02
      7.583  0.7145E+01  0.7146E+01  0.2111E+02  0.2111E+02
      7.641  0.6433E+01  0.6435E+01  0.2148E+02  0.2148E+02
      7.699  0.5403E+01  0.5405E+01  0.2180E+02  0.2180E+02
      7.758  0.4690E+01  0.4691E+01  0.2207E+02  0.2207E+02
      7.816  0.4323E+01  0.4324E+01  0.2233E+02  0.2233E+02
      7.875  0.4204E+01  0.4205E+01  0.2257E+02  0.2257E+02
      7.933  0.4210E+01  0.4210E+01  0.2282E+02  0.2282E+02
      7.991  0.4234E+01  0.4234E+01  0.2307E+02  0.2306E+02
      8.050  0.4515E+01  0.4514E+01  0.2333E+02  0.2333E+02
      8.108  0.5047E+01  0.5045E+01  0.2362E+02  0.2362E+02
      8.167  0.5176E+01  0.5177E+01  0.2393E+02  0.2393E+02
      8.225  0.4855E+01  0.4857E+01  0.2421E+02  0.2421E+02
      8.283  0.4547E+01  0.4547E+01  0.2448E+02  0.2448E+02
      8.342  0.4252E+01  0.4253E+01  0.2472E+02  0.2472E+02
      8.400  0.3644E+01  0.3646E+01  0.2494E+02  0.2494E+02
      8.459  0.3002E+01  0.3003E+01  0.2511E+02  0.2511E+02
      8.517  0.2806E+01  0.2805E+01  0.2528E+02  0.2528E+02
      8.576  0.2918E+01  0.2917E+01  0.2545E+02  0.2545E+02
      8.634  0.3039E+01  0.3038E+01  0.2563E+02  0.2563E+02
      8.692  0.3062E+01  0.3061E+01  0.2580E+02  0.2580E+02
      8.751  0.3153E+01  0.3153E+01  0.2599E+02  0.2599E+02
      8.809  0.3194E+01  0.3194E+01  0.2618E+02  0.2618E+02
      8.868  0.3007E+01  0.3008E+01  0.2635E+02  0.2635E+02
      8.926  0.2897E+01  0.2897E+01  0.2652E+02  0.2652E+02
      8.984  0.2954E+01  0.2953E+01  0.2669E+02  0.2669E+02
      9.043  0.3121E+01  0.3121E+01  0.2688E+02  0.2688E+02
      9.101  0.3345E+01  0.3345E+01  0.2707E+02  0.2707E+02
      9.160  0.3440E+01  0.3440E+01  0.2727E+02  0.2727E+02
      9.218  0.3474E+01  0.3473E+01  0.2748E+02  0.2747E+02
      9.276  0.3668E+01  0.3667E+01  0.2769E+02  0.2769E+02
      9.335  0.3853E+01  0.3852E+01  0.2792E+02  0.2791E+02
      9.393  0.3757E+01  0.3758E+01  0.2813E+02  0.2813E+02
      9.452  0.3498E+01  0.3499E+01  0.2834E+02  0.2834E+02
      9.510  0.3529E+01  0.3528E+01  0.2855E+02  0.2854E+02
      9.569  0.3937E+01  0.3935E+01  0.2878E+02  0.2877E+02
      9.627  0.4290E+01  0.4289E+01  0.2903E+02  0.2903E+02
      9.685  0.4500E+01  0.4499E+01  0.2929E+02  0.2929E+02
      9.744  0.4842E+01  0.4840E+01  0.2957E+02  0.2957E+02
      9.802  0.5536E+01  0.5532E+01  0.2990E+02  0.2989E+02
      9.861  0.6956E+01  0.6950E+01  0.3030E+02  0.3030E+02
      9.919  0.9057E+01  0.9049E+01  0.3083E+02  0.3083E+02
      9.977  0.1127E+02  0.1126E+02  0.3149E+02  0.3149E+02
     10.036  0.1309E+02  0.1309E+02  0.3225E+02  0.3225E+02
     10.094  0.1354E+02  0.1354E+02  0.3305E+02  0.3304E+02
     10.153  0.1167E+02  0.1168E+02  0.3373E+02  0.3372E+02
     10.211  0.8872E+01  0.8882E+01  0.3425E+02  0.3424E+02
     10.269  0.6760E+01  0.6766E+01  0.3464E+02  0.3464E+02
     10.328  0.5364E+01  0.5368E+01  0.3495E+02  0.3495E+02
     10.386  0.4283E+01  0.4287E+01  0.3520E+02  0.3520E+02
     10.445  0.3476E+01  0.3478E+01  0.3541E+02  0.3541E+02
     10.503  0.3034E+01  0.3035E+01  0.3559E+02  0.3559E+02
     10.561  0.2764E+01  0.2765E+01  0.3575E+02  0.3575E+02
     10.620  0.2540E+01  0.2541E+01  0.3590E+02  0.3590E+02
     10.678  0.2464E+01  0.2464E+01  0.3604E+02  0.3604E+02
     10.737  0.2513E+01  0.2513E+01  0.3619E+02  0.3619E+02
     10.795  0.2787E+01  0.2786E+01  0.3635E+02  0.3635E+02
     10.854  0.3179E+01  0.3178E+01  0.3654E+02  0.3654E+02
     10.912  0.3531E+01  0.3530E+01  0.3674E+02  0.3674E+02
     10.970  0.3569E+01  0.3570E+01  0.3695E+02  0.3695E+02
     11.029  0.3281E+01  0.3281E+01  0.3714E+02  0.3714E+02
     11.087  0.3040E+01  0.3040E+01  0.3732E+02  0.3732E+02
     11.146  0.3037E+01  0.3036E+01  0.3750E+02  0.3750E+02
     11.204  0.3194E+01  0.3194E+01  0.3768E+02  0.3768E+02
     11.262  0.3351E+01  0.3351E+01  0.3788E+02  0.3788E+02
     11.321  0.3620E+01  0.3621E+01  0.3809E+02  0.3809E+02
     11.379  0.3975E+01  0.3977E+01  0.3832E+02  0.3832E+02
     11.438  0.4176E+01  0.4180E+01  0.3857E+02  0.3857E+02
     11.496  0.4292E+01  0.4301E+01  0.3882E+02  0.3882E+02
     11.554  0.4381E+01  0.4403E+01  0.3908E+02  0.3908E+02
     11.613  0.4491E+01  0.4533E+01  0.3934E+02  0.3934E+02
     11.671  0.4769E+01  0.4822E+01  0.3962E+02  0.3962E+02
     11.730  0.4821E+01  0.4883E+01  0.3990E+02  0.3991E+02
     11.788  0.4283E+01  0.4356E+01  0.4015E+02  0.4016E+02
     11.847  0.3817E+01  0.3970E+01  0.4037E+02  0.4040E+02
     11.905  0.3929E+01  0.4275E+01  0.4060E+02  0.4065E+02
     11.963  0.4231E+01  0.4719E+01  0.4085E+02  0.4092E+02
     12.022  0.4318E+01  0.4696E+01  0.4110E+02  0.4120E+02
     12.080  0.4255E+01  0.4412E+01  0.4135E+02  0.4145E+02
     12.139  0.3994E+01  0.4105E+01  0.4158E+02  0.4169E+02
     12.197  0.3536E+01  0.3649E+01  0.4179E+02  0.4191E+02
     12.255  0.3151E+01  0.3156E+01  0.4197E+02  0.4209E+02
     12.314  0.2856E+01  0.2786E+01  0.4214E+02  0.4225E+02
     12.372  0.2656E+01  0.2699E+01  0.4230E+02  0.4241E+02
     12.431  0.2552E+01  0.2787E+01  0.4245E+02  0.4258E+02
     12.489  0.2469E+01  0.2704E+01  0.4259E+02  0.4273E+02
     12.547  0.2350E+01  0.2435E+01  0.4273E+02  0.4288E+02
     12.606  0.2077E+01  0.2063E+01  0.4285E+02  0.4300E+02
     12.664  0.1822E+01  0.1735E+01  0.4296E+02  0.4310E+02
     12.723  0.1742E+01  0.1541E+01  0.4306E+02  0.4319E+02
     12.781  0.1808E+01  0.1468E+01  0.4316E+02  0.4327E+02
     12.839  0.1847E+01  0.1478E+01  0.4327E+02  0.4336E+02
     12.898  0.1738E+01  0.1411E+01  0.4337E+02  0.4344E+02
     12.956  0.1618E+01  0.1354E+01  0.4347E+02  0.4352E+02
     13.015  0.1604E+01  0.1374E+01  0.4356E+02  0.4360E+02
     13.073  0.1497E+01  0.1287E+01  0.4365E+02  0.4368E+02
     13.132  0.1250E+01  0.1129E+01  0.4372E+02  0.4374E+02
     13.190  0.1069E+01  0.1113E+01  0.4378E+02  0.4381E+02
     13.248  0.9299E+00  0.1075E+01  0.4384E+02  0.4387E+02
     13.307  0.7968E+00  0.7998E+00  0.4389E+02  0.4392E+02
     13.365  0.6481E+00  0.4766E+00  0.4392E+02  0.4395E+02
     13.424  0.4562E+00  0.2985E+00  0.4395E+02  0.4396E+02
     13.482  0.3145E+00  0.1976E+00  0.4397E+02  0.4398E+02
     13.540  0.2467E+00  0.1031E+00  0.4398E+02  0.4398E+02
     13.599  0.1662E+00  0.4842E-01  0.4399E+02  0.4398E+02
     13.657  0.8287E-01  0.4145E-01  0.4400E+02  0.4399E+02
     13.716  0.3174E-01  0.6473E-01  0.4400E+02  0.4399E+02
     13.774  0.1033E-01  0.7740E-01  0.4400E+02  0.4399E+02
     13.832  0.3292E-02  0.5226E-01  0.4400E+02  0.4400E+02
     13.891  0.1034E-02  0.2292E-01  0.4400E+02  0.4400E+02
     13.949  0.1541E-03  0.8065E-02  0.4400E+02  0.4400E+02
     14.008  0.0000E+00  0.2611E-02  0.4400E+02  0.4400E+02
     14.066  0.0000E+00  0.8224E-03  0.4400E+02  0.4400E+02
     14.125  0.0000E+00  0.2567E-03  0.4400E+02  0.4400E+02
     14.183  0.0000E+00  0.0000E+00  0.4400E+02  0.4400E+02
     14.241  0.0000E+00  0.0000E+00  0.4400E+02  0.4400E+02
     14.300  0.0000E+00  0.0000E+00  0.4400E+02  0.4400E+02
     14.358  0.0000E+00  0.0000E+00  0.4400E+02  0.4400E+02
     14.417  0.0000E+00  0.0000E+00  0.4400E+02  0.4400E+02
     14.475  0.0000E+00  0.0000E+00  0.4400E+02  0.4400E+02
     14.533  0.0000E+00  0.0000E+00  0.4400E+02  0.4400E+02
     14.53339552     -2.98973429  301      9.35715148      1.00000000
     -2.990  0.0000E+00  0.0000E+00  0.0000E+00  0.0000E+00  0.0000E+00  0.0000E+00  0.0000E+00  0.0000E+00  0.0000E+00  0.0000E+00  0.0000E+00  0.0000E+00  0.0000E+00  0.0000E+00  0.0000E+00  0.0000E+00  0.0000E+00  0.0000E+00
     -2.931  0.0000E+00  0.0000E+00  0.0000E+00  0.0000E+00  0.0000E+00  0.0000E+00  0.0000E+00  0.0000E+00  0.0000E+00  0.0000E+00  0.0000E+00  0.0000E+00  0.0000E+00  0.0000E+00  0.0000E+00  0.0000E+00  0.0000E+00  0.0000E+00
     -2.873  0.0000E+00  0.0000E+00  0.0000E+00  0.0000E+00  0.0000E+00  0.0000E+00  0.0000E+00  0.0000E+00  0.0000E+00  0.0000E+00  0.0000E+00  0.0000E+00  0.0000E+00  0.0000E+00  0.0000E+00  0.0000E+00  0.0000E+00  0.0000E+00
     -2.815  0.0000E+00  0.0000E+00  0.0000E+00  0.0000E+00  0.0000E+00  0.0000E+00  0.0000E+00  0.0000E+00  0.0000E+00  0.0000E+00  0.0000E+00  0.0000E+00  0.0000E+00  0.0000E+00  0.0000E+00  0.0000E+00  0.0000E+00  0.0000E+00
     -2.756  0.0000E+00  0.0000E+00  0.0000E+00  0.0000E+00  0.0000E+00  0.0000E+00  0.0000E+00  0.0000E+00  0.0000E+00  0.0000E+00  0.0000E+00  0.0000E+00  0.0000E+00  0.0000E+00  0.0000E+00  0.0000E+00  0.0000E+00  0.0000E+00
     -2.698  0.0000E+00  0.0000E+00  0.0000E+00  0.0000E+00  0.0000E+00  0.0000E+00  0.0000E+00  0.0000E+00  0.0000E+00  0.0000E+00  0.0000E+00  0.0000E+00  0.0000E+00  0.0000E+00  0.0000E+00  0.0000E+00  0.0000E+00  0.0000E+00
     -2.639  0.1532E-06  0.1531E-06  0.2886E-22  0.2796E-21  0.5557E-09  0.5554E-09  0.2886E-22  0.2796E-21  0.1728E-21  0.5677E-19  0.6474E-20  0.2310E-18  0.1178E-10  0.1169E-10  0.6474E-20  0.2310E-18  0.4452E-19  0.3982E-18
     -2.581  0.1124E-05  0.1123E-05  0.2892E-08  0.2889E-08  0.7622E-08  0.7617E-08  0.2892E-08  0.2889E-08  0.1074E-20  0.4707E-18  0.2149E-10  0.2145E-10  0.1026E-09  0.1016E-09  0.2149E-10  0.2145E-10  0.1231E-10  0.1226E-10
     -2.522  0.2828E-05  0.2826E-05  0.6406E-08  0.6401E-08  0.1811E-07  0.1810E-07  0.6406E-08  0.6401E-08  0.2760E-20  0.1168E-17  0.4761E-10  0.4751E-10  0.2533E-09  0.2510E-09  0.4761E-10  0.4751E-10  0.2726E-10  0.2717E-10
     -2.464  0.1340E-04  0.1338E-04  0.5271E-07  0.5266E-07  0.1130E-06  0.1129E-06  0.5271E-07  0.5266E-07  0.2531E-09  0.2530E-09  0.6792E-09  0.6786E-09  0.1249E-08  0.1237E-08  0.6792E-09  0.6786E-09  0.1566E-09  0.1565E-09
     -2.406  0.4103E-04  0.4099E-04  0.1650E-06  0.1648E-06  0.3503E-06  0.3500E-06  0.1650E-06  0.1648E-06  0.1006E-08  0.1006E-08  0.2362E-08  0.2359E-08  0.3780E-08  0.3742E-08  0.2362E-08  0.2359E-08  0.4335E-09  0.4329E-09
     -2.347  0.1290E-03  0.1289E-03  0.5235E-06  0.5231E-06  0.1112E-05  0.1112E-05  0.5235E-06  0.5231E-06  0.2784E-08  0.2784E-08  0.7053E-08  0.7045E-08  0.1238E-07  0.1226E-07  0.7053E-08  0.7045E-08  0.1789E-08  0.1786E-08
     -2.289  0.3987E-03  0.3983E-03  0.1735E-05  0.1733E-05  0.3591E-05  0.3589E-05  0.1735E-05  0.1733E-05  0.1025E-07  0.1024E-07  0.2471E-07  0.2468E-07  0.3936E-07  0.3899E-07  0.2471E-07  0.2468E-07  0.6397E-08  0.6384E-08
     -2.230  0.1122E-02  0.1121E-02  0.5295E-05  0.5291E-05  0.1061E-04  0.1061E-04  0.5295E-05  0.5291E-05  0.3372E-07  0.3371E-07  0.7821E-07  0.7813E-07  0.1124E-06  0.1113E-06  0.7821E-07  0.7813E-07  0.1904E-07  0.1901E-07
     -2.172  0.2688E-02  0.2686E-02  0.1461E-04  0.1460E-04  0.2781E-04  0.2780E-04  0.1461E-04  0.1460E-04  0.9968E-07  0.9965E-07  0.2233E-06  0.2231E-06  0.2788E-06  0.2762E-06  0.2233E-06  0.2231E-06  0.5228E-07  0.5219E-07
     -2.114  0.5133E-02  0.5131E-02  0.3405E-04  0.3403E-04  0.6082E-04  0.6080E-04  0.3405E-04  0.3403E-04  0.2744E-06  0.2744E-06  0.5697E-06  0.5692E-06  0.5680E-06  0.5628E-06  0.5697E-06  0.5692E-06  0.1255E-06  0.1253E-06
     -2.055  0.7573E-02  0.7571E-02  0.6336E-04  0.6333E-04  0.1069E-03  0.1069E-03  0.6336E-04  0.6333E-04  0.6203E-06  0.6202E-06  0.1193E-05  0.1192E-05  0.9537E-06  0.9456E-06  0.1193E-05  0.1192E-05  0.2723E-06  0.2718E-06
     -1.997  0.9060E-02  0.9059E-02  0.9925E-04  0.9921E-04  0.1601E-03  0.1600E-03  0.9925E-04  0.9921E-04  0.1135E-05  0.1135E-05  0.2085E-05  0.2083E-05  0.1488E-05  0.1477E-05  0.2085E-05  0.2083E-05  0.6053E-06  0.6036E-06
     -1.938  0.1048E-01  0.1048E-01  0.1532E-03  0.1531E-03  0.2380E-03  0.2379E-03  0.1532E-03  0.1531E-03  0.1992E-05  0.1992E-05  0.3562E-05  0.3559E-05  0.2462E-05  0.2448E-05  0.3562E-05  0.3559E-05  0.1311E-05  0.1307E-05
     -1.880  0.1328E-01  0.1328E-01  0.2408E-03  0.2407E-03  0.3614E-03  0.3614E-03  0.2408E-03  0.2407E-03  0.3735E-05  0.3734E-05  0.6337E-05  0.6332E-05  0.3921E-05  0.3903E-05  0.6337E-05  0.6332E-05  0.2310E-05  0.2303E-05
     -1.822  0.1566E-01  0.1566E-01  0.3226E-03  0.3225E-03  0.4773E-03  0.4772E-03  0.3226E-03  0.3225E-03  0.6112E-05  0.6111E-05  0.9788E-05  0.9783E-05  0.5053E-05  0.5032E-05  0.9788E-05  0.9783E-05  0.2984E-05  0.2976E-05
     -1.763  0.1489E-01  0.1489E-01  0.3424E-03  0.3424E-03  0.5243E-03  0.5243E-03  0.3424E-03  0.3424E-03  0.7885E-05  0.7884E-05  0.1229E-04  0.1228E-04  0.5440E-05  0.5420E-05  0.1229E-04  0.1228E-04  0.3134E-05  0.3127E-05
     -1.705  0.1348E-01  0.1348E-01  0.3618E-03  0.3618E-03  0.5961E-03  0.5961E-03  0.3618E-03  0.3618E-03  0.1005E-04  0.1004E-04  0.1577E-04  0.1576E-04  0.6500E-05  0.6480E-05  0.1577E-04  0.1576E-04  0.3846E-05  0.3837E-05
     -1.646  0.1529E-01  0.1529E-01  0.4906E-03  0.4905E-03  0.7792E-03  0.7792E-03  0.4906E-03  0.4905E-03  0.1508E-04  0.1507E-04  0.2347E-04  0.2345E-04  0.9598E-05  0.9571E-05  0.2347E-04  0.2345E-04  0.6538E-05  0.6525E-05
     -1.588  0.1804E-01  0.1804E-01  0.6758E-03  0.6756E-03  0.9002E-03  0.9002E-03  0.6758E-03  0.6756E-03  0.2067E-04  0.2067E-04  0.3117E-04  0.3115E-04  0.1368E-04  0.1364E-04  0.3117E-04  0.3115E-04  0.1139E-04  0.1137E-04
     -1.529  0.1840E-01  0.1840E-01  0.7954E-03  0.7953E-03  0.8582E-03  0.8582E-03  0.7954E-03  0.7953E-03  0.2386E-04  0.2385E-04  0.3491E-04  0.3489E-04  0.1690E-04  0.1685E-04  0.3491E-04  0.3489E-04  0.1641E-04  0.1639E-04
     -1.471  0.1781E-01  0.1781E-01  0.8423E-03  0.8423E-03  0.8972E-03  0.8971E-03  0.8423E-03  0.8423E-03  0.2822E-04  0.2821E-04  0.4153E-04  0.4151E-04  0.1859E-04  0.1855E-04  0.4153E-04  0.4151E-04  0.1822E-04  0.1820E-04
     -1.413  0.1794E-01  0.1794E-01  0.8742E-03  0.8741E-03  0.1106E-02  0.1106E-02  0.8742E-03  0.8741E-03  0.3717E-04  0.3716E-04  0.5395E-04  0.5393E-04  0.1967E-04  0.1964E-04  0.5395E-04  0.5393E-04  0.1694E-04  0.1692E-04
     -1.354  0.1863E-01  0.1863E-01  0.9740E-03  0.9738E-03  0.1238E-02  0.1238E-02  0.9740E-03  0.9738E-03  0.5185E-04  0.5183E-04  0.6571E-04  0.6568E-04  0.2183E-04  0.2180E-04  0.6571E-04  0.6568E-04  0.1721E-04  0.1719E-04
     -1.296  0.1886E-01  0.1886E-01  0.1102E-02  0.1102E-02  0.1200E-02  0.1200E-02  0.1102E-02  0.1102E-02  0.6663E-04  0.6661E-04  0.7314E-04  0.7313E-04  0.2404E-04  0.2401E-04  0.7314E-04  0.7313E-04  0.1975E-04  0.1973E-04
     -1.237  0.1739E-01  0.1739E-01  0.1095E-02  0.1094E-02  0.1167E-02  0.1167E-02  0.1095E-02  0.1094E-02  0.6684E-04  0.6684E-04  0.7654E-04  0.7653E-04  0.2498E-04  0.2495E-04  0.7654E-04  0.7653E-04  0.2225E-04  0.2224E-04
     -1.179  0.1674E-01  0.1674E-01  0.1112E-02  0.1111E-02  0.1351E-02  0.1351E-02  0.1112E-02  0.1111E-02  0.6100E-04  0.6098E-04  0.8640E-04  0.8639E-04  0.3061E-04  0.3058E-04  0.8640E-04  0.8639E-04  0.2979E-04  0.2977E-04
     -1.121  0.1982E-01  0.1982E-01  0.1432E-02  0.1432E-02  0.1774E-02  0.1774E-02  0.1432E-02  0.1432E-02  0.7518E-04  0.7515E-04  0.1115E-03  0.1115E-03  0.4722E-04  0.4717E-04  0.1115E-03  0.1115E-03  0.4687E-04  0.4685E-04
     -1.062  0.2298E-01  0.2298E-01  0.1792E-02  0.1792E-02  0.2118E-02  0.2118E-02  0.1792E-02  0.1792E-02  0.1034E-03  0.1034E-03  0.1303E-03  0.1303E-03  0.6742E-04  0.6736E-04  0.1303E-03  0.1303E-03  0.6210E-04  0.6209E-04
     -1.004  0.2257E-01  0.2257E-01  0.1863E-02  0.1863E-02  0.2153E-02  0.2153E-02  0.1863E-02  0.1863E-02  0.1276E-03  0.1276E-03  0.1315E-03  0.1315E-03  0.7665E-04  0.7658E-04  0.1315E-03  0.1315E-03  0.6291E-04  0.6290E-04
     -0.945  0.2153E-01  0.2152E-01  0.1886E-02  0.1886E-02  0.2163E-02  0.2163E-02  0.1886E-02  0.1886E-02  0.1509E-03  0.1508E-03  0.1500E-03  0.1500E-03  0.7466E-04  0.7461E-04  0.1500E-03  0.1500E-03  0.5993E-04  0.5992E-04
     -0.887  0.2300E-01  0.2299E-01  0.2121E-02  0.2120E-02  0.2487E-02  0.2487E-02  0.2121E-02  0.2120E-02  0.1776E-03  0.1776E-03  0.2005E-03  0.2005E-03  0.7596E-04  0.7590E-04  0.2005E-03  0.2005E-03  0.6741E-04  0.6740E-04
     -0.829  0.2394E-01  0.2394E-01  0.2240E-02  0.2240E-02  0.2835E-02  0.2834E-02  0.2240E-02  0.2240E-02  0.1933E-03  0.1933E-03  0.2386E-03  0.2385E-03  0.7863E-04  0.7858E-04  0.2386E-03  0.2385E-03  0.7074E-04  0.7074E-04
     -0.770  0.2033E-01  0.2033E-01  0.1935E-02  0.1935E-02  0.2630E-02  0.2630E-02  0.1935E-02  0.1935E-02  0.1795E-03  0.1795E-03  0.2300E-03  0.2301E-03  0.6752E-04  0.6749E-04  0.2300E-03  0.2301E-03  0.5823E-04  0.5824E-04
     -0.712  0.1627E-01  0.1627E-01  0.1705E-02  0.1705E-02  0.2246E-02  0.2247E-02  0.1705E-02  0.1705E-02  0.1727E-03  0.1726E-03  0.2239E-03  0.2240E-03  0.5562E-04  0.5559E-04  0.2239E-03  0.2240E-03  0.5205E-04  0.5205E-04
     -0.653  0.1716E-01  0.1716E-01  0.2029E-02  0.2028E-02  0.2529E-02  0.2529E-02  0.2029E-02  0.2028E-02  0.2219E-03  0.2219E-03  0.2675E-03  0.2675E-03  0.7070E-04  0.7065E-04  0.2675E-03  0.2675E-03  0.6738E-04  0.6736E-04
     -0.595  0.2088E-01  0.2088E-01  0.2649E-02  0.2648E-02  0.3352E-02  0.3352E-02  0.2649E-02  0.2648E-02  0.3029E-03  0.3029E-03  0.3185E-03  0.3185E-03  0.1168E-03  0.1167E-03  0.3185E-03  0.3185E-03  0.9884E-04  0.9879E-04
     -0.536  0.2402E-01  0.2402E-01  0.3234E-02  0.3233E-02  0.4179E-02  0.4179E-02  0.3234E-02  0.3233E-02  0.3604E-03  0.3604E-03  0.3582E-03  0.3582E-03  0.1681E-03  0.1680E-03  0.3582E-03  0.3582E-03  0.1395E-03  0.1395E-03
     -0.478  0.2446E-01  0.2446E-01  0.3451E-02  0.3450E-02  0.4543E-02  0.4543E-02  0.3451E-02  0.3450E-02  0.3575E-03  0.3575E-03  0.3964E-03  0.3964E-03  0.1829E-03  0.1828E-03  0.3964E-03  0.3964E-03  0.1661E-03  0.1660E-03
     -0.420  0.2260E-01  0.2260E-01  0.3354E-02  0.3354E-02  0.4396E-02  0.4396E-02  0.3354E-02  0.3354E-02  0.3487E-03  0.3487E-03  0.4282E-03  0.4282E-03  0.1646E-03  0.1645E-03  0.4282E-03  0.4282E-03  0.1667E-03  0.1667E-03
     -0.361  0.2275E-01  0.2275E-01  0.3576E-02  0.3576E-02  0.4696E-02  0.4695E-02  0.3576E-02  0.3576E-02  0.4146E-03  0.4146E-03  0.5043E-03  0.5043E-03  0.1649E-03  0.1648E-03  0.5043E-03  0.5043E-03  0.1705E-03  0.1705E-03
     -0.303  0.2329E-01  0.2329E-01  0.3818E-02  0.3818E-02  0.5260E-02  0.5260E-02  0.3818E-02  0.3818E-02  0.4746E-03  0.4746E-03  0.5799E-03  0.5799E-03  0.1762E-03  0.1761E-03  0.5799E-03  0.5799E-03  0.1766E-03  0.1765E-03
     -0.244  0.1999E-01  0.1999E-01  0.3440E-02  0.3440E-02  0.5026E-02  0.5027E-02  0.3440E-02  0.3440E-02  0.4628E-03  0.4628E-03  0.5673E-03  0.5673E-03  0.1521E-03  0.1521E-03  0.5673E-03  0.5673E-03  0.1539E-03  0.1539E-03
     -0.186  0.1725E-01  0.1724E-01  0.3195E-02  0.3195E-02  0.4988E-02  0.4989E-02  0.3195E-02  0.3195E-02  0.5046E-03  0.5046E-03  0.6060E-03  0.6060E-03  0.1233E-03  0.1233E-03  0.6060E-03  0.6060E-03  0.1294E-03  0.1294E-03
     -0.128  0.1819E-01  0.1819E-01  0.3565E-02  0.3565E-02  0.5945E-02  0.5945E-02  0.3565E-02  0.3565E-02  0.6368E-03  0.6367E-03  0.7654E-03  0.7653E-03  0.1350E-03  0.1349E-03  0.7654E-03  0.7653E-03  0.1338E-03  0.1338E-03
     -0.069  0.1918E-01  0.1917E-01  0.3875E-02  0.3875E-02  0.6824E-02  0.6824E-02  0.3875E-02  0.3875E-02  0.7432E-03  0.7431E-03  0.8905E-03  0.8904E-03  0.1655E-03  0.1655E-03  0.8905E-03  0.8904E-03  0.1426E-03  0.1426E-03