  16  16   1   0
  0.1860490E+02  0.4108545E-09  0.4108545E-09  0.1763483E-08  0.5000000E-15
  1.000000000000000E-004
  CAR 
 unknown system                          
     10.14021151     -4.08604562  301      6.14937111      1.00000000
     -4.086  0.0000E+00  0.0000E+00  0.0000E+00  0.0000E+00
     -4.039  0.0000E+00  0.0000E+00  0.0000E+00  0.0000E+00
     -3.991  0.0000E+00  0.0000E+00  0.0000E+00  0.0000E+00
     -3.944  0.0000E+00  0.0000E+00  0.0000E+00  0.0000E+00
     -3.896  0.0000E+00  0.0000E+00  0.0000E+00  0.0000E+00
     -3.849  0.1153E-04  0.1137E-04  0.5465E-06  0.5394E-06
     -3.802  0.8138E-04  0.8031E-04  0.4406E-05  0.4348E-05
     -3.754  0.2624E-03  0.2590E-03  0.1685E-04  0.1663E-04
     -3.707  0.6315E-03  0.6233E-03  0.4680E-04  0.4618E-04
     -3.659  0.1603E-02  0.1582E-02  0.1228E-03  0.1212E-03
     -3.612  0.4231E-02  0.4176E-02  0.3234E-03  0.3192E-03
     -3.564  0.1064E-01  0.1051E-01  0.8282E-03  0.8176E-03
     -3.517  0.2575E-01  0.2544E-01  0.2049E-02  0.2024E-02
     -3.470  0.5845E-01  0.5783E-01  0.4821E-02  0.4766E-02
     -3.422  0.1175E+00  0.1165E+00  0.1039E-01  0.1029E-01
     -3.375  0.2002E+00  0.1990E+00  0.1989E-01  0.1973E-01
     -3.327  0.2852E+00  0.2841E+00  0.3341E-01  0.3320E-01
     -3.280  0.3568E+00  0.3559E+00  0.5033E-01  0.5008E-01
     -3.232  0.4329E+00  0.4318E+00  0.7086E-01  0.7055E-01
     -3.185  0.5271E+00  0.5259E+00  0.9586E-01  0.9549E-01
     -3.138  0.5929E+00  0.5926E+00  0.1240E+00  0.1236E+00
     -3.090  0.5961E+00  0.5966E+00  0.1522E+00  0.1519E+00
     -3.043  0.6046E+00  0.6044E+00  0.1809E+00  0.1806E+00
     -2.995  0.6763E+00  0.6752E+00  0.2130E+00  0.2126E+00
     -2.948  0.7522E+00  0.7510E+00  0.2487E+00  0.2482E+00
     -2.901  0.7783E+00  0.7773E+00  0.2856E+00  0.2851E+00
     -2.853  0.7868E+00  0.7858E+00  0.3229E+00  0.3223E+00
     -2.806  0.8094E+00  0.8079E+00  0.3613E+00  0.3607E+00
     -2.758  0.8356E+00  0.8342E+00  0.4009E+00  0.4002E+00
     -2.711  0.8375E+00  0.8367E+00  0.4407E+00  0.4399E+00
     -2.663  0.8259E+00  0.8246E+00  0.4798E+00  0.4790E+00
     -2.616  0.8796E+00  0.8768E+00  0.5216E+00  0.5206E+00
     -2.569  0.1007E+01  0.1004E+01  0.5694E+00  0.5683E+00
     -2.521  0.1095E+01  0.1094E+01  0.6213E+00  0.6202E+00
     -2.474  0.1104E+01  0.1103E+01  0.6737E+00  0.6725E+00
     -2.426  0.1127E+01  0.1124E+01  0.7271E+00  0.7258E+00
     -2.379  0.1180E+01  0.1178E+01  0.7831E+00  0.7817E+00
     -2.331  0.1148E+01  0.1150E+01  0.8376E+00  0.8363E+00
     -2.284  0.1025E+01  0.1028E+01  0.8862E+00  0.8851E+00
     -2.237  0.9909E+00  0.9895E+00  0.9332E+00  0.9320E+00
     -2.189  0.1124E+01  0.1118E+01  0.9865E+00  0.9850E+00
     -2.142  0.1316E+01  0.1310E+01  0.1049E+01  0.1047E+01
     -2.094  0.1443E+01  0.1440E+01  0.1117E+01  0.1116E+01
     -2.047  0.1457E+01  0.1456E+01  0.1187E+01  0.1185E+01
     -2.000  0.1454E+01  0.1451E+01  0.1256E+01  0.1253E+01
     -1.952  0.1497E+01  0.1495E+01  0.1327E+01  0.1324E+01
     -1.905  0.1464E+01  0.1466E+01  0.1396E+01  0.1394E+01
     -1.857  0.1363E+01  0.1366E+01  0.1461E+01  0.1459E+01
     -1.810  0.1375E+01  0.1373E+01  0.1526E+01  0.1524E+01
     -1.762  0.1489E+01  0.1484E+01  0.1597E+01  0.1594E+01
     -1.715  0.1580E+01  0.1576E+01  0.1672E+01  0.1669E+01
     -1.668  0.1640E+01  0.1636E+01  0.1749E+01  0.1747E+01
     -1.620  0.1684E+01  0.1681E+01  0.1829E+01  0.1826E+01
     -1.573  0.1686E+01  0.1686E+01  0.1909E+01  0.1906E+01
     -1.525  0.1638E+01  0.1640E+01  0.1987E+01  0.1984E+01
     -1.478  0.1603E+01  0.1603E+01  0.2063E+01  0.2060E+01
     -1.430  0.1658E+01  0.1653E+01  0.2142E+01  0.2139E+01
     -1.383  0.1770E+01  0.1765E+01  0.2226E+01  0.2223E+01
     -1.336  0.1805E+01  0.1805E+01  0.2311E+01  0.2308E+01
     -1.288  0.1688E+01  0.1693E+01  0.2391E+01  0.2389E+01
     -1.241  0.1530E+01  0.1535E+01  0.2464E+01  0.2461E+01
     -1.193  0.1419E+01  0.1423E+01  0.2531E+01  0.2529E+01
     -1.146  0.1307E+01  0.1311E+01  0.2593E+01  0.2591E+01
     -1.099  0.1229E+01  0.1230E+01  0.2652E+01  0.2649E+01
     -1.051  0.1266E+01  0.1263E+01  0.2712E+01  0.2709E+01
     -1.004  0.1415E+01  0.1407E+01  0.2779E+01  0.2776E+01
     -0.956  0.1598E+01  0.1591E+01  0.2855E+01  0.2852E+01
     -0.909  0.1682E+01  0.1683E+01  0.2934E+01  0.2932E+01
     -0.861  0.1616E+01  0.1623E+01  0.3011E+01  0.3008E+01
     -0.814  0.1530E+01  0.1534E+01  0.3084E+01  0.3081E+01
     -0.767  0.1518E+01  0.1521E+01  0.3156E+01  0.3153E+01
     -0.719  0.1553E+01  0.1556E+01  0.3229E+01  0.3227E+01
     -0.672  0.1620E+01  0.1624E+01  0.3306E+01  0.3304E+01
     -0.624  0.1722E+01  0.1723E+01  0.3388E+01  0.3386E+01
     -0.577  0.1837E+01  0.1837E+01  0.3475E+01  0.3473E+01
     -0.529  0.1915E+01  0.1917E+01  0.3566E+01  0.3564E+01
     -0.482  0.1895E+01  0.1900E+01  0.3656E+01  0.3654E+01
     -0.435  0.1782E+01  0.1785E+01  0.3740E+01  0.3739E+01
     -0.387  0.1704E+01  0.1702E+01  0.3821E+01  0.3820E+01
     -0.340  0.1769E+01  0.1764E+01  0.3905E+01  0.3903E+01
     -0.292  0.1884E+01  0.1881E+01  0.3994E+01  0.3993E+01
     -0.245  0.1920E+01  0.1921E+01  0.4086E+01  0.4084E+01
     -0.198  0.1892E+01  0.1894E+01  0.4175E+01  0.4174E+01
     -0.150  0.1919E+01  0.1918E+01  0.4266E+01  0.4265E+01
     -0.103  0.2055E+01  0.2053E+01  0.4364E+01  0.4362E+01
     -0.055  0.2204E+01  0.2200E+01  0.4469E+01  0.4466E+01
     -0.008  0.2334E+01  0.2330E+01  0.4579E+01  0.4577E+01
      0.040  0.2434E+01  0.2432E+01  0.4695E+01  0.4692E+01
      0.087  0.2429E+01  0.2432E+01  0.4810E+01  0.4808E+01
      0.134  0.2367E+01  0.2370E+01  0.4922E+01  0.4920E+01
      0.182  0.2333E+01  0.2335E+01  0.5033E+01  0.5031E+01
      0.229  0.2266E+01  0.2272E+01  0.5140E+01  0.5139E+01
      0.277  0.2129E+01  0.2138E+01  0.5241E+01  0.5240E+01
      0.324  0.2073E+01  0.2076E+01  0.5340E+01  0.5339E+01
      0.372  0.2149E+01  0.2148E+01  0.5442E+01  0.5440E+01
      0.419  0.2154E+01  0.2154E+01  0.5544E+01  0.5543E+01
      0.466  0.2005E+01  0.2005E+01  0.5639E+01  0.5638E+01
      0.514  0.1917E+01  0.1914E+01  0.5730E+01  0.5729E+01
      0.561  0.2003E+01  0.1999E+01  0.5825E+01  0.5824E+01
      0.609  0.2098E+01  0.2100E+01  0.5925E+01  0.5923E+01
      0.656  0.2088E+01  0.2094E+01  0.6024E+01  0.6023E+01
      0.703  0.2029E+01  0.2036E+01  0.6120E+01  0.6119E+01
      0.751  0.1952E+01  0.1958E+01  0.6213E+01  0.6212E+01
      0.798  0.1889E+01  0.1895E+01  0.6302E+01  0.6302E+01
      0.846  0.1930E+01  0.1936E+01  0.6394E+01  0.6394E+01
      0.893  0.2187E+01  0.2196E+01  0.6498E+01  0.6498E+01
      0.941  0.2613E+01  0.2625E+01  0.6622E+01  0.6623E+01
      0.988  0.2934E+01  0.2942E+01  0.6761E+01  0.6762E+01
      1.035  0.2956E+01  0.2957E+01  0.6901E+01  0.6902E+01
      1.083  0.2755E+01  0.2754E+01  0.7032E+01  0.7033E+01
      1.130  0.2479E+01  0.2476E+01  0.7149E+01  0.7151E+01
      1.178  0.2203E+01  0.2201E+01  0.7254E+01  0.7255E+01
      1.225  0.2024E+01  0.2024E+01  0.7350E+01  0.7351E+01
      1.273  0.2000E+01  0.2002E+01  0.7445E+01  0.7446E+01
      1.320  0.2136E+01  0.2137E+01  0.7546E+01  0.7547E+01
      1.367  0.2403E+01  0.2403E+01  0.7660E+01  0.7661E+01
      1.415  0.2672E+01  0.2671E+01  0.7787E+01  0.7788E+01
      1.462  0.2829E+01  0.2829E+01  0.7921E+01  0.7922E+01
      1.510  0.2890E+01  0.2892E+01  0.8058E+01  0.8060E+01
      1.557  0.2890E+01  0.2893E+01  0.8195E+01  0.8197E+01
      1.604  0.2836E+01  0.2838E+01  0.8330E+01  0.8331E+01
      1.652  0.2779E+01  0.2784E+01  0.8462E+01  0.8463E+01
      1.699  0.2898E+01  0.2909E+01  0.8599E+01  0.8601E+01
      1.747  0.3178E+01  0.3192E+01  0.8750E+01  0.8753E+01
      1.794  0.3317E+01  0.3325E+01  0.8907E+01  0.8911E+01
      1.842  0.3195E+01  0.3198E+01  0.9059E+01  0.9062E+01
      1.889  0.2961E+01  0.2964E+01  0.9199E+01  0.9203E+01
      1.936  0.2704E+01  0.2710E+01  0.9328E+01  0.9332E+01
      1.984  0.2450E+01  0.2457E+01  0.9444E+01  0.9448E+01
      2.031  0.2217E+01  0.2221E+01  0.9549E+01  0.9554E+01
      2.079  0.2034E+01  0.2034E+01  0.9646E+01  0.9650E+01
      2.126  0.2009E+01  0.2015E+01  0.9741E+01  0.9746E+01
      2.174  0.2163E+01  0.2173E+01  0.9844E+01  0.9849E+01
      2.221  0.2334E+01  0.2339E+01  0.9955E+01  0.9960E+01
      2.268  0.2378E+01  0.2378E+01  0.1007E+02  0.1007E+02
      2.316  0.2321E+01  0.2325E+01  0.1018E+02  0.1018E+02
      2.363  0.2314E+01  0.2327E+01  0.1029E+02  0.1029E+02
      2.411  0.2426E+01  0.2442E+01  0.1040E+02  0.1041E+02
      2.458  0.2544E+01  0.2558E+01  0.1052E+02  0.1053E+02
      2.505  0.2579E+01  0.2594E+01  0.1065E+02  0.1065E+02
      2.553  0.2645E+01  0.2663E+01  0.1077E+02  0.1078E+02
      2.600  0.2818E+01  0.2838E+01  0.1090E+02  0.1091E+02
      2.648  0.3005E+01  0.3016E+01  0.1105E+02  0.1106E+02
      2.695  0.3048E+01  0.3044E+01  0.1119E+02  0.1120E+02
      2.743  0.2923E+01  0.2910E+01  0.1133E+02  0.1134E+02
      2.790  0.2778E+01  0.2773E+01  0.1146E+02  0.1147E+02
      2.837  0.2776E+01  0.2791E+01  0.1159E+02  0.1160E+02
      2.885  0.2964E+01  0.3002E+01  0.1173E+02  0.1175E+02
      2.932  0.3254E+01  0.3296E+01  0.1189E+02  0.1190E+02
      2.980  0.3452E+01  0.3477E+01  0.1205E+02  0.1207E+02
      3.027  0.3512E+01  0.3524E+01  0.1222E+02  0.1224E+02
      3.075  0.3532E+01  0.3538E+01  0.1239E+02  0.1240E+02
      3.122  0.3531E+01  0.3530E+01  0.1255E+02  0.1257E+02
      3.169  0.3458E+01  0.3451E+01  0.1272E+02  0.1273E+02
      3.217  0.3343E+01  0.3345E+01  0.1288E+02  0.1289E+02
      3.264  0.3338E+01  0.3374E+01  0.1304E+02  0.1305E+02
      3.312  0.3562E+01  0.3625E+01  0.1320E+02  0.1322E+02
      3.359  0.3920E+01  0.3972E+01  0.1339E+02  0.1341E+02
      3.406  0.4122E+01  0.4133E+01  0.1359E+02  0.1361E+02
      3.454  0.4014E+01  0.4003E+01  0.1378E+02  0.1380E+02
      3.501  0.3764E+01  0.3758E+01  0.1396E+02  0.1398E+02
      3.549  0.3629E+01  0.3647E+01  0.1413E+02  0.1415E+02
      3.596  0.3748E+01  0.3802E+01  0.1431E+02  0.1433E+02
      3.644  0.4101E+01  0.4185E+01  0.1450E+02  0.1453E+02
      3.691  0.4473E+01  0.4546E+01  0.1471E+02  0.1475E+02
      3.738  0.4584E+01  0.4613E+01  0.1493E+02  0.1496E+02
      3.786  0.4456E+01  0.4476E+01  0.1514E+02  0.1518E+02
      3.833  0.4435E+01  0.4485E+01  0.1535E+02  0.1539E+02
      3.881  0.4594E+01  0.4641E+01  0.1557E+02  0.1561E+02
      3.928  0.4662E+01  0.4682E+01  0.1579E+02  0.1583E+02
      3.976  0.4587E+01  0.4604E+01  0.1601E+02  0.1605E+02
      4.023  0.4471E+01  0.4486E+01  0.1622E+02  0.1626E+02
      4.070  0.4332E+01  0.4337E+01  0.1643E+02  0.1647E+02
      4.118  0.4167E+01  0.4173E+01  0.1662E+02  0.1667E+02
      4.165  0.4037E+01  0.4090E+01  0.1681E+02  0.1686E+02
      4.213  0.4157E+01  0.4282E+01  0.1701E+02  0.1706E+02
      4.260  0.4510E+01  0.4651E+01  0.1723E+02  0.1728E+02
      4.307  0.4805E+01  0.4887E+01  0.1745E+02  0.1752E+02
      4.355  0.4861E+01  0.4871E+01  0.1768E+02  0.1775E+02
      4.402  0.4817E+01  0.4852E+01  0.1791E+02  0.1798E+02
      4.450  0.4981E+01  0.5123E+01  0.1815E+02  0.1822E+02
      4.497  0.5442E+01  0.5680E+01  0.1841E+02  0.1849E+02
      4.545  0.6091E+01  0.6358E+01  0.1870E+02  0.1879E+02
      4.592  0.6666E+01  0.6868E+01  0.1901E+02  0.1912E+02
      4.639  0.6945E+01  0.7073E+01  0.1934E+02  0.1945E+02
      4.687  0.7069E+01  0.7205E+01  0.1968E+02  0.1980E+02
      4.734  0.7267E+01  0.7449E+01  0.2002E+02  0.2015E+02
      4.782  0.7536E+01  0.7767E+01  0.2038E+02  0.2052E+02
      4.829  0.7774E+01  0.7964E+01  0.2075E+02  0.2089E+02
      4.876  0.7735E+01  0.7727E+01  0.2112E+02  0.2126E+02
      4.924  0.7222E+01  0.7053E+01  0.2146E+02  0.2160E+02
      4.971  0.6513E+01  0.6381E+01  0.2177E+02  0.2190E+02
      5.019  0.6020E+01  0.5999E+01  0.2205E+02  0.2218E+02
      5.066  0.5848E+01  0.5932E+01  0.2233E+02  0.2246E+02
      5.114  0.5972E+01  0.6149E+01  0.2261E+02  0.2276E+02
      5.161  0.6287E+01  0.6468E+01  0.2291E+02  0.2306E+02
      5.208  0.6547E+01  0.6664E+01  0.2322E+02  0.2338E+02
      5.256  0.6592E+01  0.6621E+01  0.2354E+02  0.2369E+02
      5.303  0.6413E+01  0.6422E+01  0.2384E+02  0.2400E+02
      5.351  0.6225E+01  0.6242E+01  0.2414E+02  0.2429E+02
      5.398  0.6043E+01  0.5907E+01  0.2442E+02  0.2458E+02
      5.446  0.5579E+01  0.5256E+01  0.2469E+02  0.2482E+02
      5.493  0.4856E+01  0.4523E+01  0.2492E+02  0.2504E+02
      5.540  0.4212E+01  0.4066E+01  0.2512E+02  0.2523E+02
      5.588  0.3931E+01  0.4002E+01  0.2530E+02  0.2542E+02
      5.635  0.3975E+01  0.4107E+01  0.2549E+02  0.2562E+02
      5.683  0.4092E+01  0.4212E+01  0.2569E+02  0.2582E+02
      5.730  0.4203E+01  0.4335E+01  0.2589E+02  0.2602E+02
      5.777  0.4325E+01  0.4397E+01  0.2609E+02  0.2623E+02
      5.825  0.4337E+01  0.4331E+01  0.2630E+02  0.2644E+02
      5.872  0.4261E+01  0.4318E+01  0.2650E+02  0.2664E+02
      5.920  0.4318E+01  0.4507E+01  0.2670E+02  0.2686E+02
      5.967  0.4598E+01  0.4873E+01  0.2692E+02  0.2709E+02
      6.015  0.4986E+01  0.5236E+01  0.2716E+02  0.2734E+02
      6.062  0.5285E+01  0.5488E+01  0.2741E+02  0.2760E+02
      6.109  0.5482E+01  0.5723E+01  0.2767E+02  0.2787E+02
      6.157  0.5693E+01  0.5925E+01  0.2794E+02  0.2815E+02
      6.204  0.5866E+01  0.6114E+01  0.2822E+02  0.2844E+02
      6.252  0.6087E+01  0.6668E+01  0.2851E+02  0.2875E+02
      6.299  0.6747E+01  0.7845E+01  0.2883E+02  0.2913E+02
      6.347  0.7982E+01  0.9611E+01  0.2921E+02  0.2958E+02
      6.394  0.9719E+01  0.1195E+02  0.2967E+02  0.3015E+02
      6.441  0.1197E+02  0.1459E+02  0.3023E+02  0.3084E+02
      6.489  0.1450E+02  0.1666E+02  0.3092E+02  0.3163E+02
      6.536  0.1651E+02  0.1705E+02  0.3171E+02  0.3244E+02
      6.584  0.1699E+02  0.1541E+02  0.3251E+02  0.3317E+02
      6.631  0.1548E+02  0.1265E+02  0.3324E+02  0.3377E+02
      6.678  0.1276E+02  0.1003E+02  0.3385E+02  0.3425E+02
      6.726  0.1013E+02  0.8070E+01  0.3433E+02  0.3463E+02
      6.773  0.8085E+01  0.6511E+01  0.3471E+02  0.3494E+02
      6.821  0.6408E+01  0.5254E+01  0.3502E+02  0.3519E+02
      6.868  0.5147E+01  0.4500E+01  0.3526E+02  0.3540E+02
      6.916  0.4501E+01  0.4241E+01  0.3548E+02  0.3560E+02
      6.963  0.4345E+01  0.4242E+01  0.3568E+02  0.3581E+02
      7.010  0.4374E+01  0.4278E+01  0.3589E+02  0.3601E+02
      7.058  0.4384E+01  0.4259E+01  0.3610E+02  0.3621E+02
      7.105  0.4308E+01  0.4239E+01  0.3630E+02  0.3641E+02
      7.153  0.4282E+01  0.4401E+01  0.3651E+02  0.3662E+02
      7.200  0.4555E+01  0.4929E+01  0.3672E+02  0.3686E+02
      7.248  0.5225E+01  0.5738E+01  0.3697E+02  0.3713E+02
      7.295  0.6043E+01  0.6410E+01  0.3726E+02  0.3743E+02
      7.342  0.6602E+01  0.6754E+01  0.3757E+02  0.3775E+02
      7.390  0.6961E+01  0.7130E+01  0.3790E+02  0.3809E+02
      7.437  0.7392E+01  0.7662E+01  0.3825E+02  0.3845E+02
      7.485  0.7706E+01  0.7935E+01  0.3862E+02  0.3883E+02
      7.532  0.7600E+01  0.7689E+01  0.3898E+02  0.3919E+02
      7.579  0.7127E+01  0.7070E+01  0.3932E+02  0.3953E+02
      7.627  0.6376E+01  0.6167E+01  0.3962E+02  0.3982E+02
      7.674  0.5430E+01  0.5197E+01  0.3988E+02  0.4007E+02
      7.722  0.4539E+01  0.4463E+01  0.4009E+02  0.4028E+02
      7.769  0.3904E+01  0.4077E+01  0.4028E+02  0.4047E+02
      7.817  0.3612E+01  0.4098E+01  0.4045E+02  0.4067E+02
      7.864  0.3708E+01  0.4382E+01  0.4062E+02  0.4088E+02
      7.911  0.3956E+01  0.4520E+01  0.4081E+02  0.4109E+02
      7.959  0.4029E+01  0.4328E+01  0.4100E+02  0.4130E+02
      8.006  0.3934E+01  0.4062E+01  0.4119E+02  0.4149E+02
      8.054  0.3860E+01  0.3999E+01  0.4137E+02  0.4168E+02
      8.101  0.3815E+01  0.4032E+01  0.4155E+02  0.4187E+02
      8.149  0.3616E+01  0.3905E+01  0.4173E+02  0.4206E+02
      8.196  0.3325E+01  0.3662E+01  0.4188E+02  0.4223E+02
      8.243  0.3141E+01  0.3445E+01  0.4203E+02  0.4239E+02
      8.291  0.3091E+01  0.3308E+01  0.4218E+02  0.4255E+02
      8.338  0.3126E+01  0.3229E+01  0.4233E+02  0.4270E+02
      8.386  0.3206E+01  0.3133E+01  0.4248E+02  0.4285E+02
      8.433  0.3329E+01  0.3039E+01  0.4264E+02  0.4300E+02
      8.480  0.3422E+01  0.2983E+01  0.4280E+02  0.4314E+02
      8.528  0.3291E+01  0.2824E+01  0.4296E+02  0.4327E+02
      8.575  0.2879E+01  0.2410E+01  0.4309E+02  0.4339E+02
      8.623  0.2375E+01  0.1882E+01  0.4321E+02  0.4348E+02
      8.670  0.1980E+01  0.1481E+01  0.4330E+02  0.4355E+02
      8.718  0.1783E+01  0.1308E+01  0.4338E+02  0.4361E+02
      8.765  0.1773E+01  0.1275E+01  0.4347E+02  0.4367E+02
      8.812  0.1758E+01  0.1235E+01  0.4355E+02  0.4373E+02
      8.860  0.1576E+01  0.1126E+01  0.4363E+02  0.4378E+02
      8.907  0.1301E+01  0.9664E+00  0.4369E+02  0.4383E+02
      8.955  0.1058E+01  0.8203E+00  0.4374E+02  0.4387E+02
      9.002  0.8638E+00  0.7214E+00  0.4378E+02  0.4390E+02
      9.050  0.7099E+00  0.6391E+00  0.4381E+02  0.4393E+02
      9.097  0.6270E+00  0.5256E+00  0.4384E+02  0.4396E+02
      9.144  0.5820E+00  0.3823E+00  0.4387E+02  0.4397E+02
      9.192  0.5190E+00  0.2482E+00  0.4390E+02  0.4399E+02
      9.239  0.4621E+00  0.1500E+00  0.4392E+02  0.4399E+02
      9.287  0.4124E+00  0.8398E-01  0.4394E+02  0.4400E+02
      9.334  0.3282E+00  0.4149E-01  0.4395E+02  0.4400E+02
      9.381  0.2261E+00  0.1839E-01  0.4396E+02  0.4400E+02
      9.429  0.1716E+00  0.7420E-02  0.4397E+02  0.4400E+02
      9.476  0.1722E+00  0.2634E-02  0.4398E+02  0.4400E+02
      9.524  0.1699E+00  0.8480E-03  0.4399E+02  0.4400E+02
      9.571  0.1250E+00  0.2751E-03  0.4399E+02  0.4400E+02
      9.619  0.6814E-01  0.1068E-03  0.4400E+02  0.4400E+02
      9.666  0.3070E-01  0.0000E+00  0.4400E+02  0.4400E+02
      9.713  0.1241E-01  0.0000E+00  0.4400E+02  0.4400E+02
      9.761  0.4935E-02  0.0000E+00  0.4400E+02  0.4400E+02
      9.808  0.1932E-02  0.0000E+00  0.4400E+02  0.4400E+02
      9.856  0.7512E-03  0.0000E+00  0.4400E+02  0.4400E+02
      9.903  0.0000E+00  0.0000E+00  0.4400E+02  0.4400E+02
      9.951  0.0000E+00  0.0000E+00  0.4400E+02  0.4400E+02
      9.998  0.0000E+00  0.0000E+00  0.4400E+02  0.4400E+02
     10.045  0.0000E+00  0.0000E+00  0.4400E+02  0.4400E+02
     10.093  0.0000E+00  0.0000E+00  0.4400E+02  0.4400E+02
     10.140  0.0000E+00  0.0000E+00  0.4400E+02  0.4400E+02
     10.14021151     -4.08604562  301      6.14937111      1.00000000
     -4.086  0.0000E+00  0.0000E+00  0.0000E+00  0.0000E+00  0.0000E+00  0.0000E+00  0.0000E+00  0.0000E+00  0.0000E+00  0.0000E+00  0.0000E+00  0.0000E+00  0.0000E+00  0.0000E+00  0.0000E+00  0.0000E+00  0.0000E+00  0.0000E+00
     -4.039  0.0000E+00  0.0000E+00  0.0000E+00  0.0000E+00  0.0000E+00  0.0000E+00  0.0000E+00  0.0000E+00  0.0000E+00  0.0000E+00  0.0000E+00  0.0000E+00  0.0000E+00  0.0000E+00  0.0000E+00  0.0000E+00  0.0000E+00  0.0000E+00
     -3.991  0.0000E+00  0.0000E+00  0.0000E+00  0.0000E+00  0.0000E+00  0.0000E+00  0.0000E+00  0.0000E+00  0.0000E+00  0.0000E+00  0.0000E+00  0.0000E+00  0.0000E+00  0.0000E+00  0.0000E+00  0.0000E+00  0.0000E+00  0.0000E+00
     -3.944  0.0000E+00  0.0000E+00  0.0000E+00  0.0000E+00  0.0000E+00  0.0000E+00  0.0000E+00  0.0000E+00  0.0000E+00  0.0000E+00  0.0000E+00  0.0000E+00  0.0000E+00  0.0000E+00  0.0000E+00  0.0000E+00  0.0000E+00  0.0000E+00
     -3.896  0.0000E+00  0.0000E+00  0.0000E+00  0.0000E+00  0.0000E+00  0.0000E+00  0.0000E+00  0.0000E+00  0.0000E+00  0.0000E+00  0.0000E+00  0.0000E+00  0.0000E+00  0.0000E+00  0.0000E+00  0.0000E+00  0.0000E+00  0.0000E+00
     -3.849  0.2434E-06  0.2412E-06  0.1477E-23  0.7099E-22  0.7846E-09  0.7973E-09  0.1477E-23  0.7099E-22  0.3130E-23  0.4034E-21  0.1870E-17  0.4917E-16  0.1300E-11  0.1767E-11  0.1870E-17  0.4917E-16  0.3947E-18  0.1204E-16
     -3.802  0.1700E-05  0.1685E-05  0.4258E-08  0.4210E-08  0.1057E-07  0.1061E-07  0.4258E-08  0.4210E-08  0.4993E-20  0.8603E-20  0.3131E-10  0.3159E-10  0.2826E-10  0.3190E-10  0.3131E-10  0.3159E-10  0.1516E-10  0.1508E-10
     -3.754  0.5446E-05  0.5398E-05  0.2222E-07  0.2197E-07  0.4403E-07  0.4407E-07  0.2222E-07  0.2197E-07  0.1252E-09  0.1243E-09  0.2964E-09  0.2980E-09  0.9936E-10  0.1097E-09  0.2964E-09  0.2980E-09  0.5160E-10  0.5150E-10
     -3.707  0.1310E-04  0.1298E-04  0.5595E-07  0.5532E-07  0.1088E-06  0.1089E-06  0.5595E-07  0.5532E-07  0.4304E-09  0.4270E-09  0.8653E-09  0.8691E-09  0.2189E-09  0.2440E-09  0.8653E-09  0.8691E-09  0.1055E-09  0.1052E-09
     -3.659  0.3324E-04  0.3294E-04  0.1429E-06  0.1413E-06  0.2796E-06  0.2798E-06  0.1429E-06  0.1413E-06  0.8778E-09  0.8710E-09  0.1984E-08  0.1994E-08  0.7846E-09  0.8484E-09  0.1984E-08  0.1994E-08  0.4532E-09  0.4515E-09
     -3.612  0.8755E-04  0.8678E-04  0.4136E-06  0.4089E-06  0.7857E-06  0.7860E-06  0.4136E-06  0.4089E-06  0.3041E-08  0.3017E-08  0.6352E-08  0.6383E-08  0.2494E-08  0.2660E-08  0.6352E-08  0.6383E-08  0.1526E-08  0.1521E-08
     -3.564  0.2202E-03  0.2183E-03  0.1063E-05  0.1051E-05  0.2002E-05  0.2003E-05  0.1063E-05  0.1051E-05  0.8692E-08  0.8622E-08  0.1726E-07  0.1734E-07  0.6131E-08  0.6547E-08  0.1726E-07  0.1734E-07  0.3707E-08  0.3695E-08
     -3.517  0.5324E-03  0.5283E-03  0.2607E-05  0.2579E-05  0.4882E-05  0.4886E-05  0.2607E-05  0.2579E-05  0.2054E-07  0.2038E-07  0.4144E-07  0.4164E-07  0.1490E-07  0.1592E-07  0.4144E-07  0.4164E-07  0.9021E-08  0.8996E-08
     -3.470  0.1207E-02  0.1199E-02  0.6349E-05  0.6285E-05  0.1163E-04  0.1165E-04  0.6349E-05  0.6285E-05  0.5272E-07  0.5233E-07  0.1041E-06  0.1046E-06  0.3670E-07  0.3900E-07  0.1041E-06  0.1046E-06  0.2237E-07  0.2232E-07
     -3.422  0.2419E-02  0.2409E-02  0.1427E-04  0.1415E-04  0.2533E-04  0.2539E-04  0.1427E-04  0.1415E-04  0.1271E-06  0.1263E-06  0.2461E-06  0.2476E-06  0.8384E-07  0.8844E-07  0.2461E-06  0.2476E-06  0.5188E-07  0.5182E-07
     -3.375  0.4102E-02  0.4095E-02  0.2851E-04  0.2831E-04  0.4830E-04  0.4847E-04  0.2851E-04  0.2831E-04  0.2881E-06  0.2865E-06  0.5247E-06  0.5287E-06  0.1766E-06  0.1844E-06  0.5247E-06  0.5287E-06  0.1132E-06  0.1132E-06
     -3.327  0.5805E-02  0.5808E-02  0.4953E-04  0.4928E-04  0.8024E-04  0.8060E-04  0.4953E-04  0.4928E-04  0.5711E-06  0.5689E-06  0.9956E-06  0.1004E-05  0.3480E-06  0.3590E-06  0.9956E-06  0.1004E-05  0.2364E-06  0.2364E-06
     -3.280  0.7187E-02  0.7201E-02  0.7797E-04  0.7763E-04  0.1216E-03  0.1221E-03  0.7797E-04  0.7763E-04  0.1032E-05  0.1029E-05  0.1731E-05  0.1747E-05  0.6634E-06  0.6773E-06  0.1731E-05  0.1747E-05  0.4718E-06  0.4721E-06
     -3.232  0.8610E-02  0.8626E-02  0.1183E-03  0.1178E-03  0.1788E-03  0.1795E-03  0.1183E-03  0.1178E-03  0.1800E-05  0.1794E-05  0.2916E-05  0.2943E-05  0.1180E-05  0.1198E-05  0.2916E-05  0.2943E-05  0.8628E-06  0.8651E-06
     -3.185  0.1036E-01  0.1038E-01  0.1704E-03  0.1699E-03  0.2517E-03  0.2529E-03  0.1704E-03  0.1699E-03  0.3034E-05  0.3028E-05  0.4705E-05  0.4752E-05  0.1819E-05  0.1847E-05  0.4705E-05  0.4752E-05  0.1340E-05  0.1348E-05
     -3.138  0.1153E-01  0.1158E-01  0.2161E-03  0.2160E-03  0.3182E-03  0.3203E-03  0.2161E-03  0.2160E-03  0.4568E-05  0.4568E-05  0.6813E-05  0.6889E-05  0.2400E-05  0.2435E-05  0.6813E-05  0.6889E-05  0.1733E-05  0.1747E-05
     -3.090  0.1145E-01  0.1151E-01  0.2444E-03  0.2445E-03  0.3684E-03  0.3711E-03  0.2444E-03  0.2445E-03  0.6123E-05  0.6127E-05  0.8971E-05  0.9073E-05  0.3007E-05  0.3038E-05  0.8971E-05  0.9073E-05  0.2105E-05  0.2121E-05
     -3.043  0.1140E-01  0.1145E-01  0.2869E-03  0.2866E-03  0.4365E-03  0.4391E-03  0.2869E-03  0.2866E-03  0.8308E-05  0.8305E-05  0.1208E-04  0.1220E-04  0.4060E-05  0.4081E-05  0.1208E-04  0.1220E-04  0.2936E-05  0.2949E-05
     -2.995  0.1255E-01  0.1258E-01  0.3729E-03  0.3722E-03  0.5278E-03  0.5303E-03  0.3729E-03  0.3722E-03  0.1163E-04  0.1163E-04  0.1659E-04  0.1676E-04  0.5644E-05  0.5669E-05  0.1659E-04  0.1676E-04  0.4658E-05  0.4676E-05
     -2.948  0.1379E-01  0.1383E-01  0.4726E-03  0.4721E-03  0.5825E-03  0.5849E-03  0.4726E-03  0.4721E-03  0.1505E-04  0.1508E-04  0.2090E-04  0.2113E-04  0.7279E-05  0.7332E-05  0.2090E-04  0.2113E-04  0.7056E-05  0.7096E-05
     -2.901  0.1411E-01  0.1416E-01  0.5437E-03  0.5439E-03  0.6002E-03  0.6017E-03  0.5437E-03  0.5439E-03  0.1821E-04  0.1825E-04  0.2471E-04  0.2498E-04  0.8624E-05  0.8707E-05  0.2471E-04  0.2498E-04  0.9118E-05  0.9198E-05
     -2.853  0.1407E-01  0.1412E-01  0.5863E-03  0.5870E-03  0.6588E-03  0.6593E-03  0.5863E-03  0.5870E-03  0.2267E-04  0.2271E-04  0.3018E-04  0.3048E-04  0.9838E-05  0.9930E-05  0.3018E-04  0.3048E-04  0.9924E-05  0.1004E-04
     -2.806  0.1425E-01  0.1430E-01  0.6308E-03  0.6310E-03  0.7554E-03  0.7557E-03  0.6308E-03  0.6310E-03  0.2974E-04  0.2977E-04  0.3742E-04  0.3774E-04  0.1112E-04  0.1122E-04  0.3742E-04  0.3774E-04  0.1004E-04  0.1015E-04
     -2.758  0.1452E-01  0.1457E-01  0.6977E-03  0.6975E-03  0.8093E-03  0.8104E-03  0.6977E-03  0.6975E-03  0.3863E-04  0.3868E-04  0.4401E-04  0.4437E-04  0.1237E-04  0.1251E-04  0.4401E-04  0.4437E-04  0.1083E-04  0.1093E-04
     -2.711  0.1436E-01  0.1442E-01  0.7553E-03  0.7557E-03  0.8196E-03  0.8208E-03  0.7553E-03  0.7557E-03  0.4513E-04  0.4531E-04  0.4892E-04  0.4934E-04  0.1365E-04  0.1381E-04  0.4892E-04  0.4934E-04  0.1253E-04  0.1263E-04
     -2.663  0.1391E-01  0.1396E-01  0.7880E-03  0.7883E-03  0.8743E-03  0.8733E-03  0.7880E-03  0.7883E-03  0.4657E-04  0.4681E-04  0.5405E-04  0.5450E-04  0.1624E-04  0.1637E-04  0.5405E-04  0.5450E-04  0.1551E-04  0.1561E-04
     -2.616  0.1448E-01  0.1451E-01  0.8845E-03  0.8833E-03  0.1039E-02  0.1036E-02  0.8845E-03  0.8833E-03  0.4998E-04  0.5013E-04  0.6366E-04  0.6413E-04  0.2215E-04  0.2224E-04  0.6366E-04  0.6413E-04  0.2139E-04  0.2151E-04
     -2.569  0.1625E-01  0.1629E-01  0.1075E-02  0.1073E-02  0.1261E-02  0.1259E-02  0.1075E-02  0.1073E-02  0.6228E-04  0.6235E-04  0.7667E-04  0.7725E-04  0.3093E-04  0.3114E-04  0.7667E-04  0.7725E-04  0.2925E-04  0.2947E-04
     -2.521  0.1740E-01  0.1747E-01  0.1229E-02  0.1229E-02  0.1408E-02  0.1408E-02  0.1229E-02  0.1229E-02  0.7915E-04  0.7928E-04  0.8607E-04  0.8668E-04  0.3853E-04  0.3897E-04  0.8607E-04  0.8668E-04  0.3439E-04  0.3474E-04
     -2.474  0.1729E-01  0.1736E-01  0.1294E-02  0.1295E-02  0.1461E-02  0.1462E-02  0.1294E-02  0.1295E-02  0.9552E-04  0.9575E-04  0.9457E-04  0.9506E-04  0.4159E-04  0.4221E-04  0.9457E-04  0.9506E-04  0.3531E-04  0.3570E-04
     -2.426  0.1733E-01  0.1739E-01  0.1371E-02  0.1370E-02  0.1557E-02  0.1556E-02  0.1371E-02  0.1370E-02  0.1119E-03  0.1122E-03  0.1131E-03  0.1135E-03  0.4222E-04  0.4286E-04  0.1131E-03  0.1135E-03  0.3635E-04  0.3671E-04
     -2.379  0.1785E-01  0.1792E-01  0.1467E-02  0.1468E-02  0.1731E-02  0.1730E-02  0.1467E-02  0.1468E-02  0.1262E-03  0.1267E-03  0.1376E-03  0.1383E-03  0.4340E-04  0.4405E-04  0.1376E-03  0.1383E-03  0.3860E-04  0.3902E-04
     -2.331  0.1709E-01  0.1721E-01  0.1444E-02  0.1448E-02  0.1796E-02  0.1802E-02  0.1444E-02  0.1448E-02  0.1311E-03  0.1317E-03  0.1499E-03  0.1512E-03  0.4255E-04  0.4327E-04  0.1499E-03  0.1512E-03  0.3745E-04  0.3796E-04
     -2.284  0.1491E-01  0.1504E-01  0.1333E-02  0.1337E-02  0.1698E-02  0.1707E-02  0.1333E-02  0.1337E-02  0.1302E-03  0.1308E-03  0.1510E-03  0.1526E-03  0.3913E-04  0.3980E-04  0.1510E-03  0.1526E-03  0.3454E-04  0.3500E-04
     -2.237  0.1391E-01  0.1398E-01  0.1378E-02  0.1377E-02  0.1726E-02  0.1724E-02  0.1378E-02  0.1377E-02  0.1445E-03  0.1448E-03  0.1635E-03  0.1646E-03  0.4156E-04  0.4196E-04  0.1635E-03  0.1646E-03  0.3798E-04  0.3828E-04
     -2.189  0.1521E-01  0.1523E-01  0.1657E-02  0.1651E-02  0.2063E-02  0.2050E-02  0.1657E-02  0.1651E-02  0.1820E-03  0.1822E-03  0.1919E-03  0.1926E-03  0.5673E-04  0.5700E-04  0.1919E-03  0.1926E-03  0.5053E-04  0.5074E-04
     -2.142  0.1726E-01  0.1730E-01  0.2017E-02  0.2012E-02  0.2534E-02  0.2520E-02  0.2017E-02  0.2012E-02  0.2236E-03  0.2243E-03  0.2210E-03  0.2218E-03  0.7954E-04  0.8017E-04  0.2210E-03  0.2218E-03  0.6870E-04  0.6902E-04
     -2.094  0.1844E-01  0.1852E-01  0.2282E-02  0.2281E-02  0.2881E-02  0.2877E-02  0.2282E-02  0.2281E-02  0.2472E-03  0.2484E-03  0.2473E-03  0.2486E-03  0.9564E-04  0.9695E-04  0.2473E-03  0.2486E-03  0.8540E-04  0.8607E-04
     -2.047  0.1817E-01  0.1828E-01  0.2367E-02  0.2368E-02  0.2996E-02  0.2999E-02  0.2367E-02  0.2368E-02  0.2534E-03  0.2546E-03  0.2727E-03  0.2741E-03  0.9686E-04  0.9860E-04  0.2727E-03  0.2741E-03  0.9340E-04  0.9441E-04
     -2.000  0.1762E-01  0.1772E-01  0.2422E-02  0.2423E-02  0.3097E-02  0.3094E-02  0.2422E-02  0.2423E-02  0.2732E-03  0.2738E-03  0.3060E-03  0.3072E-03  0.9379E-04  0.9541E-04  0.3060E-03  0.3072E-03  0.9559E-04  0.9675E-04
     -1.952  0.1756E-01  0.1767E-01  0.2538E-02  0.2541E-02  0.3355E-02  0.3350E-02  0.2538E-02  0.2541E-02  0.3105E-03  0.3113E-03  0.3479E-03  0.3499E-03  0.9528E-04  0.9690E-04  0.3479E-03  0.3499E-03  0.9737E-04  0.9869E-04
     -1.905  0.1654E-01  0.1669E-01  0.2507E-02  0.2517E-02  0.3491E-02  0.3496E-02  0.2507E-02  0.2517E-02  0.3304E-03  0.3322E-03  0.3706E-03  0.3740E-03  0.9132E-04  0.9324E-04  0.3706E-03  0.3740E-03  0.9314E-04  0.9459E-04
     -1.857  0.1465E-01  0.1480E-01  0.2360E-02  0.2369E-02  0.3491E-02  0.3495E-02  0.2360E-02  0.2369E-02  0.3458E-03  0.3477E-03  0.3870E-03  0.3901E-03  0.7985E-04  0.8162E-04  0.3870E-03  0.3901E-03  0.8256E-04  0.8386E-04
     -1.810  0.1401E-01  0.1410E-01  0.2420E-02  0.2421E-02  0.3740E-02  0.3733E-02  0.2420E-02  0.2421E-02  0.4003E-03  0.4015E-03  0.4461E-03  0.4476E-03  0.7696E-04  0.7819E-04  0.4461E-03  0.4476E-03  0.7813E-04  0.7911E-04
     -1.762  0.1454E-01  0.1461E-01  0.2669E-02  0.2665E-02  0.4193E-02  0.4184E-02  0.2669E-02  0.2665E-02  0.4768E-03  0.4780E-03  0.5297E-03  0.5310E-03  0.8784E-04  0.8889E-04  0.5297E-03  0.5310E-03  0.8291E-04  0.8374E-04
     -1.715  0.1480E-01  0.1488E-01  0.2932E-02  0.2925E-02  0.4511E-02  0.4511E-02  0.2932E-02  0.2925E-02  0.5380E-03  0.5397E-03  0.5891E-03  0.5917E-03  0.1023E-03  0.1036E-03  0.5891E-03  0.5917E-03  0.9237E-04  0.9311E-04