  16  16   1   0
  0.1076673E+02  0.3423787E-09  0.3423787E-09  0.1469569E-08  0.5000000E-15
  1.000000000000000E-004
  CAR 
 unknown system                          
     18.42261310     -1.85115279  301     12.07883883      1.00000000
     -1.851  0.0000E+00  0.0000E+00  0.0000E+00  0.0000E+00
     -1.784  0.0000E+00  0.0000E+00  0.0000E+00  0.0000E+00
     -1.716  0.0000E+00  0.0000E+00  0.0000E+00  0.0000E+00
     -1.648  0.0000E+00  0.0000E+00  0.0000E+00  0.0000E+00
     -1.581  0.0000E+00  0.0000E+00  0.0000E+00  0.0000E+00
     -1.513  0.0000E+00  0.0000E+00  0.0000E+00  0.0000E+00
     -1.446  0.0000E+00  0.0000E+00  0.0000E+00  0.0000E+00
     -1.378  0.3707E-05  0.3713E-05  0.2505E-06  0.2509E-06
     -1.311  0.2881E-04  0.2885E-04  0.2198E-05  0.2201E-05
     -1.243  0.9302E-04  0.9315E-04  0.8484E-05  0.8496E-05
     -1.175  0.4738E-03  0.4744E-03  0.4050E-04  0.4056E-04
     -1.108  0.1758E-02  0.1761E-02  0.1593E-03  0.1595E-03
     -1.040  0.6491E-02  0.6500E-02  0.5980E-03  0.5988E-03
     -0.973  0.2200E-01  0.2203E-01  0.2085E-02  0.2087E-02
     -0.905  0.6115E-01  0.6121E-01  0.6217E-02  0.6224E-02
     -0.837  0.1292E+00  0.1293E+00  0.1495E-01  0.1496E-01
     -0.770  0.1998E+00  0.1998E+00  0.2845E-01  0.2846E-01
     -0.702  0.2350E+00  0.2350E+00  0.4433E-01  0.4434E-01
     -0.635  0.2616E+00  0.2616E+00  0.6200E-01  0.6202E-01
     -0.567  0.3479E+00  0.3480E+00  0.8551E-01  0.8554E-01
     -0.500  0.4456E+00  0.4457E+00  0.1156E+00  0.1157E+00
     -0.432  0.4250E+00  0.4249E+00  0.1444E+00  0.1444E+00
     -0.364  0.3497E+00  0.3497E+00  0.1680E+00  0.1680E+00
     -0.297  0.4071E+00  0.4073E+00  0.1956E+00  0.1956E+00
     -0.229  0.5325E+00  0.5326E+00  0.2315E+00  0.2316E+00
     -0.162  0.5566E+00  0.5566E+00  0.2692E+00  0.2692E+00
     -0.094  0.5273E+00  0.5273E+00  0.3048E+00  0.3049E+00
     -0.027  0.5352E+00  0.5353E+00  0.3410E+00  0.3411E+00
      0.041  0.5724E+00  0.5724E+00  0.3797E+00  0.3797E+00
      0.109  0.6047E+00  0.6047E+00  0.4206E+00  0.4206E+00
      0.176  0.5628E+00  0.5627E+00  0.4587E+00  0.4587E+00
      0.244  0.5009E+00  0.5009E+00  0.4926E+00  0.4926E+00
      0.311  0.6062E+00  0.6064E+00  0.5336E+00  0.5336E+00
      0.379  0.7842E+00  0.7843E+00  0.5866E+00  0.5866E+00
      0.447  0.8034E+00  0.8033E+00  0.6409E+00  0.6409E+00
      0.514  0.7355E+00  0.7354E+00  0.6906E+00  0.6907E+00
      0.582  0.7922E+00  0.7924E+00  0.7442E+00  0.7442E+00
      0.649  0.9128E+00  0.9129E+00  0.8059E+00  0.8059E+00
      0.717  0.8111E+00  0.8109E+00  0.8607E+00  0.8608E+00
      0.784  0.5880E+00  0.5878E+00  0.9005E+00  0.9005E+00
      0.852  0.6051E+00  0.6053E+00  0.9414E+00  0.9415E+00
      0.920  0.8004E+00  0.8006E+00  0.9956E+00  0.9956E+00
      0.987  0.9915E+00  0.9917E+00  0.1063E+01  0.1063E+01
      1.055  0.1092E+01  0.1092E+01  0.1136E+01  0.1137E+01
      1.122  0.1008E+01  0.1008E+01  0.1205E+01  0.1205E+01
      1.190  0.1005E+01  0.1005E+01  0.1273E+01  0.1273E+01
      1.257  0.1140E+01  0.1140E+01  0.1350E+01  0.1350E+01
      1.325  0.1030E+01  0.1029E+01  0.1419E+01  0.1419E+01
      1.393  0.8670E+00  0.8670E+00  0.1478E+01  0.1478E+01
      1.460  0.9901E+00  0.9904E+00  0.1545E+01  0.1545E+01
      1.528  0.1127E+01  0.1127E+01  0.1621E+01  0.1621E+01
      1.595  0.1125E+01  0.1125E+01  0.1697E+01  0.1697E+01
      1.663  0.1136E+01  0.1136E+01  0.1774E+01  0.1774E+01
      1.731  0.1195E+01  0.1195E+01  0.1855E+01  0.1855E+01
      1.798  0.1221E+01  0.1221E+01  0.1937E+01  0.1937E+01
      1.866  0.1124E+01  0.1124E+01  0.2013E+01  0.2013E+01
      1.933  0.1122E+01  0.1122E+01  0.2089E+01  0.2089E+01
      2.001  0.1349E+01  0.1349E+01  0.2180E+01  0.2181E+01
      2.068  0.1497E+01  0.1497E+01  0.2282E+01  0.2282E+01
      2.136  0.1360E+01  0.1360E+01  0.2374E+01  0.2374E+01
      2.204  0.1132E+01  0.1132E+01  0.2450E+01  0.2450E+01
      2.271  0.1078E+01  0.1078E+01  0.2523E+01  0.2523E+01
      2.339  0.1003E+01  0.1003E+01  0.2591E+01  0.2591E+01
      2.406  0.8876E+00  0.8875E+00  0.2651E+01  0.2651E+01
      2.474  0.9094E+00  0.9095E+00  0.2713E+01  0.2713E+01
      2.541  0.1097E+01  0.1097E+01  0.2787E+01  0.2787E+01
      2.609  0.1281E+01  0.1281E+01  0.2873E+01  0.2874E+01
      2.677  0.1273E+01  0.1272E+01  0.2959E+01  0.2960E+01
      2.744  0.1210E+01  0.1210E+01  0.3041E+01  0.3041E+01
      2.812  0.1261E+01  0.1261E+01  0.3127E+01  0.3127E+01
      2.879  0.1268E+01  0.1268E+01  0.3212E+01  0.3212E+01
      2.947  0.1143E+01  0.1142E+01  0.3290E+01  0.3290E+01
      3.015  0.1167E+01  0.1167E+01  0.3368E+01  0.3369E+01
      3.082  0.1450E+01  0.1450E+01  0.3467E+01  0.3467E+01
      3.150  0.1565E+01  0.1565E+01  0.3572E+01  0.3572E+01
      3.217  0.1392E+01  0.1392E+01  0.3666E+01  0.3667E+01
      3.285  0.1236E+01  0.1236E+01  0.3750E+01  0.3750E+01
      3.352  0.1219E+01  0.1219E+01  0.3832E+01  0.3833E+01
      3.420  0.1204E+01  0.1204E+01  0.3914E+01  0.3914E+01
      3.488  0.1166E+01  0.1166E+01  0.3993E+01  0.3993E+01
      3.555  0.1263E+01  0.1264E+01  0.4078E+01  0.4078E+01
      3.623  0.1398E+01  0.1398E+01  0.4173E+01  0.4173E+01
      3.690  0.1330E+01  0.1330E+01  0.4263E+01  0.4263E+01
      3.758  0.1219E+01  0.1219E+01  0.4345E+01  0.4345E+01
      3.826  0.1352E+01  0.1352E+01  0.4437E+01  0.4437E+01
      3.893  0.1456E+01  0.1456E+01  0.4535E+01  0.4535E+01
      3.961  0.1510E+01  0.1510E+01  0.4637E+01  0.4637E+01
      4.028  0.1791E+01  0.1792E+01  0.4758E+01  0.4759E+01
      4.096  0.2001E+01  0.2001E+01  0.4894E+01  0.4894E+01
      4.163  0.1944E+01  0.1944E+01  0.5025E+01  0.5025E+01
      4.231  0.1750E+01  0.1750E+01  0.5143E+01  0.5144E+01
      4.299  0.1642E+01  0.1642E+01  0.5254E+01  0.5255E+01
      4.366  0.1743E+01  0.1743E+01  0.5372E+01  0.5372E+01
      4.434  0.1717E+01  0.1717E+01  0.5488E+01  0.5489E+01
      4.501  0.1523E+01  0.1523E+01  0.5591E+01  0.5592E+01
      4.569  0.1404E+01  0.1403E+01  0.5686E+01  0.5687E+01
      4.636  0.1444E+01  0.1444E+01  0.5784E+01  0.5784E+01
      4.704  0.1649E+01  0.1649E+01  0.5896E+01  0.5896E+01
      4.772  0.1821E+01  0.1822E+01  0.6019E+01  0.6019E+01
      4.839  0.1866E+01  0.1866E+01  0.6145E+01  0.6145E+01
      4.907  0.1679E+01  0.1679E+01  0.6259E+01  0.6259E+01
      4.974  0.1479E+01  0.1479E+01  0.6359E+01  0.6359E+01
      5.042  0.1645E+01  0.1645E+01  0.6470E+01  0.6470E+01
      5.110  0.1842E+01  0.1842E+01  0.6594E+01  0.6594E+01
      5.177  0.1871E+01  0.1871E+01  0.6721E+01  0.6721E+01
      5.245  0.1949E+01  0.1950E+01  0.6853E+01  0.6853E+01
      5.312  0.1966E+01  0.1965E+01  0.6986E+01  0.6986E+01
      5.380  0.1629E+01  0.1628E+01  0.7096E+01  0.7096E+01
      5.447  0.1368E+01  0.1368E+01  0.7188E+01  0.7188E+01
      5.515  0.1495E+01  0.1495E+01  0.7289E+01  0.7289E+01
      5.583  0.1742E+01  0.1742E+01  0.7407E+01  0.7407E+01
      5.650  0.1773E+01  0.1773E+01  0.7527E+01  0.7527E+01
      5.718  0.1614E+01  0.1614E+01  0.7636E+01  0.7636E+01
      5.785  0.1541E+01  0.1541E+01  0.7740E+01  0.7741E+01
      5.853  0.1502E+01  0.1502E+01  0.7842E+01  0.7842E+01
      5.920  0.1526E+01  0.1526E+01  0.7945E+01  0.7945E+01
      5.988  0.1783E+01  0.1784E+01  0.8066E+01  0.8066E+01
      6.056  0.2294E+01  0.2294E+01  0.8221E+01  0.8221E+01
      6.123  0.2739E+01  0.2739E+01  0.8406E+01  0.8406E+01
      6.191  0.2776E+01  0.2776E+01  0.8594E+01  0.8594E+01
      6.258  0.2503E+01  0.2503E+01  0.8763E+01  0.8763E+01
      6.326  0.2430E+01  0.2430E+01  0.8927E+01  0.8927E+01
      6.394  0.2659E+01  0.2659E+01  0.9107E+01  0.9107E+01
      6.461  0.2386E+01  0.2386E+01  0.9268E+01  0.9269E+01
      6.529  0.2091E+01  0.2091E+01  0.9410E+01  0.9410E+01
      6.596  0.2211E+01  0.2212E+01  0.9560E+01  0.9560E+01
      6.664  0.2298E+01  0.2298E+01  0.9715E+01  0.9715E+01
      6.731  0.2192E+01  0.2192E+01  0.9863E+01  0.9863E+01
      6.799  0.2012E+01  0.2012E+01  0.9999E+01  0.9999E+01
      6.867  0.2009E+01  0.2009E+01  0.1014E+02  0.1014E+02
      6.934  0.2228E+01  0.2228E+01  0.1029E+02  0.1029E+02
      7.002  0.2353E+01  0.2353E+01  0.1044E+02  0.1045E+02
      7.069  0.2446E+01  0.2446E+01  0.1061E+02  0.1061E+02
      7.137  0.2672E+01  0.2672E+01  0.1079E+02  0.1079E+02
      7.204  0.2659E+01  0.2659E+01  0.1097E+02  0.1097E+02
      7.272  0.2480E+01  0.2480E+01  0.1114E+02  0.1114E+02
      7.340  0.2516E+01  0.2516E+01  0.1131E+02  0.1131E+02
      7.407  0.2732E+01  0.2732E+01  0.1149E+02  0.1149E+02
      7.475  0.2787E+01  0.2787E+01  0.1168E+02  0.1168E+02
      7.542  0.2950E+01  0.2950E+01  0.1188E+02  0.1188E+02
      7.610  0.3148E+01  0.3148E+01  0.1209E+02  0.1209E+02
      7.678  0.3086E+01  0.3086E+01  0.1230E+02  0.1230E+02
      7.745  0.3000E+01  0.3000E+01  0.1251E+02  0.1251E+02
      7.813  0.3034E+01  0.3034E+01  0.1271E+02  0.1271E+02
      7.880  0.3340E+01  0.3340E+01  0.1294E+02  0.1294E+02
      7.948  0.3612E+01  0.3612E+01  0.1318E+02  0.1318E+02
      8.015  0.3630E+01  0.3630E+01  0.1343E+02  0.1343E+02
      8.083  0.3759E+01  0.3759E+01  0.1368E+02  0.1368E+02
      8.151  0.4052E+01  0.4052E+01  0.1395E+02  0.1395E+02
      8.218  0.3989E+01  0.3989E+01  0.1422E+02  0.1422E+02
      8.286  0.3585E+01  0.3585E+01  0.1447E+02  0.1447E+02
      8.353  0.3292E+01  0.3292E+01  0.1469E+02  0.1469E+02
      8.421  0.3267E+01  0.3267E+01  0.1491E+02  0.1491E+02
      8.488  0.3323E+01  0.3324E+01  0.1514E+02  0.1514E+02
      8.556  0.3526E+01  0.3526E+01  0.1537E+02  0.1537E+02
      8.624  0.3732E+01  0.3732E+01  0.1563E+02  0.1563E+02
      8.691  0.3475E+01  0.3475E+01  0.1586E+02  0.1586E+02
      8.759  0.3121E+01  0.3121E+01  0.1607E+02  0.1607E+02
      8.826  0.3143E+01  0.3143E+01  0.1628E+02  0.1628E+02
      8.894  0.3195E+01  0.3195E+01  0.1650E+02  0.1650E+02
      8.962  0.3268E+01  0.3269E+01  0.1672E+02  0.1672E+02
      9.029  0.3352E+01  0.3352E+01  0.1695E+02  0.1695E+02
      9.097  0.3270E+01  0.3270E+01  0.1717E+02  0.1717E+02
      9.164  0.3157E+01  0.3157E+01  0.1738E+02  0.1738E+02
      9.232  0.3326E+01  0.3326E+01  0.1761E+02  0.1761E+02
      9.299  0.3327E+01  0.3327E+01  0.1783E+02  0.1783E+02
      9.367  0.3209E+01  0.3209E+01  0.1805E+02  0.1805E+02
      9.435  0.3577E+01  0.3577E+01  0.1829E+02  0.1829E+02
      9.502  0.4393E+01  0.4394E+01  0.1859E+02  0.1859E+02
      9.570  0.4923E+01  0.4923E+01  0.1892E+02  0.1892E+02
      9.637  0.5143E+01  0.5143E+01  0.1927E+02  0.1927E+02
      9.705  0.5729E+01  0.5729E+01  0.1966E+02  0.1966E+02
      9.772  0.6196E+01  0.6196E+01  0.2008E+02  0.2008E+02
      9.840  0.6031E+01  0.6031E+01  0.2048E+02  0.2048E+02
      9.908  0.5854E+01  0.5854E+01  0.2088E+02  0.2088E+02
      9.975  0.5852E+01  0.5852E+01  0.2128E+02  0.2128E+02
     10.043  0.5535E+01  0.5535E+01  0.2165E+02  0.2165E+02
     10.110  0.4782E+01  0.4781E+01  0.2197E+02  0.2197E+02
     10.178  0.4129E+01  0.4129E+01  0.2225E+02  0.2225E+02
     10.246  0.3690E+01  0.3690E+01  0.2250E+02  0.2250E+02
     10.313  0.3427E+01  0.3427E+01  0.2273E+02  0.2273E+02
     10.381  0.3319E+01  0.3319E+01  0.2296E+02  0.2296E+02
     10.448  0.3596E+01  0.3596E+01  0.2320E+02  0.2320E+02
     10.516  0.4026E+01  0.4026E+01  0.2347E+02  0.2347E+02
     10.583  0.4031E+01  0.4031E+01  0.2375E+02  0.2375E+02
     10.651  0.4125E+01  0.4125E+01  0.2403E+02  0.2403E+02
     10.719  0.4277E+01  0.4277E+01  0.2431E+02  0.2431E+02
     10.786  0.4041E+01  0.4041E+01  0.2459E+02  0.2459E+02
     10.854  0.3297E+01  0.3296E+01  0.2481E+02  0.2481E+02
     10.921  0.2799E+01  0.2799E+01  0.2500E+02  0.2500E+02
     10.989  0.2682E+01  0.2682E+01  0.2518E+02  0.2518E+02
     11.056  0.2569E+01  0.2569E+01  0.2536E+02  0.2536E+02
     11.124  0.2530E+01  0.2530E+01  0.2553E+02  0.2553E+02
     11.192  0.2555E+01  0.2555E+01  0.2570E+02  0.2570E+02
     11.259  0.2623E+01  0.2623E+01  0.2588E+02  0.2588E+02
     11.327  0.2769E+01  0.2769E+01  0.2606E+02  0.2606E+02
     11.394  0.2659E+01  0.2658E+01  0.2624E+02  0.2624E+02
     11.462  0.2426E+01  0.2426E+01  0.2641E+02  0.2641E+02
     11.530  0.2339E+01  0.2339E+01  0.2657E+02  0.2657E+02
     11.597  0.2230E+01  0.2230E+01  0.2672E+02  0.2672E+02
     11.665  0.2284E+01  0.2284E+01  0.2687E+02  0.2687E+02
     11.732  0.2531E+01  0.2531E+01  0.2704E+02  0.2704E+02
     11.800  0.2627E+01  0.2627E+01  0.2722E+02  0.2722E+02
     11.867  0.2595E+01  0.2595E+01  0.2740E+02  0.2740E+02
     11.935  0.2692E+01  0.2693E+01  0.2758E+02  0.2758E+02
     12.003  0.2889E+01  0.2889E+01  0.2777E+02  0.2777E+02
     12.070  0.2983E+01  0.2983E+01  0.2798E+02  0.2798E+02
     12.138  0.2707E+01  0.2707E+01  0.2816E+02  0.2816E+02
     12.205  0.2459E+01  0.2459E+01  0.2832E+02  0.2832E+02
     12.273  0.2510E+01  0.2510E+01  0.2849E+02  0.2849E+02
     12.340  0.2684E+01  0.2684E+01  0.2868E+02  0.2868E+02
     12.408  0.2812E+01  0.2812E+01  0.2887E+02  0.2887E+02
     12.476  0.2749E+01  0.2749E+01  0.2905E+02  0.2905E+02
     12.543  0.2961E+01  0.2961E+01  0.2925E+02  0.2925E+02
     12.611  0.3531E+01  0.3531E+01  0.2949E+02  0.2949E+02
     12.678  0.3784E+01  0.3784E+01  0.2975E+02  0.2975E+02
     12.746  0.4070E+01  0.4071E+01  0.3002E+02  0.3002E+02
     12.814  0.5068E+01  0.5069E+01  0.3036E+02  0.3036E+02
     12.881  0.6349E+01  0.6350E+01  0.3079E+02  0.3079E+02
     12.949  0.7594E+01  0.7595E+01  0.3131E+02  0.3131E+02
     13.016  0.8935E+01  0.8936E+01  0.3191E+02  0.3191E+02
     13.084  0.1048E+02  0.1048E+02  0.3262E+02  0.3262E+02
     13.151  0.1088E+02  0.1088E+02  0.3335E+02  0.3336E+02
     13.219  0.9135E+01  0.9133E+01  0.3397E+02  0.3397E+02
     13.287  0.6642E+01  0.6640E+01  0.3442E+02  0.3442E+02
     13.354  0.4886E+01  0.4885E+01  0.3475E+02  0.3475E+02
     13.422  0.4042E+01  0.4042E+01  0.3503E+02  0.3503E+02
     13.489  0.3481E+01  0.3481E+01  0.3526E+02  0.3526E+02
     13.557  0.2975E+01  0.2975E+01  0.3546E+02  0.3546E+02
     13.624  0.2710E+01  0.2709E+01  0.3565E+02  0.3565E+02
     13.692  0.2345E+01  0.2345E+01  0.3581E+02  0.3581E+02
     13.760  0.2161E+01  0.2161E+01  0.3595E+02  0.3595E+02
     13.827  0.2117E+01  0.2117E+01  0.3610E+02  0.3610E+02
     13.895  0.2136E+01  0.2136E+01  0.3624E+02  0.3624E+02
     13.962  0.2250E+01  0.2250E+01  0.3639E+02  0.3639E+02
     14.030  0.2395E+01  0.2395E+01  0.3655E+02  0.3655E+02
     14.098  0.2623E+01  0.2623E+01  0.3673E+02  0.3673E+02
     14.165  0.2899E+01  0.2899E+01  0.3693E+02  0.3693E+02
     14.233  0.3017E+01  0.3017E+01  0.3713E+02  0.3713E+02
     14.300  0.2819E+01  0.2819E+01  0.3732E+02  0.3732E+02
     14.368  0.2498E+01  0.2498E+01  0.3749E+02  0.3749E+02
     14.435  0.2496E+01  0.2496E+01  0.3766E+02  0.3766E+02
     14.503  0.2839E+01  0.2839E+01  0.3785E+02  0.3785E+02
     14.571  0.3366E+01  0.3367E+01  0.3808E+02  0.3808E+02
     14.638  0.3610E+01  0.3610E+01  0.3832E+02  0.3832E+02
     14.706  0.3375E+01  0.3375E+01  0.3855E+02  0.3855E+02
     14.773  0.3093E+01  0.3093E+01  0.3876E+02  0.3876E+02
     14.841  0.3174E+01  0.3174E+01  0.3898E+02  0.3898E+02
     14.908  0.3298E+01  0.3298E+01  0.3920E+02  0.3920E+02
     14.976  0.3412E+01  0.3413E+01  0.3943E+02  0.3943E+02
     15.044  0.3684E+01  0.3688E+01  0.3968E+02  0.3968E+02
     15.111  0.3707E+01  0.3720E+01  0.3993E+02  0.3993E+02
     15.179  0.3484E+01  0.3504E+01  0.4016E+02  0.4017E+02
     15.246  0.3440E+01  0.3457E+01  0.4040E+02  0.4040E+02
     15.314  0.3310E+01  0.3312E+01  0.4062E+02  0.4062E+02
     15.382  0.3003E+01  0.3027E+01  0.4082E+02  0.4083E+02
     15.449  0.2707E+01  0.2771E+01  0.4101E+02  0.4102E+02
     15.517  0.2509E+01  0.2541E+01  0.4118E+02  0.4119E+02
     15.584  0.2511E+01  0.2442E+01  0.4135E+02  0.4135E+02
     15.652  0.2721E+01  0.2651E+01  0.4153E+02  0.4153E+02
     15.719  0.3015E+01  0.3104E+01  0.4173E+02  0.4174E+02
     15.787  0.3285E+01  0.3457E+01  0.4196E+02  0.4198E+02
     15.855  0.3223E+01  0.3465E+01  0.4217E+02  0.4221E+02
     15.922  0.2924E+01  0.3171E+01  0.4237E+02  0.4243E+02
     15.990  0.2430E+01  0.2634E+01  0.4254E+02  0.4260E+02
     16.057  0.2051E+01  0.2344E+01  0.4268E+02  0.4276E+02
     16.125  0.1900E+01  0.2224E+01  0.4280E+02  0.4291E+02
     16.192  0.1624E+01  0.1818E+01  0.4291E+02  0.4304E+02
     16.260  0.1453E+01  0.1547E+01  0.4301E+02  0.4314E+02
     16.328  0.1538E+01  0.1512E+01  0.4312E+02  0.4324E+02
     16.395  0.1676E+01  0.1448E+01  0.4323E+02  0.4334E+02
     16.463  0.1634E+01  0.1308E+01  0.4334E+02  0.4343E+02
     16.530  0.1395E+01  0.1236E+01  0.4343E+02  0.4351E+02
     16.598  0.1212E+01  0.1261E+01  0.4352E+02  0.4360E+02
     16.666  0.1240E+01  0.1225E+01  0.4360E+02  0.4368E+02
     16.733  0.1193E+01  0.9805E+00  0.4368E+02  0.4375E+02
     16.801  0.9763E+00  0.7150E+00  0.4375E+02  0.4380E+02
     16.868  0.6906E+00  0.5475E+00  0.4379E+02  0.4383E+02
     16.936  0.5188E+00  0.4566E+00  0.4383E+02  0.4386E+02
     17.003  0.5435E+00  0.4851E+00  0.4387E+02  0.4390E+02
     17.071  0.5780E+00  0.4671E+00  0.4391E+02  0.4393E+02
     17.139  0.4676E+00  0.3709E+00  0.4394E+02  0.4395E+02
     17.206  0.3086E+00  0.2905E+00  0.4396E+02  0.4397E+02
     17.274  0.2329E+00  0.1968E+00  0.4397E+02  0.4399E+02
     17.341  0.1941E+00  0.1064E+00  0.4399E+02  0.4399E+02
     17.409  0.1155E+00  0.4602E-01  0.4399E+02  0.4400E+02
     17.477  0.4895E-01  0.2041E-01  0.4400E+02  0.4400E+02
     17.544  0.2074E-01  0.1305E-01  0.4400E+02  0.4400E+02
     17.612  0.7943E-02  0.6550E-02  0.4400E+02  0.4400E+02
     17.679  0.2315E-02  0.2234E-02  0.4400E+02  0.4400E+02
     17.747  0.4528E-03  0.5919E-03  0.4400E+02  0.4400E+02
     17.814  0.1195E-03  0.1573E-03  0.4400E+02  0.4400E+02
     17.882  0.3110E-04  0.4098E-04  0.4400E+02  0.4400E+02
     17.950  0.0000E+00  0.0000E+00  0.4400E+02  0.4400E+02
     18.017  0.0000E+00  0.0000E+00  0.4400E+02  0.4400E+02
     18.085  0.0000E+00  0.0000E+00  0.4400E+02  0.4400E+02
     18.152  0.0000E+00  0.0000E+00  0.4400E+02  0.4400E+02
     18.220  0.0000E+00  0.0000E+00  0.4400E+02  0.4400E+02
     18.287  0.0000E+00  0.0000E+00  0.4400E+02  0.4400E+02
     18.355  0.0000E+00  0.0000E+00  0.4400E+02  0.4400E+02
     18.423  0.0000E+00  0.0000E+00  0.4400E+02  0.4400E+02
     18.42261310     -1.85115279  301     12.07883883      1.00000000
     -1.851  0.0000E+00  0.0000E+00  0.0000E+00  0.0000E+00  0.0000E+00  0.0000E+00  0.0000E+00  0.0000E+00  0.0000E+00  0.0000E+00  0.0000E+00  0.0000E+00  0.0000E+00  0.0000E+00  0.0000E+00  0.0000E+00  0.0000E+00  0.0000E+00
     -1.784  0.0000E+00  0.0000E+00  0.0000E+00  0.0000E+00  0.0000E+00  0.0000E+00  0.0000E+00  0.0000E+00  0.0000E+00  0.0000E+00  0.0000E+00  0.0000E+00  0.0000E+00  0.0000E+00  0.0000E+00  0.0000E+00  0.0000E+00  0.0000E+00
     -1.716  0.0000E+00  0.0000E+00  0.0000E+00  0.0000E+00  0.0000E+00  0.0000E+00  0.0000E+00  0.0000E+00  0.0000E+00  0.0000E+00  0.0000E+00  0.0000E+00  0.0000E+00  0.0000E+00  0.0000E+00  0.0000E+00  0.0000E+00  0.0000E+00
     -1.648  0.0000E+00  0.0000E+00  0.0000E+00  0.0000E+00  0.0000E+00  0.0000E+00  0.0000E+00  0.0000E+00  0.0000E+00  0.0000E+00  0.0000E+00  0.0000E+00  0.0000E+00  0.0000E+00  0.0000E+00  0.0000E+00  0.0000E+00  0.0000E+00
     -1.581  0.0000E+00  0.0000E+00  0.0000E+00  0.0000E+00  0.0000E+00  0.0000E+00  0.0000E+00  0.0000E+00  0.0000E+00  0.0000E+00  0.0000E+00  0.0000E+00  0.0000E+00  0.0000E+00  0.0000E+00  0.0000E+00  0.0000E+00  0.0000E+00
     -1.513  0.0000E+00  0.0000E+00  0.0000E+00  0.0000E+00  0.0000E+00  0.0000E+00  0.0000E+00  0.0000E+00  0.0000E+00  0.0000E+00  0.0000E+00  0.0000E+00  0.0000E+00  0.0000E+00  0.0000E+00  0.0000E+00  0.0000E+00  0.0000E+00
     -1.446  0.0000E+00  0.0000E+00  0.0000E+00  0.0000E+00  0.0000E+00  0.0000E+00  0.0000E+00  0.0000E+00  0.0000E+00  0.0000E+00  0.0000E+00  0.0000E+00  0.0000E+00  0.0000E+00  0.0000E+00  0.0000E+00  0.0000E+00  0.0000E+00
     -1.378  0.1762E-06  0.1765E-06  0.2492E-22  0.6416E-21  0.5860E-09  0.5866E-09  0.2492E-22  0.6416E-21  0.2727E-20  0.1053E-21  0.4570E-19  0.1389E-18  0.4387E-10  0.4381E-10  0.4570E-19  0.1389E-18  0.2041E-18  0.9166E-17
     -1.311  0.1357E-05  0.1359E-05  0.3408E-08  0.3413E-08  0.8733E-08  0.8743E-08  0.3408E-08  0.3413E-08  0.2497E-19  0.4635E-20  0.2402E-10  0.2400E-10  0.3623E-09  0.3618E-09  0.2402E-10  0.2400E-10  0.1750E-10  0.1754E-10
     -1.243  0.4385E-05  0.4391E-05  0.9755E-08  0.9769E-08  0.2666E-07  0.2670E-07  0.9755E-08  0.9769E-08  0.7924E-19  0.1357E-19  0.6876E-10  0.6870E-10  0.1162E-08  0.1160E-08  0.6876E-10  0.6870E-10  0.5009E-10  0.5021E-10
     -1.175  0.2221E-04  0.2225E-04  0.8067E-07  0.8078E-07  0.1737E-06  0.1739E-06  0.8067E-07  0.8078E-07  0.3515E-09  0.3519E-09  0.9828E-09  0.9827E-09  0.5992E-08  0.5984E-08  0.9828E-09  0.9827E-09  0.3046E-09  0.3053E-09
     -1.108  0.8243E-04  0.8255E-04  0.3031E-06  0.3035E-06  0.6491E-06  0.6499E-06  0.3031E-06  0.3035E-06  0.1591E-08  0.1593E-08  0.4005E-08  0.4004E-08  0.2217E-07  0.2214E-07  0.4005E-08  0.4004E-08  0.1061E-08  0.1063E-08
     -1.040  0.3042E-03  0.3046E-03  0.1150E-05  0.1152E-05  0.2440E-05  0.2443E-05  0.1150E-05  0.1152E-05  0.5541E-08  0.5548E-08  0.1464E-07  0.1464E-07  0.8263E-07  0.8252E-07  0.1464E-07  0.1464E-07  0.4622E-08  0.4632E-08
     -0.973  0.1029E-02  0.1031E-02  0.4342E-05  0.4348E-05  0.8826E-05  0.8836E-05  0.4342E-05  0.4348E-05  0.2275E-07  0.2278E-07  0.5762E-07  0.5761E-07  0.2829E-06  0.2825E-06  0.5762E-07  0.5761E-07  0.1796E-07  0.1800E-07
     -0.905  0.2851E-02  0.2854E-02  0.1451E-04  0.1453E-04  0.2753E-04  0.2755E-04  0.1451E-04  0.1453E-04  0.8545E-07  0.8556E-07  0.2037E-06  0.2037E-06  0.7973E-06  0.7959E-06  0.2037E-06  0.2037E-06  0.5829E-07  0.5839E-07
     -0.837  0.5992E-02  0.5996E-02  0.3862E-04  0.3865E-04  0.6800E-04  0.6804E-04  0.3862E-04  0.3865E-04  0.2797E-06  0.2800E-06  0.6042E-06  0.6039E-06  0.1720E-05  0.1717E-05  0.6042E-06  0.6039E-06  0.1498E-06  0.1500E-06
     -0.770  0.9202E-02  0.9205E-02  0.7643E-04  0.7647E-04  0.1265E-03  0.1265E-03  0.7643E-04  0.7647E-04  0.7136E-06  0.7141E-06  0.1389E-05  0.1388E-05  0.2768E-05  0.2762E-05  0.1389E-05  0.1388E-05  0.3167E-06  0.3170E-06
     -0.702  0.1071E-01  0.1071E-01  0.1174E-03  0.1174E-03  0.1859E-03  0.1860E-03  0.1174E-03  0.1174E-03  0.1318E-05  0.1318E-05  0.2425E-05  0.2423E-05  0.3650E-05  0.3643E-05  0.2425E-05  0.2423E-05  0.7106E-06  0.7111E-06
     -0.635  0.1173E-01  0.1174E-01  0.1764E-03  0.1765E-03  0.2704E-03  0.2705E-03  0.1764E-03  0.1765E-03  0.2184E-05  0.2185E-05  0.3980E-05  0.3981E-05  0.5161E-05  0.5155E-05  0.3980E-05  0.3981E-05  0.1756E-05  0.1757E-05
     -0.567  0.1536E-01  0.1536E-01  0.2953E-03  0.2955E-03  0.4375E-03  0.4377E-03  0.2953E-03  0.2955E-03  0.4361E-05  0.4365E-05  0.7584E-05  0.7589E-05  0.8231E-05  0.8224E-05  0.7584E-05  0.7589E-05  0.3508E-05  0.3509E-05
     -0.500  0.1948E-01  0.1948E-01  0.4275E-03  0.4276E-03  0.6189E-03  0.6189E-03  0.4275E-03  0.4276E-03  0.7960E-05  0.7964E-05  0.1290E-04  0.1290E-04  0.1100E-04  0.1099E-04  0.1290E-04  0.1290E-04  0.4765E-05  0.4764E-05
     -0.432  0.1839E-01  0.1839E-01  0.4453E-03  0.4453E-03  0.6591E-03  0.6590E-03  0.4453E-03  0.4453E-03  0.1024E-04  0.1024E-04  0.1597E-04  0.1597E-04  0.1080E-04  0.1080E-04  0.1597E-04  0.1597E-04  0.4578E-05  0.4577E-05
     -0.364  0.1483E-01  0.1483E-01  0.4122E-03  0.4122E-03  0.6804E-03  0.6805E-03  0.4122E-03  0.4122E-03  0.1165E-04  0.1165E-04  0.1844E-04  0.1845E-04  0.1042E-04  0.1043E-04  0.1844E-04  0.1845E-04  0.4705E-05  0.4705E-05
     -0.297  0.1685E-01  0.1685E-01  0.5624E-03  0.5626E-03  0.9501E-03  0.9504E-03  0.5624E-03  0.5626E-03  0.1827E-04  0.1828E-04  0.2914E-04  0.2917E-04  0.1516E-04  0.1518E-04  0.2914E-04  0.2917E-04  0.8092E-05  0.8096E-05
     -0.229  0.2178E-01  0.2179E-01  0.8475E-03  0.8478E-03  0.1217E-02  0.1217E-02  0.8475E-03  0.8478E-03  0.2742E-04  0.2742E-04  0.4260E-04  0.4262E-04  0.2388E-04  0.2391E-04  0.4260E-04  0.4262E-04  0.1571E-04  0.1572E-04
     -0.162  0.2259E-01  0.2259E-01  0.1028E-02  0.1028E-02  0.1129E-02  0.1129E-02  0.1028E-02  0.1028E-02  0.3095E-04  0.3096E-04  0.4619E-04  0.4620E-04  0.3139E-04  0.3142E-04  0.4619E-04  0.4620E-04  0.2507E-04  0.2508E-04
     -0.094  0.2112E-01  0.2112E-01  0.1079E-02  0.1079E-02  0.1067E-02  0.1067E-02  0.1079E-02  0.1079E-02  0.3440E-04  0.3440E-04  0.5126E-04  0.5127E-04  0.3422E-04  0.3424E-04  0.5126E-04  0.5127E-04  0.2934E-04  0.2935E-04
     -0.027  0.2102E-01  0.2102E-01  0.1085E-02  0.1085E-02  0.1390E-02  0.1390E-02  0.1085E-02  0.1085E-02  0.4447E-04  0.4448E-04  0.6967E-04  0.6969E-04  0.3317E-04  0.3319E-04  0.6967E-04  0.6969E-04  0.2601E-04  0.2601E-04
      0.041  0.2209E-01  0.2210E-01  0.1192E-02  0.1192E-02  0.1686E-02  0.1686E-02  0.1192E-02  0.1192E-02  0.6388E-04  0.6389E-04  0.9004E-04  0.9007E-04  0.3519E-04  0.3521E-04  0.9004E-04  0.9007E-04  0.2448E-04  0.2449E-04
      0.109  0.2310E-01  0.2310E-01  0.1427E-02  0.1427E-02  0.1620E-02  0.1620E-02  0.1427E-02  0.1427E-02  0.9048E-04  0.9047E-04  0.1024E-03  0.1024E-03  0.4148E-04  0.4151E-04  0.1024E-03  0.1024E-03  0.2916E-04  0.2918E-04
      0.176  0.2125E-01  0.2125E-01  0.1438E-02  0.1438E-02  0.1462E-02  0.1462E-02  0.1438E-02  0.1438E-02  0.9575E-04  0.9570E-04  0.1046E-03  0.1047E-03  0.4164E-04  0.4166E-04  0.1046E-03  0.1047E-03  0.3145E-04  0.3147E-04
      0.244  0.1848E-01  0.1848E-01  0.1281E-02  0.1281E-02  0.1590E-02  0.1590E-02  0.1281E-02  0.1281E-02  0.7590E-04  0.7586E-04  0.1088E-03  0.1088E-03  0.4136E-04  0.4139E-04  0.1088E-03  0.1088E-03  0.3671E-04  0.3674E-04
      0.311  0.2177E-01  0.2177E-01  0.1634E-02  0.1635E-02  0.2167E-02  0.2168E-02  0.1634E-02  0.1635E-02  0.8587E-04  0.8588E-04  0.1448E-03  0.1448E-03  0.6360E-04  0.6367E-04  0.1448E-03  0.1448E-03  0.6241E-04  0.6248E-04
      0.379  0.2767E-01  0.2768E-01  0.2287E-02  0.2288E-02  0.2795E-02  0.2795E-02  0.2287E-02  0.2288E-02  0.1300E-03  0.1301E-03  0.1856E-03  0.1856E-03  0.1035E-03  0.1036E-03  0.1856E-03  0.1856E-03  0.9545E-04  0.9552E-04
      0.447  0.2797E-01  0.2797E-01  0.2448E-02  0.2447E-02  0.2908E-02  0.2908E-02  0.2448E-02  0.2447E-02  0.1658E-03  0.1658E-03  0.1830E-03  0.1830E-03  0.1266E-03  0.1266E-03  0.1830E-03  0.1830E-03  0.1011E-03  0.1011E-03
      0.514  0.2519E-01  0.2519E-01  0.2325E-02  0.2325E-02  0.2751E-02  0.2751E-02  0.2325E-02  0.2325E-02  0.1939E-03  0.1939E-03  0.1882E-03  0.1882E-03  0.1203E-03  0.1203E-03  0.1882E-03  0.1882E-03  0.8774E-04  0.8777E-04
      0.582  0.2654E-01  0.2654E-01  0.2614E-02  0.2615E-02  0.3100E-02  0.3101E-02  0.2614E-02  0.2615E-02  0.2311E-03  0.2311E-03  0.2632E-03  0.2633E-03  0.1175E-03  0.1175E-03  0.2632E-03  0.2633E-03  0.9816E-04  0.9823E-04
      0.649  0.3004E-01  0.3004E-01  0.3023E-02  0.3023E-02  0.3864E-02  0.3864E-02  0.3023E-02  0.3023E-02  0.2692E-03  0.2692E-03  0.3492E-03  0.3493E-03  0.1292E-03  0.1292E-03  0.3492E-03  0.3493E-03  0.1156E-03  0.1157E-03
      0.717  0.2631E-01  0.2630E-01  0.2638E-02  0.2637E-02  0.3741E-02  0.3740E-02  0.2638E-02  0.2637E-02  0.2531E-03  0.2530E-03  0.3395E-03  0.3396E-03  0.1134E-03  0.1134E-03  0.3395E-03  0.3396E-03  0.9431E-04  0.9432E-04
      0.784  0.1855E-01  0.1855E-01  0.2001E-02  0.2001E-02  0.2819E-02  0.2818E-02  0.2001E-02  0.2001E-02  0.2116E-03  0.2115E-03  0.2944E-03  0.2945E-03  0.7812E-04  0.7814E-04  0.2944E-03  0.2945E-03  0.6882E-04  0.6885E-04
      0.852  0.1833E-01  0.1833E-01  0.2277E-02  0.2278E-02  0.2904E-02  0.2905E-02  0.2277E-02  0.2278E-02  0.2614E-03  0.2614E-03  0.3544E-03  0.3546E-03  0.8504E-04  0.8512E-04  0.3544E-03  0.3546E-03  0.8441E-04  0.8449E-04
      0.920  0.2351E-01  0.2352E-01  0.3125E-02  0.3126E-02  0.4056E-02  0.4057E-02  0.3125E-02  0.3126E-02  0.3866E-03  0.3867E-03  0.4461E-03  0.4463E-03  0.1521E-03  0.1523E-03  0.4461E-03  0.4463E-03  0.1273E-03  0.1275E-03
      0.987  0.2823E-01  0.2823E-01  0.3996E-02  0.3996E-02  0.5334E-02  0.5335E-02  0.3996E-02  0.3996E-02  0.4944E-03  0.4944E-03  0.4955E-03  0.4957E-03  0.2510E-03  0.2512E-03  0.4955E-03  0.4957E-03  0.1938E-03  0.1940E-03
      1.055  0.3026E-01  0.3026E-01  0.4499E-02  0.4499E-02  0.6177E-02  0.6177E-02  0.4499E-02  0.4499E-02  0.5010E-03  0.5008E-03  0.5576E-03  0.5579E-03  0.3005E-03  0.3006E-03  0.5576E-03  0.5579E-03  0.2557E-03  0.2559E-03
      1.122  0.2731E-01  0.2731E-01  0.4250E-02  0.4250E-02  0.5833E-02  0.5832E-02  0.4250E-02  0.4250E-02  0.4452E-03  0.4452E-03  0.5894E-03  0.5897E-03  0.2624E-03  0.2624E-03  0.5894E-03  0.5897E-03  0.2589E-03  0.2590E-03
      1.190  0.2644E-01  0.2644E-01  0.4371E-02  0.4371E-02  0.5910E-02  0.5911E-02  0.4371E-02  0.4371E-02  0.5258E-03  0.5259E-03  0.6847E-03  0.6850E-03  0.2459E-03  0.2460E-03  0.6847E-03  0.6850E-03  0.2515E-03  0.2516E-03
      1.257  0.2896E-01  0.2895E-01  0.5007E-02  0.5007E-02  0.7085E-02  0.7085E-02  0.5007E-02  0.5007E-02  0.6574E-03  0.6574E-03  0.8511E-03  0.8514E-03  0.2842E-03  0.2843E-03  0.8511E-03  0.8514E-03  0.2752E-03  0.2753E-03
      1.325  0.2521E-01  0.2520E-01  0.4571E-02  0.4569E-02  0.6738E-02  0.6736E-02  0.4571E-02  0.4569E-02  0.6275E-03  0.6273E-03  0.8244E-03  0.8245E-03  0.2572E-03  0.2571E-03  0.8244E-03  0.8245E-03  0.2505E-03  0.2505E-03
      1.393  0.1995E-01  0.1994E-01  0.3897E-02  0.3896E-02  0.6086E-02  0.6086E-02  0.3897E-02  0.3896E-02  0.6368E-03  0.6369E-03  0.8144E-03  0.8148E-03  0.1879E-03  0.1879E-03  0.8144E-03  0.8148E-03  0.1936E-03  0.1936E-03
      1.460  0.2122E-01  0.2122E-01  0.4405E-02  0.4405E-02  0.7633E-02  0.7635E-02  0.4405E-02  0.4405E-02  0.8405E-03  0.8408E-03  0.1086E-02  0.1087E-02  0.1974E-03  0.1975E-03  0.1086E-02  0.1087E-02  0.1976E-03  0.1977E-03
      1.528  0.2316E-01  0.2316E-01  0.4873E-02  0.4872E-02  0.9335E-02  0.9336E-02  0.4873E-02  0.4872E-02  0.1011E-02  0.1011E-02  0.1322E-02  0.1322E-02  0.2491E-03  0.2492E-03  0.1322E-02  0.1322E-02  0.2123E-03  0.2124E-03