  16  16   1   0
  0.1266272E+02  0.3613998E-09  0.3613998E-09  0.1551212E-08  0.5000000E-15
  1.000000000000000E-004
  CAR 
 unknown system                          
     15.50271935     -2.70883678  301     10.06734633      1.00000000
     -2.709  0.0000E+00  0.0000E+00  0.0000E+00  0.0000E+00
     -2.648  0.0000E+00  0.0000E+00  0.0000E+00  0.0000E+00
     -2.587  0.0000E+00  0.0000E+00  0.0000E+00  0.0000E+00
     -2.527  0.0000E+00  0.0000E+00  0.0000E+00  0.0000E+00
     -2.466  0.0000E+00  0.0000E+00  0.0000E+00  0.0000E+00
     -2.405  0.0000E+00  0.0000E+00  0.0000E+00  0.0000E+00
     -2.345  0.0000E+00  0.0000E+00  0.0000E+00  0.0000E+00
     -2.284  0.1029E-04  0.1023E-04  0.6247E-06  0.6210E-06
     -2.223  0.7694E-04  0.7649E-04  0.5295E-05  0.5264E-05
     -2.162  0.2961E-03  0.2944E-03  0.2327E-04  0.2314E-04
     -2.102  0.9544E-03  0.9488E-03  0.8121E-04  0.8073E-04
     -2.041  0.3149E-02  0.3131E-02  0.2724E-03  0.2708E-03
     -1.980  0.1020E-01  0.1014E-01  0.8913E-03  0.8864E-03
     -1.920  0.3007E-01  0.2992E-01  0.2717E-02  0.2703E-02
     -1.859  0.7497E-01  0.7468E-01  0.7268E-02  0.7236E-02
     -1.798  0.1475E+00  0.1471E+00  0.1622E-01  0.1616E-01
     -1.738  0.2212E+00  0.2209E+00  0.2965E-01  0.2957E-01
     -1.677  0.2655E+00  0.2654E+00  0.4577E-01  0.4568E-01
     -1.616  0.3078E+00  0.3075E+00  0.6445E-01  0.6435E-01
     -1.555  0.3993E+00  0.3988E+00  0.8869E-01  0.8856E-01
     -1.495  0.4845E+00  0.4843E+00  0.1181E+00  0.1180E+00
     -1.434  0.4647E+00  0.4650E+00  0.1463E+00  0.1462E+00
     -1.373  0.4168E+00  0.4168E+00  0.1716E+00  0.1715E+00
     -1.313  0.4830E+00  0.4824E+00  0.2010E+00  0.2008E+00
     -1.252  0.5893E+00  0.5890E+00  0.2367E+00  0.2366E+00
     -1.191  0.6091E+00  0.6092E+00  0.2737E+00  0.2735E+00
     -1.131  0.5925E+00  0.5925E+00  0.3097E+00  0.3096E+00
     -1.070  0.6054E+00  0.6052E+00  0.3465E+00  0.3464E+00
     -1.009  0.6405E+00  0.6403E+00  0.3854E+00  0.3852E+00
     -0.948  0.6618E+00  0.6619E+00  0.4256E+00  0.4254E+00
     -0.888  0.6176E+00  0.6180E+00  0.4631E+00  0.4629E+00
     -0.827  0.5904E+00  0.5902E+00  0.4990E+00  0.4988E+00
     -0.766  0.7155E+00  0.7146E+00  0.5424E+00  0.5422E+00
     -0.706  0.8665E+00  0.8660E+00  0.5951E+00  0.5948E+00
     -0.645  0.8700E+00  0.8702E+00  0.6479E+00  0.6477E+00
     -0.584  0.8294E+00  0.8294E+00  0.6983E+00  0.6980E+00
     -0.523  0.9003E+00  0.8997E+00  0.7530E+00  0.7527E+00
     -0.463  0.9788E+00  0.9789E+00  0.8124E+00  0.8121E+00
     -0.402  0.8572E+00  0.8582E+00  0.8644E+00  0.8642E+00
     -0.341  0.6792E+00  0.6795E+00  0.9057E+00  0.9055E+00
     -0.281  0.7221E+00  0.7214E+00  0.9496E+00  0.9494E+00
     -0.220  0.9179E+00  0.9170E+00  0.1005E+01  0.1005E+01
     -0.159  0.1107E+01  0.1107E+01  0.1073E+01  0.1072E+01
     -0.099  0.1181E+01  0.1181E+01  0.1144E+01  0.1144E+01
     -0.038  0.1109E+01  0.1109E+01  0.1212E+01  0.1211E+01
      0.023  0.1131E+01  0.1131E+01  0.1280E+01  0.1280E+01
      0.084  0.1228E+01  0.1228E+01  0.1355E+01  0.1355E+01
      0.144  0.1111E+01  0.1112E+01  0.1422E+01  0.1422E+01
      0.205  0.9846E+00  0.9846E+00  0.1482E+01  0.1482E+01
      0.266  0.1093E+01  0.1092E+01  0.1549E+01  0.1548E+01
      0.326  0.1215E+01  0.1215E+01  0.1623E+01  0.1622E+01
      0.387  0.1241E+01  0.1240E+01  0.1698E+01  0.1698E+01
      0.448  0.1270E+01  0.1270E+01  0.1775E+01  0.1775E+01
      0.509  0.1320E+01  0.1319E+01  0.1855E+01  0.1855E+01
      0.569  0.1328E+01  0.1328E+01  0.1936E+01  0.1935E+01
      0.630  0.1244E+01  0.1244E+01  0.2011E+01  0.2011E+01
      0.691  0.1231E+01  0.1231E+01  0.2086E+01  0.2086E+01
      0.751  0.1400E+01  0.1399E+01  0.2171E+01  0.2171E+01
      0.812  0.1553E+01  0.1553E+01  0.2266E+01  0.2265E+01
      0.873  0.1485E+01  0.1485E+01  0.2356E+01  0.2355E+01
      0.933  0.1273E+01  0.1274E+01  0.2433E+01  0.2433E+01
      0.994  0.1172E+01  0.1173E+01  0.2504E+01  0.2504E+01
      1.055  0.1104E+01  0.1105E+01  0.2571E+01  0.2571E+01
      1.116  0.9862E+00  0.9866E+00  0.2631E+01  0.2631E+01
      1.176  0.9617E+00  0.9615E+00  0.2690E+01  0.2690E+01
      1.237  0.1078E+01  0.1077E+01  0.2755E+01  0.2755E+01
      1.298  0.1289E+01  0.1288E+01  0.2834E+01  0.2833E+01
      1.358  0.1407E+01  0.1407E+01  0.2919E+01  0.2919E+01
      1.419  0.1340E+01  0.1341E+01  0.3000E+01  0.3000E+01
      1.480  0.1267E+01  0.1267E+01  0.3077E+01  0.3077E+01
      1.541  0.1302E+01  0.1302E+01  0.3156E+01  0.3156E+01
      1.601  0.1322E+01  0.1322E+01  0.3237E+01  0.3236E+01
      1.662  0.1292E+01  0.1292E+01  0.3315E+01  0.3315E+01
      1.723  0.1375E+01  0.1374E+01  0.3399E+01  0.3398E+01
      1.783  0.1590E+01  0.1589E+01  0.3495E+01  0.3495E+01
      1.844  0.1651E+01  0.1651E+01  0.3596E+01  0.3595E+01
      1.905  0.1484E+01  0.1485E+01  0.3686E+01  0.3685E+01
      1.965  0.1325E+01  0.1325E+01  0.3766E+01  0.3766E+01
      2.026  0.1309E+01  0.1309E+01  0.3846E+01  0.3845E+01
      2.087  0.1337E+01  0.1336E+01  0.3927E+01  0.3927E+01
      2.148  0.1382E+01  0.1382E+01  0.4011E+01  0.4010E+01
      2.208  0.1437E+01  0.1437E+01  0.4098E+01  0.4098E+01
      2.269  0.1444E+01  0.1444E+01  0.4186E+01  0.4186E+01
      2.330  0.1510E+01  0.1510E+01  0.4278E+01  0.4277E+01
      2.390  0.1639E+01  0.1639E+01  0.4377E+01  0.4377E+01
      2.451  0.1682E+01  0.1682E+01  0.4479E+01  0.4479E+01
      2.512  0.1686E+01  0.1686E+01  0.4582E+01  0.4581E+01
      2.573  0.1757E+01  0.1756E+01  0.4688E+01  0.4688E+01
      2.633  0.1948E+01  0.1947E+01  0.4807E+01  0.4806E+01
      2.694  0.2054E+01  0.2054E+01  0.4931E+01  0.4931E+01
      2.755  0.2010E+01  0.2010E+01  0.5054E+01  0.5053E+01
      2.815  0.1888E+01  0.1889E+01  0.5168E+01  0.5168E+01
      2.876  0.1718E+01  0.1719E+01  0.5273E+01  0.5272E+01
      2.937  0.1753E+01  0.1753E+01  0.5379E+01  0.5379E+01
      2.997  0.1802E+01  0.1802E+01  0.5489E+01  0.5488E+01
      3.058  0.1667E+01  0.1667E+01  0.5590E+01  0.5589E+01
      3.119  0.1477E+01  0.1478E+01  0.5680E+01  0.5679E+01
      3.180  0.1502E+01  0.1501E+01  0.5771E+01  0.5770E+01
      3.240  0.1709E+01  0.1708E+01  0.5875E+01  0.5874E+01
      3.301  0.1823E+01  0.1823E+01  0.5985E+01  0.5985E+01
      3.362  0.1898E+01  0.1898E+01  0.6101E+01  0.6100E+01
      3.422  0.1812E+01  0.1813E+01  0.6211E+01  0.6210E+01
      3.483  0.1565E+01  0.1566E+01  0.6306E+01  0.6305E+01
      3.544  0.1569E+01  0.1568E+01  0.6401E+01  0.6401E+01
      3.605  0.1911E+01  0.1909E+01  0.6517E+01  0.6517E+01
      3.665  0.2221E+01  0.2220E+01  0.6652E+01  0.6651E+01
      3.726  0.2246E+01  0.2246E+01  0.6788E+01  0.6788E+01
      3.787  0.2151E+01  0.2151E+01  0.6919E+01  0.6919E+01
      3.847  0.2081E+01  0.2082E+01  0.7045E+01  0.7045E+01
      3.908  0.1886E+01  0.1887E+01  0.7160E+01  0.7160E+01
      3.969  0.1655E+01  0.1655E+01  0.7260E+01  0.7260E+01
      4.029  0.1611E+01  0.1610E+01  0.7358E+01  0.7358E+01
      4.090  0.1726E+01  0.1726E+01  0.7463E+01  0.7463E+01
      4.151  0.1850E+01  0.1850E+01  0.7576E+01  0.7575E+01
      4.212  0.1832E+01  0.1832E+01  0.7687E+01  0.7686E+01
      4.272  0.1706E+01  0.1707E+01  0.7791E+01  0.7790E+01
      4.333  0.1748E+01  0.1748E+01  0.7897E+01  0.7896E+01
      4.394  0.1995E+01  0.1994E+01  0.8018E+01  0.8017E+01
      4.454  0.2285E+01  0.2284E+01  0.8157E+01  0.8156E+01
      4.515  0.2519E+01  0.2518E+01  0.8310E+01  0.8309E+01
      4.576  0.2586E+01  0.2586E+01  0.8467E+01  0.8466E+01
      4.636  0.2621E+01  0.2621E+01  0.8626E+01  0.8625E+01
      4.697  0.2765E+01  0.2764E+01  0.8794E+01  0.8793E+01
      4.758  0.2866E+01  0.2866E+01  0.8968E+01  0.8967E+01
      4.819  0.2739E+01  0.2740E+01  0.9134E+01  0.9134E+01
      4.879  0.2394E+01  0.2395E+01  0.9280E+01  0.9279E+01
      4.940  0.2158E+01  0.2158E+01  0.9411E+01  0.9410E+01
      5.001  0.2206E+01  0.2206E+01  0.9545E+01  0.9544E+01
      5.061  0.2270E+01  0.2270E+01  0.9683E+01  0.9682E+01
      5.122  0.2181E+01  0.2181E+01  0.9815E+01  0.9815E+01
      5.183  0.2054E+01  0.2055E+01  0.9940E+01  0.9940E+01
      5.244  0.2161E+01  0.2161E+01  0.1007E+02  0.1007E+02
      5.304  0.2416E+01  0.2416E+01  0.1022E+02  0.1022E+02
      5.365  0.2477E+01  0.2477E+01  0.1037E+02  0.1037E+02
      5.426  0.2397E+01  0.2397E+01  0.1051E+02  0.1051E+02
      5.486  0.2470E+01  0.2470E+01  0.1066E+02  0.1066E+02
      5.547  0.2564E+01  0.2565E+01  0.1082E+02  0.1082E+02
      5.608  0.2530E+01  0.2531E+01  0.1097E+02  0.1097E+02
      5.668  0.2628E+01  0.2628E+01  0.1113E+02  0.1113E+02
      5.729  0.2791E+01  0.2791E+01  0.1130E+02  0.1130E+02
      5.790  0.2820E+01  0.2820E+01  0.1147E+02  0.1147E+02
      5.851  0.2783E+01  0.2784E+01  0.1164E+02  0.1164E+02
      5.911  0.2915E+01  0.2915E+01  0.1182E+02  0.1182E+02
      5.972  0.3076E+01  0.3076E+01  0.1201E+02  0.1201E+02
      6.033  0.3155E+01  0.3156E+01  0.1220E+02  0.1220E+02
      6.093  0.3163E+01  0.3163E+01  0.1239E+02  0.1239E+02
      6.154  0.3040E+01  0.3040E+01  0.1258E+02  0.1258E+02
      6.215  0.3127E+01  0.3127E+01  0.1277E+02  0.1276E+02
      6.276  0.3447E+01  0.3448E+01  0.1297E+02  0.1297E+02
      6.336  0.3554E+01  0.3555E+01  0.1319E+02  0.1319E+02
      6.397  0.3509E+01  0.3510E+01  0.1340E+02  0.1340E+02
      6.458  0.3671E+01  0.3672E+01  0.1363E+02  0.1363E+02
      6.518  0.3932E+01  0.3933E+01  0.1387E+02  0.1387E+02
      6.579  0.3967E+01  0.3968E+01  0.1411E+02  0.1411E+02
      6.640  0.3774E+01  0.3775E+01  0.1434E+02  0.1434E+02
      6.700  0.3630E+01  0.3631E+01  0.1456E+02  0.1456E+02
      6.761  0.3692E+01  0.3692E+01  0.1478E+02  0.1478E+02
      6.822  0.3698E+01  0.3699E+01  0.1500E+02  0.1501E+02
      6.883  0.3635E+01  0.3636E+01  0.1523E+02  0.1523E+02
      6.943  0.3672E+01  0.3673E+01  0.1545E+02  0.1545E+02
      7.004  0.3767E+01  0.3767E+01  0.1568E+02  0.1568E+02
      7.065  0.3793E+01  0.3793E+01  0.1591E+02  0.1591E+02
      7.125  0.3726E+01  0.3725E+01  0.1613E+02  0.1613E+02
      7.186  0.3495E+01  0.3495E+01  0.1635E+02  0.1635E+02
      7.247  0.3385E+01  0.3386E+01  0.1655E+02  0.1655E+02
      7.308  0.3554E+01  0.3556E+01  0.1677E+02  0.1677E+02
      7.368  0.3634E+01  0.3635E+01  0.1699E+02  0.1699E+02
      7.429  0.3571E+01  0.3572E+01  0.1721E+02  0.1721E+02
      7.490  0.3670E+01  0.3670E+01  0.1743E+02  0.1743E+02
      7.550  0.3646E+01  0.3646E+01  0.1765E+02  0.1765E+02
      7.611  0.3428E+01  0.3428E+01  0.1786E+02  0.1786E+02
      7.672  0.3414E+01  0.3415E+01  0.1807E+02  0.1807E+02
      7.732  0.3981E+01  0.3984E+01  0.1831E+02  0.1831E+02
      7.793  0.4879E+01  0.4883E+01  0.1860E+02  0.1861E+02
      7.854  0.5449E+01  0.5452E+01  0.1894E+02  0.1894E+02
      7.915  0.5717E+01  0.5720E+01  0.1928E+02  0.1928E+02
      7.975  0.6056E+01  0.6060E+01  0.1965E+02  0.1965E+02
      8.036  0.6380E+01  0.6383E+01  0.2004E+02  0.2004E+02
      8.097  0.6570E+01  0.6572E+01  0.2044E+02  0.2044E+02
      8.157  0.6805E+01  0.6806E+01  0.2085E+02  0.2085E+02
      8.218  0.6705E+01  0.6703E+01  0.2126E+02  0.2126E+02
      8.279  0.5926E+01  0.5922E+01  0.2162E+02  0.2162E+02
      8.340  0.5028E+01  0.5026E+01  0.2192E+02  0.2192E+02
      8.400  0.4394E+01  0.4393E+01  0.2219E+02  0.2219E+02
      8.461  0.4036E+01  0.4036E+01  0.2243E+02  0.2244E+02
      8.522  0.3931E+01  0.3931E+01  0.2267E+02  0.2267E+02
      8.582  0.3935E+01  0.3935E+01  0.2291E+02  0.2291E+02
      8.643  0.4004E+01  0.4006E+01  0.2316E+02  0.2316E+02
      8.704  0.4424E+01  0.4429E+01  0.2342E+02  0.2343E+02
      8.764  0.4878E+01  0.4880E+01  0.2372E+02  0.2372E+02
      8.825  0.4871E+01  0.4870E+01  0.2402E+02  0.2402E+02
      8.886  0.4595E+01  0.4594E+01  0.2430E+02  0.2430E+02
      8.947  0.4316E+01  0.4316E+01  0.2456E+02  0.2456E+02
      9.007  0.3895E+01  0.3891E+01  0.2479E+02  0.2480E+02
      9.068  0.3247E+01  0.3244E+01  0.2499E+02  0.2499E+02
      9.129  0.2780E+01  0.2779E+01  0.2516E+02  0.2516E+02
      9.189  0.2723E+01  0.2724E+01  0.2533E+02  0.2533E+02
      9.250  0.2830E+01  0.2831E+01  0.2550E+02  0.2550E+02
      9.311  0.2905E+01  0.2905E+01  0.2567E+02  0.2568E+02
      9.371  0.2917E+01  0.2919E+01  0.2585E+02  0.2585E+02
      9.432  0.3044E+01  0.3045E+01  0.2604E+02  0.2604E+02
      9.493  0.3019E+01  0.3017E+01  0.2622E+02  0.2622E+02
      9.554  0.2791E+01  0.2789E+01  0.2639E+02  0.2639E+02
      9.614  0.2717E+01  0.2718E+01  0.2655E+02  0.2656E+02
      9.675  0.2755E+01  0.2757E+01  0.2672E+02  0.2672E+02
      9.736  0.2911E+01  0.2914E+01  0.2690E+02  0.2690E+02
      9.796  0.3118E+01  0.3121E+01  0.2709E+02  0.2709E+02
      9.857  0.3176E+01  0.3178E+01  0.2728E+02  0.2728E+02
      9.918  0.3190E+01  0.3193E+01  0.2748E+02  0.2748E+02
      9.979  0.3390E+01  0.3395E+01  0.2768E+02  0.2768E+02
     10.039  0.3585E+01  0.3586E+01  0.2790E+02  0.2790E+02
     10.100  0.3486E+01  0.3482E+01  0.2811E+02  0.2811E+02
     10.161  0.3197E+01  0.3195E+01  0.2830E+02  0.2831E+02
     10.221  0.3167E+01  0.3169E+01  0.2850E+02  0.2850E+02
     10.282  0.3502E+01  0.3507E+01  0.2871E+02  0.2871E+02
     10.343  0.3798E+01  0.3802E+01  0.2894E+02  0.2894E+02
     10.403  0.3889E+01  0.3896E+01  0.2918E+02  0.2918E+02
     10.464  0.4139E+01  0.4150E+01  0.2943E+02  0.2943E+02
     10.525  0.4564E+01  0.4579E+01  0.2971E+02  0.2971E+02
     10.586  0.5312E+01  0.5339E+01  0.3003E+02  0.3003E+02
     10.646  0.6806E+01  0.6847E+01  0.3044E+02  0.3045E+02
     10.707  0.8775E+01  0.8828E+01  0.3097E+02  0.3099E+02
     10.768  0.1071E+02  0.1077E+02  0.3162E+02  0.3164E+02
     10.828  0.1242E+02  0.1247E+02  0.3238E+02  0.3240E+02
     10.889  0.1282E+02  0.1280E+02  0.3316E+02  0.3317E+02
     10.950  0.1092E+02  0.1084E+02  0.3382E+02  0.3383E+02
     11.011  0.8172E+01  0.8094E+01  0.3432E+02  0.3432E+02
     11.071  0.6164E+01  0.6118E+01  0.3469E+02  0.3470E+02
     11.132  0.4950E+01  0.4922E+01  0.3499E+02  0.3499E+02
     11.193  0.4028E+01  0.4007E+01  0.3524E+02  0.3524E+02
     11.253  0.3276E+01  0.3263E+01  0.3544E+02  0.3544E+02
     11.314  0.2873E+01  0.2866E+01  0.3561E+02  0.3561E+02
     11.375  0.2619E+01  0.2613E+01  0.3577E+02  0.3577E+02
     11.435  0.2381E+01  0.2378E+01  0.3591E+02  0.3592E+02
     11.496  0.2289E+01  0.2287E+01  0.3605E+02  0.3605E+02
     11.557  0.2342E+01  0.2341E+01  0.3620E+02  0.3620E+02
     11.618  0.2603E+01  0.2604E+01  0.3635E+02  0.3635E+02
     11.678  0.2996E+01  0.2997E+01  0.3654E+02  0.3654E+02
     11.739  0.3341E+01  0.3343E+01  0.3674E+02  0.3674E+02
     11.800  0.3390E+01  0.3389E+01  0.3694E+02  0.3695E+02
     11.860  0.3129E+01  0.3127E+01  0.3713E+02  0.3714E+02
     11.921  0.2901E+01  0.2900E+01  0.3731E+02  0.3731E+02
     11.982  0.2825E+01  0.2826E+01  0.3748E+02  0.3748E+02
     12.043  0.2886E+01  0.2888E+01  0.3766E+02  0.3766E+02
     12.103  0.3069E+01  0.3071E+01  0.3784E+02  0.3785E+02
     12.164  0.3411E+01  0.3414E+01  0.3805E+02  0.3805E+02
     12.225  0.3783E+01  0.3786E+01  0.3828E+02  0.3828E+02
     12.285  0.3890E+01  0.3890E+01  0.3852E+02  0.3852E+02
     12.346  0.3825E+01  0.3822E+01  0.3875E+02  0.3875E+02
     12.407  0.3891E+01  0.3888E+01  0.3899E+02  0.3899E+02
     12.467  0.4084E+01  0.4090E+01  0.3923E+02  0.3924E+02
     12.528  0.4144E+01  0.4177E+01  0.3949E+02  0.3949E+02
     12.589  0.4278E+01  0.4329E+01  0.3975E+02  0.3975E+02
     12.650  0.4306E+01  0.4320E+01  0.4001E+02  0.4001E+02
     12.710  0.4002E+01  0.4012E+01  0.4025E+02  0.4026E+02
     12.771  0.3816E+01  0.3905E+01  0.4048E+02  0.4050E+02
     12.832  0.3837E+01  0.4015E+01  0.4072E+02  0.4074E+02
     12.892  0.3776E+01  0.3981E+01  0.4094E+02  0.4098E+02
     12.953  0.3758E+01  0.3901E+01  0.4117E+02  0.4122E+02
     13.014  0.3967E+01  0.3944E+01  0.4141E+02  0.4146E+02
     13.075  0.3904E+01  0.3815E+01  0.4165E+02  0.4169E+02
     13.135  0.3317E+01  0.3265E+01  0.4185E+02  0.4189E+02
     13.196  0.2903E+01  0.2808E+01  0.4203E+02  0.4206E+02
     13.257  0.2833E+01  0.2733E+01  0.4220E+02  0.4222E+02
     13.317  0.2898E+01  0.2766E+01  0.4238E+02  0.4239E+02
     13.378  0.2858E+01  0.2715E+01  0.4255E+02  0.4256E+02
     13.439  0.2488E+01  0.2444E+01  0.4270E+02  0.4271E+02
     13.499  0.2132E+01  0.2159E+01  0.4283E+02  0.4284E+02
     13.560  0.2089E+01  0.2079E+01  0.4296E+02  0.4296E+02
     13.621  0.2126E+01  0.2086E+01  0.4309E+02  0.4309E+02
     13.682  0.2004E+01  0.2030E+01  0.4321E+02  0.4321E+02
     13.742  0.1682E+01  0.1824E+01  0.4331E+02  0.4332E+02
     13.803  0.1269E+01  0.1496E+01  0.4339E+02  0.4342E+02
     13.864  0.1015E+01  0.1205E+01  0.4345E+02  0.4349E+02
     13.924  0.1003E+01  0.1079E+01  0.4351E+02  0.4355E+02
     13.985  0.1157E+01  0.1061E+01  0.4358E+02  0.4362E+02
     14.046  0.1379E+01  0.9976E+00  0.4367E+02  0.4368E+02
     14.107  0.1440E+01  0.9058E+00  0.4375E+02  0.4373E+02
     14.167  0.1179E+01  0.8327E+00  0.4382E+02  0.4379E+02
     14.228  0.7938E+00  0.8573E+00  0.4387E+02  0.4384E+02
     14.289  0.5547E+00  0.9054E+00  0.4391E+02  0.4389E+02
     14.349  0.4706E+00  0.7570E+00  0.4394E+02  0.4394E+02
     14.410  0.3815E+00  0.5122E+00  0.4396E+02  0.4397E+02
     14.471  0.2423E+00  0.2946E+00  0.4397E+02  0.4399E+02
     14.531  0.1255E+00  0.1336E+00  0.4398E+02  0.4400E+02
     14.592  0.7236E-01  0.4797E-01  0.4399E+02  0.4400E+02
     14.653  0.7483E-01  0.1463E-01  0.4399E+02  0.4400E+02
     14.714  0.8035E-01  0.3985E-02  0.4399E+02  0.4400E+02
     14.774  0.5180E-01  0.9595E-03  0.4400E+02  0.4400E+02
     14.835  0.2137E-01  0.0000E+00  0.4400E+02  0.4400E+02
     14.896  0.7066E-02  0.0000E+00  0.4400E+02  0.4400E+02
     14.956  0.2176E-02  0.0000E+00  0.4400E+02  0.4400E+02
     15.017  0.6534E-03  0.0000E+00  0.4400E+02  0.4400E+02
     15.078  0.0000E+00  0.0000E+00  0.4400E+02  0.4400E+02
     15.138  0.0000E+00  0.0000E+00  0.4400E+02  0.4400E+02
     15.199  0.0000E+00  0.0000E+00  0.4400E+02  0.4400E+02
     15.260  0.0000E+00  0.0000E+00  0.4400E+02  0.4400E+02
     15.321  0.0000E+00  0.0000E+00  0.4400E+02  0.4400E+02
     15.381  0.0000E+00  0.0000E+00  0.4400E+02  0.4400E+02
     15.442  0.0000E+00  0.0000E+00  0.4400E+02  0.4400E+02
     15.503  0.0000E+00  0.0000E+00  0.4400E+02  0.4400E+02
     15.50271935     -2.70883678  301     10.06734633      1.00000000
     -2.709  0.0000E+00  0.0000E+00  0.0000E+00  0.0000E+00  0.0000E+00  0.0000E+00  0.0000E+00  0.0000E+00  0.0000E+00  0.0000E+00  0.0000E+00  0.0000E+00  0.0000E+00  0.0000E+00  0.0000E+00  0.0000E+00  0.0000E+00  0.0000E+00
     -2.648  0.0000E+00  0.0000E+00  0.0000E+00  0.0000E+00  0.0000E+00  0.0000E+00  0.0000E+00  0.0000E+00  0.0000E+00  0.0000E+00  0.0000E+00  0.0000E+00  0.0000E+00  0.0000E+00  0.0000E+00  0.0000E+00  0.0000E+00  0.0000E+00
     -2.587  0.0000E+00  0.0000E+00  0.0000E+00  0.0000E+00  0.0000E+00  0.0000E+00  0.0000E+00  0.0000E+00  0.0000E+00  0.0000E+00  0.0000E+00  0.0000E+00  0.0000E+00  0.0000E+00  0.0000E+00  0.0000E+00  0.0000E+00  0.0000E+00
     -2.527  0.0000E+00  0.0000E+00  0.0000E+00  0.0000E+00  0.0000E+00  0.0000E+00  0.0000E+00  0.0000E+00  0.0000E+00  0.0000E+00  0.0000E+00  0.0000E+00  0.0000E+00  0.0000E+00  0.0000E+00  0.0000E+00  0.0000E+00  0.0000E+00
     -2.466  0.0000E+00  0.0000E+00  0.0000E+00  0.0000E+00  0.0000E+00  0.0000E+00  0.0000E+00  0.0000E+00  0.0000E+00  0.0000E+00  0.0000E+00  0.0000E+00  0.0000E+00  0.0000E+00  0.0000E+00  0.0000E+00  0.0000E+00  0.0000E+00
     -2.405  0.0000E+00  0.0000E+00  0.0000E+00  0.0000E+00  0.0000E+00  0.0000E+00  0.0000E+00  0.0000E+00  0.0000E+00  0.0000E+00  0.0000E+00  0.0000E+00  0.0000E+00  0.0000E+00  0.0000E+00  0.0000E+00  0.0000E+00  0.0000E+00
     -2.345  0.0000E+00  0.0000E+00  0.0000E+00  0.0000E+00  0.0000E+00  0.0000E+00  0.0000E+00  0.0000E+00  0.0000E+00  0.0000E+00  0.0000E+00  0.0000E+00  0.0000E+00  0.0000E+00  0.0000E+00  0.0000E+00  0.0000E+00  0.0000E+00
     -2.284  0.3837E-06  0.3814E-06  0.3684E-21  0.5069E-20  0.1385E-08  0.1375E-08  0.3684E-21  0.5069E-20  0.5750E-18  0.3891E-17  0.2072E-16  0.9086E-16  0.4184E-10  0.4094E-10  0.2072E-16  0.9086E-16  0.4272E-17  0.1178E-15
     -2.223  0.2841E-05  0.2824E-05  0.7294E-08  0.7251E-08  0.1923E-07  0.1910E-07  0.7294E-08  0.7251E-08  0.1510E-17  0.1018E-16  0.5414E-10  0.5395E-10  0.3520E-09  0.3455E-09  0.5414E-10  0.5395E-10  0.3266E-10  0.3258E-10
     -2.162  0.1088E-04  0.1081E-04  0.4207E-07  0.4182E-07  0.9089E-07  0.9030E-07  0.4207E-07  0.4182E-07  0.1966E-09  0.1953E-09  0.5372E-09  0.5347E-09  0.1370E-08  0.1346E-08  0.5372E-09  0.5347E-09  0.1332E-09  0.1327E-09
     -2.102  0.3505E-04  0.3484E-04  0.1378E-06  0.1370E-06  0.2955E-06  0.2936E-06  0.1378E-06  0.1370E-06  0.8060E-09  0.8010E-09  0.1940E-08  0.1931E-08  0.4378E-08  0.4300E-08  0.1940E-08  0.1931E-08  0.3918E-09  0.3905E-09
     -2.041  0.1156E-03  0.1149E-03  0.4585E-06  0.4558E-06  0.9835E-06  0.9772E-06  0.4585E-06  0.4558E-06  0.2369E-08  0.2354E-08  0.6112E-08  0.6083E-08  0.1483E-07  0.1457E-07  0.6112E-08  0.6083E-08  0.1628E-08  0.1623E-08
     -1.980  0.3740E-03  0.3719E-03  0.1578E-05  0.1569E-05  0.3307E-05  0.3286E-05  0.1578E-05  0.1569E-05  0.8938E-08  0.8883E-08  0.2207E-07  0.2196E-07  0.4884E-07  0.4802E-07  0.2207E-07  0.2196E-07  0.5962E-08  0.5943E-08
     -1.920  0.1101E-02  0.1096E-02  0.5054E-05  0.5027E-05  0.1024E-04  0.1018E-04  0.5054E-05  0.5027E-05  0.3059E-07  0.3041E-07  0.7294E-07  0.7260E-07  0.1455E-06  0.1432E-06  0.7294E-07  0.7260E-07  0.1867E-07  0.1862E-07
     -1.859  0.2738E-02  0.2727E-02  0.1463E-04  0.1456E-04  0.2799E-04  0.2785E-04  0.1463E-04  0.1456E-04  0.9555E-07  0.9500E-07  0.2191E-06  0.2182E-06  0.3717E-06  0.3664E-06  0.2191E-06  0.2182E-06  0.5347E-07  0.5335E-07
     -1.798  0.5360E-02  0.5345E-02  0.3524E-04  0.3511E-04  0.6312E-04  0.6287E-04  0.3524E-04  0.3511E-04  0.2737E-06  0.2724E-06  0.5803E-06  0.5781E-06  0.7641E-06  0.7546E-06  0.5803E-06  0.5781E-06  0.1305E-06  0.1303E-06
     -1.738  0.7984E-02  0.7973E-02  0.6648E-04  0.6632E-04  0.1122E-03  0.1119E-03  0.6648E-04  0.6632E-04  0.6371E-06  0.6348E-06  0.1235E-05  0.1231E-05  0.1255E-05  0.1242E-05  0.1235E-05  0.1231E-05  0.2805E-06  0.2801E-06
     -1.677  0.9484E-02  0.9478E-02  0.1038E-03  0.1036E-03  0.1674E-03  0.1670E-03  0.1038E-03  0.1036E-03  0.1174E-05  0.1171E-05  0.2168E-05  0.2162E-05  0.1857E-05  0.1842E-05  0.2168E-05  0.2162E-05  0.6290E-06  0.6281E-06
     -1.616  0.1083E-01  0.1082E-01  0.1595E-03  0.1591E-03  0.2478E-03  0.2471E-03  0.1595E-03  0.1591E-03  0.2035E-05  0.2029E-05  0.3672E-05  0.3660E-05  0.2959E-05  0.2940E-05  0.3672E-05  0.3660E-05  0.1417E-05  0.1416E-05
     -1.555  0.1385E-01  0.1383E-01  0.2549E-03  0.2544E-03  0.3825E-03  0.3817E-03  0.2549E-03  0.2544E-03  0.3881E-05  0.3870E-05  0.6650E-05  0.6629E-05  0.4722E-05  0.4700E-05  0.6650E-05  0.6629E-05  0.2574E-05  0.2575E-05
     -1.495  0.1663E-01  0.1663E-01  0.3485E-03  0.3483E-03  0.5137E-03  0.5131E-03  0.3485E-03  0.3483E-03  0.6534E-05  0.6524E-05  0.1052E-04  0.1050E-04  0.6129E-05  0.6109E-05  0.1052E-04  0.1050E-04  0.3366E-05  0.3372E-05
     -1.434  0.1578E-01  0.1580E-01  0.3675E-03  0.3676E-03  0.5592E-03  0.5589E-03  0.3675E-03  0.3676E-03  0.8403E-05  0.8397E-05  0.1312E-04  0.1311E-04  0.6407E-05  0.6389E-05  0.1312E-04  0.1311E-04  0.3442E-05  0.3449E-05
     -1.373  0.1387E-01  0.1388E-01  0.3751E-03  0.3749E-03  0.6221E-03  0.6213E-03  0.3751E-03  0.3749E-03  0.1041E-04  0.1039E-04  0.1643E-04  0.1640E-04  0.7261E-05  0.7234E-05  0.1643E-04  0.1640E-04  0.4028E-05  0.4025E-05
     -1.313  0.1574E-01  0.1572E-01  0.5094E-03  0.5085E-03  0.8277E-03  0.8264E-03  0.5094E-03  0.5085E-03  0.1581E-04  0.1578E-04  0.2485E-04  0.2479E-04  0.1073E-04  0.1068E-04  0.2485E-04  0.2479E-04  0.6870E-05  0.6852E-05
     -1.252  0.1899E-01  0.1898E-01  0.7182E-03  0.7173E-03  0.9799E-03  0.9795E-03  0.7182E-03  0.7173E-03  0.2219E-04  0.2216E-04  0.3379E-04  0.3375E-04  0.1571E-04  0.1565E-04  0.3379E-04  0.3375E-04  0.1234E-04  0.1231E-04
     -1.191  0.1946E-01  0.1946E-01  0.8533E-03  0.8530E-03  0.9242E-03  0.9245E-03  0.8533E-03  0.8530E-03  0.2544E-04  0.2542E-04  0.3748E-04  0.3745E-04  0.1974E-04  0.1967E-04  0.3748E-04  0.3745E-04  0.1833E-04  0.1832E-04
     -1.131  0.1866E-01  0.1866E-01  0.9020E-03  0.9019E-03  0.9413E-03  0.9405E-03  0.9020E-03  0.9019E-03  0.2955E-04  0.2951E-04  0.4387E-04  0.4380E-04  0.2164E-04  0.2158E-04  0.4387E-04  0.4380E-04  0.2069E-04  0.2070E-04
     -1.070  0.1873E-01  0.1873E-01  0.9279E-03  0.9277E-03  0.1177E-02  0.1176E-02  0.9279E-03  0.9277E-03  0.3869E-04  0.3863E-04  0.5765E-04  0.5755E-04  0.2240E-04  0.2235E-04  0.5765E-04  0.5755E-04  0.1900E-04  0.1901E-04
     -1.009  0.1953E-01  0.1952E-01  0.1029E-02  0.1029E-02  0.1347E-02  0.1347E-02  0.1029E-02  0.1029E-02  0.5448E-04  0.5439E-04  0.7123E-04  0.7113E-04  0.2467E-04  0.2461E-04  0.7123E-04  0.7113E-04  0.1888E-04  0.1886E-04
     -0.948  0.1997E-01  0.1997E-01  0.1184E-02  0.1183E-02  0.1303E-02  0.1304E-02  0.1184E-02  0.1183E-02  0.7211E-04  0.7205E-04  0.7979E-04  0.7969E-04  0.2761E-04  0.2754E-04  0.7979E-04  0.7969E-04  0.2181E-04  0.2178E-04
     -0.888  0.1838E-01  0.1840E-01  0.1179E-02  0.1179E-02  0.1238E-02  0.1238E-02  0.1179E-02  0.1179E-02  0.7352E-04  0.7357E-04  0.8289E-04  0.8280E-04  0.2817E-04  0.2811E-04  0.8289E-04  0.8280E-04  0.2415E-04  0.2413E-04
     -0.827  0.1716E-01  0.1716E-01  0.1152E-02  0.1152E-02  0.1404E-02  0.1402E-02  0.1152E-02  0.1152E-02  0.6430E-04  0.6431E-04  0.9140E-04  0.9122E-04  0.3256E-04  0.3247E-04  0.9140E-04  0.9122E-04  0.3116E-04  0.3110E-04
     -0.766  0.2029E-01  0.2027E-01  0.1481E-02  0.1478E-02  0.1866E-02  0.1863E-02  0.1481E-02  0.1478E-02  0.7716E-04  0.7702E-04  0.1191E-03  0.1188E-03  0.5041E-04  0.5025E-04  0.1191E-03  0.1188E-03  0.5022E-04  0.5014E-04
     -0.706  0.2419E-01  0.2418E-01  0.1914E-02  0.1913E-02  0.2283E-02  0.2282E-02  0.1914E-02  0.1913E-02  0.1088E-03  0.1087E-03  0.1430E-03  0.1428E-03  0.7486E-04  0.7470E-04  0.1430E-03  0.1428E-03  0.6953E-04  0.6951E-04
     -0.645  0.2396E-01  0.2397E-01  0.2007E-02  0.2008E-02  0.2335E-02  0.2336E-02  0.2007E-02  0.2008E-02  0.1356E-03  0.1354E-03  0.1427E-03  0.1426E-03  0.8731E-04  0.8720E-04  0.1427E-03  0.1426E-03  0.7149E-04  0.7157E-04
     -0.584  0.2245E-01  0.2246E-01  0.1994E-02  0.1994E-02  0.2302E-02  0.2301E-02  0.1994E-02  0.1994E-02  0.1601E-03  0.1599E-03  0.1577E-03  0.1574E-03  0.8465E-04  0.8456E-04  0.1577E-03  0.1574E-03  0.6624E-04  0.6628E-04
     -0.523  0.2389E-01  0.2388E-01  0.2244E-02  0.2243E-02  0.2630E-02  0.2627E-02  0.2244E-02  0.2243E-02  0.1895E-03  0.1893E-03  0.2136E-03  0.2132E-03  0.8503E-04  0.8486E-04  0.2136E-03  0.2132E-03  0.7440E-04  0.7437E-04
     -0.463  0.2557E-01  0.2558E-01  0.2443E-02  0.2443E-02  0.3084E-02  0.3083E-02  0.2443E-02  0.2443E-02  0.2111E-03  0.2110E-03  0.2632E-03  0.2630E-03  0.8978E-04  0.8963E-04  0.2632E-03  0.2630E-03  0.8109E-04  0.8113E-04
     -0.402  0.2205E-01  0.2208E-01  0.2123E-02  0.2126E-02  0.2918E-02  0.2920E-02  0.2123E-02  0.2126E-02  0.1969E-03  0.1969E-03  0.2556E-03  0.2556E-03  0.7802E-04  0.7800E-04  0.2556E-03  0.2556E-03  0.6681E-04  0.6692E-04
     -0.341  0.1697E-01  0.1698E-01  0.1782E-02  0.1782E-02  0.2398E-02  0.2399E-02  0.1782E-02  0.1782E-02  0.1805E-03  0.1804E-03  0.2400E-03  0.2398E-03  0.6055E-04  0.6050E-04  0.2400E-03  0.2398E-03  0.5587E-04  0.5587E-04
     -0.281  0.1735E-01  0.1734E-01  0.2072E-02  0.2069E-02  0.2595E-02  0.2592E-02  0.2072E-02  0.2069E-02  0.2278E-03  0.2273E-03  0.2851E-03  0.2846E-03  0.7232E-04  0.7208E-04  0.2851E-03  0.2846E-03  0.7031E-04  0.7018E-04
     -0.220  0.2138E-01  0.2137E-01  0.2741E-02  0.2738E-02  0.3479E-02  0.3475E-02  0.2741E-02  0.2738E-02  0.3187E-03  0.3182E-03  0.3448E-03  0.3444E-03  0.1221E-03  0.1217E-03  0.3448E-03  0.3444E-03  0.1038E-03  0.1036E-03
     -0.159  0.2504E-01  0.2503E-01  0.3411E-02  0.3409E-02  0.4432E-02  0.4429E-02  0.3411E-02  0.3409E-02  0.3900E-03  0.3897E-03  0.3874E-03  0.3869E-03  0.1849E-03  0.1845E-03  0.3874E-03  0.3869E-03  0.1506E-03  0.1504E-03
     -0.099  0.2603E-01  0.2604E-01  0.3718E-02  0.3719E-02  0.4941E-02  0.4941E-02  0.3718E-02  0.3719E-02  0.3916E-03  0.3916E-03  0.4314E-03  0.4310E-03  0.2094E-03  0.2092E-03  0.4314E-03  0.4310E-03  0.1860E-03  0.1859E-03
     -0.038  0.2388E-01  0.2390E-01  0.3581E-02  0.3582E-02  0.4749E-02  0.4750E-02  0.3581E-02  0.3582E-02  0.3695E-03  0.3694E-03  0.4619E-03  0.4614E-03  0.1872E-03  0.1871E-03  0.4619E-03  0.4614E-03  0.1878E-03  0.1878E-03
      0.023  0.2367E-01  0.2366E-01  0.3764E-02  0.3762E-02  0.4959E-02  0.4956E-02  0.3764E-02  0.3762E-02  0.4352E-03  0.4347E-03  0.5395E-03  0.5388E-03  0.1825E-03  0.1822E-03  0.5395E-03  0.5388E-03  0.1891E-03  0.1891E-03
      0.084  0.2486E-01  0.2487E-01  0.4128E-02  0.4128E-02  0.5688E-02  0.5687E-02  0.4128E-02  0.4128E-02  0.5152E-03  0.5150E-03  0.6391E-03  0.6385E-03  0.2005E-03  0.2002E-03  0.6391E-03  0.6385E-03  0.2002E-03  0.2002E-03
      0.144  0.2164E-01  0.2166E-01  0.3761E-02  0.3764E-02  0.5479E-02  0.5482E-02  0.3761E-02  0.3764E-02  0.5012E-03  0.5013E-03  0.6274E-03  0.6272E-03  0.1779E-03  0.1779E-03  0.6274E-03  0.6272E-03  0.1781E-03  0.1784E-03
      0.205  0.1804E-01  0.1804E-01  0.3373E-02  0.3372E-02  0.5238E-02  0.5236E-02  0.3373E-02  0.3372E-02  0.5281E-03  0.5275E-03  0.6458E-03  0.6450E-03  0.1386E-03  0.1386E-03  0.6458E-03  0.6450E-03  0.1451E-03  0.1452E-03
      0.266  0.1885E-01  0.1885E-01  0.3745E-02  0.3743E-02  0.6270E-02  0.6264E-02  0.3745E-02  0.3743E-02  0.6727E-03  0.6718E-03  0.8225E-03  0.8212E-03  0.1465E-03  0.1463E-03  0.8225E-03  0.8212E-03  0.1476E-03  0.1475E-03
      0.326  0.2018E-01  0.2018E-01  0.4110E-02  0.4109E-02  0.7375E-02  0.7372E-02  0.4110E-02  0.4109E-02  0.7974E-03  0.7968E-03  0.9776E-03  0.9770E-03  0.1815E-03  0.1813E-03  0.9776E-03  0.9770E-03  0.1579E-03  0.1579E-03