  16  16   1   0
  0.1521669E+02  0.3842250E-09  0.3842250E-09  0.1649184E-08  0.5000000E-15
  1.000000000000000E-004
  CAR 
 unknown system                          
     12.74413458     -3.46287908  301      8.06321781      1.00000000
     -3.463  0.0000E+00  0.0000E+00  0.0000E+00  0.0000E+00
     -3.409  0.0000E+00  0.0000E+00  0.0000E+00  0.0000E+00
     -3.355  0.0000E+00  0.0000E+00  0.0000E+00  0.0000E+00
     -3.301  0.0000E+00  0.0000E+00  0.0000E+00  0.0000E+00
     -3.247  0.0000E+00  0.0000E+00  0.0000E+00  0.0000E+00
     -3.193  0.0000E+00  0.0000E+00  0.0000E+00  0.0000E+00
     -3.139  0.9528E-05  0.9509E-05  0.5147E-06  0.5137E-06
     -3.085  0.6919E-04  0.6905E-04  0.4252E-05  0.4244E-05
     -3.031  0.2430E-03  0.2426E-03  0.1738E-04  0.1735E-04
     -2.977  0.6779E-03  0.6766E-03  0.5400E-04  0.5390E-04
     -2.923  0.1967E-02  0.1963E-02  0.1603E-03  0.1600E-03
     -2.869  0.5779E-02  0.5768E-02  0.4724E-03  0.4715E-03
     -2.815  0.1614E-01  0.1611E-01  0.1344E-02  0.1342E-02
     -2.761  0.4162E-01  0.4156E-01  0.3593E-02  0.3587E-02
     -2.707  0.9328E-01  0.9316E-01  0.8632E-02  0.8620E-02
     -2.653  0.1706E+00  0.1705E+00  0.1785E-01  0.1783E-01
     -2.599  0.2493E+00  0.2491E+00  0.3132E-01  0.3129E-01
     -2.544  0.3058E+00  0.3057E+00  0.4783E-01  0.4780E-01
     -2.490  0.3655E+00  0.3654E+00  0.6758E-01  0.6754E-01
     -2.436  0.4597E+00  0.4595E+00  0.9241E-01  0.9237E-01
     -2.382  0.5325E+00  0.5325E+00  0.1212E+00  0.1211E+00
     -2.328  0.5200E+00  0.5201E+00  0.1493E+00  0.1492E+00
     -2.274  0.5016E+00  0.5016E+00  0.1764E+00  0.1763E+00
     -2.220  0.5735E+00  0.5734E+00  0.2074E+00  0.2073E+00
     -2.166  0.6620E+00  0.6619E+00  0.2431E+00  0.2431E+00
     -2.112  0.6817E+00  0.6816E+00  0.2800E+00  0.2799E+00
     -2.058  0.6781E+00  0.6781E+00  0.3166E+00  0.3165E+00
     -2.004  0.6961E+00  0.6961E+00  0.3542E+00  0.3542E+00
     -1.950  0.7276E+00  0.7275E+00  0.3936E+00  0.3935E+00
     -1.896  0.7357E+00  0.7357E+00  0.4333E+00  0.4333E+00
     -1.842  0.6996E+00  0.6996E+00  0.4711E+00  0.4711E+00
     -1.788  0.7178E+00  0.7176E+00  0.5100E+00  0.5099E+00
     -1.734  0.8549E+00  0.8546E+00  0.5561E+00  0.5561E+00
     -1.680  0.9690E+00  0.9689E+00  0.6085E+00  0.6084E+00
     -1.626  0.9655E+00  0.9655E+00  0.6607E+00  0.6606E+00
     -1.572  0.9609E+00  0.9608E+00  0.7126E+00  0.7125E+00
     -1.518  0.1036E+01  0.1035E+01  0.7686E+00  0.7685E+00
     -1.464  0.1053E+01  0.1053E+01  0.8255E+00  0.8254E+00
     -1.410  0.9119E+00  0.9122E+00  0.8748E+00  0.8747E+00
     -1.356  0.8037E+00  0.8038E+00  0.9182E+00  0.9181E+00
     -1.302  0.8995E+00  0.8991E+00  0.9669E+00  0.9668E+00
     -1.248  0.1101E+01  0.1100E+01  0.1026E+01  0.1026E+01
     -1.194  0.1265E+01  0.1265E+01  0.1095E+01  0.1095E+01
     -1.140  0.1295E+01  0.1295E+01  0.1165E+01  0.1165E+01
     -1.086  0.1251E+01  0.1251E+01  0.1232E+01  0.1232E+01
     -1.032  0.1305E+01  0.1305E+01  0.1303E+01  0.1303E+01
     -0.978  0.1332E+01  0.1333E+01  0.1375E+01  0.1375E+01
     -0.924  0.1200E+01  0.1201E+01  0.1440E+01  0.1440E+01
     -0.870  0.1150E+01  0.1150E+01  0.1502E+01  0.1502E+01
     -0.816  0.1268E+01  0.1267E+01  0.1570E+01  0.1570E+01
     -0.762  0.1365E+01  0.1365E+01  0.1644E+01  0.1644E+01
     -0.708  0.1409E+01  0.1409E+01  0.1720E+01  0.1720E+01
     -0.654  0.1456E+01  0.1456E+01  0.1799E+01  0.1799E+01
     -0.600  0.1488E+01  0.1488E+01  0.1879E+01  0.1879E+01
     -0.546  0.1457E+01  0.1457E+01  0.1958E+01  0.1958E+01
     -0.492  0.1389E+01  0.1389E+01  0.2033E+01  0.2033E+01
     -0.438  0.1417E+01  0.1417E+01  0.2110E+01  0.2110E+01
     -0.384  0.1563E+01  0.1563E+01  0.2194E+01  0.2194E+01
     -0.330  0.1663E+01  0.1663E+01  0.2284E+01  0.2284E+01
     -0.275  0.1571E+01  0.1571E+01  0.2369E+01  0.2369E+01
     -0.221  0.1388E+01  0.1388E+01  0.2444E+01  0.2444E+01
     -0.167  0.1286E+01  0.1286E+01  0.2514E+01  0.2514E+01
     -0.113  0.1191E+01  0.1192E+01  0.2578E+01  0.2578E+01
     -0.059  0.1085E+01  0.1085E+01  0.2637E+01  0.2637E+01
     -0.005  0.1083E+01  0.1083E+01  0.2695E+01  0.2695E+01
      0.049  0.1207E+01  0.1207E+01  0.2761E+01  0.2760E+01
      0.103  0.1406E+01  0.1405E+01  0.2837E+01  0.2836E+01
      0.157  0.1532E+01  0.1532E+01  0.2919E+01  0.2919E+01
      0.211  0.1476E+01  0.1476E+01  0.2999E+01  0.2999E+01
      0.265  0.1374E+01  0.1375E+01  0.3073E+01  0.3073E+01
      0.319  0.1377E+01  0.1377E+01  0.3148E+01  0.3148E+01
      0.373  0.1421E+01  0.1421E+01  0.3225E+01  0.3224E+01
      0.427  0.1458E+01  0.1458E+01  0.3303E+01  0.3303E+01
      0.481  0.1527E+01  0.1527E+01  0.3386E+01  0.3386E+01
      0.535  0.1663E+01  0.1663E+01  0.3476E+01  0.3476E+01
      0.589  0.1766E+01  0.1766E+01  0.3571E+01  0.3571E+01
      0.643  0.1708E+01  0.1709E+01  0.3664E+01  0.3663E+01
      0.697  0.1534E+01  0.1534E+01  0.3747E+01  0.3746E+01
      0.751  0.1443E+01  0.1443E+01  0.3825E+01  0.3824E+01
      0.805  0.1512E+01  0.1512E+01  0.3906E+01  0.3906E+01
      0.859  0.1624E+01  0.1623E+01  0.3994E+01  0.3994E+01
      0.913  0.1657E+01  0.1656E+01  0.4084E+01  0.4083E+01
      0.967  0.1617E+01  0.1617E+01  0.4171E+01  0.4171E+01
      1.021  0.1651E+01  0.1651E+01  0.4260E+01  0.4260E+01
      1.075  0.1828E+01  0.1827E+01  0.4359E+01  0.4359E+01
      1.129  0.1963E+01  0.1963E+01  0.4465E+01  0.4465E+01
      1.183  0.2014E+01  0.2014E+01  0.4574E+01  0.4574E+01
      1.237  0.2063E+01  0.2062E+01  0.4685E+01  0.4685E+01
      1.291  0.2121E+01  0.2121E+01  0.4800E+01  0.4800E+01
      1.345  0.2137E+01  0.2137E+01  0.4916E+01  0.4915E+01
      1.399  0.2136E+01  0.2136E+01  0.5031E+01  0.5031E+01
      1.453  0.2089E+01  0.2090E+01  0.5144E+01  0.5144E+01
      1.507  0.1921E+01  0.1922E+01  0.5248E+01  0.5248E+01
      1.561  0.1842E+01  0.1842E+01  0.5347E+01  0.5347E+01
      1.615  0.1920E+01  0.1920E+01  0.5451E+01  0.5451E+01
      1.669  0.1905E+01  0.1906E+01  0.5554E+01  0.5554E+01
      1.723  0.1717E+01  0.1718E+01  0.5647E+01  0.5647E+01
      1.777  0.1624E+01  0.1624E+01  0.5735E+01  0.5735E+01
      1.831  0.1775E+01  0.1774E+01  0.5831E+01  0.5831E+01
      1.885  0.1915E+01  0.1915E+01  0.5934E+01  0.5934E+01
      1.939  0.1930E+01  0.1930E+01  0.6039E+01  0.6038E+01
      1.993  0.1916E+01  0.1916E+01  0.6142E+01  0.6142E+01
      2.048  0.1807E+01  0.1808E+01  0.6240E+01  0.6240E+01
      2.102  0.1676E+01  0.1676E+01  0.6331E+01  0.6330E+01
      2.156  0.1755E+01  0.1755E+01  0.6425E+01  0.6425E+01
      2.210  0.2134E+01  0.2133E+01  0.6541E+01  0.6541E+01
      2.264  0.2554E+01  0.2553E+01  0.6679E+01  0.6679E+01
      2.318  0.2676E+01  0.2677E+01  0.6823E+01  0.6823E+01
      2.372  0.2526E+01  0.2526E+01  0.6960E+01  0.6960E+01
      2.426  0.2335E+01  0.2335E+01  0.7086E+01  0.7086E+01
      2.480  0.2099E+01  0.2099E+01  0.7200E+01  0.7199E+01
      2.534  0.1829E+01  0.1829E+01  0.7298E+01  0.7298E+01
      2.588  0.1691E+01  0.1691E+01  0.7390E+01  0.7390E+01
      2.642  0.1734E+01  0.1734E+01  0.7484E+01  0.7483E+01
      2.696  0.1908E+01  0.1907E+01  0.7587E+01  0.7587E+01
      2.750  0.2104E+01  0.2103E+01  0.7700E+01  0.7700E+01
      2.804  0.2220E+01  0.2219E+01  0.7820E+01  0.7820E+01
      2.858  0.2342E+01  0.2342E+01  0.7947E+01  0.7947E+01
      2.912  0.2472E+01  0.2471E+01  0.8081E+01  0.8080E+01
      2.966  0.2534E+01  0.2534E+01  0.8218E+01  0.8217E+01
      3.020  0.2549E+01  0.2549E+01  0.8355E+01  0.8355E+01
      3.074  0.2589E+01  0.2589E+01  0.8495E+01  0.8495E+01
      3.128  0.2798E+01  0.2797E+01  0.8646E+01  0.8646E+01
      3.182  0.3056E+01  0.3056E+01  0.8812E+01  0.8811E+01
      3.236  0.3045E+01  0.3045E+01  0.8976E+01  0.8976E+01
      3.290  0.2795E+01  0.2795E+01  0.9127E+01  0.9127E+01
      3.344  0.2599E+01  0.2600E+01  0.9268E+01  0.9268E+01
      3.398  0.2454E+01  0.2455E+01  0.9400E+01  0.9400E+01
      3.452  0.2314E+01  0.2314E+01  0.9525E+01  0.9525E+01
      3.506  0.2190E+01  0.2190E+01  0.9644E+01  0.9644E+01
      3.560  0.2063E+01  0.2063E+01  0.9755E+01  0.9755E+01
      3.614  0.2023E+01  0.2023E+01  0.9865E+01  0.9865E+01
      3.668  0.2201E+01  0.2201E+01  0.9984E+01  0.9984E+01
      3.722  0.2474E+01  0.2473E+01  0.1012E+02  0.1012E+02
      3.776  0.2544E+01  0.2544E+01  0.1026E+02  0.1025E+02
      3.830  0.2472E+01  0.2472E+01  0.1039E+02  0.1039E+02
      3.884  0.2470E+01  0.2470E+01  0.1052E+02  0.1052E+02
      3.938  0.2565E+01  0.2565E+01  0.1066E+02  0.1066E+02
      3.992  0.2589E+01  0.2589E+01  0.1080E+02  0.1080E+02
      4.046  0.2563E+01  0.2563E+01  0.1094E+02  0.1094E+02
      4.100  0.2717E+01  0.2717E+01  0.1109E+02  0.1109E+02
      4.154  0.2972E+01  0.2972E+01  0.1125E+02  0.1125E+02
      4.208  0.3001E+01  0.3001E+01  0.1141E+02  0.1141E+02
      4.262  0.2851E+01  0.2851E+01  0.1156E+02  0.1156E+02
      4.316  0.2849E+01  0.2849E+01  0.1172E+02  0.1172E+02
      4.371  0.3029E+01  0.3029E+01  0.1188E+02  0.1188E+02
      4.425  0.3163E+01  0.3164E+01  0.1205E+02  0.1205E+02
      4.479  0.3287E+01  0.3287E+01  0.1223E+02  0.1223E+02
      4.533  0.3360E+01  0.3360E+01  0.1241E+02  0.1241E+02
      4.587  0.3293E+01  0.3293E+01  0.1259E+02  0.1259E+02
      4.641  0.3268E+01  0.3268E+01  0.1277E+02  0.1277E+02
      4.695  0.3303E+01  0.3303E+01  0.1294E+02  0.1294E+02
      4.749  0.3394E+01  0.3395E+01  0.1313E+02  0.1313E+02
      4.803  0.3672E+01  0.3673E+01  0.1333E+02  0.1333E+02
      4.857  0.3918E+01  0.3919E+01  0.1354E+02  0.1354E+02
      4.911  0.3836E+01  0.3837E+01  0.1375E+02  0.1375E+02
      4.965  0.3603E+01  0.3603E+01  0.1394E+02  0.1394E+02
      5.019  0.3567E+01  0.3567E+01  0.1413E+02  0.1413E+02
      5.073  0.3849E+01  0.3850E+01  0.1434E+02  0.1434E+02
      5.127  0.4198E+01  0.4199E+01  0.1457E+02  0.1457E+02
      5.181  0.4257E+01  0.4257E+01  0.1480E+02  0.1480E+02
      5.235  0.4086E+01  0.4086E+01  0.1502E+02  0.1502E+02
      5.289  0.3886E+01  0.3887E+01  0.1523E+02  0.1523E+02
      5.343  0.3903E+01  0.3905E+01  0.1544E+02  0.1544E+02
      5.397  0.4158E+01  0.4159E+01  0.1566E+02  0.1566E+02
      5.451  0.4274E+01  0.4275E+01  0.1590E+02  0.1590E+02
      5.505  0.4116E+01  0.4116E+01  0.1612E+02  0.1612E+02
      5.559  0.3881E+01  0.3881E+01  0.1633E+02  0.1633E+02
      5.613  0.3718E+01  0.3719E+01  0.1653E+02  0.1653E+02
      5.667  0.3644E+01  0.3645E+01  0.1673E+02  0.1673E+02
      5.721  0.3676E+01  0.3678E+01  0.1692E+02  0.1693E+02
      5.775  0.3966E+01  0.3969E+01  0.1714E+02  0.1714E+02
      5.829  0.4287E+01  0.4289E+01  0.1737E+02  0.1737E+02
      5.883  0.4273E+01  0.4273E+01  0.1760E+02  0.1760E+02
      5.937  0.4021E+01  0.4021E+01  0.1782E+02  0.1782E+02
      5.991  0.4025E+01  0.4026E+01  0.1804E+02  0.1804E+02
      6.045  0.4504E+01  0.4509E+01  0.1828E+02  0.1828E+02
      6.099  0.5277E+01  0.5283E+01  0.1857E+02  0.1857E+02
      6.153  0.5951E+01  0.5955E+01  0.1889E+02  0.1889E+02
      6.207  0.6268E+01  0.6269E+01  0.1923E+02  0.1923E+02
      6.261  0.6345E+01  0.6347E+01  0.1957E+02  0.1957E+02
      6.315  0.6511E+01  0.6515E+01  0.1992E+02  0.1992E+02
      6.369  0.6910E+01  0.6915E+01  0.2029E+02  0.2030E+02
      6.423  0.7432E+01  0.7437E+01  0.2070E+02  0.2070E+02
      6.477  0.7460E+01  0.7460E+01  0.2110E+02  0.2110E+02
      6.531  0.6686E+01  0.6681E+01  0.2146E+02  0.2146E+02
      6.585  0.5733E+01  0.5729E+01  0.2177E+02  0.2177E+02
      6.639  0.5118E+01  0.5117E+01  0.2205E+02  0.2205E+02
      6.694  0.4818E+01  0.4818E+01  0.2231E+02  0.2231E+02
      6.748  0.4740E+01  0.4742E+01  0.2256E+02  0.2257E+02
      6.802  0.4801E+01  0.4803E+01  0.2282E+02  0.2283E+02
      6.856  0.4966E+01  0.4970E+01  0.2309E+02  0.2309E+02
      6.910  0.5303E+01  0.5309E+01  0.2338E+02  0.2338E+02
      6.964  0.5614E+01  0.5617E+01  0.2368E+02  0.2369E+02
      7.018  0.5515E+01  0.5515E+01  0.2398E+02  0.2398E+02
      7.072  0.5205E+01  0.5204E+01  0.2426E+02  0.2426E+02
      7.126  0.4954E+01  0.4952E+01  0.2453E+02  0.2453E+02
      7.180  0.4552E+01  0.4546E+01  0.2477E+02  0.2478E+02
      7.234  0.3847E+01  0.3839E+01  0.2498E+02  0.2499E+02
      7.288  0.3251E+01  0.3248E+01  0.2516E+02  0.2516E+02
      7.342  0.3120E+01  0.3123E+01  0.2533E+02  0.2533E+02
      7.396  0.3268E+01  0.3271E+01  0.2550E+02  0.2551E+02
      7.450  0.3378E+01  0.3380E+01  0.2569E+02  0.2569E+02
      7.504  0.3436E+01  0.3438E+01  0.2587E+02  0.2588E+02
      7.558  0.3529E+01  0.3530E+01  0.2606E+02  0.2607E+02
      7.612  0.3491E+01  0.3490E+01  0.2625E+02  0.2626E+02
      7.666  0.3349E+01  0.3348E+01  0.2643E+02  0.2644E+02
      7.720  0.3347E+01  0.3349E+01  0.2661E+02  0.2662E+02
      7.774  0.3506E+01  0.3509E+01  0.2680E+02  0.2681E+02
      7.828  0.3766E+01  0.3769E+01  0.2701E+02  0.2701E+02
      7.882  0.3984E+01  0.3986E+01  0.2722E+02  0.2723E+02
      7.936  0.4092E+01  0.4093E+01  0.2744E+02  0.2745E+02
      7.990  0.4248E+01  0.4252E+01  0.2767E+02  0.2768E+02
      8.044  0.4433E+01  0.4436E+01  0.2791E+02  0.2792E+02
      8.098  0.4408E+01  0.4406E+01  0.2815E+02  0.2815E+02
      8.152  0.4235E+01  0.4234E+01  0.2838E+02  0.2838E+02
      8.206  0.4368E+01  0.4375E+01  0.2862E+02  0.2862E+02
      8.260  0.4904E+01  0.4914E+01  0.2888E+02  0.2889E+02
      8.314  0.5493E+01  0.5503E+01  0.2918E+02  0.2918E+02
      8.368  0.6113E+01  0.6129E+01  0.2951E+02  0.2951E+02
      8.422  0.7128E+01  0.7157E+01  0.2989E+02  0.2990E+02
      8.476  0.8932E+01  0.8978E+01  0.3038E+02  0.3039E+02
      8.530  0.1137E+02  0.1142E+02  0.3099E+02  0.3100E+02
      8.584  0.1371E+02  0.1375E+02  0.3173E+02  0.3175E+02
      8.638  0.1492E+02  0.1493E+02  0.3254E+02  0.3255E+02
      8.692  0.1399E+02  0.1394E+02  0.3329E+02  0.3331E+02
      8.746  0.1132E+02  0.1126E+02  0.3391E+02  0.3392E+02
      8.800  0.8730E+01  0.8679E+01  0.3438E+02  0.3438E+02
      8.854  0.6856E+01  0.6820E+01  0.3475E+02  0.3475E+02
      8.908  0.5393E+01  0.5366E+01  0.3504E+02  0.3504E+02
      8.962  0.4244E+01  0.4225E+01  0.3527E+02  0.3527E+02
      9.017  0.3525E+01  0.3514E+01  0.3546E+02  0.3546E+02
      9.071  0.3183E+01  0.3178E+01  0.3563E+02  0.3563E+02
      9.125  0.3014E+01  0.3011E+01  0.3580E+02  0.3580E+02
      9.179  0.2955E+01  0.2954E+01  0.3596E+02  0.3596E+02
      9.233  0.3035E+01  0.3037E+01  0.3612E+02  0.3612E+02
      9.287  0.3203E+01  0.3205E+01  0.3629E+02  0.3630E+02
      9.341  0.3338E+01  0.3339E+01  0.3647E+02  0.3648E+02
      9.395  0.3410E+01  0.3410E+01  0.3666E+02  0.3666E+02
      9.449  0.3571E+01  0.3573E+01  0.3685E+02  0.3685E+02
      9.503  0.3865E+01  0.3868E+01  0.3706E+02  0.3706E+02
      9.557  0.4048E+01  0.4051E+01  0.3728E+02  0.3728E+02
      9.611  0.4012E+01  0.4015E+01  0.3750E+02  0.3750E+02
      9.665  0.3989E+01  0.3993E+01  0.3771E+02  0.3771E+02
      9.719  0.4096E+01  0.4104E+01  0.3793E+02  0.3794E+02
      9.773  0.4424E+01  0.4436E+01  0.3817E+02  0.3818E+02
      9.827  0.4876E+01  0.4889E+01  0.3844E+02  0.3844E+02
      9.881  0.5199E+01  0.5210E+01  0.3872E+02  0.3872E+02
      9.935  0.5380E+01  0.5386E+01  0.3901E+02  0.3901E+02
      9.989  0.5604E+01  0.5578E+01  0.3931E+02  0.3931E+02
     10.043  0.5706E+01  0.5630E+01  0.3962E+02  0.3962E+02
     10.097  0.5463E+01  0.5414E+01  0.3991E+02  0.3991E+02
     10.151  0.5038E+01  0.5131E+01  0.4019E+02  0.4019E+02
     10.205  0.4686E+01  0.4882E+01  0.4044E+02  0.4045E+02
     10.259  0.4387E+01  0.4622E+01  0.4068E+02  0.4070E+02
     10.313  0.4026E+01  0.4289E+01  0.4089E+02  0.4093E+02
     10.367  0.3758E+01  0.4030E+01  0.4110E+02  0.4115E+02
     10.421  0.3683E+01  0.3973E+01  0.4130E+02  0.4137E+02
     10.475  0.3741E+01  0.4061E+01  0.4150E+02  0.4159E+02
     10.529  0.3900E+01  0.4184E+01  0.4171E+02  0.4181E+02
     10.583  0.3971E+01  0.4087E+01  0.4192E+02  0.4203E+02
     10.637  0.3635E+01  0.3568E+01  0.4212E+02  0.4223E+02
     10.691  0.3145E+01  0.2935E+01  0.4229E+02  0.4238E+02
     10.745  0.2859E+01  0.2513E+01  0.4245E+02  0.4252E+02
     10.799  0.2736E+01  0.2383E+01  0.4259E+02  0.4265E+02
     10.853  0.2663E+01  0.2497E+01  0.4274E+02  0.4278E+02
     10.907  0.2490E+01  0.2524E+01  0.4287E+02  0.4292E+02
     10.961  0.2169E+01  0.2297E+01  0.4299E+02  0.4305E+02
     11.015  0.1848E+01  0.2092E+01  0.4309E+02  0.4316E+02
     11.069  0.1690E+01  0.2083E+01  0.4318E+02  0.4327E+02
     11.123  0.1717E+01  0.2087E+01  0.4327E+02  0.4338E+02
     11.177  0.1864E+01  0.1873E+01  0.4337E+02  0.4349E+02
     11.231  0.1921E+01  0.1590E+01  0.4348E+02  0.4357E+02
     11.286  0.1746E+01  0.1449E+01  0.4357E+02  0.4365E+02
     11.340  0.1527E+01  0.1419E+01  0.4366E+02  0.4373E+02
     11.394  0.1412E+01  0.1435E+01  0.4373E+02  0.4380E+02
     11.448  0.1285E+01  0.1305E+01  0.4380E+02  0.4387E+02
     11.502  0.1059E+01  0.9224E+00  0.4386E+02  0.4392E+02
     11.556  0.7621E+00  0.4952E+00  0.4390E+02  0.4395E+02
     11.610  0.4898E+00  0.2283E+00  0.4393E+02  0.4396E+02
     11.664  0.3490E+00  0.1288E+00  0.4395E+02  0.4397E+02
     11.718  0.2776E+00  0.1322E+00  0.4396E+02  0.4398E+02
     11.772  0.1900E+00  0.1546E+00  0.4397E+02  0.4399E+02
     11.826  0.1158E+00  0.1289E+00  0.4398E+02  0.4399E+02
     11.880  0.8415E-01  0.7273E-01  0.4398E+02  0.4400E+02
     11.934  0.7535E-01  0.3098E-01  0.4399E+02  0.4400E+02
     11.988  0.8317E-01  0.1149E-01  0.4399E+02  0.4400E+02
     12.042  0.8426E-01  0.4023E-02  0.4399E+02  0.4400E+02
     12.096  0.5787E-01  0.1381E-02  0.4400E+02  0.4400E+02
     12.150  0.2740E-01  0.3308E-03  0.4400E+02  0.4400E+02
     12.204  0.1064E-01  0.0000E+00  0.4400E+02  0.4400E+02
     12.258  0.3696E-02  0.0000E+00  0.4400E+02  0.4400E+02
     12.312  0.1276E-02  0.0000E+00  0.4400E+02  0.4400E+02
     12.366  0.4358E-03  0.0000E+00  0.4400E+02  0.4400E+02
     12.420  0.0000E+00  0.0000E+00  0.4400E+02  0.4400E+02
     12.474  0.0000E+00  0.0000E+00  0.4400E+02  0.4400E+02
     12.528  0.0000E+00  0.0000E+00  0.4400E+02  0.4400E+02
     12.582  0.0000E+00  0.0000E+00  0.4400E+02  0.4400E+02
     12.636  0.0000E+00  0.0000E+00  0.4400E+02  0.4400E+02
     12.690  0.0000E+00  0.0000E+00  0.4400E+02  0.4400E+02
     12.744  0.0000E+00  0.0000E+00  0.4400E+02  0.4400E+02
     12.74413458     -3.46287908  301      8.06321781      1.00000000
     -3.463  0.0000E+00  0.0000E+00  0.0000E+00  0.0000E+00  0.0000E+00  0.0000E+00  0.0000E+00  0.0000E+00  0.0000E+00  0.0000E+00  0.0000E+00  0.0000E+00  0.0000E+00  0.0000E+00  0.0000E+00  0.0000E+00  0.0000E+00  0.0000E+00
     -3.409  0.0000E+00  0.0000E+00  0.0000E+00  0.0000E+00  0.0000E+00  0.0000E+00  0.0000E+00  0.0000E+00  0.0000E+00  0.0000E+00  0.0000E+00  0.0000E+00  0.0000E+00  0.0000E+00  0.0000E+00  0.0000E+00  0.0000E+00  0.0000E+00
     -3.355  0.0000E+00  0.0000E+00  0.0000E+00  0.0000E+00  0.0000E+00  0.0000E+00  0.0000E+00  0.0000E+00  0.0000E+00  0.0000E+00  0.0000E+00  0.0000E+00  0.0000E+00  0.0000E+00  0.0000E+00  0.0000E+00  0.0000E+00  0.0000E+00
     -3.301  0.0000E+00  0.0000E+00  0.0000E+00  0.0000E+00  0.0000E+00  0.0000E+00  0.0000E+00  0.0000E+00  0.0000E+00  0.0000E+00  0.0000E+00  0.0000E+00  0.0000E+00  0.0000E+00  0.0000E+00  0.0000E+00  0.0000E+00  0.0000E+00
     -3.247  0.0000E+00  0.0000E+00  0.0000E+00  0.0000E+00  0.0000E+00  0.0000E+00  0.0000E+00  0.0000E+00  0.0000E+00  0.0000E+00  0.0000E+00  0.0000E+00  0.0000E+00  0.0000E+00  0.0000E+00  0.0000E+00  0.0000E+00  0.0000E+00
     -3.193  0.0000E+00  0.0000E+00  0.0000E+00  0.0000E+00  0.0000E+00  0.0000E+00  0.0000E+00  0.0000E+00  0.0000E+00  0.0000E+00  0.0000E+00  0.0000E+00  0.0000E+00  0.0000E+00  0.0000E+00  0.0000E+00  0.0000E+00  0.0000E+00
     -3.139  0.2704E-06  0.2699E-06  0.2128E-22  0.2097E-22  0.9672E-09  0.9663E-09  0.2128E-22  0.2097E-22  0.3587E-19  0.4176E-20  0.1179E-17  0.8086E-20  0.9553E-11  0.9443E-11  0.1179E-17  0.8086E-20  0.3019E-18  0.2596E-19
     -3.085  0.1944E-05  0.1940E-05  0.4986E-08  0.4976E-08  0.1301E-07  0.1299E-07  0.4986E-08  0.4976E-08  0.7918E-19  0.1177E-19  0.3720E-10  0.3737E-10  0.9417E-10  0.9342E-10  0.3720E-10  0.3737E-10  0.1960E-10  0.1970E-10
     -3.031  0.6787E-05  0.6774E-05  0.2731E-07  0.2726E-07  0.5736E-07  0.5727E-07  0.2731E-07  0.2726E-07  0.1389E-09  0.1386E-09  0.3584E-09  0.3585E-09  0.3394E-09  0.3375E-09  0.3584E-09  0.3585E-09  0.7322E-10  0.7330E-10
     -2.977  0.1892E-04  0.1889E-04  0.7838E-07  0.7823E-07  0.1625E-06  0.1623E-06  0.7838E-07  0.7823E-07  0.5204E-09  0.5194E-09  0.1160E-08  0.1159E-08  0.9220E-09  0.9165E-09  0.1160E-08  0.1159E-08  0.1804E-09  0.1807E-09
     -2.923  0.5490E-04  0.5479E-04  0.2284E-06  0.2280E-06  0.4757E-06  0.4750E-06  0.2284E-06  0.2280E-06  0.1282E-08  0.1279E-08  0.3131E-08  0.3130E-08  0.2940E-08  0.2924E-08  0.3131E-08  0.3130E-08  0.7444E-09  0.7458E-09
     -2.869  0.1611E-03  0.1608E-03  0.7157E-06  0.7143E-06  0.1457E-05  0.1455E-05  0.7157E-06  0.7143E-06  0.4556E-08  0.4546E-08  0.1051E-07  0.1050E-07  0.9133E-08  0.9086E-08  0.1051E-07  0.1050E-07  0.2589E-08  0.2592E-08
     -2.815  0.4496E-03  0.4488E-03  0.2070E-05  0.2066E-05  0.4153E-05  0.4147E-05  0.2070E-05  0.2066E-05  0.1416E-07  0.1413E-07  0.3149E-07  0.3147E-07  0.2556E-07  0.2543E-07  0.3149E-07  0.3147E-07  0.7239E-08  0.7249E-08
     -2.761  0.1158E-02  0.1156E-02  0.5690E-05  0.5680E-05  0.1113E-04  0.1112E-04  0.5690E-05  0.5680E-05  0.3916E-07  0.3908E-07  0.8676E-07  0.8671E-07  0.6742E-07  0.6711E-07  0.8676E-07  0.8671E-07  0.1981E-07  0.1984E-07
     -2.707  0.2588E-02  0.2585E-02  0.1452E-04  0.1450E-04  0.2716E-04  0.2713E-04  0.1452E-04  0.1450E-04  0.1082E-06  0.1080E-06  0.2323E-06  0.2322E-06  0.1603E-06  0.1597E-06  0.2323E-06  0.2322E-06  0.5141E-07  0.5148E-07
     -2.653  0.4713E-02  0.4709E-02  0.3174E-04  0.3170E-04  0.5613E-04  0.5609E-04  0.3174E-04  0.3170E-04  0.2749E-06  0.2745E-06  0.5484E-06  0.5479E-06  0.3269E-06  0.3261E-06  0.5484E-06  0.5479E-06  0.1183E-06  0.1184E-06
     -2.599  0.6836E-02  0.6833E-02  0.5755E-04  0.5750E-04  0.9655E-04  0.9650E-04  0.5755E-04  0.5750E-04  0.5930E-06  0.5923E-06  0.1111E-05  0.1110E-05  0.5832E-06  0.5824E-06  0.1111E-05  0.1110E-05  0.2557E-06  0.2559E-06
     -2.544  0.8298E-02  0.8296E-02  0.9069E-04  0.9061E-04  0.1455E-03  0.1454E-03  0.9069E-04  0.9061E-04  0.1080E-05  0.1079E-05  0.1938E-05  0.1937E-05  0.1009E-05  0.1009E-05  0.1938E-05  0.1937E-05  0.5514E-06  0.5518E-06
     -2.490  0.9780E-02  0.9777E-02  0.1400E-03  0.1399E-03  0.2164E-03  0.2163E-03  0.1400E-03  0.1399E-03  0.1913E-05  0.1912E-05  0.3321E-05  0.3319E-05  0.1770E-05  0.1769E-05  0.3321E-05  0.3319E-05  0.1119E-05  0.1120E-05
     -2.436  0.1214E-01  0.1214E-01  0.2123E-03  0.2122E-03  0.3185E-03  0.3184E-03  0.2123E-03  0.2122E-03  0.3436E-05  0.3434E-05  0.5678E-05  0.5676E-05  0.2795E-05  0.2794E-05  0.5678E-05  0.5676E-05  0.1859E-05  0.1860E-05
     -2.382  0.1393E-01  0.1393E-01  0.2768E-03  0.2767E-03  0.4113E-03  0.4113E-03  0.2768E-03  0.2767E-03  0.5405E-05  0.5402E-05  0.8489E-05  0.8488E-05  0.3611E-05  0.3612E-05  0.8489E-05  0.8488E-05  0.2386E-05  0.2388E-05
     -2.328  0.1343E-01  0.1344E-01  0.3004E-03  0.3004E-03  0.4617E-03  0.4618E-03  0.3004E-03  0.3004E-03  0.7078E-05  0.7077E-05  0.1086E-04  0.1086E-04  0.4146E-05  0.4146E-05  0.1086E-04  0.1086E-04  0.2653E-05  0.2655E-05
     -2.274  0.1271E-01  0.1271E-01  0.3337E-03  0.3335E-03  0.5379E-03  0.5378E-03  0.3337E-03  0.3335E-03  0.9323E-05  0.9318E-05  0.1433E-04  0.1433E-04  0.5317E-05  0.5315E-05  0.1433E-04  0.1433E-04  0.3469E-05  0.3469E-05
     -2.220  0.1427E-01  0.1426E-01  0.4462E-03  0.4459E-03  0.6793E-03  0.6792E-03  0.4462E-03  0.4459E-03  0.1361E-04  0.1360E-04  0.2062E-04  0.2062E-04  0.7717E-05  0.7713E-05  0.2062E-04  0.2062E-04  0.5777E-05  0.5776E-05
     -2.166  0.1629E-01  0.1629E-01  0.5928E-03  0.5925E-03  0.7632E-03  0.7632E-03  0.5928E-03  0.5925E-03  0.1812E-04  0.1812E-04  0.2664E-04  0.2664E-04  0.1052E-04  0.1052E-04  0.2664E-04  0.2664E-04  0.9530E-05  0.9530E-05
     -2.112  0.1660E-01  0.1660E-01  0.6902E-03  0.6900E-03  0.7492E-03  0.7493E-03  0.6902E-03  0.6900E-03  0.2129E-04  0.2128E-04  0.3051E-04  0.3052E-04  0.1271E-04  0.1270E-04  0.3051E-04  0.3052E-04  0.1311E-04  0.1311E-04
     -2.058  0.1628E-01  0.1628E-01  0.7352E-03  0.7351E-03  0.8053E-03  0.8051E-03  0.7352E-03  0.7351E-03  0.2579E-04  0.2577E-04  0.3688E-04  0.3688E-04  0.1417E-04  0.1417E-04  0.3688E-04  0.3688E-04  0.1434E-04  0.1435E-04
     -2.004  0.1645E-01  0.1645E-01  0.7748E-03  0.7746E-03  0.9615E-03  0.9612E-03  0.7748E-03  0.7746E-03  0.3408E-04  0.3405E-04  0.4690E-04  0.4690E-04  0.1553E-04  0.1554E-04  0.4690E-04  0.4690E-04  0.1376E-04  0.1377E-04
     -1.950  0.1696E-01  0.1696E-01  0.8630E-03  0.8628E-03  0.1051E-02  0.1051E-02  0.8630E-03  0.8628E-03  0.4636E-04  0.4634E-04  0.5614E-04  0.5614E-04  0.1731E-04  0.1731E-04  0.5614E-04  0.5614E-04  0.1435E-04  0.1436E-04
     -1.896  0.1695E-01  0.1695E-01  0.9545E-03  0.9543E-03  0.1033E-02  0.1033E-02  0.9545E-03  0.9543E-03  0.5701E-04  0.5700E-04  0.6223E-04  0.6224E-04  0.1882E-04  0.1882E-04  0.6223E-04  0.6224E-04  0.1640E-04  0.1640E-04
     -1.842  0.1586E-01  0.1587E-01  0.9602E-03  0.9602E-03  0.1043E-02  0.1043E-02  0.9602E-03  0.9602E-03  0.5714E-04  0.5715E-04  0.6642E-04  0.6643E-04  0.2057E-04  0.2056E-04  0.6642E-04  0.6643E-04  0.1921E-04  0.1921E-04
     -1.788  0.1589E-01  0.1589E-01  0.1026E-02  0.1026E-02  0.1230E-02  0.1230E-02  0.1026E-02  0.1026E-02  0.5598E-04  0.5597E-04  0.7691E-04  0.7691E-04  0.2694E-04  0.2692E-04  0.7691E-04  0.7691E-04  0.2651E-04  0.2650E-04
     -1.734  0.1853E-01  0.1852E-01  0.1299E-02  0.1299E-02  0.1569E-02  0.1568E-02  0.1299E-02  0.1299E-02  0.6996E-04  0.6992E-04  0.9662E-04  0.9661E-04  0.4031E-04  0.4028E-04  0.9662E-04  0.9661E-04  0.3952E-04  0.3951E-04
     -1.680  0.2068E-01  0.2068E-01  0.1557E-02  0.1557E-02  0.1814E-02  0.1813E-02  0.1557E-02  0.1557E-02  0.9277E-04  0.9273E-04  0.1099E-03  0.1099E-03  0.5429E-04  0.5427E-04  0.1099E-03  0.1099E-03  0.4948E-04  0.4949E-04
     -1.626  0.2032E-01  0.2032E-01  0.1620E-02  0.1620E-02  0.1851E-02  0.1851E-02  0.1620E-02  0.1620E-02  0.1134E-03  0.1134E-03  0.1145E-03  0.1145E-03  0.6014E-04  0.6014E-04  0.1145E-03  0.1145E-03  0.5003E-04  0.5005E-04
     -1.572  0.1987E-01  0.1987E-01  0.1681E-02  0.1680E-02  0.1912E-02  0.1911E-02  0.1681E-02  0.1680E-02  0.1340E-03  0.1340E-03  0.1346E-03  0.1346E-03  0.5954E-04  0.5955E-04  0.1346E-03  0.1346E-03  0.4959E-04  0.4960E-04
     -1.518  0.2104E-01  0.2103E-01  0.1860E-02  0.1860E-02  0.2183E-02  0.2182E-02  0.1860E-02  0.1860E-02  0.1553E-03  0.1553E-03  0.1736E-03  0.1736E-03  0.6112E-04  0.6112E-04  0.1736E-03  0.1736E-03  0.5475E-04  0.5475E-04
     -1.464  0.2107E-01  0.2108E-01  0.1895E-02  0.1895E-02  0.2386E-02  0.2386E-02  0.1895E-02  0.1895E-02  0.1647E-03  0.1647E-03  0.1980E-03  0.1981E-03  0.6161E-04  0.6162E-04  0.1980E-03  0.1981E-03  0.5502E-04  0.5504E-04
     -1.410  0.1791E-01  0.1792E-01  0.1663E-02  0.1664E-02  0.2203E-02  0.2204E-02  0.1663E-02  0.1664E-02  0.1555E-03  0.1555E-03  0.1930E-03  0.1931E-03  0.5354E-04  0.5356E-04  0.1930E-03  0.1931E-03  0.4680E-04  0.4682E-04
     -1.356  0.1528E-01  0.1528E-01  0.1572E-02  0.1572E-02  0.2016E-02  0.2016E-02  0.1572E-02  0.1572E-02  0.1597E-03  0.1597E-03  0.1970E-03  0.1970E-03  0.4885E-04  0.4885E-04  0.1970E-03  0.1970E-03  0.4579E-04  0.4579E-04
     -1.302  0.1647E-01  0.1647E-01  0.1890E-02  0.1889E-02  0.2347E-02  0.2345E-02  0.1890E-02  0.1889E-02  0.2054E-03  0.2054E-03  0.2338E-03  0.2338E-03  0.6526E-04  0.6520E-04  0.2338E-03  0.2338E-03  0.6041E-04  0.6038E-04
     -1.248  0.1953E-01  0.1953E-01  0.2407E-02  0.2405E-02  0.3028E-02  0.3026E-02  0.2407E-02  0.2405E-02  0.2690E-03  0.2689E-03  0.2740E-03  0.2740E-03  0.1018E-03  0.1017E-03  0.2740E-03  0.2740E-03  0.8666E-04  0.8661E-04
     -1.194  0.2183E-01  0.2183E-01  0.2850E-02  0.2849E-02  0.3643E-02  0.3642E-02  0.2850E-02  0.2849E-02  0.3091E-03  0.3091E-03  0.3081E-03  0.3081E-03  0.1361E-03  0.1360E-03  0.3081E-03  0.3081E-03  0.1165E-03  0.1164E-03
     -1.140  0.2182E-01  0.2182E-01  0.2987E-02  0.2987E-02  0.3862E-02  0.3862E-02  0.2987E-02  0.2987E-02  0.3081E-03  0.3081E-03  0.3392E-03  0.3392E-03  0.1426E-03  0.1425E-03  0.3392E-03  0.3392E-03  0.1330E-03  0.1330E-03
     -1.086  0.2056E-01  0.2056E-01  0.2968E-02  0.2967E-02  0.3826E-02  0.3826E-02  0.2968E-02  0.2967E-02  0.3148E-03  0.3147E-03  0.3726E-03  0.3726E-03  0.1318E-03  0.1318E-03  0.3726E-03  0.3726E-03  0.1344E-03  0.1344E-03
     -1.032  0.2080E-01  0.2080E-01  0.3171E-02  0.3170E-02  0.4147E-02  0.4146E-02  0.3171E-02  0.3170E-02  0.3701E-03  0.3700E-03  0.4361E-03  0.4360E-03  0.1345E-03  0.1344E-03  0.4361E-03  0.4360E-03  0.1387E-03  0.1387E-03
     -0.978  0.2053E-01  0.2053E-01  0.3264E-02  0.3264E-02  0.4491E-02  0.4492E-02  0.3264E-02  0.3264E-02  0.4080E-03  0.4080E-03  0.4831E-03  0.4831E-03  0.1373E-03  0.1373E-03  0.4831E-03  0.4831E-03  0.1387E-03  0.1387E-03
     -0.924  0.1768E-01  0.1769E-01  0.2964E-02  0.2965E-02  0.4343E-02  0.4344E-02  0.2964E-02  0.2965E-02  0.4068E-03  0.4068E-03  0.4810E-03  0.4811E-03  0.1174E-03  0.1174E-03  0.4810E-03  0.4811E-03  0.1203E-03  0.1203E-03
     -0.870  0.1596E-01  0.1596E-01  0.2877E-02  0.2877E-02  0.4485E-02  0.4485E-02  0.2877E-02  0.2877E-02  0.4580E-03  0.4579E-03  0.5333E-03  0.5332E-03  0.1018E-03  0.1017E-03  0.5333E-03  0.5332E-03  0.1061E-03  0.1061E-03
     -0.816  0.1676E-01  0.1676E-01  0.3191E-02  0.3190E-02  0.5220E-02  0.5218E-02  0.3191E-02  0.3190E-02  0.5648E-03  0.5646E-03  0.6572E-03  0.6570E-03  0.1139E-03  0.1138E-03  0.6572E-03  0.6570E-03  0.1106E-03  0.1106E-03
     -0.762  0.1739E-01  0.1739E-01  0.3464E-02  0.3463E-02  0.5828E-02  0.5826E-02  0.3464E-02  0.3463E-02  0.6496E-03  0.6494E-03  0.7493E-03  0.7492E-03  0.1373E-03  0.1372E-03  0.7493E-03  0.7492E-03  0.1191E-03  0.1191E-03