  16  16   1   0
  0.1567316E+02  0.3880292E-09  0.3880292E-09  0.1665512E-08  0.5000000E-15
  1.000000000000000E-004
  CAR 
 unknown system                          
     12.40702972     -3.56960964  301      7.76428652      1.00000000
     -3.570  0.0000E+00  0.0000E+00  0.0000E+00  0.0000E+00
     -3.516  0.0000E+00  0.0000E+00  0.0000E+00  0.0000E+00
     -3.463  0.0000E+00  0.0000E+00  0.0000E+00  0.0000E+00
     -3.410  0.0000E+00  0.0000E+00  0.0000E+00  0.0000E+00
     -3.357  0.0000E+00  0.0000E+00  0.0000E+00  0.0000E+00
     -3.303  0.0000E+00  0.0000E+00  0.0000E+00  0.0000E+00
     -3.250  0.1083E-04  0.1087E-04  0.5765E-06  0.5788E-06
     -3.197  0.7871E-04  0.7901E-04  0.4768E-05  0.4786E-05
     -3.144  0.2744E-03  0.2754E-03  0.1938E-04  0.1945E-04
     -3.090  0.7524E-03  0.7553E-03  0.5945E-04  0.5967E-04
     -3.037  0.2148E-02  0.2157E-02  0.1739E-03  0.1745E-03
     -2.984  0.6224E-02  0.6247E-02  0.5053E-03  0.5072E-03
     -2.931  0.1711E-01  0.1717E-01  0.1417E-02  0.1422E-02
     -2.877  0.4346E-01  0.4360E-01  0.3731E-02  0.3744E-02
     -2.824  0.9627E-01  0.9652E-01  0.8858E-02  0.8884E-02
     -2.771  0.1748E+00  0.1751E+00  0.1816E-01  0.1821E-01
     -2.718  0.2544E+00  0.2547E+00  0.3171E-01  0.3177E-01
     -2.664  0.3133E+00  0.3135E+00  0.4840E-01  0.4846E-01
     -2.611  0.3763E+00  0.3766E+00  0.6844E-01  0.6852E-01
     -2.558  0.4713E+00  0.4717E+00  0.9354E-01  0.9364E-01
     -2.505  0.5415E+00  0.5415E+00  0.1224E+00  0.1225E+00
     -2.451  0.5292E+00  0.5290E+00  0.1506E+00  0.1507E+00
     -2.398  0.5172E+00  0.5172E+00  0.1781E+00  0.1782E+00
     -2.345  0.5921E+00  0.5924E+00  0.2096E+00  0.2098E+00
     -2.291  0.6765E+00  0.6767E+00  0.2457E+00  0.2458E+00
     -2.238  0.6944E+00  0.6944E+00  0.2827E+00  0.2828E+00
     -2.185  0.6933E+00  0.6934E+00  0.3196E+00  0.3197E+00
     -2.132  0.7132E+00  0.7134E+00  0.3576E+00  0.3578E+00
     -2.078  0.7438E+00  0.7440E+00  0.3973E+00  0.3974E+00
     -2.025  0.7475E+00  0.7475E+00  0.4371E+00  0.4372E+00
     -1.972  0.7138E+00  0.7138E+00  0.4751E+00  0.4753E+00
     -1.919  0.7474E+00  0.7479E+00  0.5149E+00  0.5151E+00
     -1.865  0.8889E+00  0.8895E+00  0.5623E+00  0.5625E+00
     -1.812  0.9895E+00  0.9897E+00  0.6150E+00  0.6152E+00
     -1.759  0.9811E+00  0.9811E+00  0.6673E+00  0.6675E+00
     -1.706  0.9883E+00  0.9886E+00  0.7199E+00  0.7202E+00
     -1.652  0.1063E+01  0.1064E+01  0.7766E+00  0.7768E+00
     -1.599  0.1057E+01  0.1056E+01  0.8329E+00  0.8331E+00
     -1.546  0.9079E+00  0.9071E+00  0.8812E+00  0.8814E+00
     -1.493  0.8298E+00  0.8299E+00  0.9254E+00  0.9257E+00
     -1.439  0.9515E+00  0.9525E+00  0.9762E+00  0.9764E+00
     -1.386  0.1155E+01  0.1156E+01  0.1038E+01  0.1038E+01
     -1.333  0.1301E+01  0.1302E+01  0.1107E+01  0.1107E+01
     -1.280  0.1310E+01  0.1310E+01  0.1177E+01  0.1177E+01
     -1.226  0.1279E+01  0.1279E+01  0.1245E+01  0.1245E+01
     -1.173  0.1343E+01  0.1344E+01  0.1317E+01  0.1317E+01
     -1.120  0.1337E+01  0.1337E+01  0.1388E+01  0.1388E+01
     -1.067  0.1202E+01  0.1202E+01  0.1452E+01  0.1452E+01
     -1.013  0.1192E+01  0.1193E+01  0.1515E+01  0.1516E+01
     -0.960  0.1317E+01  0.1318E+01  0.1586E+01  0.1586E+01
     -0.907  0.1402E+01  0.1402E+01  0.1660E+01  0.1661E+01
     -0.854  0.1448E+01  0.1448E+01  0.1737E+01  0.1738E+01
     -0.800  0.1495E+01  0.1495E+01  0.1817E+01  0.1817E+01
     -0.747  0.1515E+01  0.1515E+01  0.1898E+01  0.1898E+01
     -0.694  0.1469E+01  0.1468E+01  0.1976E+01  0.1976E+01
     -0.641  0.1413E+01  0.1413E+01  0.2051E+01  0.2052E+01
     -0.587  0.1472E+01  0.1472E+01  0.2130E+01  0.2130E+01
     -0.534  0.1619E+01  0.1620E+01  0.2216E+01  0.2216E+01
     -0.481  0.1679E+01  0.1679E+01  0.2305E+01  0.2306E+01
     -0.428  0.1549E+01  0.1548E+01  0.2388E+01  0.2388E+01
     -0.374  0.1380E+01  0.1379E+01  0.2461E+01  0.2462E+01
     -0.321  0.1288E+01  0.1287E+01  0.2530E+01  0.2530E+01
     -0.268  0.1181E+01  0.1180E+01  0.2593E+01  0.2593E+01
     -0.215  0.1093E+01  0.1092E+01  0.2651E+01  0.2651E+01
     -0.161  0.1125E+01  0.1126E+01  0.2711E+01  0.2711E+01
     -0.108  0.1276E+01  0.1277E+01  0.2779E+01  0.2780E+01
     -0.055  0.1472E+01  0.1473E+01  0.2858E+01  0.2858E+01
     -0.001  0.1555E+01  0.1554E+01  0.2940E+01  0.2941E+01
      0.052  0.1468E+01  0.1467E+01  0.3019E+01  0.3019E+01
      0.105  0.1385E+01  0.1385E+01  0.3092E+01  0.3093E+01
      0.158  0.1405E+01  0.1405E+01  0.3167E+01  0.3168E+01
      0.212  0.1450E+01  0.1449E+01  0.3245E+01  0.3245E+01
      0.265  0.1497E+01  0.1496E+01  0.3324E+01  0.3325E+01
      0.318  0.1586E+01  0.1586E+01  0.3409E+01  0.3409E+01
      0.371  0.1720E+01  0.1720E+01  0.3500E+01  0.3501E+01
      0.425  0.1790E+01  0.1789E+01  0.3596E+01  0.3596E+01
      0.478  0.1697E+01  0.1696E+01  0.3686E+01  0.3686E+01
      0.531  0.1527E+01  0.1527E+01  0.3768E+01  0.3768E+01
      0.584  0.1480E+01  0.1480E+01  0.3846E+01  0.3847E+01
      0.638  0.1580E+01  0.1581E+01  0.3931E+01  0.3931E+01
      0.691  0.1682E+01  0.1682E+01  0.4020E+01  0.4021E+01
      0.744  0.1686E+01  0.1686E+01  0.4110E+01  0.4110E+01
      0.797  0.1648E+01  0.1648E+01  0.4198E+01  0.4198E+01
      0.851  0.1729E+01  0.1729E+01  0.4290E+01  0.4290E+01
      0.904  0.1912E+01  0.1912E+01  0.4392E+01  0.4392E+01
      0.957  0.2023E+01  0.2023E+01  0.4500E+01  0.4500E+01
      1.010  0.2080E+01  0.2080E+01  0.4610E+01  0.4611E+01
      1.064  0.2137E+01  0.2137E+01  0.4724E+01  0.4725E+01
      1.117  0.2168E+01  0.2167E+01  0.4840E+01  0.4840E+01
      1.170  0.2158E+01  0.2158E+01  0.4955E+01  0.4955E+01
      1.223  0.2157E+01  0.2157E+01  0.5070E+01  0.5070E+01
      1.277  0.2068E+01  0.2067E+01  0.5180E+01  0.5180E+01
      1.330  0.1902E+01  0.1901E+01  0.5281E+01  0.5282E+01
      1.383  0.1888E+01  0.1888E+01  0.5382E+01  0.5382E+01
      1.436  0.1965E+01  0.1966E+01  0.5487E+01  0.5487E+01
      1.490  0.1884E+01  0.1883E+01  0.5587E+01  0.5587E+01
      1.543  0.1694E+01  0.1693E+01  0.5677E+01  0.5678E+01
      1.596  0.1691E+01  0.1692E+01  0.5767E+01  0.5768E+01
      1.649  0.1867E+01  0.1867E+01  0.5867E+01  0.5867E+01
      1.703  0.1951E+01  0.1950E+01  0.5971E+01  0.5971E+01
      1.756  0.1943E+01  0.1943E+01  0.6074E+01  0.6075E+01
      1.809  0.1901E+01  0.1900E+01  0.6176E+01  0.6176E+01
      1.862  0.1776E+01  0.1775E+01  0.6270E+01  0.6271E+01
      1.916  0.1699E+01  0.1699E+01  0.6361E+01  0.6361E+01
      1.969  0.1882E+01  0.1882E+01  0.6461E+01  0.6461E+01
      2.022  0.2326E+01  0.2326E+01  0.6585E+01  0.6585E+01
      2.075  0.2681E+01  0.2681E+01  0.6728E+01  0.6728E+01
      2.129  0.2700E+01  0.2700E+01  0.6872E+01  0.6872E+01
      2.182  0.2521E+01  0.2521E+01  0.7006E+01  0.7006E+01
      2.235  0.2305E+01  0.2305E+01  0.7129E+01  0.7129E+01
      2.288  0.2028E+01  0.2028E+01  0.7237E+01  0.7237E+01
      2.342  0.1788E+01  0.1787E+01  0.7332E+01  0.7332E+01
      2.395  0.1713E+01  0.1713E+01  0.7423E+01  0.7424E+01
      2.448  0.1811E+01  0.1811E+01  0.7520E+01  0.7520E+01
      2.502  0.2015E+01  0.2016E+01  0.7627E+01  0.7628E+01
      2.555  0.2215E+01  0.2216E+01  0.7745E+01  0.7746E+01
      2.608  0.2353E+01  0.2354E+01  0.7871E+01  0.7871E+01
      2.661  0.2481E+01  0.2481E+01  0.8003E+01  0.8003E+01
      2.715  0.2553E+01  0.2553E+01  0.8139E+01  0.8139E+01
      2.768  0.2574E+01  0.2573E+01  0.8276E+01  0.8276E+01
      2.821  0.2572E+01  0.2572E+01  0.8413E+01  0.8413E+01
      2.874  0.2675E+01  0.2674E+01  0.8556E+01  0.8556E+01
      2.928  0.2948E+01  0.2948E+01  0.8713E+01  0.8713E+01
      2.981  0.3130E+01  0.3130E+01  0.8880E+01  0.8880E+01
      3.034  0.2973E+01  0.2972E+01  0.9038E+01  0.9038E+01
      3.087  0.2726E+01  0.2724E+01  0.9183E+01  0.9183E+01
      3.141  0.2591E+01  0.2590E+01  0.9321E+01  0.9321E+01
      3.194  0.2431E+01  0.2431E+01  0.9451E+01  0.9451E+01
      3.247  0.2252E+01  0.2252E+01  0.9571E+01  0.9571E+01
      3.300  0.2120E+01  0.2120E+01  0.9684E+01  0.9684E+01
      3.354  0.2032E+01  0.2033E+01  0.9792E+01  0.9792E+01
      3.407  0.2080E+01  0.2080E+01  0.9903E+01  0.9903E+01
      3.460  0.2314E+01  0.2314E+01  0.1003E+02  0.1003E+02
      3.513  0.2511E+01  0.2511E+01  0.1016E+02  0.1016E+02
      3.567  0.2506E+01  0.2505E+01  0.1029E+02  0.1029E+02
      3.620  0.2452E+01  0.2452E+01  0.1042E+02  0.1042E+02
      3.673  0.2510E+01  0.2509E+01  0.1056E+02  0.1056E+02
      3.726  0.2607E+01  0.2607E+01  0.1070E+02  0.1070E+02
      3.780  0.2596E+01  0.2596E+01  0.1084E+02  0.1084E+02
      3.833  0.2608E+01  0.2607E+01  0.1097E+02  0.1097E+02
      3.886  0.2811E+01  0.2810E+01  0.1112E+02  0.1112E+02
      3.939  0.3019E+01  0.3019E+01  0.1128E+02  0.1128E+02
      3.993  0.2984E+01  0.2983E+01  0.1144E+02  0.1144E+02
      4.046  0.2839E+01  0.2838E+01  0.1160E+02  0.1159E+02
      4.099  0.2885E+01  0.2883E+01  0.1175E+02  0.1175E+02
      4.152  0.3081E+01  0.3079E+01  0.1191E+02  0.1191E+02
      4.206  0.3214E+01  0.3213E+01  0.1208E+02  0.1208E+02
      4.259  0.3334E+01  0.3333E+01  0.1226E+02  0.1226E+02
      4.312  0.3384E+01  0.3384E+01  0.1244E+02  0.1244E+02
      4.365  0.3319E+01  0.3319E+01  0.1262E+02  0.1262E+02
      4.419  0.3292E+01  0.3292E+01  0.1279E+02  0.1279E+02
      4.472  0.3305E+01  0.3303E+01  0.1297E+02  0.1297E+02
      4.525  0.3419E+01  0.3415E+01  0.1315E+02  0.1315E+02
      4.578  0.3741E+01  0.3737E+01  0.1335E+02  0.1335E+02
      4.632  0.3971E+01  0.3970E+01  0.1356E+02  0.1356E+02
      4.685  0.3832E+01  0.3833E+01  0.1377E+02  0.1377E+02
      4.738  0.3575E+01  0.3574E+01  0.1396E+02  0.1396E+02
      4.791  0.3563E+01  0.3560E+01  0.1415E+02  0.1415E+02
      4.845  0.3886E+01  0.3882E+01  0.1436E+02  0.1435E+02
      4.898  0.4258E+01  0.4255E+01  0.1458E+02  0.1458E+02
      4.951  0.4327E+01  0.4326E+01  0.1481E+02  0.1481E+02
      5.005  0.4146E+01  0.4147E+01  0.1503E+02  0.1503E+02
      5.058  0.3940E+01  0.3938E+01  0.1524E+02  0.1524E+02
      5.111  0.3987E+01  0.3983E+01  0.1546E+02  0.1545E+02
      5.164  0.4251E+01  0.4248E+01  0.1568E+02  0.1568E+02
      5.218  0.4333E+01  0.4333E+01  0.1591E+02  0.1591E+02
      5.271  0.4162E+01  0.4162E+01  0.1614E+02  0.1613E+02
      5.324  0.3929E+01  0.3929E+01  0.1634E+02  0.1634E+02
      5.377  0.3771E+01  0.3769E+01  0.1655E+02  0.1654E+02
      5.431  0.3688E+01  0.3687E+01  0.1674E+02  0.1674E+02
      5.484  0.3717E+01  0.3711E+01  0.1694E+02  0.1694E+02
      5.537  0.4043E+01  0.4033E+01  0.1716E+02  0.1715E+02
      5.590  0.4392E+01  0.4386E+01  0.1739E+02  0.1739E+02
      5.644  0.4354E+01  0.4357E+01  0.1762E+02  0.1762E+02
      5.697  0.4117E+01  0.4119E+01  0.1784E+02  0.1784E+02
      5.750  0.4192E+01  0.4187E+01  0.1806E+02  0.1806E+02
      5.803  0.4716E+01  0.4702E+01  0.1832E+02  0.1831E+02
      5.857  0.5469E+01  0.5453E+01  0.1861E+02  0.1860E+02
      5.910  0.6097E+01  0.6084E+01  0.1893E+02  0.1893E+02
      5.963  0.6368E+01  0.6361E+01  0.1927E+02  0.1926E+02
      6.016  0.6438E+01  0.6431E+01  0.1961E+02  0.1961E+02
      6.070  0.6634E+01  0.6623E+01  0.1997E+02  0.1996E+02
      6.123  0.7058E+01  0.7043E+01  0.2034E+02  0.2034E+02
      6.176  0.7531E+01  0.7517E+01  0.2074E+02  0.2074E+02
      6.229  0.7453E+01  0.7455E+01  0.2114E+02  0.2113E+02
      6.283  0.6651E+01  0.6666E+01  0.2150E+02  0.2149E+02
      6.336  0.5762E+01  0.5773E+01  0.2180E+02  0.2180E+02
      6.389  0.5201E+01  0.5205E+01  0.2208E+02  0.2207E+02
      6.442  0.4930E+01  0.4930E+01  0.2234E+02  0.2234E+02
      6.496  0.4886E+01  0.4882E+01  0.2260E+02  0.2260E+02
      6.549  0.5002E+01  0.4995E+01  0.2287E+02  0.2286E+02
      6.602  0.5231E+01  0.5221E+01  0.2315E+02  0.2314E+02
      6.655  0.5571E+01  0.5558E+01  0.2345E+02  0.2344E+02
      6.709  0.5745E+01  0.5739E+01  0.2375E+02  0.2374E+02
      6.762  0.5550E+01  0.5551E+01  0.2405E+02  0.2404E+02
      6.815  0.5276E+01  0.5277E+01  0.2433E+02  0.2432E+02
      6.868  0.5009E+01  0.5016E+01  0.2460E+02  0.2459E+02
      6.922  0.4488E+01  0.4508E+01  0.2483E+02  0.2483E+02
      6.975  0.3752E+01  0.3772E+01  0.2503E+02  0.2503E+02
      7.028  0.3271E+01  0.3276E+01  0.2521E+02  0.2520E+02
      7.081  0.3248E+01  0.3239E+01  0.2538E+02  0.2538E+02
      7.135  0.3405E+01  0.3397E+01  0.2556E+02  0.2556E+02
      7.188  0.3489E+01  0.3485E+01  0.2575E+02  0.2574E+02
      7.241  0.3568E+01  0.3562E+01  0.2594E+02  0.2593E+02
      7.295  0.3638E+01  0.3636E+01  0.2613E+02  0.2613E+02
      7.348  0.3548E+01  0.3552E+01  0.2632E+02  0.2632E+02
      7.401  0.3446E+01  0.3444E+01  0.2651E+02  0.2650E+02
      7.454  0.3519E+01  0.3511E+01  0.2669E+02  0.2669E+02
      7.508  0.3736E+01  0.3728E+01  0.2689E+02  0.2688E+02
      7.561  0.4016E+01  0.4009E+01  0.2711E+02  0.2710E+02
      7.614  0.4201E+01  0.4197E+01  0.2733E+02  0.2732E+02
      7.667  0.4328E+01  0.4321E+01  0.2756E+02  0.2755E+02
      7.721  0.4521E+01  0.4510E+01  0.2780E+02  0.2779E+02
      7.774  0.4624E+01  0.4622E+01  0.2805E+02  0.2804E+02
      7.827  0.4501E+01  0.4506E+01  0.2829E+02  0.2828E+02
      7.880  0.4484E+01  0.4475E+01  0.2853E+02  0.2852E+02
      7.934  0.4922E+01  0.4896E+01  0.2879E+02  0.2878E+02
      7.987  0.5592E+01  0.5562E+01  0.2909E+02  0.2907E+02
      8.040  0.6320E+01  0.6280E+01  0.2942E+02  0.2941E+02
      8.093  0.7366E+01  0.7298E+01  0.2982E+02  0.2980E+02
      8.147  0.9134E+01  0.9024E+01  0.3030E+02  0.3028E+02
      8.200  0.1158E+02  0.1144E+02  0.3092E+02  0.3089E+02
      8.253  0.1397E+02  0.1385E+02  0.3166E+02  0.3163E+02
      8.306  0.1523E+02  0.1520E+02  0.3248E+02  0.3244E+02
      8.360  0.1433E+02  0.1443E+02  0.3324E+02  0.3320E+02
      8.413  0.1167E+02  0.1183E+02  0.3386E+02  0.3383E+02
      8.466  0.9034E+01  0.9163E+01  0.3434E+02  0.3432E+02
      8.519  0.7111E+01  0.7203E+01  0.3472E+02  0.3471E+02
      8.573  0.5589E+01  0.5659E+01  0.3502E+02  0.3501E+02
      8.626  0.4392E+01  0.4439E+01  0.3525E+02  0.3525E+02
      8.679  0.3639E+01  0.3666E+01  0.3545E+02  0.3544E+02
      8.732  0.3279E+01  0.3293E+01  0.3562E+02  0.3562E+02
      8.786  0.3120E+01  0.3129E+01  0.3579E+02  0.3578E+02
      8.839  0.3105E+01  0.3107E+01  0.3595E+02  0.3595E+02
      8.892  0.3220E+01  0.3217E+01  0.3613E+02  0.3612E+02
      8.945  0.3346E+01  0.3344E+01  0.3630E+02  0.3630E+02
      8.999  0.3395E+01  0.3397E+01  0.3649E+02  0.3648E+02
      9.052  0.3425E+01  0.3426E+01  0.3667E+02  0.3666E+02
      9.105  0.3605E+01  0.3600E+01  0.3686E+02  0.3685E+02
      9.158  0.3984E+01  0.3974E+01  0.3707E+02  0.3707E+02
      9.212  0.4307E+01  0.4298E+01  0.3730E+02  0.3730E+02
      9.265  0.4394E+01  0.4387E+01  0.3754E+02  0.3753E+02
      9.318  0.4388E+01  0.4382E+01  0.3777E+02  0.3776E+02
      9.371  0.4489E+01  0.4481E+01  0.3801E+02  0.3800E+02
      9.425  0.4833E+01  0.4825E+01  0.3827E+02  0.3826E+02
      9.478  0.5276E+01  0.5273E+01  0.3855E+02  0.3854E+02
      9.531  0.5631E+01  0.5632E+01  0.3885E+02  0.3884E+02
      9.584  0.5896E+01  0.5882E+01  0.3916E+02  0.3915E+02
      9.638  0.6010E+01  0.5944E+01  0.3948E+02  0.3947E+02
      9.691  0.5811E+01  0.5666E+01  0.3979E+02  0.3977E+02
      9.744  0.5423E+01  0.5279E+01  0.4008E+02  0.4005E+02
      9.798  0.5003E+01  0.4990E+01  0.4035E+02  0.4032E+02
      9.851  0.4527E+01  0.4641E+01  0.4059E+02  0.4057E+02
      9.904  0.4120E+01  0.4197E+01  0.4081E+02  0.4079E+02
      9.957  0.3994E+01  0.3847E+01  0.4102E+02  0.4099E+02
     10.011  0.4132E+01  0.3767E+01  0.4124E+02  0.4120E+02
     10.064  0.4289E+01  0.3851E+01  0.4147E+02  0.4140E+02
     10.117  0.4306E+01  0.3974E+01  0.4170E+02  0.4161E+02
     10.170  0.4201E+01  0.4078E+01  0.4192E+02  0.4183E+02
     10.224  0.3861E+01  0.3927E+01  0.4213E+02  0.4204E+02
     10.277  0.3274E+01  0.3559E+01  0.4230E+02  0.4223E+02
     10.330  0.2779E+01  0.3248E+01  0.4245E+02  0.4240E+02
     10.383  0.2561E+01  0.3035E+01  0.4259E+02  0.4256E+02
     10.437  0.2577E+01  0.2914E+01  0.4273E+02  0.4272E+02
     10.490  0.2578E+01  0.2786E+01  0.4286E+02  0.4287E+02
     10.543  0.2349E+01  0.2577E+01  0.4299E+02  0.4300E+02
     10.596  0.2090E+01  0.2393E+01  0.4310E+02  0.4313E+02
     10.650  0.2056E+01  0.2277E+01  0.4321E+02  0.4325E+02
     10.703  0.2126E+01  0.2043E+01  0.4332E+02  0.4336E+02
     10.756  0.2129E+01  0.1770E+01  0.4344E+02  0.4346E+02
     10.809  0.2010E+01  0.1609E+01  0.4354E+02  0.4354E+02
     10.863  0.1765E+01  0.1468E+01  0.4364E+02  0.4362E+02
     10.916  0.1464E+01  0.1318E+01  0.4371E+02  0.4369E+02
     10.969  0.1264E+01  0.1252E+01  0.4378E+02  0.4376E+02
     11.022  0.1151E+01  0.1225E+01  0.4384E+02  0.4382E+02
     11.076  0.9779E+00  0.1066E+01  0.4390E+02  0.4388E+02
     11.129  0.6950E+00  0.7834E+00  0.4393E+02  0.4392E+02
     11.182  0.3931E+00  0.5223E+00  0.4395E+02  0.4395E+02
     11.235  0.1866E+00  0.3286E+00  0.4396E+02  0.4397E+02
     11.289  0.9951E-01  0.1907E+00  0.4397E+02  0.4398E+02
     11.342  0.9494E-01  0.1086E+00  0.4397E+02  0.4398E+02
     11.395  0.1186E+00  0.8438E-01  0.4398E+02  0.4399E+02
     11.448  0.1086E+00  0.8672E-01  0.4399E+02  0.4399E+02
     11.502  0.6590E-01  0.7134E-01  0.4399E+02  0.4400E+02
     11.555  0.3453E-01  0.3928E-01  0.4399E+02  0.4400E+02
     11.608  0.2741E-01  0.1659E-01  0.4399E+02  0.4400E+02
     11.661  0.3551E-01  0.6077E-02  0.4400E+02  0.4400E+02
     11.715  0.3964E-01  0.2155E-02  0.4400E+02  0.4400E+02
     11.768  0.2827E-01  0.7501E-03  0.4400E+02  0.4400E+02
     11.821  0.1364E-01  0.2594E-03  0.4400E+02  0.4400E+02
     11.874  0.5411E-02  0.0000E+00  0.4400E+02  0.4400E+02
     11.928  0.1963E-02  0.0000E+00  0.4400E+02  0.4400E+02
     11.981  0.6891E-03  0.0000E+00  0.4400E+02  0.4400E+02
     12.034  0.2390E-03  0.0000E+00  0.4400E+02  0.4400E+02
     12.087  0.0000E+00  0.0000E+00  0.4400E+02  0.4400E+02
     12.141  0.0000E+00  0.0000E+00  0.4400E+02  0.4400E+02
     12.194  0.0000E+00  0.0000E+00  0.4400E+02  0.4400E+02
     12.247  0.0000E+00  0.0000E+00  0.4400E+02  0.4400E+02
     12.301  0.0000E+00  0.0000E+00  0.4400E+02  0.4400E+02
     12.354  0.0000E+00  0.0000E+00  0.4400E+02  0.4400E+02
     12.407  0.0000E+00  0.0000E+00  0.4400E+02  0.4400E+02
     12.40702972     -3.56960964  301      7.76428652      1.00000000
     -3.570  0.0000E+00  0.0000E+00  0.0000E+00  0.0000E+00  0.0000E+00  0.0000E+00  0.0000E+00  0.0000E+00  0.0000E+00  0.0000E+00  0.0000E+00  0.0000E+00  0.0000E+00  0.0000E+00  0.0000E+00  0.0000E+00  0.0000E+00  0.0000E+00
     -3.516  0.0000E+00  0.0000E+00  0.0000E+00  0.0000E+00  0.0000E+00  0.0000E+00  0.0000E+00  0.0000E+00  0.0000E+00  0.0000E+00  0.0000E+00  0.0000E+00  0.0000E+00  0.0000E+00  0.0000E+00  0.0000E+00  0.0000E+00  0.0000E+00
     -3.463  0.0000E+00  0.0000E+00  0.0000E+00  0.0000E+00  0.0000E+00  0.0000E+00  0.0000E+00  0.0000E+00  0.0000E+00  0.0000E+00  0.0000E+00  0.0000E+00  0.0000E+00  0.0000E+00  0.0000E+00  0.0000E+00  0.0000E+00  0.0000E+00
     -3.410  0.0000E+00  0.0000E+00  0.0000E+00  0.0000E+00  0.0000E+00  0.0000E+00  0.0000E+00  0.0000E+00  0.0000E+00  0.0000E+00  0.0000E+00  0.0000E+00  0.0000E+00  0.0000E+00  0.0000E+00  0.0000E+00  0.0000E+00  0.0000E+00
     -3.357  0.0000E+00  0.0000E+00  0.0000E+00  0.0000E+00  0.0000E+00  0.0000E+00  0.0000E+00  0.0000E+00  0.0000E+00  0.0000E+00  0.0000E+00  0.0000E+00  0.0000E+00  0.0000E+00  0.0000E+00  0.0000E+00  0.0000E+00  0.0000E+00
     -3.303  0.0000E+00  0.0000E+00  0.0000E+00  0.0000E+00  0.0000E+00  0.0000E+00  0.0000E+00  0.0000E+00  0.0000E+00  0.0000E+00  0.0000E+00  0.0000E+00  0.0000E+00  0.0000E+00  0.0000E+00  0.0000E+00  0.0000E+00  0.0000E+00
     -3.250  0.2942E-06  0.2953E-06  0.3103E-22  0.4353E-21  0.1048E-08  0.1048E-08  0.3103E-22  0.4353E-21  0.1863E-21  0.5693E-19  0.1196E-17  0.2008E-16  0.8512E-11  0.8148E-11  0.1196E-17  0.2008E-16  0.4214E-18  0.4212E-16
     -3.197  0.2117E-05  0.2124E-05  0.5414E-08  0.5434E-08  0.1411E-07  0.1413E-07  0.5414E-08  0.5434E-08  0.5121E-19  0.1090E-18  0.4044E-10  0.4068E-10  0.8799E-10  0.8588E-10  0.4044E-10  0.4068E-10  0.2095E-10  0.2098E-10
     -3.144  0.7335E-05  0.7361E-05  0.2961E-07  0.2972E-07  0.6192E-07  0.6204E-07  0.2961E-07  0.2972E-07  0.1529E-09  0.1532E-09  0.3899E-09  0.3911E-09  0.3164E-09  0.3106E-09  0.3899E-09  0.3911E-09  0.7754E-10  0.7782E-10
     -3.090  0.2011E-04  0.2017E-04  0.8378E-07  0.8408E-07  0.1728E-06  0.1731E-06  0.8378E-07  0.8408E-07  0.5687E-09  0.5701E-09  0.1249E-08  0.1253E-08  0.8406E-09  0.8243E-09  0.1249E-08  0.1253E-08  0.1869E-09  0.1875E-09
     -3.037  0.5740E-04  0.5760E-04  0.2404E-06  0.2413E-06  0.4980E-06  0.4990E-06  0.2404E-06  0.2413E-06  0.1370E-08  0.1373E-08  0.3308E-08  0.3318E-08  0.2694E-08  0.2648E-08  0.3308E-08  0.3318E-08  0.7767E-09  0.7795E-09
     -2.984  0.1661E-03  0.1666E-03  0.7462E-06  0.7489E-06  0.1509E-05  0.1512E-05  0.7462E-06  0.7489E-06  0.4858E-08  0.4870E-08  0.1104E-07  0.1108E-07  0.8357E-08  0.8227E-08  0.1104E-07  0.1108E-07  0.2696E-08  0.2706E-08
     -2.931  0.4563E-03  0.4577E-03  0.2125E-05  0.2133E-05  0.4235E-05  0.4243E-05  0.2125E-05  0.2133E-05  0.1495E-07  0.1499E-07  0.3269E-07  0.3278E-07  0.2301E-07  0.2265E-07  0.3269E-07  0.3278E-07  0.7405E-08  0.7433E-08
     -2.877  0.1158E-02  0.1161E-02  0.5741E-05  0.5760E-05  0.1117E-04  0.1119E-04  0.5741E-05  0.5760E-05  0.4052E-07  0.4062E-07  0.8839E-07  0.8862E-07  0.5991E-07  0.5904E-07  0.8839E-07  0.8862E-07  0.1992E-07  0.2000E-07
     -2.824  0.2557E-02  0.2562E-02  0.1446E-04  0.1450E-04  0.2689E-04  0.2693E-04  0.1446E-04  0.1450E-04  0.1115E-06  0.1117E-06  0.2335E-06  0.2340E-06  0.1423E-06  0.1405E-06  0.2335E-06  0.2340E-06  0.5114E-07  0.5131E-07
     -2.771  0.4620E-02  0.4626E-02  0.3125E-04  0.3132E-04  0.5519E-04  0.5523E-04  0.3125E-04  0.3132E-04  0.2761E-06  0.2766E-06  0.5481E-06  0.5489E-06  0.2913E-06  0.2883E-06  0.5481E-06  0.5489E-06  0.1173E-06  0.1177E-06
     -2.718  0.6679E-02  0.6683E-02  0.5637E-04  0.5646E-04  0.9437E-04  0.9440E-04  0.5637E-04  0.5646E-04  0.5899E-06  0.5907E-06  0.1093E-05  0.1094E-05  0.5307E-06  0.5270E-06  0.1093E-05  0.1094E-05  0.2528E-06  0.2537E-06
     -2.664  0.8138E-02  0.8140E-02  0.8911E-04  0.8923E-04  0.1427E-03  0.1427E-03  0.8911E-04  0.8923E-04  0.1077E-05  0.1078E-05  0.1917E-05  0.1917E-05  0.9414E-06  0.9378E-06  0.1917E-05  0.1917E-05  0.5431E-06  0.5450E-06
     -2.611  0.9639E-02  0.9642E-02  0.1377E-03  0.1379E-03  0.2125E-03  0.2125E-03  0.1377E-03  0.1379E-03  0.1913E-05  0.1916E-05  0.3291E-05  0.3292E-05  0.1667E-05  0.1663E-05  0.3291E-05  0.3292E-05  0.1087E-05  0.1090E-05
     -2.558  0.1192E-01  0.1192E-01  0.2072E-03  0.2074E-03  0.3107E-03  0.3107E-03  0.2072E-03  0.2074E-03  0.3408E-05  0.3412E-05  0.5585E-05  0.5586E-05  0.2621E-05  0.2616E-05  0.5585E-05  0.5586E-05  0.1779E-05  0.1783E-05
     -2.505  0.1356E-01  0.1355E-01  0.2678E-03  0.2679E-03  0.3985E-03  0.3983E-03  0.2678E-03  0.2679E-03  0.5304E-05  0.5307E-05  0.8279E-05  0.8275E-05  0.3384E-05  0.3376E-05  0.8279E-05  0.8275E-05  0.2274E-05  0.2277E-05
     -2.451  0.1309E-01  0.1308E-01  0.2918E-03  0.2918E-03  0.4492E-03  0.4489E-03  0.2918E-03  0.2918E-03  0.6967E-05  0.6968E-05  0.1064E-04  0.1063E-04  0.3946E-05  0.3941E-05  0.1064E-04  0.1063E-04  0.2569E-05  0.2572E-05
     -2.398  0.1254E-01  0.1254E-01  0.3293E-03  0.3295E-03  0.5276E-03  0.5275E-03  0.3293E-03  0.3295E-03  0.9277E-05  0.9283E-05  0.1418E-04  0.1417E-04  0.5152E-05  0.5153E-05  0.1418E-04  0.1417E-04  0.3435E-05  0.3442E-05
     -2.345  0.1410E-01  0.1411E-01  0.4407E-03  0.4411E-03  0.6612E-03  0.6611E-03  0.4407E-03  0.4411E-03  0.1347E-04  0.1347E-04  0.2026E-04  0.2025E-04  0.7446E-05  0.7450E-05  0.2026E-04  0.2025E-04  0.5721E-05  0.5735E-05
     -2.291  0.1594E-01  0.1594E-01  0.5790E-03  0.5793E-03  0.7343E-03  0.7339E-03  0.5790E-03  0.5793E-03  0.1775E-04  0.1775E-04  0.2590E-04  0.2588E-04  0.1002E-04  0.1002E-04  0.2590E-04  0.2588E-04  0.9289E-05  0.9307E-05
     -2.238  0.1619E-01  0.1618E-01  0.6696E-03  0.6697E-03  0.7254E-03  0.7251E-03  0.6696E-03  0.6697E-03  0.2092E-04  0.2092E-04  0.2980E-04  0.2977E-04  0.1201E-04  0.1201E-04  0.2980E-04  0.2977E-04  0.1254E-04  0.1255E-04
     -2.185  0.1593E-01  0.1593E-01  0.7131E-03  0.7131E-03  0.7899E-03  0.7901E-03  0.7131E-03  0.7131E-03  0.2562E-04  0.2563E-04  0.3632E-04  0.3630E-04  0.1343E-04  0.1342E-04  0.3632E-04  0.3630E-04  0.1356E-04  0.1356E-04
     -2.132  0.1613E-01  0.1613E-01  0.7556E-03  0.7557E-03  0.9363E-03  0.9366E-03  0.7556E-03  0.7557E-03  0.3398E-04  0.3400E-04  0.4595E-04  0.4593E-04  0.1483E-04  0.1483E-04  0.4595E-04  0.4593E-04  0.1311E-04  0.1311E-04
     -2.078  0.1660E-01  0.1660E-01  0.8437E-03  0.8440E-03  0.1012E-02  0.1012E-02  0.8437E-03  0.8440E-03  0.4591E-04  0.4593E-04  0.5459E-04  0.5456E-04  0.1654E-04  0.1653E-04  0.5459E-04  0.5456E-04  0.1386E-04  0.1387E-04
     -2.025  0.1649E-01  0.1648E-01  0.9246E-03  0.9246E-03  0.9958E-03  0.9955E-03  0.9246E-03  0.9246E-03  0.5532E-04  0.5531E-04  0.6029E-04  0.6025E-04  0.1794E-04  0.1792E-04  0.6029E-04  0.6025E-04  0.1587E-04  0.1588E-04
     -1.972  0.1548E-01  0.1547E-01  0.9319E-03  0.9317E-03  0.1023E-02  0.1023E-02  0.9319E-03  0.9317E-03  0.5500E-04  0.5495E-04  0.6480E-04  0.6476E-04  0.2003E-04  0.2002E-04  0.6480E-04  0.6476E-04  0.1892E-04  0.1893E-04
     -1.919  0.1582E-01  0.1582E-01  0.1020E-02  0.1021E-02  0.1223E-02  0.1224E-02  0.1020E-02  0.1021E-02  0.5551E-04  0.5549E-04  0.7612E-04  0.7610E-04  0.2695E-04  0.2697E-04  0.7612E-04  0.7610E-04  0.2657E-04  0.2660E-04
     -1.865  0.1843E-01  0.1843E-01  0.1290E-02  0.1291E-02  0.1545E-02  0.1547E-02  0.1290E-02  0.1291E-02  0.7042E-04  0.7043E-04  0.9484E-04  0.9480E-04  0.3996E-04  0.3998E-04  0.9484E-04  0.9480E-04  0.3888E-04  0.3890E-04
     -1.812  0.2021E-01  0.2021E-01  0.1515E-02  0.1516E-02  0.1756E-02  0.1756E-02  0.1515E-02  0.1516E-02  0.9231E-04  0.9231E-04  0.1062E-03  0.1062E-03  0.5243E-04  0.5240E-04  0.1062E-03  0.1062E-03  0.4725E-04  0.4723E-04
     -1.759  0.1975E-01  0.1974E-01  0.1569E-02  0.1569E-02  0.1786E-02  0.1786E-02  0.1569E-02  0.1569E-02  0.1122E-03  0.1122E-03  0.1120E-03  0.1120E-03  0.5699E-04  0.5690E-04  0.1120E-03  0.1120E-03  0.4732E-04  0.4728E-04
     -1.706  0.1954E-01  0.1954E-01  0.1646E-02  0.1647E-02  0.1872E-02  0.1873E-02  0.1646E-02  0.1647E-02  0.1324E-03  0.1324E-03  0.1344E-03  0.1344E-03  0.5659E-04  0.5649E-04  0.1344E-03  0.1344E-03  0.4773E-04  0.4771E-04
     -1.652  0.2066E-01  0.2066E-01  0.1813E-02  0.1813E-02  0.2140E-02  0.2142E-02  0.1813E-02  0.1813E-02  0.1521E-03  0.1520E-03  0.1712E-03  0.1712E-03  0.5840E-04  0.5830E-04  0.1712E-03  0.1712E-03  0.5247E-04  0.5244E-04
     -1.599  0.2023E-01  0.2021E-01  0.1804E-02  0.1803E-02  0.2286E-02  0.2285E-02  0.1804E-02  0.1803E-02  0.1586E-03  0.1584E-03  0.1903E-03  0.1901E-03  0.5785E-04  0.5772E-04  0.1903E-03  0.1901E-03  0.5130E-04  0.5122E-04
     -1.546  0.1703E-01  0.1700E-01  0.1584E-02  0.1583E-02  0.2087E-02  0.2084E-02  0.1584E-02  0.1583E-02  0.1501E-03  0.1500E-03  0.1850E-03  0.1848E-03  0.5005E-04  0.4991E-04  0.1850E-03  0.1848E-03  0.4399E-04  0.4392E-04
     -1.493  0.1503E-01  0.1502E-01  0.1560E-02  0.1561E-02  0.1979E-02  0.1979E-02  0.1560E-02  0.1561E-02  0.1604E-03  0.1604E-03  0.1944E-03  0.1943E-03  0.4836E-04  0.4831E-04  0.1944E-03  0.1943E-03  0.4548E-04  0.4547E-04
     -1.439  0.1661E-01  0.1662E-01  0.1911E-02  0.1913E-02  0.2371E-02  0.2374E-02  0.1911E-02  0.1913E-02  0.2089E-03  0.2090E-03  0.2317E-03  0.2317E-03  0.6749E-04  0.6751E-04  0.2317E-03  0.2317E-03  0.6141E-04  0.6146E-04
     -1.386  0.1955E-01  0.1955E-01  0.2409E-02  0.2410E-02  0.3032E-02  0.3036E-02  0.2409E-02  0.2410E-02  0.2682E-03  0.2682E-03  0.2691E-03  0.2691E-03  0.1030E-03  0.1030E-03  0.2691E-03  0.2691E-03  0.8745E-04  0.8751E-04
     -1.333  0.2144E-01  0.2144E-01  0.2794E-02  0.2795E-02  0.3569E-02  0.3571E-02  0.2794E-02  0.2795E-02  0.3002E-03  0.3000E-03  0.3018E-03  0.3018E-03  0.1317E-03  0.1316E-03  0.3018E-03  0.3018E-03  0.1143E-03  0.1143E-03
     -1.280  0.2108E-01  0.2106E-01  0.2882E-02  0.2882E-02  0.3713E-02  0.3712E-02  0.2882E-02  0.2882E-02  0.2975E-03  0.2973E-03  0.3313E-03  0.3312E-03  0.1336E-03  0.1333E-03  0.3313E-03  0.3312E-03  0.1269E-03  0.1268E-03
     -1.226  0.2004E-01  0.2004E-01  0.2896E-02  0.2896E-02  0.3723E-02  0.3724E-02  0.2896E-02  0.2896E-02  0.3131E-03  0.3131E-03  0.3681E-03  0.3681E-03  0.1249E-03  0.1246E-03  0.3681E-03  0.3681E-03  0.1281E-03  0.1280E-03
     -1.173  0.2040E-01  0.2040E-01  0.3105E-02  0.3105E-02  0.4084E-02  0.4087E-02  0.3105E-02  0.3105E-02  0.3682E-03  0.3682E-03  0.4305E-03  0.4304E-03  0.1292E-03  0.1290E-03  0.4305E-03  0.4304E-03  0.1326E-03  0.1325E-03
     -1.120  0.1960E-01  0.1958E-01  0.3114E-02  0.3112E-02  0.4325E-02  0.4324E-02  0.3114E-02  0.3112E-02  0.3951E-03  0.3948E-03  0.4648E-03  0.4644E-03  0.1279E-03  0.1276E-03  0.4648E-03  0.4644E-03  0.1292E-03  0.1290E-03
     -1.067  0.1679E-01  0.1677E-01  0.2825E-02  0.2823E-02  0.4185E-02  0.4184E-02  0.2825E-02  0.2823E-02  0.3991E-03  0.3988E-03  0.4669E-03  0.4665E-03  0.1075E-03  0.1072E-03  0.4669E-03  0.4665E-03  0.1107E-03  0.1106E-03
     -1.013  0.1569E-01  0.1568E-01  0.2838E-02  0.2838E-02  0.4456E-02  0.4459E-02  0.2838E-02  0.2838E-02  0.4631E-03  0.4631E-03  0.5349E-03  0.5350E-03  0.9791E-04  0.9772E-04  0.5349E-03  0.5350E-03  0.1012E-03  0.1011E-03
     -0.960  0.1659E-01  0.1658E-01  0.3158E-02  0.3159E-02  0.5165E-02  0.5169E-02  0.3158E-02  0.3159E-02  0.5653E-03  0.5653E-03  0.6527E-03  0.6529E-03  0.1131E-03  0.1130E-03  0.6527E-03  0.6529E-03  0.1073E-03  0.1072E-03
     -0.907  0.1698E-01  0.1697E-01  0.3416E-02  0.3417E-02  0.5664E-02  0.5665E-02  0.3416E-02  0.3417E-02  0.6411E-03  0.6410E-03  0.7300E-03  0.7299E-03  0.1349E-03  0.1347E-03  0.7300E-03  0.7299E-03  0.1162E-03  0.1161E-03