 vasp.6.4.1 05Apr23 (build Jul 24 2024 14:19:02) complex                         
 executed on             LinuxGNU date 2024.10.23  13:13:50
 running    1 mpi-ranks, with   24 threads/rank, on    1 nodes
 distrk:  each k-point on    1 cores,    1 groups
 distr:  one band on NCORE=   1 cores,    1 groups


--------------------------------------------------------------------------------------------------------


 INCAR:
   ISTART = 0
   ALGO = Fast
   EDIFF = 0.0001
   ENCUT = 520
   IBRION = -1
   ISIF = 2
   ISMEAR = -5
   ISPIN = 2
   LASPH = True
   LMAXMIX = 6
   LORBIT = 11
   LREAL = Auto
   LWAVE = False
   MAGMOM = 2*0.6
   NELM = 100
   NSW = 0
   PREC = Accurate
   SIGMA = 0.05

 POTCAR:    PAW_PBE Nb_pv 08Apr2002               
 POTCAR:    PAW_PBE Nb_pv 08Apr2002               
   SHA256 =  bac2b60850b34f8515cf56f9feae68b678e347865051052a0e1f5d2c6a691c0a Nb_pv/POTCAR          
   COPYR  = (c) Copyright 08Apr2002 Georg Kresse                                                    
   COPYR  = This file is part of the software VASP. Any use, copying, and all other rights are regul
   COPYR  = If you do not have a valid VASP license, you may not use, copy or distribute this file. 
   VRHFIN =Nb: 4p5s4d                                                                               
   LEXCH  = PE                                                                                      
   EATOM  =  1043.3917 eV,   76.6871 Ry                                                             
                                                                                                    
   TITEL  = PAW_PBE Nb_pv 08Apr2002                                                                 
   LULTRA =        F    use ultrasoft PP ?                                                          
   IUNSCR =        1    unscreen: 0-lin 1-nonlin 2-no                                               
   RPACOR =    2.200    partial core radius                                                         
   POMASS =   92.000; ZVAL   =   11.000    mass and valenz                                          
   RCORE  =    2.750    outmost cutoff radius                                                       
   RWIGS  =    2.840; RWIGS  =    1.503    wigner-seitz radius (au A)                               
   ENMAX  =  208.608; ENMIN  =  156.456 eV                                                          
   RCLOC  =    2.201    cutoff for local pot                                                        
   LCOR   =        T    correct aug charges                                                         
   LPAW   =        T    paw PP                                                                      
   EAUG   =  355.067                                                                                
   DEXC   =    0.000                                                                                
   RMAX   =    2.804    core radius for proj-oper                                                   
   RAUG   =    1.300    factor for augmentation sphere                                              
   RDEP   =    2.776    radius for radial grids                                                     
   RDEPT  =    2.198    core radius for aug-charge                                                  
                                                                                                    
   Atomic configuration                                                                             
   11 entries                                                                                       
     n  l   j            E        occ.                                                              
     1  0  0.50    -18805.2456   2.0000                                                             
     2  0  0.50     -2630.2869   2.0000                                                             
     2  1  1.50     -2348.4045   6.0000                                                             
     3  0  0.50      -438.8756   2.0000                                                             
     3  1  1.50      -346.7587   6.0000                                                             
     3  2  2.50      -196.2559  10.0000                                                             
     4  0  0.50       -58.3859   2.0000                                                             
     4  1  1.50       -34.5141   6.0000                                                             
     4  2  2.50        -3.0408   4.0000                                                             
     5  0  0.50        -3.9816   1.0000                                                             
     4  3  2.50        -1.3606   0.0000                                                             
   Description                                                                                      
     l       E           TYP  RCUT    TYP  RCUT                                                     
     1    -34.5140617     23  2.600                                                                 
     1     -1.3605826     23  2.600                                                                 
     2     -3.0407924     23  2.600                                                                 
     2     -1.4463597     23  2.600                                                                 
     0     -3.9816219     23  2.750                                                                 
     0     20.4087390     23  2.750                                                                 
  local pseudopotential read in
  partial core-charges read in
  partial kinetic energy density read in
  atomic valenz-charges read in
  non local Contribution for L=           1  read in
    real space projection operators read in
  non local Contribution for L=           1  read in
    real space projection operators read in
  non local Contribution for L=           2  read in
    real space projection operators read in
  non local Contribution for L=           2  read in
    real space projection operators read in
  non local Contribution for L=           0  read in
    real space projection operators read in
  non local Contribution for L=           0  read in
    real space projection operators read in
    PAW grid and wavefunctions read in

   number of l-projection  operators is LMAX  =           6
   number of lm-projection operators is LMMAX =          18

 -----------------------------------------------------------------------------
|                                                                             |
|               ----> ADVICE to this user running VASP <----                  |
|                                                                             |
|     You have a (more or less) 'small supercell' and for smaller cells       |
|     it is recommended to use the reciprocal-space projection scheme!        |
|     The real-space optimization is not efficient for small cells and it     |
|     is also less accurate ...                                               |
|     Therefore, set LREAL=.FALSE. in the INCAR file.                         |
|                                                                             |
 -----------------------------------------------------------------------------

 Optimization of the real space projectors (new method)

 maximal supplied QI-value         = 13.61
 optimisation between [QCUT,QGAM] = [ 11.57, 23.27] = [ 37.45,151.59] Ry 
 Optimized for a Real-space Cutoff    1.63 Angstroem

   l    n(q)    QCUT    max X(q) W(low)/X(q) W(high)/X(q)  e(spline) 
   1     11    11.565     4.545    0.12E-04    0.18E-04    0.64E-07
   1     11    11.565     6.014    0.42E-04    0.48E-04    0.13E-06
   2     10    11.565   266.542    0.24E-03    0.87E-04    0.13E-05
   2     10    11.565   232.726    0.24E-03    0.87E-04    0.13E-05
   0     11    11.565    38.050    0.76E-04    0.32E-05    0.94E-06
   0     11    11.565    16.565    0.58E-04    0.25E-05    0.73E-06
  PAW_PBE Nb_pv 08Apr2002               :
 energy of atom  1       EATOM=-1043.3917
 kinetic energy error for atom=    0.0011 (will be added to EATOM!!)


 POSCAR: Generated POSCAR
  positions in direct lattice
  velocities in cartesian coordinates
 exchange correlation table for  LEXCH =        8
   RHO(1)=    0.500       N(1)  =     2000
   RHO(2)=  100.500       N(2)  =     4000



--------------------------------------------------------------------------------------------------------


 ion  position               nearest neighbor table
   1  0.000  0.000  0.000-   2 2.89   2 2.89   2 2.89   2 2.89   2 2.89   2 2.89   2 2.89   2 2.89

   2  0.500  0.500  0.500-   1 2.89   1 2.89   1 2.89   1 2.89   1 2.89   1 2.89   1 2.89   1 2.89


  LATTYP: Found a simple tetragonal cell.
 ALAT       =     3.3217793369
 C/A-ratio  =     1.0100000000
  
  Lattice vectors:
  
 A1 = (   3.3217793369,   0.0000000000,   0.0000000000)
 A2 = (   0.0000000000,   3.3217793369,   0.0000000000)
 A3 = (   0.0000000000,   0.0000000000,   3.3549971303)


Analysis of symmetry for initial positions (statically):
=====================================================================
 Subroutine PRICEL returns following result:
 
  LATTYP: Found a body centered tetragonal cell.
 ALAT       =     3.3217793369
 C/A-ratio  =     1.0100000000
  
  Lattice vectors:
  
 A1 = (  -1.6608896685,  -1.6608896685,  -1.6774985651)
 A2 = (   1.6608896685,   1.6608896685,  -1.6774985651)
 A3 = (   1.6608896685,  -1.6608896685,   1.6774985651)
 
   2 primitive cells build up your supercell.
 

 Routine SETGRP: Setting up the symmetry group for a 
 simple tetragonal supercell.


 Subroutine GETGRP returns: Found 16 space group operations
 (whereof 16 operations were pure point group operations)
 out of a pool of 16 trial point group operations.


The static configuration has the point symmetry D_4h.


Analysis of symmetry for dynamics (positions and initial velocities):
=====================================================================
 Subroutine PRICEL returns following result:
 
  LATTYP: Found a body centered tetragonal cell.
 ALAT       =     3.3217793369
 C/A-ratio  =     1.0100000000
  
  Lattice vectors:
  
 A1 = (  -1.6608896685,  -1.6608896685,  -1.6774985651)
 A2 = (   1.6608896685,   1.6608896685,  -1.6774985651)
 A3 = (   1.6608896685,  -1.6608896685,   1.6774985651)
 
   2 primitive cells build up your supercell.
 

 Routine SETGRP: Setting up the symmetry group for a 
 simple tetragonal supercell.


 Subroutine GETGRP returns: Found 16 space group operations
 (whereof 16 operations were pure point group operations)
 out of a pool of 16 trial point group operations.


The dynamic configuration has the point symmetry D_4h.


Analysis of structural, dynamic, and magnetic symmetry:
=====================================================================
 Subroutine PRICEL returns following result:
 
  LATTYP: Found a body centered tetragonal cell.
 ALAT       =     3.3217793369
 C/A-ratio  =     1.0100000000
  
  Lattice vectors:
  
 A1 = (  -1.6608896685,  -1.6608896685,  -1.6774985651)
 A2 = (   1.6608896685,   1.6608896685,  -1.6774985651)
 A3 = (   1.6608896685,  -1.6608896685,   1.6774985651)
 
   2 primitive cells build up your supercell.
 

 Routine SETGRP: Setting up the symmetry group for a 
 simple tetragonal supercell.


 Subroutine GETGRP returns: Found 16 space group operations
 (whereof 16 operations were pure point group operations)
 out of a pool of 16 trial point group operations.


The overall configuration has the point symmetry D_4h.


 Subroutine INISYM returns: Found 16 space group operations
 (whereof 16 operations are pure point group operations),
 and found     2 'primitive' translations


----------------------------------------------------------------------------------------

                                     Primitive cell                                     

  volume of cell :      18.5099

  direct lattice vectors                    reciprocal lattice vectors
    -1.660889668 -1.660889668 -1.677498565    -0.000000000 -0.301043477 -0.298062848
     1.660889668  1.660889668 -1.677498565     0.301043477 -0.000000000 -0.298062848
     1.660889668 -1.660889668  1.677498565     0.301043477 -0.301043477 -0.000000000

  length of vectors
     2.886366300  2.886366300  2.886366300     0.423637388  0.423637388  0.425739767

  position of ions in fractional coordinates (direct lattice)
     0.000000000  0.000000000  0.000000000

  ion indices of the primitive-cell ions
   primitive index   ion index
                 1           1

----------------------------------------------------------------------------------------



 KPOINTS: pymatgen with grid density = 869 / numbe

Automatic generation of k-mesh.
 Grid dimensions read from file:
 generate k-points for:    7    7    7

 Generating k-lattice:

  Cartesian coordinates                     Fractional coordinates (reciprocal lattice)
     0.043006211 -0.000000000  0.000000000     0.142857143 -0.000000000  0.000000000
     0.000000000  0.043006211  0.000000000     0.000000000  0.142857143  0.000000000
    -0.000000000 -0.000000000  0.042580407     0.000000000  0.000000000  0.142857143

  Length of vectors
     0.043006211  0.043006211  0.042580407

  Shift w.r.t. Gamma in fractional coordinates (k-lattice)
     0.000000000  0.000000000  0.000000000

 TETIRR: Found    500 inequivalent tetrahedra from     2058
 
 Subroutine IBZKPT returns following result:
 ===========================================
 
 Found     40 irreducible k-points:
 
 Following reciprocal coordinates:
            Coordinates               Weight
  0.000000  0.000000  0.000000      1.000000
  0.142857  0.000000  0.000000      4.000000
  0.285714  0.000000  0.000000      4.000000
  0.428571  0.000000  0.000000      4.000000
  0.142857  0.142857  0.000000      4.000000
  0.285714  0.142857  0.000000      8.000000
  0.428571  0.142857  0.000000      8.000000
  0.285714  0.285714  0.000000      4.000000
  0.428571  0.285714  0.000000      8.000000
  0.428571  0.428571  0.000000      4.000000
  0.000000  0.000000  0.142857      2.000000
  0.142857  0.000000  0.142857      8.000000
  0.285714  0.000000  0.142857      8.000000
  0.428571  0.000000  0.142857      8.000000
  0.142857  0.142857  0.142857      8.000000
  0.285714  0.142857  0.142857     16.000000
  0.428571  0.142857  0.142857     16.000000
  0.285714  0.285714  0.142857      8.000000
  0.428571  0.285714  0.142857     16.000000
  0.428571  0.428571  0.142857      8.000000
  0.000000  0.000000  0.285714      2.000000
  0.142857  0.000000  0.285714      8.000000
  0.285714  0.000000  0.285714      8.000000
  0.428571  0.000000  0.285714      8.000000
  0.142857  0.142857  0.285714      8.000000
  0.285714  0.142857  0.285714     16.000000
  0.428571  0.142857  0.285714     16.000000
  0.285714  0.285714  0.285714      8.000000
  0.428571  0.285714  0.285714     16.000000
  0.428571  0.428571  0.285714      8.000000
  0.000000  0.000000  0.428571      2.000000
  0.142857  0.000000  0.428571      8.000000
  0.285714  0.000000  0.428571      8.000000
  0.428571  0.000000  0.428571      8.000000
  0.142857  0.142857  0.428571      8.000000
  0.285714  0.142857  0.428571     16.000000
  0.428571  0.142857  0.428571     16.000000
  0.285714  0.285714  0.428571      8.000000
  0.428571  0.285714  0.428571     16.000000
  0.428571  0.428571  0.428571      8.000000
 
 Following cartesian coordinates:
            Coordinates               Weight
  0.000000  0.000000  0.000000      1.000000
  0.043006  0.000000  0.000000      4.000000
  0.086012  0.000000  0.000000      4.000000
  0.129019  0.000000  0.000000      4.000000
  0.043006  0.043006  0.000000      4.000000
  0.086012  0.043006  0.000000      8.000000
  0.129019  0.043006  0.000000      8.000000
  0.086012  0.086012  0.000000      4.000000
  0.129019  0.086012  0.000000      8.000000
  0.129019  0.129019  0.000000      4.000000
  0.000000  0.000000  0.042580      2.000000
  0.043006  0.000000  0.042580      8.000000
  0.086012  0.000000  0.042580      8.000000
  0.129019  0.000000  0.042580      8.000000
  0.043006  0.043006  0.042580      8.000000
  0.086012  0.043006  0.042580     16.000000
  0.129019  0.043006  0.042580     16.000000
  0.086012  0.086012  0.042580      8.000000
  0.129019  0.086012  0.042580     16.000000
  0.129019  0.129019  0.042580      8.000000
  0.000000  0.000000  0.085161      2.000000
  0.043006  0.000000  0.085161      8.000000
  0.086012  0.000000  0.085161      8.000000
  0.129019  0.000000  0.085161      8.000000
  0.043006  0.043006  0.085161      8.000000
  0.086012  0.043006  0.085161     16.000000
  0.129019  0.043006  0.085161     16.000000
  0.086012  0.086012  0.085161      8.000000
  0.129019  0.086012  0.085161     16.000000
  0.129019  0.129019  0.085161      8.000000
  0.000000  0.000000  0.127741      2.000000
  0.043006  0.000000  0.127741      8.000000
  0.086012  0.000000  0.127741      8.000000
  0.129019  0.000000  0.127741      8.000000
  0.043006  0.043006  0.127741      8.000000
  0.086012  0.043006  0.127741     16.000000
  0.129019  0.043006  0.127741     16.000000
  0.086012  0.086012  0.127741      8.000000
  0.129019  0.086012  0.127741     16.000000
  0.129019  0.129019  0.127741      8.000000
 


--------------------------------------------------------------------------------------------------------




 Dimension of arrays:
   k-points           NKPTS =     40   k-points in BZ     NKDIM =     40   number of bands    NBANDS=     16
   number of dos      NEDOS =    301   number of ions     NIONS =      2
   non local maximal  LDIM  =      6   non local SUM 2l+1 LMDIM =     18
   total plane-waves  NPLWV =  21952
   max r-space proj   IRMAX =  10752   max aug-charges    IRDMAX=  36704
   dimension x,y,z NGX =    28 NGY =   28 NGZ =   28
   dimension x,y,z NGXF=    56 NGYF=   56 NGZF=   56
   support grid    NGXF=    56 NGYF=   56 NGZF=   56
   ions per type =               2
   NGX,Y,Z   is equivalent  to a cutoff of  14.01, 14.01, 13.87 a.u.
   NGXF,Y,Z  is equivalent  to a cutoff of  28.03, 28.03, 27.75 a.u.

 SYSTEM =  unknown system                          
 POSCAR =  Generated POSCAR                        

 Startparameter for this run:
   NWRITE =      2    write-flag & timer
   PREC   = accura    normal or accurate (medium, high low for compatibility)
   ISTART =      0    job   : 0-new  1-cont  2-samecut
   ICHARG =      2    charge: 1-file 2-atom 10-const
   ISPIN  =      2    spin polarized calculation?
   LNONCOLLINEAR =      F non collinear calculations
   LSORBIT =      F    spin-orbit coupling
   INIWAV =      1    electr: 0-lowe 1-rand  2-diag
   LASPH  =      T    aspherical Exc in radial PAW
 Electronic Relaxation 1
   ENCUT  =  520.0 eV  38.22 Ry    6.18 a.u.   6.18  6.18  6.24*2*pi/ulx,y,z
   ENINI  =  520.0     initial cutoff
   ENAUG  =  355.1 eV  augmentation charge cutoff
   NELM   =    100;   NELMIN=  2; NELMDL= -5     # of ELM steps 
   EDIFF  = 0.1E-03   stopping-criterion for ELM
   LREAL  =      T    real-space projection
   NLSPLINE    = F    spline interpolate recip. space projectors
   LCOMPAT=      F    compatible to vasp.4.4
   GGA_COMPAT  = T    GGA compatible to vasp.4.4-vasp.4.6
   LMAXPAW     = -100 max onsite density
   LMAXMIX     =    6 max onsite mixed and CHGCAR
   VOSKOWN=      0    Vosko Wilk Nusair interpolation
   ROPT   =   -0.00025
 Ionic relaxation
   EDIFFG = 0.1E-02   stopping-criterion for IOM
   NSW    =      0    number of steps for IOM
   NBLOCK =      1;   KBLOCK =      1    inner block; outer block 
   IBRION =     -1    ionic relax: 0-MD 1-quasi-New 2-CG
   NFREE  =      0    steps in history (QN), initial steepest desc. (CG)
   ISIF   =      2    stress and relaxation
   IWAVPR =     10    prediction:  0-non 1-charg 2-wave 3-comb
   ISYM   =      2    0-nonsym 1-usesym 2-fastsym
   LCORR  =      T    Harris-Foulkes like correction to forces

   POTIM  = 0.5000    time-step for ionic-motion
   TEIN   =    0.0    initial temperature
   TEBEG  =    0.0;   TEEND  =   0.0 temperature during run
   SMASS  =  -3.00    Nose mass-parameter (am)
   estimated Nose-frequenzy (Omega)   =  0.10E-29 period in steps = 0.13E+47 mass=  -0.252E-27a.u.
   SCALEE = 1.0000    scale energy and forces
   NPACO  =    256;   APACO  = 10.0  distance and # of slots for P.C.
   PSTRESS=    0.0 pullay stress

  Mass of Ions in am
   POMASS =  92.00
  Ionic Valenz
   ZVAL   =  11.00
  Atomic Wigner-Seitz radii
   RWIGS  =  -1.00
  virtual crystal weights 
   VCA    =   1.00
   NELECT =      22.0000    total number of electrons
   NUPDOWN=      -1.0000    fix difference up-down

 DOS related values:
   EMIN   =  10.00;   EMAX   =-10.00  energy-range for DOS
   EFERMI =   0.00;   METHOD = LEGACY      
   ISMEAR =    -5;   SIGMA  =   0.05  broadening in eV -4-tet -1-fermi 0-gaus

 Electronic relaxation 2 (details)
   IALGO  =     68    algorithm
   LDIAG  =      T    sub-space diagonalisation (order eigenvalues)
   LSUBROT=      F    optimize rotation matrix (better conditioning)
   TURBO    =      0    0=normal 1=particle mesh
   IRESTART =      0    0=no restart 2=restart with 2 vectors
   NREBOOT  =      0    no. of reboots
   NMIN     =      0    reboot dimension
   EREF     =   0.00    reference energy to select bands
   IMIX   =      4    mixing-type and parameters
     AMIX     =   0.40;   BMIX     =  1.00
     AMIX_MAG =   1.60;   BMIX_MAG =  1.00
     AMIN     =   0.10
     WC   =   100.;   INIMIX=   1;  MIXPRE=   1;  MAXMIX= -45

 Intra band minimization:
   WEIMIN = 0.0000     energy-eigenvalue tresh-hold
   EBREAK =  0.16E-05  absolut break condition
   DEPER  =   0.30     relativ break condition  

   TIME   =   0.40     timestep for ELM

  volume/ion in A,a.u.               =      18.51       124.91
  Fermi-wavevector in a.u.,A,eV,Ry     =   1.376378  2.600978 25.775112  1.894417
  Thomas-Fermi vector in A             =   2.501628

 Write flags
   LWAVE        =      F    write WAVECAR
   LDOWNSAMPLE  =      F    k-point downsampling of WAVECAR
   LCHARG       =      T    write CHGCAR
   LVTOT        =      F    write LOCPOT, total local potential
   LVHAR        =      F    write LOCPOT, Hartree potential only
   LELF         =      F    write electronic localiz. function (ELF)
   LORBIT       =     11    0 simple, 1 ext, 2 COOP (PROOUT), +10 PAW based schemes


 Dipole corrections
   LMONO  =      F    monopole corrections only (constant potential shift)
   LDIPOL =      F    correct potential (dipole corrections)
   IDIPOL =      0    1-x, 2-y, 3-z, 4-all directions 
   EPSILON=  1.0000000 bulk dielectric constant

 Exchange correlation treatment:
   GGA     =    --    GGA type
   LEXCH   =     8    internal setting for exchange type
   LIBXC   =     F    Libxc                    
   VOSKOWN =     0    Vosko Wilk Nusair interpolation
   LHFCALC =     F    Hartree Fock is set to
   LHFONE  =     F    Hartree Fock one center treatment
   AEXX    =    0.0000 exact exchange contribution

 Linear response parameters
   LEPSILON=     F    determine dielectric tensor
   LRPA    =     F    only Hartree local field effects (RPA)
   LNABLA  =     F    use nabla operator in PAW spheres
   LVEL    =     F    velocity operator in full k-point grid
   CSHIFT  =0.1000    complex shift for real part using Kramers Kronig
   OMEGAMAX=  -1.0    maximum frequency
   DEG_THRESHOLD= 0.2000000E-02 threshold for treating states as degnerate
   RTIME   =   -0.100 relaxation time in fs
  (WPLASMAI=    0.000 imaginary part of plasma frequency in eV, 0.658/RTIME)
   DFIELD  = 0.0000000 0.0000000 0.0000000 field for delta impulse in time

  Optional k-point grid parameters
   LKPOINTS_OPT  =     F    use optional k-point grid
   KPOINTS_OPT_MODE=     1    mode for optional k-point grid

 Orbital magnetization related:
   ORBITALMAG=     F  switch on orbital magnetization
   LCHIMAG   =     F  perturbation theory with respect to B field
   DQ        =  0.001000  dq finite difference perturbation B field
   LLRAUG    =     F  two centre corrections for induced B field
   LBONE     =     F  B-component reconstruction in AE one-centre
   LVGVCALC  =     T  calculate vGv susceptibility
   LVGVAPPL  =     F  apply vGv susceptibility instead of pGv for G=0

 Random number generation:
   RANDOM_GENERATOR = DEFAULT
   PCG_SEED         = not used


--------------------------------------------------------------------------------------------------------


 Static calculation
 charge density and potential will be updated during run
 spin polarized calculation
 RMM-DIIS sequential band-by-band and
  variant of blocked Davidson during initial phase
 perform sub-space diagonalisation
    before iterative eigenvector-optimisation
 modified Broyden-mixing scheme, WC =      100.0
 initial mixing is a Kerker type mixing with AMIX =  0.4000 and BMIX =      1.0000
 Hartree-type preconditioning will be used
 using additional bands            5
 real space projection scheme for non local part
 use partial core corrections
 calculate Harris-corrections to forces   (improved forces if not selfconsistent)
 use gradient corrections 
 use of overlap-Matrix (Vanderbilt PP)
 Fermi weights with tetrahedron method with Bloechl corrections


--------------------------------------------------------------------------------------------------------


  energy-cutoff  :      520.00
  volume of cell :       37.02
      direct lattice vectors                 reciprocal lattice vectors
     3.321779337  0.000000000  0.000000000     0.301043477 -0.000000000  0.000000000
     0.000000000  3.321779337  0.000000000     0.000000000  0.301043477  0.000000000
     0.000000000  0.000000000  3.354997130    -0.000000000 -0.000000000  0.298062848

  length of vectors
     3.321779337  3.321779337  3.354997130     0.301043477  0.301043477  0.298062848



 k-points in units of 2pi/SCALE and weight: pymatgen with grid density = 869 / numbe
   0.00000000  0.00000000  0.00000000       0.003
   0.04300621  0.00000000  0.00000000       0.012
   0.08601242  0.00000000  0.00000000       0.012
   0.12901863  0.00000000  0.00000000       0.012
   0.04300621  0.04300621  0.00000000       0.012
   0.08601242  0.04300621  0.00000000       0.023
   0.12901863  0.04300621  0.00000000       0.023
   0.08601242  0.08601242  0.00000000       0.012
   0.12901863  0.08601242  0.00000000       0.023
   0.12901863  0.12901863  0.00000000       0.012
   0.00000000  0.00000000  0.04258041       0.006
   0.04300621  0.00000000  0.04258041       0.023
   0.08601242  0.00000000  0.04258041       0.023
   0.12901863  0.00000000  0.04258041       0.023
   0.04300621  0.04300621  0.04258041       0.023
   0.08601242  0.04300621  0.04258041       0.047
   0.12901863  0.04300621  0.04258041       0.047
   0.08601242  0.08601242  0.04258041       0.023
   0.12901863  0.08601242  0.04258041       0.047
   0.12901863  0.12901863  0.04258041       0.023
   0.00000000  0.00000000  0.08516081       0.006
   0.04300621  0.00000000  0.08516081       0.023
   0.08601242  0.00000000  0.08516081       0.023
   0.12901863  0.00000000  0.08516081       0.023
   0.04300621  0.04300621  0.08516081       0.023
   0.08601242  0.04300621  0.08516081       0.047
   0.12901863  0.04300621  0.08516081       0.047
   0.08601242  0.08601242  0.08516081       0.023
   0.12901863  0.08601242  0.08516081       0.047
   0.12901863  0.12901863  0.08516081       0.023
   0.00000000  0.00000000  0.12774122       0.006
   0.04300621  0.00000000  0.12774122       0.023
   0.08601242  0.00000000  0.12774122       0.023
   0.12901863  0.00000000  0.12774122       0.023
   0.04300621  0.04300621  0.12774122       0.023
   0.08601242  0.04300621  0.12774122       0.047
   0.12901863  0.04300621  0.12774122       0.047
   0.08601242  0.08601242  0.12774122       0.023
   0.12901863  0.08601242  0.12774122       0.047
   0.12901863  0.12901863  0.12774122       0.023

 k-points in reciprocal lattice and weights: pymatgen with grid density = 869 / numbe
   0.00000000  0.00000000  0.00000000       0.003
   0.14285714  0.00000000  0.00000000       0.012
   0.28571429  0.00000000  0.00000000       0.012
   0.42857143  0.00000000  0.00000000       0.012
   0.14285714  0.14285714  0.00000000       0.012
   0.28571429  0.14285714  0.00000000       0.023
   0.42857143  0.14285714  0.00000000       0.023
   0.28571429  0.28571429  0.00000000       0.012
   0.42857143  0.28571429  0.00000000       0.023
   0.42857143  0.42857143  0.00000000       0.012
   0.00000000  0.00000000  0.14285714       0.006
   0.14285714  0.00000000  0.14285714       0.023
   0.28571429  0.00000000  0.14285714       0.023
   0.42857143  0.00000000  0.14285714       0.023
   0.14285714  0.14285714  0.14285714       0.023
   0.28571429  0.14285714  0.14285714       0.047
   0.42857143  0.14285714  0.14285714       0.047
   0.28571429  0.28571429  0.14285714       0.023
   0.42857143  0.28571429  0.14285714       0.047
   0.42857143  0.42857143  0.14285714       0.023
   0.00000000  0.00000000  0.28571429       0.006
   0.14285714  0.00000000  0.28571429       0.023
   0.28571429  0.00000000  0.28571429       0.023
   0.42857143  0.00000000  0.28571429       0.023
   0.14285714  0.14285714  0.28571429       0.023
   0.28571429  0.14285714  0.28571429       0.047
   0.42857143  0.14285714  0.28571429       0.047
   0.28571429  0.28571429  0.28571429       0.023
   0.42857143  0.28571429  0.28571429       0.047
   0.42857143  0.42857143  0.28571429       0.023
   0.00000000  0.00000000  0.42857143       0.006
   0.14285714  0.00000000  0.42857143       0.023
   0.28571429  0.00000000  0.42857143       0.023
   0.42857143  0.00000000  0.42857143       0.023
   0.14285714  0.14285714  0.42857143       0.023
   0.28571429  0.14285714  0.42857143       0.047
   0.42857143  0.14285714  0.42857143       0.047
   0.28571429  0.28571429  0.42857143       0.023
   0.42857143  0.28571429  0.42857143       0.047
   0.42857143  0.42857143  0.42857143       0.023

 position of ions in fractional coordinates (direct lattice) 
   0.00000000  0.00000000  0.00000000
   0.50000000  0.50000000  0.50000000

 position of ions in cartesian coordinates  (Angst):
   0.00000000  0.00000000  0.00000000
   1.66088967  1.66088967  1.67749857



--------------------------------------------------------------------------------------------------------


 k-point   1 :   0.0000 0.0000 0.0000  plane waves:    1021
 k-point   2 :   0.1429 0.0000 0.0000  plane waves:     989
 k-point   3 :   0.2857 0.0000 0.0000  plane waves:     994
 k-point   4 :   0.4286 0.0000 0.0000  plane waves:     998
 k-point   5 :   0.1429 0.1429 0.0000  plane waves:     985
 k-point   6 :   0.2857 0.1429 0.0000  plane waves:     995
 k-point   7 :   0.4286 0.1429 0.0000  plane waves:     995
 k-point   8 :   0.2857 0.2857 0.0000  plane waves:     993
 k-point   9 :   0.4286 0.2857 0.0000  plane waves:     996
 k-point  10 :   0.4286 0.4286 0.0000  plane waves:    1012
 k-point  11 :   0.0000 0.0000 0.1429  plane waves:     989
 k-point  12 :   0.1429 0.0000 0.1429  plane waves:     993
 k-point  13 :   0.2857 0.0000 0.1429  plane waves:    1004
 k-point  14 :   0.4286 0.0000 0.1429  plane waves:     994
 k-point  15 :   0.1429 0.1429 0.1429  plane waves:     991
 k-point  16 :   0.2857 0.1429 0.1429  plane waves:     996
 k-point  17 :   0.4286 0.1429 0.1429  plane waves:     995
 k-point  18 :   0.2857 0.2857 0.1429  plane waves:    1000
 k-point  19 :   0.4286 0.2857 0.1429  plane waves:    1001
 k-point  20 :   0.4286 0.4286 0.1429  plane waves:    1007
 k-point  21 :   0.0000 0.0000 0.2857  plane waves:     996
 k-point  22 :   0.1429 0.0000 0.2857  plane waves:     995
 k-point  23 :   0.2857 0.0000 0.2857  plane waves:     993
 k-point  24 :   0.4286 0.0000 0.2857  plane waves:     995
 k-point  25 :   0.1429 0.1429 0.2857  plane waves:     995
 k-point  26 :   0.2857 0.1429 0.2857  plane waves:     995
 k-point  27 :   0.4286 0.1429 0.2857  plane waves:     999
 k-point  28 :   0.2857 0.2857 0.2857  plane waves:     997
 k-point  29 :   0.4286 0.2857 0.2857  plane waves:     996
 k-point  30 :   0.4286 0.4286 0.2857  plane waves:     997
 k-point  31 :   0.0000 0.0000 0.4286  plane waves:    1000
 k-point  32 :   0.1429 0.0000 0.4286  plane waves:    1000
 k-point  33 :   0.2857 0.0000 0.4286  plane waves:     991
 k-point  34 :   0.4286 0.0000 0.4286  plane waves:    1000
 k-point  35 :   0.1429 0.1429 0.4286  plane waves:     995
 k-point  36 :   0.2857 0.1429 0.4286  plane waves:     998
 k-point  37 :   0.4286 0.1429 0.4286  plane waves:     997
 k-point  38 :   0.2857 0.2857 0.4286  plane waves:     996
 k-point  39 :   0.4286 0.2857 0.4286  plane waves:    1000
 k-point  40 :   0.4286 0.4286 0.4286  plane waves:    1006

 maximum and minimum number of plane-waves per node :      1021      985

 maximum number of plane-waves:      1021
 maximum index in each direction: 
   IXMAX=    6   IYMAX=    6   IZMAX=    6
   IXMIN=   -6   IYMIN=   -6   IZMIN=   -6


 serial   3D FFT for wavefunctions
 parallel 3D FFT for charge:
    minimum data exchange during FFTs selected (reduces bandwidth)


 total amount of memory used by VASP MPI-rank0    78883. kBytes
=======================================================================

   base      :      30000. kBytes
   nonlr-proj:       6206. kBytes
   fftplans  :       6192. kBytes
   grid      :      14776. kBytes
   one-center:         62. kBytes
   wavefun   :      21647. kBytes

     INWAV:  cpu time      0.0030: real time      0.0000
 Broyden mixing: mesh for mixing (old mesh)
   NGX = 13   NGY = 13   NGZ = 13
  (NGX  = 56   NGY  = 56   NGZ  = 56)
  gives a total of   2197 points

 initial charge density was supplied:
 charge density of overlapping atoms calculated
 number of electron      22.0000000 magnetization       1.2000000
 keeping initial charge density in first step


--------------------------------------------------------------------------------------------------------


 Maximum index for non-local projection operator         1138
 Maximum index for augmentation-charges        35401 (set IRDMAX)


--------------------------------------------------------------------------------------------------------


 First call to EWALD:  gamma=   0.532
 Maximum number of real-space cells 3x 3x 3
 Maximum number of reciprocal cells 3x 3x 3

    FEWALD:  cpu time      0.0042: real time      0.0042


--------------------------------------- Ionic step        1  -------------------------------------------




--------------------------------------- Iteration      1(   1)  ---------------------------------------


    POTLOK:  cpu time      1.6116: real time      0.1216
    SETDIJ:  cpu time      1.1778: real time      0.2699
     EDDAV:  cpu time    292.9057: real time     15.9936
 BZINTS: Fermi energy:   23.427039;   22.000000 electrons
         Band energy:-0.303118E+02;  BLOECHL correction:   -0.557908
       DOS:  cpu time      0.2621: real time      0.0342
    --------------------------------------------
      LOOP:  cpu time    295.9571: real time     16.4193

 eigenvalue-minimisations  :  2776
 total energy-change (2. order) : 0.2011335E+03  (-0.1160444E+04)
 number of electron      22.0000000 magnetization       1.2000000
 augmentation part       22.0000000 magnetization       1.2000000

 Free energy of the ion-electron system (eV)
  ---------------------------------------------------
  alpha Z        PSCENC =       244.57667505
  Ewald energy   TEWEN  =     -1902.56446717
  -Hartree energ DENC   =      -281.79227234
  -exchange      EXHF   =         0.00000000
  -V(xc)+E(xc)   XCENC  =        52.53566775
  PAW double counting   =      1671.32378679    -1639.41528309
  entropy T*S    EENTRO =         0.00000000
  eigenvalues    EBANDS =       -30.31180652
  atomic energy  EATOM  =      2086.78124273
  Solvation  Ediel_sol  =         0.00000000
  ---------------------------------------------------
  free energy    TOTEN  =       201.13354320 eV

  energy without entropy =      201.13354320  energy(sigma->0) =      201.13354320


--------------------------------------------------------------------------------------------------------




--------------------------------------- Iteration      1(   2)  ---------------------------------------


     EDDAV:  cpu time    469.3577: real time     24.0377
 BZINTS: Fermi energy:    7.052583;   22.000000 electrons
         Band energy:-0.241892E+03;  BLOECHL correction:   -0.270951
       DOS:  cpu time      0.2695: real time      0.0282
    --------------------------------------------
      LOOP:  cpu time    469.6272: real time     24.0659

 eigenvalue-minimisations  :  2656
 total energy-change (2. order) :-0.2115802E+03  (-0.2093674E+03)
 number of electron      22.0000000 magnetization       1.2000000
 augmentation part       22.0000000 magnetization       1.2000000

 Free energy of the ion-electron system (eV)
  ---------------------------------------------------
  alpha Z        PSCENC =       244.57667505
  Ewald energy   TEWEN  =     -1902.56446717
  -Hartree energ DENC   =      -281.79227234
  -exchange      EXHF   =         0.00000000
  -V(xc)+E(xc)   XCENC  =        52.53566775
  PAW double counting   =      1671.32378679    -1639.41528309
  entropy T*S    EENTRO =         0.00000000
  eigenvalues    EBANDS =      -241.89202206
  atomic energy  EATOM  =      2086.78124273
  Solvation  Ediel_sol  =         0.00000000
  ---------------------------------------------------
  free energy    TOTEN  =       -10.44667235 eV

  energy without entropy =      -10.44667235  energy(sigma->0) =      -10.44667235


--------------------------------------------------------------------------------------------------------




--------------------------------------- Iteration      1(   3)  ---------------------------------------


     EDDAV:  cpu time    490.9490: real time     25.9719
 BZINTS: Fermi energy:    5.404985;   22.000000 electrons
         Band energy:-0.252443E+03;  BLOECHL correction:   -0.210925
       DOS:  cpu time      0.2469: real time      0.0349
    --------------------------------------------
      LOOP:  cpu time    491.1958: real time     26.0068

 eigenvalue-minimisations  :  4240
 total energy-change (2. order) :-0.1055090E+02  (-0.1008230E+02)
 number of electron      22.0000000 magnetization       1.2000000
 augmentation part       22.0000000 magnetization       1.2000000

 Free energy of the ion-electron system (eV)
  ---------------------------------------------------
  alpha Z        PSCENC =       244.57667505
  Ewald energy   TEWEN  =     -1902.56446717
  -Hartree energ DENC   =      -281.79227234
  -exchange      EXHF   =         0.00000000
  -V(xc)+E(xc)   XCENC  =        52.53566775
  PAW double counting   =      1671.32378679    -1639.41528309
  entropy T*S    EENTRO =         0.00000000
  eigenvalues    EBANDS =      -252.44292354
  atomic energy  EATOM  =      2086.78124273
  Solvation  Ediel_sol  =         0.00000000
  ---------------------------------------------------
  free energy    TOTEN  =       -20.99757383 eV

  energy without entropy =      -20.99757383  energy(sigma->0) =      -20.99757383


--------------------------------------------------------------------------------------------------------




--------------------------------------- Iteration      1(   4)  ---------------------------------------


     EDDAV:  cpu time    289.4377: real time     16.0602
 BZINTS: Fermi energy:    5.375047;   22.000000 electrons
         Band energy:-0.252605E+03;  BLOECHL correction:   -0.206828
       DOS:  cpu time      0.2426: real time      0.0310
    --------------------------------------------
      LOOP:  cpu time    289.6802: real time     16.0911

 eigenvalue-minimisations  :  3104
 total energy-change (2. order) :-0.1623399E+00  (-0.1600154E+00)
 number of electron      22.0000000 magnetization       1.2000000
 augmentation part       22.0000000 magnetization       1.2000000

 Free energy of the ion-electron system (eV)
  ---------------------------------------------------
  alpha Z        PSCENC =       244.57667505
  Ewald energy   TEWEN  =     -1902.56446717
  -Hartree energ DENC   =      -281.79227234
  -exchange      EXHF   =         0.00000000
  -V(xc)+E(xc)   XCENC  =        52.53566775
  PAW double counting   =      1671.32378679    -1639.41528309
  entropy T*S    EENTRO =         0.00000000
  eigenvalues    EBANDS =      -252.60526346
  atomic energy  EATOM  =      2086.78124273
  Solvation  Ediel_sol  =         0.00000000
  ---------------------------------------------------
  free energy    TOTEN  =       -21.15991374 eV

  energy without entropy =      -21.15991374  energy(sigma->0) =      -21.15991374


--------------------------------------------------------------------------------------------------------




--------------------------------------- Iteration      1(   5)  ---------------------------------------


     EDDAV:  cpu time   1077.6207: real time     52.1902
 BZINTS: Fermi energy:    5.372709;   22.000000 electrons
         Band energy:-0.252610E+03;  BLOECHL correction:   -0.205787
       DOS:  cpu time      0.2402: real time      0.0296
    CHARGE:  cpu time     16.9425: real time      0.9744
    MIXING:  cpu time      0.0011: real time      0.0011
    --------------------------------------------
      LOOP:  cpu time   1094.8044: real time     53.1954

 eigenvalue-minimisations  :  4040
 total energy-change (2. order) :-0.4649391E-02  (-0.4803584E-02)
 number of electron      22.0000002 magnetization       0.3521393
 augmentation part        7.7532791 magnetization      -0.0538998

 Broyden mixing:
  rms(total) = 0.23570E+01    rms(broyden)= 0.23570E+01
  rms(prec ) = 0.27887E+01
  weight for this iteration     100.00

 Free energy of the ion-electron system (eV)
  ---------------------------------------------------
  alpha Z        PSCENC =       244.57667505
  Ewald energy   TEWEN  =     -1902.56446717
  -Hartree energ DENC   =      -281.79227234
  -exchange      EXHF   =         0.00000000
  -V(xc)+E(xc)   XCENC  =        52.53566775
  PAW double counting   =      1671.32378679    -1639.41528309
  entropy T*S    EENTRO =         0.00000000
  eigenvalues    EBANDS =      -252.60991285
  atomic energy  EATOM  =      2086.78124273
  Solvation  Ediel_sol  =         0.00000000
  ---------------------------------------------------
  free energy    TOTEN  =       -21.16456313 eV

  energy without entropy =      -21.16456313  energy(sigma->0) =      -21.16456313


--------------------------------------------------------------------------------------------------------




--------------------------------------- Iteration      1(   6)  ---------------------------------------


    POTLOK:  cpu time      1.6619: real time      0.1233
    SETDIJ:  cpu time      1.1614: real time      0.2509
    EDDIAG:  cpu time     48.8541: real time      2.7596
  RMM-DIIS:  cpu time    163.0477: real time      8.8748
    ORTHCH:  cpu time      1.0579: real time      0.0646
 BZINTS: Fermi energy:    5.016276;   22.000000 electrons
         Band energy:-0.266885E+03;  BLOECHL correction:   -0.208435
       DOS:  cpu time      0.3281: real time      0.0290
    CHARGE:  cpu time     18.5747: real time      1.0427
    MIXING:  cpu time      0.0028: real time      0.0028
    --------------------------------------------
      LOOP:  cpu time    234.6886: real time     13.1476

 eigenvalue-minimisations  :  2823
 total energy-change (2. order) : 0.8208466E+00  (-0.8264613E-01)
 number of electron      22.0000002 magnetization       0.1592784
 augmentation part        7.8822549 magnetization      -0.0563216

 Broyden mixing:
  rms(total) = 0.88562E+00    rms(broyden)= 0.88562E+00
  rms(prec ) = 0.11740E+01
  weight for this iteration     100.00

 eigenvalues of (default mixing * dielectric matrix)
  average eigenvalue GAMMA=   1.4877
  1.4877

 Free energy of the ion-electron system (eV)
  ---------------------------------------------------
  alpha Z        PSCENC =       244.57667505
  Ewald energy   TEWEN  =     -1902.56446717
  -Hartree energ DENC   =      -262.18952990
  -exchange      EXHF   =         0.00000000
  -V(xc)+E(xc)   XCENC  =        51.50891089
  PAW double counting   =      2173.31589815    -2144.88772021
  entropy T*S    EENTRO =         0.00000000
  eigenvalues    EBANDS =      -266.88472603
  atomic energy  EATOM  =      2086.78124273
  Solvation  Ediel_sol  =         0.00000000
  ---------------------------------------------------
  free energy    TOTEN  =       -20.34371650 eV

  energy without entropy =      -20.34371650  energy(sigma->0) =      -20.34371650


--------------------------------------------------------------------------------------------------------




--------------------------------------- Iteration      1(   7)  ---------------------------------------


    POTLOK:  cpu time      1.2524: real time      0.1133
    SETDIJ:  cpu time      1.2230: real time      0.2532
    EDDIAG:  cpu time     52.2010: real time      2.9645
  RMM-DIIS:  cpu time    206.6709: real time     11.1798
    ORTHCH:  cpu time      1.0202: real time      0.0602
 BZINTS: Fermi energy:    4.719050;   22.000000 electrons
         Band energy:-0.278778E+03;  BLOECHL correction:   -0.207313
       DOS:  cpu time      0.2587: real time      0.0265
    CHARGE:  cpu time     23.7787: real time      1.3145
    MIXING:  cpu time      0.0018: real time      0.0018
    --------------------------------------------
      LOOP:  cpu time    286.4066: real time     15.9139

 eigenvalue-minimisations  :  3482
 total energy-change (2. order) : 0.1448324E+00  (-0.2204468E+00)
 number of electron      22.0000002 magnetization       0.0363486
 augmentation part        8.0562924 magnetization       0.0347172

 Broyden mixing:
  rms(total) = 0.23943E+00    rms(broyden)= 0.23943E+00
  rms(prec ) = 0.25806E+00
  weight for this iteration     100.00

 eigenvalues of (default mixing * dielectric matrix)
  average eigenvalue GAMMA=   1.0704
  1.6030  0.5378

 Free energy of the ion-electron system (eV)
  ---------------------------------------------------
  alpha Z        PSCENC =       244.57667505
  Ewald energy   TEWEN  =     -1902.56446717
  -Hartree energ DENC   =      -246.38444643
  -exchange      EXHF   =         0.00000000
  -V(xc)+E(xc)   XCENC  =        50.72360398
  PAW double counting   =      2583.86438855    -2558.41804557
  entropy T*S    EENTRO =         0.00000000
  eigenvalues    EBANDS =      -278.77783524
  atomic energy  EATOM  =      2086.78124273
  Solvation  Ediel_sol  =         0.00000000
  ---------------------------------------------------
  free energy    TOTEN  =       -20.19888409 eV

  energy without entropy =      -20.19888409  energy(sigma->0) =      -20.19888409


--------------------------------------------------------------------------------------------------------




--------------------------------------- Iteration      1(   8)  ---------------------------------------


    POTLOK:  cpu time      1.4000: real time      0.1110
    SETDIJ:  cpu time      1.1051: real time      0.2525
    EDDIAG:  cpu time     49.8871: real time      2.8107
  RMM-DIIS:  cpu time    180.5532: real time     10.0924
    ORTHCH:  cpu time      0.6586: real time      0.0429
 BZINTS: Fermi energy:    4.730304;   22.000000 electrons
         Band energy:-0.278224E+03;  BLOECHL correction:   -0.207473
       DOS:  cpu time      0.2997: real time      0.0261
    CHARGE:  cpu time     14.4379: real time      0.8408
    MIXING:  cpu time      0.0015: real time      0.0015
    --------------------------------------------
      LOOP:  cpu time    248.3431: real time     14.1780

 eigenvalue-minimisations  :  3691
 total energy-change (2. order) :-0.1157493E-01  (-0.1103096E-01)
 number of electron      22.0000002 magnetization       0.0232171
 augmentation part        8.0631423 magnetization       0.0153808

 Broyden mixing:
  rms(total) = 0.11672E+00    rms(broyden)= 0.11672E+00
  rms(prec ) = 0.14477E+00
  weight for this iteration     100.00

 eigenvalues of (default mixing * dielectric matrix)
  average eigenvalue GAMMA=   1.0635
  1.8196  0.6855  0.6855

 Free energy of the ion-electron system (eV)
  ---------------------------------------------------
  alpha Z        PSCENC =       244.57667505
  Ewald energy   TEWEN  =     -1902.56446717
  -Hartree energ DENC   =      -246.74314491
  -exchange      EXHF   =         0.00000000
  -V(xc)+E(xc)   XCENC  =        50.73456658
  PAW double counting   =      2630.47689197    -2605.24857709
  entropy T*S    EENTRO =         0.00000000
  eigenvalues    EBANDS =      -278.22364618
  atomic energy  EATOM  =      2086.78124273
  Solvation  Ediel_sol  =         0.00000000
  ---------------------------------------------------
  free energy    TOTEN  =       -20.21045902 eV

  energy without entropy =      -20.21045902  energy(sigma->0) =      -20.21045902


--------------------------------------------------------------------------------------------------------




--------------------------------------- Iteration      1(   9)  ---------------------------------------


    POTLOK:  cpu time      3.0251: real time      0.1867
    SETDIJ:  cpu time      1.0779: real time      0.2735
    EDDIAG:  cpu time     75.3506: real time      4.1004
  RMM-DIIS:  cpu time    203.8813: real time     11.2438
    ORTHCH:  cpu time      1.1759: real time      0.0713
 BZINTS: Fermi energy:    4.739163;   22.000000 electrons
         Band energy:-0.277805E+03;  BLOECHL correction:   -0.207597
       DOS:  cpu time      0.2507: real time      0.0302
    CHARGE:  cpu time     15.5998: real time      0.9016
    MIXING:  cpu time      0.0021: real time      0.0021
    --------------------------------------------
      LOOP:  cpu time    300.3634: real time     16.8095

 eigenvalue-minimisations  :  3679
 total energy-change (2. order) : 0.2174500E-04  (-0.2493665E-02)
 number of electron      22.0000002 magnetization       0.0186470
 augmentation part        8.0634957 magnetization       0.0157324

 Broyden mixing:
  rms(total) = 0.94356E-01    rms(broyden)= 0.94356E-01
  rms(prec ) = 0.12098E+00
  weight for this iteration     100.00

 eigenvalues of (default mixing * dielectric matrix)
  average eigenvalue GAMMA=   1.0786
  2.0590  0.8287  0.8287  0.5977

 Free energy of the ion-electron system (eV)
  ---------------------------------------------------
  alpha Z        PSCENC =       244.57667505
  Ewald energy   TEWEN  =     -1902.56446717
  -Hartree energ DENC   =      -247.10531430
  -exchange      EXHF   =         0.00000000
  -V(xc)+E(xc)   XCENC  =        50.75139392
  PAW double counting   =      2669.55917664    -2644.40417590
  entropy T*S    EENTRO =         0.00000000
  eigenvalues    EBANDS =      -277.80496824
  atomic energy  EATOM  =      2086.78124273
  Solvation  Ediel_sol  =         0.00000000
  ---------------------------------------------------
  free energy    TOTEN  =       -20.21043727 eV

  energy without entropy =      -20.21043727  energy(sigma->0) =      -20.21043727


--------------------------------------------------------------------------------------------------------




--------------------------------------- Iteration      1(  10)  ---------------------------------------


    POTLOK:  cpu time      1.5132: real time      0.1227
    SETDIJ:  cpu time      1.0482: real time      0.2440
    EDDIAG:  cpu time     49.7800: real time      2.8191
  RMM-DIIS:  cpu time    146.0565: real time      8.1862
    ORTHCH:  cpu time      0.8410: real time      0.0506
 BZINTS: Fermi energy:    4.760356;   22.000000 electrons
         Band energy:-0.276860E+03;  BLOECHL correction:   -0.207917
       DOS:  cpu time      0.3115: real time      0.0257
    CHARGE:  cpu time     13.9372: real time      0.8171
    MIXING:  cpu time      0.0015: real time      0.0015
    --------------------------------------------
      LOOP:  cpu time    213.4890: real time     12.2667

 eigenvalue-minimisations  :  2961
 total energy-change (2. order) : 0.3310592E-02  (-0.5871069E-03)
 number of electron      22.0000002 magnetization      -0.0069717
 augmentation part        8.0552253 magnetization      -0.0035782

 Broyden mixing:
  rms(total) = 0.67728E-01    rms(broyden)= 0.67728E-01
  rms(prec ) = 0.75288E-01
  weight for this iteration     100.00

 eigenvalues of (default mixing * dielectric matrix)
  average eigenvalue GAMMA=   1.3558
  2.6354  1.3775  1.3775  0.6302  0.7586

 Free energy of the ion-electron system (eV)
  ---------------------------------------------------
  alpha Z        PSCENC =       244.57667505
  Ewald energy   TEWEN  =     -1902.56446717
  -Hartree energ DENC   =      -248.03538973
  -exchange      EXHF   =         0.00000000
  -V(xc)+E(xc)   XCENC  =        50.79573247
  PAW double counting   =      2743.63414976    -2718.53462228
  entropy T*S    EENTRO =         0.00000000
  eigenvalues    EBANDS =      -276.86044752
  atomic energy  EATOM  =      2086.78124273
  Solvation  Ediel_sol  =         0.00000000
  ---------------------------------------------------
  free energy    TOTEN  =       -20.20712668 eV

  energy without entropy =      -20.20712668  energy(sigma->0) =      -20.20712668


--------------------------------------------------------------------------------------------------------




--------------------------------------- Iteration      1(  11)  ---------------------------------------


    POTLOK:  cpu time      1.2385: real time      0.1093
    SETDIJ:  cpu time      1.0615: real time      0.2486
    EDDIAG:  cpu time     45.8588: real time      2.5927
  RMM-DIIS:  cpu time    170.0370: real time      9.4372
    ORTHCH:  cpu time      0.6577: real time      0.0470
 BZINTS: Fermi energy:    4.772202;   22.000000 electrons
         Band energy:-0.276323E+03;  BLOECHL correction:   -0.208084
       DOS:  cpu time      0.2988: real time      0.0240
    CHARGE:  cpu time     16.7527: real time      0.9499
    MIXING:  cpu time      0.0020: real time      0.0020
    --------------------------------------------
      LOOP:  cpu time    235.9069: real time     13.4108

 eigenvalue-minimisations  :  3370
 total energy-change (2. order) :-0.6487265E-04  (-0.5461949E-03)
 number of electron      22.0000002 magnetization      -0.0048638
 augmentation part        8.0484443 magnetization      -0.0003845

 Broyden mixing:
  rms(total) = 0.35309E-02    rms(broyden)= 0.35309E-02
  rms(prec ) = 0.43741E-02
  weight for this iteration     100.00

 eigenvalues of (default mixing * dielectric matrix)
  average eigenvalue GAMMA=   1.2721
  2.5916  1.4512  1.4512  0.7905  0.6247  0.7231

 Free energy of the ion-electron system (eV)
  ---------------------------------------------------
  alpha Z        PSCENC =       244.57667505
  Ewald energy   TEWEN  =     -1902.56446717
  -Hartree energ DENC   =      -248.51928359
  -exchange      EXHF   =         0.00000000
  -V(xc)+E(xc)   XCENC  =        50.81851524
  PAW double counting   =      2821.68258588    -2796.65994456
  entropy T*S    EENTRO =         0.00000000
  eigenvalues    EBANDS =      -276.32251513
  atomic energy  EATOM  =      2086.78124273
  Solvation  Ediel_sol  =         0.00000000
  ---------------------------------------------------
  free energy    TOTEN  =       -20.20719155 eV

  energy without entropy =      -20.20719155  energy(sigma->0) =      -20.20719155


--------------------------------------------------------------------------------------------------------




--------------------------------------- Iteration      1(  12)  ---------------------------------------


    POTLOK:  cpu time      1.1162: real time      0.0974
    SETDIJ:  cpu time      1.0202: real time      0.2470
    EDDIAG:  cpu time     49.2561: real time      2.7865
  RMM-DIIS:  cpu time    130.1074: real time      7.2116
    ORTHCH:  cpu time      1.1213: real time      0.0656
 BZINTS: Fermi energy:    4.772410;   22.000000 electrons
         Band energy:-0.276314E+03;  BLOECHL correction:   -0.208090
       DOS:  cpu time      0.2437: real time      0.0266
    --------------------------------------------
      LOOP:  cpu time    182.8649: real time     10.4346

 eigenvalue-minimisations  :  2414
 total energy-change (2. order) :-0.7463939E-04  (-0.5950432E-04)
 number of electron      22.0000002 magnetization      -0.0048638
 augmentation part        8.0484443 magnetization      -0.0003845

 Free energy of the ion-electron system (eV)
  ---------------------------------------------------
  alpha Z        PSCENC =       244.57667505
  Ewald energy   TEWEN  =     -1902.56446717
  -Hartree energ DENC   =      -248.54472068
  -exchange      EXHF   =         0.00000000
  -V(xc)+E(xc)   XCENC  =        50.81975350
  PAW double counting   =      2820.86293342    -2795.82464603
  entropy T*S    EENTRO =         0.00000000
  eigenvalues    EBANDS =      -276.31403702
  atomic energy  EATOM  =      2086.78124273
  Solvation  Ediel_sol  =         0.00000000
  ---------------------------------------------------
  free energy    TOTEN  =       -20.20726619 eV

  energy without entropy =      -20.20726619  energy(sigma->0) =      -20.20726619


--------------------------------------------------------------------------------------------------------




 average (electrostatic) potential at core
  the test charge radii are     1.2125
  (the norm of the test charge is              1.0000)
       1 -35.2785       2 -35.2785



 E-fermi :   4.7724     XC(G=0): -12.2951     alpha+bet :-12.6387

 Fermi energy:         4.7724097032

 spin component 1

 k-point     1 :       0.0000    0.0000    0.0000
  band No.  band energies     occupation 
      1     -25.8905      1.00000
      2     -25.8659      1.00000
      3     -25.8659      1.00000
      4     -25.0212      1.00000
      5     -25.0208      1.00000
      6     -25.0208      1.00000
      7      -1.1192      1.00000
      8       1.1728      1.00000
      9       1.1979      1.00000
     10       5.0878     -0.08024
     11       5.0878     -0.01894
     12       5.1941      0.00000
     13       7.8667      0.00000
     14       8.0093      0.00000
     15      10.1537      0.00000
     16      10.1769      0.00000

 k-point     2 :       0.1429    0.0000    0.0000
  band No.  band energies     occupation 
      1     -25.8705      1.00000
      2     -25.8461      1.00000
      3     -25.8226      1.00000
      4     -25.1133      1.00000
      5     -25.0625      1.00000
      6     -25.0608      1.00000
      7      -0.7116      1.00000
      8       1.4050      1.00000
      9       1.5285      1.00000
     10       5.0516      0.06115
     11       5.1553     -0.03839
     12       5.2789      0.00000
     13       7.4071      0.00000
     14       8.1190      0.00000
     15       8.9960      0.00000
     16       9.0197      0.00000

 k-point     3 :       0.2857    0.0000    0.0000
  band No.  band energies     occupation 
      1     -25.8583      1.00000
      2     -25.7222      1.00000
      3     -25.7018      1.00000
      4     -25.3406      1.00000
      5     -25.1793      1.00000
      6     -25.1740      1.00000
      7       0.3779      1.00000
      8       2.0739      1.00000
      9       2.2697      1.00000
     10       5.0646      0.44514
     11       5.1612     -0.09575
     12       5.8368      0.00000
     13       6.0779      0.00000
     14       7.3488      0.00000
     15       7.4058      0.00000
     16       8.6470      0.00000

 k-point     4 :       0.4286    0.0000    0.0000
  band No.  band energies     occupation 
      1     -25.7756      1.00000
      2     -25.5925      1.00000
      3     -25.5449      1.00000
      4     -25.5292      1.00000
      5     -25.3510      1.00000
      6     -25.3406      1.00000
      7       1.7318      1.00000
      8       2.5656      1.00000
      9       3.1465      1.00000
     10       4.5393      0.98935
     11       5.3589     -0.17980
     12       5.4454      0.00000
     13       6.1023      0.00000
     14       6.1764      0.00000
     15       6.7110      0.00000
     16       7.8008      0.00000

 k-point     5 :       0.1429    0.1429    0.0000
  band No.  band energies     occupation 
      1     -25.9425      1.00000
      2     -25.8053      1.00000
      3     -25.7180      1.00000
      4     -25.2708      1.00000
      5     -25.0989      1.00000
      6     -25.0240      1.00000
      7      -0.3412      1.00000
      8       1.6414      1.00000
      9       1.8306      1.00000
     10       4.6336      0.86743
     11       5.0169      0.05584
     12       5.8727     -0.00612
     13       7.5325      0.00000
     14       7.7596      0.00000
     15       7.9173      0.00000
     16       8.0829      0.00000

 k-point     6 :       0.2857    0.1429    0.0000
  band No.  band energies     occupation 
      1     -25.9836      1.00000
      2     -25.6919      1.00000
      3     -25.5619      1.00000
      4     -25.5273      1.00000
      5     -25.2024      1.00000
      6     -25.0774      1.00000
      7       0.6165      1.00000
      8       2.1580      1.00000
      9       2.6066      1.00000
     10       4.3815      1.01677
     11       4.7823      0.65999
     12       6.2600     -0.05278
     13       6.7301      0.00000
     14       6.8085      0.00000
     15       6.8595      0.00000
     16       8.4544      0.00000

 k-point     7 :       0.4286    0.1429    0.0000
  band No.  band energies     occupation 
      1     -25.9359      1.00000
      2     -25.7749      1.00000
      3     -25.5307      1.00000
      4     -25.3833      1.00000
      5     -25.3558      1.00000
      6     -25.2096      1.00000
      7       1.7348      1.00000
      8       2.4269      1.00000
      9       3.3953      1.00000
     10       4.2881      1.00320
     11       4.5194      0.95496
     12       5.1420     -0.02687
     13       6.3390      0.00000
     14       6.4035      0.00000
     15       7.7598      0.00000
     16       8.9030      0.00000

 k-point     8 :       0.2857    0.2857    0.0000
  band No.  band energies     occupation 
      1     -26.1106      1.00000
      2     -25.8028      1.00000
      3     -25.6088      1.00000
      4     -25.3729      1.00000
      5     -25.2694      1.00000
      6     -25.0313      1.00000
      7       1.0848      1.00000
      8       2.0934      1.00000
      9       3.5995      1.00000
     10       3.7656      1.00000
     11       4.7910      0.80175
     12       4.9188      0.10204
     13       6.4337      0.00000
     14       7.6525      0.00000
     15       7.9944      0.00000
     16       8.1763      0.00000

 k-point     9 :       0.4286    0.2857    0.0000
  band No.  band energies     occupation 
      1     -26.1368      1.00000
      2     -26.0287      1.00000
      3     -25.4932      1.00000
      4     -25.3719      1.00000
      5     -25.2037      1.00000
      6     -25.0806      1.00000
      7       1.4565      1.00000
      8       1.8032      1.00000
      9       3.6108      1.00000
     10       3.9973      1.00000
     11       4.6004      0.77583
     12       5.0721     -0.01310
     13       6.9540      0.00000
     14       7.5228      0.00000
     15       8.8311      0.00000
     16       9.2436      0.00000

 k-point    10 :       0.4286    0.4286    0.0000
  band No.  band energies     occupation 
      1     -26.2418      1.00000
      2     -26.2039      1.00000
      3     -25.4457      1.00000
      4     -25.4023      1.00000
      5     -25.0819      1.00000
      6     -25.0373      1.00000
      7       1.1964      1.00000
      8       1.3064      1.00000
      9       3.1752      1.00000
     10       3.3054      1.00000
     11       6.1052     -0.16408
     12       6.4504     -0.06419
     13       7.6614      0.00000
     14       8.0714      0.00000
     15       8.5773      0.00000
     16       9.5699      0.00000

 k-point    11 :       0.0000    0.0000    0.1429
  band No.  band energies     occupation 
      1     -25.8899      1.00000
      2     -25.8230      1.00000
      3     -25.8230      1.00000
      4     -25.1107      1.00000
      5     -25.0613      1.00000
      6     -25.0613      1.00000
      7      -0.7196      1.00000
      8       1.4196      1.00000
      9       1.4964      1.00000
     10       5.0698      0.01754
     11       5.0698     -0.01579
     12       5.3804      0.00000
     13       7.3129      0.00000
     14       8.1925      0.00000
     15       9.0638      0.00000
     16       9.0640      0.00000

 k-point    12 :       0.1429    0.0000    0.1429
  band No.  band energies     occupation 
      1     -25.9533      1.00000
      2     -25.7832      1.00000
      3     -25.7260      1.00000
      4     -25.2714      1.00000
      5     -25.0965      1.00000
      6     -25.0224      1.00000
      7      -0.3493      1.00000
      8       1.6467      1.00000
      9       1.8084      1.00000
     10       4.7016      0.78813
     11       4.9388      0.16008
     12       5.9202     -0.00586
     13       7.4202      0.00000
     14       7.8221      0.00000
     15       8.0005      0.00000
     16       8.0804      0.00000

 k-point    13 :       0.2857    0.0000    0.1429
  band No.  band energies     occupation 
      1     -25.9917      1.00000
      2     -25.6727      1.00000
      3     -25.5698      1.00000
      4     -25.5301      1.00000
      5     -25.1968      1.00000
      6     -25.0767      1.00000
      7       0.6078      1.00000
      8       2.1550      1.00000
      9       2.5944      1.00000
     10       4.4630      1.00536
     11       4.7328      0.76053
     12       6.3334     -0.05149
     13       6.7495      0.00000
     14       6.7531      0.00000
     15       6.8224      0.00000
     16       8.4573      0.00000

 k-point    14 :       0.4286    0.0000    0.1429
  band No.  band energies     occupation 
      1     -25.9421      1.00000
      2     -25.7796      1.00000
      3     -25.5157      1.00000
      4     -25.3887      1.00000
      5     -25.3457      1.00000
      6     -25.2117      1.00000
      7       1.7240      1.00000
      8       2.4161      1.00000
      9       3.3958      1.00000
     10       4.2849      1.00295
     11       4.6036      0.91408
     12       5.2228     -0.03467
     13       6.2482      0.00000
     14       6.3337      0.00000
     15       7.7662      0.00000
     16       8.8857      0.00000

 k-point    15 :       0.1429    0.1429    0.1429
  band No.  band energies     occupation 
      1     -25.9090      1.00000
      2     -25.8962      1.00000
      3     -25.5934      1.00000
      4     -25.3989      1.00000
      5     -25.0683      1.00000
      6     -25.0664      1.00000
      7       0.0072      1.00000
      8       1.9787      1.00000
      9       2.0043      1.00000
     10       4.5137      0.99223
     11       4.5806      0.85174
     12       6.3171     -0.05433
     13       6.5274      0.00000
     14       7.6713      0.00000
     15       7.7721      0.00000
     16       9.1929      0.00000

 k-point    16 :       0.2857    0.1429    0.1429
  band No.  band energies     occupation 
      1     -25.9894      1.00000
      2     -25.7736      1.00000
      3     -25.6358      1.00000
      4     -25.4348      1.00000
      5     -25.1926      1.00000
      6     -25.0818      1.00000
      7       0.9003      1.00000
      8       2.4852      1.00000
      9       2.6978      1.00000
     10       4.2222      1.01495
     11       4.2821      1.06826
     12       5.0898      0.09947
     13       7.1177      0.00000
     14       7.5460      0.00000
     15       7.6940      0.00000
     16       8.3434      0.00000

 k-point    17 :       0.4286    0.1429    0.1429
  band No.  band energies     occupation 
      1     -25.9835      1.00000
      2     -25.8569      1.00000
      3     -25.5845      1.00000
      4     -25.3769      1.00000
      5     -25.2847      1.00000
      6     -25.1602      1.00000
      7       1.8781      1.00000
      8       2.6288      1.00000
      9       3.1837      1.00000
     10       3.8255      1.00569
     11       4.5171      0.97864
     12       4.8158      0.25694
     13       6.5932      0.00000
     14       6.7519      0.00000
     15       8.4788      0.00000
     16       8.8132      0.00000

 k-point    18 :       0.2857    0.2857    0.1429
  band No.  band energies     occupation 
      1     -26.0571      1.00000
      2     -25.8439      1.00000
      3     -25.7338      1.00000
      4     -25.2857      1.00000
      5     -25.2590      1.00000
      6     -25.0843      1.00000
      7       1.4724      1.00000
      8       2.4825      1.00000
      9       3.6146      1.00000
     10       3.6618      1.00000
     11       4.0925      1.02419
     12       4.2376      0.92529
     13       7.3490      0.00000
     14       7.7432      0.00000
     15       8.1888      0.00000
     16       8.8748      0.00000

 k-point    19 :       0.4286    0.2857    0.1429
  band No.  band energies     occupation 
      1     -26.0983      1.00000
      2     -26.0233      1.00000
      3     -25.5777      1.00000
      4     -25.4018      1.00000
      5     -25.1757      1.00000
      6     -25.1095      1.00000
      7       1.8157      1.00000
      8       2.1299      1.00000
      9       3.4839      1.00000
     10       3.6039      1.00000
     11       4.6201      0.83718
     12       4.6858      0.56721
     13       7.3078      0.00000
     14       7.5632      0.00000
     15       8.6882      0.00000
     16       9.1571      0.00000

 k-point    20 :       0.4286    0.4286    0.1429
  band No.  band energies     occupation 
      1     -26.1829      1.00000
      2     -26.1572      1.00000
      3     -25.5053      1.00000
      4     -25.4371      1.00000
      5     -25.1165      1.00000
      6     -25.0974      1.00000
      7       1.5923      1.00000
      8       1.6703      1.00000
      9       3.1471      1.00000
     10       3.2489      1.00000
     11       5.7206     -0.14832
     12       5.8046     -0.13094
     13       7.8713      0.00000
     14       8.1267      0.00000
     15       8.6065      0.00000
     16       9.0384      0.00000

 k-point    21 :       0.0000    0.0000    0.2857
  band No.  band energies     occupation 
      1     -25.8651      1.00000
      2     -25.7032      1.00000
      3     -25.7032      1.00000
      4     -25.3320      1.00000
      5     -25.1755      1.00000
      6     -25.1755      1.00000
      7       0.3511      1.00000
      8       2.0743      1.00000
      9       2.2135      1.00000
     10       5.1222      0.33811
     11       5.1222     -0.09498
     12       5.9239      0.00000
     13       6.0015      0.00000
     14       7.4554      0.00000
     15       7.4555      0.00000
     16       8.6374      0.00000

 k-point    22 :       0.1429    0.0000    0.2857
  band No.  band energies     occupation 
      1     -25.9900      1.00000
      2     -25.6737      1.00000
      3     -25.5631      1.00000
      4     -25.5250      1.00000
      5     -25.1979      1.00000
      6     -25.0734      1.00000
      7       0.5918      1.00000
      8       2.1473      1.00000
      9       2.5665      1.00000
     10       4.4650      1.00213
     11       4.7420      0.75828
     12       6.3537     -0.05137
     13       6.7279      0.00000
     14       6.7845      0.00000
     15       6.8633      0.00000
     16       8.4425      0.00000

 k-point    23 :       0.2857    0.0000    0.2857
  band No.  band energies     occupation 
      1     -26.1170      1.00000
      2     -25.8045      1.00000
      3     -25.5926      1.00000
      4     -25.3720      1.00000
      5     -25.2628      1.00000
      6     -25.0255      1.00000
      7       1.0674      1.00000
      8       2.0898      1.00000
      9       3.5632      1.00000
     10       3.8614      1.00000
     11       4.7551      0.87775
     12       5.0153      0.06099
     13       6.3915      0.00000
     14       7.5251      0.00000
     15       8.0189      0.00000
     16       8.1912      0.00000

 k-point    24 :       0.4286    0.0000    0.2857
  band No.  band energies     occupation 
      1     -26.1426      1.00000
      2     -26.0329      1.00000
      3     -25.4801      1.00000
      4     -25.3622      1.00000
      5     -25.2004      1.00000
      6     -25.0754      1.00000
      7       1.4495      1.00000
      8       1.8034      1.00000
      9       3.7110      1.00000
     10       4.0970      1.00000
     11       4.5654      0.79609
     12       5.0426      0.00484
     13       6.8748      0.00000
     14       7.4010      0.00000
     15       8.8199      0.00000
     16       9.2414      0.00000

 k-point    25 :       0.1429    0.1429    0.2857
  band No.  band energies     occupation 
      1     -25.9921      1.00000
      2     -25.7668      1.00000
      3     -25.6329      1.00000
      4     -25.4317      1.00000
      5     -25.1933      1.00000
      6     -25.0766      1.00000
      7       0.8860      1.00000
      8       2.4937      1.00000
      9       2.6600      1.00000
     10       4.2342      1.01560
     11       4.2991      1.05510
     12       5.1068      0.09841
     13       7.0722      0.00000
     14       7.5693      0.00000
     15       7.7688      0.00000
     16       8.3333      0.00000

 k-point    26 :       0.2857    0.1429    0.2857
  band No.  band energies     occupation 
      1     -26.0625      1.00000
      2     -25.8440      1.00000
      3     -25.7239      1.00000
      4     -25.2828      1.00000
      5     -25.2572      1.00000
      6     -25.0787      1.00000
      7       1.4643      1.00000
      8       2.4936      1.00000
      9       3.5802      1.00000
     10       3.7353      1.00000
     11       4.1233      1.01359
     12       4.2004      0.92268
     13       7.3690      0.00000
     14       7.6549      0.00000
     15       8.2045      0.00000
     16       8.8838      0.00000

 k-point    27 :       0.4286    0.1429    0.2857
  band No.  band energies     occupation 
      1     -26.1025      1.00000
      2     -26.0258      1.00000
      3     -25.5698      1.00000
      4     -25.3966      1.00000
      5     -25.1722      1.00000
      6     -25.1050      1.00000
      7       1.8175      1.00000
      8       2.1415      1.00000
      9       3.5515      1.00000
     10       3.6373      1.00000
     11       4.6125      0.84606
     12       4.6546      0.61685
     13       7.2553      0.00000
     14       7.4812      0.00000
     15       8.6855      0.00000
     16       9.1279      0.00000

 k-point    28 :       0.2857    0.2857    0.2857
  band No.  band energies     occupation 
      1     -25.9405      1.00000
      2     -25.9109      1.00000
      3     -25.9071      1.00000
      4     -25.2334      1.00000
      5     -25.2268      1.00000
      6     -25.1960      1.00000
      7       2.3779      1.00000
      8       3.0342      1.00000
      9       3.4834      1.00000
     10       3.5227      1.00000
     11       3.5682      1.03025
     12       3.6077      1.07710
     13       8.1402      0.00000
     14       8.1554      0.00000
     15       8.3353      0.00000
     16       8.4241      0.00000

 k-point    29 :       0.4286    0.2857    0.2857
  band No.  band energies     occupation 
      1     -26.0241      1.00000
      2     -26.0211      1.00000
      3     -25.6898      1.00000
      4     -25.4464      1.00000
      5     -25.1929      1.00000
      6     -25.1708      1.00000
      7       2.5072      1.00000
      8       2.5395      1.00000
      9       3.4179      1.00000
     10       3.4893      1.00000
     11       4.0562      1.00725
     12       4.3970      0.99524
     13       7.9315      0.00000
     14       7.9857      0.00000
     15       8.6369      0.00000
     16       8.7214      0.00000

 k-point    30 :       0.4286    0.4286    0.2857
  band No.  band energies     occupation 
      1     -26.0351      1.00000
      2     -26.0173      1.00000
      3     -25.6386      1.00000
      4     -25.5015      1.00000
      5     -25.2656      1.00000
      6     -25.2239      1.00000
      7       2.4701      1.00000
      8       2.5957      1.00000
      9       3.1632      1.00000
     10       3.3473      1.00000
     11       4.6799      0.81720
     12       4.8415      0.52666
     13       8.3104      0.00000
     14       8.3870      0.00000
     15       8.6623      0.00000
     16       8.7332      0.00000

 k-point    31 :       0.0000    0.0000    0.4286
  band No.  band energies     occupation 
      1     -25.7703      1.00000
      2     -25.5817      1.00000
      3     -25.5314      1.00000
      4     -25.5314      1.00000
      5     -25.3429      1.00000
      6     -25.3429      1.00000
      7       1.6857      1.00000
      8       2.5046      1.00000
      9       3.1249      1.00000
     10       4.4905      0.99128
     11       5.4526     -0.28394
     12       5.4526      0.00000
     13       6.2144      0.00000
     14       6.2144      0.00000
     15       6.7750      0.00000
     16       7.8354      0.00000

 k-point    32 :       0.1429    0.0000    0.4286
  band No.  band energies     occupation 
      1     -25.9354      1.00000
      2     -25.7711      1.00000
      3     -25.5175      1.00000
      4     -25.3805      1.00000
      5     -25.3475      1.00000
      6     -25.2052      1.00000
      7       1.7002      1.00000
      8       2.3910      1.00000
      9       3.3690      1.00000
     10       4.2586      1.00378
     11       4.6195      0.89600
     12       5.2475     -0.03642
     13       6.3030      0.00000
     14       6.3880      0.00000
     15       7.8090      0.00000
     16       8.9301      0.00000

 k-point    33 :       0.2857    0.0000    0.4286
  band No.  band energies     occupation 
      1     -26.1391      1.00000
      2     -26.0291      1.00000
      3     -25.4809      1.00000
      4     -25.3631      1.00000
      5     -25.1974      1.00000
      6     -25.0726      1.00000
      7       1.4478      1.00000
      8       1.8013      1.00000
      9       3.7188      1.00000
     10       4.1062      1.00000
     11       4.5584      0.79971
     12       5.0275      0.01218
     13       6.8673      0.00000
     14       7.4349      0.00000
     15       8.7363      0.00000
     16       9.2619      0.00000

 k-point    34 :       0.4286    0.0000    0.4286
  band No.  band energies     occupation 
      1     -26.2451      1.00000
      2     -26.2066      1.00000
      3     -25.4346      1.00000
      4     -25.3925      1.00000
      5     -25.0734      1.00000
      6     -25.0282      1.00000
      7       1.2018      1.00000
      8       1.3147      1.00000
      9       3.2869      1.00000
     10       3.4171      1.00000
     11       6.0460     -0.16037
     12       6.3841     -0.07469
     13       7.5390      0.00000
     14       7.9302      0.00000
     15       8.5294      0.00000
     16       9.4894      0.00000

 k-point    35 :       0.1429    0.1429    0.4286
  band No.  band energies     occupation 
      1     -25.9801      1.00000
      2     -25.8514      1.00000
      3     -25.5807      1.00000
      4     -25.3759      1.00000
      5     -25.2788      1.00000
      6     -25.1535      1.00000
      7       1.8640      1.00000
      8       2.6128      1.00000
      9       3.1808      1.00000
     10       3.8206      1.00646
[...]
  band No.  band energies     occupation 
      1     -26.2457      1.00000
      2     -26.2072      1.00000
      3     -25.4352      1.00000
      4     -25.3930      1.00000
      5     -25.0739      1.00000
      6     -25.0287      1.00000
      7       1.1998      1.00000
      8       1.3127      1.00000
      9       3.2853      1.00000
     10       3.4155      1.00000
     11       6.0439     -0.16003
     12       6.3816     -0.07542
     13       7.5381      0.00000
     14       7.9293      0.00000
     15       8.5290      0.00000
     16       9.4882      0.00000

 k-point    35 :       0.1429    0.1429    0.4286
  band No.  band energies     occupation 
      1     -25.9807      1.00000
      2     -25.8520      1.00000
      3     -25.5813      1.00000
      4     -25.3764      1.00000
      5     -25.2793      1.00000
      6     -25.1540      1.00000
      7       1.8617      1.00000
      8       2.6108      1.00000
      9       3.1793      1.00000
     10       3.8191      1.00642
     11       4.5476      0.96772
     12       4.8218      0.26086
     13       6.5999      0.00000
     14       6.8090      0.00000
     15       8.4289      0.00000
     16       8.7195      0.00000

 k-point    36 :       0.2857    0.1429    0.4286
  band No.  band energies     occupation 
      1     -26.0999      1.00000
      2     -26.0229      1.00000
      3     -25.5711      1.00000
      4     -25.3987      1.00000
      5     -25.1694      1.00000
      6     -25.1017      1.00000
      7       1.8206      1.00000
      8       2.1435      1.00000
      9       3.5550      1.00000
     10       3.6580      1.00000
     11       4.5802      0.85848
     12       4.6466      0.62487
     13       7.2773      0.00000
     14       7.5148      0.00000
     15       8.5730      0.00000
     16       9.0509      0.00000

 k-point    37 :       0.4286    0.1429    0.4286
  band No.  band energies     occupation 
      1     -26.1858      1.00000
      2     -26.1594      1.00000
      3     -25.4987      1.00000
      4     -25.4321      1.00000
      5     -25.1089      1.00000
      6     -25.0889      1.00000
      7       1.6067      1.00000
      8       1.6887      1.00000
      9       3.2349      1.00000
     10       3.3318      1.00000
     11       5.6593     -0.11917
     12       5.7388     -0.13783
     13       7.7695      0.00000
     14       8.0058      0.00000
     15       8.5597      0.00000
     16       8.9699      0.00000

 k-point    38 :       0.2857    0.2857    0.4286
  band No.  band energies     occupation 
      1     -26.0224      1.00000
      2     -26.0198      1.00000
      3     -25.6908      1.00000
      4     -25.4502      1.00000
      5     -25.1868      1.00000
      6     -25.1671      1.00000
      7       2.5433      1.00000
      8       2.5693      1.00000
      9       3.4243      1.00000
     10       3.5127      1.00000
     11       4.0273      1.01109
     12       4.3495      1.00477
     13       7.9735      0.00000
     14       7.9956      0.00000
     15       8.5300      0.00000
     16       8.5947      0.00000

 k-point    39 :       0.4286    0.2857    0.4286
  band No.  band energies     occupation 
      1     -26.0349      1.00000
      2     -26.0176      1.00000
      3     -25.6395      1.00000
      4     -25.5055      1.00000
      5     -25.2578      1.00000
      6     -25.2187      1.00000
      7       2.5048      1.00000
      8       2.6327      1.00000
      9       3.2017      1.00000
     10       3.3850      1.00000
     11       4.6191      0.85130
     12       4.7834      0.64527
     13       8.2685      0.00000
     14       8.3315      0.00000
     15       8.6199      0.00000
     16       8.6772      0.00000

 k-point    40 :       0.4286    0.4286    0.4286
  band No.  band energies     occupation 
      1     -25.8932      1.00000
      2     -25.7773      1.00000
      3     -25.7725      1.00000
      4     -25.5089      1.00000
      5     -25.5001      1.00000
      6     -25.3799      1.00000
      7       2.9833      1.00000
      8       3.3920      1.00000
      9       3.4045      1.00000
     10       3.9238      1.00000
     11       3.9759      1.00000
     12       3.9784      1.12305
     13       8.6190      0.00000
     14       8.6285      0.00000
     15       8.6891      0.00000
     16       8.6922      0.00000


--------------------------------------------------------------------------------------------------------


 soft charge-density along one line, spin component           1
         0         1         2         3         4         5         6         7         8         9
 total charge-density along one line

 soft charge-density along one line, spin component           2
         0         1         2         3         4         5         6         7         8         9
 total charge-density along one line

 pseudopotential strength for first ion, spin component:           1
-28.167  -0.000   0.000   6.016   0.000  -0.000  -0.000  -0.000
 -0.000 -28.167   0.000   0.000   6.016  -0.000   0.000  -0.000
  0.000   0.000 -28.167  -0.000  -0.000   6.016  -0.000   0.000
  6.016   0.000  -0.000   4.202   0.000   0.000   0.000   0.000
  0.000   6.016  -0.000   0.000   4.202   0.000  -0.000   0.000
 -0.000  -0.000   6.016   0.000   0.000   4.202   0.000  -0.000
 -0.000   0.000  -0.000   0.000  -0.000   0.000  -6.382   0.000
 -0.000  -0.000   0.000   0.000   0.000  -0.000   0.000  -6.382
  0.000  -0.000   0.000  -0.000   0.000  -0.000  -0.000  -0.000
  0.000   0.000  -0.000  -0.000  -0.000   0.000  -0.000   0.000
  0.000  -0.000   0.000  -0.000   0.000  -0.000  -0.000   0.000
 -0.000   0.000  -0.000   0.000  -0.000   0.000  -7.243   0.000
 -0.000  -0.000   0.000   0.000   0.000  -0.000   0.000  -7.243
  0.000  -0.000   0.000  -0.000   0.000  -0.000  -0.000  -0.000
  0.000   0.000  -0.000  -0.000  -0.000   0.000  -0.000   0.000
  0.000  -0.000   0.000  -0.000   0.000  -0.000  -0.000   0.000
  0.000   0.000  -0.000   0.000  -0.000   0.000  -0.000   0.000
 -0.000  -0.000   0.000  -0.000  -0.000  -0.000   0.000  -0.000
 pseudopotential strength for first ion, spin component:           2
-28.167  -0.000   0.000   6.016   0.000  -0.000  -0.000  -0.000
 -0.000 -28.168   0.000   0.000   6.016  -0.000   0.000  -0.000
  0.000   0.000 -28.167  -0.000  -0.000   6.016  -0.000   0.000
  6.016   0.000  -0.000   4.202   0.000   0.000   0.000   0.000
  0.000   6.016  -0.000   0.000   4.202   0.000  -0.000   0.000
 -0.000  -0.000   6.016   0.000   0.000   4.202   0.000  -0.000
 -0.000   0.000  -0.000   0.000  -0.000   0.000  -6.382   0.000
 -0.000  -0.000   0.000   0.000   0.000  -0.000   0.000  -6.382
  0.000  -0.000   0.000  -0.000   0.000  -0.000  -0.000  -0.000
  0.000   0.000  -0.000  -0.000  -0.000   0.000  -0.000  -0.000
  0.000  -0.000   0.000  -0.000   0.000  -0.000  -0.000   0.000
 -0.000   0.000  -0.000   0.000  -0.000   0.000  -7.243   0.000
 -0.000  -0.000   0.000   0.000   0.000  -0.000   0.000  -7.244
  0.000  -0.000   0.000  -0.000   0.000  -0.000  -0.000  -0.000
  0.000   0.000  -0.000  -0.000  -0.000   0.000  -0.000  -0.000
  0.000  -0.000   0.000  -0.000   0.000  -0.000  -0.000   0.000
  0.000   0.000   0.000  -0.000  -0.000   0.000  -0.000   0.000
 -0.000  -0.000  -0.000  -0.000  -0.000  -0.000   0.000  -0.000
 total augmentation occupancy for first ion, spin component:           1
  1.993   0.000   0.000  -0.014  -0.000  -0.000   0.000   0.000   0.000  -0.000  -0.000   0.000   0.000   0.000   0.000  -0.000
  0.000   1.993   0.000  -0.000  -0.014  -0.000   0.000  -0.000   0.000  -0.000   0.000  -0.000  -0.000   0.000   0.000   0.000
  0.000   0.000   1.993  -0.000  -0.000  -0.014   0.000   0.000  -0.000  -0.000  -0.000  -0.000   0.000  -0.000   0.000   0.000
 -0.014  -0.000  -0.000   0.203   0.000   0.000   0.000  -0.000   0.000   0.000   0.000   0.000   0.000  -0.000  -0.000   0.000
 -0.000  -0.014  -0.000   0.000   0.201   0.000   0.000   0.000  -0.000   0.000   0.000   0.000   0.000   0.000   0.000   0.000
 -0.000  -0.000  -0.014   0.000   0.000   0.203   0.000   0.000   0.000   0.000   0.000   0.000  -0.000   0.000   0.000  -0.000
 -0.000  -0.000   0.000   0.000   0.000   0.000   5.831   0.000  -0.000   0.000   0.000  -3.234  -0.000   0.000  -0.000   0.000
  0.000  -0.000   0.000   0.000   0.000  -0.000   0.000   5.875   0.000   0.000  -0.000  -0.000  -3.254  -0.000  -0.000   0.000
  0.000   0.000  -0.000   0.000  -0.000  -0.000  -0.000   0.000   5.478   0.000  -0.000   0.000  -0.000  -3.217  -0.000   0.000
 -0.000  -0.000  -0.000   0.000   0.000   0.000   0.000   0.000   0.000   5.875   0.000  -0.000  -0.000  -0.000  -3.254  -0.000
  0.000   0.000   0.000   0.000   0.000   0.000   0.000  -0.000  -0.000   0.000   5.527   0.000   0.000   0.000  -0.000  -3.241
  0.000  -0.000  -0.000   0.000   0.000   0.000  -3.234  -0.000   0.000  -0.000   0.000   1.830   0.000  -0.000   0.000  -0.000
  0.000  -0.000   0.000   0.000   0.000  -0.000  -0.000  -3.254  -0.000  -0.000   0.000   0.000   1.840   0.000   0.000  -0.000
  0.000   0.000  -0.000  -0.000   0.000   0.000   0.000  -0.000  -3.217  -0.000   0.000  -0.000   0.000   1.907   0.000  -0.000
  0.000   0.000   0.000   0.000   0.000   0.000  -0.000  -0.000  -0.000  -3.254  -0.000   0.000   0.000   0.000   1.840   0.000
  0.000   0.000   0.000   0.000   0.000   0.000   0.000   0.000   0.000  -0.000  -3.241  -0.000  -0.000  -0.000   0.000   1.919
  0.000   0.000   0.000   0.000   0.000   0.000   0.000  -0.000  -0.008   0.000  -0.000   0.000  -0.000   0.005  -0.000   0.000
  0.000   0.000  -0.000   0.000   0.000   0.000  -0.000   0.000  -0.000   0.000   0.000  -0.000  -0.000   0.000   0.000   0.000
 total augmentation occupancy for first ion, spin component:           2
  0.000   0.000   0.000   0.000   0.000   0.000  -0.000   0.000   0.000  -0.000  -0.000   0.000  -0.000  -0.000   0.000  -0.000
  0.000   0.000   0.000   0.000   0.000   0.000  -0.000  -0.000   0.000   0.000   0.000  -0.000  -0.000   0.000  -0.000   0.000
  0.000   0.000   0.000   0.000   0.000   0.000   0.000   0.000  -0.000   0.000  -0.000   0.000  -0.000   0.000   0.000  -0.000
  0.000   0.000   0.000  -0.000  -0.000  -0.000   0.000  -0.000   0.000  -0.000   0.000   0.000  -0.000   0.000  -0.000   0.000
  0.000   0.000   0.000  -0.000  -0.000  -0.000   0.000   0.000   0.000   0.000   0.000   0.000   0.000   0.000   0.000   0.000
  0.000   0.000   0.000  -0.000  -0.000  -0.000   0.000   0.000   0.000   0.000   0.000   0.000  -0.000   0.000   0.000   0.000
 -0.000   0.000   0.000   0.000   0.000   0.000  -0.003  -0.000   0.000  -0.000   0.000   0.002   0.000  -0.000   0.000  -0.000
  0.000   0.000   0.000   0.000   0.000   0.000  -0.000  -0.003   0.000  -0.000   0.000   0.000   0.001  -0.000   0.000  -0.000
  0.000   0.000   0.000   0.000   0.000   0.000   0.000   0.000  -0.006   0.000   0.000  -0.000  -0.000   0.004  -0.000  -0.000
 -0.000   0.000  -0.000  -0.000   0.000   0.000  -0.000  -0.000   0.000  -0.003  -0.000   0.000   0.000  -0.000   0.001   0.000
 -0.000   0.000  -0.000   0.000   0.000   0.000   0.000   0.000   0.000  -0.000  -0.006  -0.000  -0.000  -0.000   0.000   0.004
  0.000   0.000   0.000   0.000   0.000   0.000   0.002   0.000  -0.000   0.000  -0.000  -0.001  -0.000   0.000  -0.000   0.000
 -0.000   0.000  -0.000  -0.000   0.000  -0.000   0.000   0.001  -0.000   0.000  -0.000  -0.000  -0.001   0.000  -0.000   0.000
 -0.000   0.000   0.000   0.000   0.000   0.000  -0.000  -0.000   0.004  -0.000  -0.000   0.000   0.000  -0.003   0.000   0.000
  0.000   0.000   0.000   0.000   0.000  -0.000   0.000   0.000  -0.000   0.001   0.000  -0.000  -0.000   0.000  -0.001  -0.000
 -0.000   0.000  -0.000   0.000   0.000   0.000  -0.000  -0.000  -0.000   0.000   0.004   0.000   0.000   0.000  -0.000  -0.003
  0.000   0.000   0.000   0.000   0.000   0.000   0.000  -0.000  -0.000  -0.000   0.000   0.000   0.000   0.000   0.000   0.000
 -0.000   0.000  -0.000   0.000  -0.000  -0.000   0.000  -0.000  -0.000  -0.000   0.000   0.000   0.000   0.000  -0.000   0.000


------------------------ aborting loop because EDIFF is reached ----------------------------------------





 total charge

# of ion       s       p       d       tot
------------------------------------------
    1        0.415   6.287   3.064   9.767
    2        0.415   6.287   3.064   9.767
--------------------------------------------------
tot          0.831  12.575   6.128  19.534



 magnetization (x)

# of ion       s       p       d       tot
------------------------------------------
    1       -0.000  -0.000  -0.001  -0.001
    2       -0.000  -0.000  -0.001  -0.001
--------------------------------------------------
tot         -0.000  -0.000  -0.002  -0.002

    CHARGE:  cpu time     14.9864: real time      0.8611
    FORLOC:  cpu time      0.0021: real time      0.0021
    FORNL :  cpu time     76.4601: real time      4.2900
    STRESS:  cpu time    289.3870: real time     15.6170
    FORCOR:  cpu time      2.8852: real time      0.1827
    FORHAR:  cpu time      0.5077: real time      0.0299
    MIXING:  cpu time      0.0017: real time      0.0017
    OFIELD:  cpu time      0.0000: real time      0.0000

  FORCE on cell =-STRESS in cart. coord.  units (eV):
  Direction    XX          YY          ZZ          XY          YZ          ZX
  --------------------------------------------------------------------------------------
  Alpha Z   244.57668   244.57668   244.57668
  Ewald    -633.86991  -633.86991  -634.82450     0.00000     0.00000     0.00000
  Hartree    83.01053    83.01053    82.52176    -0.00000    -0.00000    -0.00000
  E(xc)     -94.95732   -94.95732   -94.95999    -0.00000    -0.00000     0.00000
  Local     202.66395   202.66395   204.14835     0.00000    -0.00000     0.00000
  n-local   -87.94669   -80.88650   -84.58461     0.86670    -0.32334     1.92027
  augment    53.62218    53.62218    53.63248     0.00000     0.00000     0.00000
  Kinetic   222.15392   235.90715   228.81694     0.17061    -1.05468     1.50466
  Fock        0.00000     0.00000     0.00000     0.00000     0.00000     0.00000
  -------------------------------------------------------------------------------------
  Total      -0.33994    -0.33994    -0.67290     0.00000    -0.00000     0.00000
  in kB     -14.71237   -14.71237   -29.12243     0.00000    -0.00000     0.00000
  external pressure =      -19.52 kB  Pullay stress =        0.00 kB


 VOLUME and BASIS-vectors are now :
 -----------------------------------------------------------------------------
  energy-cutoff  :      520.00
  volume of cell :       37.02
      direct lattice vectors                 reciprocal lattice vectors
     3.321779337  0.000000000  0.000000000     0.301043477 -0.000000000  0.000000000
     0.000000000  3.321779337  0.000000000     0.000000000  0.301043477  0.000000000
     0.000000000  0.000000000  3.354997130    -0.000000000 -0.000000000  0.298062848

  length of vectors
     3.321779337  3.321779337  3.354997130     0.301043477  0.301043477  0.298062848


 FORCES acting on ions
    electron-ion (+dipol)            ewald-force                    non-local-force                 convergence-correction
 -----------------------------------------------------------------------------------------------
   -.650E-14 -.137E-13 -.138E-13   0.495E-14 -.295E-15 -.179E-14   0.127E-21 -.204E-21 -.855E-22   0.239E-13 -.214E-13 0.357E-13
   0.118E-12 0.151E-11 0.162E-11   -.343E-14 -.279E-14 0.257E-14   0.810E-23 -.163E-21 -.364E-22   -.264E-13 -.529E-13 -.289E-13
 -----------------------------------------------------------------------------------------------
   0.112E-12 0.150E-11 0.160E-11   0.152E-14 -.308E-14 0.782E-15   0.135E-21 -.366E-21 -.122E-21   -.252E-14 -.743E-13 0.682E-14


 POSITION                                       TOTAL-FORCE (eV/Angst)
 -----------------------------------------------------------------------------------
      0.00000      0.00000      0.00000         0.000000      0.000000      0.000000
      1.66089      1.66089      1.67750        -0.000000     -0.000000     -0.000000
 -----------------------------------------------------------------------------------
    total drift:                                0.000000      0.000000      0.000000


--------------------------------------------------------------------------------------------------------



  FREE ENERGIE OF THE ION-ELECTRON SYSTEM (eV)
  ---------------------------------------------------
  free  energy   TOTEN  =       -20.20726619 eV

  energy  without entropy=      -20.20726619  energy(sigma->0) =      -20.20726619



--------------------------------------------------------------------------------------------------------


    POTLOK:  cpu time      3.2512: real time      0.4039


--------------------------------------------------------------------------------------------------------


     LOOP+:  cpu time   4732.5374: real time    253.7813
 -----------------------------------------------------------------------------
|                                                                             |
|           W    W    AA    RRRRR   N    N  II  N    N   GGGG   !!!           |
|           W    W   A  A   R    R  NN   N  II  NN   N  G    G  !!!           |
|           W    W  A    A  R    R  N N  N  II  N N  N  G       !!!           |
|           W WW W  AAAAAA  RRRRR   N  N N  II  N  N N  G  GGG   !            |
|           WW  WW  A    A  R   R   N   NN  II  N   NN  G    G                |
|           W    W  A    A  R    R  N    N  II  N    N   GGGG   !!!           |
|                                                                             |
|     Tetrahedron method does not include variations of the Fermi             |
|     occupations, so forces and stress will be inaccurate. We suggest        |
|     using a different smearing scheme ISMEAR = 1 or 2 for metals in         |
|     relaxations.                                                            |
|                                                                             |
 -----------------------------------------------------------------------------

    4ORBIT:  cpu time      0.0000: real time      0.0000



 total charge

# of ion       s       p       d       tot
------------------------------------------
    1        0.415   6.287   3.064   9.767
    2        0.415   6.287   3.064   9.767
--------------------------------------------------
tot          0.831  12.575   6.128  19.534



 magnetization (x)

# of ion       s       p       d       tot
------------------------------------------
    1       -0.000  -0.000  -0.001  -0.001
    2       -0.000  -0.000  -0.001  -0.001
--------------------------------------------------
tot         -0.000  -0.000  -0.002  -0.002

 BZINTS: Fermi energy:    4.772410;   22.000000 electrons
         Band energy:-0.276314E+03;  BLOECHL correction:   -0.208090

 total amount of memory used by VASP MPI-rank0    78883. kBytes
=======================================================================

   base      :      30000. kBytes
   nonlr-proj:       6206. kBytes
   fftplans  :       6192. kBytes
   grid      :      14776. kBytes
   one-center:         62. kBytes
   wavefun   :      21647. kBytes

  
  
 General timing and accounting informations for this job:
 ========================================================
  
                  Total CPU time used (sec):     4761.313
                            User time (sec):     4627.092
                          System time (sec):      134.221
                         Elapsed time (sec):      256.040
  
                   Maximum memory used (kb):      313476.
                   Average memory used (kb):          N/A
  
                          Minor page faults:      4493498
                          Major page faults:           87
                 Voluntary context switches:      1528265
