   8   8   1   0
  0.2123272E+02  0.4395638E-09  0.4395638E-09  0.8791276E-09  0.5000000E-15
  1.000000000000000E-004
  CAR 
 unknown system                          
     11.81141237     -5.05225207  301      4.13264572      1.00000000
     -5.052  0.0000E+00  0.0000E+00  0.0000E+00  0.0000E+00
     -4.996  0.0000E+00  0.0000E+00  0.0000E+00  0.0000E+00
     -4.940  0.0000E+00  0.0000E+00  0.0000E+00  0.0000E+00
     -4.884  0.0000E+00  0.0000E+00  0.0000E+00  0.0000E+00
     -4.827  0.0000E+00  0.0000E+00  0.0000E+00  0.0000E+00
     -4.771  0.0000E+00  0.0000E+00  0.0000E+00  0.0000E+00
     -4.715  0.2809E-05  0.2696E-05  0.1579E-06  0.1516E-06
     -4.659  0.4389E-04  0.4212E-04  0.2625E-05  0.2519E-05
     -4.603  0.1360E-03  0.1305E-03  0.1027E-04  0.9854E-05
     -4.546  0.4166E-03  0.3998E-03  0.3369E-04  0.3233E-04
     -4.490  0.1353E-02  0.1298E-02  0.1097E-03  0.1053E-03
     -4.434  0.3983E-02  0.3826E-02  0.3336E-03  0.3204E-03
     -4.378  0.1180E-01  0.1135E-01  0.9969E-03  0.9586E-03
     -4.321  0.3199E-01  0.3091E-01  0.2795E-02  0.2696E-02
     -4.265  0.7384E-01  0.7189E-01  0.6946E-02  0.6737E-02
     -4.209  0.1347E+00  0.1323E+00  0.1452E-01  0.1418E-01
     -4.153  0.1980E+00  0.1957E+00  0.2565E-01  0.2518E-01
     -4.097  0.2597E+00  0.2575E+00  0.4025E-01  0.3965E-01
     -4.040  0.3091E+00  0.3078E+00  0.5762E-01  0.5695E-01
     -3.984  0.3375E+00  0.3364E+00  0.7659E-01  0.7586E-01
     -3.928  0.3809E+00  0.3789E+00  0.9800E-01  0.9716E-01
     -3.872  0.4269E+00  0.4255E+00  0.1220E+00  0.1211E+00
     -3.816  0.4545E+00  0.4536E+00  0.1476E+00  0.1466E+00
     -3.759  0.4813E+00  0.4802E+00  0.1746E+00  0.1736E+00
     -3.703  0.5003E+00  0.4999E+00  0.2027E+00  0.2017E+00
     -3.647  0.5108E+00  0.5099E+00  0.2315E+00  0.2304E+00
     -3.591  0.5587E+00  0.5561E+00  0.2629E+00  0.2616E+00
     -3.535  0.6161E+00  0.6146E+00  0.2975E+00  0.2962E+00
     -3.478  0.6284E+00  0.6283E+00  0.3329E+00  0.3315E+00
     -3.422  0.6353E+00  0.6347E+00  0.3686E+00  0.3672E+00
     -3.366  0.6420E+00  0.6419E+00  0.4047E+00  0.4033E+00
     -3.310  0.6499E+00  0.6489E+00  0.4412E+00  0.4398E+00
     -3.253  0.6977E+00  0.6951E+00  0.4805E+00  0.4789E+00
     -3.197  0.7577E+00  0.7558E+00  0.5231E+00  0.5214E+00
     -3.141  0.7885E+00  0.7875E+00  0.5674E+00  0.5657E+00
     -3.085  0.8171E+00  0.8156E+00  0.6134E+00  0.6115E+00
     -3.029  0.8356E+00  0.8354E+00  0.6604E+00  0.6585E+00
     -2.972  0.8349E+00  0.8342E+00  0.7073E+00  0.7054E+00
     -2.916  0.8647E+00  0.8633E+00  0.7559E+00  0.7540E+00
     -2.860  0.8675E+00  0.8680E+00  0.8047E+00  0.8028E+00
     -2.804  0.8755E+00  0.8733E+00  0.8540E+00  0.8519E+00
     -2.748  0.9614E+00  0.9573E+00  0.9080E+00  0.9058E+00
     -2.691  0.1018E+01  0.1017E+01  0.9653E+00  0.9630E+00
     -2.635  0.9971E+00  0.9981E+00  0.1021E+01  0.1019E+01
     -2.579  0.9802E+00  0.9803E+00  0.1076E+01  0.1074E+01
     -2.523  0.9612E+00  0.9621E+00  0.1131E+01  0.1128E+01
     -2.466  0.9516E+00  0.9498E+00  0.1184E+01  0.1182E+01
     -2.410  0.1038E+01  0.1033E+01  0.1242E+01  0.1240E+01
     -2.354  0.1103E+01  0.1102E+01  0.1304E+01  0.1302E+01
     -2.298  0.1072E+01  0.1074E+01  0.1365E+01  0.1362E+01
     -2.242  0.9775E+00  0.9822E+00  0.1420E+01  0.1417E+01
     -2.185  0.8937E+00  0.8954E+00  0.1470E+01  0.1468E+01
     -2.129  0.8876E+00  0.8874E+00  0.1520E+01  0.1518E+01
     -2.073  0.8746E+00  0.8766E+00  0.1569E+01  0.1567E+01
     -2.017  0.7856E+00  0.7907E+00  0.1613E+01  0.1612E+01
     -1.961  0.6669E+00  0.6712E+00  0.1651E+01  0.1649E+01
     -1.904  0.5924E+00  0.5945E+00  0.1684E+01  0.1683E+01
     -1.848  0.5772E+00  0.5766E+00  0.1717E+01  0.1715E+01
     -1.792  0.6323E+00  0.6289E+00  0.1752E+01  0.1751E+01
     -1.736  0.7205E+00  0.7171E+00  0.1793E+01  0.1791E+01
     -1.680  0.7936E+00  0.7910E+00  0.1837E+01  0.1835E+01
     -1.623  0.8713E+00  0.8689E+00  0.1886E+01  0.1884E+01
     -1.567  0.9543E+00  0.9521E+00  0.1940E+01  0.1938E+01
     -1.511  0.1045E+01  0.1041E+01  0.1999E+01  0.1996E+01
     -1.455  0.1152E+01  0.1147E+01  0.2064E+01  0.2061E+01
     -1.398  0.1245E+01  0.1242E+01  0.2134E+01  0.2131E+01
     -1.342  0.1261E+01  0.1261E+01  0.2205E+01  0.2202E+01
     -1.286  0.1233E+01  0.1233E+01  0.2274E+01  0.2271E+01
     -1.230  0.1228E+01  0.1229E+01  0.2343E+01  0.2340E+01
     -1.174  0.1150E+01  0.1156E+01  0.2408E+01  0.2405E+01
     -1.117  0.1029E+01  0.1033E+01  0.2466E+01  0.2463E+01
     -1.061  0.1001E+01  0.1001E+01  0.2522E+01  0.2520E+01
     -1.005  0.1062E+01  0.1059E+01  0.2582E+01  0.2579E+01
     -0.949  0.1123E+01  0.1121E+01  0.2645E+01  0.2642E+01
     -0.893  0.1136E+01  0.1136E+01  0.2709E+01  0.2706E+01
     -0.836  0.1164E+01  0.1162E+01  0.2774E+01  0.2771E+01
     -0.780  0.1174E+01  0.1176E+01  0.2840E+01  0.2838E+01
     -0.724  0.1087E+01  0.1093E+01  0.2901E+01  0.2899E+01
     -0.668  0.9593E+00  0.9642E+00  0.2955E+01  0.2953E+01
     -0.611  0.9192E+00  0.9183E+00  0.3007E+01  0.3005E+01
     -0.555  0.9615E+00  0.9608E+00  0.3061E+01  0.3059E+01
     -0.499  0.9224E+00  0.9261E+00  0.3113E+01  0.3111E+01
     -0.443  0.8045E+00  0.8071E+00  0.3158E+01  0.3157E+01
     -0.387  0.8023E+00  0.7983E+00  0.3203E+01  0.3201E+01
     -0.330  0.1000E+01  0.9898E+00  0.3260E+01  0.3257E+01
     -0.274  0.1279E+01  0.1271E+01  0.3332E+01  0.3329E+01
     -0.218  0.1385E+01  0.1388E+01  0.3409E+01  0.3407E+01
     -0.162  0.1325E+01  0.1332E+01  0.3484E+01  0.3482E+01
     -0.106  0.1296E+01  0.1300E+01  0.3557E+01  0.3555E+01
     -0.049  0.1312E+01  0.1313E+01  0.3631E+01  0.3629E+01
      0.007  0.1286E+01  0.1285E+01  0.3703E+01  0.3701E+01
      0.063  0.1221E+01  0.1220E+01  0.3771E+01  0.3769E+01
      0.119  0.1162E+01  0.1164E+01  0.3837E+01  0.3835E+01
      0.175  0.1163E+01  0.1163E+01  0.3902E+01  0.3900E+01
      0.232  0.1292E+01  0.1287E+01  0.3975E+01  0.3973E+01
      0.288  0.1437E+01  0.1432E+01  0.4056E+01  0.4053E+01
      0.344  0.1523E+01  0.1520E+01  0.4142E+01  0.4139E+01
      0.400  0.1536E+01  0.1536E+01  0.4228E+01  0.4225E+01
      0.457  0.1444E+01  0.1449E+01  0.4309E+01  0.4307E+01
      0.513  0.1289E+01  0.1296E+01  0.4382E+01  0.4379E+01
      0.569  0.1165E+01  0.1171E+01  0.4447E+01  0.4445E+01
      0.625  0.1081E+01  0.1085E+01  0.4508E+01  0.4506E+01
      0.681  0.1061E+01  0.1060E+01  0.4568E+01  0.4566E+01
      0.738  0.1153E+01  0.1148E+01  0.4633E+01  0.4630E+01
      0.794  0.1241E+01  0.1239E+01  0.4702E+01  0.4700E+01
      0.850  0.1145E+01  0.1149E+01  0.4767E+01  0.4765E+01
      0.906  0.9509E+00  0.9547E+00  0.4820E+01  0.4819E+01
      0.962  0.8275E+00  0.8278E+00  0.4867E+01  0.4865E+01
      1.019  0.8433E+00  0.8403E+00  0.4914E+01  0.4912E+01
      1.075  0.1018E+01  0.1012E+01  0.4971E+01  0.4969E+01
      1.131  0.1299E+01  0.1293E+01  0.5045E+01  0.5042E+01
      1.187  0.1590E+01  0.1585E+01  0.5134E+01  0.5131E+01
      1.244  0.1751E+01  0.1750E+01  0.5232E+01  0.5230E+01
      1.300  0.1681E+01  0.1686E+01  0.5327E+01  0.5324E+01
      1.356  0.1509E+01  0.1513E+01  0.5412E+01  0.5409E+01
      1.412  0.1428E+01  0.1431E+01  0.5492E+01  0.5490E+01
      1.468  0.1423E+01  0.1427E+01  0.5572E+01  0.5570E+01
      1.525  0.1394E+01  0.1398E+01  0.5651E+01  0.5649E+01
      1.581  0.1379E+01  0.1381E+01  0.5728E+01  0.5726E+01
      1.637  0.1395E+01  0.1395E+01  0.5807E+01  0.5805E+01
      1.693  0.1436E+01  0.1433E+01  0.5887E+01  0.5886E+01
      1.749  0.1522E+01  0.1518E+01  0.5973E+01  0.5971E+01
      1.806  0.1640E+01  0.1637E+01  0.6065E+01  0.6063E+01
      1.862  0.1696E+01  0.1696E+01  0.6161E+01  0.6158E+01
      1.918  0.1607E+01  0.1610E+01  0.6251E+01  0.6249E+01
      1.974  0.1477E+01  0.1480E+01  0.6334E+01  0.6332E+01
      2.030  0.1391E+01  0.1394E+01  0.6412E+01  0.6410E+01
      2.087  0.1361E+01  0.1361E+01  0.6489E+01  0.6487E+01
      2.143  0.1372E+01  0.1370E+01  0.6566E+01  0.6564E+01
      2.199  0.1417E+01  0.1413E+01  0.6646E+01  0.6644E+01
      2.255  0.1502E+01  0.1500E+01  0.6730E+01  0.6728E+01
      2.312  0.1606E+01  0.1608E+01  0.6821E+01  0.6818E+01
      2.368  0.1707E+01  0.1710E+01  0.6917E+01  0.6915E+01
      2.424  0.1756E+01  0.1757E+01  0.7015E+01  0.7013E+01
      2.480  0.1713E+01  0.1711E+01  0.7112E+01  0.7110E+01
      2.536  0.1750E+01  0.1743E+01  0.7210E+01  0.7208E+01
      2.593  0.1902E+01  0.1894E+01  0.7317E+01  0.7314E+01
      2.649  0.1963E+01  0.1962E+01  0.7428E+01  0.7425E+01
      2.705  0.1837E+01  0.1844E+01  0.7531E+01  0.7528E+01
      2.761  0.1677E+01  0.1681E+01  0.7625E+01  0.7623E+01
      2.817  0.1683E+01  0.1680E+01  0.7720E+01  0.7717E+01
      2.874  0.1819E+01  0.1814E+01  0.7822E+01  0.7819E+01
      2.930  0.1841E+01  0.1842E+01  0.7926E+01  0.7923E+01
      2.986  0.1668E+01  0.1674E+01  0.8020E+01  0.8017E+01
      3.042  0.1443E+01  0.1449E+01  0.8101E+01  0.8099E+01
      3.099  0.1364E+01  0.1365E+01  0.8177E+01  0.8175E+01
      3.155  0.1508E+01  0.1505E+01  0.8262E+01  0.8260E+01
      3.211  0.1766E+01  0.1761E+01  0.8362E+01  0.8359E+01
      3.267  0.1951E+01  0.1949E+01  0.8471E+01  0.8469E+01
      3.323  0.1986E+01  0.1988E+01  0.8583E+01  0.8581E+01
      3.380  0.1983E+01  0.1987E+01  0.8695E+01  0.8692E+01
      3.436  0.1931E+01  0.1936E+01  0.8803E+01  0.8801E+01
      3.492  0.1793E+01  0.1796E+01  0.8904E+01  0.8902E+01
      3.548  0.1724E+01  0.1723E+01  0.9001E+01  0.8999E+01
      3.604  0.1788E+01  0.1787E+01  0.9102E+01  0.9100E+01
      3.661  0.1819E+01  0.1821E+01  0.9204E+01  0.9202E+01
      3.717  0.1650E+01  0.1654E+01  0.9297E+01  0.9295E+01
      3.773  0.1413E+01  0.1415E+01  0.9376E+01  0.9375E+01
      3.829  0.1322E+01  0.1319E+01  0.9451E+01  0.9449E+01
      3.885  0.1428E+01  0.1420E+01  0.9531E+01  0.9529E+01
      3.942  0.1673E+01  0.1663E+01  0.9625E+01  0.9622E+01
      3.998  0.1927E+01  0.1924E+01  0.9733E+01  0.9730E+01
      4.054  0.2047E+01  0.2052E+01  0.9849E+01  0.9846E+01
      4.110  0.1976E+01  0.1983E+01  0.9960E+01  0.9957E+01
      4.167  0.1792E+01  0.1796E+01  0.1006E+02  0.1006E+02
      4.223  0.1610E+01  0.1611E+01  0.1015E+02  0.1015E+02
      4.279  0.1492E+01  0.1494E+01  0.1023E+02  0.1023E+02
      4.335  0.1389E+01  0.1393E+01  0.1031E+02  0.1031E+02
      4.391  0.1275E+01  0.1280E+01  0.1038E+02  0.1038E+02
      4.448  0.1231E+01  0.1235E+01  0.1045E+02  0.1045E+02
      4.504  0.1299E+01  0.1298E+01  0.1053E+02  0.1053E+02
      4.560  0.1500E+01  0.1493E+01  0.1061E+02  0.1061E+02
      4.616  0.1794E+01  0.1783E+01  0.1071E+02  0.1071E+02
      4.672  0.2097E+01  0.2087E+01  0.1083E+02  0.1083E+02
      4.729  0.2248E+01  0.2247E+01  0.1096E+02  0.1095E+02
      4.785  0.2173E+01  0.2178E+01  0.1108E+02  0.1108E+02
      4.841  0.1986E+01  0.1992E+01  0.1119E+02  0.1119E+02
      4.897  0.1852E+01  0.1854E+01  0.1129E+02  0.1129E+02
      4.954  0.1848E+01  0.1849E+01  0.1140E+02  0.1140E+02
      5.010  0.1765E+01  0.1768E+01  0.1150E+02  0.1150E+02
      5.066  0.1541E+01  0.1544E+01  0.1158E+02  0.1158E+02
      5.122  0.1459E+01  0.1457E+01  0.1167E+02  0.1167E+02
      5.178  0.1628E+01  0.1625E+01  0.1176E+02  0.1176E+02
      5.235  0.1877E+01  0.1875E+01  0.1186E+02  0.1186E+02
      5.291  0.2061E+01  0.2059E+01  0.1198E+02  0.1198E+02
      5.347  0.2108E+01  0.2106E+01  0.1210E+02  0.1210E+02
      5.403  0.2088E+01  0.2085E+01  0.1222E+02  0.1221E+02
      5.459  0.2045E+01  0.2043E+01  0.1233E+02  0.1233E+02
      5.516  0.1988E+01  0.1988E+01  0.1244E+02  0.1244E+02
      5.572  0.1941E+01  0.1941E+01  0.1255E+02  0.1255E+02
      5.628  0.1938E+01  0.1939E+01  0.1266E+02  0.1266E+02
      5.684  0.1906E+01  0.1910E+01  0.1277E+02  0.1277E+02
      5.740  0.1773E+01  0.1779E+01  0.1287E+02  0.1287E+02
      5.797  0.1619E+01  0.1623E+01  0.1296E+02  0.1296E+02
      5.853  0.1542E+01  0.1543E+01  0.1305E+02  0.1304E+02
      5.909  0.1643E+01  0.1639E+01  0.1314E+02  0.1314E+02
      5.965  0.1862E+01  0.1856E+01  0.1324E+02  0.1324E+02
      6.022  0.2015E+01  0.2013E+01  0.1336E+02  0.1335E+02
      6.078  0.2042E+01  0.2043E+01  0.1347E+02  0.1347E+02
      6.134  0.2012E+01  0.2015E+01  0.1358E+02  0.1358E+02
      6.190  0.1969E+01  0.1970E+01  0.1369E+02  0.1369E+02
      6.246  0.2014E+01  0.2010E+01  0.1381E+02  0.1381E+02
      6.303  0.2174E+01  0.2169E+01  0.1393E+02  0.1393E+02
      6.359  0.2281E+01  0.2280E+01  0.1406E+02  0.1406E+02
      6.415  0.2287E+01  0.2288E+01  0.1419E+02  0.1418E+02
      6.471  0.2256E+01  0.2258E+01  0.1431E+02  0.1431E+02
      6.527  0.2120E+01  0.2125E+01  0.1443E+02  0.1443E+02
      6.584  0.1916E+01  0.1921E+01  0.1454E+02  0.1454E+02
      6.640  0.1873E+01  0.1876E+01  0.1465E+02  0.1464E+02
      6.696  0.2035E+01  0.2035E+01  0.1476E+02  0.1476E+02
      6.752  0.2232E+01  0.2229E+01  0.1489E+02  0.1488E+02
      6.809  0.2301E+01  0.2297E+01  0.1502E+02  0.1501E+02
      6.865  0.2240E+01  0.2236E+01  0.1514E+02  0.1514E+02
      6.921  0.2181E+01  0.2178E+01  0.1526E+02  0.1526E+02
      6.977  0.2185E+01  0.2186E+01  0.1539E+02  0.1539E+02
      7.033  0.2148E+01  0.2150E+01  0.1551E+02  0.1551E+02
      7.090  0.2111E+01  0.2110E+01  0.1563E+02  0.1562E+02
      7.146  0.2218E+01  0.2214E+01  0.1575E+02  0.1575E+02
      7.202  0.2353E+01  0.2351E+01  0.1588E+02  0.1588E+02
      7.258  0.2390E+01  0.2389E+01  0.1602E+02  0.1602E+02
      7.314  0.2321E+01  0.2324E+01  0.1615E+02  0.1615E+02
      7.371  0.2208E+01  0.2211E+01  0.1627E+02  0.1627E+02
      7.427  0.2171E+01  0.2171E+01  0.1640E+02  0.1639E+02
      7.483  0.2262E+01  0.2259E+01  0.1652E+02  0.1652E+02
      7.539  0.2409E+01  0.2405E+01  0.1666E+02  0.1666E+02
      7.595  0.2509E+01  0.2508E+01  0.1680E+02  0.1680E+02
      7.652  0.2420E+01  0.2425E+01  0.1694E+02  0.1693E+02
      7.708  0.2203E+01  0.2210E+01  0.1706E+02  0.1706E+02
      7.764  0.2080E+01  0.2085E+01  0.1718E+02  0.1717E+02
      7.820  0.2051E+01  0.2059E+01  0.1729E+02  0.1729E+02
      7.877  0.2046E+01  0.2056E+01  0.1741E+02  0.1741E+02
      7.933  0.2051E+01  0.2049E+01  0.1752E+02  0.1752E+02
      7.989  0.2025E+01  0.2015E+01  0.1764E+02  0.1763E+02
      8.045  0.1947E+01  0.1941E+01  0.1775E+02  0.1774E+02
      8.101  0.1790E+01  0.1789E+01  0.1785E+02  0.1784E+02
      8.158  0.1667E+01  0.1664E+01  0.1794E+02  0.1794E+02
      8.214  0.1726E+01  0.1715E+01  0.1804E+02  0.1803E+02
      8.270  0.1972E+01  0.1956E+01  0.1815E+02  0.1814E+02
      8.326  0.2267E+01  0.2261E+01  0.1828E+02  0.1827E+02
      8.382  0.2399E+01  0.2408E+01  0.1841E+02  0.1841E+02
      8.439  0.2325E+01  0.2338E+01  0.1854E+02  0.1854E+02
      8.495  0.2148E+01  0.2161E+01  0.1866E+02  0.1866E+02
      8.551  0.1935E+01  0.1947E+01  0.1877E+02  0.1877E+02
      8.607  0.1762E+01  0.1770E+01  0.1887E+02  0.1887E+02
      8.664  0.1641E+01  0.1640E+01  0.1896E+02  0.1896E+02
      8.720  0.1475E+01  0.1468E+01  0.1905E+02  0.1904E+02
      8.776  0.1328E+01  0.1323E+01  0.1912E+02  0.1912E+02
      8.832  0.1258E+01  0.1259E+01  0.1919E+02  0.1919E+02
      8.888  0.1168E+01  0.1165E+01  0.1926E+02  0.1925E+02
      8.945  0.1052E+01  0.1043E+01  0.1932E+02  0.1931E+02
      9.001  0.9379E+00  0.9261E+00  0.1937E+02  0.1937E+02
      9.057  0.8155E+00  0.8146E+00  0.1941E+02  0.1941E+02
      9.113  0.7327E+00  0.7452E+00  0.1946E+02  0.1945E+02
      9.169  0.6965E+00  0.7104E+00  0.1949E+02  0.1949E+02
      9.226  0.6998E+00  0.7088E+00  0.1953E+02  0.1953E+02
      9.282  0.6887E+00  0.6928E+00  0.1957E+02  0.1957E+02
      9.338  0.6005E+00  0.6023E+00  0.1961E+02  0.1961E+02
      9.394  0.5147E+00  0.5154E+00  0.1964E+02  0.1964E+02
      9.450  0.4653E+00  0.4663E+00  0.1966E+02  0.1966E+02
      9.507  0.3881E+00  0.3901E+00  0.1968E+02  0.1968E+02
      9.563  0.2823E+00  0.2844E+00  0.1970E+02  0.1970E+02
      9.619  0.2507E+00  0.2520E+00  0.1971E+02  0.1971E+02
      9.675  0.3132E+00  0.3137E+00  0.1973E+02  0.1973E+02
      9.732  0.3836E+00  0.3832E+00  0.1975E+02  0.1975E+02
      9.788  0.4277E+00  0.4285E+00  0.1978E+02  0.1978E+02
      9.844  0.4330E+00  0.4367E+00  0.1980E+02  0.1980E+02
      9.900  0.3964E+00  0.3992E+00  0.1982E+02  0.1982E+02
      9.956  0.3572E+00  0.3565E+00  0.1984E+02  0.1984E+02
     10.013  0.3431E+00  0.3351E+00  0.1986E+02  0.1986E+02
     10.069  0.3552E+00  0.3443E+00  0.1988E+02  0.1988E+02
     10.125  0.3499E+00  0.3495E+00  0.1990E+02  0.1990E+02
     10.181  0.2742E+00  0.2804E+00  0.1992E+02  0.1992E+02
     10.237  0.1556E+00  0.1600E+00  0.1993E+02  0.1993E+02
     10.294  0.7004E-01  0.7181E-01  0.1993E+02  0.1993E+02
     10.350  0.3828E-01  0.3872E-01  0.1993E+02  0.1993E+02
     10.406  0.4893E-01  0.4869E-01  0.1994E+02  0.1994E+02
     10.462  0.9693E-01  0.9641E-01  0.1994E+02  0.1994E+02
     10.519  0.1533E+00  0.1539E+00  0.1995E+02  0.1995E+02
     10.575  0.1581E+00  0.1615E+00  0.1996E+02  0.1996E+02
     10.631  0.1188E+00  0.1237E+00  0.1997E+02  0.1997E+02
     10.687  0.9085E-01  0.9207E-01  0.1997E+02  0.1997E+02
     10.743  0.7962E-01  0.7596E-01  0.1998E+02  0.1998E+02
     10.800  0.7078E-01  0.6683E-01  0.1998E+02  0.1998E+02
     10.856  0.7127E-01  0.6840E-01  0.1998E+02  0.1998E+02
     10.912  0.8116E-01  0.7934E-01  0.1999E+02  0.1999E+02
     10.968  0.7537E-01  0.7425E-01  0.1999E+02  0.1999E+02
     11.024  0.5972E-01  0.5877E-01  0.2000E+02  0.1999E+02
     11.081  0.4437E-01  0.4543E-01  0.2000E+02  0.2000E+02
     11.137  0.2518E-01  0.2743E-01  0.2000E+02  0.2000E+02
     11.193  0.1059E-01  0.1202E-01  0.2000E+02  0.2000E+02
     11.249  0.3797E-02  0.4391E-02  0.2000E+02  0.2000E+02
     11.306  0.1129E-02  0.1332E-02  0.2000E+02  0.2000E+02
     11.362  0.3716E-03  0.4393E-03  0.2000E+02  0.2000E+02
     11.418  0.1212E-03  0.1434E-03  0.2000E+02  0.2000E+02
     11.474  0.0000E+00  0.0000E+00  0.2000E+02  0.2000E+02
     11.530  0.0000E+00  0.0000E+00  0.2000E+02  0.2000E+02
     11.587  0.0000E+00  0.0000E+00  0.2000E+02  0.2000E+02
     11.643  0.0000E+00  0.0000E+00  0.2000E+02  0.2000E+02
     11.699  0.0000E+00  0.0000E+00  0.2000E+02  0.2000E+02
     11.755  0.0000E+00  0.0000E+00  0.2000E+02  0.2000E+02
     11.811  0.0000E+00  0.0000E+00  0.2000E+02  0.2000E+02
     11.81141237     -5.05225207  301      4.13264572      1.00000000
     -5.052  0.0000E+00  0.0000E+00  0.0000E+00  0.0000E+00  0.0000E+00  0.0000E+00  0.0000E+00  0.0000E+00  0.0000E+00  0.0000E+00  0.0000E+00  0.0000E+00  0.0000E+00  0.0000E+00  0.0000E+00  0.0000E+00  0.0000E+00  0.0000E+00
     -4.996  0.0000E+00  0.0000E+00  0.0000E+00  0.0000E+00  0.0000E+00  0.0000E+00  0.0000E+00  0.0000E+00  0.0000E+00  0.0000E+00  0.0000E+00  0.0000E+00  0.0000E+00  0.0000E+00  0.0000E+00  0.0000E+00  0.0000E+00  0.0000E+00
     -4.940  0.0000E+00  0.0000E+00  0.0000E+00  0.0000E+00  0.0000E+00  0.0000E+00  0.0000E+00  0.0000E+00  0.0000E+00  0.0000E+00  0.0000E+00  0.0000E+00  0.0000E+00  0.0000E+00  0.0000E+00  0.0000E+00  0.0000E+00  0.0000E+00
     -4.884  0.0000E+00  0.0000E+00  0.0000E+00  0.0000E+00  0.0000E+00  0.0000E+00  0.0000E+00  0.0000E+00  0.0000E+00  0.0000E+00  0.0000E+00  0.0000E+00  0.0000E+00  0.0000E+00  0.0000E+00  0.0000E+00  0.0000E+00  0.0000E+00
     -4.827  0.0000E+00  0.0000E+00  0.0000E+00  0.0000E+00  0.0000E+00  0.0000E+00  0.0000E+00  0.0000E+00  0.0000E+00  0.0000E+00  0.0000E+00  0.0000E+00  0.0000E+00  0.0000E+00  0.0000E+00  0.0000E+00  0.0000E+00  0.0000E+00
     -4.771  0.0000E+00  0.0000E+00  0.0000E+00  0.0000E+00  0.0000E+00  0.0000E+00  0.0000E+00  0.0000E+00  0.0000E+00  0.0000E+00  0.0000E+00  0.0000E+00  0.0000E+00  0.0000E+00  0.0000E+00  0.0000E+00  0.0000E+00  0.0000E+00
     -4.715  0.2202E-07  0.2114E-07  0.1110E-19  0.2557E-20  0.2198E-19  0.9145E-19  0.1110E-19  0.2557E-20  0.0000E+00  0.0000E+00  0.0000E+00  0.0000E+00  0.0000E+00  0.0000E+00  0.0000E+00  0.0000E+00  0.0000E+00  0.0000E+00
     -4.659  0.3388E-06  0.3251E-06  0.1384E-08  0.1333E-08  0.2204E-08  0.2120E-08  0.1384E-08  0.1333E-08  0.0000E+00  0.0000E+00  0.0000E+00  0.0000E+00  0.0000E+00  0.0000E+00  0.0000E+00  0.0000E+00  0.0000E+00  0.0000E+00
     -4.603  0.1045E-05  0.1003E-05  0.6510E-08  0.6264E-08  0.6410E-08  0.6165E-08  0.6510E-08  0.6264E-08  0.0000E+00  0.0000E+00  0.0000E+00  0.0000E+00  0.0000E+00  0.0000E+00  0.0000E+00  0.0000E+00  0.0000E+00  0.0000E+00
     -4.546  0.3194E-05  0.3066E-05  0.1928E-07  0.1855E-07  0.2806E-07  0.2697E-07  0.1928E-07  0.1855E-07  0.0000E+00  0.0000E+00  0.0000E+00  0.0000E+00  0.0000E+00  0.0000E+00  0.0000E+00  0.0000E+00  0.0000E+00  0.0000E+00
     -4.490  0.1034E-04  0.9928E-05  0.7842E-07  0.7542E-07  0.9037E-07  0.8683E-07  0.7842E-07  0.7542E-07  0.0000E+00  0.0000E+00  0.0000E+00  0.0000E+00  0.0000E+00  0.0000E+00  0.0000E+00  0.0000E+00  0.0000E+00  0.0000E+00
     -4.434  0.3047E-04  0.2928E-04  0.2175E-06  0.2093E-06  0.2616E-06  0.2514E-06  0.2175E-06  0.2093E-06  0.0000E+00  0.0000E+00  0.0000E+00  0.0000E+00  0.0000E+00  0.0000E+00  0.0000E+00  0.0000E+00  0.0000E+00  0.0000E+00
     -4.378  0.9016E-04  0.8678E-04  0.6735E-06  0.6486E-06  0.8338E-06  0.8021E-06  0.6735E-06  0.6486E-06  0.0000E+00  0.0000E+00  0.0000E+00  0.0000E+00  0.0000E+00  0.0000E+00  0.0000E+00  0.0000E+00  0.0000E+00  0.0000E+00
     -4.321  0.2441E-03  0.2359E-03  0.1950E-05  0.1882E-05  0.2378E-05  0.2293E-05  0.1950E-05  0.1882E-05  0.0000E+00  0.0000E+00  0.0000E+00  0.0000E+00  0.0000E+00  0.0000E+00  0.0000E+00  0.0000E+00  0.0000E+00  0.0000E+00
     -4.265  0.5612E-03  0.5466E-03  0.5115E-05  0.4960E-05  0.6216E-05  0.6020E-05  0.5115E-05  0.4960E-05  0.0000E+00  0.0000E+00  0.0000E+00  0.0000E+00  0.0000E+00  0.0000E+00  0.0000E+00  0.0000E+00  0.0000E+00  0.0000E+00
     -4.209  0.1016E-02  0.9992E-03  0.1142E-04  0.1114E-04  0.1407E-04  0.1371E-04  0.1142E-04  0.1114E-04  0.0000E+00  0.0000E+00  0.0000E+00  0.0000E+00  0.0000E+00  0.0000E+00  0.0000E+00  0.0000E+00  0.0000E+00  0.0000E+00
     -4.153  0.1476E-02  0.1460E-02  0.2181E-04  0.2136E-04  0.2697E-04  0.2641E-04  0.2181E-04  0.2136E-04  0.0000E+00  0.0000E+00  0.0000E+00  0.0000E+00  0.0000E+00  0.0000E+00  0.0000E+00  0.0000E+00  0.0000E+00  0.0000E+00
     -4.097  0.1908E-02  0.1893E-02  0.3702E-04  0.3642E-04  0.4471E-04  0.4398E-04  0.3702E-04  0.3642E-04  0.0000E+00  0.0000E+00  0.0000E+00  0.0000E+00  0.0000E+00  0.0000E+00  0.0000E+00  0.0000E+00  0.0000E+00  0.0000E+00
     -4.040  0.2237E-02  0.2229E-02  0.5407E-04  0.5348E-04  0.6486E-04  0.6400E-04  0.5407E-04  0.5348E-04  0.0000E+00  0.0000E+00  0.0000E+00  0.0000E+00  0.0000E+00  0.0000E+00  0.0000E+00  0.0000E+00  0.0000E+00  0.0000E+00
     -3.984  0.2395E-02  0.2389E-02  0.7053E-04  0.6981E-04  0.9054E-04  0.8927E-04  0.7053E-04  0.6981E-04  0.0000E+00  0.0000E+00  0.0000E+00  0.0000E+00  0.0000E+00  0.0000E+00  0.0000E+00  0.0000E+00  0.0000E+00  0.0000E+00
     -3.928  0.2644E-02  0.2632E-02  0.9483E-04  0.9370E-04  0.1241E-03  0.1227E-03  0.9483E-04  0.9370E-04  0.0000E+00  0.0000E+00  0.0000E+00  0.0000E+00  0.0000E+00  0.0000E+00  0.0000E+00  0.0000E+00  0.0000E+00  0.0000E+00
     -3.872  0.2908E-02  0.2901E-02  0.1256E-03  0.1244E-03  0.1506E-03  0.1496E-03  0.1256E-03  0.1244E-03  0.0000E+00  0.0000E+00  0.0000E+00  0.0000E+00  0.0000E+00  0.0000E+00  0.0000E+00  0.0000E+00  0.0000E+00  0.0000E+00
     -3.816  0.3034E-02  0.3030E-02  0.1528E-03  0.1518E-03  0.1774E-03  0.1758E-03  0.1528E-03  0.1518E-03  0.0000E+00  0.0000E+00  0.0000E+00  0.0000E+00  0.0000E+00  0.0000E+00  0.0000E+00  0.0000E+00  0.0000E+00  0.0000E+00
     -3.759  0.3137E-02  0.3133E-02  0.1761E-03  0.1752E-03  0.2223E-03  0.2202E-03  0.1761E-03  0.1752E-03  0.0000E+00  0.0000E+00  0.0000E+00  0.0000E+00  0.0000E+00  0.0000E+00  0.0000E+00  0.0000E+00  0.0000E+00  0.0000E+00
     -3.703  0.3183E-02  0.3183E-02  0.1973E-03  0.1965E-03  0.2679E-03  0.2661E-03  0.1973E-03  0.1965E-03  0.0000E+00  0.0000E+00  0.0000E+00  0.0000E+00  0.0000E+00  0.0000E+00  0.0000E+00  0.0000E+00  0.0000E+00  0.0000E+00
     -3.647  0.3162E-02  0.3160E-02  0.2215E-03  0.2201E-03  0.3067E-03  0.3050E-03  0.2215E-03  0.2201E-03  0.0000E+00  0.0000E+00  0.0000E+00  0.0000E+00  0.0000E+00  0.0000E+00  0.0000E+00  0.0000E+00  0.0000E+00  0.0000E+00
     -3.591  0.3368E-02  0.3355E-02  0.2735E-03  0.2710E-03  0.3517E-03  0.3496E-03  0.2735E-03  0.2710E-03  0.0000E+00  0.0000E+00  0.0000E+00  0.0000E+00  0.0000E+00  0.0000E+00  0.0000E+00  0.0000E+00  0.0000E+00  0.0000E+00
     -3.535  0.3633E-02  0.3627E-02  0.3321E-03  0.3303E-03  0.3972E-03  0.3955E-03  0.3321E-03  0.3303E-03  0.0000E+00  0.0000E+00  0.0000E+00  0.0000E+00  0.0000E+00  0.0000E+00  0.0000E+00  0.0000E+00  0.0000E+00  0.0000E+00
     -3.478  0.3615E-02  0.3618E-02  0.3637E-03  0.3628E-03  0.4289E-03  0.4274E-03  0.3637E-03  0.3628E-03  0.0000E+00  0.0000E+00  0.0000E+00  0.0000E+00  0.0000E+00  0.0000E+00  0.0000E+00  0.0000E+00  0.0000E+00  0.0000E+00
     -3.422  0.3539E-02  0.3541E-02  0.3835E-03  0.3829E-03  0.4907E-03  0.4871E-03  0.3835E-03  0.3829E-03  0.0000E+00  0.0000E+00  0.0000E+00  0.0000E+00  0.0000E+00  0.0000E+00  0.0000E+00  0.0000E+00  0.0000E+00  0.0000E+00
     -3.366  0.3445E-02  0.3450E-02  0.3891E-03  0.3890E-03  0.5882E-03  0.5845E-03  0.3891E-03  0.3890E-03  0.0000E+00  0.0000E+00  0.0000E+00  0.0000E+00  0.0000E+00  0.0000E+00  0.0000E+00  0.0000E+00  0.0000E+00  0.0000E+00
     -3.310  0.3356E-02  0.3355E-02  0.4107E-03  0.4088E-03  0.6616E-03  0.6594E-03  0.4107E-03  0.4088E-03  0.0000E+00  0.0000E+00  0.0000E+00  0.0000E+00  0.0000E+00  0.0000E+00  0.0000E+00  0.0000E+00  0.0000E+00  0.0000E+00
     -3.253  0.3489E-02  0.3481E-02  0.4899E-03  0.4860E-03  0.7067E-03  0.7053E-03  0.4899E-03  0.4860E-03  0.0000E+00  0.0000E+00  0.0000E+00  0.0000E+00  0.0000E+00  0.0000E+00  0.0000E+00  0.0000E+00  0.0000E+00  0.0000E+00
     -3.197  0.3683E-02  0.3681E-02  0.5909E-03  0.5875E-03  0.7399E-03  0.7386E-03  0.5909E-03  0.5875E-03  0.0000E+00  0.0000E+00  0.0000E+00  0.0000E+00  0.0000E+00  0.0000E+00  0.0000E+00  0.0000E+00  0.0000E+00  0.0000E+00
     -3.141  0.3682E-02  0.3687E-02  0.6521E-03  0.6506E-03  0.8079E-03  0.8035E-03  0.6521E-03  0.6506E-03  0.0000E+00  0.0000E+00  0.0000E+00  0.0000E+00  0.0000E+00  0.0000E+00  0.0000E+00  0.0000E+00  0.0000E+00  0.0000E+00
     -3.085  0.3600E-02  0.3604E-02  0.6801E-03  0.6792E-03  0.9727E-03  0.9652E-03  0.6801E-03  0.6792E-03  0.0000E+00  0.0000E+00  0.0000E+00  0.0000E+00  0.0000E+00  0.0000E+00  0.0000E+00  0.0000E+00  0.0000E+00  0.0000E+00
     -3.029  0.3467E-02  0.3476E-02  0.6851E-03  0.6854E-03  0.1152E-02  0.1147E-02  0.6851E-03  0.6854E-03  0.0000E+00  0.0000E+00  0.0000E+00  0.0000E+00  0.0000E+00  0.0000E+00  0.0000E+00  0.0000E+00  0.0000E+00  0.0000E+00
     -2.972  0.3264E-02  0.3272E-02  0.6882E-03  0.6871E-03  0.1273E-02  0.1269E-02  0.6882E-03  0.6871E-03  0.0000E+00  0.0000E+00  0.0000E+00  0.0000E+00  0.0000E+00  0.0000E+00  0.0000E+00  0.0000E+00  0.0000E+00  0.0000E+00
     -2.916  0.3210E-02  0.3214E-02  0.7464E-03  0.7436E-03  0.1367E-02  0.1366E-02  0.7464E-03  0.7436E-03  0.0000E+00  0.0000E+00  0.0000E+00  0.0000E+00  0.0000E+00  0.0000E+00  0.0000E+00  0.0000E+00  0.0000E+00  0.0000E+00
     -2.860  0.3093E-02  0.3104E-02  0.8097E-03  0.8073E-03  0.1348E-02  0.1352E-02  0.8097E-03  0.8073E-03  0.0000E+00  0.0000E+00  0.0000E+00  0.0000E+00  0.0000E+00  0.0000E+00  0.0000E+00  0.0000E+00  0.0000E+00  0.0000E+00
     -2.804  0.2955E-02  0.2960E-02  0.8994E-03  0.8944E-03  0.1327E-02  0.1325E-02  0.8994E-03  0.8944E-03  0.0000E+00  0.0000E+00  0.0000E+00  0.0000E+00  0.0000E+00  0.0000E+00  0.0000E+00  0.0000E+00  0.0000E+00  0.0000E+00
     -2.748  0.3035E-02  0.3035E-02  0.1048E-02  0.1043E-02  0.1489E-02  0.1483E-02  0.1048E-02  0.1043E-02  0.0000E+00  0.0000E+00  0.0000E+00  0.0000E+00  0.0000E+00  0.0000E+00  0.0000E+00  0.0000E+00  0.0000E+00  0.0000E+00
     -2.691  0.3064E-02  0.3073E-02  0.1160E-02  0.1157E-02  0.1590E-02  0.1592E-02  0.1160E-02  0.1157E-02  0.0000E+00  0.0000E+00  0.0000E+00  0.0000E+00  0.0000E+00  0.0000E+00  0.0000E+00  0.0000E+00  0.0000E+00  0.0000E+00
     -2.635  0.2884E-02  0.2900E-02  0.1209E-02  0.1207E-02  0.1508E-02  0.1513E-02  0.1209E-02  0.1207E-02  0.0000E+00  0.0000E+00  0.0000E+00  0.0000E+00  0.0000E+00  0.0000E+00  0.0000E+00  0.0000E+00  0.0000E+00  0.0000E+00
     -2.579  0.2670E-02  0.2686E-02  0.1263E-02  0.1261E-02  0.1456E-02  0.1457E-02  0.1263E-02  0.1261E-02  0.0000E+00  0.0000E+00  0.0000E+00  0.0000E+00  0.0000E+00  0.0000E+00  0.0000E+00  0.0000E+00  0.0000E+00  0.0000E+00
     -2.523  0.2403E-02  0.2422E-02  0.1306E-02  0.1306E-02  0.1443E-02  0.1445E-02  0.1306E-02  0.1306E-02  0.0000E+00  0.0000E+00  0.0000E+00  0.0000E+00  0.0000E+00  0.0000E+00  0.0000E+00  0.0000E+00  0.0000E+00  0.0000E+00
     -2.466  0.2127E-02  0.2140E-02  0.1360E-02  0.1356E-02  0.1472E-02  0.1469E-02  0.1360E-02  0.1356E-02  0.0000E+00  0.0000E+00  0.0000E+00  0.0000E+00  0.0000E+00  0.0000E+00  0.0000E+00  0.0000E+00  0.0000E+00  0.0000E+00
     -2.410  0.2072E-02  0.2077E-02  0.1554E-02  0.1545E-02  0.1636E-02  0.1631E-02  0.1554E-02  0.1545E-02  0.0000E+00  0.0000E+00  0.0000E+00  0.0000E+00  0.0000E+00  0.0000E+00  0.0000E+00  0.0000E+00  0.0000E+00  0.0000E+00
     -2.354  0.1998E-02  0.2010E-02  0.1748E-02  0.1743E-02  0.1699E-02  0.1704E-02  0.1748E-02  0.1743E-02  0.0000E+00  0.0000E+00  0.0000E+00  0.0000E+00  0.0000E+00  0.0000E+00  0.0000E+00  0.0000E+00  0.0000E+00  0.0000E+00
     -2.298  0.1764E-02  0.1780E-02  0.1807E-02  0.1809E-02  0.1574E-02  0.1582E-02  0.1807E-02  0.1809E-02  0.0000E+00  0.0000E+00  0.0000E+00  0.0000E+00  0.0000E+00  0.0000E+00  0.0000E+00  0.0000E+00  0.0000E+00  0.0000E+00
     -2.242  0.1472E-02  0.1489E-02  0.1700E-02  0.1709E-02  0.1414E-02  0.1423E-02  0.1700E-02  0.1709E-02  0.0000E+00  0.0000E+00  0.0000E+00  0.0000E+00  0.0000E+00  0.0000E+00  0.0000E+00  0.0000E+00  0.0000E+00  0.0000E+00