   8   8   1   0
  0.1235522E+02  0.3669753E-09  0.3669753E-09  0.7339505E-09  0.5000000E-15
  1.000000000000000E-004
  CAR 
 unknown system                          
     19.84201509     -3.63258570  301      8.97028694      1.00000000
     -3.633  0.0000E+00  0.0000E+00  0.0000E+00  0.0000E+00
     -3.554  0.0000E+00  0.0000E+00  0.0000E+00  0.0000E+00
     -3.476  0.0000E+00  0.0000E+00  0.0000E+00  0.0000E+00
     -3.398  0.0000E+00  0.0000E+00  0.0000E+00  0.0000E+00
     -3.320  0.0000E+00  0.0000E+00  0.0000E+00  0.0000E+00
     -3.241  0.0000E+00  0.0000E+00  0.0000E+00  0.0000E+00
     -3.163  0.0000E+00  0.0000E+00  0.0000E+00  0.0000E+00
     -3.085  0.0000E+00  0.0000E+00  0.0000E+00  0.0000E+00
     -3.007  0.1595E-05  0.1454E-05  0.1248E-06  0.1138E-06
     -2.928  0.2792E-04  0.2546E-04  0.2310E-05  0.2106E-05
     -2.850  0.1350E-03  0.1232E-03  0.1288E-04  0.1174E-04
     -2.772  0.6398E-03  0.5837E-03  0.6294E-04  0.5742E-04
     -2.694  0.3021E-02  0.2750E-02  0.2993E-03  0.2726E-03
     -2.615  0.1286E-01  0.1187E-01  0.1305E-02  0.1201E-02
     -2.537  0.4318E-01  0.4062E-01  0.4684E-02  0.4380E-02
     -2.459  0.9550E-01  0.9231E-01  0.1216E-01  0.1160E-01
     -2.381  0.1408E+00  0.1385E+00  0.2317E-01  0.2244E-01
     -2.302  0.1877E+00  0.1844E+00  0.3786E-01  0.3687E-01
     -2.224  0.2330E+00  0.2318E+00  0.5609E-01  0.5501E-01
     -2.146  0.2303E+00  0.2303E+00  0.7412E-01  0.7303E-01
     -2.068  0.2670E+00  0.2633E+00  0.9501E-01  0.9364E-01
     -1.989  0.3126E+00  0.3114E+00  0.1195E+00  0.1180E+00
     -1.911  0.3215E+00  0.3209E+00  0.1447E+00  0.1431E+00
     -1.833  0.3439E+00  0.3421E+00  0.1716E+00  0.1699E+00
     -1.755  0.3650E+00  0.3651E+00  0.2002E+00  0.1985E+00
     -1.676  0.3442E+00  0.3452E+00  0.2271E+00  0.2255E+00
     -1.598  0.3804E+00  0.3753E+00  0.2569E+00  0.2549E+00
     -1.520  0.4610E+00  0.4586E+00  0.2930E+00  0.2908E+00
     -1.442  0.4488E+00  0.4511E+00  0.3281E+00  0.3261E+00
     -1.363  0.4492E+00  0.4469E+00  0.3633E+00  0.3611E+00
     -1.285  0.4675E+00  0.4687E+00  0.3999E+00  0.3978E+00
     -1.207  0.4394E+00  0.4396E+00  0.4343E+00  0.4322E+00
     -1.129  0.4752E+00  0.4715E+00  0.4715E+00  0.4692E+00
     -1.050  0.5438E+00  0.5402E+00  0.5141E+00  0.5115E+00
     -0.972  0.5629E+00  0.5634E+00  0.5581E+00  0.5556E+00
     -0.894  0.5792E+00  0.5762E+00  0.6035E+00  0.6007E+00
     -0.816  0.6173E+00  0.6177E+00  0.6518E+00  0.6490E+00
     -0.737  0.5735E+00  0.5756E+00  0.6967E+00  0.6941E+00
     -0.659  0.6124E+00  0.6076E+00  0.7447E+00  0.7417E+00
     -0.581  0.6302E+00  0.6341E+00  0.7940E+00  0.7913E+00
     -0.503  0.5635E+00  0.5634E+00  0.8381E+00  0.8355E+00
     -0.424  0.6639E+00  0.6552E+00  0.8901E+00  0.8868E+00
     -0.346  0.7616E+00  0.7603E+00  0.9497E+00  0.9463E+00
     -0.268  0.7102E+00  0.7148E+00  0.1005E+01  0.1002E+01
     -0.190  0.6797E+00  0.6784E+00  0.1059E+01  0.1055E+01
     -0.111  0.6987E+00  0.6999E+00  0.1113E+01  0.1110E+01
     -0.033  0.6237E+00  0.6279E+00  0.1162E+01  0.1159E+01
      0.045  0.6762E+00  0.6664E+00  0.1215E+01  0.1212E+01
      0.123  0.8176E+00  0.8145E+00  0.1279E+01  0.1275E+01
      0.202  0.7903E+00  0.7924E+00  0.1341E+01  0.1337E+01
      0.280  0.7466E+00  0.7519E+00  0.1399E+01  0.1396E+01
      0.358  0.6073E+00  0.6144E+00  0.1447E+01  0.1444E+01
      0.436  0.6005E+00  0.5965E+00  0.1494E+01  0.1491E+01
      0.515  0.6604E+00  0.6589E+00  0.1546E+01  0.1543E+01
      0.593  0.6257E+00  0.6313E+00  0.1595E+01  0.1592E+01
      0.671  0.4938E+00  0.5012E+00  0.1633E+01  0.1631E+01
      0.749  0.4170E+00  0.4188E+00  0.1666E+01  0.1664E+01
      0.828  0.3996E+00  0.4004E+00  0.1697E+01  0.1696E+01
      0.906  0.4028E+00  0.4012E+00  0.1729E+01  0.1727E+01
      0.984  0.4658E+00  0.4605E+00  0.1766E+01  0.1763E+01
      1.062  0.5390E+00  0.5358E+00  0.1808E+01  0.1805E+01
      1.141  0.6088E+00  0.6021E+00  0.1855E+01  0.1852E+01
      1.219  0.7377E+00  0.7320E+00  0.1913E+01  0.1910E+01
      1.297  0.7570E+00  0.7589E+00  0.1972E+01  0.1969E+01
      1.375  0.7691E+00  0.7644E+00  0.2033E+01  0.2029E+01
      1.454  0.9004E+00  0.8937E+00  0.2103E+01  0.2099E+01
      1.532  0.9085E+00  0.9130E+00  0.2174E+01  0.2170E+01
      1.610  0.8213E+00  0.8241E+00  0.2238E+01  0.2235E+01
      1.688  0.8608E+00  0.8544E+00  0.2306E+01  0.2302E+01
      1.767  0.9328E+00  0.9342E+00  0.2379E+01  0.2375E+01
      1.845  0.8052E+00  0.8149E+00  0.2442E+01  0.2439E+01
      1.923  0.7013E+00  0.7037E+00  0.2497E+01  0.2494E+01
      2.001  0.7131E+00  0.7096E+00  0.2553E+01  0.2549E+01
      2.080  0.7932E+00  0.7895E+00  0.2615E+01  0.2611E+01
      2.158  0.7938E+00  0.7959E+00  0.2677E+01  0.2674E+01
      2.236  0.7810E+00  0.7803E+00  0.2738E+01  0.2735E+01
      2.314  0.8170E+00  0.8140E+00  0.2802E+01  0.2798E+01
      2.393  0.8273E+00  0.8308E+00  0.2867E+01  0.2863E+01
      2.471  0.6886E+00  0.6983E+00  0.2921E+01  0.2918E+01
      2.549  0.6075E+00  0.6067E+00  0.2969E+01  0.2966E+01
      2.627  0.6985E+00  0.6918E+00  0.3023E+01  0.3020E+01
      2.706  0.7413E+00  0.7437E+00  0.3081E+01  0.3078E+01
      2.784  0.6580E+00  0.6633E+00  0.3133E+01  0.3130E+01
      2.862  0.5625E+00  0.5675E+00  0.3177E+01  0.3175E+01
      2.940  0.5519E+00  0.5459E+00  0.3220E+01  0.3217E+01
      3.019  0.8176E+00  0.7948E+00  0.3284E+01  0.3279E+01
      3.097  0.1220E+01  0.1202E+01  0.3380E+01  0.3374E+01
      3.175  0.1294E+01  0.1300E+01  0.3481E+01  0.3475E+01
      3.253  0.1122E+01  0.1133E+01  0.3569E+01  0.3564E+01
      3.332  0.9295E+00  0.9415E+00  0.3642E+01  0.3638E+01
      3.410  0.7506E+00  0.7573E+00  0.3700E+01  0.3697E+01
      3.488  0.7806E+00  0.7717E+00  0.3761E+01  0.3758E+01
      3.566  0.9716E+00  0.9631E+00  0.3838E+01  0.3833E+01
      3.645  0.9650E+00  0.9722E+00  0.3913E+01  0.3909E+01
      3.723  0.8291E+00  0.8334E+00  0.3978E+01  0.3974E+01
      3.801  0.9171E+00  0.9057E+00  0.4050E+01  0.4045E+01
      3.879  0.1082E+01  0.1077E+01  0.4135E+01  0.4130E+01
      3.958  0.1074E+01  0.1077E+01  0.4219E+01  0.4214E+01
      4.036  0.1087E+01  0.1083E+01  0.4304E+01  0.4299E+01
      4.114  0.1166E+01  0.1164E+01  0.4395E+01  0.4390E+01
      4.192  0.1161E+01  0.1164E+01  0.4486E+01  0.4481E+01
      4.271  0.1030E+01  0.1040E+01  0.4567E+01  0.4563E+01
      4.349  0.8802E+00  0.8843E+00  0.4636E+01  0.4632E+01
      4.427  0.9349E+00  0.9272E+00  0.4709E+01  0.4705E+01
      4.505  0.1047E+01  0.1045E+01  0.4791E+01  0.4786E+01
      4.584  0.9932E+00  0.9989E+00  0.4869E+01  0.4865E+01
      4.662  0.9288E+00  0.9294E+00  0.4942E+01  0.4937E+01
      4.740  0.9897E+00  0.9834E+00  0.5019E+01  0.5014E+01
      4.818  0.1198E+01  0.1181E+01  0.5113E+01  0.5107E+01
      4.897  0.1502E+01  0.1486E+01  0.5230E+01  0.5223E+01
      4.975  0.1660E+01  0.1657E+01  0.5360E+01  0.5353E+01
      5.053  0.1556E+01  0.1568E+01  0.5482E+01  0.5476E+01
      5.131  0.1299E+01  0.1315E+01  0.5584E+01  0.5579E+01
      5.210  0.1092E+01  0.1099E+01  0.5669E+01  0.5665E+01
      5.288  0.1083E+01  0.1082E+01  0.5754E+01  0.5749E+01
      5.366  0.1008E+01  0.1018E+01  0.5833E+01  0.5829E+01
      5.444  0.8038E+00  0.8119E+00  0.5896E+01  0.5893E+01
      5.523  0.7805E+00  0.7760E+00  0.5957E+01  0.5954E+01
      5.601  0.9541E+00  0.9390E+00  0.6032E+01  0.6027E+01
      5.679  0.1246E+01  0.1231E+01  0.6130E+01  0.6124E+01
      5.757  0.1325E+01  0.1329E+01  0.6233E+01  0.6228E+01
      5.836  0.1255E+01  0.1257E+01  0.6332E+01  0.6326E+01
      5.914  0.1252E+01  0.1253E+01  0.6430E+01  0.6424E+01
      5.992  0.1149E+01  0.1160E+01  0.6520E+01  0.6515E+01
      6.070  0.9079E+00  0.9216E+00  0.6591E+01  0.6587E+01
      6.148  0.7501E+00  0.7554E+00  0.6649E+01  0.6646E+01
      6.227  0.7701E+00  0.7629E+00  0.6710E+01  0.6706E+01
      6.305  0.9932E+00  0.9788E+00  0.6788E+01  0.6783E+01
      6.383  0.1240E+01  0.1226E+01  0.6885E+01  0.6879E+01
      6.461  0.1469E+01  0.1458E+01  0.7000E+01  0.6993E+01
      6.540  0.1532E+01  0.1535E+01  0.7120E+01  0.7113E+01
      6.618  0.1454E+01  0.1457E+01  0.7233E+01  0.7227E+01
      6.696  0.1354E+01  0.1363E+01  0.7339E+01  0.7334E+01
      6.774  0.1191E+01  0.1198E+01  0.7433E+01  0.7428E+01
      6.853  0.1173E+01  0.1169E+01  0.7525E+01  0.7519E+01
      6.931  0.1297E+01  0.1291E+01  0.7626E+01  0.7620E+01
      7.009  0.1263E+01  0.1272E+01  0.7725E+01  0.7720E+01
      7.087  0.1087E+01  0.1095E+01  0.7810E+01  0.7806E+01
      7.166  0.1073E+01  0.1071E+01  0.7894E+01  0.7890E+01
      7.244  0.1117E+01  0.1116E+01  0.7982E+01  0.7977E+01
      7.322  0.1103E+01  0.1104E+01  0.8068E+01  0.8064E+01
      7.400  0.1089E+01  0.1090E+01  0.8154E+01  0.8149E+01
      7.479  0.1110E+01  0.1107E+01  0.8241E+01  0.8236E+01
      7.557  0.1170E+01  0.1168E+01  0.8332E+01  0.8327E+01
      7.635  0.1157E+01  0.1162E+01  0.8423E+01  0.8418E+01
      7.713  0.9531E+00  0.9681E+00  0.8497E+01  0.8494E+01
      7.792  0.7257E+00  0.7325E+00  0.8554E+01  0.8551E+01
      7.870  0.7622E+00  0.7525E+00  0.8614E+01  0.8610E+01
      7.948  0.9985E+00  0.9827E+00  0.8692E+01  0.8687E+01
      8.026  0.1289E+01  0.1273E+01  0.8793E+01  0.8787E+01
      8.105  0.1444E+01  0.1443E+01  0.8906E+01  0.8900E+01
      8.183  0.1367E+01  0.1374E+01  0.9013E+01  0.9007E+01
      8.261  0.1263E+01  0.1269E+01  0.9112E+01  0.9107E+01
      8.339  0.1173E+01  0.1179E+01  0.9204E+01  0.9199E+01
      8.418  0.1073E+01  0.1076E+01  0.9288E+01  0.9283E+01
      8.496  0.1071E+01  0.1069E+01  0.9372E+01  0.9367E+01
      8.574  0.1060E+01  0.1062E+01  0.9455E+01  0.9450E+01
      8.652  0.1063E+01  0.1063E+01  0.9538E+01  0.9533E+01
      8.731  0.1156E+01  0.1148E+01  0.9629E+01  0.9623E+01
      8.809  0.1380E+01  0.1363E+01  0.9737E+01  0.9730E+01
      8.887  0.1650E+01  0.1638E+01  0.9866E+01  0.9858E+01
      8.965  0.1662E+01  0.1671E+01  0.9996E+01  0.9989E+01
      9.044  0.1407E+01  0.1425E+01  0.1011E+02  0.1010E+02
      9.122  0.1087E+01  0.1103E+01  0.1019E+02  0.1019E+02
      9.200  0.9547E+00  0.9508E+00  0.1027E+02  0.1026E+02
      9.278  0.1209E+01  0.1191E+01  0.1036E+02  0.1035E+02
      9.357  0.1384E+01  0.1382E+01  0.1047E+02  0.1046E+02
      9.435  0.1394E+01  0.1396E+01  0.1058E+02  0.1057E+02
      9.513  0.1311E+01  0.1318E+01  0.1068E+02  0.1068E+02
      9.591  0.1310E+01  0.1304E+01  0.1078E+02  0.1078E+02
      9.670  0.1417E+01  0.1412E+01  0.1089E+02  0.1089E+02
      9.748  0.1502E+01  0.1496E+01  0.1101E+02  0.1101E+02
      9.826  0.1548E+01  0.1550E+01  0.1113E+02  0.1113E+02
      9.904  0.1475E+01  0.1480E+01  0.1125E+02  0.1124E+02
      9.983  0.1422E+01  0.1423E+01  0.1136E+02  0.1135E+02
     10.061  0.1446E+01  0.1443E+01  0.1147E+02  0.1147E+02
     10.139  0.1494E+01  0.1495E+01  0.1159E+02  0.1158E+02
     10.217  0.1345E+01  0.1360E+01  0.1170E+02  0.1169E+02
     10.296  0.1129E+01  0.1137E+01  0.1178E+02  0.1178E+02
     10.374  0.1054E+01  0.1057E+01  0.1187E+02  0.1186E+02
     10.452  0.1100E+01  0.1093E+01  0.1195E+02  0.1195E+02
     10.530  0.1295E+01  0.1287E+01  0.1205E+02  0.1205E+02
     10.609  0.1266E+01  0.1275E+01  0.1215E+02  0.1215E+02
     10.687  0.1058E+01  0.1069E+01  0.1224E+02  0.1223E+02
     10.765  0.8797E+00  0.8883E+00  0.1231E+02  0.1230E+02
     10.843  0.7976E+00  0.7984E+00  0.1237E+02  0.1236E+02
     10.922  0.8931E+00  0.8808E+00  0.1244E+02  0.1243E+02
     11.000  0.1215E+01  0.1191E+01  0.1253E+02  0.1253E+02
     11.078  0.1548E+01  0.1534E+01  0.1265E+02  0.1265E+02
     11.156  0.1641E+01  0.1641E+01  0.1278E+02  0.1278E+02
     11.235  0.1609E+01  0.1613E+01  0.1291E+02  0.1290E+02
     11.313  0.1583E+01  0.1581E+01  0.1303E+02  0.1303E+02
     11.391  0.1640E+01  0.1636E+01  0.1316E+02  0.1315E+02
     11.469  0.1573E+01  0.1581E+01  0.1328E+02  0.1328E+02
     11.548  0.1430E+01  0.1436E+01  0.1340E+02  0.1339E+02
     11.626  0.1444E+01  0.1440E+01  0.1351E+02  0.1350E+02
     11.704  0.1533E+01  0.1529E+01  0.1363E+02  0.1362E+02
     11.782  0.1526E+01  0.1528E+01  0.1375E+02  0.1374E+02
     11.861  0.1469E+01  0.1471E+01  0.1386E+02  0.1386E+02
     11.939  0.1437E+01  0.1440E+01  0.1398E+02  0.1397E+02
     12.017  0.1395E+01  0.1398E+01  0.1409E+02  0.1408E+02
     12.095  0.1398E+01  0.1399E+01  0.1420E+02  0.1419E+02
     12.174  0.1394E+01  0.1392E+01  0.1430E+02  0.1430E+02
     12.252  0.1474E+01  0.1467E+01  0.1442E+02  0.1441E+02
     12.330  0.1534E+01  0.1535E+01  0.1454E+02  0.1453E+02
     12.408  0.1400E+01  0.1413E+01  0.1465E+02  0.1464E+02
     12.487  0.1204E+01  0.1214E+01  0.1474E+02  0.1474E+02
     12.565  0.1125E+01  0.1122E+01  0.1483E+02  0.1483E+02
     12.643  0.1321E+01  0.1302E+01  0.1494E+02  0.1493E+02
     12.721  0.1630E+01  0.1617E+01  0.1506E+02  0.1506E+02
     12.800  0.1670E+01  0.1676E+01  0.1519E+02  0.1519E+02
     12.878  0.1546E+01  0.1550E+01  0.1531E+02  0.1531E+02
     12.956  0.1605E+01  0.1597E+01  0.1544E+02  0.1543E+02
     13.034  0.1768E+01  0.1760E+01  0.1558E+02  0.1557E+02
     13.113  0.1723E+01  0.1737E+01  0.1571E+02  0.1571E+02
     13.191  0.1340E+01  0.1364E+01  0.1582E+02  0.1581E+02
     13.269  0.1183E+01  0.1180E+01  0.1591E+02  0.1591E+02
     13.347  0.1305E+01  0.1298E+01  0.1601E+02  0.1601E+02
     13.426  0.1336E+01  0.1336E+01  0.1612E+02  0.1611E+02
     13.504  0.1379E+01  0.1373E+01  0.1623E+02  0.1622E+02
     13.582  0.1523E+01  0.1514E+01  0.1635E+02  0.1634E+02
     13.660  0.1492E+01  0.1502E+01  0.1646E+02  0.1646E+02
     13.739  0.1334E+01  0.1342E+01  0.1657E+02  0.1656E+02
     13.817  0.1317E+01  0.1315E+01  0.1667E+02  0.1666E+02
     13.895  0.1389E+01  0.1387E+01  0.1678E+02  0.1677E+02
     13.973  0.1348E+01  0.1354E+01  0.1688E+02  0.1688E+02
     14.052  0.1293E+01  0.1286E+01  0.1699E+02  0.1698E+02
     14.130  0.1526E+01  0.1506E+01  0.1711E+02  0.1710E+02
     14.208  0.1737E+01  0.1733E+01  0.1724E+02  0.1723E+02
     14.286  0.1690E+01  0.1699E+01  0.1737E+02  0.1737E+02
     14.365  0.1490E+01  0.1506E+01  0.1749E+02  0.1748E+02
     14.443  0.1181E+01  0.1198E+01  0.1758E+02  0.1758E+02
     14.521  0.1023E+01  0.1027E+01  0.1766E+02  0.1766E+02
     14.599  0.1029E+01  0.1027E+01  0.1774E+02  0.1774E+02
     14.678  0.1146E+01  0.1135E+01  0.1783E+02  0.1783E+02
     14.756  0.1360E+01  0.1350E+01  0.1794E+02  0.1793E+02
     14.834  0.1615E+01  0.1599E+01  0.1807E+02  0.1806E+02
     14.912  0.1861E+01  0.1847E+01  0.1821E+02  0.1820E+02
     14.991  0.1803E+01  0.1815E+01  0.1835E+02  0.1835E+02
     15.069  0.1450E+01  0.1471E+01  0.1847E+02  0.1846E+02
     15.147  0.1170E+01  0.1181E+01  0.1856E+02  0.1855E+02
     15.225  0.1030E+01  0.1031E+01  0.1864E+02  0.1863E+02
     15.304  0.1030E+01  0.1019E+01  0.1872E+02  0.1871E+02
     15.382  0.1152E+01  0.1152E+01  0.1881E+02  0.1880E+02
     15.460  0.1105E+01  0.1125E+01  0.1890E+02  0.1889E+02
     15.538  0.9058E+00  0.9489E+00  0.1897E+02  0.1897E+02
     15.617  0.8260E+00  0.8595E+00  0.1903E+02  0.1903E+02
     15.695  0.9694E+00  0.9466E+00  0.1911E+02  0.1911E+02
     15.773  0.1009E+01  0.9814E+00  0.1919E+02  0.1918E+02
     15.851  0.8732E+00  0.8626E+00  0.1926E+02  0.1925E+02
     15.930  0.7072E+00  0.7075E+00  0.1931E+02  0.1931E+02
     16.008  0.5756E+00  0.5831E+00  0.1936E+02  0.1935E+02
     16.086  0.5256E+00  0.5384E+00  0.1940E+02  0.1940E+02
     16.164  0.5533E+00  0.5593E+00  0.1944E+02  0.1944E+02
     16.243  0.6115E+00  0.6249E+00  0.1949E+02  0.1949E+02
     16.321  0.6595E+00  0.6810E+00  0.1954E+02  0.1954E+02
     16.399  0.5424E+00  0.5312E+00  0.1958E+02  0.1958E+02
     16.477  0.3773E+00  0.3650E+00  0.1961E+02  0.1961E+02
     16.556  0.2195E+00  0.2272E+00  0.1963E+02  0.1963E+02
     16.634  0.1310E+00  0.1337E+00  0.1964E+02  0.1964E+02
     16.712  0.1379E+00  0.1251E+00  0.1965E+02  0.1965E+02
     16.790  0.2170E+00  0.2078E+00  0.1967E+02  0.1967E+02
     16.869  0.2821E+00  0.2784E+00  0.1969E+02  0.1969E+02
     16.947  0.3812E+00  0.3801E+00  0.1972E+02  0.1972E+02
     17.025  0.3809E+00  0.3967E+00  0.1975E+02  0.1975E+02
     17.103  0.2749E+00  0.2855E+00  0.1977E+02  0.1977E+02
     17.182  0.1746E+00  0.1676E+00  0.1978E+02  0.1978E+02
     17.260  0.1814E+00  0.1695E+00  0.1980E+02  0.1980E+02
     17.338  0.2848E+00  0.2728E+00  0.1982E+02  0.1982E+02
     17.416  0.3240E+00  0.3224E+00  0.1985E+02  0.1984E+02
     17.495  0.2311E+00  0.2368E+00  0.1986E+02  0.1986E+02
     17.573  0.1646E+00  0.1605E+00  0.1988E+02  0.1988E+02
     17.651  0.1713E+00  0.1721E+00  0.1989E+02  0.1989E+02
     17.729  0.1498E+00  0.1580E+00  0.1990E+02  0.1990E+02
     17.808  0.1257E+00  0.1213E+00  0.1991E+02  0.1991E+02
     17.886  0.1648E+00  0.1639E+00  0.1993E+02  0.1992E+02
     17.964  0.1962E+00  0.2023E+00  0.1994E+02  0.1994E+02
     18.042  0.1742E+00  0.1789E+00  0.1995E+02  0.1995E+02
     18.121  0.1091E+00  0.1138E+00  0.1996E+02  0.1996E+02
     18.199  0.5006E-01  0.5023E-01  0.1997E+02  0.1997E+02
     18.277  0.4140E-01  0.3856E-01  0.1997E+02  0.1997E+02
     18.355  0.4312E-01  0.4511E-01  0.1997E+02  0.1997E+02
     18.434  0.5623E-01  0.5706E-01  0.1998E+02  0.1998E+02
     18.512  0.7648E-01  0.7801E-01  0.1998E+02  0.1998E+02
     18.590  0.6356E-01  0.6646E-01  0.1999E+02  0.1999E+02
     18.668  0.4718E-01  0.4819E-01  0.1999E+02  0.1999E+02
     18.747  0.3761E-01  0.3788E-01  0.2000E+02  0.2000E+02
     18.825  0.3580E-01  0.3573E-01  0.2000E+02  0.2000E+02
     18.903  0.1787E-01  0.1764E-01  0.2000E+02  0.2000E+02
     18.981  0.4983E-02  0.4895E-02  0.2000E+02  0.2000E+02
     19.060  0.1083E-02  0.1062E-02  0.2000E+02  0.2000E+02
     19.138  0.2299E-03  0.2255E-03  0.2000E+02  0.2000E+02
     19.216  0.0000E+00  0.0000E+00  0.2000E+02  0.2000E+02
     19.294  0.0000E+00  0.0000E+00  0.2000E+02  0.2000E+02
     19.373  0.0000E+00  0.0000E+00  0.2000E+02  0.2000E+02
     19.451  0.0000E+00  0.0000E+00  0.2000E+02  0.2000E+02
     19.529  0.0000E+00  0.0000E+00  0.2000E+02  0.2000E+02
     19.607  0.0000E+00  0.0000E+00  0.2000E+02  0.2000E+02
     19.686  0.0000E+00  0.0000E+00  0.2000E+02  0.2000E+02
     19.764  0.0000E+00  0.0000E+00  0.2000E+02  0.2000E+02
     19.842  0.0000E+00  0.0000E+00  0.2000E+02  0.2000E+02
     19.84201509     -3.63258570  301      8.97028694      1.00000000
     -3.633  0.0000E+00  0.0000E+00  0.0000E+00  0.0000E+00  0.0000E+00  0.0000E+00  0.0000E+00  0.0000E+00  0.0000E+00  0.0000E+00  0.0000E+00  0.0000E+00  0.0000E+00  0.0000E+00  0.0000E+00  0.0000E+00  0.0000E+00  0.0000E+00
     -3.554  0.0000E+00  0.0000E+00  0.0000E+00  0.0000E+00  0.0000E+00  0.0000E+00  0.0000E+00  0.0000E+00  0.0000E+00  0.0000E+00  0.0000E+00  0.0000E+00  0.0000E+00  0.0000E+00  0.0000E+00  0.0000E+00  0.0000E+00  0.0000E+00
     -3.476  0.0000E+00  0.0000E+00  0.0000E+00  0.0000E+00  0.0000E+00  0.0000E+00  0.0000E+00  0.0000E+00  0.0000E+00  0.0000E+00  0.0000E+00  0.0000E+00  0.0000E+00  0.0000E+00  0.0000E+00  0.0000E+00  0.0000E+00  0.0000E+00
     -3.398  0.0000E+00  0.0000E+00  0.0000E+00  0.0000E+00  0.0000E+00  0.0000E+00  0.0000E+00  0.0000E+00  0.0000E+00  0.0000E+00  0.0000E+00  0.0000E+00  0.0000E+00  0.0000E+00  0.0000E+00  0.0000E+00  0.0000E+00  0.0000E+00
     -3.320  0.0000E+00  0.0000E+00  0.0000E+00  0.0000E+00  0.0000E+00  0.0000E+00  0.0000E+00  0.0000E+00  0.0000E+00  0.0000E+00  0.0000E+00  0.0000E+00  0.0000E+00  0.0000E+00  0.0000E+00  0.0000E+00  0.0000E+00  0.0000E+00
     -3.241  0.0000E+00  0.0000E+00  0.0000E+00  0.0000E+00  0.0000E+00  0.0000E+00  0.0000E+00  0.0000E+00  0.0000E+00  0.0000E+00  0.0000E+00  0.0000E+00  0.0000E+00  0.0000E+00  0.0000E+00  0.0000E+00  0.0000E+00  0.0000E+00
     -3.163  0.0000E+00  0.0000E+00  0.0000E+00  0.0000E+00  0.0000E+00  0.0000E+00  0.0000E+00  0.0000E+00  0.0000E+00  0.0000E+00  0.0000E+00  0.0000E+00  0.0000E+00  0.0000E+00  0.0000E+00  0.0000E+00  0.0000E+00  0.0000E+00
     -3.085  0.0000E+00  0.0000E+00  0.0000E+00  0.0000E+00  0.0000E+00  0.0000E+00  0.0000E+00  0.0000E+00  0.0000E+00  0.0000E+00  0.0000E+00  0.0000E+00  0.0000E+00  0.0000E+00  0.0000E+00  0.0000E+00  0.0000E+00  0.0000E+00
     -3.007  0.3087E-07  0.2817E-07  0.8342E-21  0.1345E-19  0.1003E-19  0.2452E-19  0.8342E-21  0.1345E-19  0.0000E+00  0.0000E+00  0.0000E+00  0.0000E+00  0.0000E+00  0.0000E+00  0.0000E+00  0.0000E+00  0.0000E+00  0.0000E+00
     -2.928  0.5331E-06  0.4865E-06  0.2162E-08  0.1973E-08  0.3523E-08  0.3213E-08  0.2162E-08  0.1973E-08  0.0000E+00  0.0000E+00  0.0000E+00  0.0000E+00  0.0000E+00  0.0000E+00  0.0000E+00  0.0000E+00  0.0000E+00  0.0000E+00
     -2.850  0.2572E-05  0.2348E-05  0.1441E-07  0.1315E-07  0.1612E-07  0.1470E-07  0.1441E-07  0.1315E-07  0.0000E+00  0.0000E+00  0.0000E+00  0.0000E+00  0.0000E+00  0.0000E+00  0.0000E+00  0.0000E+00  0.0000E+00  0.0000E+00
     -2.772  0.1217E-04  0.1112E-04  0.6683E-07  0.6099E-07  0.9106E-07  0.8306E-07  0.6683E-07  0.6099E-07  0.0000E+00  0.0000E+00  0.0000E+00  0.0000E+00  0.0000E+00  0.0000E+00  0.0000E+00  0.0000E+00  0.0000E+00  0.0000E+00
     -2.694  0.5741E-04  0.5233E-04  0.3466E-06  0.3087E-06  0.4364E-06  0.3951E-06  0.3466E-06  0.3087E-06  0.0000E+00  0.0000E+00  0.0000E+00  0.0000E+00  0.0000E+00  0.0000E+00  0.0000E+00  0.0000E+00  0.0000E+00  0.0000E+00
     -2.615  0.2441E-03  0.2255E-03  0.1547E-05  0.1427E-05  0.1955E-05  0.1796E-05  0.1547E-05  0.1427E-05  0.0000E+00  0.0000E+00  0.0000E+00  0.0000E+00  0.0000E+00  0.0000E+00  0.0000E+00  0.0000E+00  0.0000E+00  0.0000E+00
     -2.537  0.8170E-03  0.7694E-03  0.6174E-05  0.5735E-05  0.7734E-05  0.7185E-05  0.6174E-05  0.5735E-05  0.0000E+00  0.0000E+00  0.0000E+00  0.0000E+00  0.0000E+00  0.0000E+00  0.0000E+00  0.0000E+00  0.0000E+00  0.0000E+00
     -2.459  0.1794E-02  0.1736E-02  0.1786E-04  0.1696E-04  0.2257E-04  0.2138E-04  0.1786E-04  0.1696E-04  0.0000E+00  0.0000E+00  0.0000E+00  0.0000E+00  0.0000E+00  0.0000E+00  0.0000E+00  0.0000E+00  0.0000E+00  0.0000E+00
     -2.381  0.2608E-02  0.2570E-02  0.3692E-04  0.3554E-04  0.4931E-04  0.4733E-04  0.3692E-04  0.3554E-04  0.0000E+00  0.0000E+00  0.0000E+00  0.0000E+00  0.0000E+00  0.0000E+00  0.0000E+00  0.0000E+00  0.0000E+00  0.0000E+00
     -2.302  0.3416E-02  0.3359E-02  0.7048E-04  0.6792E-04  0.8998E-04  0.8732E-04  0.7048E-04  0.6792E-04  0.0000E+00  0.0000E+00  0.0000E+00  0.0000E+00  0.0000E+00  0.0000E+00  0.0000E+00  0.0000E+00  0.0000E+00  0.0000E+00
     -2.224  0.4179E-02  0.4163E-02  0.1113E-03  0.1095E-03  0.1288E-03  0.1268E-03  0.1113E-03  0.1095E-03  0.0000E+00  0.0000E+00  0.0000E+00  0.0000E+00  0.0000E+00  0.0000E+00  0.0000E+00  0.0000E+00  0.0000E+00  0.0000E+00
     -2.146  0.4047E-02  0.4055E-02  0.1293E-03  0.1281E-03  0.1732E-03  0.1690E-03  0.1293E-03  0.1281E-03  0.0000E+00  0.0000E+00  0.0000E+00  0.0000E+00  0.0000E+00  0.0000E+00  0.0000E+00  0.0000E+00  0.0000E+00  0.0000E+00
     -2.068  0.4569E-02  0.4512E-02  0.1775E-03  0.1731E-03  0.2686E-03  0.2628E-03  0.1775E-03  0.1731E-03  0.0000E+00  0.0000E+00  0.0000E+00  0.0000E+00  0.0000E+00  0.0000E+00  0.0000E+00  0.0000E+00  0.0000E+00  0.0000E+00
     -1.989  0.5263E-02  0.5247E-02  0.2540E-03  0.2497E-03  0.3164E-03  0.3161E-03  0.2540E-03  0.2497E-03  0.0000E+00  0.0000E+00  0.0000E+00  0.0000E+00  0.0000E+00  0.0000E+00  0.0000E+00  0.0000E+00  0.0000E+00  0.0000E+00
     -1.911  0.5313E-02  0.5309E-02  0.3101E-03  0.3074E-03  0.3352E-03  0.3313E-03  0.3101E-03  0.3074E-03  0.0000E+00  0.0000E+00  0.0000E+00  0.0000E+00  0.0000E+00  0.0000E+00  0.0000E+00  0.0000E+00  0.0000E+00  0.0000E+00
     -1.833  0.5538E-02  0.5515E-02  0.3513E-03  0.3484E-03  0.4591E-03  0.4504E-03  0.3513E-03  0.3484E-03  0.0000E+00  0.0000E+00  0.0000E+00  0.0000E+00  0.0000E+00  0.0000E+00  0.0000E+00  0.0000E+00  0.0000E+00  0.0000E+00
     -1.755  0.5742E-02  0.5747E-02  0.3970E-03  0.3953E-03  0.5698E-03  0.5657E-03  0.3970E-03  0.3953E-03  0.0000E+00  0.0000E+00  0.0000E+00  0.0000E+00  0.0000E+00  0.0000E+00  0.0000E+00  0.0000E+00  0.0000E+00  0.0000E+00
     -1.676  0.5267E-02  0.5290E-02  0.4001E-03  0.3990E-03  0.6240E-03  0.6207E-03  0.4001E-03  0.3990E-03  0.0000E+00  0.0000E+00  0.0000E+00  0.0000E+00  0.0000E+00  0.0000E+00  0.0000E+00  0.0000E+00  0.0000E+00  0.0000E+00
     -1.598  0.5658E-02  0.5588E-02  0.5147E-03  0.5029E-03  0.7129E-03  0.7054E-03  0.5147E-03  0.5029E-03  0.0000E+00  0.0000E+00  0.0000E+00  0.0000E+00  0.0000E+00  0.0000E+00  0.0000E+00  0.0000E+00  0.0000E+00  0.0000E+00
     -1.520  0.6730E-02  0.6698E-02  0.6987E-03  0.6919E-03  0.8510E-03  0.8450E-03  0.6987E-03  0.6919E-03  0.0000E+00  0.0000E+00  0.0000E+00  0.0000E+00  0.0000E+00  0.0000E+00  0.0000E+00  0.0000E+00  0.0000E+00  0.0000E+00
     -1.442  0.6417E-02  0.6454E-02  0.7337E-03  0.7333E-03  0.8563E-03  0.8590E-03  0.7337E-03  0.7333E-03  0.0000E+00  0.0000E+00  0.0000E+00  0.0000E+00  0.0000E+00  0.0000E+00  0.0000E+00  0.0000E+00  0.0000E+00  0.0000E+00
     -1.363  0.6218E-02  0.6196E-02  0.7854E-03  0.7806E-03  0.9444E-03  0.9300E-03  0.7854E-03  0.7806E-03  0.0000E+00  0.0000E+00  0.0000E+00  0.0000E+00  0.0000E+00  0.0000E+00  0.0000E+00  0.0000E+00  0.0000E+00  0.0000E+00
     -1.285  0.6222E-02  0.6250E-02  0.7847E-03  0.7898E-03  0.1248E-02  0.1233E-02  0.7847E-03  0.7898E-03  0.0000E+00  0.0000E+00  0.0000E+00  0.0000E+00  0.0000E+00  0.0000E+00  0.0000E+00  0.0000E+00  0.0000E+00  0.0000E+00
     -1.207  0.5603E-02  0.5615E-02  0.7303E-03  0.7277E-03  0.1393E-02  0.1388E-02  0.7303E-03  0.7277E-03  0.0000E+00  0.0000E+00  0.0000E+00  0.0000E+00  0.0000E+00  0.0000E+00  0.0000E+00  0.0000E+00  0.0000E+00  0.0000E+00
     -1.129  0.5879E-02  0.5838E-02  0.8966E-03  0.8818E-03  0.1479E-02  0.1474E-02  0.8966E-03  0.8818E-03  0.0000E+00  0.0000E+00  0.0000E+00  0.0000E+00  0.0000E+00  0.0000E+00  0.0000E+00  0.0000E+00  0.0000E+00  0.0000E+00
     -1.050  0.6610E-02  0.6570E-02  0.1191E-02  0.1174E-02  0.1509E-02  0.1511E-02  0.1191E-02  0.1174E-02  0.0000E+00  0.0000E+00  0.0000E+00  0.0000E+00  0.0000E+00  0.0000E+00  0.0000E+00  0.0000E+00  0.0000E+00  0.0000E+00
     -0.972  0.6650E-02  0.6672E-02  0.1347E-02  0.1346E-02  0.1522E-02  0.1513E-02  0.1347E-02  0.1346E-02  0.0000E+00  0.0000E+00  0.0000E+00  0.0000E+00  0.0000E+00  0.0000E+00  0.0000E+00  0.0000E+00  0.0000E+00  0.0000E+00
     -0.894  0.6383E-02  0.6374E-02  0.1375E-02  0.1371E-02  0.1942E-02  0.1907E-02  0.1375E-02  0.1371E-02  0.0000E+00  0.0000E+00  0.0000E+00  0.0000E+00  0.0000E+00  0.0000E+00  0.0000E+00  0.0000E+00  0.0000E+00  0.0000E+00
     -0.816  0.6401E-02  0.6421E-02  0.1423E-02  0.1426E-02  0.2456E-02  0.2438E-02  0.1423E-02  0.1426E-02  0.0000E+00  0.0000E+00  0.0000E+00  0.0000E+00  0.0000E+00  0.0000E+00  0.0000E+00  0.0000E+00  0.0000E+00  0.0000E+00
     -0.737  0.5588E-02  0.5630E-02  0.1286E-02  0.1291E-02  0.2616E-02  0.2608E-02  0.1286E-02  0.1291E-02  0.0000E+00  0.0000E+00  0.0000E+00  0.0000E+00  0.0000E+00  0.0000E+00  0.0000E+00  0.0000E+00  0.0000E+00  0.0000E+00
     -0.659  0.5610E-02  0.5576E-02  0.1431E-02  0.1414E-02  0.2962E-02  0.2940E-02  0.1431E-02  0.1414E-02  0.0000E+00  0.0000E+00  0.0000E+00  0.0000E+00  0.0000E+00  0.0000E+00  0.0000E+00  0.0000E+00  0.0000E+00  0.0000E+00
     -0.581  0.5685E-02  0.5721E-02  0.1591E-02  0.1592E-02  0.2919E-02  0.2951E-02  0.1591E-02  0.1592E-02  0.0000E+00  0.0000E+00  0.0000E+00  0.0000E+00  0.0000E+00  0.0000E+00  0.0000E+00  0.0000E+00  0.0000E+00  0.0000E+00
     -0.503  0.4921E-02  0.4937E-02  0.1619E-02  0.1607E-02  0.2403E-02  0.2408E-02  0.1619E-02  0.1607E-02  0.0000E+00  0.0000E+00  0.0000E+00  0.0000E+00  0.0000E+00  0.0000E+00  0.0000E+00  0.0000E+00  0.0000E+00  0.0000E+00
     -0.424  0.5307E-02  0.5259E-02  0.2032E-02  0.2002E-02  0.2989E-02  0.2936E-02  0.2032E-02  0.2002E-02  0.0000E+00  0.0000E+00  0.0000E+00  0.0000E+00  0.0000E+00  0.0000E+00  0.0000E+00  0.0000E+00  0.0000E+00  0.0000E+00
     -0.346  0.5788E-02  0.5784E-02  0.2393E-02  0.2383E-02  0.3569E-02  0.3565E-02  0.2393E-02  0.2383E-02  0.0000E+00  0.0000E+00  0.0000E+00  0.0000E+00  0.0000E+00  0.0000E+00  0.0000E+00  0.0000E+00  0.0000E+00  0.0000E+00
     -0.268  0.5301E-02  0.5340E-02  0.2392E-02  0.2395E-02  0.3156E-02  0.3191E-02  0.2392E-02  0.2395E-02  0.0000E+00  0.0000E+00  0.0000E+00  0.0000E+00  0.0000E+00  0.0000E+00  0.0000E+00  0.0000E+00  0.0000E+00  0.0000E+00
     -0.190  0.4834E-02  0.4842E-02  0.2444E-02  0.2433E-02  0.2933E-02  0.2925E-02  0.2444E-02  0.2433E-02  0.0000E+00  0.0000E+00  0.0000E+00  0.0000E+00  0.0000E+00  0.0000E+00  0.0000E+00  0.0000E+00  0.0000E+00  0.0000E+00
     -0.111  0.4615E-02  0.4642E-02  0.2646E-02  0.2640E-02  0.3050E-02  0.3059E-02  0.2646E-02  0.2640E-02  0.0000E+00  0.0000E+00  0.0000E+00  0.0000E+00  0.0000E+00  0.0000E+00  0.0000E+00  0.0000E+00  0.0000E+00  0.0000E+00
     -0.033  0.3748E-02  0.3800E-02  0.2504E-02  0.2515E-02  0.2767E-02  0.2775E-02  0.2504E-02  0.2515E-02  0.0000E+00  0.0000E+00  0.0000E+00  0.0000E+00  0.0000E+00  0.0000E+00  0.0000E+00  0.0000E+00  0.0000E+00  0.0000E+00
      0.045  0.3578E-02  0.3549E-02  0.2779E-02  0.2734E-02  0.3256E-02  0.3200E-02  0.2779E-02  0.2734E-02  0.0000E+00  0.0000E+00  0.0000E+00  0.0000E+00  0.0000E+00  0.0000E+00  0.0000E+00  0.0000E+00  0.0000E+00  0.0000E+00
      0.123  0.3957E-02  0.3963E-02  0.3528E-02  0.3500E-02  0.3930E-02  0.3927E-02  0.3528E-02  0.3500E-02  0.0000E+00  0.0000E+00  0.0000E+00  0.0000E+00  0.0000E+00  0.0000E+00  0.0000E+00  0.0000E+00  0.0000E+00  0.0000E+00
      0.202  0.3456E-02  0.3487E-02  0.3765E-02  0.3752E-02  0.3482E-02  0.3513E-02  0.3765E-02  0.3752E-02  0.0000E+00  0.0000E+00  0.0000E+00  0.0000E+00  0.0000E+00  0.0000E+00  0.0000E+00  0.0000E+00  0.0000E+00  0.0000E+00
      0.280  0.2934E-02  0.2970E-02  0.3770E-02  0.3793E-02  0.3158E-02  0.3176E-02  0.3770E-02  0.3793E-02  0.0000E+00  0.0000E+00  0.0000E+00  0.0000E+00  0.0000E+00  0.0000E+00  0.0000E+00  0.0000E+00  0.0000E+00  0.0000E+00