  16  16   1   0
  0.1627567E+02  0.3934554E-09  0.3934554E-09  0.1682163E-08  0.5000000E-15
  1.000000000000000E-004
  CAR 
 unknown system                          
     11.14872532     -4.08077404  301      6.87372415      1.00000000
     -4.081  0.0000E+00  0.0000E+00  0.0000E+00  0.0000E+00
     -4.030  0.0000E+00  0.0000E+00  0.0000E+00  0.0000E+00
     -3.979  0.0000E+00  0.0000E+00  0.0000E+00  0.0000E+00
     -3.928  0.0000E+00  0.0000E+00  0.0000E+00  0.0000E+00
     -3.878  0.0000E+00  0.0000E+00  0.0000E+00  0.0000E+00
     -3.827  0.6043E-05  0.6027E-05  0.3068E-06  0.3060E-06
     -3.776  0.4219E-04  0.4208E-04  0.2449E-05  0.2442E-05
     -3.725  0.8485E-04  0.8463E-04  0.6756E-05  0.6739E-05
     -3.675  0.3859E-03  0.3849E-03  0.2635E-04  0.2628E-04
     -3.624  0.9988E-03  0.9962E-03  0.7705E-04  0.7685E-04
     -3.573  0.2705E-02  0.2698E-02  0.2144E-03  0.2138E-03
     -3.522  0.7453E-02  0.7435E-02  0.5927E-03  0.5913E-03
     -3.472  0.1943E-01  0.1939E-01  0.1579E-02  0.1575E-02
     -3.421  0.4690E-01  0.4680E-01  0.3960E-02  0.3951E-02
     -3.370  0.9968E-01  0.9951E-01  0.9020E-02  0.9003E-02
     -3.319  0.1765E+00  0.1763E+00  0.1798E-01  0.1795E-01
     -3.269  0.2550E+00  0.2548E+00  0.3092E-01  0.3088E-01
     -3.218  0.3148E+00  0.3147E+00  0.4690E-01  0.4686E-01
     -3.167  0.3754E+00  0.3752E+00  0.6596E-01  0.6591E-01
     -3.116  0.4652E+00  0.4649E+00  0.8958E-01  0.8951E-01
     -3.065  0.5420E+00  0.5419E+00  0.1171E+00  0.1170E+00
     -3.015  0.5434E+00  0.5435E+00  0.1447E+00  0.1446E+00
     -2.964  0.5226E+00  0.5226E+00  0.1712E+00  0.1711E+00
     -2.913  0.5786E+00  0.5784E+00  0.2006E+00  0.2005E+00
     -2.862  0.6736E+00  0.6734E+00  0.2348E+00  0.2347E+00
     -2.812  0.7130E+00  0.7130E+00  0.2710E+00  0.2709E+00
     -2.761  0.7107E+00  0.7107E+00  0.3071E+00  0.3070E+00
     -2.710  0.7229E+00  0.7228E+00  0.3438E+00  0.3437E+00
     -2.659  0.7551E+00  0.7550E+00  0.3821E+00  0.3820E+00
     -2.609  0.7740E+00  0.7740E+00  0.4215E+00  0.4214E+00
     -2.558  0.7501E+00  0.7501E+00  0.4595E+00  0.4594E+00
     -2.507  0.7416E+00  0.7414E+00  0.4972E+00  0.4971E+00
     -2.456  0.8387E+00  0.8383E+00  0.5398E+00  0.5397E+00
     -2.406  0.9757E+00  0.9755E+00  0.5894E+00  0.5892E+00
     -2.355  0.1022E+01  0.1022E+01  0.6413E+00  0.6411E+00
     -2.304  0.1008E+01  0.1008E+01  0.6925E+00  0.6923E+00
     -2.253  0.1051E+01  0.1050E+01  0.7458E+00  0.7457E+00
     -2.202  0.1105E+01  0.1105E+01  0.8019E+00  0.8018E+00
     -2.152  0.1023E+01  0.1024E+01  0.8539E+00  0.8538E+00
     -2.101  0.8776E+00  0.8779E+00  0.8985E+00  0.8984E+00
     -2.050  0.8879E+00  0.8876E+00  0.9436E+00  0.9434E+00
     -1.999  0.1060E+01  0.1059E+01  0.9974E+00  0.9973E+00
     -1.949  0.1252E+01  0.1252E+01  0.1061E+01  0.1061E+01
     -1.898  0.1355E+01  0.1354E+01  0.1130E+01  0.1130E+01
     -1.847  0.1338E+01  0.1338E+01  0.1198E+01  0.1198E+01
     -1.796  0.1336E+01  0.1336E+01  0.1266E+01  0.1265E+01
     -1.746  0.1394E+01  0.1394E+01  0.1336E+01  0.1336E+01
     -1.695  0.1341E+01  0.1341E+01  0.1405E+01  0.1404E+01
     -1.644  0.1223E+01  0.1223E+01  0.1467E+01  0.1466E+01
     -1.593  0.1257E+01  0.1257E+01  0.1530E+01  0.1530E+01
     -1.543  0.1389E+01  0.1389E+01  0.1601E+01  0.1601E+01
     -1.492  0.1466E+01  0.1466E+01  0.1676E+01  0.1675E+01
     -1.441  0.1504E+01  0.1504E+01  0.1752E+01  0.1752E+01
     -1.390  0.1544E+01  0.1544E+01  0.1830E+01  0.1830E+01
     -1.339  0.1551E+01  0.1551E+01  0.1909E+01  0.1909E+01
     -1.289  0.1496E+01  0.1496E+01  0.1985E+01  0.1985E+01
     -1.238  0.1459E+01  0.1459E+01  0.2059E+01  0.2059E+01
     -1.187  0.1547E+01  0.1546E+01  0.2138E+01  0.2137E+01
     -1.136  0.1695E+01  0.1695E+01  0.2224E+01  0.2224E+01
     -1.086  0.1733E+01  0.1733E+01  0.2312E+01  0.2312E+01
     -1.035  0.1594E+01  0.1594E+01  0.2393E+01  0.2393E+01
     -0.984  0.1425E+01  0.1425E+01  0.2465E+01  0.2465E+01
     -0.933  0.1329E+01  0.1329E+01  0.2533E+01  0.2532E+01
     -0.883  0.1216E+01  0.1216E+01  0.2594E+01  0.2594E+01
     -0.832  0.1122E+01  0.1122E+01  0.2651E+01  0.2651E+01
     -0.781  0.1160E+01  0.1160E+01  0.2710E+01  0.2710E+01
     -0.730  0.1328E+01  0.1327E+01  0.2778E+01  0.2778E+01
     -0.680  0.1519E+01  0.1519E+01  0.2855E+01  0.2855E+01
     -0.629  0.1575E+01  0.1575E+01  0.2935E+01  0.2935E+01
     -0.578  0.1490E+01  0.1491E+01  0.3011E+01  0.3010E+01
     -0.527  0.1435E+01  0.1435E+01  0.3084E+01  0.3083E+01
     -0.476  0.1449E+01  0.1449E+01  0.3157E+01  0.3157E+01
     -0.426  0.1439E+01  0.1439E+01  0.3230E+01  0.3230E+01
     -0.375  0.1440E+01  0.1440E+01  0.3303E+01  0.3303E+01
     -0.324  0.1546E+01  0.1546E+01  0.3382E+01  0.3382E+01
     -0.273  0.1730E+01  0.1730E+01  0.3470E+01  0.3469E+01
     -0.223  0.1826E+01  0.1826E+01  0.3562E+01  0.3562E+01
     -0.172  0.1755E+01  0.1755E+01  0.3652E+01  0.3651E+01
     -0.121  0.1635E+01  0.1636E+01  0.3735E+01  0.3734E+01
     -0.070  0.1584E+01  0.1584E+01  0.3815E+01  0.3815E+01
     -0.020  0.1604E+01  0.1604E+01  0.3897E+01  0.3896E+01
      0.031  0.1649E+01  0.1649E+01  0.3980E+01  0.3980E+01
      0.082  0.1684E+01  0.1684E+01  0.4066E+01  0.4066E+01
      0.133  0.1706E+01  0.1706E+01  0.4153E+01  0.4152E+01
      0.183  0.1768E+01  0.1768E+01  0.4242E+01  0.4242E+01
      0.234  0.1925E+01  0.1925E+01  0.4340E+01  0.4340E+01
      0.285  0.2063E+01  0.2063E+01  0.4445E+01  0.4445E+01
      0.336  0.2090E+01  0.2090E+01  0.4551E+01  0.4551E+01
      0.387  0.2087E+01  0.2087E+01  0.4657E+01  0.4657E+01
      0.437  0.2155E+01  0.2155E+01  0.4767E+01  0.4766E+01
      0.488  0.2232E+01  0.2232E+01  0.4880E+01  0.4880E+01
      0.539  0.2247E+01  0.2247E+01  0.4994E+01  0.4994E+01
      0.590  0.2218E+01  0.2219E+01  0.5107E+01  0.5106E+01
      0.640  0.2086E+01  0.2087E+01  0.5213E+01  0.5212E+01
      0.691  0.1953E+01  0.1953E+01  0.5312E+01  0.5312E+01
      0.742  0.1976E+01  0.1976E+01  0.5412E+01  0.5412E+01
      0.793  0.2011E+01  0.2011E+01  0.5514E+01  0.5514E+01
      0.843  0.1903E+01  0.1903E+01  0.5611E+01  0.5611E+01
      0.894  0.1804E+01  0.1804E+01  0.5703E+01  0.5703E+01
      0.945  0.1882E+01  0.1882E+01  0.5798E+01  0.5798E+01
      0.996  0.1987E+01  0.1987E+01  0.5899E+01  0.5899E+01
      1.046  0.1984E+01  0.1985E+01  0.6000E+01  0.6000E+01
      1.097  0.1954E+01  0.1954E+01  0.6099E+01  0.6099E+01
      1.148  0.1862E+01  0.1862E+01  0.6194E+01  0.6194E+01
      1.199  0.1711E+01  0.1711E+01  0.6281E+01  0.6281E+01
      1.250  0.1665E+01  0.1665E+01  0.6366E+01  0.6365E+01
      1.300  0.1868E+01  0.1867E+01  0.6460E+01  0.6460E+01
      1.351  0.2260E+01  0.2259E+01  0.6575E+01  0.6575E+01
      1.402  0.2594E+01  0.2594E+01  0.6707E+01  0.6707E+01
      1.453  0.2720E+01  0.2720E+01  0.6845E+01  0.6845E+01
      1.503  0.2644E+01  0.2644E+01  0.6979E+01  0.6979E+01
      1.554  0.2384E+01  0.2384E+01  0.7100E+01  0.7100E+01
      1.605  0.2020E+01  0.2021E+01  0.7203E+01  0.7203E+01
      1.656  0.1789E+01  0.1789E+01  0.7294E+01  0.7294E+01
      1.706  0.1749E+01  0.1749E+01  0.7383E+01  0.7382E+01
      1.757  0.1863E+01  0.1863E+01  0.7477E+01  0.7477E+01
      1.808  0.2072E+01  0.2072E+01  0.7583E+01  0.7582E+01
      1.859  0.2216E+01  0.2215E+01  0.7695E+01  0.7695E+01
      1.909  0.2307E+01  0.2307E+01  0.7812E+01  0.7812E+01
      1.960  0.2438E+01  0.2438E+01  0.7936E+01  0.7936E+01
      2.011  0.2578E+01  0.2578E+01  0.8067E+01  0.8067E+01
      2.062  0.2630E+01  0.2630E+01  0.8201E+01  0.8200E+01
      2.113  0.2593E+01  0.2593E+01  0.8332E+01  0.8332E+01
      2.163  0.2611E+01  0.2610E+01  0.8465E+01  0.8465E+01
      2.214  0.2840E+01  0.2840E+01  0.8609E+01  0.8609E+01
      2.265  0.3161E+01  0.3160E+01  0.8770E+01  0.8769E+01
      2.316  0.3232E+01  0.3233E+01  0.8934E+01  0.8934E+01
      2.366  0.3057E+01  0.3058E+01  0.9089E+01  0.9089E+01
      2.417  0.2867E+01  0.2867E+01  0.9235E+01  0.9235E+01
      2.468  0.2685E+01  0.2685E+01  0.9371E+01  0.9371E+01
      2.519  0.2428E+01  0.2428E+01  0.9494E+01  0.9494E+01
      2.569  0.2166E+01  0.2167E+01  0.9604E+01  0.9604E+01
      2.620  0.2049E+01  0.2049E+01  0.9709E+01  0.9708E+01
      2.671  0.2073E+01  0.2073E+01  0.9814E+01  0.9814E+01
      2.722  0.2137E+01  0.2137E+01  0.9923E+01  0.9922E+01
      2.773  0.2186E+01  0.2186E+01  0.1003E+02  0.1003E+02
      2.823  0.2194E+01  0.2194E+01  0.1015E+02  0.1014E+02
      2.874  0.2183E+01  0.2183E+01  0.1026E+02  0.1026E+02
      2.925  0.2234E+01  0.2234E+01  0.1037E+02  0.1037E+02
      2.976  0.2412E+01  0.2412E+01  0.1049E+02  0.1049E+02
      3.026  0.2637E+01  0.2637E+01  0.1063E+02  0.1063E+02
      3.077  0.2774E+01  0.2774E+01  0.1077E+02  0.1077E+02
      3.128  0.2831E+01  0.2831E+01  0.1091E+02  0.1091E+02
      3.179  0.2935E+01  0.2934E+01  0.1106E+02  0.1106E+02
      3.229  0.3055E+01  0.3055E+01  0.1121E+02  0.1121E+02
      3.280  0.3003E+01  0.3003E+01  0.1137E+02  0.1137E+02
      3.331  0.2726E+01  0.2726E+01  0.1151E+02  0.1151E+02
      3.382  0.2484E+01  0.2484E+01  0.1163E+02  0.1163E+02
      3.432  0.2557E+01  0.2557E+01  0.1176E+02  0.1176E+02
      3.483  0.2908E+01  0.2907E+01  0.1191E+02  0.1191E+02
      3.534  0.3202E+01  0.3201E+01  0.1207E+02  0.1207E+02
      3.585  0.3326E+01  0.3326E+01  0.1224E+02  0.1224E+02
      3.636  0.3360E+01  0.3360E+01  0.1241E+02  0.1241E+02
      3.686  0.3313E+01  0.3313E+01  0.1258E+02  0.1258E+02
      3.737  0.3287E+01  0.3287E+01  0.1275E+02  0.1275E+02
      3.788  0.3285E+01  0.3285E+01  0.1291E+02  0.1291E+02
      3.839  0.3364E+01  0.3364E+01  0.1308E+02  0.1308E+02
      3.889  0.3672E+01  0.3672E+01  0.1327E+02  0.1327E+02
      3.940  0.4063E+01  0.4063E+01  0.1348E+02  0.1348E+02
      3.991  0.4117E+01  0.4117E+01  0.1369E+02  0.1369E+02
      4.042  0.3740E+01  0.3741E+01  0.1388E+02  0.1388E+02
      4.092  0.3366E+01  0.3366E+01  0.1405E+02  0.1405E+02
      4.143  0.3347E+01  0.3347E+01  0.1422E+02  0.1422E+02
      4.194  0.3684E+01  0.3684E+01  0.1440E+02  0.1440E+02
      4.245  0.4144E+01  0.4144E+01  0.1462E+02  0.1461E+02
      4.295  0.4387E+01  0.4388E+01  0.1484E+02  0.1484E+02
      4.346  0.4349E+01  0.4349E+01  0.1506E+02  0.1506E+02
      4.397  0.4274E+01  0.4275E+01  0.1528E+02  0.1528E+02
      4.448  0.4368E+01  0.4369E+01  0.1550E+02  0.1550E+02
      4.499  0.4446E+01  0.4446E+01  0.1572E+02  0.1572E+02
      4.549  0.4320E+01  0.4320E+01  0.1594E+02  0.1594E+02
      4.600  0.4099E+01  0.4099E+01  0.1615E+02  0.1615E+02
      4.651  0.3861E+01  0.3861E+01  0.1635E+02  0.1635E+02
      4.702  0.3629E+01  0.3630E+01  0.1653E+02  0.1653E+02
      4.752  0.3467E+01  0.3467E+01  0.1671E+02  0.1671E+02
      4.803  0.3414E+01  0.3415E+01  0.1688E+02  0.1688E+02
      4.854  0.3565E+01  0.3566E+01  0.1706E+02  0.1706E+02
      4.905  0.3954E+01  0.3954E+01  0.1726E+02  0.1726E+02
      4.955  0.4247E+01  0.4247E+01  0.1748E+02  0.1748E+02
      5.006  0.4299E+01  0.4300E+01  0.1770E+02  0.1770E+02
      5.057  0.4355E+01  0.4355E+01  0.1792E+02  0.1792E+02
      5.108  0.4536E+01  0.4537E+01  0.1815E+02  0.1815E+02
      5.158  0.4744E+01  0.4744E+01  0.1839E+02  0.1839E+02
      5.209  0.5046E+01  0.5047E+01  0.1865E+02  0.1865E+02
      5.260  0.5452E+01  0.5453E+01  0.1892E+02  0.1892E+02
      5.311  0.5673E+01  0.5673E+01  0.1921E+02  0.1921E+02
      5.362  0.5645E+01  0.5645E+01  0.1950E+02  0.1950E+02
      5.412  0.5685E+01  0.5686E+01  0.1979E+02  0.1979E+02
      5.463  0.6017E+01  0.6018E+01  0.2009E+02  0.2009E+02
      5.514  0.6476E+01  0.6477E+01  0.2042E+02  0.2042E+02
      5.565  0.6729E+01  0.6730E+01  0.2076E+02  0.2076E+02
      5.615  0.6645E+01  0.6646E+01  0.2110E+02  0.2110E+02
      5.666  0.6168E+01  0.6168E+01  0.2141E+02  0.2141E+02
      5.717  0.5446E+01  0.5445E+01  0.2169E+02  0.2169E+02
      5.768  0.4804E+01  0.4804E+01  0.2193E+02  0.2193E+02
      5.818  0.4474E+01  0.4474E+01  0.2216E+02  0.2216E+02
      5.869  0.4451E+01  0.4451E+01  0.2239E+02  0.2239E+02
      5.920  0.4548E+01  0.4549E+01  0.2262E+02  0.2262E+02
      5.971  0.4584E+01  0.4584E+01  0.2285E+02  0.2285E+02
      6.021  0.4578E+01  0.4579E+01  0.2308E+02  0.2308E+02
      6.072  0.4675E+01  0.4675E+01  0.2332E+02  0.2332E+02
      6.123  0.4799E+01  0.4800E+01  0.2357E+02  0.2357E+02
      6.174  0.4749E+01  0.4750E+01  0.2381E+02  0.2381E+02
      6.225  0.4627E+01  0.4628E+01  0.2404E+02  0.2404E+02
      6.275  0.4413E+01  0.4413E+01  0.2427E+02  0.2427E+02
      6.326  0.4051E+01  0.4050E+01  0.2447E+02  0.2447E+02
      6.377  0.3639E+01  0.3638E+01  0.2466E+02  0.2466E+02
      6.428  0.3217E+01  0.3216E+01  0.2482E+02  0.2482E+02
      6.478  0.2780E+01  0.2779E+01  0.2496E+02  0.2496E+02
      6.529  0.2421E+01  0.2421E+01  0.2508E+02  0.2508E+02
      6.580  0.2309E+01  0.2309E+01  0.2520E+02  0.2520E+02
      6.631  0.2424E+01  0.2425E+01  0.2532E+02  0.2533E+02
      6.681  0.2617E+01  0.2618E+01  0.2546E+02  0.2546E+02
      6.732  0.2764E+01  0.2764E+01  0.2560E+02  0.2560E+02
      6.783  0.2798E+01  0.2798E+01  0.2574E+02  0.2574E+02
      6.834  0.2819E+01  0.2819E+01  0.2588E+02  0.2588E+02
      6.884  0.2908E+01  0.2909E+01  0.2603E+02  0.2603E+02
      6.935  0.2954E+01  0.2954E+01  0.2618E+02  0.2618E+02
      6.986  0.2921E+01  0.2920E+01  0.2633E+02  0.2633E+02
      7.037  0.3029E+01  0.3030E+01  0.2648E+02  0.2648E+02
      7.088  0.3376E+01  0.3377E+01  0.2665E+02  0.2666E+02
      7.138  0.3674E+01  0.3675E+01  0.2684E+02  0.2684E+02
      7.189  0.3663E+01  0.3663E+01  0.2703E+02  0.2703E+02
      7.240  0.3554E+01  0.3554E+01  0.2721E+02  0.2721E+02
      7.291  0.3616E+01  0.3616E+01  0.2739E+02  0.2739E+02
      7.341  0.3755E+01  0.3755E+01  0.2758E+02  0.2758E+02
      7.392  0.3759E+01  0.3759E+01  0.2777E+02  0.2777E+02
      7.443  0.3621E+01  0.3620E+01  0.2796E+02  0.2796E+02
      7.494  0.3625E+01  0.3625E+01  0.2814E+02  0.2814E+02
      7.544  0.3900E+01  0.3902E+01  0.2834E+02  0.2834E+02
      7.595  0.4418E+01  0.4420E+01  0.2856E+02  0.2856E+02
      7.646  0.5142E+01  0.5144E+01  0.2883E+02  0.2883E+02
      7.697  0.5882E+01  0.5884E+01  0.2912E+02  0.2912E+02
      7.747  0.6467E+01  0.6470E+01  0.2945E+02  0.2945E+02
      7.798  0.7048E+01  0.7053E+01  0.2981E+02  0.2981E+02
      7.849  0.7762E+01  0.7769E+01  0.3020E+02  0.3021E+02
      7.900  0.8302E+01  0.8314E+01  0.3063E+02  0.3063E+02
      7.951  0.8629E+01  0.8647E+01  0.3106E+02  0.3107E+02
      8.001  0.9120E+01  0.9156E+01  0.3153E+02  0.3153E+02
      8.052  0.9902E+01  0.9987E+01  0.3203E+02  0.3204E+02
      8.103  0.1092E+02  0.1110E+02  0.3258E+02  0.3260E+02
      8.154  0.1205E+02  0.1235E+02  0.3320E+02  0.3323E+02
      8.204  0.1259E+02  0.1291E+02  0.3384E+02  0.3389E+02
      8.255  0.1171E+02  0.1192E+02  0.3443E+02  0.3449E+02
      8.306  0.9753E+01  0.9826E+01  0.3493E+02  0.3499E+02
      8.357  0.7763E+01  0.7765E+01  0.3532E+02  0.3538E+02
      8.407  0.6074E+01  0.6064E+01  0.3563E+02  0.3569E+02
      8.458  0.4777E+01  0.4778E+01  0.3587E+02  0.3594E+02
      8.509  0.4129E+01  0.4145E+01  0.3608E+02  0.3615E+02
      8.560  0.4086E+01  0.4116E+01  0.3629E+02  0.3636E+02
      8.610  0.4152E+01  0.4210E+01  0.3650E+02  0.3657E+02
      8.661  0.3878E+01  0.4002E+01  0.3670E+02  0.3677E+02
      8.712  0.3500E+01  0.3703E+01  0.3688E+02  0.3696E+02
      8.763  0.3446E+01  0.3655E+01  0.3705E+02  0.3715E+02
      8.814  0.3737E+01  0.3860E+01  0.3724E+02  0.3734E+02
      8.864  0.3977E+01  0.4023E+01  0.3744E+02  0.3755E+02
      8.915  0.3901E+01  0.3985E+01  0.3764E+02  0.3775E+02
      8.966  0.3674E+01  0.3902E+01  0.3783E+02  0.3795E+02
      9.017  0.3538E+01  0.3861E+01  0.3801E+02  0.3814E+02
      9.067  0.3573E+01  0.3866E+01  0.3819E+02  0.3834E+02
      9.118  0.3627E+01  0.3829E+01  0.3837E+02  0.3854E+02
      9.169  0.3502E+01  0.3637E+01  0.3855E+02  0.3872E+02
      9.220  0.3213E+01  0.3327E+01  0.3871E+02  0.3889E+02
      9.270  0.2866E+01  0.2988E+01  0.3886E+02  0.3904E+02
      9.321  0.2515E+01  0.2649E+01  0.3899E+02  0.3918E+02
      9.372  0.2248E+01  0.2378E+01  0.3910E+02  0.3930E+02
      9.423  0.2086E+01  0.2176E+01  0.3921E+02  0.3941E+02
      9.473  0.1938E+01  0.1947E+01  0.3931E+02  0.3951E+02
      9.524  0.1741E+01  0.1667E+01  0.3939E+02  0.3959E+02
      9.575  0.1500E+01  0.1355E+01  0.3947E+02  0.3966E+02
      9.626  0.1268E+01  0.1085E+01  0.3954E+02  0.3971E+02
      9.677  0.1125E+01  0.9169E+00  0.3959E+02  0.3976E+02
      9.727  0.1069E+01  0.8664E+00  0.3965E+02  0.3981E+02
      9.778  0.1030E+01  0.8418E+00  0.3970E+02  0.3985E+02
      9.829  0.9803E+00  0.7508E+00  0.3975E+02  0.3989E+02
      9.880  0.9726E+00  0.6409E+00  0.3980E+02  0.3992E+02
      9.930  0.9325E+00  0.5420E+00  0.3985E+02  0.3995E+02
      9.981  0.7528E+00  0.4179E+00  0.3988E+02  0.3997E+02
     10.032  0.5214E+00  0.2680E+00  0.3991E+02  0.3998E+02
     10.083  0.3633E+00  0.1473E+00  0.3993E+02  0.3999E+02
     10.133  0.3079E+00  0.8545E-01  0.3994E+02  0.3999E+02
     10.184  0.2972E+00  0.5884E-01  0.3996E+02  0.4000E+02
     10.235  0.2576E+00  0.3726E-01  0.3997E+02  0.4000E+02
     10.286  0.1830E+00  0.1843E-01  0.3998E+02  0.4000E+02
     10.336  0.1142E+00  0.7449E-02  0.3999E+02  0.4000E+02
     10.387  0.7165E-01  0.2609E-02  0.3999E+02  0.4000E+02
     10.438  0.5528E-01  0.9675E-03  0.3999E+02  0.4000E+02
     10.489  0.4739E-01  0.3535E-03  0.4000E+02  0.4000E+02
     10.540  0.3186E-01  0.1285E-03  0.4000E+02  0.4000E+02
     10.590  0.1568E-01  0.0000E+00  0.4000E+02  0.4000E+02
     10.641  0.6482E-02  0.0000E+00  0.4000E+02  0.4000E+02
     10.692  0.2482E-02  0.0000E+00  0.4000E+02  0.4000E+02
     10.743  0.8840E-03  0.0000E+00  0.4000E+02  0.4000E+02
     10.793  0.3228E-03  0.0000E+00  0.4000E+02  0.4000E+02
     10.844  0.1173E-03  0.0000E+00  0.4000E+02  0.4000E+02
     10.895  0.0000E+00  0.0000E+00  0.4000E+02  0.4000E+02
     10.946  0.0000E+00  0.0000E+00  0.4000E+02  0.4000E+02
     10.996  0.0000E+00  0.0000E+00  0.4000E+02  0.4000E+02
     11.047  0.0000E+00  0.0000E+00  0.4000E+02  0.4000E+02
     11.098  0.0000E+00  0.0000E+00  0.4000E+02  0.4000E+02
     11.149  0.0000E+00  0.0000E+00  0.4000E+02  0.4000E+02
     11.14872532     -4.08077404  301      6.87372415      1.00000000
     -4.081  0.0000E+00  0.0000E+00  0.0000E+00  0.0000E+00  0.0000E+00  0.0000E+00  0.0000E+00  0.0000E+00  0.0000E+00  0.0000E+00  0.0000E+00  0.0000E+00  0.0000E+00  0.0000E+00  0.0000E+00  0.0000E+00  0.0000E+00  0.0000E+00
     -4.030  0.0000E+00  0.0000E+00  0.0000E+00  0.0000E+00  0.0000E+00  0.0000E+00  0.0000E+00  0.0000E+00  0.0000E+00  0.0000E+00  0.0000E+00  0.0000E+00  0.0000E+00  0.0000E+00  0.0000E+00  0.0000E+00  0.0000E+00  0.0000E+00
     -3.979  0.0000E+00  0.0000E+00  0.0000E+00  0.0000E+00  0.0000E+00  0.0000E+00  0.0000E+00  0.0000E+00  0.0000E+00  0.0000E+00  0.0000E+00  0.0000E+00  0.0000E+00  0.0000E+00  0.0000E+00  0.0000E+00  0.0000E+00  0.0000E+00
     -3.928  0.0000E+00  0.0000E+00  0.0000E+00  0.0000E+00  0.0000E+00  0.0000E+00  0.0000E+00  0.0000E+00  0.0000E+00  0.0000E+00  0.0000E+00  0.0000E+00  0.0000E+00  0.0000E+00  0.0000E+00  0.0000E+00  0.0000E+00  0.0000E+00
     -3.878  0.0000E+00  0.0000E+00  0.0000E+00  0.0000E+00  0.0000E+00  0.0000E+00  0.0000E+00  0.0000E+00  0.0000E+00  0.0000E+00  0.0000E+00  0.0000E+00  0.0000E+00  0.0000E+00  0.0000E+00  0.0000E+00  0.0000E+00  0.0000E+00
     -3.827  0.1796E-06  0.1792E-06  0.1047E-22  0.4863E-23  0.8526E-09  0.8509E-09  0.1047E-22  0.4863E-23  0.6260E-25  0.4211E-24  0.4004E-23  0.7896E-23  0.1182E-10  0.1179E-10  0.4004E-23  0.7896E-23  0.1118E-21  0.3748E-20
     -3.776  0.1241E-05  0.1238E-05  0.2758E-08  0.2751E-08  0.9259E-08  0.9239E-08  0.2758E-08  0.2751E-08  0.8488E-21  0.1402E-21  0.3248E-10  0.3240E-10  0.9829E-10  0.9798E-10  0.3248E-10  0.3240E-10  0.1318E-10  0.1315E-10
     -3.725  0.2499E-05  0.2493E-05  0.4852E-08  0.4840E-08  0.1779E-07  0.1775E-07  0.4852E-08  0.4840E-08  0.1494E-20  0.2474E-21  0.5715E-10  0.5701E-10  0.1937E-09  0.1931E-09  0.5715E-10  0.5701E-10  0.2319E-10  0.2314E-10
     -3.675  0.1128E-04  0.1125E-04  0.3980E-07  0.3970E-07  0.1021E-06  0.1019E-06  0.3980E-07  0.3970E-07  0.2580E-09  0.2574E-09  0.7543E-09  0.7525E-09  0.9101E-09  0.9073E-09  0.7543E-09  0.7525E-09  0.1270E-09  0.1267E-09
     -3.624  0.2918E-04  0.2911E-04  0.1063E-06  0.1060E-06  0.2683E-06  0.2677E-06  0.1063E-06  0.1060E-06  0.9076E-09  0.9052E-09  0.2254E-08  0.2249E-08  0.2309E-08  0.2302E-08  0.2254E-08  0.2249E-08  0.2870E-09  0.2864E-09
     -3.573  0.7903E-04  0.7884E-04  0.2896E-06  0.2889E-06  0.7316E-06  0.7300E-06  0.2896E-06  0.2889E-06  0.2048E-08  0.2043E-08  0.5686E-08  0.5673E-08  0.6709E-08  0.6689E-08  0.5686E-08  0.5673E-08  0.1169E-08  0.1166E-08
     -3.522  0.2174E-03  0.2169E-03  0.8604E-06  0.8583E-06  0.2097E-05  0.2093E-05  0.8604E-06  0.8583E-06  0.7040E-08  0.7022E-08  0.1808E-07  0.1803E-07  0.1929E-07  0.1923E-07  0.1808E-07  0.1803E-07  0.3900E-08  0.3891E-08
     -3.472  0.5665E-03  0.5652E-03  0.2325E-05  0.2320E-05  0.5566E-05  0.5555E-05  0.2325E-05  0.2320E-05  0.2068E-07  0.2063E-07  0.5071E-07  0.5059E-07  0.5024E-07  0.5010E-07  0.5071E-07  0.5059E-07  0.1012E-07  0.1010E-07
     -3.421  0.1366E-02  0.1363E-02  0.5954E-05  0.5940E-05  0.1385E-04  0.1382E-04  0.5954E-05  0.5940E-05  0.5288E-07  0.5275E-07  0.1297E-06  0.1294E-06  0.1230E-06  0.1226E-06  0.1297E-06  0.1294E-06  0.2580E-07  0.2575E-07
     -3.370  0.2894E-02  0.2890E-02  0.1432E-04  0.1429E-04  0.3151E-04  0.3146E-04  0.1432E-04  0.1429E-04  0.1387E-06  0.1384E-06  0.3253E-06  0.3246E-06  0.2721E-06  0.2715E-06  0.3253E-06  0.3246E-06  0.6342E-07  0.6329E-07
     -3.319  0.5101E-02  0.5096E-02  0.3000E-04  0.2995E-04  0.6166E-04  0.6159E-04  0.3000E-04  0.2995E-04  0.3327E-06  0.3320E-06  0.7313E-06  0.7300E-06  0.5181E-06  0.5172E-06  0.7313E-06  0.7300E-06  0.1419E-06  0.1417E-06
     -3.269  0.7323E-02  0.7318E-02  0.5310E-04  0.5304E-04  0.1017E-03  0.1016E-03  0.5310E-04  0.5304E-04  0.6828E-06  0.6817E-06  0.1407E-05  0.1406E-05  0.8579E-06  0.8566E-06  0.1407E-05  0.1406E-05  0.2952E-06  0.2947E-06
     -3.218  0.8955E-02  0.8952E-02  0.8348E-04  0.8339E-04  0.1491E-03  0.1490E-03  0.8348E-04  0.8339E-04  0.1238E-05  0.1236E-05  0.2418E-05  0.2415E-05  0.1357E-05  0.1356E-05  0.2418E-05  0.2415E-05  0.6177E-06  0.6167E-06
     -3.167  0.1054E-01  0.1054E-01  0.1273E-03  0.1271E-03  0.2147E-03  0.2146E-03  0.1273E-03  0.1271E-03  0.2159E-05  0.2156E-05  0.4037E-05  0.4032E-05  0.2177E-05  0.2174E-05  0.4037E-05  0.4032E-05  0.1207E-05  0.1205E-05
     -3.116  0.1291E-01  0.1290E-01  0.1898E-03  0.1896E-03  0.3083E-03  0.3081E-03  0.1898E-03  0.1896E-03  0.3769E-05  0.3764E-05  0.6690E-05  0.6684E-05  0.3290E-05  0.3286E-05  0.6690E-05  0.6684E-05  0.1981E-05  0.1979E-05
     -3.065  0.1490E-01  0.1490E-01  0.2495E-03  0.2494E-03  0.3989E-03  0.3988E-03  0.2495E-03  0.2494E-03  0.5905E-05  0.5900E-05  0.9924E-05  0.9918E-05  0.4232E-05  0.4229E-05  0.9924E-05  0.9918E-05  0.2595E-05  0.2594E-05
     -3.015  0.1478E-01  0.1479E-01  0.2783E-03  0.2783E-03  0.4511E-03  0.4511E-03  0.2783E-03  0.2783E-03  0.7883E-05  0.7878E-05  0.1276E-04  0.1276E-04  0.4795E-05  0.4793E-05  0.1276E-04  0.1276E-04  0.2955E-05  0.2955E-05
     -2.964  0.1400E-01  0.1400E-01  0.3074E-03  0.3073E-03  0.5120E-03  0.5119E-03  0.3074E-03  0.3073E-03  0.1026E-04  0.1025E-04  0.1638E-04  0.1637E-04  0.5825E-05  0.5820E-05  0.1638E-04  0.1637E-04  0.3763E-05  0.3760E-05
     -2.913  0.1524E-01  0.1524E-01  0.3974E-03  0.3971E-03  0.6381E-03  0.6380E-03  0.3974E-03  0.3971E-03  0.1458E-04  0.1457E-04  0.2302E-04  0.2300E-04  0.8253E-05  0.8243E-05  0.2302E-04  0.2300E-04  0.5984E-05  0.5977E-05
     -2.862  0.1752E-01  0.1751E-01  0.5289E-03  0.5287E-03  0.7494E-03  0.7494E-03  0.5289E-03  0.5287E-03  0.1970E-04  0.1969E-04  0.3050E-04  0.3048E-04  0.1160E-04  0.1159E-04  0.3050E-04  0.3048E-04  0.9732E-05  0.9723E-05
     -2.812  0.1832E-01  0.1832E-01  0.6295E-03  0.6294E-03  0.7663E-03  0.7665E-03  0.6295E-03  0.6294E-03  0.2360E-04  0.2360E-04  0.3566E-04  0.3565E-04  0.1457E-04  0.1456E-04  0.3566E-04  0.3565E-04  0.1364E-04  0.1364E-04
     -2.761  0.1797E-01  0.1798E-01  0.6806E-03  0.6805E-03  0.7919E-03  0.7918E-03  0.6806E-03  0.6805E-03  0.2818E-04  0.2817E-04  0.4182E-04  0.4180E-04  0.1644E-04  0.1643E-04  0.4182E-04  0.4180E-04  0.1557E-04  0.1557E-04
     -2.710  0.1795E-01  0.1795E-01  0.7186E-03  0.7185E-03  0.9141E-03  0.9139E-03  0.7186E-03  0.7185E-03  0.3635E-04  0.3633E-04  0.5238E-04  0.5235E-04  0.1772E-04  0.1772E-04  0.5238E-04  0.5235E-04  0.1536E-04  0.1536E-04
     -2.659  0.1842E-01  0.1842E-01  0.7915E-03  0.7913E-03  0.1028E-02  0.1028E-02  0.7915E-03  0.7913E-03  0.4890E-04  0.4887E-04  0.6414E-04  0.6412E-04  0.1946E-04  0.1946E-04  0.6414E-04  0.6412E-04  0.1564E-04  0.1564E-04
     -2.609  0.1861E-01  0.1861E-01  0.8833E-03  0.8832E-03  0.1038E-02  0.1038E-02  0.8833E-03  0.8832E-03  0.6163E-04  0.6161E-04  0.7264E-04  0.7263E-04  0.2146E-04  0.2145E-04  0.7264E-04  0.7263E-04  0.1764E-04  0.1764E-04
     -2.558  0.1772E-01  0.1773E-01  0.9148E-03  0.9149E-03  0.1025E-02  0.1025E-02  0.9148E-03  0.9149E-03  0.6553E-04  0.6554E-04  0.7751E-04  0.7751E-04  0.2333E-04  0.2333E-04  0.7751E-04  0.7751E-04  0.2048E-04  0.2047E-04
     -2.507  0.1709E-01  0.1709E-01  0.9450E-03  0.9449E-03  0.1134E-02  0.1133E-02  0.9450E-03  0.9449E-03  0.6376E-04  0.6375E-04  0.8577E-04  0.8574E-04  0.2829E-04  0.2827E-04  0.8577E-04  0.8574E-04  0.2641E-04  0.2639E-04
     -2.456  0.1886E-01  0.1885E-01  0.1135E-02  0.1134E-02  0.1406E-02  0.1405E-02  0.1135E-02  0.1134E-02  0.7360E-04  0.7356E-04  0.1051E-03  0.1051E-03  0.4018E-04  0.4014E-04  0.1051E-03  0.1051E-03  0.3838E-04  0.3835E-04
     -2.406  0.2158E-01  0.2158E-01  0.1402E-02  0.1402E-02  0.1693E-02  0.1693E-02  0.1402E-02  0.1402E-02  0.9698E-04  0.9692E-04  0.1260E-03  0.1259E-03  0.5564E-04  0.5560E-04  0.1260E-03  0.1259E-03  0.5095E-04  0.5093E-04
     -2.355  0.2225E-01  0.2225E-01  0.1533E-02  0.1533E-02  0.1816E-02  0.1816E-02  0.1533E-02  0.1533E-02  0.1211E-03  0.1211E-03  0.1360E-03  0.1360E-03  0.6552E-04  0.6552E-04  0.1360E-03  0.1360E-03  0.5528E-04  0.5529E-04
     -2.304  0.2152E-01  0.2152E-01  0.1570E-02  0.1570E-02  0.1844E-02  0.1844E-02  0.1570E-02  0.1570E-02  0.1428E-03  0.1427E-03  0.1498E-03  0.1497E-03  0.6696E-04  0.6697E-04  0.1498E-03  0.1497E-03  0.5419E-04  0.5420E-04
     -2.253  0.2196E-01  0.2196E-01  0.1691E-02  0.1691E-02  0.2012E-02  0.2012E-02  0.1691E-02  0.1691E-02  0.1658E-03  0.1657E-03  0.1854E-03  0.1853E-03  0.6737E-04  0.6737E-04  0.1854E-03  0.1853E-03  0.5726E-04  0.5725E-04
     -2.202  0.2268E-01  0.2269E-01  0.1803E-02  0.1803E-02  0.2254E-02  0.2254E-02  0.1803E-02  0.1803E-02  0.1838E-03  0.1838E-03  0.2227E-03  0.2226E-03  0.6898E-04  0.6899E-04  0.2227E-03  0.2226E-03  0.6055E-04  0.6056E-04
     -2.152  0.2063E-01  0.2064E-01  0.1684E-02  0.1685E-02  0.2223E-02  0.2224E-02  0.1684E-02  0.1685E-02  0.1827E-03  0.1827E-03  0.2284E-03  0.2285E-03  0.6390E-04  0.6393E-04  0.2284E-03  0.2285E-03  0.5493E-04  0.5496E-04
     -2.101  0.1727E-01  0.1727E-01  0.1514E-02  0.1515E-02  0.2004E-02  0.2005E-02  0.1514E-02  0.1515E-02  0.1778E-03  0.1778E-03  0.2230E-03  0.2230E-03  0.5594E-04  0.5595E-04  0.2230E-03  0.2230E-03  0.4937E-04  0.4938E-04
     -2.050  0.1685E-01  0.1685E-01  0.1655E-02  0.1655E-02  0.2119E-02  0.2118E-02  0.1655E-02  0.1655E-02  0.2073E-03  0.2071E-03  0.2514E-03  0.2513E-03  0.6310E-04  0.6305E-04  0.2514E-03  0.2513E-03  0.5811E-04  0.5808E-04
     -1.999  0.1940E-01  0.1940E-01  0.2080E-02  0.2078E-02  0.2663E-02  0.2661E-02  0.2080E-02  0.2078E-02  0.2704E-03  0.2702E-03  0.3020E-03  0.3019E-03  0.9291E-04  0.9281E-04  0.3020E-03  0.3019E-03  0.8103E-04  0.8096E-04
     -1.949  0.2219E-01  0.2219E-01  0.2540E-02  0.2539E-02  0.3298E-02  0.3297E-02  0.2540E-02  0.2539E-02  0.3293E-03  0.3292E-03  0.3453E-03  0.3452E-03  0.1320E-03  0.1319E-03  0.3453E-03  0.3452E-03  0.1111E-03  0.1111E-03
     -1.898  0.2335E-01  0.2335E-01  0.2819E-02  0.2819E-02  0.3698E-02  0.3698E-02  0.2819E-02  0.2819E-02  0.3508E-03  0.3509E-03  0.3829E-03  0.3828E-03  0.1539E-03  0.1539E-03  0.3829E-03  0.3828E-03  0.1360E-03  0.1360E-03
     -1.847  0.2246E-01  0.2246E-01  0.2852E-02  0.2853E-02  0.3755E-02  0.3755E-02  0.2852E-02  0.2853E-02  0.3501E-03  0.3501E-03  0.4173E-03  0.4172E-03  0.1492E-03  0.1492E-03  0.4173E-03  0.4172E-03  0.1439E-03  0.1439E-03
     -1.796  0.2172E-01  0.2173E-01  0.2920E-02  0.2920E-02  0.3875E-02  0.3875E-02  0.2920E-02  0.2920E-02  0.3850E-03  0.3849E-03  0.4693E-03  0.4691E-03  0.1436E-03  0.1436E-03  0.4693E-03  0.4691E-03  0.1447E-03  0.1447E-03
     -1.746  0.2188E-01  0.2189E-01  0.3098E-02  0.3098E-02  0.4250E-02  0.4250E-02  0.3098E-02  0.3098E-02  0.4430E-03  0.4429E-03  0.5351E-03  0.5350E-03  0.1490E-03  0.1490E-03  0.5351E-03  0.5350E-03  0.1485E-03  0.1485E-03
     -1.695  0.2025E-01  0.2026E-01  0.3010E-02  0.3011E-02  0.4350E-02  0.4351E-02  0.3010E-02  0.3011E-02  0.4591E-03  0.4592E-03  0.5557E-03  0.5557E-03  0.1410E-03  0.1410E-03  0.5557E-03  0.5557E-03  0.1407E-03  0.1408E-03
     -1.644  0.1753E-01  0.1754E-01  0.2775E-02  0.2776E-02  0.4285E-02  0.4285E-02  0.2775E-02  0.2776E-02  0.4749E-03  0.4748E-03  0.5712E-03  0.5711E-03  0.1194E-03  0.1195E-03  0.5712E-03  0.5711E-03  0.1213E-03  0.1214E-03
     -1.593  0.1707E-01  0.1707E-01  0.2895E-02  0.2894E-02  0.4712E-02  0.4710E-02  0.2895E-02  0.2894E-02  0.5645E-03  0.5643E-03  0.6778E-03  0.6775E-03  0.1160E-03  0.1160E-03  0.6778E-03  0.6775E-03  0.1150E-03  0.1150E-03
     -1.543  0.1812E-01  0.1812E-01  0.3236E-02  0.3235E-02  0.5405E-02  0.5405E-02  0.3236E-02  0.3235E-02  0.6813E-03  0.6810E-03  0.8207E-03  0.8204E-03  0.1347E-03  0.1347E-03  0.8207E-03  0.8204E-03  0.1228E-03  0.1228E-03