  16  16   1   0
  0.1532782E+02  0.3856642E-09  0.3856642E-09  0.1648853E-08  0.5000000E-15
  1.000000000000000E-004
  CAR 
 unknown system                          
     11.69721445     -3.89252060  301      7.42324000      1.00000000
     -3.893  0.0000E+00  0.0000E+00  0.0000E+00  0.0000E+00
     -3.841  0.0000E+00  0.0000E+00  0.0000E+00  0.0000E+00
     -3.789  0.0000E+00  0.0000E+00  0.0000E+00  0.0000E+00
     -3.737  0.0000E+00  0.0000E+00  0.0000E+00  0.0000E+00
     -3.685  0.0000E+00  0.0000E+00  0.0000E+00  0.0000E+00
     -3.633  0.4798E-05  0.4783E-05  0.2493E-06  0.2486E-06
     -3.581  0.8764E-05  0.8737E-05  0.7047E-06  0.7026E-06
     -3.529  0.9363E-04  0.9335E-04  0.5570E-05  0.5553E-05
     -3.477  0.3125E-03  0.3116E-03  0.2181E-04  0.2175E-04
     -3.425  0.8308E-03  0.8283E-03  0.6498E-04  0.6479E-04
     -3.373  0.2308E-02  0.2301E-02  0.1849E-03  0.1844E-03
     -3.321  0.6493E-02  0.6474E-02  0.5223E-03  0.5208E-03
     -3.269  0.1735E-01  0.1731E-01  0.1424E-02  0.1420E-02
     -3.217  0.4291E-01  0.4280E-01  0.3654E-02  0.3644E-02
     -3.165  0.9294E-01  0.9276E-01  0.8484E-02  0.8465E-02
     -3.113  0.1670E+00  0.1667E+00  0.1716E-01  0.1713E-01
     -3.061  0.2431E+00  0.2429E+00  0.2979E-01  0.2975E-01
     -3.009  0.2985E+00  0.2984E+00  0.4530E-01  0.4526E-01
     -2.957  0.3516E+00  0.3514E+00  0.6358E-01  0.6352E-01
     -2.905  0.4371E+00  0.4368E+00  0.8629E-01  0.8622E-01
     -2.853  0.5204E+00  0.5202E+00  0.1133E+00  0.1133E+00
     -2.801  0.5273E+00  0.5274E+00  0.1407E+00  0.1407E+00
     -2.749  0.4939E+00  0.4940E+00  0.1664E+00  0.1663E+00
     -2.697  0.5339E+00  0.5337E+00  0.1942E+00  0.1941E+00
     -2.645  0.6337E+00  0.6335E+00  0.2271E+00  0.2270E+00
     -2.593  0.6862E+00  0.6861E+00  0.2628E+00  0.2627E+00
     -2.541  0.6824E+00  0.6824E+00  0.2982E+00  0.2981E+00
     -2.489  0.6865E+00  0.6864E+00  0.3339E+00  0.3338E+00
     -2.437  0.7160E+00  0.7159E+00  0.3711E+00  0.3710E+00
     -2.386  0.7447E+00  0.7447E+00  0.4099E+00  0.4098E+00
     -2.334  0.7309E+00  0.7310E+00  0.4478E+00  0.4477E+00
     -2.282  0.6974E+00  0.6974E+00  0.4841E+00  0.4840E+00
     -2.230  0.7539E+00  0.7536E+00  0.5233E+00  0.5232E+00
     -2.178  0.8983E+00  0.8980E+00  0.5700E+00  0.5699E+00
     -2.126  0.9851E+00  0.9850E+00  0.6212E+00  0.6211E+00
     -2.074  0.9718E+00  0.9718E+00  0.6718E+00  0.6716E+00
     -2.022  0.9806E+00  0.9805E+00  0.7227E+00  0.7226E+00
     -1.970  0.1056E+01  0.1056E+01  0.7776E+00  0.7775E+00
     -1.918  0.1048E+01  0.1048E+01  0.8321E+00  0.8320E+00
     -1.866  0.8936E+00  0.8941E+00  0.8786E+00  0.8785E+00
     -1.814  0.8052E+00  0.8052E+00  0.9204E+00  0.9203E+00
     -1.762  0.9162E+00  0.9157E+00  0.9681E+00  0.9679E+00
     -1.710  0.1116E+01  0.1115E+01  0.1026E+01  0.1026E+01
     -1.658  0.1275E+01  0.1275E+01  0.1092E+01  0.1092E+01
     -1.606  0.1312E+01  0.1312E+01  0.1161E+01  0.1160E+01
     -1.554  0.1273E+01  0.1273E+01  0.1227E+01  0.1227E+01
     -1.502  0.1313E+01  0.1313E+01  0.1295E+01  0.1295E+01
     -1.450  0.1350E+01  0.1351E+01  0.1365E+01  0.1365E+01
     -1.398  0.1237E+01  0.1237E+01  0.1429E+01  0.1429E+01
     -1.346  0.1157E+01  0.1157E+01  0.1490E+01  0.1489E+01
     -1.294  0.1256E+01  0.1256E+01  0.1555E+01  0.1555E+01
     -1.242  0.1378E+01  0.1378E+01  0.1627E+01  0.1626E+01
     -1.190  0.1424E+01  0.1424E+01  0.1701E+01  0.1700E+01
     -1.138  0.1458E+01  0.1457E+01  0.1776E+01  0.1776E+01
     -1.086  0.1496E+01  0.1495E+01  0.1854E+01  0.1854E+01
     -1.034  0.1487E+01  0.1488E+01  0.1932E+01  0.1931E+01
     -0.982  0.1421E+01  0.1422E+01  0.2005E+01  0.2005E+01
     -0.930  0.1412E+01  0.1412E+01  0.2079E+01  0.2079E+01
     -0.879  0.1539E+01  0.1539E+01  0.2159E+01  0.2159E+01
     -0.827  0.1683E+01  0.1683E+01  0.2246E+01  0.2246E+01
     -0.775  0.1672E+01  0.1672E+01  0.2333E+01  0.2333E+01
     -0.723  0.1499E+01  0.1499E+01  0.2411E+01  0.2411E+01
     -0.671  0.1349E+01  0.1349E+01  0.2481E+01  0.2481E+01
     -0.619  0.1267E+01  0.1267E+01  0.2547E+01  0.2547E+01
     -0.567  0.1149E+01  0.1149E+01  0.2607E+01  0.2607E+01
     -0.515  0.1072E+01  0.1072E+01  0.2663E+01  0.2663E+01
     -0.463  0.1139E+01  0.1139E+01  0.2722E+01  0.2722E+01
     -0.411  0.1326E+01  0.1325E+01  0.2791E+01  0.2791E+01
     -0.359  0.1502E+01  0.1502E+01  0.2869E+01  0.2869E+01
     -0.307  0.1520E+01  0.1520E+01  0.2948E+01  0.2948E+01
     -0.255  0.1426E+01  0.1427E+01  0.3022E+01  0.3022E+01
     -0.203  0.1398E+01  0.1398E+01  0.3095E+01  0.3095E+01
     -0.151  0.1420E+01  0.1420E+01  0.3169E+01  0.3169E+01
     -0.099  0.1387E+01  0.1388E+01  0.3241E+01  0.3241E+01
     -0.047  0.1372E+01  0.1372E+01  0.3312E+01  0.3312E+01
      0.005  0.1497E+01  0.1497E+01  0.3390E+01  0.3390E+01
      0.057  0.1705E+01  0.1704E+01  0.3479E+01  0.3478E+01
      0.109  0.1787E+01  0.1787E+01  0.3572E+01  0.3571E+01
      0.161  0.1685E+01  0.1685E+01  0.3659E+01  0.3659E+01
      0.213  0.1560E+01  0.1560E+01  0.3740E+01  0.3740E+01
      0.265  0.1528E+01  0.1528E+01  0.3820E+01  0.3820E+01
      0.317  0.1542E+01  0.1542E+01  0.3900E+01  0.3900E+01
      0.369  0.1556E+01  0.1556E+01  0.3981E+01  0.3981E+01
      0.421  0.1581E+01  0.1581E+01  0.4063E+01  0.4063E+01
      0.473  0.1616E+01  0.1616E+01  0.4147E+01  0.4147E+01
      0.525  0.1691E+01  0.1691E+01  0.4235E+01  0.4235E+01
      0.577  0.1844E+01  0.1844E+01  0.4331E+01  0.4331E+01
      0.629  0.1967E+01  0.1967E+01  0.4433E+01  0.4433E+01
      0.680  0.1976E+01  0.1976E+01  0.4536E+01  0.4536E+01
      0.732  0.1952E+01  0.1952E+01  0.4637E+01  0.4637E+01
      0.784  0.2036E+01  0.2036E+01  0.4743E+01  0.4743E+01
      0.836  0.2170E+01  0.2170E+01  0.4856E+01  0.4856E+01
      0.888  0.2204E+01  0.2204E+01  0.4971E+01  0.4970E+01
      0.940  0.2176E+01  0.2176E+01  0.5084E+01  0.5083E+01
      0.992  0.2067E+01  0.2067E+01  0.5191E+01  0.5191E+01
      1.044  0.1922E+01  0.1922E+01  0.5291E+01  0.5291E+01
      1.096  0.1913E+01  0.1913E+01  0.5391E+01  0.5390E+01
      1.148  0.1944E+01  0.1944E+01  0.5492E+01  0.5491E+01
      1.200  0.1859E+01  0.1859E+01  0.5588E+01  0.5588E+01
      1.252  0.1744E+01  0.1745E+01  0.5679E+01  0.5679E+01
      1.304  0.1782E+01  0.1781E+01  0.5772E+01  0.5771E+01
      1.356  0.1899E+01  0.1898E+01  0.5870E+01  0.5870E+01
      1.408  0.1935E+01  0.1935E+01  0.5971E+01  0.5971E+01
      1.460  0.1945E+01  0.1945E+01  0.6072E+01  0.6072E+01
      1.512  0.1888E+01  0.1889E+01  0.6170E+01  0.6170E+01
      1.564  0.1715E+01  0.1716E+01  0.6260E+01  0.6259E+01
      1.616  0.1610E+01  0.1610E+01  0.6343E+01  0.6343E+01
      1.668  0.1736E+01  0.1736E+01  0.6434E+01  0.6433E+01
      1.720  0.2066E+01  0.2066E+01  0.6541E+01  0.6541E+01
      1.772  0.2397E+01  0.2396E+01  0.6666E+01  0.6665E+01
      1.824  0.2562E+01  0.2562E+01  0.6799E+01  0.6799E+01
      1.876  0.2567E+01  0.2567E+01  0.6932E+01  0.6932E+01
      1.928  0.2408E+01  0.2409E+01  0.7058E+01  0.7057E+01
      1.980  0.2067E+01  0.2068E+01  0.7165E+01  0.7165E+01
      2.032  0.1779E+01  0.1779E+01  0.7257E+01  0.7257E+01
      2.084  0.1698E+01  0.1698E+01  0.7346E+01  0.7346E+01
      2.136  0.1770E+01  0.1769E+01  0.7438E+01  0.7438E+01
      2.187  0.1953E+01  0.1953E+01  0.7539E+01  0.7539E+01
      2.239  0.2065E+01  0.2064E+01  0.7647E+01  0.7647E+01
      2.291  0.2066E+01  0.2066E+01  0.7754E+01  0.7754E+01
      2.343  0.2169E+01  0.2168E+01  0.7867E+01  0.7867E+01
      2.395  0.2389E+01  0.2389E+01  0.7991E+01  0.7991E+01
      2.447  0.2530E+01  0.2530E+01  0.8123E+01  0.8123E+01
      2.499  0.2549E+01  0.2549E+01  0.8255E+01  0.8255E+01
      2.551  0.2573E+01  0.2573E+01  0.8389E+01  0.8389E+01
      2.603  0.2672E+01  0.2672E+01  0.8528E+01  0.8528E+01
      2.655  0.2892E+01  0.2892E+01  0.8678E+01  0.8678E+01
      2.707  0.3087E+01  0.3087E+01  0.8839E+01  0.8839E+01
      2.759  0.3057E+01  0.3058E+01  0.8998E+01  0.8998E+01
      2.811  0.2920E+01  0.2920E+01  0.9150E+01  0.9149E+01
      2.863  0.2781E+01  0.2782E+01  0.9294E+01  0.9294E+01
      2.915  0.2566E+01  0.2566E+01  0.9428E+01  0.9427E+01
      2.967  0.2300E+01  0.2301E+01  0.9547E+01  0.9547E+01
      3.019  0.2141E+01  0.2141E+01  0.9659E+01  0.9658E+01
      3.071  0.2093E+01  0.2093E+01  0.9767E+01  0.9767E+01
      3.123  0.2058E+01  0.2058E+01  0.9874E+01  0.9874E+01
      3.175  0.2090E+01  0.2090E+01  0.9983E+01  0.9983E+01
      3.227  0.2177E+01  0.2176E+01  0.1010E+02  0.1010E+02
      3.279  0.2199E+01  0.2199E+01  0.1021E+02  0.1021E+02
      3.331  0.2188E+01  0.2188E+01  0.1032E+02  0.1032E+02
      3.383  0.2288E+01  0.2288E+01  0.1044E+02  0.1044E+02
      3.435  0.2514E+01  0.2514E+01  0.1057E+02  0.1057E+02
      3.487  0.2737E+01  0.2737E+01  0.1072E+02  0.1072E+02
      3.539  0.2801E+01  0.2801E+01  0.1086E+02  0.1086E+02
      3.591  0.2833E+01  0.2833E+01  0.1101E+02  0.1101E+02
      3.643  0.2983E+01  0.2983E+01  0.1116E+02  0.1116E+02
      3.694  0.3044E+01  0.3044E+01  0.1132E+02  0.1132E+02
      3.746  0.2816E+01  0.2816E+01  0.1147E+02  0.1147E+02
      3.798  0.2508E+01  0.2509E+01  0.1160E+02  0.1160E+02
      3.850  0.2496E+01  0.2496E+01  0.1173E+02  0.1173E+02
      3.902  0.2807E+01  0.2806E+01  0.1188E+02  0.1188E+02
      3.954  0.3096E+01  0.3096E+01  0.1204E+02  0.1204E+02
      4.006  0.3218E+01  0.3218E+01  0.1220E+02  0.1220E+02
      4.058  0.3287E+01  0.3287E+01  0.1237E+02  0.1237E+02
      4.110  0.3241E+01  0.3241E+01  0.1254E+02  0.1254E+02
      4.162  0.3188E+01  0.3188E+01  0.1271E+02  0.1271E+02
      4.214  0.3218E+01  0.3218E+01  0.1288E+02  0.1288E+02
      4.266  0.3317E+01  0.3317E+01  0.1305E+02  0.1305E+02
      4.318  0.3601E+01  0.3601E+01  0.1324E+02  0.1324E+02
      4.370  0.3975E+01  0.3975E+01  0.1344E+02  0.1344E+02
      4.422  0.4082E+01  0.4082E+01  0.1365E+02  0.1365E+02
      4.474  0.3762E+01  0.3762E+01  0.1385E+02  0.1385E+02
      4.526  0.3385E+01  0.3386E+01  0.1403E+02  0.1403E+02
      4.578  0.3364E+01  0.3363E+01  0.1420E+02  0.1420E+02
      4.630  0.3674E+01  0.3673E+01  0.1439E+02  0.1439E+02
      4.682  0.4058E+01  0.4057E+01  0.1460E+02  0.1460E+02
      4.734  0.4241E+01  0.4241E+01  0.1482E+02  0.1482E+02
      4.786  0.4208E+01  0.4208E+01  0.1504E+02  0.1504E+02
      4.838  0.4155E+01  0.4156E+01  0.1526E+02  0.1526E+02
      4.890  0.4247E+01  0.4247E+01  0.1548E+02  0.1548E+02
      4.942  0.4353E+01  0.4353E+01  0.1571E+02  0.1571E+02
      4.994  0.4229E+01  0.4230E+01  0.1593E+02  0.1593E+02
      5.046  0.3979E+01  0.3979E+01  0.1613E+02  0.1613E+02
      5.098  0.3736E+01  0.3737E+01  0.1633E+02  0.1633E+02
      5.150  0.3534E+01  0.3535E+01  0.1651E+02  0.1651E+02
      5.201  0.3401E+01  0.3402E+01  0.1669E+02  0.1669E+02
      5.253  0.3346E+01  0.3346E+01  0.1686E+02  0.1686E+02
      5.305  0.3450E+01  0.3450E+01  0.1704E+02  0.1704E+02
      5.357  0.3788E+01  0.3789E+01  0.1724E+02  0.1724E+02
      5.409  0.4049E+01  0.4050E+01  0.1745E+02  0.1745E+02
      5.461  0.4098E+01  0.4098E+01  0.1766E+02  0.1766E+02
      5.513  0.4134E+01  0.4134E+01  0.1788E+02  0.1788E+02
      5.565  0.4280E+01  0.4281E+01  0.1810E+02  0.1810E+02
      5.617  0.4471E+01  0.4471E+01  0.1833E+02  0.1833E+02
      5.669  0.4775E+01  0.4775E+01  0.1858E+02  0.1858E+02
      5.721  0.5250E+01  0.5251E+01  0.1885E+02  0.1885E+02
      5.773  0.5528E+01  0.5529E+01  0.1914E+02  0.1914E+02
      5.825  0.5469E+01  0.5470E+01  0.1942E+02  0.1942E+02
      5.877  0.5415E+01  0.5415E+01  0.1971E+02  0.1971E+02
      5.929  0.5672E+01  0.5673E+01  0.2000E+02  0.2000E+02
      5.981  0.6245E+01  0.6246E+01  0.2033E+02  0.2033E+02
      6.033  0.6712E+01  0.6714E+01  0.2067E+02  0.2067E+02
      6.085  0.6696E+01  0.6697E+01  0.2102E+02  0.2102E+02
      6.137  0.6195E+01  0.6195E+01  0.2134E+02  0.2134E+02
      6.189  0.5441E+01  0.5441E+01  0.2163E+02  0.2163E+02
      6.241  0.4753E+01  0.4753E+01  0.2187E+02  0.2187E+02
      6.293  0.4353E+01  0.4353E+01  0.2210E+02  0.2210E+02
      6.345  0.4197E+01  0.4197E+01  0.2232E+02  0.2232E+02
      6.397  0.4199E+01  0.4200E+01  0.2254E+02  0.2254E+02
      6.449  0.4236E+01  0.4236E+01  0.2276E+02  0.2276E+02
      6.501  0.4226E+01  0.4226E+01  0.2298E+02  0.2298E+02
      6.553  0.4258E+01  0.4259E+01  0.2320E+02  0.2320E+02
      6.605  0.4461E+01  0.4462E+01  0.2343E+02  0.2343E+02
      6.657  0.4594E+01  0.4594E+01  0.2367E+02  0.2367E+02
      6.708  0.4539E+01  0.4540E+01  0.2391E+02  0.2391E+02
      6.760  0.4405E+01  0.4406E+01  0.2413E+02  0.2414E+02
      6.812  0.4075E+01  0.4075E+01  0.2435E+02  0.2435E+02
      6.864  0.3660E+01  0.3659E+01  0.2454E+02  0.2454E+02
      6.916  0.3291E+01  0.3289E+01  0.2471E+02  0.2471E+02
      6.968  0.2938E+01  0.2936E+01  0.2486E+02  0.2486E+02
      7.020  0.2549E+01  0.2548E+01  0.2499E+02  0.2499E+02
      7.072  0.2248E+01  0.2248E+01  0.2511E+02  0.2511E+02
      7.124  0.2204E+01  0.2205E+01  0.2523E+02  0.2523E+02
      7.176  0.2353E+01  0.2355E+01  0.2535E+02  0.2535E+02
      7.228  0.2524E+01  0.2525E+01  0.2548E+02  0.2548E+02
      7.280  0.2632E+01  0.2633E+01  0.2562E+02  0.2562E+02
      7.332  0.2631E+01  0.2631E+01  0.2575E+02  0.2575E+02
      7.384  0.2660E+01  0.2661E+01  0.2589E+02  0.2589E+02
      7.436  0.2779E+01  0.2780E+01  0.2604E+02  0.2604E+02
      7.488  0.2808E+01  0.2808E+01  0.2618E+02  0.2618E+02
      7.540  0.2722E+01  0.2722E+01  0.2632E+02  0.2632E+02
      7.592  0.2785E+01  0.2787E+01  0.2647E+02  0.2647E+02
      7.644  0.3122E+01  0.3125E+01  0.2663E+02  0.2663E+02
      7.696  0.3465E+01  0.3467E+01  0.2681E+02  0.2681E+02
      7.748  0.3490E+01  0.3489E+01  0.2699E+02  0.2699E+02
      7.800  0.3334E+01  0.3333E+01  0.2717E+02  0.2717E+02
      7.852  0.3322E+01  0.3322E+01  0.2734E+02  0.2734E+02
      7.904  0.3442E+01  0.3442E+01  0.2752E+02  0.2752E+02
      7.956  0.3517E+01  0.3516E+01  0.2770E+02  0.2770E+02
      8.008  0.3392E+01  0.3391E+01  0.2788E+02  0.2788E+02
      8.060  0.3275E+01  0.3275E+01  0.2805E+02  0.2805E+02
      8.112  0.3402E+01  0.3402E+01  0.2822E+02  0.2822E+02
      8.164  0.3722E+01  0.3723E+01  0.2842E+02  0.2842E+02
      8.216  0.4213E+01  0.4216E+01  0.2864E+02  0.2864E+02
      8.267  0.4807E+01  0.4811E+01  0.2889E+02  0.2889E+02
      8.319  0.5321E+01  0.5323E+01  0.2916E+02  0.2916E+02
      8.371  0.5787E+01  0.5790E+01  0.2946E+02  0.2946E+02
      8.423  0.6457E+01  0.6463E+01  0.2980E+02  0.2980E+02
      8.475  0.7272E+01  0.7278E+01  0.3018E+02  0.3018E+02
      8.527  0.7811E+01  0.7817E+01  0.3058E+02  0.3059E+02
      8.579  0.7990E+01  0.8001E+01  0.3100E+02  0.3100E+02
      8.631  0.8224E+01  0.8251E+01  0.3143E+02  0.3143E+02
      8.683  0.8804E+01  0.8862E+01  0.3188E+02  0.3189E+02
      8.735  0.9656E+01  0.9759E+01  0.3239E+02  0.3240E+02
      8.787  0.1073E+02  0.1088E+02  0.3294E+02  0.3296E+02
      8.839  0.1177E+02  0.1194E+02  0.3355E+02  0.3358E+02
      8.891  0.1184E+02  0.1199E+02  0.3417E+02  0.3421E+02
      8.943  0.1051E+02  0.1060E+02  0.3472E+02  0.3476E+02
      8.995  0.8541E+01  0.8591E+01  0.3516E+02  0.3521E+02
      9.047  0.6728E+01  0.6755E+01  0.3551E+02  0.3556E+02
      9.099  0.5205E+01  0.5212E+01  0.3578E+02  0.3583E+02
      9.151  0.4107E+01  0.4105E+01  0.3599E+02  0.3604E+02
      9.203  0.3627E+01  0.3633E+01  0.3618E+02  0.3623E+02
      9.255  0.3693E+01  0.3707E+01  0.3638E+02  0.3642E+02
      9.307  0.3831E+01  0.3848E+01  0.3658E+02  0.3662E+02
      9.359  0.3708E+01  0.3729E+01  0.3677E+02  0.3682E+02
      9.411  0.3560E+01  0.3583E+01  0.3695E+02  0.3700E+02
      9.463  0.3577E+01  0.3589E+01  0.3714E+02  0.3719E+02
      9.515  0.3696E+01  0.3679E+01  0.3733E+02  0.3738E+02
      9.567  0.3760E+01  0.3744E+01  0.3753E+02  0.3758E+02
      9.619  0.3713E+01  0.3755E+01  0.3772E+02  0.3777E+02
      9.671  0.3645E+01  0.3768E+01  0.3791E+02  0.3797E+02
      9.723  0.3616E+01  0.3831E+01  0.3810E+02  0.3817E+02
      9.774  0.3537E+01  0.3868E+01  0.3828E+02  0.3837E+02
      9.826  0.3275E+01  0.3674E+01  0.3845E+02  0.3856E+02
      9.878  0.2913E+01  0.3230E+01  0.3860E+02  0.3873E+02
      9.930  0.2641E+01  0.2815E+01  0.3874E+02  0.3887E+02
      9.982  0.2420E+01  0.2548E+01  0.3887E+02  0.3901E+02
     10.034  0.2243E+01  0.2400E+01  0.3898E+02  0.3913E+02
     10.086  0.2146E+01  0.2293E+01  0.3910E+02  0.3925E+02
     10.138  0.1994E+01  0.2096E+01  0.3920E+02  0.3936E+02
     10.190  0.1787E+01  0.1837E+01  0.3929E+02  0.3946E+02
     10.242  0.1699E+01  0.1639E+01  0.3938E+02  0.3954E+02
     10.294  0.1723E+01  0.1474E+01  0.3947E+02  0.3962E+02
     10.346  0.1707E+01  0.1291E+01  0.3956E+02  0.3968E+02
     10.398  0.1570E+01  0.1121E+01  0.3964E+02  0.3974E+02
     10.450  0.1428E+01  0.9625E+00  0.3971E+02  0.3979E+02
     10.502  0.1338E+01  0.8472E+00  0.3978E+02  0.3984E+02
     10.554  0.1182E+01  0.7792E+00  0.3985E+02  0.3988E+02
     10.606  0.9173E+00  0.6955E+00  0.3989E+02  0.3991E+02
     10.658  0.6809E+00  0.5889E+00  0.3993E+02  0.3994E+02
     10.710  0.5436E+00  0.4227E+00  0.3996E+02  0.3997E+02
     10.762  0.3972E+00  0.2455E+00  0.3998E+02  0.3998E+02
     10.814  0.2334E+00  0.1326E+00  0.3999E+02  0.3999E+02
     10.866  0.1152E+00  0.7335E-01  0.4000E+02  0.3999E+02
     10.918  0.4851E-01  0.4652E-01  0.4000E+02  0.3999E+02
     10.970  0.1822E-01  0.4321E-01  0.4000E+02  0.3999E+02
     11.022  0.6615E-02  0.4250E-01  0.4000E+02  0.4000E+02
     11.074  0.2373E-02  0.2921E-01  0.4000E+02  0.4000E+02
     11.126  0.3819E-03  0.1457E-01  0.4000E+02  0.4000E+02
     11.178  0.1355E-03  0.5941E-02  0.4000E+02  0.4000E+02
     11.230  0.0000E+00  0.2173E-02  0.4000E+02  0.4000E+02
     11.281  0.0000E+00  0.7840E-03  0.4000E+02  0.4000E+02
     11.333  0.0000E+00  0.2793E-03  0.4000E+02  0.4000E+02
     11.385  0.0000E+00  0.9902E-04  0.4000E+02  0.4000E+02
     11.437  0.0000E+00  0.0000E+00  0.4000E+02  0.4000E+02
     11.489  0.0000E+00  0.0000E+00  0.4000E+02  0.4000E+02
     11.541  0.0000E+00  0.0000E+00  0.4000E+02  0.4000E+02
     11.593  0.0000E+00  0.0000E+00  0.4000E+02  0.4000E+02
     11.645  0.0000E+00  0.0000E+00  0.4000E+02  0.4000E+02
     11.697  0.0000E+00  0.0000E+00  0.4000E+02  0.4000E+02
     11.69721445     -3.89252060  301      7.42324000      1.00000000
     -3.893  0.0000E+00  0.0000E+00  0.0000E+00  0.0000E+00  0.0000E+00  0.0000E+00  0.0000E+00  0.0000E+00  0.0000E+00  0.0000E+00  0.0000E+00  0.0000E+00  0.0000E+00  0.0000E+00  0.0000E+00  0.0000E+00  0.0000E+00  0.0000E+00
     -3.841  0.0000E+00  0.0000E+00  0.0000E+00  0.0000E+00  0.0000E+00  0.0000E+00  0.0000E+00  0.0000E+00  0.0000E+00  0.0000E+00  0.0000E+00  0.0000E+00  0.0000E+00  0.0000E+00  0.0000E+00  0.0000E+00  0.0000E+00  0.0000E+00
     -3.789  0.0000E+00  0.0000E+00  0.0000E+00  0.0000E+00  0.0000E+00  0.0000E+00  0.0000E+00  0.0000E+00  0.0000E+00  0.0000E+00  0.0000E+00  0.0000E+00  0.0000E+00  0.0000E+00  0.0000E+00  0.0000E+00  0.0000E+00  0.0000E+00
     -3.737  0.0000E+00  0.0000E+00  0.0000E+00  0.0000E+00  0.0000E+00  0.0000E+00  0.0000E+00  0.0000E+00  0.0000E+00  0.0000E+00  0.0000E+00  0.0000E+00  0.0000E+00  0.0000E+00  0.0000E+00  0.0000E+00  0.0000E+00  0.0000E+00
     -3.685  0.0000E+00  0.0000E+00  0.0000E+00  0.0000E+00  0.0000E+00  0.0000E+00  0.0000E+00  0.0000E+00  0.0000E+00  0.0000E+00  0.0000E+00  0.0000E+00  0.0000E+00  0.0000E+00  0.0000E+00  0.0000E+00  0.0000E+00  0.0000E+00
     -3.633  0.1559E-06  0.1555E-06  0.5623E-22  0.6516E-23  0.7275E-09  0.7257E-09  0.5623E-22  0.6516E-23  0.7265E-24  0.3272E-24  0.1723E-22  0.2101E-22  0.1344E-10  0.1335E-10  0.1723E-22  0.2101E-22  0.1721E-21  0.6612E-21
     -3.581  0.2848E-06  0.2840E-06  0.1027E-21  0.1190E-22  0.1329E-08  0.1326E-08  0.1027E-21  0.1190E-22  0.1327E-23  0.5976E-24  0.3147E-22  0.3838E-22  0.2455E-10  0.2438E-10  0.3147E-22  0.3838E-22  0.3144E-21  0.1208E-20
     -3.529  0.3011E-05  0.3002E-05  0.6657E-08  0.6637E-08  0.2220E-07  0.2214E-07  0.6657E-08  0.6637E-08  0.1854E-20  0.1070E-20  0.7854E-10  0.7838E-10  0.3019E-09  0.3000E-09  0.7854E-10  0.7838E-10  0.3332E-10  0.3323E-10
     -3.477  0.9992E-05  0.9962E-05  0.3463E-07  0.3453E-07  0.8902E-07  0.8878E-07  0.3463E-07  0.3453E-07  0.2227E-09  0.2221E-09  0.6572E-09  0.6557E-09  0.1018E-08  0.1011E-08  0.6572E-09  0.6557E-09  0.1171E-09  0.1168E-09
     -3.425  0.2655E-04  0.2647E-04  0.9437E-07  0.9409E-07  0.2394E-06  0.2388E-06  0.9437E-07  0.9409E-07  0.7876E-09  0.7853E-09  0.1991E-08  0.1986E-08  0.2665E-08  0.2647E-08  0.1991E-08  0.1986E-08  0.2743E-09  0.2736E-09
     -3.373  0.7375E-04  0.7353E-04  0.2632E-06  0.2624E-06  0.6686E-06  0.6669E-06  0.2632E-06  0.2624E-06  0.1843E-08  0.1838E-08  0.5171E-08  0.5159E-08  0.7786E-08  0.7737E-08  0.5171E-08  0.5159E-08  0.1093E-08  0.1090E-08
     -3.321  0.2072E-03  0.2066E-03  0.7913E-06  0.7889E-06  0.1947E-05  0.1942E-05  0.7913E-06  0.7889E-06  0.6316E-08  0.6298E-08  0.1651E-07  0.1647E-07  0.2256E-07  0.2242E-07  0.1651E-07  0.1647E-07  0.3635E-08  0.3625E-08
     -3.269  0.5535E-03  0.5520E-03  0.2191E-05  0.2184E-05  0.5295E-05  0.5282E-05  0.2191E-05  0.2184E-05  0.1878E-07  0.1873E-07  0.4718E-07  0.4707E-07  0.6031E-07  0.5994E-07  0.4718E-07  0.4707E-07  0.9703E-08  0.9677E-08
     -3.217  0.1367E-02  0.1364E-02  0.5772E-05  0.5756E-05  0.1352E-04  0.1349E-04  0.5772E-05  0.5756E-05  0.4972E-07  0.4959E-07  0.1245E-06  0.1242E-06  0.1509E-06  0.1500E-06  0.1245E-06  0.1242E-06  0.2544E-07  0.2537E-07
     -3.165  0.2953E-02  0.2947E-02  0.1417E-04  0.1414E-04  0.3137E-04  0.3131E-04  0.1417E-04  0.1414E-04  0.1321E-06  0.1317E-06  0.3172E-06  0.3165E-06  0.3369E-06  0.3352E-06  0.3172E-06  0.3165E-06  0.6318E-07  0.6303E-07
     -3.113  0.5281E-02  0.5274E-02  0.3025E-04  0.3019E-04  0.6240E-04  0.6231E-04  0.3025E-04  0.3019E-04  0.3250E-06  0.3243E-06  0.7282E-06  0.7270E-06  0.6406E-06  0.6377E-06  0.7282E-06  0.7270E-06  0.1421E-06  0.1419E-06
     -3.061  0.7640E-02  0.7633E-02  0.5418E-04  0.5410E-04  0.1038E-03  0.1037E-03  0.5418E-04  0.5410E-04  0.6879E-06  0.6867E-06  0.1431E-05  0.1429E-05  0.1042E-05  0.1037E-05  0.1431E-05  0.1429E-05  0.2980E-06  0.2974E-06
     -3.009  0.9293E-02  0.9288E-02  0.8458E-04  0.8447E-04  0.1513E-03  0.1512E-03  0.8458E-04  0.8447E-04  0.1237E-05  0.1235E-05  0.2439E-05  0.2437E-05  0.1583E-05  0.1577E-05  0.2439E-05  0.2437E-05  0.6235E-06  0.6223E-06
     -2.957  0.1080E-01  0.1080E-01  0.1282E-03  0.1281E-03  0.2163E-03  0.2161E-03  0.1282E-03  0.1281E-03  0.2136E-05  0.2133E-05  0.4040E-05  0.4036E-05  0.2473E-05  0.2466E-05  0.4040E-05  0.4036E-05  0.1250E-05  0.1248E-05
     -2.905  0.1326E-01  0.1326E-01  0.1938E-03  0.1935E-03  0.3140E-03  0.3137E-03  0.1938E-03  0.1935E-03  0.3769E-05  0.3764E-05  0.6774E-05  0.6767E-05  0.3759E-05  0.3750E-05  0.6774E-05  0.6767E-05  0.2122E-05  0.2120E-05
     -2.853  0.1564E-01  0.1564E-01  0.2608E-03  0.2607E-03  0.4148E-03  0.4146E-03  0.2608E-03  0.2607E-03  0.6063E-05  0.6057E-05  0.1030E-04  0.1029E-04  0.4899E-05  0.4890E-05  0.1030E-04  0.1029E-04  0.2836E-05  0.2835E-05
     -2.801  0.1570E-01  0.1570E-01  0.2923E-03  0.2922E-03  0.4697E-03  0.4697E-03  0.2923E-03  0.2922E-03  0.8139E-05  0.8135E-05  0.1326E-04  0.1326E-04  0.5448E-05  0.5440E-05  0.1326E-04  0.1326E-04  0.3164E-05  0.3164E-05
     -2.749  0.1450E-01  0.1450E-01  0.3115E-03  0.3114E-03  0.5192E-03  0.5190E-03  0.3115E-03  0.3114E-03  0.1031E-04  0.1030E-04  0.1654E-04  0.1653E-04  0.6268E-05  0.6258E-05  0.1654E-04  0.1653E-04  0.3791E-05  0.3788E-05
     -2.697  0.1540E-01  0.1539E-01  0.3933E-03  0.3929E-03  0.6465E-03  0.6461E-03  0.3933E-03  0.3929E-03  0.1458E-04  0.1456E-04  0.2319E-04  0.2317E-04  0.8700E-05  0.8684E-05  0.2319E-04  0.2317E-04  0.5878E-05  0.5871E-05
     -2.645  0.1803E-01  0.1803E-01  0.5347E-03  0.5343E-03  0.7861E-03  0.7859E-03  0.5347E-03  0.5343E-03  0.2023E-04  0.2022E-04  0.3167E-04  0.3165E-04  0.1252E-04  0.1250E-04  0.3167E-04  0.3165E-04  0.9827E-05  0.9815E-05
     -2.593  0.1930E-01  0.1930E-01  0.6538E-03  0.6535E-03  0.8159E-03  0.8159E-03  0.6538E-03  0.6535E-03  0.2450E-04  0.2449E-04  0.3743E-04  0.3742E-04  0.1617E-04  0.1615E-04  0.3743E-04  0.3742E-04  0.1447E-04  0.1446E-04
     -2.541  0.1892E-01  0.1892E-01  0.7135E-03  0.7133E-03  0.8156E-03  0.8154E-03  0.7135E-03  0.7133E-03  0.2854E-04  0.2852E-04  0.4278E-04  0.4277E-04  0.1846E-04  0.1844E-04  0.4278E-04  0.4277E-04  0.1728E-04  0.1728E-04
     -2.489  0.1868E-01  0.1868E-01  0.7466E-03  0.7464E-03  0.9289E-03  0.9284E-03  0.7466E-03  0.7464E-03  0.3599E-04  0.3597E-04  0.5317E-04  0.5314E-04  0.1965E-04  0.1964E-04  0.5317E-04  0.5314E-04  0.1718E-04  0.1719E-04
     -2.437  0.1914E-01  0.1914E-01  0.8093E-03  0.8090E-03  0.1077E-02  0.1077E-02  0.8093E-03  0.8090E-03  0.4845E-04  0.4842E-04  0.6645E-04  0.6643E-04  0.2119E-04  0.2117E-04  0.6645E-04  0.6643E-04  0.1683E-04  0.1683E-04
     -2.386  0.1961E-01  0.1961E-01  0.9143E-03  0.9139E-03  0.1114E-02  0.1114E-02  0.9143E-03  0.9139E-03  0.6360E-04  0.6357E-04  0.7698E-04  0.7697E-04  0.2347E-04  0.2345E-04  0.7698E-04  0.7697E-04  0.1862E-04  0.1861E-04
     -2.334  0.1896E-01  0.1896E-01  0.9693E-03  0.9692E-03  0.1078E-02  0.1078E-02  0.9693E-03  0.9692E-03  0.7134E-04  0.7135E-04  0.8251E-04  0.8251E-04  0.2521E-04  0.2519E-04  0.8251E-04  0.8251E-04  0.2128E-04  0.2127E-04
     -2.282  0.1769E-01  0.1769E-01  0.9647E-03  0.9645E-03  0.1130E-02  0.1129E-02  0.9647E-03  0.9645E-03  0.6801E-04  0.6803E-04  0.8792E-04  0.8790E-04  0.2834E-04  0.2831E-04  0.8792E-04  0.8790E-04  0.2576E-04  0.2574E-04
     -2.230  0.1862E-01  0.1861E-01  0.1097E-02  0.1096E-02  0.1372E-02  0.1371E-02  0.1097E-02  0.1096E-02  0.7182E-04  0.7179E-04  0.1049E-03  0.1049E-03  0.3859E-04  0.3853E-04  0.1049E-03  0.1049E-03  0.3689E-04  0.3686E-04
     -2.178  0.2178E-01  0.2177E-01  0.1396E-02  0.1395E-02  0.1713E-02  0.1712E-02  0.1396E-02  0.1395E-02  0.9388E-04  0.9381E-04  0.1303E-03  0.1302E-03  0.5598E-04  0.5591E-04  0.1303E-03  0.1302E-03  0.5255E-04  0.5252E-04
     -2.126  0.2354E-01  0.2353E-01  0.1606E-02  0.1606E-02  0.1920E-02  0.1919E-02  0.1606E-02  0.1606E-02  0.1213E-03  0.1212E-03  0.1449E-03  0.1449E-03  0.7081E-04  0.7075E-04  0.1449E-03  0.1449E-03  0.6143E-04  0.6143E-04
     -2.074  0.2281E-01  0.2281E-01  0.1643E-02  0.1643E-02  0.1941E-02  0.1941E-02  0.1643E-02  0.1643E-02  0.1446E-03  0.1446E-03  0.1528E-03  0.1528E-03  0.7503E-04  0.7500E-04  0.1528E-03  0.1528E-03  0.6034E-04  0.6035E-04
     -2.022  0.2253E-01  0.2253E-01  0.1720E-02  0.1720E-02  0.2032E-02  0.2031E-02  0.1720E-02  0.1720E-02  0.1684E-03  0.1683E-03  0.1818E-03  0.1817E-03  0.7417E-04  0.7415E-04  0.1818E-03  0.1817E-03  0.6095E-04  0.6094E-04
     -1.970  0.2379E-01  0.2379E-01  0.1894E-02  0.1893E-02  0.2320E-02  0.2319E-02  0.1894E-02  0.1893E-02  0.1928E-03  0.1928E-03  0.2296E-03  0.2295E-03  0.7642E-04  0.7639E-04  0.2296E-03  0.2295E-03  0.6692E-04  0.6692E-04
     -1.918  0.2320E-01  0.2321E-01  0.1885E-02  0.1885E-02  0.2457E-02  0.2457E-02  0.1885E-02  0.1885E-02  0.2014E-03  0.2014E-03  0.2528E-03  0.2528E-03  0.7493E-04  0.7493E-04  0.2528E-03  0.2528E-03  0.6510E-04  0.6514E-04
     -1.866  0.1941E-01  0.1942E-01  0.1645E-02  0.1645E-02  0.2217E-02  0.2218E-02  0.1645E-02  0.1645E-02  0.1897E-03  0.1897E-03  0.2414E-03  0.2414E-03  0.6410E-04  0.6412E-04  0.2414E-03  0.2414E-03  0.5504E-04  0.5507E-04
     -1.814  0.1696E-01  0.1696E-01  0.1593E-02  0.1593E-02  0.2080E-02  0.2079E-02  0.1593E-02  0.1593E-02  0.1981E-03  0.1980E-03  0.2500E-03  0.2500E-03  0.6038E-04  0.6035E-04  0.2500E-03  0.2500E-03  0.5538E-04  0.5536E-04
     -1.762  0.1859E-01  0.1858E-01  0.1937E-02  0.1935E-02  0.2477E-02  0.2475E-02  0.1937E-02  0.1935E-02  0.2539E-03  0.2537E-03  0.3009E-03  0.3008E-03  0.8159E-04  0.8147E-04  0.3009E-03  0.3008E-03  0.7384E-04  0.7378E-04
     -1.710  0.2188E-01  0.2187E-01  0.2449E-02  0.2447E-02  0.3176E-02  0.3174E-02  0.2449E-02  0.2447E-02  0.3281E-03  0.3279E-03  0.3539E-03  0.3537E-03  0.1243E-03  0.1242E-03  0.3539E-03  0.3537E-03  0.1046E-03  0.1045E-03
     -1.658  0.2427E-01  0.2427E-01  0.2882E-02  0.2881E-02  0.3788E-02  0.3786E-02  0.2882E-02  0.2881E-02  0.3754E-03  0.3754E-03  0.3962E-03  0.3961E-03  0.1638E-03  0.1637E-03  0.3962E-03  0.3961E-03  0.1385E-03  0.1384E-03
     -1.606  0.2433E-01  0.2433E-01  0.3033E-02  0.3032E-02  0.4019E-02  0.4018E-02  0.3033E-02  0.3032E-02  0.3765E-03  0.3765E-03  0.4336E-03  0.4335E-03  0.1724E-03  0.1724E-03  0.4336E-03  0.4335E-03  0.1581E-03  0.1581E-03
     -1.554  0.2295E-01  0.2295E-01  0.3016E-02  0.3015E-02  0.3997E-02  0.3996E-02  0.3016E-02  0.3015E-02  0.3833E-03  0.3832E-03  0.4737E-03  0.4735E-03  0.1602E-03  0.1602E-03  0.4737E-03  0.4735E-03  0.1594E-03  0.1595E-03
     -1.502  0.2289E-01  0.2289E-01  0.3181E-02  0.3180E-02  0.4286E-02  0.4285E-02  0.3181E-02  0.3180E-02  0.4439E-03  0.4437E-03  0.5453E-03  0.5451E-03  0.1613E-03  0.1612E-03  0.5453E-03  0.5451E-03  0.1620E-03  0.1620E-03
     -1.450  0.2273E-01  0.2274E-01  0.3314E-02  0.3313E-02  0.4656E-02  0.4655E-02  0.3314E-02  0.3313E-02  0.4939E-03  0.4938E-03  0.6048E-03  0.6048E-03  0.1664E-03  0.1663E-03  0.6048E-03  0.6048E-03  0.1645E-03  0.1646E-03
     -1.398  0.1996E-01  0.1997E-01  0.3065E-02  0.3066E-02  0.4557E-02  0.4557E-02  0.3065E-02  0.3066E-02  0.4925E-03  0.4926E-03  0.6032E-03  0.6032E-03  0.1469E-03  0.1469E-03  0.6032E-03  0.6032E-03  0.1474E-03  0.1475E-03
     -1.346  0.1762E-01  0.1763E-01  0.2898E-02  0.2897E-02  0.4618E-02  0.4617E-02  0.2898E-02  0.2897E-02  0.5347E-03  0.5345E-03  0.6494E-03  0.6492E-03  0.1253E-03  0.1253E-03  0.6494E-03  0.6492E-03  0.1272E-03  0.1272E-03
     -1.294  0.1822E-01  0.1822E-01  0.3183E-02  0.3181E-02  0.5313E-02  0.5311E-02  0.3183E-02  0.3181E-02  0.6590E-03  0.6587E-03  0.8042E-03  0.8037E-03  0.1332E-03  0.1331E-03  0.8042E-03  0.8037E-03  0.1283E-03  0.1283E-03