  16  16   1   0
  0.1270643E+02  0.3622906E-09  0.3622906E-09  0.1548922E-08  0.5000000E-15
  1.000000000000000E-004
  CAR 
 unknown system                          
     14.12045473     -3.20327131  301      9.28927821      1.00000000
     -3.203  0.0000E+00  0.0000E+00  0.0000E+00  0.0000E+00
     -3.146  0.0000E+00  0.0000E+00  0.0000E+00  0.0000E+00
     -3.088  0.0000E+00  0.0000E+00  0.0000E+00  0.0000E+00
     -3.030  0.0000E+00  0.0000E+00  0.0000E+00  0.0000E+00
     -2.972  0.0000E+00  0.0000E+00  0.0000E+00  0.0000E+00
     -2.915  0.0000E+00  0.0000E+00  0.0000E+00  0.0000E+00
     -2.857  0.5049E-05  0.5025E-05  0.2916E-06  0.2902E-06
     -2.799  0.3498E-04  0.3481E-04  0.2311E-05  0.2301E-05
     -2.741  0.8694E-04  0.8653E-04  0.7332E-05  0.7297E-05
     -2.684  0.3967E-03  0.3948E-03  0.3024E-04  0.3009E-04
     -2.626  0.1196E-02  0.1190E-02  0.9928E-04  0.9882E-04
     -2.568  0.3705E-02  0.3688E-02  0.3132E-03  0.3118E-03
     -2.510  0.1126E-01  0.1121E-01  0.9635E-03  0.9592E-03
     -2.453  0.3123E-01  0.3111E-01  0.2767E-02  0.2755E-02
     -2.395  0.7413E-01  0.7390E-01  0.7048E-02  0.7023E-02
     -2.337  0.1420E+00  0.1417E+00  0.1525E-01  0.1521E-01
     -2.279  0.2130E+00  0.2127E+00  0.2755E-01  0.2749E-01
     -2.222  0.2576E+00  0.2575E+00  0.4242E-01  0.4236E-01
     -2.164  0.2911E+00  0.2909E+00  0.5923E-01  0.5916E-01
     -2.106  0.3648E+00  0.3644E+00  0.8030E-01  0.8020E-01
     -2.048  0.4616E+00  0.4613E+00  0.1070E+00  0.1068E+00
     -1.991  0.4807E+00  0.4809E+00  0.1347E+00  0.1346E+00
     -1.933  0.4203E+00  0.4206E+00  0.1590E+00  0.1589E+00
     -1.875  0.4231E+00  0.4228E+00  0.1835E+00  0.1833E+00
     -1.817  0.5311E+00  0.5306E+00  0.2141E+00  0.2140E+00
     -1.760  0.6138E+00  0.6137E+00  0.2496E+00  0.2494E+00
     -1.702  0.6095E+00  0.6096E+00  0.2848E+00  0.2846E+00
     -1.644  0.5943E+00  0.5943E+00  0.3191E+00  0.3190E+00
     -1.586  0.6140E+00  0.6139E+00  0.3546E+00  0.3545E+00
     -1.529  0.6555E+00  0.6553E+00  0.3925E+00  0.3923E+00
     -1.471  0.6683E+00  0.6684E+00  0.4311E+00  0.4309E+00
     -1.413  0.6176E+00  0.6178E+00  0.4667E+00  0.4666E+00
     -1.355  0.5956E+00  0.5954E+00  0.5012E+00  0.5010E+00
     -1.298  0.7110E+00  0.7104E+00  0.5422E+00  0.5420E+00
     -1.240  0.8629E+00  0.8624E+00  0.5921E+00  0.5919E+00
     -1.182  0.8906E+00  0.8908E+00  0.6435E+00  0.6433E+00
     -1.124  0.8450E+00  0.8450E+00  0.6924E+00  0.6922E+00
     -1.067  0.8908E+00  0.8904E+00  0.7438E+00  0.7436E+00
     -1.009  0.9860E+00  0.9858E+00  0.8008E+00  0.8006E+00
     -0.951  0.9036E+00  0.9044E+00  0.8530E+00  0.8528E+00
     -0.893  0.7040E+00  0.7046E+00  0.8936E+00  0.8935E+00
     -0.836  0.6820E+00  0.6816E+00  0.9331E+00  0.9329E+00
     -0.778  0.8547E+00  0.8539E+00  0.9825E+00  0.9823E+00
     -0.720  0.1053E+01  0.1052E+01  0.1043E+01  0.1043E+01
     -0.662  0.1186E+01  0.1186E+01  0.1112E+01  0.1112E+01
     -0.605  0.1169E+01  0.1169E+01  0.1179E+01  0.1179E+01
     -0.547  0.1120E+01  0.1120E+01  0.1244E+01  0.1244E+01
     -0.489  0.1203E+01  0.1203E+01  0.1314E+01  0.1313E+01
     -0.431  0.1218E+01  0.1218E+01  0.1384E+01  0.1384E+01
     -0.374  0.1054E+01  0.1055E+01  0.1445E+01  0.1445E+01
     -0.316  0.1014E+01  0.1014E+01  0.1503E+01  0.1503E+01
     -0.258  0.1169E+01  0.1169E+01  0.1571E+01  0.1571E+01
     -0.200  0.1269E+01  0.1269E+01  0.1644E+01  0.1644E+01
     -0.143  0.1274E+01  0.1274E+01  0.1718E+01  0.1718E+01
     -0.085  0.1296E+01  0.1296E+01  0.1793E+01  0.1793E+01
     -0.027  0.1345E+01  0.1345E+01  0.1871E+01  0.1870E+01
      0.030  0.1335E+01  0.1335E+01  0.1948E+01  0.1947E+01
      0.088  0.1253E+01  0.1254E+01  0.2020E+01  0.2020E+01
      0.146  0.1282E+01  0.1282E+01  0.2094E+01  0.2094E+01
      0.204  0.1475E+01  0.1474E+01  0.2179E+01  0.2179E+01
      0.261  0.1610E+01  0.1610E+01  0.2272E+01  0.2272E+01
      0.319  0.1521E+01  0.1522E+01  0.2360E+01  0.2360E+01
      0.377  0.1305E+01  0.1305E+01  0.2436E+01  0.2435E+01
      0.435  0.1200E+01  0.1200E+01  0.2505E+01  0.2505E+01
      0.492  0.1137E+01  0.1137E+01  0.2571E+01  0.2571E+01
      0.550  0.1006E+01  0.1006E+01  0.2629E+01  0.2629E+01
      0.608  0.9618E+00  0.9616E+00  0.2684E+01  0.2684E+01
      0.666  0.1093E+01  0.1092E+01  0.2748E+01  0.2747E+01
      0.723  0.1312E+01  0.1311E+01  0.2823E+01  0.2823E+01
      0.781  0.1411E+01  0.1411E+01  0.2905E+01  0.2905E+01
      0.839  0.1343E+01  0.1344E+01  0.2983E+01  0.2982E+01
      0.897  0.1294E+01  0.1294E+01  0.3057E+01  0.3057E+01
      0.954  0.1349E+01  0.1348E+01  0.3135E+01  0.3135E+01
      1.012  0.1320E+01  0.1320E+01  0.3211E+01  0.3211E+01
      1.070  0.1169E+01  0.1170E+01  0.3279E+01  0.3279E+01
      1.128  0.1182E+01  0.1181E+01  0.3347E+01  0.3347E+01
      1.185  0.1457E+01  0.1456E+01  0.3432E+01  0.3431E+01
      1.243  0.1654E+01  0.1654E+01  0.3527E+01  0.3527E+01
      1.301  0.1581E+01  0.1582E+01  0.3618E+01  0.3618E+01
      1.359  0.1423E+01  0.1423E+01  0.3701E+01  0.3700E+01
      1.416  0.1377E+01  0.1376E+01  0.3780E+01  0.3780E+01
      1.474  0.1395E+01  0.1395E+01  0.3861E+01  0.3860E+01
      1.532  0.1363E+01  0.1363E+01  0.3940E+01  0.3939E+01
      1.590  0.1317E+01  0.1317E+01  0.4016E+01  0.4015E+01
      1.647  0.1350E+01  0.1350E+01  0.4094E+01  0.4093E+01
      1.705  0.1429E+01  0.1428E+01  0.4176E+01  0.4176E+01
      1.763  0.1442E+01  0.1442E+01  0.4260E+01  0.4259E+01
      1.821  0.1440E+01  0.1439E+01  0.4343E+01  0.4342E+01
      1.878  0.1537E+01  0.1537E+01  0.4432E+01  0.4431E+01
      1.936  0.1617E+01  0.1617E+01  0.4525E+01  0.4525E+01
      1.994  0.1669E+01  0.1668E+01  0.4621E+01  0.4621E+01
      2.052  0.1868E+01  0.1867E+01  0.4729E+01  0.4729E+01
      2.109  0.2073E+01  0.2073E+01  0.4849E+01  0.4848E+01
      2.167  0.2078E+01  0.2078E+01  0.4969E+01  0.4969E+01
      2.225  0.1961E+01  0.1962E+01  0.5082E+01  0.5082E+01
      2.283  0.1875E+01  0.1876E+01  0.5191E+01  0.5190E+01
      2.340  0.1855E+01  0.1856E+01  0.5298E+01  0.5297E+01
      2.398  0.1849E+01  0.1849E+01  0.5405E+01  0.5404E+01
      2.456  0.1748E+01  0.1748E+01  0.5506E+01  0.5505E+01
      2.514  0.1633E+01  0.1634E+01  0.5600E+01  0.5600E+01
      2.571  0.1584E+01  0.1584E+01  0.5692E+01  0.5691E+01
      2.629  0.1618E+01  0.1618E+01  0.5785E+01  0.5785E+01
      2.687  0.1736E+01  0.1735E+01  0.5885E+01  0.5885E+01
      2.745  0.1879E+01  0.1878E+01  0.5994E+01  0.5994E+01
      2.802  0.1941E+01  0.1941E+01  0.6106E+01  0.6106E+01
      2.860  0.1806E+01  0.1807E+01  0.6211E+01  0.6210E+01
      2.918  0.1577E+01  0.1577E+01  0.6302E+01  0.6301E+01
      2.976  0.1564E+01  0.1564E+01  0.6392E+01  0.6392E+01
      3.033  0.1737E+01  0.1736E+01  0.6492E+01  0.6492E+01
      3.091  0.1874E+01  0.1874E+01  0.6601E+01  0.6600E+01
      3.149  0.1938E+01  0.1937E+01  0.6713E+01  0.6712E+01
      3.207  0.2084E+01  0.2083E+01  0.6833E+01  0.6833E+01
      3.264  0.2188E+01  0.2189E+01  0.6960E+01  0.6959E+01
      3.322  0.1966E+01  0.1967E+01  0.7073E+01  0.7073E+01
      3.380  0.1639E+01  0.1640E+01  0.7168E+01  0.7167E+01
      3.437  0.1610E+01  0.1610E+01  0.7261E+01  0.7260E+01
      3.495  0.1792E+01  0.1791E+01  0.7364E+01  0.7364E+01
      3.553  0.1930E+01  0.1929E+01  0.7476E+01  0.7475E+01
      3.611  0.1852E+01  0.1853E+01  0.7583E+01  0.7582E+01
      3.668  0.1596E+01  0.1597E+01  0.7675E+01  0.7675E+01
      3.726  0.1527E+01  0.1526E+01  0.7763E+01  0.7763E+01
      3.784  0.1699E+01  0.1698E+01  0.7862E+01  0.7861E+01
      3.842  0.1977E+01  0.1976E+01  0.7976E+01  0.7975E+01
      3.899  0.2273E+01  0.2272E+01  0.8107E+01  0.8106E+01
      3.957  0.2512E+01  0.2511E+01  0.8252E+01  0.8252E+01
      4.015  0.2727E+01  0.2727E+01  0.8410E+01  0.8409E+01
      4.073  0.2757E+01  0.2758E+01  0.8569E+01  0.8568E+01
      4.130  0.2600E+01  0.2600E+01  0.8719E+01  0.8719E+01
      4.188  0.2593E+01  0.2593E+01  0.8869E+01  0.8868E+01
      4.246  0.2823E+01  0.2822E+01  0.9032E+01  0.9031E+01
      4.304  0.2825E+01  0.2826E+01  0.9195E+01  0.9195E+01
      4.361  0.2518E+01  0.2519E+01  0.9341E+01  0.9340E+01
      4.419  0.2359E+01  0.2359E+01  0.9477E+01  0.9477E+01
      4.477  0.2395E+01  0.2394E+01  0.9616E+01  0.9615E+01
      4.535  0.2308E+01  0.2309E+01  0.9749E+01  0.9748E+01
      4.592  0.2026E+01  0.2028E+01  0.9866E+01  0.9865E+01
      4.650  0.1909E+01  0.1909E+01  0.9976E+01  0.9976E+01
      4.708  0.1978E+01  0.1978E+01  0.1009E+02  0.1009E+02
      4.766  0.1942E+01  0.1942E+01  0.1020E+02  0.1020E+02
      4.823  0.2007E+01  0.2005E+01  0.1032E+02  0.1032E+02
      4.881  0.2276E+01  0.2275E+01  0.1045E+02  0.1045E+02
      4.939  0.2467E+01  0.2466E+01  0.1059E+02  0.1059E+02
      4.997  0.2705E+01  0.2704E+01  0.1075E+02  0.1075E+02
      5.054  0.2917E+01  0.2916E+01  0.1092E+02  0.1092E+02
      5.112  0.2893E+01  0.2893E+01  0.1108E+02  0.1108E+02
      5.170  0.2750E+01  0.2750E+01  0.1124E+02  0.1124E+02
      5.228  0.2629E+01  0.2629E+01  0.1140E+02  0.1139E+02
      5.285  0.2556E+01  0.2556E+01  0.1154E+02  0.1154E+02
      5.343  0.2574E+01  0.2573E+01  0.1169E+02  0.1169E+02
      5.401  0.2770E+01  0.2768E+01  0.1185E+02  0.1185E+02
      5.459  0.2949E+01  0.2948E+01  0.1202E+02  0.1202E+02
      5.516  0.3011E+01  0.3010E+01  0.1220E+02  0.1220E+02
      5.574  0.3083E+01  0.3083E+01  0.1237E+02  0.1237E+02
      5.632  0.2973E+01  0.2974E+01  0.1255E+02  0.1255E+02
      5.690  0.2891E+01  0.2890E+01  0.1271E+02  0.1271E+02
      5.747  0.3112E+01  0.3110E+01  0.1289E+02  0.1289E+02
      5.805  0.3497E+01  0.3494E+01  0.1310E+02  0.1309E+02
      5.863  0.3755E+01  0.3754E+01  0.1331E+02  0.1331E+02
      5.921  0.3768E+01  0.3768E+01  0.1353E+02  0.1353E+02
      5.978  0.3736E+01  0.3736E+01  0.1375E+02  0.1374E+02
      6.036  0.3698E+01  0.3698E+01  0.1396E+02  0.1396E+02
      6.094  0.3644E+01  0.3643E+01  0.1417E+02  0.1417E+02
      6.152  0.3598E+01  0.3598E+01  0.1438E+02  0.1438E+02
      6.209  0.3591E+01  0.3590E+01  0.1459E+02  0.1458E+02
      6.267  0.3748E+01  0.3746E+01  0.1480E+02  0.1480E+02
      6.325  0.3910E+01  0.3909E+01  0.1503E+02  0.1503E+02
      6.383  0.3974E+01  0.3973E+01  0.1526E+02  0.1526E+02
      6.440  0.4054E+01  0.4054E+01  0.1549E+02  0.1549E+02
      6.498  0.4041E+01  0.4042E+01  0.1572E+02  0.1572E+02
      6.556  0.3857E+01  0.3858E+01  0.1595E+02  0.1595E+02
      6.614  0.3684E+01  0.3685E+01  0.1616E+02  0.1616E+02
      6.671  0.3458E+01  0.3459E+01  0.1636E+02  0.1636E+02
      6.729  0.3233E+01  0.3234E+01  0.1655E+02  0.1655E+02
      6.787  0.3257E+01  0.3255E+01  0.1674E+02  0.1673E+02
      6.844  0.3357E+01  0.3357E+01  0.1693E+02  0.1693E+02
      6.902  0.3350E+01  0.3350E+01  0.1712E+02  0.1712E+02
      6.960  0.3422E+01  0.3421E+01  0.1732E+02  0.1732E+02
      7.018  0.3447E+01  0.3448E+01  0.1752E+02  0.1752E+02
      7.075  0.3403E+01  0.3403E+01  0.1772E+02  0.1772E+02
      7.133  0.3448E+01  0.3447E+01  0.1792E+02  0.1791E+02
      7.191  0.3612E+01  0.3611E+01  0.1812E+02  0.1812E+02
      7.249  0.3944E+01  0.3940E+01  0.1835E+02  0.1835E+02
      7.306  0.4459E+01  0.4455E+01  0.1861E+02  0.1861E+02
      7.364  0.4987E+01  0.4983E+01  0.1890E+02  0.1890E+02
      7.422  0.5123E+01  0.5123E+01  0.1919E+02  0.1919E+02
      7.480  0.4944E+01  0.4944E+01  0.1948E+02  0.1948E+02
      7.537  0.4974E+01  0.4972E+01  0.1977E+02  0.1976E+02
      7.595  0.5295E+01  0.5291E+01  0.2007E+02  0.2007E+02
      7.653  0.5894E+01  0.5889E+01  0.2041E+02  0.2041E+02
      7.711  0.6445E+01  0.6443E+01  0.2079E+02  0.2078E+02
      7.768  0.6401E+01  0.6404E+01  0.2116E+02  0.2115E+02
      7.826  0.5786E+01  0.5792E+01  0.2149E+02  0.2149E+02
      7.884  0.4846E+01  0.4853E+01  0.2177E+02  0.2177E+02
      7.942  0.4093E+01  0.4096E+01  0.2201E+02  0.2200E+02
      7.999  0.3781E+01  0.3783E+01  0.2223E+02  0.2222E+02
      8.057  0.3569E+01  0.3571E+01  0.2243E+02  0.2243E+02
      8.115  0.3420E+01  0.3420E+01  0.2263E+02  0.2263E+02
      8.173  0.3345E+01  0.3346E+01  0.2282E+02  0.2282E+02
      8.230  0.3215E+01  0.3216E+01  0.2301E+02  0.2301E+02
      8.288  0.3352E+01  0.3349E+01  0.2320E+02  0.2320E+02
      8.346  0.3799E+01  0.3795E+01  0.2342E+02  0.2342E+02
      8.404  0.4040E+01  0.4039E+01  0.2366E+02  0.2365E+02
      8.461  0.3974E+01  0.3974E+01  0.2388E+02  0.2388E+02
      8.519  0.3853E+01  0.3854E+01  0.2411E+02  0.2411E+02
      8.577  0.3626E+01  0.3629E+01  0.2432E+02  0.2432E+02
      8.635  0.3252E+01  0.3255E+01  0.2450E+02  0.2450E+02
      8.692  0.2845E+01  0.2847E+01  0.2467E+02  0.2467E+02
      8.750  0.2543E+01  0.2545E+01  0.2482E+02  0.2481E+02
      8.808  0.2276E+01  0.2279E+01  0.2495E+02  0.2495E+02
      8.866  0.2047E+01  0.2048E+01  0.2507E+02  0.2506E+02
      8.923  0.2001E+01  0.2000E+01  0.2518E+02  0.2518E+02
      8.981  0.2102E+01  0.2101E+01  0.2530E+02  0.2530E+02
      9.039  0.2212E+01  0.2211E+01  0.2543E+02  0.2543E+02
      9.097  0.2294E+01  0.2294E+01  0.2556E+02  0.2556E+02
      9.154  0.2262E+01  0.2263E+01  0.2569E+02  0.2569E+02
      9.212  0.2175E+01  0.2175E+01  0.2582E+02  0.2582E+02
      9.270  0.2294E+01  0.2291E+01  0.2595E+02  0.2595E+02
      9.328  0.2526E+01  0.2525E+01  0.2610E+02  0.2610E+02
      9.385  0.2463E+01  0.2465E+01  0.2624E+02  0.2624E+02
      9.443  0.2223E+01  0.2225E+01  0.2637E+02  0.2637E+02
      9.501  0.2279E+01  0.2276E+01  0.2650E+02  0.2650E+02
      9.559  0.2659E+01  0.2655E+01  0.2665E+02  0.2665E+02
      9.616  0.2947E+01  0.2946E+01  0.2682E+02  0.2682E+02
      9.674  0.2888E+01  0.2890E+01  0.2699E+02  0.2699E+02
      9.732  0.2719E+01  0.2720E+01  0.2715E+02  0.2715E+02
      9.790  0.2685E+01  0.2684E+01  0.2730E+02  0.2730E+02
      9.847  0.2753E+01  0.2752E+01  0.2746E+02  0.2746E+02
      9.905  0.2839E+01  0.2839E+01  0.2763E+02  0.2763E+02
      9.963  0.2737E+01  0.2739E+01  0.2779E+02  0.2778E+02
     10.021  0.2511E+01  0.2513E+01  0.2793E+02  0.2793E+02
     10.078  0.2492E+01  0.2491E+01  0.2807E+02  0.2807E+02
     10.136  0.2643E+01  0.2642E+01  0.2823E+02  0.2823E+02
     10.194  0.2841E+01  0.2838E+01  0.2839E+02  0.2839E+02
     10.251  0.3127E+01  0.3123E+01  0.2857E+02  0.2857E+02
     10.309  0.3389E+01  0.3387E+01  0.2877E+02  0.2877E+02
     10.367  0.3489E+01  0.3488E+01  0.2897E+02  0.2897E+02
     10.425  0.3594E+01  0.3592E+01  0.2918E+02  0.2917E+02
     10.482  0.4005E+01  0.3998E+01  0.2941E+02  0.2941E+02
     10.540  0.4913E+01  0.4901E+01  0.2969E+02  0.2969E+02
     10.598  0.5997E+01  0.5988E+01  0.3004E+02  0.3003E+02
     10.656  0.6496E+01  0.6493E+01  0.3041E+02  0.3041E+02
     10.713  0.6524E+01  0.6523E+01  0.3079E+02  0.3079E+02
     10.771  0.6477E+01  0.6475E+01  0.3116E+02  0.3116E+02
     10.829  0.6474E+01  0.6471E+01  0.3154E+02  0.3153E+02
     10.887  0.6632E+01  0.6625E+01  0.3192E+02  0.3192E+02
     10.944  0.7215E+01  0.7205E+01  0.3234E+02  0.3233E+02
     11.002  0.8030E+01  0.8019E+01  0.3280E+02  0.3280E+02
     11.060  0.8667E+01  0.8656E+01  0.3330E+02  0.3330E+02
     11.118  0.9195E+01  0.9186E+01  0.3383E+02  0.3383E+02
     11.175  0.9514E+01  0.9520E+01  0.3438E+02  0.3438E+02
     11.233  0.8996E+01  0.9027E+01  0.3490E+02  0.3490E+02
     11.291  0.7562E+01  0.7611E+01  0.3534E+02  0.3534E+02
     11.349  0.5934E+01  0.5985E+01  0.3568E+02  0.3568E+02
     11.406  0.4660E+01  0.4705E+01  0.3595E+02  0.3596E+02
     11.464  0.3494E+01  0.3525E+01  0.3616E+02  0.3616E+02
     11.522  0.2579E+01  0.2592E+01  0.3630E+02  0.3631E+02
     11.580  0.2265E+01  0.2265E+01  0.3644E+02  0.3644E+02
     11.637  0.2608E+01  0.2607E+01  0.3659E+02  0.3659E+02
     11.695  0.3362E+01  0.3365E+01  0.3678E+02  0.3679E+02
     11.753  0.3925E+01  0.3935E+01  0.3701E+02  0.3701E+02
     11.811  0.3867E+01  0.3884E+01  0.3723E+02  0.3724E+02
     11.868  0.3590E+01  0.3606E+01  0.3744E+02  0.3745E+02
     11.926  0.3420E+01  0.3423E+01  0.3764E+02  0.3764E+02
     11.984  0.3384E+01  0.3375E+01  0.3783E+02  0.3784E+02
     12.042  0.3453E+01  0.3460E+01  0.3803E+02  0.3804E+02
     12.099  0.3513E+01  0.3558E+01  0.3823E+02  0.3825E+02
     12.157  0.3496E+01  0.3566E+01  0.3844E+02  0.3845E+02
     12.215  0.3436E+01  0.3510E+01  0.3863E+02  0.3865E+02
     12.273  0.3226E+01  0.3257E+01  0.3882E+02  0.3884E+02
     12.330  0.2808E+01  0.2762E+01  0.3898E+02  0.3900E+02
     12.388  0.2428E+01  0.2369E+01  0.3912E+02  0.3914E+02
     12.446  0.2171E+01  0.2168E+01  0.3925E+02  0.3926E+02
     12.504  0.2003E+01  0.2027E+01  0.3937E+02  0.3938E+02
     12.561  0.1907E+01  0.1925E+01  0.3948E+02  0.3949E+02
     12.619  0.1661E+01  0.1663E+01  0.3957E+02  0.3959E+02
     12.677  0.1343E+01  0.1318E+01  0.3965E+02  0.3967E+02
     12.735  0.1246E+01  0.1213E+01  0.3972E+02  0.3974E+02
     12.792  0.1187E+01  0.1227E+01  0.3979E+02  0.3981E+02
     12.850  0.1015E+01  0.1098E+01  0.3985E+02  0.3987E+02
     12.908  0.7835E+00  0.8071E+00  0.3989E+02  0.3992E+02
     12.966  0.5367E+00  0.4965E+00  0.3992E+02  0.3995E+02
     13.023  0.3305E+00  0.2887E+00  0.3994E+02  0.3996E+02
     13.081  0.2166E+00  0.2074E+00  0.3996E+02  0.3997E+02
     13.139  0.1832E+00  0.1884E+00  0.3997E+02  0.3998E+02
     13.197  0.1806E+00  0.1429E+00  0.3998E+02  0.3999E+02
     13.254  0.1525E+00  0.7345E-01  0.3999E+02  0.4000E+02
     13.312  0.1053E+00  0.2829E-01  0.3999E+02  0.4000E+02
     13.370  0.6802E-01  0.9515E-02  0.4000E+02  0.4000E+02
     13.428  0.3658E-01  0.3005E-02  0.4000E+02  0.4000E+02
     13.485  0.1497E-01  0.9545E-03  0.4000E+02  0.4000E+02
     13.543  0.5223E-02  0.2031E-03  0.4000E+02  0.4000E+02
     13.601  0.1623E-02  0.0000E+00  0.4000E+02  0.4000E+02
     13.658  0.4395E-03  0.0000E+00  0.4000E+02  0.4000E+02
     13.716  0.1391E-03  0.0000E+00  0.4000E+02  0.4000E+02
     13.774  0.0000E+00  0.0000E+00  0.4000E+02  0.4000E+02
     13.832  0.0000E+00  0.0000E+00  0.4000E+02  0.4000E+02
     13.889  0.0000E+00  0.0000E+00  0.4000E+02  0.4000E+02
     13.947  0.0000E+00  0.0000E+00  0.4000E+02  0.4000E+02
     14.005  0.0000E+00  0.0000E+00  0.4000E+02  0.4000E+02
     14.063  0.0000E+00  0.0000E+00  0.4000E+02  0.4000E+02
     14.120  0.0000E+00  0.0000E+00  0.4000E+02  0.4000E+02
     14.12045473     -3.20327131  301      9.28927821      1.00000000
     -3.203  0.0000E+00  0.0000E+00  0.0000E+00  0.0000E+00  0.0000E+00  0.0000E+00  0.0000E+00  0.0000E+00  0.0000E+00  0.0000E+00  0.0000E+00  0.0000E+00  0.0000E+00  0.0000E+00  0.0000E+00  0.0000E+00  0.0000E+00  0.0000E+00
     -3.146  0.0000E+00  0.0000E+00  0.0000E+00  0.0000E+00  0.0000E+00  0.0000E+00  0.0000E+00  0.0000E+00  0.0000E+00  0.0000E+00  0.0000E+00  0.0000E+00  0.0000E+00  0.0000E+00  0.0000E+00  0.0000E+00  0.0000E+00  0.0000E+00
     -3.088  0.0000E+00  0.0000E+00  0.0000E+00  0.0000E+00  0.0000E+00  0.0000E+00  0.0000E+00  0.0000E+00  0.0000E+00  0.0000E+00  0.0000E+00  0.0000E+00  0.0000E+00  0.0000E+00  0.0000E+00  0.0000E+00  0.0000E+00  0.0000E+00
     -3.030  0.0000E+00  0.0000E+00  0.0000E+00  0.0000E+00  0.0000E+00  0.0000E+00  0.0000E+00  0.0000E+00  0.0000E+00  0.0000E+00  0.0000E+00  0.0000E+00  0.0000E+00  0.0000E+00  0.0000E+00  0.0000E+00  0.0000E+00  0.0000E+00
     -2.972  0.0000E+00  0.0000E+00  0.0000E+00  0.0000E+00  0.0000E+00  0.0000E+00  0.0000E+00  0.0000E+00  0.0000E+00  0.0000E+00  0.0000E+00  0.0000E+00  0.0000E+00  0.0000E+00  0.0000E+00  0.0000E+00  0.0000E+00  0.0000E+00
     -2.915  0.0000E+00  0.0000E+00  0.0000E+00  0.0000E+00  0.0000E+00  0.0000E+00  0.0000E+00  0.0000E+00  0.0000E+00  0.0000E+00  0.0000E+00  0.0000E+00  0.0000E+00  0.0000E+00  0.0000E+00  0.0000E+00  0.0000E+00  0.0000E+00
     -2.857  0.2173E-06  0.2163E-06  0.3955E-22  0.6446E-23  0.8727E-09  0.8698E-09  0.3955E-22  0.6446E-23  0.6998E-24  0.1126E-23  0.1560E-21  0.8236E-22  0.4235E-10  0.4211E-10  0.1560E-21  0.8236E-22  0.2848E-20  0.7970E-21
     -2.799  0.1490E-05  0.1483E-05  0.3182E-08  0.3166E-08  0.9882E-08  0.9843E-08  0.3182E-08  0.3166E-08  0.1365E-20  0.1122E-21  0.3555E-10  0.3541E-10  0.3163E-09  0.3145E-09  0.3555E-10  0.3541E-10  0.1890E-10  0.1881E-10
     -2.741  0.3709E-05  0.3691E-05  0.6914E-08  0.6880E-08  0.2336E-07  0.2327E-07  0.6914E-08  0.6880E-08  0.2968E-20  0.2463E-21  0.7725E-10  0.7695E-10  0.7790E-09  0.7747E-09  0.7725E-10  0.7695E-10  0.4106E-10  0.4087E-10
     -2.684  0.1681E-04  0.1673E-04  0.5386E-07  0.5360E-07  0.1336E-06  0.1331E-06  0.5386E-07  0.5360E-07  0.3388E-09  0.3372E-09  0.9871E-09  0.9830E-09  0.3607E-08  0.3587E-08  0.9871E-09  0.9830E-09  0.2248E-09  0.2238E-09
     -2.626  0.5068E-04  0.5043E-04  0.1641E-06  0.1633E-06  0.4050E-06  0.4034E-06  0.1641E-06  0.1633E-06  0.1278E-08  0.1271E-08  0.3287E-08  0.3274E-08  0.1080E-07  0.1074E-07  0.3287E-08  0.3274E-08  0.6174E-09  0.6145E-09
     -2.568  0.1570E-03  0.1563E-03  0.5129E-06  0.5104E-06  0.1263E-05  0.1257E-05  0.5129E-06  0.5104E-06  0.3506E-08  0.3489E-08  0.9736E-08  0.9696E-08  0.3406E-07  0.3388E-07  0.9736E-08  0.9696E-08  0.2422E-08  0.2411E-08
     -2.510  0.4767E-03  0.4745E-03  0.1661E-05  0.1653E-05  0.3966E-05  0.3950E-05  0.1661E-05  0.1653E-05  0.1249E-07  0.1243E-07  0.3293E-07  0.3280E-07  0.1046E-06  0.1041E-06  0.3293E-07  0.3280E-07  0.8302E-08  0.8265E-08
     -2.453  0.1320E-02  0.1315E-02  0.5002E-05  0.4980E-05  0.1148E-04  0.1144E-04  0.5002E-05  0.4980E-05  0.4013E-07  0.3995E-07  0.1021E-06  0.1017E-06  0.2919E-06  0.2905E-06  0.1021E-06  0.1017E-06  0.2440E-07  0.2430E-07
     -2.395  0.3125E-02  0.3115E-02  0.1371E-04  0.1366E-04  0.2951E-04  0.2942E-04  0.1371E-04  0.1366E-04  0.1183E-06  0.1178E-06  0.2895E-06  0.2884E-06  0.7031E-06  0.7003E-06  0.2895E-06  0.2884E-06  0.6615E-07  0.6590E-07
     -2.337  0.5959E-02  0.5946E-02  0.3185E-04  0.3175E-04  0.6346E-04  0.6331E-04  0.3185E-04  0.3175E-04  0.3238E-06  0.3226E-06  0.7295E-06  0.7274E-06  0.1381E-05  0.1377E-05  0.7295E-06  0.7274E-06  0.1545E-06  0.1540E-06
     -2.279  0.8878E-02  0.8867E-02  0.5940E-04  0.5927E-04  0.1099E-03  0.1097E-03  0.5940E-04  0.5927E-04  0.7379E-06  0.7357E-06  0.1521E-05  0.1518E-05  0.2178E-05  0.2174E-05  0.1521E-05  0.1518E-05  0.3209E-06  0.3200E-06
     -2.222  0.1064E-01  0.1063E-01  0.9191E-04  0.9176E-04  0.1590E-03  0.1588E-03  0.9191E-04  0.9176E-04  0.1348E-05  0.1345E-05  0.2612E-05  0.2609E-05  0.2979E-05  0.2974E-05  0.2612E-05  0.2609E-05  0.6816E-06  0.6795E-06
     -2.164  0.1186E-01  0.1185E-01  0.1366E-03  0.1364E-03  0.2229E-03  0.2226E-03  0.1366E-03  0.1364E-03  0.2244E-05  0.2239E-05  0.4218E-05  0.4211E-05  0.4217E-05  0.4208E-05  0.4218E-05  0.4211E-05  0.1497E-05  0.1493E-05
     -2.106  0.1465E-01  0.1464E-01  0.2141E-03  0.2137E-03  0.3351E-03  0.3346E-03  0.2141E-03  0.2137E-03  0.4087E-05  0.4077E-05  0.7334E-05  0.7321E-05  0.6399E-05  0.6386E-05  0.7334E-05  0.7321E-05  0.2819E-05  0.2813E-05
     -2.048  0.1835E-01  0.1834E-01  0.3085E-03  0.3081E-03  0.4726E-03  0.4722E-03  0.3085E-03  0.3081E-03  0.7144E-05  0.7131E-05  0.1206E-04  0.1205E-04  0.8661E-05  0.8651E-05  0.1206E-04  0.1205E-04  0.3996E-05  0.3993E-05
     -1.991  0.1895E-01  0.1896E-01  0.3518E-03  0.3517E-03  0.5407E-03  0.5406E-03  0.3518E-03  0.3517E-03  0.9870E-05  0.9862E-05  0.1589E-04  0.1589E-04  0.9318E-05  0.9316E-05  0.1589E-04  0.1589E-04  0.4288E-05  0.4289E-05
     -1.933  0.1636E-01  0.1637E-01  0.3433E-03  0.3433E-03  0.5521E-03  0.5519E-03  0.3433E-03  0.3433E-03  0.1163E-04  0.1163E-04  0.1834E-04  0.1834E-04  0.9218E-05  0.9214E-05  0.1834E-04  0.1834E-04  0.4405E-05  0.4403E-05
     -1.875  0.1615E-01  0.1614E-01  0.4040E-03  0.4034E-03  0.6736E-03  0.6728E-03  0.4040E-03  0.4034E-03  0.1599E-04  0.1596E-04  0.2518E-04  0.2514E-04  0.1172E-04  0.1170E-04  0.2518E-04  0.2514E-04  0.6344E-05  0.6330E-05
     -1.817  0.1996E-01  0.1994E-01  0.5816E-03  0.5807E-03  0.9022E-03  0.9014E-03  0.5816E-03  0.5807E-03  0.2392E-04  0.2389E-04  0.3747E-04  0.3743E-04  0.1788E-04  0.1785E-04  0.3747E-04  0.3743E-04  0.1137E-04  0.1134E-04
     -1.760  0.2283E-01  0.2283E-01  0.7598E-03  0.7591E-03  0.9988E-03  0.9988E-03  0.7598E-03  0.7591E-03  0.3010E-04  0.3009E-04  0.4631E-04  0.4630E-04  0.2488E-04  0.2485E-04  0.4631E-04  0.4630E-04  0.1863E-04  0.1860E-04
     -1.702  0.2238E-01  0.2238E-01  0.8453E-03  0.8450E-03  0.9410E-03  0.9411E-03  0.8453E-03  0.8450E-03  0.3335E-04  0.3333E-04  0.4996E-04  0.4995E-04  0.2937E-04  0.2935E-04  0.4996E-04  0.4995E-04  0.2449E-04  0.2447E-04
     -1.644  0.2142E-01  0.2142E-01  0.8691E-03  0.8689E-03  0.1012E-02  0.1011E-02  0.8691E-03  0.8689E-03  0.3984E-04  0.3981E-04  0.5989E-04  0.5984E-04  0.3029E-04  0.3028E-04  0.5989E-04  0.5984E-04  0.2507E-04  0.2507E-04
     -1.586  0.2169E-01  0.2168E-01  0.9068E-03  0.9064E-03  0.1250E-02  0.1249E-02  0.9068E-03  0.9064E-03  0.5315E-04  0.5308E-04  0.7867E-04  0.7861E-04  0.3036E-04  0.3035E-04  0.7867E-04  0.7861E-04  0.2271E-04  0.2272E-04
     -1.529  0.2279E-01  0.2278E-01  0.1038E-02  0.1037E-02  0.1385E-02  0.1385E-02  0.1038E-02  0.1037E-02  0.7441E-04  0.7432E-04  0.9704E-04  0.9699E-04  0.3346E-04  0.3343E-04  0.9704E-04  0.9699E-04  0.2386E-04  0.2385E-04
     -1.471  0.2293E-01  0.2293E-01  0.1171E-02  0.1171E-02  0.1321E-02  0.1321E-02  0.1171E-02  0.1171E-02  0.9355E-04  0.9352E-04  0.1069E-03  0.1069E-03  0.3701E-04  0.3699E-04  0.1069E-03  0.1069E-03  0.2763E-04  0.2761E-04
     -1.413  0.2082E-01  0.2083E-01  0.1138E-02  0.1138E-02  0.1261E-02  0.1260E-02  0.1138E-02  0.1138E-02  0.9106E-04  0.9112E-04  0.1082E-03  0.1082E-03  0.3739E-04  0.3738E-04  0.1082E-03  0.1082E-03  0.3035E-04  0.3033E-04
     -1.355  0.1951E-01  0.1951E-01  0.1120E-02  0.1120E-02  0.1425E-02  0.1424E-02  0.1120E-02  0.1120E-02  0.8064E-04  0.8065E-04  0.1179E-03  0.1178E-03  0.4297E-04  0.4290E-04  0.1179E-03  0.1178E-03  0.3901E-04  0.3894E-04
     -1.298  0.2275E-01  0.2273E-01  0.1434E-02  0.1432E-02  0.1849E-02  0.1847E-02  0.1434E-02  0.1432E-02  0.9798E-04  0.9785E-04  0.1516E-03  0.1515E-03  0.6491E-04  0.6477E-04  0.1516E-03  0.1515E-03  0.6143E-04  0.6132E-04
     -1.240  0.2722E-01  0.2721E-01  0.1862E-02  0.1860E-02  0.2281E-02  0.2280E-02  0.1862E-02  0.1860E-02  0.1377E-03  0.1376E-03  0.1866E-03  0.1865E-03  0.9467E-04  0.9454E-04  0.1866E-03  0.1865E-03  0.8472E-04  0.8465E-04
     -1.182  0.2767E-01  0.2767E-01  0.1991E-02  0.1991E-02  0.2406E-02  0.2406E-02  0.1991E-02  0.1991E-02  0.1715E-03  0.1714E-03  0.1943E-03  0.1943E-03  0.1102E-03  0.1102E-03  0.1943E-03  0.1943E-03  0.8872E-04  0.8872E-04
     -1.124  0.2571E-01  0.2571E-01  0.1952E-02  0.1951E-02  0.2341E-02  0.2341E-02  0.1952E-02  0.1951E-02  0.1983E-03  0.1982E-03  0.2056E-03  0.2055E-03  0.1072E-03  0.1071E-03  0.2056E-03  0.2055E-03  0.8156E-04  0.8156E-04
     -1.067  0.2648E-01  0.2647E-01  0.2133E-02  0.2131E-02  0.2583E-02  0.2580E-02  0.2133E-02  0.2131E-02  0.2313E-03  0.2311E-03  0.2658E-03  0.2655E-03  0.1062E-03  0.1061E-03  0.2658E-03  0.2655E-03  0.8817E-04  0.8809E-04
     -1.009  0.2876E-01  0.2876E-01  0.2385E-02  0.2384E-02  0.3062E-02  0.3060E-02  0.2385E-02  0.2384E-02  0.2650E-03  0.2649E-03  0.3385E-03  0.3383E-03  0.1124E-03  0.1124E-03  0.3385E-03  0.3383E-03  0.9866E-04  0.9864E-04
     -0.951  0.2595E-01  0.2597E-01  0.2183E-02  0.2185E-02  0.2992E-02  0.2994E-02  0.2183E-02  0.2185E-02  0.2598E-03  0.2599E-03  0.3389E-03  0.3391E-03  0.1022E-03  0.1022E-03  0.3389E-03  0.3391E-03  0.8587E-04  0.8595E-04
     -0.893  0.1977E-01  0.1979E-01  0.1768E-02  0.1769E-02  0.2434E-02  0.2436E-02  0.1768E-02  0.1769E-02  0.2307E-03  0.2308E-03  0.3027E-03  0.3027E-03  0.7833E-04  0.7837E-04  0.3027E-03  0.3027E-03  0.6662E-04  0.6665E-04
     -0.836  0.1846E-01  0.1845E-01  0.1861E-02  0.1860E-02  0.2434E-02  0.2432E-02  0.1861E-02  0.1860E-02  0.2594E-03  0.2591E-03  0.3407E-03  0.3404E-03  0.7973E-04  0.7961E-04  0.3407E-03  0.3404E-03  0.7448E-04  0.7438E-04
     -0.778  0.2232E-01  0.2230E-01  0.2447E-02  0.2444E-02  0.3218E-02  0.3214E-02  0.2447E-02  0.2444E-02  0.3581E-03  0.3577E-03  0.4320E-03  0.4316E-03  0.1251E-03  0.1248E-03  0.4320E-03  0.4316E-03  0.1083E-03  0.1081E-03
     -0.720  0.2658E-01  0.2656E-01  0.3111E-02  0.3108E-02  0.4185E-02  0.4181E-02  0.3111E-02  0.3108E-02  0.4621E-03  0.4618E-03  0.4963E-03  0.4961E-03  0.1979E-03  0.1976E-03  0.4963E-03  0.4961E-03  0.1576E-03  0.1573E-03
     -0.662  0.2908E-01  0.2908E-01  0.3601E-02  0.3599E-02  0.4900E-02  0.4898E-02  0.3601E-02  0.3599E-02  0.5056E-03  0.5056E-03  0.5498E-03  0.5495E-03  0.2511E-03  0.2510E-03  0.5498E-03  0.5495E-03  0.2085E-03  0.2083E-03
     -0.605  0.2796E-01  0.2797E-01  0.3631E-02  0.3631E-02  0.4945E-02  0.4945E-02  0.3631E-02  0.3631E-02  0.4771E-03  0.4772E-03  0.5923E-03  0.5921E-03  0.2439E-03  0.2440E-03  0.5923E-03  0.5921E-03  0.2280E-03  0.2279E-03
     -0.547  0.2601E-01  0.2601E-01  0.3565E-02  0.3564E-02  0.4845E-02  0.4843E-02  0.3565E-02  0.3564E-02  0.4983E-03  0.4979E-03  0.6515E-03  0.6511E-03  0.2196E-03  0.2195E-03  0.6515E-03  0.6511E-03  0.2203E-03  0.2203E-03
     -0.489  0.2693E-01  0.2692E-01  0.3894E-02  0.3892E-02  0.5448E-02  0.5444E-02  0.3894E-02  0.3892E-02  0.6096E-03  0.6092E-03  0.7763E-03  0.7758E-03  0.2338E-03  0.2336E-03  0.7763E-03  0.7758E-03  0.2269E-03  0.2268E-03
     -0.431  0.2632E-01  0.2633E-01  0.4000E-02  0.4000E-02  0.5793E-02  0.5793E-02  0.4000E-02  0.4000E-02  0.6547E-03  0.6548E-03  0.8357E-03  0.8358E-03  0.2403E-03  0.2403E-03  0.8357E-03  0.8358E-03  0.2310E-03  0.2310E-03
     -0.374  0.2175E-01  0.2177E-01  0.3506E-02  0.3507E-02  0.5343E-02  0.5344E-02  0.3506E-02  0.3507E-02  0.6247E-03  0.6247E-03  0.7933E-03  0.7933E-03  0.1972E-03  0.1973E-03  0.7933E-03  0.7933E-03  0.1962E-03  0.1963E-03
     -0.316  0.1956E-01  0.1956E-01  0.3373E-02  0.3372E-02  0.5656E-02  0.5652E-02  0.3373E-02  0.3372E-02  0.7102E-03  0.7096E-03  0.9036E-03  0.9028E-03  0.1684E-03  0.1683E-03  0.9036E-03  0.9028E-03  0.1678E-03  0.1678E-03