  16  16   1   0
  0.1935202E+02  0.4168290E-09  0.4168290E-09  0.1782093E-08  0.5000000E-15
  1.000000000000000E-004
  CAR 
 unknown system                          
      9.29803227     -4.51911783  301      5.40920665      1.00000000
     -4.519  0.0000E+00  0.0000E+00  0.0000E+00  0.0000E+00
     -4.473  0.0000E+00  0.0000E+00  0.0000E+00  0.0000E+00
     -4.427  0.0000E+00  0.0000E+00  0.0000E+00  0.0000E+00
     -4.381  0.0000E+00  0.0000E+00  0.0000E+00  0.0000E+00
     -4.335  0.5940E-05  0.5979E-05  0.2736E-06  0.2754E-06
     -4.289  0.8980E-05  0.9038E-05  0.6872E-06  0.6916E-06
     -4.243  0.1039E-03  0.1046E-03  0.5472E-05  0.5508E-05
     -4.197  0.3276E-03  0.3298E-03  0.2056E-04  0.2070E-04
     -4.151  0.7637E-03  0.7687E-03  0.5573E-04  0.5610E-04
     -4.105  0.1883E-02  0.1895E-02  0.1425E-03  0.1434E-03
     -4.059  0.4847E-02  0.4878E-02  0.3657E-03  0.3681E-03
     -4.012  0.1185E-01  0.1192E-01  0.9114E-03  0.9173E-03
     -3.966  0.2783E-01  0.2800E-01  0.2193E-02  0.2207E-02
     -3.920  0.6155E-01  0.6187E-01  0.5028E-02  0.5056E-02
     -3.874  0.1212E+00  0.1217E+00  0.1061E-01  0.1066E-01
     -3.828  0.2037E+00  0.2043E+00  0.1999E-01  0.2007E-01
     -3.782  0.2891E+00  0.2897E+00  0.3330E-01  0.3342E-01
     -3.736  0.3625E+00  0.3630E+00  0.5000E-01  0.5014E-01
     -3.690  0.4393E+00  0.4399E+00  0.7023E-01  0.7040E-01
     -3.644  0.5323E+00  0.5331E+00  0.9475E-01  0.9495E-01
     -3.598  0.6000E+00  0.6003E+00  0.1224E+00  0.1226E+00
     -3.552  0.6081E+00  0.6081E+00  0.1504E+00  0.1506E+00
     -3.506  0.6166E+00  0.6169E+00  0.1788E+00  0.1790E+00
     -3.460  0.6858E+00  0.6865E+00  0.2104E+00  0.2106E+00
     -3.414  0.7660E+00  0.7665E+00  0.2457E+00  0.2459E+00
     -3.368  0.7985E+00  0.7985E+00  0.2825E+00  0.2827E+00
     -3.322  0.8075E+00  0.8075E+00  0.3196E+00  0.3199E+00
     -3.276  0.8297E+00  0.8299E+00  0.3579E+00  0.3582E+00
     -3.230  0.8581E+00  0.8582E+00  0.3974E+00  0.3977E+00
     -3.183  0.8636E+00  0.8635E+00  0.4372E+00  0.4375E+00
     -3.137  0.8528E+00  0.8528E+00  0.4765E+00  0.4768E+00
     -3.091  0.8978E+00  0.8985E+00  0.5179E+00  0.5182E+00
     -3.045  0.1019E+01  0.1020E+01  0.5648E+00  0.5652E+00
     -2.999  0.1118E+01  0.1118E+01  0.6163E+00  0.6167E+00
     -2.953  0.1139E+01  0.1139E+01  0.6688E+00  0.6692E+00
     -2.907  0.1157E+01  0.1157E+01  0.7221E+00  0.7225E+00
     -2.861  0.1205E+01  0.1205E+01  0.7776E+00  0.7781E+00
     -2.815  0.1183E+01  0.1182E+01  0.8321E+00  0.8325E+00
     -2.769  0.1067E+01  0.1066E+01  0.8813E+00  0.8817E+00
     -2.723  0.1023E+01  0.1023E+01  0.9284E+00  0.9288E+00
     -2.677  0.1143E+01  0.1144E+01  0.9811E+00  0.9815E+00
     -2.631  0.1334E+01  0.1336E+01  0.1043E+01  0.1043E+01
     -2.585  0.1473E+01  0.1473E+01  0.1110E+01  0.1111E+01
     -2.539  0.1503E+01  0.1503E+01  0.1180E+01  0.1180E+01
     -2.493  0.1500E+01  0.1500E+01  0.1249E+01  0.1249E+01
     -2.447  0.1535E+01  0.1535E+01  0.1320E+01  0.1320E+01
     -2.400  0.1511E+01  0.1511E+01  0.1389E+01  0.1390E+01
     -2.354  0.1416E+01  0.1415E+01  0.1454E+01  0.1455E+01
     -2.308  0.1414E+01  0.1415E+01  0.1520E+01  0.1520E+01
     -2.262  0.1526E+01  0.1527E+01  0.1590E+01  0.1590E+01
     -2.216  0.1627E+01  0.1628E+01  0.1665E+01  0.1665E+01
     -2.170  0.1686E+01  0.1686E+01  0.1742E+01  0.1743E+01
     -2.124  0.1726E+01  0.1726E+01  0.1822E+01  0.1823E+01
     -2.078  0.1729E+01  0.1729E+01  0.1902E+01  0.1902E+01
     -2.032  0.1682E+01  0.1682E+01  0.1979E+01  0.1980E+01
     -1.986  0.1649E+01  0.1650E+01  0.2055E+01  0.2056E+01
     -1.940  0.1711E+01  0.1712E+01  0.2134E+01  0.2135E+01
     -1.894  0.1830E+01  0.1831E+01  0.2218E+01  0.2219E+01
     -1.848  0.1871E+01  0.1871E+01  0.2305E+01  0.2305E+01
     -1.802  0.1761E+01  0.1759E+01  0.2386E+01  0.2386E+01
     -1.756  0.1598E+01  0.1597E+01  0.2459E+01  0.2460E+01
     -1.710  0.1479E+01  0.1478E+01  0.2528E+01  0.2528E+01
     -1.664  0.1361E+01  0.1360E+01  0.2590E+01  0.2591E+01
     -1.618  0.1273E+01  0.1272E+01  0.2649E+01  0.2649E+01
     -1.571  0.1308E+01  0.1308E+01  0.2709E+01  0.2710E+01
     -1.525  0.1463E+01  0.1465E+01  0.2777E+01  0.2777E+01
     -1.479  0.1647E+01  0.1648E+01  0.2853E+01  0.2853E+01
     -1.433  0.1717E+01  0.1717E+01  0.2932E+01  0.2932E+01
     -1.387  0.1647E+01  0.1646E+01  0.3008E+01  0.3008E+01
     -1.341  0.1576E+01  0.1576E+01  0.3080E+01  0.3081E+01
     -1.295  0.1570E+01  0.1570E+01  0.3153E+01  0.3153E+01
     -1.249  0.1583E+01  0.1583E+01  0.3225E+01  0.3226E+01
     -1.203  0.1631E+01  0.1631E+01  0.3301E+01  0.3301E+01
     -1.157  0.1744E+01  0.1745E+01  0.3381E+01  0.3382E+01
     -1.111  0.1887E+01  0.1887E+01  0.3468E+01  0.3469E+01
     -1.065  0.1961E+01  0.1961E+01  0.3558E+01  0.3559E+01
     -1.019  0.1927E+01  0.1926E+01  0.3647E+01  0.3648E+01
     -0.973  0.1849E+01  0.1848E+01  0.3732E+01  0.3733E+01
     -0.927  0.1809E+01  0.1809E+01  0.3816E+01  0.3816E+01
     -0.881  0.1847E+01  0.1847E+01  0.3901E+01  0.3901E+01
     -0.835  0.1925E+01  0.1925E+01  0.3989E+01  0.3990E+01
     -0.788  0.1975E+01  0.1975E+01  0.4080E+01  0.4081E+01
     -0.742  0.1991E+01  0.1991E+01  0.4172E+01  0.4173E+01
     -0.696  0.2043E+01  0.2044E+01  0.4266E+01  0.4267E+01
     -0.650  0.2165E+01  0.2166E+01  0.4366E+01  0.4367E+01
     -0.604  0.2291E+01  0.2292E+01  0.4472E+01  0.4472E+01
     -0.558  0.2398E+01  0.2399E+01  0.4582E+01  0.4583E+01
     -0.512  0.2474E+01  0.2475E+01  0.4696E+01  0.4697E+01
     -0.466  0.2483E+01  0.2483E+01  0.4811E+01  0.4811E+01
     -0.420  0.2448E+01  0.2448E+01  0.4923E+01  0.4924E+01
     -0.374  0.2410E+01  0.2410E+01  0.5034E+01  0.5035E+01
     -0.328  0.2336E+01  0.2335E+01  0.5142E+01  0.5143E+01
     -0.282  0.2209E+01  0.2209E+01  0.5244E+01  0.5245E+01
     -0.236  0.2159E+01  0.2159E+01  0.5343E+01  0.5344E+01
     -0.190  0.2229E+01  0.2230E+01  0.5446E+01  0.5447E+01
     -0.144  0.2232E+01  0.2231E+01  0.5549E+01  0.5550E+01
     -0.098  0.2113E+01  0.2113E+01  0.5646E+01  0.5647E+01
     -0.052  0.2073E+01  0.2073E+01  0.5742E+01  0.5743E+01
     -0.006  0.2163E+01  0.2164E+01  0.5842E+01  0.5842E+01
      0.041  0.2209E+01  0.2209E+01  0.5943E+01  0.5944E+01
      0.087  0.2145E+01  0.2144E+01  0.6042E+01  0.6043E+01
      0.133  0.2035E+01  0.2035E+01  0.6136E+01  0.6137E+01
      0.179  0.1913E+01  0.1912E+01  0.6224E+01  0.6225E+01
      0.225  0.1834E+01  0.1834E+01  0.6309E+01  0.6309E+01
      0.271  0.1904E+01  0.1905E+01  0.6396E+01  0.6397E+01
      0.317  0.2189E+01  0.2191E+01  0.6497E+01  0.6498E+01
      0.363  0.2579E+01  0.2582E+01  0.6616E+01  0.6617E+01
      0.409  0.2884E+01  0.2885E+01  0.6749E+01  0.6750E+01
      0.455  0.2968E+01  0.2967E+01  0.6886E+01  0.6887E+01
      0.501  0.2807E+01  0.2805E+01  0.7015E+01  0.7016E+01
      0.547  0.2508E+01  0.2506E+01  0.7131E+01  0.7131E+01
      0.593  0.2220E+01  0.2218E+01  0.7233E+01  0.7234E+01
      0.639  0.2072E+01  0.2072E+01  0.7328E+01  0.7329E+01
      0.685  0.2091E+01  0.2091E+01  0.7425E+01  0.7425E+01
      0.731  0.2265E+01  0.2267E+01  0.7529E+01  0.7530E+01
      0.777  0.2515E+01  0.2516E+01  0.7645E+01  0.7646E+01
      0.824  0.2708E+01  0.2708E+01  0.7770E+01  0.7771E+01
      0.870  0.2817E+01  0.2817E+01  0.7900E+01  0.7900E+01
      0.916  0.2884E+01  0.2884E+01  0.8033E+01  0.8033E+01
      0.962  0.2915E+01  0.2914E+01  0.8167E+01  0.8168E+01
      1.008  0.2867E+01  0.2867E+01  0.8299E+01  0.8300E+01
      1.054  0.2839E+01  0.2839E+01  0.8430E+01  0.8431E+01
      1.100  0.2995E+01  0.2996E+01  0.8568E+01  0.8569E+01
      1.146  0.3295E+01  0.3296E+01  0.8720E+01  0.8720E+01
      1.192  0.3509E+01  0.3510E+01  0.8881E+01  0.8882E+01
      1.238  0.3485E+01  0.3485E+01  0.9042E+01  0.9043E+01
      1.284  0.3239E+01  0.3237E+01  0.9191E+01  0.9192E+01
      1.330  0.2865E+01  0.2863E+01  0.9323E+01  0.9324E+01
      1.376  0.2509E+01  0.2507E+01  0.9439E+01  0.9439E+01
      1.422  0.2239E+01  0.2237E+01  0.9542E+01  0.9542E+01
      1.468  0.2046E+01  0.2044E+01  0.9636E+01  0.9637E+01
      1.514  0.1961E+01  0.1961E+01  0.9727E+01  0.9727E+01
      1.560  0.2030E+01  0.2030E+01  0.9820E+01  0.9821E+01
      1.606  0.2204E+01  0.2204E+01  0.9922E+01  0.9922E+01
      1.653  0.2288E+01  0.2288E+01  0.1003E+02  0.1003E+02
      1.699  0.2221E+01  0.2220E+01  0.1013E+02  0.1013E+02
      1.745  0.2170E+01  0.2170E+01  0.1023E+02  0.1023E+02
      1.791  0.2275E+01  0.2275E+01  0.1033E+02  0.1033E+02
      1.837  0.2477E+01  0.2478E+01  0.1045E+02  0.1045E+02
      1.883  0.2599E+01  0.2599E+01  0.1057E+02  0.1057E+02
      1.929  0.2617E+01  0.2617E+01  0.1069E+02  0.1069E+02
      1.975  0.2737E+01  0.2738E+01  0.1082E+02  0.1082E+02
      2.021  0.3026E+01  0.3026E+01  0.1095E+02  0.1095E+02
      2.067  0.3188E+01  0.3188E+01  0.1110E+02  0.1110E+02
      2.113  0.2994E+01  0.2993E+01  0.1124E+02  0.1124E+02
      2.159  0.2681E+01  0.2681E+01  0.1136E+02  0.1136E+02
      2.205  0.2509E+01  0.2509E+01  0.1148E+02  0.1148E+02
      2.251  0.2465E+01  0.2465E+01  0.1159E+02  0.1159E+02
      2.297  0.2598E+01  0.2597E+01  0.1171E+02  0.1171E+02
      2.343  0.3001E+01  0.3000E+01  0.1185E+02  0.1185E+02
      2.389  0.3460E+01  0.3460E+01  0.1201E+02  0.1201E+02
      2.436  0.3639E+01  0.3639E+01  0.1218E+02  0.1218E+02
      2.482  0.3579E+01  0.3579E+01  0.1234E+02  0.1234E+02
      2.528  0.3563E+01  0.3562E+01  0.1251E+02  0.1251E+02
      2.574  0.3567E+01  0.3567E+01  0.1267E+02  0.1267E+02
      2.620  0.3469E+01  0.3469E+01  0.1283E+02  0.1283E+02
      2.666  0.3408E+01  0.3408E+01  0.1299E+02  0.1299E+02
      2.712  0.3540E+01  0.3540E+01  0.1315E+02  0.1315E+02
      2.758  0.3887E+01  0.3887E+01  0.1333E+02  0.1333E+02
      2.804  0.4201E+01  0.4201E+01  0.1352E+02  0.1352E+02
      2.850  0.4141E+01  0.4141E+01  0.1371E+02  0.1371E+02
      2.896  0.3817E+01  0.3817E+01  0.1389E+02  0.1389E+02
      2.942  0.3514E+01  0.3513E+01  0.1405E+02  0.1405E+02
      2.988  0.3402E+01  0.3401E+01  0.1421E+02  0.1421E+02
      3.034  0.3623E+01  0.3621E+01  0.1438E+02  0.1438E+02
      3.080  0.4105E+01  0.4102E+01  0.1456E+02  0.1456E+02
      3.126  0.4533E+01  0.4531E+01  0.1477E+02  0.1477E+02
      3.172  0.4677E+01  0.4676E+01  0.1499E+02  0.1499E+02
      3.218  0.4691E+01  0.4691E+01  0.1521E+02  0.1520E+02
      3.265  0.4759E+01  0.4759E+01  0.1542E+02  0.1542E+02
      3.311  0.4777E+01  0.4777E+01  0.1564E+02  0.1564E+02
      3.357  0.4692E+01  0.4691E+01  0.1586E+02  0.1586E+02
      3.403  0.4590E+01  0.4589E+01  0.1607E+02  0.1607E+02
      3.449  0.4462E+01  0.4461E+01  0.1628E+02  0.1628E+02
      3.495  0.4253E+01  0.4252E+01  0.1647E+02  0.1647E+02
      3.541  0.4025E+01  0.4025E+01  0.1666E+02  0.1666E+02
      3.587  0.3882E+01  0.3882E+01  0.1684E+02  0.1684E+02
      3.633  0.3931E+01  0.3929E+01  0.1702E+02  0.1702E+02
      3.679  0.4170E+01  0.4167E+01  0.1721E+02  0.1721E+02
      3.725  0.4488E+01  0.4485E+01  0.1742E+02  0.1742E+02
      3.771  0.4739E+01  0.4738E+01  0.1764E+02  0.1764E+02
      3.817  0.4870E+01  0.4870E+01  0.1786E+02  0.1786E+02
      3.863  0.4971E+01  0.4971E+01  0.1809E+02  0.1809E+02
      3.909  0.5163E+01  0.5160E+01  0.1833E+02  0.1833E+02
      3.955  0.5463E+01  0.5458E+01  0.1858E+02  0.1858E+02
      4.001  0.5785E+01  0.5779E+01  0.1885E+02  0.1884E+02
      4.048  0.6086E+01  0.6080E+01  0.1913E+02  0.1913E+02
      4.094  0.6315E+01  0.6311E+01  0.1942E+02  0.1942E+02
      4.140  0.6445E+01  0.6441E+01  0.1972E+02  0.1971E+02
      4.186  0.6608E+01  0.6602E+01  0.2002E+02  0.2002E+02
      4.232  0.6813E+01  0.6806E+01  0.2033E+02  0.2033E+02
      4.278  0.6919E+01  0.6913E+01  0.2065E+02  0.2065E+02
      4.324  0.6898E+01  0.6893E+01  0.2097E+02  0.2097E+02
      4.370  0.6681E+01  0.6679E+01  0.2128E+02  0.2127E+02
      4.416  0.6225E+01  0.6227E+01  0.2156E+02  0.2156E+02
      4.462  0.5708E+01  0.5711E+01  0.2183E+02  0.2182E+02
      4.508  0.5428E+01  0.5428E+01  0.2208E+02  0.2207E+02
      4.554  0.5460E+01  0.5458E+01  0.2233E+02  0.2233E+02
      4.600  0.5582E+01  0.5580E+01  0.2259E+02  0.2258E+02
      4.646  0.5650E+01  0.5648E+01  0.2285E+02  0.2284E+02
      4.692  0.5681E+01  0.5679E+01  0.2311E+02  0.2311E+02
      4.738  0.5682E+01  0.5681E+01  0.2337E+02  0.2337E+02
      4.784  0.5570E+01  0.5571E+01  0.2363E+02  0.2362E+02
      4.830  0.5345E+01  0.5345E+01  0.2387E+02  0.2387E+02
      4.877  0.5185E+01  0.5184E+01  0.2411E+02  0.2411E+02
      4.923  0.5028E+01  0.5029E+01  0.2434E+02  0.2434E+02
      4.969  0.4654E+01  0.4660E+01  0.2456E+02  0.2456E+02
      5.015  0.4064E+01  0.4073E+01  0.2475E+02  0.2474E+02
      5.061  0.3452E+01  0.3460E+01  0.2491E+02  0.2490E+02
      5.107  0.3008E+01  0.3013E+01  0.2504E+02  0.2504E+02
      5.153  0.2814E+01  0.2814E+01  0.2517E+02  0.2517E+02
      5.199  0.2853E+01  0.2848E+01  0.2531E+02  0.2530E+02
      5.245  0.3064E+01  0.3058E+01  0.2545E+02  0.2544E+02
      5.291  0.3285E+01  0.3280E+01  0.2560E+02  0.2560E+02
      5.337  0.3371E+01  0.3370E+01  0.2575E+02  0.2575E+02
      5.383  0.3409E+01  0.3406E+01  0.2591E+02  0.2591E+02
      5.429  0.3523E+01  0.3519E+01  0.2607E+02  0.2607E+02
      5.475  0.3644E+01  0.3641E+01  0.2624E+02  0.2624E+02
      5.521  0.3723E+01  0.3721E+01  0.2641E+02  0.2641E+02
      5.567  0.3884E+01  0.3879E+01  0.2659E+02  0.2659E+02
      5.613  0.4142E+01  0.4136E+01  0.2678E+02  0.2678E+02
      5.660  0.4339E+01  0.4337E+01  0.2698E+02  0.2698E+02
      5.706  0.4450E+01  0.4452E+01  0.2719E+02  0.2718E+02
      5.752  0.4578E+01  0.4584E+01  0.2740E+02  0.2739E+02
      5.798  0.4672E+01  0.4685E+01  0.2761E+02  0.2761E+02
      5.844  0.4652E+01  0.4676E+01  0.2783E+02  0.2783E+02
      5.890  0.4679E+01  0.4704E+01  0.2804E+02  0.2804E+02
      5.936  0.5037E+01  0.5049E+01  0.2828E+02  0.2827E+02
      5.982  0.5840E+01  0.5834E+01  0.2854E+02  0.2854E+02
      6.028  0.6952E+01  0.6936E+01  0.2887E+02  0.2886E+02
      6.074  0.8003E+01  0.7990E+01  0.2923E+02  0.2923E+02
      6.120  0.8761E+01  0.8757E+01  0.2964E+02  0.2963E+02
      6.166  0.9376E+01  0.9387E+01  0.3007E+02  0.3007E+02
      6.212  0.1004E+02  0.1007E+02  0.3053E+02  0.3053E+02
      6.258  0.1088E+02  0.1093E+02  0.3103E+02  0.3103E+02
      6.304  0.1192E+02  0.1198E+02  0.3158E+02  0.3159E+02
      6.350  0.1299E+02  0.1308E+02  0.3218E+02  0.3219E+02
      6.396  0.1397E+02  0.1409E+02  0.3282E+02  0.3284E+02
      6.442  0.1438E+02  0.1457E+02  0.3349E+02  0.3351E+02
      6.489  0.1345E+02  0.1371E+02  0.3411E+02  0.3414E+02
      6.535  0.1138E+02  0.1169E+02  0.3463E+02  0.3468E+02
      6.581  0.9210E+01  0.9587E+01  0.3505E+02  0.3512E+02
      6.627  0.7551E+01  0.7985E+01  0.3540E+02  0.3549E+02
      6.673  0.6435E+01  0.6890E+01  0.3570E+02  0.3581E+02
      6.719  0.5673E+01  0.6080E+01  0.3596E+02  0.3609E+02
      6.765  0.5153E+01  0.5423E+01  0.3620E+02  0.3634E+02
      6.811  0.4865E+01  0.4958E+01  0.3642E+02  0.3657E+02
      6.857  0.4860E+01  0.4805E+01  0.3665E+02  0.3679E+02
      6.903  0.5217E+01  0.5118E+01  0.3689E+02  0.3702E+02
      6.949  0.5828E+01  0.5813E+01  0.3716E+02  0.3729E+02
      6.995  0.6283E+01  0.6400E+01  0.3745E+02  0.3759E+02
      7.041  0.6133E+01  0.6352E+01  0.3773E+02  0.3788E+02
      7.087  0.5397E+01  0.5715E+01  0.3798E+02  0.3814E+02
      7.133  0.4568E+01  0.4999E+01  0.3819E+02  0.3837E+02
      7.179  0.3917E+01  0.4428E+01  0.3837E+02  0.3858E+02
      7.225  0.3368E+01  0.3902E+01  0.3852E+02  0.3876E+02
      7.272  0.2900E+01  0.3397E+01  0.3866E+02  0.3891E+02
      7.318  0.2552E+01  0.2975E+01  0.3878E+02  0.3905E+02
      7.364  0.2318E+01  0.2632E+01  0.3888E+02  0.3917E+02
      7.410  0.2172E+01  0.2339E+01  0.3898E+02  0.3928E+02
      7.456  0.2104E+01  0.2075E+01  0.3908E+02  0.3938E+02
      7.502  0.2073E+01  0.1788E+01  0.3917E+02  0.3946E+02
      7.548  0.1953E+01  0.1496E+01  0.3926E+02  0.3953E+02
      7.594  0.1709E+01  0.1240E+01  0.3934E+02  0.3958E+02
      7.640  0.1406E+01  0.1003E+01  0.3941E+02  0.3963E+02
      7.686  0.1096E+01  0.8056E+00  0.3946E+02  0.3967E+02
      7.732  0.8258E+00  0.6955E+00  0.3950E+02  0.3970E+02
      7.778  0.6492E+00  0.6655E+00  0.3953E+02  0.3973E+02
      7.824  0.5999E+00  0.6733E+00  0.3955E+02  0.3976E+02
      7.870  0.6718E+00  0.7016E+00  0.3959E+02  0.3979E+02
      7.916  0.8263E+00  0.7529E+00  0.3962E+02  0.3983E+02
      7.962  0.1014E+01  0.8150E+00  0.3967E+02  0.3987E+02
      8.008  0.1113E+01  0.8153E+00  0.3972E+02  0.3990E+02
      8.054  0.1030E+01  0.7022E+00  0.3977E+02  0.3994E+02
      8.101  0.8241E+00  0.5184E+00  0.3981E+02  0.3996E+02
      8.147  0.6125E+00  0.3324E+00  0.3984E+02  0.3998E+02
      8.193  0.4797E+00  0.1880E+00  0.3986E+02  0.3998E+02
      8.239  0.4321E+00  0.9549E-01  0.3988E+02  0.3999E+02
      8.285  0.4026E+00  0.4726E-01  0.3990E+02  0.3999E+02
      8.331  0.3265E+00  0.2977E-01  0.3991E+02  0.3999E+02
      8.377  0.2152E+00  0.3103E-01  0.3992E+02  0.3999E+02
      8.423  0.1292E+00  0.3854E-01  0.3993E+02  0.4000E+02
      8.469  0.1021E+00  0.3821E-01  0.3993E+02  0.4000E+02
      8.515  0.1322E+00  0.2666E-01  0.3994E+02  0.4000E+02
      8.561  0.2021E+00  0.1412E-01  0.3995E+02  0.4000E+02
      8.607  0.2709E+00  0.6412E-02  0.3996E+02  0.4000E+02
      8.653  0.2925E+00  0.2697E-02  0.3997E+02  0.4000E+02
      8.699  0.2517E+00  0.1098E-02  0.3998E+02  0.4000E+02
      8.745  0.1683E+00  0.4411E-03  0.3999E+02  0.4000E+02
      8.791  0.8953E-01  0.1762E-03  0.4000E+02  0.4000E+02
      8.837  0.4089E-01  0.0000E+00  0.4000E+02  0.4000E+02
      8.884  0.1727E-01  0.0000E+00  0.4000E+02  0.4000E+02
      8.930  0.7045E-02  0.0000E+00  0.4000E+02  0.4000E+02
      8.976  0.2789E-02  0.0000E+00  0.4000E+02  0.4000E+02
      9.022  0.9103E-03  0.0000E+00  0.4000E+02  0.4000E+02
      9.068  0.3630E-03  0.0000E+00  0.4000E+02  0.4000E+02
      9.114  0.0000E+00  0.0000E+00  0.4000E+02  0.4000E+02
      9.160  0.0000E+00  0.0000E+00  0.4000E+02  0.4000E+02
      9.206  0.0000E+00  0.0000E+00  0.4000E+02  0.4000E+02
      9.252  0.0000E+00  0.0000E+00  0.4000E+02  0.4000E+02
      9.298  0.0000E+00  0.0000E+00  0.4000E+02  0.4000E+02
      9.29803227     -4.51911783  301      5.40920665      1.00000000
     -4.519  0.0000E+00  0.0000E+00  0.0000E+00  0.0000E+00  0.0000E+00  0.0000E+00  0.0000E+00  0.0000E+00  0.0000E+00  0.0000E+00  0.0000E+00  0.0000E+00  0.0000E+00  0.0000E+00  0.0000E+00  0.0000E+00  0.0000E+00  0.0000E+00
     -4.473  0.0000E+00  0.0000E+00  0.0000E+00  0.0000E+00  0.0000E+00  0.0000E+00  0.0000E+00  0.0000E+00  0.0000E+00  0.0000E+00  0.0000E+00  0.0000E+00  0.0000E+00  0.0000E+00  0.0000E+00  0.0000E+00  0.0000E+00  0.0000E+00
     -4.427  0.0000E+00  0.0000E+00  0.0000E+00  0.0000E+00  0.0000E+00  0.0000E+00  0.0000E+00  0.0000E+00  0.0000E+00  0.0000E+00  0.0000E+00  0.0000E+00  0.0000E+00  0.0000E+00  0.0000E+00  0.0000E+00  0.0000E+00  0.0000E+00
     -4.381  0.0000E+00  0.0000E+00  0.0000E+00  0.0000E+00  0.0000E+00  0.0000E+00  0.0000E+00  0.0000E+00  0.0000E+00  0.0000E+00  0.0000E+00  0.0000E+00  0.0000E+00  0.0000E+00  0.0000E+00  0.0000E+00  0.0000E+00  0.0000E+00
     -4.335  0.1369E-06  0.1377E-06  0.7747E-23  0.1205E-22  0.6467E-09  0.6520E-09  0.7747E-23  0.1205E-22  0.3873E-19  0.1847E-23  0.6220E-22  0.2670E-21  0.3715E-11  0.3680E-11  0.6220E-22  0.2670E-21  0.6517E-21  0.1769E-20
     -4.289  0.2069E-06  0.2082E-06  0.1171E-22  0.1822E-22  0.9776E-09  0.9856E-09  0.1171E-22  0.1822E-22  0.5855E-19  0.2791E-23  0.9402E-22  0.4037E-21  0.5616E-11  0.5563E-11  0.9402E-22  0.4037E-21  0.9852E-21  0.2674E-20
     -4.243  0.2368E-05  0.2383E-05  0.5309E-08  0.5343E-08  0.1761E-07  0.1775E-07  0.5309E-08  0.5343E-08  0.1015E-16  0.4146E-20  0.6090E-10  0.6147E-10  0.9172E-10  0.9124E-10  0.6090E-10  0.6147E-10  0.2240E-10  0.2252E-10
     -4.197  0.7417E-05  0.7464E-05  0.2725E-07  0.2743E-07  0.6800E-07  0.6851E-07  0.2725E-07  0.2743E-07  0.1833E-09  0.1844E-09  0.5099E-09  0.5140E-09  0.2953E-09  0.2939E-09  0.5099E-09  0.5140E-09  0.7436E-10  0.7478E-10
     -4.151  0.1727E-04  0.1738E-04  0.6662E-07  0.6705E-07  0.1622E-06  0.1634E-06  0.6662E-07  0.6705E-07  0.6139E-09  0.6173E-09  0.1423E-08  0.1434E-08  0.6579E-09  0.6541E-09  0.1423E-08  0.1434E-08  0.1461E-09  0.1469E-09
     -4.105  0.4258E-04  0.4285E-04  0.1656E-06  0.1666E-06  0.4035E-06  0.4066E-06  0.1656E-06  0.1666E-06  0.1204E-08  0.1211E-08  0.3202E-08  0.3227E-08  0.1944E-08  0.1936E-08  0.3202E-08  0.3227E-08  0.6330E-09  0.6367E-09
     -4.059  0.1094E-03  0.1101E-03  0.4710E-06  0.4740E-06  0.1097E-05  0.1105E-05  0.4710E-06  0.4740E-06  0.4151E-08  0.4175E-08  0.9979E-08  0.1006E-07  0.5572E-08  0.5557E-08  0.9979E-08  0.1006E-07  0.2108E-08  0.2120E-08
     -4.012  0.2673E-03  0.2689E-03  0.1177E-05  0.1185E-05  0.2711E-05  0.2731E-05  0.1177E-05  0.1185E-05  0.1161E-07  0.1168E-07  0.2630E-07  0.2650E-07  0.1340E-07  0.1336E-07  0.2630E-07  0.2650E-07  0.4957E-08  0.4985E-08
     -3.966  0.6277E-03  0.6312E-03  0.2798E-05  0.2815E-05  0.6405E-05  0.6450E-05  0.2798E-05  0.2815E-05  0.2647E-07  0.2662E-07  0.6120E-07  0.6165E-07  0.3152E-07  0.3142E-07  0.6120E-07  0.6165E-07  0.1168E-07  0.1175E-07
     -3.920  0.1386E-02  0.1393E-02  0.6634E-05  0.6672E-05  0.1474E-04  0.1484E-04  0.6634E-05  0.6672E-05  0.6630E-07  0.6667E-07  0.1492E-06  0.1503E-06  0.7297E-07  0.7273E-07  0.1492E-06  0.1503E-06  0.2826E-07  0.2841E-07
     -3.874  0.2721E-02  0.2732E-02  0.1462E-04  0.1469E-04  0.3099E-04  0.3117E-04  0.1462E-04  0.1469E-04  0.1589E-06  0.1597E-06  0.3442E-06  0.3465E-06  0.1554E-06  0.1549E-06  0.3442E-06  0.3465E-06  0.6496E-07  0.6529E-07
     -3.828  0.4554E-02  0.4567E-02  0.2862E-04  0.2874E-04  0.5715E-04  0.5742E-04  0.2862E-04  0.2874E-04  0.3439E-06  0.3454E-06  0.7115E-06  0.7155E-06  0.2976E-06  0.2967E-06  0.7115E-06  0.7155E-06  0.1399E-06  0.1405E-06
     -3.782  0.6420E-02  0.6433E-02  0.4922E-04  0.4948E-04  0.9224E-04  0.9262E-04  0.4922E-04  0.4948E-04  0.6733E-06  0.6791E-06  0.1320E-05  0.1329E-05  0.5240E-06  0.5243E-06  0.1320E-05  0.1329E-05  0.2818E-06  0.2854E-06
     -3.736  0.7974E-02  0.7981E-02  0.7746E-04  0.7760E-04  0.1363E-03  0.1367E-03  0.7746E-04  0.7760E-04  0.1215E-05  0.1216E-05  0.2267E-05  0.2274E-05  0.9020E-06  0.8998E-06  0.2267E-05  0.2274E-05  0.5583E-06  0.5583E-06
     -3.690  0.9548E-02  0.9559E-02  0.1167E-03  0.1171E-03  0.1956E-03  0.1962E-03  0.1167E-03  0.1171E-03  0.2092E-05  0.2099E-05  0.3743E-05  0.3758E-05  0.1491E-05  0.1491E-05  0.3743E-05  0.3758E-05  0.1004E-05  0.1008E-05
     -3.644  0.1144E-01  0.1145E-01  0.1673E-03  0.1676E-03  0.2711E-03  0.2719E-03  0.1673E-03  0.1676E-03  0.3492E-05  0.3503E-05  0.5940E-05  0.5961E-05  0.2222E-05  0.2221E-05  0.5940E-05  0.5961E-05  0.1553E-05  0.1556E-05
     -3.598  0.1278E-01  0.1278E-01  0.2129E-03  0.2132E-03  0.3411E-03  0.3417E-03  0.2129E-03  0.2132E-03  0.5249E-05  0.5260E-05  0.8519E-05  0.8541E-05  0.2875E-05  0.2872E-05  0.8519E-05  0.8541E-05  0.2024E-05  0.2026E-05
     -3.552  0.1280E-01  0.1280E-01  0.2432E-03  0.2434E-03  0.3932E-03  0.3939E-03  0.2432E-03  0.2434E-03  0.7063E-05  0.7076E-05  0.1114E-04  0.1116E-04  0.3503E-05  0.3501E-05  0.1114E-04  0.1116E-04  0.2481E-05  0.2484E-05
     -3.506  0.1278E-01  0.1279E-01  0.2858E-03  0.2862E-03  0.4611E-03  0.4621E-03  0.2858E-03  0.2862E-03  0.9546E-05  0.9566E-05  0.1480E-04  0.1484E-04  0.4613E-05  0.4617E-05  0.1480E-04  0.1484E-04  0.3439E-05  0.3448E-05
     -3.460  0.1400E-01  0.1401E-01  0.3689E-03  0.3696E-03  0.5583E-03  0.5593E-03  0.3689E-03  0.3696E-03  0.1326E-04  0.1329E-04  0.2023E-04  0.2028E-04  0.6485E-05  0.6489E-05  0.2023E-04  0.2028E-04  0.5382E-05  0.5398E-05
     -3.414  0.1544E-01  0.1544E-01  0.4676E-03  0.4682E-03  0.6277E-03  0.6281E-03  0.4676E-03  0.4682E-03  0.1723E-04  0.1725E-04  0.2569E-04  0.2573E-04  0.8665E-05  0.8663E-05  0.2569E-04  0.2573E-04  0.8088E-05  0.8105E-05
     -3.368  0.1588E-01  0.1587E-01  0.5408E-03  0.5411E-03  0.6533E-03  0.6535E-03  0.5408E-03  0.5411E-03  0.2095E-04  0.2097E-04  0.3045E-04  0.3049E-04  0.1056E-04  0.1055E-04  0.3045E-04  0.3049E-04  0.1047E-04  0.1048E-04
     -3.322  0.1579E-01  0.1578E-01  0.5862E-03  0.5864E-03  0.7051E-03  0.7058E-03  0.5862E-03  0.5864E-03  0.2600E-04  0.2604E-04  0.3678E-04  0.3685E-04  0.1202E-04  0.1201E-04  0.3678E-04  0.3685E-04  0.1153E-04  0.1153E-04
     -3.276  0.1594E-01  0.1593E-01  0.6328E-03  0.6332E-03  0.7989E-03  0.7996E-03  0.6328E-03  0.6332E-03  0.3392E-04  0.3398E-04  0.4545E-04  0.4552E-04  0.1342E-04  0.1341E-04  0.4545E-04  0.4552E-04  0.1177E-04  0.1177E-04
     -3.230  0.1621E-01  0.1620E-01  0.7002E-03  0.7006E-03  0.8607E-03  0.8609E-03  0.7002E-03  0.7006E-03  0.4387E-04  0.4393E-04  0.5381E-04  0.5387E-04  0.1497E-04  0.1496E-04  0.5381E-04  0.5387E-04  0.1267E-04  0.1268E-04
     -3.183  0.1605E-01  0.1604E-01  0.7607E-03  0.7609E-03  0.8733E-03  0.8734E-03  0.7607E-03  0.7609E-03  0.5153E-04  0.5155E-04  0.5996E-04  0.6000E-04  0.1666E-04  0.1665E-04  0.5996E-04  0.6000E-04  0.1464E-04  0.1465E-04
     -3.137  0.1552E-01  0.1551E-01  0.7972E-03  0.7975E-03  0.9172E-03  0.9179E-03  0.7972E-03  0.7975E-03  0.5385E-04  0.5384E-04  0.6576E-04  0.6582E-04  0.1957E-04  0.1957E-04  0.6576E-04  0.6582E-04  0.1799E-04  0.1802E-04
     -3.091  0.1593E-01  0.1594E-01  0.8872E-03  0.8883E-03  0.1067E-02  0.1069E-02  0.8872E-03  0.8883E-03  0.5772E-04  0.5776E-04  0.7645E-04  0.7657E-04  0.2591E-04  0.2594E-04  0.7645E-04  0.7657E-04  0.2439E-04  0.2444E-04
     -3.045  0.1771E-01  0.1772E-01  0.1071E-02  0.1072E-02  0.1290E-02  0.1292E-02  0.1071E-02  0.1072E-02  0.7106E-04  0.7117E-04  0.9219E-04  0.9232E-04  0.3572E-04  0.3575E-04  0.9219E-04  0.9232E-04  0.3321E-04  0.3326E-04
     -2.999  0.1911E-01  0.1910E-01  0.1236E-02  0.1236E-02  0.1461E-02  0.1462E-02  0.1236E-02  0.1236E-02  0.9007E-04  0.9018E-04  0.1053E-03  0.1053E-03  0.4479E-04  0.4478E-04  0.1053E-03  0.1053E-03  0.3954E-04  0.3955E-04
     -2.953  0.1913E-01  0.1912E-01  0.1311E-02  0.1311E-02  0.1532E-02  0.1532E-02  0.1311E-02  0.1311E-02  0.1087E-03  0.1088E-03  0.1159E-03  0.1160E-03  0.4905E-04  0.4900E-04  0.1159E-03  0.1160E-03  0.4105E-04  0.4103E-04
     -2.907  0.1905E-01  0.1904E-01  0.1381E-02  0.1382E-02  0.1618E-02  0.1619E-02  0.1381E-02  0.1382E-02  0.1269E-03  0.1270E-03  0.1356E-03  0.1358E-03  0.5008E-04  0.5002E-04  0.1356E-03  0.1358E-03  0.4202E-04  0.4201E-04
     -2.861  0.1945E-01  0.1945E-01  0.1474E-02  0.1474E-02  0.1781E-02  0.1782E-02  0.1474E-02  0.1474E-02  0.1434E-03  0.1435E-03  0.1633E-03  0.1635E-03  0.5119E-04  0.5113E-04  0.1633E-03  0.1635E-03  0.4433E-04  0.4432E-04
     -2.815  0.1875E-01  0.1873E-01  0.1468E-02  0.1467E-02  0.1857E-02  0.1857E-02  0.1468E-02  0.1467E-02  0.1509E-03  0.1508E-03  0.1793E-03  0.1794E-03  0.5028E-04  0.5020E-04  0.1793E-03  0.1794E-03  0.4350E-04  0.4345E-04
     -2.769  0.1653E-01  0.1651E-01  0.1369E-02  0.1368E-02  0.1774E-02  0.1774E-02  0.1369E-02  0.1368E-02  0.1510E-03  0.1510E-03  0.1813E-03  0.1813E-03  0.4661E-04  0.4654E-04  0.1813E-03  0.1813E-03  0.4044E-04  0.4041E-04
     -2.723  0.1533E-01  0.1533E-01  0.1402E-02  0.1403E-02  0.1794E-02  0.1796E-02  0.1402E-02  0.1403E-02  0.1654E-03  0.1656E-03  0.1947E-03  0.1949E-03  0.4874E-04  0.4875E-04  0.1947E-03  0.1949E-03  0.4379E-04  0.4384E-04
     -2.677  0.1651E-01  0.1652E-01  0.1666E-02  0.1668E-02  0.2116E-02  0.2119E-02  0.1666E-02  0.1668E-02  0.2049E-03  0.2052E-03  0.2282E-03  0.2284E-03  0.6450E-04  0.6459E-04  0.2282E-03  0.2284E-03  0.5729E-04  0.5739E-04
     -2.631  0.1863E-01  0.1864E-01  0.2025E-02  0.2027E-02  0.2592E-02  0.2596E-02  0.2025E-02  0.2027E-02  0.2515E-03  0.2518E-03  0.2647E-03  0.2649E-03  0.8951E-04  0.8959E-04  0.2647E-03  0.2649E-03  0.7723E-04  0.7734E-04
     -2.585  0.1997E-01  0.1997E-01  0.2303E-02  0.2304E-02  0.2968E-02  0.2970E-02  0.2303E-02  0.2304E-02  0.2808E-03  0.2809E-03  0.2967E-03  0.2969E-03  0.1088E-03  0.1087E-03  0.2967E-03  0.2969E-03  0.9609E-04  0.9613E-04
     -2.539  0.1983E-01  0.1982E-01  0.2412E-02  0.2412E-02  0.3121E-02  0.3122E-02  0.2412E-02  0.2412E-02  0.2909E-03  0.2908E-03  0.3269E-03  0.3271E-03  0.1122E-03  0.1120E-03  0.3269E-03  0.3271E-03  0.1060E-03  0.1059E-03
     -2.493  0.1919E-01  0.1918E-01  0.2467E-02  0.2467E-02  0.3228E-02  0.3229E-02  0.2467E-02  0.2467E-02  0.3118E-03  0.3119E-03  0.3639E-03  0.3641E-03  0.1090E-03  0.1089E-03  0.3639E-03  0.3641E-03  0.1085E-03  0.1084E-03
     -2.447  0.1896E-01  0.1895E-01  0.2572E-02  0.2573E-02  0.3469E-02  0.3471E-02  0.2572E-02  0.2573E-02  0.3517E-03  0.3518E-03  0.4098E-03  0.4100E-03  0.1099E-03  0.1098E-03  0.4098E-03  0.4100E-03  0.1102E-03  0.1101E-03
     -2.400  0.1796E-01  0.1794E-01  0.2565E-02  0.2564E-02  0.3629E-02  0.3630E-02  0.2565E-02  0.2564E-02  0.3765E-03  0.3765E-03  0.4381E-03  0.4381E-03  0.1065E-03  0.1063E-03  0.4381E-03  0.4381E-03  0.1068E-03  0.1067E-03
     -2.354  0.1604E-01  0.1603E-01  0.2434E-02  0.2433E-02  0.3651E-02  0.3652E-02  0.2434E-02  0.2433E-02  0.3937E-03  0.3939E-03  0.4574E-03  0.4576E-03  0.9469E-04  0.9447E-04  0.4574E-03  0.4576E-03  0.9598E-04  0.9582E-04
     -2.308  0.1521E-01  0.1521E-01  0.2476E-02  0.2478E-02  0.3887E-02  0.3890E-02  0.2476E-02  0.2478E-02  0.4505E-03  0.4510E-03  0.5226E-03  0.5233E-03  0.9012E-04  0.9003E-04  0.5226E-03  0.5233E-03  0.8985E-04  0.8978E-04
     -2.262  0.1572E-01  0.1572E-01  0.2731E-02  0.2733E-02  0.4347E-02  0.4350E-02  0.2731E-02  0.2733E-02  0.5375E-03  0.5379E-03  0.6236E-03  0.6242E-03  0.1002E-03  0.1002E-03  0.6236E-03  0.6242E-03  0.9422E-04  0.9421E-04
     -2.216  0.1605E-01  0.1604E-01  0.3008E-02  0.3010E-02  0.4697E-02  0.4697E-02  0.3008E-02  0.3010E-02  0.6096E-03  0.6098E-03  0.6998E-03  0.6999E-03  0.1153E-03  0.1153E-03  0.6998E-03  0.6999E-03  0.1040E-03  0.1041E-03