  16  16   1   0
  0.1441750E+02  0.3778730E-09  0.3778730E-09  0.1615543E-08  0.5000000E-15
  1.000000000000000E-004
  CAR 
 unknown system                          
     12.39396561     -3.68664138  301      8.00633005      1.00000000
     -3.687  0.0000E+00  0.0000E+00  0.0000E+00  0.0000E+00
     -3.633  0.0000E+00  0.0000E+00  0.0000E+00  0.0000E+00
     -3.579  0.0000E+00  0.0000E+00  0.0000E+00  0.0000E+00
     -3.526  0.0000E+00  0.0000E+00  0.0000E+00  0.0000E+00
     -3.472  0.0000E+00  0.0000E+00  0.0000E+00  0.0000E+00
     -3.419  0.0000E+00  0.0000E+00  0.0000E+00  0.0000E+00
     -3.365  0.1023E-04  0.1024E-04  0.5484E-06  0.5489E-06
     -3.311  0.7040E-04  0.7047E-04  0.4322E-05  0.4326E-05
     -3.258  0.2390E-03  0.2392E-03  0.1713E-04  0.1715E-04
     -3.204  0.6591E-03  0.6597E-03  0.5246E-04  0.5251E-04
     -3.151  0.1895E-02  0.1897E-02  0.1540E-03  0.1542E-03
     -3.097  0.5432E-02  0.5437E-02  0.4452E-03  0.4456E-03
     -3.043  0.1518E-01  0.1519E-01  0.1259E-02  0.1260E-02
     -2.990  0.3892E-01  0.3895E-01  0.3345E-02  0.3348E-02
     -2.936  0.8640E-01  0.8646E-01  0.7977E-02  0.7982E-02
     -2.883  0.1582E+00  0.1582E+00  0.1645E-01  0.1646E-01
     -2.829  0.2323E+00  0.2323E+00  0.2890E-01  0.2892E-01
     -2.775  0.2838E+00  0.2839E+00  0.4412E-01  0.4413E-01
     -2.722  0.3301E+00  0.3302E+00  0.6181E-01  0.6183E-01
     -2.668  0.4116E+00  0.4117E+00  0.8388E-01  0.8390E-01
     -2.615  0.4999E+00  0.4999E+00  0.1107E+00  0.1107E+00
     -2.561  0.5112E+00  0.5112E+00  0.1381E+00  0.1381E+00
     -2.507  0.4680E+00  0.4680E+00  0.1632E+00  0.1632E+00
     -2.454  0.4944E+00  0.4945E+00  0.1897E+00  0.1897E+00
     -2.400  0.5975E+00  0.5976E+00  0.2217E+00  0.2217E+00
     -2.347  0.6610E+00  0.6610E+00  0.2571E+00  0.2572E+00
     -2.293  0.6567E+00  0.6567E+00  0.2924E+00  0.2924E+00
     -2.239  0.6534E+00  0.6534E+00  0.3274E+00  0.3275E+00
     -2.186  0.6803E+00  0.6803E+00  0.3639E+00  0.3639E+00
     -2.132  0.7147E+00  0.7147E+00  0.4022E+00  0.4022E+00
     -2.079  0.7109E+00  0.7108E+00  0.4403E+00  0.4404E+00
     -2.025  0.6663E+00  0.6663E+00  0.4760E+00  0.4761E+00
     -1.971  0.6907E+00  0.6908E+00  0.5131E+00  0.5131E+00
     -1.918  0.8290E+00  0.8292E+00  0.5576E+00  0.5576E+00
     -1.864  0.9448E+00  0.9449E+00  0.6082E+00  0.6083E+00
     -1.811  0.9431E+00  0.9431E+00  0.6588E+00  0.6589E+00
     -1.757  0.9273E+00  0.9273E+00  0.7085E+00  0.7086E+00
     -1.703  0.9989E+00  0.9990E+00  0.7621E+00  0.7621E+00
     -1.650  0.1039E+01  0.1039E+01  0.8178E+00  0.8179E+00
     -1.596  0.9058E+00  0.9056E+00  0.8664E+00  0.8664E+00
     -1.543  0.7615E+00  0.7615E+00  0.9072E+00  0.9073E+00
     -1.489  0.8175E+00  0.8177E+00  0.9511E+00  0.9511E+00
     -1.435  0.1009E+01  0.1009E+01  0.1005E+01  0.1005E+01
     -1.382  0.1193E+01  0.1193E+01  0.1069E+01  0.1069E+01
     -1.328  0.1274E+01  0.1274E+01  0.1137E+01  0.1138E+01
     -1.275  0.1234E+01  0.1234E+01  0.1204E+01  0.1204E+01
     -1.221  0.1236E+01  0.1236E+01  0.1270E+01  0.1270E+01
     -1.167  0.1311E+01  0.1311E+01  0.1340E+01  0.1340E+01
     -1.114  0.1246E+01  0.1246E+01  0.1407E+01  0.1407E+01
     -1.060  0.1111E+01  0.1111E+01  0.1467E+01  0.1467E+01
     -1.007  0.1154E+01  0.1154E+01  0.1528E+01  0.1529E+01
     -0.953  0.1298E+01  0.1298E+01  0.1598E+01  0.1598E+01
     -0.899  0.1364E+01  0.1364E+01  0.1671E+01  0.1671E+01
     -0.846  0.1386E+01  0.1386E+01  0.1746E+01  0.1746E+01
     -0.792  0.1425E+01  0.1425E+01  0.1822E+01  0.1822E+01
     -0.739  0.1448E+01  0.1448E+01  0.1900E+01  0.1900E+01
     -0.685  0.1399E+01  0.1399E+01  0.1975E+01  0.1975E+01
     -0.631  0.1343E+01  0.1343E+01  0.2047E+01  0.2047E+01
     -0.578  0.1423E+01  0.1424E+01  0.2123E+01  0.2123E+01
     -0.524  0.1597E+01  0.1597E+01  0.2209E+01  0.2209E+01
     -0.471  0.1667E+01  0.1667E+01  0.2298E+01  0.2298E+01
     -0.417  0.1538E+01  0.1538E+01  0.2381E+01  0.2381E+01
     -0.363  0.1350E+01  0.1350E+01  0.2453E+01  0.2453E+01
     -0.310  0.1261E+01  0.1261E+01  0.2521E+01  0.2521E+01
     -0.256  0.1168E+01  0.1167E+01  0.2583E+01  0.2583E+01
     -0.203  0.1050E+01  0.1050E+01  0.2640E+01  0.2640E+01
     -0.149  0.1051E+01  0.1051E+01  0.2696E+01  0.2696E+01
     -0.095  0.1201E+01  0.1201E+01  0.2760E+01  0.2760E+01
     -0.042  0.1406E+01  0.1406E+01  0.2836E+01  0.2836E+01
      0.012  0.1492E+01  0.1492E+01  0.2916E+01  0.2916E+01
      0.066  0.1418E+01  0.1418E+01  0.2992E+01  0.2992E+01
      0.119  0.1358E+01  0.1358E+01  0.3065E+01  0.3065E+01
      0.173  0.1389E+01  0.1389E+01  0.3139E+01  0.3139E+01
      0.226  0.1372E+01  0.1372E+01  0.3213E+01  0.3213E+01
      0.280  0.1298E+01  0.1298E+01  0.3282E+01  0.3282E+01
      0.334  0.1347E+01  0.1347E+01  0.3355E+01  0.3355E+01
      0.387  0.1570E+01  0.1570E+01  0.3439E+01  0.3439E+01
      0.441  0.1741E+01  0.1741E+01  0.3532E+01  0.3532E+01
      0.494  0.1691E+01  0.1691E+01  0.3623E+01  0.3623E+01
      0.548  0.1537E+01  0.1537E+01  0.3705E+01  0.3705E+01
      0.602  0.1478E+01  0.1478E+01  0.3785E+01  0.3785E+01
      0.655  0.1489E+01  0.1489E+01  0.3864E+01  0.3865E+01
      0.709  0.1476E+01  0.1475E+01  0.3944E+01  0.3944E+01
      0.762  0.1467E+01  0.1467E+01  0.4022E+01  0.4022E+01
      0.816  0.1503E+01  0.1503E+01  0.4103E+01  0.4103E+01
      0.870  0.1571E+01  0.1571E+01  0.4187E+01  0.4187E+01
      0.923  0.1685E+01  0.1685E+01  0.4277E+01  0.4278E+01
      0.977  0.1808E+01  0.1808E+01  0.4374E+01  0.4375E+01
      1.030  0.1858E+01  0.1858E+01  0.4474E+01  0.4474E+01
      1.084  0.1833E+01  0.1833E+01  0.4572E+01  0.4572E+01
      1.138  0.1860E+01  0.1860E+01  0.4672E+01  0.4672E+01
      1.191  0.2031E+01  0.2031E+01  0.4781E+01  0.4781E+01
      1.245  0.2161E+01  0.2162E+01  0.4897E+01  0.4897E+01
      1.298  0.2147E+01  0.2147E+01  0.5012E+01  0.5012E+01
      1.352  0.2082E+01  0.2082E+01  0.5124E+01  0.5124E+01
      1.406  0.1953E+01  0.1953E+01  0.5228E+01  0.5229E+01
      1.459  0.1871E+01  0.1871E+01  0.5329E+01  0.5329E+01
      1.513  0.1891E+01  0.1891E+01  0.5430E+01  0.5430E+01
      1.566  0.1850E+01  0.1850E+01  0.5529E+01  0.5529E+01
      1.620  0.1736E+01  0.1736E+01  0.5623E+01  0.5623E+01
      1.674  0.1679E+01  0.1679E+01  0.5713E+01  0.5713E+01
      1.727  0.1764E+01  0.1765E+01  0.5807E+01  0.5807E+01
      1.781  0.1856E+01  0.1856E+01  0.5907E+01  0.5907E+01
      1.834  0.1909E+01  0.1909E+01  0.6009E+01  0.6009E+01
      1.888  0.1940E+01  0.1940E+01  0.6113E+01  0.6113E+01
      1.942  0.1812E+01  0.1812E+01  0.6210E+01  0.6211E+01
      1.995  0.1608E+01  0.1608E+01  0.6297E+01  0.6297E+01
      2.049  0.1597E+01  0.1598E+01  0.6382E+01  0.6382E+01
      2.102  0.1823E+01  0.1824E+01  0.6480E+01  0.6480E+01
      2.156  0.2120E+01  0.2120E+01  0.6594E+01  0.6594E+01
      2.210  0.2307E+01  0.2307E+01  0.6718E+01  0.6718E+01
      2.263  0.2411E+01  0.2411E+01  0.6847E+01  0.6847E+01
      2.317  0.2432E+01  0.2432E+01  0.6977E+01  0.6977E+01
      2.370  0.2201E+01  0.2201E+01  0.7095E+01  0.7095E+01
      2.424  0.1842E+01  0.1842E+01  0.7194E+01  0.7194E+01
      2.478  0.1685E+01  0.1685E+01  0.7285E+01  0.7285E+01
      2.531  0.1709E+01  0.1709E+01  0.7376E+01  0.7376E+01
      2.585  0.1848E+01  0.1848E+01  0.7475E+01  0.7475E+01
      2.638  0.1978E+01  0.1978E+01  0.7581E+01  0.7581E+01
      2.692  0.1911E+01  0.1911E+01  0.7684E+01  0.7684E+01
      2.746  0.1857E+01  0.1857E+01  0.7784E+01  0.7784E+01
      2.799  0.2052E+01  0.2053E+01  0.7894E+01  0.7894E+01
      2.853  0.2337E+01  0.2337E+01  0.8019E+01  0.8019E+01
      2.906  0.2459E+01  0.2459E+01  0.8151E+01  0.8151E+01
      2.960  0.2523E+01  0.2523E+01  0.8286E+01  0.8286E+01
      3.014  0.2624E+01  0.2625E+01  0.8427E+01  0.8427E+01
      3.067  0.2709E+01  0.2709E+01  0.8572E+01  0.8572E+01
      3.121  0.2822E+01  0.2822E+01  0.8723E+01  0.8723E+01
      3.174  0.2937E+01  0.2937E+01  0.8881E+01  0.8881E+01
      3.228  0.2951E+01  0.2951E+01  0.9039E+01  0.9039E+01
      3.282  0.2879E+01  0.2879E+01  0.9194E+01  0.9194E+01
      3.335  0.2691E+01  0.2691E+01  0.9338E+01  0.9338E+01
      3.389  0.2423E+01  0.2423E+01  0.9468E+01  0.9468E+01
      3.442  0.2254E+01  0.2254E+01  0.9589E+01  0.9589E+01
      3.496  0.2198E+01  0.2198E+01  0.9707E+01  0.9707E+01
      3.550  0.2092E+01  0.2092E+01  0.9819E+01  0.9819E+01
      3.603  0.1991E+01  0.1991E+01  0.9926E+01  0.9926E+01
      3.657  0.2079E+01  0.2079E+01  0.1004E+02  0.1004E+02
      3.710  0.2168E+01  0.2168E+01  0.1015E+02  0.1015E+02
      3.764  0.2139E+01  0.2139E+01  0.1027E+02  0.1027E+02
      3.818  0.2194E+01  0.2194E+01  0.1039E+02  0.1039E+02
      3.871  0.2377E+01  0.2377E+01  0.1051E+02  0.1051E+02
      3.925  0.2619E+01  0.2619E+01  0.1065E+02  0.1065E+02
      3.978  0.2785E+01  0.2786E+01  0.1080E+02  0.1080E+02
      4.032  0.2806E+01  0.2806E+01  0.1095E+02  0.1095E+02
      4.086  0.2892E+01  0.2893E+01  0.1111E+02  0.1111E+02
      4.139  0.2989E+01  0.2989E+01  0.1127E+02  0.1127E+02
      4.193  0.2854E+01  0.2854E+01  0.1142E+02  0.1142E+02
      4.246  0.2569E+01  0.2569E+01  0.1156E+02  0.1156E+02
      4.300  0.2478E+01  0.2478E+01  0.1169E+02  0.1169E+02
      4.354  0.2719E+01  0.2719E+01  0.1184E+02  0.1184E+02
      4.407  0.3008E+01  0.3008E+01  0.1200E+02  0.1200E+02
      4.461  0.3127E+01  0.3127E+01  0.1217E+02  0.1217E+02
      4.514  0.3210E+01  0.3210E+01  0.1234E+02  0.1234E+02
      4.568  0.3174E+01  0.3174E+01  0.1251E+02  0.1251E+02
      4.622  0.3080E+01  0.3080E+01  0.1268E+02  0.1268E+02
      4.675  0.3135E+01  0.3135E+01  0.1284E+02  0.1284E+02
      4.729  0.3296E+01  0.3296E+01  0.1302E+02  0.1302E+02
      4.782  0.3580E+01  0.3580E+01  0.1321E+02  0.1321E+02
      4.836  0.3895E+01  0.3895E+01  0.1342E+02  0.1342E+02
      4.890  0.3997E+01  0.3997E+01  0.1364E+02  0.1364E+02
      4.943  0.3761E+01  0.3761E+01  0.1384E+02  0.1384E+02
      4.997  0.3444E+01  0.3444E+01  0.1402E+02  0.1402E+02
      5.050  0.3430E+01  0.3430E+01  0.1421E+02  0.1421E+02
      5.104  0.3685E+01  0.3685E+01  0.1440E+02  0.1440E+02
      5.158  0.3958E+01  0.3958E+01  0.1462E+02  0.1462E+02
      5.211  0.4086E+01  0.4086E+01  0.1483E+02  0.1483E+02
      5.265  0.4075E+01  0.4075E+01  0.1505E+02  0.1505E+02
      5.318  0.4069E+01  0.4069E+01  0.1527E+02  0.1527E+02
      5.372  0.4174E+01  0.4175E+01  0.1550E+02  0.1550E+02
      5.426  0.4252E+01  0.4252E+01  0.1572E+02  0.1572E+02
      5.479  0.4096E+01  0.4095E+01  0.1594E+02  0.1594E+02
      5.533  0.3835E+01  0.3835E+01  0.1615E+02  0.1615E+02
      5.587  0.3607E+01  0.3607E+01  0.1634E+02  0.1634E+02
      5.640  0.3430E+01  0.3430E+01  0.1653E+02  0.1653E+02
      5.694  0.3321E+01  0.3321E+01  0.1670E+02  0.1670E+02
      5.747  0.3307E+01  0.3308E+01  0.1688E+02  0.1688E+02
      5.801  0.3447E+01  0.3447E+01  0.1707E+02  0.1707E+02
      5.855  0.3712E+01  0.3713E+01  0.1727E+02  0.1727E+02
      5.908  0.3865E+01  0.3865E+01  0.1747E+02  0.1747E+02
      5.962  0.3887E+01  0.3887E+01  0.1768E+02  0.1768E+02
      6.015  0.3908E+01  0.3908E+01  0.1789E+02  0.1789E+02
      6.069  0.4034E+01  0.4034E+01  0.1811E+02  0.1811E+02
      6.123  0.4241E+01  0.4242E+01  0.1833E+02  0.1834E+02
      6.176  0.4630E+01  0.4630E+01  0.1858E+02  0.1858E+02
      6.230  0.5182E+01  0.5182E+01  0.1886E+02  0.1886E+02
      6.283  0.5419E+01  0.5419E+01  0.1915E+02  0.1915E+02
      6.337  0.5288E+01  0.5288E+01  0.1944E+02  0.1944E+02
      6.391  0.5216E+01  0.5216E+01  0.1971E+02  0.1972E+02
      6.444  0.5484E+01  0.5484E+01  0.2001E+02  0.2001E+02
      6.498  0.6145E+01  0.6146E+01  0.2034E+02  0.2034E+02
      6.551  0.6742E+01  0.6742E+01  0.2070E+02  0.2070E+02
      6.605  0.6667E+01  0.6667E+01  0.2106E+02  0.2106E+02
      6.659  0.6031E+01  0.6031E+01  0.2138E+02  0.2138E+02
      6.712  0.5206E+01  0.5205E+01  0.2166E+02  0.2166E+02
      6.766  0.4512E+01  0.4512E+01  0.2190E+02  0.2190E+02
      6.819  0.4174E+01  0.4174E+01  0.2213E+02  0.2213E+02
      6.873  0.4004E+01  0.4004E+01  0.2234E+02  0.2234E+02
      6.927  0.3914E+01  0.3915E+01  0.2255E+02  0.2255E+02
      6.980  0.3901E+01  0.3901E+01  0.2276E+02  0.2276E+02
      7.034  0.3890E+01  0.3890E+01  0.2297E+02  0.2297E+02
      7.087  0.3920E+01  0.3921E+01  0.2318E+02  0.2318E+02
      7.141  0.4166E+01  0.4166E+01  0.2340E+02  0.2340E+02
      7.195  0.4388E+01  0.4389E+01  0.2364E+02  0.2364E+02
      7.248  0.4385E+01  0.4386E+01  0.2387E+02  0.2387E+02
      7.302  0.4282E+01  0.4282E+01  0.2410E+02  0.2410E+02
      7.355  0.3959E+01  0.3958E+01  0.2432E+02  0.2432E+02
      7.409  0.3519E+01  0.3518E+01  0.2450E+02  0.2450E+02
      7.463  0.3157E+01  0.3156E+01  0.2467E+02  0.2467E+02
      7.516  0.2857E+01  0.2857E+01  0.2483E+02  0.2483E+02
      7.570  0.2524E+01  0.2524E+01  0.2496E+02  0.2496E+02
      7.623  0.2204E+01  0.2204E+01  0.2508E+02  0.2508E+02
      7.677  0.2097E+01  0.2097E+01  0.2519E+02  0.2519E+02
      7.731  0.2218E+01  0.2218E+01  0.2531E+02  0.2531E+02
      7.784  0.2380E+01  0.2380E+01  0.2544E+02  0.2544E+02
      7.838  0.2492E+01  0.2492E+01  0.2557E+02  0.2557E+02
      7.891  0.2495E+01  0.2495E+01  0.2571E+02  0.2571E+02
      7.945  0.2472E+01  0.2472E+01  0.2584E+02  0.2584E+02
      7.999  0.2599E+01  0.2600E+01  0.2598E+02  0.2598E+02
      8.052  0.2711E+01  0.2711E+01  0.2612E+02  0.2612E+02
      8.106  0.2617E+01  0.2616E+01  0.2626E+02  0.2626E+02
      8.159  0.2525E+01  0.2525E+01  0.2640E+02  0.2640E+02
      8.213  0.2730E+01  0.2731E+01  0.2655E+02  0.2655E+02
      8.267  0.3127E+01  0.3128E+01  0.2671E+02  0.2671E+02
      8.320  0.3335E+01  0.3335E+01  0.2689E+02  0.2689E+02
      8.374  0.3216E+01  0.3215E+01  0.2707E+02  0.2707E+02
      8.427  0.3084E+01  0.3084E+01  0.2723E+02  0.2723E+02
      8.481  0.3117E+01  0.3117E+01  0.2740E+02  0.2740E+02
      8.535  0.3232E+01  0.3232E+01  0.2757E+02  0.2757E+02
      8.588  0.3249E+01  0.3249E+01  0.2775E+02  0.2775E+02
      8.642  0.3069E+01  0.3069E+01  0.2791E+02  0.2791E+02
      8.695  0.2986E+01  0.2987E+01  0.2807E+02  0.2807E+02
      8.749  0.3140E+01  0.3141E+01  0.2824E+02  0.2824E+02
      8.803  0.3427E+01  0.3427E+01  0.2842E+02  0.2842E+02
      8.856  0.3847E+01  0.3848E+01  0.2863E+02  0.2863E+02
      8.910  0.4304E+01  0.4305E+01  0.2886E+02  0.2886E+02
      8.963  0.4633E+01  0.4633E+01  0.2911E+02  0.2911E+02
      9.017  0.4976E+01  0.4977E+01  0.2938E+02  0.2938E+02
      9.071  0.5656E+01  0.5657E+01  0.2968E+02  0.2968E+02
      9.124  0.6587E+01  0.6588E+01  0.3003E+02  0.3003E+02
      9.178  0.7248E+01  0.7248E+01  0.3042E+02  0.3042E+02
      9.231  0.7454E+01  0.7455E+01  0.3082E+02  0.3082E+02
      9.285  0.7513E+01  0.7514E+01  0.3122E+02  0.3122E+02
      9.339  0.7795E+01  0.7796E+01  0.3164E+02  0.3164E+02
      9.392  0.8427E+01  0.8428E+01  0.3209E+02  0.3209E+02
      9.446  0.9286E+01  0.9286E+01  0.3259E+02  0.3259E+02
      9.499  0.1031E+02  0.1031E+02  0.3314E+02  0.3314E+02
      9.553  0.1120E+02  0.1120E+02  0.3374E+02  0.3374E+02
      9.607  0.1121E+02  0.1121E+02  0.3435E+02  0.3435E+02
      9.660  0.9983E+01  0.9985E+01  0.3488E+02  0.3488E+02
      9.714  0.8143E+01  0.8143E+01  0.3532E+02  0.3532E+02
      9.767  0.6364E+01  0.6364E+01  0.3566E+02  0.3566E+02
      9.821  0.4897E+01  0.4896E+01  0.3592E+02  0.3592E+02
      9.875  0.3806E+01  0.3802E+01  0.3613E+02  0.3613E+02
      9.928  0.3183E+01  0.3180E+01  0.3630E+02  0.3630E+02
      9.982  0.3104E+01  0.3103E+01  0.3646E+02  0.3646E+02
     10.035  0.3404E+01  0.3405E+01  0.3665E+02  0.3665E+02
     10.089  0.3657E+01  0.3658E+01  0.3684E+02  0.3684E+02
     10.143  0.3715E+01  0.3715E+01  0.3704E+02  0.3704E+02
     10.196  0.3655E+01  0.3656E+01  0.3724E+02  0.3724E+02
     10.250  0.3530E+01  0.3533E+01  0.3743E+02  0.3743E+02
     10.303  0.3494E+01  0.3502E+01  0.3761E+02  0.3762E+02
     10.357  0.3551E+01  0.3571E+01  0.3781E+02  0.3781E+02
     10.411  0.3594E+01  0.3650E+01  0.3800E+02  0.3800E+02
     10.464  0.3583E+01  0.3690E+01  0.3819E+02  0.3820E+02
     10.518  0.3550E+01  0.3676E+01  0.3838E+02  0.3840E+02
     10.571  0.3481E+01  0.3597E+01  0.3857E+02  0.3859E+02
     10.625  0.3230E+01  0.3347E+01  0.3874E+02  0.3877E+02
     10.679  0.2801E+01  0.2937E+01  0.3889E+02  0.3893E+02
     10.732  0.2457E+01  0.2557E+01  0.3902E+02  0.3907E+02
     10.786  0.2318E+01  0.2328E+01  0.3915E+02  0.3919E+02
     10.840  0.2221E+01  0.2138E+01  0.3927E+02  0.3931E+02
     10.893  0.1991E+01  0.1809E+01  0.3937E+02  0.3940E+02
     10.947  0.1670E+01  0.1395E+01  0.3946E+02  0.3948E+02
     11.000  0.1433E+01  0.1143E+01  0.3954E+02  0.3954E+02
     11.054  0.1321E+01  0.1182E+01  0.3961E+02  0.3960E+02
     11.108  0.1265E+01  0.1343E+01  0.3968E+02  0.3967E+02
     11.161  0.1203E+01  0.1343E+01  0.3974E+02  0.3975E+02
     11.215  0.1110E+01  0.1198E+01  0.3980E+02  0.3981E+02
     11.268  0.9199E+00  0.9968E+00  0.3985E+02  0.3986E+02
     11.322  0.6991E+00  0.7663E+00  0.3989E+02  0.3990E+02
     11.376  0.5305E+00  0.6193E+00  0.3992E+02  0.3994E+02
     11.429  0.3982E+00  0.5054E+00  0.3994E+02  0.3997E+02
     11.483  0.2862E+00  0.3441E+00  0.3995E+02  0.3998E+02
     11.536  0.2181E+00  0.1809E+00  0.3997E+02  0.3999E+02
     11.590  0.1866E+00  0.7647E-01  0.3998E+02  0.4000E+02
     11.644  0.1663E+00  0.2776E-01  0.3999E+02  0.4000E+02
     11.697  0.1323E+00  0.9667E-02  0.3999E+02  0.4000E+02
     11.751  0.7946E-01  0.3258E-02  0.4000E+02  0.4000E+02
     11.804  0.3583E-01  0.8479E-03  0.4000E+02  0.4000E+02
     11.858  0.1372E-01  0.0000E+00  0.4000E+02  0.4000E+02
     11.912  0.4866E-02  0.0000E+00  0.4000E+02  0.4000E+02
     11.965  0.1575E-02  0.0000E+00  0.4000E+02  0.4000E+02
     12.019  0.4585E-03  0.0000E+00  0.4000E+02  0.4000E+02
     12.072  0.0000E+00  0.0000E+00  0.4000E+02  0.4000E+02
     12.126  0.0000E+00  0.0000E+00  0.4000E+02  0.4000E+02
     12.180  0.0000E+00  0.0000E+00  0.4000E+02  0.4000E+02
     12.233  0.0000E+00  0.0000E+00  0.4000E+02  0.4000E+02
     12.287  0.0000E+00  0.0000E+00  0.4000E+02  0.4000E+02
     12.340  0.0000E+00  0.0000E+00  0.4000E+02  0.4000E+02
     12.394  0.0000E+00  0.0000E+00  0.4000E+02  0.4000E+02
     12.39396561     -3.68664138  301      8.00633005      1.00000000
     -3.687  0.0000E+00  0.0000E+00  0.0000E+00  0.0000E+00  0.0000E+00  0.0000E+00  0.0000E+00  0.0000E+00  0.0000E+00  0.0000E+00  0.0000E+00  0.0000E+00  0.0000E+00  0.0000E+00  0.0000E+00  0.0000E+00  0.0000E+00  0.0000E+00
     -3.633  0.0000E+00  0.0000E+00  0.0000E+00  0.0000E+00  0.0000E+00  0.0000E+00  0.0000E+00  0.0000E+00  0.0000E+00  0.0000E+00  0.0000E+00  0.0000E+00  0.0000E+00  0.0000E+00  0.0000E+00  0.0000E+00  0.0000E+00  0.0000E+00
     -3.579  0.0000E+00  0.0000E+00  0.0000E+00  0.0000E+00  0.0000E+00  0.0000E+00  0.0000E+00  0.0000E+00  0.0000E+00  0.0000E+00  0.0000E+00  0.0000E+00  0.0000E+00  0.0000E+00  0.0000E+00  0.0000E+00  0.0000E+00  0.0000E+00
     -3.526  0.0000E+00  0.0000E+00  0.0000E+00  0.0000E+00  0.0000E+00  0.0000E+00  0.0000E+00  0.0000E+00  0.0000E+00  0.0000E+00  0.0000E+00  0.0000E+00  0.0000E+00  0.0000E+00  0.0000E+00  0.0000E+00  0.0000E+00  0.0000E+00
     -3.472  0.0000E+00  0.0000E+00  0.0000E+00  0.0000E+00  0.0000E+00  0.0000E+00  0.0000E+00  0.0000E+00  0.0000E+00  0.0000E+00  0.0000E+00  0.0000E+00  0.0000E+00  0.0000E+00  0.0000E+00  0.0000E+00  0.0000E+00  0.0000E+00
     -3.419  0.0000E+00  0.0000E+00  0.0000E+00  0.0000E+00  0.0000E+00  0.0000E+00  0.0000E+00  0.0000E+00  0.0000E+00  0.0000E+00  0.0000E+00  0.0000E+00  0.0000E+00  0.0000E+00  0.0000E+00  0.0000E+00  0.0000E+00  0.0000E+00
     -3.365  0.3644E-06  0.3647E-06  0.4838E-22  0.1590E-22  0.1635E-08  0.1637E-08  0.4838E-22  0.1590E-22  0.1552E-24  0.4600E-24  0.1577E-22  0.5837E-23  0.4140E-10  0.4141E-10  0.1577E-22  0.5837E-23  0.3119E-21  0.3636E-22
     -3.311  0.2482E-05  0.2484E-05  0.5439E-08  0.5444E-08  0.1780E-07  0.1781E-07  0.5439E-08  0.5444E-08  0.1651E-21  0.7495E-22  0.6317E-10  0.6326E-10  0.3192E-09  0.3194E-09  0.6317E-10  0.6326E-10  0.2873E-10  0.2876E-10
     -3.258  0.8376E-05  0.8384E-05  0.2839E-07  0.2842E-07  0.7239E-07  0.7245E-07  0.2839E-07  0.2842E-07  0.1813E-09  0.1814E-09  0.5333E-09  0.5340E-09  0.1093E-08  0.1093E-08  0.5333E-09  0.5340E-09  0.1025E-09  0.1026E-09
     -3.204  0.2309E-04  0.2311E-04  0.7978E-07  0.7986E-07  0.2014E-06  0.2016E-06  0.7978E-07  0.7986E-07  0.6508E-09  0.6514E-09  0.1656E-08  0.1659E-08  0.2979E-08  0.2980E-08  0.1656E-08  0.1659E-08  0.2518E-09  0.2520E-09
     -3.151  0.6640E-04  0.6646E-04  0.2300E-06  0.2302E-06  0.5815E-06  0.5821E-06  0.2300E-06  0.2302E-06  0.1597E-08  0.1598E-08  0.4472E-08  0.4478E-08  0.8873E-08  0.8876E-08  0.4472E-08  0.4478E-08  0.9913E-09  0.9923E-09
     -3.097  0.1902E-03  0.1904E-03  0.6600E-06  0.6606E-06  0.1715E-05  0.1717E-05  0.6600E-06  0.6606E-06  0.4650E-08  0.4654E-08  0.1343E-07  0.1345E-07  0.2517E-07  0.2518E-07  0.1343E-07  0.1345E-07  0.2643E-08  0.2646E-08
     -3.043  0.5311E-03  0.5316E-03  0.2016E-05  0.2018E-05  0.4830E-05  0.4834E-05  0.2016E-05  0.2018E-05  0.1597E-07  0.1598E-07  0.4110E-07  0.4115E-07  0.7291E-07  0.7293E-07  0.4110E-07  0.4115E-07  0.9468E-08  0.9477E-08
     -2.990  0.1359E-02  0.1360E-02  0.5585E-05  0.5590E-05  0.1301E-04  0.1302E-04  0.5585E-05  0.5590E-05  0.4793E-07  0.4797E-07  0.1196E-06  0.1197E-06  0.1883E-06  0.1883E-06  0.1196E-06  0.1197E-06  0.2542E-07  0.2544E-07
     -2.936  0.3010E-02  0.3012E-02  0.1404E-04  0.1405E-04  0.3091E-04  0.3093E-04  0.1404E-04  0.1405E-04  0.1274E-06  0.1275E-06  0.3083E-06  0.3087E-06  0.4272E-06  0.4272E-06  0.3083E-06  0.3087E-06  0.6378E-07  0.6384E-07
     -2.883  0.5485E-02  0.5487E-02  0.3069E-04  0.3071E-04  0.6278E-04  0.6282E-04  0.3069E-04  0.3071E-04  0.3233E-06  0.3236E-06  0.7263E-06  0.7270E-06  0.8161E-06  0.8160E-06  0.7263E-06  0.7270E-06  0.1450E-06  0.1451E-06
     -2.829  0.8004E-02  0.8006E-02  0.5556E-04  0.5559E-04  0.1057E-03  0.1057E-03  0.5556E-04  0.5559E-04  0.6972E-06  0.6976E-06  0.1450E-05  0.1451E-05  0.1307E-05  0.1307E-05  0.1450E-05  0.1451E-05  0.3032E-06  0.3034E-06
     -2.775  0.9689E-02  0.9690E-02  0.8646E-04  0.8649E-04  0.1535E-03  0.1536E-03  0.8646E-04  0.8649E-04  0.1257E-05  0.1257E-05  0.2473E-05  0.2475E-05  0.1913E-05  0.1913E-05  0.2473E-05  0.2475E-05  0.6383E-06  0.6388E-06
     -2.722  0.1112E-01  0.1112E-01  0.1304E-03  0.1304E-03  0.2182E-03  0.2183E-03  0.1304E-03  0.1304E-03  0.2150E-05  0.2151E-05  0.4068E-05  0.4071E-05  0.2900E-05  0.2900E-05  0.4068E-05  0.4071E-05  0.1317E-05  0.1318E-05
     -2.668  0.1369E-01  0.1369E-01  0.1995E-03  0.1996E-03  0.3202E-03  0.3203E-03  0.1995E-03  0.1996E-03  0.3832E-05  0.3834E-05  0.6903E-05  0.6907E-05  0.4414E-05  0.4415E-05  0.6903E-05  0.6907E-05  0.2311E-05  0.2312E-05
     -2.615  0.1646E-01  0.1647E-01  0.2746E-03  0.2746E-03  0.4319E-03  0.4320E-03  0.2746E-03  0.2746E-03  0.6331E-05  0.6333E-05  0.1075E-04  0.1076E-04  0.5820E-05  0.5819E-05  0.1075E-04  0.1076E-04  0.3145E-05  0.3145E-05
     -2.561  0.1669E-01  0.1668E-01  0.3092E-03  0.3092E-03  0.4901E-03  0.4902E-03  0.3092E-03  0.3092E-03  0.8563E-05  0.8564E-05  0.1392E-04  0.1393E-04  0.6380E-05  0.6379E-05  0.1392E-04  0.1393E-04  0.3456E-05  0.3456E-05
     -2.507  0.1507E-01  0.1507E-01  0.3198E-03  0.3199E-03  0.5283E-03  0.5284E-03  0.3198E-03  0.3199E-03  0.1061E-04  0.1061E-04  0.1694E-04  0.1695E-04  0.6976E-05  0.6976E-05  0.1694E-04  0.1695E-04  0.3930E-05  0.3931E-05
     -2.454  0.1563E-01  0.1563E-01  0.3945E-03  0.3947E-03  0.6553E-03  0.6555E-03  0.3945E-03  0.3947E-03  0.1486E-04  0.1487E-04  0.2362E-04  0.2363E-04  0.9445E-05  0.9447E-05  0.2362E-04  0.2363E-04  0.5946E-05  0.5948E-05
     -2.400  0.1863E-01  0.1863E-01  0.5468E-03  0.5469E-03  0.8231E-03  0.8232E-03  0.5468E-03  0.5469E-03  0.2116E-04  0.2117E-04  0.3320E-04  0.3321E-04  0.1388E-04  0.1389E-04  0.3320E-04  0.3321E-04  0.1018E-04  0.1018E-04
     -2.347  0.2038E-01  0.2038E-01  0.6840E-03  0.6841E-03  0.8707E-03  0.8707E-03  0.6840E-03  0.6841E-03  0.2592E-04  0.2592E-04  0.3974E-04  0.3975E-04  0.1840E-04  0.1840E-04  0.3974E-04  0.3975E-04  0.1559E-04  0.1559E-04
     -2.293  0.1997E-01  0.1997E-01  0.7521E-03  0.7522E-03  0.8498E-03  0.8498E-03  0.7521E-03  0.7522E-03  0.2963E-04  0.2963E-04  0.4450E-04  0.4451E-04  0.2124E-04  0.2124E-04  0.4450E-04  0.4451E-04  0.1929E-04  0.1929E-04
     -2.239  0.1950E-01  0.1950E-01  0.7817E-03  0.7817E-03  0.9510E-03  0.9512E-03  0.7817E-03  0.7817E-03  0.3662E-04  0.3663E-04  0.5474E-04  0.5476E-04  0.2235E-04  0.2234E-04  0.5474E-04  0.5476E-04  0.1938E-04  0.1937E-04
     -2.186  0.1993E-01  0.1993E-01  0.8363E-03  0.8364E-03  0.1131E-02  0.1131E-02  0.8363E-03  0.8364E-03  0.4923E-04  0.4925E-04  0.6967E-04  0.6968E-04  0.2358E-04  0.2358E-04  0.6967E-04  0.6968E-04  0.1842E-04  0.1842E-04
     -2.132  0.2063E-01  0.2063E-01  0.9505E-03  0.9507E-03  0.1197E-02  0.1197E-02  0.9505E-03  0.9507E-03  0.6635E-04  0.6637E-04  0.8241E-04  0.8242E-04  0.2614E-04  0.2614E-04  0.8241E-04  0.8242E-04  0.2002E-04  0.2002E-04
     -2.079  0.2023E-01  0.2023E-01  0.1031E-02  0.1031E-02  0.1148E-02  0.1148E-02  0.1031E-02  0.1031E-02  0.7776E-04  0.7777E-04  0.8905E-04  0.8906E-04  0.2818E-04  0.2817E-04  0.8905E-04  0.8906E-04  0.2287E-04  0.2287E-04
     -2.025  0.1858E-01  0.1857E-01  0.1009E-02  0.1009E-02  0.1157E-02  0.1157E-02  0.1009E-02  0.1009E-02  0.7419E-04  0.7419E-04  0.9266E-04  0.9267E-04  0.3013E-04  0.3013E-04  0.9266E-04  0.9267E-04  0.2648E-04  0.2648E-04
     -1.971  0.1873E-01  0.1874E-01  0.1089E-02  0.1089E-02  0.1372E-02  0.1372E-02  0.1089E-02  0.1089E-02  0.7306E-04  0.7307E-04  0.1073E-03  0.1073E-03  0.3892E-04  0.3892E-04  0.1073E-03  0.1073E-03  0.3679E-04  0.3680E-04
     -1.918  0.2203E-01  0.2204E-01  0.1400E-02  0.1400E-02  0.1746E-02  0.1746E-02  0.1400E-02  0.1400E-02  0.9363E-04  0.9366E-04  0.1358E-03  0.1359E-03  0.5781E-04  0.5783E-04  0.1358E-03  0.1359E-03  0.5481E-04  0.5483E-04
     -1.864  0.2475E-01  0.2475E-01  0.1685E-02  0.1685E-02  0.2031E-02  0.2031E-02  0.1685E-02  0.1685E-02  0.1246E-03  0.1246E-03  0.1565E-03  0.1565E-03  0.7722E-04  0.7722E-04  0.1565E-03  0.1565E-03  0.6820E-04  0.6820E-04
     -1.811  0.2430E-01  0.2430E-01  0.1742E-02  0.1742E-02  0.2074E-02  0.2074E-02  0.1742E-02  0.1742E-02  0.1505E-03  0.1506E-03  0.1624E-03  0.1624E-03  0.8472E-04  0.8471E-04  0.1624E-03  0.1624E-03  0.6821E-04  0.6820E-04
     -1.757  0.2339E-01  0.2339E-01  0.1777E-02  0.1777E-02  0.2103E-02  0.2103E-02  0.1777E-02  0.1777E-02  0.1750E-03  0.1750E-03  0.1849E-03  0.1850E-03  0.8303E-04  0.8301E-04  0.1849E-03  0.1850E-03  0.6628E-04  0.6628E-04
     -1.703  0.2467E-01  0.2467E-01  0.1970E-02  0.1970E-02  0.2390E-02  0.2390E-02  0.1970E-02  0.1970E-02  0.2031E-03  0.2032E-03  0.2383E-03  0.2384E-03  0.8472E-04  0.8471E-04  0.2383E-03  0.2384E-03  0.7320E-04  0.7321E-04
     -1.650  0.2523E-01  0.2522E-01  0.2058E-02  0.2058E-02  0.2657E-02  0.2658E-02  0.2058E-02  0.2058E-02  0.2205E-03  0.2205E-03  0.2779E-03  0.2779E-03  0.8611E-04  0.8609E-04  0.2779E-03  0.2779E-03  0.7545E-04  0.7544E-04
     -1.596  0.2161E-01  0.2161E-01  0.1811E-02  0.1811E-02  0.2460E-02  0.2460E-02  0.1811E-02  0.1811E-02  0.2088E-03  0.2088E-03  0.2678E-03  0.2678E-03  0.7485E-04  0.7482E-04  0.2678E-03  0.2678E-03  0.6353E-04  0.6351E-04
     -1.543  0.1769E-01  0.1769E-01  0.1617E-02  0.1617E-02  0.2154E-02  0.2155E-02  0.1617E-02  0.1617E-02  0.2023E-03  0.2023E-03  0.2603E-03  0.2603E-03  0.6366E-04  0.6365E-04  0.2603E-03  0.2603E-03  0.5705E-04  0.5705E-04
     -1.489  0.1830E-01  0.1830E-01  0.1873E-02  0.1873E-02  0.2408E-02  0.2409E-02  0.1873E-02  0.1873E-02  0.2486E-03  0.2487E-03  0.3078E-03  0.3079E-03  0.7752E-04  0.7754E-04  0.3078E-03  0.3079E-03  0.7171E-04  0.7173E-04
     -1.435  0.2181E-01  0.2181E-01  0.2410E-02  0.2410E-02  0.3133E-02  0.3134E-02  0.2410E-02  0.2410E-02  0.3316E-03  0.3317E-03  0.3718E-03  0.3719E-03  0.1210E-03  0.1210E-03  0.3718E-03  0.3719E-03  0.1029E-03  0.1029E-03
     -1.382  0.2498E-01  0.2498E-01  0.2938E-02  0.2939E-02  0.3882E-02  0.3883E-02  0.2938E-02  0.2939E-02  0.3998E-03  0.3999E-03  0.4199E-03  0.4200E-03  0.1728E-03  0.1728E-03  0.4199E-03  0.4200E-03  0.1424E-03  0.1424E-03
     -1.328  0.2598E-01  0.2598E-01  0.3216E-02  0.3216E-02  0.4292E-02  0.4293E-02  0.3216E-02  0.3216E-02  0.4132E-03  0.4131E-03  0.4624E-03  0.4624E-03  0.1962E-03  0.1962E-03  0.4624E-03  0.4624E-03  0.1729E-03  0.1729E-03
     -1.275  0.2452E-01  0.2452E-01  0.3188E-02  0.3188E-02  0.4254E-02  0.4254E-02  0.3188E-02  0.3188E-02  0.4030E-03  0.4030E-03  0.4995E-03  0.4995E-03  0.1834E-03  0.1834E-03  0.4995E-03  0.4995E-03  0.1787E-03  0.1787E-03
     -1.221  0.2378E-01  0.2378E-01  0.3272E-02  0.3272E-02  0.4397E-02  0.4397E-02  0.3272E-02  0.3272E-02  0.4518E-03  0.4519E-03  0.5661E-03  0.5662E-03  0.1762E-03  0.1762E-03  0.5661E-03  0.5662E-03  0.1776E-03  0.1776E-03
     -1.167  0.2435E-01  0.2435E-01  0.3522E-02  0.3522E-02  0.4899E-02  0.4900E-02  0.3522E-02  0.3522E-02  0.5274E-03  0.5274E-03  0.6528E-03  0.6529E-03  0.1874E-03  0.1874E-03  0.6528E-03  0.6529E-03  0.1844E-03  0.1844E-03
     -1.114  0.2231E-01  0.2230E-01  0.3387E-02  0.3386E-02  0.4938E-02  0.4938E-02  0.3387E-02  0.3386E-02  0.5360E-03  0.5359E-03  0.6658E-03  0.6658E-03  0.1764E-03  0.1763E-03  0.6658E-03  0.6658E-03  0.1745E-03  0.1744E-03
     -1.060  0.1883E-01  0.1883E-01  0.3046E-02  0.3046E-02  0.4758E-02  0.4758E-02  0.3046E-02  0.3046E-02  0.5438E-03  0.5439E-03  0.6701E-03  0.6703E-03  0.1445E-03  0.1444E-03  0.6701E-03  0.6703E-03  0.1465E-03  0.1465E-03
     -1.007  0.1846E-01  0.1847E-01  0.3191E-02  0.3191E-02  0.5327E-02  0.5329E-02  0.3191E-02  0.3191E-02  0.6564E-03  0.6566E-03  0.8110E-03  0.8113E-03  0.1396E-03  0.1396E-03  0.8110E-03  0.8113E-03  0.1380E-03  0.1380E-03