  16  16   1   0
  0.1726182E+02  0.4012466E-09  0.4012466E-09  0.1715473E-08  0.5000000E-15
  1.000000000000000E-004
  CAR 
 unknown system                          
     10.24512287     -4.23136183  301      6.35719077      1.00000000
     -4.231  0.0000E+00  0.0000E+00  0.0000E+00  0.0000E+00
     -4.183  0.0000E+00  0.0000E+00  0.0000E+00  0.0000E+00
     -4.135  0.0000E+00  0.0000E+00  0.0000E+00  0.0000E+00
     -4.087  0.0000E+00  0.0000E+00  0.0000E+00  0.0000E+00
     -4.038  0.0000E+00  0.0000E+00  0.0000E+00  0.0000E+00
     -3.990  0.9807E-05  0.9749E-05  0.4732E-06  0.4705E-06
     -3.942  0.6706E-04  0.6667E-04  0.3709E-05  0.3688E-05
     -3.894  0.2139E-03  0.2127E-03  0.1403E-04  0.1395E-04
     -3.845  0.5236E-03  0.5206E-03  0.3930E-04  0.3907E-04
     -3.797  0.1352E-02  0.1344E-02  0.1046E-03  0.1040E-03
     -3.749  0.3524E-02  0.3504E-02  0.2746E-03  0.2730E-03
     -3.701  0.9192E-02  0.9140E-02  0.7182E-03  0.7141E-03
     -3.652  0.2283E-01  0.2271E-01  0.1820E-02  0.1810E-02
     -3.604  0.5236E-01  0.5211E-01  0.4347E-02  0.4325E-02
     -3.556  0.1068E+00  0.1064E+00  0.9502E-02  0.9461E-02
     -3.508  0.1842E+00  0.1837E+00  0.1839E-01  0.1832E-01
     -3.459  0.2638E+00  0.2634E+00  0.3112E-01  0.3103E-01
     -3.411  0.3274E+00  0.3270E+00  0.4692E-01  0.4681E-01
     -3.363  0.3913E+00  0.3909E+00  0.6580E-01  0.6568E-01
     -3.315  0.4798E+00  0.4793E+00  0.8895E-01  0.8880E-01
     -3.266  0.5566E+00  0.5563E+00  0.1158E+00  0.1157E+00
     -3.218  0.5662E+00  0.5663E+00  0.1431E+00  0.1430E+00
     -3.170  0.5508E+00  0.5508E+00  0.1697E+00  0.1696E+00
     -3.121  0.6007E+00  0.6002E+00  0.1987E+00  0.1985E+00
     -3.073  0.6917E+00  0.6913E+00  0.2321E+00  0.2319E+00
     -3.025  0.7380E+00  0.7379E+00  0.2677E+00  0.2675E+00
     -2.977  0.7411E+00  0.7410E+00  0.3035E+00  0.3033E+00
     -2.928  0.7519E+00  0.7517E+00  0.3398E+00  0.3395E+00
     -2.880  0.7815E+00  0.7813E+00  0.3775E+00  0.3773E+00
     -2.832  0.8029E+00  0.8028E+00  0.4163E+00  0.4160E+00
     -2.784  0.7876E+00  0.7877E+00  0.4543E+00  0.4541E+00
     -2.735  0.7770E+00  0.7768E+00  0.4918E+00  0.4916E+00
     -2.687  0.8571E+00  0.8564E+00  0.5332E+00  0.5329E+00
     -2.639  0.9911E+00  0.9904E+00  0.5810E+00  0.5807E+00
     -2.591  0.1057E+01  0.1057E+01  0.6320E+00  0.6317E+00
     -2.542  0.1052E+01  0.1052E+01  0.6828E+00  0.6825E+00
     -2.494  0.1080E+01  0.1079E+01  0.7349E+00  0.7346E+00
     -2.446  0.1136E+01  0.1136E+01  0.7898E+00  0.7895E+00
     -2.398  0.1089E+01  0.1090E+01  0.8424E+00  0.8421E+00
     -2.349  0.9505E+00  0.9513E+00  0.8883E+00  0.8880E+00
     -2.301  0.9186E+00  0.9184E+00  0.9326E+00  0.9323E+00
     -2.253  0.1058E+01  0.1057E+01  0.9837E+00  0.9834E+00
     -2.205  0.1252E+01  0.1251E+01  0.1044E+01  0.1044E+01
     -2.156  0.1384E+01  0.1383E+01  0.1111E+01  0.1111E+01
     -2.108  0.1399E+01  0.1399E+01  0.1178E+01  0.1178E+01
     -2.060  0.1383E+01  0.1383E+01  0.1245E+01  0.1245E+01
     -2.012  0.1429E+01  0.1429E+01  0.1314E+01  0.1314E+01
     -1.963  0.1421E+01  0.1421E+01  0.1383E+01  0.1382E+01
     -1.915  0.1308E+01  0.1309E+01  0.1446E+01  0.1446E+01
     -1.867  0.1282E+01  0.1282E+01  0.1508E+01  0.1507E+01
     -1.819  0.1394E+01  0.1393E+01  0.1575E+01  0.1575E+01
     -1.770  0.1498E+01  0.1497E+01  0.1647E+01  0.1647E+01
     -1.722  0.1549E+01  0.1548E+01  0.1722E+01  0.1722E+01
     -1.674  0.1590E+01  0.1589E+01  0.1799E+01  0.1799E+01
     -1.626  0.1612E+01  0.1612E+01  0.1877E+01  0.1876E+01
     -1.577  0.1580E+01  0.1580E+01  0.1953E+01  0.1953E+01
     -1.529  0.1524E+01  0.1524E+01  0.2027E+01  0.2026E+01
     -1.481  0.1550E+01  0.1549E+01  0.2101E+01  0.2101E+01
     -1.433  0.1677E+01  0.1676E+01  0.2182E+01  0.2182E+01
     -1.384  0.1779E+01  0.1779E+01  0.2268E+01  0.2268E+01
     -1.336  0.1727E+01  0.1727E+01  0.2352E+01  0.2351E+01
     -1.288  0.1557E+01  0.1558E+01  0.2427E+01  0.2426E+01
     -1.240  0.1425E+01  0.1425E+01  0.2496E+01  0.2495E+01
     -1.191  0.1327E+01  0.1328E+01  0.2560E+01  0.2559E+01
     -1.143  0.1209E+01  0.1209E+01  0.2618E+01  0.2618E+01
     -1.095  0.1166E+01  0.1166E+01  0.2674E+01  0.2674E+01
     -1.047  0.1261E+01  0.1260E+01  0.2735E+01  0.2735E+01
     -0.998  0.1449E+01  0.1447E+01  0.2805E+01  0.2805E+01
     -0.950  0.1603E+01  0.1603E+01  0.2883E+01  0.2882E+01
     -0.902  0.1603E+01  0.1603E+01  0.2960E+01  0.2960E+01
     -0.854  0.1510E+01  0.1511E+01  0.3033E+01  0.3033E+01
     -0.805  0.1476E+01  0.1476E+01  0.3104E+01  0.3104E+01
     -0.757  0.1487E+01  0.1487E+01  0.3176E+01  0.3176E+01
     -0.709  0.1486E+01  0.1486E+01  0.3248E+01  0.3247E+01
     -0.660  0.1524E+01  0.1523E+01  0.3321E+01  0.3321E+01
     -0.612  0.1651E+01  0.1650E+01  0.3401E+01  0.3401E+01
     -0.564  0.1809E+01  0.1808E+01  0.3488E+01  0.3488E+01
     -0.516  0.1866E+01  0.1866E+01  0.3579E+01  0.3578E+01
     -0.467  0.1792E+01  0.1793E+01  0.3665E+01  0.3665E+01
     -0.419  0.1691E+01  0.1691E+01  0.3747E+01  0.3746E+01
     -0.371  0.1650E+01  0.1650E+01  0.3826E+01  0.3826E+01
     -0.323  0.1686E+01  0.1685E+01  0.3908E+01  0.3907E+01
     -0.274  0.1748E+01  0.1748E+01  0.3992E+01  0.3992E+01
     -0.226  0.1786E+01  0.1786E+01  0.4078E+01  0.4078E+01
     -0.178  0.1802E+01  0.1802E+01  0.4165E+01  0.4165E+01
     -0.130  0.1862E+01  0.1861E+01  0.4255E+01  0.4255E+01
     -0.081  0.2010E+01  0.2009E+01  0.4352E+01  0.4352E+01
     -0.033  0.2143E+01  0.2143E+01  0.4456E+01  0.4455E+01
      0.015  0.2195E+01  0.2195E+01  0.4562E+01  0.4561E+01
      0.063  0.2222E+01  0.2222E+01  0.4669E+01  0.4668E+01
      0.112  0.2266E+01  0.2266E+01  0.4778E+01  0.4778E+01
      0.160  0.2296E+01  0.2296E+01  0.4889E+01  0.4888E+01
      0.208  0.2299E+01  0.2299E+01  0.5000E+01  0.4999E+01
      0.256  0.2267E+01  0.2267E+01  0.5110E+01  0.5109E+01
      0.305  0.2138E+01  0.2139E+01  0.5213E+01  0.5212E+01
      0.353  0.2012E+01  0.2013E+01  0.5310E+01  0.5309E+01
      0.401  0.2039E+01  0.2039E+01  0.5408E+01  0.5408E+01
      0.449  0.2088E+01  0.2088E+01  0.5509E+01  0.5509E+01
      0.498  0.1991E+01  0.1992E+01  0.5605E+01  0.5605E+01
      0.546  0.1884E+01  0.1884E+01  0.5696E+01  0.5696E+01
      0.594  0.1945E+01  0.1944E+01  0.5790E+01  0.5790E+01
      0.642  0.2053E+01  0.2053E+01  0.5889E+01  0.5889E+01
      0.691  0.2047E+01  0.2048E+01  0.5988E+01  0.5988E+01
      0.739  0.1990E+01  0.1991E+01  0.6084E+01  0.6084E+01
      0.787  0.1904E+01  0.1905E+01  0.6176E+01  0.6176E+01
      0.835  0.1776E+01  0.1777E+01  0.6262E+01  0.6262E+01
      0.884  0.1712E+01  0.1712E+01  0.6345E+01  0.6344E+01
      0.932  0.1862E+01  0.1860E+01  0.6435E+01  0.6434E+01
      0.980  0.2227E+01  0.2225E+01  0.6542E+01  0.6541E+01
      1.028  0.2601E+01  0.2599E+01  0.6668E+01  0.6667E+01
      1.077  0.2814E+01  0.2813E+01  0.6804E+01  0.6803E+01
      1.125  0.2796E+01  0.2796E+01  0.6939E+01  0.6938E+01
      1.173  0.2565E+01  0.2567E+01  0.7062E+01  0.7062E+01
      1.221  0.2214E+01  0.2216E+01  0.7169E+01  0.7169E+01
      1.270  0.1929E+01  0.1930E+01  0.7262E+01  0.7262E+01
      1.318  0.1824E+01  0.1824E+01  0.7350E+01  0.7350E+01
      1.366  0.1873E+01  0.1872E+01  0.7441E+01  0.7440E+01
      1.414  0.2062E+01  0.2060E+01  0.7541E+01  0.7540E+01
      1.463  0.2284E+01  0.2283E+01  0.7651E+01  0.7650E+01
      1.511  0.2439E+01  0.2438E+01  0.7769E+01  0.7768E+01
      1.559  0.2549E+01  0.2548E+01  0.7892E+01  0.7891E+01
      1.607  0.2651E+01  0.2651E+01  0.8020E+01  0.8019E+01
      1.656  0.2717E+01  0.2717E+01  0.8151E+01  0.8150E+01
      1.704  0.2688E+01  0.2689E+01  0.8281E+01  0.8280E+01
      1.752  0.2627E+01  0.2627E+01  0.8407E+01  0.8407E+01
      1.801  0.2753E+01  0.2752E+01  0.8540E+01  0.8539E+01
      1.849  0.3105E+01  0.3103E+01  0.8690E+01  0.8689E+01
      1.897  0.3354E+01  0.3353E+01  0.8852E+01  0.8851E+01
      1.945  0.3288E+01  0.3290E+01  0.9011E+01  0.9010E+01
      1.994  0.3057E+01  0.3059E+01  0.9158E+01  0.9158E+01
      2.042  0.2818E+01  0.2820E+01  0.9295E+01  0.9294E+01
      2.090  0.2576E+01  0.2578E+01  0.9419E+01  0.9418E+01
      2.138  0.2312E+01  0.2314E+01  0.9531E+01  0.9530E+01
      2.187  0.2082E+01  0.2083E+01  0.9631E+01  0.9630E+01
      2.235  0.2004E+01  0.2004E+01  0.9728E+01  0.9727E+01
      2.283  0.2101E+01  0.2100E+01  0.9829E+01  0.9829E+01
      2.331  0.2217E+01  0.2217E+01  0.9936E+01  0.9936E+01
      2.380  0.2233E+01  0.2233E+01  0.1004E+02  0.1004E+02
      2.428  0.2179E+01  0.2179E+01  0.1015E+02  0.1015E+02
      2.476  0.2151E+01  0.2151E+01  0.1025E+02  0.1025E+02
      2.524  0.2240E+01  0.2239E+01  0.1036E+02  0.1036E+02
      2.573  0.2448E+01  0.2447E+01  0.1048E+02  0.1048E+02
      2.621  0.2634E+01  0.2633E+01  0.1061E+02  0.1061E+02
      2.669  0.2735E+01  0.2735E+01  0.1074E+02  0.1074E+02
      2.717  0.2847E+01  0.2846E+01  0.1088E+02  0.1088E+02
      2.766  0.3001E+01  0.3000E+01  0.1102E+02  0.1102E+02
      2.814  0.3076E+01  0.3076E+01  0.1117E+02  0.1117E+02
      2.862  0.2996E+01  0.2997E+01  0.1131E+02  0.1131E+02
      2.910  0.2786E+01  0.2788E+01  0.1145E+02  0.1145E+02
      2.959  0.2561E+01  0.2563E+01  0.1157E+02  0.1157E+02
      3.007  0.2501E+01  0.2501E+01  0.1169E+02  0.1169E+02
      3.055  0.2729E+01  0.2727E+01  0.1183E+02  0.1182E+02
      3.103  0.3119E+01  0.3117E+01  0.1198E+02  0.1197E+02
      3.152  0.3369E+01  0.3368E+01  0.1214E+02  0.1214E+02
      3.200  0.3438E+01  0.3438E+01  0.1230E+02  0.1230E+02
      3.248  0.3419E+01  0.3419E+01  0.1247E+02  0.1247E+02
      3.296  0.3391E+01  0.3391E+01  0.1263E+02  0.1263E+02
      3.345  0.3367E+01  0.3367E+01  0.1280E+02  0.1279E+02
      3.393  0.3338E+01  0.3338E+01  0.1296E+02  0.1296E+02
      3.441  0.3436E+01  0.3435E+01  0.1312E+02  0.1312E+02
      3.489  0.3761E+01  0.3758E+01  0.1330E+02  0.1330E+02
      3.538  0.4124E+01  0.4122E+01  0.1350E+02  0.1350E+02
      3.586  0.4137E+01  0.4139E+01  0.1370E+02  0.1370E+02
      3.634  0.3774E+01  0.3777E+01  0.1389E+02  0.1388E+02
      3.682  0.3402E+01  0.3403E+01  0.1405E+02  0.1405E+02
      3.731  0.3324E+01  0.3323E+01  0.1421E+02  0.1421E+02
      3.779  0.3617E+01  0.3614E+01  0.1438E+02  0.1438E+02
      3.827  0.4119E+01  0.4116E+01  0.1458E+02  0.1458E+02
      3.875  0.4476E+01  0.4475E+01  0.1480E+02  0.1480E+02
      3.924  0.4504E+01  0.4505E+01  0.1502E+02  0.1502E+02
      3.972  0.4421E+01  0.4421E+01  0.1523E+02  0.1523E+02
      4.020  0.4480E+01  0.4479E+01  0.1545E+02  0.1545E+02
      4.068  0.4547E+01  0.4547E+01  0.1567E+02  0.1566E+02
      4.117  0.4464E+01  0.4465E+01  0.1588E+02  0.1588E+02
      4.165  0.4303E+01  0.4304E+01  0.1609E+02  0.1609E+02
      4.213  0.4101E+01  0.4102E+01  0.1629E+02  0.1629E+02
      4.262  0.3851E+01  0.3853E+01  0.1647E+02  0.1647E+02
      4.310  0.3625E+01  0.3627E+01  0.1665E+02  0.1665E+02
      4.358  0.3511E+01  0.3512E+01  0.1682E+02  0.1682E+02
      4.406  0.3597E+01  0.3596E+01  0.1699E+02  0.1699E+02
      4.455  0.3918E+01  0.3916E+01  0.1718E+02  0.1718E+02
      4.503  0.4277E+01  0.4275E+01  0.1739E+02  0.1739E+02
      4.551  0.4463E+01  0.4463E+01  0.1760E+02  0.1760E+02
      4.599  0.4525E+01  0.4524E+01  0.1782E+02  0.1782E+02
      4.648  0.4628E+01  0.4627E+01  0.1804E+02  0.1804E+02
      4.696  0.4819E+01  0.4817E+01  0.1828E+02  0.1828E+02
      4.744  0.5065E+01  0.5063E+01  0.1852E+02  0.1852E+02
      4.792  0.5401E+01  0.5399E+01  0.1878E+02  0.1878E+02
      4.841  0.5722E+01  0.5720E+01  0.1906E+02  0.1906E+02
      4.889  0.5861E+01  0.5860E+01  0.1934E+02  0.1934E+02
      4.937  0.5879E+01  0.5878E+01  0.1963E+02  0.1962E+02
      4.985  0.6037E+01  0.6035E+01  0.1992E+02  0.1992E+02
      5.034  0.6372E+01  0.6370E+01  0.2022E+02  0.2022E+02
      5.082  0.6647E+01  0.6646E+01  0.2055E+02  0.2054E+02
      5.130  0.6753E+01  0.6753E+01  0.2087E+02  0.2087E+02
      5.178  0.6624E+01  0.6626E+01  0.2119E+02  0.2119E+02
      5.227  0.6134E+01  0.6138E+01  0.2149E+02  0.2149E+02
      5.275  0.5446E+01  0.5451E+01  0.2175E+02  0.2175E+02
      5.323  0.4900E+01  0.4903E+01  0.2199E+02  0.2199E+02
      5.371  0.4715E+01  0.4715E+01  0.2221E+02  0.2221E+02
      5.420  0.4800E+01  0.4800E+01  0.2245E+02  0.2244E+02
      5.468  0.4911E+01  0.4911E+01  0.2268E+02  0.2268E+02
      5.516  0.4942E+01  0.4942E+01  0.2292E+02  0.2292E+02
      5.564  0.4961E+01  0.4960E+01  0.2316E+02  0.2316E+02
      5.613  0.5034E+01  0.5033E+01  0.2341E+02  0.2340E+02
      5.661  0.5027E+01  0.5028E+01  0.2365E+02  0.2365E+02
      5.709  0.4886E+01  0.4887E+01  0.2388E+02  0.2388E+02
      5.757  0.4743E+01  0.4744E+01  0.2411E+02  0.2411E+02
      5.806  0.4532E+01  0.4534E+01  0.2433E+02  0.2433E+02
      5.854  0.4180E+01  0.4183E+01  0.2453E+02  0.2453E+02
      5.902  0.3721E+01  0.3725E+01  0.2471E+02  0.2471E+02
      5.950  0.3228E+01  0.3231E+01  0.2487E+02  0.2487E+02
      5.999  0.2775E+01  0.2778E+01  0.2500E+02  0.2500E+02
      6.047  0.2495E+01  0.2496E+01  0.2512E+02  0.2512E+02
      6.095  0.2465E+01  0.2465E+01  0.2524E+02  0.2524E+02
      6.143  0.2615E+01  0.2614E+01  0.2537E+02  0.2537E+02
      6.192  0.2820E+01  0.2819E+01  0.2551E+02  0.2550E+02
      6.240  0.2952E+01  0.2951E+01  0.2565E+02  0.2565E+02
      6.288  0.2976E+01  0.2976E+01  0.2579E+02  0.2579E+02
      6.336  0.3010E+01  0.3010E+01  0.2594E+02  0.2594E+02
      6.385  0.3100E+01  0.3100E+01  0.2609E+02  0.2609E+02
      6.433  0.3143E+01  0.3144E+01  0.2624E+02  0.2624E+02
      6.481  0.3174E+01  0.3174E+01  0.2639E+02  0.2639E+02
      6.529  0.3384E+01  0.3383E+01  0.2655E+02  0.2655E+02
      6.578  0.3718E+01  0.3717E+01  0.2673E+02  0.2673E+02
      6.626  0.3889E+01  0.3890E+01  0.2692E+02  0.2692E+02
      6.674  0.3842E+01  0.3844E+01  0.2711E+02  0.2711E+02
      6.723  0.3846E+01  0.3849E+01  0.2729E+02  0.2729E+02
      6.771  0.3980E+01  0.3984E+01  0.2749E+02  0.2748E+02
      6.819  0.4057E+01  0.4067E+01  0.2768E+02  0.2768E+02
      6.867  0.3973E+01  0.3989E+01  0.2787E+02  0.2787E+02
      6.916  0.3909E+01  0.3928E+01  0.2806E+02  0.2806E+02
      6.964  0.4111E+01  0.4127E+01  0.2826E+02  0.2826E+02
      7.012  0.4627E+01  0.4636E+01  0.2848E+02  0.2849E+02
      7.060  0.5428E+01  0.5431E+01  0.2875E+02  0.2875E+02
      7.109  0.6335E+01  0.6337E+01  0.2905E+02  0.2905E+02
      7.157  0.7065E+01  0.7066E+01  0.2939E+02  0.2940E+02
      7.205  0.7618E+01  0.7619E+01  0.2976E+02  0.2976E+02
      7.253  0.8221E+01  0.8224E+01  0.3016E+02  0.3016E+02
      7.302  0.8780E+01  0.8785E+01  0.3058E+02  0.3058E+02
      7.350  0.9262E+01  0.9277E+01  0.3103E+02  0.3103E+02
      7.398  0.9917E+01  0.9963E+01  0.3151E+02  0.3151E+02
      7.446  0.1079E+02  0.1090E+02  0.3203E+02  0.3204E+02
      7.495  0.1189E+02  0.1207E+02  0.3260E+02  0.3262E+02
      7.543  0.1298E+02  0.1321E+02  0.3323E+02  0.3326E+02
      7.591  0.1317E+02  0.1340E+02  0.3386E+02  0.3391E+02
      7.639  0.1185E+02  0.1207E+02  0.3444E+02  0.3449E+02
      7.688  0.9731E+01  0.9951E+01  0.3490E+02  0.3497E+02
      7.736  0.7798E+01  0.7983E+01  0.3528E+02  0.3536E+02
      7.784  0.6254E+01  0.6387E+01  0.3558E+02  0.3566E+02
      7.832  0.5153E+01  0.5255E+01  0.3583E+02  0.3592E+02
      7.881  0.4657E+01  0.4729E+01  0.3606E+02  0.3615E+02
      7.929  0.4571E+01  0.4582E+01  0.3628E+02  0.3637E+02
      7.977  0.4447E+01  0.4397E+01  0.3649E+02  0.3658E+02
      8.025  0.4172E+01  0.4112E+01  0.3670E+02  0.3678E+02
      8.074  0.3991E+01  0.3952E+01  0.3689E+02  0.3697E+02
      8.122  0.4087E+01  0.4077E+01  0.3709E+02  0.3717E+02
      8.170  0.4355E+01  0.4379E+01  0.3730E+02  0.3738E+02
      8.218  0.4481E+01  0.4564E+01  0.3751E+02  0.3760E+02
      8.267  0.4356E+01  0.4522E+01  0.3772E+02  0.3782E+02
      8.315  0.4227E+01  0.4433E+01  0.3793E+02  0.3803E+02
      8.363  0.4238E+01  0.4405E+01  0.3813E+02  0.3824E+02
      8.411  0.4229E+01  0.4313E+01  0.3834E+02  0.3845E+02
      8.460  0.3964E+01  0.3980E+01  0.3853E+02  0.3864E+02
      8.508  0.3436E+01  0.3416E+01  0.3869E+02  0.3881E+02
      8.556  0.2921E+01  0.2954E+01  0.3883E+02  0.3895E+02
      8.604  0.2651E+01  0.2793E+01  0.3896E+02  0.3909E+02
      8.653  0.2563E+01  0.2711E+01  0.3909E+02  0.3922E+02
      8.701  0.2495E+01  0.2495E+01  0.3921E+02  0.3934E+02
      8.749  0.2366E+01  0.2146E+01  0.3932E+02  0.3944E+02
      8.797  0.2084E+01  0.1712E+01  0.3942E+02  0.3952E+02
      8.846  0.1636E+01  0.1272E+01  0.3950E+02  0.3959E+02
      8.894  0.1206E+01  0.9592E+00  0.3956E+02  0.3963E+02
      8.942  0.9216E+00  0.8225E+00  0.3960E+02  0.3967E+02
      8.990  0.8110E+00  0.7931E+00  0.3964E+02  0.3971E+02
      9.039  0.8763E+00  0.7890E+00  0.3968E+02  0.3975E+02
      9.087  0.9785E+00  0.7898E+00  0.3973E+02  0.3979E+02
      9.135  0.9653E+00  0.7788E+00  0.3978E+02  0.3982E+02
      9.184  0.8756E+00  0.7235E+00  0.3982E+02  0.3986E+02
      9.232  0.7777E+00  0.6036E+00  0.3986E+02  0.3989E+02
      9.280  0.6864E+00  0.4651E+00  0.3989E+02  0.3991E+02
      9.328  0.5928E+00  0.3763E+00  0.3992E+02  0.3993E+02
      9.377  0.4954E+00  0.3361E+00  0.3994E+02  0.3995E+02
      9.425  0.4092E+00  0.3128E+00  0.3996E+02  0.3996E+02
      9.473  0.3179E+00  0.2755E+00  0.3998E+02  0.3997E+02
      9.521  0.2116E+00  0.2114E+00  0.3999E+02  0.3998E+02
      9.570  0.1189E+00  0.1434E+00  0.4000E+02  0.3999E+02
      9.618  0.5724E-01  0.9109E-01  0.4000E+02  0.4000E+02
      9.666  0.2440E-01  0.5168E-01  0.4000E+02  0.4000E+02
      9.714  0.9638E-02  0.2463E-01  0.4000E+02  0.4000E+02
      9.763  0.3581E-02  0.1049E-01  0.4000E+02  0.4000E+02
      9.811  0.1338E-02  0.4103E-02  0.4000E+02  0.4000E+02
      9.859  0.2613E-03  0.1337E-02  0.4000E+02  0.4000E+02
      9.907  0.9975E-04  0.4367E-03  0.4000E+02  0.4000E+02
      9.956  0.0000E+00  0.1670E-03  0.4000E+02  0.4000E+02
     10.004  0.0000E+00  0.0000E+00  0.4000E+02  0.4000E+02
     10.052  0.0000E+00  0.0000E+00  0.4000E+02  0.4000E+02
     10.100  0.0000E+00  0.0000E+00  0.4000E+02  0.4000E+02
     10.149  0.0000E+00  0.0000E+00  0.4000E+02  0.4000E+02
     10.197  0.0000E+00  0.0000E+00  0.4000E+02  0.4000E+02
     10.245  0.0000E+00  0.0000E+00  0.4000E+02  0.4000E+02
     10.24512287     -4.23136183  301      6.35719077      1.00000000
     -4.231  0.0000E+00  0.0000E+00  0.0000E+00  0.0000E+00  0.0000E+00  0.0000E+00  0.0000E+00  0.0000E+00  0.0000E+00  0.0000E+00  0.0000E+00  0.0000E+00  0.0000E+00  0.0000E+00  0.0000E+00  0.0000E+00  0.0000E+00  0.0000E+00
     -4.183  0.0000E+00  0.0000E+00  0.0000E+00  0.0000E+00  0.0000E+00  0.0000E+00  0.0000E+00  0.0000E+00  0.0000E+00  0.0000E+00  0.0000E+00  0.0000E+00  0.0000E+00  0.0000E+00  0.0000E+00  0.0000E+00  0.0000E+00  0.0000E+00
     -4.135  0.0000E+00  0.0000E+00  0.0000E+00  0.0000E+00  0.0000E+00  0.0000E+00  0.0000E+00  0.0000E+00  0.0000E+00  0.0000E+00  0.0000E+00  0.0000E+00  0.0000E+00  0.0000E+00  0.0000E+00  0.0000E+00  0.0000E+00  0.0000E+00
     -4.087  0.0000E+00  0.0000E+00  0.0000E+00  0.0000E+00  0.0000E+00  0.0000E+00  0.0000E+00  0.0000E+00  0.0000E+00  0.0000E+00  0.0000E+00  0.0000E+00  0.0000E+00  0.0000E+00  0.0000E+00  0.0000E+00  0.0000E+00  0.0000E+00
     -4.038  0.0000E+00  0.0000E+00  0.0000E+00  0.0000E+00  0.0000E+00  0.0000E+00  0.0000E+00  0.0000E+00  0.0000E+00  0.0000E+00  0.0000E+00  0.0000E+00  0.0000E+00  0.0000E+00  0.0000E+00  0.0000E+00  0.0000E+00  0.0000E+00
     -3.990  0.2672E-06  0.2656E-06  0.3104E-22  0.1312E-21  0.1278E-08  0.1272E-08  0.3104E-22  0.1312E-21  0.3199E-23  0.3366E-23  0.1758E-21  0.6007E-21  0.1391E-10  0.1369E-10  0.1758E-21  0.6007E-21  0.1567E-20  0.7521E-20
     -3.942  0.1808E-05  0.1797E-05  0.4046E-08  0.4022E-08  0.1358E-07  0.1351E-07  0.4046E-08  0.4022E-08  0.1390E-15  0.1171E-20  0.4759E-10  0.4732E-10  0.1171E-09  0.1154E-09  0.4759E-10  0.4732E-10  0.1846E-10  0.1834E-10
     -3.894  0.5730E-05  0.5696E-05  0.2059E-07  0.2047E-07  0.5250E-07  0.5223E-07  0.2059E-07  0.2047E-07  0.1354E-09  0.1346E-09  0.3908E-09  0.3884E-09  0.3787E-09  0.3732E-09  0.3908E-09  0.3884E-09  0.6196E-10  0.6157E-10
     -3.845  0.1402E-04  0.1393E-04  0.5218E-07  0.5188E-07  0.1306E-06  0.1299E-06  0.5218E-07  0.5188E-07  0.4576E-09  0.4550E-09  0.1115E-08  0.1108E-08  0.9033E-09  0.8901E-09  0.1115E-08  0.1108E-08  0.1306E-09  0.1297E-09
     -3.797  0.3619E-04  0.3598E-04  0.1353E-06  0.1345E-06  0.3394E-06  0.3377E-06  0.1353E-06  0.1345E-06  0.9627E-09  0.9572E-09  0.2652E-08  0.2636E-08  0.2563E-08  0.2528E-08  0.2652E-08  0.2636E-08  0.5342E-09  0.5309E-09
     -3.749  0.9428E-04  0.9373E-04  0.3479E-06  0.3459E-06  0.9216E-06  0.9169E-06  0.3479E-06  0.3459E-06  0.2522E-08  0.2508E-08  0.7315E-08  0.7269E-08  0.6568E-08  0.6479E-08  0.7315E-08  0.7269E-08  0.1227E-08  0.1219E-08
     -3.701  0.2456E-03  0.2442E-03  0.1008E-05  0.1002E-05  0.2378E-05  0.2366E-05  0.1008E-05  0.1002E-05  0.8515E-08  0.8467E-08  0.2095E-07  0.2082E-07  0.1841E-07  0.1816E-07  0.2095E-07  0.2082E-07  0.4536E-08  0.4509E-08
     -3.652  0.6095E-03  0.6063E-03  0.2599E-05  0.2585E-05  0.6130E-05  0.6100E-05  0.2599E-05  0.2585E-05  0.2406E-07  0.2392E-07  0.5752E-07  0.5718E-07  0.4581E-07  0.4522E-07  0.5752E-07  0.5718E-07  0.1115E-07  0.1108E-07
     -3.604  0.1396E-02  0.1390E-02  0.6289E-05  0.6256E-05  0.1447E-04  0.1441E-04  0.6289E-05  0.6256E-05  0.5768E-07  0.5736E-07  0.1385E-06  0.1377E-06  0.1069E-06  0.1056E-06  0.1385E-06  0.1377E-06  0.2689E-07  0.2674E-07
     -3.556  0.2841E-02  0.2830E-02  0.1444E-04  0.1437E-04  0.3156E-04  0.3144E-04  0.1444E-04  0.1437E-04  0.1443E-06  0.1436E-06  0.3324E-06  0.3306E-06  0.2290E-06  0.2265E-06  0.3324E-06  0.3306E-06  0.6353E-07  0.6320E-07
     -3.508  0.4876E-02  0.4863E-02  0.2925E-04  0.2914E-04  0.5981E-04  0.5964E-04  0.2925E-04  0.2914E-04  0.3323E-06  0.3308E-06  0.7190E-06  0.7156E-06  0.4293E-06  0.4250E-06  0.7190E-06  0.7156E-06  0.1386E-06  0.1379E-06
     -3.459  0.6940E-02  0.6929E-02  0.5099E-04  0.5084E-04  0.9742E-04  0.9723E-04  0.5099E-04  0.5084E-04  0.6642E-06  0.6618E-06  0.1355E-05  0.1350E-05  0.7204E-06  0.7142E-06  0.1355E-05  0.1350E-05  0.2862E-06  0.2850E-06
     -3.411  0.8532E-02  0.8523E-02  0.7968E-04  0.7948E-04  0.1425E-03  0.1423E-03  0.7968E-04  0.7948E-04  0.1192E-05  0.1188E-05  0.2307E-05  0.2299E-05  0.1157E-05  0.1148E-05  0.2307E-05  0.2299E-05  0.5758E-06  0.5734E-06
     -3.363  0.1008E-01  0.1006E-01  0.1204E-03  0.1201E-03  0.2039E-03  0.2036E-03  0.1204E-03  0.1201E-03  0.2055E-05  0.2048E-05  0.3812E-05  0.3800E-05  0.1860E-05  0.1848E-05  0.3812E-05  0.3800E-05  0.1088E-05  0.1084E-05
     -3.315  0.1221E-01  0.1220E-01  0.1769E-03  0.1765E-03  0.2887E-03  0.2883E-03  0.1769E-03  0.1765E-03  0.3508E-05  0.3497E-05  0.6199E-05  0.6180E-05  0.2799E-05  0.2786E-05  0.6199E-05  0.6180E-05  0.1761E-05  0.1757E-05
     -3.266  0.1403E-01  0.1403E-01  0.2317E-03  0.2314E-03  0.3720E-03  0.3718E-03  0.2317E-03  0.2314E-03  0.5442E-05  0.5430E-05  0.9113E-05  0.9093E-05  0.3630E-05  0.3618E-05  0.9113E-05  0.9093E-05  0.2321E-05  0.2318E-05
     -3.218  0.1413E-01  0.1414E-01  0.2626E-03  0.2625E-03  0.4257E-03  0.4257E-03  0.2626E-03  0.2625E-03  0.7333E-05  0.7322E-05  0.1184E-04  0.1182E-04  0.4209E-05  0.4197E-05  0.1184E-04  0.1182E-04  0.2709E-05  0.2707E-05
     -3.170  0.1355E-01  0.1355E-01  0.2925E-03  0.2922E-03  0.4841E-03  0.4839E-03  0.2925E-03  0.2922E-03  0.9566E-05  0.9548E-05  0.1520E-04  0.1517E-04  0.5158E-05  0.5142E-05  0.1520E-04  0.1517E-04  0.3457E-05  0.3451E-05
     -3.121  0.1454E-01  0.1452E-01  0.3714E-03  0.3707E-03  0.5937E-03  0.5932E-03  0.3714E-03  0.3707E-03  0.1337E-04  0.1335E-04  0.2099E-04  0.2095E-04  0.7195E-05  0.7170E-05  0.2099E-04  0.2095E-04  0.5354E-05  0.5341E-05
     -3.073  0.1652E-01  0.1651E-01  0.4885E-03  0.4878E-03  0.6965E-03  0.6963E-03  0.4885E-03  0.4878E-03  0.1802E-04  0.1799E-04  0.2773E-04  0.2770E-04  0.1001E-04  0.9974E-05  0.2773E-04  0.2770E-04  0.8529E-05  0.8512E-05
     -3.025  0.1742E-01  0.1741E-01  0.5846E-03  0.5842E-03  0.7240E-03  0.7240E-03  0.5846E-03  0.5842E-03  0.2183E-04  0.2181E-04  0.3280E-04  0.3277E-04  0.1261E-04  0.1258E-04  0.3280E-04  0.3277E-04  0.1194E-04  0.1192E-04
     -2.977  0.1723E-01  0.1723E-01  0.6383E-03  0.6381E-03  0.7479E-03  0.7476E-03  0.6383E-03  0.6381E-03  0.2610E-04  0.2607E-04  0.3841E-04  0.3837E-04  0.1441E-04  0.1439E-04  0.3841E-04  0.3837E-04  0.1386E-04  0.1386E-04
     -2.928  0.1717E-01  0.1717E-01  0.6766E-03  0.6763E-03  0.8481E-03  0.8475E-03  0.6766E-03  0.6763E-03  0.3328E-04  0.3322E-04  0.4752E-04  0.4746E-04  0.1573E-04  0.1571E-04  0.4752E-04  0.4746E-04  0.1398E-04  0.1399E-04
     -2.880  0.1754E-01  0.1754E-01  0.7397E-03  0.7392E-03  0.9541E-03  0.9537E-03  0.7397E-03  0.7392E-03  0.4416E-04  0.4409E-04  0.5806E-04  0.5800E-04  0.1730E-04  0.1728E-04  0.5806E-04  0.5800E-04  0.1421E-04  0.1421E-04
     -2.832  0.1775E-01  0.1775E-01  0.8225E-03  0.8220E-03  0.9792E-03  0.9792E-03  0.8225E-03  0.8220E-03  0.5569E-04  0.5563E-04  0.6627E-04  0.6622E-04  0.1910E-04  0.1908E-04  0.6627E-04  0.6622E-04  0.1586E-04  0.1585E-04
     -2.784  0.1713E-01  0.1713E-01  0.8645E-03  0.8644E-03  0.9736E-03  0.9735E-03  0.8645E-03  0.8644E-03  0.6079E-04  0.6078E-04  0.7144E-04  0.7140E-04  0.2096E-04  0.2094E-04  0.7144E-04  0.7140E-04  0.1844E-04  0.1842E-04
     -2.735  0.1650E-01  0.1650E-01  0.8944E-03  0.8939E-03  0.1057E-02  0.1057E-02  0.8944E-03  0.8939E-03  0.6023E-04  0.6022E-04  0.7855E-04  0.7848E-04  0.2513E-04  0.2508E-04  0.7855E-04  0.7848E-04  0.2333E-04  0.2329E-04
     -2.687  0.1776E-01  0.1775E-01  0.1044E-02  0.1043E-02  0.1284E-02  0.1282E-02  0.1044E-02  0.1043E-02  0.6745E-04  0.6736E-04  0.9442E-04  0.9430E-04  0.3471E-04  0.3463E-04  0.9442E-04  0.9430E-04  0.3301E-04  0.3296E-04
     -2.639  0.2018E-01  0.2017E-01  0.1282E-02  0.1281E-02  0.1549E-02  0.1548E-02  0.1282E-02  0.1281E-02  0.8689E-04  0.8676E-04  0.1134E-03  0.1133E-03  0.4787E-04  0.4779E-04  0.1134E-03  0.1133E-03  0.4417E-04  0.4413E-04
     -2.591  0.2120E-01  0.2119E-01  0.1430E-02  0.1430E-02  0.1694E-02  0.1693E-02  0.1430E-02  0.1430E-02  0.1091E-03  0.1090E-03  0.1248E-03  0.1247E-03  0.5764E-04  0.5760E-04  0.1248E-03  0.1247E-03  0.4952E-04  0.4953E-04
     -2.542  0.2070E-01  0.2070E-01  0.1477E-02  0.1477E-02  0.1733E-02  0.1732E-02  0.1477E-02  0.1477E-02  0.1293E-03  0.1291E-03  0.1362E-03  0.1361E-03  0.6032E-04  0.6031E-04  0.1362E-03  0.1361E-03  0.4930E-04  0.4932E-04
     -2.494  0.2082E-01  0.2081E-01  0.1570E-02  0.1569E-02  0.1854E-02  0.1853E-02  0.1570E-02  0.1569E-02  0.1499E-03  0.1497E-03  0.1641E-03  0.1638E-03  0.6068E-04  0.6066E-04  0.1641E-03  0.1638E-03  0.5107E-04  0.5106E-04
     -2.446  0.2151E-01  0.2151E-01  0.1682E-02  0.1682E-02  0.2070E-02  0.2069E-02  0.1682E-02  0.1682E-02  0.1678E-03  0.1677E-03  0.1985E-03  0.1983E-03  0.6215E-04  0.6214E-04  0.1985E-03  0.1983E-03  0.5432E-04  0.5433E-04
     -2.398  0.2026E-01  0.2027E-01  0.1627E-02  0.1628E-02  0.2111E-02  0.2111E-02  0.1627E-02  0.1628E-02  0.1715E-03  0.1715E-03  0.2110E-03  0.2110E-03  0.5951E-04  0.5955E-04  0.2110E-03  0.2110E-03  0.5140E-04  0.5145E-04
     -2.349  0.1729E-01  0.1731E-01  0.1473E-02  0.1473E-02  0.1943E-02  0.1944E-02  0.1473E-02  0.1473E-02  0.1673E-03  0.1673E-03  0.2072E-03  0.2072E-03  0.5297E-04  0.5300E-04  0.2072E-03  0.2072E-03  0.4618E-04  0.4621E-04
     -2.301  0.1616E-01  0.1616E-01  0.1530E-02  0.1529E-02  0.1967E-02  0.1966E-02  0.1530E-02  0.1529E-02  0.1858E-03  0.1856E-03  0.2249E-03  0.2247E-03  0.5582E-04  0.5576E-04  0.2249E-03  0.2247E-03  0.5095E-04  0.5091E-04
     -2.253  0.1795E-01  0.1793E-01  0.1867E-02  0.1865E-02  0.2383E-02  0.2379E-02  0.1867E-02  0.1865E-02  0.2364E-03  0.2361E-03  0.2675E-03  0.2672E-03  0.7736E-04  0.7718E-04  0.2675E-03  0.2672E-03  0.6859E-04  0.6847E-04
     -2.205  0.2056E-01  0.2054E-01  0.2292E-02  0.2289E-02  0.2957E-02  0.2953E-02  0.2292E-02  0.2289E-02  0.2925E-03  0.2923E-03  0.3090E-03  0.3087E-03  0.1104E-03  0.1102E-03  0.3090E-03  0.3087E-03  0.9386E-04  0.9372E-04
     -2.156  0.2208E-01  0.2208E-01  0.2605E-02  0.2603E-02  0.3392E-02  0.3390E-02  0.2605E-02  0.2603E-02  0.3230E-03  0.3229E-03  0.3444E-03  0.3442E-03  0.1348E-03  0.1347E-03  0.3444E-03  0.3442E-03  0.1176E-03  0.1176E-03
     -2.108  0.2175E-01  0.2175E-01  0.2696E-02  0.2696E-02  0.3529E-02  0.3528E-02  0.2696E-02  0.2696E-02  0.3266E-03  0.3266E-03  0.3766E-03  0.3763E-03  0.1368E-03  0.1369E-03  0.3766E-03  0.3763E-03  0.1289E-03  0.1289E-03
     -2.060  0.2087E-01  0.2087E-01  0.2733E-02  0.2732E-02  0.3597E-02  0.3596E-02  0.2733E-02  0.2732E-02  0.3470E-03  0.3467E-03  0.4174E-03  0.4170E-03  0.1306E-03  0.1306E-03  0.4174E-03  0.4170E-03  0.1306E-03  0.1306E-03
     -2.012  0.2084E-01  0.2085E-01  0.2879E-02  0.2878E-02  0.3892E-02  0.3891E-02  0.2879E-02  0.2878E-02  0.3972E-03  0.3969E-03  0.4752E-03  0.4749E-03  0.1331E-03  0.1331E-03  0.4752E-03  0.4749E-03  0.1334E-03  0.1334E-03
     -1.963  0.1998E-01  0.1999E-01  0.2894E-02  0.2895E-02  0.4100E-02  0.4100E-02  0.2894E-02  0.2895E-02  0.4262E-03  0.4261E-03  0.5095E-03  0.5094E-03  0.1311E-03  0.1311E-03  0.5095E-03  0.5094E-03  0.1308E-03  0.1309E-03
     -1.915  0.1757E-01  0.1759E-01  0.2694E-02  0.2695E-02  0.4053E-02  0.4054E-02  0.2694E-02  0.2695E-02  0.4351E-03  0.4350E-03  0.5188E-03  0.5187E-03  0.1146E-03  0.1146E-03  0.5188E-03  0.5187E-03  0.1160E-03  0.1161E-03
     -1.867  0.1631E-01  0.1631E-01  0.2679E-02  0.2678E-02  0.4267E-02  0.4264E-02  0.2679E-02  0.2678E-02  0.4920E-03  0.4916E-03  0.5845E-03  0.5839E-03  0.1048E-03  0.1048E-03  0.5845E-03  0.5839E-03  0.1054E-03  0.1054E-03
     -1.819  0.1698E-01  0.1697E-01  0.2958E-02  0.2956E-02  0.4843E-02  0.4839E-02  0.2958E-02  0.2956E-02  0.5953E-03  0.5947E-03  0.7093E-03  0.7085E-03  0.1156E-03  0.1155E-03  0.7093E-03  0.7085E-03  0.1093E-03  0.1092E-03