  16  16   1   0
  0.1486802E+02  0.3817686E-09  0.3817686E-09  0.1632198E-08  0.5000000E-15
  1.000000000000000E-004
  CAR 
 unknown system                          
     12.03228866     -3.79193963  301      7.70919942      1.00000000
     -3.792  0.0000E+00  0.0000E+00  0.0000E+00  0.0000E+00
     -3.739  0.0000E+00  0.0000E+00  0.0000E+00  0.0000E+00
     -3.686  0.0000E+00  0.0000E+00  0.0000E+00  0.0000E+00
     -3.634  0.0000E+00  0.0000E+00  0.0000E+00  0.0000E+00
     -3.581  0.0000E+00  0.0000E+00  0.0000E+00  0.0000E+00
     -3.528  0.0000E+00  0.0000E+00  0.0000E+00  0.0000E+00
     -3.475  0.1186E-04  0.1185E-04  0.6254E-06  0.6253E-06
     -3.423  0.8168E-04  0.8165E-04  0.4934E-05  0.4932E-05
     -3.370  0.2747E-03  0.2746E-03  0.1942E-04  0.1942E-04
     -3.317  0.7432E-03  0.7430E-03  0.5863E-04  0.5861E-04
     -3.264  0.2099E-02  0.2098E-02  0.1693E-03  0.1693E-03
     -3.212  0.5991E-02  0.5989E-02  0.4854E-03  0.4852E-03
     -3.159  0.1621E-01  0.1620E-01  0.1340E-02  0.1340E-02
     -3.106  0.4094E-01  0.4093E-01  0.3500E-02  0.3499E-02
     -3.053  0.8967E-01  0.8965E-01  0.8230E-02  0.8228E-02
     -3.001  0.1625E+00  0.1625E+00  0.1680E-01  0.1680E-01
     -2.948  0.2376E+00  0.2376E+00  0.2934E-01  0.2933E-01
     -2.895  0.2910E+00  0.2910E+00  0.4469E-01  0.4468E-01
     -2.842  0.3407E+00  0.3407E+00  0.6266E-01  0.6265E-01
     -2.790  0.4242E+00  0.4242E+00  0.8503E-01  0.8503E-01
     -2.737  0.5100E+00  0.5100E+00  0.1119E+00  0.1119E+00
     -2.684  0.5190E+00  0.5190E+00  0.1393E+00  0.1393E+00
     -2.631  0.4807E+00  0.4807E+00  0.1647E+00  0.1647E+00
     -2.579  0.5138E+00  0.5137E+00  0.1918E+00  0.1918E+00
     -2.526  0.6154E+00  0.6154E+00  0.2242E+00  0.2242E+00
     -2.473  0.6735E+00  0.6735E+00  0.2598E+00  0.2598E+00
     -2.421  0.6694E+00  0.6694E+00  0.2951E+00  0.2951E+00
     -2.368  0.6698E+00  0.6698E+00  0.3304E+00  0.3304E+00
     -2.315  0.6979E+00  0.6979E+00  0.3673E+00  0.3673E+00
     -2.262  0.7298E+00  0.7298E+00  0.4058E+00  0.4058E+00
     -2.210  0.7210E+00  0.7210E+00  0.4438E+00  0.4438E+00
     -2.157  0.6809E+00  0.6809E+00  0.4797E+00  0.4797E+00
     -2.104  0.7206E+00  0.7206E+00  0.5178E+00  0.5178E+00
     -2.051  0.8631E+00  0.8630E+00  0.5633E+00  0.5633E+00
     -1.999  0.9653E+00  0.9653E+00  0.6143E+00  0.6143E+00
     -1.946  0.9571E+00  0.9571E+00  0.6648E+00  0.6648E+00
     -1.893  0.9526E+00  0.9526E+00  0.7151E+00  0.7150E+00
     -1.840  0.1028E+01  0.1028E+01  0.7693E+00  0.7693E+00
     -1.788  0.1046E+01  0.1046E+01  0.8245E+00  0.8245E+00
     -1.735  0.9002E+00  0.9002E+00  0.8720E+00  0.8720E+00
     -1.682  0.7805E+00  0.7805E+00  0.9132E+00  0.9132E+00
     -1.629  0.8635E+00  0.8635E+00  0.9588E+00  0.9587E+00
     -1.577  0.1060E+01  0.1060E+01  0.1015E+01  0.1015E+01
     -1.524  0.1234E+01  0.1234E+01  0.1080E+01  0.1080E+01
     -1.471  0.1294E+01  0.1294E+01  0.1148E+01  0.1148E+01
     -1.418  0.1252E+01  0.1252E+01  0.1214E+01  0.1214E+01
     -1.366  0.1273E+01  0.1273E+01  0.1281E+01  0.1281E+01
     -1.313  0.1334E+01  0.1334E+01  0.1352E+01  0.1352E+01
     -1.260  0.1243E+01  0.1243E+01  0.1417E+01  0.1417E+01
     -1.207  0.1130E+01  0.1130E+01  0.1477E+01  0.1477E+01
     -1.155  0.1202E+01  0.1202E+01  0.1540E+01  0.1540E+01
     -1.102  0.1338E+01  0.1337E+01  0.1611E+01  0.1611E+01
     -1.049  0.1392E+01  0.1392E+01  0.1684E+01  0.1684E+01
     -0.996  0.1420E+01  0.1420E+01  0.1759E+01  0.1759E+01
     -0.944  0.1460E+01  0.1460E+01  0.1836E+01  0.1836E+01
     -0.891  0.1470E+01  0.1470E+01  0.1914E+01  0.1914E+01
     -0.838  0.1410E+01  0.1410E+01  0.1988E+01  0.1988E+01
     -0.785  0.1373E+01  0.1373E+01  0.2061E+01  0.2061E+01
     -0.733  0.1477E+01  0.1477E+01  0.2139E+01  0.2139E+01
     -0.680  0.1640E+01  0.1640E+01  0.2225E+01  0.2225E+01
     -0.627  0.1675E+01  0.1675E+01  0.2314E+01  0.2314E+01
     -0.574  0.1522E+01  0.1522E+01  0.2394E+01  0.2394E+01
     -0.522  0.1350E+01  0.1350E+01  0.2465E+01  0.2465E+01
     -0.469  0.1268E+01  0.1268E+01  0.2532E+01  0.2532E+01
     -0.416  0.1161E+01  0.1161E+01  0.2594E+01  0.2594E+01
     -0.363  0.1058E+01  0.1058E+01  0.2650E+01  0.2650E+01
     -0.311  0.1089E+01  0.1089E+01  0.2707E+01  0.2707E+01
     -0.258  0.1257E+01  0.1257E+01  0.2773E+01  0.2773E+01
     -0.205  0.1453E+01  0.1453E+01  0.2850E+01  0.2850E+01
     -0.152  0.1510E+01  0.1510E+01  0.2930E+01  0.2930E+01
     -0.100  0.1424E+01  0.1424E+01  0.3005E+01  0.3005E+01
     -0.047  0.1377E+01  0.1377E+01  0.3078E+01  0.3078E+01
      0.006  0.1404E+01  0.1404E+01  0.3152E+01  0.3152E+01
      0.059  0.1379E+01  0.1379E+01  0.3224E+01  0.3224E+01
      0.111  0.1330E+01  0.1330E+01  0.3295E+01  0.3295E+01
      0.164  0.1416E+01  0.1416E+01  0.3369E+01  0.3369E+01
      0.217  0.1635E+01  0.1635E+01  0.3456E+01  0.3456E+01
      0.270  0.1767E+01  0.1767E+01  0.3549E+01  0.3549E+01
      0.322  0.1692E+01  0.1692E+01  0.3638E+01  0.3638E+01
      0.375  0.1550E+01  0.1550E+01  0.3720E+01  0.3720E+01
      0.428  0.1503E+01  0.1503E+01  0.3799E+01  0.3799E+01
      0.481  0.1513E+01  0.1513E+01  0.3879E+01  0.3879E+01
      0.533  0.1511E+01  0.1511E+01  0.3959E+01  0.3959E+01
      0.586  0.1521E+01  0.1521E+01  0.4039E+01  0.4039E+01
      0.639  0.1558E+01  0.1558E+01  0.4121E+01  0.4121E+01
      0.692  0.1624E+01  0.1624E+01  0.4207E+01  0.4207E+01
      0.744  0.1757E+01  0.1757E+01  0.4300E+01  0.4300E+01
      0.797  0.1890E+01  0.1890E+01  0.4400E+01  0.4400E+01
      0.850  0.1923E+01  0.1923E+01  0.4501E+01  0.4501E+01
      0.903  0.1889E+01  0.1889E+01  0.4601E+01  0.4601E+01
      0.955  0.1941E+01  0.1941E+01  0.4703E+01  0.4703E+01
      1.008  0.2104E+01  0.2104E+01  0.4814E+01  0.4814E+01
      1.061  0.2185E+01  0.2185E+01  0.4930E+01  0.4929E+01
      1.114  0.2162E+01  0.2162E+01  0.5044E+01  0.5044E+01
      1.166  0.2086E+01  0.2086E+01  0.5154E+01  0.5154E+01
      1.219  0.1939E+01  0.1940E+01  0.5256E+01  0.5256E+01
      1.272  0.1884E+01  0.1884E+01  0.5356E+01  0.5355E+01
      1.325  0.1916E+01  0.1916E+01  0.5457E+01  0.5457E+01
      1.377  0.1862E+01  0.1862E+01  0.5555E+01  0.5555E+01
      1.430  0.1741E+01  0.1741E+01  0.5647E+01  0.5647E+01
      1.483  0.1718E+01  0.1718E+01  0.5738E+01  0.5738E+01
      1.536  0.1828E+01  0.1828E+01  0.5834E+01  0.5834E+01
      1.588  0.1899E+01  0.1900E+01  0.5934E+01  0.5934E+01
      1.641  0.1931E+01  0.1931E+01  0.6036E+01  0.6036E+01
      1.694  0.1925E+01  0.1925E+01  0.6138E+01  0.6138E+01
      1.747  0.1769E+01  0.1769E+01  0.6231E+01  0.6231E+01
      1.799  0.1602E+01  0.1602E+01  0.6316E+01  0.6316E+01
      1.852  0.1648E+01  0.1648E+01  0.6403E+01  0.6403E+01
      1.905  0.1917E+01  0.1917E+01  0.6504E+01  0.6504E+01
      1.958  0.2238E+01  0.2238E+01  0.6622E+01  0.6622E+01
      2.010  0.2436E+01  0.2436E+01  0.6751E+01  0.6751E+01
      2.063  0.2509E+01  0.2509E+01  0.6883E+01  0.6883E+01
      2.116  0.2444E+01  0.2444E+01  0.7012E+01  0.7012E+01
      2.169  0.2156E+01  0.2156E+01  0.7126E+01  0.7126E+01
      2.221  0.1820E+01  0.1820E+01  0.7222E+01  0.7222E+01
      2.274  0.1691E+01  0.1691E+01  0.7311E+01  0.7311E+01
      2.327  0.1725E+01  0.1725E+01  0.7402E+01  0.7402E+01
      2.380  0.1883E+01  0.1883E+01  0.7502E+01  0.7501E+01
      2.432  0.2012E+01  0.2012E+01  0.7608E+01  0.7608E+01
      2.485  0.1975E+01  0.1975E+01  0.7712E+01  0.7712E+01
      2.538  0.1995E+01  0.1995E+01  0.7817E+01  0.7817E+01
      2.590  0.2221E+01  0.2221E+01  0.7935E+01  0.7934E+01
      2.643  0.2444E+01  0.2444E+01  0.8063E+01  0.8063E+01
      2.696  0.2510E+01  0.2510E+01  0.8196E+01  0.8196E+01
      2.749  0.2551E+01  0.2551E+01  0.8330E+01  0.8330E+01
      2.801  0.2632E+01  0.2632E+01  0.8469E+01  0.8469E+01
      2.854  0.2761E+01  0.2761E+01  0.8615E+01  0.8615E+01
      2.907  0.2947E+01  0.2947E+01  0.8771E+01  0.8771E+01
      2.960  0.3026E+01  0.3026E+01  0.8930E+01  0.8930E+01
      3.012  0.2954E+01  0.2954E+01  0.9086E+01  0.9086E+01
      3.065  0.2840E+01  0.2840E+01  0.9236E+01  0.9236E+01
      3.118  0.2646E+01  0.2646E+01  0.9376E+01  0.9376E+01
      3.171  0.2383E+01  0.2383E+01  0.9501E+01  0.9501E+01
      3.223  0.2206E+01  0.2206E+01  0.9618E+01  0.9618E+01
      3.276  0.2142E+01  0.2142E+01  0.9731E+01  0.9731E+01
      3.329  0.2063E+01  0.2063E+01  0.9840E+01  0.9840E+01
      3.382  0.2029E+01  0.2029E+01  0.9947E+01  0.9947E+01
      3.434  0.2130E+01  0.2130E+01  0.1006E+02  0.1006E+02
      3.487  0.2193E+01  0.2193E+01  0.1018E+02  0.1018E+02
      3.540  0.2167E+01  0.2167E+01  0.1029E+02  0.1029E+02
      3.593  0.2229E+01  0.2229E+01  0.1041E+02  0.1041E+02
      3.645  0.2425E+01  0.2425E+01  0.1054E+02  0.1054E+02
      3.698  0.2673E+01  0.2673E+01  0.1068E+02  0.1068E+02
      3.751  0.2795E+01  0.2795E+01  0.1082E+02  0.1082E+02
      3.804  0.2806E+01  0.2806E+01  0.1097E+02  0.1097E+02
      3.856  0.2924E+01  0.2924E+01  0.1113E+02  0.1113E+02
      3.909  0.3028E+01  0.3028E+01  0.1129E+02  0.1129E+02
      3.962  0.2866E+01  0.2866E+01  0.1144E+02  0.1144E+02
      4.015  0.2553E+01  0.2554E+01  0.1157E+02  0.1157E+02
      4.067  0.2473E+01  0.2472E+01  0.1170E+02  0.1170E+02
      4.120  0.2738E+01  0.2738E+01  0.1185E+02  0.1185E+02
      4.173  0.3038E+01  0.3038E+01  0.1201E+02  0.1201E+02
      4.226  0.3165E+01  0.3165E+01  0.1217E+02  0.1217E+02
      4.278  0.3246E+01  0.3246E+01  0.1235E+02  0.1235E+02
      4.331  0.3213E+01  0.3213E+01  0.1252E+02  0.1252E+02
      4.384  0.3136E+01  0.3136E+01  0.1268E+02  0.1268E+02
      4.437  0.3174E+01  0.3174E+01  0.1285E+02  0.1285E+02
      4.489  0.3293E+01  0.3293E+01  0.1302E+02  0.1302E+02
      4.542  0.3563E+01  0.3563E+01  0.1321E+02  0.1321E+02
      4.595  0.3916E+01  0.3916E+01  0.1342E+02  0.1342E+02
      4.648  0.4050E+01  0.4050E+01  0.1363E+02  0.1363E+02
      4.700  0.3790E+01  0.3790E+01  0.1383E+02  0.1383E+02
      4.753  0.3424E+01  0.3424E+01  0.1401E+02  0.1401E+02
      4.806  0.3382E+01  0.3382E+01  0.1419E+02  0.1419E+02
      4.859  0.3659E+01  0.3659E+01  0.1438E+02  0.1438E+02
      4.911  0.3998E+01  0.3998E+01  0.1459E+02  0.1459E+02
      4.964  0.4162E+01  0.4162E+01  0.1481E+02  0.1481E+02
      5.017  0.4142E+01  0.4142E+01  0.1503E+02  0.1503E+02
      5.070  0.4107E+01  0.4107E+01  0.1525E+02  0.1525E+02
      5.122  0.4197E+01  0.4197E+01  0.1547E+02  0.1547E+02
      5.175  0.4304E+01  0.4304E+01  0.1570E+02  0.1570E+02
      5.228  0.4182E+01  0.4182E+01  0.1592E+02  0.1592E+02
      5.281  0.3926E+01  0.3926E+01  0.1613E+02  0.1613E+02
      5.333  0.3684E+01  0.3684E+01  0.1632E+02  0.1632E+02
      5.386  0.3493E+01  0.3493E+01  0.1650E+02  0.1650E+02
      5.439  0.3369E+01  0.3369E+01  0.1668E+02  0.1668E+02
      5.492  0.3322E+01  0.3322E+01  0.1686E+02  0.1686E+02
      5.544  0.3427E+01  0.3427E+01  0.1704E+02  0.1704E+02
      5.597  0.3731E+01  0.3731E+01  0.1724E+02  0.1724E+02
      5.650  0.3951E+01  0.3951E+01  0.1744E+02  0.1744E+02
      5.703  0.3995E+01  0.3995E+01  0.1765E+02  0.1765E+02
      5.755  0.4021E+01  0.4021E+01  0.1787E+02  0.1787E+02
      5.808  0.4145E+01  0.4145E+01  0.1809E+02  0.1809E+02
      5.861  0.4336E+01  0.4336E+01  0.1831E+02  0.1831E+02
      5.914  0.4662E+01  0.4662E+01  0.1856E+02  0.1856E+02
      5.966  0.5179E+01  0.5179E+01  0.1883E+02  0.1883E+02
      6.019  0.5473E+01  0.5473E+01  0.1912E+02  0.1912E+02
      6.072  0.5393E+01  0.5393E+01  0.1941E+02  0.1941E+02
      6.125  0.5309E+01  0.5309E+01  0.1969E+02  0.1969E+02
      6.177  0.5539E+01  0.5539E+01  0.1998E+02  0.1998E+02
      6.230  0.6146E+01  0.6145E+01  0.2030E+02  0.2030E+02
      6.283  0.6712E+01  0.6711E+01  0.2066E+02  0.2066E+02
      6.336  0.6717E+01  0.6717E+01  0.2101E+02  0.2101E+02
      6.388  0.6172E+01  0.6172E+01  0.2134E+02  0.2134E+02
      6.441  0.5385E+01  0.5385E+01  0.2162E+02  0.2162E+02
      6.494  0.4676E+01  0.4676E+01  0.2187E+02  0.2187E+02
      6.547  0.4285E+01  0.4285E+01  0.2210E+02  0.2210E+02
      6.599  0.4106E+01  0.4106E+01  0.2231E+02  0.2231E+02
      6.652  0.4053E+01  0.4053E+01  0.2253E+02  0.2253E+02
      6.705  0.4065E+01  0.4065E+01  0.2274E+02  0.2274E+02
      6.758  0.4059E+01  0.4059E+01  0.2296E+02  0.2295E+02
      6.810  0.4078E+01  0.4078E+01  0.2317E+02  0.2317E+02
      6.863  0.4289E+01  0.4289E+01  0.2340E+02  0.2340E+02
      6.916  0.4489E+01  0.4489E+01  0.2363E+02  0.2363E+02
      6.969  0.4473E+01  0.4473E+01  0.2387E+02  0.2387E+02
      7.021  0.4366E+01  0.4366E+01  0.2410E+02  0.2410E+02
      7.074  0.4051E+01  0.4052E+01  0.2431E+02  0.2431E+02
      7.127  0.3619E+01  0.3619E+01  0.2450E+02  0.2450E+02
      7.180  0.3252E+01  0.3252E+01  0.2468E+02  0.2468E+02
      7.232  0.2930E+01  0.2930E+01  0.2483E+02  0.2483E+02
      7.285  0.2573E+01  0.2573E+01  0.2497E+02  0.2497E+02
      7.338  0.2244E+01  0.2244E+01  0.2509E+02  0.2509E+02
      7.391  0.2143E+01  0.2143E+01  0.2520E+02  0.2520E+02
      7.443  0.2268E+01  0.2268E+01  0.2532E+02  0.2532E+02
      7.496  0.2437E+01  0.2437E+01  0.2545E+02  0.2545E+02
      7.549  0.2555E+01  0.2555E+01  0.2558E+02  0.2558E+02
      7.602  0.2563E+01  0.2563E+01  0.2572E+02  0.2572E+02
      7.654  0.2558E+01  0.2558E+01  0.2585E+02  0.2585E+02
      7.707  0.2681E+01  0.2681E+01  0.2599E+02  0.2599E+02
      7.760  0.2761E+01  0.2761E+01  0.2614E+02  0.2614E+02
      7.812  0.2669E+01  0.2669E+01  0.2628E+02  0.2628E+02
      7.865  0.2630E+01  0.2630E+01  0.2642E+02  0.2642E+02
      7.918  0.2886E+01  0.2886E+01  0.2657E+02  0.2657E+02
      7.971  0.3276E+01  0.3276E+01  0.2674E+02  0.2674E+02
      8.023  0.3428E+01  0.3428E+01  0.2693E+02  0.2693E+02
      8.076  0.3282E+01  0.3282E+01  0.2710E+02  0.2710E+02
      8.129  0.3187E+01  0.3187E+01  0.2727E+02  0.2727E+02
      8.182  0.3259E+01  0.3259E+01  0.2744E+02  0.2744E+02
      8.234  0.3377E+01  0.3377E+01  0.2762E+02  0.2762E+02
      8.287  0.3341E+01  0.3341E+01  0.2779E+02  0.2779E+02
      8.340  0.3162E+01  0.3162E+01  0.2796E+02  0.2796E+02
      8.393  0.3156E+01  0.3156E+01  0.2813E+02  0.2813E+02
      8.445  0.3373E+01  0.3373E+01  0.2830E+02  0.2830E+02
      8.498  0.3735E+01  0.3734E+01  0.2850E+02  0.2850E+02
      8.551  0.4240E+01  0.4240E+01  0.2873E+02  0.2873E+02
      8.604  0.4734E+01  0.4734E+01  0.2898E+02  0.2898E+02
      8.656  0.5115E+01  0.5115E+01  0.2925E+02  0.2925E+02
      8.709  0.5608E+01  0.5608E+01  0.2954E+02  0.2954E+02
      8.762  0.6414E+01  0.6414E+01  0.2988E+02  0.2988E+02
      8.815  0.7232E+01  0.7231E+01  0.3026E+02  0.3026E+02
      8.867  0.7646E+01  0.7646E+01  0.3066E+02  0.3066E+02
      8.920  0.7752E+01  0.7752E+01  0.3107E+02  0.3107E+02
      8.973  0.7980E+01  0.7980E+01  0.3149E+02  0.3149E+02
      9.026  0.8584E+01  0.8583E+01  0.3195E+02  0.3195E+02
      9.078  0.9460E+01  0.9460E+01  0.3245E+02  0.3245E+02
      9.131  0.1055E+02  0.1055E+02  0.3300E+02  0.3300E+02
      9.184  0.1159E+02  0.1160E+02  0.3361E+02  0.3362E+02
      9.237  0.1170E+02  0.1172E+02  0.3423E+02  0.3423E+02
      9.289  0.1046E+02  0.1049E+02  0.3478E+02  0.3479E+02
      9.342  0.8548E+01  0.8584E+01  0.3524E+02  0.3524E+02
      9.395  0.6730E+01  0.6753E+01  0.3559E+02  0.3560E+02
      9.448  0.5184E+01  0.5189E+01  0.3586E+02  0.3587E+02
      9.500  0.4024E+01  0.4011E+01  0.3608E+02  0.3608E+02
      9.553  0.3428E+01  0.3399E+01  0.3626E+02  0.3626E+02
      9.606  0.3379E+01  0.3356E+01  0.3644E+02  0.3644E+02
      9.659  0.3570E+01  0.3577E+01  0.3663E+02  0.3663E+02
      9.711  0.3618E+01  0.3667E+01  0.3682E+02  0.3682E+02
      9.764  0.3559E+01  0.3633E+01  0.3700E+02  0.3701E+02
      9.817  0.3563E+01  0.3619E+01  0.3719E+02  0.3721E+02
      9.870  0.3602E+01  0.3620E+01  0.3738E+02  0.3740E+02
      9.922  0.3664E+01  0.3643E+01  0.3758E+02  0.3759E+02
      9.975  0.3709E+01  0.3668E+01  0.3777E+02  0.3778E+02
     10.028  0.3682E+01  0.3673E+01  0.3797E+02  0.3798E+02
     10.081  0.3630E+01  0.3672E+01  0.3816E+02  0.3817E+02
     10.133  0.3594E+01  0.3645E+01  0.3835E+02  0.3836E+02
     10.186  0.3479E+01  0.3523E+01  0.3853E+02  0.3855E+02
     10.239  0.3157E+01  0.3272E+01  0.3870E+02  0.3872E+02
     10.292  0.2743E+01  0.2953E+01  0.3884E+02  0.3888E+02
     10.344  0.2407E+01  0.2617E+01  0.3897E+02  0.3902E+02
     10.397  0.2199E+01  0.2370E+01  0.3909E+02  0.3914E+02
     10.450  0.2107E+01  0.2241E+01  0.3920E+02  0.3926E+02
     10.503  0.1985E+01  0.2093E+01  0.3930E+02  0.3937E+02
     10.555  0.1756E+01  0.1858E+01  0.3939E+02  0.3947E+02
     10.608  0.1625E+01  0.1669E+01  0.3948E+02  0.3956E+02
     10.661  0.1662E+01  0.1571E+01  0.3957E+02  0.3964E+02
     10.714  0.1661E+01  0.1437E+01  0.3966E+02  0.3971E+02
     10.766  0.1450E+01  0.1247E+01  0.3973E+02  0.3978E+02
     10.819  0.1145E+01  0.1098E+01  0.3979E+02  0.3984E+02
     10.872  0.8967E+00  0.9320E+00  0.3984E+02  0.3989E+02
     10.925  0.7045E+00  0.6918E+00  0.3988E+02  0.3992E+02
     10.977  0.5789E+00  0.4568E+00  0.3991E+02  0.3995E+02
     11.030  0.5039E+00  0.2933E+00  0.3993E+02  0.3996E+02
     11.083  0.3956E+00  0.1901E+00  0.3996E+02  0.3997E+02
     11.136  0.2723E+00  0.1388E+00  0.3997E+02  0.3998E+02
     11.188  0.1925E+00  0.1227E+00  0.3998E+02  0.3999E+02
     11.241  0.1406E+00  0.1068E+00  0.3999E+02  0.3999E+02
     11.294  0.9846E-01  0.7096E-01  0.3999E+02  0.4000E+02
     11.347  0.6729E-01  0.3476E-01  0.4000E+02  0.4000E+02
     11.399  0.3883E-01  0.1388E-01  0.4000E+02  0.4000E+02
     11.452  0.1749E-01  0.5008E-02  0.4000E+02  0.4000E+02
     11.505  0.6805E-02  0.1778E-02  0.4000E+02  0.4000E+02
     11.558  0.2432E-02  0.5721E-03  0.4000E+02  0.4000E+02
     11.610  0.7251E-03  0.1997E-03  0.4000E+02  0.4000E+02
     11.663  0.2541E-03  0.0000E+00  0.4000E+02  0.4000E+02
     11.716  0.0000E+00  0.0000E+00  0.4000E+02  0.4000E+02
     11.769  0.0000E+00  0.0000E+00  0.4000E+02  0.4000E+02
     11.821  0.0000E+00  0.0000E+00  0.4000E+02  0.4000E+02
     11.874  0.0000E+00  0.0000E+00  0.4000E+02  0.4000E+02
     11.927  0.0000E+00  0.0000E+00  0.4000E+02  0.4000E+02
     11.980  0.0000E+00  0.0000E+00  0.4000E+02  0.4000E+02
     12.032  0.0000E+00  0.0000E+00  0.4000E+02  0.4000E+02
     12.03228866     -3.79193963  301      7.70919942      1.00000000
     -3.792  0.0000E+00  0.0000E+00  0.0000E+00  0.0000E+00  0.0000E+00  0.0000E+00  0.0000E+00  0.0000E+00  0.0000E+00  0.0000E+00  0.0000E+00  0.0000E+00  0.0000E+00  0.0000E+00  0.0000E+00  0.0000E+00  0.0000E+00  0.0000E+00
     -3.739  0.0000E+00  0.0000E+00  0.0000E+00  0.0000E+00  0.0000E+00  0.0000E+00  0.0000E+00  0.0000E+00  0.0000E+00  0.0000E+00  0.0000E+00  0.0000E+00  0.0000E+00  0.0000E+00  0.0000E+00  0.0000E+00  0.0000E+00  0.0000E+00
     -3.686  0.0000E+00  0.0000E+00  0.0000E+00  0.0000E+00  0.0000E+00  0.0000E+00  0.0000E+00  0.0000E+00  0.0000E+00  0.0000E+00  0.0000E+00  0.0000E+00  0.0000E+00  0.0000E+00  0.0000E+00  0.0000E+00  0.0000E+00  0.0000E+00
     -3.634  0.0000E+00  0.0000E+00  0.0000E+00  0.0000E+00  0.0000E+00  0.0000E+00  0.0000E+00  0.0000E+00  0.0000E+00  0.0000E+00  0.0000E+00  0.0000E+00  0.0000E+00  0.0000E+00  0.0000E+00  0.0000E+00  0.0000E+00  0.0000E+00
     -3.581  0.0000E+00  0.0000E+00  0.0000E+00  0.0000E+00  0.0000E+00  0.0000E+00  0.0000E+00  0.0000E+00  0.0000E+00  0.0000E+00  0.0000E+00  0.0000E+00  0.0000E+00  0.0000E+00  0.0000E+00  0.0000E+00  0.0000E+00  0.0000E+00
     -3.528  0.0000E+00  0.0000E+00  0.0000E+00  0.0000E+00  0.0000E+00  0.0000E+00  0.0000E+00  0.0000E+00  0.0000E+00  0.0000E+00  0.0000E+00  0.0000E+00  0.0000E+00  0.0000E+00  0.0000E+00  0.0000E+00  0.0000E+00  0.0000E+00
     -3.475  0.4033E-06  0.4032E-06  0.1777E-22  0.6781E-23  0.1846E-08  0.1845E-08  0.1777E-22  0.6781E-23  0.1798E-23  0.2056E-23  0.8998E-22  0.7685E-22  0.3989E-10  0.3980E-10  0.8998E-22  0.7685E-22  0.1115E-20  0.2446E-20
     -3.423  0.2749E-05  0.2749E-05  0.6055E-08  0.6054E-08  0.1999E-07  0.1999E-07  0.6055E-08  0.6054E-08  0.2387E-20  0.6174E-21  0.7074E-10  0.7076E-10  0.3122E-09  0.3115E-09  0.7074E-10  0.7076E-10  0.3116E-10  0.3115E-10
     -3.370  0.9194E-05  0.9191E-05  0.3153E-07  0.3152E-07  0.8070E-07  0.8068E-07  0.3153E-07  0.3152E-07  0.2021E-09  0.2021E-09  0.5946E-09  0.5946E-09  0.1060E-08  0.1057E-08  0.5946E-09  0.5946E-09  0.1103E-09  0.1103E-09
     -3.317  0.2486E-04  0.2486E-04  0.8718E-07  0.8716E-07  0.2206E-06  0.2205E-06  0.8718E-07  0.8716E-07  0.7197E-09  0.7194E-09  0.1822E-08  0.1823E-08  0.2829E-08  0.2823E-08  0.1822E-08  0.1823E-08  0.2644E-09  0.2643E-09
     -3.264  0.7021E-04  0.7019E-04  0.2470E-06  0.2470E-06  0.6258E-06  0.6257E-06  0.2470E-06  0.2470E-06  0.1723E-08  0.1723E-08  0.4822E-08  0.4822E-08  0.8334E-08  0.8317E-08  0.4822E-08  0.4822E-08  0.1046E-08  0.1046E-08
     -3.212  0.2002E-03  0.2001E-03  0.7499E-06  0.7497E-06  0.1845E-05  0.1844E-05  0.7499E-06  0.7497E-06  0.5919E-08  0.5917E-08  0.1550E-07  0.1550E-07  0.2437E-07  0.2432E-07  0.1550E-07  0.1550E-07  0.3484E-08  0.3483E-08
     -3.159  0.5413E-03  0.5412E-03  0.2059E-05  0.2058E-05  0.5063E-05  0.5062E-05  0.2059E-05  0.2058E-05  0.1610E-07  0.1609E-07  0.4308E-07  0.4308E-07  0.6543E-07  0.6530E-07  0.4308E-07  0.4308E-07  0.9010E-08  0.9008E-08
     -3.106  0.1365E-02  0.1365E-02  0.5710E-05  0.5709E-05  0.1328E-04  0.1327E-04  0.5710E-05  0.5709E-05  0.4975E-07  0.4974E-07  0.1225E-06  0.1225E-06  0.1690E-06  0.1687E-06  0.1225E-06  0.1225E-06  0.2574E-07  0.2573E-07
     -3.053  0.2982E-02  0.2982E-02  0.1411E-04  0.1411E-04  0.3115E-04  0.3115E-04  0.1411E-04  0.1411E-04  0.1299E-06  0.1298E-06  0.3126E-06  0.3126E-06  0.3791E-06  0.3784E-06  0.3126E-06  0.3126E-06  0.6355E-07  0.6354E-07
     -3.001  0.5382E-02  0.5382E-02  0.3047E-04  0.3047E-04  0.6262E-04  0.6261E-04  0.3047E-04  0.3047E-04  0.3243E-06  0.3242E-06  0.7267E-06  0.7268E-06  0.7223E-06  0.7210E-06  0.7267E-06  0.7268E-06  0.1436E-06  0.1436E-06
     -2.948  0.7817E-02  0.7816E-02  0.5484E-04  0.5484E-04  0.1046E-03  0.1046E-03  0.5484E-04  0.5484E-04  0.6921E-06  0.6920E-06  0.1437E-05  0.1437E-05  0.1164E-05  0.1162E-05  0.1437E-05  0.1437E-05  0.3007E-06  0.3006E-06
     -2.895  0.9486E-02  0.9485E-02  0.8547E-04  0.8547E-04  0.1523E-03  0.1523E-03  0.8547E-04  0.8547E-04  0.1246E-05  0.1246E-05  0.2452E-05  0.2453E-05  0.1736E-05  0.1734E-05  0.2452E-05  0.2453E-05  0.6310E-06  0.6309E-06
     -2.842  0.1096E-01  0.1096E-01  0.1293E-03  0.1293E-03  0.2171E-03  0.2171E-03  0.1293E-03  0.1293E-03  0.2141E-05  0.2141E-05  0.4047E-05  0.4048E-05  0.2673E-05  0.2670E-05  0.4047E-05  0.4048E-05  0.1283E-05  0.1283E-05
     -2.790  0.1347E-01  0.1347E-01  0.1966E-03  0.1965E-03  0.3170E-03  0.3170E-03  0.1966E-03  0.1965E-03  0.3800E-05  0.3799E-05  0.6830E-05  0.6830E-05  0.4068E-05  0.4064E-05  0.6830E-05  0.6830E-05  0.2213E-05  0.2213E-05
     -2.737  0.1604E-01  0.1604E-01  0.2675E-03  0.2675E-03  0.4229E-03  0.4229E-03  0.2675E-03  0.2675E-03  0.6183E-05  0.6182E-05  0.1050E-04  0.1050E-04  0.5327E-05  0.5323E-05  0.1050E-04  0.1050E-04  0.2984E-05  0.2984E-05
     -2.684  0.1618E-01  0.1618E-01  0.3003E-03  0.3003E-03  0.4793E-03  0.4793E-03  0.3003E-03  0.3003E-03  0.8330E-05  0.8330E-05  0.1355E-04  0.1355E-04  0.5881E-05  0.5877E-05  0.1355E-04  0.1355E-04  0.3299E-05  0.3299E-05
     -2.631  0.1477E-01  0.1477E-01  0.3154E-03  0.3154E-03  0.5233E-03  0.5233E-03  0.3154E-03  0.3154E-03  0.1045E-04  0.1045E-04  0.1671E-04  0.1671E-04  0.6599E-05  0.6595E-05  0.1671E-04  0.1671E-04  0.3855E-05  0.3855E-05
     -2.579  0.1551E-01  0.1551E-01  0.3936E-03  0.3936E-03  0.6506E-03  0.6506E-03  0.3936E-03  0.3936E-03  0.1470E-04  0.1470E-04  0.2336E-04  0.2336E-04  0.9051E-05  0.9046E-05  0.2336E-04  0.2336E-04  0.5904E-05  0.5904E-05
     -2.526  0.1833E-01  0.1833E-01  0.5404E-03  0.5404E-03  0.8043E-03  0.8043E-03  0.5404E-03  0.5404E-03  0.2067E-04  0.2067E-04  0.3238E-04  0.3238E-04  0.1317E-04  0.1316E-04  0.3238E-04  0.3238E-04  0.9992E-05  0.9991E-05
     -2.473  0.1983E-01  0.1983E-01  0.6684E-03  0.6684E-03  0.8423E-03  0.8424E-03  0.6684E-03  0.6684E-03  0.2516E-04  0.2516E-04  0.3849E-04  0.3849E-04  0.1723E-04  0.1722E-04  0.3849E-04  0.3849E-04  0.1501E-04  0.1501E-04
     -2.421  0.1943E-01  0.1943E-01  0.7321E-03  0.7322E-03  0.8316E-03  0.8316E-03  0.7321E-03  0.7322E-03  0.2902E-04  0.2902E-04  0.4353E-04  0.4353E-04  0.1978E-04  0.1977E-04  0.4353E-04  0.4353E-04  0.1826E-04  0.1826E-04
     -2.368  0.1909E-01  0.1909E-01  0.7635E-03  0.7636E-03  0.9394E-03  0.9394E-03  0.7635E-03  0.7636E-03  0.3624E-04  0.3624E-04  0.5386E-04  0.5386E-04  0.2094E-04  0.2093E-04  0.5386E-04  0.5386E-04  0.1824E-04  0.1824E-04
     -2.315  0.1953E-01  0.1953E-01  0.8221E-03  0.8221E-03  0.1104E-02  0.1104E-02  0.8221E-03  0.8221E-03  0.4875E-04  0.4875E-04  0.6795E-04  0.6795E-04  0.2233E-04  0.2232E-04  0.6795E-04  0.6795E-04  0.1760E-04  0.1760E-04
     -2.262  0.2012E-01  0.2012E-01  0.9321E-03  0.9321E-03  0.1155E-02  0.1155E-02  0.9321E-03  0.9321E-03  0.6493E-04  0.6493E-04  0.7956E-04  0.7956E-04  0.2475E-04  0.2475E-04  0.7956E-04  0.7956E-04  0.1929E-04  0.1929E-04
     -2.210  0.1959E-01  0.1959E-01  0.9992E-03  0.9992E-03  0.1111E-02  0.1112E-02  0.9992E-03  0.9992E-03  0.7446E-04  0.7446E-04  0.8558E-04  0.8558E-04  0.2660E-04  0.2659E-04  0.8558E-04  0.8558E-04  0.2201E-04  0.2201E-04
     -2.157  0.1811E-01  0.1811E-01  0.9846E-03  0.9846E-03  0.1141E-02  0.1141E-02  0.9846E-03  0.9846E-03  0.7089E-04  0.7089E-04  0.9001E-04  0.9001E-04  0.2910E-04  0.2909E-04  0.9001E-04  0.9001E-04  0.2602E-04  0.2602E-04
     -2.104  0.1865E-01  0.1865E-01  0.1090E-02  0.1090E-02  0.1369E-02  0.1369E-02  0.1090E-02  0.1090E-02  0.7219E-04  0.7219E-04  0.1058E-03  0.1058E-03  0.3864E-04  0.3863E-04  0.1058E-03  0.1058E-03  0.3676E-04  0.3676E-04
     -2.051  0.2191E-01  0.2191E-01  0.1397E-02  0.1397E-02  0.1728E-02  0.1728E-02  0.1397E-02  0.1397E-02  0.9360E-04  0.9360E-04  0.1329E-03  0.1329E-03  0.5684E-04  0.5682E-04  0.1329E-03  0.1329E-03  0.5367E-04  0.5366E-04
     -1.999  0.2415E-01  0.2415E-01  0.1645E-02  0.1645E-02  0.1975E-02  0.1975E-02  0.1645E-02  0.1645E-02  0.1227E-03  0.1227E-03  0.1505E-03  0.1505E-03  0.7395E-04  0.7392E-04  0.1505E-03  0.1505E-03  0.6478E-04  0.6477E-04
     -1.946  0.2354E-01  0.2354E-01  0.1690E-02  0.1690E-02  0.2005E-02  0.2005E-02  0.1690E-02  0.1690E-02  0.1473E-03  0.1473E-03  0.1570E-03  0.1570E-03  0.7973E-04  0.7971E-04  0.1570E-03  0.1570E-03  0.6412E-04  0.6412E-04
     -1.893  0.2293E-01  0.2293E-01  0.1746E-02  0.1746E-02  0.2063E-02  0.2063E-02  0.1746E-02  0.1746E-02  0.1713E-03  0.1713E-03  0.1828E-03  0.1828E-03  0.7841E-04  0.7839E-04  0.1828E-03  0.1828E-03  0.6348E-04  0.6347E-04
     -1.840  0.2425E-01  0.2425E-01  0.1933E-02  0.1933E-02  0.2354E-02  0.2354E-02  0.1933E-02  0.1933E-02  0.1978E-03  0.1978E-03  0.2338E-03  0.2338E-03  0.8049E-04  0.8047E-04  0.2338E-03  0.2338E-03  0.7007E-04  0.7007E-04
     -1.788  0.2425E-01  0.2425E-01  0.1973E-02  0.1974E-02  0.2559E-02  0.2559E-02  0.1973E-02  0.1974E-02  0.2109E-03  0.2109E-03  0.2651E-03  0.2651E-03  0.8048E-04  0.8046E-04  0.2651E-03  0.2651E-03  0.7024E-04  0.7024E-04
     -1.735  0.2050E-01  0.2050E-01  0.1725E-02  0.1725E-02  0.2335E-02  0.2335E-02  0.1725E-02  0.1725E-02  0.1987E-03  0.1987E-03  0.2538E-03  0.2538E-03  0.6925E-04  0.6924E-04  0.2538E-03  0.2538E-03  0.5903E-04  0.5903E-04
     -1.682  0.1727E-01  0.1727E-01  0.1598E-02  0.1598E-02  0.2108E-02  0.2108E-02  0.1598E-02  0.1598E-02  0.1991E-03  0.1991E-03  0.2541E-03  0.2541E-03  0.6159E-04  0.6157E-04  0.2541E-03  0.2541E-03  0.5588E-04  0.5588E-04
     -1.629  0.1841E-01  0.1841E-01  0.1900E-02  0.1900E-02  0.2435E-02  0.2435E-02  0.1900E-02  0.1900E-02  0.2504E-03  0.2504E-03  0.3038E-03  0.3037E-03  0.7912E-04  0.7909E-04  0.3038E-03  0.3037E-03  0.7249E-04  0.7248E-04
     -1.577  0.2183E-01  0.2183E-01  0.2426E-02  0.2426E-02  0.3149E-02  0.3149E-02  0.2426E-02  0.2426E-02  0.3295E-03  0.3295E-03  0.3622E-03  0.3621E-03  0.1225E-03  0.1224E-03  0.3622E-03  0.3621E-03  0.1035E-03  0.1035E-03
     -1.524  0.2464E-01  0.2464E-01  0.2910E-02  0.2910E-02  0.3834E-02  0.3834E-02  0.2910E-02  0.2910E-02  0.3875E-03  0.3875E-03  0.4071E-03  0.4071E-03  0.1685E-03  0.1684E-03  0.4071E-03  0.4071E-03  0.1404E-03  0.1404E-03
     -1.471  0.2518E-01  0.2518E-01  0.3125E-02  0.3125E-02  0.4155E-02  0.4155E-02  0.3125E-02  0.3125E-02  0.3941E-03  0.3941E-03  0.4470E-03  0.4470E-03  0.1843E-03  0.1843E-03  0.4470E-03  0.4470E-03  0.1655E-03  0.1655E-03
     -1.418  0.2370E-01  0.2371E-01  0.3096E-02  0.3096E-02  0.4115E-02  0.4115E-02  0.3096E-02  0.3096E-02  0.3914E-03  0.3914E-03  0.4848E-03  0.4848E-03  0.1712E-03  0.1712E-03  0.4848E-03  0.4848E-03  0.1687E-03  0.1687E-03
     -1.366  0.2332E-01  0.2332E-01  0.3222E-02  0.3223E-02  0.4332E-02  0.4332E-02  0.3222E-02  0.3223E-02  0.4471E-03  0.4470E-03  0.5544E-03  0.5543E-03  0.1684E-03  0.1684E-03  0.5544E-03  0.5543E-03  0.1695E-03  0.1695E-03
     -1.313  0.2360E-01  0.2360E-01  0.3424E-02  0.3425E-02  0.4781E-02  0.4781E-02  0.3424E-02  0.3425E-02  0.5109E-03  0.5109E-03  0.6287E-03  0.6287E-03  0.1772E-03  0.1772E-03  0.6287E-03  0.6287E-03  0.1747E-03  0.1747E-03
     -1.260  0.2115E-01  0.2115E-01  0.3225E-02  0.3225E-02  0.4739E-02  0.4740E-02  0.3225E-02  0.3225E-02  0.5125E-03  0.5125E-03  0.6321E-03  0.6321E-03  0.1615E-03  0.1615E-03  0.6321E-03  0.6321E-03  0.1609E-03  0.1609E-03
     -1.207  0.1817E-01  0.1817E-01  0.2959E-02  0.2959E-02  0.4668E-02  0.4668E-02  0.2959E-02  0.2959E-02  0.5360E-03  0.5360E-03  0.6556E-03  0.6556E-03  0.1341E-03  0.1341E-03  0.6556E-03  0.6556E-03  0.1362E-03  0.1362E-03
     -1.155  0.1832E-01  0.1832E-01  0.3180E-02  0.3180E-02  0.5311E-02  0.5311E-02  0.3180E-02  0.3180E-02  0.6559E-03  0.6559E-03  0.8054E-03  0.8053E-03  0.1357E-03  0.1357E-03  0.8054E-03  0.8053E-03  0.1328E-03  0.1328E-03