  16  16   1   0
  0.1230094E+02  0.3583950E-09  0.3583950E-09  0.1532267E-08  0.5000000E-15
  1.000000000000000E-004
  CAR 
 unknown system                          
     14.50422797     -3.05756055  301      9.63398161      1.00000000
     -3.058  0.0000E+00  0.0000E+00  0.0000E+00  0.0000E+00
     -2.999  0.0000E+00  0.0000E+00  0.0000E+00  0.0000E+00
     -2.940  0.0000E+00  0.0000E+00  0.0000E+00  0.0000E+00
     -2.882  0.0000E+00  0.0000E+00  0.0000E+00  0.0000E+00
     -2.823  0.0000E+00  0.0000E+00  0.0000E+00  0.0000E+00
     -2.765  0.0000E+00  0.0000E+00  0.0000E+00  0.0000E+00
     -2.706  0.4412E-05  0.4398E-05  0.2583E-06  0.2575E-06
     -2.648  0.9811E-05  0.9780E-05  0.8326E-06  0.8300E-06
     -2.589  0.9798E-04  0.9768E-04  0.6568E-05  0.6548E-05
     -2.531  0.3529E-03  0.3518E-03  0.2722E-04  0.2714E-04
     -2.472  0.1083E-02  0.1079E-02  0.9060E-04  0.9032E-04
     -2.414  0.3411E-02  0.3401E-02  0.2903E-03  0.2894E-03
     -2.355  0.1053E-01  0.1050E-01  0.9065E-03  0.9038E-03
     -2.297  0.2958E-01  0.2950E-01  0.2638E-02  0.2631E-02
     -2.238  0.7127E-01  0.7113E-01  0.6810E-02  0.6794E-02
     -2.179  0.1377E+00  0.1375E+00  0.1487E-01  0.1485E-01
     -2.121  0.2077E+00  0.2075E+00  0.2703E-01  0.2699E-01
     -2.062  0.2509E+00  0.2509E+00  0.4172E-01  0.4168E-01
     -2.004  0.2807E+00  0.2806E+00  0.5815E-01  0.5811E-01
     -1.945  0.3502E+00  0.3500E+00  0.7865E-01  0.7859E-01
     -1.887  0.4491E+00  0.4489E+00  0.1049E+00  0.1049E+00
     -1.828  0.4751E+00  0.4752E+00  0.1328E+00  0.1327E+00
     -1.770  0.4126E+00  0.4128E+00  0.1569E+00  0.1569E+00
     -1.711  0.4024E+00  0.4022E+00  0.1805E+00  0.1804E+00
     -1.653  0.5066E+00  0.5062E+00  0.2102E+00  0.2101E+00
     -1.594  0.5997E+00  0.5996E+00  0.2453E+00  0.2452E+00
     -1.536  0.6006E+00  0.6007E+00  0.2804E+00  0.2803E+00
     -1.477  0.5805E+00  0.5805E+00  0.3144E+00  0.3144E+00
     -1.418  0.5950E+00  0.5949E+00  0.3493E+00  0.3492E+00
     -1.360  0.6367E+00  0.6366E+00  0.3866E+00  0.3865E+00
     -1.301  0.6591E+00  0.6591E+00  0.4252E+00  0.4251E+00
     -1.243  0.6149E+00  0.6151E+00  0.4612E+00  0.4611E+00
     -1.184  0.5723E+00  0.5723E+00  0.4947E+00  0.4946E+00
     -1.126  0.6636E+00  0.6631E+00  0.5336E+00  0.5335E+00
     -1.067  0.8257E+00  0.8253E+00  0.5819E+00  0.5818E+00
     -1.009  0.8821E+00  0.8822E+00  0.6336E+00  0.6335E+00
     -0.950  0.8329E+00  0.8330E+00  0.6824E+00  0.6823E+00
     -0.892  0.8512E+00  0.8510E+00  0.7322E+00  0.7321E+00
     -0.833  0.9592E+00  0.9590E+00  0.7884E+00  0.7882E+00
     -0.775  0.9281E+00  0.9285E+00  0.8427E+00  0.8426E+00
     -0.716  0.7223E+00  0.7228E+00  0.8850E+00  0.8849E+00
     -0.657  0.6416E+00  0.6415E+00  0.9226E+00  0.9225E+00
     -0.599  0.7855E+00  0.7850E+00  0.9687E+00  0.9685E+00
     -0.540  0.9858E+00  0.9853E+00  0.1026E+01  0.1026E+01
     -0.482  0.1145E+01  0.1145E+01  0.1093E+01  0.1093E+01
     -0.423  0.1168E+01  0.1168E+01  0.1162E+01  0.1162E+01
     -0.365  0.1099E+01  0.1099E+01  0.1226E+01  0.1226E+01
     -0.306  0.1151E+01  0.1151E+01  0.1294E+01  0.1293E+01
     -0.248  0.1219E+01  0.1219E+01  0.1365E+01  0.1365E+01
     -0.189  0.1083E+01  0.1083E+01  0.1428E+01  0.1428E+01
     -0.131  0.9748E+00  0.9747E+00  0.1486E+01  0.1485E+01
     -0.072  0.1099E+01  0.1099E+01  0.1550E+01  0.1550E+01
     -0.014  0.1238E+01  0.1238E+01  0.1622E+01  0.1622E+01
      0.045  0.1252E+01  0.1252E+01  0.1696E+01  0.1696E+01
      0.104  0.1257E+01  0.1257E+01  0.1769E+01  0.1769E+01
      0.162  0.1306E+01  0.1306E+01  0.1846E+01  0.1846E+01
      0.221  0.1328E+01  0.1328E+01  0.1924E+01  0.1924E+01
      0.279  0.1256E+01  0.1256E+01  0.1997E+01  0.1997E+01
      0.338  0.1228E+01  0.1227E+01  0.2069E+01  0.2069E+01
      0.396  0.1391E+01  0.1390E+01  0.2151E+01  0.2150E+01
      0.455  0.1576E+01  0.1576E+01  0.2243E+01  0.2243E+01
      0.513  0.1560E+01  0.1560E+01  0.2334E+01  0.2334E+01
      0.572  0.1350E+01  0.1350E+01  0.2413E+01  0.2413E+01
      0.630  0.1198E+01  0.1198E+01  0.2484E+01  0.2483E+01
      0.689  0.1152E+01  0.1152E+01  0.2551E+01  0.2551E+01
      0.747  0.1035E+01  0.1035E+01  0.2612E+01  0.2612E+01
      0.806  0.9417E+00  0.9417E+00  0.2667E+01  0.2667E+01
      0.865  0.1019E+01  0.1019E+01  0.2727E+01  0.2726E+01
      0.923  0.1233E+01  0.1232E+01  0.2799E+01  0.2799E+01
      0.982  0.1384E+01  0.1384E+01  0.2880E+01  0.2880E+01
      1.040  0.1354E+01  0.1355E+01  0.2959E+01  0.2959E+01
      1.099  0.1283E+01  0.1283E+01  0.3034E+01  0.3034E+01
      1.157  0.1322E+01  0.1322E+01  0.3112E+01  0.3112E+01
      1.216  0.1336E+01  0.1337E+01  0.3190E+01  0.3190E+01
      1.274  0.1190E+01  0.1191E+01  0.3260E+01  0.3260E+01
      1.333  0.1110E+01  0.1110E+01  0.3325E+01  0.3325E+01
      1.391  0.1333E+01  0.1332E+01  0.3403E+01  0.3403E+01
      1.450  0.1598E+01  0.1598E+01  0.3496E+01  0.3496E+01
      1.509  0.1595E+01  0.1595E+01  0.3590E+01  0.3590E+01
      1.567  0.1440E+01  0.1440E+01  0.3674E+01  0.3674E+01
      1.626  0.1353E+01  0.1353E+01  0.3753E+01  0.3753E+01
      1.684  0.1359E+01  0.1359E+01  0.3833E+01  0.3833E+01
      1.743  0.1359E+01  0.1359E+01  0.3913E+01  0.3912E+01
      1.801  0.1316E+01  0.1316E+01  0.3990E+01  0.3989E+01
      1.860  0.1310E+01  0.1310E+01  0.4066E+01  0.4066E+01
      1.918  0.1367E+01  0.1366E+01  0.4146E+01  0.4146E+01
      1.977  0.1375E+01  0.1375E+01  0.4227E+01  0.4227E+01
      2.035  0.1328E+01  0.1328E+01  0.4305E+01  0.4305E+01
      2.094  0.1391E+01  0.1390E+01  0.4386E+01  0.4386E+01
      2.152  0.1531E+01  0.1530E+01  0.4476E+01  0.4476E+01
      2.211  0.1604E+01  0.1604E+01  0.4570E+01  0.4570E+01
      2.270  0.1738E+01  0.1738E+01  0.4672E+01  0.4671E+01
      2.328  0.1972E+01  0.1972E+01  0.4787E+01  0.4787E+01
      2.387  0.2085E+01  0.2085E+01  0.4909E+01  0.4909E+01
      2.445  0.1993E+01  0.1994E+01  0.5026E+01  0.5026E+01
      2.504  0.1873E+01  0.1873E+01  0.5136E+01  0.5135E+01
      2.562  0.1842E+01  0.1842E+01  0.5244E+01  0.5243E+01
      2.621  0.1855E+01  0.1855E+01  0.5352E+01  0.5352E+01
      2.679  0.1792E+01  0.1792E+01  0.5457E+01  0.5457E+01
      2.738  0.1661E+01  0.1662E+01  0.5555E+01  0.5554E+01
      2.796  0.1578E+01  0.1578E+01  0.5647E+01  0.5647E+01
      2.855  0.1566E+01  0.1566E+01  0.5739E+01  0.5739E+01
      2.913  0.1642E+01  0.1642E+01  0.5835E+01  0.5835E+01
      2.972  0.1808E+01  0.1808E+01  0.5941E+01  0.5941E+01
      3.031  0.1930E+01  0.1930E+01  0.6054E+01  0.6054E+01
      3.089  0.1888E+01  0.1888E+01  0.6165E+01  0.6164E+01
      3.148  0.1675E+01  0.1675E+01  0.6263E+01  0.6262E+01
      3.206  0.1546E+01  0.1546E+01  0.6353E+01  0.6353E+01
      3.265  0.1633E+01  0.1633E+01  0.6449E+01  0.6449E+01
      3.323  0.1751E+01  0.1751E+01  0.6551E+01  0.6551E+01
      3.382  0.1820E+01  0.1820E+01  0.6658E+01  0.6658E+01
      3.440  0.1942E+01  0.1942E+01  0.6772E+01  0.6772E+01
      3.499  0.2118E+01  0.2117E+01  0.6896E+01  0.6896E+01
      3.557  0.2042E+01  0.2043E+01  0.7016E+01  0.7015E+01
      3.616  0.1705E+01  0.1706E+01  0.7115E+01  0.7115E+01
      3.674  0.1541E+01  0.1541E+01  0.7206E+01  0.7205E+01
      3.733  0.1700E+01  0.1699E+01  0.7305E+01  0.7305E+01
      3.792  0.1884E+01  0.1884E+01  0.7416E+01  0.7415E+01
      3.850  0.1899E+01  0.1899E+01  0.7527E+01  0.7526E+01
      3.909  0.1679E+01  0.1679E+01  0.7625E+01  0.7625E+01
      3.967  0.1474E+01  0.1474E+01  0.7712E+01  0.7711E+01
      4.026  0.1535E+01  0.1534E+01  0.7802E+01  0.7801E+01
      4.084  0.1734E+01  0.1733E+01  0.7903E+01  0.7903E+01
      4.143  0.2024E+01  0.2023E+01  0.8022E+01  0.8021E+01
      4.201  0.2352E+01  0.2351E+01  0.8159E+01  0.8159E+01
      4.260  0.2629E+01  0.2628E+01  0.8313E+01  0.8313E+01
      4.318  0.2806E+01  0.2806E+01  0.8478E+01  0.8477E+01
      4.377  0.2710E+01  0.2711E+01  0.8636E+01  0.8636E+01
      4.435  0.2516E+01  0.2516E+01  0.8784E+01  0.8783E+01
      4.494  0.2622E+01  0.2621E+01  0.8937E+01  0.8937E+01
      4.553  0.2824E+01  0.2824E+01  0.9103E+01  0.9102E+01
      4.611  0.2651E+01  0.2652E+01  0.9258E+01  0.9257E+01
      4.670  0.2404E+01  0.2404E+01  0.9399E+01  0.9398E+01
      4.728  0.2409E+01  0.2409E+01  0.9540E+01  0.9539E+01
      4.787  0.2414E+01  0.2415E+01  0.9681E+01  0.9681E+01
      4.845  0.2179E+01  0.2180E+01  0.9809E+01  0.9809E+01
      4.904  0.1927E+01  0.1927E+01  0.9922E+01  0.9921E+01
      4.962  0.1917E+01  0.1917E+01  0.1003E+02  0.1003E+02
      5.021  0.1923E+01  0.1923E+01  0.1015E+02  0.1015E+02
      5.079  0.1879E+01  0.1879E+01  0.1026E+02  0.1026E+02
      5.138  0.2110E+01  0.2109E+01  0.1038E+02  0.1038E+02
      5.196  0.2378E+01  0.2377E+01  0.1052E+02  0.1052E+02
      5.255  0.2568E+01  0.2567E+01  0.1067E+02  0.1067E+02
      5.314  0.2868E+01  0.2867E+01  0.1084E+02  0.1084E+02
      5.372  0.2970E+01  0.2970E+01  0.1101E+02  0.1101E+02
      5.431  0.2782E+01  0.2782E+01  0.1118E+02  0.1117E+02
      5.489  0.2596E+01  0.2596E+01  0.1133E+02  0.1133E+02
      5.548  0.2545E+01  0.2545E+01  0.1148E+02  0.1148E+02
      5.606  0.2562E+01  0.2562E+01  0.1163E+02  0.1163E+02
      5.665  0.2703E+01  0.2702E+01  0.1178E+02  0.1178E+02
      5.723  0.2896E+01  0.2896E+01  0.1195E+02  0.1195E+02
      5.782  0.2962E+01  0.2961E+01  0.1213E+02  0.1213E+02
      5.840  0.3032E+01  0.3031E+01  0.1231E+02  0.1230E+02
      5.899  0.2994E+01  0.2995E+01  0.1248E+02  0.1248E+02
      5.957  0.2866E+01  0.2866E+01  0.1265E+02  0.1265E+02
      6.016  0.2998E+01  0.2996E+01  0.1282E+02  0.1282E+02
      6.075  0.3372E+01  0.3370E+01  0.1302E+02  0.1302E+02
      6.133  0.3708E+01  0.3707E+01  0.1324E+02  0.1324E+02
      6.192  0.3763E+01  0.3763E+01  0.1346E+02  0.1346E+02
      6.250  0.3707E+01  0.3706E+01  0.1368E+02  0.1368E+02
      6.309  0.3715E+01  0.3714E+01  0.1389E+02  0.1389E+02
      6.367  0.3712E+01  0.3712E+01  0.1411E+02  0.1411E+02
      6.426  0.3618E+01  0.3618E+01  0.1432E+02  0.1432E+02
      6.484  0.3510E+01  0.3510E+01  0.1453E+02  0.1453E+02
      6.543  0.3615E+01  0.3614E+01  0.1474E+02  0.1474E+02
      6.601  0.3831E+01  0.3830E+01  0.1496E+02  0.1496E+02
      6.660  0.3950E+01  0.3950E+01  0.1520E+02  0.1520E+02
      6.719  0.4008E+01  0.4008E+01  0.1543E+02  0.1543E+02
      6.777  0.4025E+01  0.4026E+01  0.1567E+02  0.1567E+02
      6.836  0.3870E+01  0.3871E+01  0.1589E+02  0.1589E+02
      6.894  0.3710E+01  0.3711E+01  0.1611E+02  0.1611E+02
      6.953  0.3481E+01  0.3482E+01  0.1631E+02  0.1631E+02
      7.011  0.3241E+01  0.3241E+01  0.1650E+02  0.1650E+02
      7.070  0.3250E+01  0.3249E+01  0.1669E+02  0.1669E+02
      7.128  0.3347E+01  0.3346E+01  0.1689E+02  0.1689E+02
      7.187  0.3280E+01  0.3280E+01  0.1708E+02  0.1708E+02
      7.245  0.3305E+01  0.3304E+01  0.1728E+02  0.1728E+02
      7.304  0.3350E+01  0.3350E+01  0.1747E+02  0.1747E+02
      7.362  0.3308E+01  0.3309E+01  0.1767E+02  0.1767E+02
      7.421  0.3335E+01  0.3335E+01  0.1786E+02  0.1786E+02
      7.480  0.3473E+01  0.3472E+01  0.1807E+02  0.1806E+02
      7.538  0.3780E+01  0.3777E+01  0.1829E+02  0.1829E+02
      7.597  0.4264E+01  0.4260E+01  0.1854E+02  0.1854E+02
      7.655  0.4780E+01  0.4777E+01  0.1882E+02  0.1881E+02
      7.714  0.5035E+01  0.5035E+01  0.1911E+02  0.1911E+02
      7.772  0.4931E+01  0.4932E+01  0.1940E+02  0.1940E+02
      7.831  0.4894E+01  0.4893E+01  0.1969E+02  0.1969E+02
      7.889  0.5146E+01  0.5143E+01  0.1999E+02  0.1999E+02
      7.948  0.5614E+01  0.5610E+01  0.2032E+02  0.2031E+02
      8.006  0.6146E+01  0.6143E+01  0.2068E+02  0.2067E+02
      8.065  0.6346E+01  0.6346E+01  0.2105E+02  0.2105E+02
      8.123  0.6011E+01  0.6015E+01  0.2140E+02  0.2140E+02
      8.182  0.5178E+01  0.5183E+01  0.2170E+02  0.2170E+02
      8.241  0.4262E+01  0.4266E+01  0.2195E+02  0.2195E+02
      8.299  0.3782E+01  0.3784E+01  0.2218E+02  0.2217E+02
      8.358  0.3526E+01  0.3527E+01  0.2238E+02  0.2238E+02
      8.416  0.3350E+01  0.3350E+01  0.2258E+02  0.2258E+02
      8.475  0.3279E+01  0.3279E+01  0.2277E+02  0.2277E+02
      8.533  0.3110E+01  0.3111E+01  0.2295E+02  0.2295E+02
      8.592  0.3107E+01  0.3105E+01  0.2313E+02  0.2313E+02
      8.650  0.3547E+01  0.3543E+01  0.2334E+02  0.2334E+02
      8.709  0.3938E+01  0.3937E+01  0.2357E+02  0.2357E+02
      8.767  0.3917E+01  0.3918E+01  0.2380E+02  0.2380E+02
      8.826  0.3762E+01  0.3762E+01  0.2402E+02  0.2402E+02
      8.884  0.3628E+01  0.3629E+01  0.2424E+02  0.2423E+02
      8.943  0.3372E+01  0.3375E+01  0.2443E+02  0.2443E+02
      9.002  0.2960E+01  0.2963E+01  0.2461E+02  0.2461E+02
      9.060  0.2578E+01  0.2580E+01  0.2476E+02  0.2476E+02
      9.119  0.2304E+01  0.2305E+01  0.2489E+02  0.2489E+02
      9.177  0.2076E+01  0.2077E+01  0.2501E+02  0.2501E+02
      9.236  0.1985E+01  0.1985E+01  0.2513E+02  0.2513E+02
      9.294  0.2052E+01  0.2051E+01  0.2525E+02  0.2525E+02
      9.353  0.2142E+01  0.2141E+01  0.2538E+02  0.2538E+02
      9.411  0.2230E+01  0.2229E+01  0.2551E+02  0.2551E+02
      9.470  0.2248E+01  0.2248E+01  0.2564E+02  0.2564E+02
      9.528  0.2148E+01  0.2149E+01  0.2576E+02  0.2576E+02
      9.587  0.2141E+01  0.2139E+01  0.2589E+02  0.2589E+02
      9.645  0.2380E+01  0.2377E+01  0.2603E+02  0.2603E+02
      9.704  0.2503E+01  0.2504E+01  0.2618E+02  0.2617E+02
      9.763  0.2278E+01  0.2281E+01  0.2631E+02  0.2631E+02
      9.821  0.2125E+01  0.2124E+01  0.2643E+02  0.2643E+02
      9.880  0.2374E+01  0.2371E+01  0.2657E+02  0.2657E+02
      9.938  0.2755E+01  0.2752E+01  0.2673E+02  0.2673E+02
      9.997  0.2868E+01  0.2868E+01  0.2690E+02  0.2690E+02
     10.055  0.2697E+01  0.2699E+01  0.2706E+02  0.2706E+02
     10.114  0.2588E+01  0.2588E+01  0.2721E+02  0.2721E+02
     10.172  0.2612E+01  0.2612E+01  0.2736E+02  0.2736E+02
     10.231  0.2708E+01  0.2707E+01  0.2752E+02  0.2752E+02
     10.289  0.2740E+01  0.2741E+01  0.2768E+02  0.2768E+02
     10.348  0.2542E+01  0.2545E+01  0.2783E+02  0.2783E+02
     10.406  0.2359E+01  0.2359E+01  0.2797E+02  0.2797E+02
     10.465  0.2418E+01  0.2418E+01  0.2811E+02  0.2811E+02
     10.524  0.2577E+01  0.2576E+01  0.2826E+02  0.2826E+02
     10.582  0.2769E+01  0.2767E+01  0.2843E+02  0.2842E+02
     10.641  0.3027E+01  0.3024E+01  0.2860E+02  0.2860E+02
     10.699  0.3213E+01  0.3212E+01  0.2879E+02  0.2879E+02
     10.758  0.3267E+01  0.3267E+01  0.2898E+02  0.2898E+02
     10.816  0.3384E+01  0.3382E+01  0.2918E+02  0.2918E+02
     10.875  0.3827E+01  0.3822E+01  0.2940E+02  0.2940E+02
     10.933  0.4736E+01  0.4727E+01  0.2968E+02  0.2968E+02
     10.992  0.5801E+01  0.5794E+01  0.3002E+02  0.3002E+02
     11.050  0.6298E+01  0.6296E+01  0.3039E+02  0.3039E+02
     11.109  0.6308E+01  0.6308E+01  0.3076E+02  0.3076E+02
     11.167  0.6191E+01  0.6191E+01  0.3112E+02  0.3112E+02
     11.226  0.6146E+01  0.6143E+01  0.3148E+02  0.3148E+02
     11.285  0.6237E+01  0.6232E+01  0.3185E+02  0.3184E+02
     11.343  0.6725E+01  0.6717E+01  0.3224E+02  0.3224E+02
     11.402  0.7519E+01  0.7511E+01  0.3268E+02  0.3268E+02
     11.460  0.8139E+01  0.8131E+01  0.3316E+02  0.3315E+02
     11.519  0.8537E+01  0.8528E+01  0.3366E+02  0.3365E+02
     11.577  0.8960E+01  0.8952E+01  0.3418E+02  0.3418E+02
     11.636  0.8977E+01  0.8980E+01  0.3471E+02  0.3470E+02
     11.694  0.8037E+01  0.8054E+01  0.3518E+02  0.3518E+02
     11.753  0.6465E+01  0.6484E+01  0.3556E+02  0.3555E+02
     11.811  0.5074E+01  0.5089E+01  0.3586E+02  0.3585E+02
     11.870  0.3926E+01  0.3939E+01  0.3609E+02  0.3608E+02
     11.928  0.2875E+01  0.2887E+01  0.3625E+02  0.3625E+02
     11.987  0.2260E+01  0.2267E+01  0.3639E+02  0.3639E+02
     12.046  0.2244E+01  0.2244E+01  0.3652E+02  0.3652E+02
     12.104  0.2799E+01  0.2794E+01  0.3668E+02  0.3668E+02
     12.163  0.3628E+01  0.3623E+01  0.3690E+02  0.3689E+02
     12.221  0.4017E+01  0.4019E+01  0.3713E+02  0.3713E+02
     12.280  0.3783E+01  0.3785E+01  0.3735E+02  0.3735E+02
     12.338  0.3507E+01  0.3505E+01  0.3756E+02  0.3756E+02
     12.397  0.3370E+01  0.3367E+01  0.3776E+02  0.3775E+02
     12.455  0.3353E+01  0.3360E+01  0.3795E+02  0.3795E+02
     12.514  0.3482E+01  0.3511E+01  0.3816E+02  0.3816E+02
     12.572  0.3549E+01  0.3623E+01  0.3836E+02  0.3837E+02
     12.631  0.3432E+01  0.3548E+01  0.3856E+02  0.3858E+02
     12.690  0.3252E+01  0.3356E+01  0.3876E+02  0.3877E+02
     12.748  0.2946E+01  0.2999E+01  0.3893E+02  0.3895E+02
     12.807  0.2512E+01  0.2524E+01  0.3908E+02  0.3910E+02
     12.865  0.2154E+01  0.2164E+01  0.3920E+02  0.3922E+02
     12.924  0.1911E+01  0.1984E+01  0.3931E+02  0.3934E+02
     12.982  0.1835E+01  0.1914E+01  0.3942E+02  0.3945E+02
     13.041  0.1784E+01  0.1797E+01  0.3953E+02  0.3956E+02
     13.099  0.1559E+01  0.1528E+01  0.3962E+02  0.3965E+02
     13.158  0.1295E+01  0.1321E+01  0.3969E+02  0.3972E+02
     13.216  0.1113E+01  0.1213E+01  0.3976E+02  0.3980E+02
     13.275  0.9746E+00  0.1039E+01  0.3982E+02  0.3986E+02
     13.333  0.8422E+00  0.8233E+00  0.3986E+02  0.3990E+02
     13.392  0.7118E+00  0.5765E+00  0.3991E+02  0.3994E+02
     13.451  0.6110E+00  0.3544E+00  0.3994E+02  0.3996E+02
     13.509  0.4360E+00  0.2161E+00  0.3997E+02  0.3997E+02
     13.568  0.2428E+00  0.1352E+00  0.3998E+02  0.3998E+02
     13.626  0.1462E+00  0.8776E-01  0.3999E+02  0.3998E+02
     13.685  0.9273E-01  0.8281E-01  0.4000E+02  0.3999E+02
     13.743  0.4438E-01  0.8307E-01  0.4000E+02  0.3999E+02
     13.802  0.1652E-01  0.5412E-01  0.4000E+02  0.4000E+02
     13.860  0.4789E-02  0.2338E-01  0.4000E+02  0.4000E+02
     13.919  0.1521E-02  0.8006E-02  0.4000E+02  0.4000E+02
     13.977  0.4752E-03  0.2585E-02  0.4000E+02  0.4000E+02
     14.036  0.0000E+00  0.8119E-03  0.4000E+02  0.4000E+02
     14.094  0.0000E+00  0.2528E-03  0.4000E+02  0.4000E+02
     14.153  0.0000E+00  0.0000E+00  0.4000E+02  0.4000E+02
     14.212  0.0000E+00  0.0000E+00  0.4000E+02  0.4000E+02
     14.270  0.0000E+00  0.0000E+00  0.4000E+02  0.4000E+02
     14.329  0.0000E+00  0.0000E+00  0.4000E+02  0.4000E+02
     14.387  0.0000E+00  0.0000E+00  0.4000E+02  0.4000E+02
     14.446  0.0000E+00  0.0000E+00  0.4000E+02  0.4000E+02
     14.504  0.0000E+00  0.0000E+00  0.4000E+02  0.4000E+02
     14.50422797     -3.05756055  301      9.63398161      1.00000000
     -3.058  0.0000E+00  0.0000E+00  0.0000E+00  0.0000E+00  0.0000E+00  0.0000E+00  0.0000E+00  0.0000E+00  0.0000E+00  0.0000E+00  0.0000E+00  0.0000E+00  0.0000E+00  0.0000E+00  0.0000E+00  0.0000E+00  0.0000E+00  0.0000E+00
     -2.999  0.0000E+00  0.0000E+00  0.0000E+00  0.0000E+00  0.0000E+00  0.0000E+00  0.0000E+00  0.0000E+00  0.0000E+00  0.0000E+00  0.0000E+00  0.0000E+00  0.0000E+00  0.0000E+00  0.0000E+00  0.0000E+00  0.0000E+00  0.0000E+00
     -2.940  0.0000E+00  0.0000E+00  0.0000E+00  0.0000E+00  0.0000E+00  0.0000E+00  0.0000E+00  0.0000E+00  0.0000E+00  0.0000E+00  0.0000E+00  0.0000E+00  0.0000E+00  0.0000E+00  0.0000E+00  0.0000E+00  0.0000E+00  0.0000E+00
     -2.882  0.0000E+00  0.0000E+00  0.0000E+00  0.0000E+00  0.0000E+00  0.0000E+00  0.0000E+00  0.0000E+00  0.0000E+00  0.0000E+00  0.0000E+00  0.0000E+00  0.0000E+00  0.0000E+00  0.0000E+00  0.0000E+00  0.0000E+00  0.0000E+00
     -2.823  0.0000E+00  0.0000E+00  0.0000E+00  0.0000E+00  0.0000E+00  0.0000E+00  0.0000E+00  0.0000E+00  0.0000E+00  0.0000E+00  0.0000E+00  0.0000E+00  0.0000E+00  0.0000E+00  0.0000E+00  0.0000E+00  0.0000E+00  0.0000E+00
     -2.765  0.0000E+00  0.0000E+00  0.0000E+00  0.0000E+00  0.0000E+00  0.0000E+00  0.0000E+00  0.0000E+00  0.0000E+00  0.0000E+00  0.0000E+00  0.0000E+00  0.0000E+00  0.0000E+00  0.0000E+00  0.0000E+00  0.0000E+00  0.0000E+00
     -2.706  0.1995E-06  0.1988E-06  0.7534E-23  0.6103E-23  0.7735E-09  0.7714E-09  0.7534E-23  0.6103E-23  0.6744E-24  0.4111E-23  0.4219E-20  0.4033E-21  0.4407E-10  0.4398E-10  0.4219E-20  0.4033E-21  0.4149E-19  0.4226E-20
     -2.648  0.4435E-06  0.4421E-06  0.1675E-22  0.1357E-22  0.1720E-08  0.1715E-08  0.1675E-22  0.1357E-22  0.1500E-23  0.9141E-23  0.9381E-20  0.8968E-21  0.9800E-10  0.9779E-10  0.9381E-20  0.8968E-21  0.9225E-19  0.9397E-20
     -2.589  0.4385E-05  0.4371E-05  0.9293E-08  0.9263E-08  0.2838E-07  0.2830E-07  0.9293E-08  0.9263E-08  0.1008E-21  0.1081E-21  0.1026E-09  0.1023E-09  0.1048E-08  0.1046E-08  0.1026E-09  0.1023E-09  0.5703E-10  0.5686E-10
     -2.531  0.1571E-04  0.1566E-04  0.4952E-07  0.4936E-07  0.1217E-06  0.1214E-06  0.4952E-07  0.4936E-07  0.3106E-09  0.3096E-09  0.9013E-09  0.8988E-09  0.3792E-08  0.3785E-08  0.9013E-09  0.8988E-09  0.2152E-09  0.2145E-09
     -2.472  0.4820E-04  0.4805E-04  0.1531E-06  0.1526E-06  0.3750E-06  0.3739E-06  0.1531E-06  0.1526E-06  0.1178E-08  0.1174E-08  0.3037E-08  0.3028E-08  0.1157E-07  0.1155E-07  0.3037E-08  0.3028E-08  0.6039E-09  0.6021E-09
     -2.414  0.1519E-03  0.1514E-03  0.4863E-06  0.4847E-06  0.1188E-05  0.1184E-05  0.4863E-06  0.4847E-06  0.3304E-08  0.3294E-08  0.9160E-08  0.9134E-08  0.3699E-07  0.3691E-07  0.9160E-08  0.9134E-08  0.2364E-08  0.2357E-08
     -2.355  0.4681E-03  0.4668E-03  0.1594E-05  0.1589E-05  0.3783E-05  0.3772E-05  0.1594E-05  0.1589E-05  0.1184E-07  0.1180E-07  0.3128E-07  0.3119E-07  0.1151E-06  0.1149E-06  0.3128E-07  0.3119E-07  0.8150E-08  0.8126E-08
     -2.297  0.1314E-02  0.1310E-02  0.4827E-05  0.4813E-05  0.1110E-04  0.1107E-04  0.4827E-05  0.4813E-05  0.3655E-07  0.3645E-07  0.9638E-07  0.9612E-07  0.3245E-06  0.3240E-06  0.9638E-07  0.9612E-07  0.2379E-07  0.2373E-07
     -2.238  0.3156E-02  0.3149E-02  0.1368E-04  0.1364E-04  0.2910E-04  0.2904E-04  0.1368E-04  0.1364E-04  0.1180E-06  0.1176E-06  0.2865E-06  0.2858E-06  0.7954E-06  0.7946E-06  0.2865E-06  0.2858E-06  0.6774E-07  0.6757E-07
     -2.179  0.6070E-02  0.6061E-02  0.3205E-04  0.3198E-04  0.6328E-04  0.6318E-04  0.3205E-04  0.3198E-04  0.3234E-06  0.3226E-06  0.7283E-06  0.7268E-06  0.1569E-05  0.1569E-05  0.7283E-06  0.7268E-06  0.1576E-06  0.1572E-06
     -2.121  0.9095E-02  0.9088E-02  0.6018E-04  0.6009E-04  0.1103E-03  0.1102E-03  0.6018E-04  0.6009E-04  0.7468E-06  0.7454E-06  0.1534E-05  0.1532E-05  0.2471E-05  0.2471E-05  0.1534E-05  0.1532E-05  0.3248E-06  0.3242E-06
     -2.062  0.1089E-01  0.1089E-01  0.9288E-04  0.9278E-04  0.1595E-03  0.1594E-03  0.9288E-04  0.9278E-04  0.1365E-05  0.1363E-05  0.2636E-05  0.2633E-05  0.3330E-05  0.3331E-05  0.2636E-05  0.2633E-05  0.6853E-06  0.6838E-06
     -2.004  0.1202E-01  0.1201E-01  0.1368E-03  0.1367E-03  0.2217E-03  0.2215E-03  0.1368E-03  0.1367E-03  0.2247E-05  0.2244E-05  0.4212E-05  0.4207E-05  0.4607E-05  0.4606E-05  0.4212E-05  0.4207E-05  0.1522E-05  0.1519E-05
     -1.945  0.1477E-01  0.1476E-01  0.2149E-03  0.2146E-03  0.3340E-03  0.3336E-03  0.2149E-03  0.2146E-03  0.4079E-05  0.4073E-05  0.7323E-05  0.7311E-05  0.6962E-05  0.6960E-05  0.7323E-05  0.7311E-05  0.2929E-05  0.2925E-05
     -1.887  0.1875E-01  0.1874E-01  0.3148E-03  0.3145E-03  0.4787E-03  0.4784E-03  0.3148E-03  0.3145E-03  0.7260E-05  0.7252E-05  0.1226E-04  0.1225E-04  0.9553E-05  0.9555E-05  0.1226E-04  0.1225E-04  0.4240E-05  0.4237E-05
     -1.828  0.1967E-01  0.1968E-01  0.3642E-03  0.3641E-03  0.5542E-03  0.5542E-03  0.3642E-03  0.3641E-03  0.1021E-04  0.1021E-04  0.1641E-04  0.1640E-04  0.1035E-04  0.1036E-04  0.1641E-04  0.1640E-04  0.4571E-05  0.4571E-05
     -1.770  0.1688E-01  0.1689E-01  0.3510E-03  0.3510E-03  0.5573E-03  0.5572E-03  0.3510E-03  0.3510E-03  0.1188E-04  0.1188E-04  0.1867E-04  0.1866E-04  0.9968E-05  0.9974E-05  0.1867E-04  0.1866E-04  0.4549E-05  0.4547E-05
     -1.711  0.1614E-01  0.1613E-01  0.3991E-03  0.3988E-03  0.6640E-03  0.6634E-03  0.3991E-03  0.3988E-03  0.1594E-04  0.1592E-04  0.2502E-04  0.2499E-04  0.1216E-04  0.1216E-04  0.2502E-04  0.2499E-04  0.6281E-05  0.6272E-05
     -1.653  0.2000E-01  0.1998E-01  0.5772E-03  0.5766E-03  0.9065E-03  0.9058E-03  0.5772E-03  0.5766E-03  0.2421E-04  0.2418E-04  0.3788E-04  0.3784E-04  0.1864E-04  0.1863E-04  0.3788E-04  0.3784E-04  0.1130E-04  0.1129E-04
     -1.594  0.2343E-01  0.2342E-01  0.7710E-03  0.7706E-03  0.1035E-02  0.1035E-02  0.7710E-03  0.7706E-03  0.3117E-04  0.3116E-04  0.4803E-04  0.4801E-04  0.2651E-04  0.2650E-04  0.4803E-04  0.4801E-04  0.1901E-04  0.1899E-04
     -1.536  0.2318E-01  0.2318E-01  0.8683E-03  0.8681E-03  0.9736E-03  0.9738E-03  0.8683E-03  0.8681E-03  0.3432E-04  0.3431E-04  0.5144E-04  0.5143E-04  0.3184E-04  0.3185E-04  0.5144E-04  0.5143E-04  0.2579E-04  0.2578E-04
     -1.477  0.2200E-01  0.2200E-01  0.8928E-03  0.8927E-03  0.1013E-02  0.1013E-02  0.8928E-03  0.8927E-03  0.4016E-04  0.4014E-04  0.6016E-04  0.6012E-04  0.3298E-04  0.3299E-04  0.6016E-04  0.6012E-04  0.2703E-04  0.2703E-04
     -1.418  0.2209E-01  0.2209E-01  0.9206E-03  0.9203E-03  0.1257E-02  0.1256E-02  0.9206E-03  0.9203E-03  0.5290E-04  0.5285E-04  0.7935E-04  0.7929E-04  0.3252E-04  0.3253E-04  0.7935E-04  0.7929E-04  0.2428E-04  0.2428E-04
     -1.360  0.2325E-01  0.2324E-01  0.1044E-02  0.1044E-02  0.1434E-02  0.1434E-02  0.1044E-02  0.1044E-02  0.7449E-04  0.7442E-04  0.9990E-04  0.9986E-04  0.3532E-04  0.3531E-04  0.9990E-04  0.9986E-04  0.2472E-04  0.2471E-04
     -1.301  0.2376E-01  0.2376E-01  0.1202E-02  0.1202E-02  0.1385E-02  0.1385E-02  0.1202E-02  0.1202E-02  0.9692E-04  0.9688E-04  0.1120E-03  0.1120E-03  0.3971E-04  0.3971E-04  0.1120E-03  0.1120E-03  0.2884E-04  0.2883E-04
     -1.243  0.2181E-01  0.2182E-01  0.1190E-02  0.1190E-02  0.1295E-02  0.1295E-02  0.1190E-02  0.1190E-02  0.9800E-04  0.9804E-04  0.1135E-03  0.1135E-03  0.4012E-04  0.4013E-04  0.1135E-03  0.1135E-03  0.3149E-04  0.3148E-04
     -1.184  0.1975E-01  0.1975E-01  0.1123E-02  0.1123E-02  0.1410E-02  0.1410E-02  0.1123E-02  0.1123E-02  0.8397E-04  0.8398E-04  0.1192E-03  0.1191E-03  0.4322E-04  0.4320E-04  0.1192E-03  0.1191E-03  0.3820E-04  0.3816E-04
     -1.126  0.2232E-01  0.2230E-01  0.1387E-02  0.1385E-02  0.1815E-02  0.1813E-02  0.1387E-02  0.1385E-02  0.9567E-04  0.9559E-04  0.1510E-03  0.1508E-03  0.6346E-04  0.6339E-04  0.1510E-03  0.1508E-03  0.5988E-04  0.5980E-04
     -1.067  0.2736E-01  0.2735E-01  0.1860E-02  0.1859E-02  0.2298E-02  0.2297E-02  0.1860E-02  0.1859E-02  0.1365E-03  0.1364E-03  0.1919E-03  0.1918E-03  0.9623E-04  0.9617E-04  0.1919E-03  0.1918E-03  0.8713E-04  0.8707E-04
     -1.009  0.2881E-01  0.2882E-01  0.2065E-02  0.2065E-02  0.2505E-02  0.2505E-02  0.2065E-02  0.2065E-02  0.1745E-03  0.1744E-03  0.2052E-03  0.2052E-03  0.1175E-03  0.1174E-03  0.2052E-03  0.2052E-03  0.9591E-04  0.9592E-04
     -0.950  0.2667E-01  0.2668E-01  0.2009E-02  0.2008E-02  0.2424E-02  0.2424E-02  0.2009E-02  0.2008E-02  0.2022E-03  0.2022E-03  0.2097E-03  0.2096E-03  0.1161E-03  0.1161E-03  0.2097E-03  0.2096E-03  0.8740E-04  0.8742E-04
     -0.892  0.2662E-01  0.2661E-01  0.2132E-02  0.2131E-02  0.2573E-02  0.2572E-02  0.2132E-02  0.2131E-02  0.2342E-03  0.2341E-03  0.2620E-03  0.2618E-03  0.1123E-03  0.1123E-03  0.2620E-03  0.2618E-03  0.9052E-04  0.9048E-04
     -0.833  0.2940E-01  0.2939E-01  0.2442E-02  0.2441E-02  0.3101E-02  0.3100E-02  0.2442E-02  0.2441E-02  0.2737E-03  0.2736E-03  0.3470E-03  0.3468E-03  0.1197E-03  0.1197E-03  0.3470E-03  0.3468E-03  0.1047E-03  0.1047E-03
     -0.775  0.2801E-01  0.2802E-01  0.2356E-02  0.2357E-02  0.3207E-02  0.3208E-02  0.2356E-02  0.2357E-02  0.2801E-03  0.2801E-03  0.3672E-03  0.3673E-03  0.1144E-03  0.1145E-03  0.3672E-03  0.3673E-03  0.9685E-04  0.9691E-04
     -0.716  0.2138E-01  0.2139E-01  0.1879E-02  0.1880E-02  0.2618E-02  0.2620E-02  0.1879E-02  0.1880E-02  0.2455E-03  0.2456E-03  0.3218E-03  0.3219E-03  0.8760E-04  0.8768E-04  0.3218E-03  0.3219E-03  0.7255E-04  0.7259E-04
     -0.657  0.1835E-01  0.1835E-01  0.1809E-02  0.1808E-02  0.2395E-02  0.2394E-02  0.1809E-02  0.1808E-02  0.2539E-03  0.2538E-03  0.3383E-03  0.3381E-03  0.7856E-04  0.7853E-04  0.3383E-03  0.3381E-03  0.7243E-04  0.7237E-04
     -0.599  0.2165E-01  0.2164E-01  0.2344E-02  0.2342E-02  0.3076E-02  0.3073E-02  0.2344E-02  0.2342E-02  0.3465E-03  0.3462E-03  0.4345E-03  0.4342E-03  0.1159E-03  0.1157E-03  0.4345E-03  0.4342E-03  0.1031E-03  0.1030E-03
     -0.540  0.2627E-01  0.2625E-01  0.3038E-02  0.3036E-02  0.4091E-02  0.4088E-02  0.3038E-02  0.3036E-02  0.4629E-03  0.4625E-03  0.5109E-03  0.5108E-03  0.1906E-03  0.1904E-03  0.5109E-03  0.5108E-03  0.1519E-03  0.1518E-03
     -0.482  0.2958E-01  0.2957E-01  0.3631E-02  0.3629E-02  0.4960E-02  0.4958E-02  0.3631E-02  0.3629E-02  0.5319E-03  0.5318E-03  0.5673E-03  0.5672E-03  0.2603E-03  0.2602E-03  0.5673E-03  0.5672E-03  0.2097E-03  0.2095E-03
     -0.423  0.2943E-01  0.2943E-01  0.3788E-02  0.3788E-02  0.5191E-02  0.5191E-02  0.3788E-02  0.3788E-02  0.5107E-03  0.5108E-03  0.6159E-03  0.6158E-03  0.2690E-03  0.2690E-03  0.6159E-03  0.6158E-03  0.2425E-03  0.2425E-03
     -0.365  0.2693E-01  0.2693E-01  0.3652E-02  0.3652E-02  0.4974E-02  0.4973E-02  0.3652E-02  0.3652E-02  0.5025E-03  0.5024E-03  0.6638E-03  0.6636E-03  0.2373E-03  0.2374E-03  0.6638E-03  0.6636E-03  0.2362E-03  0.2363E-03
     -0.306  0.2720E-01  0.2719E-01  0.3896E-02  0.3894E-02  0.5428E-02  0.5425E-02  0.3896E-02  0.3894E-02  0.6080E-03  0.6076E-03  0.7838E-03  0.7834E-03  0.2418E-03  0.2418E-03  0.7838E-03  0.7834E-03  0.2361E-03  0.2361E-03
     -0.248  0.2782E-01  0.2782E-01  0.4188E-02  0.4187E-02  0.6037E-02  0.6036E-02  0.4188E-02  0.4187E-02  0.6924E-03  0.6923E-03  0.8878E-03  0.8877E-03  0.2616E-03  0.2616E-03  0.8878E-03  0.8877E-03  0.2485E-03  0.2485E-03
     -0.189  0.2373E-01  0.2374E-01  0.3778E-02  0.3779E-02  0.5641E-02  0.5642E-02  0.3778E-02  0.3779E-02  0.6604E-03  0.6604E-03  0.8465E-03  0.8466E-03  0.2269E-03  0.2271E-03  0.8465E-03  0.8466E-03  0.2224E-03  0.2225E-03
     -0.131  0.2001E-01  0.2001E-01  0.3404E-02  0.3404E-02  0.5577E-02  0.5575E-02  0.3404E-02  0.3404E-02  0.6973E-03  0.6968E-03  0.8909E-03  0.8904E-03  0.1811E-03  0.1812E-03  0.8909E-03  0.8904E-03  0.1812E-03  0.1813E-03