  16  16   1   0
  0.1676391E+02  0.3973510E-09  0.3973510E-09  0.1698818E-08  0.5000000E-15
  1.000000000000000E-004
  CAR 
 unknown system                          
     10.69093632     -4.15814374  301      6.61069079      1.00000000
     -4.158  0.0000E+00  0.0000E+00  0.0000E+00  0.0000E+00
     -4.109  0.0000E+00  0.0000E+00  0.0000E+00  0.0000E+00
     -4.059  0.0000E+00  0.0000E+00  0.0000E+00  0.0000E+00
     -4.010  0.0000E+00  0.0000E+00  0.0000E+00  0.0000E+00
     -3.960  0.0000E+00  0.0000E+00  0.0000E+00  0.0000E+00
     -3.911  0.7715E-05  0.7673E-05  0.3819E-06  0.3798E-06
     -3.861  0.5330E-04  0.5301E-04  0.3020E-05  0.3004E-05
     -3.812  0.1734E-03  0.1724E-03  0.1160E-04  0.1154E-04
     -3.762  0.4367E-03  0.4343E-03  0.3322E-04  0.3303E-04
     -3.713  0.1130E-02  0.1124E-02  0.8916E-04  0.8868E-04
     -3.663  0.3088E-02  0.3071E-02  0.2420E-03  0.2407E-03
     -3.614  0.8304E-02  0.8260E-02  0.6530E-03  0.6495E-03
     -3.564  0.2108E-01  0.2097E-01  0.1696E-02  0.1688E-02
     -3.515  0.4957E-01  0.4935E-01  0.4150E-02  0.4130E-02
     -3.465  0.1032E+00  0.1028E+00  0.9259E-02  0.9221E-02
     -3.416  0.1803E+00  0.1798E+00  0.1818E-01  0.1812E-01
     -3.366  0.2594E+00  0.2590E+00  0.3102E-01  0.3094E-01
     -3.317  0.3211E+00  0.3208E+00  0.4692E-01  0.4682E-01
     -3.267  0.3835E+00  0.3830E+00  0.6590E-01  0.6578E-01
     -3.218  0.4725E+00  0.4721E+00  0.8929E-01  0.8915E-01
     -3.168  0.5494E+00  0.5491E+00  0.1165E+00  0.1163E+00
     -3.119  0.5549E+00  0.5550E+00  0.1439E+00  0.1438E+00
     -3.069  0.5368E+00  0.5368E+00  0.1705E+00  0.1704E+00
     -3.020  0.5897E+00  0.5892E+00  0.1997E+00  0.1995E+00
     -2.970  0.6826E+00  0.6823E+00  0.2335E+00  0.2333E+00
     -2.921  0.7256E+00  0.7255E+00  0.2694E+00  0.2692E+00
     -2.871  0.7258E+00  0.7258E+00  0.3054E+00  0.3052E+00
     -2.822  0.7372E+00  0.7370E+00  0.3419E+00  0.3416E+00
     -2.772  0.7682E+00  0.7679E+00  0.3799E+00  0.3797E+00
     -2.723  0.7883E+00  0.7882E+00  0.4189E+00  0.4187E+00
     -2.673  0.7687E+00  0.7688E+00  0.4570E+00  0.4568E+00
     -2.624  0.7589E+00  0.7587E+00  0.4946E+00  0.4943E+00
     -2.574  0.8474E+00  0.8466E+00  0.5366E+00  0.5363E+00
     -2.525  0.9839E+00  0.9832E+00  0.5853E+00  0.5850E+00
     -2.475  0.1040E+01  0.1040E+01  0.6367E+00  0.6364E+00
     -2.426  0.1030E+01  0.1030E+01  0.6877E+00  0.6874E+00
     -2.376  0.1065E+01  0.1064E+01  0.7404E+00  0.7401E+00
     -2.327  0.1121E+01  0.1121E+01  0.7959E+00  0.7956E+00
     -2.277  0.1057E+01  0.1057E+01  0.8483E+00  0.8480E+00
     -2.228  0.9134E+00  0.9141E+00  0.8935E+00  0.8932E+00
     -2.178  0.9018E+00  0.9013E+00  0.9382E+00  0.9379E+00
     -2.129  0.1058E+01  0.1057E+01  0.9906E+00  0.9903E+00
     -2.079  0.1252E+01  0.1251E+01  0.1053E+01  0.1052E+01
     -2.030  0.1370E+01  0.1370E+01  0.1120E+01  0.1120E+01
     -1.980  0.1369E+01  0.1369E+01  0.1188E+01  0.1188E+01
     -1.931  0.1359E+01  0.1358E+01  0.1256E+01  0.1255E+01
     -1.881  0.1412E+01  0.1412E+01  0.1325E+01  0.1325E+01
     -1.832  0.1382E+01  0.1383E+01  0.1394E+01  0.1393E+01
     -1.782  0.1264E+01  0.1264E+01  0.1456E+01  0.1456E+01
     -1.733  0.1267E+01  0.1266E+01  0.1519E+01  0.1519E+01
     -1.683  0.1392E+01  0.1391E+01  0.1588E+01  0.1588E+01
     -1.634  0.1483E+01  0.1483E+01  0.1662E+01  0.1661E+01
     -1.584  0.1526E+01  0.1526E+01  0.1737E+01  0.1737E+01
     -1.535  0.1567E+01  0.1567E+01  0.1815E+01  0.1814E+01
     -1.485  0.1583E+01  0.1583E+01  0.1893E+01  0.1893E+01
     -1.436  0.1538E+01  0.1539E+01  0.1969E+01  0.1969E+01
     -1.386  0.1489E+01  0.1489E+01  0.2043E+01  0.2043E+01
     -1.337  0.1544E+01  0.1544E+01  0.2119E+01  0.2119E+01
     -1.287  0.1686E+01  0.1685E+01  0.2203E+01  0.2202E+01
     -1.238  0.1761E+01  0.1761E+01  0.2290E+01  0.2290E+01
     -1.188  0.1663E+01  0.1664E+01  0.2373E+01  0.2372E+01
     -1.139  0.1487E+01  0.1488E+01  0.2446E+01  0.2446E+01
     -1.089  0.1375E+01  0.1376E+01  0.2514E+01  0.2514E+01
     -1.040  0.1271E+01  0.1272E+01  0.2577E+01  0.2577E+01
     -0.990  0.1160E+01  0.1161E+01  0.2635E+01  0.2634E+01
     -0.941  0.1156E+01  0.1156E+01  0.2692E+01  0.2692E+01
     -0.891  0.1290E+01  0.1289E+01  0.2756E+01  0.2756E+01
     -0.842  0.1487E+01  0.1486E+01  0.2830E+01  0.2829E+01
     -0.792  0.1600E+01  0.1599E+01  0.2909E+01  0.2908E+01
     -0.743  0.1549E+01  0.1550E+01  0.2986E+01  0.2985E+01
     -0.693  0.1465E+01  0.1466E+01  0.3058E+01  0.3058E+01
     -0.644  0.1460E+01  0.1460E+01  0.3131E+01  0.3130E+01
     -0.594  0.1467E+01  0.1467E+01  0.3203E+01  0.3203E+01
     -0.545  0.1462E+01  0.1462E+01  0.3276E+01  0.3275E+01
     -0.495  0.1528E+01  0.1527E+01  0.3351E+01  0.3351E+01
     -0.446  0.1688E+01  0.1688E+01  0.3435E+01  0.3434E+01
     -0.396  0.1829E+01  0.1829E+01  0.3525E+01  0.3525E+01
     -0.347  0.1823E+01  0.1824E+01  0.3616E+01  0.3615E+01
     -0.297  0.1714E+01  0.1715E+01  0.3701E+01  0.3700E+01
     -0.248  0.1629E+01  0.1629E+01  0.3781E+01  0.3781E+01
     -0.198  0.1622E+01  0.1622E+01  0.3861E+01  0.3861E+01
     -0.149  0.1671E+01  0.1670E+01  0.3944E+01  0.3944E+01
     -0.099  0.1721E+01  0.1721E+01  0.4029E+01  0.4029E+01
     -0.050  0.1746E+01  0.1746E+01  0.4116E+01  0.4115E+01
     -0.000  0.1773E+01  0.1773E+01  0.4204E+01  0.4203E+01
      0.049  0.1885E+01  0.1884E+01  0.4297E+01  0.4297E+01
      0.099  0.2049E+01  0.2048E+01  0.4399E+01  0.4398E+01
      0.148  0.2134E+01  0.2134E+01  0.4504E+01  0.4504E+01
      0.198  0.2146E+01  0.2146E+01  0.4610E+01  0.4610E+01
      0.247  0.2178E+01  0.2177E+01  0.4718E+01  0.4718E+01
      0.297  0.2243E+01  0.2242E+01  0.4829E+01  0.4829E+01
      0.346  0.2271E+01  0.2271E+01  0.4942E+01  0.4941E+01
      0.396  0.2266E+01  0.2267E+01  0.5054E+01  0.5053E+01
      0.445  0.2190E+01  0.2191E+01  0.5162E+01  0.5162E+01
      0.495  0.2032E+01  0.2032E+01  0.5263E+01  0.5263E+01
      0.544  0.1976E+01  0.1976E+01  0.5361E+01  0.5360E+01
      0.594  0.2042E+01  0.2042E+01  0.5462E+01  0.5462E+01
      0.643  0.2014E+01  0.2014E+01  0.5562E+01  0.5561E+01
      0.693  0.1878E+01  0.1878E+01  0.5655E+01  0.5654E+01
      0.742  0.1857E+01  0.1857E+01  0.5747E+01  0.5746E+01
      0.792  0.1978E+01  0.1978E+01  0.5845E+01  0.5844E+01
      0.841  0.2029E+01  0.2030E+01  0.5945E+01  0.5945E+01
      0.891  0.1993E+01  0.1993E+01  0.6044E+01  0.6044E+01
      0.940  0.1935E+01  0.1936E+01  0.6140E+01  0.6139E+01
      0.990  0.1813E+01  0.1813E+01  0.6230E+01  0.6229E+01
      1.039  0.1693E+01  0.1694E+01  0.6314E+01  0.6313E+01
      1.089  0.1741E+01  0.1741E+01  0.6400E+01  0.6399E+01
      1.138  0.2044E+01  0.2042E+01  0.6501E+01  0.6500E+01
      1.188  0.2446E+01  0.2444E+01  0.6622E+01  0.6621E+01
      1.237  0.2719E+01  0.2718E+01  0.6757E+01  0.6756E+01
      1.287  0.2775E+01  0.2775E+01  0.6894E+01  0.6893E+01
      1.336  0.2618E+01  0.2619E+01  0.7024E+01  0.7023E+01
      1.386  0.2295E+01  0.2297E+01  0.7137E+01  0.7137E+01
      1.435  0.1958E+01  0.1959E+01  0.7234E+01  0.7234E+01
      1.485  0.1795E+01  0.1795E+01  0.7323E+01  0.7323E+01
      1.534  0.1802E+01  0.1801E+01  0.7412E+01  0.7412E+01
      1.584  0.1956E+01  0.1955E+01  0.7509E+01  0.7509E+01
      1.633  0.2173E+01  0.2172E+01  0.7617E+01  0.7616E+01
      1.682  0.2324E+01  0.2323E+01  0.7732E+01  0.7732E+01
      1.732  0.2435E+01  0.2434E+01  0.7853E+01  0.7852E+01
      1.781  0.2554E+01  0.2554E+01  0.7979E+01  0.7979E+01
      1.831  0.2655E+01  0.2655E+01  0.8111E+01  0.8110E+01
      1.880  0.2665E+01  0.2665E+01  0.8243E+01  0.8242E+01
      1.930  0.2606E+01  0.2606E+01  0.8372E+01  0.8371E+01
      1.979  0.2667E+01  0.2666E+01  0.8504E+01  0.8503E+01
      2.029  0.2973E+01  0.2971E+01  0.8651E+01  0.8650E+01
      2.078  0.3271E+01  0.3271E+01  0.8813E+01  0.8812E+01
      2.128  0.3266E+01  0.3266E+01  0.8974E+01  0.8974E+01
      2.177  0.3056E+01  0.3057E+01  0.9126E+01  0.9125E+01
      2.227  0.2845E+01  0.2846E+01  0.9267E+01  0.9266E+01
      2.276  0.2634E+01  0.2635E+01  0.9397E+01  0.9397E+01
      2.326  0.2369E+01  0.2370E+01  0.9514E+01  0.9514E+01
      2.375  0.2119E+01  0.2120E+01  0.9619E+01  0.9619E+01
      2.425  0.2022E+01  0.2022E+01  0.9720E+01  0.9719E+01
      2.474  0.2086E+01  0.2085E+01  0.9823E+01  0.9823E+01
      2.524  0.2180E+01  0.2180E+01  0.9931E+01  0.9931E+01
      2.573  0.2211E+01  0.2211E+01  0.1004E+02  0.1004E+02
      2.623  0.2186E+01  0.2186E+01  0.1015E+02  0.1015E+02
      2.672  0.2168E+01  0.2168E+01  0.1026E+02  0.1026E+02
      2.722  0.2241E+01  0.2241E+01  0.1037E+02  0.1037E+02
      2.771  0.2435E+01  0.2435E+01  0.1049E+02  0.1049E+02
      2.821  0.2640E+01  0.2639E+01  0.1062E+02  0.1062E+02
      2.870  0.2759E+01  0.2759E+01  0.1076E+02  0.1075E+02
      2.920  0.2845E+01  0.2845E+01  0.1090E+02  0.1090E+02
      2.969  0.2965E+01  0.2965E+01  0.1104E+02  0.1104E+02
      3.019  0.3059E+01  0.3059E+01  0.1119E+02  0.1119E+02
      3.068  0.3002E+01  0.3002E+01  0.1134E+02  0.1134E+02
      3.118  0.2764E+01  0.2764E+01  0.1148E+02  0.1148E+02
      3.167  0.2522E+01  0.2522E+01  0.1160E+02  0.1160E+02
      3.217  0.2522E+01  0.2521E+01  0.1173E+02  0.1173E+02
      3.266  0.2825E+01  0.2824E+01  0.1187E+02  0.1187E+02
      3.316  0.3179E+01  0.3179E+01  0.1203E+02  0.1203E+02
      3.365  0.3352E+01  0.3352E+01  0.1219E+02  0.1219E+02
      3.415  0.3400E+01  0.3400E+01  0.1236E+02  0.1236E+02
      3.464  0.3369E+01  0.3369E+01  0.1253E+02  0.1253E+02
      3.514  0.3338E+01  0.3338E+01  0.1269E+02  0.1269E+02
      3.563  0.3319E+01  0.3319E+01  0.1286E+02  0.1286E+02
      3.613  0.3333E+01  0.3333E+01  0.1302E+02  0.1302E+02
      3.662  0.3538E+01  0.3538E+01  0.1320E+02  0.1320E+02
      3.712  0.3934E+01  0.3934E+01  0.1339E+02  0.1339E+02
      3.761  0.4174E+01  0.4175E+01  0.1360E+02  0.1360E+02
      3.811  0.3963E+01  0.3964E+01  0.1380E+02  0.1380E+02
      3.860  0.3531E+01  0.3533E+01  0.1397E+02  0.1397E+02
      3.910  0.3309E+01  0.3309E+01  0.1413E+02  0.1413E+02
      3.959  0.3460E+01  0.3460E+01  0.1431E+02  0.1431E+02
      4.009  0.3909E+01  0.3908E+01  0.1450E+02  0.1450E+02
      4.058  0.4337E+01  0.4337E+01  0.1471E+02  0.1471E+02
      4.108  0.4465E+01  0.4466E+01  0.1494E+02  0.1494E+02
      4.157  0.4372E+01  0.4373E+01  0.1515E+02  0.1515E+02
      4.207  0.4366E+01  0.4367E+01  0.1537E+02  0.1537E+02
      4.256  0.4478E+01  0.4478E+01  0.1559E+02  0.1559E+02
      4.306  0.4462E+01  0.4463E+01  0.1581E+02  0.1581E+02
      4.355  0.4299E+01  0.4300E+01  0.1602E+02  0.1602E+02
      4.405  0.4089E+01  0.4090E+01  0.1623E+02  0.1623E+02
      4.454  0.3850E+01  0.3851E+01  0.1642E+02  0.1642E+02
      4.504  0.3619E+01  0.3620E+01  0.1660E+02  0.1660E+02
      4.553  0.3477E+01  0.3478E+01  0.1677E+02  0.1677E+02
      4.603  0.3487E+01  0.3488E+01  0.1694E+02  0.1694E+02
      4.652  0.3744E+01  0.3745E+01  0.1713E+02  0.1713E+02
      4.702  0.4141E+01  0.4142E+01  0.1733E+02  0.1733E+02
      4.751  0.4362E+01  0.4363E+01  0.1755E+02  0.1755E+02
      4.801  0.4406E+01  0.4407E+01  0.1777E+02  0.1777E+02
      4.850  0.4496E+01  0.4497E+01  0.1799E+02  0.1799E+02
      4.900  0.4690E+01  0.4691E+01  0.1822E+02  0.1822E+02
      4.949  0.4914E+01  0.4916E+01  0.1846E+02  0.1846E+02
      4.999  0.5243E+01  0.5246E+01  0.1872E+02  0.1872E+02
      5.048  0.5603E+01  0.5606E+01  0.1900E+02  0.1900E+02
      5.098  0.5763E+01  0.5764E+01  0.1929E+02  0.1929E+02
      5.147  0.5748E+01  0.5749E+01  0.1957E+02  0.1957E+02
      5.197  0.5864E+01  0.5865E+01  0.1986E+02  0.1986E+02
      5.246  0.6221E+01  0.6224E+01  0.2017E+02  0.2017E+02
      5.296  0.6586E+01  0.6590E+01  0.2050E+02  0.2050E+02
      5.345  0.6742E+01  0.6746E+01  0.2083E+02  0.2083E+02
      5.395  0.6622E+01  0.6624E+01  0.2116E+02  0.2116E+02
      5.444  0.6131E+01  0.6130E+01  0.2146E+02  0.2146E+02
      5.494  0.5421E+01  0.5420E+01  0.2173E+02  0.2173E+02
      5.543  0.4828E+01  0.4827E+01  0.2197E+02  0.2197E+02
      5.593  0.4577E+01  0.4578E+01  0.2220E+02  0.2220E+02
      5.642  0.4623E+01  0.4623E+01  0.2242E+02  0.2243E+02
      5.692  0.4731E+01  0.4732E+01  0.2266E+02  0.2266E+02
      5.741  0.4760E+01  0.4761E+01  0.2289E+02  0.2290E+02
      5.791  0.4770E+01  0.4772E+01  0.2313E+02  0.2313E+02
      5.840  0.4865E+01  0.4867E+01  0.2337E+02  0.2337E+02
      5.890  0.4921E+01  0.4922E+01  0.2362E+02  0.2362E+02
      5.939  0.4816E+01  0.4818E+01  0.2385E+02  0.2386E+02
      5.989  0.4679E+01  0.4681E+01  0.2409E+02  0.2409E+02
      6.038  0.4458E+01  0.4457E+01  0.2431E+02  0.2431E+02
      6.088  0.4101E+01  0.4098E+01  0.2451E+02  0.2451E+02
      6.137  0.3669E+01  0.3665E+01  0.2469E+02  0.2469E+02
      6.187  0.3210E+01  0.3206E+01  0.2485E+02  0.2485E+02
      6.236  0.2759E+01  0.2756E+01  0.2499E+02  0.2499E+02
      6.286  0.2443E+01  0.2442E+01  0.2511E+02  0.2511E+02
      6.335  0.2385E+01  0.2386E+01  0.2523E+02  0.2523E+02
      6.385  0.2524E+01  0.2526E+01  0.2535E+02  0.2535E+02
      6.434  0.2723E+01  0.2726E+01  0.2549E+02  0.2549E+02
      6.484  0.2859E+01  0.2861E+01  0.2563E+02  0.2563E+02
      6.533  0.2886E+01  0.2886E+01  0.2577E+02  0.2577E+02
      6.583  0.2916E+01  0.2917E+01  0.2592E+02  0.2592E+02
      6.632  0.3004E+01  0.3006E+01  0.2606E+02  0.2607E+02
      6.682  0.3041E+01  0.3041E+01  0.2621E+02  0.2622E+02
      6.731  0.3040E+01  0.3040E+01  0.2637E+02  0.2637E+02
      6.781  0.3215E+01  0.3219E+01  0.2652E+02  0.2653E+02
      6.830  0.3568E+01  0.3573E+01  0.2670E+02  0.2670E+02
      6.880  0.3791E+01  0.3792E+01  0.2689E+02  0.2689E+02
      6.929  0.3740E+01  0.3739E+01  0.2707E+02  0.2708E+02
      6.979  0.3690E+01  0.3689E+01  0.2726E+02  0.2726E+02
      7.028  0.3802E+01  0.3803E+01  0.2745E+02  0.2745E+02
      7.078  0.3918E+01  0.3918E+01  0.2764E+02  0.2764E+02
      7.127  0.3868E+01  0.3866E+01  0.2783E+02  0.2783E+02
      7.177  0.3756E+01  0.3756E+01  0.2802E+02  0.2802E+02
      7.226  0.3862E+01  0.3864E+01  0.2821E+02  0.2821E+02
      7.276  0.4252E+01  0.4257E+01  0.2842E+02  0.2842E+02
      7.325  0.4915E+01  0.4923E+01  0.2866E+02  0.2866E+02
      7.375  0.5747E+01  0.5757E+01  0.2895E+02  0.2895E+02
      7.424  0.6502E+01  0.6510E+01  0.2927E+02  0.2927E+02
      7.474  0.7071E+01  0.7078E+01  0.2962E+02  0.2962E+02
      7.523  0.7680E+01  0.7691E+01  0.3000E+02  0.3000E+02
      7.573  0.8322E+01  0.8333E+01  0.3041E+02  0.3042E+02
      7.622  0.8770E+01  0.8779E+01  0.3085E+02  0.3085E+02
      7.672  0.9251E+01  0.9260E+01  0.3130E+02  0.3131E+02
      7.721  0.9994E+01  0.1000E+02  0.3180E+02  0.3180E+02
      7.771  0.1099E+02  0.1099E+02  0.3234E+02  0.3235E+02
      7.820  0.1219E+02  0.1219E+02  0.3295E+02  0.3295E+02
      7.870  0.1305E+02  0.1304E+02  0.3359E+02  0.3360E+02
      7.919  0.1259E+02  0.1261E+02  0.3422E+02  0.3422E+02
      7.969  0.1078E+02  0.1084E+02  0.3475E+02  0.3476E+02
      8.018  0.8659E+01  0.8741E+01  0.3518E+02  0.3519E+02
      8.068  0.6860E+01  0.6920E+01  0.3552E+02  0.3553E+02
      8.117  0.5434E+01  0.5471E+01  0.3579E+02  0.3581E+02
      8.167  0.4576E+01  0.4613E+01  0.3601E+02  0.3603E+02
      8.216  0.4345E+01  0.4390E+01  0.3623E+02  0.3625E+02
      8.266  0.4363E+01  0.4407E+01  0.3645E+02  0.3647E+02
      8.315  0.4227E+01  0.4249E+01  0.3666E+02  0.3668E+02
      8.365  0.3957E+01  0.3947E+01  0.3685E+02  0.3688E+02
      8.414  0.3813E+01  0.3815E+01  0.3704E+02  0.3707E+02
      8.464  0.3935E+01  0.3974E+01  0.3724E+02  0.3726E+02
      8.513  0.4153E+01  0.4198E+01  0.3744E+02  0.3747E+02
      8.563  0.4175E+01  0.4230E+01  0.3765E+02  0.3768E+02
      8.612  0.4025E+01  0.4146E+01  0.3785E+02  0.3789E+02
      8.662  0.3903E+01  0.4099E+01  0.3804E+02  0.3809E+02
      8.711  0.3861E+01  0.4108E+01  0.3823E+02  0.3829E+02
      8.761  0.3793E+01  0.4063E+01  0.3842E+02  0.3849E+02
      8.810  0.3582E+01  0.3828E+01  0.3860E+02  0.3868E+02
      8.860  0.3260E+01  0.3454E+01  0.3876E+02  0.3885E+02
      8.909  0.2932E+01  0.3051E+01  0.3890E+02  0.3901E+02
      8.959  0.2685E+01  0.2687E+01  0.3904E+02  0.3914E+02
      9.008  0.2531E+01  0.2400E+01  0.3916E+02  0.3926E+02
      9.058  0.2347E+01  0.2199E+01  0.3928E+02  0.3937E+02
      9.107  0.2034E+01  0.2003E+01  0.3938E+02  0.3947E+02
      9.157  0.1695E+01  0.1736E+01  0.3946E+02  0.3955E+02
      9.206  0.1436E+01  0.1399E+01  0.3953E+02  0.3962E+02
      9.256  0.1234E+01  0.1117E+01  0.3960E+02  0.3968E+02
      9.305  0.1048E+01  0.9440E+00  0.3965E+02  0.3972E+02
      9.355  0.8888E+00  0.8496E+00  0.3969E+02  0.3977E+02
      9.404  0.8043E+00  0.8492E+00  0.3973E+02  0.3981E+02
      9.454  0.8068E+00  0.8638E+00  0.3977E+02  0.3985E+02
      9.503  0.8651E+00  0.8114E+00  0.3981E+02  0.3989E+02
      9.553  0.8654E+00  0.6908E+00  0.3986E+02  0.3992E+02
      9.602  0.7333E+00  0.5205E+00  0.3989E+02  0.3995E+02
      9.652  0.5563E+00  0.3388E+00  0.3992E+02  0.3997E+02
      9.701  0.4160E+00  0.2041E+00  0.3994E+02  0.3998E+02
      9.750  0.3225E+00  0.1331E+00  0.3996E+02  0.3998E+02
      9.800  0.2647E+00  0.1039E+00  0.3997E+02  0.3999E+02
      9.849  0.2075E+00  0.8775E-01  0.3998E+02  0.3999E+02
      9.899  0.1340E+00  0.6521E-01  0.3999E+02  0.4000E+02
      9.948  0.7903E-01  0.3797E-01  0.3999E+02  0.4000E+02
      9.998  0.5776E-01  0.1745E-01  0.3999E+02  0.4000E+02
     10.047  0.4809E-01  0.7181E-02  0.4000E+02  0.4000E+02
     10.097  0.3258E-01  0.2704E-02  0.4000E+02  0.4000E+02
     10.146  0.1665E-01  0.1021E-02  0.4000E+02  0.4000E+02
     10.196  0.7139E-02  0.3008E-03  0.4000E+02  0.4000E+02
     10.245  0.2638E-02  0.1121E-03  0.4000E+02  0.4000E+02
     10.295  0.1003E-02  0.0000E+00  0.4000E+02  0.4000E+02
     10.344  0.3761E-03  0.0000E+00  0.4000E+02  0.4000E+02
     10.394  0.1402E-03  0.0000E+00  0.4000E+02  0.4000E+02
     10.443  0.0000E+00  0.0000E+00  0.4000E+02  0.4000E+02
     10.493  0.0000E+00  0.0000E+00  0.4000E+02  0.4000E+02
     10.542  0.0000E+00  0.0000E+00  0.4000E+02  0.4000E+02
     10.592  0.0000E+00  0.0000E+00  0.4000E+02  0.4000E+02
     10.641  0.0000E+00  0.0000E+00  0.4000E+02  0.4000E+02
     10.691  0.0000E+00  0.0000E+00  0.4000E+02  0.4000E+02
     10.69093632     -4.15814374  301      6.61069079      1.00000000
     -4.158  0.0000E+00  0.0000E+00  0.0000E+00  0.0000E+00  0.0000E+00  0.0000E+00  0.0000E+00  0.0000E+00  0.0000E+00  0.0000E+00  0.0000E+00  0.0000E+00  0.0000E+00  0.0000E+00  0.0000E+00  0.0000E+00  0.0000E+00  0.0000E+00
     -4.109  0.0000E+00  0.0000E+00  0.0000E+00  0.0000E+00  0.0000E+00  0.0000E+00  0.0000E+00  0.0000E+00  0.0000E+00  0.0000E+00  0.0000E+00  0.0000E+00  0.0000E+00  0.0000E+00  0.0000E+00  0.0000E+00  0.0000E+00  0.0000E+00
     -4.059  0.0000E+00  0.0000E+00  0.0000E+00  0.0000E+00  0.0000E+00  0.0000E+00  0.0000E+00  0.0000E+00  0.0000E+00  0.0000E+00  0.0000E+00  0.0000E+00  0.0000E+00  0.0000E+00  0.0000E+00  0.0000E+00  0.0000E+00  0.0000E+00
     -4.010  0.0000E+00  0.0000E+00  0.0000E+00  0.0000E+00  0.0000E+00  0.0000E+00  0.0000E+00  0.0000E+00  0.0000E+00  0.0000E+00  0.0000E+00  0.0000E+00  0.0000E+00  0.0000E+00  0.0000E+00  0.0000E+00  0.0000E+00  0.0000E+00
     -3.960  0.0000E+00  0.0000E+00  0.0000E+00  0.0000E+00  0.0000E+00  0.0000E+00  0.0000E+00  0.0000E+00  0.0000E+00  0.0000E+00  0.0000E+00  0.0000E+00  0.0000E+00  0.0000E+00  0.0000E+00  0.0000E+00  0.0000E+00  0.0000E+00
     -3.911  0.2195E-06  0.2183E-06  0.2278E-22  0.6586E-22  0.1051E-08  0.1046E-08  0.2278E-22  0.6586E-22  0.1432E-23  0.6984E-24  0.3959E-23  0.1509E-22  0.1254E-10  0.1247E-10  0.3959E-23  0.1509E-22  0.1329E-21  0.5105E-21
     -3.861  0.1501E-05  0.1493E-05  0.3348E-08  0.3329E-08  0.1127E-07  0.1121E-07  0.3348E-08  0.3329E-08  0.5954E-21  0.3692E-21  0.3950E-10  0.3932E-10  0.1053E-09  0.1047E-09  0.3950E-10  0.3932E-10  0.1562E-10  0.1554E-10
     -3.812  0.4850E-05  0.4824E-05  0.1727E-07  0.1718E-07  0.4429E-07  0.4406E-07  0.1727E-07  0.1718E-07  0.1128E-09  0.1122E-09  0.3281E-09  0.3265E-09  0.3470E-09  0.3450E-09  0.3281E-09  0.3265E-09  0.5354E-10  0.5326E-10
     -3.762  0.1221E-04  0.1215E-04  0.4495E-07  0.4470E-07  0.1133E-06  0.1127E-06  0.4495E-07  0.4470E-07  0.3889E-09  0.3869E-09  0.9579E-09  0.9532E-09  0.8541E-09  0.8490E-09  0.9579E-09  0.9532E-09  0.1168E-09  0.1162E-09
     -3.713  0.3163E-04  0.3146E-04  0.1107E-06  0.1101E-06  0.2865E-06  0.2850E-06  0.1107E-06  0.1101E-06  0.8478E-09  0.8433E-09  0.2239E-08  0.2228E-08  0.2222E-08  0.2209E-08  0.2239E-08  0.2228E-08  0.3138E-09  0.3122E-09
     -3.663  0.8633E-04  0.8587E-04  0.3205E-06  0.3187E-06  0.8076E-06  0.8035E-06  0.3205E-06  0.3187E-06  0.2277E-08  0.2265E-08  0.6302E-08  0.6271E-08  0.6568E-08  0.6529E-08  0.6302E-08  0.6271E-08  0.1279E-08  0.1273E-08
     -3.614  0.2318E-03  0.2306E-03  0.9346E-06  0.9295E-06  0.2267E-05  0.2255E-05  0.9346E-06  0.9295E-06  0.7754E-08  0.7713E-08  0.1975E-07  0.1965E-07  0.1858E-07  0.1848E-07  0.1975E-07  0.1965E-07  0.4220E-08  0.4198E-08
     -3.564  0.5879E-03  0.5850E-03  0.2461E-05  0.2448E-05  0.5859E-05  0.5830E-05  0.2461E-05  0.2448E-05  0.2233E-07  0.2221E-07  0.5414E-07  0.5388E-07  0.4709E-07  0.4683E-07  0.5414E-07  0.5388E-07  0.1063E-07  0.1057E-07
     -3.515  0.1381E-02  0.1375E-02  0.6123E-05  0.6093E-05  0.1419E-04  0.1412E-04  0.6123E-05  0.6093E-05  0.5528E-07  0.5500E-07  0.1343E-06  0.1337E-06  0.1124E-06  0.1119E-06  0.1343E-06  0.1337E-06  0.2635E-07  0.2623E-07
     -3.465  0.2868E-02  0.2858E-02  0.1438E-04  0.1432E-04  0.3158E-04  0.3146E-04  0.1438E-04  0.1432E-04  0.1416E-06  0.1409E-06  0.3291E-06  0.3278E-06  0.2449E-06  0.2439E-06  0.3291E-06  0.3278E-06  0.6348E-07  0.6321E-07
     -3.416  0.4988E-02  0.4976E-02  0.2963E-04  0.2952E-04  0.6088E-04  0.6070E-04  0.2963E-04  0.2952E-04  0.3326E-06  0.3312E-06  0.7264E-06  0.7239E-06  0.4640E-06  0.4624E-06  0.7264E-06  0.7239E-06  0.1403E-06  0.1398E-06
     -3.366  0.7130E-02  0.7120E-02  0.5209E-04  0.5194E-04  0.9974E-04  0.9953E-04  0.5209E-04  0.5194E-04  0.6744E-06  0.6721E-06  0.1384E-05  0.1380E-05  0.7757E-06  0.7735E-06  0.1384E-05  0.1380E-05  0.2924E-06  0.2913E-06
     -3.317  0.8742E-02  0.8735E-02  0.8159E-04  0.8140E-04  0.1461E-03  0.1458E-03  0.8159E-04  0.8140E-04  0.1216E-05  0.1212E-05  0.2366E-05  0.2360E-05  0.1239E-05  0.1236E-05  0.2366E-05  0.2360E-05  0.5965E-06  0.5943E-06
     -3.267  0.1031E-01  0.1030E-01  0.1238E-03  0.1235E-03  0.2096E-03  0.2092E-03  0.1238E-03  0.1235E-03  0.2107E-05  0.2098E-05  0.3930E-05  0.3917E-05  0.1996E-05  0.1990E-05  0.3930E-05  0.3917E-05  0.1145E-05  0.1142E-05
     -3.218  0.1255E-01  0.1254E-01  0.1832E-03  0.1829E-03  0.2988E-03  0.2983E-03  0.1832E-03  0.1829E-03  0.3636E-05  0.3629E-05  0.6445E-05  0.6436E-05  0.3014E-05  0.3009E-05  0.6445E-05  0.6436E-05  0.1867E-05  0.1864E-05
     -3.168  0.1446E-01  0.1446E-01  0.2405E-03  0.2403E-03  0.3858E-03  0.3855E-03  0.2405E-03  0.2403E-03  0.5670E-05  0.5659E-05  0.9524E-05  0.9512E-05  0.3896E-05  0.3893E-05  0.9524E-05  0.9512E-05  0.2455E-05  0.2454E-05
     -3.119  0.1446E-01  0.1446E-01  0.2705E-03  0.2704E-03  0.4389E-03  0.4388E-03  0.2705E-03  0.2704E-03  0.7606E-05  0.7596E-05  0.1231E-04  0.1230E-04  0.4471E-05  0.4469E-05  0.1231E-04  0.1230E-04  0.2830E-05  0.2829E-05
     -3.069  0.1378E-01  0.1378E-01  0.3001E-03  0.2998E-03  0.4988E-03  0.4984E-03  0.3001E-03  0.2998E-03  0.9913E-05  0.9897E-05  0.1580E-04  0.1578E-04  0.5464E-05  0.5456E-05  0.1580E-04  0.1578E-04  0.3609E-05  0.3603E-05
     -3.020  0.1489E-01  0.1488E-01  0.3844E-03  0.3838E-03  0.6163E-03  0.6158E-03  0.3844E-03  0.3838E-03  0.1397E-04  0.1395E-04  0.2201E-04  0.2198E-04  0.7682E-05  0.7667E-05  0.2201E-04  0.2198E-04  0.5663E-05  0.5649E-05
     -2.970  0.1701E-01  0.1701E-01  0.5086E-03  0.5079E-03  0.7231E-03  0.7229E-03  0.5086E-03  0.5079E-03  0.1885E-04  0.1882E-04  0.2910E-04  0.2908E-04  0.1074E-04  0.1072E-04  0.2910E-04  0.2908E-04  0.9113E-05  0.9094E-05
     -2.921  0.1786E-01  0.1787E-01  0.6071E-03  0.6067E-03  0.7454E-03  0.7455E-03  0.6071E-03  0.6067E-03  0.2271E-04  0.2270E-04  0.3425E-04  0.3423E-04  0.1350E-04  0.1349E-04  0.3425E-04  0.3423E-04  0.1277E-04  0.1275E-04
     -2.871  0.1760E-01  0.1760E-01  0.6595E-03  0.6593E-03  0.7699E-03  0.7695E-03  0.6595E-03  0.6593E-03  0.2713E-04  0.2711E-04  0.4012E-04  0.4010E-04  0.1534E-04  0.1533E-04  0.4012E-04  0.4010E-04  0.1470E-04  0.1470E-04
     -2.822  0.1755E-01  0.1755E-01  0.6977E-03  0.6974E-03  0.8806E-03  0.8800E-03  0.6977E-03  0.6974E-03  0.3480E-04  0.3475E-04  0.4992E-04  0.4988E-04  0.1666E-04  0.1665E-04  0.4992E-04  0.4988E-04  0.1466E-04  0.1467E-04
     -2.772  0.1797E-01  0.1797E-01  0.7654E-03  0.7650E-03  0.9904E-03  0.9901E-03  0.7654E-03  0.7650E-03  0.4649E-04  0.4642E-04  0.6105E-04  0.6102E-04  0.1831E-04  0.1831E-04  0.6105E-04  0.6102E-04  0.1491E-04  0.1491E-04
     -2.723  0.1817E-01  0.1817E-01  0.8526E-03  0.8522E-03  0.1008E-02  0.1009E-02  0.8526E-03  0.8522E-03  0.5860E-04  0.5855E-04  0.6940E-04  0.6938E-04  0.2020E-04  0.2019E-04  0.6940E-04  0.6938E-04  0.1672E-04  0.1672E-04
     -2.673  0.1742E-01  0.1743E-01  0.8899E-03  0.8899E-03  0.9992E-03  0.9991E-03  0.8899E-03  0.8899E-03  0.6314E-04  0.6316E-04  0.7443E-04  0.7443E-04  0.2207E-04  0.2206E-04  0.7443E-04  0.7443E-04  0.1944E-04  0.1942E-04
     -2.624  0.1679E-01  0.1679E-01  0.9197E-03  0.9193E-03  0.1095E-02  0.1094E-02  0.9197E-03  0.9193E-03  0.6198E-04  0.6198E-04  0.8209E-04  0.8205E-04  0.2662E-04  0.2658E-04  0.8209E-04  0.8205E-04  0.2482E-04  0.2478E-04
     -2.574  0.1829E-01  0.1828E-01  0.1088E-02  0.1087E-02  0.1343E-02  0.1341E-02  0.1088E-02  0.1087E-02  0.7042E-04  0.7034E-04  0.9964E-04  0.9955E-04  0.3729E-04  0.3722E-04  0.9964E-04  0.9955E-04  0.3560E-04  0.3554E-04
     -2.525  0.2088E-01  0.2087E-01  0.1342E-02  0.1341E-02  0.1620E-02  0.1619E-02  0.1342E-02  0.1341E-02  0.9182E-04  0.9170E-04  0.1196E-03  0.1195E-03  0.5157E-04  0.5151E-04  0.1196E-03  0.1195E-03  0.4747E-04  0.4743E-04
     -2.475  0.2173E-01  0.2173E-01  0.1482E-02  0.1482E-02  0.1754E-02  0.1754E-02  0.1482E-02  0.1482E-02  0.1150E-03  0.1149E-03  0.1303E-03  0.1303E-03  0.6144E-04  0.6142E-04  0.1303E-03  0.1303E-03  0.5236E-04  0.5237E-04
     -2.426  0.2111E-01  0.2111E-01  0.1523E-02  0.1523E-02  0.1787E-02  0.1787E-02  0.1523E-02  0.1523E-02  0.1359E-03  0.1358E-03  0.1427E-03  0.1426E-03  0.6352E-04  0.6354E-04  0.1427E-03  0.1426E-03  0.5167E-04  0.5169E-04
     -2.376  0.2137E-01  0.2137E-01  0.1629E-02  0.1629E-02  0.1930E-02  0.1929E-02  0.1629E-02  0.1629E-02  0.1576E-03  0.1576E-03  0.1743E-03  0.1741E-03  0.6386E-04  0.6386E-04  0.1743E-03  0.1741E-03  0.5402E-04  0.5402E-04
     -2.327  0.2209E-01  0.2210E-01  0.1743E-02  0.1743E-02  0.2161E-02  0.2160E-02  0.1743E-02  0.1743E-02  0.1757E-03  0.1757E-03  0.2103E-03  0.2102E-03  0.6542E-04  0.6544E-04  0.2103E-03  0.2102E-03  0.5736E-04  0.5738E-04
     -2.277  0.2047E-01  0.2049E-01  0.1657E-02  0.1658E-02  0.2169E-02  0.2170E-02  0.1657E-02  0.1658E-02  0.1771E-03  0.1772E-03  0.2197E-03  0.2198E-03  0.6169E-04  0.6175E-04  0.2197E-03  0.2198E-03  0.5318E-04  0.5324E-04
     -2.228  0.1728E-01  0.1730E-01  0.1493E-02  0.1494E-02  0.1974E-02  0.1975E-02  0.1493E-02  0.1494E-02  0.1724E-03  0.1724E-03  0.2149E-03  0.2149E-03  0.5440E-04  0.5444E-04  0.2149E-03  0.2149E-03  0.4771E-04  0.4774E-04
     -2.178  0.1648E-01  0.1648E-01  0.1590E-02  0.1589E-02  0.2038E-02  0.2037E-02  0.1590E-02  0.1589E-02  0.1960E-03  0.1958E-03  0.2375E-03  0.2374E-03  0.5917E-04  0.5910E-04  0.2375E-03  0.2374E-03  0.5435E-04  0.5429E-04
     -2.129  0.1865E-01  0.1864E-01  0.1971E-02  0.1969E-02  0.2516E-02  0.2513E-02  0.1971E-02  0.1969E-02  0.2529E-03  0.2526E-03  0.2842E-03  0.2839E-03  0.8463E-04  0.8445E-04  0.2842E-03  0.2839E-03  0.7452E-04  0.7440E-04
     -2.079  0.2136E-01  0.2135E-01  0.2415E-02  0.2413E-02  0.3122E-02  0.3119E-02  0.2415E-02  0.2413E-02  0.3107E-03  0.3105E-03  0.3265E-03  0.3264E-03  0.1207E-03  0.1206E-03  0.3265E-03  0.3264E-03  0.1022E-03  0.1020E-03
     -2.030  0.2273E-01  0.2273E-01  0.2714E-02  0.2713E-02  0.3544E-02  0.3543E-02  0.2714E-02  0.2713E-02  0.3370E-03  0.3371E-03  0.3630E-03  0.3629E-03  0.1442E-03  0.1442E-03  0.3630E-03  0.3629E-03  0.1266E-03  0.1266E-03
     -1.980  0.2211E-01  0.2212E-01  0.2776E-02  0.2776E-02  0.3641E-02  0.3642E-02  0.2776E-02  0.2776E-02  0.3381E-03  0.3381E-03  0.3962E-03  0.3961E-03  0.1429E-03  0.1430E-03  0.3962E-03  0.3961E-03  0.1363E-03  0.1363E-03
     -1.931  0.2128E-01  0.2129E-01  0.2825E-02  0.2824E-02  0.3729E-02  0.3728E-02  0.2825E-02  0.2824E-02  0.3650E-03  0.3648E-03  0.4420E-03  0.4418E-03  0.1367E-03  0.1367E-03  0.4420E-03  0.4418E-03  0.1374E-03  0.1375E-03
     -1.881  0.2137E-01  0.2137E-01  0.2989E-02  0.2989E-02  0.4066E-02  0.4064E-02  0.2989E-02  0.2989E-02  0.4198E-03  0.4196E-03  0.5043E-03  0.5041E-03  0.1407E-03  0.1407E-03  0.5043E-03  0.5041E-03  0.1408E-03  0.1408E-03
     -1.832  0.2015E-01  0.2017E-01  0.2957E-02  0.2959E-02  0.4228E-02  0.4229E-02  0.2957E-02  0.2959E-02  0.4429E-03  0.4429E-03  0.5326E-03  0.5327E-03  0.1361E-03  0.1363E-03  0.5326E-03  0.5327E-03  0.1359E-03  0.1360E-03
     -1.782  0.1755E-01  0.1756E-01  0.2733E-02  0.2734E-02  0.4163E-02  0.4163E-02  0.2733E-02  0.2734E-02  0.4540E-03  0.4539E-03  0.5434E-03  0.5433E-03  0.1168E-03  0.1170E-03  0.5434E-03  0.5433E-03  0.1185E-03  0.1187E-03
     -1.733  0.1665E-01  0.1665E-01  0.2781E-02  0.2780E-02  0.4473E-02  0.4470E-02  0.2781E-02  0.2780E-02  0.5266E-03  0.5261E-03  0.6280E-03  0.6274E-03  0.1098E-03  0.1098E-03  0.6280E-03  0.6274E-03  0.1098E-03  0.1098E-03
     -1.683  0.1754E-01  0.1755E-01  0.3098E-02  0.3096E-02  0.5116E-02  0.5114E-02  0.3098E-02  0.3096E-02  0.6377E-03  0.6373E-03  0.7631E-03  0.7626E-03  0.1246E-03  0.1246E-03  0.7631E-03  0.7626E-03  0.1158E-03  0.1158E-03