  16  16   1   0
  0.1828701E+02  0.4090378E-09  0.4090378E-09  0.1748783E-08  0.5000000E-15
  1.000000000000000E-004
  CAR 
 unknown system                          
      9.48218260     -4.36928932  301      5.86883370      1.00000000
     -4.369  0.0000E+00  0.0000E+00  0.0000E+00  0.0000E+00
     -4.323  0.0000E+00  0.0000E+00  0.0000E+00  0.0000E+00
     -4.277  0.0000E+00  0.0000E+00  0.0000E+00  0.0000E+00
     -4.231  0.0000E+00  0.0000E+00  0.0000E+00  0.0000E+00
     -4.185  0.5834E-05  0.5828E-05  0.2694E-06  0.2691E-06
     -4.138  0.8853E-05  0.8844E-05  0.6781E-06  0.6775E-06
     -4.092  0.9918E-04  0.9909E-04  0.5258E-05  0.5252E-05
     -4.046  0.3072E-03  0.3069E-03  0.1944E-04  0.1942E-04
     -4.000  0.7163E-03  0.7156E-03  0.5251E-04  0.5246E-04
     -3.954  0.1770E-02  0.1768E-02  0.1342E-03  0.1341E-03
     -3.908  0.4541E-02  0.4537E-02  0.3439E-03  0.3436E-03
     -3.861  0.1112E-01  0.1111E-01  0.8574E-03  0.8566E-03
     -3.815  0.2620E-01  0.2617E-01  0.2067E-02  0.2065E-02
     -3.769  0.5792E-01  0.5788E-01  0.4741E-02  0.4737E-02
     -3.723  0.1143E+00  0.1142E+00  0.1002E-01  0.1001E-01
     -3.677  0.1926E+00  0.1926E+00  0.1891E-01  0.1890E-01
     -3.631  0.2736E+00  0.2736E+00  0.3155E-01  0.3153E-01
     -3.584  0.3411E+00  0.3410E+00  0.4729E-01  0.4728E-01
     -3.538  0.4090E+00  0.4090E+00  0.6618E-01  0.6616E-01
     -3.492  0.4974E+00  0.4974E+00  0.8915E-01  0.8912E-01
     -3.446  0.5732E+00  0.5732E+00  0.1156E+00  0.1156E+00
     -3.400  0.5879E+00  0.5879E+00  0.1428E+00  0.1427E+00
     -3.354  0.5796E+00  0.5796E+00  0.1695E+00  0.1695E+00
     -3.307  0.6280E+00  0.6280E+00  0.1985E+00  0.1985E+00
     -3.261  0.7151E+00  0.7150E+00  0.2315E+00  0.2315E+00
     -3.215  0.7638E+00  0.7637E+00  0.2668E+00  0.2668E+00
     -3.169  0.7715E+00  0.7714E+00  0.3024E+00  0.3024E+00
     -3.123  0.7834E+00  0.7833E+00  0.3386E+00  0.3386E+00
     -3.076  0.8119E+00  0.8118E+00  0.3761E+00  0.3761E+00
     -3.030  0.8333E+00  0.8332E+00  0.4146E+00  0.4146E+00
     -2.984  0.8224E+00  0.8224E+00  0.4526E+00  0.4526E+00
     -2.938  0.8166E+00  0.8165E+00  0.4903E+00  0.4903E+00
     -2.892  0.8913E+00  0.8912E+00  0.5315E+00  0.5314E+00
     -2.846  0.1020E+01  0.1020E+01  0.5786E+00  0.5785E+00
     -2.799  0.1092E+01  0.1092E+01  0.6290E+00  0.6290E+00
     -2.753  0.1095E+01  0.1095E+01  0.6796E+00  0.6795E+00
     -2.707  0.1120E+01  0.1120E+01  0.7313E+00  0.7313E+00
     -2.661  0.1171E+01  0.1171E+01  0.7854E+00  0.7854E+00
     -2.615  0.1134E+01  0.1135E+01  0.8378E+00  0.8377E+00
     -2.569  0.1008E+01  0.1009E+01  0.8844E+00  0.8843E+00
     -2.522  0.9680E+00  0.9680E+00  0.9291E+00  0.9290E+00
     -2.476  0.1092E+01  0.1091E+01  0.9795E+00  0.9795E+00
     -2.430  0.1281E+01  0.1281E+01  0.1039E+01  0.1039E+01
     -2.384  0.1421E+01  0.1421E+01  0.1104E+01  0.1104E+01
     -2.338  0.1451E+01  0.1451E+01  0.1171E+01  0.1171E+01
     -2.292  0.1439E+01  0.1439E+01  0.1238E+01  0.1238E+01
     -2.245  0.1475E+01  0.1475E+01  0.1306E+01  0.1306E+01
     -2.199  0.1476E+01  0.1476E+01  0.1374E+01  0.1374E+01
     -2.153  0.1378E+01  0.1379E+01  0.1438E+01  0.1438E+01
     -2.107  0.1336E+01  0.1336E+01  0.1499E+01  0.1499E+01
     -2.061  0.1429E+01  0.1429E+01  0.1565E+01  0.1565E+01
     -2.015  0.1541E+01  0.1541E+01  0.1637E+01  0.1637E+01
     -1.968  0.1603E+01  0.1603E+01  0.1711E+01  0.1711E+01
     -1.922  0.1646E+01  0.1646E+01  0.1787E+01  0.1787E+01
     -1.876  0.1673E+01  0.1673E+01  0.1864E+01  0.1864E+01
     -1.830  0.1649E+01  0.1649E+01  0.1940E+01  0.1940E+01
     -1.784  0.1593E+01  0.1593E+01  0.2014E+01  0.2014E+01
     -1.738  0.1598E+01  0.1598E+01  0.2088E+01  0.2088E+01
     -1.691  0.1703E+01  0.1702E+01  0.2166E+01  0.2166E+01
     -1.645  0.1813E+01  0.1813E+01  0.2250E+01  0.2250E+01
     -1.599  0.1799E+01  0.1799E+01  0.2333E+01  0.2333E+01
     -1.553  0.1651E+01  0.1651E+01  0.2409E+01  0.2409E+01
     -1.507  0.1504E+01  0.1504E+01  0.2479E+01  0.2479E+01
     -1.460  0.1400E+01  0.1400E+01  0.2544E+01  0.2543E+01
     -1.414  0.1284E+01  0.1284E+01  0.2603E+01  0.2603E+01
     -1.368  0.1215E+01  0.1215E+01  0.2659E+01  0.2659E+01
     -1.322  0.1272E+01  0.1272E+01  0.2718E+01  0.2718E+01
     -1.276  0.1438E+01  0.1437E+01  0.2784E+01  0.2784E+01
     -1.230  0.1614E+01  0.1614E+01  0.2859E+01  0.2859E+01
     -1.183  0.1668E+01  0.1668E+01  0.2936E+01  0.2936E+01
     -1.137  0.1592E+01  0.1592E+01  0.3009E+01  0.3009E+01
     -1.091  0.1526E+01  0.1526E+01  0.3080E+01  0.3080E+01
     -1.045  0.1524E+01  0.1524E+01  0.3150E+01  0.3150E+01
     -0.999  0.1533E+01  0.1533E+01  0.3221E+01  0.3221E+01
     -0.953  0.1564E+01  0.1564E+01  0.3293E+01  0.3293E+01
     -0.906  0.1663E+01  0.1663E+01  0.3370E+01  0.3370E+01
     -0.860  0.1810E+01  0.1810E+01  0.3454E+01  0.3454E+01
     -0.814  0.1908E+01  0.1908E+01  0.3542E+01  0.3542E+01
     -0.768  0.1887E+01  0.1887E+01  0.3629E+01  0.3629E+01
     -0.722  0.1798E+01  0.1798E+01  0.3712E+01  0.3712E+01
     -0.676  0.1731E+01  0.1731E+01  0.3792E+01  0.3792E+01
     -0.629  0.1740E+01  0.1740E+01  0.3872E+01  0.3872E+01
     -0.583  0.1809E+01  0.1809E+01  0.3956E+01  0.3956E+01
     -0.537  0.1870E+01  0.1870E+01  0.4042E+01  0.4042E+01
     -0.491  0.1891E+01  0.1891E+01  0.4130E+01  0.4130E+01
     -0.445  0.1915E+01  0.1915E+01  0.4218E+01  0.4218E+01
     -0.399  0.2016E+01  0.2016E+01  0.4311E+01  0.4311E+01
     -0.352  0.2158E+01  0.2158E+01  0.4411E+01  0.4411E+01
     -0.306  0.2260E+01  0.2260E+01  0.4515E+01  0.4515E+01
     -0.260  0.2326E+01  0.2326E+01  0.4623E+01  0.4623E+01
     -0.214  0.2369E+01  0.2369E+01  0.4732E+01  0.4732E+01
     -0.168  0.2377E+01  0.2377E+01  0.4842E+01  0.4842E+01
     -0.122  0.2362E+01  0.2362E+01  0.4951E+01  0.4951E+01
     -0.075  0.2342E+01  0.2342E+01  0.5059E+01  0.5059E+01
     -0.029  0.2261E+01  0.2261E+01  0.5164E+01  0.5164E+01
      0.017  0.2122E+01  0.2122E+01  0.5262E+01  0.5262E+01
      0.063  0.2081E+01  0.2081E+01  0.5358E+01  0.5358E+01
      0.109  0.2154E+01  0.2154E+01  0.5458E+01  0.5457E+01
      0.156  0.2139E+01  0.2139E+01  0.5556E+01  0.5556E+01
      0.202  0.2012E+01  0.2012E+01  0.5649E+01  0.5649E+01
      0.248  0.1977E+01  0.1977E+01  0.5741E+01  0.5741E+01
      0.294  0.2080E+01  0.2080E+01  0.5837E+01  0.5837E+01
      0.340  0.2136E+01  0.2136E+01  0.5935E+01  0.5935E+01
      0.386  0.2083E+01  0.2083E+01  0.6032E+01  0.6032E+01
      0.433  0.1997E+01  0.1997E+01  0.6124E+01  0.6124E+01
      0.479  0.1886E+01  0.1886E+01  0.6211E+01  0.6211E+01
      0.525  0.1784E+01  0.1784E+01  0.6293E+01  0.6293E+01
      0.571  0.1806E+01  0.1805E+01  0.6377E+01  0.6377E+01
      0.617  0.2048E+01  0.2048E+01  0.6472E+01  0.6471E+01
      0.663  0.2431E+01  0.2430E+01  0.6584E+01  0.6584E+01
      0.710  0.2767E+01  0.2767E+01  0.6712E+01  0.6712E+01
      0.756  0.2920E+01  0.2919E+01  0.6846E+01  0.6846E+01
      0.802  0.2823E+01  0.2823E+01  0.6977E+01  0.6977E+01
      0.848  0.2537E+01  0.2537E+01  0.7094E+01  0.7094E+01
      0.894  0.2206E+01  0.2206E+01  0.7196E+01  0.7196E+01
      0.940  0.1984E+01  0.1984E+01  0.7288E+01  0.7288E+01
      0.987  0.1928E+01  0.1928E+01  0.7377E+01  0.7377E+01
      1.033  0.2020E+01  0.2020E+01  0.7470E+01  0.7470E+01
      1.079  0.2238E+01  0.2237E+01  0.7573E+01  0.7573E+01
      1.125  0.2468E+01  0.2467E+01  0.7687E+01  0.7687E+01
      1.171  0.2619E+01  0.2619E+01  0.7808E+01  0.7808E+01
      1.217  0.2716E+01  0.2716E+01  0.7934E+01  0.7934E+01
      1.264  0.2794E+01  0.2794E+01  0.8063E+01  0.8063E+01
      1.310  0.2817E+01  0.2817E+01  0.8193E+01  0.8193E+01
      1.356  0.2749E+01  0.2750E+01  0.8320E+01  0.8320E+01
      1.402  0.2722E+01  0.2722E+01  0.8446E+01  0.8446E+01
      1.448  0.2919E+01  0.2918E+01  0.8581E+01  0.8580E+01
      1.495  0.3263E+01  0.3263E+01  0.8731E+01  0.8731E+01
      1.541  0.3455E+01  0.3455E+01  0.8891E+01  0.8891E+01
      1.587  0.3370E+01  0.3371E+01  0.9047E+01  0.9046E+01
      1.633  0.3118E+01  0.3118E+01  0.9191E+01  0.9190E+01
      1.679  0.2807E+01  0.2808E+01  0.9320E+01  0.9320E+01
      1.725  0.2511E+01  0.2511E+01  0.9436E+01  0.9436E+01
      1.772  0.2255E+01  0.2255E+01  0.9541E+01  0.9540E+01
      1.818  0.2053E+01  0.2053E+01  0.9635E+01  0.9635E+01
      1.864  0.1976E+01  0.1975E+01  0.9727E+01  0.9726E+01
      1.910  0.2078E+01  0.2078E+01  0.9823E+01  0.9823E+01
      1.956  0.2242E+01  0.2241E+01  0.9926E+01  0.9926E+01
      2.002  0.2277E+01  0.2277E+01  0.1003E+02  0.1003E+02
      2.049  0.2193E+01  0.2193E+01  0.1013E+02  0.1013E+02
      2.095  0.2138E+01  0.2138E+01  0.1023E+02  0.1023E+02
      2.141  0.2224E+01  0.2223E+01  0.1033E+02  0.1033E+02
      2.187  0.2438E+01  0.2437E+01  0.1045E+02  0.1045E+02
      2.233  0.2605E+01  0.2605E+01  0.1057E+02  0.1057E+02
      2.279  0.2664E+01  0.2664E+01  0.1069E+02  0.1069E+02
      2.326  0.2777E+01  0.2777E+01  0.1082E+02  0.1082E+02
      2.372  0.3011E+01  0.3011E+01  0.1096E+02  0.1096E+02
      2.418  0.3147E+01  0.3147E+01  0.1110E+02  0.1110E+02
      2.464  0.3024E+01  0.3024E+01  0.1124E+02  0.1124E+02
      2.510  0.2793E+01  0.2793E+01  0.1137E+02  0.1137E+02
      2.556  0.2610E+01  0.2610E+01  0.1149E+02  0.1149E+02
      2.603  0.2509E+01  0.2508E+01  0.1161E+02  0.1161E+02
      2.649  0.2579E+01  0.2578E+01  0.1173E+02  0.1173E+02
      2.695  0.2912E+01  0.2911E+01  0.1186E+02  0.1186E+02
      2.741  0.3321E+01  0.3320E+01  0.1202E+02  0.1201E+02
      2.787  0.3518E+01  0.3518E+01  0.1218E+02  0.1218E+02
      2.833  0.3512E+01  0.3512E+01  0.1234E+02  0.1234E+02
      2.880  0.3483E+01  0.3483E+01  0.1250E+02  0.1250E+02
      2.926  0.3480E+01  0.3480E+01  0.1266E+02  0.1266E+02
      2.972  0.3426E+01  0.3426E+01  0.1282E+02  0.1282E+02
      3.018  0.3382E+01  0.3382E+01  0.1298E+02  0.1298E+02
      3.064  0.3492E+01  0.3491E+01  0.1314E+02  0.1314E+02
      3.111  0.3808E+01  0.3807E+01  0.1331E+02  0.1331E+02
      3.157  0.4150E+01  0.4150E+01  0.1351E+02  0.1350E+02
      3.203  0.4169E+01  0.4169E+01  0.1370E+02  0.1370E+02
      3.249  0.3847E+01  0.3848E+01  0.1388E+02  0.1387E+02
      3.295  0.3477E+01  0.3477E+01  0.1404E+02  0.1404E+02
      3.341  0.3333E+01  0.3332E+01  0.1419E+02  0.1419E+02
      3.388  0.3546E+01  0.3544E+01  0.1435E+02  0.1435E+02
      3.434  0.4030E+01  0.4028E+01  0.1454E+02  0.1454E+02
      3.480  0.4482E+01  0.4481E+01  0.1475E+02  0.1475E+02
      3.526  0.4620E+01  0.4620E+01  0.1496E+02  0.1496E+02
      3.572  0.4570E+01  0.4570E+01  0.1517E+02  0.1517E+02
      3.618  0.4607E+01  0.4607E+01  0.1538E+02  0.1538E+02
      3.665  0.4662E+01  0.4662E+01  0.1560E+02  0.1560E+02
      3.711  0.4598E+01  0.4598E+01  0.1581E+02  0.1581E+02
      3.757  0.4482E+01  0.4482E+01  0.1602E+02  0.1602E+02
      3.803  0.4343E+01  0.4343E+01  0.1622E+02  0.1622E+02
      3.849  0.4126E+01  0.4126E+01  0.1641E+02  0.1641E+02
      3.895  0.3872E+01  0.3872E+01  0.1659E+02  0.1659E+02
      3.942  0.3693E+01  0.3693E+01  0.1676E+02  0.1676E+02
      3.988  0.3698E+01  0.3697E+01  0.1693E+02  0.1693E+02
      4.034  0.3922E+01  0.3922E+01  0.1711E+02  0.1711E+02
      4.080  0.4247E+01  0.4245E+01  0.1731E+02  0.1731E+02
      4.126  0.4523E+01  0.4522E+01  0.1752E+02  0.1752E+02
      4.172  0.4678E+01  0.4678E+01  0.1773E+02  0.1773E+02
      4.219  0.4750E+01  0.4751E+01  0.1795E+02  0.1795E+02
      4.265  0.4880E+01  0.4879E+01  0.1818E+02  0.1818E+02
      4.311  0.5106E+01  0.5105E+01  0.1841E+02  0.1841E+02
      4.357  0.5413E+01  0.5411E+01  0.1866E+02  0.1866E+02
      4.403  0.5735E+01  0.5733E+01  0.1893E+02  0.1893E+02
      4.449  0.5989E+01  0.5988E+01  0.1921E+02  0.1920E+02
      4.496  0.6106E+01  0.6105E+01  0.1949E+02  0.1949E+02
      4.542  0.6194E+01  0.6193E+01  0.1977E+02  0.1977E+02
      4.588  0.6412E+01  0.6410E+01  0.2007E+02  0.2007E+02
      4.634  0.6664E+01  0.6663E+01  0.2038E+02  0.2038E+02
      4.680  0.6799E+01  0.6798E+01  0.2069E+02  0.2069E+02
      4.727  0.6808E+01  0.6807E+01  0.2101E+02  0.2100E+02
      4.773  0.6564E+01  0.6565E+01  0.2131E+02  0.2131E+02
      4.819  0.6025E+01  0.6026E+01  0.2159E+02  0.2159E+02
      4.865  0.5429E+01  0.5431E+01  0.2184E+02  0.2184E+02
      4.911  0.5082E+01  0.5082E+01  0.2207E+02  0.2207E+02
      4.957  0.5077E+01  0.5077E+01  0.2231E+02  0.2231E+02
      5.004  0.5204E+01  0.5203E+01  0.2255E+02  0.2255E+02
      5.050  0.5286E+01  0.5285E+01  0.2279E+02  0.2279E+02
      5.096  0.5315E+01  0.5315E+01  0.2304E+02  0.2304E+02
      5.142  0.5340E+01  0.5340E+01  0.2328E+02  0.2328E+02
      5.188  0.5333E+01  0.5333E+01  0.2353E+02  0.2353E+02
      5.234  0.5187E+01  0.5188E+01  0.2377E+02  0.2377E+02
      5.281  0.5011E+01  0.5012E+01  0.2400E+02  0.2400E+02
      5.327  0.4874E+01  0.4875E+01  0.2423E+02  0.2423E+02
      5.373  0.4628E+01  0.4630E+01  0.2444E+02  0.2444E+02
      5.419  0.4190E+01  0.4192E+01  0.2463E+02  0.2463E+02
      5.465  0.3640E+01  0.3642E+01  0.2480E+02  0.2480E+02
      5.511  0.3114E+01  0.3116E+01  0.2495E+02  0.2495E+02
      5.558  0.2746E+01  0.2748E+01  0.2507E+02  0.2507E+02
      5.604  0.2613E+01  0.2613E+01  0.2519E+02  0.2519E+02
      5.650  0.2693E+01  0.2692E+01  0.2532E+02  0.2532E+02
      5.696  0.2901E+01  0.2900E+01  0.2545E+02  0.2545E+02
      5.742  0.3094E+01  0.3093E+01  0.2560E+02  0.2560E+02
      5.788  0.3163E+01  0.3163E+01  0.2574E+02  0.2574E+02
      5.835  0.3181E+01  0.3181E+01  0.2589E+02  0.2589E+02
      5.881  0.3266E+01  0.3266E+01  0.2604E+02  0.2604E+02
      5.927  0.3364E+01  0.3364E+01  0.2620E+02  0.2619E+02
      5.973  0.3417E+01  0.3418E+01  0.2635E+02  0.2635E+02
      6.019  0.3563E+01  0.3563E+01  0.2652E+02  0.2652E+02
      6.065  0.3842E+01  0.3841E+01  0.2670E+02  0.2669E+02
      6.112  0.4062E+01  0.4062E+01  0.2688E+02  0.2688E+02
      6.158  0.4110E+01  0.4111E+01  0.2707E+02  0.2707E+02
      6.204  0.4153E+01  0.4154E+01  0.2726E+02  0.2726E+02
      6.250  0.4285E+01  0.4287E+01  0.2746E+02  0.2746E+02
      6.296  0.4365E+01  0.4370E+01  0.2766E+02  0.2766E+02
      6.343  0.4309E+01  0.4318E+01  0.2786E+02  0.2786E+02
      6.389  0.4291E+01  0.4300E+01  0.2806E+02  0.2806E+02
      6.435  0.4554E+01  0.4561E+01  0.2827E+02  0.2827E+02
      6.481  0.5192E+01  0.5196E+01  0.2851E+02  0.2851E+02
      6.527  0.6141E+01  0.6142E+01  0.2880E+02  0.2880E+02
      6.573  0.7136E+01  0.7138E+01  0.2912E+02  0.2913E+02
      6.620  0.7879E+01  0.7886E+01  0.2949E+02  0.2949E+02
      6.666  0.8444E+01  0.8460E+01  0.2988E+02  0.2988E+02
      6.712  0.9014E+01  0.9042E+01  0.3030E+02  0.3030E+02
      6.758  0.9615E+01  0.9651E+01  0.3074E+02  0.3074E+02
      6.804  0.1036E+02  0.1039E+02  0.3122E+02  0.3122E+02
      6.850  0.1129E+02  0.1131E+02  0.3174E+02  0.3175E+02
      6.897  0.1232E+02  0.1235E+02  0.3231E+02  0.3232E+02
      6.943  0.1341E+02  0.1344E+02  0.3293E+02  0.3294E+02
      6.989  0.1395E+02  0.1396E+02  0.3357E+02  0.3358E+02
      7.035  0.1307E+02  0.1311E+02  0.3418E+02  0.3419E+02
      7.081  0.1104E+02  0.1112E+02  0.3469E+02  0.3470E+02
      7.127  0.8900E+01  0.9036E+01  0.3510E+02  0.3512E+02
      7.174  0.7226E+01  0.7382E+01  0.3543E+02  0.3546E+02
      7.220  0.6057E+01  0.6210E+01  0.3571E+02  0.3575E+02
      7.266  0.5357E+01  0.5490E+01  0.3596E+02  0.3600E+02
      7.312  0.4999E+01  0.5061E+01  0.3619E+02  0.3623E+02
      7.358  0.4750E+01  0.4705E+01  0.3641E+02  0.3645E+02
      7.404  0.4461E+01  0.4384E+01  0.3662E+02  0.3666E+02
      7.451  0.4233E+01  0.4254E+01  0.3681E+02  0.3685E+02
      7.497  0.4375E+01  0.4535E+01  0.3701E+02  0.3706E+02
      7.543  0.4904E+01  0.5148E+01  0.3724E+02  0.3730E+02
      7.589  0.5385E+01  0.5627E+01  0.3749E+02  0.3756E+02
      7.635  0.5462E+01  0.5651E+01  0.3774E+02  0.3782E+02
      7.681  0.5156E+01  0.5334E+01  0.3798E+02  0.3807E+02
      7.728  0.4675E+01  0.4919E+01  0.3819E+02  0.3829E+02
      7.774  0.4195E+01  0.4515E+01  0.3839E+02  0.3850E+02
      7.820  0.3739E+01  0.4047E+01  0.3856E+02  0.3869E+02
      7.866  0.3322E+01  0.3513E+01  0.3871E+02  0.3885E+02
      7.912  0.3064E+01  0.3092E+01  0.3886E+02  0.3899E+02
      7.959  0.2909E+01  0.2800E+01  0.3899E+02  0.3912E+02
      8.005  0.2670E+01  0.2506E+01  0.3911E+02  0.3924E+02
      8.051  0.2329E+01  0.2211E+01  0.3922E+02  0.3934E+02
      8.097  0.1994E+01  0.1931E+01  0.3931E+02  0.3943E+02
      8.143  0.1706E+01  0.1650E+01  0.3939E+02  0.3951E+02
      8.189  0.1454E+01  0.1363E+01  0.3946E+02  0.3957E+02
      8.236  0.1258E+01  0.1086E+01  0.3952E+02  0.3962E+02
      8.282  0.1166E+01  0.8611E+00  0.3957E+02  0.3966E+02
      8.328  0.1141E+01  0.7367E+00  0.3963E+02  0.3970E+02
      8.374  0.1081E+01  0.6863E+00  0.3968E+02  0.3973E+02
      8.420  0.9538E+00  0.6587E+00  0.3972E+02  0.3976E+02
      8.466  0.8230E+00  0.6738E+00  0.3976E+02  0.3979E+02
      8.513  0.7783E+00  0.7424E+00  0.3979E+02  0.3982E+02
      8.559  0.8193E+00  0.7783E+00  0.3983E+02  0.3986E+02
      8.605  0.8348E+00  0.7094E+00  0.3987E+02  0.3989E+02
      8.651  0.7520E+00  0.5849E+00  0.3990E+02  0.3992E+02
      8.697  0.5872E+00  0.4824E+00  0.3993E+02  0.3994E+02
      8.743  0.4122E+00  0.4092E+00  0.3995E+02  0.3996E+02
      8.790  0.2995E+00  0.3420E+00  0.3996E+02  0.3998E+02
      8.836  0.2541E+00  0.2508E+00  0.3998E+02  0.3999E+02
      8.882  0.2164E+00  0.1486E+00  0.3999E+02  0.3999E+02
      8.928  0.1490E+00  0.7272E-01  0.3999E+02  0.4000E+02
      8.974  0.8020E-01  0.3125E-01  0.4000E+02  0.4000E+02
      9.020  0.3657E-01  0.1292E-01  0.4000E+02  0.4000E+02
      9.067  0.1521E-01  0.5087E-02  0.4000E+02  0.4000E+02
      9.113  0.6040E-02  0.1909E-02  0.4000E+02  0.4000E+02
      9.159  0.2425E-02  0.6255E-03  0.4000E+02  0.4000E+02
      9.205  0.8957E-03  0.0000E+00  0.4000E+02  0.4000E+02
      9.251  0.3564E-03  0.0000E+00  0.4000E+02  0.4000E+02
      9.297  0.0000E+00  0.0000E+00  0.4000E+02  0.4000E+02
      9.344  0.0000E+00  0.0000E+00  0.4000E+02  0.4000E+02
      9.390  0.0000E+00  0.0000E+00  0.4000E+02  0.4000E+02
      9.436  0.0000E+00  0.0000E+00  0.4000E+02  0.4000E+02
      9.482  0.0000E+00  0.0000E+00  0.4000E+02  0.4000E+02
      9.48218260     -4.36928932  301      5.86883370      1.00000000
     -4.369  0.0000E+00  0.0000E+00  0.0000E+00  0.0000E+00  0.0000E+00  0.0000E+00  0.0000E+00  0.0000E+00  0.0000E+00  0.0000E+00  0.0000E+00  0.0000E+00  0.0000E+00  0.0000E+00  0.0000E+00  0.0000E+00  0.0000E+00  0.0000E+00
     -4.323  0.0000E+00  0.0000E+00  0.0000E+00  0.0000E+00  0.0000E+00  0.0000E+00  0.0000E+00  0.0000E+00  0.0000E+00  0.0000E+00  0.0000E+00  0.0000E+00  0.0000E+00  0.0000E+00  0.0000E+00  0.0000E+00  0.0000E+00  0.0000E+00
     -4.277  0.0000E+00  0.0000E+00  0.0000E+00  0.0000E+00  0.0000E+00  0.0000E+00  0.0000E+00  0.0000E+00  0.0000E+00  0.0000E+00  0.0000E+00  0.0000E+00  0.0000E+00  0.0000E+00  0.0000E+00  0.0000E+00  0.0000E+00  0.0000E+00
     -4.231  0.0000E+00  0.0000E+00  0.0000E+00  0.0000E+00  0.0000E+00  0.0000E+00  0.0000E+00  0.0000E+00  0.0000E+00  0.0000E+00  0.0000E+00  0.0000E+00  0.0000E+00  0.0000E+00  0.0000E+00  0.0000E+00  0.0000E+00  0.0000E+00
     -4.185  0.1460E-06  0.1459E-06  0.1303E-22  0.1021E-22  0.7000E-09  0.7001E-09  0.1303E-22  0.1021E-22  0.3657E-19  0.3000E-23  0.1410E-21  0.1391E-21  0.5372E-11  0.5322E-11  0.1410E-21  0.1391E-21  0.5953E-20  0.2949E-21
     -4.138  0.2216E-06  0.2214E-06  0.1977E-22  0.1549E-22  0.1062E-08  0.1062E-08  0.1977E-22  0.1549E-22  0.5549E-19  0.4553E-23  0.2140E-21  0.2111E-21  0.8151E-11  0.8075E-11  0.2140E-21  0.2111E-21  0.9033E-20  0.4475E-21
     -4.092  0.2456E-05  0.2454E-05  0.5523E-08  0.5517E-08  0.1848E-07  0.1848E-07  0.5523E-08  0.5517E-08  0.1109E-17  0.1623E-20  0.6442E-10  0.6447E-10  0.1202E-09  0.1194E-09  0.6442E-10  0.6447E-10  0.2422E-10  0.2420E-10
     -4.046  0.7556E-05  0.7548E-05  0.2759E-07  0.2756E-07  0.6972E-07  0.6969E-07  0.2759E-07  0.2756E-07  0.1841E-09  0.1839E-09  0.5220E-09  0.5219E-09  0.3790E-09  0.3761E-09  0.5220E-09  0.5219E-09  0.7889E-10  0.7879E-10
     -4.000  0.1761E-04  0.1759E-04  0.6695E-07  0.6688E-07  0.1657E-06  0.1656E-06  0.6695E-07  0.6688E-07  0.6039E-09  0.6034E-09  0.1436E-08  0.1435E-08  0.8528E-09  0.8460E-09  0.1436E-08  0.1435E-08  0.1563E-09  0.1561E-09
     -3.954  0.4350E-04  0.4346E-04  0.1662E-06  0.1661E-06  0.4124E-06  0.4122E-06  0.1662E-06  0.1661E-06  0.1195E-08  0.1194E-08  0.3244E-08  0.3244E-08  0.2414E-08  0.2397E-08  0.3244E-08  0.3244E-08  0.6478E-09  0.6471E-09
     -3.908  0.1114E-03  0.1113E-03  0.4665E-06  0.4661E-06  0.1110E-05  0.1110E-05  0.4665E-06  0.4661E-06  0.4011E-08  0.4007E-08  0.9903E-08  0.9902E-08  0.6709E-08  0.6665E-08  0.9903E-08  0.9902E-08  0.2096E-08  0.2094E-08
     -3.861  0.2727E-03  0.2725E-03  0.1165E-05  0.1164E-05  0.2745E-05  0.2744E-05  0.1165E-05  0.1164E-05  0.1107E-07  0.1106E-07  0.2590E-07  0.2590E-07  0.1622E-07  0.1611E-07  0.2590E-07  0.2590E-07  0.4945E-08  0.4940E-08
     -3.815  0.6423E-03  0.6417E-03  0.2788E-05  0.2786E-05  0.6516E-05  0.6514E-05  0.2788E-05  0.2786E-05  0.2554E-07  0.2552E-07  0.6086E-07  0.6085E-07  0.3830E-07  0.3805E-07  0.6086E-07  0.6085E-07  0.1173E-07  0.1172E-07
     -3.769  0.1418E-02  0.1417E-02  0.6586E-05  0.6580E-05  0.1494E-04  0.1494E-04  0.6586E-05  0.6580E-05  0.6247E-07  0.6241E-07  0.1461E-06  0.1461E-06  0.8749E-07  0.8693E-07  0.1461E-06  0.1461E-06  0.2800E-07  0.2797E-07
     -3.723  0.2789E-02  0.2787E-02  0.1456E-04  0.1455E-04  0.3148E-04  0.3148E-04  0.1456E-04  0.1455E-04  0.1506E-06  0.1504E-06  0.3383E-06  0.3382E-06  0.1840E-06  0.1829E-06  0.3383E-06  0.3382E-06  0.6410E-07  0.6404E-07
     -3.677  0.4683E-02  0.4680E-02  0.2869E-04  0.2867E-04  0.5826E-04  0.5826E-04  0.2869E-04  0.2867E-04  0.3357E-06  0.3354E-06  0.7121E-06  0.7120E-06  0.3449E-06  0.3430E-06  0.7121E-06  0.7120E-06  0.1370E-06  0.1369E-06
     -3.631  0.6610E-02  0.6608E-02  0.4928E-04  0.4925E-04  0.9364E-04  0.9365E-04  0.4928E-04  0.4925E-04  0.6539E-06  0.6534E-06  0.1313E-05  0.1313E-05  0.5898E-06  0.5869E-06  0.1313E-05  0.1313E-05  0.2787E-06  0.2785E-06
     -3.584  0.8164E-02  0.8162E-02  0.7674E-04  0.7670E-04  0.1370E-03  0.1370E-03  0.7674E-04  0.7670E-04  0.1164E-05  0.1163E-05  0.2225E-05  0.2225E-05  0.9753E-06  0.9715E-06  0.2225E-05  0.2225E-05  0.5473E-06  0.5469E-06
     -3.538  0.9676E-02  0.9673E-02  0.1151E-03  0.1151E-03  0.1950E-03  0.1950E-03  0.1151E-03  0.1151E-03  0.1990E-05  0.1989E-05  0.3644E-05  0.3644E-05  0.1588E-05  0.1583E-05  0.3644E-05  0.3644E-05  0.1004E-05  0.1003E-05
     -3.492  0.1163E-01  0.1163E-01  0.1669E-03  0.1668E-03  0.2727E-03  0.2727E-03  0.1669E-03  0.1668E-03  0.3344E-05  0.3342E-05  0.5837E-05  0.5836E-05  0.2391E-05  0.2384E-05  0.5837E-05  0.5836E-05  0.1596E-05  0.1596E-05
     -3.446  0.1328E-01  0.1328E-01  0.2173E-03  0.2173E-03  0.3494E-03  0.3495E-03  0.2173E-03  0.2173E-03  0.5125E-05  0.5123E-05  0.8508E-05  0.8508E-05  0.3121E-05  0.3114E-05  0.8508E-05  0.8508E-05  0.2112E-05  0.2112E-05
     -3.400  0.1349E-01  0.1349E-01  0.2486E-03  0.2486E-03  0.4028E-03  0.4029E-03  0.2486E-03  0.2486E-03  0.6910E-05  0.6908E-05  0.1109E-04  0.1109E-04  0.3700E-05  0.3693E-05  0.1109E-04  0.1109E-04  0.2510E-05  0.2510E-05
     -3.354  0.1311E-01  0.1311E-01  0.2805E-03  0.2805E-03  0.4606E-03  0.4607E-03  0.2805E-03  0.2805E-03  0.9087E-05  0.9083E-05  0.1432E-04  0.1432E-04  0.4619E-05  0.4611E-05  0.1432E-04  0.1432E-04  0.3246E-05  0.3245E-05
     -3.307  0.1398E-01  0.1398E-01  0.3530E-03  0.3529E-03  0.5585E-03  0.5586E-03  0.3530E-03  0.3529E-03  0.1257E-04  0.1256E-04  0.1955E-04  0.1954E-04  0.6397E-05  0.6387E-05  0.1955E-04  0.1954E-04  0.4947E-05  0.4945E-05
     -3.261  0.1571E-01  0.1571E-01  0.4585E-03  0.4584E-03  0.6512E-03  0.6513E-03  0.4585E-03  0.4584E-03  0.1681E-04  0.1681E-04  0.2564E-04  0.2564E-04  0.8791E-05  0.8775E-05  0.2564E-04  0.2564E-04  0.7716E-05  0.7713E-05
     -3.215  0.1658E-01  0.1658E-01  0.5480E-03  0.5479E-03  0.6831E-03  0.6831E-03  0.5480E-03  0.5479E-03  0.2050E-04  0.2050E-04  0.3052E-04  0.3052E-04  0.1104E-04  0.1102E-04  0.3052E-04  0.3052E-04  0.1068E-04  0.1068E-04
     -3.169  0.1650E-01  0.1650E-01  0.6016E-03  0.6015E-03  0.7097E-03  0.7097E-03  0.6016E-03  0.6015E-03  0.2465E-04  0.2464E-04  0.3586E-04  0.3586E-04  0.1271E-04  0.1269E-04  0.3586E-04  0.3586E-04  0.1245E-04  0.1245E-04
     -3.123  0.1647E-01  0.1647E-01  0.6408E-03  0.6408E-03  0.7970E-03  0.7970E-03  0.6408E-03  0.6408E-03  0.3129E-04  0.3128E-04  0.4405E-04  0.4405E-04  0.1406E-04  0.1404E-04  0.4405E-04  0.4405E-04  0.1275E-04  0.1275E-04
     -3.076  0.1678E-01  0.1678E-01  0.6992E-03  0.6991E-03  0.8915E-03  0.8914E-03  0.6992E-03  0.6991E-03  0.4107E-04  0.4106E-04  0.5351E-04  0.5351E-04  0.1555E-04  0.1554E-04  0.5351E-04  0.5351E-04  0.1306E-04  0.1306E-04
     -3.030  0.1696E-01  0.1696E-01  0.7738E-03  0.7737E-03  0.9220E-03  0.9220E-03  0.7738E-03  0.7737E-03  0.5141E-04  0.5140E-04  0.6118E-04  0.6118E-04  0.1720E-04  0.1718E-04  0.6118E-04  0.6118E-04  0.1453E-04  0.1453E-04
     -2.984  0.1646E-01  0.1646E-01  0.8183E-03  0.8182E-03  0.9254E-03  0.9254E-03  0.8183E-03  0.8182E-03  0.5662E-04  0.5662E-04  0.6643E-04  0.6643E-04  0.1906E-04  0.1904E-04  0.6643E-04  0.6643E-04  0.1696E-04  0.1695E-04
     -2.938  0.1598E-01  0.1598E-01  0.8545E-03  0.8545E-03  0.1003E-02  0.1003E-02  0.8545E-03  0.8545E-03  0.5720E-04  0.5720E-04  0.7330E-04  0.7330E-04  0.2299E-04  0.2297E-04  0.7330E-04  0.7330E-04  0.2141E-04  0.2140E-04
     -2.892  0.1702E-01  0.1702E-01  0.9865E-03  0.9864E-03  0.1202E-02  0.1202E-02  0.9865E-03  0.9864E-03  0.6378E-04  0.6377E-04  0.8718E-04  0.8718E-04  0.3134E-04  0.3132E-04  0.8718E-04  0.8718E-04  0.2972E-04  0.2971E-04
     -2.846  0.1913E-01  0.1912E-01  0.1197E-02  0.1197E-02  0.1440E-02  0.1440E-02  0.1197E-02  0.1197E-02  0.8079E-04  0.8077E-04  0.1042E-03  0.1042E-03  0.4265E-04  0.4262E-04  0.1042E-03  0.1042E-03  0.3938E-04  0.3937E-04
     -2.799  0.2017E-01  0.2016E-01  0.1341E-02  0.1341E-02  0.1583E-02  0.1583E-02  0.1341E-02  0.1341E-02  0.1012E-03  0.1011E-03  0.1156E-03  0.1156E-03  0.5143E-04  0.5140E-04  0.1156E-03  0.1156E-03  0.4455E-04  0.4454E-04
     -2.753  0.1987E-01  0.1986E-01  0.1397E-02  0.1396E-02  0.1633E-02  0.1633E-02  0.1397E-02  0.1396E-02  0.1200E-03  0.1200E-03  0.1267E-03  0.1267E-03  0.5446E-04  0.5444E-04  0.1267E-03  0.1267E-03  0.4499E-04  0.4499E-04
     -2.707  0.1992E-01  0.1991E-01  0.1478E-02  0.1478E-02  0.1739E-02  0.1739E-02  0.1478E-02  0.1478E-02  0.1389E-03  0.1389E-03  0.1506E-03  0.1505E-03  0.5508E-04  0.5505E-04  0.1506E-03  0.1505E-03  0.4638E-04  0.4637E-04
     -2.661  0.2044E-01  0.2044E-01  0.1577E-02  0.1577E-02  0.1924E-02  0.1924E-02  0.1577E-02  0.1577E-02  0.1555E-03  0.1555E-03  0.1808E-03  0.1807E-03  0.5630E-04  0.5627E-04  0.1808E-03  0.1807E-03  0.4904E-04  0.4904E-04
     -2.615  0.1946E-01  0.1946E-01  0.1545E-02  0.1545E-02  0.1980E-02  0.1980E-02  0.1545E-02  0.1545E-02  0.1607E-03  0.1607E-03  0.1945E-03  0.1945E-03  0.5459E-04  0.5457E-04  0.1945E-03  0.1945E-03  0.4721E-04  0.4721E-04
     -2.569  0.1693E-01  0.1693E-01  0.1421E-02  0.1421E-02  0.1858E-02  0.1858E-02  0.1421E-02  0.1421E-02  0.1588E-03  0.1588E-03  0.1937E-03  0.1937E-03  0.4968E-04  0.4967E-04  0.1937E-03  0.1937E-03  0.4322E-04  0.4322E-04
     -2.522  0.1573E-01  0.1573E-01  0.1460E-02  0.1460E-02  0.1872E-02  0.1872E-02  0.1460E-02  0.1460E-02  0.1743E-03  0.1743E-03  0.2082E-03  0.2081E-03  0.5185E-04  0.5182E-04  0.2082E-03  0.2081E-03  0.4697E-04  0.4697E-04
     -2.476  0.1710E-01  0.1710E-01  0.1748E-02  0.1748E-02  0.2220E-02  0.2220E-02  0.1748E-02  0.1748E-02  0.2176E-03  0.2175E-03  0.2447E-03  0.2447E-03  0.6939E-04  0.6933E-04  0.2447E-03  0.2447E-03  0.6180E-04  0.6178E-04
     -2.430  0.1942E-01  0.1942E-01  0.2131E-02  0.2131E-02  0.2732E-02  0.2731E-02  0.2131E-02  0.2131E-02  0.2681E-03  0.2681E-03  0.2830E-03  0.2829E-03  0.9744E-04  0.9736E-04  0.2830E-03  0.2829E-03  0.8359E-04  0.8356E-04
     -2.384  0.2094E-01  0.2093E-01  0.2432E-02  0.2432E-02  0.3145E-02  0.3144E-02  0.2432E-02  0.2432E-02  0.2994E-03  0.2994E-03  0.3163E-03  0.3162E-03  0.1198E-03  0.1197E-03  0.3163E-03  0.3162E-03  0.1048E-03  0.1047E-03
     -2.338  0.2084E-01  0.2084E-01  0.2546E-02  0.2545E-02  0.3308E-02  0.3308E-02  0.2546E-02  0.2545E-02  0.3071E-03  0.3070E-03  0.3467E-03  0.3466E-03  0.1241E-03  0.1241E-03  0.3467E-03  0.3466E-03  0.1162E-03  0.1162E-03
     -2.292  0.2007E-01  0.2007E-01  0.2586E-02  0.2586E-02  0.3383E-02  0.3383E-02  0.2586E-02  0.2586E-02  0.3241E-03  0.3240E-03  0.3831E-03  0.3830E-03  0.1195E-03  0.1194E-03  0.3831E-03  0.3830E-03  0.1187E-03  0.1187E-03
     -2.245  0.1989E-01  0.1989E-01  0.2704E-02  0.2704E-02  0.3627E-02  0.3626E-02  0.2704E-02  0.2704E-02  0.3667E-03  0.3666E-03  0.4331E-03  0.4331E-03  0.1204E-03  0.1203E-03  0.4331E-03  0.4331E-03  0.1209E-03  0.1209E-03
     -2.199  0.1921E-01  0.1921E-01  0.2740E-02  0.2740E-02  0.3841E-02  0.3841E-02  0.2740E-02  0.2740E-02  0.3975E-03  0.3974E-03  0.4685E-03  0.4685E-03  0.1193E-03  0.1193E-03  0.4685E-03  0.4685E-03  0.1193E-03  0.1193E-03
     -2.153  0.1717E-01  0.1717E-01  0.2586E-02  0.2587E-02  0.3839E-02  0.3839E-02  0.2586E-02  0.2587E-02  0.4089E-03  0.4088E-03  0.4811E-03  0.4811E-03  0.1066E-03  0.1066E-03  0.4811E-03  0.4811E-03  0.1078E-03  0.1078E-03
     -2.107  0.1579E-01  0.1579E-01  0.2545E-02  0.2545E-02  0.3990E-02  0.3989E-02  0.2545E-02  0.2545E-02  0.4540E-03  0.4540E-03  0.5322E-03  0.5321E-03  0.9686E-04  0.9682E-04  0.5322E-03  0.5321E-03  0.9771E-04  0.9770E-04
     -2.061  0.1616E-01  0.1616E-01  0.2774E-02  0.2773E-02  0.4462E-02  0.4462E-02  0.2774E-02  0.2773E-02  0.5436E-03  0.5434E-03  0.6379E-03  0.6378E-03  0.1040E-03  0.1039E-03  0.6379E-03  0.6378E-03  0.9962E-04  0.9960E-04