  16  16   1   0
  0.1354396E+02  0.3700818E-09  0.3700818E-09  0.1582232E-08  0.5000000E-15
  1.000000000000000E-004
  CAR 
 unknown system                          
     13.16015357     -3.45641877  301      8.62751328      1.00000000
     -3.456  0.0000E+00  0.0000E+00  0.0000E+00  0.0000E+00
     -3.401  0.0000E+00  0.0000E+00  0.0000E+00  0.0000E+00
     -3.346  0.0000E+00  0.0000E+00  0.0000E+00  0.0000E+00
     -3.290  0.0000E+00  0.0000E+00  0.0000E+00  0.0000E+00
     -3.235  0.0000E+00  0.0000E+00  0.0000E+00  0.0000E+00
     -3.179  0.0000E+00  0.0000E+00  0.0000E+00  0.0000E+00
     -3.124  0.7524E-05  0.7545E-05  0.4167E-06  0.4179E-06
     -3.069  0.5168E-04  0.5182E-04  0.3279E-05  0.3288E-05
     -3.013  0.1790E-03  0.1795E-03  0.1319E-04  0.1323E-04
     -2.958  0.5137E-03  0.5151E-03  0.4165E-04  0.4176E-04
     -2.903  0.1514E-02  0.1518E-02  0.1255E-03  0.1258E-03
     -2.847  0.4556E-02  0.4568E-02  0.3778E-03  0.3789E-03
     -2.792  0.1322E-01  0.1325E-01  0.1110E-02  0.1113E-02
     -2.736  0.3502E-01  0.3510E-01  0.3050E-02  0.3057E-02
     -2.681  0.8006E-01  0.8021E-01  0.7484E-02  0.7500E-02
     -2.626  0.1496E+00  0.1498E+00  0.1577E-01  0.1580E-01
     -2.570  0.2219E+00  0.2220E+00  0.2806E-01  0.2809E-01
     -2.515  0.2699E+00  0.2700E+00  0.4301E-01  0.4305E-01
     -2.459  0.3095E+00  0.3096E+00  0.6015E-01  0.6020E-01
     -2.404  0.3863E+00  0.3866E+00  0.8155E-01  0.8161E-01
     -2.349  0.4792E+00  0.4794E+00  0.1081E+00  0.1082E+00
     -2.293  0.4964E+00  0.4963E+00  0.1356E+00  0.1357E+00
     -2.238  0.4446E+00  0.4445E+00  0.1602E+00  0.1603E+00
     -2.182  0.4560E+00  0.4562E+00  0.1855E+00  0.1855E+00
     -2.127  0.5603E+00  0.5606E+00  0.2165E+00  0.2166E+00
     -2.072  0.6359E+00  0.6360E+00  0.2517E+00  0.2518E+00
     -2.016  0.6332E+00  0.6331E+00  0.2868E+00  0.2869E+00
     -1.961  0.6228E+00  0.6228E+00  0.3214E+00  0.3215E+00
     -1.906  0.6446E+00  0.6447E+00  0.3571E+00  0.3572E+00
     -1.850  0.6835E+00  0.6836E+00  0.3950E+00  0.3951E+00
     -1.795  0.6909E+00  0.6909E+00  0.4332E+00  0.4333E+00
     -1.739  0.6429E+00  0.6427E+00  0.4689E+00  0.4690E+00
     -1.684  0.6362E+00  0.6363E+00  0.5041E+00  0.5042E+00
     -1.629  0.7582E+00  0.7587E+00  0.5462E+00  0.5463E+00
     -1.573  0.8988E+00  0.8990E+00  0.5960E+00  0.5961E+00
     -1.518  0.9185E+00  0.9184E+00  0.6469E+00  0.6470E+00
     -1.462  0.8835E+00  0.8835E+00  0.6958E+00  0.6959E+00
     -1.407  0.9365E+00  0.9368E+00  0.7477E+00  0.7478E+00
     -1.352  0.1015E+01  0.1015E+01  0.8039E+00  0.8041E+00
     -1.296  0.9221E+00  0.9217E+00  0.8550E+00  0.8552E+00
     -1.241  0.7397E+00  0.7394E+00  0.8960E+00  0.8961E+00
     -1.185  0.7338E+00  0.7341E+00  0.9367E+00  0.9368E+00
     -1.130  0.9073E+00  0.9078E+00  0.9870E+00  0.9872E+00
     -1.075  0.1103E+01  0.1104E+01  0.1048E+01  0.1048E+01
     -1.019  0.1227E+01  0.1227E+01  0.1116E+01  0.1116E+01
     -0.964  0.1208E+01  0.1208E+01  0.1183E+01  0.1183E+01
     -0.909  0.1170E+01  0.1170E+01  0.1248E+01  0.1248E+01
     -0.853  0.1249E+01  0.1250E+01  0.1317E+01  0.1317E+01
     -0.798  0.1250E+01  0.1249E+01  0.1386E+01  0.1387E+01
     -0.742  0.1095E+01  0.1094E+01  0.1447E+01  0.1447E+01
     -0.687  0.1066E+01  0.1066E+01  0.1506E+01  0.1506E+01
     -0.632  0.1212E+01  0.1212E+01  0.1573E+01  0.1573E+01
     -0.576  0.1309E+01  0.1309E+01  0.1646E+01  0.1646E+01
     -0.521  0.1325E+01  0.1325E+01  0.1719E+01  0.1719E+01
     -0.465  0.1352E+01  0.1352E+01  0.1794E+01  0.1794E+01
     -0.410  0.1395E+01  0.1395E+01  0.1871E+01  0.1872E+01
     -0.355  0.1378E+01  0.1378E+01  0.1948E+01  0.1948E+01
     -0.299  0.1301E+01  0.1301E+01  0.2020E+01  0.2020E+01
     -0.244  0.1326E+01  0.1326E+01  0.2093E+01  0.2094E+01
     -0.188  0.1500E+01  0.1500E+01  0.2177E+01  0.2177E+01
     -0.133  0.1634E+01  0.1634E+01  0.2267E+01  0.2267E+01
     -0.078  0.1566E+01  0.1565E+01  0.2354E+01  0.2354E+01
     -0.022  0.1361E+01  0.1360E+01  0.2429E+01  0.2430E+01
      0.033  0.1242E+01  0.1242E+01  0.2498E+01  0.2498E+01
      0.088  0.1176E+01  0.1175E+01  0.2563E+01  0.2564E+01
      0.144  0.1050E+01  0.1049E+01  0.2622E+01  0.2622E+01
      0.199  0.9932E+00  0.9933E+00  0.2677E+01  0.2677E+01
      0.255  0.1100E+01  0.1100E+01  0.2738E+01  0.2738E+01
      0.310  0.1311E+01  0.1312E+01  0.2810E+01  0.2810E+01
      0.365  0.1447E+01  0.1447E+01  0.2890E+01  0.2891E+01
      0.421  0.1404E+01  0.1404E+01  0.2968E+01  0.2968E+01
      0.476  0.1326E+01  0.1325E+01  0.3042E+01  0.3042E+01
      0.532  0.1354E+01  0.1354E+01  0.3117E+01  0.3117E+01
      0.587  0.1364E+01  0.1364E+01  0.3192E+01  0.3192E+01
      0.642  0.1259E+01  0.1259E+01  0.3262E+01  0.3262E+01
      0.698  0.1228E+01  0.1228E+01  0.3330E+01  0.3330E+01
      0.753  0.1435E+01  0.1435E+01  0.3410E+01  0.3410E+01
      0.809  0.1673E+01  0.1673E+01  0.3502E+01  0.3503E+01
      0.864  0.1679E+01  0.1679E+01  0.3595E+01  0.3596E+01
      0.919  0.1517E+01  0.1517E+01  0.3679E+01  0.3680E+01
      0.975  0.1428E+01  0.1427E+01  0.3759E+01  0.3759E+01
      1.030  0.1442E+01  0.1442E+01  0.3839E+01  0.3839E+01
      1.085  0.1427E+01  0.1427E+01  0.3918E+01  0.3918E+01
      1.141  0.1380E+01  0.1380E+01  0.3994E+01  0.3994E+01
      1.196  0.1397E+01  0.1397E+01  0.4072E+01  0.4072E+01
      1.252  0.1475E+01  0.1475E+01  0.4153E+01  0.4153E+01
      1.307  0.1559E+01  0.1559E+01  0.4240E+01  0.4240E+01
      1.362  0.1625E+01  0.1625E+01  0.4330E+01  0.4330E+01
      1.418  0.1690E+01  0.1690E+01  0.4423E+01  0.4424E+01
      1.473  0.1723E+01  0.1723E+01  0.4519E+01  0.4519E+01
      1.529  0.1726E+01  0.1726E+01  0.4614E+01  0.4615E+01
      1.584  0.1870E+01  0.1870E+01  0.4718E+01  0.4718E+01
      1.639  0.2083E+01  0.2083E+01  0.4833E+01  0.4834E+01
      1.695  0.2129E+01  0.2128E+01  0.4951E+01  0.4952E+01
      1.750  0.2053E+01  0.2053E+01  0.5065E+01  0.5065E+01
      1.805  0.1958E+01  0.1958E+01  0.5174E+01  0.5174E+01
      1.861  0.1868E+01  0.1868E+01  0.5277E+01  0.5278E+01
      1.916  0.1865E+01  0.1865E+01  0.5381E+01  0.5381E+01
      1.972  0.1827E+01  0.1826E+01  0.5482E+01  0.5482E+01
      2.027  0.1720E+01  0.1720E+01  0.5577E+01  0.5577E+01
      2.082  0.1635E+01  0.1635E+01  0.5668E+01  0.5668E+01
      2.138  0.1654E+01  0.1654E+01  0.5760E+01  0.5760E+01
      2.193  0.1754E+01  0.1755E+01  0.5857E+01  0.5857E+01
      2.249  0.1850E+01  0.1851E+01  0.5959E+01  0.5960E+01
      2.304  0.1937E+01  0.1937E+01  0.6067E+01  0.6067E+01
      2.359  0.1890E+01  0.1889E+01  0.6171E+01  0.6172E+01
      2.415  0.1662E+01  0.1661E+01  0.6264E+01  0.6264E+01
      2.470  0.1539E+01  0.1539E+01  0.6349E+01  0.6349E+01
      2.526  0.1687E+01  0.1687E+01  0.6442E+01  0.6442E+01
      2.581  0.1934E+01  0.1935E+01  0.6549E+01  0.6550E+01
      2.636  0.2081E+01  0.2081E+01  0.6665E+01  0.6665E+01
      2.692  0.2166E+01  0.2166E+01  0.6785E+01  0.6785E+01
      2.747  0.2305E+01  0.2306E+01  0.6913E+01  0.6913E+01
      2.802  0.2244E+01  0.2243E+01  0.7037E+01  0.7037E+01
      2.858  0.1884E+01  0.1883E+01  0.7141E+01  0.7141E+01
      2.913  0.1648E+01  0.1648E+01  0.7233E+01  0.7233E+01
      2.969  0.1691E+01  0.1691E+01  0.7326E+01  0.7327E+01
      3.024  0.1827E+01  0.1827E+01  0.7428E+01  0.7428E+01
      3.079  0.1945E+01  0.1945E+01  0.7535E+01  0.7536E+01
      3.135  0.1840E+01  0.1839E+01  0.7637E+01  0.7638E+01
      3.190  0.1664E+01  0.1663E+01  0.7730E+01  0.7730E+01
      3.246  0.1741E+01  0.1742E+01  0.7826E+01  0.7826E+01
      3.301  0.2033E+01  0.2034E+01  0.7939E+01  0.7939E+01
      3.356  0.2299E+01  0.2299E+01  0.8066E+01  0.8067E+01
      3.412  0.2441E+01  0.2441E+01  0.8202E+01  0.8202E+01
      3.467  0.2601E+01  0.2601E+01  0.8346E+01  0.8346E+01
      3.523  0.2715E+01  0.2715E+01  0.8496E+01  0.8496E+01
      3.578  0.2700E+01  0.2700E+01  0.8646E+01  0.8646E+01
      3.633  0.2704E+01  0.2704E+01  0.8796E+01  0.8796E+01
      3.689  0.2832E+01  0.2832E+01  0.8952E+01  0.8953E+01
      3.744  0.2921E+01  0.2921E+01  0.9114E+01  0.9115E+01
      3.799  0.2768E+01  0.2768E+01  0.9268E+01  0.9268E+01
      3.855  0.2471E+01  0.2471E+01  0.9405E+01  0.9405E+01
      3.910  0.2315E+01  0.2315E+01  0.9533E+01  0.9533E+01
      3.966  0.2310E+01  0.2310E+01  0.9661E+01  0.9661E+01
      4.021  0.2193E+01  0.2193E+01  0.9783E+01  0.9783E+01
      4.076  0.1979E+01  0.1979E+01  0.9892E+01  0.9892E+01
      4.132  0.1976E+01  0.1976E+01  0.1000E+02  0.1000E+02
      4.187  0.2080E+01  0.2079E+01  0.1012E+02  0.1012E+02
      4.243  0.2054E+01  0.2054E+01  0.1023E+02  0.1023E+02
      4.298  0.2117E+01  0.2117E+01  0.1035E+02  0.1035E+02
      4.353  0.2320E+01  0.2320E+01  0.1048E+02  0.1048E+02
      4.409  0.2522E+01  0.2523E+01  0.1062E+02  0.1062E+02
      4.464  0.2744E+01  0.2744E+01  0.1077E+02  0.1077E+02
      4.520  0.2846E+01  0.2846E+01  0.1093E+02  0.1093E+02
      4.575  0.2872E+01  0.2872E+01  0.1109E+02  0.1109E+02
      4.630  0.2882E+01  0.2882E+01  0.1125E+02  0.1125E+02
      4.686  0.2769E+01  0.2768E+01  0.1140E+02  0.1140E+02
      4.741  0.2579E+01  0.2578E+01  0.1154E+02  0.1154E+02
      4.796  0.2513E+01  0.2513E+01  0.1168E+02  0.1168E+02
      4.852  0.2713E+01  0.2713E+01  0.1183E+02  0.1183E+02
      4.907  0.2965E+01  0.2965E+01  0.1200E+02  0.1200E+02
      4.963  0.3062E+01  0.3062E+01  0.1217E+02  0.1217E+02
      5.018  0.3145E+01  0.3145E+01  0.1234E+02  0.1234E+02
      5.073  0.3091E+01  0.3091E+01  0.1251E+02  0.1251E+02
      5.129  0.2969E+01  0.2969E+01  0.1268E+02  0.1268E+02
      5.184  0.3073E+01  0.3073E+01  0.1285E+02  0.1285E+02
      5.240  0.3343E+01  0.3343E+01  0.1303E+02  0.1303E+02
      5.295  0.3652E+01  0.3652E+01  0.1323E+02  0.1323E+02
      5.350  0.3846E+01  0.3846E+01  0.1345E+02  0.1345E+02
      5.406  0.3866E+01  0.3866E+01  0.1366E+02  0.1366E+02
      5.461  0.3712E+01  0.3711E+01  0.1387E+02  0.1387E+02
      5.517  0.3532E+01  0.3531E+01  0.1406E+02  0.1406E+02
      5.572  0.3551E+01  0.3551E+01  0.1426E+02  0.1426E+02
      5.627  0.3686E+01  0.3686E+01  0.1446E+02  0.1446E+02
      5.683  0.3829E+01  0.3828E+01  0.1468E+02  0.1468E+02
      5.738  0.3952E+01  0.3952E+01  0.1489E+02  0.1489E+02
      5.793  0.3984E+01  0.3984E+01  0.1512E+02  0.1512E+02
      5.849  0.4035E+01  0.4035E+01  0.1534E+02  0.1534E+02
      5.904  0.4142E+01  0.4142E+01  0.1557E+02  0.1557E+02
      5.960  0.4108E+01  0.4107E+01  0.1580E+02  0.1580E+02
      6.015  0.3894E+01  0.3893E+01  0.1601E+02  0.1601E+02
      6.070  0.3672E+01  0.3671E+01  0.1622E+02  0.1622E+02
      6.126  0.3467E+01  0.3467E+01  0.1641E+02  0.1641E+02
      6.181  0.3289E+01  0.3289E+01  0.1659E+02  0.1659E+02
      6.237  0.3266E+01  0.3266E+01  0.1677E+02  0.1677E+02
      6.292  0.3354E+01  0.3354E+01  0.1696E+02  0.1696E+02
      6.347  0.3479E+01  0.3479E+01  0.1715E+02  0.1715E+02
      6.403  0.3628E+01  0.3628E+01  0.1735E+02  0.1735E+02
      6.458  0.3667E+01  0.3667E+01  0.1755E+02  0.1755E+02
      6.514  0.3634E+01  0.3634E+01  0.1776E+02  0.1776E+02
      6.569  0.3682E+01  0.3682E+01  0.1796E+02  0.1796E+02
      6.624  0.3856E+01  0.3856E+01  0.1817E+02  0.1817E+02
      6.680  0.4155E+01  0.4155E+01  0.1840E+02  0.1840E+02
      6.735  0.4686E+01  0.4685E+01  0.1866E+02  0.1866E+02
      6.790  0.5209E+01  0.5209E+01  0.1895E+02  0.1895E+02
      6.846  0.5256E+01  0.5255E+01  0.1924E+02  0.1924E+02
      6.901  0.5067E+01  0.5067E+01  0.1952E+02  0.1952E+02
      6.957  0.5104E+01  0.5103E+01  0.1981E+02  0.1981E+02
      7.012  0.5487E+01  0.5486E+01  0.2011E+02  0.2011E+02
      7.067  0.6224E+01  0.6223E+01  0.2046E+02  0.2046E+02
      7.123  0.6737E+01  0.6736E+01  0.2083E+02  0.2083E+02
      7.178  0.6444E+01  0.6444E+01  0.2119E+02  0.2119E+02
      7.234  0.5684E+01  0.5683E+01  0.2150E+02  0.2150E+02
      7.289  0.4798E+01  0.4798E+01  0.2177E+02  0.2177E+02
      7.344  0.4180E+01  0.4180E+01  0.2200E+02  0.2200E+02
      7.400  0.3943E+01  0.3943E+01  0.2222E+02  0.2222E+02
      7.455  0.3766E+01  0.3766E+01  0.2243E+02  0.2243E+02
      7.511  0.3635E+01  0.3635E+01  0.2263E+02  0.2263E+02
      7.566  0.3594E+01  0.3594E+01  0.2283E+02  0.2283E+02
      7.621  0.3545E+01  0.3545E+01  0.2302E+02  0.2302E+02
      7.677  0.3666E+01  0.3665E+01  0.2323E+02  0.2323E+02
      7.732  0.4015E+01  0.4014E+01  0.2345E+02  0.2345E+02
      7.787  0.4213E+01  0.4212E+01  0.2368E+02  0.2368E+02
      7.843  0.4189E+01  0.4188E+01  0.2391E+02  0.2391E+02
      7.898  0.4063E+01  0.4063E+01  0.2414E+02  0.2414E+02
      7.954  0.3727E+01  0.3728E+01  0.2435E+02  0.2435E+02
      8.009  0.3295E+01  0.3295E+01  0.2453E+02  0.2453E+02
      8.064  0.2939E+01  0.2940E+01  0.2469E+02  0.2469E+02
      8.120  0.2666E+01  0.2666E+01  0.2484E+02  0.2484E+02
      8.175  0.2369E+01  0.2370E+01  0.2497E+02  0.2497E+02
      8.231  0.2098E+01  0.2098E+01  0.2509E+02  0.2509E+02
      8.286  0.2039E+01  0.2039E+01  0.2520E+02  0.2520E+02
      8.341  0.2164E+01  0.2164E+01  0.2532E+02  0.2532E+02
      8.397  0.2301E+01  0.2300E+01  0.2545E+02  0.2545E+02
      8.452  0.2391E+01  0.2390E+01  0.2558E+02  0.2558E+02
      8.508  0.2364E+01  0.2364E+01  0.2571E+02  0.2571E+02
      8.563  0.2317E+01  0.2317E+01  0.2584E+02  0.2584E+02
      8.618  0.2464E+01  0.2464E+01  0.2598E+02  0.2598E+02
      8.674  0.2622E+01  0.2622E+01  0.2612E+02  0.2612E+02
      8.729  0.2512E+01  0.2513E+01  0.2626E+02  0.2626E+02
      8.784  0.2353E+01  0.2353E+01  0.2639E+02  0.2639E+02
      8.840  0.2509E+01  0.2508E+01  0.2653E+02  0.2653E+02
      8.895  0.2906E+01  0.2905E+01  0.2669E+02  0.2669E+02
      8.951  0.3141E+01  0.3142E+01  0.2687E+02  0.2686E+02
      9.006  0.3046E+01  0.3047E+01  0.2703E+02  0.2703E+02
      9.061  0.2892E+01  0.2893E+01  0.2719E+02  0.2719E+02
      9.117  0.2887E+01  0.2888E+01  0.2735E+02  0.2735E+02
      9.172  0.2980E+01  0.2980E+01  0.2752E+02  0.2752E+02
      9.228  0.3038E+01  0.3038E+01  0.2769E+02  0.2769E+02
      9.283  0.2886E+01  0.2886E+01  0.2785E+02  0.2785E+02
      9.338  0.2718E+01  0.2718E+01  0.2800E+02  0.2800E+02
      9.394  0.2787E+01  0.2787E+01  0.2815E+02  0.2815E+02
      9.449  0.2988E+01  0.2988E+01  0.2832E+02  0.2832E+02
      9.505  0.3282E+01  0.3282E+01  0.2850E+02  0.2850E+02
      9.560  0.3664E+01  0.3663E+01  0.2870E+02  0.2870E+02
      9.615  0.3936E+01  0.3936E+01  0.2892E+02  0.2892E+02
      9.671  0.4092E+01  0.4093E+01  0.2915E+02  0.2915E+02
      9.726  0.4423E+01  0.4423E+01  0.2939E+02  0.2939E+02
      9.781  0.5220E+01  0.5219E+01  0.2968E+02  0.2968E+02
      9.837  0.6259E+01  0.6259E+01  0.3003E+02  0.3003E+02
      9.892  0.6862E+01  0.6862E+01  0.3041E+02  0.3041E+02
      9.948  0.6984E+01  0.6984E+01  0.3080E+02  0.3080E+02
     10.003  0.7010E+01  0.7011E+01  0.3119E+02  0.3118E+02
     10.058  0.7121E+01  0.7122E+01  0.3158E+02  0.3158E+02
     10.114  0.7488E+01  0.7491E+01  0.3199E+02  0.3199E+02
     10.169  0.8175E+01  0.8184E+01  0.3245E+02  0.3245E+02
     10.225  0.9010E+01  0.9036E+01  0.3295E+02  0.3295E+02
     10.280  0.9837E+01  0.9893E+01  0.3349E+02  0.3350E+02
     10.335  0.1038E+02  0.1046E+02  0.3407E+02  0.3408E+02
     10.391  0.1010E+02  0.1016E+02  0.3463E+02  0.3464E+02
     10.446  0.8790E+01  0.8822E+01  0.3511E+02  0.3513E+02
     10.502  0.6981E+01  0.6995E+01  0.3550E+02  0.3552E+02
     10.557  0.5453E+01  0.5460E+01  0.3580E+02  0.3582E+02
     10.612  0.4252E+01  0.4258E+01  0.3604E+02  0.3605E+02
     10.668  0.3188E+01  0.3197E+01  0.3622E+02  0.3623E+02
     10.723  0.2607E+01  0.2615E+01  0.3636E+02  0.3638E+02
     10.778  0.2691E+01  0.2688E+01  0.3651E+02  0.3653E+02
     10.834  0.3261E+01  0.3250E+01  0.3669E+02  0.3671E+02
     10.889  0.3806E+01  0.3797E+01  0.3690E+02  0.3692E+02
     10.945  0.3898E+01  0.3889E+01  0.3712E+02  0.3713E+02
     11.000  0.3645E+01  0.3627E+01  0.3732E+02  0.3733E+02
     11.055  0.3448E+01  0.3415E+01  0.3751E+02  0.3752E+02
     11.111  0.3482E+01  0.3450E+01  0.3770E+02  0.3771E+02
     11.166  0.3518E+01  0.3537E+01  0.3790E+02  0.3791E+02
     11.222  0.3420E+01  0.3499E+01  0.3809E+02  0.3810E+02
     11.277  0.3328E+01  0.3433E+01  0.3827E+02  0.3829E+02
     11.332  0.3346E+01  0.3446E+01  0.3846E+02  0.3849E+02
     11.388  0.3319E+01  0.3397E+01  0.3864E+02  0.3867E+02
     11.443  0.2996E+01  0.3088E+01  0.3881E+02  0.3885E+02
     11.498  0.2481E+01  0.2635E+01  0.3895E+02  0.3899E+02
     11.554  0.2214E+01  0.2405E+01  0.3907E+02  0.3912E+02
     11.609  0.2200E+01  0.2383E+01  0.3919E+02  0.3926E+02
     11.665  0.2151E+01  0.2304E+01  0.3931E+02  0.3938E+02
     11.720  0.1990E+01  0.2037E+01  0.3942E+02  0.3950E+02
     11.775  0.1733E+01  0.1628E+01  0.3952E+02  0.3959E+02
     11.831  0.1437E+01  0.1269E+01  0.3960E+02  0.3966E+02
     11.886  0.1249E+01  0.1129E+01  0.3967E+02  0.3972E+02
     11.942  0.1155E+01  0.1097E+01  0.3973E+02  0.3978E+02
     11.997  0.1054E+01  0.1058E+01  0.3979E+02  0.3984E+02
     12.052  0.8959E+00  0.9418E+00  0.3984E+02  0.3989E+02
     12.108  0.7113E+00  0.7185E+00  0.3988E+02  0.3993E+02
     12.163  0.5714E+00  0.4844E+00  0.3991E+02  0.3996E+02
     12.219  0.4549E+00  0.3223E+00  0.3993E+02  0.3998E+02
     12.274  0.3462E+00  0.2118E+00  0.3995E+02  0.3999E+02
     12.329  0.2679E+00  0.1195E+00  0.3997E+02  0.4000E+02
     12.385  0.2262E+00  0.5304E-01  0.3998E+02  0.4000E+02
     12.440  0.1781E+00  0.1933E-01  0.3999E+02  0.4000E+02
     12.495  0.1030E+00  0.6561E-02  0.4000E+02  0.4000E+02
     12.551  0.4429E-01  0.1999E-02  0.4000E+02  0.4000E+02
     12.606  0.1592E-01  0.5224E-03  0.4000E+02  0.4000E+02
     12.662  0.5375E-02  0.0000E+00  0.4000E+02  0.4000E+02
     12.717  0.1717E-02  0.0000E+00  0.4000E+02  0.4000E+02
     12.772  0.5697E-03  0.0000E+00  0.4000E+02  0.4000E+02
     12.828  0.0000E+00  0.0000E+00  0.4000E+02  0.4000E+02
     12.883  0.0000E+00  0.0000E+00  0.4000E+02  0.4000E+02
     12.939  0.0000E+00  0.0000E+00  0.4000E+02  0.4000E+02
     12.994  0.0000E+00  0.0000E+00  0.4000E+02  0.4000E+02
     13.049  0.0000E+00  0.0000E+00  0.4000E+02  0.4000E+02
     13.105  0.0000E+00  0.0000E+00  0.4000E+02  0.4000E+02
     13.160  0.0000E+00  0.0000E+00  0.4000E+02  0.4000E+02
     13.16015357     -3.45641877  301      8.62751328      1.00000000
     -3.456  0.0000E+00  0.0000E+00  0.0000E+00  0.0000E+00  0.0000E+00  0.0000E+00  0.0000E+00  0.0000E+00  0.0000E+00  0.0000E+00  0.0000E+00  0.0000E+00  0.0000E+00  0.0000E+00  0.0000E+00  0.0000E+00  0.0000E+00  0.0000E+00
     -3.401  0.0000E+00  0.0000E+00  0.0000E+00  0.0000E+00  0.0000E+00  0.0000E+00  0.0000E+00  0.0000E+00  0.0000E+00  0.0000E+00  0.0000E+00  0.0000E+00  0.0000E+00  0.0000E+00  0.0000E+00  0.0000E+00  0.0000E+00  0.0000E+00
     -3.346  0.0000E+00  0.0000E+00  0.0000E+00  0.0000E+00  0.0000E+00  0.0000E+00  0.0000E+00  0.0000E+00  0.0000E+00  0.0000E+00  0.0000E+00  0.0000E+00  0.0000E+00  0.0000E+00  0.0000E+00  0.0000E+00  0.0000E+00  0.0000E+00
     -3.290  0.0000E+00  0.0000E+00  0.0000E+00  0.0000E+00  0.0000E+00  0.0000E+00  0.0000E+00  0.0000E+00  0.0000E+00  0.0000E+00  0.0000E+00  0.0000E+00  0.0000E+00  0.0000E+00  0.0000E+00  0.0000E+00  0.0000E+00  0.0000E+00
     -3.235  0.0000E+00  0.0000E+00  0.0000E+00  0.0000E+00  0.0000E+00  0.0000E+00  0.0000E+00  0.0000E+00  0.0000E+00  0.0000E+00  0.0000E+00  0.0000E+00  0.0000E+00  0.0000E+00  0.0000E+00  0.0000E+00  0.0000E+00  0.0000E+00
     -3.179  0.0000E+00  0.0000E+00  0.0000E+00  0.0000E+00  0.0000E+00  0.0000E+00  0.0000E+00  0.0000E+00  0.0000E+00  0.0000E+00  0.0000E+00  0.0000E+00  0.0000E+00  0.0000E+00  0.0000E+00  0.0000E+00  0.0000E+00  0.0000E+00
     -3.124  0.2943E-06  0.2951E-06  0.3008E-23  0.6388E-23  0.1259E-08  0.1263E-08  0.3008E-23  0.6388E-23  0.9882E-24  0.4164E-24  0.7163E-23  0.1329E-22  0.4393E-10  0.4400E-10  0.7163E-23  0.1329E-22  0.9561E-22  0.2680E-21
     -3.069  0.2001E-05  0.2006E-05  0.4336E-08  0.4348E-08  0.1387E-07  0.1391E-07  0.4336E-08  0.4348E-08  0.8130E-22  0.7063E-20  0.4956E-10  0.4973E-10  0.3307E-09  0.3313E-09  0.4956E-10  0.4973E-10  0.2424E-10  0.2430E-10
     -3.013  0.6890E-05  0.6909E-05  0.2275E-07  0.2282E-07  0.5740E-07  0.5757E-07  0.2275E-07  0.2282E-07  0.1442E-09  0.1446E-09  0.4231E-09  0.4244E-09  0.1153E-08  0.1155E-08  0.4231E-09  0.4244E-09  0.8810E-10  0.8833E-10
     -2.958  0.1978E-04  0.1983E-04  0.6617E-07  0.6635E-07  0.1658E-06  0.1663E-06  0.6617E-07  0.6635E-07  0.5272E-09  0.5286E-09  0.1352E-08  0.1356E-08  0.3281E-08  0.3287E-08  0.1352E-08  0.1356E-08  0.2275E-09  0.2281E-09
     -2.903  0.5829E-04  0.5845E-04  0.1886E-06  0.1891E-06  0.4808E-06  0.4822E-06  0.1886E-06  0.1891E-06  0.1360E-08  0.1364E-08  0.3693E-08  0.3704E-08  0.9683E-08  0.9700E-08  0.3693E-08  0.3704E-08  0.6866E-09  0.6885E-09
     -2.847  0.1753E-03  0.1758E-03  0.5949E-06  0.5965E-06  0.1484E-05  0.1488E-05  0.5949E-06  0.5965E-06  0.4107E-08  0.4118E-08  0.1146E-07  0.1150E-07  0.2986E-07  0.2991E-07  0.1146E-07  0.1150E-07  0.2674E-08  0.2681E-08
     -2.792  0.5082E-03  0.5094E-03  0.1852E-05  0.1857E-05  0.4465E-05  0.4477E-05  0.1852E-05  0.1857E-05  0.1427E-07  0.1431E-07  0.3753E-07  0.3765E-07  0.8802E-07  0.8816E-07  0.3753E-07  0.3765E-07  0.8939E-08  0.8962E-08
     -2.736  0.1344E-02  0.1347E-02  0.5311E-05  0.5324E-05  0.1232E-04  0.1235E-04  0.5311E-05  0.5324E-05  0.4404E-07  0.4416E-07  0.1112E-06  0.1115E-06  0.2347E-06  0.2350E-06  0.1112E-06  0.1115E-06  0.2492E-07  0.2498E-07
     -2.681  0.3065E-02  0.3070E-02  0.1387E-04  0.1390E-04  0.3028E-04  0.3035E-04  0.1387E-04  0.1390E-04  0.1226E-06  0.1229E-06  0.2991E-06  0.2999E-06  0.5460E-06  0.5465E-06  0.2991E-06  0.2999E-06  0.6466E-07  0.6481E-07
     -2.626  0.5701E-02  0.5708E-02  0.3116E-04  0.3121E-04  0.6310E-04  0.6321E-04  0.3116E-04  0.3121E-04  0.3223E-06  0.3230E-06  0.7266E-06  0.7283E-06  0.1055E-05  0.1055E-05  0.7266E-06  0.7283E-06  0.1487E-06  0.1490E-06
     -2.570  0.8401E-02  0.8407E-02  0.5708E-04  0.5715E-04  0.1075E-03  0.1076E-03  0.5708E-04  0.5715E-04  0.7077E-06  0.7088E-06  0.1475E-05  0.1478E-05  0.1669E-05  0.1669E-05  0.1475E-05  0.1478E-05  0.3084E-06  0.3089E-06
     -2.515  0.1013E-01  0.1013E-01  0.8857E-04  0.8866E-04  0.1557E-03  0.1559E-03  0.8857E-04  0.8866E-04  0.1288E-05  0.1290E-05  0.2521E-05  0.2525E-05  0.2357E-05  0.2357E-05  0.2521E-05  0.2525E-05  0.6513E-06  0.6525E-06
     -2.459  0.1146E-01  0.1146E-01  0.1326E-03  0.1327E-03  0.2196E-03  0.2198E-03  0.1326E-03  0.1327E-03  0.2171E-05  0.2174E-05  0.4107E-05  0.4113E-05  0.3451E-05  0.3452E-05  0.4107E-05  0.4113E-05  0.1388E-05  0.1390E-05
     -2.404  0.1411E-01  0.1412E-01  0.2052E-03  0.2054E-03  0.3258E-03  0.3262E-03  0.2052E-03  0.2054E-03  0.3909E-05  0.3915E-05  0.7049E-05  0.7060E-05  0.5249E-05  0.5251E-05  0.7049E-05  0.7060E-05  0.2525E-05  0.2528E-05
     -2.349  0.1733E-01  0.1733E-01  0.2893E-03  0.2895E-03  0.4495E-03  0.4498E-03  0.2893E-03  0.2895E-03  0.6641E-05  0.6648E-05  0.1128E-04  0.1129E-04  0.7021E-05  0.7021E-05  0.1128E-04  0.1129E-04  0.3517E-05  0.3518E-05
     -2.293  0.1780E-01  0.1779E-01  0.3290E-03  0.3290E-03  0.5136E-03  0.5138E-03  0.3290E-03  0.3290E-03  0.9106E-05  0.9110E-05  0.1476E-04  0.1477E-04  0.7637E-05  0.7634E-05  0.1476E-04  0.1477E-04  0.3827E-05  0.3827E-05
     -2.238  0.1573E-01  0.1573E-01  0.3302E-03  0.3303E-03  0.5385E-03  0.5387E-03  0.3302E-03  0.3303E-03  0.1099E-04  0.1100E-04  0.1747E-04  0.1749E-04  0.7916E-05  0.7916E-05  0.1747E-04  0.1749E-04  0.4117E-05  0.4119E-05
     -2.182  0.1583E-01  0.1584E-01  0.3952E-03  0.3956E-03  0.6602E-03  0.6608E-03  0.3952E-03  0.3956E-03  0.1517E-04  0.1519E-04  0.2406E-04  0.2409E-04  0.1034E-04  0.1034E-04  0.2406E-04  0.2409E-04  0.6023E-05  0.6031E-05
     -2.127  0.1917E-01  0.1918E-01  0.5575E-03  0.5579E-03  0.8576E-03  0.8581E-03  0.5575E-03  0.5579E-03  0.2219E-04  0.2221E-04  0.3485E-04  0.3489E-04  0.1548E-04  0.1549E-04  0.3485E-04  0.3489E-04  0.1053E-04  0.1054E-04
     -2.072  0.2153E-01  0.2153E-01  0.7155E-03  0.7158E-03  0.9324E-03  0.9324E-03  0.7155E-03  0.7158E-03  0.2765E-04  0.2766E-04  0.4256E-04  0.4258E-04  0.2109E-04  0.2110E-04  0.4256E-04  0.4258E-04  0.1676E-04  0.1678E-04
     -2.016  0.2115E-01  0.2115E-01  0.7947E-03  0.7948E-03  0.8922E-03  0.8922E-03  0.7947E-03  0.7948E-03  0.3110E-04  0.3111E-04  0.4674E-04  0.4676E-04  0.2473E-04  0.2472E-04  0.4674E-04  0.4676E-04  0.2158E-04  0.2158E-04
     -1.961  0.2043E-01  0.2043E-01  0.8222E-03  0.8222E-03  0.9724E-03  0.9728E-03  0.8222E-03  0.8222E-03  0.3761E-04  0.3764E-04  0.5652E-04  0.5656E-04  0.2582E-04  0.2581E-04  0.5652E-04  0.5656E-04  0.2204E-04  0.2203E-04
     -1.906  0.2074E-01  0.2074E-01  0.8658E-03  0.8660E-03  0.1180E-02  0.1181E-02  0.8658E-03  0.8660E-03  0.5018E-04  0.5022E-04  0.7308E-04  0.7313E-04  0.2652E-04  0.2652E-04  0.7308E-04  0.7313E-04  0.2041E-04  0.2040E-04
     -1.850  0.2165E-01  0.2165E-01  0.9856E-03  0.9860E-03  0.1287E-02  0.1287E-02  0.9856E-03  0.9860E-03  0.6910E-04  0.6915E-04  0.8854E-04  0.8857E-04  0.2929E-04  0.2929E-04  0.8854E-04  0.8857E-04  0.2164E-04  0.2165E-04
     -1.795  0.2159E-01  0.2159E-01  0.1096E-02  0.1096E-02  0.1233E-02  0.1232E-02  0.1096E-02  0.1096E-02  0.8476E-04  0.8478E-04  0.9697E-04  0.9698E-04  0.3199E-04  0.3198E-04  0.9697E-04  0.9698E-04  0.2486E-04  0.2486E-04
     -1.739  0.1972E-01  0.1972E-01  0.1070E-02  0.1070E-02  0.1199E-02  0.1199E-02  0.1070E-02  0.1070E-02  0.8234E-04  0.8231E-04  0.9931E-04  0.9932E-04  0.3302E-04  0.3302E-04  0.9931E-04  0.9932E-04  0.2782E-04  0.2783E-04
     -1.684  0.1898E-01  0.1899E-01  0.1090E-02  0.1091E-02  0.1375E-02  0.1376E-02  0.1090E-02  0.1091E-02  0.7596E-04  0.7596E-04  0.1105E-03  0.1106E-03  0.3973E-04  0.3975E-04  0.1105E-03  0.1106E-03  0.3678E-04  0.3681E-04
     -1.629  0.2212E-01  0.2213E-01  0.1392E-02  0.1393E-02  0.1768E-02  0.1769E-02  0.1392E-02  0.1393E-02  0.9346E-04  0.9354E-04  0.1411E-03  0.1412E-03  0.5943E-04  0.5948E-04  0.1411E-03  0.1412E-03  0.5654E-04  0.5660E-04
     -1.573  0.2585E-01  0.2585E-01  0.1755E-02  0.1756E-02  0.2137E-02  0.2138E-02  0.1755E-02  0.1756E-02  0.1282E-03  0.1282E-03  0.1694E-03  0.1695E-03  0.8386E-04  0.8389E-04  0.1694E-03  0.1695E-03  0.7522E-04  0.7524E-04
     -1.518  0.2601E-01  0.2600E-01  0.1860E-02  0.1860E-02  0.2231E-02  0.2231E-02  0.1860E-02  0.1860E-02  0.1580E-03  0.1581E-03  0.1762E-03  0.1762E-03  0.9607E-04  0.9605E-04  0.1762E-03  0.1762E-03  0.7788E-04  0.7786E-04
     -1.462  0.2451E-01  0.2450E-01  0.1852E-02  0.1852E-02  0.2204E-02  0.2204E-02  0.1852E-02  0.1852E-02  0.1834E-03  0.1834E-03  0.1909E-03  0.1910E-03  0.9415E-04  0.9412E-04  0.1909E-03  0.1910E-03  0.7316E-04  0.7315E-04
     -1.407  0.2540E-01  0.2541E-01  0.2031E-02  0.2031E-02  0.2449E-02  0.2450E-02  0.2031E-02  0.2031E-02  0.2137E-03  0.2137E-03  0.2457E-03  0.2459E-03  0.9418E-04  0.9417E-04  0.2457E-03  0.2459E-03  0.7944E-04  0.7946E-04
     -1.352  0.2704E-01  0.2704E-01  0.2220E-02  0.2220E-02  0.2839E-02  0.2839E-02  0.2220E-02  0.2220E-02  0.2405E-03  0.2405E-03  0.3037E-03  0.3038E-03  0.9835E-04  0.9833E-04  0.3037E-03  0.3038E-03  0.8656E-04  0.8654E-04
     -1.296  0.2417E-01  0.2416E-01  0.2020E-02  0.2019E-02  0.2747E-02  0.2746E-02  0.2020E-02  0.2019E-02  0.2341E-03  0.2340E-03  0.3024E-03  0.3024E-03  0.8877E-04  0.8870E-04  0.3024E-03  0.3024E-03  0.7515E-04  0.7509E-04
     -1.241  0.1894E-01  0.1893E-01  0.1692E-02  0.1692E-02  0.2303E-02  0.2302E-02  0.1692E-02  0.1692E-02  0.2139E-03  0.2139E-03  0.2784E-03  0.2784E-03  0.7070E-04  0.7065E-04  0.2784E-03  0.2784E-03  0.6129E-04  0.6128E-04
     -1.185  0.1813E-01  0.1813E-01  0.1821E-02  0.1823E-02  0.2365E-02  0.2366E-02  0.1821E-02  0.1823E-02  0.2457E-03  0.2459E-03  0.3157E-03  0.3159E-03  0.7541E-04  0.7545E-04  0.3157E-03  0.3159E-03  0.7047E-04  0.7052E-04
     -1.130  0.2163E-01  0.2164E-01  0.2363E-02  0.2365E-02  0.3080E-02  0.3082E-02  0.2363E-02  0.2365E-02  0.3338E-03  0.3340E-03  0.3923E-03  0.3924E-03  0.1167E-03  0.1168E-03  0.3923E-03  0.3924E-03  0.1012E-03  0.1013E-03
     -1.075  0.2545E-01  0.2546E-01  0.2967E-02  0.2968E-02  0.3944E-02  0.3946E-02  0.2967E-02  0.2968E-02  0.4223E-03  0.4225E-03  0.4489E-03  0.4490E-03  0.1787E-03  0.1788E-03  0.4489E-03  0.4490E-03  0.1447E-03  0.1448E-03
     -1.019  0.2750E-01  0.2750E-01  0.3385E-02  0.3385E-02  0.4553E-02  0.4554E-02  0.3385E-02  0.3385E-02  0.4565E-03  0.4565E-03  0.4970E-03  0.4971E-03  0.2205E-03  0.2205E-03  0.4970E-03  0.4971E-03  0.1867E-03  0.1868E-03
     -0.964  0.2641E-01  0.2640E-01  0.3408E-02  0.3408E-02  0.4593E-02  0.4592E-02  0.3408E-02  0.3408E-02  0.4365E-03  0.4365E-03  0.5364E-03  0.5364E-03  0.2134E-03  0.2133E-03  0.5364E-03  0.5364E-03  0.2016E-03  0.2015E-03
     -0.909  0.2483E-01  0.2483E-01  0.3385E-02  0.3385E-02  0.4560E-02  0.4561E-02  0.3385E-02  0.3385E-02  0.4627E-03  0.4629E-03  0.5930E-03  0.5932E-03  0.1956E-03  0.1956E-03  0.5930E-03  0.5932E-03  0.1969E-03  0.1969E-03
     -0.853  0.2559E-01  0.2559E-01  0.3678E-02  0.3678E-02  0.5094E-02  0.5096E-02  0.3678E-02  0.3678E-02  0.5568E-03  0.5570E-03  0.6988E-03  0.6990E-03  0.2074E-03  0.2074E-03  0.6988E-03  0.6990E-03  0.2036E-03  0.2036E-03
     -0.798  0.2472E-01  0.2471E-01  0.3726E-02  0.3725E-02  0.5369E-02  0.5369E-02  0.3726E-02  0.3725E-02  0.5923E-03  0.5922E-03  0.7454E-03  0.7453E-03  0.2092E-03  0.2091E-03  0.7454E-03  0.7453E-03  0.2037E-03  0.2036E-03
     -0.742  0.2065E-01  0.2064E-01  0.3299E-02  0.3298E-02  0.5035E-02  0.5035E-02  0.3299E-02  0.3298E-02  0.5744E-03  0.5744E-03  0.7194E-03  0.7195E-03  0.1728E-03  0.1727E-03  0.7194E-03  0.7195E-03  0.1733E-03  0.1732E-03
     -0.687  0.1886E-01  0.1887E-01  0.3226E-02  0.3227E-02  0.5353E-02  0.5355E-02  0.3226E-02  0.3227E-02  0.6578E-03  0.6582E-03  0.8229E-03  0.8235E-03  0.1511E-03  0.1511E-03  0.8229E-03  0.8235E-03  0.1515E-03  0.1514E-03