  16  16   1   0
  0.1190417E+02  0.3544994E-09  0.3544994E-09  0.1515612E-08  0.5000000E-15
  1.000000000000000E-004
  CAR 
 unknown system                          
     14.89058913     -2.90310389  301      9.99535278      1.00000000
     -2.903  0.0000E+00  0.0000E+00  0.0000E+00  0.0000E+00
     -2.844  0.0000E+00  0.0000E+00  0.0000E+00  0.0000E+00
     -2.784  0.0000E+00  0.0000E+00  0.0000E+00  0.0000E+00
     -2.725  0.0000E+00  0.0000E+00  0.0000E+00  0.0000E+00
     -2.666  0.0000E+00  0.0000E+00  0.0000E+00  0.0000E+00
     -2.607  0.0000E+00  0.0000E+00  0.0000E+00  0.0000E+00
     -2.547  0.3870E-05  0.3840E-05  0.2295E-06  0.2277E-06
     -2.488  0.8800E-05  0.8731E-05  0.7515E-06  0.7456E-06
     -2.429  0.8673E-04  0.8605E-04  0.5896E-05  0.5850E-05
     -2.369  0.3144E-03  0.3120E-03  0.2455E-04  0.2435E-04
     -2.310  0.9815E-03  0.9739E-03  0.8276E-04  0.8212E-04
     -2.251  0.3143E-02  0.3119E-02  0.2692E-03  0.2671E-03
     -2.191  0.9843E-02  0.9772E-02  0.8530E-03  0.8467E-03
     -2.132  0.2805E-01  0.2787E-01  0.2517E-02  0.2500E-02
     -2.073  0.6844E-01  0.6808E-01  0.6576E-02  0.6538E-02
     -2.013  0.1334E+00  0.1329E+00  0.1449E-01  0.1442E-01
     -1.954  0.2024E+00  0.2020E+00  0.2649E-01  0.2640E-01
     -1.895  0.2444E+00  0.2442E+00  0.4099E-01  0.4089E-01
     -1.835  0.2705E+00  0.2702E+00  0.5703E-01  0.5692E-01
     -1.776  0.3351E+00  0.3345E+00  0.7691E-01  0.7676E-01
     -1.717  0.4357E+00  0.4352E+00  0.1027E+00  0.1026E+00
     -1.658  0.4695E+00  0.4697E+00  0.1306E+00  0.1304E+00
     -1.598  0.4065E+00  0.4070E+00  0.1547E+00  0.1546E+00
     -1.539  0.3819E+00  0.3817E+00  0.1774E+00  0.1772E+00
     -1.480  0.4797E+00  0.4790E+00  0.2058E+00  0.2056E+00
     -1.420  0.5839E+00  0.5835E+00  0.2405E+00  0.2403E+00
     -1.361  0.5933E+00  0.5934E+00  0.2757E+00  0.2755E+00
     -1.302  0.5688E+00  0.5688E+00  0.3094E+00  0.3092E+00
     -1.242  0.5763E+00  0.5762E+00  0.3437E+00  0.3434E+00
     -1.183  0.6165E+00  0.6162E+00  0.3802E+00  0.3800E+00
     -1.124  0.6484E+00  0.6484E+00  0.4187E+00  0.4184E+00
     -1.064  0.6157E+00  0.6160E+00  0.4552E+00  0.4550E+00
     -1.005  0.5562E+00  0.5563E+00  0.4882E+00  0.4880E+00
     -0.946  0.6159E+00  0.6151E+00  0.5248E+00  0.5245E+00
     -0.886  0.7798E+00  0.7789E+00  0.5711E+00  0.5707E+00
     -0.827  0.8706E+00  0.8705E+00  0.6227E+00  0.6224E+00
     -0.768  0.8290E+00  0.8293E+00  0.6719E+00  0.6716E+00
     -0.709  0.8156E+00  0.8153E+00  0.7203E+00  0.7200E+00
     -0.649  0.9212E+00  0.9204E+00  0.7750E+00  0.7746E+00
     -0.590  0.9459E+00  0.9466E+00  0.8311E+00  0.8307E+00
     -0.531  0.7547E+00  0.7562E+00  0.8759E+00  0.8756E+00
     -0.471  0.6144E+00  0.6145E+00  0.9124E+00  0.9121E+00
     -0.412  0.7159E+00  0.7147E+00  0.9549E+00  0.9546E+00
     -0.353  0.9150E+00  0.9138E+00  0.1009E+01  0.1009E+01
     -0.293  0.1093E+01  0.1092E+01  0.1074E+01  0.1074E+01
     -0.234  0.1162E+01  0.1162E+01  0.1143E+01  0.1143E+01
     -0.175  0.1093E+01  0.1093E+01  0.1208E+01  0.1207E+01
     -0.115  0.1098E+01  0.1098E+01  0.1273E+01  0.1273E+01
     -0.056  0.1199E+01  0.1199E+01  0.1344E+01  0.1344E+01
      0.003  0.1121E+01  0.1122E+01  0.1411E+01  0.1410E+01
      0.063  0.9598E+00  0.9604E+00  0.1468E+01  0.1467E+01
      0.122  0.1023E+01  0.1022E+01  0.1528E+01  0.1528E+01
      0.181  0.1194E+01  0.1194E+01  0.1599E+01  0.1599E+01
      0.240  0.1237E+01  0.1237E+01  0.1673E+01  0.1672E+01
      0.300  0.1226E+01  0.1226E+01  0.1745E+01  0.1745E+01
      0.359  0.1262E+01  0.1261E+01  0.1820E+01  0.1820E+01
      0.418  0.1308E+01  0.1308E+01  0.1898E+01  0.1897E+01
      0.478  0.1266E+01  0.1266E+01  0.1973E+01  0.1973E+01
      0.537  0.1194E+01  0.1195E+01  0.2044E+01  0.2043E+01
      0.596  0.1302E+01  0.1301E+01  0.2121E+01  0.2121E+01
      0.656  0.1520E+01  0.1518E+01  0.2211E+01  0.2211E+01
      0.715  0.1584E+01  0.1584E+01  0.2305E+01  0.2305E+01
      0.774  0.1411E+01  0.1413E+01  0.2389E+01  0.2389E+01
      0.834  0.1211E+01  0.1211E+01  0.2461E+01  0.2460E+01
      0.893  0.1156E+01  0.1156E+01  0.2529E+01  0.2529E+01
      0.952  0.1071E+01  0.1072E+01  0.2593E+01  0.2593E+01
      1.012  0.9434E+00  0.9440E+00  0.2649E+01  0.2649E+01
      1.071  0.9598E+00  0.9589E+00  0.2706E+01  0.2706E+01
      1.130  0.1146E+01  0.1145E+01  0.2774E+01  0.2774E+01
      1.189  0.1337E+01  0.1337E+01  0.2853E+01  0.2853E+01
      1.249  0.1359E+01  0.1360E+01  0.2934E+01  0.2934E+01
      1.308  0.1284E+01  0.1285E+01  0.3010E+01  0.3010E+01
      1.367  0.1292E+01  0.1292E+01  0.3087E+01  0.3086E+01
      1.427  0.1337E+01  0.1337E+01  0.3166E+01  0.3166E+01
      1.486  0.1227E+01  0.1228E+01  0.3239E+01  0.3239E+01
      1.545  0.1078E+01  0.1078E+01  0.3303E+01  0.3303E+01
      1.605  0.1203E+01  0.1201E+01  0.3375E+01  0.3374E+01
      1.664  0.1502E+01  0.1500E+01  0.3464E+01  0.3463E+01
      1.723  0.1588E+01  0.1588E+01  0.3558E+01  0.3557E+01
      1.783  0.1462E+01  0.1463E+01  0.3645E+01  0.3644E+01
      1.842  0.1347E+01  0.1348E+01  0.3725E+01  0.3724E+01
      1.901  0.1321E+01  0.1321E+01  0.3803E+01  0.3803E+01
      1.961  0.1341E+01  0.1341E+01  0.3883E+01  0.3882E+01
      2.020  0.1334E+01  0.1334E+01  0.3962E+01  0.3961E+01
      2.079  0.1300E+01  0.1300E+01  0.4039E+01  0.4038E+01
      2.138  0.1306E+01  0.1306E+01  0.4117E+01  0.4116E+01
      2.198  0.1305E+01  0.1305E+01  0.4194E+01  0.4193E+01
      2.257  0.1243E+01  0.1244E+01  0.4268E+01  0.4267E+01
      2.316  0.1242E+01  0.1241E+01  0.4341E+01  0.4341E+01
      2.376  0.1380E+01  0.1379E+01  0.4423E+01  0.4423E+01
      2.435  0.1530E+01  0.1529E+01  0.4514E+01  0.4514E+01
      2.494  0.1642E+01  0.1641E+01  0.4612E+01  0.4611E+01
      2.554  0.1830E+01  0.1828E+01  0.4720E+01  0.4719E+01
      2.613  0.2028E+01  0.2027E+01  0.4841E+01  0.4840E+01
      2.672  0.2041E+01  0.2042E+01  0.4962E+01  0.4961E+01
      2.732  0.1895E+01  0.1896E+01  0.5074E+01  0.5073E+01
      2.791  0.1821E+01  0.1822E+01  0.5182E+01  0.5181E+01
      2.850  0.1837E+01  0.1837E+01  0.5291E+01  0.5290E+01
      2.910  0.1827E+01  0.1827E+01  0.5400E+01  0.5399E+01
      2.969  0.1721E+01  0.1721E+01  0.5502E+01  0.5501E+01
      3.028  0.1599E+01  0.1599E+01  0.5597E+01  0.5596E+01
      3.087  0.1547E+01  0.1547E+01  0.5688E+01  0.5688E+01
      3.147  0.1559E+01  0.1558E+01  0.5781E+01  0.5780E+01
      3.206  0.1697E+01  0.1696E+01  0.5882E+01  0.5881E+01
      3.265  0.1881E+01  0.1880E+01  0.5993E+01  0.5993E+01
      3.325  0.1929E+01  0.1930E+01  0.6108E+01  0.6107E+01
      3.384  0.1792E+01  0.1793E+01  0.6214E+01  0.6213E+01
      3.443  0.1605E+01  0.1606E+01  0.6309E+01  0.6309E+01
      3.503  0.1576E+01  0.1576E+01  0.6403E+01  0.6402E+01
      3.562  0.1632E+01  0.1631E+01  0.6500E+01  0.6499E+01
      3.621  0.1680E+01  0.1680E+01  0.6600E+01  0.6599E+01
      3.681  0.1789E+01  0.1788E+01  0.6706E+01  0.6705E+01
      3.740  0.1990E+01  0.1988E+01  0.6824E+01  0.6823E+01
      3.799  0.2076E+01  0.2077E+01  0.6947E+01  0.6946E+01
      3.858  0.1840E+01  0.1842E+01  0.7056E+01  0.7056E+01
      3.918  0.1525E+01  0.1526E+01  0.7147E+01  0.7146E+01
      3.977  0.1554E+01  0.1553E+01  0.7239E+01  0.7238E+01
      4.036  0.1793E+01  0.1791E+01  0.7345E+01  0.7345E+01
      4.096  0.1887E+01  0.1887E+01  0.7457E+01  0.7457E+01
      4.155  0.1787E+01  0.1789E+01  0.7563E+01  0.7563E+01
      4.214  0.1535E+01  0.1536E+01  0.7655E+01  0.7654E+01
      4.274  0.1432E+01  0.1431E+01  0.7740E+01  0.7739E+01
      4.333  0.1558E+01  0.1556E+01  0.7832E+01  0.7831E+01
      4.392  0.1750E+01  0.1749E+01  0.7936E+01  0.7935E+01
      4.452  0.2061E+01  0.2059E+01  0.8058E+01  0.8057E+01
      4.511  0.2436E+01  0.2433E+01  0.8203E+01  0.8202E+01
      4.570  0.2733E+01  0.2731E+01  0.8365E+01  0.8364E+01
      4.630  0.2841E+01  0.2842E+01  0.8534E+01  0.8532E+01
      4.689  0.2637E+01  0.2639E+01  0.8690E+01  0.8689E+01
      4.748  0.2472E+01  0.2472E+01  0.8837E+01  0.8836E+01
      4.807  0.2649E+01  0.2647E+01  0.8994E+01  0.8993E+01
      4.867  0.2730E+01  0.2731E+01  0.9156E+01  0.9155E+01
      4.926  0.2500E+01  0.2501E+01  0.9304E+01  0.9303E+01
      4.985  0.2406E+01  0.2406E+01  0.9447E+01  0.9446E+01
      5.045  0.2473E+01  0.2473E+01  0.9594E+01  0.9593E+01
      5.104  0.2356E+01  0.2357E+01  0.9734E+01  0.9733E+01
      5.163  0.2055E+01  0.2056E+01  0.9856E+01  0.9855E+01
      5.223  0.1891E+01  0.1891E+01  0.9968E+01  0.9967E+01
      5.282  0.1900E+01  0.1900E+01  0.1008E+02  0.1008E+02
      5.341  0.1830E+01  0.1830E+01  0.1019E+02  0.1019E+02
      5.401  0.1885E+01  0.1883E+01  0.1030E+02  0.1030E+02
      5.460  0.2210E+01  0.2208E+01  0.1043E+02  0.1043E+02
      5.519  0.2440E+01  0.2438E+01  0.1058E+02  0.1058E+02
      5.579  0.2699E+01  0.2697E+01  0.1074E+02  0.1074E+02
      5.638  0.3000E+01  0.2998E+01  0.1092E+02  0.1091E+02
      5.697  0.2919E+01  0.2921E+01  0.1109E+02  0.1109E+02
      5.756  0.2617E+01  0.2619E+01  0.1124E+02  0.1124E+02
      5.816  0.2498E+01  0.2498E+01  0.1139E+02  0.1139E+02
      5.875  0.2525E+01  0.2525E+01  0.1154E+02  0.1154E+02
      5.934  0.2639E+01  0.2638E+01  0.1170E+02  0.1170E+02
      5.994  0.2831E+01  0.2830E+01  0.1187E+02  0.1187E+02
      6.053  0.2924E+01  0.2924E+01  0.1204E+02  0.1204E+02
      6.112  0.2959E+01  0.2958E+01  0.1222E+02  0.1221E+02
      6.172  0.2994E+01  0.2994E+01  0.1239E+02  0.1239E+02
      6.231  0.2874E+01  0.2875E+01  0.1256E+02  0.1256E+02
      6.290  0.2905E+01  0.2904E+01  0.1274E+02  0.1273E+02
      6.350  0.3197E+01  0.3194E+01  0.1293E+02  0.1292E+02
      6.409  0.3570E+01  0.3567E+01  0.1314E+02  0.1314E+02
      6.468  0.3754E+01  0.3754E+01  0.1336E+02  0.1336E+02
      6.528  0.3726E+01  0.3726E+01  0.1358E+02  0.1358E+02
      6.587  0.3684E+01  0.3684E+01  0.1380E+02  0.1380E+02
      6.646  0.3714E+01  0.3714E+01  0.1402E+02  0.1402E+02
      6.705  0.3683E+01  0.3684E+01  0.1424E+02  0.1424E+02
      6.765  0.3490E+01  0.3491E+01  0.1445E+02  0.1444E+02
      6.824  0.3475E+01  0.3474E+01  0.1465E+02  0.1465E+02
      6.883  0.3684E+01  0.3682E+01  0.1487E+02  0.1487E+02
      6.943  0.3898E+01  0.3896E+01  0.1510E+02  0.1510E+02
      7.002  0.3972E+01  0.3971E+01  0.1534E+02  0.1534E+02
      7.061  0.4013E+01  0.4013E+01  0.1558E+02  0.1557E+02
      7.121  0.3924E+01  0.3925E+01  0.1581E+02  0.1581E+02
      7.180  0.3754E+01  0.3755E+01  0.1603E+02  0.1603E+02
      7.239  0.3533E+01  0.3535E+01  0.1624E+02  0.1624E+02
      7.299  0.3279E+01  0.3280E+01  0.1644E+02  0.1643E+02
      7.358  0.3230E+01  0.3229E+01  0.1663E+02  0.1663E+02
      7.417  0.3314E+01  0.3314E+01  0.1682E+02  0.1682E+02
      7.477  0.3232E+01  0.3233E+01  0.1702E+02  0.1702E+02
      7.536  0.3187E+01  0.3186E+01  0.1721E+02  0.1720E+02
      7.595  0.3252E+01  0.3251E+01  0.1740E+02  0.1740E+02
      7.654  0.3230E+01  0.3230E+01  0.1759E+02  0.1759E+02
      7.714  0.3241E+01  0.3240E+01  0.1778E+02  0.1778E+02
      7.773  0.3337E+01  0.3336E+01  0.1798E+02  0.1798E+02
      7.832  0.3574E+01  0.3571E+01  0.1819E+02  0.1819E+02
      7.892  0.4006E+01  0.4001E+01  0.1843E+02  0.1843E+02
      7.951  0.4502E+01  0.4497E+01  0.1870E+02  0.1870E+02
      8.010  0.4853E+01  0.4851E+01  0.1899E+02  0.1898E+02
      8.070  0.4919E+01  0.4920E+01  0.1928E+02  0.1928E+02
      8.129  0.4832E+01  0.4832E+01  0.1956E+02  0.1956E+02
      8.188  0.4967E+01  0.4964E+01  0.1986E+02  0.1986E+02
      8.248  0.5332E+01  0.5327E+01  0.2018E+02  0.2017E+02
      8.307  0.5777E+01  0.5773E+01  0.2052E+02  0.2051E+02
      8.366  0.6127E+01  0.6125E+01  0.2088E+02  0.2088E+02
      8.426  0.6135E+01  0.6136E+01  0.2125E+02  0.2124E+02
      8.485  0.5611E+01  0.5618E+01  0.2158E+02  0.2158E+02
      8.544  0.4673E+01  0.4682E+01  0.2186E+02  0.2185E+02
      8.603  0.3930E+01  0.3935E+01  0.2209E+02  0.2209E+02
      8.663  0.3547E+01  0.3550E+01  0.2230E+02  0.2230E+02
      8.722  0.3303E+01  0.3304E+01  0.2250E+02  0.2249E+02
      8.781  0.3228E+01  0.3228E+01  0.2269E+02  0.2269E+02
      8.841  0.3093E+01  0.3095E+01  0.2287E+02  0.2287E+02
      8.900  0.2908E+01  0.2907E+01  0.2304E+02  0.2304E+02
      8.959  0.3163E+01  0.3157E+01  0.2323E+02  0.2323E+02
      9.019  0.3701E+01  0.3696E+01  0.2345E+02  0.2345E+02
      9.078  0.3891E+01  0.3892E+01  0.2368E+02  0.2368E+02
      9.137  0.3709E+01  0.3712E+01  0.2390E+02  0.2390E+02
      9.197  0.3557E+01  0.3557E+01  0.2411E+02  0.2411E+02
      9.256  0.3458E+01  0.3459E+01  0.2432E+02  0.2432E+02
      9.315  0.3187E+01  0.3191E+01  0.2451E+02  0.2451E+02
      9.375  0.2748E+01  0.2753E+01  0.2467E+02  0.2467E+02
      9.434  0.2377E+01  0.2380E+01  0.2481E+02  0.2481E+02
      9.493  0.2121E+01  0.2124E+01  0.2494E+02  0.2494E+02
      9.552  0.1981E+01  0.1982E+01  0.2506E+02  0.2505E+02
      9.612  0.2003E+01  0.2002E+01  0.2518E+02  0.2517E+02
      9.671  0.2082E+01  0.2082E+01  0.2530E+02  0.2530E+02
      9.730  0.2147E+01  0.2146E+01  0.2543E+02  0.2542E+02
      9.790  0.2212E+01  0.2212E+01  0.2556E+02  0.2556E+02
      9.849  0.2166E+01  0.2166E+01  0.2569E+02  0.2568E+02
      9.908  0.2058E+01  0.2058E+01  0.2581E+02  0.2581E+02
      9.968  0.2145E+01  0.2143E+01  0.2594E+02  0.2593E+02
     10.027  0.2417E+01  0.2415E+01  0.2608E+02  0.2608E+02
     10.086  0.2417E+01  0.2420E+01  0.2622E+02  0.2622E+02
     10.146  0.2134E+01  0.2138E+01  0.2635E+02  0.2635E+02
     10.205  0.2088E+01  0.2086E+01  0.2647E+02  0.2647E+02
     10.264  0.2417E+01  0.2412E+01  0.2662E+02  0.2661E+02
     10.324  0.2745E+01  0.2743E+01  0.2678E+02  0.2678E+02
     10.383  0.2749E+01  0.2751E+01  0.2694E+02  0.2694E+02
     10.442  0.2553E+01  0.2555E+01  0.2709E+02  0.2709E+02
     10.501  0.2494E+01  0.2495E+01  0.2724E+02  0.2724E+02
     10.561  0.2545E+01  0.2545E+01  0.2739E+02  0.2739E+02
     10.620  0.2641E+01  0.2640E+01  0.2755E+02  0.2755E+02
     10.679  0.2629E+01  0.2630E+01  0.2771E+02  0.2770E+02
     10.739  0.2397E+01  0.2399E+01  0.2785E+02  0.2785E+02
     10.798  0.2248E+01  0.2248E+01  0.2798E+02  0.2798E+02
     10.857  0.2335E+01  0.2334E+01  0.2812E+02  0.2812E+02
     10.917  0.2481E+01  0.2480E+01  0.2827E+02  0.2827E+02
     10.976  0.2644E+01  0.2642E+01  0.2842E+02  0.2842E+02
     11.035  0.2860E+01  0.2857E+01  0.2859E+02  0.2859E+02
     11.095  0.3003E+01  0.3003E+01  0.2877E+02  0.2877E+02
     11.154  0.3042E+01  0.3043E+01  0.2895E+02  0.2895E+02
     11.213  0.3155E+01  0.3154E+01  0.2914E+02  0.2914E+02
     11.273  0.3544E+01  0.3539E+01  0.2935E+02  0.2935E+02
     11.332  0.4345E+01  0.4336E+01  0.2961E+02  0.2961E+02
     11.391  0.5385E+01  0.5376E+01  0.2993E+02  0.2992E+02
     11.450  0.6030E+01  0.6027E+01  0.3029E+02  0.3028E+02
     11.510  0.6113E+01  0.6114E+01  0.3065E+02  0.3064E+02
     11.569  0.5932E+01  0.5935E+01  0.3100E+02  0.3100E+02
     11.628  0.5772E+01  0.5774E+01  0.3134E+02  0.3134E+02
     11.688  0.5797E+01  0.5797E+01  0.3169E+02  0.3168E+02
     11.747  0.6125E+01  0.6120E+01  0.3205E+02  0.3205E+02
     11.806  0.6823E+01  0.6816E+01  0.3245E+02  0.3245E+02
     11.866  0.7518E+01  0.7513E+01  0.3290E+02  0.3290E+02
     11.925  0.7836E+01  0.7836E+01  0.3337E+02  0.3336E+02
     11.984  0.8084E+01  0.8083E+01  0.3385E+02  0.3384E+02
     12.044  0.8552E+01  0.8550E+01  0.3435E+02  0.3435E+02
     12.103  0.8522E+01  0.8527E+01  0.3486E+02  0.3485E+02
     12.162  0.7453E+01  0.7465E+01  0.3530E+02  0.3530E+02
     12.222  0.5917E+01  0.5928E+01  0.3565E+02  0.3565E+02
     12.281  0.4661E+01  0.4670E+01  0.3593E+02  0.3593E+02
     12.340  0.3592E+01  0.3602E+01  0.3614E+02  0.3614E+02
     12.399  0.2658E+01  0.2670E+01  0.3630E+02  0.3630E+02
     12.459  0.2121E+01  0.2136E+01  0.3643E+02  0.3643E+02
     12.518  0.2181E+01  0.2194E+01  0.3656E+02  0.3656E+02
     12.577  0.2868E+01  0.2867E+01  0.3673E+02  0.3673E+02
     12.637  0.3747E+01  0.3748E+01  0.3695E+02  0.3695E+02
     12.696  0.4026E+01  0.4037E+01  0.3719E+02  0.3719E+02
     12.755  0.3753E+01  0.3744E+01  0.3741E+02  0.3741E+02
     12.815  0.3511E+01  0.3489E+01  0.3762E+02  0.3762E+02
     12.874  0.3350E+01  0.3339E+01  0.3782E+02  0.3782E+02
     12.933  0.3329E+01  0.3327E+01  0.3802E+02  0.3801E+02
     12.993  0.3541E+01  0.3552E+01  0.3823E+02  0.3823E+02
     13.052  0.3629E+01  0.3672E+01  0.3844E+02  0.3844E+02
     13.111  0.3454E+01  0.3517E+01  0.3865E+02  0.3865E+02
     13.171  0.3205E+01  0.3243E+01  0.3884E+02  0.3884E+02
     13.230  0.2805E+01  0.2835E+01  0.3900E+02  0.3901E+02
     13.289  0.2347E+01  0.2346E+01  0.3914E+02  0.3915E+02
     13.348  0.2060E+01  0.2011E+01  0.3926E+02  0.3927E+02
     13.408  0.1876E+01  0.1821E+01  0.3938E+02  0.3938E+02
     13.467  0.1758E+01  0.1728E+01  0.3948E+02  0.3948E+02
     13.526  0.1678E+01  0.1638E+01  0.3958E+02  0.3958E+02
     13.586  0.1538E+01  0.1465E+01  0.3967E+02  0.3967E+02
     13.645  0.1359E+01  0.1326E+01  0.3975E+02  0.3975E+02
     13.704  0.1202E+01  0.1243E+01  0.3982E+02  0.3982E+02
     13.764  0.1013E+01  0.1106E+01  0.3988E+02  0.3988E+02
     13.823  0.7619E+00  0.8641E+00  0.3993E+02  0.3994E+02
     13.882  0.4722E+00  0.5469E+00  0.3996E+02  0.3997E+02
     13.942  0.2666E+00  0.2992E+00  0.3997E+02  0.3999E+02
     14.001  0.1566E+00  0.1444E+00  0.3998E+02  0.3999E+02
     14.060  0.1122E+00  0.5647E-01  0.3999E+02  0.4000E+02
     14.120  0.9342E-01  0.1878E-01  0.3999E+02  0.4000E+02
     14.179  0.5686E-01  0.5196E-02  0.4000E+02  0.4000E+02
     14.238  0.2353E-01  0.1263E-02  0.4000E+02  0.4000E+02
     14.297  0.8012E-02  0.3412E-03  0.4000E+02  0.4000E+02
     14.357  0.2431E-02  0.0000E+00  0.4000E+02  0.4000E+02
     14.416  0.7513E-03  0.0000E+00  0.4000E+02  0.4000E+02
     14.475  0.2303E-03  0.0000E+00  0.4000E+02  0.4000E+02
     14.535  0.0000E+00  0.0000E+00  0.4000E+02  0.4000E+02
     14.594  0.0000E+00  0.0000E+00  0.4000E+02  0.4000E+02
     14.653  0.0000E+00  0.0000E+00  0.4000E+02  0.4000E+02
     14.713  0.0000E+00  0.0000E+00  0.4000E+02  0.4000E+02
     14.772  0.0000E+00  0.0000E+00  0.4000E+02  0.4000E+02
     14.831  0.0000E+00  0.0000E+00  0.4000E+02  0.4000E+02
     14.891  0.0000E+00  0.0000E+00  0.4000E+02  0.4000E+02
     14.89058913     -2.90310389  301      9.99535278      1.00000000
     -2.903  0.0000E+00  0.0000E+00  0.0000E+00  0.0000E+00  0.0000E+00  0.0000E+00  0.0000E+00  0.0000E+00  0.0000E+00  0.0000E+00  0.0000E+00  0.0000E+00  0.0000E+00  0.0000E+00  0.0000E+00  0.0000E+00  0.0000E+00  0.0000E+00
     -2.844  0.0000E+00  0.0000E+00  0.0000E+00  0.0000E+00  0.0000E+00  0.0000E+00  0.0000E+00  0.0000E+00  0.0000E+00  0.0000E+00  0.0000E+00  0.0000E+00  0.0000E+00  0.0000E+00  0.0000E+00  0.0000E+00  0.0000E+00  0.0000E+00
     -2.784  0.0000E+00  0.0000E+00  0.0000E+00  0.0000E+00  0.0000E+00  0.0000E+00  0.0000E+00  0.0000E+00  0.0000E+00  0.0000E+00  0.0000E+00  0.0000E+00  0.0000E+00  0.0000E+00  0.0000E+00  0.0000E+00  0.0000E+00  0.0000E+00
     -2.725  0.0000E+00  0.0000E+00  0.0000E+00  0.0000E+00  0.0000E+00  0.0000E+00  0.0000E+00  0.0000E+00  0.0000E+00  0.0000E+00  0.0000E+00  0.0000E+00  0.0000E+00  0.0000E+00  0.0000E+00  0.0000E+00  0.0000E+00  0.0000E+00
     -2.666  0.0000E+00  0.0000E+00  0.0000E+00  0.0000E+00  0.0000E+00  0.0000E+00  0.0000E+00  0.0000E+00  0.0000E+00  0.0000E+00  0.0000E+00  0.0000E+00  0.0000E+00  0.0000E+00  0.0000E+00  0.0000E+00  0.0000E+00  0.0000E+00
     -2.607  0.0000E+00  0.0000E+00  0.0000E+00  0.0000E+00  0.0000E+00  0.0000E+00  0.0000E+00  0.0000E+00  0.0000E+00  0.0000E+00  0.0000E+00  0.0000E+00  0.0000E+00  0.0000E+00  0.0000E+00  0.0000E+00  0.0000E+00  0.0000E+00
     -2.547  0.1837E-06  0.1823E-06  0.1312E-23  0.6122E-22  0.6710E-09  0.6670E-09  0.1312E-23  0.6122E-22  0.1395E-22  0.1566E-23  0.1085E-19  0.7022E-20  0.4719E-10  0.4678E-10  0.1085E-19  0.7022E-20  0.8047E-19  0.1213E-18
     -2.488  0.4178E-06  0.4145E-06  0.2984E-23  0.1392E-21  0.1526E-08  0.1517E-08  0.2984E-23  0.1392E-21  0.3171E-22  0.3561E-23  0.2466E-19  0.1597E-19  0.1073E-09  0.1064E-09  0.2466E-19  0.1597E-19  0.1830E-18  0.2758E-18
     -2.429  0.4076E-05  0.4044E-05  0.8569E-08  0.8501E-08  0.2536E-07  0.2519E-07  0.8569E-08  0.8501E-08  0.6759E-21  0.5328E-21  0.9198E-10  0.9117E-10  0.1125E-08  0.1115E-08  0.9198E-10  0.9117E-10  0.5439E-10  0.5395E-10
     -2.369  0.1471E-04  0.1459E-04  0.4554E-07  0.4519E-07  0.1096E-06  0.1088E-06  0.4554E-07  0.4519E-07  0.2853E-09  0.2831E-09  0.8147E-09  0.8078E-09  0.4096E-08  0.4059E-08  0.8147E-09  0.8078E-09  0.2061E-09  0.2045E-09
     -2.310  0.4590E-04  0.4555E-04  0.1428E-06  0.1417E-06  0.3429E-06  0.3405E-06  0.1428E-06  0.1417E-06  0.1087E-08  0.1078E-08  0.2777E-08  0.2753E-08  0.1272E-07  0.1261E-07  0.2777E-08  0.2753E-08  0.5912E-09  0.5865E-09
     -2.251  0.1470E-03  0.1459E-03  0.4608E-06  0.4572E-06  0.1103E-05  0.1096E-05  0.4608E-06  0.4572E-06  0.3115E-08  0.3091E-08  0.8524E-08  0.8452E-08  0.4122E-07  0.4087E-07  0.8524E-08  0.8452E-08  0.2310E-08  0.2291E-08
     -2.191  0.4599E-03  0.4565E-03  0.1529E-05  0.1517E-05  0.3563E-05  0.3540E-05  0.1529E-05  0.1517E-05  0.1123E-07  0.1114E-07  0.2938E-07  0.2914E-07  0.1300E-06  0.1289E-06  0.2938E-07  0.2914E-07  0.8009E-08  0.7947E-08
     -2.132  0.1309E-02  0.1300E-02  0.4706E-05  0.4671E-05  0.1058E-04  0.1051E-04  0.4706E-05  0.4671E-05  0.3512E-07  0.3485E-07  0.9100E-07  0.9026E-07  0.3719E-06  0.3691E-06  0.9100E-07  0.9026E-07  0.2388E-07  0.2371E-07
     -2.073  0.3183E-02  0.3167E-02  0.1357E-04  0.1348E-04  0.2837E-04  0.2823E-04  0.1357E-04  0.1348E-04  0.1156E-06  0.1147E-06  0.2792E-06  0.2772E-06  0.9203E-06  0.9144E-06  0.2792E-06  0.2772E-06  0.6867E-07  0.6823E-07
     -2.013  0.6177E-02  0.6155E-02  0.3220E-04  0.3204E-04  0.6241E-04  0.6218E-04  0.3220E-04  0.3204E-04  0.3228E-06  0.3208E-06  0.7194E-06  0.7149E-06  0.1827E-05  0.1818E-05  0.7194E-06  0.7149E-06  0.1607E-06  0.1598E-06
     -1.954  0.9310E-02  0.9292E-02  0.6090E-04  0.6069E-04  0.1098E-03  0.1096E-03  0.6090E-04  0.6069E-04  0.7559E-06  0.7523E-06  0.1534E-05  0.1527E-05  0.2873E-05  0.2864E-05  0.1534E-05  0.1527E-05  0.3284E-06  0.3268E-06
     -1.895  0.1114E-01  0.1113E-01  0.9376E-04  0.9353E-04  0.1586E-03  0.1584E-03  0.9376E-04  0.9353E-04  0.1384E-05  0.1379E-05  0.2637E-05  0.2628E-05  0.3811E-05  0.3800E-05  0.2637E-05  0.2628E-05  0.6859E-06  0.6822E-06
     -1.835  0.1217E-01  0.1216E-01  0.1368E-03  0.1363E-03  0.2187E-03  0.2183E-03  0.1368E-03  0.1363E-03  0.2249E-05  0.2239E-05  0.4166E-05  0.4150E-05  0.5128E-05  0.5107E-05  0.4166E-05  0.4150E-05  0.1537E-05  0.1527E-05
     -1.776  0.1485E-01  0.1482E-01  0.2146E-03  0.2140E-03  0.3295E-03  0.3288E-03  0.2146E-03  0.2140E-03  0.4052E-05  0.4037E-05  0.7216E-05  0.7187E-05  0.7672E-05  0.7646E-05  0.7216E-05  0.7187E-05  0.3022E-05  0.3013E-05
     -1.717  0.1910E-01  0.1908E-01  0.3200E-03  0.3194E-03  0.4809E-03  0.4802E-03  0.3200E-03  0.3194E-03  0.7358E-05  0.7334E-05  0.1234E-04  0.1230E-04  0.1068E-04  0.1065E-04  0.1234E-04  0.1230E-04  0.4487E-05  0.4479E-05
     -1.658  0.2041E-01  0.2042E-01  0.3767E-03  0.3767E-03  0.5655E-03  0.5655E-03  0.3767E-03  0.3767E-03  0.1055E-04  0.1053E-04  0.1681E-04  0.1679E-04  0.1169E-04  0.1168E-04  0.1681E-04  0.1679E-04  0.4881E-05  0.4880E-05
     -1.598  0.1748E-01  0.1750E-01  0.3600E-03  0.3602E-03  0.5609E-03  0.5612E-03  0.3600E-03  0.3602E-03  0.1217E-04  0.1216E-04  0.1893E-04  0.1891E-04  0.1098E-04  0.1097E-04  0.1893E-04  0.1891E-04  0.4712E-05  0.4709E-05
     -1.539  0.1610E-01  0.1609E-01  0.3932E-03  0.3926E-03  0.6470E-03  0.6462E-03  0.3932E-03  0.3926E-03  0.1584E-04  0.1579E-04  0.2458E-04  0.2451E-04  0.1272E-04  0.1268E-04  0.2458E-04  0.2451E-04  0.6186E-05  0.6165E-05
     -1.480  0.1989E-01  0.1985E-01  0.5683E-03  0.5669E-03  0.8984E-03  0.8971E-03  0.5683E-03  0.5669E-03  0.2433E-04  0.2426E-04  0.3777E-04  0.3768E-04  0.1947E-04  0.1939E-04  0.3777E-04  0.3768E-04  0.1113E-04  0.1108E-04
     -1.420  0.2395E-01  0.2394E-01  0.7784E-03  0.7772E-03  0.1067E-02  0.1067E-02  0.7784E-03  0.7772E-03  0.3219E-04  0.3215E-04  0.4944E-04  0.4938E-04  0.2836E-04  0.2828E-04  0.4944E-04  0.4938E-04  0.1920E-04  0.1914E-04
     -1.361  0.2405E-01  0.2406E-01  0.8902E-03  0.8899E-03  0.1013E-02  0.1013E-02  0.8902E-03  0.8899E-03  0.3539E-04  0.3536E-04  0.5287E-04  0.5285E-04  0.3481E-04  0.3474E-04  0.5287E-04  0.5285E-04  0.2696E-04  0.2692E-04
     -1.302  0.2266E-01  0.2266E-01  0.9176E-03  0.9176E-03  0.1016E-02  0.1015E-02  0.9176E-03  0.9176E-03  0.4052E-04  0.4046E-04  0.6005E-04  0.5996E-04  0.3637E-04  0.3633E-04  0.6005E-04  0.5996E-04  0.2914E-04  0.2914E-04
     -1.242  0.2249E-01  0.2248E-01  0.9346E-03  0.9343E-03  0.1253E-02  0.1251E-02  0.9346E-03  0.9343E-03  0.5246E-04  0.5234E-04  0.7907E-04  0.7891E-04  0.3521E-04  0.3519E-04  0.7907E-04  0.7891E-04  0.2607E-04  0.2609E-04
     -1.183  0.2364E-01  0.2363E-01  0.1046E-02  0.1045E-02  0.1475E-02  0.1474E-02  0.1046E-02  0.1045E-02  0.7389E-04  0.7370E-04  0.1020E-03  0.1018E-03  0.3736E-04  0.3731E-04  0.1020E-03  0.1018E-03  0.2559E-04  0.2557E-04
     -1.124  0.2455E-01  0.2455E-01  0.1226E-02  0.1225E-02  0.1455E-02  0.1456E-02  0.1226E-02  0.1225E-02  0.9939E-04  0.9922E-04  0.1170E-03  0.1169E-03  0.4269E-04  0.4264E-04  0.1170E-03  0.1169E-03  0.2996E-04  0.2993E-04
     -1.064  0.2297E-01  0.2298E-01  0.1249E-02  0.1249E-02  0.1343E-02  0.1343E-02  0.1249E-02  0.1249E-02  0.1055E-03  0.1055E-03  0.1196E-03  0.1196E-03  0.4374E-04  0.4373E-04  0.1196E-03  0.1196E-03  0.3293E-04  0.3291E-04
     -1.005  0.2022E-01  0.2023E-01  0.1140E-02  0.1140E-02  0.1402E-02  0.1401E-02  0.1140E-02  0.1140E-02  0.8888E-04  0.8894E-04  0.1210E-03  0.1209E-03  0.4429E-04  0.4423E-04  0.1210E-03  0.1209E-03  0.3756E-04  0.3749E-04
     -0.946  0.2177E-01  0.2175E-01  0.1329E-02  0.1327E-02  0.1767E-02  0.1764E-02  0.1329E-02  0.1327E-02  0.9327E-04  0.9308E-04  0.1485E-03  0.1483E-03  0.6162E-04  0.6141E-04  0.1485E-03  0.1483E-03  0.5732E-04  0.5714E-04
     -0.886  0.2713E-01  0.2710E-01  0.1828E-02  0.1825E-02  0.2287E-02  0.2284E-02  0.1828E-02  0.1825E-02  0.1333E-03  0.1330E-03  0.1943E-03  0.1940E-03  0.9660E-04  0.9633E-04  0.1943E-03  0.1940E-03  0.8789E-04  0.8771E-04
     -0.827  0.2988E-01  0.2988E-01  0.2132E-02  0.2132E-02  0.2599E-02  0.2598E-02  0.2132E-02  0.2132E-02  0.1766E-03  0.1763E-03  0.2169E-03  0.2168E-03  0.1244E-03  0.1243E-03  0.2169E-03  0.2168E-03  0.1031E-03  0.1030E-03
     -0.768  0.2793E-01  0.2795E-01  0.2085E-02  0.2086E-02  0.2535E-02  0.2536E-02  0.2085E-02  0.2086E-02  0.2063E-03  0.2061E-03  0.2170E-03  0.2169E-03  0.1265E-03  0.1265E-03  0.2170E-03  0.2169E-03  0.9492E-04  0.9499E-04
     -0.709  0.2684E-01  0.2683E-01  0.2130E-02  0.2128E-02  0.2574E-02  0.2572E-02  0.2130E-02  0.2128E-02  0.2365E-03  0.2362E-03  0.2569E-03  0.2563E-03  0.1198E-03  0.1197E-03  0.2569E-03  0.2563E-03  0.9299E-04  0.9291E-04
     -0.649  0.2966E-01  0.2964E-01  0.2462E-02  0.2460E-02  0.3098E-02  0.3095E-02  0.2462E-02  0.2460E-02  0.2791E-03  0.2787E-03  0.3492E-03  0.3485E-03  0.1267E-03  0.1266E-03  0.3492E-03  0.3485E-03  0.1092E-03  0.1091E-03
     -0.590  0.2997E-01  0.2999E-01  0.2526E-02  0.2528E-02  0.3405E-02  0.3406E-02  0.2526E-02  0.2528E-02  0.3003E-03  0.3003E-03  0.3954E-03  0.3954E-03  0.1275E-03  0.1275E-03  0.3954E-03  0.3954E-03  0.1087E-03  0.1088E-03
     -0.531  0.2351E-01  0.2356E-01  0.2040E-02  0.2044E-02  0.2860E-02  0.2866E-02  0.2040E-02  0.2044E-02  0.2666E-03  0.2667E-03  0.3486E-03  0.3489E-03  0.1005E-03  0.1007E-03  0.3486E-03  0.3489E-03  0.8155E-04  0.8172E-04
     -0.471  0.1856E-01  0.1857E-01  0.1780E-02  0.1780E-02  0.2399E-02  0.2400E-02  0.1780E-02  0.1780E-02  0.2522E-03  0.2519E-03  0.3371E-03  0.3368E-03  0.8020E-04  0.8019E-04  0.3371E-03  0.3368E-03  0.7127E-04  0.7123E-04
     -0.412  0.2081E-01  0.2078E-01  0.2216E-02  0.2213E-02  0.2918E-02  0.2912E-02  0.2216E-02  0.2213E-02  0.3306E-03  0.3297E-03  0.4307E-03  0.4299E-03  0.1067E-03  0.1063E-03  0.4307E-03  0.4299E-03  0.9697E-04  0.9673E-04
     -0.353  0.2571E-01  0.2568E-01  0.2930E-02  0.2926E-02  0.3962E-02  0.3955E-02  0.2930E-02  0.2926E-02  0.4553E-03  0.4545E-03  0.5250E-03  0.5244E-03  0.1794E-03  0.1788E-03  0.5250E-03  0.5244E-03  0.1445E-03  0.1441E-03
     -0.293  0.2974E-01  0.2971E-01  0.3608E-02  0.3605E-02  0.4961E-02  0.4955E-02  0.3608E-02  0.3605E-02  0.5515E-03  0.5510E-03  0.5854E-03  0.5848E-03  0.2635E-03  0.2630E-03  0.5854E-03  0.5848E-03  0.2062E-03  0.2058E-03
     -0.234  0.3079E-01  0.3080E-01  0.3929E-02  0.3929E-02  0.5424E-02  0.5424E-02  0.3929E-02  0.3929E-02  0.5508E-03  0.5509E-03  0.6404E-03  0.6400E-03  0.2943E-03  0.2943E-03  0.6404E-03  0.6400E-03  0.2541E-03  0.2539E-03
     -0.175  0.2824E-01  0.2825E-01  0.3786E-02  0.3787E-02  0.5183E-02  0.5185E-02  0.3786E-02  0.3787E-02  0.5165E-03  0.5162E-03  0.6823E-03  0.6818E-03  0.2620E-03  0.2622E-03  0.6823E-03  0.6818E-03  0.2554E-03  0.2555E-03
     -0.115  0.2740E-01  0.2740E-01  0.3879E-02  0.3876E-02  0.5396E-02  0.5392E-02  0.3879E-02  0.3876E-02  0.5978E-03  0.5967E-03  0.7856E-03  0.7844E-03  0.2507E-03  0.2505E-03  0.7856E-03  0.7844E-03  0.2462E-03  0.2462E-03
     -0.056  0.2885E-01  0.2885E-01  0.4297E-02  0.4296E-02  0.6193E-02  0.6190E-02  0.4297E-02  0.4296E-02  0.7203E-03  0.7197E-03  0.9281E-03  0.9274E-03  0.2788E-03  0.2786E-03  0.9281E-03  0.9274E-03  0.2616E-03  0.2615E-03
      0.003  0.2602E-01  0.2605E-01  0.4092E-02  0.4096E-02  0.6032E-02  0.6037E-02  0.4092E-02  0.4096E-02  0.7096E-03  0.7096E-03  0.9174E-03  0.9178E-03  0.2614E-03  0.2616E-03  0.9174E-03  0.9178E-03  0.2509E-03  0.2512E-03
      0.063  0.2102E-01  0.2104E-01  0.3521E-02  0.3524E-02  0.5599E-02  0.5599E-02  0.3521E-02  0.3524E-02  0.6948E-03  0.6944E-03  0.8938E-03  0.8933E-03  0.2030E-03  0.2032E-03  0.8938E-03  0.8933E-03  0.2019E-03  0.2022E-03