  16  16   1   0
  0.2045758E+02  0.4246202E-09  0.4246202E-09  0.1815403E-08  0.5000000E-15
  1.000000000000000E-004
  CAR 
 unknown system                          
      8.74143941     -4.63634109  301      4.97066027      1.00000000
     -4.636  0.0000E+00  0.0000E+00  0.0000E+00  0.0000E+00
     -4.592  0.0000E+00  0.0000E+00  0.0000E+00  0.0000E+00
     -4.547  0.0000E+00  0.0000E+00  0.0000E+00  0.0000E+00
     -4.503  0.0000E+00  0.0000E+00  0.0000E+00  0.0000E+00
     -4.458  0.8189E-05  0.8173E-05  0.3652E-06  0.3645E-06
     -4.413  0.5694E-04  0.5683E-04  0.2904E-05  0.2899E-05
     -4.369  0.1769E-03  0.1765E-03  0.1079E-04  0.1077E-04
     -4.324  0.3991E-03  0.3984E-03  0.2859E-04  0.2853E-04
     -4.280  0.9332E-03  0.9315E-03  0.7020E-04  0.7007E-04
     -4.235  0.2310E-02  0.2305E-02  0.1732E-03  0.1729E-03
     -4.190  0.5836E-02  0.5825E-02  0.4334E-03  0.4326E-03
     -4.146  0.1383E-01  0.1381E-01  0.1050E-02  0.1048E-02
     -4.101  0.3144E-01  0.3139E-01  0.2452E-02  0.2448E-02
     -4.057  0.6753E-01  0.6743E-01  0.5464E-02  0.5455E-02
     -4.012  0.1297E+00  0.1295E+00  0.1125E-01  0.1123E-01
     -3.967  0.2142E+00  0.2140E+00  0.2080E-01  0.2077E-01
     -3.923  0.3021E+00  0.3020E+00  0.3427E-01  0.3424E-01
     -3.878  0.3798E+00  0.3797E+00  0.5121E-01  0.5117E-01
     -3.834  0.4615E+00  0.4614E+00  0.7179E-01  0.7175E-01
     -3.789  0.5551E+00  0.5550E+00  0.9654E-01  0.9650E-01
     -3.744  0.6204E+00  0.6204E+00  0.1242E+00  0.1242E+00
     -3.700  0.6324E+00  0.6325E+00  0.1524E+00  0.1524E+00
     -3.655  0.6497E+00  0.6498E+00  0.1814E+00  0.1813E+00
     -3.611  0.7213E+00  0.7213E+00  0.2135E+00  0.2135E+00
     -3.566  0.7979E+00  0.7978E+00  0.2491E+00  0.2491E+00
     -3.522  0.8299E+00  0.8299E+00  0.2862E+00  0.2861E+00
     -3.477  0.8428E+00  0.8428E+00  0.3238E+00  0.3237E+00
     -3.432  0.8673E+00  0.8672E+00  0.3624E+00  0.3624E+00
     -3.388  0.8940E+00  0.8939E+00  0.4023E+00  0.4023E+00
     -3.343  0.8982E+00  0.8982E+00  0.4424E+00  0.4423E+00
     -3.299  0.8960E+00  0.8960E+00  0.4824E+00  0.4823E+00
     -3.254  0.9552E+00  0.9551E+00  0.5250E+00  0.5249E+00
     -3.209  0.1076E+01  0.1076E+01  0.5730E+00  0.5729E+00
     -3.165  0.1164E+01  0.1164E+01  0.6249E+00  0.6248E+00
     -3.120  0.1185E+01  0.1185E+01  0.6778E+00  0.6777E+00
     -3.076  0.1212E+01  0.1211E+01  0.7318E+00  0.7317E+00
     -3.031  0.1250E+01  0.1250E+01  0.7876E+00  0.7875E+00
     -2.986  0.1206E+01  0.1206E+01  0.8414E+00  0.8413E+00
     -2.942  0.1099E+01  0.1099E+01  0.8904E+00  0.8903E+00
     -2.897  0.1092E+01  0.1092E+01  0.9391E+00  0.9391E+00
     -2.853  0.1235E+01  0.1235E+01  0.9942E+00  0.9942E+00
     -2.808  0.1421E+01  0.1421E+01  0.1058E+01  0.1058E+01
     -2.763  0.1538E+01  0.1538E+01  0.1126E+01  0.1126E+01
     -2.719  0.1558E+01  0.1558E+01  0.1196E+01  0.1196E+01
     -2.674  0.1567E+01  0.1567E+01  0.1266E+01  0.1266E+01
     -2.630  0.1593E+01  0.1593E+01  0.1337E+01  0.1337E+01
     -2.585  0.1545E+01  0.1545E+01  0.1406E+01  0.1406E+01
     -2.540  0.1465E+01  0.1466E+01  0.1471E+01  0.1471E+01
     -2.496  0.1499E+01  0.1500E+01  0.1538E+01  0.1538E+01
     -2.451  0.1617E+01  0.1617E+01  0.1610E+01  0.1610E+01
     -2.407  0.1710E+01  0.1710E+01  0.1686E+01  0.1686E+01
     -2.362  0.1765E+01  0.1765E+01  0.1765E+01  0.1765E+01
     -2.318  0.1797E+01  0.1797E+01  0.1845E+01  0.1845E+01
     -2.273  0.1784E+01  0.1784E+01  0.1925E+01  0.1925E+01
     -2.228  0.1734E+01  0.1734E+01  0.2002E+01  0.2002E+01
     -2.184  0.1725E+01  0.1726E+01  0.2079E+01  0.2079E+01
     -2.139  0.1808E+01  0.1808E+01  0.2160E+01  0.2160E+01
     -2.095  0.1910E+01  0.1910E+01  0.2245E+01  0.2245E+01
     -2.050  0.1904E+01  0.1904E+01  0.2330E+01  0.2330E+01
     -2.005  0.1767E+01  0.1767E+01  0.2409E+01  0.2409E+01
     -1.961  0.1616E+01  0.1615E+01  0.2481E+01  0.2481E+01
     -1.916  0.1497E+01  0.1496E+01  0.2548E+01  0.2548E+01
     -1.872  0.1378E+01  0.1378E+01  0.2609E+01  0.2609E+01
     -1.827  0.1326E+01  0.1325E+01  0.2668E+01  0.2668E+01
     -1.782  0.1404E+01  0.1404E+01  0.2731E+01  0.2731E+01
     -1.738  0.1579E+01  0.1579E+01  0.2801E+01  0.2801E+01
     -1.693  0.1737E+01  0.1737E+01  0.2879E+01  0.2879E+01
     -1.649  0.1755E+01  0.1755E+01  0.2957E+01  0.2957E+01
     -1.604  0.1671E+01  0.1671E+01  0.3032E+01  0.3032E+01
     -1.559  0.1620E+01  0.1620E+01  0.3104E+01  0.3104E+01
     -1.515  0.1623E+01  0.1622E+01  0.3176E+01  0.3176E+01
     -1.470  0.1648E+01  0.1647E+01  0.3250E+01  0.3250E+01
     -1.426  0.1724E+01  0.1723E+01  0.3327E+01  0.3327E+01
     -1.381  0.1856E+01  0.1855E+01  0.3410E+01  0.3409E+01
     -1.336  0.1980E+01  0.1979E+01  0.3498E+01  0.3498E+01
     -1.292  0.2013E+01  0.2013E+01  0.3588E+01  0.3588E+01
     -1.247  0.1963E+01  0.1963E+01  0.3675E+01  0.3675E+01
     -1.203  0.1908E+01  0.1908E+01  0.3760E+01  0.3760E+01
     -1.158  0.1906E+01  0.1907E+01  0.3846E+01  0.3845E+01
     -1.114  0.1967E+01  0.1967E+01  0.3933E+01  0.3933E+01
     -1.069  0.2039E+01  0.2039E+01  0.4024E+01  0.4024E+01
     -1.024  0.2076E+01  0.2076E+01  0.4117E+01  0.4117E+01
     -0.980  0.2098E+01  0.2099E+01  0.4210E+01  0.4210E+01
     -0.935  0.2173E+01  0.2174E+01  0.4307E+01  0.4307E+01
     -0.891  0.2293E+01  0.2293E+01  0.4410E+01  0.4410E+01
     -0.846  0.2419E+01  0.2419E+01  0.4518E+01  0.4517E+01
     -0.801  0.2540E+01  0.2540E+01  0.4631E+01  0.4631E+01
     -0.757  0.2598E+01  0.2597E+01  0.4747E+01  0.4747E+01
     -0.712  0.2570E+01  0.2570E+01  0.4861E+01  0.4861E+01
     -0.668  0.2513E+01  0.2513E+01  0.4974E+01  0.4973E+01
     -0.623  0.2445E+01  0.2445E+01  0.5083E+01  0.5082E+01
     -0.578  0.2337E+01  0.2338E+01  0.5187E+01  0.5187E+01
     -0.534  0.2248E+01  0.2249E+01  0.5287E+01  0.5287E+01
     -0.489  0.2276E+01  0.2276E+01  0.5389E+01  0.5389E+01
     -0.445  0.2339E+01  0.2339E+01  0.5493E+01  0.5493E+01
     -0.400  0.2278E+01  0.2278E+01  0.5595E+01  0.5595E+01
     -0.355  0.2181E+01  0.2181E+01  0.5692E+01  0.5692E+01
     -0.311  0.2207E+01  0.2206E+01  0.5791E+01  0.5790E+01
     -0.266  0.2283E+01  0.2283E+01  0.5892E+01  0.5892E+01
     -0.222  0.2268E+01  0.2269E+01  0.5994E+01  0.5994E+01
     -0.177  0.2166E+01  0.2167E+01  0.6090E+01  0.6090E+01
     -0.132  0.2033E+01  0.2033E+01  0.6181E+01  0.6181E+01
     -0.088  0.1921E+01  0.1921E+01  0.6267E+01  0.6267E+01
     -0.043  0.1907E+01  0.1906E+01  0.6352E+01  0.6352E+01
      0.001  0.2083E+01  0.2081E+01  0.6445E+01  0.6445E+01
      0.046  0.2433E+01  0.2431E+01  0.6553E+01  0.6553E+01
      0.090  0.2789E+01  0.2788E+01  0.6678E+01  0.6677E+01
      0.135  0.2981E+01  0.2980E+01  0.6811E+01  0.6810E+01
      0.180  0.2957E+01  0.2956E+01  0.6943E+01  0.6942E+01
      0.224  0.2760E+01  0.2760E+01  0.7066E+01  0.7065E+01
      0.269  0.2490E+01  0.2491E+01  0.7177E+01  0.7176E+01
      0.313  0.2281E+01  0.2281E+01  0.7279E+01  0.7278E+01
      0.358  0.2224E+01  0.2223E+01  0.7378E+01  0.7377E+01
      0.403  0.2335E+01  0.2334E+01  0.7482E+01  0.7481E+01
      0.447  0.2561E+01  0.2559E+01  0.7596E+01  0.7596E+01
      0.492  0.2776E+01  0.2774E+01  0.7720E+01  0.7719E+01
      0.536  0.2915E+01  0.2913E+01  0.7850E+01  0.7849E+01
      0.581  0.2972E+01  0.2971E+01  0.7983E+01  0.7982E+01
      0.626  0.2991E+01  0.2991E+01  0.8116E+01  0.8115E+01
      0.670  0.2987E+01  0.2987E+01  0.8249E+01  0.8249E+01
      0.715  0.2981E+01  0.2981E+01  0.8382E+01  0.8382E+01
      0.759  0.3072E+01  0.3071E+01  0.8519E+01  0.8519E+01
      0.804  0.3289E+01  0.3287E+01  0.8666E+01  0.8665E+01
      0.849  0.3507E+01  0.3506E+01  0.8823E+01  0.8822E+01
      0.893  0.3578E+01  0.3578E+01  0.8982E+01  0.8981E+01
      0.938  0.3437E+01  0.3438E+01  0.9136E+01  0.9135E+01
      0.982  0.3102E+01  0.3104E+01  0.9274E+01  0.9273E+01
      1.027  0.2700E+01  0.2702E+01  0.9394E+01  0.9394E+01
      1.072  0.2379E+01  0.2380E+01  0.9501E+01  0.9500E+01
      1.116  0.2138E+01  0.2137E+01  0.9596E+01  0.9595E+01
      1.161  0.1968E+01  0.1967E+01  0.9684E+01  0.9683E+01
      1.205  0.1932E+01  0.1930E+01  0.9770E+01  0.9769E+01
      1.250  0.2041E+01  0.2040E+01  0.9861E+01  0.9860E+01
      1.294  0.2192E+01  0.2190E+01  0.9959E+01  0.9958E+01
      1.339  0.2250E+01  0.2250E+01  0.1006E+02  0.1006E+02
      1.384  0.2232E+01  0.2232E+01  0.1016E+02  0.1016E+02
      1.428  0.2279E+01  0.2279E+01  0.1026E+02  0.1026E+02
      1.473  0.2434E+01  0.2433E+01  0.1037E+02  0.1037E+02
      1.517  0.2569E+01  0.2569E+01  0.1048E+02  0.1048E+02
      1.562  0.2591E+01  0.2591E+01  0.1060E+02  0.1060E+02
      1.607  0.2596E+01  0.2595E+01  0.1072E+02  0.1071E+02
      1.651  0.2743E+01  0.2740E+01  0.1084E+02  0.1084E+02
      1.696  0.2991E+01  0.2988E+01  0.1097E+02  0.1097E+02
      1.740  0.3100E+01  0.3098E+01  0.1111E+02  0.1111E+02
      1.785  0.2907E+01  0.2908E+01  0.1124E+02  0.1124E+02
      1.830  0.2588E+01  0.2590E+01  0.1135E+02  0.1135E+02
      1.874  0.2399E+01  0.2399E+01  0.1146E+02  0.1146E+02
      1.919  0.2387E+01  0.2386E+01  0.1157E+02  0.1157E+02
      1.963  0.2605E+01  0.2600E+01  0.1168E+02  0.1168E+02
      2.008  0.3069E+01  0.3061E+01  0.1182E+02  0.1182E+02
      2.053  0.3559E+01  0.3552E+01  0.1198E+02  0.1198E+02
      2.097  0.3753E+01  0.3752E+01  0.1215E+02  0.1215E+02
      2.142  0.3682E+01  0.3682E+01  0.1231E+02  0.1231E+02
      2.186  0.3655E+01  0.3654E+01  0.1247E+02  0.1247E+02
      2.231  0.3654E+01  0.3656E+01  0.1264E+02  0.1264E+02
      2.276  0.3530E+01  0.3532E+01  0.1280E+02  0.1279E+02
      2.320  0.3418E+01  0.3418E+01  0.1295E+02  0.1295E+02
      2.365  0.3513E+01  0.3510E+01  0.1310E+02  0.1310E+02
      2.409  0.3854E+01  0.3847E+01  0.1328E+02  0.1327E+02
      2.454  0.4174E+01  0.4171E+01  0.1346E+02  0.1346E+02
      2.498  0.4149E+01  0.4151E+01  0.1365E+02  0.1365E+02
      2.543  0.3899E+01  0.3901E+01  0.1382E+02  0.1382E+02
      2.588  0.3678E+01  0.3679E+01  0.1399E+02  0.1398E+02
      2.632  0.3532E+01  0.3530E+01  0.1414E+02  0.1414E+02
      2.677  0.3588E+01  0.3581E+01  0.1430E+02  0.1430E+02
      2.721  0.3922E+01  0.3912E+01  0.1448E+02  0.1448E+02
      2.766  0.4333E+01  0.4324E+01  0.1467E+02  0.1467E+02
      2.811  0.4618E+01  0.4613E+01  0.1488E+02  0.1487E+02
      2.855  0.4741E+01  0.4738E+01  0.1509E+02  0.1509E+02
      2.900  0.4817E+01  0.4812E+01  0.1530E+02  0.1530E+02
      2.944  0.4906E+01  0.4901E+01  0.1552E+02  0.1552E+02
      2.989  0.4906E+01  0.4904E+01  0.1574E+02  0.1574E+02
      3.034  0.4806E+01  0.4804E+01  0.1596E+02  0.1595E+02
      3.078  0.4695E+01  0.4692E+01  0.1617E+02  0.1616E+02
      3.123  0.4580E+01  0.4578E+01  0.1637E+02  0.1637E+02
      3.167  0.4427E+01  0.4426E+01  0.1657E+02  0.1656E+02
      3.212  0.4224E+01  0.4224E+01  0.1676E+02  0.1675E+02
      3.257  0.4086E+01  0.4083E+01  0.1694E+02  0.1693E+02
      3.301  0.4160E+01  0.4152E+01  0.1712E+02  0.1712E+02
      3.346  0.4426E+01  0.4415E+01  0.1732E+02  0.1732E+02
      3.390  0.4725E+01  0.4716E+01  0.1753E+02  0.1753E+02
      3.435  0.4923E+01  0.4917E+01  0.1775E+02  0.1775E+02
      3.480  0.5048E+01  0.5043E+01  0.1798E+02  0.1797E+02
      3.524  0.5219E+01  0.5209E+01  0.1821E+02  0.1820E+02
      3.569  0.5493E+01  0.5477E+01  0.1846E+02  0.1845E+02
      3.613  0.5807E+01  0.5788E+01  0.1871E+02  0.1871E+02
      3.658  0.6111E+01  0.6089E+01  0.1899E+02  0.1898E+02
      3.702  0.6417E+01  0.6397E+01  0.1927E+02  0.1926E+02
      3.747  0.6648E+01  0.6634E+01  0.1957E+02  0.1956E+02
      3.792  0.6806E+01  0.6793E+01  0.1987E+02  0.1986E+02
      3.836  0.6977E+01  0.6961E+01  0.2018E+02  0.2017E+02
      3.881  0.7095E+01  0.7080E+01  0.2050E+02  0.2049E+02
      3.925  0.7074E+01  0.7064E+01  0.2082E+02  0.2080E+02
      3.970  0.6929E+01  0.6925E+01  0.2113E+02  0.2111E+02
      4.015  0.6623E+01  0.6628E+01  0.2142E+02  0.2141E+02
      4.059  0.6198E+01  0.6207E+01  0.2170E+02  0.2168E+02
      4.104  0.5873E+01  0.5875E+01  0.2196E+02  0.2195E+02
      4.148  0.5822E+01  0.5815E+01  0.2222E+02  0.2221E+02
      4.193  0.5923E+01  0.5915E+01  0.2248E+02  0.2247E+02
      4.238  0.5998E+01  0.5992E+01  0.2275E+02  0.2274E+02
      4.282  0.6038E+01  0.6029E+01  0.2302E+02  0.2301E+02
      4.327  0.6053E+01  0.6045E+01  0.2329E+02  0.2328E+02
      4.371  0.5949E+01  0.5951E+01  0.2356E+02  0.2354E+02
      4.416  0.5707E+01  0.5710E+01  0.2381E+02  0.2380E+02
      4.461  0.5509E+01  0.5506E+01  0.2406E+02  0.2404E+02
      4.505  0.5360E+01  0.5362E+01  0.2430E+02  0.2428E+02
      4.550  0.5012E+01  0.5035E+01  0.2452E+02  0.2451E+02
      4.594  0.4410E+01  0.4446E+01  0.2472E+02  0.2470E+02
      4.639  0.3755E+01  0.3790E+01  0.2488E+02  0.2487E+02
      4.684  0.3272E+01  0.3294E+01  0.2503E+02  0.2502E+02
      4.728  0.3047E+01  0.3053E+01  0.2517E+02  0.2516E+02
      4.773  0.3066E+01  0.3055E+01  0.2530E+02  0.2529E+02
      4.817  0.3280E+01  0.3258E+01  0.2545E+02  0.2544E+02
      4.862  0.3515E+01  0.3499E+01  0.2561E+02  0.2559E+02
      4.906  0.3619E+01  0.3612E+01  0.2577E+02  0.2576E+02
      4.951  0.3685E+01  0.3674E+01  0.2593E+02  0.2592E+02
      4.996  0.3827E+01  0.3813E+01  0.2610E+02  0.2609E+02
      5.040  0.3951E+01  0.3945E+01  0.2628E+02  0.2627E+02
      5.085  0.4016E+01  0.4009E+01  0.2646E+02  0.2644E+02
      5.129  0.4165E+01  0.4146E+01  0.2664E+02  0.2663E+02
      5.174  0.4435E+01  0.4412E+01  0.2684E+02  0.2683E+02
      5.219  0.4689E+01  0.4675E+01  0.2705E+02  0.2704E+02
      5.263  0.4866E+01  0.4860E+01  0.2727E+02  0.2725E+02
      5.308  0.4994E+01  0.4991E+01  0.2749E+02  0.2747E+02
      5.352  0.5042E+01  0.5044E+01  0.2772E+02  0.2770E+02
      5.397  0.5085E+01  0.5081E+01  0.2794E+02  0.2793E+02
      5.442  0.5390E+01  0.5363E+01  0.2818E+02  0.2817E+02
      5.486  0.6152E+01  0.6096E+01  0.2846E+02  0.2844E+02
      5.531  0.7279E+01  0.7207E+01  0.2878E+02  0.2876E+02
      5.575  0.8439E+01  0.8370E+01  0.2916E+02  0.2913E+02
      5.620  0.9354E+01  0.9296E+01  0.2958E+02  0.2955E+02
      5.665  0.1008E+02  0.1002E+02  0.3003E+02  0.2999E+02
      5.709  0.1084E+02  0.1078E+02  0.3051E+02  0.3047E+02
      5.754  0.1183E+02  0.1180E+02  0.3104E+02  0.3100E+02
      5.798  0.1298E+02  0.1302E+02  0.3162E+02  0.3158E+02
      5.843  0.1402E+02  0.1416E+02  0.3224E+02  0.3221E+02
      5.888  0.1474E+02  0.1497E+02  0.3290E+02  0.3288E+02
      5.932  0.1472E+02  0.1504E+02  0.3355E+02  0.3355E+02
      5.977  0.1348E+02  0.1388E+02  0.3416E+02  0.3417E+02
      6.021  0.1141E+02  0.1180E+02  0.3466E+02  0.3470E+02
      6.066  0.9465E+01  0.9731E+01  0.3509E+02  0.3513E+02
      6.110  0.8099E+01  0.8246E+01  0.3545E+02  0.3550E+02
      6.155  0.7105E+01  0.7277E+01  0.3577E+02  0.3582E+02
      6.200  0.6289E+01  0.6550E+01  0.3605E+02  0.3612E+02
      6.244  0.5718E+01  0.5966E+01  0.3630E+02  0.3638E+02
      6.289  0.5463E+01  0.5641E+01  0.3655E+02  0.3663E+02
      6.333  0.5517E+01  0.5687E+01  0.3679E+02  0.3689E+02
      6.378  0.5870E+01  0.6099E+01  0.3705E+02  0.3716E+02
      6.423  0.6294E+01  0.6570E+01  0.3733E+02  0.3745E+02
      6.467  0.6313E+01  0.6634E+01  0.3762E+02  0.3775E+02
      6.512  0.5808E+01  0.6200E+01  0.3788E+02  0.3803E+02
      6.556  0.5116E+01  0.5498E+01  0.3810E+02  0.3827E+02
      6.601  0.4469E+01  0.4709E+01  0.3830E+02  0.3848E+02
      6.646  0.3870E+01  0.3939E+01  0.3848E+02  0.3866E+02
      6.690  0.3238E+01  0.3210E+01  0.3862E+02  0.3880E+02
      6.735  0.2553E+01  0.2540E+01  0.3873E+02  0.3891E+02
      6.779  0.1954E+01  0.2002E+01  0.3882E+02  0.3900E+02
      6.824  0.1640E+01  0.1711E+01  0.3890E+02  0.3908E+02
      6.869  0.1687E+01  0.1701E+01  0.3897E+02  0.3916E+02
      6.913  0.1932E+01  0.1850E+01  0.3906E+02  0.3924E+02
      6.958  0.2094E+01  0.1942E+01  0.3915E+02  0.3933E+02
      7.002  0.2005E+01  0.1802E+01  0.3924E+02  0.3941E+02
      7.047  0.1728E+01  0.1480E+01  0.3932E+02  0.3947E+02
      7.092  0.1433E+01  0.1168E+01  0.3938E+02  0.3952E+02
      7.136  0.1153E+01  0.9149E+00  0.3943E+02  0.3957E+02
      7.181  0.8902E+00  0.6847E+00  0.3947E+02  0.3960E+02
      7.225  0.7311E+00  0.5262E+00  0.3950E+02  0.3962E+02
      7.270  0.7317E+00  0.5126E+00  0.3954E+02  0.3964E+02
      7.314  0.8754E+00  0.6302E+00  0.3958E+02  0.3967E+02
      7.359  0.1047E+01  0.7797E+00  0.3962E+02  0.3971E+02
      7.404  0.1083E+01  0.8747E+00  0.3967E+02  0.3974E+02
      7.448  0.9457E+00  0.9136E+00  0.3971E+02  0.3979E+02
      7.493  0.7635E+00  0.9395E+00  0.3975E+02  0.3983E+02
      7.537  0.6332E+00  0.9307E+00  0.3978E+02  0.3987E+02
      7.582  0.5493E+00  0.8200E+00  0.3980E+02  0.3991E+02
      7.627  0.4963E+00  0.6485E+00  0.3982E+02  0.3993E+02
      7.671  0.4836E+00  0.5050E+00  0.3984E+02  0.3996E+02
      7.716  0.5146E+00  0.3841E+00  0.3987E+02  0.3997E+02
      7.760  0.5709E+00  0.2627E+00  0.3989E+02  0.3999E+02
      7.805  0.5859E+00  0.1593E+00  0.3992E+02  0.3999E+02
      7.850  0.4905E+00  0.8676E-01  0.3994E+02  0.4000E+02
      7.894  0.3204E+00  0.4240E-01  0.3996E+02  0.4000E+02
      7.939  0.1745E+00  0.1855E-01  0.3996E+02  0.4000E+02
      7.983  0.9577E-01  0.7616E-02  0.3997E+02  0.4000E+02
      8.028  0.7605E-01  0.3183E-02  0.3997E+02  0.4000E+02
      8.073  0.9871E-01  0.1226E-02  0.3998E+02  0.4000E+02
      8.117  0.1408E+00  0.2885E-03  0.3998E+02  0.4000E+02
      8.162  0.1568E+00  0.1185E-03  0.3999E+02  0.4000E+02
      8.206  0.1230E+00  0.0000E+00  0.3999E+02  0.4000E+02
      8.251  0.7190E-01  0.0000E+00  0.4000E+02  0.4000E+02
      8.296  0.3495E-01  0.0000E+00  0.4000E+02  0.4000E+02
      8.340  0.1545E-01  0.0000E+00  0.4000E+02  0.4000E+02
      8.385  0.6535E-02  0.0000E+00  0.4000E+02  0.4000E+02
      8.429  0.2714E-02  0.0000E+00  0.4000E+02  0.4000E+02
      8.474  0.1119E-02  0.0000E+00  0.4000E+02  0.4000E+02
      8.518  0.4596E-03  0.0000E+00  0.4000E+02  0.4000E+02
      8.563  0.0000E+00  0.0000E+00  0.4000E+02  0.4000E+02
      8.608  0.0000E+00  0.0000E+00  0.4000E+02  0.4000E+02
      8.652  0.0000E+00  0.0000E+00  0.4000E+02  0.4000E+02
      8.697  0.0000E+00  0.0000E+00  0.4000E+02  0.4000E+02
      8.741  0.0000E+00  0.0000E+00  0.4000E+02  0.4000E+02
      8.74143941     -4.63634109  301      4.97066027      1.00000000
     -4.636  0.0000E+00  0.0000E+00  0.0000E+00  0.0000E+00  0.0000E+00  0.0000E+00  0.0000E+00  0.0000E+00  0.0000E+00  0.0000E+00  0.0000E+00  0.0000E+00  0.0000E+00  0.0000E+00  0.0000E+00  0.0000E+00  0.0000E+00  0.0000E+00
     -4.592  0.0000E+00  0.0000E+00  0.0000E+00  0.0000E+00  0.0000E+00  0.0000E+00  0.0000E+00  0.0000E+00  0.0000E+00  0.0000E+00  0.0000E+00  0.0000E+00  0.0000E+00  0.0000E+00  0.0000E+00  0.0000E+00  0.0000E+00  0.0000E+00
     -4.547  0.0000E+00  0.0000E+00  0.0000E+00  0.0000E+00  0.0000E+00  0.0000E+00  0.0000E+00  0.0000E+00  0.0000E+00  0.0000E+00  0.0000E+00  0.0000E+00  0.0000E+00  0.0000E+00  0.0000E+00  0.0000E+00  0.0000E+00  0.0000E+00
     -4.503  0.0000E+00  0.0000E+00  0.0000E+00  0.0000E+00  0.0000E+00  0.0000E+00  0.0000E+00  0.0000E+00  0.0000E+00  0.0000E+00  0.0000E+00  0.0000E+00  0.0000E+00  0.0000E+00  0.0000E+00  0.0000E+00  0.0000E+00  0.0000E+00
     -4.458  0.1741E-06  0.1736E-06  0.5486E-22  0.3259E-22  0.8052E-09  0.8064E-09  0.5486E-22  0.3259E-22  0.8631E-18  0.1831E-17  0.3824E-20  0.2240E-20  0.3725E-11  0.3458E-11  0.3824E-20  0.2240E-20  0.2342E-20  0.3751E-19
     -4.413  0.1197E-05  0.1194E-05  0.2684E-08  0.2678E-08  0.8772E-08  0.8774E-08  0.2684E-08  0.2678E-08  0.2329E-16  0.6577E-16  0.3034E-10  0.3037E-10  0.3885E-10  0.3698E-10  0.3034E-10  0.3037E-10  0.1089E-10  0.1094E-10
     -4.369  0.3692E-05  0.3684E-05  0.1369E-07  0.1366E-07  0.3357E-07  0.3356E-07  0.1369E-07  0.1366E-07  0.9358E-10  0.9325E-10  0.2543E-09  0.2544E-09  0.1236E-09  0.1177E-09  0.2543E-09  0.2544E-09  0.3562E-10  0.3566E-10
     -4.324  0.8325E-05  0.8305E-05  0.3256E-07  0.3249E-07  0.7772E-07  0.7770E-07  0.3256E-07  0.3249E-07  0.3085E-09  0.3073E-09  0.6959E-09  0.6956E-09  0.2637E-09  0.2501E-09  0.6959E-09  0.6956E-09  0.6691E-10  0.6704E-10
     -4.280  0.1948E-04  0.1943E-04  0.7036E-07  0.7020E-07  0.1859E-06  0.1859E-06  0.7036E-07  0.7020E-07  0.5784E-09  0.5762E-09  0.1410E-08  0.1410E-08  0.6839E-09  0.6537E-09  0.1410E-08  0.1410E-08  0.1630E-09  0.1633E-09
     -4.235  0.4817E-04  0.4806E-04  0.1916E-06  0.1912E-06  0.4451E-06  0.4450E-06  0.1916E-06  0.1912E-06  0.1409E-08  0.1404E-08  0.3674E-08  0.3674E-08  0.1864E-08  0.1784E-08  0.3674E-08  0.3674E-08  0.7243E-09  0.7251E-09
     -4.190  0.1214E-03  0.1211E-03  0.5384E-06  0.5373E-06  0.1223E-05  0.1222E-05  0.5384E-06  0.5373E-06  0.4886E-08  0.4868E-08  0.1142E-07  0.1142E-07  0.5559E-08  0.5356E-08  0.1142E-07  0.1142E-07  0.2414E-08  0.2414E-08
     -4.146  0.2876E-03  0.2870E-03  0.1308E-05  0.1305E-05  0.2935E-05  0.2934E-05  0.1308E-05  0.1305E-05  0.1348E-07  0.1343E-07  0.2948E-07  0.2947E-07  0.1290E-07  0.1242E-07  0.2948E-07  0.2947E-07  0.5479E-08  0.5481E-08
     -4.101  0.6536E-03  0.6522E-03  0.2997E-05  0.2991E-05  0.6711E-05  0.6710E-05  0.2997E-05  0.2991E-05  0.2939E-07  0.2929E-07  0.6586E-07  0.6584E-07  0.2950E-07  0.2841E-07  0.6586E-07  0.6584E-07  0.1245E-07  0.1245E-07
     -4.057  0.1402E-02  0.1399E-02  0.6905E-05  0.6892E-05  0.1503E-04  0.1503E-04  0.6905E-05  0.6892E-05  0.7182E-07  0.7157E-07  0.1570E-06  0.1569E-06  0.6698E-07  0.6464E-07  0.1570E-06  0.1569E-06  0.2937E-07  0.2938E-07
     -4.012  0.2684E-02  0.2679E-02  0.1481E-04  0.1479E-04  0.3077E-04  0.3077E-04  0.1481E-04  0.1479E-04  0.1680E-06  0.1675E-06  0.3529E-06  0.3528E-06  0.1400E-06  0.1355E-06  0.3529E-06  0.3528E-06  0.6616E-07  0.6617E-07
     -3.967  0.4413E-02  0.4407E-02  0.2840E-04  0.2836E-04  0.5565E-04  0.5567E-04  0.2840E-04  0.2836E-04  0.3532E-06  0.3521E-06  0.7102E-06  0.7101E-06  0.2679E-06  0.2602E-06  0.7102E-06  0.7101E-06  0.1406E-06  0.1406E-06
     -3.923  0.6183E-02  0.6177E-02  0.4843E-04  0.4837E-04  0.8927E-04  0.8931E-04  0.4843E-04  0.4837E-04  0.6843E-06  0.6823E-06  0.1306E-05  0.1306E-05  0.4789E-06  0.4676E-06  0.1306E-05  0.1306E-05  0.2815E-06  0.2814E-06
     -3.878  0.7699E-02  0.7693E-02  0.7574E-04  0.7566E-04  0.1319E-03  0.1319E-03  0.7574E-04  0.7566E-04  0.1218E-05  0.1215E-05  0.2226E-05  0.2225E-05  0.8280E-06  0.8131E-06  0.2226E-05  0.2225E-05  0.5393E-06  0.5391E-06
     -3.834  0.9248E-02  0.9240E-02  0.1137E-03  0.1135E-03  0.1887E-03  0.1887E-03  0.1137E-03  0.1135E-03  0.2094E-05  0.2089E-05  0.3661E-05  0.3660E-05  0.1366E-05  0.1347E-05  0.3661E-05  0.3660E-05  0.9530E-06  0.9526E-06
     -3.789  0.1100E-01  0.1099E-01  0.1607E-03  0.1606E-03  0.2588E-03  0.2589E-03  0.1607E-03  0.1606E-03  0.3444E-05  0.3436E-05  0.5732E-05  0.5729E-05  0.2017E-05  0.1993E-05  0.5732E-05  0.5729E-05  0.1448E-05  0.1448E-05
     -3.744  0.1218E-01  0.1217E-01  0.2028E-03  0.2027E-03  0.3234E-03  0.3236E-03  0.2028E-03  0.2027E-03  0.5091E-05  0.5081E-05  0.8134E-05  0.8130E-05  0.2618E-05  0.2591E-05  0.8134E-05  0.8130E-05  0.1888E-05  0.1888E-05
     -3.700  0.1227E-01  0.1227E-01  0.2341E-03  0.2340E-03  0.3752E-03  0.3754E-03  0.2341E-03  0.2340E-03  0.6901E-05  0.6890E-05  0.1071E-04  0.1071E-04  0.3257E-05  0.3230E-05  0.1071E-04  0.1071E-04  0.2375E-05  0.2374E-05
     -3.655  0.1242E-01  0.1241E-01  0.2790E-03  0.2789E-03  0.4425E-03  0.4428E-03  0.2790E-03  0.2789E-03  0.9390E-05  0.9375E-05  0.1432E-04  0.1431E-04  0.4349E-05  0.4318E-05  0.1432E-04  0.1431E-04  0.3344E-05  0.3342E-05
     -3.611  0.1358E-01  0.1357E-01  0.3584E-03  0.3582E-03  0.5308E-03  0.5310E-03  0.3584E-03  0.3582E-03  0.1290E-04  0.1288E-04  0.1936E-04  0.1934E-04  0.6071E-05  0.6028E-05  0.1936E-04  0.1934E-04  0.5178E-05  0.5173E-05
     -3.566  0.1482E-01  0.1481E-01  0.4484E-03  0.4481E-03  0.5929E-03  0.5930E-03  0.4484E-03  0.4481E-03  0.1665E-04  0.1663E-04  0.2440E-04  0.2439E-04  0.8017E-05  0.7956E-05  0.2440E-04  0.2439E-04  0.7593E-05  0.7587E-05
     -3.522  0.1521E-01  0.1520E-01  0.5152E-03  0.5150E-03  0.6222E-03  0.6222E-03  0.5152E-03  0.5150E-03  0.2038E-04  0.2035E-04  0.2908E-04  0.2907E-04  0.9703E-05  0.9630E-05  0.2908E-04  0.2907E-04  0.9626E-05  0.9621E-05
     -3.477  0.1519E-01  0.1517E-01  0.5598E-03  0.5596E-03  0.6776E-03  0.6774E-03  0.5598E-03  0.5596E-03  0.2551E-04  0.2548E-04  0.3533E-04  0.3531E-04  0.1110E-04  0.1102E-04  0.3533E-04  0.3531E-04  0.1054E-04  0.1054E-04
     -3.432  0.1535E-01  0.1534E-01  0.6078E-03  0.6075E-03  0.7616E-03  0.7614E-03  0.6078E-03  0.6075E-03  0.3321E-04  0.3316E-04  0.4341E-04  0.4337E-04  0.1246E-04  0.1239E-04  0.4341E-04  0.4337E-04  0.1092E-04  0.1091E-04
     -3.388  0.1556E-01  0.1555E-01  0.6717E-03  0.6714E-03  0.8141E-03  0.8138E-03  0.6717E-03  0.6714E-03  0.4232E-04  0.4226E-04  0.5101E-04  0.5096E-04  0.1393E-04  0.1386E-04  0.5101E-04  0.5096E-04  0.1193E-04  0.1192E-04
     -3.343  0.1537E-01  0.1536E-01  0.7265E-03  0.7262E-03  0.8330E-03  0.8327E-03  0.7265E-03  0.7262E-03  0.4890E-04  0.4884E-04  0.5684E-04  0.5679E-04  0.1569E-04  0.1561E-04  0.5684E-04  0.5679E-04  0.1394E-04  0.1392E-04
     -3.299  0.1500E-01  0.1499E-01  0.7693E-03  0.7689E-03  0.8911E-03  0.8907E-03  0.7693E-03  0.7689E-03  0.5147E-04  0.5141E-04  0.6304E-04  0.6299E-04  0.1890E-04  0.1881E-04  0.6304E-04  0.6299E-04  0.1742E-04  0.1740E-04
     -3.254  0.1560E-01  0.1559E-01  0.8691E-03  0.8687E-03  0.1043E-02  0.1042E-02  0.8691E-03  0.8687E-03  0.5672E-04  0.5664E-04  0.7380E-04  0.7373E-04  0.2524E-04  0.2514E-04  0.7380E-04  0.7373E-04  0.2361E-04  0.2358E-04
     -3.209  0.1723E-01  0.1722E-01  0.1040E-02  0.1040E-02  0.1245E-02  0.1245E-02  0.1040E-02  0.1040E-02  0.7028E-04  0.7017E-04  0.8824E-04  0.8816E-04  0.3410E-04  0.3397E-04  0.8824E-04  0.8816E-04  0.3131E-04  0.3129E-04
     -3.165  0.1832E-01  0.1831E-01  0.1181E-02  0.1181E-02  0.1390E-02  0.1390E-02  0.1181E-02  0.1181E-02  0.8806E-04  0.8792E-04  0.1002E-03  0.1001E-03  0.4160E-04  0.4145E-04  0.1002E-03  0.1001E-03  0.3635E-04  0.3632E-04
     -3.120  0.1832E-01  0.1830E-01  0.1252E-02  0.1251E-02  0.1459E-02  0.1459E-02  0.1252E-02  0.1251E-02  0.1055E-03  0.1053E-03  0.1116E-03  0.1115E-03  0.4494E-04  0.4479E-04  0.1116E-03  0.1115E-03  0.3766E-04  0.3763E-04
     -3.076  0.1835E-01  0.1834E-01  0.1325E-02  0.1324E-02  0.1556E-02  0.1556E-02  0.1325E-02  0.1324E-02  0.1226E-03  0.1224E-03  0.1317E-03  0.1315E-03  0.4605E-04  0.4591E-04  0.1317E-03  0.1315E-03  0.3891E-04  0.3889E-04
     -3.031  0.1857E-01  0.1856E-01  0.1399E-02  0.1398E-02  0.1699E-02  0.1698E-02  0.1399E-02  0.1398E-02  0.1369E-03  0.1367E-03  0.1558E-03  0.1556E-03  0.4697E-04  0.4684E-04  0.1558E-03  0.1556E-03  0.4061E-04  0.4060E-04
     -2.986  0.1758E-01  0.1757E-01  0.1374E-02  0.1374E-02  0.1739E-02  0.1739E-02  0.1374E-02  0.1374E-02  0.1428E-03  0.1426E-03  0.1679E-03  0.1677E-03  0.4572E-04  0.4561E-04  0.1679E-03  0.1677E-03  0.3940E-04  0.3940E-04
     -2.942  0.1563E-01  0.1563E-01  0.1305E-02  0.1305E-02  0.1679E-02  0.1679E-02  0.1305E-02  0.1305E-02  0.1456E-03  0.1454E-03  0.1718E-03  0.1716E-03  0.4343E-04  0.4333E-04  0.1718E-03  0.1716E-03  0.3783E-04  0.3782E-04
     -2.897  0.1500E-01  0.1499E-01  0.1386E-02  0.1385E-02  0.1766E-02  0.1765E-02  0.1386E-02  0.1385E-02  0.1643E-03  0.1641E-03  0.1889E-03  0.1887E-03  0.4808E-04  0.4795E-04  0.1889E-03  0.1887E-03  0.4300E-04  0.4297E-04
     -2.853  0.1634E-01  0.1633E-01  0.1657E-02  0.1656E-02  0.2109E-02  0.2108E-02  0.1657E-02  0.1656E-02  0.2031E-03  0.2028E-03  0.2214E-03  0.2211E-03  0.6448E-04  0.6429E-04  0.2214E-03  0.2211E-03  0.5672E-04  0.5667E-04
     -2.808  0.1820E-01  0.1818E-01  0.1982E-02  0.1981E-02  0.2539E-02  0.2538E-02  0.1982E-02  0.1981E-02  0.2439E-03  0.2435E-03  0.2548E-03  0.2544E-03  0.8635E-04  0.8609E-04  0.2548E-03  0.2544E-03  0.7486E-04  0.7478E-04
     -2.763  0.1914E-01  0.1912E-01  0.2210E-02  0.2209E-02  0.2842E-02  0.2840E-02  0.2210E-02  0.2209E-02  0.2674E-03  0.2671E-03  0.2846E-03  0.2841E-03  0.1005E-03  0.1002E-03  0.2846E-03  0.2841E-03  0.9028E-04  0.9019E-04
     -2.719  0.1885E-01  0.1883E-01  0.2296E-02  0.2295E-02  0.2968E-02  0.2966E-02  0.2296E-02  0.2295E-02  0.2791E-03  0.2787E-03  0.3140E-03  0.3136E-03  0.1018E-03  0.1015E-03  0.3140E-03  0.3136E-03  0.9744E-04  0.9736E-04
     -2.674  0.1835E-01  0.1833E-01  0.2363E-02  0.2362E-02  0.3107E-02  0.3106E-02  0.2363E-02  0.2362E-02  0.3045E-03  0.3040E-03  0.3513E-03  0.3508E-03  0.9999E-04  0.9973E-04  0.3513E-03  0.3508E-03  0.9961E-04  0.9954E-04
     -2.630  0.1799E-01  0.1798E-01  0.2445E-02  0.2445E-02  0.3331E-02  0.3330E-02  0.2445E-02  0.2445E-02  0.3398E-03  0.3393E-03  0.3910E-03  0.3905E-03  0.1004E-03  0.1001E-03  0.3910E-03  0.3905E-03  0.1004E-03  0.1004E-03
     -2.585  0.1675E-01  0.1674E-01  0.2402E-02  0.2402E-02  0.3440E-02  0.3439E-02  0.2402E-02  0.2402E-02  0.3598E-03  0.3593E-03  0.4135E-03  0.4130E-03  0.9499E-04  0.9475E-04  0.4135E-03  0.4130E-03  0.9554E-04  0.9548E-04
     -2.540  0.1512E-01  0.1511E-01  0.2313E-02  0.2313E-02  0.3501E-02  0.3499E-02  0.2313E-02  0.2313E-02  0.3843E-03  0.3838E-03  0.4413E-03  0.4408E-03  0.8544E-04  0.8522E-04  0.4413E-03  0.4408E-03  0.8640E-04  0.8635E-04
     -2.496  0.1473E-01  0.1472E-01  0.2419E-02  0.2418E-02  0.3784E-02  0.3782E-02  0.2419E-02  0.2418E-02  0.4469E-03  0.4463E-03  0.5137E-03  0.5130E-03  0.8514E-04  0.8491E-04  0.5137E-03  0.5130E-03  0.8368E-04  0.8362E-04
     -2.451  0.1522E-01  0.1520E-01  0.2676E-02  0.2675E-02  0.4193E-02  0.4191E-02  0.2676E-02  0.2675E-02  0.5262E-03  0.5254E-03  0.6041E-03  0.6031E-03  0.9603E-04  0.9577E-04  0.6041E-03  0.6031E-03  0.8941E-04  0.8933E-04
     -2.407  0.1537E-01  0.1536E-01  0.2956E-02  0.2954E-02  0.4440E-02  0.4437E-02  0.2956E-02  0.2954E-02  0.5891E-03  0.5882E-03  0.6665E-03  0.6654E-03  0.1090E-03  0.1087E-03  0.6665E-03  0.6654E-03  0.1003E-03  0.1002E-03