 vasp.6.4.1 05Apr23 (build Jul 24 2024 14:19:02) complex                         
 executed on             LinuxGNU date 2024.10.23  12:42:04
 running    1 mpi-ranks, with   24 threads/rank, on    1 nodes
 distrk:  each k-point on    1 cores,    1 groups
 distr:  one band on NCORE=   1 cores,    1 groups


--------------------------------------------------------------------------------------------------------


 INCAR:
   ISTART = 0
   ALGO = Fast
   EDIFF = 0.0001
   ENCUT = 520
   IBRION = -1
   ISIF = 2
   ISMEAR = -5
   ISPIN = 2
   LASPH = True
   LMAXMIX = 6
   LORBIT = 11
   LREAL = Auto
   LWAVE = False
   MAGMOM = 2*0.6
   NELM = 100
   NSW = 0
   PREC = Accurate
   SIGMA = 0.05

 POTCAR:    PAW_PBE Nb_pv 08Apr2002               
 POTCAR:    PAW_PBE Nb_pv 08Apr2002               
   SHA256 =  bac2b60850b34f8515cf56f9feae68b678e347865051052a0e1f5d2c6a691c0a Nb_pv/POTCAR          
   COPYR  = (c) Copyright 08Apr2002 Georg Kresse                                                    
   COPYR  = This file is part of the software VASP. Any use, copying, and all other rights are regul
   COPYR  = If you do not have a valid VASP license, you may not use, copy or distribute this file. 
   VRHFIN =Nb: 4p5s4d                                                                               
   LEXCH  = PE                                                                                      
   EATOM  =  1043.3917 eV,   76.6871 Ry                                                             
                                                                                                    
   TITEL  = PAW_PBE Nb_pv 08Apr2002                                                                 
   LULTRA =        F    use ultrasoft PP ?                                                          
   IUNSCR =        1    unscreen: 0-lin 1-nonlin 2-no                                               
   RPACOR =    2.200    partial core radius                                                         
   POMASS =   92.000; ZVAL   =   11.000    mass and valenz                                          
   RCORE  =    2.750    outmost cutoff radius                                                       
   RWIGS  =    2.840; RWIGS  =    1.503    wigner-seitz radius (au A)                               
   ENMAX  =  208.608; ENMIN  =  156.456 eV                                                          
   RCLOC  =    2.201    cutoff for local pot                                                        
   LCOR   =        T    correct aug charges                                                         
   LPAW   =        T    paw PP                                                                      
   EAUG   =  355.067                                                                                
   DEXC   =    0.000                                                                                
   RMAX   =    2.804    core radius for proj-oper                                                   
   RAUG   =    1.300    factor for augmentation sphere                                              
   RDEP   =    2.776    radius for radial grids                                                     
   RDEPT  =    2.198    core radius for aug-charge                                                  
                                                                                                    
   Atomic configuration                                                                             
   11 entries                                                                                       
     n  l   j            E        occ.                                                              
     1  0  0.50    -18805.2456   2.0000                                                             
     2  0  0.50     -2630.2869   2.0000                                                             
     2  1  1.50     -2348.4045   6.0000                                                             
     3  0  0.50      -438.8756   2.0000                                                             
     3  1  1.50      -346.7587   6.0000                                                             
     3  2  2.50      -196.2559  10.0000                                                             
     4  0  0.50       -58.3859   2.0000                                                             
     4  1  1.50       -34.5141   6.0000                                                             
     4  2  2.50        -3.0408   4.0000                                                             
     5  0  0.50        -3.9816   1.0000                                                             
     4  3  2.50        -1.3606   0.0000                                                             
   Description                                                                                      
     l       E           TYP  RCUT    TYP  RCUT                                                     
     1    -34.5140617     23  2.600                                                                 
     1     -1.3605826     23  2.600                                                                 
     2     -3.0407924     23  2.600                                                                 
     2     -1.4463597     23  2.600                                                                 
     0     -3.9816219     23  2.750                                                                 
     0     20.4087390     23  2.750                                                                 
  local pseudopotential read in
  partial core-charges read in
  partial kinetic energy density read in
  atomic valenz-charges read in
  non local Contribution for L=           1  read in
    real space projection operators read in
  non local Contribution for L=           1  read in
    real space projection operators read in
  non local Contribution for L=           2  read in
    real space projection operators read in
  non local Contribution for L=           2  read in
    real space projection operators read in
  non local Contribution for L=           0  read in
    real space projection operators read in
  non local Contribution for L=           0  read in
    real space projection operators read in
    PAW grid and wavefunctions read in

   number of l-projection  operators is LMAX  =           6
   number of lm-projection operators is LMMAX =          18

 -----------------------------------------------------------------------------
|                                                                             |
|               ----> ADVICE to this user running VASP <----                  |
|                                                                             |
|     You have a (more or less) 'small supercell' and for smaller cells       |
|     it is recommended to use the reciprocal-space projection scheme!        |
|     The real-space optimization is not efficient for small cells and it     |
|     is also less accurate ...                                               |
|     Therefore, set LREAL=.FALSE. in the INCAR file.                         |
|                                                                             |
 -----------------------------------------------------------------------------

 Optimization of the real space projectors (new method)

 maximal supplied QI-value         = 13.61
 optimisation between [QCUT,QGAM] = [ 11.57, 23.27] = [ 37.45,151.59] Ry 
 Optimized for a Real-space Cutoff    1.63 Angstroem

   l    n(q)    QCUT    max X(q) W(low)/X(q) W(high)/X(q)  e(spline) 
   1     11    11.565     4.545    0.12E-04    0.18E-04    0.64E-07
   1     11    11.565     6.014    0.42E-04    0.48E-04    0.13E-06
   2     10    11.565   266.542    0.24E-03    0.87E-04    0.13E-05
   2     10    11.565   232.726    0.24E-03    0.87E-04    0.13E-05
   0     11    11.565    38.050    0.76E-04    0.32E-05    0.94E-06
   0     11    11.565    16.565    0.58E-04    0.25E-05    0.73E-06
  PAW_PBE Nb_pv 08Apr2002               :
 energy of atom  1       EATOM=-1043.3917
 kinetic energy error for atom=    0.0011 (will be added to EATOM!!)


 POSCAR: Generated POSCAR
  positions in direct lattice
  velocities in cartesian coordinates
 exchange correlation table for  LEXCH =        8
   RHO(1)=    0.500       N(1)  =     2000
   RHO(2)=  100.500       N(2)  =     4000



--------------------------------------------------------------------------------------------------------


 ion  position               nearest neighbor table
   1  0.000  0.000  0.000-   2 2.86   2 2.86   2 2.86   2 2.86   2 2.86   2 2.86   2 2.86   2 2.86

   2  0.500  0.500  0.500-   1 2.86   1 2.86   1 2.86   1 2.86   1 2.86   1 2.86   1 2.86   1 2.86


  LATTYP: Found a simple tetragonal cell.
 ALAT       =     3.3217793369
 C/A-ratio  =     0.9800000000
  
  Lattice vectors:
  
 A1 = (   0.0000000000,   3.3217793369,   0.0000000000)
 A2 = (   0.0000000000,   0.0000000000,   3.3217793369)
 A3 = (   3.2553437502,   0.0000000000,   0.0000000000)


Analysis of symmetry for initial positions (statically):
=====================================================================
 Subroutine PRICEL returns following result:
 
  LATTYP: Found a body centered tetragonal cell.
 ALAT       =     3.3217793369
 C/A-ratio  =     0.9800000000
  
  Lattice vectors:
  
 A1 = (  -1.6276718751,   1.6608896685,   1.6608896685)
 A2 = (  -1.6276718751,  -1.6608896685,  -1.6608896685)
 A3 = (   1.6276718751,  -1.6608896685,   1.6608896685)
 
   2 primitive cells build up your supercell.
 

 Routine SETGRP: Setting up the symmetry group for a 
 simple tetragonal supercell.


 Subroutine GETGRP returns: Found 16 space group operations
 (whereof 16 operations were pure point group operations)
 out of a pool of 16 trial point group operations.


The static configuration has the point symmetry D_4h.


Analysis of symmetry for dynamics (positions and initial velocities):
=====================================================================
 Subroutine PRICEL returns following result:
 
  LATTYP: Found a body centered tetragonal cell.
 ALAT       =     3.3217793369
 C/A-ratio  =     0.9800000000
  
  Lattice vectors:
  
 A1 = (  -1.6276718751,   1.6608896685,   1.6608896685)
 A2 = (  -1.6276718751,  -1.6608896685,  -1.6608896685)
 A3 = (   1.6276718751,  -1.6608896685,   1.6608896685)
 
   2 primitive cells build up your supercell.
 

 Routine SETGRP: Setting up the symmetry group for a 
 simple tetragonal supercell.


 Subroutine GETGRP returns: Found 16 space group operations
 (whereof 16 operations were pure point group operations)
 out of a pool of 16 trial point group operations.


The dynamic configuration has the point symmetry D_4h.


Analysis of structural, dynamic, and magnetic symmetry:
=====================================================================
 Subroutine PRICEL returns following result:
 
  LATTYP: Found a body centered tetragonal cell.
 ALAT       =     3.3217793369
 C/A-ratio  =     0.9800000000
  
  Lattice vectors:
  
 A1 = (  -1.6276718751,   1.6608896685,   1.6608896685)
 A2 = (  -1.6276718751,  -1.6608896685,  -1.6608896685)
 A3 = (   1.6276718751,  -1.6608896685,   1.6608896685)
 
   2 primitive cells build up your supercell.
 

 Routine SETGRP: Setting up the symmetry group for a 
 simple tetragonal supercell.


 Subroutine GETGRP returns: Found 16 space group operations
 (whereof 16 operations were pure point group operations)
 out of a pool of 16 trial point group operations.


The overall configuration has the point symmetry D_4h.


 Subroutine INISYM returns: Found 16 space group operations
 (whereof 16 operations are pure point group operations),
 and found     2 'primitive' translations


----------------------------------------------------------------------------------------

                                     Primitive cell                                     

  volume of cell :      17.9601

  direct lattice vectors                    reciprocal lattice vectors
    -1.627671875  1.660889668  1.660889668    -0.307187221  0.000000000  0.301043477
    -1.627671875 -1.660889668 -1.660889668    -0.307187221 -0.301043477  0.000000000
     1.627671875 -1.660889668  1.660889668     0.000000000 -0.301043477  0.301043477

  length of vectors
     2.857695700  2.857695700  2.857695700     0.430105991  0.430105991  0.425739767

  position of ions in fractional coordinates (direct lattice)
     0.000000000  0.000000000  0.000000000

  ion indices of the primitive-cell ions
   primitive index   ion index
                 1           1

----------------------------------------------------------------------------------------



 KPOINTS: pymatgen with grid density = 869 / numbe

Automatic generation of k-mesh.
 Grid dimensions read from file:
 generate k-points for:    7    7    7

 Generating k-lattice:

  Cartesian coordinates                     Fractional coordinates (reciprocal lattice)
     0.043883889 -0.000000000  0.000000000     0.142857143 -0.000000000  0.000000000
     0.000000000  0.043006211  0.000000000     0.000000000  0.142857143  0.000000000
    -0.000000000 -0.000000000  0.043006211     0.000000000 -0.000000000  0.142857143

  Length of vectors
     0.043883889  0.043006211  0.043006211

  Shift w.r.t. Gamma in fractional coordinates (k-lattice)
     0.000000000  0.000000000  0.000000000

 TETIRR: Found    500 inequivalent tetrahedra from     2058
 
 Subroutine IBZKPT returns following result:
 ===========================================
 
 Found     40 irreducible k-points:
 
 Following reciprocal coordinates:
            Coordinates               Weight
  0.000000  0.000000  0.000000      1.000000
  0.142857  0.000000  0.000000      2.000000
  0.285714  0.000000  0.000000      2.000000
  0.428571  0.000000  0.000000      2.000000
  0.000000  0.142857  0.000000      4.000000
  0.142857  0.142857  0.000000      8.000000
  0.285714  0.142857  0.000000      8.000000
  0.428571  0.142857  0.000000      8.000000
  0.000000  0.285714  0.000000      4.000000
  0.142857  0.285714  0.000000      8.000000
  0.285714  0.285714  0.000000      8.000000
  0.428571  0.285714  0.000000      8.000000
  0.000000  0.428571  0.000000      4.000000
  0.142857  0.428571  0.000000      8.000000
  0.285714  0.428571  0.000000      8.000000
  0.428571  0.428571  0.000000      8.000000
  0.000000  0.142857  0.142857      4.000000
  0.142857  0.142857  0.142857      8.000000
  0.285714  0.142857  0.142857      8.000000
  0.428571  0.142857  0.142857      8.000000
  0.000000  0.285714  0.142857      8.000000
  0.142857  0.285714  0.142857     16.000000
  0.285714  0.285714  0.142857     16.000000
  0.428571  0.285714  0.142857     16.000000
  0.000000  0.428571  0.142857      8.000000
  0.142857  0.428571  0.142857     16.000000
  0.285714  0.428571  0.142857     16.000000
  0.428571  0.428571  0.142857     16.000000
  0.000000  0.285714  0.285714      4.000000
  0.142857  0.285714  0.285714      8.000000
  0.285714  0.285714  0.285714      8.000000
  0.428571  0.285714  0.285714      8.000000
  0.000000  0.428571  0.285714      8.000000
  0.142857  0.428571  0.285714     16.000000
  0.285714  0.428571  0.285714     16.000000
  0.428571  0.428571  0.285714     16.000000
  0.000000  0.428571  0.428571      4.000000
  0.142857  0.428571  0.428571      8.000000
  0.285714  0.428571  0.428571      8.000000
  0.428571  0.428571  0.428571      8.000000
 
 Following cartesian coordinates:
            Coordinates               Weight
  0.000000  0.000000  0.000000      1.000000
  0.043884  0.000000  0.000000      2.000000
  0.087768  0.000000  0.000000      2.000000
  0.131652  0.000000  0.000000      2.000000
  0.000000  0.043006  0.000000      4.000000
  0.043884  0.043006  0.000000      8.000000
  0.087768  0.043006  0.000000      8.000000
  0.131652  0.043006  0.000000      8.000000
  0.000000  0.086012  0.000000      4.000000
  0.043884  0.086012  0.000000      8.000000
  0.087768  0.086012  0.000000      8.000000
  0.131652  0.086012  0.000000      8.000000
  0.000000  0.129019  0.000000      4.000000
  0.043884  0.129019  0.000000      8.000000
  0.087768  0.129019  0.000000      8.000000
  0.131652  0.129019  0.000000      8.000000
  0.000000  0.043006  0.043006      4.000000
  0.043884  0.043006  0.043006      8.000000
  0.087768  0.043006  0.043006      8.000000
  0.131652  0.043006  0.043006      8.000000
  0.000000  0.086012  0.043006      8.000000
  0.043884  0.086012  0.043006     16.000000
  0.087768  0.086012  0.043006     16.000000
  0.131652  0.086012  0.043006     16.000000
  0.000000  0.129019  0.043006      8.000000
  0.043884  0.129019  0.043006     16.000000
  0.087768  0.129019  0.043006     16.000000
  0.131652  0.129019  0.043006     16.000000
  0.000000  0.086012  0.086012      4.000000
  0.043884  0.086012  0.086012      8.000000
  0.087768  0.086012  0.086012      8.000000
  0.131652  0.086012  0.086012      8.000000
  0.000000  0.129019  0.086012      8.000000
  0.043884  0.129019  0.086012     16.000000
  0.087768  0.129019  0.086012     16.000000
  0.131652  0.129019  0.086012     16.000000
  0.000000  0.129019  0.129019      4.000000
  0.043884  0.129019  0.129019      8.000000
  0.087768  0.129019  0.129019      8.000000
  0.131652  0.129019  0.129019      8.000000
 


--------------------------------------------------------------------------------------------------------




 Dimension of arrays:
   k-points           NKPTS =     40   k-points in BZ     NKDIM =     40   number of bands    NBANDS=     16
   number of dos      NEDOS =    301   number of ions     NIONS =      2
   non local maximal  LDIM  =      6   non local SUM 2l+1 LMDIM =     18
   total plane-waves  NPLWV =  18816
   max r-space proj   IRMAX =   9504   max aug-charges    IRDMAX=  32447
   dimension x,y,z NGX =    24 NGY =   28 NGZ =   28
   dimension x,y,z NGXF=    48 NGYF=   56 NGZF=   56
   support grid    NGXF=    48 NGYF=   56 NGZF=   56
   ions per type =               2
   NGX,Y,Z   is equivalent  to a cutoff of  12.26, 14.01, 14.01 a.u.
   NGXF,Y,Z  is equivalent  to a cutoff of  24.51, 28.03, 28.03 a.u.

 SYSTEM =  unknown system                          
 POSCAR =  Generated POSCAR                        

 Startparameter for this run:
   NWRITE =      2    write-flag & timer
   PREC   = accura    normal or accurate (medium, high low for compatibility)
   ISTART =      0    job   : 0-new  1-cont  2-samecut
   ICHARG =      2    charge: 1-file 2-atom 10-const
   ISPIN  =      2    spin polarized calculation?
   LNONCOLLINEAR =      F non collinear calculations
   LSORBIT =      F    spin-orbit coupling
   INIWAV =      1    electr: 0-lowe 1-rand  2-diag
   LASPH  =      T    aspherical Exc in radial PAW
 Electronic Relaxation 1
   ENCUT  =  520.0 eV  38.22 Ry    6.18 a.u.   6.05  6.18  6.18*2*pi/ulx,y,z
   ENINI  =  520.0     initial cutoff
   ENAUG  =  355.1 eV  augmentation charge cutoff
   NELM   =    100;   NELMIN=  2; NELMDL= -5     # of ELM steps 
   EDIFF  = 0.1E-03   stopping-criterion for ELM
   LREAL  =      T    real-space projection
   NLSPLINE    = F    spline interpolate recip. space projectors
   LCOMPAT=      F    compatible to vasp.4.4
   GGA_COMPAT  = T    GGA compatible to vasp.4.4-vasp.4.6
   LMAXPAW     = -100 max onsite density
   LMAXMIX     =    6 max onsite mixed and CHGCAR
   VOSKOWN=      0    Vosko Wilk Nusair interpolation
   ROPT   =   -0.00025
 Ionic relaxation
   EDIFFG = 0.1E-02   stopping-criterion for IOM
   NSW    =      0    number of steps for IOM
   NBLOCK =      1;   KBLOCK =      1    inner block; outer block 
   IBRION =     -1    ionic relax: 0-MD 1-quasi-New 2-CG
   NFREE  =      0    steps in history (QN), initial steepest desc. (CG)
   ISIF   =      2    stress and relaxation
   IWAVPR =     10    prediction:  0-non 1-charg 2-wave 3-comb
   ISYM   =      2    0-nonsym 1-usesym 2-fastsym
   LCORR  =      T    Harris-Foulkes like correction to forces

   POTIM  = 0.5000    time-step for ionic-motion
   TEIN   =    0.0    initial temperature
   TEBEG  =    0.0;   TEEND  =   0.0 temperature during run
   SMASS  =  -3.00    Nose mass-parameter (am)
   estimated Nose-frequenzy (Omega)   =  0.10E-29 period in steps = 0.13E+47 mass=  -0.242E-27a.u.
   SCALEE = 1.0000    scale energy and forces
   NPACO  =    256;   APACO  = 10.0  distance and # of slots for P.C.
   PSTRESS=    0.0 pullay stress

  Mass of Ions in am
   POMASS =  92.00
  Ionic Valenz
   ZVAL   =  11.00
  Atomic Wigner-Seitz radii
   RWIGS  =  -1.00
  virtual crystal weights 
   VCA    =   1.00
   NELECT =      22.0000    total number of electrons
   NUPDOWN=      -1.0000    fix difference up-down

 DOS related values:
   EMIN   =  10.00;   EMAX   =-10.00  energy-range for DOS
   EFERMI =   0.00;   METHOD = LEGACY      
   ISMEAR =    -5;   SIGMA  =   0.05  broadening in eV -4-tet -1-fermi 0-gaus

 Electronic relaxation 2 (details)
   IALGO  =     68    algorithm
   LDIAG  =      T    sub-space diagonalisation (order eigenvalues)
   LSUBROT=      F    optimize rotation matrix (better conditioning)
   TURBO    =      0    0=normal 1=particle mesh
   IRESTART =      0    0=no restart 2=restart with 2 vectors
   NREBOOT  =      0    no. of reboots
   NMIN     =      0    reboot dimension
   EREF     =   0.00    reference energy to select bands
   IMIX   =      4    mixing-type and parameters
     AMIX     =   0.40;   BMIX     =  1.00
     AMIX_MAG =   1.60;   BMIX_MAG =  1.00
     AMIN     =   0.10
     WC   =   100.;   INIMIX=   1;  MIXPRE=   1;  MAXMIX= -45

 Intra band minimization:
   WEIMIN = 0.0000     energy-eigenvalue tresh-hold
   EBREAK =  0.16E-05  absolut break condition
   DEPER  =   0.30     relativ break condition  

   TIME   =   0.40     timestep for ELM

  volume/ion in A,a.u.               =      17.96       121.20
  Fermi-wavevector in a.u.,A,eV,Ry     =   1.390282  2.627252 26.298486  1.932884
  Thomas-Fermi vector in A             =   2.514232

 Write flags
   LWAVE        =      F    write WAVECAR
   LDOWNSAMPLE  =      F    k-point downsampling of WAVECAR
   LCHARG       =      T    write CHGCAR
   LVTOT        =      F    write LOCPOT, total local potential
   LVHAR        =      F    write LOCPOT, Hartree potential only
   LELF         =      F    write electronic localiz. function (ELF)
   LORBIT       =     11    0 simple, 1 ext, 2 COOP (PROOUT), +10 PAW based schemes


 Dipole corrections
   LMONO  =      F    monopole corrections only (constant potential shift)
   LDIPOL =      F    correct potential (dipole corrections)
   IDIPOL =      0    1-x, 2-y, 3-z, 4-all directions 
   EPSILON=  1.0000000 bulk dielectric constant

 Exchange correlation treatment:
   GGA     =    --    GGA type
   LEXCH   =     8    internal setting for exchange type
   LIBXC   =     F    Libxc                    
   VOSKOWN =     0    Vosko Wilk Nusair interpolation
   LHFCALC =     F    Hartree Fock is set to
   LHFONE  =     F    Hartree Fock one center treatment
   AEXX    =    0.0000 exact exchange contribution

 Linear response parameters
   LEPSILON=     F    determine dielectric tensor
   LRPA    =     F    only Hartree local field effects (RPA)
   LNABLA  =     F    use nabla operator in PAW spheres
   LVEL    =     F    velocity operator in full k-point grid
   CSHIFT  =0.1000    complex shift for real part using Kramers Kronig
   OMEGAMAX=  -1.0    maximum frequency
   DEG_THRESHOLD= 0.2000000E-02 threshold for treating states as degnerate
   RTIME   =   -0.100 relaxation time in fs
  (WPLASMAI=    0.000 imaginary part of plasma frequency in eV, 0.658/RTIME)
   DFIELD  = 0.0000000 0.0000000 0.0000000 field for delta impulse in time

  Optional k-point grid parameters
   LKPOINTS_OPT  =     F    use optional k-point grid
   KPOINTS_OPT_MODE=     1    mode for optional k-point grid

 Orbital magnetization related:
   ORBITALMAG=     F  switch on orbital magnetization
   LCHIMAG   =     F  perturbation theory with respect to B field
   DQ        =  0.001000  dq finite difference perturbation B field
   LLRAUG    =     F  two centre corrections for induced B field
   LBONE     =     F  B-component reconstruction in AE one-centre
   LVGVCALC  =     T  calculate vGv susceptibility
   LVGVAPPL  =     F  apply vGv susceptibility instead of pGv for G=0

 Random number generation:
   RANDOM_GENERATOR = DEFAULT
   PCG_SEED         = not used


--------------------------------------------------------------------------------------------------------


 Static calculation
 charge density and potential will be updated during run
 spin polarized calculation
 RMM-DIIS sequential band-by-band and
  variant of blocked Davidson during initial phase
 perform sub-space diagonalisation
    before iterative eigenvector-optimisation
 modified Broyden-mixing scheme, WC =      100.0
 initial mixing is a Kerker type mixing with AMIX =  0.4000 and BMIX =      1.0000
 Hartree-type preconditioning will be used
 using additional bands            5
 real space projection scheme for non local part
 use partial core corrections
 calculate Harris-corrections to forces   (improved forces if not selfconsistent)
 use gradient corrections 
 use of overlap-Matrix (Vanderbilt PP)
 Fermi weights with tetrahedron method with Bloechl corrections


--------------------------------------------------------------------------------------------------------


  energy-cutoff  :      520.00
  volume of cell :       35.92
      direct lattice vectors                 reciprocal lattice vectors
     3.255343750  0.000000000  0.000000000     0.307187221 -0.000000000  0.000000000
     0.000000000  3.321779337  0.000000000     0.000000000  0.301043477  0.000000000
     0.000000000  0.000000000  3.321779337    -0.000000000 -0.000000000  0.301043477

  length of vectors
     3.255343750  3.321779337  3.321779337     0.307187221  0.301043477  0.301043477



 k-points in units of 2pi/SCALE and weight: pymatgen with grid density = 869 / numbe
   0.00000000  0.00000000  0.00000000       0.003
   0.04388389  0.00000000  0.00000000       0.006
   0.08776778  0.00000000  0.00000000       0.006
   0.13165167  0.00000000  0.00000000       0.006
   0.00000000  0.04300621  0.00000000       0.012
   0.04388389  0.04300621  0.00000000       0.023
   0.08776778  0.04300621  0.00000000       0.023
   0.13165167  0.04300621  0.00000000       0.023
   0.00000000  0.08601242  0.00000000       0.012
   0.04388389  0.08601242  0.00000000       0.023
   0.08776778  0.08601242  0.00000000       0.023
   0.13165167  0.08601242  0.00000000       0.023
   0.00000000  0.12901863  0.00000000       0.012
   0.04388389  0.12901863  0.00000000       0.023
   0.08776778  0.12901863  0.00000000       0.023
   0.13165167  0.12901863  0.00000000       0.023
   0.00000000  0.04300621  0.04300621       0.012
   0.04388389  0.04300621  0.04300621       0.023
   0.08776778  0.04300621  0.04300621       0.023
   0.13165167  0.04300621  0.04300621       0.023
   0.00000000  0.08601242  0.04300621       0.023
   0.04388389  0.08601242  0.04300621       0.047
   0.08776778  0.08601242  0.04300621       0.047
   0.13165167  0.08601242  0.04300621       0.047
   0.00000000  0.12901863  0.04300621       0.023
   0.04388389  0.12901863  0.04300621       0.047
   0.08776778  0.12901863  0.04300621       0.047
   0.13165167  0.12901863  0.04300621       0.047
   0.00000000  0.08601242  0.08601242       0.012
   0.04388389  0.08601242  0.08601242       0.023
   0.08776778  0.08601242  0.08601242       0.023
   0.13165167  0.08601242  0.08601242       0.023
   0.00000000  0.12901863  0.08601242       0.023
   0.04388389  0.12901863  0.08601242       0.047
   0.08776778  0.12901863  0.08601242       0.047
   0.13165167  0.12901863  0.08601242       0.047
   0.00000000  0.12901863  0.12901863       0.012
   0.04388389  0.12901863  0.12901863       0.023
   0.08776778  0.12901863  0.12901863       0.023
   0.13165167  0.12901863  0.12901863       0.023

 k-points in reciprocal lattice and weights: pymatgen with grid density = 869 / numbe
   0.00000000  0.00000000  0.00000000       0.003
   0.14285714  0.00000000  0.00000000       0.006
   0.28571429  0.00000000  0.00000000       0.006
   0.42857143  0.00000000  0.00000000       0.006
   0.00000000  0.14285714  0.00000000       0.012
   0.14285714  0.14285714  0.00000000       0.023
   0.28571429  0.14285714  0.00000000       0.023
   0.42857143  0.14285714  0.00000000       0.023
   0.00000000  0.28571429  0.00000000       0.012
   0.14285714  0.28571429  0.00000000       0.023
   0.28571429  0.28571429  0.00000000       0.023
   0.42857143  0.28571429  0.00000000       0.023
   0.00000000  0.42857143  0.00000000       0.012
   0.14285714  0.42857143  0.00000000       0.023
   0.28571429  0.42857143  0.00000000       0.023
   0.42857143  0.42857143  0.00000000       0.023
   0.00000000  0.14285714  0.14285714       0.012
   0.14285714  0.14285714  0.14285714       0.023
   0.28571429  0.14285714  0.14285714       0.023
   0.42857143  0.14285714  0.14285714       0.023
   0.00000000  0.28571429  0.14285714       0.023
   0.14285714  0.28571429  0.14285714       0.047
   0.28571429  0.28571429  0.14285714       0.047
   0.42857143  0.28571429  0.14285714       0.047
   0.00000000  0.42857143  0.14285714       0.023
   0.14285714  0.42857143  0.14285714       0.047
   0.28571429  0.42857143  0.14285714       0.047
   0.42857143  0.42857143  0.14285714       0.047
   0.00000000  0.28571429  0.28571429       0.012
   0.14285714  0.28571429  0.28571429       0.023
   0.28571429  0.28571429  0.28571429       0.023
   0.42857143  0.28571429  0.28571429       0.023
   0.00000000  0.42857143  0.28571429       0.023
   0.14285714  0.42857143  0.28571429       0.047
   0.28571429  0.42857143  0.28571429       0.047
   0.42857143  0.42857143  0.28571429       0.047
   0.00000000  0.42857143  0.42857143       0.012
   0.14285714  0.42857143  0.42857143       0.023
   0.28571429  0.42857143  0.42857143       0.023
   0.42857143  0.42857143  0.42857143       0.023

 position of ions in fractional coordinates (direct lattice) 
   0.00000000  0.00000000  0.00000000
   0.50000000  0.50000000  0.50000000

 position of ions in cartesian coordinates  (Angst):
   0.00000000  0.00000000  0.00000000
   1.62767188  1.66088967  1.66088967



--------------------------------------------------------------------------------------------------------


 k-point   1 :   0.0000 0.0000 0.0000  plane waves:     957
 k-point   2 :   0.1429 0.0000 0.0000  plane waves:     980
 k-point   3 :   0.2857 0.0000 0.0000  plane waves:     968
 k-point   4 :   0.4286 0.0000 0.0000  plane waves:     960
 k-point   5 :   0.0000 0.1429 0.0000  plane waves:     961
 k-point   6 :   0.1429 0.1429 0.0000  plane waves:     969
 k-point   7 :   0.2857 0.1429 0.0000  plane waves:     963
 k-point   8 :   0.4286 0.1429 0.0000  plane waves:     971
 k-point   9 :   0.0000 0.2857 0.0000  plane waves:     970
 k-point  10 :   0.1429 0.2857 0.0000  plane waves:     962
 k-point  11 :   0.2857 0.2857 0.0000  plane waves:     970
 k-point  12 :   0.4286 0.2857 0.0000  plane waves:     965
 k-point  13 :   0.0000 0.4286 0.0000  plane waves:     968
 k-point  14 :   0.1429 0.4286 0.0000  plane waves:     963
 k-point  15 :   0.2857 0.4286 0.0000  plane waves:     965
 k-point  16 :   0.4286 0.4286 0.0000  plane waves:     968
 k-point  17 :   0.0000 0.1429 0.1429  plane waves:     957
 k-point  18 :   0.1429 0.1429 0.1429  plane waves:     960
 k-point  19 :   0.2857 0.1429 0.1429  plane waves:     962
 k-point  20 :   0.4286 0.1429 0.1429  plane waves:     965
 k-point  21 :   0.0000 0.2857 0.1429  plane waves:     965
 k-point  22 :   0.1429 0.2857 0.1429  plane waves:     966
 k-point  23 :   0.2857 0.2857 0.1429  plane waves:     973
 k-point  24 :   0.4286 0.2857 0.1429  plane waves:     968
 k-point  25 :   0.0000 0.4286 0.1429  plane waves:     955
 k-point  26 :   0.1429 0.4286 0.1429  plane waves:     968
 k-point  27 :   0.2857 0.4286 0.1429  plane waves:     970
 k-point  28 :   0.4286 0.4286 0.1429  plane waves:     974
 k-point  29 :   0.0000 0.2857 0.2857  plane waves:     965
 k-point  30 :   0.1429 0.2857 0.2857  plane waves:     970
 k-point  31 :   0.2857 0.2857 0.2857  plane waves:     969
 k-point  32 :   0.4286 0.2857 0.2857  plane waves:     971
 k-point  33 :   0.0000 0.4286 0.2857  plane waves:     964
 k-point  34 :   0.1429 0.4286 0.2857  plane waves:     962
 k-point  35 :   0.2857 0.4286 0.2857  plane waves:     973
 k-point  36 :   0.4286 0.4286 0.2857  plane waves:     974
 k-point  37 :   0.0000 0.4286 0.4286  plane waves:     974
 k-point  38 :   0.1429 0.4286 0.4286  plane waves:     970
 k-point  39 :   0.2857 0.4286 0.4286  plane waves:     978
 k-point  40 :   0.4286 0.4286 0.4286  plane waves:     971

 maximum and minimum number of plane-waves per node :       980      955

 maximum number of plane-waves:       980
 maximum index in each direction: 
   IXMAX=    6   IYMAX=    6   IZMAX=    6
   IXMIN=   -6   IYMIN=   -6   IZMIN=   -6


 serial   3D FFT for wavefunctions
 parallel 3D FFT for charge:
    minimum data exchange during FFTs selected (reduces bandwidth)


 total amount of memory used by VASP MPI-rank0    74262. kBytes
=======================================================================

   base      :      30000. kBytes
   nonlr-proj:       5424. kBytes
   fftplans  :       5304. kBytes
   grid      :      12665. kBytes
   one-center:         62. kBytes
   wavefun   :      20807. kBytes

     INWAV:  cpu time      0.0000: real time      0.0000
 Broyden mixing: mesh for mixing (old mesh)
   NGX = 13   NGY = 13   NGZ = 13
  (NGX  = 48   NGY  = 56   NGZ  = 56)
  gives a total of   2197 points

 initial charge density was supplied:
 charge density of overlapping atoms calculated
 number of electron      22.0000000 magnetization       1.2000000
 keeping initial charge density in first step


--------------------------------------------------------------------------------------------------------


 Maximum index for non-local projection operator          986
 Maximum index for augmentation-charges        31219 (set IRDMAX)


--------------------------------------------------------------------------------------------------------


 First call to EWALD:  gamma=   0.537
 Maximum number of real-space cells 3x 3x 3
 Maximum number of reciprocal cells 3x 3x 3

    FEWALD:  cpu time      0.0129: real time      0.0097


--------------------------------------- Ionic step        1  -------------------------------------------




--------------------------------------- Iteration      1(   1)  ---------------------------------------


    POTLOK:  cpu time      1.4796: real time      0.1190
    SETDIJ:  cpu time      1.1598: real time      0.2519
     EDDAV:  cpu time    289.7784: real time     15.6643
 BZINTS: Fermi energy:   23.727529;   22.000000 electrons
         Band energy:-0.288901E+02;  BLOECHL correction:   -0.648043
       DOS:  cpu time      0.2384: real time      0.0362
    --------------------------------------------
      LOOP:  cpu time    292.6562: real time     16.0713

 eigenvalue-minimisations  :  2800
 total energy-change (2. order) : 0.1982482E+03  (-0.1164431E+04)
 number of electron      22.0000000 magnetization       1.2000000
 augmentation part       22.0000000 magnetization       1.2000000

 Free energy of the ion-electron system (eV)
  ---------------------------------------------------
  alpha Z        PSCENC =       252.06371612
  Ewald energy   TEWEN  =     -1921.77102286
  -Hartree energ DENC   =      -274.62979934
  -exchange      EXHF   =         0.00000000
  -V(xc)+E(xc)   XCENC  =        52.78563812
  PAW double counting   =      1671.32378679    -1639.41528309
  entropy T*S    EENTRO =         0.00000000
  eigenvalues    EBANDS =       -28.89011437
  atomic energy  EATOM  =      2086.78124273
  Solvation  Ediel_sol  =         0.00000000
  ---------------------------------------------------
  free energy    TOTEN  =       198.24816410 eV

  energy without entropy =      198.24816410  energy(sigma->0) =      198.24816410


--------------------------------------------------------------------------------------------------------




--------------------------------------- Iteration      1(   2)  ---------------------------------------


     EDDAV:  cpu time    326.8761: real time     17.3415
 BZINTS: Fermi energy:    7.364237;   22.000000 electrons
         Band energy:-0.237437E+03;  BLOECHL correction:   -0.289928
       DOS:  cpu time      0.2444: real time      0.0265
    --------------------------------------------
      LOOP:  cpu time    327.1205: real time     17.3680

 eigenvalue-minimisations  :  2704
 total energy-change (2. order) :-0.2085469E+03  (-0.2062799E+03)
 number of electron      22.0000000 magnetization       1.2000000
 augmentation part       22.0000000 magnetization       1.2000000

 Free energy of the ion-electron system (eV)
  ---------------------------------------------------
  alpha Z        PSCENC =       252.06371612
  Ewald energy   TEWEN  =     -1921.77102286
  -Hartree energ DENC   =      -274.62979934
  -exchange      EXHF   =         0.00000000
  -V(xc)+E(xc)   XCENC  =        52.78563812
  PAW double counting   =      1671.32378679    -1639.41528309
  entropy T*S    EENTRO =         0.00000000
  eigenvalues    EBANDS =      -237.43698617
  atomic energy  EATOM  =      2086.78124273
  Solvation  Ediel_sol  =         0.00000000
  ---------------------------------------------------
  free energy    TOTEN  =       -10.29870770 eV

  energy without entropy =      -10.29870770  energy(sigma->0) =      -10.29870770


--------------------------------------------------------------------------------------------------------




--------------------------------------- Iteration      1(   3)  ---------------------------------------


     EDDAV:  cpu time    672.3467: real time     34.2242
 BZINTS: Fermi energy:    5.618103;   22.000000 electrons
         Band energy:-0.248046E+03;  BLOECHL correction:   -0.220806
       DOS:  cpu time      0.2329: real time      0.0283
    --------------------------------------------
      LOOP:  cpu time    672.5796: real time     34.2525

 eigenvalue-minimisations  :  4216
 total energy-change (2. order) :-0.1060949E+02  (-0.9888543E+01)
 number of electron      22.0000000 magnetization       1.2000000
 augmentation part       22.0000000 magnetization       1.2000000

 Free energy of the ion-electron system (eV)
  ---------------------------------------------------
  alpha Z        PSCENC =       252.06371612
  Ewald energy   TEWEN  =     -1921.77102286
  -Hartree energ DENC   =      -274.62979934
  -exchange      EXHF   =         0.00000000
  -V(xc)+E(xc)   XCENC  =        52.78563812
  PAW double counting   =      1671.32378679    -1639.41528309
  entropy T*S    EENTRO =         0.00000000
  eigenvalues    EBANDS =      -248.04647160
  atomic energy  EATOM  =      2086.78124273
  Solvation  Ediel_sol  =         0.00000000
  ---------------------------------------------------
  free energy    TOTEN  =       -20.90819313 eV

  energy without entropy =      -20.90819313  energy(sigma->0) =      -20.90819313


--------------------------------------------------------------------------------------------------------




--------------------------------------- Iteration      1(   4)  ---------------------------------------


     EDDAV:  cpu time    528.4308: real time     26.7723
 BZINTS: Fermi energy:    5.589643;   22.000000 electrons
         Band energy:-0.248243E+03;  BLOECHL correction:   -0.216389
       DOS:  cpu time      0.2603: real time      0.0282
    --------------------------------------------
      LOOP:  cpu time    528.6911: real time     26.8005

 eigenvalue-minimisations  :  3232
 total energy-change (2. order) :-0.1969680E+00  (-0.1936353E+00)
 number of electron      22.0000000 magnetization       1.2000000
 augmentation part       22.0000000 magnetization       1.2000000

 Free energy of the ion-electron system (eV)
  ---------------------------------------------------
  alpha Z        PSCENC =       252.06371612
  Ewald energy   TEWEN  =     -1921.77102286
  -Hartree energ DENC   =      -274.62979934
  -exchange      EXHF   =         0.00000000
  -V(xc)+E(xc)   XCENC  =        52.78563812
  PAW double counting   =      1671.32378679    -1639.41528309
  entropy T*S    EENTRO =         0.00000000
  eigenvalues    EBANDS =      -248.24343962
  atomic energy  EATOM  =      2086.78124273
  Solvation  Ediel_sol  =         0.00000000
  ---------------------------------------------------
  free energy    TOTEN  =       -21.10516115 eV

  energy without entropy =      -21.10516115  energy(sigma->0) =      -21.10516115


--------------------------------------------------------------------------------------------------------




--------------------------------------- Iteration      1(   5)  ---------------------------------------


     EDDAV:  cpu time    362.3836: real time     19.7786
 BZINTS: Fermi energy:    5.588664;   22.000000 electrons
         Band energy:-0.248249E+03;  BLOECHL correction:   -0.216669
       DOS:  cpu time      0.2022: real time      0.0225
    CHARGE:  cpu time     20.8416: real time      1.1559
    MIXING:  cpu time      0.3489: real time      0.0165
    --------------------------------------------
      LOOP:  cpu time    383.7763: real time     20.9735

 eigenvalue-minimisations  :  4000
 total energy-change (2. order) :-0.5121805E-02  (-0.4725640E-02)
 number of electron      22.0000000 magnetization       0.3298226
 augmentation part        7.7668937 magnetization      -0.0634590

 Broyden mixing:
  rms(total) = 0.24890E+01    rms(broyden)= 0.24890E+01
  rms(prec ) = 0.28862E+01
  weight for this iteration     100.00

 Free energy of the ion-electron system (eV)
  ---------------------------------------------------
  alpha Z        PSCENC =       252.06371612
  Ewald energy   TEWEN  =     -1921.77102286
  -Hartree energ DENC   =      -274.62979934
  -exchange      EXHF   =         0.00000000
  -V(xc)+E(xc)   XCENC  =        52.78563812
  PAW double counting   =      1671.32378679    -1639.41528309
  entropy T*S    EENTRO =         0.00000000
  eigenvalues    EBANDS =      -248.24856143
  atomic energy  EATOM  =      2086.78124273
  Solvation  Ediel_sol  =         0.00000000
  ---------------------------------------------------
  free energy    TOTEN  =       -21.11028296 eV

  energy without entropy =      -21.11028296  energy(sigma->0) =      -21.11028296


--------------------------------------------------------------------------------------------------------




--------------------------------------- Iteration      1(   6)  ---------------------------------------


    POTLOK:  cpu time      5.2079: real time      0.3039
    SETDIJ:  cpu time      1.2521: real time      0.2673
    EDDIAG:  cpu time     61.7420: real time      3.3829
  RMM-DIIS:  cpu time    244.4557: real time     12.5743
    ORTHCH:  cpu time      1.2895: real time      0.0820
 BZINTS: Fermi energy:    5.251446;   22.000000 electrons
         Band energy:-0.261808E+03;  BLOECHL correction:   -0.216695
       DOS:  cpu time      0.3017: real time      0.0278
    CHARGE:  cpu time     19.5517: real time      1.0913
    MIXING:  cpu time      0.0014: real time      0.0014
    --------------------------------------------
      LOOP:  cpu time    333.8020: real time     17.7307

 eigenvalue-minimisations  :  2795
 total energy-change (2. order) : 0.7717363E+00  (-0.7523120E-01)
 number of electron      22.0000000 magnetization       0.1434796
 augmentation part        7.8898518 magnetization      -0.0575441

 Broyden mixing:
  rms(total) = 0.96823E+00    rms(broyden)= 0.96823E+00
  rms(prec ) = 0.12316E+01
  weight for this iteration     100.00

 eigenvalues of (default mixing * dielectric matrix)
  average eigenvalue GAMMA=   1.5244
  1.5244

 Free energy of the ion-electron system (eV)
  ---------------------------------------------------
  alpha Z        PSCENC =       252.06371612
  Ewald energy   TEWEN  =     -1921.77102286
  -Hartree energ DENC   =      -255.78987141
  -exchange      EXHF   =         0.00000000
  -V(xc)+E(xc)   XCENC  =        51.79415045
  PAW double counting   =      2214.38650782    -2185.99490982
  entropy T*S    EENTRO =         0.00000000
  eigenvalues    EBANDS =      -261.80835973
  atomic energy  EATOM  =      2086.78124273
  Solvation  Ediel_sol  =         0.00000000
  ---------------------------------------------------
  free energy    TOTEN  =       -20.33854669 eV

  energy without entropy =      -20.33854669  energy(sigma->0) =      -20.33854669


--------------------------------------------------------------------------------------------------------




--------------------------------------- Iteration      1(   7)  ---------------------------------------


    POTLOK:  cpu time      1.6116: real time      0.1144
    SETDIJ:  cpu time      1.0280: real time      0.2506
    EDDIAG:  cpu time     47.5256: real time      2.6991
  RMM-DIIS:  cpu time    332.0645: real time     16.7267
    ORTHCH:  cpu time      0.7868: real time      0.0496
 BZINTS: Fermi energy:    4.965003;   22.000000 electrons
         Band energy:-0.273347E+03;  BLOECHL correction:   -0.213851
       DOS:  cpu time      0.2781: real time      0.0264
    CHARGE:  cpu time     17.0890: real time      0.9700
    MIXING:  cpu time      0.0032: real time      0.0032
    --------------------------------------------
      LOOP:  cpu time    400.3867: real time     20.8400

 eigenvalue-minimisations  :  3475
 total energy-change (2. order) : 0.1500089E+00  (-0.2055197E+00)
 number of electron      22.0000000 magnetization       0.0285948
 augmentation part        8.0589246 magnetization       0.0352411

 Broyden mixing:
  rms(total) = 0.25700E+00    rms(broyden)= 0.25700E+00
  rms(prec ) = 0.27371E+00
  weight for this iteration     100.00

 eigenvalues of (default mixing * dielectric matrix)
  average eigenvalue GAMMA=   1.0855
  1.6417  0.5293

 Free energy of the ion-electron system (eV)
  ---------------------------------------------------
  alpha Z        PSCENC =       252.06371612
  Ewald energy   TEWEN  =     -1921.77102286
  -Hartree energ DENC   =      -240.24061806
  -exchange      EXHF   =         0.00000000
  -V(xc)+E(xc)   XCENC  =        51.02070369
  PAW double counting   =      2685.65156030    -2660.34666606
  entropy T*S    EENTRO =         0.00000000
  eigenvalues    EBANDS =      -273.34745362
  atomic energy  EATOM  =      2086.78124273
  Solvation  Ediel_sol  =         0.00000000
  ---------------------------------------------------
  free energy    TOTEN  =       -20.18853777 eV

  energy without entropy =      -20.18853777  energy(sigma->0) =      -20.18853777


--------------------------------------------------------------------------------------------------------




--------------------------------------- Iteration      1(   8)  ---------------------------------------


    POTLOK:  cpu time      1.4333: real time      0.1063
    SETDIJ:  cpu time      0.9594: real time      0.2428
    EDDIAG:  cpu time     75.1062: real time      4.0316
  RMM-DIIS:  cpu time    415.6780: real time     20.4661
    ORTHCH:  cpu time      0.8339: real time      0.0542
 BZINTS: Fermi energy:    4.975024;   22.000000 electrons
         Band energy:-0.272858E+03;  BLOECHL correction:   -0.213961
       DOS:  cpu time      0.3011: real time      0.0310
    CHARGE:  cpu time     17.1436: real time      0.9782
    MIXING:  cpu time      0.0012: real time      0.0012
    --------------------------------------------
      LOOP:  cpu time    511.4567: real time     25.9113

 eigenvalue-minimisations  :  3667
 total energy-change (2. order) :-0.1108314E-01  (-0.1000732E-01)
 number of electron      22.0000000 magnetization       0.0156019
 augmentation part        8.0655591 magnetization       0.0139280

 Broyden mixing:
  rms(total) = 0.12212E+00    rms(broyden)= 0.12212E+00
  rms(prec ) = 0.14911E+00
  weight for this iteration     100.00

 eigenvalues of (default mixing * dielectric matrix)
  average eigenvalue GAMMA=   1.0775
  1.8643  0.6842  0.6842

 Free energy of the ion-electron system (eV)
  ---------------------------------------------------
  alpha Z        PSCENC =       252.06371612
  Ewald energy   TEWEN  =     -1921.77102286
  -Hartree energ DENC   =      -240.52459237
  -exchange      EXHF   =         0.00000000
  -V(xc)+E(xc)   XCENC  =        51.02792680
  PAW double counting   =      2737.29807025    -2712.21710058
  entropy T*S    EENTRO =         0.00000000
  eigenvalues    EBANDS =      -272.85786101
  atomic energy  EATOM  =      2086.78124273
  Solvation  Ediel_sol  =         0.00000000
  ---------------------------------------------------
  free energy    TOTEN  =       -20.19962091 eV

  energy without entropy =      -20.19962091  energy(sigma->0) =      -20.19962091


--------------------------------------------------------------------------------------------------------




--------------------------------------- Iteration      1(   9)  ---------------------------------------


    POTLOK:  cpu time      2.3740: real time      0.1562
    SETDIJ:  cpu time      1.0617: real time      0.2515
    EDDIAG:  cpu time     45.1970: real time      2.5918
  RMM-DIIS:  cpu time    390.6139: real time     19.3685
    ORTHCH:  cpu time      0.7909: real time      0.0510
 BZINTS: Fermi energy:    4.983688;   22.000000 electrons
         Band energy:-0.272453E+03;  BLOECHL correction:   -0.214105
       DOS:  cpu time      0.2894: real time      0.0295
    CHARGE:  cpu time     16.8715: real time      0.9546
    MIXING:  cpu time      0.0015: real time      0.0015
    --------------------------------------------
      LOOP:  cpu time    457.1999: real time     23.4046

 eigenvalue-minimisations  :  3675
 total energy-change (2. order) : 0.1760502E-03  (-0.2295493E-02)
 number of electron      22.0000000 magnetization       0.0151262
 augmentation part        8.0658145 magnetization       0.0166135

 Broyden mixing:
  rms(total) = 0.99471E-01    rms(broyden)= 0.99471E-01
  rms(prec ) = 0.12515E+00
  weight for this iteration     100.00

 eigenvalues of (default mixing * dielectric matrix)
  average eigenvalue GAMMA=   1.1115
  2.1384  0.8511  0.8511  0.6053

 Free energy of the ion-electron system (eV)
  ---------------------------------------------------
  alpha Z        PSCENC =       252.06371612
  Ewald energy   TEWEN  =     -1921.77102286
  -Hartree energ DENC   =      -240.86117745
  -exchange      EXHF   =         0.00000000
  -V(xc)+E(xc)   XCENC  =        51.04349267
  PAW double counting   =      2780.59967818    -2755.60207619
  entropy T*S    EENTRO =         0.00000000
  eigenvalues    EBANDS =      -272.45329807
  atomic energy  EATOM  =      2086.78124273
  Solvation  Ediel_sol  =         0.00000000
  ---------------------------------------------------
  free energy    TOTEN  =       -20.19944486 eV

  energy without entropy =      -20.19944486  energy(sigma->0) =      -20.19944486


--------------------------------------------------------------------------------------------------------




--------------------------------------- Iteration      1(  10)  ---------------------------------------


    POTLOK:  cpu time      1.3851: real time      0.1130
    SETDIJ:  cpu time      1.1136: real time      0.2532
    EDDIAG:  cpu time     61.7800: real time      3.3830
  RMM-DIIS:  cpu time    300.4404: real time     15.0591
    ORTHCH:  cpu time      0.8223: real time      0.0542
 BZINTS: Fermi energy:    5.005198;   22.000000 electrons
         Band energy:-0.271502E+03;  BLOECHL correction:   -0.214373
       DOS:  cpu time      0.2846: real time      0.0289
    CHARGE:  cpu time     17.3315: real time      0.9818
    MIXING:  cpu time      0.1579: real time      0.0095
    --------------------------------------------
      LOOP:  cpu time    383.3155: real time     19.8826

 eigenvalue-minimisations  :  2932
 total energy-change (2. order) : 0.3486345E-02  (-0.5613324E-03)
 number of electron      22.0000000 magnetization      -0.0059593
 augmentation part        8.0575713 magnetization      -0.0008274

 Broyden mixing:
  rms(total) = 0.67198E-01    rms(broyden)= 0.67198E-01
  rms(prec ) = 0.74713E-01
  weight for this iteration     100.00

 eigenvalues of (default mixing * dielectric matrix)
  average eigenvalue GAMMA=   1.3599
  2.6664  1.3746  1.3746  0.6224  0.7616

 Free energy of the ion-electron system (eV)
  ---------------------------------------------------
  alpha Z        PSCENC =       252.06371612
  Ewald energy   TEWEN  =     -1921.77102286
  -Hartree energ DENC   =      -241.78469507
  -exchange      EXHF   =         0.00000000
  -V(xc)+E(xc)   XCENC  =        51.08754228
  PAW double counting   =      2862.31042505    -2837.38120169
  entropy T*S    EENTRO =         0.00000000
  eigenvalues    EBANDS =      -271.50196509
  atomic energy  EATOM  =      2086.78124273
  Solvation  Ediel_sol  =         0.00000000
  ---------------------------------------------------
  free energy    TOTEN  =       -20.19595852 eV

  energy without entropy =      -20.19595852  energy(sigma->0) =      -20.19595852


--------------------------------------------------------------------------------------------------------




--------------------------------------- Iteration      1(  11)  ---------------------------------------


    POTLOK:  cpu time      1.5654: real time      0.1186
    SETDIJ:  cpu time      1.1286: real time      0.2667
    EDDIAG:  cpu time     44.9362: real time      2.5796
  RMM-DIIS:  cpu time    237.1005: real time     12.3691
    ORTHCH:  cpu time      0.7937: real time      0.0480
 BZINTS: Fermi energy:    5.017341;   22.000000 electrons
         Band energy:-0.270960E+03;  BLOECHL correction:   -0.214517
       DOS:  cpu time      0.3244: real time      0.0290
    CHARGE:  cpu time     36.1424: real time      1.8660
    MIXING:  cpu time      0.4410: real time      0.0194
    --------------------------------------------
      LOOP:  cpu time    322.4322: real time     17.2965

 eigenvalue-minimisations  :  3371
 total energy-change (2. order) :-0.4341066E-04  (-0.5396159E-03)
 number of electron      22.0000000 magnetization      -0.0043491
 augmentation part        8.0507634 magnetization      -0.0003332

 Broyden mixing:
  rms(total) = 0.42872E-02    rms(broyden)= 0.42872E-02
  rms(prec ) = 0.48168E-02
  weight for this iteration     100.00

 eigenvalues of (default mixing * dielectric matrix)
  average eigenvalue GAMMA=   1.2732
  2.5959  1.4512  1.4512  0.8033  0.6108  0.7267

 Free energy of the ion-electron system (eV)
  ---------------------------------------------------
  alpha Z        PSCENC =       252.06371612
  Ewald energy   TEWEN  =     -1921.77102286
  -Hartree energ DENC   =      -242.27767990
  -exchange      EXHF   =         0.00000000
  -V(xc)+E(xc)   XCENC  =        51.11080305
  PAW double counting   =      2940.65149503    -2915.79451268
  entropy T*S    EENTRO =         0.00000000
  eigenvalues    EBANDS =      -270.96004342
  atomic energy  EATOM  =      2086.78124273
  Solvation  Ediel_sol  =         0.00000000
  ---------------------------------------------------
  free energy    TOTEN  =       -20.19600193 eV

  energy without entropy =      -20.19600193  energy(sigma->0) =      -20.19600193


--------------------------------------------------------------------------------------------------------




--------------------------------------- Iteration      1(  12)  ---------------------------------------


    POTLOK:  cpu time      2.4603: real time      0.1612
    SETDIJ:  cpu time      1.0432: real time      0.2542
    EDDIAG:  cpu time    109.6700: real time      5.7044
  RMM-DIIS:  cpu time    179.4543: real time      9.4183
    ORTHCH:  cpu time      0.9533: real time      0.0558
 BZINTS: Fermi energy:    5.017354;   22.000000 electrons
         Band energy:-0.270959E+03;  BLOECHL correction:   -0.214519
       DOS:  cpu time      0.2710: real time      0.0250
    --------------------------------------------
      LOOP:  cpu time    293.8520: real time     15.6189

 eigenvalue-minimisations  :  2364
 total energy-change (2. order) :-0.7275875E-04  (-0.5548888E-04)
 number of electron      22.0000000 magnetization      -0.0043491
 augmentation part        8.0507634 magnetization      -0.0003332

 Free energy of the ion-electron system (eV)
  ---------------------------------------------------
  alpha Z        PSCENC =       252.06371612
  Ewald energy   TEWEN  =     -1921.77102286
  -Hartree energ DENC   =      -242.29441235
  -exchange      EXHF   =         0.00000000
  -V(xc)+E(xc)   XCENC  =        51.11161737
  PAW double counting   =      2940.10791707    -2915.23587550
  entropy T*S    EENTRO =         0.00000000
  eigenvalues    EBANDS =      -270.95925726
  atomic energy  EATOM  =      2086.78124273
  Solvation  Ediel_sol  =         0.00000000
  ---------------------------------------------------
  free energy    TOTEN  =       -20.19607469 eV

  energy without entropy =      -20.19607469  energy(sigma->0) =      -20.19607469


--------------------------------------------------------------------------------------------------------




 average (electrostatic) potential at core
  the test charge radii are     1.2125
  (the norm of the test charge is              1.0000)
       1 -34.9547       2 -34.9547



 E-fermi :   5.0174     XC(G=0): -12.4486     alpha+bet :-13.0256

 Fermi energy:         5.0173541169

 spin component 1

 k-point     1 :       0.0000    0.0000    0.0000
  band No.  band energies     occupation 
      1     -25.6276      1.00000
      2     -25.6276      1.00000
      3     -25.5730      1.00000
      4     -24.6762      1.00000
      5     -24.6762      1.00000
      6     -24.6750      1.00000
      7      -0.9401      1.00000
      8       1.2243      1.00000
      9       1.2761      1.00000
     10       5.2041      0.04456
     11       5.4328     -0.03213
     12       5.4328      0.00000
     13       8.1100      0.00000
     14       8.4204      0.00000
     15      10.5871      0.00000
     16      10.6345      0.00000

 k-point     2 :       0.1429    0.0000    0.0000
  band No.  band energies     occupation 
      1     -25.5856      1.00000
      2     -25.5786      1.00000
      3     -25.5786      1.00000
      4     -24.7817      1.00000
      5     -24.7208      1.00000
      6     -24.7208      1.00000
      7      -0.5092      1.00000
      8       1.4626      1.00000
      9       1.6480      1.00000
     10       5.3711      0.04123
     11       5.3711     -0.02590
     12       5.4072      0.00000
     13       7.8191      0.00000
     14       8.3636      0.00000
     15       9.3420      0.00000
     16       9.3420      0.00000

 k-point     3 :       0.2857    0.0000    0.0000
  band No.  band energies     occupation 
      1     -25.5897      1.00000
      2     -25.4420      1.00000
      3     -25.4420      1.00000
      4     -25.0410      1.00000
      5     -24.8475      1.00000
      6     -24.8475      1.00000
      7       0.6325      1.00000
      8       2.1664      1.00000
      9       2.4763      1.00000
     10       5.3333      0.49779
     11       5.3333      0.01098
     12       6.0009      0.00000
     13       6.3993      0.00000
     14       7.6220      0.00000
     15       7.6220      0.00000
     16       9.0236      0.00000

 k-point     4 :       0.4286    0.0000    0.0000
  band No.  band energies     occupation 
      1     -25.5155      1.00000
      2     -25.3218      1.00000
      3     -25.2470      1.00000
      4     -25.2470      1.00000
      5     -25.0346      1.00000
      6     -25.0346      1.00000
      7       2.0276      1.00000
      8       2.8489      1.00000
      9       3.2968      1.00000
     10       4.7681      0.98880
     11       5.5921     -0.08091
     12       5.5921      0.00000
     13       6.3358      0.00000
     14       6.3358      0.00000
     15       6.9329      0.00000
     16       8.0983      0.00000

 k-point     5 :       0.0000    0.1429    0.0000
  band No.  band energies     occupation 
      1     -25.6279      1.00000
      2     -25.5795      1.00000
      3     -25.5274      1.00000
      4     -24.7755      1.00000
      5     -24.7220      1.00000
      6     -24.7179      1.00000
      7      -0.5264      1.00000
      8       1.4884      1.00000
      9       1.5845      1.00000
     10       5.1886      0.25483
     11       5.4111     -0.04688
     12       5.6255      0.00000
     13       7.5872      0.00000
     14       8.5528      0.00000
     15       9.4375      0.00000
     16       9.4826      0.00000

 k-point     6 :       0.1429    0.1429    0.0000
  band No.  band energies     occupation 
      1     -25.6873      1.00000
      2     -25.5344      1.00000
      3     -25.4381      1.00000
      4     -24.9519      1.00000
      5     -24.7612      1.00000
      6     -24.6795      1.00000
      7      -0.1365      1.00000
      8       1.7230      1.00000
      9       1.9349      1.00000
     10       4.8371      0.93382
     11       5.2452      0.08607
     12       6.1410     -0.00637
     13       7.8229      0.00000
     14       8.1001      0.00000
     15       8.2612      0.00000
     16       8.4368      0.00000

 k-point     7 :       0.2857    0.1429    0.0000
  band No.  band energies     occupation 
      1     -25.7352      1.00000
      2     -25.4093      1.00000
      3     -25.2770      1.00000
      4     -25.2411      1.00000
      5     -24.8732      1.00000
      6     -24.7424      1.00000
      7       0.8570      1.00000
      8       2.2746      1.00000
      9       2.7909      1.00000
     10       4.5761      1.01292
     11       4.9933      0.73726
     12       6.5175     -0.05256
     13       6.9933      0.00000
     14       7.1138      0.00000
     15       7.1185      0.00000
     16       8.8240      0.00000

 k-point     8 :       0.4286    0.1429    0.0000
  band No.  band energies     occupation 
      1     -25.6909      1.00000
      2     -25.5174      1.00000
      3     -25.2318      1.00000
      4     -25.0836      1.00000
      5     -25.0402      1.00000
      6     -24.8913      1.00000
      7       1.9811      1.00000
      8       2.6319      1.00000
      9       3.5987      1.00000
     10       4.5151      1.00213
     11       4.7070      0.97753
     12       5.3480     -0.02274
     13       6.5568      0.00000
     14       6.6256      0.00000
     15       8.0506      0.00000
     16       9.2354      0.00000

 k-point     9 :       0.0000    0.2857    0.0000
  band No.  band energies     occupation 
      1     -25.6031      1.00000
      2     -25.4453      1.00000
      3     -25.4000      1.00000
      4     -25.0204      1.00000
      5     -24.8512      1.00000
      6     -24.8392      1.00000
      7       0.5761      1.00000
      8       2.1657      1.00000
      9       2.3553      1.00000
     10       5.2529      0.56679
     11       5.4590     -0.14612
     12       6.1885      0.00000
     13       6.2281      0.00000
     14       7.7300      0.00000
     15       7.8468      0.00000
     16       9.0112      0.00000

 k-point    10 :       0.1429    0.2857    0.0000
  band No.  band energies     occupation 
      1     -25.7310      1.00000
      2     -25.4116      1.00000
      3     -25.2616      1.00000
      4     -25.2288      1.00000
      5     -24.8758      1.00000
      6     -24.7348      1.00000
      7       0.8241      1.00000
      8       2.2623      1.00000
      9       2.7257      1.00000
     10       4.5812      1.02399
     11       5.0101      0.71240
     12       6.5622     -0.05275
     13       7.0624      0.00000
     14       7.0638      0.00000
     15       7.2066      0.00000
     16       8.8027      0.00000

 k-point    11 :       0.2857    0.2857    0.0000
  band No.  band energies     occupation 
      1     -25.8730      1.00000
      2     -25.5377      1.00000
      3     -25.3192      1.00000
      4     -25.0636      1.00000
      5     -24.9475      1.00000
      6     -24.6886      1.00000
      7       1.2819      1.00000
      8       2.2208      1.00000
      9       3.7954      1.00000
     10       3.9380      1.00000
     11       5.0483      0.80384
     12       5.1429      0.11392
     13       6.7111      0.00000
     14       7.9776      0.00000
     15       8.3440      0.00000
     16       8.5199      0.00000

 k-point    12 :       0.4286    0.2857    0.0000
  band No.  band energies     occupation 
      1     -25.9073      1.00000
      2     -25.7899      1.00000
      3     -25.1915      1.00000
      4     -25.0586      1.00000
      5     -24.8819      1.00000
      6     -24.7463      1.00000
      7       1.6146      1.00000
      8       1.9426      1.00000
      9       3.7697      1.00000
     10       4.1723      1.00000
     11       4.8558      0.76304
     12       5.3733     -0.02891
     13       7.2566      0.00000
     14       7.8081      0.00000
     15       9.3182      0.00000
     16       9.6229      0.00000

 k-point    13 :       0.0000    0.4286    0.0000
  band No.  band energies     occupation 
      1     -25.5014      1.00000
      2     -25.2954      1.00000
      3     -25.2524      1.00000
      4     -25.2173      1.00000
      5     -25.0402      1.00000
      6     -25.0170      1.00000
      7       1.9307      1.00000
      8       2.7177      1.00000
      9       3.2501      1.00000
     10       4.6614      0.99923
     11       5.6111     -0.19872
     12       5.7941      0.00000
     13       6.4202      0.00000
     14       6.5750      0.00000
     15       7.0715      0.00000
     16       8.1742      0.00000

 k-point    14 :       0.1429    0.4286    0.0000
  band No.  band energies     occupation 
      1     -25.6745      1.00000
      2     -25.4970      1.00000
      3     -25.2361      1.00000
      4     -25.0651      1.00000
      5     -25.0446      1.00000
      6     -24.8767      1.00000
      7       1.9343      1.00000
      8       2.5830      1.00000
      9       3.5378      1.00000
     10       4.4556      1.00319
     11       4.7428      0.95980
     12       5.4026     -0.02811
     13       6.6744      0.00000
     14       6.7410      0.00000
     15       8.1480      0.00000
     16       9.3725      0.00000

 k-point    15 :       0.2857    0.4286    0.0000
  band No.  band energies     occupation 
      1     -25.8988      1.00000
      2     -25.7808      1.00000
      3     -25.1934      1.00000
      4     -25.0606      1.00000
      5     -24.8750      1.00000
      6     -24.7401      1.00000
      7       1.6124      1.00000
      8       1.9390      1.00000
      9       3.7870      1.00000
     10       4.1926      1.00000
     11       4.8428      0.77083
     12       5.3425     -0.02064
     13       7.2400      0.00000
     14       7.8832      0.00000
     15       9.1333      0.00000
     16       9.6678      0.00000

 k-point    16 :       0.4286    0.4286    0.0000
  band No.  band energies     occupation 
      1     -26.0187      1.00000
      2     -25.9775      1.00000
      3     -25.1400      1.00000
      4     -25.0925      1.00000
      5     -24.7451      1.00000
      6     -24.6961      1.00000
      7       1.3173      1.00000
      8       1.4236      1.00000
      9       3.3251      1.00000
     10       3.4614      1.00000
     11       6.4303     -0.16440
     12       6.8165     -0.05486
     13       7.9857      0.00000
     14       8.3969      0.00000
     15       8.9802      0.00000
     16      10.0135      0.00000

 k-point    17 :       0.0000    0.1429    0.1429
  band No.  band energies     occupation 
      1     -25.7087      1.00000
      2     -25.4855      1.00000
      3     -25.4577      1.00000
      4     -24.9531      1.00000
      5     -24.7557      1.00000
      6     -24.6758      1.00000
      7      -0.1538      1.00000
      8       1.7390      1.00000
      9       1.8821      1.00000
     10       4.9916      0.78399
     11       5.0798      0.38484
     12       6.2353     -0.00583
     13       7.6068      0.00000
     14       8.2301      0.00000
     15       8.4150      0.00000
     16       8.4396      0.00000

 k-point    18 :       0.1429    0.1429    0.1429
  band No.  band energies     occupation 
      1     -25.6559      1.00000
      2     -25.6291      1.00000
      3     -25.3021      1.00000
      4     -25.0926      1.00000
      5     -24.7294      1.00000
      6     -24.7248      1.00000
      7       0.2218      1.00000
      8       2.0702      1.00000
      9       2.1242      1.00000
     10       4.6806      1.03434
     11       4.8253      0.85506
     12       6.6037     -0.05677
     13       6.8204      0.00000
     14       7.9324      0.00000
     15       8.1483      0.00000
     16       9.5188      0.00000

 k-point    19 :       0.2857    0.1429    0.1429
  band No.  band energies     occupation 
      1     -25.7368      1.00000
      2     -25.5087      1.00000
      3     -25.3572      1.00000
      4     -25.1333      1.00000
      5     -24.8634      1.00000
      6     -24.7496      1.00000
      7       1.1440      1.00000
      8       2.5993      1.00000
      9       2.8994      1.00000
     10       4.4025      1.01224
     11       4.4639      1.07918
     12       5.3076      0.10583
     13       7.4659      0.00000
     14       7.8498      0.00000
     15       7.9528      0.00000
     16       8.7063      0.00000

 k-point    20 :       0.4286    0.1429    0.1429
  band No.  band energies     occupation 
      1     -25.7393      1.00000
      2     -25.6034      1.00000
      3     -25.2980      1.00000
      4     -25.0674      1.00000
      5     -24.9725      1.00000
      6     -24.8371      1.00000
      7       2.1078      1.00000
      8       2.8432      1.00000
      9       3.3355      1.00000
     10       4.0064      1.00538
     11       4.7128      0.98887
     12       5.0426      0.25830
     13       6.8612      0.00000
     14       6.9811      0.00000
     15       8.8808      0.00000
     16       9.2839      0.00000

 k-point    21 :       0.0000    0.2857    0.1429
  band No.  band energies     occupation 
      1     -25.7481      1.00000
      2     -25.3689      1.00000
      3     -25.2793      1.00000
      4     -25.2351      1.00000
      5     -24.8632      1.00000
      6     -24.7331      1.00000
      7       0.8052      1.00000
      8       2.2560      1.00000
      9       2.6991      1.00000
     10       4.7570      1.00347
     11       4.9098      0.85661
     12       6.7153     -0.05083
     13       6.9328      0.00000
     14       7.1111      0.00000
     15       7.1361      0.00000
     16       8.8105      0.00000

 k-point    22 :       0.1429    0.2857    0.1429
  band No.  band energies     occupation 
      1     -25.7424      1.00000
      2     -25.4936      1.00000
      3     -25.3501      1.00000
      4     -25.1255      1.00000
      5     -24.8655      1.00000
      6     -24.7374      1.00000
      7       1.1152      1.00000
      8       2.6156      1.00000
      9       2.8195      1.00000
     10       4.3918      1.01495
     11       4.5373      1.04621
     12       5.3433      0.10388
     13       7.3511      0.00000
     14       7.9141      0.00000
     15       8.1108      0.00000
     16       8.6925      0.00000

 k-point    23 :       0.2857    0.2857    0.1429
  band No.  band energies     occupation 
      1     -25.8146      1.00000
      2     -25.5821      1.00000
      3     -25.4582      1.00000
      4     -24.9667      1.00000
      5     -24.9373      1.00000
      6     -24.7470      1.00000
      7       1.6876      1.00000
      8       2.6274      1.00000
      9       3.8104      1.00000
     10       3.8331      1.00000
     11       4.2901      1.02364
     12       4.4623      0.93669
     13       7.6627      0.00000
     14       8.0712      0.00000
     15       8.5279      0.00000
     16       9.2736      0.00000

 k-point    24 :       0.4286    0.2857    0.1429
  band No.  band energies     occupation 
      1     -25.8649      1.00000
      2     -25.7834      1.00000
      3     -25.2859      1.00000
      4     -25.0919      1.00000
      5     -24.8505      1.00000
      6     -24.7792      1.00000
      7       1.9784      1.00000
      8       2.2747      1.00000
      9       3.6466      1.00000
     10       3.7587      1.00000
     11       4.9044      0.81497
     12       4.9647      0.51464
     13       7.5900      0.00000
     14       7.8460      0.00000
     15       9.1901      0.00000
     16       9.6494      0.00000

 k-point    25 :       0.0000    0.4286    0.1429
  band No.  band energies     occupation 
      1     -25.6883      1.00000
      2     -25.5074      1.00000
      3     -25.2028      1.00000
      4     -25.0768      1.00000
      5     -25.0221      1.00000
      6     -24.8810      1.00000
      7       1.9110      1.00000
      8       2.5602      1.00000
      9       3.5381      1.00000
     10       4.4509      1.00278
     11       4.9214      0.87038
     12       5.5724     -0.04309
     13       6.4810      0.00000
     14       6.5995      0.00000
     15       8.1590      0.00000
     16       9.3460      0.00000

 k-point    26 :       0.1429    0.4286    0.1429
  band No.  band energies     occupation 
      1     -25.7304      1.00000
      2     -25.5900      1.00000
      3     -25.2902      1.00000
      4     -25.0658      1.00000
      5     -24.9586      1.00000
      6     -24.8216      1.00000
      7       2.0839      1.00000
      8       2.8145      1.00000
      9       3.3292      1.00000
     10       3.9947      1.00390
     11       4.7765      0.97307
     12       5.0506      0.27173
     13       6.8790      0.00000
     14       7.1099      0.00000
     15       8.8000      0.00000
     16       9.1034      0.00000

 k-point    27 :       0.2857    0.4286    0.1429
  band No.  band energies     occupation 
      1     -25.8570      1.00000
      2     -25.7750      1.00000
      3     -25.2880      1.00000
      4     -25.0959      1.00000
      5     -24.8430      1.00000
      6     -24.7704      1.00000
      7       1.9919      1.00000
      8       2.2841      1.00000
      9       3.6579      1.00000
     10       3.8042      1.00000
     11       4.8428      0.83976
     12       4.9516      0.52857
     13       7.6392      0.00000
     14       7.9209      0.00000
     15       8.9489      0.00000
     16       9.4887      0.00000

 k-point    28 :       0.4286    0.4286    0.1429
  band No.  band energies     occupation 
      1     -25.9544      1.00000
      2     -25.9264      1.00000
      3     -25.2068      1.00000
      4     -25.1318      1.00000
      5     -24.7830      1.00000
      6     -24.7624      1.00000
      7       1.7293      1.00000
      8       1.8018      1.00000
      9       3.3010      1.00000
     10       3.4085      1.00000
     11       6.0376     -0.16440
     12       6.1417     -0.12469
     13       8.1987      0.00000
     14       8.4546      0.00000
     15       9.0064      0.00000
     16       9.4539      0.00000

 k-point    29 :       0.0000    0.2857    0.2857
  band No.  band energies     occupation 
      1     -25.8865      1.00000
      2     -25.5408      1.00000
      3     -25.2834      1.00000
      4     -25.0608      1.00000
      5     -24.9329      1.00000
      6     -24.6752      1.00000
      7       1.2464      1.00000
      8       2.2131      1.00000
      9       3.7169      1.00000
     10       4.1431      1.00000
     11       4.9725      0.90499
     12       5.3471      0.03634
     13       6.6303      0.00000
     14       7.7098      0.00000
     15       8.3995      0.00000
     16       8.5484      0.00000

 k-point    30 :       0.1429    0.2857    0.2857
  band No.  band energies     occupation 
      1     -25.8258      1.00000
      2     -25.5818      1.00000
      3     -25.4368      1.00000
      4     -24.9596      1.00000
      5     -24.9336      1.00000
      6     -24.7339      1.00000
      7       1.6727      1.00000
      8       2.6521      1.00000
      9       3.7392      1.00000
     10       3.9896      1.00000
     11       4.3487      1.00323
     12       4.3831      0.93115
     13       7.7174      0.00000
     14       7.8782      0.00000
     15       8.5701      0.00000
     16       9.2895      0.00000

 k-point    31 :       0.2857    0.2857    0.2857
  band No.  band energies     occupation 
      1     -25.6875      1.00000
      2     -25.6559      1.00000
      3     -25.6488      1.00000
      4     -24.9153      1.00000
      5     -24.8993      1.00000
      6     -24.8681      1.00000
      7       2.6340      1.00000
      8       3.1944      1.00000
      9       3.6390      1.00000
     10       3.7170      1.00000
     11       3.7440      1.03198
     12       3.8314      1.07610
     13       8.4721      0.00000
     14       8.5129      0.00000
     15       8.6511      0.00000
     16       8.8390      0.00000

 k-point    32 :       0.4286    0.2857    0.2857
  band No.  band energies     occupation 
      1     -25.7827      1.00000
      2     -25.7793      1.00000
      3     -25.4110      1.00000
      4     -25.1407      1.00000
      5     -24.8745      1.00000
      6     -24.8462      1.00000
      7       2.6457      1.00000
      8       2.6599      1.00000
      9       3.5917      1.00000
     10       3.6562      1.00000
     11       4.3357      0.99799
     12       4.6984      0.97184
     13       8.2261      0.00000
     14       8.3159      0.00000
     15       9.1245      0.00000
     16       9.2374      0.00000

 k-point    33 :       0.0000    0.4286    0.2857
  band No.  band energies     occupation 
      1     -25.9111      1.00000
      2     -25.7897      1.00000
      3     -25.1645      1.00000
      4     -25.0392      1.00000
      5     -24.8668      1.00000
      6     -24.7277      1.00000
      7       1.5996      1.00000
      8       1.9404      1.00000
      9       4.0002      1.00000
     10       4.4042      1.00000
     11       4.7668      0.81495
     12       5.2775      0.01509
     13       7.0805      0.00000
     14       7.6298      0.00000
     15       9.1072      0.00000
     16       9.6668      0.00000

 k-point    34 :       0.1429    0.4286    0.2857
  band No.  band energies     occupation 
      1     -25.8657      1.00000
      2     -25.7800      1.00000
      3     -25.2706      1.00000
      4     -25.0845      1.00000
      5     -24.8347      1.00000
      6     -24.7598      1.00000
      7       1.9985      1.00000
      8       2.3112      1.00000
      9       3.7986      1.00000
     10       3.8721      1.00000
     11       4.8244      0.85920
     12       4.8862      0.63086
     13       7.5389      0.00000
     14       7.7455      0.00000
     15       8.9458      0.00000
     16       9.4206      0.00000

 k-point    35 :       0.2857    0.4286    0.2857
  band No.  band energies     occupation 
      1     -25.7768      1.00000
      2     -25.7737      1.00000
      3     -25.4130      1.00000
      4     -25.1491      1.00000
      5     -24.8588      1.00000
      6     -24.8366      1.00000
      7       2.7274      1.00000
      8       2.7300      1.00000
      9       3.6058      1.00000
     10       3.7088      1.00000
[...]
  band No.  band energies     occupation 
      1     -25.8662      1.00000
      2     -25.7805      1.00000
      3     -25.2711      1.00000
      4     -25.0849      1.00000
      5     -24.8351      1.00000
      6     -24.7602      1.00000
      7       1.9966      1.00000
      8       2.3094      1.00000
      9       3.7971      1.00000
     10       3.8706      1.00000
     11       4.8227      0.86006
     12       4.8843      0.63390
     13       7.5379      0.00000
     14       7.7447      0.00000
     15       8.9452      0.00000
     16       9.4199      0.00000

 k-point    35 :       0.2857    0.4286    0.2857
  band No.  band energies     occupation 
      1     -25.7774      1.00000
      2     -25.7743      1.00000
      3     -25.4135      1.00000
      4     -25.1496      1.00000
      5     -24.8592      1.00000
      6     -24.8370      1.00000
      7       2.7257      1.00000
      8       2.7282      1.00000
      9       3.6041      1.00000
     10       3.7071      1.00000
     11       4.2791      1.00657
     12       4.6004      1.00014
     13       8.3136      0.00000
     14       8.3331      0.00000
     15       8.9012      0.00000
     16       8.9727      0.00000

 k-point    36 :       0.4286    0.4286    0.2857
  band No.  band energies     occupation 
      1     -25.7932      1.00000
      2     -25.7740      1.00000
      3     -25.3561      1.00000
      4     -25.2054      1.00000
      5     -24.9482      1.00000
      6     -24.9015      1.00000
      7       2.6245      1.00000
      8       2.7684      1.00000
      9       3.3298      1.00000
     10       3.5307      1.00000
     11       4.9636      0.79281
     12       5.1234      0.45102
     13       8.6472      0.00000
     14       8.7257      0.00000
     15       9.0623      0.00000
     16       9.1363      0.00000

 k-point    37 :       0.0000    0.4286    0.4286
  band No.  band energies     occupation 
      1     -26.0255      1.00000
      2     -25.9829      1.00000
      3     -25.1161      1.00000
      4     -25.0713      1.00000
      5     -24.7257      1.00000
      6     -24.6753      1.00000
      7       1.3295      1.00000
      8       1.4412      1.00000
      9       3.5619      1.00000
     10       3.6980      1.00000
     11       6.3046     -0.15594
     12       6.6717     -0.07697
     13       7.7352      0.00000
     14       8.1417      0.00000
     15       8.8310      0.00000
     16       9.8271      0.00000

 k-point    38 :       0.1429    0.4286    0.4286
  band No.  band energies     occupation 
      1     -25.9589      1.00000
      2     -25.9293      1.00000
      3     -25.1923      1.00000
      4     -25.1208      1.00000
      5     -24.7644      1.00000
      6     -24.7418      1.00000
      7       1.7658      1.00000
      8       1.8461      1.00000
      9       3.4893      1.00000
     10       3.5859      1.00000
     11       5.9095     -0.10675
     12       6.0043     -0.15539
     13       8.0027      0.00000
     14       8.2363      0.00000
     15       8.8680      0.00000
     16       9.2895      0.00000

 k-point    39 :       0.2857    0.4286    0.4286
  band No.  band energies     occupation 
      1     -25.7903      1.00000
      2     -25.7718      1.00000
      3     -25.3586      1.00000
      4     -25.2147      1.00000
      5     -24.9287      1.00000
      6     -24.8881      1.00000
      7       2.7049      1.00000
      8       2.8564      1.00000
      9       3.4134      1.00000
     10       3.6163      1.00000
     11       4.8376      0.86236
     12       5.0011      0.71768
     13       8.5919      0.00000
     14       8.6430      0.00000
     15       8.9374      0.00000
     16       8.9856      0.00000

 k-point    40 :       0.4286    0.4286    0.4286
  band No.  band energies     occupation 
      1     -25.6370      1.00000
      2     -25.5139      1.00000
      3     -25.5008      1.00000
      4     -25.2207      1.00000
      5     -25.1996      1.00000
      6     -25.0727      1.00000
      7       3.1574      1.00000
      8       3.5815      1.00000
      9       3.6003      1.00000
     10       4.1262      1.00000
     11       4.2350      1.00000
     12       4.2464      1.10565
     13       8.9594      0.00000
     14       8.9728      0.00000
     15       9.0996      0.00000
     16       9.1000      0.00000


--------------------------------------------------------------------------------------------------------


 soft charge-density along one line, spin component           1
         0         1         2         3         4         5         6         7         8         9
 total charge-density along one line

 soft charge-density along one line, spin component           2
         0         1         2         3         4         5         6         7         8         9
 total charge-density along one line

 pseudopotential strength for first ion, spin component:           1
-27.990   0.000   0.000   5.902  -0.000  -0.000  -0.000   0.000
  0.000 -27.990   0.000  -0.000   5.902  -0.000  -0.000   0.000
  0.000   0.000 -27.990  -0.000  -0.000   5.902   0.000  -0.000
  5.902  -0.000  -0.000   4.248   0.000   0.000   0.000  -0.000
 -0.000   5.902  -0.000   0.000   4.248   0.000   0.000  -0.000
 -0.000  -0.000   5.902   0.000   0.000   4.248  -0.000   0.000
 -0.000  -0.000   0.000   0.000   0.000  -0.000  -6.309   0.000
  0.000   0.000  -0.000  -0.000  -0.000   0.000   0.000  -6.310
 -0.000   0.000  -0.000   0.000  -0.000   0.000  -0.000   0.000
 -0.000   0.000   0.000   0.000  -0.000  -0.000   0.000   0.000
 -0.000   0.000   0.000   0.000  -0.000  -0.000  -0.000  -0.000
 -0.000  -0.000   0.000   0.000   0.000  -0.000  -7.157   0.000
  0.000   0.000  -0.000  -0.000  -0.000   0.000   0.000  -7.157
 -0.000   0.000  -0.000   0.000  -0.000   0.000  -0.000   0.000
 -0.000   0.000   0.000   0.000  -0.000  -0.000   0.000   0.000
 -0.000   0.000   0.000   0.000  -0.000  -0.000  -0.000  -0.000
 -0.000  -0.000  -0.000   0.000   0.000   0.000  -0.000  -0.000
  0.000   0.000   0.000   0.000   0.000  -0.000   0.000   0.000
 pseudopotential strength for first ion, spin component:           2
-27.990   0.000   0.000   5.902  -0.000  -0.000  -0.000   0.000
  0.000 -27.990   0.000  -0.000   5.902  -0.000  -0.000   0.000
  0.000   0.000 -27.990  -0.000  -0.000   5.902   0.000  -0.000
  5.902  -0.000  -0.000   4.248   0.000   0.000   0.000  -0.000
 -0.000   5.902  -0.000   0.000   4.248   0.000   0.000  -0.000
 -0.000  -0.000   5.902   0.000   0.000   4.248  -0.000   0.000
 -0.000  -0.000   0.000   0.000   0.000  -0.000  -6.310   0.000
  0.000   0.000  -0.000  -0.000  -0.000   0.000   0.000  -6.310
 -0.000   0.000   0.000   0.000  -0.000   0.000  -0.000   0.000
 -0.000   0.000   0.000   0.000  -0.000  -0.000   0.000   0.000
 -0.000   0.000   0.000   0.000  -0.000  -0.000  -0.000  -0.000
 -0.000  -0.000   0.000   0.000   0.000  -0.000  -7.157   0.000
  0.000   0.000  -0.000  -0.000  -0.000   0.000   0.000  -7.157
 -0.000   0.000   0.000   0.000  -0.000   0.000  -0.000   0.000
 -0.000   0.000   0.000   0.000  -0.000  -0.000   0.000   0.000
 -0.000   0.000   0.000   0.000  -0.000  -0.000  -0.000  -0.000
 -0.000  -0.000  -0.000   0.000   0.000   0.000  -0.000  -0.000
  0.000   0.000   0.000   0.000   0.000  -0.000   0.000   0.000
 total augmentation occupancy for first ion, spin component:           1
  1.994   0.000   0.000  -0.011  -0.000  -0.000   0.000   0.000  -0.000   0.000   0.000   0.000  -0.000   0.000   0.000   0.000
  0.000   1.994   0.000  -0.000  -0.011  -0.000   0.000   0.000  -0.000   0.000  -0.000   0.000  -0.000   0.000   0.000  -0.000
  0.000   0.000   1.994  -0.000  -0.000  -0.011   0.000   0.000   0.000   0.000   0.000   0.000   0.000   0.000   0.000   0.000
 -0.011  -0.000  -0.000   0.208   0.000   0.000  -0.000   0.000   0.000   0.000   0.000  -0.000  -0.000   0.000   0.000   0.000
 -0.000  -0.011  -0.000   0.000   0.208   0.000   0.000  -0.000   0.000   0.000   0.000   0.000   0.000   0.000   0.000   0.000
 -0.000  -0.000  -0.011   0.000   0.000   0.210   0.000  -0.000   0.000   0.000   0.000   0.000  -0.000   0.000   0.000   0.000
  0.000   0.000   0.000   0.000   0.000   0.000   6.220   0.000  -0.000   0.000   0.000  -3.503  -0.000   0.000  -0.000  -0.000
  0.000  -0.000  -0.000  -0.000  -0.000  -0.000   0.000   6.310   0.000   0.000  -0.000  -0.000  -3.546  -0.000  -0.000   0.000
  0.000  -0.000   0.000   0.000   0.000   0.000  -0.000   0.000   5.868   0.000  -0.041   0.000  -0.000  -3.490  -0.000   0.021
  0.000   0.000   0.000   0.000  -0.000   0.000   0.000   0.000   0.000   6.220   0.000  -0.000  -0.000  -0.000  -3.503  -0.000
  0.000  -0.000   0.000   0.000   0.000   0.000   0.000  -0.000  -0.041   0.000   5.916  -0.000   0.000   0.021  -0.000  -3.514
  0.000   0.000   0.000  -0.000  -0.000   0.000  -3.503  -0.000   0.000  -0.000   0.000   2.012   0.000  -0.000   0.000  -0.000
  0.000  -0.000   0.000  -0.000   0.000  -0.000  -0.000  -3.546  -0.000  -0.000   0.000   0.000   2.032   0.000   0.000  -0.000
  0.000  -0.000   0.000   0.000   0.000   0.000   0.000  -0.000  -3.490  -0.000   0.021  -0.000   0.000   2.094   0.000  -0.010
  0.000   0.000   0.000   0.000   0.000   0.000  -0.000  -0.000  -0.000  -3.503  -0.000   0.000   0.000   0.000   2.012   0.000
  0.000  -0.000  -0.000   0.000   0.000   0.000  -0.000   0.000   0.021  -0.000  -3.514  -0.000  -0.000  -0.010   0.000   2.106
  0.000   0.000   0.000   0.000   0.000   0.000   0.000   0.000  -0.010  -0.000   0.017   0.000   0.000   0.006   0.000  -0.010
  0.000   0.000  -0.000   0.000   0.000  -0.000  -0.000   0.000  -0.000   0.000   0.000   0.000  -0.000   0.000  -0.000  -0.000
 total augmentation occupancy for first ion, spin component:           2
  0.000   0.000   0.000   0.000   0.000   0.000   0.000   0.000   0.000   0.000   0.000   0.000   0.000   0.000   0.000   0.000
  0.000   0.000   0.000   0.000   0.000   0.000   0.000   0.000   0.000   0.000  -0.000   0.000   0.000   0.000   0.000   0.000
  0.000   0.000   0.000   0.000   0.000   0.000   0.000   0.000   0.000  -0.000  -0.000  -0.000   0.000   0.000   0.000   0.000
  0.000   0.000   0.000  -0.000  -0.000  -0.000   0.000   0.000   0.000   0.000   0.000   0.000   0.000   0.000   0.000   0.000
  0.000   0.000   0.000  -0.000  -0.000  -0.000   0.000   0.000   0.000   0.000   0.000   0.000   0.000   0.000  -0.000   0.000
  0.000   0.000   0.000  -0.000  -0.000  -0.000   0.000   0.000  -0.000  -0.000   0.000   0.000   0.000   0.000   0.000   0.000
 -0.000   0.000   0.000   0.000   0.000   0.000  -0.004  -0.000   0.000  -0.000   0.000   0.003   0.000  -0.000   0.000  -0.000
  0.000   0.000  -0.000   0.000   0.000   0.000  -0.000  -0.004  -0.000  -0.000   0.000   0.000   0.002  -0.000   0.000  -0.000
 -0.000   0.000   0.000  -0.000   0.000   0.000   0.000   0.000  -0.006  -0.000  -0.000  -0.000  -0.000   0.005   0.000   0.000
  0.000  -0.000  -0.000   0.000   0.000   0.000  -0.000  -0.000  -0.000  -0.004  -0.000   0.000   0.000  -0.000   0.003   0.000
  0.000  -0.000   0.000   0.000   0.000   0.000   0.000   0.000  -0.000  -0.000  -0.006  -0.000  -0.000   0.000   0.000   0.005
  0.000  -0.000   0.000   0.000   0.000   0.000   0.003   0.000  -0.000   0.000  -0.000  -0.002  -0.000   0.000  -0.000   0.000
  0.000   0.000  -0.000   0.000   0.000   0.000   0.000   0.002  -0.000   0.000  -0.000  -0.000  -0.001   0.000  -0.000   0.000
  0.000   0.000   0.000   0.000   0.000   0.000  -0.000  -0.000   0.005   0.000   0.000   0.000   0.000  -0.003   0.000  -0.000
  0.000   0.000  -0.000   0.000   0.000   0.000   0.000   0.000  -0.000   0.003   0.000  -0.000  -0.000  -0.000  -0.002  -0.000
  0.000   0.000   0.000   0.000   0.000   0.000  -0.000  -0.000   0.000   0.000   0.005   0.000   0.000  -0.000  -0.000  -0.003
  0.000  -0.000  -0.000   0.000   0.000   0.000   0.000   0.000  -0.000   0.000   0.000   0.000   0.000   0.000  -0.000  -0.000
  0.000   0.000   0.000  -0.000   0.000   0.000  -0.000   0.000  -0.000  -0.000   0.000   0.000  -0.000   0.000  -0.000  -0.000


------------------------ aborting loop because EDIFF is reached ----------------------------------------





 total charge

# of ion       s       p       d       tot
------------------------------------------
    1        0.426   6.299   3.118   9.842
    2        0.426   6.299   3.118   9.842
--------------------------------------------------
tot          0.852  12.597   6.236  19.684



 magnetization (x)

# of ion       s       p       d       tot
------------------------------------------
    1       -0.000  -0.000  -0.001  -0.001
    2       -0.000  -0.000  -0.001  -0.001
--------------------------------------------------
tot         -0.000  -0.000  -0.002  -0.002

    CHARGE:  cpu time     18.6550: real time      1.0350
    FORLOC:  cpu time      0.0004: real time      0.0004
    FORNL :  cpu time     80.6855: real time      4.4592
    STRESS:  cpu time    317.4410: real time     16.8182
    FORCOR:  cpu time      1.2453: real time      0.0951
    FORHAR:  cpu time      0.1514: real time      0.0074
    MIXING:  cpu time      0.0092: real time      0.0047
    OFIELD:  cpu time      0.0000: real time      0.0000

  FORCE on cell =-STRESS in cart. coord.  units (eV):
  Direction    XX          YY          ZZ          XY          YZ          ZX
  --------------------------------------------------------------------------------------
  Alpha Z   252.06372   252.06372   252.06372
  Ewald    -638.94156  -641.41466  -641.41466     0.00000     0.00000     0.00000
  Hartree    81.53572    80.37749    80.37749    -0.00000    -0.00000    -0.00000
  E(xc)     -95.26455   -95.27007   -95.27007    -0.00000    -0.00000     0.00000
  Local     202.39889   206.04513   206.04513     0.00000    -0.00000     0.00000
  n-local   -84.48850   -88.27627   -81.36162     1.96387     0.68539    -0.28893
  augment    53.41712    53.45384    53.45384     0.00000     0.00000    -0.00000
  Kinetic   230.48943   222.67232   237.51243     1.67124     0.39951    -0.92001
  Fock        0.00000     0.00000     0.00000     0.00000     0.00000     0.00000
  -------------------------------------------------------------------------------------
  Total       1.21026     0.52887     0.52887     0.00000     0.00000     0.00000
  in kB      53.98219    23.58948    23.58948     0.00000     0.00000     0.00000
  external pressure =       33.72 kB  Pullay stress =        0.00 kB


 VOLUME and BASIS-vectors are now :
 -----------------------------------------------------------------------------
  energy-cutoff  :      520.00
  volume of cell :       35.92
      direct lattice vectors                 reciprocal lattice vectors
     3.255343750  0.000000000  0.000000000     0.307187221 -0.000000000  0.000000000
     0.000000000  3.321779337  0.000000000     0.000000000  0.301043477  0.000000000
     0.000000000  0.000000000  3.321779337    -0.000000000 -0.000000000  0.301043477

  length of vectors
     3.255343750  3.321779337  3.321779337     0.307187221  0.301043477  0.301043477


 FORCES acting on ions
    electron-ion (+dipol)            ewald-force                    non-local-force                 convergence-correction
 -----------------------------------------------------------------------------------------------
   -.902E-14 -.133E-13 -.196E-13   -.500E-14 -.572E-14 -.114E-14   0.230E-22 0.175E-21 -.157E-21   0.215E-14 -.373E-13 -.539E-14
   0.119E-12 0.180E-12 -.120E-11   0.803E-14 0.683E-14 0.242E-14   -.141E-22 0.207E-21 0.195E-21   -.193E-13 -.245E-13 0.247E-13
 -----------------------------------------------------------------------------------------------
   0.110E-12 0.166E-12 -.122E-11   0.303E-14 0.111E-14 0.128E-14   0.894E-23 0.382E-21 0.383E-22   -.172E-13 -.618E-13 0.193E-13


 POSITION                                       TOTAL-FORCE (eV/Angst)
 -----------------------------------------------------------------------------------
      0.00000      0.00000      0.00000         0.000000     -0.000000     -0.000000
      1.62767      1.66089      1.66089        -0.000000      0.000000      0.000000
 -----------------------------------------------------------------------------------
    total drift:                                0.000000      0.000000     -0.000000


--------------------------------------------------------------------------------------------------------



  FREE ENERGIE OF THE ION-ELECTRON SYSTEM (eV)
  ---------------------------------------------------
  free  energy   TOTEN  =       -20.19607469 eV

  energy  without entropy=      -20.19607469  energy(sigma->0) =      -20.19607469



--------------------------------------------------------------------------------------------------------


    POTLOK:  cpu time      2.6086: real time      0.3689


--------------------------------------------------------------------------------------------------------


     LOOP+:  cpu time   5329.7161: real time    279.3750
 -----------------------------------------------------------------------------
|                                                                             |
|           W    W    AA    RRRRR   N    N  II  N    N   GGGG   !!!           |
|           W    W   A  A   R    R  NN   N  II  NN   N  G    G  !!!           |
|           W    W  A    A  R    R  N N  N  II  N N  N  G       !!!           |
|           W WW W  AAAAAA  RRRRR   N  N N  II  N  N N  G  GGG   !            |
|           WW  WW  A    A  R   R   N   NN  II  N   NN  G    G                |
|           W    W  A    A  R    R  N    N  II  N    N   GGGG   !!!           |
|                                                                             |
|     Tetrahedron method does not include variations of the Fermi             |
|     occupations, so forces and stress will be inaccurate. We suggest        |
|     using a different smearing scheme ISMEAR = 1 or 2 for metals in         |
|     relaxations.                                                            |
|                                                                             |
 -----------------------------------------------------------------------------

    4ORBIT:  cpu time      0.0000: real time      0.0000



 total charge

# of ion       s       p       d       tot
------------------------------------------
    1        0.426   6.299   3.118   9.842
    2        0.426   6.299   3.118   9.842
--------------------------------------------------
tot          0.852  12.597   6.236  19.684



 magnetization (x)

# of ion       s       p       d       tot
------------------------------------------
    1       -0.000  -0.000  -0.001  -0.001
    2       -0.000  -0.000  -0.001  -0.001
--------------------------------------------------
tot         -0.000  -0.000  -0.002  -0.002

 BZINTS: Fermi energy:    5.017354;   22.000000 electrons
         Band energy:-0.270959E+03;  BLOECHL correction:   -0.214519

 total amount of memory used by VASP MPI-rank0    74262. kBytes
=======================================================================

   base      :      30000. kBytes
   nonlr-proj:       5424. kBytes
   fftplans  :       5304. kBytes
   grid      :      12665. kBytes
   one-center:         62. kBytes
   wavefun   :      20807. kBytes

  
  
 General timing and accounting informations for this job:
 ========================================================
  
                  Total CPU time used (sec):     5426.283
                            User time (sec):     5286.866
                          System time (sec):      139.417
                         Elapsed time (sec):      284.649
  
                   Maximum memory used (kb):      318972.
                   Average memory used (kb):          N/A
  
                          Minor page faults:      4215822
                          Major page faults:           78
                 Voluntary context switches:      1532252
