   2   2   1   0
  0.1636716E+02  0.2879295E-09  0.2879295E-09  0.4559323E-09  0.5000000E-15
  1.000000000000000E-004
  CAR 
 unknown system                          
     18.24620843    -26.00761100  301      7.35344034      1.00000000
    -26.008  0.0000E+00  0.0000E+00  0.0000E+00  0.0000E+00
    -25.860  0.0000E+00  0.0000E+00  0.0000E+00  0.0000E+00
    -25.713  0.0000E+00  0.0000E+00  0.0000E+00  0.0000E+00
    -25.565  0.0000E+00  0.0000E+00  0.0000E+00  0.0000E+00
    -25.418  0.0000E+00  0.0000E+00  0.0000E+00  0.0000E+00
    -25.270  0.0000E+00  0.0000E+00  0.0000E+00  0.0000E+00
    -25.123  0.0000E+00  0.0000E+00  0.0000E+00  0.0000E+00
    -24.975  0.0000E+00  0.0000E+00  0.0000E+00  0.0000E+00
    -24.828  0.0000E+00  0.0000E+00  0.0000E+00  0.0000E+00
    -24.680  0.0000E+00  0.0000E+00  0.0000E+00  0.0000E+00
    -24.532  0.9656E-07  0.9769E-07  0.1424E-07  0.1441E-07
    -24.385  0.1262E-04  0.1277E-04  0.1876E-05  0.1897E-05
    -24.237  0.3172E-03  0.3207E-03  0.4866E-04  0.4921E-04
    -24.090  0.5960E-02  0.6026E-02  0.9279E-03  0.9381E-03
    -23.942  0.7626E-01  0.7686E-01  0.1218E-01  0.1228E-01
    -23.795  0.4790E+00  0.4816E+00  0.8284E-01  0.8332E-01
    -23.647  0.1621E+01  0.1626E+01  0.3220E+00  0.3232E+00
    -23.500  0.2983E+01  0.2986E+01  0.7620E+00  0.7637E+00
    -23.352  0.2862E+01  0.2858E+01  0.1184E+01  0.1185E+01
    -23.205  0.1977E+01  0.1976E+01  0.1477E+01  0.1478E+01
    -23.057  0.1749E+01  0.1748E+01  0.1736E+01  0.1737E+01
    -22.910  0.1768E+01  0.1769E+01  0.1997E+01  0.1998E+01
    -22.762  0.2017E+01  0.2018E+01  0.2295E+01  0.2296E+01
    -22.615  0.2361E+01  0.2362E+01  0.2644E+01  0.2645E+01
    -22.467  0.3067E+01  0.3069E+01  0.3097E+01  0.3099E+01
    -22.320  0.3700E+01  0.3702E+01  0.3644E+01  0.3646E+01
    -22.172  0.4540E+01  0.4544E+01  0.4314E+01  0.4317E+01
    -22.025  0.5454E+01  0.5454E+01  0.5120E+01  0.5122E+01
    -21.877  0.3936E+01  0.3928E+01  0.5701E+01  0.5703E+01
    -21.730  0.1672E+01  0.1666E+01  0.5950E+01  0.5950E+01
    -21.582  0.3069E+00  0.3047E+00  0.5997E+01  0.5997E+01
    -21.435  0.1723E-01  0.1642E-01  0.6000E+01  0.6000E+01
    -21.287  0.0000E+00  0.0000E+00  0.6000E+01  0.6000E+01
    -21.140  0.0000E+00  0.0000E+00  0.6000E+01  0.6000E+01
    -20.992  0.0000E+00  0.0000E+00  0.6000E+01  0.6000E+01
    -20.845  0.0000E+00  0.0000E+00  0.6000E+01  0.6000E+01
    -20.697  0.0000E+00  0.0000E+00  0.6000E+01  0.6000E+01
    -20.550  0.0000E+00  0.0000E+00  0.6000E+01  0.6000E+01
    -20.402  0.0000E+00  0.0000E+00  0.6000E+01  0.6000E+01
    -20.255  0.0000E+00  0.0000E+00  0.6000E+01  0.6000E+01
    -20.107  0.0000E+00  0.0000E+00  0.6000E+01  0.6000E+01
    -19.960  0.0000E+00  0.0000E+00  0.6000E+01  0.6000E+01
    -19.812  0.0000E+00  0.0000E+00  0.6000E+01  0.6000E+01
    -19.665  0.0000E+00  0.0000E+00  0.6000E+01  0.6000E+01
    -19.517  0.0000E+00  0.0000E+00  0.6000E+01  0.6000E+01
    -19.370  0.0000E+00  0.0000E+00  0.6000E+01  0.6000E+01
    -19.222  0.0000E+00  0.0000E+00  0.6000E+01  0.6000E+01
    -19.075  0.0000E+00  0.0000E+00  0.6000E+01  0.6000E+01
    -18.927  0.0000E+00  0.0000E+00  0.6000E+01  0.6000E+01
    -18.779  0.0000E+00  0.0000E+00  0.6000E+01  0.6000E+01
    -18.632  0.0000E+00  0.0000E+00  0.6000E+01  0.6000E+01
    -18.484  0.0000E+00  0.0000E+00  0.6000E+01  0.6000E+01
    -18.337  0.0000E+00  0.0000E+00  0.6000E+01  0.6000E+01
    -18.189  0.0000E+00  0.0000E+00  0.6000E+01  0.6000E+01
    -18.042  0.0000E+00  0.0000E+00  0.6000E+01  0.6000E+01
    -17.894  0.0000E+00  0.0000E+00  0.6000E+01  0.6000E+01
    -17.747  0.0000E+00  0.0000E+00  0.6000E+01  0.6000E+01
    -17.599  0.0000E+00  0.0000E+00  0.6000E+01  0.6000E+01
    -17.452  0.0000E+00  0.0000E+00  0.6000E+01  0.6000E+01
    -17.304  0.0000E+00  0.0000E+00  0.6000E+01  0.6000E+01
    -17.157  0.0000E+00  0.0000E+00  0.6000E+01  0.6000E+01
    -17.009  0.0000E+00  0.0000E+00  0.6000E+01  0.6000E+01
    -16.862  0.0000E+00  0.0000E+00  0.6000E+01  0.6000E+01
    -16.714  0.0000E+00  0.0000E+00  0.6000E+01  0.6000E+01
    -16.567  0.0000E+00  0.0000E+00  0.6000E+01  0.6000E+01
    -16.419  0.0000E+00  0.0000E+00  0.6000E+01  0.6000E+01
    -16.272  0.0000E+00  0.0000E+00  0.6000E+01  0.6000E+01
    -16.124  0.0000E+00  0.0000E+00  0.6000E+01  0.6000E+01
    -15.977  0.0000E+00  0.0000E+00  0.6000E+01  0.6000E+01
    -15.829  0.0000E+00  0.0000E+00  0.6000E+01  0.6000E+01
    -15.682  0.0000E+00  0.0000E+00  0.6000E+01  0.6000E+01
    -15.534  0.0000E+00  0.0000E+00  0.6000E+01  0.6000E+01
    -15.387  0.0000E+00  0.0000E+00  0.6000E+01  0.6000E+01
    -15.239  0.0000E+00  0.0000E+00  0.6000E+01  0.6000E+01
    -15.092  0.0000E+00  0.0000E+00  0.6000E+01  0.6000E+01
    -14.944  0.0000E+00  0.0000E+00  0.6000E+01  0.6000E+01
    -14.797  0.0000E+00  0.0000E+00  0.6000E+01  0.6000E+01
    -14.649  0.0000E+00  0.0000E+00  0.6000E+01  0.6000E+01
    -14.502  0.0000E+00  0.0000E+00  0.6000E+01  0.6000E+01
    -14.354  0.0000E+00  0.0000E+00  0.6000E+01  0.6000E+01
    -14.207  0.0000E+00  0.0000E+00  0.6000E+01  0.6000E+01
    -14.059  0.0000E+00  0.0000E+00  0.6000E+01  0.6000E+01
    -13.912  0.0000E+00  0.0000E+00  0.6000E+01  0.6000E+01
    -13.764  0.0000E+00  0.0000E+00  0.6000E+01  0.6000E+01
    -13.617  0.0000E+00  0.0000E+00  0.6000E+01  0.6000E+01
    -13.469  0.0000E+00  0.0000E+00  0.6000E+01  0.6000E+01
    -13.322  0.0000E+00  0.0000E+00  0.6000E+01  0.6000E+01
    -13.174  0.0000E+00  0.0000E+00  0.6000E+01  0.6000E+01
    -13.026  0.0000E+00  0.0000E+00  0.6000E+01  0.6000E+01
    -12.879  0.0000E+00  0.0000E+00  0.6000E+01  0.6000E+01
    -12.731  0.0000E+00  0.0000E+00  0.6000E+01  0.6000E+01
    -12.584  0.0000E+00  0.0000E+00  0.6000E+01  0.6000E+01
    -12.436  0.0000E+00  0.0000E+00  0.6000E+01  0.6000E+01
    -12.289  0.0000E+00  0.0000E+00  0.6000E+01  0.6000E+01
    -12.141  0.0000E+00  0.0000E+00  0.6000E+01  0.6000E+01
    -11.994  0.0000E+00  0.0000E+00  0.6000E+01  0.6000E+01
    -11.846  0.0000E+00  0.0000E+00  0.6000E+01  0.6000E+01
    -11.699  0.0000E+00  0.0000E+00  0.6000E+01  0.6000E+01
    -11.551  0.0000E+00  0.0000E+00  0.6000E+01  0.6000E+01
    -11.404  0.0000E+00  0.0000E+00  0.6000E+01  0.6000E+01
    -11.256  0.0000E+00  0.0000E+00  0.6000E+01  0.6000E+01
    -11.109  0.0000E+00  0.0000E+00  0.6000E+01  0.6000E+01
    -10.961  0.0000E+00  0.0000E+00  0.6000E+01  0.6000E+01
    -10.814  0.0000E+00  0.0000E+00  0.6000E+01  0.6000E+01
    -10.666  0.0000E+00  0.0000E+00  0.6000E+01  0.6000E+01
    -10.519  0.0000E+00  0.0000E+00  0.6000E+01  0.6000E+01
    -10.371  0.0000E+00  0.0000E+00  0.6000E+01  0.6000E+01
    -10.224  0.0000E+00  0.0000E+00  0.6000E+01  0.6000E+01
    -10.076  0.0000E+00  0.0000E+00  0.6000E+01  0.6000E+01
     -9.929  0.0000E+00  0.0000E+00  0.6000E+01  0.6000E+01
     -9.781  0.0000E+00  0.0000E+00  0.6000E+01  0.6000E+01
     -9.634  0.0000E+00  0.0000E+00  0.6000E+01  0.6000E+01
     -9.486  0.0000E+00  0.0000E+00  0.6000E+01  0.6000E+01
     -9.339  0.0000E+00  0.0000E+00  0.6000E+01  0.6000E+01
     -9.191  0.0000E+00  0.0000E+00  0.6000E+01  0.6000E+01
     -9.044  0.0000E+00  0.0000E+00  0.6000E+01  0.6000E+01
     -8.896  0.0000E+00  0.0000E+00  0.6000E+01  0.6000E+01
     -8.749  0.0000E+00  0.0000E+00  0.6000E+01  0.6000E+01
     -8.601  0.0000E+00  0.0000E+00  0.6000E+01  0.6000E+01
     -8.454  0.0000E+00  0.0000E+00  0.6000E+01  0.6000E+01
     -8.306  0.0000E+00  0.0000E+00  0.6000E+01  0.6000E+01
     -8.159  0.0000E+00  0.0000E+00  0.6000E+01  0.6000E+01
     -8.011  0.0000E+00  0.0000E+00  0.6000E+01  0.6000E+01
     -7.864  0.0000E+00  0.0000E+00  0.6000E+01  0.6000E+01
     -7.716  0.0000E+00  0.0000E+00  0.6000E+01  0.6000E+01
     -7.569  0.0000E+00  0.0000E+00  0.6000E+01  0.6000E+01
     -7.421  0.0000E+00  0.0000E+00  0.6000E+01  0.6000E+01
     -7.273  0.0000E+00  0.0000E+00  0.6000E+01  0.6000E+01
     -7.126  0.0000E+00  0.0000E+00  0.6000E+01  0.6000E+01
     -6.978  0.0000E+00  0.0000E+00  0.6000E+01  0.6000E+01
     -6.831  0.0000E+00  0.0000E+00  0.6000E+01  0.6000E+01
     -6.683  0.0000E+00  0.0000E+00  0.6000E+01  0.6000E+01
     -6.536  0.0000E+00  0.0000E+00  0.6000E+01  0.6000E+01
     -6.388  0.0000E+00  0.0000E+00  0.6000E+01  0.6000E+01
     -6.241  0.0000E+00  0.0000E+00  0.6000E+01  0.6000E+01
     -6.093  0.0000E+00  0.0000E+00  0.6000E+01  0.6000E+01
     -5.946  0.0000E+00  0.0000E+00  0.6000E+01  0.6000E+01
     -5.798  0.0000E+00  0.0000E+00  0.6000E+01  0.6000E+01
     -5.651  0.0000E+00  0.0000E+00  0.6000E+01  0.6000E+01
     -5.503  0.0000E+00  0.0000E+00  0.6000E+01  0.6000E+01
     -5.356  0.0000E+00  0.0000E+00  0.6000E+01  0.6000E+01
     -5.208  0.0000E+00  0.0000E+00  0.6000E+01  0.6000E+01
     -5.061  0.0000E+00  0.0000E+00  0.6000E+01  0.6000E+01
     -4.913  0.0000E+00  0.0000E+00  0.6000E+01  0.6000E+01
     -4.766  0.0000E+00  0.0000E+00  0.6000E+01  0.6000E+01
     -4.618  0.0000E+00  0.0000E+00  0.6000E+01  0.6000E+01
     -4.471  0.0000E+00  0.0000E+00  0.6000E+01  0.6000E+01
     -4.323  0.0000E+00  0.0000E+00  0.6000E+01  0.6000E+01
     -4.176  0.0000E+00  0.0000E+00  0.6000E+01  0.6000E+01
     -4.028  0.0000E+00  0.0000E+00  0.6000E+01  0.6000E+01
     -3.881  0.0000E+00  0.0000E+00  0.6000E+01  0.6000E+01
     -3.733  0.0000E+00  0.0000E+00  0.6000E+01  0.6000E+01
     -3.586  0.0000E+00  0.0000E+00  0.6000E+01  0.6000E+01
     -3.438  0.0000E+00  0.0000E+00  0.6000E+01  0.6000E+01
     -3.291  0.0000E+00  0.0000E+00  0.6000E+01  0.6000E+01
     -3.143  0.0000E+00  0.0000E+00  0.6000E+01  0.6000E+01
     -2.996  0.0000E+00  0.0000E+00  0.6000E+01  0.6000E+01
     -2.848  0.0000E+00  0.0000E+00  0.6000E+01  0.6000E+01
     -2.701  0.0000E+00  0.0000E+00  0.6000E+01  0.6000E+01
     -2.553  0.0000E+00  0.0000E+00  0.6000E+01  0.6000E+01
     -2.406  0.0000E+00  0.0000E+00  0.6000E+01  0.6000E+01
     -2.258  0.0000E+00  0.0000E+00  0.6000E+01  0.6000E+01
     -2.111  0.0000E+00  0.0000E+00  0.6000E+01  0.6000E+01
     -1.963  0.0000E+00  0.0000E+00  0.6000E+01  0.6000E+01
     -1.816  0.0000E+00  0.0000E+00  0.6000E+01  0.6000E+01
     -1.668  0.0000E+00  0.0000E+00  0.6000E+01  0.6000E+01
     -1.520  0.0000E+00  0.0000E+00  0.6000E+01  0.6000E+01
     -1.373  0.1067E-05  0.1094E-05  0.6000E+01  0.6000E+01
     -1.225  0.2113E-04  0.2166E-04  0.6000E+01  0.6000E+01
     -1.078  0.3724E-03  0.3811E-03  0.6000E+01  0.6000E+01
     -0.930  0.3072E-02  0.3106E-02  0.6001E+01  0.6001E+01
     -0.783  0.9069E-02  0.9167E-02  0.6002E+01  0.6002E+01
     -0.635  0.2493E-01  0.2504E-01  0.6006E+01  0.6006E+01
     -0.488  0.3754E-01  0.3761E-01  0.6011E+01  0.6011E+01
     -0.340  0.2099E-01  0.2078E-01  0.6014E+01  0.6014E+01
     -0.193  0.2090E-01  0.2109E-01  0.6017E+01  0.6017E+01
     -0.045  0.6068E-01  0.6115E-01  0.6026E+01  0.6026E+01
      0.102  0.7519E-01  0.7485E-01  0.6037E+01  0.6037E+01
      0.250  0.4719E-01  0.4712E-01  0.6044E+01  0.6044E+01
      0.397  0.3853E-01  0.3859E-01  0.6050E+01  0.6050E+01
      0.545  0.4775E-01  0.4774E-01  0.6057E+01  0.6057E+01
      0.692  0.8353E-01  0.8402E-01  0.6069E+01  0.6070E+01
      0.840  0.9684E-01  0.9679E-01  0.6084E+01  0.6084E+01
      0.987  0.7698E-01  0.7657E-01  0.6095E+01  0.6095E+01
      1.135  0.7484E-01  0.7538E-01  0.6106E+01  0.6106E+01
      1.282  0.1517E+00  0.1521E+00  0.6129E+01  0.6129E+01
      1.430  0.9127E-01  0.9054E-01  0.6142E+01  0.6142E+01
      1.577  0.7100E-01  0.7094E-01  0.6153E+01  0.6153E+01
      1.725  0.5697E-01  0.5729E-01  0.6161E+01  0.6161E+01
      1.872  0.1898E+00  0.1911E+00  0.6189E+01  0.6189E+01
      2.020  0.2178E+00  0.2173E+00  0.6221E+01  0.6221E+01
      2.167  0.2201E+00  0.2204E+00  0.6254E+01  0.6254E+01
      2.315  0.1741E+00  0.1733E+00  0.6279E+01  0.6280E+01
      2.462  0.1880E+00  0.1894E+00  0.6307E+01  0.6308E+01
      2.610  0.4885E+00  0.4901E+00  0.6379E+01  0.6380E+01
      2.757  0.7081E+00  0.7097E+00  0.6484E+01  0.6485E+01
      2.905  0.7238E+00  0.7226E+00  0.6591E+01  0.6591E+01
      3.052  0.5958E+00  0.5953E+00  0.6679E+01  0.6679E+01
      3.200  0.7087E+00  0.7099E+00  0.6784E+01  0.6784E+01
      3.347  0.8316E+00  0.8321E+00  0.6906E+01  0.6907E+01
      3.495  0.7658E+00  0.7650E+00  0.7019E+01  0.7020E+01
      3.642  0.7382E+00  0.7383E+00  0.7129E+01  0.7129E+01
      3.790  0.8422E+00  0.8417E+00  0.7253E+01  0.7254E+01
      3.937  0.1002E+01  0.1003E+01  0.7401E+01  0.7402E+01
      4.085  0.1020E+01  0.1020E+01  0.7552E+01  0.7553E+01
      4.232  0.9063E+00  0.9044E+00  0.7686E+01  0.7686E+01
      4.380  0.6433E+00  0.6423E+00  0.7781E+01  0.7781E+01
      4.528  0.5422E+00  0.5417E+00  0.7861E+01  0.7862E+01
      4.675  0.5833E+00  0.5847E+00  0.7947E+01  0.7948E+01
      4.823  0.6973E+00  0.6972E+00  0.8050E+01  0.8051E+01
      4.970  0.6097E+00  0.6095E+00  0.8140E+01  0.8141E+01
      5.118  0.5612E+00  0.5613E+00  0.8223E+01  0.8224E+01
      5.265  0.8169E+00  0.8200E+00  0.8344E+01  0.8345E+01
      5.413  0.9067E+00  0.9052E+00  0.8478E+01  0.8479E+01
      5.560  0.8148E+00  0.8150E+00  0.8598E+01  0.8599E+01
      5.708  0.8141E+00  0.8148E+00  0.8719E+01  0.8720E+01
      5.855  0.9750E+00  0.9758E+00  0.8863E+01  0.8864E+01
      6.003  0.1046E+01  0.1047E+01  0.9017E+01  0.9018E+01
      6.150  0.8532E+00  0.8514E+00  0.9144E+01  0.9144E+01
      6.298  0.9560E+00  0.9579E+00  0.9285E+01  0.9286E+01
      6.445  0.1206E+01  0.1208E+01  0.9463E+01  0.9465E+01
      6.593  0.1166E+01  0.1163E+01  0.9635E+01  0.9636E+01
      6.740  0.7771E+00  0.7740E+00  0.9750E+01  0.9751E+01
      6.888  0.3544E+00  0.3524E+00  0.9803E+01  0.9803E+01
      7.035  0.2600E+00  0.2605E+00  0.9842E+01  0.9842E+01
      7.183  0.3875E+00  0.3885E+00  0.9899E+01  0.9900E+01
      7.330  0.5747E+00  0.5763E+00  0.9984E+01  0.9985E+01
      7.478  0.7746E+00  0.7758E+00  0.1010E+02  0.1010E+02
      7.625  0.1124E+01  0.1127E+01  0.1026E+02  0.1027E+02
      7.773  0.1510E+01  0.1510E+01  0.1049E+02  0.1049E+02
      7.920  0.1086E+01  0.1084E+01  0.1065E+02  0.1065E+02
      8.068  0.1166E+01  0.1168E+01  0.1082E+02  0.1082E+02
      8.215  0.1206E+01  0.1205E+01  0.1100E+02  0.1100E+02
      8.363  0.9475E+00  0.9458E+00  0.1114E+02  0.1114E+02
      8.510  0.9115E+00  0.9118E+00  0.1127E+02  0.1127E+02
      8.658  0.1024E+01  0.1025E+01  0.1143E+02  0.1143E+02
      8.805  0.1219E+01  0.1220E+01  0.1161E+02  0.1161E+02
      8.953  0.1123E+01  0.1123E+01  0.1177E+02  0.1177E+02
      9.100  0.1217E+01  0.1217E+01  0.1195E+02  0.1195E+02
      9.248  0.1230E+01  0.1230E+01  0.1213E+02  0.1213E+02
      9.395  0.1306E+01  0.1306E+01  0.1233E+02  0.1233E+02
      9.543  0.1183E+01  0.1184E+01  0.1250E+02  0.1250E+02
      9.690  0.1207E+01  0.1206E+01  0.1268E+02  0.1268E+02
      9.838  0.8074E+00  0.8049E+00  0.1280E+02  0.1280E+02
      9.985  0.7675E+00  0.7684E+00  0.1291E+02  0.1291E+02
     10.133  0.8171E+00  0.8161E+00  0.1303E+02  0.1303E+02
     10.281  0.5046E+00  0.5035E+00  0.1311E+02  0.1311E+02
     10.428  0.4810E+00  0.4810E+00  0.1318E+02  0.1318E+02
     10.576  0.5680E+00  0.5679E+00  0.1326E+02  0.1326E+02
     10.723  0.6230E+00  0.6229E+00  0.1335E+02  0.1335E+02
     10.871  0.5113E+00  0.5108E+00  0.1343E+02  0.1343E+02
     11.018  0.3043E+00  0.3039E+00  0.1348E+02  0.1348E+02
     11.166  0.1851E+00  0.1853E+00  0.1350E+02  0.1350E+02
     11.313  0.5154E+00  0.5158E+00  0.1358E+02  0.1358E+02
     11.461  0.5128E+00  0.5125E+00  0.1365E+02  0.1365E+02
     11.608  0.5367E+00  0.5369E+00  0.1373E+02  0.1373E+02
     11.756  0.5821E+00  0.5821E+00  0.1382E+02  0.1382E+02
     11.903  0.3727E+00  0.3722E+00  0.1388E+02  0.1388E+02
     12.051  0.2133E+00  0.2132E+00  0.1391E+02  0.1391E+02
     12.198  0.3907E+00  0.3909E+00  0.1396E+02  0.1396E+02
     12.346  0.4697E+00  0.4699E+00  0.1403E+02  0.1403E+02
     12.493  0.4426E+00  0.4427E+00  0.1410E+02  0.1410E+02
     12.641  0.4087E+00  0.4088E+00  0.1416E+02  0.1416E+02
     12.788  0.5005E+00  0.5007E+00  0.1423E+02  0.1423E+02
     12.936  0.5088E+00  0.5084E+00  0.1431E+02  0.1431E+02
     13.083  0.3697E+00  0.3695E+00  0.1436E+02  0.1436E+02
     13.231  0.4504E+00  0.4506E+00  0.1443E+02  0.1443E+02
     13.378  0.5901E+00  0.5901E+00  0.1452E+02  0.1452E+02
     13.526  0.4633E+00  0.4633E+00  0.1459E+02  0.1459E+02
     13.673  0.4366E+00  0.4369E+00  0.1465E+02  0.1465E+02
     13.821  0.6188E+00  0.6189E+00  0.1474E+02  0.1474E+02
     13.968  0.5888E+00  0.5892E+00  0.1483E+02  0.1483E+02
     14.116  0.7914E+00  0.7923E+00  0.1495E+02  0.1495E+02
     14.263  0.8361E+00  0.8358E+00  0.1507E+02  0.1507E+02
     14.411  0.7568E+00  0.7557E+00  0.1518E+02  0.1518E+02
     14.558  0.7034E+00  0.7038E+00  0.1529E+02  0.1529E+02
     14.706  0.6001E+00  0.5991E+00  0.1537E+02  0.1537E+02
     14.853  0.3873E+00  0.3872E+00  0.1543E+02  0.1543E+02
     15.001  0.3585E+00  0.3593E+00  0.1548E+02  0.1548E+02
     15.148  0.4015E+00  0.4024E+00  0.1554E+02  0.1554E+02
     15.296  0.6244E+00  0.6246E+00  0.1564E+02  0.1564E+02
     15.443  0.6641E+00  0.6620E+00  0.1573E+02  0.1573E+02
     15.591  0.4936E+00  0.4942E+00  0.1581E+02  0.1581E+02
     15.738  0.2736E+00  0.2765E+00  0.1585E+02  0.1585E+02
     15.886  0.3405E+00  0.3386E+00  0.1590E+02  0.1590E+02
     16.034  0.3625E+00  0.3607E+00  0.1595E+02  0.1595E+02
     16.181  0.2377E+00  0.2359E+00  0.1599E+02  0.1599E+02
     16.329  0.7791E-01  0.7992E-01  0.1600E+02  0.1600E+02
     16.476  0.8350E-02  0.8845E-02  0.1600E+02  0.1600E+02
     16.624  0.2012E-03  0.1986E-03  0.1600E+02  0.1600E+02
     16.771  0.0000E+00  0.0000E+00  0.1600E+02  0.1600E+02
     16.919  0.0000E+00  0.0000E+00  0.1600E+02  0.1600E+02
     17.066  0.0000E+00  0.0000E+00  0.1600E+02  0.1600E+02
     17.214  0.0000E+00  0.0000E+00  0.1600E+02  0.1600E+02
     17.361  0.0000E+00  0.0000E+00  0.1600E+02  0.1600E+02
     17.509  0.0000E+00  0.0000E+00  0.1600E+02  0.1600E+02
     17.656  0.0000E+00  0.0000E+00  0.1600E+02  0.1600E+02
     17.804  0.0000E+00  0.0000E+00  0.1600E+02  0.1600E+02
     17.951  0.0000E+00  0.0000E+00  0.1600E+02  0.1600E+02
     18.099  0.0000E+00  0.0000E+00  0.1600E+02  0.1600E+02
     18.246  0.0000E+00  0.0000E+00  0.1600E+02  0.1600E+02
     18.24620843    -26.00761100  301      7.35344034      1.00000000
    -26.008  0.0000E+00  0.0000E+00  0.0000E+00  0.0000E+00  0.0000E+00  0.0000E+00  0.0000E+00  0.0000E+00  0.0000E+00  0.0000E+00  0.0000E+00  0.0000E+00  0.0000E+00  0.0000E+00  0.0000E+00  0.0000E+00  0.0000E+00  0.0000E+00
    -25.860  0.0000E+00  0.0000E+00  0.0000E+00  0.0000E+00  0.0000E+00  0.0000E+00  0.0000E+00  0.0000E+00  0.0000E+00  0.0000E+00  0.0000E+00  0.0000E+00  0.0000E+00  0.0000E+00  0.0000E+00  0.0000E+00  0.0000E+00  0.0000E+00
    -25.713  0.0000E+00  0.0000E+00  0.0000E+00  0.0000E+00  0.0000E+00  0.0000E+00  0.0000E+00  0.0000E+00  0.0000E+00  0.0000E+00  0.0000E+00  0.0000E+00  0.0000E+00  0.0000E+00  0.0000E+00  0.0000E+00  0.0000E+00  0.0000E+00
    -25.565  0.0000E+00  0.0000E+00  0.0000E+00  0.0000E+00  0.0000E+00  0.0000E+00  0.0000E+00  0.0000E+00  0.0000E+00  0.0000E+00  0.0000E+00  0.0000E+00  0.0000E+00  0.0000E+00  0.0000E+00  0.0000E+00  0.0000E+00  0.0000E+00
    -25.418  0.0000E+00  0.0000E+00  0.0000E+00  0.0000E+00  0.0000E+00  0.0000E+00  0.0000E+00  0.0000E+00  0.0000E+00  0.0000E+00  0.0000E+00  0.0000E+00  0.0000E+00  0.0000E+00  0.0000E+00  0.0000E+00  0.0000E+00  0.0000E+00
    -25.270  0.0000E+00  0.0000E+00  0.0000E+00  0.0000E+00  0.0000E+00  0.0000E+00  0.0000E+00  0.0000E+00  0.0000E+00  0.0000E+00  0.0000E+00  0.0000E+00  0.0000E+00  0.0000E+00  0.0000E+00  0.0000E+00  0.0000E+00  0.0000E+00
    -25.123  0.0000E+00  0.0000E+00  0.0000E+00  0.0000E+00  0.0000E+00  0.0000E+00  0.0000E+00  0.0000E+00  0.0000E+00  0.0000E+00  0.0000E+00  0.0000E+00  0.0000E+00  0.0000E+00  0.0000E+00  0.0000E+00  0.0000E+00  0.0000E+00
    -24.975  0.0000E+00  0.0000E+00  0.0000E+00  0.0000E+00  0.0000E+00  0.0000E+00  0.0000E+00  0.0000E+00  0.0000E+00  0.0000E+00  0.0000E+00  0.0000E+00  0.0000E+00  0.0000E+00  0.0000E+00  0.0000E+00  0.0000E+00  0.0000E+00
    -24.828  0.0000E+00  0.0000E+00  0.0000E+00  0.0000E+00  0.0000E+00  0.0000E+00  0.0000E+00  0.0000E+00  0.0000E+00  0.0000E+00  0.0000E+00  0.0000E+00  0.0000E+00  0.0000E+00  0.0000E+00  0.0000E+00  0.0000E+00  0.0000E+00
    -24.680  0.0000E+00  0.0000E+00  0.0000E+00  0.0000E+00  0.0000E+00  0.0000E+00  0.0000E+00  0.0000E+00  0.0000E+00  0.0000E+00  0.0000E+00  0.0000E+00  0.0000E+00  0.0000E+00  0.0000E+00  0.0000E+00  0.0000E+00  0.0000E+00
    -24.532  0.3796E-21  0.3488E-21  0.5764E-20  0.5104E-20  0.4689E-07  0.4743E-07  0.5764E-20  0.5104E-20  0.2231E-22  0.2213E-22  0.8248E-20  0.8366E-20  0.1652E-21  0.1657E-21  0.8248E-20  0.8366E-20  0.2231E-22  0.2213E-22
    -24.385  0.1107E-08  0.1120E-08  0.7729E-09  0.7817E-09  0.6126E-05  0.6198E-05  0.7729E-09  0.7817E-09  0.4193E-11  0.4240E-11  0.1276E-08  0.1291E-08  0.2585E-09  0.2614E-09  0.1276E-08  0.1291E-08  0.4193E-11  0.4240E-11
    -24.237  0.3422E-07  0.3460E-07  0.1071E-04  0.1082E-04  0.1326E-03  0.1341E-03  0.1071E-04  0.1082E-04  0.5250E-08  0.5301E-08  0.3359E-07  0.3397E-07  0.1055E-07  0.1066E-07  0.3359E-07  0.3397E-07  0.5250E-08  0.5301E-08
    -24.090  0.7209E-06  0.7293E-06  0.2284E-03  0.2307E-03  0.2437E-02  0.2464E-02  0.2284E-03  0.2307E-03  0.1253E-06  0.1268E-06  0.6446E-06  0.6519E-06  0.2408E-06  0.2433E-06  0.6446E-06  0.6519E-06  0.1253E-06  0.1268E-06
    -23.942  0.1131E-04  0.1140E-04  0.4234E-02  0.4273E-02  0.2856E-01  0.2877E-01  0.4234E-02  0.4273E-02  0.2380E-05  0.2402E-05  0.9332E-05  0.9415E-05  0.3977E-05  0.4012E-05  0.9332E-05  0.9415E-05  0.2380E-05  0.2402E-05
    -23.795  0.9791E-04  0.9856E-04  0.5341E-01  0.5376E-01  0.1258E+00  0.1263E+00  0.5341E-01  0.5376E-01  0.3405E-04  0.3431E-04  0.6276E-04  0.6312E-04  0.4232E-04  0.4261E-04  0.6276E-04  0.6312E-04  0.3405E-04  0.3431E-04
    -23.647  0.5252E-03  0.5275E-03  0.2279E+00  0.2286E+00  0.3315E+00  0.3324E+00  0.2279E+00  0.2286E+00  0.2158E-03  0.2168E-03  0.2288E-03  0.2297E-03  0.2280E-03  0.2288E-03  0.2288E-03  0.2297E-03  0.2158E-03  0.2168E-03
    -23.500  0.1481E-02  0.1485E-02  0.4241E+00  0.4244E+00  0.6011E+00  0.6019E+00  0.4241E+00  0.4244E+00  0.5761E-03  0.5769E-03  0.5238E-03  0.5248E-03  0.5100E-03  0.5107E-03  0.5238E-03  0.5248E-03  0.5761E-03  0.5769E-03
    -23.352  0.2146E-02  0.2146E-02  0.4183E+00  0.4179E+00  0.5542E+00  0.5532E+00  0.4183E+00  0.4179E+00  0.5736E-03  0.5727E-03  0.5497E-03  0.5491E-03  0.5362E-03  0.5357E-03  0.5497E-03  0.5491E-03  0.5736E-03  0.5727E-03
    -23.205  0.2105E-02  0.2105E-02  0.3265E+00  0.3263E+00  0.3084E+00  0.3081E+00  0.3265E+00  0.3263E+00  0.3268E-03  0.3262E-03  0.3897E-03  0.3894E-03  0.4656E-03  0.4657E-03  0.3897E-03  0.3894E-03  0.3268E-03  0.3262E-03
    -23.057  0.2040E-02  0.2038E-02  0.2884E+00  0.2883E+00  0.2749E+00  0.2748E+00  0.2884E+00  0.2883E+00  0.2918E-03  0.2919E-03  0.3996E-03  0.3998E-03  0.5668E-03  0.5670E-03  0.3996E-03  0.3998E-03  0.2918E-03  0.2919E-03
    -22.910  0.1475E-02  0.1473E-02  0.2788E+00  0.2789E+00  0.3057E+00  0.3059E+00  0.2788E+00  0.2789E+00  0.3995E-03  0.4000E-03  0.5598E-03  0.5604E-03  0.7032E-03  0.7039E-03  0.5598E-03  0.5604E-03  0.3995E-03  0.4000E-03
    -22.762  0.1331E-02  0.1331E-02  0.3264E+00  0.3266E+00  0.3343E+00  0.3343E+00  0.3264E+00  0.3266E+00  0.5519E-03  0.5522E-03  0.6165E-03  0.6163E-03  0.8806E-03  0.8813E-03  0.6165E-03  0.6163E-03  0.5519E-03  0.5522E-03
    -22.615  0.1047E-02  0.1045E-02  0.4213E+00  0.4216E+00  0.3159E+00  0.3158E+00  0.4213E+00  0.4216E+00  0.7152E-03  0.7157E-03  0.5935E-03  0.5933E-03  0.1038E-02  0.1038E-02  0.5935E-03  0.5933E-03  0.7152E-03  0.7157E-03
    -22.467  0.9119E-03  0.9118E-03  0.5731E+00  0.5736E+00  0.3631E+00  0.3634E+00  0.5731E+00  0.5736E+00  0.8214E-03  0.8213E-03  0.6238E-03  0.6239E-03  0.1116E-02  0.1116E-02  0.6238E-03  0.6239E-03  0.8214E-03  0.8213E-03
    -22.320  0.7981E-03  0.7972E-03  0.6697E+00  0.6698E+00  0.4862E+00  0.4869E+00  0.6697E+00  0.6698E+00  0.8145E-03  0.8142E-03  0.7643E-03  0.7651E-03  0.1035E-02  0.1035E-02  0.7643E-03  0.7651E-03  0.8145E-03  0.8142E-03
    -22.172  0.5981E-03  0.5976E-03  0.7510E+00  0.7514E+00  0.7443E+00  0.7453E+00  0.7510E+00  0.7514E+00  0.7455E-03  0.7451E-03  0.9821E-03  0.9823E-03  0.8396E-03  0.8389E-03  0.9821E-03  0.9823E-03  0.7455E-03  0.7451E-03
    -22.025  0.4509E-03  0.4500E-03  0.8810E+00  0.8811E+00  0.9423E+00  0.9421E+00  0.8810E+00  0.8811E+00  0.5827E-03  0.5818E-03  0.8545E-03  0.8532E-03  0.6451E-03  0.6443E-03  0.8545E-03  0.8532E-03  0.5827E-03  0.5818E-03
    -21.877  0.1875E-03  0.1867E-03  0.6672E+00  0.6660E+00  0.6206E+00  0.6188E+00  0.6672E+00  0.6660E+00  0.2980E-03  0.2970E-03  0.4338E-03  0.4322E-03  0.3821E-03  0.3810E-03  0.4338E-03  0.4322E-03  0.2980E-03  0.2970E-03
    -21.730  0.5282E-04  0.5254E-04  0.2874E+00  0.2864E+00  0.2572E+00  0.2562E+00  0.2874E+00  0.2864E+00  0.9524E-04  0.9482E-04  0.1187E-03  0.1180E-03  0.1323E-03  0.1316E-03  0.1187E-03  0.1180E-03  0.9524E-04  0.9482E-04
    -21.582  0.5759E-05  0.5707E-05  0.4918E-01  0.4885E-01  0.5444E-01  0.5400E-01  0.4918E-01  0.4885E-01  0.1313E-04  0.1304E-04  0.1374E-04  0.1362E-04  0.1785E-04  0.1769E-04  0.1374E-04  0.1362E-04  0.1313E-04  0.1304E-04
    -21.435  0.1234E-06  0.1216E-06  0.2467E-02  0.2405E-02  0.3650E-02  0.3371E-02  0.2467E-02  0.2405E-02  0.5360E-06  0.5206E-06  0.5723E-06  0.5021E-06  0.7364E-06  0.6804E-06  0.5723E-06  0.5021E-06  0.5360E-06  0.5206E-06
    -21.287  0.0000E+00  0.0000E+00  0.0000E+00  0.0000E+00  0.0000E+00  0.0000E+00  0.0000E+00  0.0000E+00  0.0000E+00  0.0000E+00  0.0000E+00  0.0000E+00  0.0000E+00  0.0000E+00  0.0000E+00  0.0000E+00  0.0000E+00  0.0000E+00
    -21.140  0.0000E+00  0.0000E+00  0.0000E+00  0.0000E+00  0.0000E+00  0.0000E+00  0.0000E+00  0.0000E+00  0.0000E+00  0.0000E+00  0.0000E+00  0.0000E+00  0.0000E+00  0.0000E+00  0.0000E+00  0.0000E+00  0.0000E+00  0.0000E+00
    -20.992  0.0000E+00  0.0000E+00  0.0000E+00  0.0000E+00  0.0000E+00  0.0000E+00  0.0000E+00  0.0000E+00  0.0000E+00  0.0000E+00  0.0000E+00  0.0000E+00  0.0000E+00  0.0000E+00  0.0000E+00  0.0000E+00  0.0000E+00  0.0000E+00
    -20.845  0.0000E+00  0.0000E+00  0.0000E+00  0.0000E+00  0.0000E+00  0.0000E+00  0.0000E+00  0.0000E+00  0.0000E+00  0.0000E+00  0.0000E+00  0.0000E+00  0.0000E+00  0.0000E+00  0.0000E+00  0.0000E+00  0.0000E+00  0.0000E+00
    -20.697  0.0000E+00  0.0000E+00  0.0000E+00  0.0000E+00  0.0000E+00  0.0000E+00  0.0000E+00  0.0000E+00  0.0000E+00  0.0000E+00  0.0000E+00  0.0000E+00  0.0000E+00  0.0000E+00  0.0000E+00  0.0000E+00  0.0000E+00  0.0000E+00
    -20.550  0.0000E+00  0.0000E+00  0.0000E+00  0.0000E+00  0.0000E+00  0.0000E+00  0.0000E+00  0.0000E+00  0.0000E+00  0.0000E+00  0.0000E+00  0.0000E+00  0.0000E+00  0.0000E+00  0.0000E+00  0.0000E+00  0.0000E+00  0.0000E+00
    -20.402  0.0000E+00  0.0000E+00  0.0000E+00  0.0000E+00  0.0000E+00  0.0000E+00  0.0000E+00  0.0000E+00  0.0000E+00  0.0000E+00  0.0000E+00  0.0000E+00  0.0000E+00  0.0000E+00  0.0000E+00  0.0000E+00  0.0000E+00  0.0000E+00
    -20.255  0.0000E+00  0.0000E+00  0.0000E+00  0.0000E+00  0.0000E+00  0.0000E+00  0.0000E+00  0.0000E+00  0.0000E+00  0.0000E+00  0.0000E+00  0.0000E+00  0.0000E+00  0.0000E+00  0.0000E+00  0.0000E+00  0.0000E+00  0.0000E+00
    -20.107  0.0000E+00  0.0000E+00  0.0000E+00  0.0000E+00  0.0000E+00  0.0000E+00  0.0000E+00  0.0000E+00  0.0000E+00  0.0000E+00  0.0000E+00  0.0000E+00  0.0000E+00  0.0000E+00  0.0000E+00  0.0000E+00  0.0000E+00  0.0000E+00
    -19.960  0.0000E+00  0.0000E+00  0.0000E+00  0.0000E+00  0.0000E+00  0.0000E+00  0.0000E+00  0.0000E+00  0.0000E+00  0.0000E+00  0.0000E+00  0.0000E+00  0.0000E+00  0.0000E+00  0.0000E+00  0.0000E+00  0.0000E+00  0.0000E+00
    -19.812  0.0000E+00  0.0000E+00  0.0000E+00  0.0000E+00  0.0000E+00  0.0000E+00  0.0000E+00  0.0000E+00  0.0000E+00  0.0000E+00  0.0000E+00  0.0000E+00  0.0000E+00  0.0000E+00  0.0000E+00  0.0000E+00  0.0000E+00  0.0000E+00
    -19.665  0.0000E+00  0.0000E+00  0.0000E+00  0.0000E+00  0.0000E+00  0.0000E+00  0.0000E+00  0.0000E+00  0.0000E+00  0.0000E+00  0.0000E+00  0.0000E+00  0.0000E+00  0.0000E+00  0.0000E+00  0.0000E+00  0.0000E+00  0.0000E+00
    -19.517  0.0000E+00  0.0000E+00  0.0000E+00  0.0000E+00  0.0000E+00  0.0000E+00  0.0000E+00  0.0000E+00  0.0000E+00  0.0000E+00  0.0000E+00  0.0000E+00  0.0000E+00  0.0000E+00  0.0000E+00  0.0000E+00  0.0000E+00  0.0000E+00
    -19.370  0.0000E+00  0.0000E+00  0.0000E+00  0.0000E+00  0.0000E+00  0.0000E+00  0.0000E+00  0.0000E+00  0.0000E+00  0.0000E+00  0.0000E+00  0.0000E+00  0.0000E+00  0.0000E+00  0.0000E+00  0.0000E+00  0.0000E+00  0.0000E+00
    -19.222  0.0000E+00  0.0000E+00  0.0000E+00  0.0000E+00  0.0000E+00  0.0000E+00  0.0000E+00  0.0000E+00  0.0000E+00  0.0000E+00  0.0000E+00  0.0000E+00  0.0000E+00  0.0000E+00  0.0000E+00  0.0000E+00  0.0000E+00  0.0000E+00
    -19.075  0.0000E+00  0.0000E+00  0.0000E+00  0.0000E+00  0.0000E+00  0.0000E+00  0.0000E+00  0.0000E+00  0.0000E+00  0.0000E+00  0.0000E+00  0.0000E+00  0.0000E+00  0.0000E+00  0.0000E+00  0.0000E+00  0.0000E+00  0.0000E+00
    -18.927  0.0000E+00  0.0000E+00  0.0000E+00  0.0000E+00  0.0000E+00  0.0000E+00  0.0000E+00  0.0000E+00  0.0000E+00  0.0000E+00  0.0000E+00  0.0000E+00  0.0000E+00  0.0000E+00  0.0000E+00  0.0000E+00  0.0000E+00  0.0000E+00
    -18.779  0.0000E+00  0.0000E+00  0.0000E+00  0.0000E+00  0.0000E+00  0.0000E+00  0.0000E+00  0.0000E+00  0.0000E+00  0.0000E+00  0.0000E+00  0.0000E+00  0.0000E+00  0.0000E+00  0.0000E+00  0.0000E+00  0.0000E+00  0.0000E+00
    -18.632  0.0000E+00  0.0000E+00  0.0000E+00  0.0000E+00  0.0000E+00  0.0000E+00  0.0000E+00  0.0000E+00  0.0000E+00  0.0000E+00  0.0000E+00  0.0000E+00  0.0000E+00  0.0000E+00  0.0000E+00  0.0000E+00  0.0000E+00  0.0000E+00