   2   2   1   0
  0.2988298E+02  0.3519139E-09  0.3519138E-09  0.5572506E-09  0.5000000E-15
  1.000000000000000E-004
  CAR 
 unknown system                          
      9.34353825    -30.25970589  301      3.12240788      1.00000000
    -30.260  0.0000E+00  0.0000E+00  0.0000E+00  0.0000E+00
    -30.128  0.0000E+00  0.0000E+00  0.0000E+00  0.0000E+00
    -29.996  0.0000E+00  0.0000E+00  0.0000E+00  0.0000E+00
    -29.864  0.0000E+00  0.0000E+00  0.0000E+00  0.0000E+00
    -29.732  0.0000E+00  0.0000E+00  0.0000E+00  0.0000E+00
    -29.600  0.0000E+00  0.0000E+00  0.0000E+00  0.0000E+00
    -29.468  0.0000E+00  0.0000E+00  0.0000E+00  0.0000E+00
    -29.336  0.0000E+00  0.0000E+00  0.0000E+00  0.0000E+00
    -29.204  0.0000E+00  0.0000E+00  0.0000E+00  0.0000E+00
    -29.072  0.0000E+00  0.0000E+00  0.0000E+00  0.0000E+00
    -28.940  0.3392E-04  0.3793E-04  0.4478E-05  0.5007E-05
    -28.808  0.2598E-02  0.2680E-02  0.3474E-03  0.3588E-03
    -28.676  0.3733E-01  0.3845E-01  0.5276E-02  0.5435E-02
    -28.544  0.4987E+00  0.5132E+00  0.7111E-01  0.7318E-01
    -28.412  0.4652E+01  0.4745E+01  0.6853E+00  0.6995E+00
    -28.280  0.1470E+02  0.1480E+02  0.2626E+01  0.2653E+01
    -28.148  0.1861E+02  0.1854E+02  0.5082E+01  0.5101E+01
    -28.016  0.6277E+01  0.6149E+01  0.5911E+01  0.5913E+01
    -27.884  0.6037E+00  0.5860E+00  0.5994E+01  0.5994E+01
    -27.752  0.2110E-02  0.2031E-02  0.6000E+01  0.6000E+01
    -27.619  0.0000E+00  0.0000E+00  0.6000E+01  0.6000E+01
    -27.487  0.0000E+00  0.0000E+00  0.6000E+01  0.6000E+01
    -27.355  0.0000E+00  0.0000E+00  0.6000E+01  0.6000E+01
    -27.223  0.0000E+00  0.0000E+00  0.6000E+01  0.6000E+01
    -27.091  0.0000E+00  0.0000E+00  0.6000E+01  0.6000E+01
    -26.959  0.0000E+00  0.0000E+00  0.6000E+01  0.6000E+01
    -26.827  0.0000E+00  0.0000E+00  0.6000E+01  0.6000E+01
    -26.695  0.0000E+00  0.0000E+00  0.6000E+01  0.6000E+01
    -26.563  0.0000E+00  0.0000E+00  0.6000E+01  0.6000E+01
    -26.431  0.0000E+00  0.0000E+00  0.6000E+01  0.6000E+01
    -26.299  0.0000E+00  0.0000E+00  0.6000E+01  0.6000E+01
    -26.167  0.0000E+00  0.0000E+00  0.6000E+01  0.6000E+01
    -26.035  0.0000E+00  0.0000E+00  0.6000E+01  0.6000E+01
    -25.903  0.0000E+00  0.0000E+00  0.6000E+01  0.6000E+01
    -25.771  0.0000E+00  0.0000E+00  0.6000E+01  0.6000E+01
    -25.639  0.0000E+00  0.0000E+00  0.6000E+01  0.6000E+01
    -25.507  0.0000E+00  0.0000E+00  0.6000E+01  0.6000E+01
    -25.375  0.0000E+00  0.0000E+00  0.6000E+01  0.6000E+01
    -25.243  0.0000E+00  0.0000E+00  0.6000E+01  0.6000E+01
    -25.111  0.0000E+00  0.0000E+00  0.6000E+01  0.6000E+01
    -24.979  0.0000E+00  0.0000E+00  0.6000E+01  0.6000E+01
    -24.847  0.0000E+00  0.0000E+00  0.6000E+01  0.6000E+01
    -24.715  0.0000E+00  0.0000E+00  0.6000E+01  0.6000E+01
    -24.583  0.0000E+00  0.0000E+00  0.6000E+01  0.6000E+01
    -24.451  0.0000E+00  0.0000E+00  0.6000E+01  0.6000E+01
    -24.319  0.0000E+00  0.0000E+00  0.6000E+01  0.6000E+01
    -24.187  0.0000E+00  0.0000E+00  0.6000E+01  0.6000E+01
    -24.055  0.0000E+00  0.0000E+00  0.6000E+01  0.6000E+01
    -23.923  0.0000E+00  0.0000E+00  0.6000E+01  0.6000E+01
    -23.791  0.0000E+00  0.0000E+00  0.6000E+01  0.6000E+01
    -23.659  0.0000E+00  0.0000E+00  0.6000E+01  0.6000E+01
    -23.527  0.0000E+00  0.0000E+00  0.6000E+01  0.6000E+01
    -23.395  0.0000E+00  0.0000E+00  0.6000E+01  0.6000E+01
    -23.263  0.0000E+00  0.0000E+00  0.6000E+01  0.6000E+01
    -23.131  0.0000E+00  0.0000E+00  0.6000E+01  0.6000E+01
    -22.999  0.0000E+00  0.0000E+00  0.6000E+01  0.6000E+01
    -22.867  0.0000E+00  0.0000E+00  0.6000E+01  0.6000E+01
    -22.735  0.0000E+00  0.0000E+00  0.6000E+01  0.6000E+01
    -22.603  0.0000E+00  0.0000E+00  0.6000E+01  0.6000E+01
    -22.471  0.0000E+00  0.0000E+00  0.6000E+01  0.6000E+01
    -22.339  0.0000E+00  0.0000E+00  0.6000E+01  0.6000E+01
    -22.207  0.0000E+00  0.0000E+00  0.6000E+01  0.6000E+01
    -22.075  0.0000E+00  0.0000E+00  0.6000E+01  0.6000E+01
    -21.943  0.0000E+00  0.0000E+00  0.6000E+01  0.6000E+01
    -21.811  0.0000E+00  0.0000E+00  0.6000E+01  0.6000E+01
    -21.679  0.0000E+00  0.0000E+00  0.6000E+01  0.6000E+01
    -21.547  0.0000E+00  0.0000E+00  0.6000E+01  0.6000E+01
    -21.415  0.0000E+00  0.0000E+00  0.6000E+01  0.6000E+01
    -21.283  0.0000E+00  0.0000E+00  0.6000E+01  0.6000E+01
    -21.151  0.0000E+00  0.0000E+00  0.6000E+01  0.6000E+01
    -21.019  0.0000E+00  0.0000E+00  0.6000E+01  0.6000E+01
    -20.887  0.0000E+00  0.0000E+00  0.6000E+01  0.6000E+01
    -20.755  0.0000E+00  0.0000E+00  0.6000E+01  0.6000E+01
    -20.623  0.0000E+00  0.0000E+00  0.6000E+01  0.6000E+01
    -20.491  0.0000E+00  0.0000E+00  0.6000E+01  0.6000E+01
    -20.359  0.0000E+00  0.0000E+00  0.6000E+01  0.6000E+01
    -20.227  0.0000E+00  0.0000E+00  0.6000E+01  0.6000E+01
    -20.095  0.0000E+00  0.0000E+00  0.6000E+01  0.6000E+01
    -19.963  0.0000E+00  0.0000E+00  0.6000E+01  0.6000E+01
    -19.831  0.0000E+00  0.0000E+00  0.6000E+01  0.6000E+01
    -19.699  0.0000E+00  0.0000E+00  0.6000E+01  0.6000E+01
    -19.567  0.0000E+00  0.0000E+00  0.6000E+01  0.6000E+01
    -19.435  0.0000E+00  0.0000E+00  0.6000E+01  0.6000E+01
    -19.303  0.0000E+00  0.0000E+00  0.6000E+01  0.6000E+01
    -19.171  0.0000E+00  0.0000E+00  0.6000E+01  0.6000E+01
    -19.039  0.0000E+00  0.0000E+00  0.6000E+01  0.6000E+01
    -18.907  0.0000E+00  0.0000E+00  0.6000E+01  0.6000E+01
    -18.775  0.0000E+00  0.0000E+00  0.6000E+01  0.6000E+01
    -18.643  0.0000E+00  0.0000E+00  0.6000E+01  0.6000E+01
    -18.511  0.0000E+00  0.0000E+00  0.6000E+01  0.6000E+01
    -18.379  0.0000E+00  0.0000E+00  0.6000E+01  0.6000E+01
    -18.247  0.0000E+00  0.0000E+00  0.6000E+01  0.6000E+01
    -18.115  0.0000E+00  0.0000E+00  0.6000E+01  0.6000E+01
    -17.983  0.0000E+00  0.0000E+00  0.6000E+01  0.6000E+01
    -17.851  0.0000E+00  0.0000E+00  0.6000E+01  0.6000E+01
    -17.719  0.0000E+00  0.0000E+00  0.6000E+01  0.6000E+01
    -17.587  0.0000E+00  0.0000E+00  0.6000E+01  0.6000E+01
    -17.455  0.0000E+00  0.0000E+00  0.6000E+01  0.6000E+01
    -17.323  0.0000E+00  0.0000E+00  0.6000E+01  0.6000E+01
    -17.191  0.0000E+00  0.0000E+00  0.6000E+01  0.6000E+01
    -17.059  0.0000E+00  0.0000E+00  0.6000E+01  0.6000E+01
    -16.927  0.0000E+00  0.0000E+00  0.6000E+01  0.6000E+01
    -16.795  0.0000E+00  0.0000E+00  0.6000E+01  0.6000E+01
    -16.663  0.0000E+00  0.0000E+00  0.6000E+01  0.6000E+01
    -16.531  0.0000E+00  0.0000E+00  0.6000E+01  0.6000E+01
    -16.399  0.0000E+00  0.0000E+00  0.6000E+01  0.6000E+01
    -16.267  0.0000E+00  0.0000E+00  0.6000E+01  0.6000E+01
    -16.135  0.0000E+00  0.0000E+00  0.6000E+01  0.6000E+01
    -16.003  0.0000E+00  0.0000E+00  0.6000E+01  0.6000E+01
    -15.871  0.0000E+00  0.0000E+00  0.6000E+01  0.6000E+01
    -15.739  0.0000E+00  0.0000E+00  0.6000E+01  0.6000E+01
    -15.607  0.0000E+00  0.0000E+00  0.6000E+01  0.6000E+01
    -15.474  0.0000E+00  0.0000E+00  0.6000E+01  0.6000E+01
    -15.342  0.0000E+00  0.0000E+00  0.6000E+01  0.6000E+01
    -15.210  0.0000E+00  0.0000E+00  0.6000E+01  0.6000E+01
    -15.078  0.0000E+00  0.0000E+00  0.6000E+01  0.6000E+01
    -14.946  0.0000E+00  0.0000E+00  0.6000E+01  0.6000E+01
    -14.814  0.0000E+00  0.0000E+00  0.6000E+01  0.6000E+01
    -14.682  0.0000E+00  0.0000E+00  0.6000E+01  0.6000E+01
    -14.550  0.0000E+00  0.0000E+00  0.6000E+01  0.6000E+01
    -14.418  0.0000E+00  0.0000E+00  0.6000E+01  0.6000E+01
    -14.286  0.0000E+00  0.0000E+00  0.6000E+01  0.6000E+01
    -14.154  0.0000E+00  0.0000E+00  0.6000E+01  0.6000E+01
    -14.022  0.0000E+00  0.0000E+00  0.6000E+01  0.6000E+01
    -13.890  0.0000E+00  0.0000E+00  0.6000E+01  0.6000E+01
    -13.758  0.0000E+00  0.0000E+00  0.6000E+01  0.6000E+01
    -13.626  0.0000E+00  0.0000E+00  0.6000E+01  0.6000E+01
    -13.494  0.0000E+00  0.0000E+00  0.6000E+01  0.6000E+01
    -13.362  0.0000E+00  0.0000E+00  0.6000E+01  0.6000E+01
    -13.230  0.0000E+00  0.0000E+00  0.6000E+01  0.6000E+01
    -13.098  0.0000E+00  0.0000E+00  0.6000E+01  0.6000E+01
    -12.966  0.0000E+00  0.0000E+00  0.6000E+01  0.6000E+01
    -12.834  0.0000E+00  0.0000E+00  0.6000E+01  0.6000E+01
    -12.702  0.0000E+00  0.0000E+00  0.6000E+01  0.6000E+01
    -12.570  0.0000E+00  0.0000E+00  0.6000E+01  0.6000E+01
    -12.438  0.0000E+00  0.0000E+00  0.6000E+01  0.6000E+01
    -12.306  0.0000E+00  0.0000E+00  0.6000E+01  0.6000E+01
    -12.174  0.0000E+00  0.0000E+00  0.6000E+01  0.6000E+01
    -12.042  0.0000E+00  0.0000E+00  0.6000E+01  0.6000E+01
    -11.910  0.0000E+00  0.0000E+00  0.6000E+01  0.6000E+01
    -11.778  0.0000E+00  0.0000E+00  0.6000E+01  0.6000E+01
    -11.646  0.0000E+00  0.0000E+00  0.6000E+01  0.6000E+01
    -11.514  0.0000E+00  0.0000E+00  0.6000E+01  0.6000E+01
    -11.382  0.0000E+00  0.0000E+00  0.6000E+01  0.6000E+01
    -11.250  0.0000E+00  0.0000E+00  0.6000E+01  0.6000E+01
    -11.118  0.0000E+00  0.0000E+00  0.6000E+01  0.6000E+01
    -10.986  0.0000E+00  0.0000E+00  0.6000E+01  0.6000E+01
    -10.854  0.0000E+00  0.0000E+00  0.6000E+01  0.6000E+01
    -10.722  0.0000E+00  0.0000E+00  0.6000E+01  0.6000E+01
    -10.590  0.0000E+00  0.0000E+00  0.6000E+01  0.6000E+01
    -10.458  0.0000E+00  0.0000E+00  0.6000E+01  0.6000E+01
    -10.326  0.0000E+00  0.0000E+00  0.6000E+01  0.6000E+01
    -10.194  0.0000E+00  0.0000E+00  0.6000E+01  0.6000E+01
    -10.062  0.0000E+00  0.0000E+00  0.6000E+01  0.6000E+01
     -9.930  0.0000E+00  0.0000E+00  0.6000E+01  0.6000E+01
     -9.798  0.0000E+00  0.0000E+00  0.6000E+01  0.6000E+01
     -9.666  0.0000E+00  0.0000E+00  0.6000E+01  0.6000E+01
     -9.534  0.0000E+00  0.0000E+00  0.6000E+01  0.6000E+01
     -9.402  0.0000E+00  0.0000E+00  0.6000E+01  0.6000E+01
     -9.270  0.0000E+00  0.0000E+00  0.6000E+01  0.6000E+01
     -9.138  0.0000E+00  0.0000E+00  0.6000E+01  0.6000E+01
     -9.006  0.0000E+00  0.0000E+00  0.6000E+01  0.6000E+01
     -8.874  0.0000E+00  0.0000E+00  0.6000E+01  0.6000E+01
     -8.742  0.0000E+00  0.0000E+00  0.6000E+01  0.6000E+01
     -8.610  0.0000E+00  0.0000E+00  0.6000E+01  0.6000E+01
     -8.478  0.0000E+00  0.0000E+00  0.6000E+01  0.6000E+01
     -8.346  0.0000E+00  0.0000E+00  0.6000E+01  0.6000E+01
     -8.214  0.0000E+00  0.0000E+00  0.6000E+01  0.6000E+01
     -8.082  0.0000E+00  0.0000E+00  0.6000E+01  0.6000E+01
     -7.950  0.0000E+00  0.0000E+00  0.6000E+01  0.6000E+01
     -7.818  0.0000E+00  0.0000E+00  0.6000E+01  0.6000E+01
     -7.686  0.0000E+00  0.0000E+00  0.6000E+01  0.6000E+01
     -7.554  0.0000E+00  0.0000E+00  0.6000E+01  0.6000E+01
     -7.422  0.0000E+00  0.0000E+00  0.6000E+01  0.6000E+01
     -7.290  0.0000E+00  0.0000E+00  0.6000E+01  0.6000E+01
     -7.158  0.0000E+00  0.0000E+00  0.6000E+01  0.6000E+01
     -7.026  0.0000E+00  0.0000E+00  0.6000E+01  0.6000E+01
     -6.894  0.0000E+00  0.0000E+00  0.6000E+01  0.6000E+01
     -6.762  0.0000E+00  0.0000E+00  0.6000E+01  0.6000E+01
     -6.630  0.0000E+00  0.0000E+00  0.6000E+01  0.6000E+01
     -6.498  0.0000E+00  0.0000E+00  0.6000E+01  0.6000E+01
     -6.366  0.0000E+00  0.0000E+00  0.6000E+01  0.6000E+01
     -6.234  0.0000E+00  0.0000E+00  0.6000E+01  0.6000E+01
     -6.102  0.0000E+00  0.0000E+00  0.6000E+01  0.6000E+01
     -5.970  0.0000E+00  0.0000E+00  0.6000E+01  0.6000E+01
     -5.838  0.0000E+00  0.0000E+00  0.6000E+01  0.6000E+01
     -5.706  0.0000E+00  0.0000E+00  0.6000E+01  0.6000E+01
     -5.574  0.0000E+00  0.0000E+00  0.6000E+01  0.6000E+01
     -5.442  0.0000E+00  0.0000E+00  0.6000E+01  0.6000E+01
     -5.310  0.0000E+00  0.0000E+00  0.6000E+01  0.6000E+01
     -5.178  0.0000E+00  0.0000E+00  0.6000E+01  0.6000E+01
     -5.046  0.0000E+00  0.0000E+00  0.6000E+01  0.6000E+01
     -4.914  0.0000E+00  0.0000E+00  0.6000E+01  0.6000E+01
     -4.782  0.0000E+00  0.0000E+00  0.6000E+01  0.6000E+01
     -4.650  0.0000E+00  0.0000E+00  0.6000E+01  0.6000E+01
     -4.518  0.0000E+00  0.0000E+00  0.6000E+01  0.6000E+01
     -4.386  0.0000E+00  0.0000E+00  0.6000E+01  0.6000E+01
     -4.254  0.0000E+00  0.0000E+00  0.6000E+01  0.6000E+01
     -4.122  0.0000E+00  0.0000E+00  0.6000E+01  0.6000E+01
     -3.990  0.0000E+00  0.0000E+00  0.6000E+01  0.6000E+01
     -3.858  0.0000E+00  0.0000E+00  0.6000E+01  0.6000E+01
     -3.726  0.4073E-06  0.4153E-06  0.6000E+01  0.6000E+01
     -3.594  0.9986E-05  0.1018E-04  0.6000E+01  0.6000E+01
     -3.462  0.1477E-03  0.1505E-03  0.6000E+01  0.6000E+01
     -3.329  0.1852E-02  0.1885E-02  0.6000E+01  0.6000E+01
     -3.197  0.1384E-01  0.1401E-01  0.6002E+01  0.6002E+01
     -3.065  0.4564E-01  0.4587E-01  0.6008E+01  0.6008E+01
     -2.933  0.5532E-01  0.5529E-01  0.6015E+01  0.6015E+01
     -2.801  0.8685E-01  0.8731E-01  0.6027E+01  0.6027E+01
     -2.669  0.1099E+00  0.1097E+00  0.6041E+01  0.6041E+01
     -2.537  0.8732E-01  0.8732E-01  0.6053E+01  0.6053E+01
     -2.405  0.1223E+00  0.1228E+00  0.6069E+01  0.6069E+01
     -2.273  0.1544E+00  0.1543E+00  0.6089E+01  0.6090E+01
     -2.141  0.1392E+00  0.1395E+00  0.6108E+01  0.6108E+01
     -2.009  0.1876E+00  0.1875E+00  0.6133E+01  0.6133E+01
     -1.877  0.1235E+00  0.1233E+00  0.6149E+01  0.6149E+01
     -1.745  0.1661E+00  0.1668E+00  0.6171E+01  0.6171E+01
     -1.613  0.2631E+00  0.2632E+00  0.6206E+01  0.6206E+01
     -1.481  0.2243E+00  0.2240E+00  0.6235E+01  0.6236E+01
     -1.349  0.1984E+00  0.1983E+00  0.6262E+01  0.6262E+01
     -1.217  0.2038E+00  0.2041E+00  0.6289E+01  0.6289E+01
     -1.085  0.2645E+00  0.2651E+00  0.6324E+01  0.6324E+01
     -0.953  0.2977E+00  0.2975E+00  0.6363E+01  0.6363E+01
     -0.821  0.2902E+00  0.2906E+00  0.6401E+01  0.6402E+01
     -0.689  0.3442E+00  0.3445E+00  0.6447E+01  0.6447E+01
     -0.557  0.3468E+00  0.3464E+00  0.6493E+01  0.6493E+01
     -0.425  0.3355E+00  0.3356E+00  0.6537E+01  0.6537E+01
     -0.293  0.2797E+00  0.2796E+00  0.6574E+01  0.6574E+01
     -0.161  0.4723E+00  0.4751E+00  0.6636E+01  0.6637E+01
     -0.029  0.6679E+00  0.6672E+00  0.6725E+01  0.6725E+01
      0.103  0.5689E+00  0.5689E+00  0.6800E+01  0.6800E+01
      0.235  0.5403E+00  0.5398E+00  0.6871E+01  0.6872E+01
      0.367  0.6528E+00  0.6553E+00  0.6958E+01  0.6959E+01
      0.499  0.8426E+00  0.8430E+00  0.7069E+01  0.7070E+01
      0.631  0.7510E+00  0.7495E+00  0.7168E+01  0.7169E+01
      0.763  0.6251E+00  0.6253E+00  0.7251E+01  0.7252E+01
      0.895  0.6514E+00  0.6518E+00  0.7337E+01  0.7338E+01
      1.027  0.7067E+00  0.7068E+00  0.7431E+01  0.7431E+01
      1.159  0.7188E+00  0.7202E+00  0.7526E+01  0.7527E+01
      1.291  0.7434E+00  0.7427E+00  0.7624E+01  0.7625E+01
      1.423  0.8171E+00  0.8182E+00  0.7732E+01  0.7733E+01
      1.555  0.7526E+00  0.7518E+00  0.7831E+01  0.7832E+01
      1.687  0.7773E+00  0.7798E+00  0.7934E+01  0.7935E+01
      1.819  0.1047E+01  0.1050E+01  0.8073E+01  0.8074E+01
      1.951  0.1257E+01  0.1261E+01  0.8239E+01  0.8241E+01
      2.083  0.1568E+01  0.1570E+01  0.8446E+01  0.8448E+01
      2.215  0.1820E+01  0.1822E+01  0.8686E+01  0.8689E+01
      2.347  0.1811E+01  0.1810E+01  0.8926E+01  0.8928E+01
      2.479  0.2037E+01  0.2038E+01  0.9195E+01  0.9198E+01
      2.611  0.1910E+01  0.1907E+01  0.9448E+01  0.9450E+01
      2.743  0.1424E+01  0.1421E+01  0.9636E+01  0.9638E+01
      2.875  0.1048E+01  0.1045E+01  0.9775E+01  0.9776E+01
      3.007  0.8646E+00  0.8651E+00  0.9890E+01  0.9891E+01
      3.139  0.9553E+00  0.9572E+00  0.1002E+02  0.1002E+02
      3.271  0.1171E+01  0.1176E+01  0.1017E+02  0.1017E+02
      3.403  0.1716E+01  0.1726E+01  0.1040E+02  0.1040E+02
      3.535  0.2443E+01  0.2448E+01  0.1072E+02  0.1072E+02
      3.667  0.2576E+01  0.2574E+01  0.1106E+02  0.1106E+02
      3.799  0.2305E+01  0.2299E+01  0.1137E+02  0.1137E+02
      3.931  0.1966E+01  0.1965E+01  0.1163E+02  0.1163E+02
      4.063  0.1932E+01  0.1930E+01  0.1188E+02  0.1188E+02
      4.195  0.1710E+01  0.1709E+01  0.1211E+02  0.1211E+02
      4.327  0.1893E+01  0.1896E+01  0.1236E+02  0.1236E+02
      4.459  0.1927E+01  0.1924E+01  0.1261E+02  0.1261E+02
      4.591  0.1560E+01  0.1553E+01  0.1282E+02  0.1282E+02
      4.723  0.1119E+01  0.1115E+01  0.1297E+02  0.1297E+02
      4.855  0.9667E+00  0.9662E+00  0.1309E+02  0.1310E+02
      4.987  0.8864E+00  0.8850E+00  0.1321E+02  0.1321E+02
      5.119  0.8996E+00  0.9017E+00  0.1333E+02  0.1333E+02
      5.251  0.9505E+00  0.9486E+00  0.1346E+02  0.1346E+02
      5.383  0.8032E+00  0.8040E+00  0.1356E+02  0.1356E+02
      5.515  0.9157E+00  0.9163E+00  0.1368E+02  0.1368E+02
      5.647  0.9459E+00  0.9464E+00  0.1381E+02  0.1381E+02
      5.779  0.8638E+00  0.8629E+00  0.1392E+02  0.1392E+02
      5.911  0.9769E+00  0.9794E+00  0.1405E+02  0.1405E+02
      6.043  0.1028E+01  0.1028E+01  0.1419E+02  0.1419E+02
      6.175  0.9387E+00  0.9360E+00  0.1431E+02  0.1431E+02
      6.307  0.1016E+01  0.1015E+01  0.1445E+02  0.1445E+02
      6.439  0.1219E+01  0.1223E+01  0.1461E+02  0.1461E+02
      6.571  0.1313E+01  0.1330E+01  0.1478E+02  0.1478E+02
      6.703  0.1770E+01  0.1766E+01  0.1501E+02  0.1502E+02
      6.835  0.1669E+01  0.1657E+01  0.1524E+02  0.1524E+02
      6.967  0.1270E+01  0.1246E+01  0.1540E+02  0.1540E+02
      7.099  0.1039E+01  0.1026E+01  0.1554E+02  0.1554E+02
      7.231  0.1166E+01  0.1212E+01  0.1570E+02  0.1570E+02
      7.363  0.1001E+01  0.1024E+01  0.1583E+02  0.1583E+02
      7.495  0.8315E+00  0.7547E+00  0.1594E+02  0.1593E+02
      7.627  0.4105E+00  0.4253E+00  0.1599E+02  0.1599E+02
      7.759  0.5281E-01  0.6804E-01  0.1600E+02  0.1600E+02
      7.891  0.1744E-02  0.4530E-02  0.1600E+02  0.1600E+02
      8.023  0.0000E+00  0.0000E+00  0.1600E+02  0.1600E+02
      8.155  0.0000E+00  0.0000E+00  0.1600E+02  0.1600E+02
      8.287  0.0000E+00  0.0000E+00  0.1600E+02  0.1600E+02
      8.419  0.0000E+00  0.0000E+00  0.1600E+02  0.1600E+02
      8.551  0.0000E+00  0.0000E+00  0.1600E+02  0.1600E+02
      8.683  0.0000E+00  0.0000E+00  0.1600E+02  0.1600E+02
      8.815  0.0000E+00  0.0000E+00  0.1600E+02  0.1600E+02
      8.948  0.0000E+00  0.0000E+00  0.1600E+02  0.1600E+02
      9.080  0.0000E+00  0.0000E+00  0.1600E+02  0.1600E+02
      9.212  0.0000E+00  0.0000E+00  0.1600E+02  0.1600E+02
      9.344  0.0000E+00  0.0000E+00  0.1600E+02  0.1600E+02
      9.34353825    -30.25970589  301      3.12240788      1.00000000
    -30.260  0.0000E+00  0.0000E+00  0.0000E+00  0.0000E+00  0.0000E+00  0.0000E+00  0.0000E+00  0.0000E+00  0.0000E+00  0.0000E+00  0.0000E+00  0.0000E+00  0.0000E+00  0.0000E+00  0.0000E+00  0.0000E+00  0.0000E+00  0.0000E+00
    -30.128  0.0000E+00  0.0000E+00  0.0000E+00  0.0000E+00  0.0000E+00  0.0000E+00  0.0000E+00  0.0000E+00  0.0000E+00  0.0000E+00  0.0000E+00  0.0000E+00  0.0000E+00  0.0000E+00  0.0000E+00  0.0000E+00  0.0000E+00  0.0000E+00
    -29.996  0.0000E+00  0.0000E+00  0.0000E+00  0.0000E+00  0.0000E+00  0.0000E+00  0.0000E+00  0.0000E+00  0.0000E+00  0.0000E+00  0.0000E+00  0.0000E+00  0.0000E+00  0.0000E+00  0.0000E+00  0.0000E+00  0.0000E+00  0.0000E+00
    -29.864  0.0000E+00  0.0000E+00  0.0000E+00  0.0000E+00  0.0000E+00  0.0000E+00  0.0000E+00  0.0000E+00  0.0000E+00  0.0000E+00  0.0000E+00  0.0000E+00  0.0000E+00  0.0000E+00  0.0000E+00  0.0000E+00  0.0000E+00  0.0000E+00
    -29.732  0.0000E+00  0.0000E+00  0.0000E+00  0.0000E+00  0.0000E+00  0.0000E+00  0.0000E+00  0.0000E+00  0.0000E+00  0.0000E+00  0.0000E+00  0.0000E+00  0.0000E+00  0.0000E+00  0.0000E+00  0.0000E+00  0.0000E+00  0.0000E+00
    -29.600  0.0000E+00  0.0000E+00  0.0000E+00  0.0000E+00  0.0000E+00  0.0000E+00  0.0000E+00  0.0000E+00  0.0000E+00  0.0000E+00  0.0000E+00  0.0000E+00  0.0000E+00  0.0000E+00  0.0000E+00  0.0000E+00  0.0000E+00  0.0000E+00
    -29.468  0.0000E+00  0.0000E+00  0.0000E+00  0.0000E+00  0.0000E+00  0.0000E+00  0.0000E+00  0.0000E+00  0.0000E+00  0.0000E+00  0.0000E+00  0.0000E+00  0.0000E+00  0.0000E+00  0.0000E+00  0.0000E+00  0.0000E+00  0.0000E+00
    -29.336  0.0000E+00  0.0000E+00  0.0000E+00  0.0000E+00  0.0000E+00  0.0000E+00  0.0000E+00  0.0000E+00  0.0000E+00  0.0000E+00  0.0000E+00  0.0000E+00  0.0000E+00  0.0000E+00  0.0000E+00  0.0000E+00  0.0000E+00  0.0000E+00
    -29.204  0.0000E+00  0.0000E+00  0.0000E+00  0.0000E+00  0.0000E+00  0.0000E+00  0.0000E+00  0.0000E+00  0.0000E+00  0.0000E+00  0.0000E+00  0.0000E+00  0.0000E+00  0.0000E+00  0.0000E+00  0.0000E+00  0.0000E+00  0.0000E+00
    -29.072  0.0000E+00  0.0000E+00  0.0000E+00  0.0000E+00  0.0000E+00  0.0000E+00  0.0000E+00  0.0000E+00  0.0000E+00  0.0000E+00  0.0000E+00  0.0000E+00  0.0000E+00  0.0000E+00  0.0000E+00  0.0000E+00  0.0000E+00  0.0000E+00
    -28.940  0.1673E-09  0.1808E-09  0.1397E-05  0.1902E-05  0.1374E-04  0.1468E-04  0.1397E-05  0.1902E-05  0.1034E-10  0.1562E-10  0.1225E-09  0.1279E-09  0.3707E-10  0.4279E-10  0.1225E-09  0.1279E-09  0.1034E-10  0.1562E-10
    -28.808  0.2629E-07  0.2718E-07  0.3084E-03  0.3178E-03  0.6514E-03  0.6725E-03  0.3084E-03  0.3178E-03  0.5807E-08  0.5986E-08  0.8702E-08  0.8985E-08  0.6447E-08  0.6677E-08  0.8702E-08  0.8985E-08  0.5807E-08  0.5986E-08
    -28.676  0.3572E-06  0.3671E-06  0.4588E-02  0.4719E-02  0.9057E-02  0.9343E-02  0.4588E-02  0.4719E-02  0.8557E-07  0.8801E-07  0.1240E-06  0.1279E-06  0.9806E-07  0.1008E-06  0.1240E-06  0.1279E-06  0.8557E-07  0.8801E-07
    -28.544  0.4831E-05  0.4962E-05  0.6171E-01  0.6342E-01  0.1202E+00  0.1238E+00  0.6171E-01  0.6342E-01  0.1152E-05  0.1184E-05  0.1660E-05  0.1710E-05  0.1323E-05  0.1360E-05  0.1660E-05  0.1710E-05  0.1152E-05  0.1184E-05
    -28.412  0.4792E-04  0.4882E-04  0.6168E+00  0.6293E+00  0.1040E+01  0.1060E+01  0.6168E+00  0.6293E+00  0.1153E-04  0.1176E-04  0.1566E-04  0.1599E-04  0.1388E-04  0.1418E-04  0.1566E-04  0.1599E-04  0.1153E-04  0.1176E-04
    -28.280  0.1419E-03  0.1420E-03  0.2284E+01  0.2303E+01  0.2632E+01  0.2644E+01  0.2284E+01  0.2303E+01  0.4085E-04  0.4115E-04  0.4957E-04  0.4989E-04  0.5795E-04  0.5846E-04  0.4957E-04  0.4989E-04  0.4085E-04  0.4115E-04
    -28.148  0.9012E-04  0.8883E-04  0.3216E+01  0.3207E+01  0.2712E+01  0.2697E+01  0.3216E+01  0.3207E+01  0.4783E-04  0.4756E-04  0.5276E-04  0.5241E-04  0.6519E-04  0.6472E-04  0.5276E-04  0.5241E-04  0.4783E-04  0.4756E-04
    -28.016  0.1664E-04  0.1621E-04  0.1128E+01  0.1106E+01  0.8326E+00  0.8135E+00  0.1128E+01  0.1106E+01  0.1341E-04  0.1312E-04  0.1440E-04  0.1407E-04  0.1597E-04  0.1560E-04  0.1440E-04  0.1407E-04  0.1341E-04  0.1312E-04
    -27.884  0.1096E-05  0.1040E-05  0.1107E+00  0.1075E+00  0.7586E-01  0.7340E-01  0.1107E+00  0.1075E+00  0.1197E-05  0.1159E-05  0.1242E-05  0.1202E-05  0.1317E-05  0.1276E-05  0.1242E-05  0.1202E-05  0.1197E-05  0.1159E-05
    -27.752  0.4667E-09  0.4617E-09  0.4992E-03  0.4856E-03  0.4222E-04  0.3006E-04  0.4992E-03  0.4856E-03  0.2317E-08  0.2252E-08  0.5626E-09  0.5466E-09  0.4242E-09  0.4097E-09  0.5626E-09  0.5466E-09  0.2317E-08  0.2252E-08
    -27.619  0.0000E+00  0.0000E+00  0.0000E+00  0.0000E+00  0.0000E+00  0.0000E+00  0.0000E+00  0.0000E+00  0.0000E+00  0.0000E+00  0.0000E+00  0.0000E+00  0.0000E+00  0.0000E+00  0.0000E+00  0.0000E+00  0.0000E+00  0.0000E+00
    -27.487  0.0000E+00  0.0000E+00  0.0000E+00  0.0000E+00  0.0000E+00  0.0000E+00  0.0000E+00  0.0000E+00  0.0000E+00  0.0000E+00  0.0000E+00  0.0000E+00  0.0000E+00  0.0000E+00  0.0000E+00  0.0000E+00  0.0000E+00  0.0000E+00
    -27.355  0.0000E+00  0.0000E+00  0.0000E+00  0.0000E+00  0.0000E+00  0.0000E+00  0.0000E+00  0.0000E+00  0.0000E+00  0.0000E+00  0.0000E+00  0.0000E+00  0.0000E+00  0.0000E+00  0.0000E+00  0.0000E+00  0.0000E+00  0.0000E+00
    -27.223  0.0000E+00  0.0000E+00  0.0000E+00  0.0000E+00  0.0000E+00  0.0000E+00  0.0000E+00  0.0000E+00  0.0000E+00  0.0000E+00  0.0000E+00  0.0000E+00  0.0000E+00  0.0000E+00  0.0000E+00  0.0000E+00  0.0000E+00  0.0000E+00
    -27.091  0.0000E+00  0.0000E+00  0.0000E+00  0.0000E+00  0.0000E+00  0.0000E+00  0.0000E+00  0.0000E+00  0.0000E+00  0.0000E+00  0.0000E+00  0.0000E+00  0.0000E+00  0.0000E+00  0.0000E+00  0.0000E+00  0.0000E+00  0.0000E+00
    -26.959  0.0000E+00  0.0000E+00  0.0000E+00  0.0000E+00  0.0000E+00  0.0000E+00  0.0000E+00  0.0000E+00  0.0000E+00  0.0000E+00  0.0000E+00  0.0000E+00  0.0000E+00  0.0000E+00  0.0000E+00  0.0000E+00  0.0000E+00  0.0000E+00
    -26.827  0.0000E+00  0.0000E+00  0.0000E+00  0.0000E+00  0.0000E+00  0.0000E+00  0.0000E+00  0.0000E+00  0.0000E+00  0.0000E+00  0.0000E+00  0.0000E+00  0.0000E+00  0.0000E+00  0.0000E+00  0.0000E+00  0.0000E+00  0.0000E+00
    -26.695  0.0000E+00  0.0000E+00  0.0000E+00  0.0000E+00  0.0000E+00  0.0000E+00  0.0000E+00  0.0000E+00  0.0000E+00  0.0000E+00  0.0000E+00  0.0000E+00  0.0000E+00  0.0000E+00  0.0000E+00  0.0000E+00  0.0000E+00  0.0000E+00
    -26.563  0.0000E+00  0.0000E+00  0.0000E+00  0.0000E+00  0.0000E+00  0.0000E+00  0.0000E+00  0.0000E+00  0.0000E+00  0.0000E+00  0.0000E+00  0.0000E+00  0.0000E+00  0.0000E+00  0.0000E+00  0.0000E+00  0.0000E+00  0.0000E+00
    -26.431  0.0000E+00  0.0000E+00  0.0000E+00  0.0000E+00  0.0000E+00  0.0000E+00  0.0000E+00  0.0000E+00  0.0000E+00  0.0000E+00  0.0000E+00  0.0000E+00  0.0000E+00  0.0000E+00  0.0000E+00  0.0000E+00  0.0000E+00  0.0000E+00
    -26.299  0.0000E+00  0.0000E+00  0.0000E+00  0.0000E+00  0.0000E+00  0.0000E+00  0.0000E+00  0.0000E+00  0.0000E+00  0.0000E+00  0.0000E+00  0.0000E+00  0.0000E+00  0.0000E+00  0.0000E+00  0.0000E+00  0.0000E+00  0.0000E+00
    -26.167  0.0000E+00  0.0000E+00  0.0000E+00  0.0000E+00  0.0000E+00  0.0000E+00  0.0000E+00  0.0000E+00  0.0000E+00  0.0000E+00  0.0000E+00  0.0000E+00  0.0000E+00  0.0000E+00  0.0000E+00  0.0000E+00  0.0000E+00  0.0000E+00
    -26.035  0.0000E+00  0.0000E+00  0.0000E+00  0.0000E+00  0.0000E+00  0.0000E+00  0.0000E+00  0.0000E+00  0.0000E+00  0.0000E+00  0.0000E+00  0.0000E+00  0.0000E+00  0.0000E+00  0.0000E+00  0.0000E+00  0.0000E+00  0.0000E+00
    -25.903  0.0000E+00  0.0000E+00  0.0000E+00  0.0000E+00  0.0000E+00  0.0000E+00  0.0000E+00  0.0000E+00  0.0000E+00  0.0000E+00  0.0000E+00  0.0000E+00  0.0000E+00  0.0000E+00  0.0000E+00  0.0000E+00  0.0000E+00  0.0000E+00
    -25.771  0.0000E+00  0.0000E+00  0.0000E+00  0.0000E+00  0.0000E+00  0.0000E+00  0.0000E+00  0.0000E+00  0.0000E+00  0.0000E+00  0.0000E+00  0.0000E+00  0.0000E+00  0.0000E+00  0.0000E+00  0.0000E+00  0.0000E+00  0.0000E+00
    -25.639  0.0000E+00  0.0000E+00  0.0000E+00  0.0000E+00  0.0000E+00  0.0000E+00  0.0000E+00  0.0000E+00  0.0000E+00  0.0000E+00  0.0000E+00  0.0000E+00  0.0000E+00  0.0000E+00  0.0000E+00  0.0000E+00  0.0000E+00  0.0000E+00
    -25.507  0.0000E+00  0.0000E+00  0.0000E+00  0.0000E+00  0.0000E+00  0.0000E+00  0.0000E+00  0.0000E+00  0.0000E+00  0.0000E+00  0.0000E+00  0.0000E+00  0.0000E+00  0.0000E+00  0.0000E+00  0.0000E+00  0.0000E+00  0.0000E+00
    -25.375  0.0000E+00  0.0000E+00  0.0000E+00  0.0000E+00  0.0000E+00  0.0000E+00  0.0000E+00  0.0000E+00  0.0000E+00  0.0000E+00  0.0000E+00  0.0000E+00  0.0000E+00  0.0000E+00  0.0000E+00  0.0000E+00  0.0000E+00  0.0000E+00
    -25.243  0.0000E+00  0.0000E+00  0.0000E+00  0.0000E+00  0.0000E+00  0.0000E+00  0.0000E+00  0.0000E+00  0.0000E+00  0.0000E+00  0.0000E+00  0.0000E+00  0.0000E+00  0.0000E+00  0.0000E+00  0.0000E+00  0.0000E+00  0.0000E+00
    -25.111  0.0000E+00  0.0000E+00  0.0000E+00  0.0000E+00  0.0000E+00  0.0000E+00  0.0000E+00  0.0000E+00  0.0000E+00  0.0000E+00  0.0000E+00  0.0000E+00  0.0000E+00  0.0000E+00  0.0000E+00  0.0000E+00  0.0000E+00  0.0000E+00
    -24.979  0.0000E+00  0.0000E+00  0.0000E+00  0.0000E+00  0.0000E+00  0.0000E+00  0.0000E+00  0.0000E+00  0.0000E+00  0.0000E+00  0.0000E+00  0.0000E+00  0.0000E+00  0.0000E+00  0.0000E+00  0.0000E+00  0.0000E+00  0.0000E+00
    -24.847  0.0000E+00  0.0000E+00  0.0000E+00  0.0000E+00  0.0000E+00  0.0000E+00  0.0000E+00  0.0000E+00  0.0000E+00  0.0000E+00  0.0000E+00  0.0000E+00  0.0000E+00  0.0000E+00  0.0000E+00  0.0000E+00  0.0000E+00  0.0000E+00
    -24.715  0.0000E+00  0.0000E+00  0.0000E+00  0.0000E+00  0.0000E+00  0.0000E+00  0.0000E+00  0.0000E+00  0.0000E+00  0.0000E+00  0.0000E+00  0.0000E+00  0.0000E+00  0.0000E+00  0.0000E+00  0.0000E+00  0.0000E+00  0.0000E+00
    -24.583  0.0000E+00  0.0000E+00  0.0000E+00  0.0000E+00  0.0000E+00  0.0000E+00  0.0000E+00  0.0000E+00  0.0000E+00  0.0000E+00  0.0000E+00  0.0000E+00  0.0000E+00  0.0000E+00  0.0000E+00  0.0000E+00  0.0000E+00  0.0000E+00
    -24.451  0.0000E+00  0.0000E+00  0.0000E+00  0.0000E+00  0.0000E+00  0.0000E+00  0.0000E+00  0.0000E+00  0.0000E+00  0.0000E+00  0.0000E+00  0.0000E+00  0.0000E+00  0.0000E+00  0.0000E+00  0.0000E+00  0.0000E+00  0.0000E+00
    -24.319  0.0000E+00  0.0000E+00  0.0000E+00  0.0000E+00  0.0000E+00  0.0000E+00  0.0000E+00  0.0000E+00  0.0000E+00  0.0000E+00  0.0000E+00  0.0000E+00  0.0000E+00  0.0000E+00  0.0000E+00  0.0000E+00  0.0000E+00  0.0000E+00
    -24.187  0.0000E+00  0.0000E+00  0.0000E+00  0.0000E+00  0.0000E+00  0.0000E+00  0.0000E+00  0.0000E+00  0.0000E+00  0.0000E+00  0.0000E+00  0.0000E+00  0.0000E+00  0.0000E+00  0.0000E+00  0.0000E+00  0.0000E+00  0.0000E+00
    -24.055  0.0000E+00  0.0000E+00  0.0000E+00  0.0000E+00  0.0000E+00  0.0000E+00  0.0000E+00  0.0000E+00  0.0000E+00  0.0000E+00  0.0000E+00  0.0000E+00  0.0000E+00  0.0000E+00  0.0000E+00  0.0000E+00  0.0000E+00  0.0000E+00
    -23.923  0.0000E+00  0.0000E+00  0.0000E+00  0.0000E+00  0.0000E+00  0.0000E+00  0.0000E+00  0.0000E+00  0.0000E+00  0.0000E+00  0.0000E+00  0.0000E+00  0.0000E+00  0.0000E+00  0.0000E+00  0.0000E+00  0.0000E+00  0.0000E+00
    -23.791  0.0000E+00  0.0000E+00  0.0000E+00  0.0000E+00  0.0000E+00  0.0000E+00  0.0000E+00  0.0000E+00  0.0000E+00  0.0000E+00  0.0000E+00  0.0000E+00  0.0000E+00  0.0000E+00  0.0000E+00  0.0000E+00  0.0000E+00  0.0000E+00
    -23.659  0.0000E+00  0.0000E+00  0.0000E+00  0.0000E+00  0.0000E+00  0.0000E+00  0.0000E+00  0.0000E+00  0.0000E+00  0.0000E+00  0.0000E+00  0.0000E+00  0.0000E+00  0.0000E+00  0.0000E+00  0.0000E+00  0.0000E+00  0.0000E+00