   2   2   1   0
  0.2049090E+02  0.3103241E-09  0.3103240E-09  0.4913937E-09  0.5000000E-15
  1.000000000000000E-004
  CAR 
 unknown system                          
     14.44196037    -27.39255474  301      5.56301173      1.00000000
    -27.393  0.0000E+00  0.0000E+00  0.0000E+00  0.0000E+00
    -27.253  0.0000E+00  0.0000E+00  0.0000E+00  0.0000E+00
    -27.114  0.0000E+00  0.0000E+00  0.0000E+00  0.0000E+00
    -26.974  0.0000E+00  0.0000E+00  0.0000E+00  0.0000E+00
    -26.835  0.0000E+00  0.0000E+00  0.0000E+00  0.0000E+00
    -26.695  0.0000E+00  0.0000E+00  0.0000E+00  0.0000E+00
    -26.556  0.0000E+00  0.0000E+00  0.0000E+00  0.0000E+00
    -26.416  0.0000E+00  0.0000E+00  0.0000E+00  0.0000E+00
    -26.277  0.0000E+00  0.0000E+00  0.0000E+00  0.0000E+00
    -26.138  0.0000E+00  0.0000E+00  0.0000E+00  0.0000E+00
    -25.998  0.9104E-06  0.1123E-05  0.1269E-06  0.1565E-06
    -25.859  0.9070E-04  0.9328E-04  0.1278E-04  0.1316E-04
    -25.719  0.1944E-02  0.1978E-02  0.2839E-03  0.2890E-03
    -25.580  0.3056E-01  0.3108E-01  0.4545E-02  0.4623E-02
    -25.440  0.3773E+00  0.3825E+00  0.5715E-01  0.5796E-01
    -25.301  0.2325E+01  0.2344E+01  0.3813E+00  0.3848E+00
    -25.161  0.4854E+01  0.4859E+01  0.1058E+01  0.1062E+01
    -25.022  0.4125E+01  0.4119E+01  0.1634E+01  0.1637E+01
    -24.882  0.3896E+01  0.3900E+01  0.2178E+01  0.2181E+01
    -24.743  0.5147E+01  0.5160E+01  0.2897E+01  0.2902E+01
    -24.604  0.7584E+01  0.7601E+01  0.3955E+01  0.3963E+01
    -24.464  0.9005E+01  0.8998E+01  0.5212E+01  0.5219E+01
    -24.325  0.4759E+01  0.4722E+01  0.5877E+01  0.5879E+01
    -24.185  0.8025E+00  0.7898E+00  0.5991E+01  0.5991E+01
    -24.046  0.4359E-01  0.4253E-01  0.6000E+01  0.6000E+01
    -23.906  0.0000E+00  0.0000E+00  0.6000E+01  0.6000E+01
    -23.767  0.0000E+00  0.0000E+00  0.6000E+01  0.6000E+01
    -23.627  0.0000E+00  0.0000E+00  0.6000E+01  0.6000E+01
    -23.488  0.0000E+00  0.0000E+00  0.6000E+01  0.6000E+01
    -23.349  0.0000E+00  0.0000E+00  0.6000E+01  0.6000E+01
    -23.209  0.0000E+00  0.0000E+00  0.6000E+01  0.6000E+01
    -23.070  0.0000E+00  0.0000E+00  0.6000E+01  0.6000E+01
    -22.930  0.0000E+00  0.0000E+00  0.6000E+01  0.6000E+01
    -22.791  0.0000E+00  0.0000E+00  0.6000E+01  0.6000E+01
    -22.651  0.0000E+00  0.0000E+00  0.6000E+01  0.6000E+01
    -22.512  0.0000E+00  0.0000E+00  0.6000E+01  0.6000E+01
    -22.372  0.0000E+00  0.0000E+00  0.6000E+01  0.6000E+01
    -22.233  0.0000E+00  0.0000E+00  0.6000E+01  0.6000E+01
    -22.094  0.0000E+00  0.0000E+00  0.6000E+01  0.6000E+01
    -21.954  0.0000E+00  0.0000E+00  0.6000E+01  0.6000E+01
    -21.815  0.0000E+00  0.0000E+00  0.6000E+01  0.6000E+01
    -21.675  0.0000E+00  0.0000E+00  0.6000E+01  0.6000E+01
    -21.536  0.0000E+00  0.0000E+00  0.6000E+01  0.6000E+01
    -21.396  0.0000E+00  0.0000E+00  0.6000E+01  0.6000E+01
    -21.257  0.0000E+00  0.0000E+00  0.6000E+01  0.6000E+01
    -21.117  0.0000E+00  0.0000E+00  0.6000E+01  0.6000E+01
    -20.978  0.0000E+00  0.0000E+00  0.6000E+01  0.6000E+01
    -20.838  0.0000E+00  0.0000E+00  0.6000E+01  0.6000E+01
    -20.699  0.0000E+00  0.0000E+00  0.6000E+01  0.6000E+01
    -20.560  0.0000E+00  0.0000E+00  0.6000E+01  0.6000E+01
    -20.420  0.0000E+00  0.0000E+00  0.6000E+01  0.6000E+01
    -20.281  0.0000E+00  0.0000E+00  0.6000E+01  0.6000E+01
    -20.141  0.0000E+00  0.0000E+00  0.6000E+01  0.6000E+01
    -20.002  0.0000E+00  0.0000E+00  0.6000E+01  0.6000E+01
    -19.862  0.0000E+00  0.0000E+00  0.6000E+01  0.6000E+01
    -19.723  0.0000E+00  0.0000E+00  0.6000E+01  0.6000E+01
    -19.583  0.0000E+00  0.0000E+00  0.6000E+01  0.6000E+01
    -19.444  0.0000E+00  0.0000E+00  0.6000E+01  0.6000E+01
    -19.305  0.0000E+00  0.0000E+00  0.6000E+01  0.6000E+01
    -19.165  0.0000E+00  0.0000E+00  0.6000E+01  0.6000E+01
    -19.026  0.0000E+00  0.0000E+00  0.6000E+01  0.6000E+01
    -18.886  0.0000E+00  0.0000E+00  0.6000E+01  0.6000E+01
    -18.747  0.0000E+00  0.0000E+00  0.6000E+01  0.6000E+01
    -18.607  0.0000E+00  0.0000E+00  0.6000E+01  0.6000E+01
    -18.468  0.0000E+00  0.0000E+00  0.6000E+01  0.6000E+01
    -18.328  0.0000E+00  0.0000E+00  0.6000E+01  0.6000E+01
    -18.189  0.0000E+00  0.0000E+00  0.6000E+01  0.6000E+01
    -18.050  0.0000E+00  0.0000E+00  0.6000E+01  0.6000E+01
    -17.910  0.0000E+00  0.0000E+00  0.6000E+01  0.6000E+01
    -17.771  0.0000E+00  0.0000E+00  0.6000E+01  0.6000E+01
    -17.631  0.0000E+00  0.0000E+00  0.6000E+01  0.6000E+01
    -17.492  0.0000E+00  0.0000E+00  0.6000E+01  0.6000E+01
    -17.352  0.0000E+00  0.0000E+00  0.6000E+01  0.6000E+01
    -17.213  0.0000E+00  0.0000E+00  0.6000E+01  0.6000E+01
    -17.073  0.0000E+00  0.0000E+00  0.6000E+01  0.6000E+01
    -16.934  0.0000E+00  0.0000E+00  0.6000E+01  0.6000E+01
    -16.794  0.0000E+00  0.0000E+00  0.6000E+01  0.6000E+01
    -16.655  0.0000E+00  0.0000E+00  0.6000E+01  0.6000E+01
    -16.516  0.0000E+00  0.0000E+00  0.6000E+01  0.6000E+01
    -16.376  0.0000E+00  0.0000E+00  0.6000E+01  0.6000E+01
    -16.237  0.0000E+00  0.0000E+00  0.6000E+01  0.6000E+01
    -16.097  0.0000E+00  0.0000E+00  0.6000E+01  0.6000E+01
    -15.958  0.0000E+00  0.0000E+00  0.6000E+01  0.6000E+01
    -15.818  0.0000E+00  0.0000E+00  0.6000E+01  0.6000E+01
    -15.679  0.0000E+00  0.0000E+00  0.6000E+01  0.6000E+01
    -15.539  0.0000E+00  0.0000E+00  0.6000E+01  0.6000E+01
    -15.400  0.0000E+00  0.0000E+00  0.6000E+01  0.6000E+01
    -15.261  0.0000E+00  0.0000E+00  0.6000E+01  0.6000E+01
    -15.121  0.0000E+00  0.0000E+00  0.6000E+01  0.6000E+01
    -14.982  0.0000E+00  0.0000E+00  0.6000E+01  0.6000E+01
    -14.842  0.0000E+00  0.0000E+00  0.6000E+01  0.6000E+01
    -14.703  0.0000E+00  0.0000E+00  0.6000E+01  0.6000E+01
    -14.563  0.0000E+00  0.0000E+00  0.6000E+01  0.6000E+01
    -14.424  0.0000E+00  0.0000E+00  0.6000E+01  0.6000E+01
    -14.284  0.0000E+00  0.0000E+00  0.6000E+01  0.6000E+01
    -14.145  0.0000E+00  0.0000E+00  0.6000E+01  0.6000E+01
    -14.006  0.0000E+00  0.0000E+00  0.6000E+01  0.6000E+01
    -13.866  0.0000E+00  0.0000E+00  0.6000E+01  0.6000E+01
    -13.727  0.0000E+00  0.0000E+00  0.6000E+01  0.6000E+01
    -13.587  0.0000E+00  0.0000E+00  0.6000E+01  0.6000E+01
    -13.448  0.0000E+00  0.0000E+00  0.6000E+01  0.6000E+01
    -13.308  0.0000E+00  0.0000E+00  0.6000E+01  0.6000E+01
    -13.169  0.0000E+00  0.0000E+00  0.6000E+01  0.6000E+01
    -13.029  0.0000E+00  0.0000E+00  0.6000E+01  0.6000E+01
    -12.890  0.0000E+00  0.0000E+00  0.6000E+01  0.6000E+01
    -12.750  0.0000E+00  0.0000E+00  0.6000E+01  0.6000E+01
    -12.611  0.0000E+00  0.0000E+00  0.6000E+01  0.6000E+01
    -12.472  0.0000E+00  0.0000E+00  0.6000E+01  0.6000E+01
    -12.332  0.0000E+00  0.0000E+00  0.6000E+01  0.6000E+01
    -12.193  0.0000E+00  0.0000E+00  0.6000E+01  0.6000E+01
    -12.053  0.0000E+00  0.0000E+00  0.6000E+01  0.6000E+01
    -11.914  0.0000E+00  0.0000E+00  0.6000E+01  0.6000E+01
    -11.774  0.0000E+00  0.0000E+00  0.6000E+01  0.6000E+01
    -11.635  0.0000E+00  0.0000E+00  0.6000E+01  0.6000E+01
    -11.495  0.0000E+00  0.0000E+00  0.6000E+01  0.6000E+01
    -11.356  0.0000E+00  0.0000E+00  0.6000E+01  0.6000E+01
    -11.217  0.0000E+00  0.0000E+00  0.6000E+01  0.6000E+01
    -11.077  0.0000E+00  0.0000E+00  0.6000E+01  0.6000E+01
    -10.938  0.0000E+00  0.0000E+00  0.6000E+01  0.6000E+01
    -10.798  0.0000E+00  0.0000E+00  0.6000E+01  0.6000E+01
    -10.659  0.0000E+00  0.0000E+00  0.6000E+01  0.6000E+01
    -10.519  0.0000E+00  0.0000E+00  0.6000E+01  0.6000E+01
    -10.380  0.0000E+00  0.0000E+00  0.6000E+01  0.6000E+01
    -10.240  0.0000E+00  0.0000E+00  0.6000E+01  0.6000E+01
    -10.101  0.0000E+00  0.0000E+00  0.6000E+01  0.6000E+01
     -9.962  0.0000E+00  0.0000E+00  0.6000E+01  0.6000E+01
     -9.822  0.0000E+00  0.0000E+00  0.6000E+01  0.6000E+01
     -9.683  0.0000E+00  0.0000E+00  0.6000E+01  0.6000E+01
     -9.543  0.0000E+00  0.0000E+00  0.6000E+01  0.6000E+01
     -9.404  0.0000E+00  0.0000E+00  0.6000E+01  0.6000E+01
     -9.264  0.0000E+00  0.0000E+00  0.6000E+01  0.6000E+01
     -9.125  0.0000E+00  0.0000E+00  0.6000E+01  0.6000E+01
     -8.985  0.0000E+00  0.0000E+00  0.6000E+01  0.6000E+01
     -8.846  0.0000E+00  0.0000E+00  0.6000E+01  0.6000E+01
     -8.706  0.0000E+00  0.0000E+00  0.6000E+01  0.6000E+01
     -8.567  0.0000E+00  0.0000E+00  0.6000E+01  0.6000E+01
     -8.428  0.0000E+00  0.0000E+00  0.6000E+01  0.6000E+01
     -8.288  0.0000E+00  0.0000E+00  0.6000E+01  0.6000E+01
     -8.149  0.0000E+00  0.0000E+00  0.6000E+01  0.6000E+01
     -8.009  0.0000E+00  0.0000E+00  0.6000E+01  0.6000E+01
     -7.870  0.0000E+00  0.0000E+00  0.6000E+01  0.6000E+01
     -7.730  0.0000E+00  0.0000E+00  0.6000E+01  0.6000E+01
     -7.591  0.0000E+00  0.0000E+00  0.6000E+01  0.6000E+01
     -7.451  0.0000E+00  0.0000E+00  0.6000E+01  0.6000E+01
     -7.312  0.0000E+00  0.0000E+00  0.6000E+01  0.6000E+01
     -7.173  0.0000E+00  0.0000E+00  0.6000E+01  0.6000E+01
     -7.033  0.0000E+00  0.0000E+00  0.6000E+01  0.6000E+01
     -6.894  0.0000E+00  0.0000E+00  0.6000E+01  0.6000E+01
     -6.754  0.0000E+00  0.0000E+00  0.6000E+01  0.6000E+01
     -6.615  0.0000E+00  0.0000E+00  0.6000E+01  0.6000E+01
     -6.475  0.0000E+00  0.0000E+00  0.6000E+01  0.6000E+01
     -6.336  0.0000E+00  0.0000E+00  0.6000E+01  0.6000E+01
     -6.196  0.0000E+00  0.0000E+00  0.6000E+01  0.6000E+01
     -6.057  0.0000E+00  0.0000E+00  0.6000E+01  0.6000E+01
     -5.918  0.0000E+00  0.0000E+00  0.6000E+01  0.6000E+01
     -5.778  0.0000E+00  0.0000E+00  0.6000E+01  0.6000E+01
     -5.639  0.0000E+00  0.0000E+00  0.6000E+01  0.6000E+01
     -5.499  0.0000E+00  0.0000E+00  0.6000E+01  0.6000E+01
     -5.360  0.0000E+00  0.0000E+00  0.6000E+01  0.6000E+01
     -5.220  0.0000E+00  0.0000E+00  0.6000E+01  0.6000E+01
     -5.081  0.0000E+00  0.0000E+00  0.6000E+01  0.6000E+01
     -4.941  0.0000E+00  0.0000E+00  0.6000E+01  0.6000E+01
     -4.802  0.0000E+00  0.0000E+00  0.6000E+01  0.6000E+01
     -4.662  0.0000E+00  0.0000E+00  0.6000E+01  0.6000E+01
     -4.523  0.0000E+00  0.0000E+00  0.6000E+01  0.6000E+01
     -4.384  0.0000E+00  0.0000E+00  0.6000E+01  0.6000E+01
     -4.244  0.0000E+00  0.0000E+00  0.6000E+01  0.6000E+01
     -4.105  0.0000E+00  0.0000E+00  0.6000E+01  0.6000E+01
     -3.965  0.0000E+00  0.0000E+00  0.6000E+01  0.6000E+01
     -3.826  0.0000E+00  0.0000E+00  0.6000E+01  0.6000E+01
     -3.686  0.0000E+00  0.0000E+00  0.6000E+01  0.6000E+01
     -3.547  0.0000E+00  0.0000E+00  0.6000E+01  0.6000E+01
     -3.407  0.0000E+00  0.0000E+00  0.6000E+01  0.6000E+01
     -3.268  0.0000E+00  0.0000E+00  0.6000E+01  0.6000E+01
     -3.129  0.0000E+00  0.0000E+00  0.6000E+01  0.6000E+01
     -2.989  0.0000E+00  0.0000E+00  0.6000E+01  0.6000E+01
     -2.850  0.0000E+00  0.0000E+00  0.6000E+01  0.6000E+01
     -2.710  0.0000E+00  0.0000E+00  0.6000E+01  0.6000E+01
     -2.571  0.6574E-06  0.6710E-06  0.6000E+01  0.6000E+01
     -2.431  0.1289E-04  0.1316E-04  0.6000E+01  0.6000E+01
     -2.292  0.2041E-03  0.2082E-03  0.6000E+01  0.6000E+01
     -2.152  0.2340E-02  0.2375E-02  0.6000E+01  0.6000E+01
     -2.013  0.1099E-01  0.1110E-01  0.6002E+01  0.6002E+01
     -1.874  0.3220E-01  0.3237E-01  0.6006E+01  0.6006E+01
     -1.734  0.4323E-01  0.4315E-01  0.6012E+01  0.6012E+01
     -1.595  0.2743E-01  0.2746E-01  0.6016E+01  0.6016E+01
     -1.455  0.6415E-01  0.6461E-01  0.6025E+01  0.6025E+01
     -1.316  0.8960E-01  0.8939E-01  0.6038E+01  0.6038E+01
     -1.176  0.5920E-01  0.5907E-01  0.6046E+01  0.6046E+01
     -1.037  0.5609E-01  0.5618E-01  0.6054E+01  0.6054E+01
     -0.897  0.8063E-01  0.8105E-01  0.6065E+01  0.6065E+01
     -0.758  0.1212E+00  0.1212E+00  0.6082E+01  0.6082E+01
     -0.618  0.9561E-01  0.9527E-01  0.6095E+01  0.6095E+01
     -0.479  0.9956E-01  0.1001E+00  0.6109E+01  0.6109E+01
     -0.340  0.1648E+00  0.1647E+00  0.6132E+01  0.6132E+01
     -0.200  0.8545E-01  0.8503E-01  0.6144E+01  0.6144E+01
     -0.061  0.8556E-01  0.8566E-01  0.6156E+01  0.6156E+01
      0.079  0.1452E+00  0.1463E+00  0.6176E+01  0.6177E+01
      0.218  0.2275E+00  0.2273E+00  0.6208E+01  0.6208E+01
      0.358  0.1856E+00  0.1855E+00  0.6234E+01  0.6234E+01
      0.497  0.1749E+00  0.1747E+00  0.6259E+01  0.6259E+01
      0.637  0.1394E+00  0.1392E+00  0.6278E+01  0.6278E+01
      0.776  0.1928E+00  0.1935E+00  0.6305E+01  0.6305E+01
      0.915  0.2156E+00  0.2156E+00  0.6335E+01  0.6335E+01
      1.055  0.2770E+00  0.2778E+00  0.6374E+01  0.6374E+01
      1.194  0.3311E+00  0.3311E+00  0.6420E+01  0.6420E+01
      1.334  0.3467E+00  0.3470E+00  0.6468E+01  0.6469E+01
      1.473  0.4540E+00  0.4542E+00  0.6532E+01  0.6532E+01
      1.613  0.4141E+00  0.4137E+00  0.6590E+01  0.6590E+01
      1.752  0.5957E+00  0.5968E+00  0.6673E+01  0.6673E+01
      1.892  0.7622E+00  0.7637E+00  0.6779E+01  0.6780E+01
      2.031  0.7955E+00  0.7946E+00  0.6890E+01  0.6891E+01
      2.171  0.7610E+00  0.7607E+00  0.6996E+01  0.6997E+01
      2.310  0.6035E+00  0.6023E+00  0.7081E+01  0.7081E+01
      2.449  0.4987E+00  0.4992E+00  0.7151E+01  0.7151E+01
      2.589  0.7890E+00  0.7905E+00  0.7261E+01  0.7261E+01
      2.728  0.9698E+00  0.9702E+00  0.7396E+01  0.7397E+01
      2.868  0.9237E+00  0.9223E+00  0.7525E+01  0.7526E+01
      3.007  0.6764E+00  0.6757E+00  0.7620E+01  0.7620E+01
      3.147  0.9328E+00  0.9337E+00  0.7750E+01  0.7751E+01
      3.286  0.9471E+00  0.9467E+00  0.7882E+01  0.7883E+01
      3.426  0.9395E+00  0.9393E+00  0.8013E+01  0.8014E+01
      3.565  0.5934E+00  0.5925E+00  0.8096E+01  0.8097E+01
      3.704  0.6836E+00  0.6846E+00  0.8192E+01  0.8192E+01
      3.844  0.7102E+00  0.7103E+00  0.8291E+01  0.8292E+01
      3.983  0.9137E+00  0.9150E+00  0.8419E+01  0.8419E+01
      4.123  0.1117E+01  0.1118E+01  0.8575E+01  0.8576E+01
      4.262  0.1047E+01  0.1047E+01  0.8721E+01  0.8722E+01
      4.402  0.1131E+01  0.1132E+01  0.8879E+01  0.8880E+01
      4.541  0.1427E+01  0.1427E+01  0.9078E+01  0.9079E+01
      4.681  0.1347E+01  0.1348E+01  0.9266E+01  0.9267E+01
      4.820  0.1554E+01  0.1554E+01  0.9483E+01  0.9484E+01
      4.959  0.1241E+01  0.1239E+01  0.9657E+01  0.9657E+01
      5.099  0.6607E+00  0.6589E+00  0.9749E+01  0.9750E+01
      5.238  0.4590E+00  0.4593E+00  0.9814E+01  0.9814E+01
      5.378  0.5220E+00  0.5223E+00  0.9887E+01  0.9887E+01
      5.517  0.5728E+00  0.5740E+00  0.9967E+01  0.9967E+01
      5.657  0.8050E+00  0.8057E+00  0.1008E+02  0.1008E+02
      5.796  0.1206E+01  0.1208E+01  0.1025E+02  0.1025E+02
      5.936  0.1553E+01  0.1554E+01  0.1046E+02  0.1046E+02
      6.075  0.1522E+01  0.1521E+01  0.1068E+02  0.1068E+02
      6.215  0.1346E+01  0.1345E+01  0.1086E+02  0.1087E+02
      6.354  0.1579E+01  0.1579E+01  0.1109E+02  0.1109E+02
      6.493  0.1392E+01  0.1391E+01  0.1128E+02  0.1128E+02
      6.633  0.1364E+01  0.1364E+01  0.1147E+02  0.1147E+02
      6.772  0.1583E+01  0.1583E+01  0.1169E+02  0.1169E+02
      6.912  0.1420E+01  0.1419E+01  0.1189E+02  0.1189E+02
      7.051  0.1483E+01  0.1482E+01  0.1210E+02  0.1210E+02
      7.191  0.1422E+01  0.1421E+01  0.1230E+02  0.1230E+02
      7.330  0.1469E+01  0.1469E+01  0.1250E+02  0.1250E+02
      7.470  0.1335E+01  0.1334E+01  0.1269E+02  0.1269E+02
      7.609  0.9019E+00  0.9015E+00  0.1281E+02  0.1281E+02
      7.748  0.8562E+00  0.8561E+00  0.1293E+02  0.1293E+02
      7.888  0.7186E+00  0.7173E+00  0.1303E+02  0.1303E+02
      8.027  0.5662E+00  0.5662E+00  0.1311E+02  0.1311E+02
      8.167  0.5590E+00  0.5589E+00  0.1319E+02  0.1319E+02
      8.306  0.6226E+00  0.6223E+00  0.1328E+02  0.1328E+02
      8.446  0.6485E+00  0.6481E+00  0.1337E+02  0.1337E+02
      8.585  0.5925E+00  0.5930E+00  0.1345E+02  0.1345E+02
      8.725  0.3718E+00  0.3720E+00  0.1350E+02  0.1350E+02
      8.864  0.5251E+00  0.5244E+00  0.1358E+02  0.1358E+02
      9.003  0.6094E+00  0.6093E+00  0.1366E+02  0.1366E+02
      9.143  0.6187E+00  0.6186E+00  0.1375E+02  0.1375E+02
      9.282  0.6718E+00  0.6721E+00  0.1384E+02  0.1384E+02
      9.422  0.4093E+00  0.4096E+00  0.1390E+02  0.1390E+02
      9.561  0.4916E+00  0.4912E+00  0.1397E+02  0.1397E+02
      9.701  0.6049E+00  0.6048E+00  0.1405E+02  0.1405E+02
      9.840  0.6018E+00  0.6019E+00  0.1414E+02  0.1414E+02
      9.980  0.5903E+00  0.5901E+00  0.1422E+02  0.1422E+02
     10.119  0.6054E+00  0.6055E+00  0.1430E+02  0.1430E+02
     10.259  0.5132E+00  0.5126E+00  0.1437E+02  0.1437E+02
     10.398  0.7011E+00  0.6998E+00  0.1447E+02  0.1447E+02
     10.537  0.7339E+00  0.7290E+00  0.1457E+02  0.1457E+02
     10.677  0.6436E+00  0.6460E+00  0.1466E+02  0.1466E+02
     10.816  0.7619E+00  0.7656E+00  0.1477E+02  0.1477E+02
     10.956  0.1009E+01  0.1008E+01  0.1491E+02  0.1491E+02
     11.095  0.1081E+01  0.1079E+01  0.1506E+02  0.1506E+02
     11.235  0.1010E+01  0.1010E+01  0.1520E+02  0.1520E+02
     11.374  0.8630E+00  0.8653E+00  0.1532E+02  0.1532E+02
     11.514  0.5988E+00  0.5971E+00  0.1541E+02  0.1541E+02
     11.653  0.5569E+00  0.5559E+00  0.1549E+02  0.1549E+02
     11.792  0.6244E+00  0.6245E+00  0.1557E+02  0.1557E+02
     11.932  0.8377E+00  0.8366E+00  0.1569E+02  0.1569E+02
     12.071  0.7405E+00  0.7326E+00  0.1579E+02  0.1579E+02
     12.211  0.4765E+00  0.4837E+00  0.1586E+02  0.1586E+02
     12.350  0.4277E+00  0.4523E+00  0.1592E+02  0.1592E+02
     12.490  0.4144E+00  0.4042E+00  0.1598E+02  0.1598E+02
     12.629  0.1374E+00  0.1302E+00  0.1600E+02  0.1600E+02
     12.769  0.1417E-01  0.1319E-01  0.1600E+02  0.1600E+02
     12.908  0.2737E-03  0.2719E-03  0.1600E+02  0.1600E+02
     13.047  0.0000E+00  0.0000E+00  0.1600E+02  0.1600E+02
     13.187  0.0000E+00  0.0000E+00  0.1600E+02  0.1600E+02
     13.326  0.0000E+00  0.0000E+00  0.1600E+02  0.1600E+02
     13.466  0.0000E+00  0.0000E+00  0.1600E+02  0.1600E+02
     13.605  0.0000E+00  0.0000E+00  0.1600E+02  0.1600E+02
     13.745  0.0000E+00  0.0000E+00  0.1600E+02  0.1600E+02
     13.884  0.0000E+00  0.0000E+00  0.1600E+02  0.1600E+02
     14.024  0.0000E+00  0.0000E+00  0.1600E+02  0.1600E+02
     14.163  0.0000E+00  0.0000E+00  0.1600E+02  0.1600E+02
     14.303  0.0000E+00  0.0000E+00  0.1600E+02  0.1600E+02
     14.442  0.0000E+00  0.0000E+00  0.1600E+02  0.1600E+02
     14.44196037    -27.39255474  301      5.56301173      1.00000000
    -27.393  0.0000E+00  0.0000E+00  0.0000E+00  0.0000E+00  0.0000E+00  0.0000E+00  0.0000E+00  0.0000E+00  0.0000E+00  0.0000E+00  0.0000E+00  0.0000E+00  0.0000E+00  0.0000E+00  0.0000E+00  0.0000E+00  0.0000E+00  0.0000E+00
    -27.253  0.0000E+00  0.0000E+00  0.0000E+00  0.0000E+00  0.0000E+00  0.0000E+00  0.0000E+00  0.0000E+00  0.0000E+00  0.0000E+00  0.0000E+00  0.0000E+00  0.0000E+00  0.0000E+00  0.0000E+00  0.0000E+00  0.0000E+00  0.0000E+00
    -27.114  0.0000E+00  0.0000E+00  0.0000E+00  0.0000E+00  0.0000E+00  0.0000E+00  0.0000E+00  0.0000E+00  0.0000E+00  0.0000E+00  0.0000E+00  0.0000E+00  0.0000E+00  0.0000E+00  0.0000E+00  0.0000E+00  0.0000E+00  0.0000E+00
    -26.974  0.0000E+00  0.0000E+00  0.0000E+00  0.0000E+00  0.0000E+00  0.0000E+00  0.0000E+00  0.0000E+00  0.0000E+00  0.0000E+00  0.0000E+00  0.0000E+00  0.0000E+00  0.0000E+00  0.0000E+00  0.0000E+00  0.0000E+00  0.0000E+00
    -26.835  0.0000E+00  0.0000E+00  0.0000E+00  0.0000E+00  0.0000E+00  0.0000E+00  0.0000E+00  0.0000E+00  0.0000E+00  0.0000E+00  0.0000E+00  0.0000E+00  0.0000E+00  0.0000E+00  0.0000E+00  0.0000E+00  0.0000E+00  0.0000E+00
    -26.695  0.0000E+00  0.0000E+00  0.0000E+00  0.0000E+00  0.0000E+00  0.0000E+00  0.0000E+00  0.0000E+00  0.0000E+00  0.0000E+00  0.0000E+00  0.0000E+00  0.0000E+00  0.0000E+00  0.0000E+00  0.0000E+00  0.0000E+00  0.0000E+00
    -26.556  0.0000E+00  0.0000E+00  0.0000E+00  0.0000E+00  0.0000E+00  0.0000E+00  0.0000E+00  0.0000E+00  0.0000E+00  0.0000E+00  0.0000E+00  0.0000E+00  0.0000E+00  0.0000E+00  0.0000E+00  0.0000E+00  0.0000E+00  0.0000E+00
    -26.416  0.0000E+00  0.0000E+00  0.0000E+00  0.0000E+00  0.0000E+00  0.0000E+00  0.0000E+00  0.0000E+00  0.0000E+00  0.0000E+00  0.0000E+00  0.0000E+00  0.0000E+00  0.0000E+00  0.0000E+00  0.0000E+00  0.0000E+00  0.0000E+00
    -26.277  0.0000E+00  0.0000E+00  0.0000E+00  0.0000E+00  0.0000E+00  0.0000E+00  0.0000E+00  0.0000E+00  0.0000E+00  0.0000E+00  0.0000E+00  0.0000E+00  0.0000E+00  0.0000E+00  0.0000E+00  0.0000E+00  0.0000E+00  0.0000E+00
    -26.138  0.0000E+00  0.0000E+00  0.0000E+00  0.0000E+00  0.0000E+00  0.0000E+00  0.0000E+00  0.0000E+00  0.0000E+00  0.0000E+00  0.0000E+00  0.0000E+00  0.0000E+00  0.0000E+00  0.0000E+00  0.0000E+00  0.0000E+00  0.0000E+00
    -25.998  0.2826E-20  0.1412E-10  0.1457E-19  0.1273E-19  0.4399E-06  0.5424E-06  0.1457E-19  0.1273E-19  0.2628E-23  0.4648E-22  0.1793E-10  0.1824E-10  0.9664E-21  0.3735E-11  0.1793E-10  0.1824E-10  0.2628E-23  0.4646E-22
    -25.859  0.3919E-08  0.4087E-08  0.5511E-05  0.5788E-05  0.3285E-04  0.3354E-04  0.5511E-05  0.5788E-05  0.8541E-09  0.8943E-09  0.3202E-08  0.3266E-08  0.1145E-08  0.1206E-08  0.3202E-08  0.3266E-08  0.8541E-09  0.8943E-09
    -25.719  0.1250E-06  0.1270E-06  0.1590E-03  0.1617E-03  0.6230E-03  0.6339E-03  0.1590E-03  0.1617E-03  0.3525E-07  0.3582E-07  0.7178E-07  0.7302E-07  0.3977E-07  0.4053E-07  0.7178E-07  0.7302E-07  0.3525E-07  0.3582E-07
    -25.580  0.2035E-05  0.2069E-05  0.2564E-02  0.2607E-02  0.9662E-02  0.9829E-02  0.2564E-02  0.2607E-02  0.5655E-06  0.5748E-06  0.1138E-05  0.1157E-05  0.6388E-06  0.6494E-06  0.1138E-05  0.1157E-05  0.5655E-06  0.5748E-06
    -25.440  0.2854E-04  0.2895E-04  0.3786E-01  0.3844E-01  0.1069E+00  0.1083E+00  0.3786E-01  0.3844E-01  0.8610E-05  0.8742E-05  0.1463E-04  0.1483E-04  0.9151E-05  0.9286E-05  0.1463E-04  0.1483E-04  0.8610E-05  0.8742E-05
    -25.301  0.2426E-03  0.2450E-03  0.2974E+00  0.3001E+00  0.5316E+00  0.5356E+00  0.2974E+00  0.3001E+00  0.8088E-04  0.8167E-04  0.9529E-04  0.9610E-04  0.7654E-04  0.7725E-04  0.9529E-04  0.9610E-04  0.8088E-04  0.8167E-04
    -25.161  0.7841E-03  0.7865E-03  0.6795E+00  0.6804E+00  0.9964E+00  0.9968E+00  0.6795E+00  0.6804E+00  0.2151E-03  0.2152E-03  0.2224E-03  0.2227E-03  0.2056E-03  0.2060E-03  0.2224E-03  0.2227E-03  0.2151E-03  0.2152E-03
    -25.022  0.9947E-03  0.9938E-03  0.6440E+00  0.6434E+00  0.7184E+00  0.7168E+00  0.6440E+00  0.6434E+00  0.1761E-03  0.1757E-03  0.2182E-03  0.2181E-03  0.2505E-03  0.2508E-03  0.2182E-03  0.2181E-03  0.1761E-03  0.1757E-03
    -24.882  0.7964E-03  0.7943E-03  0.6387E+00  0.6396E+00  0.6255E+00  0.6258E+00  0.6387E+00  0.6396E+00  0.2059E-03  0.2064E-03  0.2572E-03  0.2574E-03  0.3620E-03  0.3628E-03  0.2572E-03  0.2574E-03  0.2059E-03  0.2064E-03
    -24.743  0.5663E-03  0.5646E-03  0.9112E+00  0.9139E+00  0.7032E+00  0.7045E+00  0.9112E+00  0.9139E+00  0.3178E-03  0.3182E-03  0.2925E-03  0.2926E-03  0.4824E-03  0.4826E-03  0.2925E-03  0.2926E-03  0.3178E-03  0.3182E-03
    -24.604  0.4001E-03  0.3986E-03  0.1323E+01  0.1325E+01  0.1091E+01  0.1094E+01  0.1323E+01  0.1325E+01  0.3613E-03  0.3609E-03  0.3684E-03  0.3687E-03  0.4721E-03  0.4712E-03  0.3684E-03  0.3687E-03  0.3613E-03  0.3609E-03
    -24.464  0.2284E-03  0.2270E-03  0.1509E+01  0.1508E+01  0.1433E+01  0.1431E+01  0.1509E+01  0.1508E+01  0.2699E-03  0.2687E-03  0.3474E-03  0.3460E-03  0.3116E-03  0.3100E-03  0.3474E-03  0.3460E-03  0.2699E-03  0.2687E-03
    -24.325  0.6688E-04  0.6608E-04  0.8305E+00  0.8244E+00  0.6950E+00  0.6888E+00  0.8305E+00  0.8244E+00  0.9735E-04  0.9637E-04  0.1237E-03  0.1223E-03  0.1123E-03  0.1111E-03  0.1237E-03  0.1223E-03  0.9735E-04  0.9637E-04
    -24.185  0.7412E-05  0.7274E-05  0.1438E+00  0.1416E+00  0.1100E+00  0.1081E+00  0.1438E+00  0.1416E+00  0.1296E-04  0.1274E-04  0.1447E-04  0.1420E-04  0.1449E-04  0.1422E-04  0.1447E-04  0.1420E-04  0.1296E-04  0.1274E-04
    -24.046  0.2536E-06  0.2489E-06  0.7999E-02  0.7789E-02  0.5621E-02  0.5515E-02  0.7999E-02  0.7789E-02  0.5745E-06  0.5618E-06  0.5118E-06  0.4945E-06  0.5933E-06  0.5818E-06  0.5118E-06  0.4945E-06  0.5745E-06  0.5618E-06
    -23.906  0.0000E+00  0.0000E+00  0.0000E+00  0.0000E+00  0.0000E+00  0.0000E+00  0.0000E+00  0.0000E+00  0.0000E+00  0.0000E+00  0.0000E+00  0.0000E+00  0.0000E+00  0.0000E+00  0.0000E+00  0.0000E+00  0.0000E+00  0.0000E+00
    -23.767  0.0000E+00  0.0000E+00  0.0000E+00  0.0000E+00  0.0000E+00  0.0000E+00  0.0000E+00  0.0000E+00  0.0000E+00  0.0000E+00  0.0000E+00  0.0000E+00  0.0000E+00  0.0000E+00  0.0000E+00  0.0000E+00  0.0000E+00  0.0000E+00
    -23.627  0.0000E+00  0.0000E+00  0.0000E+00  0.0000E+00  0.0000E+00  0.0000E+00  0.0000E+00  0.0000E+00  0.0000E+00  0.0000E+00  0.0000E+00  0.0000E+00  0.0000E+00  0.0000E+00  0.0000E+00  0.0000E+00  0.0000E+00  0.0000E+00
    -23.488  0.0000E+00  0.0000E+00  0.0000E+00  0.0000E+00  0.0000E+00  0.0000E+00  0.0000E+00  0.0000E+00  0.0000E+00  0.0000E+00  0.0000E+00  0.0000E+00  0.0000E+00  0.0000E+00  0.0000E+00  0.0000E+00  0.0000E+00  0.0000E+00
    -23.349  0.0000E+00  0.0000E+00  0.0000E+00  0.0000E+00  0.0000E+00  0.0000E+00  0.0000E+00  0.0000E+00  0.0000E+00  0.0000E+00  0.0000E+00  0.0000E+00  0.0000E+00  0.0000E+00  0.0000E+00  0.0000E+00  0.0000E+00  0.0000E+00
    -23.209  0.0000E+00  0.0000E+00  0.0000E+00  0.0000E+00  0.0000E+00  0.0000E+00  0.0000E+00  0.0000E+00  0.0000E+00  0.0000E+00  0.0000E+00  0.0000E+00  0.0000E+00  0.0000E+00  0.0000E+00  0.0000E+00  0.0000E+00  0.0000E+00
    -23.070  0.0000E+00  0.0000E+00  0.0000E+00  0.0000E+00  0.0000E+00  0.0000E+00  0.0000E+00  0.0000E+00  0.0000E+00  0.0000E+00  0.0000E+00  0.0000E+00  0.0000E+00  0.0000E+00  0.0000E+00  0.0000E+00  0.0000E+00  0.0000E+00
    -22.930  0.0000E+00  0.0000E+00  0.0000E+00  0.0000E+00  0.0000E+00  0.0000E+00  0.0000E+00  0.0000E+00  0.0000E+00  0.0000E+00  0.0000E+00  0.0000E+00  0.0000E+00  0.0000E+00  0.0000E+00  0.0000E+00  0.0000E+00  0.0000E+00
    -22.791  0.0000E+00  0.0000E+00  0.0000E+00  0.0000E+00  0.0000E+00  0.0000E+00  0.0000E+00  0.0000E+00  0.0000E+00  0.0000E+00  0.0000E+00  0.0000E+00  0.0000E+00  0.0000E+00  0.0000E+00  0.0000E+00  0.0000E+00  0.0000E+00
    -22.651  0.0000E+00  0.0000E+00  0.0000E+00  0.0000E+00  0.0000E+00  0.0000E+00  0.0000E+00  0.0000E+00  0.0000E+00  0.0000E+00  0.0000E+00  0.0000E+00  0.0000E+00  0.0000E+00  0.0000E+00  0.0000E+00  0.0000E+00  0.0000E+00
    -22.512  0.0000E+00  0.0000E+00  0.0000E+00  0.0000E+00  0.0000E+00  0.0000E+00  0.0000E+00  0.0000E+00  0.0000E+00  0.0000E+00  0.0000E+00  0.0000E+00  0.0000E+00  0.0000E+00  0.0000E+00  0.0000E+00  0.0000E+00  0.0000E+00
    -22.372  0.0000E+00  0.0000E+00  0.0000E+00  0.0000E+00  0.0000E+00  0.0000E+00  0.0000E+00  0.0000E+00  0.0000E+00  0.0000E+00  0.0000E+00  0.0000E+00  0.0000E+00  0.0000E+00  0.0000E+00  0.0000E+00  0.0000E+00  0.0000E+00
    -22.233  0.0000E+00  0.0000E+00  0.0000E+00  0.0000E+00  0.0000E+00  0.0000E+00  0.0000E+00  0.0000E+00  0.0000E+00  0.0000E+00  0.0000E+00  0.0000E+00  0.0000E+00  0.0000E+00  0.0000E+00  0.0000E+00  0.0000E+00  0.0000E+00
    -22.094  0.0000E+00  0.0000E+00  0.0000E+00  0.0000E+00  0.0000E+00  0.0000E+00  0.0000E+00  0.0000E+00  0.0000E+00  0.0000E+00  0.0000E+00  0.0000E+00  0.0000E+00  0.0000E+00  0.0000E+00  0.0000E+00  0.0000E+00  0.0000E+00
    -21.954  0.0000E+00  0.0000E+00  0.0000E+00  0.0000E+00  0.0000E+00  0.0000E+00  0.0000E+00  0.0000E+00  0.0000E+00  0.0000E+00  0.0000E+00  0.0000E+00  0.0000E+00  0.0000E+00  0.0000E+00  0.0000E+00  0.0000E+00  0.0000E+00
    -21.815  0.0000E+00  0.0000E+00  0.0000E+00  0.0000E+00  0.0000E+00  0.0000E+00  0.0000E+00  0.0000E+00  0.0000E+00  0.0000E+00  0.0000E+00  0.0000E+00  0.0000E+00  0.0000E+00  0.0000E+00  0.0000E+00  0.0000E+00  0.0000E+00
    -21.675  0.0000E+00  0.0000E+00  0.0000E+00  0.0000E+00  0.0000E+00  0.0000E+00  0.0000E+00  0.0000E+00  0.0000E+00  0.0000E+00  0.0000E+00  0.0000E+00  0.0000E+00  0.0000E+00  0.0000E+00  0.0000E+00  0.0000E+00  0.0000E+00
    -21.536  0.0000E+00  0.0000E+00  0.0000E+00  0.0000E+00  0.0000E+00  0.0000E+00  0.0000E+00  0.0000E+00  0.0000E+00  0.0000E+00  0.0000E+00  0.0000E+00  0.0000E+00  0.0000E+00  0.0000E+00  0.0000E+00  0.0000E+00  0.0000E+00
    -21.396  0.0000E+00  0.0000E+00  0.0000E+00  0.0000E+00  0.0000E+00  0.0000E+00  0.0000E+00  0.0000E+00  0.0000E+00  0.0000E+00  0.0000E+00  0.0000E+00  0.0000E+00  0.0000E+00  0.0000E+00  0.0000E+00  0.0000E+00  0.0000E+00
    -21.257  0.0000E+00  0.0000E+00  0.0000E+00  0.0000E+00  0.0000E+00  0.0000E+00  0.0000E+00  0.0000E+00  0.0000E+00  0.0000E+00  0.0000E+00  0.0000E+00  0.0000E+00  0.0000E+00  0.0000E+00  0.0000E+00  0.0000E+00  0.0000E+00
    -21.117  0.0000E+00  0.0000E+00  0.0000E+00  0.0000E+00  0.0000E+00  0.0000E+00  0.0000E+00  0.0000E+00  0.0000E+00  0.0000E+00  0.0000E+00  0.0000E+00  0.0000E+00  0.0000E+00  0.0000E+00  0.0000E+00  0.0000E+00  0.0000E+00
    -20.978  0.0000E+00  0.0000E+00  0.0000E+00  0.0000E+00  0.0000E+00  0.0000E+00  0.0000E+00  0.0000E+00  0.0000E+00  0.0000E+00  0.0000E+00  0.0000E+00  0.0000E+00  0.0000E+00  0.0000E+00  0.0000E+00  0.0000E+00  0.0000E+00
    -20.838  0.0000E+00  0.0000E+00  0.0000E+00  0.0000E+00  0.0000E+00  0.0000E+00  0.0000E+00  0.0000E+00  0.0000E+00  0.0000E+00  0.0000E+00  0.0000E+00  0.0000E+00  0.0000E+00  0.0000E+00  0.0000E+00  0.0000E+00  0.0000E+00
    -20.699  0.0000E+00  0.0000E+00  0.0000E+00  0.0000E+00  0.0000E+00  0.0000E+00  0.0000E+00  0.0000E+00  0.0000E+00  0.0000E+00  0.0000E+00  0.0000E+00  0.0000E+00  0.0000E+00  0.0000E+00  0.0000E+00  0.0000E+00  0.0000E+00
    -20.560  0.0000E+00  0.0000E+00  0.0000E+00  0.0000E+00  0.0000E+00  0.0000E+00  0.0000E+00  0.0000E+00  0.0000E+00  0.0000E+00  0.0000E+00  0.0000E+00  0.0000E+00  0.0000E+00  0.0000E+00  0.0000E+00  0.0000E+00  0.0000E+00
    -20.420  0.0000E+00  0.0000E+00  0.0000E+00  0.0000E+00  0.0000E+00  0.0000E+00  0.0000E+00  0.0000E+00  0.0000E+00  0.0000E+00  0.0000E+00  0.0000E+00  0.0000E+00  0.0000E+00  0.0000E+00  0.0000E+00  0.0000E+00  0.0000E+00