   2   2   1   0
  0.2674013E+02  0.3391170E-09  0.3391170E-09  0.5369869E-09  0.5000000E-15
  1.000000000000000E-004
  CAR 
 unknown system                          
     10.69245291    -29.39595586  301      3.76354792      1.00000000
    -29.396  0.0000E+00  0.0000E+00  0.0000E+00  0.0000E+00
    -29.262  0.0000E+00  0.0000E+00  0.0000E+00  0.0000E+00
    -29.129  0.0000E+00  0.0000E+00  0.0000E+00  0.0000E+00
    -28.995  0.0000E+00  0.0000E+00  0.0000E+00  0.0000E+00
    -28.861  0.0000E+00  0.0000E+00  0.0000E+00  0.0000E+00
    -28.728  0.0000E+00  0.0000E+00  0.0000E+00  0.0000E+00
    -28.594  0.0000E+00  0.0000E+00  0.0000E+00  0.0000E+00
    -28.461  0.0000E+00  0.0000E+00  0.0000E+00  0.0000E+00
    -28.327  0.0000E+00  0.0000E+00  0.0000E+00  0.0000E+00
    -28.193  0.0000E+00  0.0000E+00  0.0000E+00  0.0000E+00
    -28.060  0.9861E-05  0.9911E-05  0.1318E-05  0.1324E-05
    -27.926  0.1171E-02  0.1175E-02  0.1578E-03  0.1584E-03
    -27.792  0.1700E-01  0.1707E-01  0.2430E-02  0.2439E-02
    -27.659  0.2393E+00  0.2401E+00  0.3440E-01  0.3453E-01
    -27.525  0.2464E+01  0.2470E+01  0.3637E+00  0.3646E+00
    -27.392  0.8548E+01  0.8553E+01  0.1506E+01  0.1507E+01
    -27.258  0.1275E+02  0.1276E+02  0.3210E+01  0.3212E+01
    -27.124  0.1508E+02  0.1507E+02  0.5225E+01  0.5226E+01
    -26.991  0.5209E+01  0.5201E+01  0.5924E+01  0.5924E+01
    -26.857  0.5108E+00  0.5095E+00  0.5995E+01  0.5995E+01
    -26.723  0.5957E-02  0.5948E-02  0.6000E+01  0.6000E+01
    -26.590  0.0000E+00  0.0000E+00  0.6000E+01  0.6000E+01
    -26.456  0.0000E+00  0.0000E+00  0.6000E+01  0.6000E+01
    -26.323  0.0000E+00  0.0000E+00  0.6000E+01  0.6000E+01
    -26.189  0.0000E+00  0.0000E+00  0.6000E+01  0.6000E+01
    -26.055  0.0000E+00  0.0000E+00  0.6000E+01  0.6000E+01
    -25.922  0.0000E+00  0.0000E+00  0.6000E+01  0.6000E+01
    -25.788  0.0000E+00  0.0000E+00  0.6000E+01  0.6000E+01
    -25.654  0.0000E+00  0.0000E+00  0.6000E+01  0.6000E+01
    -25.521  0.0000E+00  0.0000E+00  0.6000E+01  0.6000E+01
    -25.387  0.0000E+00  0.0000E+00  0.6000E+01  0.6000E+01
    -25.253  0.0000E+00  0.0000E+00  0.6000E+01  0.6000E+01
    -25.120  0.0000E+00  0.0000E+00  0.6000E+01  0.6000E+01
    -24.986  0.0000E+00  0.0000E+00  0.6000E+01  0.6000E+01
    -24.853  0.0000E+00  0.0000E+00  0.6000E+01  0.6000E+01
    -24.719  0.0000E+00  0.0000E+00  0.6000E+01  0.6000E+01
    -24.585  0.0000E+00  0.0000E+00  0.6000E+01  0.6000E+01
    -24.452  0.0000E+00  0.0000E+00  0.6000E+01  0.6000E+01
    -24.318  0.0000E+00  0.0000E+00  0.6000E+01  0.6000E+01
    -24.184  0.0000E+00  0.0000E+00  0.6000E+01  0.6000E+01
    -24.051  0.0000E+00  0.0000E+00  0.6000E+01  0.6000E+01
    -23.917  0.0000E+00  0.0000E+00  0.6000E+01  0.6000E+01
    -23.784  0.0000E+00  0.0000E+00  0.6000E+01  0.6000E+01
    -23.650  0.0000E+00  0.0000E+00  0.6000E+01  0.6000E+01
    -23.516  0.0000E+00  0.0000E+00  0.6000E+01  0.6000E+01
    -23.383  0.0000E+00  0.0000E+00  0.6000E+01  0.6000E+01
    -23.249  0.0000E+00  0.0000E+00  0.6000E+01  0.6000E+01
    -23.115  0.0000E+00  0.0000E+00  0.6000E+01  0.6000E+01
    -22.982  0.0000E+00  0.0000E+00  0.6000E+01  0.6000E+01
    -22.848  0.0000E+00  0.0000E+00  0.6000E+01  0.6000E+01
    -22.715  0.0000E+00  0.0000E+00  0.6000E+01  0.6000E+01
    -22.581  0.0000E+00  0.0000E+00  0.6000E+01  0.6000E+01
    -22.447  0.0000E+00  0.0000E+00  0.6000E+01  0.6000E+01
    -22.314  0.0000E+00  0.0000E+00  0.6000E+01  0.6000E+01
    -22.180  0.0000E+00  0.0000E+00  0.6000E+01  0.6000E+01
    -22.046  0.0000E+00  0.0000E+00  0.6000E+01  0.6000E+01
    -21.913  0.0000E+00  0.0000E+00  0.6000E+01  0.6000E+01
    -21.779  0.0000E+00  0.0000E+00  0.6000E+01  0.6000E+01
    -21.646  0.0000E+00  0.0000E+00  0.6000E+01  0.6000E+01
    -21.512  0.0000E+00  0.0000E+00  0.6000E+01  0.6000E+01
    -21.378  0.0000E+00  0.0000E+00  0.6000E+01  0.6000E+01
    -21.245  0.0000E+00  0.0000E+00  0.6000E+01  0.6000E+01
    -21.111  0.0000E+00  0.0000E+00  0.6000E+01  0.6000E+01
    -20.977  0.0000E+00  0.0000E+00  0.6000E+01  0.6000E+01
    -20.844  0.0000E+00  0.0000E+00  0.6000E+01  0.6000E+01
    -20.710  0.0000E+00  0.0000E+00  0.6000E+01  0.6000E+01
    -20.577  0.0000E+00  0.0000E+00  0.6000E+01  0.6000E+01
    -20.443  0.0000E+00  0.0000E+00  0.6000E+01  0.6000E+01
    -20.309  0.0000E+00  0.0000E+00  0.6000E+01  0.6000E+01
    -20.176  0.0000E+00  0.0000E+00  0.6000E+01  0.6000E+01
    -20.042  0.0000E+00  0.0000E+00  0.6000E+01  0.6000E+01
    -19.908  0.0000E+00  0.0000E+00  0.6000E+01  0.6000E+01
    -19.775  0.0000E+00  0.0000E+00  0.6000E+01  0.6000E+01
    -19.641  0.0000E+00  0.0000E+00  0.6000E+01  0.6000E+01
    -19.507  0.0000E+00  0.0000E+00  0.6000E+01  0.6000E+01
    -19.374  0.0000E+00  0.0000E+00  0.6000E+01  0.6000E+01
    -19.240  0.0000E+00  0.0000E+00  0.6000E+01  0.6000E+01
    -19.107  0.0000E+00  0.0000E+00  0.6000E+01  0.6000E+01
    -18.973  0.0000E+00  0.0000E+00  0.6000E+01  0.6000E+01
    -18.839  0.0000E+00  0.0000E+00  0.6000E+01  0.6000E+01
    -18.706  0.0000E+00  0.0000E+00  0.6000E+01  0.6000E+01
    -18.572  0.0000E+00  0.0000E+00  0.6000E+01  0.6000E+01
    -18.438  0.0000E+00  0.0000E+00  0.6000E+01  0.6000E+01
    -18.305  0.0000E+00  0.0000E+00  0.6000E+01  0.6000E+01
    -18.171  0.0000E+00  0.0000E+00  0.6000E+01  0.6000E+01
    -18.038  0.0000E+00  0.0000E+00  0.6000E+01  0.6000E+01
    -17.904  0.0000E+00  0.0000E+00  0.6000E+01  0.6000E+01
    -17.770  0.0000E+00  0.0000E+00  0.6000E+01  0.6000E+01
    -17.637  0.0000E+00  0.0000E+00  0.6000E+01  0.6000E+01
    -17.503  0.0000E+00  0.0000E+00  0.6000E+01  0.6000E+01
    -17.369  0.0000E+00  0.0000E+00  0.6000E+01  0.6000E+01
    -17.236  0.0000E+00  0.0000E+00  0.6000E+01  0.6000E+01
    -17.102  0.0000E+00  0.0000E+00  0.6000E+01  0.6000E+01
    -16.969  0.0000E+00  0.0000E+00  0.6000E+01  0.6000E+01
    -16.835  0.0000E+00  0.0000E+00  0.6000E+01  0.6000E+01
    -16.701  0.0000E+00  0.0000E+00  0.6000E+01  0.6000E+01
    -16.568  0.0000E+00  0.0000E+00  0.6000E+01  0.6000E+01
    -16.434  0.0000E+00  0.0000E+00  0.6000E+01  0.6000E+01
    -16.300  0.0000E+00  0.0000E+00  0.6000E+01  0.6000E+01
    -16.167  0.0000E+00  0.0000E+00  0.6000E+01  0.6000E+01
    -16.033  0.0000E+00  0.0000E+00  0.6000E+01  0.6000E+01
    -15.900  0.0000E+00  0.0000E+00  0.6000E+01  0.6000E+01
    -15.766  0.0000E+00  0.0000E+00  0.6000E+01  0.6000E+01
    -15.632  0.0000E+00  0.0000E+00  0.6000E+01  0.6000E+01
    -15.499  0.0000E+00  0.0000E+00  0.6000E+01  0.6000E+01
    -15.365  0.0000E+00  0.0000E+00  0.6000E+01  0.6000E+01
    -15.231  0.0000E+00  0.0000E+00  0.6000E+01  0.6000E+01
    -15.098  0.0000E+00  0.0000E+00  0.6000E+01  0.6000E+01
    -14.964  0.0000E+00  0.0000E+00  0.6000E+01  0.6000E+01
    -14.831  0.0000E+00  0.0000E+00  0.6000E+01  0.6000E+01
    -14.697  0.0000E+00  0.0000E+00  0.6000E+01  0.6000E+01
    -14.563  0.0000E+00  0.0000E+00  0.6000E+01  0.6000E+01
    -14.430  0.0000E+00  0.0000E+00  0.6000E+01  0.6000E+01
    -14.296  0.0000E+00  0.0000E+00  0.6000E+01  0.6000E+01
    -14.162  0.0000E+00  0.0000E+00  0.6000E+01  0.6000E+01
    -14.029  0.0000E+00  0.0000E+00  0.6000E+01  0.6000E+01
    -13.895  0.0000E+00  0.0000E+00  0.6000E+01  0.6000E+01
    -13.761  0.0000E+00  0.0000E+00  0.6000E+01  0.6000E+01
    -13.628  0.0000E+00  0.0000E+00  0.6000E+01  0.6000E+01
    -13.494  0.0000E+00  0.0000E+00  0.6000E+01  0.6000E+01
    -13.361  0.0000E+00  0.0000E+00  0.6000E+01  0.6000E+01
    -13.227  0.0000E+00  0.0000E+00  0.6000E+01  0.6000E+01
    -13.093  0.0000E+00  0.0000E+00  0.6000E+01  0.6000E+01
    -12.960  0.0000E+00  0.0000E+00  0.6000E+01  0.6000E+01
    -12.826  0.0000E+00  0.0000E+00  0.6000E+01  0.6000E+01
    -12.692  0.0000E+00  0.0000E+00  0.6000E+01  0.6000E+01
    -12.559  0.0000E+00  0.0000E+00  0.6000E+01  0.6000E+01
    -12.425  0.0000E+00  0.0000E+00  0.6000E+01  0.6000E+01
    -12.292  0.0000E+00  0.0000E+00  0.6000E+01  0.6000E+01
    -12.158  0.0000E+00  0.0000E+00  0.6000E+01  0.6000E+01
    -12.024  0.0000E+00  0.0000E+00  0.6000E+01  0.6000E+01
    -11.891  0.0000E+00  0.0000E+00  0.6000E+01  0.6000E+01
    -11.757  0.0000E+00  0.0000E+00  0.6000E+01  0.6000E+01
    -11.623  0.0000E+00  0.0000E+00  0.6000E+01  0.6000E+01
    -11.490  0.0000E+00  0.0000E+00  0.6000E+01  0.6000E+01
    -11.356  0.0000E+00  0.0000E+00  0.6000E+01  0.6000E+01
    -11.223  0.0000E+00  0.0000E+00  0.6000E+01  0.6000E+01
    -11.089  0.0000E+00  0.0000E+00  0.6000E+01  0.6000E+01
    -10.955  0.0000E+00  0.0000E+00  0.6000E+01  0.6000E+01
    -10.822  0.0000E+00  0.0000E+00  0.6000E+01  0.6000E+01
    -10.688  0.0000E+00  0.0000E+00  0.6000E+01  0.6000E+01
    -10.554  0.0000E+00  0.0000E+00  0.6000E+01  0.6000E+01
    -10.421  0.0000E+00  0.0000E+00  0.6000E+01  0.6000E+01
    -10.287  0.0000E+00  0.0000E+00  0.6000E+01  0.6000E+01
    -10.154  0.0000E+00  0.0000E+00  0.6000E+01  0.6000E+01
    -10.020  0.0000E+00  0.0000E+00  0.6000E+01  0.6000E+01
     -9.886  0.0000E+00  0.0000E+00  0.6000E+01  0.6000E+01
     -9.753  0.0000E+00  0.0000E+00  0.6000E+01  0.6000E+01
     -9.619  0.0000E+00  0.0000E+00  0.6000E+01  0.6000E+01
     -9.485  0.0000E+00  0.0000E+00  0.6000E+01  0.6000E+01
     -9.352  0.0000E+00  0.0000E+00  0.6000E+01  0.6000E+01
     -9.218  0.0000E+00  0.0000E+00  0.6000E+01  0.6000E+01
     -9.084  0.0000E+00  0.0000E+00  0.6000E+01  0.6000E+01
     -8.951  0.0000E+00  0.0000E+00  0.6000E+01  0.6000E+01
     -8.817  0.0000E+00  0.0000E+00  0.6000E+01  0.6000E+01
     -8.684  0.0000E+00  0.0000E+00  0.6000E+01  0.6000E+01
     -8.550  0.0000E+00  0.0000E+00  0.6000E+01  0.6000E+01
     -8.416  0.0000E+00  0.0000E+00  0.6000E+01  0.6000E+01
     -8.283  0.0000E+00  0.0000E+00  0.6000E+01  0.6000E+01
     -8.149  0.0000E+00  0.0000E+00  0.6000E+01  0.6000E+01
     -8.015  0.0000E+00  0.0000E+00  0.6000E+01  0.6000E+01
     -7.882  0.0000E+00  0.0000E+00  0.6000E+01  0.6000E+01
     -7.748  0.0000E+00  0.0000E+00  0.6000E+01  0.6000E+01
     -7.615  0.0000E+00  0.0000E+00  0.6000E+01  0.6000E+01
     -7.481  0.0000E+00  0.0000E+00  0.6000E+01  0.6000E+01
     -7.347  0.0000E+00  0.0000E+00  0.6000E+01  0.6000E+01
     -7.214  0.0000E+00  0.0000E+00  0.6000E+01  0.6000E+01
     -7.080  0.0000E+00  0.0000E+00  0.6000E+01  0.6000E+01
     -6.946  0.0000E+00  0.0000E+00  0.6000E+01  0.6000E+01
     -6.813  0.0000E+00  0.0000E+00  0.6000E+01  0.6000E+01
     -6.679  0.0000E+00  0.0000E+00  0.6000E+01  0.6000E+01
     -6.546  0.0000E+00  0.0000E+00  0.6000E+01  0.6000E+01
     -6.412  0.0000E+00  0.0000E+00  0.6000E+01  0.6000E+01
     -6.278  0.0000E+00  0.0000E+00  0.6000E+01  0.6000E+01
     -6.145  0.0000E+00  0.0000E+00  0.6000E+01  0.6000E+01
     -6.011  0.0000E+00  0.0000E+00  0.6000E+01  0.6000E+01
     -5.877  0.0000E+00  0.0000E+00  0.6000E+01  0.6000E+01
     -5.744  0.0000E+00  0.0000E+00  0.6000E+01  0.6000E+01
     -5.610  0.0000E+00  0.0000E+00  0.6000E+01  0.6000E+01
     -5.477  0.0000E+00  0.0000E+00  0.6000E+01  0.6000E+01
     -5.343  0.0000E+00  0.0000E+00  0.6000E+01  0.6000E+01
     -5.209  0.0000E+00  0.0000E+00  0.6000E+01  0.6000E+01
     -5.076  0.0000E+00  0.0000E+00  0.6000E+01  0.6000E+01
     -4.942  0.0000E+00  0.0000E+00  0.6000E+01  0.6000E+01
     -4.808  0.0000E+00  0.0000E+00  0.6000E+01  0.6000E+01
     -4.675  0.0000E+00  0.0000E+00  0.6000E+01  0.6000E+01
     -4.541  0.0000E+00  0.0000E+00  0.6000E+01  0.6000E+01
     -4.408  0.0000E+00  0.0000E+00  0.6000E+01  0.6000E+01
     -4.274  0.0000E+00  0.0000E+00  0.6000E+01  0.6000E+01
     -4.140  0.0000E+00  0.0000E+00  0.6000E+01  0.6000E+01
     -4.007  0.0000E+00  0.0000E+00  0.6000E+01  0.6000E+01
     -3.873  0.0000E+00  0.0000E+00  0.6000E+01  0.6000E+01
     -3.739  0.0000E+00  0.0000E+00  0.6000E+01  0.6000E+01
     -3.606  0.0000E+00  0.0000E+00  0.6000E+01  0.6000E+01
     -3.472  0.3669E-06  0.3808E-06  0.6000E+01  0.6000E+01
     -3.338  0.8290E-05  0.8605E-05  0.6000E+01  0.6000E+01
     -3.205  0.1233E-03  0.1280E-03  0.6000E+01  0.6000E+01
     -3.071  0.1578E-02  0.1631E-02  0.6000E+01  0.6000E+01
     -2.938  0.1142E-01  0.1168E-01  0.6002E+01  0.6002E+01
     -2.804  0.3920E-01  0.3963E-01  0.6007E+01  0.6007E+01
     -2.670  0.5060E-01  0.5045E-01  0.6014E+01  0.6014E+01
     -2.537  0.6027E-01  0.6097E-01  0.6022E+01  0.6022E+01
     -2.403  0.1075E+00  0.1076E+00  0.6036E+01  0.6036E+01
     -2.269  0.8167E-01  0.8133E-01  0.6047E+01  0.6047E+01
     -2.136  0.8257E-01  0.8295E-01  0.6058E+01  0.6058E+01
     -2.002  0.1334E+00  0.1341E+00  0.6076E+01  0.6076E+01
     -1.869  0.1329E+00  0.1323E+00  0.6094E+01  0.6094E+01
     -1.735  0.1328E+00  0.1338E+00  0.6112E+01  0.6112E+01
     -1.601  0.1751E+00  0.1744E+00  0.6135E+01  0.6135E+01
     -1.468  0.1061E+00  0.1060E+00  0.6149E+01  0.6149E+01
     -1.334  0.1449E+00  0.1461E+00  0.6169E+01  0.6169E+01
     -1.200  0.2477E+00  0.2483E+00  0.6202E+01  0.6202E+01
     -1.067  0.2154E+00  0.2147E+00  0.6231E+01  0.6231E+01
     -0.933  0.1897E+00  0.1895E+00  0.6256E+01  0.6256E+01
     -0.800  0.1788E+00  0.1790E+00  0.6280E+01  0.6280E+01
     -0.666  0.2231E+00  0.2241E+00  0.6310E+01  0.6310E+01
     -0.532  0.2787E+00  0.2790E+00  0.6347E+01  0.6348E+01
     -0.399  0.2700E+00  0.2701E+00  0.6383E+01  0.6384E+01
     -0.265  0.3096E+00  0.3101E+00  0.6425E+01  0.6425E+01
     -0.131  0.3505E+00  0.3506E+00  0.6471E+01  0.6472E+01
      0.002  0.3301E+00  0.3303E+00  0.6516E+01  0.6516E+01
      0.136  0.3080E+00  0.3064E+00  0.6557E+01  0.6557E+01
      0.269  0.2819E+00  0.2847E+00  0.6595E+01  0.6595E+01
      0.403  0.6302E+00  0.6345E+00  0.6679E+01  0.6680E+01
      0.537  0.7150E+00  0.7136E+00  0.6774E+01  0.6776E+01
      0.670  0.6121E+00  0.6105E+00  0.6856E+01  0.6857E+01
      0.804  0.5728E+00  0.5738E+00  0.6933E+01  0.6934E+01
      0.938  0.6978E+00  0.7002E+00  0.7026E+01  0.7028E+01
      1.071  0.8192E+00  0.8184E+00  0.7136E+01  0.7137E+01
      1.205  0.6649E+00  0.6630E+00  0.7225E+01  0.7226E+01
      1.338  0.6437E+00  0.6439E+00  0.7311E+01  0.7312E+01
      1.472  0.6586E+00  0.6594E+00  0.7399E+01  0.7400E+01
      1.606  0.8157E+00  0.8169E+00  0.7508E+01  0.7510E+01
      1.739  0.7088E+00  0.7066E+00  0.7603E+01  0.7604E+01
      1.873  0.7915E+00  0.7945E+00  0.7709E+01  0.7711E+01
      2.007  0.8476E+00  0.8456E+00  0.7822E+01  0.7824E+01
      2.140  0.8315E+00  0.8326E+00  0.7934E+01  0.7935E+01
      2.274  0.1012E+01  0.1013E+01  0.8069E+01  0.8071E+01
      2.408  0.9869E+00  0.9887E+00  0.8201E+01  0.8203E+01
      2.541  0.1208E+01  0.1210E+01  0.8363E+01  0.8365E+01
      2.675  0.1428E+01  0.1433E+01  0.8554E+01  0.8557E+01
      2.808  0.1644E+01  0.1644E+01  0.8774E+01  0.8777E+01
      2.942  0.1630E+01  0.1631E+01  0.8992E+01  0.8995E+01
      3.076  0.1856E+01  0.1857E+01  0.9241E+01  0.9243E+01
      3.209  0.1717E+01  0.1715E+01  0.9470E+01  0.9473E+01
      3.343  0.1286E+01  0.1280E+01  0.9643E+01  0.9644E+01
      3.477  0.9090E+00  0.9071E+00  0.9765E+01  0.9766E+01
      3.610  0.7817E+00  0.7819E+00  0.9870E+01  0.9871E+01
      3.744  0.8470E+00  0.8476E+00  0.9983E+01  0.9984E+01
      3.877  0.9202E+00  0.9238E+00  0.1011E+02  0.1011E+02
      4.011  0.1323E+01  0.1329E+01  0.1028E+02  0.1029E+02
      4.145  0.1907E+01  0.1913E+01  0.1054E+02  0.1054E+02
      4.278  0.2162E+01  0.2164E+01  0.1083E+02  0.1083E+02
      4.412  0.2189E+01  0.2188E+01  0.1112E+02  0.1112E+02
      4.546  0.2049E+01  0.2045E+01  0.1139E+02  0.1140E+02
      4.679  0.1796E+01  0.1793E+01  0.1163E+02  0.1164E+02
      4.813  0.1765E+01  0.1764E+01  0.1187E+02  0.1187E+02
      4.946  0.1518E+01  0.1515E+01  0.1207E+02  0.1208E+02
      5.080  0.1634E+01  0.1636E+01  0.1229E+02  0.1230E+02
      5.214  0.1789E+01  0.1788E+01  0.1253E+02  0.1253E+02
      5.347  0.1555E+01  0.1551E+01  0.1274E+02  0.1274E+02
      5.481  0.1126E+01  0.1122E+01  0.1289E+02  0.1289E+02
      5.615  0.9050E+00  0.9028E+00  0.1301E+02  0.1301E+02
      5.748  0.8261E+00  0.8261E+00  0.1312E+02  0.1312E+02
      5.882  0.7513E+00  0.7503E+00  0.1322E+02  0.1323E+02
      6.015  0.7895E+00  0.7906E+00  0.1333E+02  0.1333E+02
      6.149  0.8542E+00  0.8531E+00  0.1344E+02  0.1345E+02
      6.283  0.6531E+00  0.6527E+00  0.1353E+02  0.1353E+02
      6.416  0.7712E+00  0.7719E+00  0.1363E+02  0.1364E+02
      6.550  0.8095E+00  0.8098E+00  0.1374E+02  0.1374E+02
      6.684  0.8281E+00  0.8271E+00  0.1385E+02  0.1385E+02
      6.817  0.6966E+00  0.6969E+00  0.1395E+02  0.1395E+02
      6.951  0.8531E+00  0.8538E+00  0.1406E+02  0.1406E+02
      7.084  0.8735E+00  0.8733E+00  0.1418E+02  0.1418E+02
      7.218  0.8204E+00  0.8194E+00  0.1429E+02  0.1429E+02
      7.352  0.7913E+00  0.7918E+00  0.1439E+02  0.1439E+02
      7.485  0.1041E+01  0.1041E+01  0.1453E+02  0.1453E+02
      7.619  0.1015E+01  0.1014E+01  0.1467E+02  0.1467E+02
      7.753  0.1199E+01  0.1203E+01  0.1483E+02  0.1483E+02
      7.886  0.1545E+01  0.1541E+01  0.1504E+02  0.1504E+02
      8.020  0.1425E+01  0.1416E+01  0.1523E+02  0.1523E+02
      8.154  0.1089E+01  0.1084E+01  0.1537E+02  0.1537E+02
      8.287  0.8846E+00  0.9025E+00  0.1549E+02  0.1549E+02
      8.421  0.9535E+00  0.9438E+00  0.1562E+02  0.1562E+02
      8.554  0.1072E+01  0.1062E+01  0.1576E+02  0.1576E+02
      8.688  0.7783E+00  0.7434E+00  0.1587E+02  0.1586E+02
      8.822  0.6499E+00  0.6541E+00  0.1595E+02  0.1595E+02
      8.955  0.3046E+00  0.3401E+00  0.1599E+02  0.1599E+02
      9.089  0.3627E-01  0.4320E-01  0.1600E+02  0.1600E+02
      9.223  0.1045E-02  0.1387E-02  0.1600E+02  0.1600E+02
      9.356  0.0000E+00  0.0000E+00  0.1600E+02  0.1600E+02
      9.490  0.0000E+00  0.0000E+00  0.1600E+02  0.1600E+02
      9.623  0.0000E+00  0.0000E+00  0.1600E+02  0.1600E+02
      9.757  0.0000E+00  0.0000E+00  0.1600E+02  0.1600E+02
      9.891  0.0000E+00  0.0000E+00  0.1600E+02  0.1600E+02
     10.024  0.0000E+00  0.0000E+00  0.1600E+02  0.1600E+02
     10.158  0.0000E+00  0.0000E+00  0.1600E+02  0.1600E+02
     10.292  0.0000E+00  0.0000E+00  0.1600E+02  0.1600E+02
     10.425  0.0000E+00  0.0000E+00  0.1600E+02  0.1600E+02
     10.559  0.0000E+00  0.0000E+00  0.1600E+02  0.1600E+02
     10.692  0.0000E+00  0.0000E+00  0.1600E+02  0.1600E+02
     10.69245291    -29.39595586  301      3.76354792      1.00000000
    -29.396  0.0000E+00  0.0000E+00  0.0000E+00  0.0000E+00  0.0000E+00  0.0000E+00  0.0000E+00  0.0000E+00  0.0000E+00  0.0000E+00  0.0000E+00  0.0000E+00  0.0000E+00  0.0000E+00  0.0000E+00  0.0000E+00  0.0000E+00  0.0000E+00
    -29.262  0.0000E+00  0.0000E+00  0.0000E+00  0.0000E+00  0.0000E+00  0.0000E+00  0.0000E+00  0.0000E+00  0.0000E+00  0.0000E+00  0.0000E+00  0.0000E+00  0.0000E+00  0.0000E+00  0.0000E+00  0.0000E+00  0.0000E+00  0.0000E+00
    -29.129  0.0000E+00  0.0000E+00  0.0000E+00  0.0000E+00  0.0000E+00  0.0000E+00  0.0000E+00  0.0000E+00  0.0000E+00  0.0000E+00  0.0000E+00  0.0000E+00  0.0000E+00  0.0000E+00  0.0000E+00  0.0000E+00  0.0000E+00  0.0000E+00
    -28.995  0.0000E+00  0.0000E+00  0.0000E+00  0.0000E+00  0.0000E+00  0.0000E+00  0.0000E+00  0.0000E+00  0.0000E+00  0.0000E+00  0.0000E+00  0.0000E+00  0.0000E+00  0.0000E+00  0.0000E+00  0.0000E+00  0.0000E+00  0.0000E+00
    -28.861  0.0000E+00  0.0000E+00  0.0000E+00  0.0000E+00  0.0000E+00  0.0000E+00  0.0000E+00  0.0000E+00  0.0000E+00  0.0000E+00  0.0000E+00  0.0000E+00  0.0000E+00  0.0000E+00  0.0000E+00  0.0000E+00  0.0000E+00  0.0000E+00
    -28.728  0.0000E+00  0.0000E+00  0.0000E+00  0.0000E+00  0.0000E+00  0.0000E+00  0.0000E+00  0.0000E+00  0.0000E+00  0.0000E+00  0.0000E+00  0.0000E+00  0.0000E+00  0.0000E+00  0.0000E+00  0.0000E+00  0.0000E+00  0.0000E+00
    -28.594  0.0000E+00  0.0000E+00  0.0000E+00  0.0000E+00  0.0000E+00  0.0000E+00  0.0000E+00  0.0000E+00  0.0000E+00  0.0000E+00  0.0000E+00  0.0000E+00  0.0000E+00  0.0000E+00  0.0000E+00  0.0000E+00  0.0000E+00  0.0000E+00
    -28.461  0.0000E+00  0.0000E+00  0.0000E+00  0.0000E+00  0.0000E+00  0.0000E+00  0.0000E+00  0.0000E+00  0.0000E+00  0.0000E+00  0.0000E+00  0.0000E+00  0.0000E+00  0.0000E+00  0.0000E+00  0.0000E+00  0.0000E+00  0.0000E+00
    -28.327  0.0000E+00  0.0000E+00  0.0000E+00  0.0000E+00  0.0000E+00  0.0000E+00  0.0000E+00  0.0000E+00  0.0000E+00  0.0000E+00  0.0000E+00  0.0000E+00  0.0000E+00  0.0000E+00  0.0000E+00  0.0000E+00  0.0000E+00  0.0000E+00
    -28.193  0.0000E+00  0.0000E+00  0.0000E+00  0.0000E+00  0.0000E+00  0.0000E+00  0.0000E+00  0.0000E+00  0.0000E+00  0.0000E+00  0.0000E+00  0.0000E+00  0.0000E+00  0.0000E+00  0.0000E+00  0.0000E+00  0.0000E+00  0.0000E+00
    -28.060  0.6979E-10  0.6999E-10  0.3663E-08  0.3679E-08  0.4785E-05  0.4809E-05  0.3663E-08  0.3679E-08  0.7797E-12  0.7805E-12  0.7167E-10  0.7197E-10  0.1430E-10  0.1438E-10  0.7167E-10  0.7197E-10  0.7797E-12  0.7805E-12
    -27.926  0.2200E-07  0.2203E-07  0.1274E-03  0.1277E-03  0.3153E-03  0.3167E-03  0.1274E-03  0.1277E-03  0.5590E-08  0.5600E-08  0.8439E-08  0.8472E-08  0.5197E-08  0.5207E-08  0.8439E-08  0.8472E-08  0.5590E-08  0.5600E-08
    -27.792  0.3384E-06  0.3388E-06  0.1904E-02  0.1909E-02  0.4474E-02  0.4495E-02  0.1904E-02  0.1909E-02  0.8291E-07  0.8307E-07  0.1253E-06  0.1258E-06  0.8632E-07  0.8649E-07  0.1253E-06  0.1258E-06  0.8291E-07  0.8307E-07
    -27.659  0.4766E-05  0.4771E-05  0.2717E-01  0.2724E-01  0.6221E-01  0.6248E-01  0.2717E-01  0.2724E-01  0.1183E-05  0.1185E-05  0.1763E-05  0.1769E-05  0.1225E-05  0.1227E-05  0.1763E-05  0.1769E-05  0.1183E-05  0.1185E-05
    -27.525  0.5403E-04  0.5404E-04  0.3017E+00  0.3023E+00  0.5973E+00  0.5991E+00  0.3017E+00  0.3023E+00  0.1339E-04  0.1341E-04  0.1842E-04  0.1847E-04  0.1399E-04  0.1401E-04  0.1842E-04  0.1847E-04  0.1339E-04  0.1341E-04
    -27.392  0.2313E-03  0.2309E-03  0.1214E+01  0.1215E+01  0.1744E+01  0.1745E+01  0.1214E+01  0.1215E+01  0.5408E-04  0.5406E-04  0.6798E-04  0.6803E-04  0.6815E-04  0.6816E-04  0.6798E-04  0.6803E-04  0.5408E-04  0.5406E-04
    -27.258  0.2565E-03  0.2559E-03  0.2125E+01  0.2125E+01  0.2004E+01  0.2004E+01  0.2125E+01  0.2125E+01  0.9017E-04  0.9014E-04  0.1020E-03  0.1019E-03  0.1378E-03  0.1378E-03  0.1020E-03  0.1019E-03  0.9017E-04  0.9014E-04
    -27.124  0.1159E-03  0.1155E-03  0.2625E+01  0.2625E+01  0.2169E+01  0.2167E+01  0.2625E+01  0.2625E+01  0.8529E-04  0.8520E-04  0.9424E-04  0.9412E-04  0.1114E-03  0.1113E-03  0.9424E-04  0.9412E-04  0.8529E-04  0.8520E-04
    -26.991  0.2113E-04  0.2105E-04  0.9402E+00  0.9391E+00  0.6865E+00  0.6847E+00  0.9402E+00  0.9391E+00  0.2265E-04  0.2260E-04  0.2499E-04  0.2492E-04  0.2564E-04  0.2558E-04  0.2499E-04  0.2492E-04  0.2265E-04  0.2260E-04
    -26.857  0.1439E-05  0.1433E-05  0.9403E-01  0.9386E-01  0.6379E-01  0.6349E-01  0.9403E-01  0.9386E-01  0.1950E-05  0.1943E-05  0.2132E-05  0.2121E-05  0.1992E-05  0.1986E-05  0.2132E-05  0.2121E-05  0.1950E-05  0.1943E-05
    -26.723  0.5208E-08  0.5207E-08  0.1308E-02  0.1306E-02  0.3259E-03  0.3243E-03  0.1308E-02  0.1306E-02  0.1531E-07  0.1527E-07  0.6116E-08  0.6100E-08  0.4986E-08  0.4966E-08  0.6116E-08  0.6100E-08  0.1531E-07  0.1527E-07
    -26.590  0.0000E+00  0.0000E+00  0.0000E+00  0.0000E+00  0.0000E+00  0.0000E+00  0.0000E+00  0.0000E+00  0.0000E+00  0.0000E+00  0.0000E+00  0.0000E+00  0.0000E+00  0.0000E+00  0.0000E+00  0.0000E+00  0.0000E+00  0.0000E+00
    -26.456  0.0000E+00  0.0000E+00  0.0000E+00  0.0000E+00  0.0000E+00  0.0000E+00  0.0000E+00  0.0000E+00  0.0000E+00  0.0000E+00  0.0000E+00  0.0000E+00  0.0000E+00  0.0000E+00  0.0000E+00  0.0000E+00  0.0000E+00  0.0000E+00
    -26.323  0.0000E+00  0.0000E+00  0.0000E+00  0.0000E+00  0.0000E+00  0.0000E+00  0.0000E+00  0.0000E+00  0.0000E+00  0.0000E+00  0.0000E+00  0.0000E+00  0.0000E+00  0.0000E+00  0.0000E+00  0.0000E+00  0.0000E+00  0.0000E+00
    -26.189  0.0000E+00  0.0000E+00  0.0000E+00  0.0000E+00  0.0000E+00  0.0000E+00  0.0000E+00  0.0000E+00  0.0000E+00  0.0000E+00  0.0000E+00  0.0000E+00  0.0000E+00  0.0000E+00  0.0000E+00  0.0000E+00  0.0000E+00  0.0000E+00
    -26.055  0.0000E+00  0.0000E+00  0.0000E+00  0.0000E+00  0.0000E+00  0.0000E+00  0.0000E+00  0.0000E+00  0.0000E+00  0.0000E+00  0.0000E+00  0.0000E+00  0.0000E+00  0.0000E+00  0.0000E+00  0.0000E+00  0.0000E+00  0.0000E+00
    -25.922  0.0000E+00  0.0000E+00  0.0000E+00  0.0000E+00  0.0000E+00  0.0000E+00  0.0000E+00  0.0000E+00  0.0000E+00  0.0000E+00  0.0000E+00  0.0000E+00  0.0000E+00  0.0000E+00  0.0000E+00  0.0000E+00  0.0000E+00  0.0000E+00
    -25.788  0.0000E+00  0.0000E+00  0.0000E+00  0.0000E+00  0.0000E+00  0.0000E+00  0.0000E+00  0.0000E+00  0.0000E+00  0.0000E+00  0.0000E+00  0.0000E+00  0.0000E+00  0.0000E+00  0.0000E+00  0.0000E+00  0.0000E+00  0.0000E+00
    -25.654  0.0000E+00  0.0000E+00  0.0000E+00  0.0000E+00  0.0000E+00  0.0000E+00  0.0000E+00  0.0000E+00  0.0000E+00  0.0000E+00  0.0000E+00  0.0000E+00  0.0000E+00  0.0000E+00  0.0000E+00  0.0000E+00  0.0000E+00  0.0000E+00
    -25.521  0.0000E+00  0.0000E+00  0.0000E+00  0.0000E+00  0.0000E+00  0.0000E+00  0.0000E+00  0.0000E+00  0.0000E+00  0.0000E+00  0.0000E+00  0.0000E+00  0.0000E+00  0.0000E+00  0.0000E+00  0.0000E+00  0.0000E+00  0.0000E+00
    -25.387  0.0000E+00  0.0000E+00  0.0000E+00  0.0000E+00  0.0000E+00  0.0000E+00  0.0000E+00  0.0000E+00  0.0000E+00  0.0000E+00  0.0000E+00  0.0000E+00  0.0000E+00  0.0000E+00  0.0000E+00  0.0000E+00  0.0000E+00  0.0000E+00
    -25.253  0.0000E+00  0.0000E+00  0.0000E+00  0.0000E+00  0.0000E+00  0.0000E+00  0.0000E+00  0.0000E+00  0.0000E+00  0.0000E+00  0.0000E+00  0.0000E+00  0.0000E+00  0.0000E+00  0.0000E+00  0.0000E+00  0.0000E+00  0.0000E+00
    -25.120  0.0000E+00  0.0000E+00  0.0000E+00  0.0000E+00  0.0000E+00  0.0000E+00  0.0000E+00  0.0000E+00  0.0000E+00  0.0000E+00  0.0000E+00  0.0000E+00  0.0000E+00  0.0000E+00  0.0000E+00  0.0000E+00  0.0000E+00  0.0000E+00
    -24.986  0.0000E+00  0.0000E+00  0.0000E+00  0.0000E+00  0.0000E+00  0.0000E+00  0.0000E+00  0.0000E+00  0.0000E+00  0.0000E+00  0.0000E+00  0.0000E+00  0.0000E+00  0.0000E+00  0.0000E+00  0.0000E+00  0.0000E+00  0.0000E+00
    -24.853  0.0000E+00  0.0000E+00  0.0000E+00  0.0000E+00  0.0000E+00  0.0000E+00  0.0000E+00  0.0000E+00  0.0000E+00  0.0000E+00  0.0000E+00  0.0000E+00  0.0000E+00  0.0000E+00  0.0000E+00  0.0000E+00  0.0000E+00  0.0000E+00
    -24.719  0.0000E+00  0.0000E+00  0.0000E+00  0.0000E+00  0.0000E+00  0.0000E+00  0.0000E+00  0.0000E+00  0.0000E+00  0.0000E+00  0.0000E+00  0.0000E+00  0.0000E+00  0.0000E+00  0.0000E+00  0.0000E+00  0.0000E+00  0.0000E+00
    -24.585  0.0000E+00  0.0000E+00  0.0000E+00  0.0000E+00  0.0000E+00  0.0000E+00  0.0000E+00  0.0000E+00  0.0000E+00  0.0000E+00  0.0000E+00  0.0000E+00  0.0000E+00  0.0000E+00  0.0000E+00  0.0000E+00  0.0000E+00  0.0000E+00
    -24.452  0.0000E+00  0.0000E+00  0.0000E+00  0.0000E+00  0.0000E+00  0.0000E+00  0.0000E+00  0.0000E+00  0.0000E+00  0.0000E+00  0.0000E+00  0.0000E+00  0.0000E+00  0.0000E+00  0.0000E+00  0.0000E+00  0.0000E+00  0.0000E+00
    -24.318  0.0000E+00  0.0000E+00  0.0000E+00  0.0000E+00  0.0000E+00  0.0000E+00  0.0000E+00  0.0000E+00  0.0000E+00  0.0000E+00  0.0000E+00  0.0000E+00  0.0000E+00  0.0000E+00  0.0000E+00  0.0000E+00  0.0000E+00  0.0000E+00
    -24.184  0.0000E+00  0.0000E+00  0.0000E+00  0.0000E+00  0.0000E+00  0.0000E+00  0.0000E+00  0.0000E+00  0.0000E+00  0.0000E+00  0.0000E+00  0.0000E+00  0.0000E+00  0.0000E+00  0.0000E+00  0.0000E+00  0.0000E+00  0.0000E+00
    -24.051  0.0000E+00  0.0000E+00  0.0000E+00  0.0000E+00  0.0000E+00  0.0000E+00  0.0000E+00  0.0000E+00  0.0000E+00  0.0000E+00  0.0000E+00  0.0000E+00  0.0000E+00  0.0000E+00  0.0000E+00  0.0000E+00  0.0000E+00  0.0000E+00
    -23.917  0.0000E+00  0.0000E+00  0.0000E+00  0.0000E+00  0.0000E+00  0.0000E+00  0.0000E+00  0.0000E+00  0.0000E+00  0.0000E+00  0.0000E+00  0.0000E+00  0.0000E+00  0.0000E+00  0.0000E+00  0.0000E+00  0.0000E+00  0.0000E+00
    -23.784  0.0000E+00  0.0000E+00  0.0000E+00  0.0000E+00  0.0000E+00  0.0000E+00  0.0000E+00  0.0000E+00  0.0000E+00  0.0000E+00  0.0000E+00  0.0000E+00  0.0000E+00  0.0000E+00  0.0000E+00  0.0000E+00  0.0000E+00  0.0000E+00
    -23.650  0.0000E+00  0.0000E+00  0.0000E+00  0.0000E+00  0.0000E+00  0.0000E+00  0.0000E+00  0.0000E+00  0.0000E+00  0.0000E+00  0.0000E+00  0.0000E+00  0.0000E+00  0.0000E+00  0.0000E+00  0.0000E+00  0.0000E+00  0.0000E+00
    -23.516  0.0000E+00  0.0000E+00  0.0000E+00  0.0000E+00  0.0000E+00  0.0000E+00  0.0000E+00  0.0000E+00  0.0000E+00  0.0000E+00  0.0000E+00  0.0000E+00  0.0000E+00  0.0000E+00  0.0000E+00  0.0000E+00  0.0000E+00  0.0000E+00
    -23.383  0.0000E+00  0.0000E+00  0.0000E+00  0.0000E+00  0.0000E+00  0.0000E+00  0.0000E+00  0.0000E+00  0.0000E+00  0.0000E+00  0.0000E+00  0.0000E+00  0.0000E+00  0.0000E+00  0.0000E+00  0.0000E+00  0.0000E+00  0.0000E+00
    -23.249  0.0000E+00  0.0000E+00  0.0000E+00  0.0000E+00  0.0000E+00  0.0000E+00  0.0000E+00  0.0000E+00  0.0000E+00  0.0000E+00  0.0000E+00  0.0000E+00  0.0000E+00  0.0000E+00  0.0000E+00  0.0000E+00  0.0000E+00  0.0000E+00
    -23.115  0.0000E+00  0.0000E+00  0.0000E+00  0.0000E+00  0.0000E+00  0.0000E+00  0.0000E+00  0.0000E+00  0.0000E+00  0.0000E+00  0.0000E+00  0.0000E+00  0.0000E+00  0.0000E+00  0.0000E+00  0.0000E+00  0.0000E+00  0.0000E+00
    -22.982  0.0000E+00  0.0000E+00  0.0000E+00  0.0000E+00  0.0000E+00  0.0000E+00  0.0000E+00  0.0000E+00  0.0000E+00  0.0000E+00  0.0000E+00  0.0000E+00  0.0000E+00  0.0000E+00  0.0000E+00  0.0000E+00  0.0000E+00  0.0000E+00
    -22.848  0.0000E+00  0.0000E+00  0.0000E+00  0.0000E+00  0.0000E+00  0.0000E+00  0.0000E+00  0.0000E+00  0.0000E+00  0.0000E+00  0.0000E+00  0.0000E+00  0.0000E+00  0.0000E+00  0.0000E+00  0.0000E+00  0.0000E+00  0.0000E+00
    -22.715  0.0000E+00  0.0000E+00  0.0000E+00  0.0000E+00  0.0000E+00  0.0000E+00  0.0000E+00  0.0000E+00  0.0000E+00  0.0000E+00  0.0000E+00  0.0000E+00  0.0000E+00  0.0000E+00  0.0000E+00  0.0000E+00  0.0000E+00  0.0000E+00