   2   2   1   0
  0.2178469E+02  0.3167225E-09  0.3167224E-09  0.5015255E-09  0.5000000E-15
  1.000000000000000E-004
  CAR 
 unknown system                          
     13.51212986    -27.83229472  301      5.10988000      1.00000000
    -27.832  0.0000E+00  0.0000E+00  0.0000E+00  0.0000E+00
    -27.694  0.0000E+00  0.0000E+00  0.0000E+00  0.0000E+00
    -27.557  0.0000E+00  0.0000E+00  0.0000E+00  0.0000E+00
    -27.419  0.0000E+00  0.0000E+00  0.0000E+00  0.0000E+00
    -27.281  0.0000E+00  0.0000E+00  0.0000E+00  0.0000E+00
    -27.143  0.0000E+00  0.0000E+00  0.0000E+00  0.0000E+00
    -27.005  0.0000E+00  0.0000E+00  0.0000E+00  0.0000E+00
    -26.868  0.0000E+00  0.0000E+00  0.0000E+00  0.0000E+00
    -26.730  0.0000E+00  0.0000E+00  0.0000E+00  0.0000E+00
    -26.592  0.0000E+00  0.0000E+00  0.0000E+00  0.0000E+00
    -26.454  0.1349E-05  0.1370E-05  0.1859E-06  0.1888E-06
    -26.316  0.1626E-03  0.1650E-03  0.2260E-04  0.2293E-04
    -26.179  0.3282E-02  0.3329E-02  0.4749E-03  0.4818E-03
    -26.041  0.4987E-01  0.5057E-01  0.7348E-02  0.7451E-02
    -25.903  0.6023E+00  0.6091E+00  0.9036E-01  0.9139E-01
    -25.765  0.3370E+01  0.3389E+01  0.5548E+00  0.5585E+00
    -25.627  0.5558E+01  0.5557E+01  0.1321E+01  0.1324E+01
    -25.489  0.4861E+01  0.4861E+01  0.1991E+01  0.1994E+01
    -25.352  0.5992E+01  0.6004E+01  0.2818E+01  0.2823E+01
    -25.214  0.9129E+01  0.9146E+01  0.4078E+01  0.4085E+01
    -25.076  0.9765E+01  0.9748E+01  0.5424E+01  0.5429E+01
    -24.938  0.3697E+01  0.3669E+01  0.5936E+01  0.5936E+01
    -24.800  0.4178E+00  0.4125E+00  0.5996E+01  0.5996E+01
    -24.663  0.1193E-01  0.1178E-01  0.6000E+01  0.6000E+01
    -24.525  0.0000E+00  0.0000E+00  0.6000E+01  0.6000E+01
    -24.387  0.0000E+00  0.0000E+00  0.6000E+01  0.6000E+01
    -24.249  0.0000E+00  0.0000E+00  0.6000E+01  0.6000E+01
    -24.111  0.0000E+00  0.0000E+00  0.6000E+01  0.6000E+01
    -23.973  0.0000E+00  0.0000E+00  0.6000E+01  0.6000E+01
    -23.836  0.0000E+00  0.0000E+00  0.6000E+01  0.6000E+01
    -23.698  0.0000E+00  0.0000E+00  0.6000E+01  0.6000E+01
    -23.560  0.0000E+00  0.0000E+00  0.6000E+01  0.6000E+01
    -23.422  0.0000E+00  0.0000E+00  0.6000E+01  0.6000E+01
    -23.284  0.0000E+00  0.0000E+00  0.6000E+01  0.6000E+01
    -23.147  0.0000E+00  0.0000E+00  0.6000E+01  0.6000E+01
    -23.009  0.0000E+00  0.0000E+00  0.6000E+01  0.6000E+01
    -22.871  0.0000E+00  0.0000E+00  0.6000E+01  0.6000E+01
    -22.733  0.0000E+00  0.0000E+00  0.6000E+01  0.6000E+01
    -22.595  0.0000E+00  0.0000E+00  0.6000E+01  0.6000E+01
    -22.458  0.0000E+00  0.0000E+00  0.6000E+01  0.6000E+01
    -22.320  0.0000E+00  0.0000E+00  0.6000E+01  0.6000E+01
    -22.182  0.0000E+00  0.0000E+00  0.6000E+01  0.6000E+01
    -22.044  0.0000E+00  0.0000E+00  0.6000E+01  0.6000E+01
    -21.906  0.0000E+00  0.0000E+00  0.6000E+01  0.6000E+01
    -21.768  0.0000E+00  0.0000E+00  0.6000E+01  0.6000E+01
    -21.631  0.0000E+00  0.0000E+00  0.6000E+01  0.6000E+01
    -21.493  0.0000E+00  0.0000E+00  0.6000E+01  0.6000E+01
    -21.355  0.0000E+00  0.0000E+00  0.6000E+01  0.6000E+01
    -21.217  0.0000E+00  0.0000E+00  0.6000E+01  0.6000E+01
    -21.079  0.0000E+00  0.0000E+00  0.6000E+01  0.6000E+01
    -20.942  0.0000E+00  0.0000E+00  0.6000E+01  0.6000E+01
    -20.804  0.0000E+00  0.0000E+00  0.6000E+01  0.6000E+01
    -20.666  0.0000E+00  0.0000E+00  0.6000E+01  0.6000E+01
    -20.528  0.0000E+00  0.0000E+00  0.6000E+01  0.6000E+01
    -20.390  0.0000E+00  0.0000E+00  0.6000E+01  0.6000E+01
    -20.252  0.0000E+00  0.0000E+00  0.6000E+01  0.6000E+01
    -20.115  0.0000E+00  0.0000E+00  0.6000E+01  0.6000E+01
    -19.977  0.0000E+00  0.0000E+00  0.6000E+01  0.6000E+01
    -19.839  0.0000E+00  0.0000E+00  0.6000E+01  0.6000E+01
    -19.701  0.0000E+00  0.0000E+00  0.6000E+01  0.6000E+01
    -19.563  0.0000E+00  0.0000E+00  0.6000E+01  0.6000E+01
    -19.426  0.0000E+00  0.0000E+00  0.6000E+01  0.6000E+01
    -19.288  0.0000E+00  0.0000E+00  0.6000E+01  0.6000E+01
    -19.150  0.0000E+00  0.0000E+00  0.6000E+01  0.6000E+01
    -19.012  0.0000E+00  0.0000E+00  0.6000E+01  0.6000E+01
    -18.874  0.0000E+00  0.0000E+00  0.6000E+01  0.6000E+01
    -18.737  0.0000E+00  0.0000E+00  0.6000E+01  0.6000E+01
    -18.599  0.0000E+00  0.0000E+00  0.6000E+01  0.6000E+01
    -18.461  0.0000E+00  0.0000E+00  0.6000E+01  0.6000E+01
    -18.323  0.0000E+00  0.0000E+00  0.6000E+01  0.6000E+01
    -18.185  0.0000E+00  0.0000E+00  0.6000E+01  0.6000E+01
    -18.047  0.0000E+00  0.0000E+00  0.6000E+01  0.6000E+01
    -17.910  0.0000E+00  0.0000E+00  0.6000E+01  0.6000E+01
    -17.772  0.0000E+00  0.0000E+00  0.6000E+01  0.6000E+01
    -17.634  0.0000E+00  0.0000E+00  0.6000E+01  0.6000E+01
    -17.496  0.0000E+00  0.0000E+00  0.6000E+01  0.6000E+01
    -17.358  0.0000E+00  0.0000E+00  0.6000E+01  0.6000E+01
    -17.221  0.0000E+00  0.0000E+00  0.6000E+01  0.6000E+01
    -17.083  0.0000E+00  0.0000E+00  0.6000E+01  0.6000E+01
    -16.945  0.0000E+00  0.0000E+00  0.6000E+01  0.6000E+01
    -16.807  0.0000E+00  0.0000E+00  0.6000E+01  0.6000E+01
    -16.669  0.0000E+00  0.0000E+00  0.6000E+01  0.6000E+01
    -16.531  0.0000E+00  0.0000E+00  0.6000E+01  0.6000E+01
    -16.394  0.0000E+00  0.0000E+00  0.6000E+01  0.6000E+01
    -16.256  0.0000E+00  0.0000E+00  0.6000E+01  0.6000E+01
    -16.118  0.0000E+00  0.0000E+00  0.6000E+01  0.6000E+01
    -15.980  0.0000E+00  0.0000E+00  0.6000E+01  0.6000E+01
    -15.842  0.0000E+00  0.0000E+00  0.6000E+01  0.6000E+01
    -15.705  0.0000E+00  0.0000E+00  0.6000E+01  0.6000E+01
    -15.567  0.0000E+00  0.0000E+00  0.6000E+01  0.6000E+01
    -15.429  0.0000E+00  0.0000E+00  0.6000E+01  0.6000E+01
    -15.291  0.0000E+00  0.0000E+00  0.6000E+01  0.6000E+01
    -15.153  0.0000E+00  0.0000E+00  0.6000E+01  0.6000E+01
    -15.016  0.0000E+00  0.0000E+00  0.6000E+01  0.6000E+01
    -14.878  0.0000E+00  0.0000E+00  0.6000E+01  0.6000E+01
    -14.740  0.0000E+00  0.0000E+00  0.6000E+01  0.6000E+01
    -14.602  0.0000E+00  0.0000E+00  0.6000E+01  0.6000E+01
    -14.464  0.0000E+00  0.0000E+00  0.6000E+01  0.6000E+01
    -14.326  0.0000E+00  0.0000E+00  0.6000E+01  0.6000E+01
    -14.189  0.0000E+00  0.0000E+00  0.6000E+01  0.6000E+01
    -14.051  0.0000E+00  0.0000E+00  0.6000E+01  0.6000E+01
    -13.913  0.0000E+00  0.0000E+00  0.6000E+01  0.6000E+01
    -13.775  0.0000E+00  0.0000E+00  0.6000E+01  0.6000E+01
    -13.637  0.0000E+00  0.0000E+00  0.6000E+01  0.6000E+01
    -13.500  0.0000E+00  0.0000E+00  0.6000E+01  0.6000E+01
    -13.362  0.0000E+00  0.0000E+00  0.6000E+01  0.6000E+01
    -13.224  0.0000E+00  0.0000E+00  0.6000E+01  0.6000E+01
    -13.086  0.0000E+00  0.0000E+00  0.6000E+01  0.6000E+01
    -12.948  0.0000E+00  0.0000E+00  0.6000E+01  0.6000E+01
    -12.810  0.0000E+00  0.0000E+00  0.6000E+01  0.6000E+01
    -12.673  0.0000E+00  0.0000E+00  0.6000E+01  0.6000E+01
    -12.535  0.0000E+00  0.0000E+00  0.6000E+01  0.6000E+01
    -12.397  0.0000E+00  0.0000E+00  0.6000E+01  0.6000E+01
    -12.259  0.0000E+00  0.0000E+00  0.6000E+01  0.6000E+01
    -12.121  0.0000E+00  0.0000E+00  0.6000E+01  0.6000E+01
    -11.984  0.0000E+00  0.0000E+00  0.6000E+01  0.6000E+01
    -11.846  0.0000E+00  0.0000E+00  0.6000E+01  0.6000E+01
    -11.708  0.0000E+00  0.0000E+00  0.6000E+01  0.6000E+01
    -11.570  0.0000E+00  0.0000E+00  0.6000E+01  0.6000E+01
    -11.432  0.0000E+00  0.0000E+00  0.6000E+01  0.6000E+01
    -11.295  0.0000E+00  0.0000E+00  0.6000E+01  0.6000E+01
    -11.157  0.0000E+00  0.0000E+00  0.6000E+01  0.6000E+01
    -11.019  0.0000E+00  0.0000E+00  0.6000E+01  0.6000E+01
    -10.881  0.0000E+00  0.0000E+00  0.6000E+01  0.6000E+01
    -10.743  0.0000E+00  0.0000E+00  0.6000E+01  0.6000E+01
    -10.605  0.0000E+00  0.0000E+00  0.6000E+01  0.6000E+01
    -10.468  0.0000E+00  0.0000E+00  0.6000E+01  0.6000E+01
    -10.330  0.0000E+00  0.0000E+00  0.6000E+01  0.6000E+01
    -10.192  0.0000E+00  0.0000E+00  0.6000E+01  0.6000E+01
    -10.054  0.0000E+00  0.0000E+00  0.6000E+01  0.6000E+01
     -9.916  0.0000E+00  0.0000E+00  0.6000E+01  0.6000E+01
     -9.779  0.0000E+00  0.0000E+00  0.6000E+01  0.6000E+01
     -9.641  0.0000E+00  0.0000E+00  0.6000E+01  0.6000E+01
     -9.503  0.0000E+00  0.0000E+00  0.6000E+01  0.6000E+01
     -9.365  0.0000E+00  0.0000E+00  0.6000E+01  0.6000E+01
     -9.227  0.0000E+00  0.0000E+00  0.6000E+01  0.6000E+01
     -9.089  0.0000E+00  0.0000E+00  0.6000E+01  0.6000E+01
     -8.952  0.0000E+00  0.0000E+00  0.6000E+01  0.6000E+01
     -8.814  0.0000E+00  0.0000E+00  0.6000E+01  0.6000E+01
     -8.676  0.0000E+00  0.0000E+00  0.6000E+01  0.6000E+01
     -8.538  0.0000E+00  0.0000E+00  0.6000E+01  0.6000E+01
     -8.400  0.0000E+00  0.0000E+00  0.6000E+01  0.6000E+01
     -8.263  0.0000E+00  0.0000E+00  0.6000E+01  0.6000E+01
     -8.125  0.0000E+00  0.0000E+00  0.6000E+01  0.6000E+01
     -7.987  0.0000E+00  0.0000E+00  0.6000E+01  0.6000E+01
     -7.849  0.0000E+00  0.0000E+00  0.6000E+01  0.6000E+01
     -7.711  0.0000E+00  0.0000E+00  0.6000E+01  0.6000E+01
     -7.574  0.0000E+00  0.0000E+00  0.6000E+01  0.6000E+01
     -7.436  0.0000E+00  0.0000E+00  0.6000E+01  0.6000E+01
     -7.298  0.0000E+00  0.0000E+00  0.6000E+01  0.6000E+01
     -7.160  0.0000E+00  0.0000E+00  0.6000E+01  0.6000E+01
     -7.022  0.0000E+00  0.0000E+00  0.6000E+01  0.6000E+01
     -6.884  0.0000E+00  0.0000E+00  0.6000E+01  0.6000E+01
     -6.747  0.0000E+00  0.0000E+00  0.6000E+01  0.6000E+01
     -6.609  0.0000E+00  0.0000E+00  0.6000E+01  0.6000E+01
     -6.471  0.0000E+00  0.0000E+00  0.6000E+01  0.6000E+01
     -6.333  0.0000E+00  0.0000E+00  0.6000E+01  0.6000E+01
     -6.195  0.0000E+00  0.0000E+00  0.6000E+01  0.6000E+01
     -6.058  0.0000E+00  0.0000E+00  0.6000E+01  0.6000E+01
     -5.920  0.0000E+00  0.0000E+00  0.6000E+01  0.6000E+01
     -5.782  0.0000E+00  0.0000E+00  0.6000E+01  0.6000E+01
     -5.644  0.0000E+00  0.0000E+00  0.6000E+01  0.6000E+01
     -5.506  0.0000E+00  0.0000E+00  0.6000E+01  0.6000E+01
     -5.368  0.0000E+00  0.0000E+00  0.6000E+01  0.6000E+01
     -5.231  0.0000E+00  0.0000E+00  0.6000E+01  0.6000E+01
     -5.093  0.0000E+00  0.0000E+00  0.6000E+01  0.6000E+01
     -4.955  0.0000E+00  0.0000E+00  0.6000E+01  0.6000E+01
     -4.817  0.0000E+00  0.0000E+00  0.6000E+01  0.6000E+01
     -4.679  0.0000E+00  0.0000E+00  0.6000E+01  0.6000E+01
     -4.542  0.0000E+00  0.0000E+00  0.6000E+01  0.6000E+01
     -4.404  0.0000E+00  0.0000E+00  0.6000E+01  0.6000E+01
     -4.266  0.0000E+00  0.0000E+00  0.6000E+01  0.6000E+01
     -4.128  0.0000E+00  0.0000E+00  0.6000E+01  0.6000E+01
     -3.990  0.0000E+00  0.0000E+00  0.6000E+01  0.6000E+01
     -3.853  0.0000E+00  0.0000E+00  0.6000E+01  0.6000E+01
     -3.715  0.0000E+00  0.0000E+00  0.6000E+01  0.6000E+01
     -3.577  0.0000E+00  0.0000E+00  0.6000E+01  0.6000E+01
     -3.439  0.0000E+00  0.0000E+00  0.6000E+01  0.6000E+01
     -3.301  0.0000E+00  0.0000E+00  0.6000E+01  0.6000E+01
     -3.163  0.0000E+00  0.0000E+00  0.6000E+01  0.6000E+01
     -3.026  0.0000E+00  0.0000E+00  0.6000E+01  0.6000E+01
     -2.888  0.1417E-06  0.1451E-06  0.6000E+01  0.6000E+01
     -2.750  0.2513E-05  0.2573E-05  0.6000E+01  0.6000E+01
     -2.612  0.4410E-04  0.4514E-04  0.6000E+01  0.6000E+01
     -2.474  0.6508E-03  0.6649E-03  0.6000E+01  0.6000E+01
     -2.337  0.5288E-02  0.5360E-02  0.6001E+01  0.6001E+01
     -2.199  0.2131E-01  0.2152E-01  0.6004E+01  0.6004E+01
     -2.061  0.4396E-01  0.4408E-01  0.6010E+01  0.6010E+01
     -1.923  0.3518E-01  0.3502E-01  0.6015E+01  0.6015E+01
     -1.785  0.4888E-01  0.4931E-01  0.6021E+01  0.6022E+01
     -1.647  0.9612E-01  0.9618E-01  0.6035E+01  0.6035E+01
     -1.510  0.6964E-01  0.6940E-01  0.6044E+01  0.6044E+01
     -1.372  0.5887E-01  0.5893E-01  0.6052E+01  0.6052E+01
     -1.234  0.7970E-01  0.8011E-01  0.6063E+01  0.6064E+01
     -1.096  0.1261E+00  0.1263E+00  0.6081E+01  0.6081E+01
     -0.958  0.1033E+00  0.1030E+00  0.6095E+01  0.6095E+01
     -0.821  0.1067E+00  0.1073E+00  0.6110E+01  0.6110E+01
     -0.683  0.1672E+00  0.1670E+00  0.6133E+01  0.6133E+01
     -0.545  0.8817E-01  0.8779E-01  0.6145E+01  0.6145E+01
     -0.407  0.9411E-01  0.9432E-01  0.6158E+01  0.6158E+01
     -0.269  0.1742E+00  0.1754E+00  0.6182E+01  0.6182E+01
     -0.132  0.2246E+00  0.2242E+00  0.6213E+01  0.6213E+01
      0.006  0.1862E+00  0.1861E+00  0.6239E+01  0.6239E+01
      0.144  0.1698E+00  0.1696E+00  0.6262E+01  0.6262E+01
      0.282  0.1479E+00  0.1480E+00  0.6283E+01  0.6283E+01
      0.420  0.2119E+00  0.2124E+00  0.6312E+01  0.6312E+01
      0.558  0.2315E+00  0.2317E+00  0.6344E+01  0.6344E+01
      0.695  0.2854E+00  0.2858E+00  0.6383E+01  0.6384E+01
      0.833  0.3144E+00  0.3139E+00  0.6427E+01  0.6427E+01
      0.971  0.3347E+00  0.3351E+00  0.6473E+01  0.6473E+01
      1.109  0.4114E+00  0.4115E+00  0.6529E+01  0.6530E+01
      1.247  0.3138E+00  0.3128E+00  0.6573E+01  0.6573E+01
      1.384  0.4191E+00  0.4221E+00  0.6631E+01  0.6631E+01
      1.522  0.9083E+00  0.9109E+00  0.6756E+01  0.6757E+01
      1.660  0.8159E+00  0.8130E+00  0.6868E+01  0.6869E+01
      1.798  0.6069E+00  0.6064E+00  0.6952E+01  0.6953E+01
      1.936  0.6884E+00  0.6881E+00  0.7047E+01  0.7048E+01
      2.074  0.5412E+00  0.5406E+00  0.7122E+01  0.7123E+01
      2.211  0.6611E+00  0.6631E+00  0.7213E+01  0.7214E+01
      2.349  0.8605E+00  0.8613E+00  0.7332E+01  0.7333E+01
      2.487  0.8901E+00  0.8896E+00  0.7455E+01  0.7456E+01
      2.625  0.8184E+00  0.8172E+00  0.7568E+01  0.7569E+01
      2.763  0.6566E+00  0.6570E+00  0.7659E+01  0.7659E+01
      2.900  0.9626E+00  0.9639E+00  0.7791E+01  0.7792E+01
      3.038  0.1066E+01  0.1066E+01  0.7938E+01  0.7939E+01
      3.176  0.8383E+00  0.8352E+00  0.8054E+01  0.8055E+01
      3.314  0.5976E+00  0.5989E+00  0.8137E+01  0.8137E+01
      3.452  0.7869E+00  0.7874E+00  0.8245E+01  0.8246E+01
      3.589  0.8586E+00  0.8601E+00  0.8364E+01  0.8365E+01
      3.727  0.1135E+01  0.1137E+01  0.8520E+01  0.8522E+01
      3.865  0.1190E+01  0.1188E+01  0.8685E+01  0.8686E+01
      4.003  0.1145E+01  0.1147E+01  0.8842E+01  0.8844E+01
      4.141  0.1526E+01  0.1526E+01  0.9053E+01  0.9054E+01
      4.279  0.1486E+01  0.1486E+01  0.9258E+01  0.9260E+01
      4.416  0.1596E+01  0.1595E+01  0.9478E+01  0.9480E+01
      4.554  0.1219E+01  0.1215E+01  0.9647E+01  0.9647E+01
      4.692  0.6553E+00  0.6532E+00  0.9737E+01  0.9738E+01
      4.830  0.5888E+00  0.5892E+00  0.9819E+01  0.9819E+01
      4.968  0.6225E+00  0.6232E+00  0.9905E+01  0.9905E+01
      5.105  0.6653E+00  0.6658E+00  0.9997E+01  0.9997E+01
      5.243  0.7987E+00  0.8009E+00  0.1011E+02  0.1011E+02
      5.381  0.1336E+01  0.1341E+01  0.1029E+02  0.1029E+02
      5.519  0.1694E+01  0.1694E+01  0.1052E+02  0.1053E+02
      5.657  0.1501E+01  0.1499E+01  0.1073E+02  0.1073E+02
      5.795  0.1569E+01  0.1572E+01  0.1095E+02  0.1095E+02
      5.932  0.1713E+01  0.1711E+01  0.1119E+02  0.1119E+02
      6.070  0.1445E+01  0.1445E+01  0.1138E+02  0.1139E+02
      6.208  0.1634E+01  0.1636E+01  0.1161E+02  0.1161E+02
      6.346  0.1547E+01  0.1545E+01  0.1182E+02  0.1182E+02
      6.484  0.1495E+01  0.1495E+01  0.1203E+02  0.1203E+02
      6.621  0.1412E+01  0.1410E+01  0.1223E+02  0.1223E+02
      6.759  0.1473E+01  0.1473E+01  0.1243E+02  0.1243E+02
      6.897  0.1482E+01  0.1480E+01  0.1263E+02  0.1263E+02
      7.035  0.1085E+01  0.1083E+01  0.1278E+02  0.1278E+02
      7.173  0.8857E+00  0.8857E+00  0.1291E+02  0.1291E+02
      7.310  0.7800E+00  0.7781E+00  0.1301E+02  0.1301E+02
      7.448  0.6254E+00  0.6251E+00  0.1310E+02  0.1310E+02
      7.586  0.6040E+00  0.6035E+00  0.1318E+02  0.1318E+02
      7.724  0.6322E+00  0.6318E+00  0.1327E+02  0.1327E+02
      7.862  0.6778E+00  0.6781E+00  0.1336E+02  0.1336E+02
      8.000  0.6429E+00  0.6424E+00  0.1345E+02  0.1345E+02
      8.137  0.4287E+00  0.4287E+00  0.1351E+02  0.1351E+02
      8.275  0.5823E+00  0.5825E+00  0.1359E+02  0.1359E+02
      8.413  0.6395E+00  0.6393E+00  0.1368E+02  0.1368E+02
      8.551  0.6806E+00  0.6809E+00  0.1377E+02  0.1377E+02
      8.689  0.6442E+00  0.6436E+00  0.1386E+02  0.1386E+02
      8.826  0.4445E+00  0.4445E+00  0.1392E+02  0.1392E+02
      8.964  0.6228E+00  0.6232E+00  0.1401E+02  0.1401E+02
      9.102  0.6489E+00  0.6490E+00  0.1410E+02  0.1410E+02
      9.240  0.6456E+00  0.6454E+00  0.1419E+02  0.1419E+02
      9.378  0.6553E+00  0.6551E+00  0.1428E+02  0.1428E+02
      9.516  0.5621E+00  0.5621E+00  0.1436E+02  0.1436E+02
      9.653  0.7164E+00  0.7171E+00  0.1446E+02  0.1446E+02
      9.791  0.8116E+00  0.8118E+00  0.1457E+02  0.1457E+02
      9.929  0.7127E+00  0.7129E+00  0.1467E+02  0.1467E+02
     10.067  0.8402E+00  0.8406E+00  0.1478E+02  0.1478E+02
     10.205  0.1128E+01  0.1129E+01  0.1494E+02  0.1494E+02
     10.342  0.1151E+01  0.1151E+01  0.1510E+02  0.1510E+02
     10.480  0.1067E+01  0.1066E+01  0.1524E+02  0.1524E+02
     10.618  0.8223E+00  0.8208E+00  0.1536E+02  0.1536E+02
     10.756  0.6297E+00  0.6277E+00  0.1545E+02  0.1545E+02
     10.894  0.6256E+00  0.6208E+00  0.1553E+02  0.1553E+02
     11.031  0.8230E+00  0.8187E+00  0.1565E+02  0.1564E+02
     11.169  0.8702E+00  0.8698E+00  0.1577E+02  0.1576E+02
     11.307  0.5868E+00  0.6035E+00  0.1585E+02  0.1585E+02
     11.445  0.4929E+00  0.4767E+00  0.1591E+02  0.1591E+02
     11.583  0.4530E+00  0.4493E+00  0.1598E+02  0.1598E+02
     11.721  0.1477E+00  0.1606E+00  0.1600E+02  0.1600E+02
     11.858  0.1498E-01  0.1643E-01  0.1600E+02  0.1600E+02
     11.996  0.2911E-03  0.2913E-03  0.1600E+02  0.1600E+02
     12.134  0.0000E+00  0.0000E+00  0.1600E+02  0.1600E+02
     12.272  0.0000E+00  0.0000E+00  0.1600E+02  0.1600E+02
     12.410  0.0000E+00  0.0000E+00  0.1600E+02  0.1600E+02
     12.547  0.0000E+00  0.0000E+00  0.1600E+02  0.1600E+02
     12.685  0.0000E+00  0.0000E+00  0.1600E+02  0.1600E+02
     12.823  0.0000E+00  0.0000E+00  0.1600E+02  0.1600E+02
     12.961  0.0000E+00  0.0000E+00  0.1600E+02  0.1600E+02
     13.099  0.0000E+00  0.0000E+00  0.1600E+02  0.1600E+02
     13.237  0.0000E+00  0.0000E+00  0.1600E+02  0.1600E+02
     13.374  0.0000E+00  0.0000E+00  0.1600E+02  0.1600E+02
     13.512  0.0000E+00  0.0000E+00  0.1600E+02  0.1600E+02
     13.51212986    -27.83229472  301      5.10988000      1.00000000
    -27.832  0.0000E+00  0.0000E+00  0.0000E+00  0.0000E+00  0.0000E+00  0.0000E+00  0.0000E+00  0.0000E+00  0.0000E+00  0.0000E+00  0.0000E+00  0.0000E+00  0.0000E+00  0.0000E+00  0.0000E+00  0.0000E+00  0.0000E+00  0.0000E+00
    -27.694  0.0000E+00  0.0000E+00  0.0000E+00  0.0000E+00  0.0000E+00  0.0000E+00  0.0000E+00  0.0000E+00  0.0000E+00  0.0000E+00  0.0000E+00  0.0000E+00  0.0000E+00  0.0000E+00  0.0000E+00  0.0000E+00  0.0000E+00  0.0000E+00
    -27.557  0.0000E+00  0.0000E+00  0.0000E+00  0.0000E+00  0.0000E+00  0.0000E+00  0.0000E+00  0.0000E+00  0.0000E+00  0.0000E+00  0.0000E+00  0.0000E+00  0.0000E+00  0.0000E+00  0.0000E+00  0.0000E+00  0.0000E+00  0.0000E+00
    -27.419  0.0000E+00  0.0000E+00  0.0000E+00  0.0000E+00  0.0000E+00  0.0000E+00  0.0000E+00  0.0000E+00  0.0000E+00  0.0000E+00  0.0000E+00  0.0000E+00  0.0000E+00  0.0000E+00  0.0000E+00  0.0000E+00  0.0000E+00  0.0000E+00
    -27.281  0.0000E+00  0.0000E+00  0.0000E+00  0.0000E+00  0.0000E+00  0.0000E+00  0.0000E+00  0.0000E+00  0.0000E+00  0.0000E+00  0.0000E+00  0.0000E+00  0.0000E+00  0.0000E+00  0.0000E+00  0.0000E+00  0.0000E+00  0.0000E+00
    -27.143  0.0000E+00  0.0000E+00  0.0000E+00  0.0000E+00  0.0000E+00  0.0000E+00  0.0000E+00  0.0000E+00  0.0000E+00  0.0000E+00  0.0000E+00  0.0000E+00  0.0000E+00  0.0000E+00  0.0000E+00  0.0000E+00  0.0000E+00  0.0000E+00
    -27.005  0.0000E+00  0.0000E+00  0.0000E+00  0.0000E+00  0.0000E+00  0.0000E+00  0.0000E+00  0.0000E+00  0.0000E+00  0.0000E+00  0.0000E+00  0.0000E+00  0.0000E+00  0.0000E+00  0.0000E+00  0.0000E+00  0.0000E+00  0.0000E+00
    -26.868  0.0000E+00  0.0000E+00  0.0000E+00  0.0000E+00  0.0000E+00  0.0000E+00  0.0000E+00  0.0000E+00  0.0000E+00  0.0000E+00  0.0000E+00  0.0000E+00  0.0000E+00  0.0000E+00  0.0000E+00  0.0000E+00  0.0000E+00  0.0000E+00
    -26.730  0.0000E+00  0.0000E+00  0.0000E+00  0.0000E+00  0.0000E+00  0.0000E+00  0.0000E+00  0.0000E+00  0.0000E+00  0.0000E+00  0.0000E+00  0.0000E+00  0.0000E+00  0.0000E+00  0.0000E+00  0.0000E+00  0.0000E+00  0.0000E+00
    -26.592  0.0000E+00  0.0000E+00  0.0000E+00  0.0000E+00  0.0000E+00  0.0000E+00  0.0000E+00  0.0000E+00  0.0000E+00  0.0000E+00  0.0000E+00  0.0000E+00  0.0000E+00  0.0000E+00  0.0000E+00  0.0000E+00  0.0000E+00  0.0000E+00
    -26.454  0.1204E-10  0.1223E-10  0.1759E-18  0.1234E-18  0.6521E-06  0.6624E-06  0.1759E-18  0.1234E-18  0.1033E-21  0.1072E-21  0.1461E-10  0.1484E-10  0.3234E-11  0.3284E-11  0.1461E-10  0.1484E-10  0.1032E-21  0.1072E-21
    -26.316  0.6101E-08  0.6183E-08  0.1257E-04  0.1273E-04  0.5361E-04  0.5444E-04  0.1257E-04  0.1273E-04  0.1414E-08  0.1432E-08  0.3987E-08  0.4045E-08  0.1954E-08  0.1980E-08  0.3987E-08  0.4045E-08  0.1414E-08  0.1432E-08
    -26.179  0.1704E-06  0.1726E-06  0.3002E-03  0.3042E-03  0.9898E-03  0.1005E-02  0.3002E-03  0.3042E-03  0.4895E-07  0.4956E-07  0.8678E-07  0.8803E-07  0.5082E-07  0.5146E-07  0.8678E-07  0.8803E-07  0.4895E-07  0.4956E-07
    -26.041  0.2671E-05  0.2705E-05  0.4652E-02  0.4712E-02  0.1486E-01  0.1508E-01  0.4652E-02  0.4712E-02  0.7478E-06  0.7570E-06  0.1325E-05  0.1344E-05  0.7893E-06  0.7990E-06  0.1325E-05  0.1344E-05  0.7478E-06  0.7570E-06
    -25.903  0.3621E-04  0.3660E-04  0.6474E-01  0.6548E-01  0.1625E+00  0.1643E+00  0.6474E-01  0.6548E-01  0.1077E-04  0.1089E-04  0.1647E-04  0.1666E-04  0.1082E-04  0.1093E-04  0.1647E-04  0.1666E-04  0.1077E-04  0.1089E-04
    -25.765  0.2770E-03  0.2787E-03  0.4361E+00  0.4386E+00  0.7630E+00  0.7672E+00  0.4361E+00  0.4386E+00  0.8426E-04  0.8474E-04  0.9742E-04  0.9796E-04  0.7879E-04  0.7922E-04  0.9742E-04  0.9796E-04  0.8426E-04  0.8474E-04
    -25.627  0.7025E-03  0.7026E-03  0.8010E+00  0.8010E+00  0.1099E+01  0.1098E+01  0.8010E+00  0.8010E+00  0.1602E-03  0.1600E-03  0.1789E-03  0.1788E-03  0.1745E-03  0.1746E-03  0.1789E-03  0.1788E-03  0.1602E-03  0.1600E-03
    -25.489  0.7271E-03  0.7251E-03  0.7804E+00  0.7806E+00  0.8105E+00  0.8099E+00  0.7804E+00  0.7806E+00  0.1499E-03  0.1499E-03  0.1929E-03  0.1929E-03  0.2507E-03  0.2510E-03  0.1929E-03  0.1929E-03  0.1499E-03  0.1499E-03
    -25.352  0.5110E-03  0.5093E-03  0.1041E+01  0.1043E+01  0.8563E+00  0.8574E+00  0.1041E+01  0.1043E+01  0.2308E-03  0.2310E-03  0.2311E-03  0.2311E-03  0.3660E-03  0.3662E-03  0.2311E-03  0.2311E-03  0.2308E-03  0.2310E-03
    -25.214  0.3306E-03  0.3293E-03  0.1583E+01  0.1585E+01  0.1329E+01  0.1333E+01  0.1583E+01  0.1585E+01  0.2790E-03  0.2786E-03  0.2890E-03  0.2890E-03  0.3707E-03  0.3700E-03  0.2890E-03  0.2890E-03  0.2790E-03  0.2786E-03
    -25.076  0.1618E-03  0.1607E-03  0.1661E+01  0.1658E+01  0.1500E+01  0.1497E+01  0.1661E+01  0.1658E+01  0.1887E-03  0.1878E-03  0.2352E-03  0.2341E-03  0.2190E-03  0.2178E-03  0.2352E-03  0.2341E-03  0.1887E-03  0.1878E-03
    -24.938  0.3505E-04  0.3466E-04  0.6568E+00  0.6522E+00  0.5149E+00  0.5101E+00  0.6568E+00  0.6522E+00  0.5093E-04  0.5045E-04  0.6124E-04  0.6058E-04  0.5668E-04  0.5609E-04  0.6124E-04  0.6058E-04  0.5093E-04  0.5045E-04
    -24.800  0.2798E-05  0.2754E-05  0.7639E-01  0.7549E-01  0.5402E-01  0.5317E-01  0.7639E-01  0.7549E-01  0.4771E-05  0.4705E-05  0.5147E-05  0.5073E-05  0.5059E-05  0.4959E-05  0.5147E-05  0.5073E-05  0.4771E-05  0.4705E-05
    -24.663  0.3228E-07  0.3186E-07  0.2295E-02  0.2268E-02  0.1321E-02  0.1300E-02  0.2295E-02  0.2268E-02  0.9870E-07  0.9741E-07  0.6739E-07  0.6639E-07  0.7863E-07  0.7743E-07  0.6739E-07  0.6639E-07  0.9870E-07  0.9741E-07
    -24.525  0.0000E+00  0.0000E+00  0.0000E+00  0.0000E+00  0.0000E+00  0.0000E+00  0.0000E+00  0.0000E+00  0.0000E+00  0.0000E+00  0.0000E+00  0.0000E+00  0.0000E+00  0.0000E+00  0.0000E+00  0.0000E+00  0.0000E+00  0.0000E+00
    -24.387  0.0000E+00  0.0000E+00  0.0000E+00  0.0000E+00  0.0000E+00  0.0000E+00  0.0000E+00  0.0000E+00  0.0000E+00  0.0000E+00  0.0000E+00  0.0000E+00  0.0000E+00  0.0000E+00  0.0000E+00  0.0000E+00  0.0000E+00  0.0000E+00
    -24.249  0.0000E+00  0.0000E+00  0.0000E+00  0.0000E+00  0.0000E+00  0.0000E+00  0.0000E+00  0.0000E+00  0.0000E+00  0.0000E+00  0.0000E+00  0.0000E+00  0.0000E+00  0.0000E+00  0.0000E+00  0.0000E+00  0.0000E+00  0.0000E+00
    -24.111  0.0000E+00  0.0000E+00  0.0000E+00  0.0000E+00  0.0000E+00  0.0000E+00  0.0000E+00  0.0000E+00  0.0000E+00  0.0000E+00  0.0000E+00  0.0000E+00  0.0000E+00  0.0000E+00  0.0000E+00  0.0000E+00  0.0000E+00  0.0000E+00
    -23.973  0.0000E+00  0.0000E+00  0.0000E+00  0.0000E+00  0.0000E+00  0.0000E+00  0.0000E+00  0.0000E+00  0.0000E+00  0.0000E+00  0.0000E+00  0.0000E+00  0.0000E+00  0.0000E+00  0.0000E+00  0.0000E+00  0.0000E+00  0.0000E+00
    -23.836  0.0000E+00  0.0000E+00  0.0000E+00  0.0000E+00  0.0000E+00  0.0000E+00  0.0000E+00  0.0000E+00  0.0000E+00  0.0000E+00  0.0000E+00  0.0000E+00  0.0000E+00  0.0000E+00  0.0000E+00  0.0000E+00  0.0000E+00  0.0000E+00
    -23.698  0.0000E+00  0.0000E+00  0.0000E+00  0.0000E+00  0.0000E+00  0.0000E+00  0.0000E+00  0.0000E+00  0.0000E+00  0.0000E+00  0.0000E+00  0.0000E+00  0.0000E+00  0.0000E+00  0.0000E+00  0.0000E+00  0.0000E+00  0.0000E+00
    -23.560  0.0000E+00  0.0000E+00  0.0000E+00  0.0000E+00  0.0000E+00  0.0000E+00  0.0000E+00  0.0000E+00  0.0000E+00  0.0000E+00  0.0000E+00  0.0000E+00  0.0000E+00  0.0000E+00  0.0000E+00  0.0000E+00  0.0000E+00  0.0000E+00
    -23.422  0.0000E+00  0.0000E+00  0.0000E+00  0.0000E+00  0.0000E+00  0.0000E+00  0.0000E+00  0.0000E+00  0.0000E+00  0.0000E+00  0.0000E+00  0.0000E+00  0.0000E+00  0.0000E+00  0.0000E+00  0.0000E+00  0.0000E+00  0.0000E+00
    -23.284  0.0000E+00  0.0000E+00  0.0000E+00  0.0000E+00  0.0000E+00  0.0000E+00  0.0000E+00  0.0000E+00  0.0000E+00  0.0000E+00  0.0000E+00  0.0000E+00  0.0000E+00  0.0000E+00  0.0000E+00  0.0000E+00  0.0000E+00  0.0000E+00
    -23.147  0.0000E+00  0.0000E+00  0.0000E+00  0.0000E+00  0.0000E+00  0.0000E+00  0.0000E+00  0.0000E+00  0.0000E+00  0.0000E+00  0.0000E+00  0.0000E+00  0.0000E+00  0.0000E+00  0.0000E+00  0.0000E+00  0.0000E+00  0.0000E+00
    -23.009  0.0000E+00  0.0000E+00  0.0000E+00  0.0000E+00  0.0000E+00  0.0000E+00  0.0000E+00  0.0000E+00  0.0000E+00  0.0000E+00  0.0000E+00  0.0000E+00  0.0000E+00  0.0000E+00  0.0000E+00  0.0000E+00  0.0000E+00  0.0000E+00
    -22.871  0.0000E+00  0.0000E+00  0.0000E+00  0.0000E+00  0.0000E+00  0.0000E+00  0.0000E+00  0.0000E+00  0.0000E+00  0.0000E+00  0.0000E+00  0.0000E+00  0.0000E+00  0.0000E+00  0.0000E+00  0.0000E+00  0.0000E+00  0.0000E+00
    -22.733  0.0000E+00  0.0000E+00  0.0000E+00  0.0000E+00  0.0000E+00  0.0000E+00  0.0000E+00  0.0000E+00  0.0000E+00  0.0000E+00  0.0000E+00  0.0000E+00  0.0000E+00  0.0000E+00  0.0000E+00  0.0000E+00  0.0000E+00  0.0000E+00
    -22.595  0.0000E+00  0.0000E+00  0.0000E+00  0.0000E+00  0.0000E+00  0.0000E+00  0.0000E+00  0.0000E+00  0.0000E+00  0.0000E+00  0.0000E+00  0.0000E+00  0.0000E+00  0.0000E+00  0.0000E+00  0.0000E+00  0.0000E+00  0.0000E+00
    -22.458  0.0000E+00  0.0000E+00  0.0000E+00  0.0000E+00  0.0000E+00  0.0000E+00  0.0000E+00  0.0000E+00  0.0000E+00  0.0000E+00  0.0000E+00  0.0000E+00  0.0000E+00  0.0000E+00  0.0000E+00  0.0000E+00  0.0000E+00  0.0000E+00
    -22.320  0.0000E+00  0.0000E+00  0.0000E+00  0.0000E+00  0.0000E+00  0.0000E+00  0.0000E+00  0.0000E+00  0.0000E+00  0.0000E+00  0.0000E+00  0.0000E+00  0.0000E+00  0.0000E+00  0.0000E+00  0.0000E+00  0.0000E+00  0.0000E+00
    -22.182  0.0000E+00  0.0000E+00  0.0000E+00  0.0000E+00  0.0000E+00  0.0000E+00  0.0000E+00  0.0000E+00  0.0000E+00  0.0000E+00  0.0000E+00  0.0000E+00  0.0000E+00  0.0000E+00  0.0000E+00  0.0000E+00  0.0000E+00  0.0000E+00
    -22.044  0.0000E+00  0.0000E+00  0.0000E+00  0.0000E+00  0.0000E+00  0.0000E+00  0.0000E+00  0.0000E+00  0.0000E+00  0.0000E+00  0.0000E+00  0.0000E+00  0.0000E+00  0.0000E+00  0.0000E+00  0.0000E+00  0.0000E+00  0.0000E+00
    -21.906  0.0000E+00  0.0000E+00  0.0000E+00  0.0000E+00  0.0000E+00  0.0000E+00  0.0000E+00  0.0000E+00  0.0000E+00  0.0000E+00  0.0000E+00  0.0000E+00  0.0000E+00  0.0000E+00  0.0000E+00  0.0000E+00  0.0000E+00  0.0000E+00
    -21.768  0.0000E+00  0.0000E+00  0.0000E+00  0.0000E+00  0.0000E+00  0.0000E+00  0.0000E+00  0.0000E+00  0.0000E+00  0.0000E+00  0.0000E+00  0.0000E+00  0.0000E+00  0.0000E+00  0.0000E+00  0.0000E+00  0.0000E+00  0.0000E+00
    -21.631  0.0000E+00  0.0000E+00  0.0000E+00  0.0000E+00  0.0000E+00  0.0000E+00  0.0000E+00  0.0000E+00  0.0000E+00  0.0000E+00  0.0000E+00  0.0000E+00  0.0000E+00  0.0000E+00  0.0000E+00  0.0000E+00  0.0000E+00  0.0000E+00
    -21.493  0.0000E+00  0.0000E+00  0.0000E+00  0.0000E+00  0.0000E+00  0.0000E+00  0.0000E+00  0.0000E+00  0.0000E+00  0.0000E+00  0.0000E+00  0.0000E+00  0.0000E+00  0.0000E+00  0.0000E+00  0.0000E+00  0.0000E+00  0.0000E+00
    -21.355  0.0000E+00  0.0000E+00  0.0000E+00  0.0000E+00  0.0000E+00  0.0000E+00  0.0000E+00  0.0000E+00  0.0000E+00  0.0000E+00  0.0000E+00  0.0000E+00  0.0000E+00  0.0000E+00  0.0000E+00  0.0000E+00  0.0000E+00  0.0000E+00
    -21.217  0.0000E+00  0.0000E+00  0.0000E+00  0.0000E+00  0.0000E+00  0.0000E+00  0.0000E+00  0.0000E+00  0.0000E+00  0.0000E+00  0.0000E+00  0.0000E+00  0.0000E+00  0.0000E+00  0.0000E+00  0.0000E+00  0.0000E+00  0.0000E+00
    -21.079  0.0000E+00  0.0000E+00  0.0000E+00  0.0000E+00  0.0000E+00  0.0000E+00  0.0000E+00  0.0000E+00  0.0000E+00  0.0000E+00  0.0000E+00  0.0000E+00  0.0000E+00  0.0000E+00  0.0000E+00  0.0000E+00  0.0000E+00  0.0000E+00
    -20.942  0.0000E+00  0.0000E+00  0.0000E+00  0.0000E+00  0.0000E+00  0.0000E+00  0.0000E+00  0.0000E+00  0.0000E+00  0.0000E+00  0.0000E+00  0.0000E+00  0.0000E+00  0.0000E+00  0.0000E+00  0.0000E+00  0.0000E+00  0.0000E+00