   2   2   1   0
  0.2599045E+02  0.3359178E-09  0.3359177E-09  0.5319210E-09  0.5000000E-15
  1.000000000000000E-004
  CAR 
 unknown system                          
     11.05902768    -29.17377770  301      3.93738718      1.00000000
    -29.174  0.0000E+00  0.0000E+00  0.0000E+00  0.0000E+00
    -29.040  0.0000E+00  0.0000E+00  0.0000E+00  0.0000E+00
    -28.906  0.0000E+00  0.0000E+00  0.0000E+00  0.0000E+00
    -28.771  0.0000E+00  0.0000E+00  0.0000E+00  0.0000E+00
    -28.637  0.0000E+00  0.0000E+00  0.0000E+00  0.0000E+00
    -28.503  0.0000E+00  0.0000E+00  0.0000E+00  0.0000E+00
    -28.369  0.0000E+00  0.0000E+00  0.0000E+00  0.0000E+00
    -28.235  0.0000E+00  0.0000E+00  0.0000E+00  0.0000E+00
    -28.101  0.0000E+00  0.0000E+00  0.0000E+00  0.0000E+00
    -27.967  0.0000E+00  0.0000E+00  0.0000E+00  0.0000E+00
    -27.833  0.7673E-05  0.7696E-05  0.1029E-05  0.1032E-05
    -27.699  0.9300E-03  0.9321E-03  0.1258E-03  0.1260E-03
    -27.564  0.1372E-01  0.1375E-01  0.1965E-02  0.1970E-02
    -27.430  0.1950E+00  0.1954E+00  0.2811E-01  0.2817E-01
    -27.296  0.2066E+01  0.2069E+01  0.3051E+00  0.3056E+00
    -27.162  0.7549E+01  0.7552E+01  0.1317E+01  0.1318E+01
    -27.028  0.1067E+02  0.1067E+02  0.2749E+01  0.2750E+01
    -26.894  0.1478E+02  0.1478E+02  0.4731E+01  0.4732E+01
    -26.760  0.8208E+01  0.8203E+01  0.5834E+01  0.5835E+01
    -26.626  0.1128E+01  0.1127E+01  0.5988E+01  0.5988E+01
    -26.492  0.4754E-01  0.4749E-01  0.6000E+01  0.6000E+01
    -26.357  0.0000E+00  0.0000E+00  0.6000E+01  0.6000E+01
    -26.223  0.0000E+00  0.0000E+00  0.6000E+01  0.6000E+01
    -26.089  0.0000E+00  0.0000E+00  0.6000E+01  0.6000E+01
    -25.955  0.0000E+00  0.0000E+00  0.6000E+01  0.6000E+01
    -25.821  0.0000E+00  0.0000E+00  0.6000E+01  0.6000E+01
    -25.687  0.0000E+00  0.0000E+00  0.6000E+01  0.6000E+01
    -25.553  0.0000E+00  0.0000E+00  0.6000E+01  0.6000E+01
    -25.419  0.0000E+00  0.0000E+00  0.6000E+01  0.6000E+01
    -25.285  0.0000E+00  0.0000E+00  0.6000E+01  0.6000E+01
    -25.150  0.0000E+00  0.0000E+00  0.6000E+01  0.6000E+01
    -25.016  0.0000E+00  0.0000E+00  0.6000E+01  0.6000E+01
    -24.882  0.0000E+00  0.0000E+00  0.6000E+01  0.6000E+01
    -24.748  0.0000E+00  0.0000E+00  0.6000E+01  0.6000E+01
    -24.614  0.0000E+00  0.0000E+00  0.6000E+01  0.6000E+01
    -24.480  0.0000E+00  0.0000E+00  0.6000E+01  0.6000E+01
    -24.346  0.0000E+00  0.0000E+00  0.6000E+01  0.6000E+01
    -24.212  0.0000E+00  0.0000E+00  0.6000E+01  0.6000E+01
    -24.078  0.0000E+00  0.0000E+00  0.6000E+01  0.6000E+01
    -23.944  0.0000E+00  0.0000E+00  0.6000E+01  0.6000E+01
    -23.809  0.0000E+00  0.0000E+00  0.6000E+01  0.6000E+01
    -23.675  0.0000E+00  0.0000E+00  0.6000E+01  0.6000E+01
    -23.541  0.0000E+00  0.0000E+00  0.6000E+01  0.6000E+01
    -23.407  0.0000E+00  0.0000E+00  0.6000E+01  0.6000E+01
    -23.273  0.0000E+00  0.0000E+00  0.6000E+01  0.6000E+01
    -23.139  0.0000E+00  0.0000E+00  0.6000E+01  0.6000E+01
    -23.005  0.0000E+00  0.0000E+00  0.6000E+01  0.6000E+01
    -22.871  0.0000E+00  0.0000E+00  0.6000E+01  0.6000E+01
    -22.737  0.0000E+00  0.0000E+00  0.6000E+01  0.6000E+01
    -22.602  0.0000E+00  0.0000E+00  0.6000E+01  0.6000E+01
    -22.468  0.0000E+00  0.0000E+00  0.6000E+01  0.6000E+01
    -22.334  0.0000E+00  0.0000E+00  0.6000E+01  0.6000E+01
    -22.200  0.0000E+00  0.0000E+00  0.6000E+01  0.6000E+01
    -22.066  0.0000E+00  0.0000E+00  0.6000E+01  0.6000E+01
    -21.932  0.0000E+00  0.0000E+00  0.6000E+01  0.6000E+01
    -21.798  0.0000E+00  0.0000E+00  0.6000E+01  0.6000E+01
    -21.664  0.0000E+00  0.0000E+00  0.6000E+01  0.6000E+01
    -21.530  0.0000E+00  0.0000E+00  0.6000E+01  0.6000E+01
    -21.395  0.0000E+00  0.0000E+00  0.6000E+01  0.6000E+01
    -21.261  0.0000E+00  0.0000E+00  0.6000E+01  0.6000E+01
    -21.127  0.0000E+00  0.0000E+00  0.6000E+01  0.6000E+01
    -20.993  0.0000E+00  0.0000E+00  0.6000E+01  0.6000E+01
    -20.859  0.0000E+00  0.0000E+00  0.6000E+01  0.6000E+01
    -20.725  0.0000E+00  0.0000E+00  0.6000E+01  0.6000E+01
    -20.591  0.0000E+00  0.0000E+00  0.6000E+01  0.6000E+01
    -20.457  0.0000E+00  0.0000E+00  0.6000E+01  0.6000E+01
    -20.323  0.0000E+00  0.0000E+00  0.6000E+01  0.6000E+01
    -20.188  0.0000E+00  0.0000E+00  0.6000E+01  0.6000E+01
    -20.054  0.0000E+00  0.0000E+00  0.6000E+01  0.6000E+01
    -19.920  0.0000E+00  0.0000E+00  0.6000E+01  0.6000E+01
    -19.786  0.0000E+00  0.0000E+00  0.6000E+01  0.6000E+01
    -19.652  0.0000E+00  0.0000E+00  0.6000E+01  0.6000E+01
    -19.518  0.0000E+00  0.0000E+00  0.6000E+01  0.6000E+01
    -19.384  0.0000E+00  0.0000E+00  0.6000E+01  0.6000E+01
    -19.250  0.0000E+00  0.0000E+00  0.6000E+01  0.6000E+01
    -19.116  0.0000E+00  0.0000E+00  0.6000E+01  0.6000E+01
    -18.981  0.0000E+00  0.0000E+00  0.6000E+01  0.6000E+01
    -18.847  0.0000E+00  0.0000E+00  0.6000E+01  0.6000E+01
    -18.713  0.0000E+00  0.0000E+00  0.6000E+01  0.6000E+01
    -18.579  0.0000E+00  0.0000E+00  0.6000E+01  0.6000E+01
    -18.445  0.0000E+00  0.0000E+00  0.6000E+01  0.6000E+01
    -18.311  0.0000E+00  0.0000E+00  0.6000E+01  0.6000E+01
    -18.177  0.0000E+00  0.0000E+00  0.6000E+01  0.6000E+01
    -18.043  0.0000E+00  0.0000E+00  0.6000E+01  0.6000E+01
    -17.909  0.0000E+00  0.0000E+00  0.6000E+01  0.6000E+01
    -17.774  0.0000E+00  0.0000E+00  0.6000E+01  0.6000E+01
    -17.640  0.0000E+00  0.0000E+00  0.6000E+01  0.6000E+01
    -17.506  0.0000E+00  0.0000E+00  0.6000E+01  0.6000E+01
    -17.372  0.0000E+00  0.0000E+00  0.6000E+01  0.6000E+01
    -17.238  0.0000E+00  0.0000E+00  0.6000E+01  0.6000E+01
    -17.104  0.0000E+00  0.0000E+00  0.6000E+01  0.6000E+01
    -16.970  0.0000E+00  0.0000E+00  0.6000E+01  0.6000E+01
    -16.836  0.0000E+00  0.0000E+00  0.6000E+01  0.6000E+01
    -16.702  0.0000E+00  0.0000E+00  0.6000E+01  0.6000E+01
    -16.567  0.0000E+00  0.0000E+00  0.6000E+01  0.6000E+01
    -16.433  0.0000E+00  0.0000E+00  0.6000E+01  0.6000E+01
    -16.299  0.0000E+00  0.0000E+00  0.6000E+01  0.6000E+01
    -16.165  0.0000E+00  0.0000E+00  0.6000E+01  0.6000E+01
    -16.031  0.0000E+00  0.0000E+00  0.6000E+01  0.6000E+01
    -15.897  0.0000E+00  0.0000E+00  0.6000E+01  0.6000E+01
    -15.763  0.0000E+00  0.0000E+00  0.6000E+01  0.6000E+01
    -15.629  0.0000E+00  0.0000E+00  0.6000E+01  0.6000E+01
    -15.495  0.0000E+00  0.0000E+00  0.6000E+01  0.6000E+01
    -15.361  0.0000E+00  0.0000E+00  0.6000E+01  0.6000E+01
    -15.226  0.0000E+00  0.0000E+00  0.6000E+01  0.6000E+01
    -15.092  0.0000E+00  0.0000E+00  0.6000E+01  0.6000E+01
    -14.958  0.0000E+00  0.0000E+00  0.6000E+01  0.6000E+01
    -14.824  0.0000E+00  0.0000E+00  0.6000E+01  0.6000E+01
    -14.690  0.0000E+00  0.0000E+00  0.6000E+01  0.6000E+01
    -14.556  0.0000E+00  0.0000E+00  0.6000E+01  0.6000E+01
    -14.422  0.0000E+00  0.0000E+00  0.6000E+01  0.6000E+01
    -14.288  0.0000E+00  0.0000E+00  0.6000E+01  0.6000E+01
    -14.154  0.0000E+00  0.0000E+00  0.6000E+01  0.6000E+01
    -14.019  0.0000E+00  0.0000E+00  0.6000E+01  0.6000E+01
    -13.885  0.0000E+00  0.0000E+00  0.6000E+01  0.6000E+01
    -13.751  0.0000E+00  0.0000E+00  0.6000E+01  0.6000E+01
    -13.617  0.0000E+00  0.0000E+00  0.6000E+01  0.6000E+01
    -13.483  0.0000E+00  0.0000E+00  0.6000E+01  0.6000E+01
    -13.349  0.0000E+00  0.0000E+00  0.6000E+01  0.6000E+01
    -13.215  0.0000E+00  0.0000E+00  0.6000E+01  0.6000E+01
    -13.081  0.0000E+00  0.0000E+00  0.6000E+01  0.6000E+01
    -12.947  0.0000E+00  0.0000E+00  0.6000E+01  0.6000E+01
    -12.812  0.0000E+00  0.0000E+00  0.6000E+01  0.6000E+01
    -12.678  0.0000E+00  0.0000E+00  0.6000E+01  0.6000E+01
    -12.544  0.0000E+00  0.0000E+00  0.6000E+01  0.6000E+01
    -12.410  0.0000E+00  0.0000E+00  0.6000E+01  0.6000E+01
    -12.276  0.0000E+00  0.0000E+00  0.6000E+01  0.6000E+01
    -12.142  0.0000E+00  0.0000E+00  0.6000E+01  0.6000E+01
    -12.008  0.0000E+00  0.0000E+00  0.6000E+01  0.6000E+01
    -11.874  0.0000E+00  0.0000E+00  0.6000E+01  0.6000E+01
    -11.740  0.0000E+00  0.0000E+00  0.6000E+01  0.6000E+01
    -11.605  0.0000E+00  0.0000E+00  0.6000E+01  0.6000E+01
    -11.471  0.0000E+00  0.0000E+00  0.6000E+01  0.6000E+01
    -11.337  0.0000E+00  0.0000E+00  0.6000E+01  0.6000E+01
    -11.203  0.0000E+00  0.0000E+00  0.6000E+01  0.6000E+01
    -11.069  0.0000E+00  0.0000E+00  0.6000E+01  0.6000E+01
    -10.935  0.0000E+00  0.0000E+00  0.6000E+01  0.6000E+01
    -10.801  0.0000E+00  0.0000E+00  0.6000E+01  0.6000E+01
    -10.667  0.0000E+00  0.0000E+00  0.6000E+01  0.6000E+01
    -10.533  0.0000E+00  0.0000E+00  0.6000E+01  0.6000E+01
    -10.398  0.0000E+00  0.0000E+00  0.6000E+01  0.6000E+01
    -10.264  0.0000E+00  0.0000E+00  0.6000E+01  0.6000E+01
    -10.130  0.0000E+00  0.0000E+00  0.6000E+01  0.6000E+01
     -9.996  0.0000E+00  0.0000E+00  0.6000E+01  0.6000E+01
     -9.862  0.0000E+00  0.0000E+00  0.6000E+01  0.6000E+01
     -9.728  0.0000E+00  0.0000E+00  0.6000E+01  0.6000E+01
     -9.594  0.0000E+00  0.0000E+00  0.6000E+01  0.6000E+01
     -9.460  0.0000E+00  0.0000E+00  0.6000E+01  0.6000E+01
     -9.326  0.0000E+00  0.0000E+00  0.6000E+01  0.6000E+01
     -9.191  0.0000E+00  0.0000E+00  0.6000E+01  0.6000E+01
     -9.057  0.0000E+00  0.0000E+00  0.6000E+01  0.6000E+01
     -8.923  0.0000E+00  0.0000E+00  0.6000E+01  0.6000E+01
     -8.789  0.0000E+00  0.0000E+00  0.6000E+01  0.6000E+01
     -8.655  0.0000E+00  0.0000E+00  0.6000E+01  0.6000E+01
     -8.521  0.0000E+00  0.0000E+00  0.6000E+01  0.6000E+01
     -8.387  0.0000E+00  0.0000E+00  0.6000E+01  0.6000E+01
     -8.253  0.0000E+00  0.0000E+00  0.6000E+01  0.6000E+01
     -8.119  0.0000E+00  0.0000E+00  0.6000E+01  0.6000E+01
     -7.985  0.0000E+00  0.0000E+00  0.6000E+01  0.6000E+01
     -7.850  0.0000E+00  0.0000E+00  0.6000E+01  0.6000E+01
     -7.716  0.0000E+00  0.0000E+00  0.6000E+01  0.6000E+01
     -7.582  0.0000E+00  0.0000E+00  0.6000E+01  0.6000E+01
     -7.448  0.0000E+00  0.0000E+00  0.6000E+01  0.6000E+01
     -7.314  0.0000E+00  0.0000E+00  0.6000E+01  0.6000E+01
     -7.180  0.0000E+00  0.0000E+00  0.6000E+01  0.6000E+01
     -7.046  0.0000E+00  0.0000E+00  0.6000E+01  0.6000E+01
     -6.912  0.0000E+00  0.0000E+00  0.6000E+01  0.6000E+01
     -6.778  0.0000E+00  0.0000E+00  0.6000E+01  0.6000E+01
     -6.643  0.0000E+00  0.0000E+00  0.6000E+01  0.6000E+01
     -6.509  0.0000E+00  0.0000E+00  0.6000E+01  0.6000E+01
     -6.375  0.0000E+00  0.0000E+00  0.6000E+01  0.6000E+01
     -6.241  0.0000E+00  0.0000E+00  0.6000E+01  0.6000E+01
     -6.107  0.0000E+00  0.0000E+00  0.6000E+01  0.6000E+01
     -5.973  0.0000E+00  0.0000E+00  0.6000E+01  0.6000E+01
     -5.839  0.0000E+00  0.0000E+00  0.6000E+01  0.6000E+01
     -5.705  0.0000E+00  0.0000E+00  0.6000E+01  0.6000E+01
     -5.571  0.0000E+00  0.0000E+00  0.6000E+01  0.6000E+01
     -5.436  0.0000E+00  0.0000E+00  0.6000E+01  0.6000E+01
     -5.302  0.0000E+00  0.0000E+00  0.6000E+01  0.6000E+01
     -5.168  0.0000E+00  0.0000E+00  0.6000E+01  0.6000E+01
     -5.034  0.0000E+00  0.0000E+00  0.6000E+01  0.6000E+01
     -4.900  0.0000E+00  0.0000E+00  0.6000E+01  0.6000E+01
     -4.766  0.0000E+00  0.0000E+00  0.6000E+01  0.6000E+01
     -4.632  0.0000E+00  0.0000E+00  0.6000E+01  0.6000E+01
     -4.498  0.0000E+00  0.0000E+00  0.6000E+01  0.6000E+01
     -4.364  0.0000E+00  0.0000E+00  0.6000E+01  0.6000E+01
     -4.229  0.0000E+00  0.0000E+00  0.6000E+01  0.6000E+01
     -4.095  0.0000E+00  0.0000E+00  0.6000E+01  0.6000E+01
     -3.961  0.0000E+00  0.0000E+00  0.6000E+01  0.6000E+01
     -3.827  0.0000E+00  0.0000E+00  0.6000E+01  0.6000E+01
     -3.693  0.0000E+00  0.0000E+00  0.6000E+01  0.6000E+01
     -3.559  0.0000E+00  0.0000E+00  0.6000E+01  0.6000E+01
     -3.425  0.2143E-06  0.2205E-06  0.6000E+01  0.6000E+01
     -3.291  0.4750E-05  0.4886E-05  0.6000E+01  0.6000E+01
     -3.157  0.7121E-04  0.7323E-04  0.6000E+01  0.6000E+01
     -3.022  0.9589E-03  0.9841E-03  0.6000E+01  0.6000E+01
     -2.888  0.7927E-02  0.8072E-02  0.6001E+01  0.6001E+01
     -2.754  0.3170E-01  0.3203E-01  0.6005E+01  0.6006E+01
     -2.620  0.5121E-01  0.5118E-01  0.6012E+01  0.6012E+01
     -2.486  0.4795E-01  0.4821E-01  0.6019E+01  0.6019E+01
     -2.352  0.9929E-01  0.9970E-01  0.6032E+01  0.6032E+01
     -2.218  0.8849E-01  0.8812E-01  0.6044E+01  0.6044E+01
     -2.084  0.7411E-01  0.7420E-01  0.6054E+01  0.6054E+01
     -1.950  0.1097E+00  0.1103E+00  0.6069E+01  0.6069E+01
     -1.815  0.1416E+00  0.1414E+00  0.6088E+01  0.6088E+01
     -1.681  0.1136E+00  0.1137E+00  0.6103E+01  0.6103E+01
     -1.547  0.1726E+00  0.1731E+00  0.6126E+01  0.6126E+01
     -1.413  0.1245E+00  0.1236E+00  0.6143E+01  0.6143E+01
     -1.279  0.1122E+00  0.1126E+00  0.6158E+01  0.6158E+01
     -1.145  0.1999E+00  0.2012E+00  0.6185E+01  0.6185E+01
     -1.011  0.2383E+00  0.2377E+00  0.6217E+01  0.6217E+01
     -0.877  0.1965E+00  0.1963E+00  0.6243E+01  0.6243E+01
     -0.743  0.1772E+00  0.1771E+00  0.6267E+01  0.6267E+01
     -0.608  0.1881E+00  0.1886E+00  0.6292E+01  0.6293E+01
     -0.474  0.2490E+00  0.2496E+00  0.6326E+01  0.6326E+01
     -0.340  0.2747E+00  0.2746E+00  0.6363E+01  0.6363E+01
     -0.206  0.2823E+00  0.2828E+00  0.6401E+01  0.6401E+01
     -0.072  0.3243E+00  0.3248E+00  0.6444E+01  0.6445E+01
      0.062  0.3402E+00  0.3399E+00  0.6490E+01  0.6490E+01
      0.196  0.3454E+00  0.3455E+00  0.6536E+01  0.6537E+01
      0.330  0.2521E+00  0.2507E+00  0.6570E+01  0.6570E+01
      0.464  0.4013E+00  0.4052E+00  0.6624E+01  0.6625E+01
      0.598  0.7519E+00  0.7532E+00  0.6725E+01  0.6726E+01
      0.733  0.7036E+00  0.7020E+00  0.6819E+01  0.6820E+01
      0.867  0.5785E+00  0.5779E+00  0.6897E+01  0.6898E+01
      1.001  0.6041E+00  0.6051E+00  0.6978E+01  0.6979E+01
      1.135  0.7728E+00  0.7744E+00  0.7082E+01  0.7083E+01
      1.269  0.7376E+00  0.7360E+00  0.7181E+01  0.7182E+01
      1.403  0.6516E+00  0.6510E+00  0.7269E+01  0.7269E+01
      1.537  0.6505E+00  0.6497E+00  0.7356E+01  0.7357E+01
      1.671  0.7435E+00  0.7458E+00  0.7456E+01  0.7457E+01
      1.805  0.8212E+00  0.8192E+00  0.7566E+01  0.7567E+01
      1.940  0.6683E+00  0.6694E+00  0.7656E+01  0.7657E+01
      2.074  0.8835E+00  0.8842E+00  0.7775E+01  0.7776E+01
      2.208  0.8506E+00  0.8492E+00  0.7889E+01  0.7890E+01
      2.342  0.9576E+00  0.9582E+00  0.8017E+01  0.8019E+01
      2.476  0.9212E+00  0.9210E+00  0.8141E+01  0.8142E+01
      2.610  0.1061E+01  0.1064E+01  0.8284E+01  0.8285E+01
      2.744  0.1208E+01  0.1210E+01  0.8446E+01  0.8447E+01
      2.878  0.1541E+01  0.1543E+01  0.8653E+01  0.8655E+01
      3.012  0.1548E+01  0.1548E+01  0.8861E+01  0.8863E+01
      3.147  0.1691E+01  0.1693E+01  0.9088E+01  0.9090E+01
      3.281  0.1796E+01  0.1795E+01  0.9329E+01  0.9331E+01
      3.415  0.1584E+01  0.1581E+01  0.9542E+01  0.9543E+01
      3.549  0.1074E+01  0.1070E+01  0.9686E+01  0.9687E+01
      3.683  0.8162E+00  0.8156E+00  0.9796E+01  0.9797E+01
      3.817  0.7831E+00  0.7833E+00  0.9902E+01  0.9902E+01
      3.951  0.8128E+00  0.8131E+00  0.1001E+02  0.1001E+02
      4.085  0.9666E+00  0.9703E+00  0.1014E+02  0.1014E+02
      4.219  0.1436E+01  0.1441E+01  0.1033E+02  0.1034E+02
      4.354  0.1931E+01  0.1934E+01  0.1059E+02  0.1059E+02
      4.488  0.2072E+01  0.2074E+01  0.1087E+02  0.1087E+02
      4.622  0.2110E+01  0.2109E+01  0.1115E+02  0.1116E+02
      4.756  0.1961E+01  0.1958E+01  0.1142E+02  0.1142E+02
      4.890  0.1758E+01  0.1756E+01  0.1165E+02  0.1166E+02
      5.024  0.1729E+01  0.1727E+01  0.1189E+02  0.1189E+02
      5.158  0.1474E+01  0.1473E+01  0.1208E+02  0.1209E+02
      5.292  0.1593E+01  0.1595E+01  0.1230E+02  0.1230E+02
      5.426  0.1750E+01  0.1749E+01  0.1253E+02  0.1253E+02
      5.561  0.1515E+01  0.1511E+01  0.1274E+02  0.1274E+02
      5.695  0.1100E+01  0.1097E+01  0.1288E+02  0.1289E+02
      5.829  0.8913E+00  0.8894E+00  0.1300E+02  0.1301E+02
      5.963  0.7962E+00  0.7959E+00  0.1311E+02  0.1311E+02
      6.097  0.7361E+00  0.7353E+00  0.1321E+02  0.1321E+02
      6.231  0.7434E+00  0.7439E+00  0.1331E+02  0.1331E+02
      6.365  0.8495E+00  0.8493E+00  0.1342E+02  0.1343E+02
      6.499  0.6400E+00  0.6392E+00  0.1351E+02  0.1351E+02
      6.633  0.7086E+00  0.7093E+00  0.1361E+02  0.1361E+02
      6.768  0.7743E+00  0.7743E+00  0.1371E+02  0.1371E+02
      6.902  0.8255E+00  0.8256E+00  0.1382E+02  0.1382E+02
      7.036  0.6736E+00  0.6727E+00  0.1391E+02  0.1391E+02
      7.170  0.7667E+00  0.7675E+00  0.1401E+02  0.1401E+02
      7.304  0.8386E+00  0.8387E+00  0.1413E+02  0.1413E+02
      7.438  0.8232E+00  0.8228E+00  0.1424E+02  0.1424E+02
      7.572  0.7396E+00  0.7400E+00  0.1434E+02  0.1434E+02
      7.706  0.8665E+00  0.8721E+00  0.1445E+02  0.1445E+02
      7.840  0.1016E+01  0.1015E+01  0.1459E+02  0.1459E+02
      7.975  0.9859E+00  0.9841E+00  0.1472E+02  0.1472E+02
      8.109  0.1292E+01  0.1303E+01  0.1490E+02  0.1490E+02
      8.243  0.1482E+01  0.1484E+01  0.1509E+02  0.1510E+02
      8.377  0.1305E+01  0.1298E+01  0.1527E+02  0.1527E+02
      8.511  0.9868E+00  0.9755E+00  0.1540E+02  0.1540E+02
      8.645  0.8284E+00  0.8249E+00  0.1551E+02  0.1551E+02
      8.779  0.9522E+00  0.9538E+00  0.1564E+02  0.1564E+02
      8.913  0.1005E+01  0.9950E+00  0.1578E+02  0.1578E+02
      9.047  0.7087E+00  0.7193E+00  0.1587E+02  0.1587E+02
      9.181  0.6099E+00  0.6017E+00  0.1595E+02  0.1595E+02
      9.316  0.2976E+00  0.3065E+00  0.1599E+02  0.1599E+02
      9.450  0.3862E-01  0.3795E-01  0.1600E+02  0.1600E+02
      9.584  0.1280E-02  0.5833E-03  0.1600E+02  0.1600E+02
      9.718  0.0000E+00  0.0000E+00  0.1600E+02  0.1600E+02
      9.852  0.0000E+00  0.0000E+00  0.1600E+02  0.1600E+02
      9.986  0.0000E+00  0.0000E+00  0.1600E+02  0.1600E+02
     10.120  0.0000E+00  0.0000E+00  0.1600E+02  0.1600E+02
     10.254  0.0000E+00  0.0000E+00  0.1600E+02  0.1600E+02
     10.388  0.0000E+00  0.0000E+00  0.1600E+02  0.1600E+02
     10.523  0.0000E+00  0.0000E+00  0.1600E+02  0.1600E+02
     10.657  0.0000E+00  0.0000E+00  0.1600E+02  0.1600E+02
     10.791  0.0000E+00  0.0000E+00  0.1600E+02  0.1600E+02
     10.925  0.0000E+00  0.0000E+00  0.1600E+02  0.1600E+02
     11.059  0.0000E+00  0.0000E+00  0.1600E+02  0.1600E+02
     11.05902768    -29.17377770  301      3.93738718      1.00000000
    -29.174  0.0000E+00  0.0000E+00  0.0000E+00  0.0000E+00  0.0000E+00  0.0000E+00  0.0000E+00  0.0000E+00  0.0000E+00  0.0000E+00  0.0000E+00  0.0000E+00  0.0000E+00  0.0000E+00  0.0000E+00  0.0000E+00  0.0000E+00  0.0000E+00
    -29.040  0.0000E+00  0.0000E+00  0.0000E+00  0.0000E+00  0.0000E+00  0.0000E+00  0.0000E+00  0.0000E+00  0.0000E+00  0.0000E+00  0.0000E+00  0.0000E+00  0.0000E+00  0.0000E+00  0.0000E+00  0.0000E+00  0.0000E+00  0.0000E+00
    -28.906  0.0000E+00  0.0000E+00  0.0000E+00  0.0000E+00  0.0000E+00  0.0000E+00  0.0000E+00  0.0000E+00  0.0000E+00  0.0000E+00  0.0000E+00  0.0000E+00  0.0000E+00  0.0000E+00  0.0000E+00  0.0000E+00  0.0000E+00  0.0000E+00
    -28.771  0.0000E+00  0.0000E+00  0.0000E+00  0.0000E+00  0.0000E+00  0.0000E+00  0.0000E+00  0.0000E+00  0.0000E+00  0.0000E+00  0.0000E+00  0.0000E+00  0.0000E+00  0.0000E+00  0.0000E+00  0.0000E+00  0.0000E+00  0.0000E+00
    -28.637  0.0000E+00  0.0000E+00  0.0000E+00  0.0000E+00  0.0000E+00  0.0000E+00  0.0000E+00  0.0000E+00  0.0000E+00  0.0000E+00  0.0000E+00  0.0000E+00  0.0000E+00  0.0000E+00  0.0000E+00  0.0000E+00  0.0000E+00  0.0000E+00
    -28.503  0.0000E+00  0.0000E+00  0.0000E+00  0.0000E+00  0.0000E+00  0.0000E+00  0.0000E+00  0.0000E+00  0.0000E+00  0.0000E+00  0.0000E+00  0.0000E+00  0.0000E+00  0.0000E+00  0.0000E+00  0.0000E+00  0.0000E+00  0.0000E+00
    -28.369  0.0000E+00  0.0000E+00  0.0000E+00  0.0000E+00  0.0000E+00  0.0000E+00  0.0000E+00  0.0000E+00  0.0000E+00  0.0000E+00  0.0000E+00  0.0000E+00  0.0000E+00  0.0000E+00  0.0000E+00  0.0000E+00  0.0000E+00  0.0000E+00
    -28.235  0.0000E+00  0.0000E+00  0.0000E+00  0.0000E+00  0.0000E+00  0.0000E+00  0.0000E+00  0.0000E+00  0.0000E+00  0.0000E+00  0.0000E+00  0.0000E+00  0.0000E+00  0.0000E+00  0.0000E+00  0.0000E+00  0.0000E+00  0.0000E+00
    -28.101  0.0000E+00  0.0000E+00  0.0000E+00  0.0000E+00  0.0000E+00  0.0000E+00  0.0000E+00  0.0000E+00  0.0000E+00  0.0000E+00  0.0000E+00  0.0000E+00  0.0000E+00  0.0000E+00  0.0000E+00  0.0000E+00  0.0000E+00  0.0000E+00
    -27.967  0.0000E+00  0.0000E+00  0.0000E+00  0.0000E+00  0.0000E+00  0.0000E+00  0.0000E+00  0.0000E+00  0.0000E+00  0.0000E+00  0.0000E+00  0.0000E+00  0.0000E+00  0.0000E+00  0.0000E+00  0.0000E+00  0.0000E+00  0.0000E+00
    -27.833  0.5930E-10  0.5934E-10  0.1695E-08  0.1699E-08  0.3723E-05  0.3734E-05  0.1695E-08  0.1699E-08  0.4754E-12  0.4747E-12  0.6039E-10  0.6049E-10  0.1321E-10  0.1325E-10  0.6039E-10  0.6049E-10  0.4754E-12  0.4747E-12
    -27.699  0.1969E-07  0.1968E-07  0.9870E-04  0.9888E-04  0.2551E-03  0.2558E-03  0.9870E-04  0.9888E-04  0.5370E-08  0.5373E-08  0.8116E-08  0.8130E-08  0.4918E-08  0.4921E-08  0.8116E-08  0.8130E-08  0.5370E-08  0.5373E-08
    -27.564  0.3211E-06  0.3210E-06  0.1499E-02  0.1501E-02  0.3678E-02  0.3687E-02  0.1499E-02  0.1501E-02  0.7972E-07  0.7976E-07  0.1225E-06  0.1228E-06  0.8144E-07  0.8150E-07  0.1225E-06  0.1228E-06  0.7972E-07  0.7976E-07
    -27.430  0.4568E-05  0.4566E-05  0.2163E-01  0.2167E-01  0.5164E-01  0.5177E-01  0.2163E-01  0.2167E-01  0.1156E-05  0.1156E-05  0.1744E-05  0.1747E-05  0.1176E-05  0.1177E-05  0.1744E-05  0.1747E-05  0.1156E-05  0.1156E-05
    -27.296  0.5343E-04  0.5339E-04  0.2483E+00  0.2486E+00  0.5091E+00  0.5100E+00  0.2483E+00  0.2486E+00  0.1357E-04  0.1358E-04  0.1875E-04  0.1877E-04  0.1377E-04  0.1377E-04  0.1875E-04  0.1877E-04  0.1357E-04  0.1358E-04
    -27.162  0.2507E-03  0.2502E-03  0.1049E+01  0.1049E+01  0.1583E+01  0.1584E+01  0.1049E+01  0.1049E+01  0.5830E-04  0.5825E-04  0.7292E-04  0.7291E-04  0.6926E-04  0.6922E-04  0.7292E-04  0.7291E-04  0.5830E-04  0.5825E-04
    -27.028  0.3140E-03  0.3133E-03  0.1749E+01  0.1749E+01  0.1729E+01  0.1729E+01  0.1749E+01  0.1749E+01  0.9502E-04  0.9497E-04  0.1097E-03  0.1097E-03  0.1478E-03  0.1477E-03  0.1097E-03  0.1097E-03  0.9502E-04  0.9497E-04
    -26.894  0.1693E-03  0.1688E-03  0.2556E+01  0.2556E+01  0.2159E+01  0.2159E+01  0.2556E+01  0.2556E+01  0.1129E-03  0.1128E-03  0.1232E-03  0.1231E-03  0.1540E-03  0.1539E-03  0.1232E-03  0.1231E-03  0.1129E-03  0.1128E-03
    -26.760  0.4343E-04  0.4330E-04  0.1462E+01  0.1462E+01  0.1121E+01  0.1120E+01  0.1462E+01  0.1462E+01  0.4539E-04  0.4532E-04  0.5112E-04  0.5104E-04  0.5253E-04  0.5245E-04  0.5112E-04  0.5104E-04  0.4539E-04  0.4532E-04
    -26.626  0.4051E-05  0.4038E-05  0.2072E+00  0.2070E+00  0.1417E+00  0.1415E+00  0.2072E+00  0.2070E+00  0.5326E-05  0.5316E-05  0.5792E-05  0.5780E-05  0.5603E-05  0.5591E-05  0.5792E-05  0.5780E-05  0.5326E-05  0.5316E-05
    -26.492  0.8434E-07  0.8410E-07  0.9365E-02  0.9358E-02  0.4740E-02  0.4731E-02  0.9365E-02  0.9358E-02  0.1621E-06  0.1619E-06  0.1498E-06  0.1495E-06  0.1448E-06  0.1444E-06  0.1498E-06  0.1495E-06  0.1621E-06  0.1619E-06
    -26.357  0.0000E+00  0.0000E+00  0.0000E+00  0.0000E+00  0.0000E+00  0.0000E+00  0.0000E+00  0.0000E+00  0.0000E+00  0.0000E+00  0.0000E+00  0.0000E+00  0.0000E+00  0.0000E+00  0.0000E+00  0.0000E+00  0.0000E+00  0.0000E+00
    -26.223  0.0000E+00  0.0000E+00  0.0000E+00  0.0000E+00  0.0000E+00  0.0000E+00  0.0000E+00  0.0000E+00  0.0000E+00  0.0000E+00  0.0000E+00  0.0000E+00  0.0000E+00  0.0000E+00  0.0000E+00  0.0000E+00  0.0000E+00  0.0000E+00
    -26.089  0.0000E+00  0.0000E+00  0.0000E+00  0.0000E+00  0.0000E+00  0.0000E+00  0.0000E+00  0.0000E+00  0.0000E+00  0.0000E+00  0.0000E+00  0.0000E+00  0.0000E+00  0.0000E+00  0.0000E+00  0.0000E+00  0.0000E+00  0.0000E+00
    -25.955  0.0000E+00  0.0000E+00  0.0000E+00  0.0000E+00  0.0000E+00  0.0000E+00  0.0000E+00  0.0000E+00  0.0000E+00  0.0000E+00  0.0000E+00  0.0000E+00  0.0000E+00  0.0000E+00  0.0000E+00  0.0000E+00  0.0000E+00  0.0000E+00
    -25.821  0.0000E+00  0.0000E+00  0.0000E+00  0.0000E+00  0.0000E+00  0.0000E+00  0.0000E+00  0.0000E+00  0.0000E+00  0.0000E+00  0.0000E+00  0.0000E+00  0.0000E+00  0.0000E+00  0.0000E+00  0.0000E+00  0.0000E+00  0.0000E+00
    -25.687  0.0000E+00  0.0000E+00  0.0000E+00  0.0000E+00  0.0000E+00  0.0000E+00  0.0000E+00  0.0000E+00  0.0000E+00  0.0000E+00  0.0000E+00  0.0000E+00  0.0000E+00  0.0000E+00  0.0000E+00  0.0000E+00  0.0000E+00  0.0000E+00
    -25.553  0.0000E+00  0.0000E+00  0.0000E+00  0.0000E+00  0.0000E+00  0.0000E+00  0.0000E+00  0.0000E+00  0.0000E+00  0.0000E+00  0.0000E+00  0.0000E+00  0.0000E+00  0.0000E+00  0.0000E+00  0.0000E+00  0.0000E+00  0.0000E+00
    -25.419  0.0000E+00  0.0000E+00  0.0000E+00  0.0000E+00  0.0000E+00  0.0000E+00  0.0000E+00  0.0000E+00  0.0000E+00  0.0000E+00  0.0000E+00  0.0000E+00  0.0000E+00  0.0000E+00  0.0000E+00  0.0000E+00  0.0000E+00  0.0000E+00
    -25.285  0.0000E+00  0.0000E+00  0.0000E+00  0.0000E+00  0.0000E+00  0.0000E+00  0.0000E+00  0.0000E+00  0.0000E+00  0.0000E+00  0.0000E+00  0.0000E+00  0.0000E+00  0.0000E+00  0.0000E+00  0.0000E+00  0.0000E+00  0.0000E+00
    -25.150  0.0000E+00  0.0000E+00  0.0000E+00  0.0000E+00  0.0000E+00  0.0000E+00  0.0000E+00  0.0000E+00  0.0000E+00  0.0000E+00  0.0000E+00  0.0000E+00  0.0000E+00  0.0000E+00  0.0000E+00  0.0000E+00  0.0000E+00  0.0000E+00
    -25.016  0.0000E+00  0.0000E+00  0.0000E+00  0.0000E+00  0.0000E+00  0.0000E+00  0.0000E+00  0.0000E+00  0.0000E+00  0.0000E+00  0.0000E+00  0.0000E+00  0.0000E+00  0.0000E+00  0.0000E+00  0.0000E+00  0.0000E+00  0.0000E+00
    -24.882  0.0000E+00  0.0000E+00  0.0000E+00  0.0000E+00  0.0000E+00  0.0000E+00  0.0000E+00  0.0000E+00  0.0000E+00  0.0000E+00  0.0000E+00  0.0000E+00  0.0000E+00  0.0000E+00  0.0000E+00  0.0000E+00  0.0000E+00  0.0000E+00
    -24.748  0.0000E+00  0.0000E+00  0.0000E+00  0.0000E+00  0.0000E+00  0.0000E+00  0.0000E+00  0.0000E+00  0.0000E+00  0.0000E+00  0.0000E+00  0.0000E+00  0.0000E+00  0.0000E+00  0.0000E+00  0.0000E+00  0.0000E+00  0.0000E+00
    -24.614  0.0000E+00  0.0000E+00  0.0000E+00  0.0000E+00  0.0000E+00  0.0000E+00  0.0000E+00  0.0000E+00  0.0000E+00  0.0000E+00  0.0000E+00  0.0000E+00  0.0000E+00  0.0000E+00  0.0000E+00  0.0000E+00  0.0000E+00  0.0000E+00
    -24.480  0.0000E+00  0.0000E+00  0.0000E+00  0.0000E+00  0.0000E+00  0.0000E+00  0.0000E+00  0.0000E+00  0.0000E+00  0.0000E+00  0.0000E+00  0.0000E+00  0.0000E+00  0.0000E+00  0.0000E+00  0.0000E+00  0.0000E+00  0.0000E+00
    -24.346  0.0000E+00  0.0000E+00  0.0000E+00  0.0000E+00  0.0000E+00  0.0000E+00  0.0000E+00  0.0000E+00  0.0000E+00  0.0000E+00  0.0000E+00  0.0000E+00  0.0000E+00  0.0000E+00  0.0000E+00  0.0000E+00  0.0000E+00  0.0000E+00
    -24.212  0.0000E+00  0.0000E+00  0.0000E+00  0.0000E+00  0.0000E+00  0.0000E+00  0.0000E+00  0.0000E+00  0.0000E+00  0.0000E+00  0.0000E+00  0.0000E+00  0.0000E+00  0.0000E+00  0.0000E+00  0.0000E+00  0.0000E+00  0.0000E+00
    -24.078  0.0000E+00  0.0000E+00  0.0000E+00  0.0000E+00  0.0000E+00  0.0000E+00  0.0000E+00  0.0000E+00  0.0000E+00  0.0000E+00  0.0000E+00  0.0000E+00  0.0000E+00  0.0000E+00  0.0000E+00  0.0000E+00  0.0000E+00  0.0000E+00
    -23.944  0.0000E+00  0.0000E+00  0.0000E+00  0.0000E+00  0.0000E+00  0.0000E+00  0.0000E+00  0.0000E+00  0.0000E+00  0.0000E+00  0.0000E+00  0.0000E+00  0.0000E+00  0.0000E+00  0.0000E+00  0.0000E+00  0.0000E+00  0.0000E+00
    -23.809  0.0000E+00  0.0000E+00  0.0000E+00  0.0000E+00  0.0000E+00  0.0000E+00  0.0000E+00  0.0000E+00  0.0000E+00  0.0000E+00  0.0000E+00  0.0000E+00  0.0000E+00  0.0000E+00  0.0000E+00  0.0000E+00  0.0000E+00  0.0000E+00
    -23.675  0.0000E+00  0.0000E+00  0.0000E+00  0.0000E+00  0.0000E+00  0.0000E+00  0.0000E+00  0.0000E+00  0.0000E+00  0.0000E+00  0.0000E+00  0.0000E+00  0.0000E+00  0.0000E+00  0.0000E+00  0.0000E+00  0.0000E+00  0.0000E+00
    -23.541  0.0000E+00  0.0000E+00  0.0000E+00  0.0000E+00  0.0000E+00  0.0000E+00  0.0000E+00  0.0000E+00  0.0000E+00  0.0000E+00  0.0000E+00  0.0000E+00  0.0000E+00  0.0000E+00  0.0000E+00  0.0000E+00  0.0000E+00  0.0000E+00
    -23.407  0.0000E+00  0.0000E+00  0.0000E+00  0.0000E+00  0.0000E+00  0.0000E+00  0.0000E+00  0.0000E+00  0.0000E+00  0.0000E+00  0.0000E+00  0.0000E+00  0.0000E+00  0.0000E+00  0.0000E+00  0.0000E+00  0.0000E+00  0.0000E+00
    -23.273  0.0000E+00  0.0000E+00  0.0000E+00  0.0000E+00  0.0000E+00  0.0000E+00  0.0000E+00  0.0000E+00  0.0000E+00  0.0000E+00  0.0000E+00  0.0000E+00  0.0000E+00  0.0000E+00  0.0000E+00  0.0000E+00  0.0000E+00  0.0000E+00
    -23.139  0.0000E+00  0.0000E+00  0.0000E+00  0.0000E+00  0.0000E+00  0.0000E+00  0.0000E+00  0.0000E+00  0.0000E+00  0.0000E+00  0.0000E+00  0.0000E+00  0.0000E+00  0.0000E+00  0.0000E+00  0.0000E+00  0.0000E+00  0.0000E+00
    -23.005  0.0000E+00  0.0000E+00  0.0000E+00  0.0000E+00  0.0000E+00  0.0000E+00  0.0000E+00  0.0000E+00  0.0000E+00  0.0000E+00  0.0000E+00  0.0000E+00  0.0000E+00  0.0000E+00  0.0000E+00  0.0000E+00  0.0000E+00  0.0000E+00
    -22.871  0.0000E+00  0.0000E+00  0.0000E+00  0.0000E+00  0.0000E+00  0.0000E+00  0.0000E+00  0.0000E+00  0.0000E+00  0.0000E+00  0.0000E+00  0.0000E+00  0.0000E+00  0.0000E+00  0.0000E+00  0.0000E+00  0.0000E+00  0.0000E+00
    -22.737  0.0000E+00  0.0000E+00  0.0000E+00  0.0000E+00  0.0000E+00  0.0000E+00  0.0000E+00  0.0000E+00  0.0000E+00  0.0000E+00  0.0000E+00  0.0000E+00  0.0000E+00  0.0000E+00  0.0000E+00  0.0000E+00  0.0000E+00  0.0000E+00
    -22.602  0.0000E+00  0.0000E+00  0.0000E+00  0.0000E+00  0.0000E+00  0.0000E+00  0.0000E+00  0.0000E+00  0.0000E+00  0.0000E+00  0.0000E+00  0.0000E+00  0.0000E+00  0.0000E+00  0.0000E+00  0.0000E+00  0.0000E+00  0.0000E+00
    -22.468  0.0000E+00  0.0000E+00  0.0000E+00  0.0000E+00  0.0000E+00  0.0000E+00  0.0000E+00  0.0000E+00  0.0000E+00  0.0000E+00  0.0000E+00  0.0000E+00  0.0000E+00  0.0000E+00  0.0000E+00  0.0000E+00  0.0000E+00  0.0000E+00