   2   2   1   0
  0.1864788E+02  0.3007264E-09  0.3007264E-09  0.4761960E-09  0.5000000E-15
  1.000000000000000E-004
  CAR 
 unknown system                          
     15.95500947    -26.76040139  301      6.30128546      1.00000000
    -26.760  0.0000E+00  0.0000E+00  0.0000E+00  0.0000E+00
    -26.618  0.0000E+00  0.0000E+00  0.0000E+00  0.0000E+00
    -26.476  0.0000E+00  0.0000E+00  0.0000E+00  0.0000E+00
    -26.333  0.0000E+00  0.0000E+00  0.0000E+00  0.0000E+00
    -26.191  0.0000E+00  0.0000E+00  0.0000E+00  0.0000E+00
    -26.048  0.0000E+00  0.0000E+00  0.0000E+00  0.0000E+00
    -25.906  0.0000E+00  0.0000E+00  0.0000E+00  0.0000E+00
    -25.764  0.0000E+00  0.0000E+00  0.0000E+00  0.0000E+00
    -25.621  0.0000E+00  0.0000E+00  0.0000E+00  0.0000E+00
    -25.479  0.0000E+00  0.0000E+00  0.0000E+00  0.0000E+00
    -25.337  0.1452E-06  0.1469E-06  0.2067E-07  0.2092E-07
    -25.194  0.3679E-04  0.3723E-04  0.5260E-05  0.5321E-05
    -25.052  0.8589E-03  0.8708E-03  0.1275E-03  0.1293E-03
    -24.909  0.1470E-01  0.1486E-01  0.2221E-02  0.2245E-02
    -24.767  0.1839E+00  0.1855E+00  0.2841E-01  0.2865E-01
    -24.625  0.1202E+01  0.1208E+01  0.1995E+00  0.2007E+00
    -24.482  0.3443E+01  0.3451E+01  0.6898E+00  0.6920E+00
    -24.340  0.3860E+01  0.3856E+01  0.1239E+01  0.1241E+01
    -24.197  0.2841E+01  0.2839E+01  0.1645E+01  0.1646E+01
    -24.055  0.2701E+01  0.2702E+01  0.2031E+01  0.2032E+01
    -23.913  0.3210E+01  0.3212E+01  0.2488E+01  0.2490E+01
    -23.770  0.4353E+01  0.4358E+01  0.3109E+01  0.3111E+01
    -23.628  0.5867E+01  0.5873E+01  0.3945E+01  0.3948E+01
    -23.486  0.7327E+01  0.7329E+01  0.4989E+01  0.4993E+01
    -23.343  0.5294E+01  0.5280E+01  0.5744E+01  0.5746E+01
    -23.201  0.1597E+01  0.1588E+01  0.5974E+01  0.5974E+01
    -23.058  0.1591E+00  0.1572E+00  0.5998E+01  0.5999E+01
    -22.916  0.4322E-02  0.4277E-02  0.6000E+01  0.6000E+01
    -22.774  0.0000E+00  0.0000E+00  0.6000E+01  0.6000E+01
    -22.631  0.0000E+00  0.0000E+00  0.6000E+01  0.6000E+01
    -22.489  0.0000E+00  0.0000E+00  0.6000E+01  0.6000E+01
    -22.346  0.0000E+00  0.0000E+00  0.6000E+01  0.6000E+01
    -22.204  0.0000E+00  0.0000E+00  0.6000E+01  0.6000E+01
    -22.062  0.0000E+00  0.0000E+00  0.6000E+01  0.6000E+01
    -21.919  0.0000E+00  0.0000E+00  0.6000E+01  0.6000E+01
    -21.777  0.0000E+00  0.0000E+00  0.6000E+01  0.6000E+01
    -21.635  0.0000E+00  0.0000E+00  0.6000E+01  0.6000E+01
    -21.492  0.0000E+00  0.0000E+00  0.6000E+01  0.6000E+01
    -21.350  0.0000E+00  0.0000E+00  0.6000E+01  0.6000E+01
    -21.207  0.0000E+00  0.0000E+00  0.6000E+01  0.6000E+01
    -21.065  0.0000E+00  0.0000E+00  0.6000E+01  0.6000E+01
    -20.923  0.0000E+00  0.0000E+00  0.6000E+01  0.6000E+01
    -20.780  0.0000E+00  0.0000E+00  0.6000E+01  0.6000E+01
    -20.638  0.0000E+00  0.0000E+00  0.6000E+01  0.6000E+01
    -20.495  0.0000E+00  0.0000E+00  0.6000E+01  0.6000E+01
    -20.353  0.0000E+00  0.0000E+00  0.6000E+01  0.6000E+01
    -20.211  0.0000E+00  0.0000E+00  0.6000E+01  0.6000E+01
    -20.068  0.0000E+00  0.0000E+00  0.6000E+01  0.6000E+01
    -19.926  0.0000E+00  0.0000E+00  0.6000E+01  0.6000E+01
    -19.784  0.0000E+00  0.0000E+00  0.6000E+01  0.6000E+01
    -19.641  0.0000E+00  0.0000E+00  0.6000E+01  0.6000E+01
    -19.499  0.0000E+00  0.0000E+00  0.6000E+01  0.6000E+01
    -19.356  0.0000E+00  0.0000E+00  0.6000E+01  0.6000E+01
    -19.214  0.0000E+00  0.0000E+00  0.6000E+01  0.6000E+01
    -19.072  0.0000E+00  0.0000E+00  0.6000E+01  0.6000E+01
    -18.929  0.0000E+00  0.0000E+00  0.6000E+01  0.6000E+01
    -18.787  0.0000E+00  0.0000E+00  0.6000E+01  0.6000E+01
    -18.644  0.0000E+00  0.0000E+00  0.6000E+01  0.6000E+01
    -18.502  0.0000E+00  0.0000E+00  0.6000E+01  0.6000E+01
    -18.360  0.0000E+00  0.0000E+00  0.6000E+01  0.6000E+01
    -18.217  0.0000E+00  0.0000E+00  0.6000E+01  0.6000E+01
    -18.075  0.0000E+00  0.0000E+00  0.6000E+01  0.6000E+01
    -17.933  0.0000E+00  0.0000E+00  0.6000E+01  0.6000E+01
    -17.790  0.0000E+00  0.0000E+00  0.6000E+01  0.6000E+01
    -17.648  0.0000E+00  0.0000E+00  0.6000E+01  0.6000E+01
    -17.505  0.0000E+00  0.0000E+00  0.6000E+01  0.6000E+01
    -17.363  0.0000E+00  0.0000E+00  0.6000E+01  0.6000E+01
    -17.221  0.0000E+00  0.0000E+00  0.6000E+01  0.6000E+01
    -17.078  0.0000E+00  0.0000E+00  0.6000E+01  0.6000E+01
    -16.936  0.0000E+00  0.0000E+00  0.6000E+01  0.6000E+01
    -16.793  0.0000E+00  0.0000E+00  0.6000E+01  0.6000E+01
    -16.651  0.0000E+00  0.0000E+00  0.6000E+01  0.6000E+01
    -16.509  0.0000E+00  0.0000E+00  0.6000E+01  0.6000E+01
    -16.366  0.0000E+00  0.0000E+00  0.6000E+01  0.6000E+01
    -16.224  0.0000E+00  0.0000E+00  0.6000E+01  0.6000E+01
    -16.082  0.0000E+00  0.0000E+00  0.6000E+01  0.6000E+01
    -15.939  0.0000E+00  0.0000E+00  0.6000E+01  0.6000E+01
    -15.797  0.0000E+00  0.0000E+00  0.6000E+01  0.6000E+01
    -15.654  0.0000E+00  0.0000E+00  0.6000E+01  0.6000E+01
    -15.512  0.0000E+00  0.0000E+00  0.6000E+01  0.6000E+01
    -15.370  0.0000E+00  0.0000E+00  0.6000E+01  0.6000E+01
    -15.227  0.0000E+00  0.0000E+00  0.6000E+01  0.6000E+01
    -15.085  0.0000E+00  0.0000E+00  0.6000E+01  0.6000E+01
    -14.942  0.0000E+00  0.0000E+00  0.6000E+01  0.6000E+01
    -14.800  0.0000E+00  0.0000E+00  0.6000E+01  0.6000E+01
    -14.658  0.0000E+00  0.0000E+00  0.6000E+01  0.6000E+01
    -14.515  0.0000E+00  0.0000E+00  0.6000E+01  0.6000E+01
    -14.373  0.0000E+00  0.0000E+00  0.6000E+01  0.6000E+01
    -14.231  0.0000E+00  0.0000E+00  0.6000E+01  0.6000E+01
    -14.088  0.0000E+00  0.0000E+00  0.6000E+01  0.6000E+01
    -13.946  0.0000E+00  0.0000E+00  0.6000E+01  0.6000E+01
    -13.803  0.0000E+00  0.0000E+00  0.6000E+01  0.6000E+01
    -13.661  0.0000E+00  0.0000E+00  0.6000E+01  0.6000E+01
    -13.519  0.0000E+00  0.0000E+00  0.6000E+01  0.6000E+01
    -13.376  0.0000E+00  0.0000E+00  0.6000E+01  0.6000E+01
    -13.234  0.0000E+00  0.0000E+00  0.6000E+01  0.6000E+01
    -13.091  0.0000E+00  0.0000E+00  0.6000E+01  0.6000E+01
    -12.949  0.0000E+00  0.0000E+00  0.6000E+01  0.6000E+01
    -12.807  0.0000E+00  0.0000E+00  0.6000E+01  0.6000E+01
    -12.664  0.0000E+00  0.0000E+00  0.6000E+01  0.6000E+01
    -12.522  0.0000E+00  0.0000E+00  0.6000E+01  0.6000E+01
    -12.380  0.0000E+00  0.0000E+00  0.6000E+01  0.6000E+01
    -12.237  0.0000E+00  0.0000E+00  0.6000E+01  0.6000E+01
    -12.095  0.0000E+00  0.0000E+00  0.6000E+01  0.6000E+01
    -11.952  0.0000E+00  0.0000E+00  0.6000E+01  0.6000E+01
    -11.810  0.0000E+00  0.0000E+00  0.6000E+01  0.6000E+01
    -11.668  0.0000E+00  0.0000E+00  0.6000E+01  0.6000E+01
    -11.525  0.0000E+00  0.0000E+00  0.6000E+01  0.6000E+01
    -11.383  0.0000E+00  0.0000E+00  0.6000E+01  0.6000E+01
    -11.240  0.0000E+00  0.0000E+00  0.6000E+01  0.6000E+01
    -11.098  0.0000E+00  0.0000E+00  0.6000E+01  0.6000E+01
    -10.956  0.0000E+00  0.0000E+00  0.6000E+01  0.6000E+01
    -10.813  0.0000E+00  0.0000E+00  0.6000E+01  0.6000E+01
    -10.671  0.0000E+00  0.0000E+00  0.6000E+01  0.6000E+01
    -10.529  0.0000E+00  0.0000E+00  0.6000E+01  0.6000E+01
    -10.386  0.0000E+00  0.0000E+00  0.6000E+01  0.6000E+01
    -10.244  0.0000E+00  0.0000E+00  0.6000E+01  0.6000E+01
    -10.101  0.0000E+00  0.0000E+00  0.6000E+01  0.6000E+01
     -9.959  0.0000E+00  0.0000E+00  0.6000E+01  0.6000E+01
     -9.817  0.0000E+00  0.0000E+00  0.6000E+01  0.6000E+01
     -9.674  0.0000E+00  0.0000E+00  0.6000E+01  0.6000E+01
     -9.532  0.0000E+00  0.0000E+00  0.6000E+01  0.6000E+01
     -9.389  0.0000E+00  0.0000E+00  0.6000E+01  0.6000E+01
     -9.247  0.0000E+00  0.0000E+00  0.6000E+01  0.6000E+01
     -9.105  0.0000E+00  0.0000E+00  0.6000E+01  0.6000E+01
     -8.962  0.0000E+00  0.0000E+00  0.6000E+01  0.6000E+01
     -8.820  0.0000E+00  0.0000E+00  0.6000E+01  0.6000E+01
     -8.678  0.0000E+00  0.0000E+00  0.6000E+01  0.6000E+01
     -8.535  0.0000E+00  0.0000E+00  0.6000E+01  0.6000E+01
     -8.393  0.0000E+00  0.0000E+00  0.6000E+01  0.6000E+01
     -8.250  0.0000E+00  0.0000E+00  0.6000E+01  0.6000E+01
     -8.108  0.0000E+00  0.0000E+00  0.6000E+01  0.6000E+01
     -7.966  0.0000E+00  0.0000E+00  0.6000E+01  0.6000E+01
     -7.823  0.0000E+00  0.0000E+00  0.6000E+01  0.6000E+01
     -7.681  0.0000E+00  0.0000E+00  0.6000E+01  0.6000E+01
     -7.538  0.0000E+00  0.0000E+00  0.6000E+01  0.6000E+01
     -7.396  0.0000E+00  0.0000E+00  0.6000E+01  0.6000E+01
     -7.254  0.0000E+00  0.0000E+00  0.6000E+01  0.6000E+01
     -7.111  0.0000E+00  0.0000E+00  0.6000E+01  0.6000E+01
     -6.969  0.0000E+00  0.0000E+00  0.6000E+01  0.6000E+01
     -6.827  0.0000E+00  0.0000E+00  0.6000E+01  0.6000E+01
     -6.684  0.0000E+00  0.0000E+00  0.6000E+01  0.6000E+01
     -6.542  0.0000E+00  0.0000E+00  0.6000E+01  0.6000E+01
     -6.399  0.0000E+00  0.0000E+00  0.6000E+01  0.6000E+01
     -6.257  0.0000E+00  0.0000E+00  0.6000E+01  0.6000E+01
     -6.115  0.0000E+00  0.0000E+00  0.6000E+01  0.6000E+01
     -5.972  0.0000E+00  0.0000E+00  0.6000E+01  0.6000E+01
     -5.830  0.0000E+00  0.0000E+00  0.6000E+01  0.6000E+01
     -5.687  0.0000E+00  0.0000E+00  0.6000E+01  0.6000E+01
     -5.545  0.0000E+00  0.0000E+00  0.6000E+01  0.6000E+01
     -5.403  0.0000E+00  0.0000E+00  0.6000E+01  0.6000E+01
     -5.260  0.0000E+00  0.0000E+00  0.6000E+01  0.6000E+01
     -5.118  0.0000E+00  0.0000E+00  0.6000E+01  0.6000E+01
     -4.976  0.0000E+00  0.0000E+00  0.6000E+01  0.6000E+01
     -4.833  0.0000E+00  0.0000E+00  0.6000E+01  0.6000E+01
     -4.691  0.0000E+00  0.0000E+00  0.6000E+01  0.6000E+01
     -4.548  0.0000E+00  0.0000E+00  0.6000E+01  0.6000E+01
     -4.406  0.0000E+00  0.0000E+00  0.6000E+01  0.6000E+01
     -4.264  0.0000E+00  0.0000E+00  0.6000E+01  0.6000E+01
     -4.121  0.0000E+00  0.0000E+00  0.6000E+01  0.6000E+01
     -3.979  0.0000E+00  0.0000E+00  0.6000E+01  0.6000E+01
     -3.836  0.0000E+00  0.0000E+00  0.6000E+01  0.6000E+01
     -3.694  0.0000E+00  0.0000E+00  0.6000E+01  0.6000E+01
     -3.552  0.0000E+00  0.0000E+00  0.6000E+01  0.6000E+01
     -3.409  0.0000E+00  0.0000E+00  0.6000E+01  0.6000E+01
     -3.267  0.0000E+00  0.0000E+00  0.6000E+01  0.6000E+01
     -3.125  0.0000E+00  0.0000E+00  0.6000E+01  0.6000E+01
     -2.982  0.0000E+00  0.0000E+00  0.6000E+01  0.6000E+01
     -2.840  0.0000E+00  0.0000E+00  0.6000E+01  0.6000E+01
     -2.697  0.0000E+00  0.0000E+00  0.6000E+01  0.6000E+01
     -2.555  0.0000E+00  0.0000E+00  0.6000E+01  0.6000E+01
     -2.413  0.0000E+00  0.0000E+00  0.6000E+01  0.6000E+01
     -2.270  0.0000E+00  0.0000E+00  0.6000E+01  0.6000E+01
     -2.128  0.8512E-06  0.8684E-06  0.6000E+01  0.6000E+01
     -1.985  0.1643E-04  0.1676E-04  0.6000E+01  0.6000E+01
     -1.843  0.2704E-03  0.2756E-03  0.6000E+01  0.6000E+01
     -1.701  0.2751E-02  0.2784E-02  0.6000E+01  0.6000E+01
     -1.558  0.1059E-01  0.1069E-01  0.6002E+01  0.6002E+01
     -1.416  0.2950E-01  0.2963E-01  0.6006E+01  0.6006E+01
     -1.274  0.4128E-01  0.4124E-01  0.6012E+01  0.6012E+01
     -1.131  0.2216E-01  0.2210E-01  0.6015E+01  0.6015E+01
     -0.989  0.4296E-01  0.4330E-01  0.6021E+01  0.6021E+01
     -0.846  0.8860E-01  0.8866E-01  0.6034E+01  0.6034E+01
     -0.704  0.6091E-01  0.6073E-01  0.6043E+01  0.6043E+01
     -0.562  0.4691E-01  0.4689E-01  0.6049E+01  0.6049E+01
     -0.419  0.5498E-01  0.5505E-01  0.6057E+01  0.6057E+01
     -0.277  0.9436E-01  0.9478E-01  0.6071E+01  0.6071E+01
     -0.134  0.1095E+00  0.1094E+00  0.6086E+01  0.6086E+01
      0.008  0.7727E-01  0.7700E-01  0.6097E+01  0.6097E+01
      0.150  0.1043E+00  0.1049E+00  0.6112E+01  0.6112E+01
      0.293  0.1569E+00  0.1566E+00  0.6134E+01  0.6135E+01
      0.435  0.7461E-01  0.7438E-01  0.6145E+01  0.6145E+01
      0.577  0.7631E-01  0.7628E-01  0.6156E+01  0.6156E+01
      0.720  0.1260E+00  0.1270E+00  0.6174E+01  0.6174E+01
      0.862  0.2263E+00  0.2263E+00  0.6206E+01  0.6206E+01
      1.005  0.1862E+00  0.1862E+00  0.6233E+01  0.6233E+01
      1.147  0.1829E+00  0.1827E+00  0.6259E+01  0.6259E+01
      1.289  0.1323E+00  0.1319E+00  0.6278E+01  0.6278E+01
      1.432  0.1776E+00  0.1784E+00  0.6303E+01  0.6303E+01
      1.574  0.2141E+00  0.2140E+00  0.6334E+01  0.6334E+01
      1.717  0.2779E+00  0.2792E+00  0.6373E+01  0.6374E+01
      1.859  0.4441E+00  0.4444E+00  0.6436E+01  0.6437E+01
      2.001  0.5391E+00  0.5397E+00  0.6513E+01  0.6514E+01
      2.144  0.6814E+00  0.6819E+00  0.6610E+01  0.6611E+01
      2.286  0.6044E+00  0.6032E+00  0.6697E+01  0.6697E+01
      2.428  0.4996E+00  0.5002E+00  0.6768E+01  0.6768E+01
      2.571  0.8294E+00  0.8312E+00  0.6886E+01  0.6887E+01
      2.713  0.8424E+00  0.8413E+00  0.7006E+01  0.7007E+01
      2.856  0.6432E+00  0.6425E+00  0.7098E+01  0.7098E+01
      2.998  0.6791E+00  0.6792E+00  0.7195E+01  0.7196E+01
      3.140  0.8333E+00  0.8352E+00  0.7314E+01  0.7315E+01
      3.283  0.9615E+00  0.9604E+00  0.7451E+01  0.7452E+01
      3.425  0.9339E+00  0.9341E+00  0.7584E+01  0.7585E+01
      3.568  0.8845E+00  0.8830E+00  0.7711E+01  0.7711E+01
      3.710  0.7894E+00  0.7896E+00  0.7823E+01  0.7824E+01
      3.852  0.8344E+00  0.8345E+00  0.7942E+01  0.7943E+01
      3.995  0.6999E+00  0.6987E+00  0.8042E+01  0.8043E+01
      4.137  0.5934E+00  0.5945E+00  0.8127E+01  0.8127E+01
      4.279  0.6612E+00  0.6604E+00  0.8221E+01  0.8222E+01
      4.422  0.6820E+00  0.6832E+00  0.8319E+01  0.8319E+01
      4.564  0.9133E+00  0.9144E+00  0.8449E+01  0.8450E+01
      4.707  0.9921E+00  0.9920E+00  0.8590E+01  0.8591E+01
      4.849  0.9187E+00  0.9186E+00  0.8721E+01  0.8722E+01
      4.991  0.1080E+01  0.1081E+01  0.8875E+01  0.8876E+01
      5.134  0.1222E+01  0.1222E+01  0.9050E+01  0.9051E+01
      5.276  0.1088E+01  0.1088E+01  0.9205E+01  0.9206E+01
      5.419  0.1293E+01  0.1296E+01  0.9389E+01  0.9390E+01
      5.561  0.1482E+01  0.1480E+01  0.9600E+01  0.9601E+01
      5.703  0.9315E+00  0.9283E+00  0.9733E+01  0.9734E+01
      5.846  0.4348E+00  0.4335E+00  0.9796E+01  0.9796E+01
      5.988  0.3200E+00  0.3201E+00  0.9842E+01  0.9842E+01
      6.130  0.4466E+00  0.4475E+00  0.9905E+01  0.9906E+01
      6.273  0.5282E+00  0.5288E+00  0.9980E+01  0.9981E+01
      6.415  0.9310E+00  0.9343E+00  0.1011E+02  0.1011E+02
      6.558  0.1389E+01  0.1389E+01  0.1031E+02  0.1031E+02
      6.700  0.1401E+01  0.1401E+01  0.1051E+02  0.1051E+02
      6.842  0.1280E+01  0.1279E+01  0.1069E+02  0.1069E+02
      6.985  0.1370E+01  0.1370E+01  0.1089E+02  0.1089E+02
      7.127  0.1322E+01  0.1321E+01  0.1108E+02  0.1108E+02
      7.270  0.1063E+01  0.1064E+01  0.1123E+02  0.1123E+02
      7.412  0.1288E+01  0.1289E+01  0.1141E+02  0.1141E+02
      7.554  0.1389E+01  0.1388E+01  0.1161E+02  0.1161E+02
      7.697  0.1238E+01  0.1238E+01  0.1179E+02  0.1179E+02
      7.839  0.1416E+01  0.1417E+01  0.1199E+02  0.1199E+02
      7.981  0.1534E+01  0.1532E+01  0.1221E+02  0.1221E+02
      8.124  0.1338E+01  0.1338E+01  0.1240E+02  0.1240E+02
      8.266  0.1351E+01  0.1351E+01  0.1259E+02  0.1259E+02
      8.409  0.1069E+01  0.1067E+01  0.1274E+02  0.1274E+02
      8.551  0.8228E+00  0.8224E+00  0.1286E+02  0.1286E+02
      8.693  0.8192E+00  0.8182E+00  0.1298E+02  0.1298E+02
      8.836  0.6538E+00  0.6525E+00  0.1307E+02  0.1307E+02
      8.978  0.4393E+00  0.4392E+00  0.1313E+02  0.1313E+02
      9.121  0.5488E+00  0.5490E+00  0.1321E+02  0.1321E+02
      9.263  0.6000E+00  0.5997E+00  0.1330E+02  0.1330E+02
      9.405  0.6298E+00  0.6296E+00  0.1339E+02  0.1339E+02
      9.548  0.4797E+00  0.4797E+00  0.1346E+02  0.1346E+02
      9.690  0.2820E+00  0.2820E+00  0.1350E+02  0.1350E+02
      9.832  0.4768E+00  0.4767E+00  0.1357E+02  0.1357E+02
      9.975  0.5675E+00  0.5674E+00  0.1365E+02  0.1365E+02
     10.117  0.5640E+00  0.5640E+00  0.1373E+02  0.1373E+02
     10.260  0.6434E+00  0.6435E+00  0.1382E+02  0.1382E+02
     10.402  0.4269E+00  0.4267E+00  0.1388E+02  0.1388E+02
     10.544  0.3219E+00  0.3219E+00  0.1393E+02  0.1393E+02
     10.687  0.5148E+00  0.5149E+00  0.1400E+02  0.1400E+02
     10.829  0.5374E+00  0.5374E+00  0.1408E+02  0.1408E+02
     10.972  0.5171E+00  0.5172E+00  0.1415E+02  0.1415E+02
     11.114  0.5336E+00  0.5335E+00  0.1423E+02  0.1423E+02
     11.256  0.5617E+00  0.5615E+00  0.1431E+02  0.1431E+02
     11.399  0.4433E+00  0.4429E+00  0.1437E+02  0.1437E+02
     11.541  0.5882E+00  0.5887E+00  0.1445E+02  0.1445E+02
     11.683  0.6825E+00  0.6816E+00  0.1455E+02  0.1455E+02
     11.826  0.5278E+00  0.5211E+00  0.1462E+02  0.1462E+02
     11.968  0.6308E+00  0.6327E+00  0.1471E+02  0.1471E+02
     12.111  0.7375E+00  0.7433E+00  0.1482E+02  0.1482E+02
     12.253  0.9579E+00  0.9582E+00  0.1496E+02  0.1496E+02
     12.395  0.9468E+00  0.9462E+00  0.1509E+02  0.1509E+02
     12.538  0.8774E+00  0.8773E+00  0.1522E+02  0.1522E+02
     12.680  0.7786E+00  0.7784E+00  0.1533E+02  0.1533E+02
     12.823  0.5381E+00  0.5380E+00  0.1540E+02  0.1540E+02
     12.965  0.4525E+00  0.4508E+00  0.1547E+02  0.1547E+02
     13.107  0.5003E+00  0.5029E+00  0.1554E+02  0.1554E+02
     13.250  0.7056E+00  0.7052E+00  0.1564E+02  0.1564E+02
     13.392  0.7727E+00  0.7716E+00  0.1575E+02  0.1575E+02
     13.534  0.5129E+00  0.5155E+00  0.1582E+02  0.1582E+02
     13.677  0.3791E+00  0.3749E+00  0.1588E+02  0.1588E+02
     13.819  0.3960E+00  0.3975E+00  0.1594E+02  0.1594E+02
     13.962  0.3313E+00  0.3320E+00  0.1598E+02  0.1598E+02
     14.104  0.1074E+00  0.1071E+00  0.1600E+02  0.1600E+02
     14.246  0.1255E-01  0.1249E-01  0.1600E+02  0.1600E+02
     14.389  0.5651E-03  0.5647E-03  0.1600E+02  0.1600E+02
     14.531  0.0000E+00  0.0000E+00  0.1600E+02  0.1600E+02
     14.674  0.0000E+00  0.0000E+00  0.1600E+02  0.1600E+02
     14.816  0.0000E+00  0.0000E+00  0.1600E+02  0.1600E+02
     14.958  0.0000E+00  0.0000E+00  0.1600E+02  0.1600E+02
     15.101  0.0000E+00  0.0000E+00  0.1600E+02  0.1600E+02
     15.243  0.0000E+00  0.0000E+00  0.1600E+02  0.1600E+02
     15.385  0.0000E+00  0.0000E+00  0.1600E+02  0.1600E+02
     15.528  0.0000E+00  0.0000E+00  0.1600E+02  0.1600E+02
     15.670  0.0000E+00  0.0000E+00  0.1600E+02  0.1600E+02
     15.813  0.0000E+00  0.0000E+00  0.1600E+02  0.1600E+02
     15.955  0.0000E+00  0.0000E+00  0.1600E+02  0.1600E+02
     15.95500947    -26.76040139  301      6.30128546      1.00000000
    -26.760  0.0000E+00  0.0000E+00  0.0000E+00  0.0000E+00  0.0000E+00  0.0000E+00  0.0000E+00  0.0000E+00  0.0000E+00  0.0000E+00  0.0000E+00  0.0000E+00  0.0000E+00  0.0000E+00  0.0000E+00  0.0000E+00  0.0000E+00  0.0000E+00
    -26.618  0.0000E+00  0.0000E+00  0.0000E+00  0.0000E+00  0.0000E+00  0.0000E+00  0.0000E+00  0.0000E+00  0.0000E+00  0.0000E+00  0.0000E+00  0.0000E+00  0.0000E+00  0.0000E+00  0.0000E+00  0.0000E+00  0.0000E+00  0.0000E+00
    -26.476  0.0000E+00  0.0000E+00  0.0000E+00  0.0000E+00  0.0000E+00  0.0000E+00  0.0000E+00  0.0000E+00  0.0000E+00  0.0000E+00  0.0000E+00  0.0000E+00  0.0000E+00  0.0000E+00  0.0000E+00  0.0000E+00  0.0000E+00  0.0000E+00
    -26.333  0.0000E+00  0.0000E+00  0.0000E+00  0.0000E+00  0.0000E+00  0.0000E+00  0.0000E+00  0.0000E+00  0.0000E+00  0.0000E+00  0.0000E+00  0.0000E+00  0.0000E+00  0.0000E+00  0.0000E+00  0.0000E+00  0.0000E+00  0.0000E+00
    -26.191  0.0000E+00  0.0000E+00  0.0000E+00  0.0000E+00  0.0000E+00  0.0000E+00  0.0000E+00  0.0000E+00  0.0000E+00  0.0000E+00  0.0000E+00  0.0000E+00  0.0000E+00  0.0000E+00  0.0000E+00  0.0000E+00  0.0000E+00  0.0000E+00
    -26.048  0.0000E+00  0.0000E+00  0.0000E+00  0.0000E+00  0.0000E+00  0.0000E+00  0.0000E+00  0.0000E+00  0.0000E+00  0.0000E+00  0.0000E+00  0.0000E+00  0.0000E+00  0.0000E+00  0.0000E+00  0.0000E+00  0.0000E+00  0.0000E+00
    -25.906  0.0000E+00  0.0000E+00  0.0000E+00  0.0000E+00  0.0000E+00  0.0000E+00  0.0000E+00  0.0000E+00  0.0000E+00  0.0000E+00  0.0000E+00  0.0000E+00  0.0000E+00  0.0000E+00  0.0000E+00  0.0000E+00  0.0000E+00  0.0000E+00
    -25.764  0.0000E+00  0.0000E+00  0.0000E+00  0.0000E+00  0.0000E+00  0.0000E+00  0.0000E+00  0.0000E+00  0.0000E+00  0.0000E+00  0.0000E+00  0.0000E+00  0.0000E+00  0.0000E+00  0.0000E+00  0.0000E+00  0.0000E+00  0.0000E+00
    -25.621  0.0000E+00  0.0000E+00  0.0000E+00  0.0000E+00  0.0000E+00  0.0000E+00  0.0000E+00  0.0000E+00  0.0000E+00  0.0000E+00  0.0000E+00  0.0000E+00  0.0000E+00  0.0000E+00  0.0000E+00  0.0000E+00  0.0000E+00  0.0000E+00
    -25.479  0.0000E+00  0.0000E+00  0.0000E+00  0.0000E+00  0.0000E+00  0.0000E+00  0.0000E+00  0.0000E+00  0.0000E+00  0.0000E+00  0.0000E+00  0.0000E+00  0.0000E+00  0.0000E+00  0.0000E+00  0.0000E+00  0.0000E+00  0.0000E+00
    -25.337  0.5424E-21  0.6499E-21  0.1669E-19  0.1592E-19  0.7015E-07  0.7099E-07  0.1669E-19  0.1592E-19  0.3388E-22  0.3190E-22  0.1213E-19  0.1228E-19  0.2834E-21  0.2942E-21  0.1213E-19  0.1228E-19  0.3388E-22  0.3190E-22
    -25.194  0.2018E-08  0.2041E-08  0.1089E-05  0.1099E-05  0.1561E-04  0.1580E-04  0.1089E-05  0.1099E-05  0.1996E-09  0.2016E-09  0.2061E-08  0.2086E-08  0.4995E-09  0.5051E-09  0.2061E-08  0.2086E-08  0.1996E-09  0.2016E-09
    -25.052  0.6861E-07  0.7032E-07  0.5215E-04  0.5299E-04  0.3111E-03  0.3152E-03  0.5215E-04  0.5299E-04  0.1581E-07  0.1608E-07  0.5063E-07  0.5125E-07  0.2336E-07  0.2369E-07  0.5063E-07  0.5125E-07  0.1581E-07  0.1608E-07
    -24.909  0.1297E-05  0.1310E-05  0.9498E-03  0.9588E-03  0.5212E-02  0.5270E-02  0.9498E-03  0.9588E-03  0.3228E-06  0.3258E-06  0.8933E-06  0.9033E-06  0.4311E-06  0.4354E-06  0.8933E-06  0.9033E-06  0.3228E-06  0.3258E-06
    -24.767  0.1883E-04  0.1900E-04  0.1534E-01  0.1548E-01  0.5830E-01  0.5877E-01  0.1534E-01  0.1548E-01  0.5303E-05  0.5353E-05  0.1195E-04  0.1206E-04  0.6508E-05  0.6566E-05  0.1195E-04  0.1206E-04  0.5303E-05  0.5353E-05
    -24.625  0.1724E-03  0.1735E-03  0.1486E+00  0.1495E+00  0.2847E+00  0.2861E+00  0.1486E+00  0.1495E+00  0.6147E-04  0.6189E-04  0.8167E-04  0.8216E-04  0.6345E-04  0.6385E-04  0.8167E-04  0.8216E-04  0.6147E-04  0.6189E-04
    -24.482  0.7654E-03  0.7678E-03  0.4745E+00  0.4755E+00  0.7197E+00  0.7213E+00  0.4745E+00  0.4755E+00  0.2696E-03  0.2702E-03  0.2678E-03  0.2685E-03  0.2456E-03  0.2462E-03  0.2678E-03  0.2685E-03  0.2696E-03  0.2702E-03
    -24.340  0.1345E-02  0.1345E-02  0.5647E+00  0.5643E+00  0.7437E+00  0.7425E+00  0.5647E+00  0.5643E+00  0.3317E-03  0.3312E-03  0.3345E-03  0.3342E-03  0.3282E-03  0.3280E-03  0.3345E-03  0.3342E-03  0.3317E-03  0.3312E-03
    -24.197  0.1400E-02  0.1399E-02  0.4589E+00  0.4585E+00  0.4637E+00  0.4634E+00  0.4589E+00  0.4585E+00  0.2120E-03  0.2117E-03  0.2768E-03  0.2768E-03  0.3415E-03  0.3417E-03  0.2768E-03  0.2768E-03  0.2120E-03  0.2117E-03
    -24.055  0.1095E-02  0.1093E-02  0.4351E+00  0.4352E+00  0.4481E+00  0.4482E+00  0.4351E+00  0.4352E+00  0.2565E-03  0.2568E-03  0.3476E-03  0.3478E-03  0.4635E-03  0.4639E-03  0.3476E-03  0.3478E-03  0.2565E-03  0.2568E-03
    -23.913  0.8576E-03  0.8561E-03  0.5464E+00  0.5470E+00  0.4793E+00  0.4791E+00  0.5464E+00  0.5470E+00  0.3871E-03  0.3874E-03  0.3895E-03  0.3893E-03  0.6212E-03  0.6215E-03  0.3895E-03  0.3893E-03  0.3871E-03  0.3874E-03
    -23.770  0.6435E-03  0.6426E-03  0.7959E+00  0.7968E+00  0.5480E+00  0.5487E+00  0.7959E+00  0.7968E+00  0.5063E-03  0.5063E-03  0.4163E-03  0.4163E-03  0.7091E-03  0.7089E-03  0.4163E-03  0.4163E-03  0.5063E-03  0.5063E-03
    -23.628  0.5116E-03  0.5105E-03  0.1022E+01  0.1023E+01  0.8499E+00  0.8517E+00  0.1022E+01  0.1023E+01  0.5117E-03  0.5112E-03  0.5384E-03  0.5387E-03  0.6459E-03  0.6451E-03  0.5384E-03  0.5387E-03  0.5117E-03  0.5112E-03
    -23.486  0.3374E-03  0.3363E-03  0.1205E+01  0.1206E+01  0.1214E+01  0.1214E+01  0.1205E+01  0.1206E+01  0.4123E-03  0.4115E-03  0.5558E-03  0.5547E-03  0.4643E-03  0.4633E-03  0.5558E-03  0.5547E-03  0.4123E-03  0.4115E-03
    -23.343  0.1365E-03  0.1357E-03  0.9052E+00  0.9031E+00  0.8139E+00  0.8109E+00  0.9052E+00  0.9031E+00  0.1988E-03  0.1979E-03  0.2713E-03  0.2699E-03  0.2366E-03  0.2356E-03  0.2713E-03  0.2699E-03  0.1988E-03  0.1979E-03
    -23.201  0.2535E-04  0.2514E-04  0.2808E+00  0.2792E+00  0.2313E+00  0.2297E+00  0.2808E+00  0.2792E+00  0.4488E-04  0.4456E-04  0.5250E-04  0.5205E-04  0.5476E-04  0.5431E-04  0.5250E-04  0.5205E-04  0.4488E-04  0.4456E-04
    -23.058  0.1622E-05  0.1603E-05  0.2785E-01  0.2760E-01  0.2331E-01  0.2291E-01  0.2785E-01  0.2760E-01  0.3672E-05  0.3634E-05  0.3601E-05  0.3513E-05  0.4304E-05  0.4250E-05  0.3601E-05  0.3513E-05  0.3672E-05  0.3634E-05
    -22.916  0.1324E-07  0.1306E-07  0.7224E-03  0.7155E-03  0.7043E-03  0.6956E-03  0.7224E-03  0.7155E-03  0.7090E-07  0.7017E-07  0.4326E-07  0.4275E-07  0.4877E-07  0.4817E-07  0.4326E-07  0.4275E-07  0.7090E-07  0.7017E-07
    -22.774  0.0000E+00  0.0000E+00  0.0000E+00  0.0000E+00  0.0000E+00  0.0000E+00  0.0000E+00  0.0000E+00  0.0000E+00  0.0000E+00  0.0000E+00  0.0000E+00  0.0000E+00  0.0000E+00  0.0000E+00  0.0000E+00  0.0000E+00  0.0000E+00
    -22.631  0.0000E+00  0.0000E+00  0.0000E+00  0.0000E+00  0.0000E+00  0.0000E+00  0.0000E+00  0.0000E+00  0.0000E+00  0.0000E+00  0.0000E+00  0.0000E+00  0.0000E+00  0.0000E+00  0.0000E+00  0.0000E+00  0.0000E+00  0.0000E+00
    -22.489  0.0000E+00  0.0000E+00  0.0000E+00  0.0000E+00  0.0000E+00  0.0000E+00  0.0000E+00  0.0000E+00  0.0000E+00  0.0000E+00  0.0000E+00  0.0000E+00  0.0000E+00  0.0000E+00  0.0000E+00  0.0000E+00  0.0000E+00  0.0000E+00
    -22.346  0.0000E+00  0.0000E+00  0.0000E+00  0.0000E+00  0.0000E+00  0.0000E+00  0.0000E+00  0.0000E+00  0.0000E+00  0.0000E+00  0.0000E+00  0.0000E+00  0.0000E+00  0.0000E+00  0.0000E+00  0.0000E+00  0.0000E+00  0.0000E+00
    -22.204  0.0000E+00  0.0000E+00  0.0000E+00  0.0000E+00  0.0000E+00  0.0000E+00  0.0000E+00  0.0000E+00  0.0000E+00  0.0000E+00  0.0000E+00  0.0000E+00  0.0000E+00  0.0000E+00  0.0000E+00  0.0000E+00  0.0000E+00  0.0000E+00
    -22.062  0.0000E+00  0.0000E+00  0.0000E+00  0.0000E+00  0.0000E+00  0.0000E+00  0.0000E+00  0.0000E+00  0.0000E+00  0.0000E+00  0.0000E+00  0.0000E+00  0.0000E+00  0.0000E+00  0.0000E+00  0.0000E+00  0.0000E+00  0.0000E+00
    -21.919  0.0000E+00  0.0000E+00  0.0000E+00  0.0000E+00  0.0000E+00  0.0000E+00  0.0000E+00  0.0000E+00  0.0000E+00  0.0000E+00  0.0000E+00  0.0000E+00  0.0000E+00  0.0000E+00  0.0000E+00  0.0000E+00  0.0000E+00  0.0000E+00
    -21.777  0.0000E+00  0.0000E+00  0.0000E+00  0.0000E+00  0.0000E+00  0.0000E+00  0.0000E+00  0.0000E+00  0.0000E+00  0.0000E+00  0.0000E+00  0.0000E+00  0.0000E+00  0.0000E+00  0.0000E+00  0.0000E+00  0.0000E+00  0.0000E+00
    -21.635  0.0000E+00  0.0000E+00  0.0000E+00  0.0000E+00  0.0000E+00  0.0000E+00  0.0000E+00  0.0000E+00  0.0000E+00  0.0000E+00  0.0000E+00  0.0000E+00  0.0000E+00  0.0000E+00  0.0000E+00  0.0000E+00  0.0000E+00  0.0000E+00
    -21.492  0.0000E+00  0.0000E+00  0.0000E+00  0.0000E+00  0.0000E+00  0.0000E+00  0.0000E+00  0.0000E+00  0.0000E+00  0.0000E+00  0.0000E+00  0.0000E+00  0.0000E+00  0.0000E+00  0.0000E+00  0.0000E+00  0.0000E+00  0.0000E+00
    -21.350  0.0000E+00  0.0000E+00  0.0000E+00  0.0000E+00  0.0000E+00  0.0000E+00  0.0000E+00  0.0000E+00  0.0000E+00  0.0000E+00  0.0000E+00  0.0000E+00  0.0000E+00  0.0000E+00  0.0000E+00  0.0000E+00  0.0000E+00  0.0000E+00
    -21.207  0.0000E+00  0.0000E+00  0.0000E+00  0.0000E+00  0.0000E+00  0.0000E+00  0.0000E+00  0.0000E+00  0.0000E+00  0.0000E+00  0.0000E+00  0.0000E+00  0.0000E+00  0.0000E+00  0.0000E+00  0.0000E+00  0.0000E+00  0.0000E+00
    -21.065  0.0000E+00  0.0000E+00  0.0000E+00  0.0000E+00  0.0000E+00  0.0000E+00  0.0000E+00  0.0000E+00  0.0000E+00  0.0000E+00  0.0000E+00  0.0000E+00  0.0000E+00  0.0000E+00  0.0000E+00  0.0000E+00  0.0000E+00  0.0000E+00
    -20.923  0.0000E+00  0.0000E+00  0.0000E+00  0.0000E+00  0.0000E+00  0.0000E+00  0.0000E+00  0.0000E+00  0.0000E+00  0.0000E+00  0.0000E+00  0.0000E+00  0.0000E+00  0.0000E+00  0.0000E+00  0.0000E+00  0.0000E+00  0.0000E+00
    -20.780  0.0000E+00  0.0000E+00  0.0000E+00  0.0000E+00  0.0000E+00  0.0000E+00  0.0000E+00  0.0000E+00  0.0000E+00  0.0000E+00  0.0000E+00  0.0000E+00  0.0000E+00  0.0000E+00  0.0000E+00  0.0000E+00  0.0000E+00  0.0000E+00
    -20.638  0.0000E+00  0.0000E+00  0.0000E+00  0.0000E+00  0.0000E+00  0.0000E+00  0.0000E+00  0.0000E+00  0.0000E+00  0.0000E+00  0.0000E+00  0.0000E+00  0.0000E+00  0.0000E+00  0.0000E+00  0.0000E+00  0.0000E+00  0.0000E+00
    -20.495  0.0000E+00  0.0000E+00  0.0000E+00  0.0000E+00  0.0000E+00  0.0000E+00  0.0000E+00  0.0000E+00  0.0000E+00  0.0000E+00  0.0000E+00  0.0000E+00  0.0000E+00  0.0000E+00  0.0000E+00  0.0000E+00  0.0000E+00  0.0000E+00
    -20.353  0.0000E+00  0.0000E+00  0.0000E+00  0.0000E+00  0.0000E+00  0.0000E+00  0.0000E+00  0.0000E+00  0.0000E+00  0.0000E+00  0.0000E+00  0.0000E+00  0.0000E+00  0.0000E+00  0.0000E+00  0.0000E+00  0.0000E+00  0.0000E+00
    -20.211  0.0000E+00  0.0000E+00  0.0000E+00  0.0000E+00  0.0000E+00  0.0000E+00  0.0000E+00  0.0000E+00  0.0000E+00  0.0000E+00  0.0000E+00  0.0000E+00  0.0000E+00  0.0000E+00  0.0000E+00  0.0000E+00  0.0000E+00  0.0000E+00
    -20.068  0.0000E+00  0.0000E+00  0.0000E+00  0.0000E+00  0.0000E+00  0.0000E+00  0.0000E+00  0.0000E+00  0.0000E+00  0.0000E+00  0.0000E+00  0.0000E+00  0.0000E+00  0.0000E+00  0.0000E+00  0.0000E+00  0.0000E+00  0.0000E+00
    -19.926  0.0000E+00  0.0000E+00  0.0000E+00  0.0000E+00  0.0000E+00  0.0000E+00  0.0000E+00  0.0000E+00  0.0000E+00  0.0000E+00  0.0000E+00  0.0000E+00  0.0000E+00  0.0000E+00  0.0000E+00  0.0000E+00  0.0000E+00  0.0000E+00
    -19.784  0.0000E+00  0.0000E+00  0.0000E+00  0.0000E+00  0.0000E+00  0.0000E+00  0.0000E+00  0.0000E+00  0.0000E+00  0.0000E+00  0.0000E+00  0.0000E+00  0.0000E+00  0.0000E+00  0.0000E+00  0.0000E+00  0.0000E+00  0.0000E+00
    -19.641  0.0000E+00  0.0000E+00  0.0000E+00  0.0000E+00  0.0000E+00  0.0000E+00  0.0000E+00  0.0000E+00  0.0000E+00  0.0000E+00  0.0000E+00  0.0000E+00  0.0000E+00  0.0000E+00  0.0000E+00  0.0000E+00  0.0000E+00  0.0000E+00