   2   2   1   0
  0.1924938E+02  0.3039256E-09  0.3039256E-09  0.4812619E-09  0.5000000E-15
  1.000000000000000E-004
  CAR 
 unknown system                          
     15.43403725    -26.96607532  301      6.05074693      1.00000000
    -26.966  0.0000E+00  0.0000E+00  0.0000E+00  0.0000E+00
    -26.825  0.0000E+00  0.0000E+00  0.0000E+00  0.0000E+00
    -26.683  0.0000E+00  0.0000E+00  0.0000E+00  0.0000E+00
    -26.542  0.0000E+00  0.0000E+00  0.0000E+00  0.0000E+00
    -26.401  0.0000E+00  0.0000E+00  0.0000E+00  0.0000E+00
    -26.259  0.0000E+00  0.0000E+00  0.0000E+00  0.0000E+00
    -26.118  0.0000E+00  0.0000E+00  0.0000E+00  0.0000E+00
    -25.977  0.0000E+00  0.0000E+00  0.0000E+00  0.0000E+00
    -25.835  0.0000E+00  0.0000E+00  0.0000E+00  0.0000E+00
    -25.694  0.0000E+00  0.0000E+00  0.0000E+00  0.0000E+00
    -25.553  0.7322E-06  0.7435E-06  0.1035E-06  0.1051E-06
    -25.411  0.4630E-04  0.4812E-04  0.6647E-05  0.6907E-05
    -25.270  0.1129E-02  0.1145E-02  0.1663E-03  0.1688E-03
    -25.129  0.1867E-01  0.1894E-01  0.2805E-02  0.2846E-02
    -24.987  0.2330E+00  0.2357E+00  0.3573E-01  0.3615E-01
    -24.846  0.1510E+01  0.1521E+01  0.2491E+00  0.2511E+00
    -24.705  0.3962E+01  0.3971E+01  0.8090E+00  0.8123E+00
    -24.563  0.3903E+01  0.3896E+01  0.1361E+01  0.1363E+01
    -24.422  0.3037E+01  0.3036E+01  0.1790E+01  0.1793E+01
    -24.281  0.3198E+01  0.3201E+01  0.2244E+01  0.2247E+01
    -24.139  0.4170E+01  0.4178E+01  0.2834E+01  0.2838E+01
    -23.998  0.5885E+01  0.5896E+01  0.3667E+01  0.3672E+01
    -23.857  0.7700E+01  0.7708E+01  0.4756E+01  0.4762E+01
    -23.715  0.6399E+01  0.6377E+01  0.5662E+01  0.5665E+01
    -23.574  0.2118E+01  0.2100E+01  0.5962E+01  0.5963E+01
    -23.433  0.2294E+00  0.2261E+00  0.5998E+01  0.5998E+01
    -23.291  0.6773E-02  0.6373E-02  0.6000E+01  0.6000E+01
    -23.150  0.0000E+00  0.0000E+00  0.6000E+01  0.6000E+01
    -23.009  0.0000E+00  0.0000E+00  0.6000E+01  0.6000E+01
    -22.867  0.0000E+00  0.0000E+00  0.6000E+01  0.6000E+01
    -22.726  0.0000E+00  0.0000E+00  0.6000E+01  0.6000E+01
    -22.585  0.0000E+00  0.0000E+00  0.6000E+01  0.6000E+01
    -22.443  0.0000E+00  0.0000E+00  0.6000E+01  0.6000E+01
    -22.302  0.0000E+00  0.0000E+00  0.6000E+01  0.6000E+01
    -22.161  0.0000E+00  0.0000E+00  0.6000E+01  0.6000E+01
    -22.019  0.0000E+00  0.0000E+00  0.6000E+01  0.6000E+01
    -21.878  0.0000E+00  0.0000E+00  0.6000E+01  0.6000E+01
    -21.737  0.0000E+00  0.0000E+00  0.6000E+01  0.6000E+01
    -21.595  0.0000E+00  0.0000E+00  0.6000E+01  0.6000E+01
    -21.454  0.0000E+00  0.0000E+00  0.6000E+01  0.6000E+01
    -21.313  0.0000E+00  0.0000E+00  0.6000E+01  0.6000E+01
    -21.171  0.0000E+00  0.0000E+00  0.6000E+01  0.6000E+01
    -21.030  0.0000E+00  0.0000E+00  0.6000E+01  0.6000E+01
    -20.889  0.0000E+00  0.0000E+00  0.6000E+01  0.6000E+01
    -20.747  0.0000E+00  0.0000E+00  0.6000E+01  0.6000E+01
    -20.606  0.0000E+00  0.0000E+00  0.6000E+01  0.6000E+01
    -20.465  0.0000E+00  0.0000E+00  0.6000E+01  0.6000E+01
    -20.323  0.0000E+00  0.0000E+00  0.6000E+01  0.6000E+01
    -20.182  0.0000E+00  0.0000E+00  0.6000E+01  0.6000E+01
    -20.041  0.0000E+00  0.0000E+00  0.6000E+01  0.6000E+01
    -19.899  0.0000E+00  0.0000E+00  0.6000E+01  0.6000E+01
    -19.758  0.0000E+00  0.0000E+00  0.6000E+01  0.6000E+01
    -19.617  0.0000E+00  0.0000E+00  0.6000E+01  0.6000E+01
    -19.475  0.0000E+00  0.0000E+00  0.6000E+01  0.6000E+01
    -19.334  0.0000E+00  0.0000E+00  0.6000E+01  0.6000E+01
    -19.193  0.0000E+00  0.0000E+00  0.6000E+01  0.6000E+01
    -19.051  0.0000E+00  0.0000E+00  0.6000E+01  0.6000E+01
    -18.910  0.0000E+00  0.0000E+00  0.6000E+01  0.6000E+01
    -18.769  0.0000E+00  0.0000E+00  0.6000E+01  0.6000E+01
    -18.627  0.0000E+00  0.0000E+00  0.6000E+01  0.6000E+01
    -18.486  0.0000E+00  0.0000E+00  0.6000E+01  0.6000E+01
    -18.345  0.0000E+00  0.0000E+00  0.6000E+01  0.6000E+01
    -18.203  0.0000E+00  0.0000E+00  0.6000E+01  0.6000E+01
    -18.062  0.0000E+00  0.0000E+00  0.6000E+01  0.6000E+01
    -17.921  0.0000E+00  0.0000E+00  0.6000E+01  0.6000E+01
    -17.779  0.0000E+00  0.0000E+00  0.6000E+01  0.6000E+01
    -17.638  0.0000E+00  0.0000E+00  0.6000E+01  0.6000E+01
    -17.497  0.0000E+00  0.0000E+00  0.6000E+01  0.6000E+01
    -17.355  0.0000E+00  0.0000E+00  0.6000E+01  0.6000E+01
    -17.214  0.0000E+00  0.0000E+00  0.6000E+01  0.6000E+01
    -17.073  0.0000E+00  0.0000E+00  0.6000E+01  0.6000E+01
    -16.931  0.0000E+00  0.0000E+00  0.6000E+01  0.6000E+01
    -16.790  0.0000E+00  0.0000E+00  0.6000E+01  0.6000E+01
    -16.649  0.0000E+00  0.0000E+00  0.6000E+01  0.6000E+01
    -16.507  0.0000E+00  0.0000E+00  0.6000E+01  0.6000E+01
    -16.366  0.0000E+00  0.0000E+00  0.6000E+01  0.6000E+01
    -16.225  0.0000E+00  0.0000E+00  0.6000E+01  0.6000E+01
    -16.083  0.0000E+00  0.0000E+00  0.6000E+01  0.6000E+01
    -15.942  0.0000E+00  0.0000E+00  0.6000E+01  0.6000E+01
    -15.801  0.0000E+00  0.0000E+00  0.6000E+01  0.6000E+01
    -15.659  0.0000E+00  0.0000E+00  0.6000E+01  0.6000E+01
    -15.518  0.0000E+00  0.0000E+00  0.6000E+01  0.6000E+01
    -15.377  0.0000E+00  0.0000E+00  0.6000E+01  0.6000E+01
    -15.235  0.0000E+00  0.0000E+00  0.6000E+01  0.6000E+01
    -15.094  0.0000E+00  0.0000E+00  0.6000E+01  0.6000E+01
    -14.953  0.0000E+00  0.0000E+00  0.6000E+01  0.6000E+01
    -14.811  0.0000E+00  0.0000E+00  0.6000E+01  0.6000E+01
    -14.670  0.0000E+00  0.0000E+00  0.6000E+01  0.6000E+01
    -14.529  0.0000E+00  0.0000E+00  0.6000E+01  0.6000E+01
    -14.387  0.0000E+00  0.0000E+00  0.6000E+01  0.6000E+01
    -14.246  0.0000E+00  0.0000E+00  0.6000E+01  0.6000E+01
    -14.105  0.0000E+00  0.0000E+00  0.6000E+01  0.6000E+01
    -13.963  0.0000E+00  0.0000E+00  0.6000E+01  0.6000E+01
    -13.822  0.0000E+00  0.0000E+00  0.6000E+01  0.6000E+01
    -13.681  0.0000E+00  0.0000E+00  0.6000E+01  0.6000E+01
    -13.539  0.0000E+00  0.0000E+00  0.6000E+01  0.6000E+01
    -13.398  0.0000E+00  0.0000E+00  0.6000E+01  0.6000E+01
    -13.257  0.0000E+00  0.0000E+00  0.6000E+01  0.6000E+01
    -13.115  0.0000E+00  0.0000E+00  0.6000E+01  0.6000E+01
    -12.974  0.0000E+00  0.0000E+00  0.6000E+01  0.6000E+01
    -12.833  0.0000E+00  0.0000E+00  0.6000E+01  0.6000E+01
    -12.691  0.0000E+00  0.0000E+00  0.6000E+01  0.6000E+01
    -12.550  0.0000E+00  0.0000E+00  0.6000E+01  0.6000E+01
    -12.409  0.0000E+00  0.0000E+00  0.6000E+01  0.6000E+01
    -12.267  0.0000E+00  0.0000E+00  0.6000E+01  0.6000E+01
    -12.126  0.0000E+00  0.0000E+00  0.6000E+01  0.6000E+01
    -11.985  0.0000E+00  0.0000E+00  0.6000E+01  0.6000E+01
    -11.843  0.0000E+00  0.0000E+00  0.6000E+01  0.6000E+01
    -11.702  0.0000E+00  0.0000E+00  0.6000E+01  0.6000E+01
    -11.561  0.0000E+00  0.0000E+00  0.6000E+01  0.6000E+01
    -11.419  0.0000E+00  0.0000E+00  0.6000E+01  0.6000E+01
    -11.278  0.0000E+00  0.0000E+00  0.6000E+01  0.6000E+01
    -11.137  0.0000E+00  0.0000E+00  0.6000E+01  0.6000E+01
    -10.995  0.0000E+00  0.0000E+00  0.6000E+01  0.6000E+01
    -10.854  0.0000E+00  0.0000E+00  0.6000E+01  0.6000E+01
    -10.713  0.0000E+00  0.0000E+00  0.6000E+01  0.6000E+01
    -10.571  0.0000E+00  0.0000E+00  0.6000E+01  0.6000E+01
    -10.430  0.0000E+00  0.0000E+00  0.6000E+01  0.6000E+01
    -10.289  0.0000E+00  0.0000E+00  0.6000E+01  0.6000E+01
    -10.147  0.0000E+00  0.0000E+00  0.6000E+01  0.6000E+01
    -10.006  0.0000E+00  0.0000E+00  0.6000E+01  0.6000E+01
     -9.865  0.0000E+00  0.0000E+00  0.6000E+01  0.6000E+01
     -9.723  0.0000E+00  0.0000E+00  0.6000E+01  0.6000E+01
     -9.582  0.0000E+00  0.0000E+00  0.6000E+01  0.6000E+01
     -9.441  0.0000E+00  0.0000E+00  0.6000E+01  0.6000E+01
     -9.299  0.0000E+00  0.0000E+00  0.6000E+01  0.6000E+01
     -9.158  0.0000E+00  0.0000E+00  0.6000E+01  0.6000E+01
     -9.017  0.0000E+00  0.0000E+00  0.6000E+01  0.6000E+01
     -8.875  0.0000E+00  0.0000E+00  0.6000E+01  0.6000E+01
     -8.734  0.0000E+00  0.0000E+00  0.6000E+01  0.6000E+01
     -8.593  0.0000E+00  0.0000E+00  0.6000E+01  0.6000E+01
     -8.451  0.0000E+00  0.0000E+00  0.6000E+01  0.6000E+01
     -8.310  0.0000E+00  0.0000E+00  0.6000E+01  0.6000E+01
     -8.169  0.0000E+00  0.0000E+00  0.6000E+01  0.6000E+01
     -8.027  0.0000E+00  0.0000E+00  0.6000E+01  0.6000E+01
     -7.886  0.0000E+00  0.0000E+00  0.6000E+01  0.6000E+01
     -7.745  0.0000E+00  0.0000E+00  0.6000E+01  0.6000E+01
     -7.603  0.0000E+00  0.0000E+00  0.6000E+01  0.6000E+01
     -7.462  0.0000E+00  0.0000E+00  0.6000E+01  0.6000E+01
     -7.321  0.0000E+00  0.0000E+00  0.6000E+01  0.6000E+01
     -7.179  0.0000E+00  0.0000E+00  0.6000E+01  0.6000E+01
     -7.038  0.0000E+00  0.0000E+00  0.6000E+01  0.6000E+01
     -6.897  0.0000E+00  0.0000E+00  0.6000E+01  0.6000E+01
     -6.755  0.0000E+00  0.0000E+00  0.6000E+01  0.6000E+01
     -6.614  0.0000E+00  0.0000E+00  0.6000E+01  0.6000E+01
     -6.473  0.0000E+00  0.0000E+00  0.6000E+01  0.6000E+01
     -6.331  0.0000E+00  0.0000E+00  0.6000E+01  0.6000E+01
     -6.190  0.0000E+00  0.0000E+00  0.6000E+01  0.6000E+01
     -6.049  0.0000E+00  0.0000E+00  0.6000E+01  0.6000E+01
     -5.907  0.0000E+00  0.0000E+00  0.6000E+01  0.6000E+01
     -5.766  0.0000E+00  0.0000E+00  0.6000E+01  0.6000E+01
     -5.625  0.0000E+00  0.0000E+00  0.6000E+01  0.6000E+01
     -5.483  0.0000E+00  0.0000E+00  0.6000E+01  0.6000E+01
     -5.342  0.0000E+00  0.0000E+00  0.6000E+01  0.6000E+01
     -5.201  0.0000E+00  0.0000E+00  0.6000E+01  0.6000E+01
     -5.059  0.0000E+00  0.0000E+00  0.6000E+01  0.6000E+01
     -4.918  0.0000E+00  0.0000E+00  0.6000E+01  0.6000E+01
     -4.777  0.0000E+00  0.0000E+00  0.6000E+01  0.6000E+01
     -4.635  0.0000E+00  0.0000E+00  0.6000E+01  0.6000E+01
     -4.494  0.0000E+00  0.0000E+00  0.6000E+01  0.6000E+01
     -4.353  0.0000E+00  0.0000E+00  0.6000E+01  0.6000E+01
     -4.211  0.0000E+00  0.0000E+00  0.6000E+01  0.6000E+01
     -4.070  0.0000E+00  0.0000E+00  0.6000E+01  0.6000E+01
     -3.929  0.0000E+00  0.0000E+00  0.6000E+01  0.6000E+01
     -3.787  0.0000E+00  0.0000E+00  0.6000E+01  0.6000E+01
     -3.646  0.0000E+00  0.0000E+00  0.6000E+01  0.6000E+01
     -3.505  0.0000E+00  0.0000E+00  0.6000E+01  0.6000E+01
     -3.363  0.0000E+00  0.0000E+00  0.6000E+01  0.6000E+01
     -3.222  0.0000E+00  0.0000E+00  0.6000E+01  0.6000E+01
     -3.081  0.0000E+00  0.0000E+00  0.6000E+01  0.6000E+01
     -2.939  0.0000E+00  0.0000E+00  0.6000E+01  0.6000E+01
     -2.798  0.0000E+00  0.0000E+00  0.6000E+01  0.6000E+01
     -2.657  0.0000E+00  0.0000E+00  0.6000E+01  0.6000E+01
     -2.515  0.0000E+00  0.0000E+00  0.6000E+01  0.6000E+01
     -2.374  0.1341E-06  0.1363E-06  0.6000E+01  0.6000E+01
     -2.233  0.2421E-05  0.2461E-05  0.6000E+01  0.6000E+01
     -2.091  0.4334E-04  0.4405E-04  0.6000E+01  0.6000E+01
     -1.950  0.6619E-03  0.6716E-03  0.6000E+01  0.6000E+01
     -1.809  0.4731E-02  0.4769E-02  0.6001E+01  0.6001E+01
     -1.667  0.1732E-01  0.1744E-01  0.6003E+01  0.6003E+01
     -1.526  0.3732E-01  0.3742E-01  0.6008E+01  0.6009E+01
     -1.385  0.3575E-01  0.3561E-01  0.6014E+01  0.6014E+01
     -1.243  0.2649E-01  0.2662E-01  0.6017E+01  0.6017E+01
     -1.102  0.7146E-01  0.7180E-01  0.6027E+01  0.6027E+01
     -0.961  0.8065E-01  0.8042E-01  0.6039E+01  0.6039E+01
     -0.819  0.5348E-01  0.5325E-01  0.6046E+01  0.6046E+01
     -0.678  0.5250E-01  0.5257E-01  0.6054E+01  0.6054E+01
     -0.537  0.7350E-01  0.7382E-01  0.6064E+01  0.6064E+01
     -0.395  0.1153E+00  0.1153E+00  0.6081E+01  0.6081E+01
     -0.254  0.9526E-01  0.9500E-01  0.6094E+01  0.6094E+01
     -0.113  0.8329E-01  0.8362E-01  0.6106E+01  0.6106E+01
      0.029  0.1590E+00  0.1592E+00  0.6128E+01  0.6128E+01
      0.170  0.9621E-01  0.9565E-01  0.6142E+01  0.6142E+01
      0.311  0.7794E-01  0.7801E-01  0.6153E+01  0.6153E+01
      0.453  0.1004E+00  0.1010E+00  0.6167E+01  0.6167E+01
      0.594  0.2209E+00  0.2212E+00  0.6198E+01  0.6199E+01
      0.735  0.1911E+00  0.1908E+00  0.6225E+01  0.6226E+01
      0.877  0.1857E+00  0.1856E+00  0.6252E+01  0.6252E+01
      1.018  0.1481E+00  0.1477E+00  0.6273E+01  0.6273E+01
      1.159  0.1524E+00  0.1530E+00  0.6294E+01  0.6295E+01
      1.301  0.2168E+00  0.2167E+00  0.6325E+01  0.6325E+01
      1.442  0.2379E+00  0.2385E+00  0.6359E+01  0.6359E+01
      1.583  0.3656E+00  0.3659E+00  0.6410E+01  0.6411E+01
      1.725  0.4057E+00  0.4058E+00  0.6468E+01  0.6468E+01
      1.866  0.5341E+00  0.5345E+00  0.6543E+01  0.6544E+01
      2.007  0.6364E+00  0.6362E+00  0.6633E+01  0.6634E+01
      2.149  0.5839E+00  0.5836E+00  0.6716E+01  0.6716E+01
      2.290  0.5999E+00  0.6012E+00  0.6801E+01  0.6801E+01
      2.431  0.8959E+00  0.8962E+00  0.6928E+01  0.6928E+01
      2.573  0.7775E+00  0.7764E+00  0.7038E+01  0.7038E+01
      2.714  0.5552E+00  0.5548E+00  0.7116E+01  0.7117E+01
      2.855  0.6538E+00  0.6537E+00  0.7209E+01  0.7209E+01
      2.997  0.9131E+00  0.9145E+00  0.7338E+01  0.7339E+01
      3.138  0.9688E+00  0.9678E+00  0.7475E+01  0.7476E+01
      3.279  0.8524E+00  0.8520E+00  0.7596E+01  0.7596E+01
      3.421  0.8753E+00  0.8752E+00  0.7720E+01  0.7721E+01
      3.562  0.8559E+00  0.8558E+00  0.7841E+01  0.7842E+01
      3.703  0.8818E+00  0.8817E+00  0.7966E+01  0.7967E+01
      3.845  0.6673E+00  0.6668E+00  0.8061E+01  0.8061E+01
      3.986  0.6192E+00  0.6199E+00  0.8148E+01  0.8149E+01
      4.127  0.6618E+00  0.6616E+00  0.8242E+01  0.8243E+01
      4.269  0.7424E+00  0.7432E+00  0.8347E+01  0.8348E+01
      4.410  0.9787E+00  0.9795E+00  0.8486E+01  0.8486E+01
      4.551  0.1014E+01  0.1014E+01  0.8629E+01  0.8630E+01
      4.693  0.9689E+00  0.9692E+00  0.8767E+01  0.8767E+01
      4.834  0.1176E+01  0.1176E+01  0.8933E+01  0.8934E+01
      4.975  0.1263E+01  0.1262E+01  0.9112E+01  0.9112E+01
      5.117  0.1185E+01  0.1186E+01  0.9279E+01  0.9280E+01
      5.258  0.1522E+01  0.1522E+01  0.9495E+01  0.9496E+01
      5.399  0.1230E+01  0.1228E+01  0.9669E+01  0.9669E+01
      5.541  0.6753E+00  0.6738E+00  0.9765E+01  0.9765E+01
      5.682  0.3538E+00  0.3534E+00  0.9815E+01  0.9816E+01
      5.823  0.4270E+00  0.4278E+00  0.9876E+01  0.9876E+01
      5.965  0.4889E+00  0.4891E+00  0.9945E+01  0.9945E+01
      6.106  0.7377E+00  0.7394E+00  0.1005E+02  0.1005E+02
      6.247  0.1217E+01  0.1218E+01  0.1022E+02  0.1022E+02
      6.389  0.1435E+01  0.1436E+01  0.1042E+02  0.1043E+02
      6.530  0.1412E+01  0.1412E+01  0.1062E+02  0.1063E+02
      6.671  0.1319E+01  0.1319E+01  0.1081E+02  0.1081E+02
      6.813  0.1439E+01  0.1438E+01  0.1102E+02  0.1102E+02
      6.954  0.1212E+01  0.1212E+01  0.1119E+02  0.1119E+02
      7.095  0.1267E+01  0.1267E+01  0.1137E+02  0.1137E+02
      7.237  0.1417E+01  0.1416E+01  0.1157E+02  0.1157E+02
      7.378  0.1334E+01  0.1334E+01  0.1176E+02  0.1176E+02
      7.519  0.1419E+01  0.1420E+01  0.1196E+02  0.1196E+02
      7.661  0.1523E+01  0.1520E+01  0.1217E+02  0.1217E+02
      7.802  0.1347E+01  0.1347E+01  0.1236E+02  0.1236E+02
      7.943  0.1428E+01  0.1429E+01  0.1257E+02  0.1257E+02
      8.085  0.1156E+01  0.1156E+01  0.1273E+02  0.1273E+02
      8.226  0.8227E+00  0.8219E+00  0.1285E+02  0.1285E+02
      8.367  0.8273E+00  0.8271E+00  0.1296E+02  0.1296E+02
      8.509  0.6696E+00  0.6684E+00  0.1306E+02  0.1306E+02
      8.650  0.4852E+00  0.4854E+00  0.1313E+02  0.1313E+02
      8.791  0.5428E+00  0.5425E+00  0.1320E+02  0.1320E+02
      8.933  0.6095E+00  0.6094E+00  0.1329E+02  0.1329E+02
      9.074  0.6347E+00  0.6343E+00  0.1338E+02  0.1338E+02
      9.215  0.5212E+00  0.5218E+00  0.1345E+02  0.1345E+02
      9.357  0.3125E+00  0.3127E+00  0.1350E+02  0.1350E+02
      9.498  0.4872E+00  0.4865E+00  0.1357E+02  0.1357E+02
      9.639  0.5816E+00  0.5815E+00  0.1365E+02  0.1365E+02
      9.781  0.5774E+00  0.5773E+00  0.1373E+02  0.1373E+02
      9.922  0.6580E+00  0.6581E+00  0.1382E+02  0.1382E+02
     10.063  0.4200E+00  0.4207E+00  0.1388E+02  0.1388E+02
     10.205  0.3688E+00  0.3683E+00  0.1394E+02  0.1394E+02
     10.346  0.5524E+00  0.5522E+00  0.1401E+02  0.1401E+02
     10.487  0.5515E+00  0.5515E+00  0.1409E+02  0.1409E+02
     10.629  0.5406E+00  0.5407E+00  0.1417E+02  0.1417E+02
     10.770  0.5774E+00  0.5770E+00  0.1425E+02  0.1425E+02
     10.911  0.5269E+00  0.5279E+00  0.1433E+02  0.1433E+02
     11.053  0.4926E+00  0.4921E+00  0.1440E+02  0.1439E+02
     11.194  0.6831E+00  0.6828E+00  0.1449E+02  0.1449E+02
     11.335  0.6441E+00  0.6450E+00  0.1458E+02  0.1458E+02
     11.477  0.5858E+00  0.5859E+00  0.1467E+02  0.1467E+02
     11.618  0.7062E+00  0.7055E+00  0.1477E+02  0.1477E+02
     11.759  0.8926E+00  0.8921E+00  0.1489E+02  0.1489E+02
     11.901  0.1010E+01  0.1010E+01  0.1504E+02  0.1504E+02
     12.042  0.9590E+00  0.9592E+00  0.1517E+02  0.1517E+02
     12.183  0.8449E+00  0.8456E+00  0.1529E+02  0.1529E+02
     12.325  0.6409E+00  0.6435E+00  0.1538E+02  0.1538E+02
     12.466  0.4800E+00  0.4780E+00  0.1545E+02  0.1545E+02
     12.607  0.5136E+00  0.5106E+00  0.1552E+02  0.1552E+02
     12.749  0.6763E+00  0.6759E+00  0.1562E+02  0.1562E+02
     12.890  0.8041E+00  0.8104E+00  0.1573E+02  0.1573E+02
     13.031  0.6026E+00  0.6000E+00  0.1582E+02  0.1582E+02
     13.173  0.3984E+00  0.3894E+00  0.1587E+02  0.1587E+02
     13.314  0.4032E+00  0.4129E+00  0.1593E+02  0.1593E+02
     13.455  0.3564E+00  0.3581E+00  0.1598E+02  0.1598E+02
     13.597  0.1152E+00  0.1132E+00  0.1600E+02  0.1600E+02
     13.738  0.1268E-01  0.1258E-01  0.1600E+02  0.1600E+02
     13.879  0.2517E-03  0.2547E-03  0.1600E+02  0.1600E+02
     14.021  0.0000E+00  0.0000E+00  0.1600E+02  0.1600E+02
     14.162  0.0000E+00  0.0000E+00  0.1600E+02  0.1600E+02
     14.303  0.0000E+00  0.0000E+00  0.1600E+02  0.1600E+02
     14.445  0.0000E+00  0.0000E+00  0.1600E+02  0.1600E+02
     14.586  0.0000E+00  0.0000E+00  0.1600E+02  0.1600E+02
     14.727  0.0000E+00  0.0000E+00  0.1600E+02  0.1600E+02
     14.869  0.0000E+00  0.0000E+00  0.1600E+02  0.1600E+02
     15.010  0.0000E+00  0.0000E+00  0.1600E+02  0.1600E+02
     15.151  0.0000E+00  0.0000E+00  0.1600E+02  0.1600E+02
     15.293  0.0000E+00  0.0000E+00  0.1600E+02  0.1600E+02
     15.434  0.0000E+00  0.0000E+00  0.1600E+02  0.1600E+02
     15.43403725    -26.96607532  301      6.05074693      1.00000000
    -26.966  0.0000E+00  0.0000E+00  0.0000E+00  0.0000E+00  0.0000E+00  0.0000E+00  0.0000E+00  0.0000E+00  0.0000E+00  0.0000E+00  0.0000E+00  0.0000E+00  0.0000E+00  0.0000E+00  0.0000E+00  0.0000E+00  0.0000E+00  0.0000E+00
    -26.825  0.0000E+00  0.0000E+00  0.0000E+00  0.0000E+00  0.0000E+00  0.0000E+00  0.0000E+00  0.0000E+00  0.0000E+00  0.0000E+00  0.0000E+00  0.0000E+00  0.0000E+00  0.0000E+00  0.0000E+00  0.0000E+00  0.0000E+00  0.0000E+00
    -26.683  0.0000E+00  0.0000E+00  0.0000E+00  0.0000E+00  0.0000E+00  0.0000E+00  0.0000E+00  0.0000E+00  0.0000E+00  0.0000E+00  0.0000E+00  0.0000E+00  0.0000E+00  0.0000E+00  0.0000E+00  0.0000E+00  0.0000E+00  0.0000E+00
    -26.542  0.0000E+00  0.0000E+00  0.0000E+00  0.0000E+00  0.0000E+00  0.0000E+00  0.0000E+00  0.0000E+00  0.0000E+00  0.0000E+00  0.0000E+00  0.0000E+00  0.0000E+00  0.0000E+00  0.0000E+00  0.0000E+00  0.0000E+00  0.0000E+00
    -26.401  0.0000E+00  0.0000E+00  0.0000E+00  0.0000E+00  0.0000E+00  0.0000E+00  0.0000E+00  0.0000E+00  0.0000E+00  0.0000E+00  0.0000E+00  0.0000E+00  0.0000E+00  0.0000E+00  0.0000E+00  0.0000E+00  0.0000E+00  0.0000E+00
    -26.259  0.0000E+00  0.0000E+00  0.0000E+00  0.0000E+00  0.0000E+00  0.0000E+00  0.0000E+00  0.0000E+00  0.0000E+00  0.0000E+00  0.0000E+00  0.0000E+00  0.0000E+00  0.0000E+00  0.0000E+00  0.0000E+00  0.0000E+00  0.0000E+00
    -26.118  0.0000E+00  0.0000E+00  0.0000E+00  0.0000E+00  0.0000E+00  0.0000E+00  0.0000E+00  0.0000E+00  0.0000E+00  0.0000E+00  0.0000E+00  0.0000E+00  0.0000E+00  0.0000E+00  0.0000E+00  0.0000E+00  0.0000E+00  0.0000E+00
    -25.977  0.0000E+00  0.0000E+00  0.0000E+00  0.0000E+00  0.0000E+00  0.0000E+00  0.0000E+00  0.0000E+00  0.0000E+00  0.0000E+00  0.0000E+00  0.0000E+00  0.0000E+00  0.0000E+00  0.0000E+00  0.0000E+00  0.0000E+00  0.0000E+00
    -25.835  0.0000E+00  0.0000E+00  0.0000E+00  0.0000E+00  0.0000E+00  0.0000E+00  0.0000E+00  0.0000E+00  0.0000E+00  0.0000E+00  0.0000E+00  0.0000E+00  0.0000E+00  0.0000E+00  0.0000E+00  0.0000E+00  0.0000E+00  0.0000E+00
    -25.694  0.0000E+00  0.0000E+00  0.0000E+00  0.0000E+00  0.0000E+00  0.0000E+00  0.0000E+00  0.0000E+00  0.0000E+00  0.0000E+00  0.0000E+00  0.0000E+00  0.0000E+00  0.0000E+00  0.0000E+00  0.0000E+00  0.0000E+00  0.0000E+00
    -25.553  0.1239E-21  0.2195E-21  0.3422E-19  0.4895E-19  0.3538E-06  0.3592E-06  0.3422E-19  0.4895E-19  0.4613E-22  0.5183E-22  0.2142E-10  0.2174E-10  0.3783E-22  0.4729E-22  0.2142E-10  0.2174E-10  0.4613E-22  0.5183E-22
    -25.411  0.2146E-08  0.2599E-08  0.1641E-05  0.1665E-05  0.1910E-04  0.1994E-04  0.1641E-05  0.1665E-05  0.2222E-09  0.2273E-09  0.2337E-08  0.2400E-08  0.6171E-09  0.7202E-09  0.2337E-08  0.2400E-08  0.2222E-09  0.2273E-09
    -25.270  0.8410E-07  0.8489E-07  0.7746E-04  0.7854E-04  0.3913E-03  0.3968E-03  0.7746E-04  0.7854E-04  0.2175E-07  0.2204E-07  0.5752E-07  0.5836E-07  0.2828E-07  0.2858E-07  0.5752E-07  0.5836E-07  0.2175E-07  0.2204E-07
    -25.129  0.1508E-05  0.1530E-05  0.1334E-02  0.1353E-02  0.6363E-02  0.6456E-02  0.1334E-02  0.1353E-02  0.3956E-06  0.4009E-06  0.9687E-06  0.9829E-06  0.4944E-06  0.5013E-06  0.9687E-06  0.9829E-06  0.3956E-06  0.4009E-06
    -24.987  0.2166E-04  0.2193E-04  0.2090E-01  0.2117E-01  0.7091E-01  0.7167E-01  0.2090E-01  0.2117E-01  0.6328E-05  0.6409E-05  0.1278E-04  0.1294E-04  0.7342E-05  0.7433E-05  0.1278E-04  0.1294E-04  0.6328E-05  0.6409E-05
    -24.846  0.1958E-03  0.1975E-03  0.1894E+00  0.1909E+00  0.3522E+00  0.3545E+00  0.1894E+00  0.1909E+00  0.6894E-04  0.6957E-04  0.8692E-04  0.8760E-04  0.6860E-04  0.6919E-04  0.8692E-04  0.8760E-04  0.6894E-04  0.6957E-04
    -24.705  0.7951E-03  0.7983E-03  0.5459E+00  0.5472E+00  0.8285E+00  0.8303E+00  0.5459E+00  0.5472E+00  0.2600E-03  0.2607E-03  0.2597E-03  0.2605E-03  0.2367E-03  0.2374E-03  0.2597E-03  0.2605E-03  0.2600E-03  0.2607E-03
    -24.563  0.1234E-02  0.1234E-02  0.5858E+00  0.5851E+00  0.7229E+00  0.7211E+00  0.5858E+00  0.5851E+00  0.2643E-03  0.2636E-03  0.2820E-03  0.2816E-03  0.2889E-03  0.2888E-03  0.2820E-03  0.2816E-03  0.2643E-03  0.2636E-03
    -24.422  0.1193E-02  0.1191E-02  0.4902E+00  0.4900E+00  0.4980E+00  0.4978E+00  0.4902E+00  0.4900E+00  0.1941E-03  0.1941E-03  0.2670E-03  0.2672E-03  0.3411E-03  0.3415E-03  0.2670E-03  0.2672E-03  0.1941E-03  0.1941E-03
    -24.281  0.8888E-03  0.8872E-03  0.5244E+00  0.5251E+00  0.5142E+00  0.5144E+00  0.5244E+00  0.5251E+00  0.2793E-03  0.2798E-03  0.3363E-03  0.3363E-03  0.4819E-03  0.4826E-03  0.3363E-03  0.3363E-03  0.2793E-03  0.2798E-03
    -24.139  0.6680E-03  0.6665E-03  0.7448E+00  0.7464E+00  0.5569E+00  0.5575E+00  0.7448E+00  0.7464E+00  0.4094E-03  0.4098E-03  0.3582E-03  0.3582E-03  0.6109E-03  0.6111E-03  0.3582E-03  0.3582E-03  0.4094E-03  0.4098E-03
    -23.998  0.5140E-03  0.5129E-03  0.1050E+01  0.1051E+01  0.7999E+00  0.8023E+00  0.1050E+01  0.1051E+01  0.4642E-03  0.4639E-03  0.4385E-03  0.4390E-03  0.6140E-03  0.6133E-03  0.4385E-03  0.4390E-03  0.4642E-03  0.4639E-03
    -23.857  0.3468E-03  0.3455E-03  0.1278E+01  0.1279E+01  0.1249E+01  0.1250E+01  0.1278E+01  0.1279E+01  0.4001E-03  0.3992E-03  0.5102E-03  0.5095E-03  0.4636E-03  0.4623E-03  0.5102E-03  0.5095E-03  0.4001E-03  0.3992E-03
    -23.715  0.1563E-03  0.1551E-03  0.1086E+01  0.1083E+01  0.9964E+00  0.9921E+00  0.1086E+01  0.1083E+01  0.2149E-03  0.2137E-03  0.2920E-03  0.2901E-03  0.2492E-03  0.2478E-03  0.2920E-03  0.2901E-03  0.2149E-03  0.2137E-03
    -23.574  0.3120E-04  0.3082E-04  0.3734E+00  0.3702E+00  0.3039E+00  0.3010E+00  0.3734E+00  0.3702E+00  0.5255E-04  0.5201E-04  0.6329E-04  0.6253E-04  0.6275E-04  0.6204E-04  0.6329E-04  0.6253E-04  0.5255E-04  0.5201E-04
    -23.433  0.2214E-05  0.2179E-05  0.4085E-01  0.4028E-01  0.3215E-01  0.3166E-01  0.4085E-01  0.4028E-01  0.4595E-05  0.4528E-05  0.4687E-05  0.4613E-05  0.5358E-05  0.5272E-05  0.4687E-05  0.4613E-05  0.4595E-05  0.4528E-05
    -23.291  0.1675E-07  0.1512E-07  0.1149E-02  0.1059E-02  0.1066E-02  0.1048E-02  0.1149E-02  0.1059E-02  0.9495E-07  0.8446E-07  0.6470E-07  0.5767E-07  0.9414E-07  0.9137E-07  0.6470E-07  0.5767E-07  0.9495E-07  0.8446E-07
    -23.150  0.0000E+00  0.0000E+00  0.0000E+00  0.0000E+00  0.0000E+00  0.0000E+00  0.0000E+00  0.0000E+00  0.0000E+00  0.0000E+00  0.0000E+00  0.0000E+00  0.0000E+00  0.0000E+00  0.0000E+00  0.0000E+00  0.0000E+00  0.0000E+00
    -23.009  0.0000E+00  0.0000E+00  0.0000E+00  0.0000E+00  0.0000E+00  0.0000E+00  0.0000E+00  0.0000E+00  0.0000E+00  0.0000E+00  0.0000E+00  0.0000E+00  0.0000E+00  0.0000E+00  0.0000E+00  0.0000E+00  0.0000E+00  0.0000E+00
    -22.867  0.0000E+00  0.0000E+00  0.0000E+00  0.0000E+00  0.0000E+00  0.0000E+00  0.0000E+00  0.0000E+00  0.0000E+00  0.0000E+00  0.0000E+00  0.0000E+00  0.0000E+00  0.0000E+00  0.0000E+00  0.0000E+00  0.0000E+00  0.0000E+00
    -22.726  0.0000E+00  0.0000E+00  0.0000E+00  0.0000E+00  0.0000E+00  0.0000E+00  0.0000E+00  0.0000E+00  0.0000E+00  0.0000E+00  0.0000E+00  0.0000E+00  0.0000E+00  0.0000E+00  0.0000E+00  0.0000E+00  0.0000E+00  0.0000E+00
    -22.585  0.0000E+00  0.0000E+00  0.0000E+00  0.0000E+00  0.0000E+00  0.0000E+00  0.0000E+00  0.0000E+00  0.0000E+00  0.0000E+00  0.0000E+00  0.0000E+00  0.0000E+00  0.0000E+00  0.0000E+00  0.0000E+00  0.0000E+00  0.0000E+00
    -22.443  0.0000E+00  0.0000E+00  0.0000E+00  0.0000E+00  0.0000E+00  0.0000E+00  0.0000E+00  0.0000E+00  0.0000E+00  0.0000E+00  0.0000E+00  0.0000E+00  0.0000E+00  0.0000E+00  0.0000E+00  0.0000E+00  0.0000E+00  0.0000E+00
    -22.302  0.0000E+00  0.0000E+00  0.0000E+00  0.0000E+00  0.0000E+00  0.0000E+00  0.0000E+00  0.0000E+00  0.0000E+00  0.0000E+00  0.0000E+00  0.0000E+00  0.0000E+00  0.0000E+00  0.0000E+00  0.0000E+00  0.0000E+00  0.0000E+00
    -22.161  0.0000E+00  0.0000E+00  0.0000E+00  0.0000E+00  0.0000E+00  0.0000E+00  0.0000E+00  0.0000E+00  0.0000E+00  0.0000E+00  0.0000E+00  0.0000E+00  0.0000E+00  0.0000E+00  0.0000E+00  0.0000E+00  0.0000E+00  0.0000E+00
    -22.019  0.0000E+00  0.0000E+00  0.0000E+00  0.0000E+00  0.0000E+00  0.0000E+00  0.0000E+00  0.0000E+00  0.0000E+00  0.0000E+00  0.0000E+00  0.0000E+00  0.0000E+00  0.0000E+00  0.0000E+00  0.0000E+00  0.0000E+00  0.0000E+00
    -21.878  0.0000E+00  0.0000E+00  0.0000E+00  0.0000E+00  0.0000E+00  0.0000E+00  0.0000E+00  0.0000E+00  0.0000E+00  0.0000E+00  0.0000E+00  0.0000E+00  0.0000E+00  0.0000E+00  0.0000E+00  0.0000E+00  0.0000E+00  0.0000E+00
    -21.737  0.0000E+00  0.0000E+00  0.0000E+00  0.0000E+00  0.0000E+00  0.0000E+00  0.0000E+00  0.0000E+00  0.0000E+00  0.0000E+00  0.0000E+00  0.0000E+00  0.0000E+00  0.0000E+00  0.0000E+00  0.0000E+00  0.0000E+00  0.0000E+00
    -21.595  0.0000E+00  0.0000E+00  0.0000E+00  0.0000E+00  0.0000E+00  0.0000E+00  0.0000E+00  0.0000E+00  0.0000E+00  0.0000E+00  0.0000E+00  0.0000E+00  0.0000E+00  0.0000E+00  0.0000E+00  0.0000E+00  0.0000E+00  0.0000E+00
    -21.454  0.0000E+00  0.0000E+00  0.0000E+00  0.0000E+00  0.0000E+00  0.0000E+00  0.0000E+00  0.0000E+00  0.0000E+00  0.0000E+00  0.0000E+00  0.0000E+00  0.0000E+00  0.0000E+00  0.0000E+00  0.0000E+00  0.0000E+00  0.0000E+00
    -21.313  0.0000E+00  0.0000E+00  0.0000E+00  0.0000E+00  0.0000E+00  0.0000E+00  0.0000E+00  0.0000E+00  0.0000E+00  0.0000E+00  0.0000E+00  0.0000E+00  0.0000E+00  0.0000E+00  0.0000E+00  0.0000E+00  0.0000E+00  0.0000E+00
    -21.171  0.0000E+00  0.0000E+00  0.0000E+00  0.0000E+00  0.0000E+00  0.0000E+00  0.0000E+00  0.0000E+00  0.0000E+00  0.0000E+00  0.0000E+00  0.0000E+00  0.0000E+00  0.0000E+00  0.0000E+00  0.0000E+00  0.0000E+00  0.0000E+00
    -21.030  0.0000E+00  0.0000E+00  0.0000E+00  0.0000E+00  0.0000E+00  0.0000E+00  0.0000E+00  0.0000E+00  0.0000E+00  0.0000E+00  0.0000E+00  0.0000E+00  0.0000E+00  0.0000E+00  0.0000E+00  0.0000E+00  0.0000E+00  0.0000E+00
    -20.889  0.0000E+00  0.0000E+00  0.0000E+00  0.0000E+00  0.0000E+00  0.0000E+00  0.0000E+00  0.0000E+00  0.0000E+00  0.0000E+00  0.0000E+00  0.0000E+00  0.0000E+00  0.0000E+00  0.0000E+00  0.0000E+00  0.0000E+00  0.0000E+00
    -20.747  0.0000E+00  0.0000E+00  0.0000E+00  0.0000E+00  0.0000E+00  0.0000E+00  0.0000E+00  0.0000E+00  0.0000E+00  0.0000E+00  0.0000E+00  0.0000E+00  0.0000E+00  0.0000E+00  0.0000E+00  0.0000E+00  0.0000E+00  0.0000E+00
    -20.606  0.0000E+00  0.0000E+00  0.0000E+00  0.0000E+00  0.0000E+00  0.0000E+00  0.0000E+00  0.0000E+00  0.0000E+00  0.0000E+00  0.0000E+00  0.0000E+00  0.0000E+00  0.0000E+00  0.0000E+00  0.0000E+00  0.0000E+00  0.0000E+00
    -20.465  0.0000E+00  0.0000E+00  0.0000E+00  0.0000E+00  0.0000E+00  0.0000E+00  0.0000E+00  0.0000E+00  0.0000E+00  0.0000E+00  0.0000E+00  0.0000E+00  0.0000E+00  0.0000E+00  0.0000E+00  0.0000E+00  0.0000E+00  0.0000E+00
    -20.323  0.0000E+00  0.0000E+00  0.0000E+00  0.0000E+00  0.0000E+00  0.0000E+00  0.0000E+00  0.0000E+00  0.0000E+00  0.0000E+00  0.0000E+00  0.0000E+00  0.0000E+00  0.0000E+00  0.0000E+00  0.0000E+00  0.0000E+00  0.0000E+00
    -20.182  0.0000E+00  0.0000E+00  0.0000E+00  0.0000E+00  0.0000E+00  0.0000E+00  0.0000E+00  0.0000E+00  0.0000E+00  0.0000E+00  0.0000E+00  0.0000E+00  0.0000E+00  0.0000E+00  0.0000E+00  0.0000E+00  0.0000E+00  0.0000E+00
    -20.041  0.0000E+00  0.0000E+00  0.0000E+00  0.0000E+00  0.0000E+00  0.0000E+00  0.0000E+00  0.0000E+00  0.0000E+00  0.0000E+00  0.0000E+00  0.0000E+00  0.0000E+00  0.0000E+00  0.0000E+00  0.0000E+00  0.0000E+00  0.0000E+00
    -19.899  0.0000E+00  0.0000E+00  0.0000E+00  0.0000E+00  0.0000E+00  0.0000E+00  0.0000E+00  0.0000E+00  0.0000E+00  0.0000E+00  0.0000E+00  0.0000E+00  0.0000E+00  0.0000E+00  0.0000E+00  0.0000E+00  0.0000E+00  0.0000E+00