   2   2   1   0
  0.2828246E+02  0.3455155E-09  0.3455154E-09  0.5471188E-09  0.5000000E-15
  1.000000000000000E-004
  CAR 
 unknown system                          
     10.00976378    -29.83354866  301      3.43289340      1.00000000
    -29.834  0.0000E+00  0.0000E+00  0.0000E+00  0.0000E+00
    -29.701  0.0000E+00  0.0000E+00  0.0000E+00  0.0000E+00
    -29.568  0.0000E+00  0.0000E+00  0.0000E+00  0.0000E+00
    -29.435  0.0000E+00  0.0000E+00  0.0000E+00  0.0000E+00
    -29.302  0.0000E+00  0.0000E+00  0.0000E+00  0.0000E+00
    -29.169  0.0000E+00  0.0000E+00  0.0000E+00  0.0000E+00
    -29.037  0.0000E+00  0.0000E+00  0.0000E+00  0.0000E+00
    -28.904  0.0000E+00  0.0000E+00  0.0000E+00  0.0000E+00
    -28.771  0.0000E+00  0.0000E+00  0.0000E+00  0.0000E+00
    -28.638  0.0000E+00  0.0000E+00  0.0000E+00  0.0000E+00
    -28.505  0.1482E-04  0.1637E-04  0.1969E-05  0.2174E-05
    -28.373  0.1793E-02  0.1811E-02  0.2401E-03  0.2427E-03
    -28.240  0.2566E-01  0.2585E-01  0.3648E-02  0.3676E-02
    -28.107  0.3525E+00  0.3551E+00  0.5046E-01  0.5083E-01
    -27.974  0.3439E+01  0.3456E+01  0.5071E+00  0.5098E+00
    -27.841  0.1117E+02  0.1119E+02  0.1991E+01  0.1996E+01
    -27.709  0.1704E+02  0.1704E+02  0.4254E+01  0.4259E+01
    -27.576  0.1126E+02  0.1122E+02  0.5749E+01  0.5750E+01
    -27.443  0.1726E+01  0.1716E+01  0.5981E+01  0.5981E+01
    -27.310  0.9892E-01  0.9755E-01  0.5999E+01  0.5999E+01
    -27.177  0.0000E+00  0.0000E+00  0.6000E+01  0.6000E+01
    -27.045  0.0000E+00  0.0000E+00  0.6000E+01  0.6000E+01
    -26.912  0.0000E+00  0.0000E+00  0.6000E+01  0.6000E+01
    -26.779  0.0000E+00  0.0000E+00  0.6000E+01  0.6000E+01
    -26.646  0.0000E+00  0.0000E+00  0.6000E+01  0.6000E+01
    -26.513  0.0000E+00  0.0000E+00  0.6000E+01  0.6000E+01
    -26.380  0.0000E+00  0.0000E+00  0.6000E+01  0.6000E+01
    -26.248  0.0000E+00  0.0000E+00  0.6000E+01  0.6000E+01
    -26.115  0.0000E+00  0.0000E+00  0.6000E+01  0.6000E+01
    -25.982  0.0000E+00  0.0000E+00  0.6000E+01  0.6000E+01
    -25.849  0.0000E+00  0.0000E+00  0.6000E+01  0.6000E+01
    -25.716  0.0000E+00  0.0000E+00  0.6000E+01  0.6000E+01
    -25.584  0.0000E+00  0.0000E+00  0.6000E+01  0.6000E+01
    -25.451  0.0000E+00  0.0000E+00  0.6000E+01  0.6000E+01
    -25.318  0.0000E+00  0.0000E+00  0.6000E+01  0.6000E+01
    -25.185  0.0000E+00  0.0000E+00  0.6000E+01  0.6000E+01
    -25.052  0.0000E+00  0.0000E+00  0.6000E+01  0.6000E+01
    -24.920  0.0000E+00  0.0000E+00  0.6000E+01  0.6000E+01
    -24.787  0.0000E+00  0.0000E+00  0.6000E+01  0.6000E+01
    -24.654  0.0000E+00  0.0000E+00  0.6000E+01  0.6000E+01
    -24.521  0.0000E+00  0.0000E+00  0.6000E+01  0.6000E+01
    -24.388  0.0000E+00  0.0000E+00  0.6000E+01  0.6000E+01
    -24.255  0.0000E+00  0.0000E+00  0.6000E+01  0.6000E+01
    -24.123  0.0000E+00  0.0000E+00  0.6000E+01  0.6000E+01
    -23.990  0.0000E+00  0.0000E+00  0.6000E+01  0.6000E+01
    -23.857  0.0000E+00  0.0000E+00  0.6000E+01  0.6000E+01
    -23.724  0.0000E+00  0.0000E+00  0.6000E+01  0.6000E+01
    -23.591  0.0000E+00  0.0000E+00  0.6000E+01  0.6000E+01
    -23.459  0.0000E+00  0.0000E+00  0.6000E+01  0.6000E+01
    -23.326  0.0000E+00  0.0000E+00  0.6000E+01  0.6000E+01
    -23.193  0.0000E+00  0.0000E+00  0.6000E+01  0.6000E+01
    -23.060  0.0000E+00  0.0000E+00  0.6000E+01  0.6000E+01
    -22.927  0.0000E+00  0.0000E+00  0.6000E+01  0.6000E+01
    -22.795  0.0000E+00  0.0000E+00  0.6000E+01  0.6000E+01
    -22.662  0.0000E+00  0.0000E+00  0.6000E+01  0.6000E+01
    -22.529  0.0000E+00  0.0000E+00  0.6000E+01  0.6000E+01
    -22.396  0.0000E+00  0.0000E+00  0.6000E+01  0.6000E+01
    -22.263  0.0000E+00  0.0000E+00  0.6000E+01  0.6000E+01
    -22.131  0.0000E+00  0.0000E+00  0.6000E+01  0.6000E+01
    -21.998  0.0000E+00  0.0000E+00  0.6000E+01  0.6000E+01
    -21.865  0.0000E+00  0.0000E+00  0.6000E+01  0.6000E+01
    -21.732  0.0000E+00  0.0000E+00  0.6000E+01  0.6000E+01
    -21.599  0.0000E+00  0.0000E+00  0.6000E+01  0.6000E+01
    -21.466  0.0000E+00  0.0000E+00  0.6000E+01  0.6000E+01
    -21.334  0.0000E+00  0.0000E+00  0.6000E+01  0.6000E+01
    -21.201  0.0000E+00  0.0000E+00  0.6000E+01  0.6000E+01
    -21.068  0.0000E+00  0.0000E+00  0.6000E+01  0.6000E+01
    -20.935  0.0000E+00  0.0000E+00  0.6000E+01  0.6000E+01
    -20.802  0.0000E+00  0.0000E+00  0.6000E+01  0.6000E+01
    -20.670  0.0000E+00  0.0000E+00  0.6000E+01  0.6000E+01
    -20.537  0.0000E+00  0.0000E+00  0.6000E+01  0.6000E+01
    -20.404  0.0000E+00  0.0000E+00  0.6000E+01  0.6000E+01
    -20.271  0.0000E+00  0.0000E+00  0.6000E+01  0.6000E+01
    -20.138  0.0000E+00  0.0000E+00  0.6000E+01  0.6000E+01
    -20.006  0.0000E+00  0.0000E+00  0.6000E+01  0.6000E+01
    -19.873  0.0000E+00  0.0000E+00  0.6000E+01  0.6000E+01
    -19.740  0.0000E+00  0.0000E+00  0.6000E+01  0.6000E+01
    -19.607  0.0000E+00  0.0000E+00  0.6000E+01  0.6000E+01
    -19.474  0.0000E+00  0.0000E+00  0.6000E+01  0.6000E+01
    -19.341  0.0000E+00  0.0000E+00  0.6000E+01  0.6000E+01
    -19.209  0.0000E+00  0.0000E+00  0.6000E+01  0.6000E+01
    -19.076  0.0000E+00  0.0000E+00  0.6000E+01  0.6000E+01
    -18.943  0.0000E+00  0.0000E+00  0.6000E+01  0.6000E+01
    -18.810  0.0000E+00  0.0000E+00  0.6000E+01  0.6000E+01
    -18.677  0.0000E+00  0.0000E+00  0.6000E+01  0.6000E+01
    -18.545  0.0000E+00  0.0000E+00  0.6000E+01  0.6000E+01
    -18.412  0.0000E+00  0.0000E+00  0.6000E+01  0.6000E+01
    -18.279  0.0000E+00  0.0000E+00  0.6000E+01  0.6000E+01
    -18.146  0.0000E+00  0.0000E+00  0.6000E+01  0.6000E+01
    -18.013  0.0000E+00  0.0000E+00  0.6000E+01  0.6000E+01
    -17.881  0.0000E+00  0.0000E+00  0.6000E+01  0.6000E+01
    -17.748  0.0000E+00  0.0000E+00  0.6000E+01  0.6000E+01
    -17.615  0.0000E+00  0.0000E+00  0.6000E+01  0.6000E+01
    -17.482  0.0000E+00  0.0000E+00  0.6000E+01  0.6000E+01
    -17.349  0.0000E+00  0.0000E+00  0.6000E+01  0.6000E+01
    -17.216  0.0000E+00  0.0000E+00  0.6000E+01  0.6000E+01
    -17.084  0.0000E+00  0.0000E+00  0.6000E+01  0.6000E+01
    -16.951  0.0000E+00  0.0000E+00  0.6000E+01  0.6000E+01
    -16.818  0.0000E+00  0.0000E+00  0.6000E+01  0.6000E+01
    -16.685  0.0000E+00  0.0000E+00  0.6000E+01  0.6000E+01
    -16.552  0.0000E+00  0.0000E+00  0.6000E+01  0.6000E+01
    -16.420  0.0000E+00  0.0000E+00  0.6000E+01  0.6000E+01
    -16.287  0.0000E+00  0.0000E+00  0.6000E+01  0.6000E+01
    -16.154  0.0000E+00  0.0000E+00  0.6000E+01  0.6000E+01
    -16.021  0.0000E+00  0.0000E+00  0.6000E+01  0.6000E+01
    -15.888  0.0000E+00  0.0000E+00  0.6000E+01  0.6000E+01
    -15.756  0.0000E+00  0.0000E+00  0.6000E+01  0.6000E+01
    -15.623  0.0000E+00  0.0000E+00  0.6000E+01  0.6000E+01
    -15.490  0.0000E+00  0.0000E+00  0.6000E+01  0.6000E+01
    -15.357  0.0000E+00  0.0000E+00  0.6000E+01  0.6000E+01
    -15.224  0.0000E+00  0.0000E+00  0.6000E+01  0.6000E+01
    -15.092  0.0000E+00  0.0000E+00  0.6000E+01  0.6000E+01
    -14.959  0.0000E+00  0.0000E+00  0.6000E+01  0.6000E+01
    -14.826  0.0000E+00  0.0000E+00  0.6000E+01  0.6000E+01
    -14.693  0.0000E+00  0.0000E+00  0.6000E+01  0.6000E+01
    -14.560  0.0000E+00  0.0000E+00  0.6000E+01  0.6000E+01
    -14.427  0.0000E+00  0.0000E+00  0.6000E+01  0.6000E+01
    -14.295  0.0000E+00  0.0000E+00  0.6000E+01  0.6000E+01
    -14.162  0.0000E+00  0.0000E+00  0.6000E+01  0.6000E+01
    -14.029  0.0000E+00  0.0000E+00  0.6000E+01  0.6000E+01
    -13.896  0.0000E+00  0.0000E+00  0.6000E+01  0.6000E+01
    -13.763  0.0000E+00  0.0000E+00  0.6000E+01  0.6000E+01
    -13.631  0.0000E+00  0.0000E+00  0.6000E+01  0.6000E+01
    -13.498  0.0000E+00  0.0000E+00  0.6000E+01  0.6000E+01
    -13.365  0.0000E+00  0.0000E+00  0.6000E+01  0.6000E+01
    -13.232  0.0000E+00  0.0000E+00  0.6000E+01  0.6000E+01
    -13.099  0.0000E+00  0.0000E+00  0.6000E+01  0.6000E+01
    -12.967  0.0000E+00  0.0000E+00  0.6000E+01  0.6000E+01
    -12.834  0.0000E+00  0.0000E+00  0.6000E+01  0.6000E+01
    -12.701  0.0000E+00  0.0000E+00  0.6000E+01  0.6000E+01
    -12.568  0.0000E+00  0.0000E+00  0.6000E+01  0.6000E+01
    -12.435  0.0000E+00  0.0000E+00  0.6000E+01  0.6000E+01
    -12.302  0.0000E+00  0.0000E+00  0.6000E+01  0.6000E+01
    -12.170  0.0000E+00  0.0000E+00  0.6000E+01  0.6000E+01
    -12.037  0.0000E+00  0.0000E+00  0.6000E+01  0.6000E+01
    -11.904  0.0000E+00  0.0000E+00  0.6000E+01  0.6000E+01
    -11.771  0.0000E+00  0.0000E+00  0.6000E+01  0.6000E+01
    -11.638  0.0000E+00  0.0000E+00  0.6000E+01  0.6000E+01
    -11.506  0.0000E+00  0.0000E+00  0.6000E+01  0.6000E+01
    -11.373  0.0000E+00  0.0000E+00  0.6000E+01  0.6000E+01
    -11.240  0.0000E+00  0.0000E+00  0.6000E+01  0.6000E+01
    -11.107  0.0000E+00  0.0000E+00  0.6000E+01  0.6000E+01
    -10.974  0.0000E+00  0.0000E+00  0.6000E+01  0.6000E+01
    -10.842  0.0000E+00  0.0000E+00  0.6000E+01  0.6000E+01
    -10.709  0.0000E+00  0.0000E+00  0.6000E+01  0.6000E+01
    -10.576  0.0000E+00  0.0000E+00  0.6000E+01  0.6000E+01
    -10.443  0.0000E+00  0.0000E+00  0.6000E+01  0.6000E+01
    -10.310  0.0000E+00  0.0000E+00  0.6000E+01  0.6000E+01
    -10.178  0.0000E+00  0.0000E+00  0.6000E+01  0.6000E+01
    -10.045  0.0000E+00  0.0000E+00  0.6000E+01  0.6000E+01
     -9.912  0.0000E+00  0.0000E+00  0.6000E+01  0.6000E+01
     -9.779  0.0000E+00  0.0000E+00  0.6000E+01  0.6000E+01
     -9.646  0.0000E+00  0.0000E+00  0.6000E+01  0.6000E+01
     -9.513  0.0000E+00  0.0000E+00  0.6000E+01  0.6000E+01
     -9.381  0.0000E+00  0.0000E+00  0.6000E+01  0.6000E+01
     -9.248  0.0000E+00  0.0000E+00  0.6000E+01  0.6000E+01
     -9.115  0.0000E+00  0.0000E+00  0.6000E+01  0.6000E+01
     -8.982  0.0000E+00  0.0000E+00  0.6000E+01  0.6000E+01
     -8.849  0.0000E+00  0.0000E+00  0.6000E+01  0.6000E+01
     -8.717  0.0000E+00  0.0000E+00  0.6000E+01  0.6000E+01
     -8.584  0.0000E+00  0.0000E+00  0.6000E+01  0.6000E+01
     -8.451  0.0000E+00  0.0000E+00  0.6000E+01  0.6000E+01
     -8.318  0.0000E+00  0.0000E+00  0.6000E+01  0.6000E+01
     -8.185  0.0000E+00  0.0000E+00  0.6000E+01  0.6000E+01
     -8.053  0.0000E+00  0.0000E+00  0.6000E+01  0.6000E+01
     -7.920  0.0000E+00  0.0000E+00  0.6000E+01  0.6000E+01
     -7.787  0.0000E+00  0.0000E+00  0.6000E+01  0.6000E+01
     -7.654  0.0000E+00  0.0000E+00  0.6000E+01  0.6000E+01
     -7.521  0.0000E+00  0.0000E+00  0.6000E+01  0.6000E+01
     -7.388  0.0000E+00  0.0000E+00  0.6000E+01  0.6000E+01
     -7.256  0.0000E+00  0.0000E+00  0.6000E+01  0.6000E+01
     -7.123  0.0000E+00  0.0000E+00  0.6000E+01  0.6000E+01
     -6.990  0.0000E+00  0.0000E+00  0.6000E+01  0.6000E+01
     -6.857  0.0000E+00  0.0000E+00  0.6000E+01  0.6000E+01
     -6.724  0.0000E+00  0.0000E+00  0.6000E+01  0.6000E+01
     -6.592  0.0000E+00  0.0000E+00  0.6000E+01  0.6000E+01
     -6.459  0.0000E+00  0.0000E+00  0.6000E+01  0.6000E+01
     -6.326  0.0000E+00  0.0000E+00  0.6000E+01  0.6000E+01
     -6.193  0.0000E+00  0.0000E+00  0.6000E+01  0.6000E+01
     -6.060  0.0000E+00  0.0000E+00  0.6000E+01  0.6000E+01
     -5.928  0.0000E+00  0.0000E+00  0.6000E+01  0.6000E+01
     -5.795  0.0000E+00  0.0000E+00  0.6000E+01  0.6000E+01
     -5.662  0.0000E+00  0.0000E+00  0.6000E+01  0.6000E+01
     -5.529  0.0000E+00  0.0000E+00  0.6000E+01  0.6000E+01
     -5.396  0.0000E+00  0.0000E+00  0.6000E+01  0.6000E+01
     -5.264  0.0000E+00  0.0000E+00  0.6000E+01  0.6000E+01
     -5.131  0.0000E+00  0.0000E+00  0.6000E+01  0.6000E+01
     -4.998  0.0000E+00  0.0000E+00  0.6000E+01  0.6000E+01
     -4.865  0.0000E+00  0.0000E+00  0.6000E+01  0.6000E+01
     -4.732  0.0000E+00  0.0000E+00  0.6000E+01  0.6000E+01
     -4.599  0.0000E+00  0.0000E+00  0.6000E+01  0.6000E+01
     -4.467  0.0000E+00  0.0000E+00  0.6000E+01  0.6000E+01
     -4.334  0.0000E+00  0.0000E+00  0.6000E+01  0.6000E+01
     -4.201  0.0000E+00  0.0000E+00  0.6000E+01  0.6000E+01
     -4.068  0.0000E+00  0.0000E+00  0.6000E+01  0.6000E+01
     -3.935  0.0000E+00  0.0000E+00  0.6000E+01  0.6000E+01
     -3.803  0.0000E+00  0.0000E+00  0.6000E+01  0.6000E+01
     -3.670  0.0000E+00  0.0000E+00  0.6000E+01  0.6000E+01
     -3.537  0.2067E-05  0.2140E-05  0.6000E+01  0.6000E+01
     -3.404  0.3849E-04  0.3985E-04  0.6000E+01  0.6000E+01
     -3.271  0.5191E-03  0.5367E-03  0.6000E+01  0.6000E+01
     -3.139  0.5311E-02  0.5450E-02  0.6001E+01  0.6001E+01
     -3.006  0.2653E-01  0.2695E-01  0.6004E+01  0.6004E+01
     -2.873  0.5361E-01  0.5371E-01  0.6011E+01  0.6012E+01
     -2.740  0.5342E-01  0.5369E-01  0.6019E+01  0.6019E+01
     -2.607  0.1035E+00  0.1040E+00  0.6032E+01  0.6032E+01
     -2.474  0.9443E-01  0.9399E-01  0.6045E+01  0.6045E+01
     -2.342  0.8405E-01  0.8427E-01  0.6056E+01  0.6056E+01
     -2.209  0.1304E+00  0.1312E+00  0.6073E+01  0.6074E+01
     -2.076  0.1432E+00  0.1427E+00  0.6092E+01  0.6093E+01
     -1.943  0.1372E+00  0.1379E+00  0.6111E+01  0.6111E+01
     -1.810  0.1805E+00  0.1799E+00  0.6135E+01  0.6135E+01
     -1.678  0.1139E+00  0.1137E+00  0.6150E+01  0.6150E+01
     -1.545  0.1594E+00  0.1608E+00  0.6171E+01  0.6171E+01
     -1.412  0.2566E+00  0.2569E+00  0.6205E+01  0.6206E+01
     -1.279  0.2179E+00  0.2174E+00  0.6234E+01  0.6234E+01
     -1.146  0.1928E+00  0.1926E+00  0.6260E+01  0.6260E+01
     -1.014  0.1913E+00  0.1917E+00  0.6285E+01  0.6286E+01
     -0.881  0.2457E+00  0.2467E+00  0.6318E+01  0.6318E+01
     -0.748  0.2915E+00  0.2914E+00  0.6357E+01  0.6357E+01
     -0.615  0.2779E+00  0.2784E+00  0.6394E+01  0.6394E+01
     -0.482  0.3270E+00  0.3275E+00  0.6437E+01  0.6438E+01
     -0.349  0.3519E+00  0.3514E+00  0.6484E+01  0.6484E+01
     -0.217  0.3334E+00  0.3338E+00  0.6528E+01  0.6529E+01
     -0.084  0.2805E+00  0.2792E+00  0.6565E+01  0.6566E+01
      0.049  0.3803E+00  0.3846E+00  0.6616E+01  0.6617E+01
      0.182  0.6770E+00  0.6784E+00  0.6706E+01  0.6707E+01
      0.315  0.6229E+00  0.6218E+00  0.6789E+01  0.6790E+01
      0.447  0.5706E+00  0.5693E+00  0.6865E+01  0.6866E+01
      0.580  0.5998E+00  0.6023E+00  0.6945E+01  0.6946E+01
      0.713  0.7824E+00  0.7842E+00  0.7049E+01  0.7050E+01
      0.846  0.8016E+00  0.7996E+00  0.7155E+01  0.7156E+01
      0.979  0.6312E+00  0.6304E+00  0.7239E+01  0.7240E+01
      1.111  0.6400E+00  0.6403E+00  0.7324E+01  0.7325E+01
      1.244  0.6908E+00  0.6917E+00  0.7416E+01  0.7417E+01
      1.377  0.7574E+00  0.7579E+00  0.7517E+01  0.7518E+01
      1.510  0.7208E+00  0.7198E+00  0.7613E+01  0.7614E+01
      1.643  0.8218E+00  0.8237E+00  0.7722E+01  0.7724E+01
      1.775  0.7858E+00  0.7837E+00  0.7827E+01  0.7828E+01
      1.908  0.7897E+00  0.7917E+00  0.7932E+01  0.7933E+01
      2.041  0.1053E+01  0.1054E+01  0.8072E+01  0.8073E+01
      2.174  0.1115E+01  0.1117E+01  0.8220E+01  0.8222E+01
      2.307  0.1371E+01  0.1374E+01  0.8402E+01  0.8404E+01
      2.440  0.1640E+01  0.1644E+01  0.8620E+01  0.8623E+01
      2.572  0.1733E+01  0.1731E+01  0.8851E+01  0.8853E+01
      2.705  0.1811E+01  0.1814E+01  0.9092E+01  0.9094E+01
      2.838  0.1938E+01  0.1936E+01  0.9349E+01  0.9352E+01
      2.971  0.1598E+01  0.1593E+01  0.9562E+01  0.9564E+01
      3.104  0.1130E+01  0.1126E+01  0.9712E+01  0.9714E+01
      3.236  0.8597E+00  0.8576E+00  0.9827E+01  0.9828E+01
      3.369  0.8611E+00  0.8627E+00  0.9942E+01  0.9943E+01
      3.502  0.9327E+00  0.9348E+00  0.1007E+02  0.1007E+02
      3.635  0.1235E+01  0.1241E+01  0.1023E+02  0.1023E+02
      3.768  0.1852E+01  0.1861E+01  0.1048E+02  0.1048E+02
      3.900  0.2338E+01  0.2341E+01  0.1079E+02  0.1079E+02
      4.033  0.2369E+01  0.2368E+01  0.1110E+02  0.1111E+02
      4.166  0.2167E+01  0.2162E+01  0.1139E+02  0.1139E+02
      4.299  0.1862E+01  0.1860E+01  0.1164E+02  0.1164E+02
      4.432  0.1836E+01  0.1834E+01  0.1188E+02  0.1189E+02
      4.565  0.1601E+01  0.1600E+01  0.1210E+02  0.1210E+02
      4.697  0.1768E+01  0.1770E+01  0.1233E+02  0.1233E+02
      4.830  0.1857E+01  0.1855E+01  0.1258E+02  0.1258E+02
      4.963  0.1551E+01  0.1546E+01  0.1278E+02  0.1279E+02
      5.096  0.1110E+01  0.1106E+01  0.1293E+02  0.1293E+02
      5.229  0.9176E+00  0.9164E+00  0.1305E+02  0.1306E+02
      5.361  0.8647E+00  0.8637E+00  0.1317E+02  0.1317E+02
      5.494  0.7959E+00  0.7961E+00  0.1328E+02  0.1328E+02
      5.627  0.9175E+00  0.9183E+00  0.1340E+02  0.1340E+02
      5.760  0.7784E+00  0.7765E+00  0.1350E+02  0.1350E+02
      5.893  0.7825E+00  0.7838E+00  0.1361E+02  0.1361E+02
      6.025  0.8598E+00  0.8598E+00  0.1372E+02  0.1372E+02
      6.158  0.8919E+00  0.8915E+00  0.1384E+02  0.1384E+02
      6.291  0.7728E+00  0.7727E+00  0.1394E+02  0.1394E+02
      6.424  0.9204E+00  0.9216E+00  0.1406E+02  0.1406E+02
      6.557  0.9475E+00  0.9469E+00  0.1419E+02  0.1419E+02
      6.689  0.8693E+00  0.8661E+00  0.1431E+02  0.1431E+02
      6.822  0.9094E+00  0.9061E+00  0.1443E+02  0.1443E+02
      6.955  0.1135E+01  0.1139E+01  0.1458E+02  0.1458E+02
      7.088  0.1139E+01  0.1141E+01  0.1473E+02  0.1473E+02
      7.221  0.1509E+01  0.1513E+01  0.1493E+02  0.1493E+02
      7.354  0.1649E+01  0.1644E+01  0.1515E+02  0.1515E+02
      7.486  0.1332E+01  0.1314E+01  0.1533E+02  0.1532E+02
      7.619  0.1038E+01  0.1034E+01  0.1546E+02  0.1546E+02
      7.752  0.9650E+00  0.9694E+00  0.1559E+02  0.1559E+02
      7.885  0.1144E+01  0.1154E+01  0.1574E+02  0.1574E+02
      8.018  0.8570E+00  0.8497E+00  0.1586E+02  0.1586E+02
      8.150  0.6996E+00  0.7081E+00  0.1595E+02  0.1595E+02
      8.283  0.3189E+00  0.3209E+00  0.1599E+02  0.1599E+02
      8.416  0.4021E-01  0.3989E-01  0.1600E+02  0.1600E+02
      8.549  0.1423E-02  0.1302E-02  0.1600E+02  0.1600E+02
      8.682  0.0000E+00  0.0000E+00  0.1600E+02  0.1600E+02
      8.814  0.0000E+00  0.0000E+00  0.1600E+02  0.1600E+02
      8.947  0.0000E+00  0.0000E+00  0.1600E+02  0.1600E+02
      9.080  0.0000E+00  0.0000E+00  0.1600E+02  0.1600E+02
      9.213  0.0000E+00  0.0000E+00  0.1600E+02  0.1600E+02
      9.346  0.0000E+00  0.0000E+00  0.1600E+02  0.1600E+02
      9.479  0.0000E+00  0.0000E+00  0.1600E+02  0.1600E+02
      9.611  0.0000E+00  0.0000E+00  0.1600E+02  0.1600E+02
      9.744  0.0000E+00  0.0000E+00  0.1600E+02  0.1600E+02
      9.877  0.0000E+00  0.0000E+00  0.1600E+02  0.1600E+02
     10.010  0.0000E+00  0.0000E+00  0.1600E+02  0.1600E+02
     10.00976378    -29.83354866  301      3.43289340      1.00000000
    -29.834  0.0000E+00  0.0000E+00  0.0000E+00  0.0000E+00  0.0000E+00  0.0000E+00  0.0000E+00  0.0000E+00  0.0000E+00  0.0000E+00  0.0000E+00  0.0000E+00  0.0000E+00  0.0000E+00  0.0000E+00  0.0000E+00  0.0000E+00  0.0000E+00
    -29.701  0.0000E+00  0.0000E+00  0.0000E+00  0.0000E+00  0.0000E+00  0.0000E+00  0.0000E+00  0.0000E+00  0.0000E+00  0.0000E+00  0.0000E+00  0.0000E+00  0.0000E+00  0.0000E+00  0.0000E+00  0.0000E+00  0.0000E+00  0.0000E+00
    -29.568  0.0000E+00  0.0000E+00  0.0000E+00  0.0000E+00  0.0000E+00  0.0000E+00  0.0000E+00  0.0000E+00  0.0000E+00  0.0000E+00  0.0000E+00  0.0000E+00  0.0000E+00  0.0000E+00  0.0000E+00  0.0000E+00  0.0000E+00  0.0000E+00
    -29.435  0.0000E+00  0.0000E+00  0.0000E+00  0.0000E+00  0.0000E+00  0.0000E+00  0.0000E+00  0.0000E+00  0.0000E+00  0.0000E+00  0.0000E+00  0.0000E+00  0.0000E+00  0.0000E+00  0.0000E+00  0.0000E+00  0.0000E+00  0.0000E+00
    -29.302  0.0000E+00  0.0000E+00  0.0000E+00  0.0000E+00  0.0000E+00  0.0000E+00  0.0000E+00  0.0000E+00  0.0000E+00  0.0000E+00  0.0000E+00  0.0000E+00  0.0000E+00  0.0000E+00  0.0000E+00  0.0000E+00  0.0000E+00  0.0000E+00
    -29.169  0.0000E+00  0.0000E+00  0.0000E+00  0.0000E+00  0.0000E+00  0.0000E+00  0.0000E+00  0.0000E+00  0.0000E+00  0.0000E+00  0.0000E+00  0.0000E+00  0.0000E+00  0.0000E+00  0.0000E+00  0.0000E+00  0.0000E+00  0.0000E+00
    -29.037  0.0000E+00  0.0000E+00  0.0000E+00  0.0000E+00  0.0000E+00  0.0000E+00  0.0000E+00  0.0000E+00  0.0000E+00  0.0000E+00  0.0000E+00  0.0000E+00  0.0000E+00  0.0000E+00  0.0000E+00  0.0000E+00  0.0000E+00  0.0000E+00
    -28.904  0.0000E+00  0.0000E+00  0.0000E+00  0.0000E+00  0.0000E+00  0.0000E+00  0.0000E+00  0.0000E+00  0.0000E+00  0.0000E+00  0.0000E+00  0.0000E+00  0.0000E+00  0.0000E+00  0.0000E+00  0.0000E+00  0.0000E+00  0.0000E+00
    -28.771  0.0000E+00  0.0000E+00  0.0000E+00  0.0000E+00  0.0000E+00  0.0000E+00  0.0000E+00  0.0000E+00  0.0000E+00  0.0000E+00  0.0000E+00  0.0000E+00  0.0000E+00  0.0000E+00  0.0000E+00  0.0000E+00  0.0000E+00  0.0000E+00
    -28.638  0.0000E+00  0.0000E+00  0.0000E+00  0.0000E+00  0.0000E+00  0.0000E+00  0.0000E+00  0.0000E+00  0.0000E+00  0.0000E+00  0.0000E+00  0.0000E+00  0.0000E+00  0.0000E+00  0.0000E+00  0.0000E+00  0.0000E+00  0.0000E+00
    -28.505  0.1047E-09  0.1071E-09  0.5696E-08  0.2431E-06  0.7204E-05  0.7481E-05  0.5696E-08  0.2431E-06  0.8005E-12  0.2062E-11  0.7951E-10  0.8035E-10  0.2406E-10  0.2622E-10  0.7951E-10  0.8035E-10  0.8005E-12  0.2062E-11
    -28.373  0.2528E-07  0.2561E-07  0.2045E-03  0.2060E-03  0.4649E-03  0.4708E-03  0.2045E-03  0.2060E-03  0.5819E-08  0.5862E-08  0.8807E-08  0.8928E-08  0.5853E-08  0.5897E-08  0.8807E-08  0.8928E-08  0.5819E-08  0.5862E-08
    -28.240  0.3599E-06  0.3613E-06  0.3009E-02  0.3029E-02  0.6496E-02  0.6551E-02  0.3009E-02  0.3029E-02  0.8667E-07  0.8714E-07  0.1278E-06  0.1287E-06  0.9445E-07  0.9494E-07  0.1278E-06  0.1287E-06  0.8667E-07  0.8714E-07
    -28.107  0.4968E-05  0.4990E-05  0.4181E-01  0.4207E-01  0.8831E-01  0.8905E-01  0.4181E-01  0.4207E-01  0.1198E-05  0.1204E-05  0.1751E-05  0.1765E-05  0.1301E-05  0.1308E-05  0.1751E-05  0.1765E-05  0.1198E-05  0.1204E-05
    -27.974  0.5273E-04  0.5286E-04  0.4376E+00  0.4396E+00  0.8027E+00  0.8073E+00  0.4376E+00  0.4396E+00  0.1267E-04  0.1272E-04  0.1734E-04  0.1743E-04  0.1421E-04  0.1426E-04  0.1734E-04  0.1743E-04  0.1267E-04  0.1272E-04
    -27.841  0.1872E-03  0.1869E-03  0.1665E+01  0.1667E+01  0.2134E+01  0.2137E+01  0.1665E+01  0.1667E+01  0.4732E-04  0.4735E-04  0.5882E-04  0.5890E-04  0.6499E-04  0.6508E-04  0.5882E-04  0.5890E-04  0.4732E-04  0.4735E-04
    -27.709  0.1595E-03  0.1587E-03  0.2900E+01  0.2901E+01  0.2567E+01  0.2567E+01  0.2900E+01  0.2901E+01  0.7238E-04  0.7232E-04  0.8056E-04  0.8048E-04  0.1044E-03  0.1043E-03  0.8057E-04  0.8048E-04  0.7238E-04  0.7232E-04
    -27.576  0.4618E-04  0.4586E-04  0.1996E+01  0.1992E+01  0.1547E+01  0.1540E+01  0.1996E+01  0.1992E+01  0.3748E-04  0.3733E-04  0.4117E-04  0.4098E-04  0.4595E-04  0.4574E-04  0.4117E-04  0.4098E-04  0.3748E-04  0.3733E-04
    -27.443  0.4655E-05  0.4612E-05  0.3153E+00  0.3137E+00  0.2192E+00  0.2176E+00  0.3153E+00  0.3137E+00  0.4992E-05  0.4962E-05  0.5316E-05  0.5278E-05  0.5563E-05  0.5523E-05  0.5316E-05  0.5278E-05  0.4992E-05  0.4962E-05
    -27.310  0.1465E-06  0.1376E-06  0.1884E-01  0.1857E-01  0.1107E-01  0.1095E-01  0.1884E-01  0.1857E-01  0.2229E-06  0.2190E-06  0.2205E-06  0.2168E-06  0.2000E-06  0.1982E-06  0.2205E-06  0.2168E-06  0.2229E-06  0.2190E-06
    -27.177  0.0000E+00  0.0000E+00  0.0000E+00  0.0000E+00  0.0000E+00  0.0000E+00  0.0000E+00  0.0000E+00  0.0000E+00  0.0000E+00  0.0000E+00  0.0000E+00  0.0000E+00  0.0000E+00  0.0000E+00  0.0000E+00  0.0000E+00  0.0000E+00
    -27.045  0.0000E+00  0.0000E+00  0.0000E+00  0.0000E+00  0.0000E+00  0.0000E+00  0.0000E+00  0.0000E+00  0.0000E+00  0.0000E+00  0.0000E+00  0.0000E+00  0.0000E+00  0.0000E+00  0.0000E+00  0.0000E+00  0.0000E+00  0.0000E+00
    -26.912  0.0000E+00  0.0000E+00  0.0000E+00  0.0000E+00  0.0000E+00  0.0000E+00  0.0000E+00  0.0000E+00  0.0000E+00  0.0000E+00  0.0000E+00  0.0000E+00  0.0000E+00  0.0000E+00  0.0000E+00  0.0000E+00  0.0000E+00  0.0000E+00
    -26.779  0.0000E+00  0.0000E+00  0.0000E+00  0.0000E+00  0.0000E+00  0.0000E+00  0.0000E+00  0.0000E+00  0.0000E+00  0.0000E+00  0.0000E+00  0.0000E+00  0.0000E+00  0.0000E+00  0.0000E+00  0.0000E+00  0.0000E+00  0.0000E+00
    -26.646  0.0000E+00  0.0000E+00  0.0000E+00  0.0000E+00  0.0000E+00  0.0000E+00  0.0000E+00  0.0000E+00  0.0000E+00  0.0000E+00  0.0000E+00  0.0000E+00  0.0000E+00  0.0000E+00  0.0000E+00  0.0000E+00  0.0000E+00  0.0000E+00
    -26.513  0.0000E+00  0.0000E+00  0.0000E+00  0.0000E+00  0.0000E+00  0.0000E+00  0.0000E+00  0.0000E+00  0.0000E+00  0.0000E+00  0.0000E+00  0.0000E+00  0.0000E+00  0.0000E+00  0.0000E+00  0.0000E+00  0.0000E+00  0.0000E+00
    -26.380  0.0000E+00  0.0000E+00  0.0000E+00  0.0000E+00  0.0000E+00  0.0000E+00  0.0000E+00  0.0000E+00  0.0000E+00  0.0000E+00  0.0000E+00  0.0000E+00  0.0000E+00  0.0000E+00  0.0000E+00  0.0000E+00  0.0000E+00  0.0000E+00
    -26.248  0.0000E+00  0.0000E+00  0.0000E+00  0.0000E+00  0.0000E+00  0.0000E+00  0.0000E+00  0.0000E+00  0.0000E+00  0.0000E+00  0.0000E+00  0.0000E+00  0.0000E+00  0.0000E+00  0.0000E+00  0.0000E+00  0.0000E+00  0.0000E+00
    -26.115  0.0000E+00  0.0000E+00  0.0000E+00  0.0000E+00  0.0000E+00  0.0000E+00  0.0000E+00  0.0000E+00  0.0000E+00  0.0000E+00  0.0000E+00  0.0000E+00  0.0000E+00  0.0000E+00  0.0000E+00  0.0000E+00  0.0000E+00  0.0000E+00
    -25.982  0.0000E+00  0.0000E+00  0.0000E+00  0.0000E+00  0.0000E+00  0.0000E+00  0.0000E+00  0.0000E+00  0.0000E+00  0.0000E+00  0.0000E+00  0.0000E+00  0.0000E+00  0.0000E+00  0.0000E+00  0.0000E+00  0.0000E+00  0.0000E+00
    -25.849  0.0000E+00  0.0000E+00  0.0000E+00  0.0000E+00  0.0000E+00  0.0000E+00  0.0000E+00  0.0000E+00  0.0000E+00  0.0000E+00  0.0000E+00  0.0000E+00  0.0000E+00  0.0000E+00  0.0000E+00  0.0000E+00  0.0000E+00  0.0000E+00
    -25.716  0.0000E+00  0.0000E+00  0.0000E+00  0.0000E+00  0.0000E+00  0.0000E+00  0.0000E+00  0.0000E+00  0.0000E+00  0.0000E+00  0.0000E+00  0.0000E+00  0.0000E+00  0.0000E+00  0.0000E+00  0.0000E+00  0.0000E+00  0.0000E+00
    -25.584  0.0000E+00  0.0000E+00  0.0000E+00  0.0000E+00  0.0000E+00  0.0000E+00  0.0000E+00  0.0000E+00  0.0000E+00  0.0000E+00  0.0000E+00  0.0000E+00  0.0000E+00  0.0000E+00  0.0000E+00  0.0000E+00  0.0000E+00  0.0000E+00
    -25.451  0.0000E+00  0.0000E+00  0.0000E+00  0.0000E+00  0.0000E+00  0.0000E+00  0.0000E+00  0.0000E+00  0.0000E+00  0.0000E+00  0.0000E+00  0.0000E+00  0.0000E+00  0.0000E+00  0.0000E+00  0.0000E+00  0.0000E+00  0.0000E+00
    -25.318  0.0000E+00  0.0000E+00  0.0000E+00  0.0000E+00  0.0000E+00  0.0000E+00  0.0000E+00  0.0000E+00  0.0000E+00  0.0000E+00  0.0000E+00  0.0000E+00  0.0000E+00  0.0000E+00  0.0000E+00  0.0000E+00  0.0000E+00  0.0000E+00
    -25.185  0.0000E+00  0.0000E+00  0.0000E+00  0.0000E+00  0.0000E+00  0.0000E+00  0.0000E+00  0.0000E+00  0.0000E+00  0.0000E+00  0.0000E+00  0.0000E+00  0.0000E+00  0.0000E+00  0.0000E+00  0.0000E+00  0.0000E+00  0.0000E+00
    -25.052  0.0000E+00  0.0000E+00  0.0000E+00  0.0000E+00  0.0000E+00  0.0000E+00  0.0000E+00  0.0000E+00  0.0000E+00  0.0000E+00  0.0000E+00  0.0000E+00  0.0000E+00  0.0000E+00  0.0000E+00  0.0000E+00  0.0000E+00  0.0000E+00
    -24.920  0.0000E+00  0.0000E+00  0.0000E+00  0.0000E+00  0.0000E+00  0.0000E+00  0.0000E+00  0.0000E+00  0.0000E+00  0.0000E+00  0.0000E+00  0.0000E+00  0.0000E+00  0.0000E+00  0.0000E+00  0.0000E+00  0.0000E+00  0.0000E+00
    -24.787  0.0000E+00  0.0000E+00  0.0000E+00  0.0000E+00  0.0000E+00  0.0000E+00  0.0000E+00  0.0000E+00  0.0000E+00  0.0000E+00  0.0000E+00  0.0000E+00  0.0000E+00  0.0000E+00  0.0000E+00  0.0000E+00  0.0000E+00  0.0000E+00
    -24.654  0.0000E+00  0.0000E+00  0.0000E+00  0.0000E+00  0.0000E+00  0.0000E+00  0.0000E+00  0.0000E+00  0.0000E+00  0.0000E+00  0.0000E+00  0.0000E+00  0.0000E+00  0.0000E+00  0.0000E+00  0.0000E+00  0.0000E+00  0.0000E+00
    -24.521  0.0000E+00  0.0000E+00  0.0000E+00  0.0000E+00  0.0000E+00  0.0000E+00  0.0000E+00  0.0000E+00  0.0000E+00  0.0000E+00  0.0000E+00  0.0000E+00  0.0000E+00  0.0000E+00  0.0000E+00  0.0000E+00  0.0000E+00  0.0000E+00
    -24.388  0.0000E+00  0.0000E+00  0.0000E+00  0.0000E+00  0.0000E+00  0.0000E+00  0.0000E+00  0.0000E+00  0.0000E+00  0.0000E+00  0.0000E+00  0.0000E+00  0.0000E+00  0.0000E+00  0.0000E+00  0.0000E+00  0.0000E+00  0.0000E+00
    -24.255  0.0000E+00  0.0000E+00  0.0000E+00  0.0000E+00  0.0000E+00  0.0000E+00  0.0000E+00  0.0000E+00  0.0000E+00  0.0000E+00  0.0000E+00  0.0000E+00  0.0000E+00  0.0000E+00  0.0000E+00  0.0000E+00  0.0000E+00  0.0000E+00
    -24.123  0.0000E+00  0.0000E+00  0.0000E+00  0.0000E+00  0.0000E+00  0.0000E+00  0.0000E+00  0.0000E+00  0.0000E+00  0.0000E+00  0.0000E+00  0.0000E+00  0.0000E+00  0.0000E+00  0.0000E+00  0.0000E+00  0.0000E+00  0.0000E+00
    -23.990  0.0000E+00  0.0000E+00  0.0000E+00  0.0000E+00  0.0000E+00  0.0000E+00  0.0000E+00  0.0000E+00  0.0000E+00  0.0000E+00  0.0000E+00  0.0000E+00  0.0000E+00  0.0000E+00  0.0000E+00  0.0000E+00  0.0000E+00  0.0000E+00
    -23.857  0.0000E+00  0.0000E+00  0.0000E+00  0.0000E+00  0.0000E+00  0.0000E+00  0.0000E+00  0.0000E+00  0.0000E+00  0.0000E+00  0.0000E+00  0.0000E+00  0.0000E+00  0.0000E+00  0.0000E+00  0.0000E+00  0.0000E+00  0.0000E+00
    -23.724  0.0000E+00  0.0000E+00  0.0000E+00  0.0000E+00  0.0000E+00  0.0000E+00  0.0000E+00  0.0000E+00  0.0000E+00  0.0000E+00  0.0000E+00  0.0000E+00  0.0000E+00  0.0000E+00  0.0000E+00  0.0000E+00  0.0000E+00  0.0000E+00
    -23.591  0.0000E+00  0.0000E+00  0.0000E+00  0.0000E+00  0.0000E+00  0.0000E+00  0.0000E+00  0.0000E+00  0.0000E+00  0.0000E+00  0.0000E+00  0.0000E+00  0.0000E+00  0.0000E+00  0.0000E+00  0.0000E+00  0.0000E+00  0.0000E+00
    -23.459  0.0000E+00  0.0000E+00  0.0000E+00  0.0000E+00  0.0000E+00  0.0000E+00  0.0000E+00  0.0000E+00  0.0000E+00  0.0000E+00  0.0000E+00  0.0000E+00  0.0000E+00  0.0000E+00  0.0000E+00  0.0000E+00  0.0000E+00  0.0000E+00
    -23.326  0.0000E+00  0.0000E+00  0.0000E+00  0.0000E+00  0.0000E+00  0.0000E+00  0.0000E+00  0.0000E+00  0.0000E+00  0.0000E+00  0.0000E+00  0.0000E+00  0.0000E+00  0.0000E+00  0.0000E+00  0.0000E+00  0.0000E+00  0.0000E+00
    -23.193  0.0000E+00  0.0000E+00  0.0000E+00  0.0000E+00  0.0000E+00  0.0000E+00  0.0000E+00  0.0000E+00  0.0000E+00  0.0000E+00  0.0000E+00  0.0000E+00  0.0000E+00  0.0000E+00  0.0000E+00  0.0000E+00  0.0000E+00  0.0000E+00