   2   2   1   0
  0.2245153E+02  0.3199217E-09  0.3199217E-09  0.5065914E-09  0.5000000E-15
  1.000000000000000E-004
  CAR 
 unknown system                          
     13.07008616    -28.05497971  301      4.89661192      1.00000000
    -28.055  0.0000E+00  0.0000E+00  0.0000E+00  0.0000E+00
    -27.918  0.0000E+00  0.0000E+00  0.0000E+00  0.0000E+00
    -27.781  0.0000E+00  0.0000E+00  0.0000E+00  0.0000E+00
    -27.644  0.0000E+00  0.0000E+00  0.0000E+00  0.0000E+00
    -27.507  0.0000E+00  0.0000E+00  0.0000E+00  0.0000E+00
    -27.370  0.0000E+00  0.0000E+00  0.0000E+00  0.0000E+00
    -27.232  0.0000E+00  0.0000E+00  0.0000E+00  0.0000E+00
    -27.095  0.0000E+00  0.0000E+00  0.0000E+00  0.0000E+00
    -26.958  0.0000E+00  0.0000E+00  0.0000E+00  0.0000E+00
    -26.821  0.0000E+00  0.0000E+00  0.0000E+00  0.0000E+00
    -26.684  0.2725E-05  0.2756E-05  0.3735E-06  0.3777E-06
    -26.547  0.2175E-03  0.2196E-03  0.3018E-04  0.3048E-04
    -26.410  0.4234E-02  0.4275E-02  0.6106E-03  0.6165E-03
    -26.273  0.6346E-01  0.6405E-01  0.9310E-02  0.9397E-02
    -26.136  0.7546E+00  0.7601E+00  0.1127E+00  0.1136E+00
    -25.999  0.3959E+01  0.3972E+01  0.6555E+00  0.6581E+00
    -25.862  0.5921E+01  0.5918E+01  0.1467E+01  0.1469E+01
    -25.725  0.5592E+01  0.5593E+01  0.2234E+01  0.2236E+01
    -25.587  0.7858E+01  0.7868E+01  0.3313E+01  0.3317E+01
    -25.450  0.1103E+02  0.1103E+02  0.4826E+01  0.4831E+01
    -25.313  0.7133E+01  0.7111E+01  0.5805E+01  0.5807E+01
    -25.176  0.1297E+01  0.1288E+01  0.5985E+01  0.5985E+01
    -25.039  0.7557E-01  0.7473E-01  0.5999E+01  0.5999E+01
    -24.902  0.0000E+00  0.0000E+00  0.6000E+01  0.6000E+01
    -24.765  0.0000E+00  0.0000E+00  0.6000E+01  0.6000E+01
    -24.628  0.0000E+00  0.0000E+00  0.6000E+01  0.6000E+01
    -24.491  0.0000E+00  0.0000E+00  0.6000E+01  0.6000E+01
    -24.354  0.0000E+00  0.0000E+00  0.6000E+01  0.6000E+01
    -24.217  0.0000E+00  0.0000E+00  0.6000E+01  0.6000E+01
    -24.080  0.0000E+00  0.0000E+00  0.6000E+01  0.6000E+01
    -23.942  0.0000E+00  0.0000E+00  0.6000E+01  0.6000E+01
    -23.805  0.0000E+00  0.0000E+00  0.6000E+01  0.6000E+01
    -23.668  0.0000E+00  0.0000E+00  0.6000E+01  0.6000E+01
    -23.531  0.0000E+00  0.0000E+00  0.6000E+01  0.6000E+01
    -23.394  0.0000E+00  0.0000E+00  0.6000E+01  0.6000E+01
    -23.257  0.0000E+00  0.0000E+00  0.6000E+01  0.6000E+01
    -23.120  0.0000E+00  0.0000E+00  0.6000E+01  0.6000E+01
    -22.983  0.0000E+00  0.0000E+00  0.6000E+01  0.6000E+01
    -22.846  0.0000E+00  0.0000E+00  0.6000E+01  0.6000E+01
    -22.709  0.0000E+00  0.0000E+00  0.6000E+01  0.6000E+01
    -22.572  0.0000E+00  0.0000E+00  0.6000E+01  0.6000E+01
    -22.435  0.0000E+00  0.0000E+00  0.6000E+01  0.6000E+01
    -22.297  0.0000E+00  0.0000E+00  0.6000E+01  0.6000E+01
    -22.160  0.0000E+00  0.0000E+00  0.6000E+01  0.6000E+01
    -22.023  0.0000E+00  0.0000E+00  0.6000E+01  0.6000E+01
    -21.886  0.0000E+00  0.0000E+00  0.6000E+01  0.6000E+01
    -21.749  0.0000E+00  0.0000E+00  0.6000E+01  0.6000E+01
    -21.612  0.0000E+00  0.0000E+00  0.6000E+01  0.6000E+01
    -21.475  0.0000E+00  0.0000E+00  0.6000E+01  0.6000E+01
    -21.338  0.0000E+00  0.0000E+00  0.6000E+01  0.6000E+01
    -21.201  0.0000E+00  0.0000E+00  0.6000E+01  0.6000E+01
    -21.064  0.0000E+00  0.0000E+00  0.6000E+01  0.6000E+01
    -20.927  0.0000E+00  0.0000E+00  0.6000E+01  0.6000E+01
    -20.790  0.0000E+00  0.0000E+00  0.6000E+01  0.6000E+01
    -20.652  0.0000E+00  0.0000E+00  0.6000E+01  0.6000E+01
    -20.515  0.0000E+00  0.0000E+00  0.6000E+01  0.6000E+01
    -20.378  0.0000E+00  0.0000E+00  0.6000E+01  0.6000E+01
    -20.241  0.0000E+00  0.0000E+00  0.6000E+01  0.6000E+01
    -20.104  0.0000E+00  0.0000E+00  0.6000E+01  0.6000E+01
    -19.967  0.0000E+00  0.0000E+00  0.6000E+01  0.6000E+01
    -19.830  0.0000E+00  0.0000E+00  0.6000E+01  0.6000E+01
    -19.693  0.0000E+00  0.0000E+00  0.6000E+01  0.6000E+01
    -19.556  0.0000E+00  0.0000E+00  0.6000E+01  0.6000E+01
    -19.419  0.0000E+00  0.0000E+00  0.6000E+01  0.6000E+01
    -19.282  0.0000E+00  0.0000E+00  0.6000E+01  0.6000E+01
    -19.145  0.0000E+00  0.0000E+00  0.6000E+01  0.6000E+01
    -19.007  0.0000E+00  0.0000E+00  0.6000E+01  0.6000E+01
    -18.870  0.0000E+00  0.0000E+00  0.6000E+01  0.6000E+01
    -18.733  0.0000E+00  0.0000E+00  0.6000E+01  0.6000E+01
    -18.596  0.0000E+00  0.0000E+00  0.6000E+01  0.6000E+01
    -18.459  0.0000E+00  0.0000E+00  0.6000E+01  0.6000E+01
    -18.322  0.0000E+00  0.0000E+00  0.6000E+01  0.6000E+01
    -18.185  0.0000E+00  0.0000E+00  0.6000E+01  0.6000E+01
    -18.048  0.0000E+00  0.0000E+00  0.6000E+01  0.6000E+01
    -17.911  0.0000E+00  0.0000E+00  0.6000E+01  0.6000E+01
    -17.774  0.0000E+00  0.0000E+00  0.6000E+01  0.6000E+01
    -17.637  0.0000E+00  0.0000E+00  0.6000E+01  0.6000E+01
    -17.500  0.0000E+00  0.0000E+00  0.6000E+01  0.6000E+01
    -17.362  0.0000E+00  0.0000E+00  0.6000E+01  0.6000E+01
    -17.225  0.0000E+00  0.0000E+00  0.6000E+01  0.6000E+01
    -17.088  0.0000E+00  0.0000E+00  0.6000E+01  0.6000E+01
    -16.951  0.0000E+00  0.0000E+00  0.6000E+01  0.6000E+01
    -16.814  0.0000E+00  0.0000E+00  0.6000E+01  0.6000E+01
    -16.677  0.0000E+00  0.0000E+00  0.6000E+01  0.6000E+01
    -16.540  0.0000E+00  0.0000E+00  0.6000E+01  0.6000E+01
    -16.403  0.0000E+00  0.0000E+00  0.6000E+01  0.6000E+01
    -16.266  0.0000E+00  0.0000E+00  0.6000E+01  0.6000E+01
    -16.129  0.0000E+00  0.0000E+00  0.6000E+01  0.6000E+01
    -15.992  0.0000E+00  0.0000E+00  0.6000E+01  0.6000E+01
    -15.855  0.0000E+00  0.0000E+00  0.6000E+01  0.6000E+01
    -15.717  0.0000E+00  0.0000E+00  0.6000E+01  0.6000E+01
    -15.580  0.0000E+00  0.0000E+00  0.6000E+01  0.6000E+01
    -15.443  0.0000E+00  0.0000E+00  0.6000E+01  0.6000E+01
    -15.306  0.0000E+00  0.0000E+00  0.6000E+01  0.6000E+01
    -15.169  0.0000E+00  0.0000E+00  0.6000E+01  0.6000E+01
    -15.032  0.0000E+00  0.0000E+00  0.6000E+01  0.6000E+01
    -14.895  0.0000E+00  0.0000E+00  0.6000E+01  0.6000E+01
    -14.758  0.0000E+00  0.0000E+00  0.6000E+01  0.6000E+01
    -14.621  0.0000E+00  0.0000E+00  0.6000E+01  0.6000E+01
    -14.484  0.0000E+00  0.0000E+00  0.6000E+01  0.6000E+01
    -14.347  0.0000E+00  0.0000E+00  0.6000E+01  0.6000E+01
    -14.210  0.0000E+00  0.0000E+00  0.6000E+01  0.6000E+01
    -14.072  0.0000E+00  0.0000E+00  0.6000E+01  0.6000E+01
    -13.935  0.0000E+00  0.0000E+00  0.6000E+01  0.6000E+01
    -13.798  0.0000E+00  0.0000E+00  0.6000E+01  0.6000E+01
    -13.661  0.0000E+00  0.0000E+00  0.6000E+01  0.6000E+01
    -13.524  0.0000E+00  0.0000E+00  0.6000E+01  0.6000E+01
    -13.387  0.0000E+00  0.0000E+00  0.6000E+01  0.6000E+01
    -13.250  0.0000E+00  0.0000E+00  0.6000E+01  0.6000E+01
    -13.113  0.0000E+00  0.0000E+00  0.6000E+01  0.6000E+01
    -12.976  0.0000E+00  0.0000E+00  0.6000E+01  0.6000E+01
    -12.839  0.0000E+00  0.0000E+00  0.6000E+01  0.6000E+01
    -12.702  0.0000E+00  0.0000E+00  0.6000E+01  0.6000E+01
    -12.565  0.0000E+00  0.0000E+00  0.6000E+01  0.6000E+01
    -12.427  0.0000E+00  0.0000E+00  0.6000E+01  0.6000E+01
    -12.290  0.0000E+00  0.0000E+00  0.6000E+01  0.6000E+01
    -12.153  0.0000E+00  0.0000E+00  0.6000E+01  0.6000E+01
    -12.016  0.0000E+00  0.0000E+00  0.6000E+01  0.6000E+01
    -11.879  0.0000E+00  0.0000E+00  0.6000E+01  0.6000E+01
    -11.742  0.0000E+00  0.0000E+00  0.6000E+01  0.6000E+01
    -11.605  0.0000E+00  0.0000E+00  0.6000E+01  0.6000E+01
    -11.468  0.0000E+00  0.0000E+00  0.6000E+01  0.6000E+01
    -11.331  0.0000E+00  0.0000E+00  0.6000E+01  0.6000E+01
    -11.194  0.0000E+00  0.0000E+00  0.6000E+01  0.6000E+01
    -11.057  0.0000E+00  0.0000E+00  0.6000E+01  0.6000E+01
    -10.920  0.0000E+00  0.0000E+00  0.6000E+01  0.6000E+01
    -10.782  0.0000E+00  0.0000E+00  0.6000E+01  0.6000E+01
    -10.645  0.0000E+00  0.0000E+00  0.6000E+01  0.6000E+01
    -10.508  0.0000E+00  0.0000E+00  0.6000E+01  0.6000E+01
    -10.371  0.0000E+00  0.0000E+00  0.6000E+01  0.6000E+01
    -10.234  0.0000E+00  0.0000E+00  0.6000E+01  0.6000E+01
    -10.097  0.0000E+00  0.0000E+00  0.6000E+01  0.6000E+01
     -9.960  0.0000E+00  0.0000E+00  0.6000E+01  0.6000E+01
     -9.823  0.0000E+00  0.0000E+00  0.6000E+01  0.6000E+01
     -9.686  0.0000E+00  0.0000E+00  0.6000E+01  0.6000E+01
     -9.549  0.0000E+00  0.0000E+00  0.6000E+01  0.6000E+01
     -9.412  0.0000E+00  0.0000E+00  0.6000E+01  0.6000E+01
     -9.275  0.0000E+00  0.0000E+00  0.6000E+01  0.6000E+01
     -9.137  0.0000E+00  0.0000E+00  0.6000E+01  0.6000E+01
     -9.000  0.0000E+00  0.0000E+00  0.6000E+01  0.6000E+01
     -8.863  0.0000E+00  0.0000E+00  0.6000E+01  0.6000E+01
     -8.726  0.0000E+00  0.0000E+00  0.6000E+01  0.6000E+01
     -8.589  0.0000E+00  0.0000E+00  0.6000E+01  0.6000E+01
     -8.452  0.0000E+00  0.0000E+00  0.6000E+01  0.6000E+01
     -8.315  0.0000E+00  0.0000E+00  0.6000E+01  0.6000E+01
     -8.178  0.0000E+00  0.0000E+00  0.6000E+01  0.6000E+01
     -8.041  0.0000E+00  0.0000E+00  0.6000E+01  0.6000E+01
     -7.904  0.0000E+00  0.0000E+00  0.6000E+01  0.6000E+01
     -7.767  0.0000E+00  0.0000E+00  0.6000E+01  0.6000E+01
     -7.630  0.0000E+00  0.0000E+00  0.6000E+01  0.6000E+01
     -7.492  0.0000E+00  0.0000E+00  0.6000E+01  0.6000E+01
     -7.355  0.0000E+00  0.0000E+00  0.6000E+01  0.6000E+01
     -7.218  0.0000E+00  0.0000E+00  0.6000E+01  0.6000E+01
     -7.081  0.0000E+00  0.0000E+00  0.6000E+01  0.6000E+01
     -6.944  0.0000E+00  0.0000E+00  0.6000E+01  0.6000E+01
     -6.807  0.0000E+00  0.0000E+00  0.6000E+01  0.6000E+01
     -6.670  0.0000E+00  0.0000E+00  0.6000E+01  0.6000E+01
     -6.533  0.0000E+00  0.0000E+00  0.6000E+01  0.6000E+01
     -6.396  0.0000E+00  0.0000E+00  0.6000E+01  0.6000E+01
     -6.259  0.0000E+00  0.0000E+00  0.6000E+01  0.6000E+01
     -6.122  0.0000E+00  0.0000E+00  0.6000E+01  0.6000E+01
     -5.985  0.0000E+00  0.0000E+00  0.6000E+01  0.6000E+01
     -5.847  0.0000E+00  0.0000E+00  0.6000E+01  0.6000E+01
     -5.710  0.0000E+00  0.0000E+00  0.6000E+01  0.6000E+01
     -5.573  0.0000E+00  0.0000E+00  0.6000E+01  0.6000E+01
     -5.436  0.0000E+00  0.0000E+00  0.6000E+01  0.6000E+01
     -5.299  0.0000E+00  0.0000E+00  0.6000E+01  0.6000E+01
     -5.162  0.0000E+00  0.0000E+00  0.6000E+01  0.6000E+01
     -5.025  0.0000E+00  0.0000E+00  0.6000E+01  0.6000E+01
     -4.888  0.0000E+00  0.0000E+00  0.6000E+01  0.6000E+01
     -4.751  0.0000E+00  0.0000E+00  0.6000E+01  0.6000E+01
     -4.614  0.0000E+00  0.0000E+00  0.6000E+01  0.6000E+01
     -4.477  0.0000E+00  0.0000E+00  0.6000E+01  0.6000E+01
     -4.340  0.0000E+00  0.0000E+00  0.6000E+01  0.6000E+01
     -4.202  0.0000E+00  0.0000E+00  0.6000E+01  0.6000E+01
     -4.065  0.0000E+00  0.0000E+00  0.6000E+01  0.6000E+01
     -3.928  0.0000E+00  0.0000E+00  0.6000E+01  0.6000E+01
     -3.791  0.0000E+00  0.0000E+00  0.6000E+01  0.6000E+01
     -3.654  0.0000E+00  0.0000E+00  0.6000E+01  0.6000E+01
     -3.517  0.0000E+00  0.0000E+00  0.6000E+01  0.6000E+01
     -3.380  0.0000E+00  0.0000E+00  0.6000E+01  0.6000E+01
     -3.243  0.0000E+00  0.0000E+00  0.6000E+01  0.6000E+01
     -3.106  0.0000E+00  0.0000E+00  0.6000E+01  0.6000E+01
     -2.969  0.2469E-06  0.2521E-06  0.6000E+01  0.6000E+01
     -2.832  0.5020E-05  0.5126E-05  0.6000E+01  0.6000E+01
     -2.695  0.7790E-04  0.7953E-04  0.6000E+01  0.6000E+01
     -2.557  0.1066E-02  0.1085E-02  0.6000E+01  0.6000E+01
     -2.420  0.7455E-02  0.7543E-02  0.6001E+01  0.6001E+01
     -2.283  0.2750E-01  0.2770E-01  0.6005E+01  0.6005E+01
     -2.146  0.4676E-01  0.4677E-01  0.6011E+01  0.6011E+01
     -2.009  0.3381E-01  0.3378E-01  0.6016E+01  0.6016E+01
     -1.872  0.6802E-01  0.6850E-01  0.6025E+01  0.6025E+01
     -1.735  0.9447E-01  0.9427E-01  0.6038E+01  0.6038E+01
     -1.598  0.6427E-01  0.6414E-01  0.6047E+01  0.6047E+01
     -1.461  0.6527E-01  0.6539E-01  0.6056E+01  0.6056E+01
     -1.324  0.1055E+00  0.1060E+00  0.6071E+01  0.6071E+01
     -1.187  0.1265E+00  0.1264E+00  0.6088E+01  0.6088E+01
     -1.050  0.9328E-01  0.9321E-01  0.6101E+01  0.6101E+01
     -0.912  0.1493E+00  0.1499E+00  0.6121E+01  0.6121E+01
     -0.775  0.1336E+00  0.1328E+00  0.6140E+01  0.6140E+01
     -0.638  0.8725E-01  0.8738E-01  0.6152E+01  0.6152E+01
     -0.501  0.1236E+00  0.1243E+00  0.6169E+01  0.6169E+01
     -0.364  0.2316E+00  0.2319E+00  0.6200E+01  0.6201E+01
     -0.227  0.1979E+00  0.1976E+00  0.6227E+01  0.6228E+01
     -0.090  0.1813E+00  0.1812E+00  0.6252E+01  0.6253E+01
      0.047  0.1558E+00  0.1556E+00  0.6274E+01  0.6274E+01
      0.184  0.1832E+00  0.1838E+00  0.6299E+01  0.6299E+01
      0.321  0.2318E+00  0.2319E+00  0.6331E+01  0.6331E+01
      0.458  0.2618E+00  0.2621E+00  0.6367E+01  0.6367E+01
      0.595  0.2986E+00  0.2989E+00  0.6408E+01  0.6408E+01
      0.733  0.3222E+00  0.3223E+00  0.6452E+01  0.6452E+01
      0.870  0.3648E+00  0.3653E+00  0.6502E+01  0.6502E+01
      1.007  0.3671E+00  0.3661E+00  0.6552E+01  0.6553E+01
      1.144  0.2617E+00  0.2619E+00  0.6588E+01  0.6589E+01
      1.281  0.6281E+00  0.6332E+00  0.6674E+01  0.6675E+01
      1.418  0.9689E+00  0.9677E+00  0.6807E+01  0.6808E+01
      1.555  0.6684E+00  0.6664E+00  0.6899E+01  0.6899E+01
      1.692  0.6012E+00  0.6023E+00  0.6982E+01  0.6982E+01
      1.829  0.6668E+00  0.6661E+00  0.7073E+01  0.7074E+01
      1.966  0.5847E+00  0.5851E+00  0.7153E+01  0.7154E+01
      2.103  0.7286E+00  0.7300E+00  0.7253E+01  0.7254E+01
      2.240  0.8335E+00  0.8334E+00  0.7368E+01  0.7369E+01
      2.378  0.8399E+00  0.8399E+00  0.7483E+01  0.7484E+01
      2.515  0.8048E+00  0.8034E+00  0.7594E+01  0.7594E+01
      2.652  0.6551E+00  0.6562E+00  0.7684E+01  0.7684E+01
      2.789  0.1009E+01  0.1011E+01  0.7822E+01  0.7823E+01
      2.926  0.1079E+01  0.1078E+01  0.7970E+01  0.7971E+01
      3.063  0.7403E+00  0.7380E+00  0.8072E+01  0.8072E+01
      3.200  0.6819E+00  0.6837E+00  0.8166E+01  0.8166E+01
      3.337  0.8451E+00  0.8454E+00  0.8282E+01  0.8283E+01
      3.474  0.9684E+00  0.9706E+00  0.8414E+01  0.8416E+01
      3.611  0.1249E+01  0.1250E+01  0.8586E+01  0.8587E+01
      3.748  0.1175E+01  0.1174E+01  0.8747E+01  0.8748E+01
      3.885  0.1372E+01  0.1376E+01  0.8936E+01  0.8937E+01
      4.023  0.1579E+01  0.1579E+01  0.9152E+01  0.9154E+01
      4.160  0.1600E+01  0.1601E+01  0.9372E+01  0.9374E+01
      4.297  0.1460E+01  0.1457E+01  0.9572E+01  0.9574E+01
      4.434  0.9001E+00  0.8961E+00  0.9696E+01  0.9697E+01
      4.571  0.6061E+00  0.6063E+00  0.9780E+01  0.9780E+01
      4.708  0.6661E+00  0.6665E+00  0.9871E+01  0.9872E+01
      4.845  0.6833E+00  0.6836E+00  0.9965E+01  0.9966E+01
      4.982  0.7053E+00  0.7062E+00  0.1006E+02  0.1006E+02
      5.119  0.1111E+01  0.1116E+01  0.1021E+02  0.1022E+02
      5.256  0.1679E+01  0.1681E+01  0.1044E+02  0.1045E+02
      5.393  0.1624E+01  0.1622E+01  0.1067E+02  0.1067E+02
      5.530  0.1568E+01  0.1570E+01  0.1088E+02  0.1088E+02
      5.668  0.1808E+01  0.1808E+01  0.1113E+02  0.1113E+02
      5.805  0.1566E+01  0.1564E+01  0.1135E+02  0.1135E+02
      5.942  0.1626E+01  0.1627E+01  0.1157E+02  0.1157E+02
      6.079  0.1631E+01  0.1629E+01  0.1179E+02  0.1179E+02
      6.216  0.1500E+01  0.1499E+01  0.1200E+02  0.1200E+02
      6.353  0.1409E+01  0.1408E+01  0.1219E+02  0.1219E+02
      6.490  0.1478E+01  0.1479E+01  0.1240E+02  0.1240E+02
      6.627  0.1539E+01  0.1538E+01  0.1261E+02  0.1261E+02
      6.764  0.1179E+01  0.1176E+01  0.1277E+02  0.1277E+02
      6.901  0.9129E+00  0.9127E+00  0.1289E+02  0.1290E+02
      7.038  0.8062E+00  0.8042E+00  0.1301E+02  0.1301E+02
      7.175  0.6523E+00  0.6521E+00  0.1310E+02  0.1310E+02
      7.313  0.6302E+00  0.6301E+00  0.1318E+02  0.1318E+02
      7.450  0.6395E+00  0.6391E+00  0.1327E+02  0.1327E+02
      7.587  0.7007E+00  0.7012E+00  0.1337E+02  0.1337E+02
      7.724  0.6568E+00  0.6558E+00  0.1346E+02  0.1346E+02
      7.861  0.4582E+00  0.4583E+00  0.1352E+02  0.1352E+02
      7.998  0.6173E+00  0.6178E+00  0.1360E+02  0.1360E+02
      8.135  0.6572E+00  0.6571E+00  0.1369E+02  0.1369E+02
      8.272  0.7162E+00  0.7168E+00  0.1379E+02  0.1379E+02
      8.409  0.6116E+00  0.6098E+00  0.1388E+02  0.1388E+02
      8.546  0.4993E+00  0.4999E+00  0.1395E+02  0.1395E+02
      8.683  0.6716E+00  0.6720E+00  0.1404E+02  0.1404E+02
      8.820  0.6826E+00  0.6827E+00  0.1413E+02  0.1413E+02
      8.958  0.6708E+00  0.6704E+00  0.1422E+02  0.1422E+02
      9.095  0.6443E+00  0.6438E+00  0.1431E+02  0.1431E+02
      9.232  0.6151E+00  0.6155E+00  0.1440E+02  0.1440E+02
      9.369  0.8402E+00  0.8405E+00  0.1451E+02  0.1451E+02
      9.506  0.7761E+00  0.7782E+00  0.1462E+02  0.1462E+02
      9.643  0.7908E+00  0.7911E+00  0.1473E+02  0.1473E+02
      9.780  0.1049E+01  0.1049E+01  0.1487E+02  0.1487E+02
      9.917  0.1232E+01  0.1231E+01  0.1504E+02  0.1504E+02
     10.054  0.1146E+01  0.1145E+01  0.1520E+02  0.1520E+02
     10.191  0.9516E+00  0.9495E+00  0.1533E+02  0.1533E+02
     10.328  0.6888E+00  0.6887E+00  0.1542E+02  0.1542E+02
     10.465  0.6528E+00  0.6489E+00  0.1551E+02  0.1551E+02
     10.603  0.7931E+00  0.7851E+00  0.1562E+02  0.1562E+02
     10.740  0.9191E+00  0.9088E+00  0.1575E+02  0.1574E+02
     10.877  0.6620E+00  0.6769E+00  0.1584E+02  0.1584E+02
     11.014  0.5150E+00  0.5091E+00  0.1591E+02  0.1591E+02
     11.151  0.4691E+00  0.4698E+00  0.1597E+02  0.1597E+02
     11.288  0.1705E+00  0.1811E+00  0.1600E+02  0.1600E+02
     11.425  0.1858E-01  0.1961E-01  0.1600E+02  0.1600E+02
     11.562  0.6514E-03  0.2964E-03  0.1600E+02  0.1600E+02
     11.699  0.0000E+00  0.0000E+00  0.1600E+02  0.1600E+02
     11.836  0.0000E+00  0.0000E+00  0.1600E+02  0.1600E+02
     11.973  0.0000E+00  0.0000E+00  0.1600E+02  0.1600E+02
     12.111  0.0000E+00  0.0000E+00  0.1600E+02  0.1600E+02
     12.248  0.0000E+00  0.0000E+00  0.1600E+02  0.1600E+02
     12.385  0.0000E+00  0.0000E+00  0.1600E+02  0.1600E+02
     12.522  0.0000E+00  0.0000E+00  0.1600E+02  0.1600E+02
     12.659  0.0000E+00  0.0000E+00  0.1600E+02  0.1600E+02
     12.796  0.0000E+00  0.0000E+00  0.1600E+02  0.1600E+02
     12.933  0.0000E+00  0.0000E+00  0.1600E+02  0.1600E+02
     13.070  0.0000E+00  0.0000E+00  0.1600E+02  0.1600E+02
     13.07008616    -28.05497971  301      4.89661192      1.00000000
    -28.055  0.0000E+00  0.0000E+00  0.0000E+00  0.0000E+00  0.0000E+00  0.0000E+00  0.0000E+00  0.0000E+00  0.0000E+00  0.0000E+00  0.0000E+00  0.0000E+00  0.0000E+00  0.0000E+00  0.0000E+00  0.0000E+00  0.0000E+00  0.0000E+00
    -27.918  0.0000E+00  0.0000E+00  0.0000E+00  0.0000E+00  0.0000E+00  0.0000E+00  0.0000E+00  0.0000E+00  0.0000E+00  0.0000E+00  0.0000E+00  0.0000E+00  0.0000E+00  0.0000E+00  0.0000E+00  0.0000E+00  0.0000E+00  0.0000E+00
    -27.781  0.0000E+00  0.0000E+00  0.0000E+00  0.0000E+00  0.0000E+00  0.0000E+00  0.0000E+00  0.0000E+00  0.0000E+00  0.0000E+00  0.0000E+00  0.0000E+00  0.0000E+00  0.0000E+00  0.0000E+00  0.0000E+00  0.0000E+00  0.0000E+00
    -27.644  0.0000E+00  0.0000E+00  0.0000E+00  0.0000E+00  0.0000E+00  0.0000E+00  0.0000E+00  0.0000E+00  0.0000E+00  0.0000E+00  0.0000E+00  0.0000E+00  0.0000E+00  0.0000E+00  0.0000E+00  0.0000E+00  0.0000E+00  0.0000E+00
    -27.507  0.0000E+00  0.0000E+00  0.0000E+00  0.0000E+00  0.0000E+00  0.0000E+00  0.0000E+00  0.0000E+00  0.0000E+00  0.0000E+00  0.0000E+00  0.0000E+00  0.0000E+00  0.0000E+00  0.0000E+00  0.0000E+00  0.0000E+00  0.0000E+00
    -27.370  0.0000E+00  0.0000E+00  0.0000E+00  0.0000E+00  0.0000E+00  0.0000E+00  0.0000E+00  0.0000E+00  0.0000E+00  0.0000E+00  0.0000E+00  0.0000E+00  0.0000E+00  0.0000E+00  0.0000E+00  0.0000E+00  0.0000E+00  0.0000E+00
    -27.232  0.0000E+00  0.0000E+00  0.0000E+00  0.0000E+00  0.0000E+00  0.0000E+00  0.0000E+00  0.0000E+00  0.0000E+00  0.0000E+00  0.0000E+00  0.0000E+00  0.0000E+00  0.0000E+00  0.0000E+00  0.0000E+00  0.0000E+00  0.0000E+00
    -27.095  0.0000E+00  0.0000E+00  0.0000E+00  0.0000E+00  0.0000E+00  0.0000E+00  0.0000E+00  0.0000E+00  0.0000E+00  0.0000E+00  0.0000E+00  0.0000E+00  0.0000E+00  0.0000E+00  0.0000E+00  0.0000E+00  0.0000E+00  0.0000E+00
    -26.958  0.0000E+00  0.0000E+00  0.0000E+00  0.0000E+00  0.0000E+00  0.0000E+00  0.0000E+00  0.0000E+00  0.0000E+00  0.0000E+00  0.0000E+00  0.0000E+00  0.0000E+00  0.0000E+00  0.0000E+00  0.0000E+00  0.0000E+00  0.0000E+00
    -26.821  0.0000E+00  0.0000E+00  0.0000E+00  0.0000E+00  0.0000E+00  0.0000E+00  0.0000E+00  0.0000E+00  0.0000E+00  0.0000E+00  0.0000E+00  0.0000E+00  0.0000E+00  0.0000E+00  0.0000E+00  0.0000E+00  0.0000E+00  0.0000E+00
    -26.684  0.6022E-10  0.6085E-10  0.2809E-09  0.2839E-09  0.1318E-05  0.1333E-05  0.2809E-09  0.2839E-09  0.2386E-12  0.2406E-12  0.2793E-10  0.2823E-10  0.1461E-10  0.1478E-10  0.2793E-10  0.2823E-10  0.2386E-12  0.2406E-12
    -26.547  0.7249E-08  0.7307E-08  0.1799E-04  0.1813E-04  0.6940E-04  0.7015E-04  0.1799E-04  0.1813E-04  0.1992E-08  0.2007E-08  0.4599E-08  0.4644E-08  0.2180E-08  0.2198E-08  0.4599E-08  0.4644E-08  0.1992E-08  0.2007E-08
    -26.410  0.1967E-06  0.1981E-06  0.4033E-03  0.4066E-03  0.1246E-02  0.1260E-02  0.4033E-03  0.4066E-03  0.5527E-07  0.5566E-07  0.9403E-07  0.9492E-07  0.5632E-07  0.5674E-07  0.9403E-07  0.9492E-07  0.5527E-07  0.5566E-07
    -26.273  0.3013E-05  0.3035E-05  0.6149E-02  0.6198E-02  0.1848E-01  0.1866E-01  0.6149E-02  0.6198E-02  0.8365E-06  0.8424E-06  0.1420E-05  0.1433E-05  0.8629E-06  0.8691E-06  0.1420E-05  0.1433E-05  0.8365E-06  0.8424E-06
    -26.136  0.4006E-04  0.4030E-04  0.8302E-01  0.8360E-01  0.2000E+00  0.2015E+00  0.8302E-01  0.8360E-01  0.1169E-04  0.1176E-04  0.1730E-04  0.1743E-04  0.1153E-04  0.1160E-04  0.1730E-04  0.1743E-04  0.1169E-04  0.1176E-04
    -25.999  0.2864E-03  0.2870E-03  0.5151E+00  0.5167E+00  0.8920E+00  0.8950E+00  0.5151E+00  0.5167E+00  0.8246E-04  0.8266E-04  0.9576E-04  0.9604E-04  0.7791E-04  0.7808E-04  0.9576E-04  0.9604E-04  0.8246E-04  0.8266E-04
    -25.862  0.6453E-03  0.6443E-03  0.8675E+00  0.8673E+00  0.1145E+01  0.1144E+01  0.8675E+00  0.8673E+00  0.1378E-03  0.1376E-03  0.1612E-03  0.1611E-03  0.1645E-03  0.1644E-03  0.1612E-03  0.1611E-03  0.1378E-03  0.1376E-03
    -25.725  0.6029E-03  0.6011E-03  0.9170E+00  0.9175E+00  0.8981E+00  0.8980E+00  0.9170E+00  0.9175E+00  0.1507E-03  0.1507E-03  0.1832E-03  0.1830E-03  0.2554E-03  0.2554E-03  0.1832E-03  0.1830E-03  0.1507E-03  0.1507E-03
    -25.587  0.3992E-03  0.3978E-03  0.1377E+01  0.1379E+01  0.1106E+01  0.1107E+01  0.1377E+01  0.1379E+01  0.2297E-03  0.2296E-03  0.2250E-03  0.2248E-03  0.3425E-03  0.3422E-03  0.2250E-03  0.2248E-03  0.2297E-03  0.2296E-03
    -25.450  0.2278E-03  0.2268E-03  0.1882E+01  0.1882E+01  0.1675E+01  0.1675E+01  0.1882E+01  0.1882E+01  0.2214E-03  0.2208E-03  0.2533E-03  0.2528E-03  0.2757E-03  0.2749E-03  0.2533E-03  0.2528E-03  0.2214E-03  0.2208E-03
    -25.313  0.7384E-04  0.7334E-04  0.1247E+01  0.1243E+01  0.1030E+01  0.1026E+01  0.1247E+01  0.1243E+01  0.9501E-04  0.9453E-04  0.1160E-03  0.1153E-03  0.1072E-03  0.1066E-03  0.1160E-03  0.1153E-03  0.9501E-04  0.9453E-04
    -25.176  0.8920E-05  0.8802E-05  0.2354E+00  0.2341E+00  0.1703E+00  0.1688E+00  0.2354E+00  0.2341E+00  0.1369E-04  0.1359E-04  0.1557E-04  0.1543E-04  0.1459E-04  0.1446E-04  0.1557E-04  0.1543E-04  0.1369E-04  0.1359E-04
    -25.039  0.3312E-06  0.3279E-06  0.1433E-01  0.1423E-01  0.8736E-02  0.8520E-02  0.1433E-01  0.1423E-01  0.6396E-06  0.6338E-06  0.6090E-06  0.5904E-06  0.6536E-06  0.6454E-06  0.6090E-06  0.5904E-06  0.6396E-06  0.6338E-06
    -24.902  0.0000E+00  0.0000E+00  0.0000E+00  0.0000E+00  0.0000E+00  0.0000E+00  0.0000E+00  0.0000E+00  0.0000E+00  0.0000E+00  0.0000E+00  0.0000E+00  0.0000E+00  0.0000E+00  0.0000E+00  0.0000E+00  0.0000E+00  0.0000E+00
    -24.765  0.0000E+00  0.0000E+00  0.0000E+00  0.0000E+00  0.0000E+00  0.0000E+00  0.0000E+00  0.0000E+00  0.0000E+00  0.0000E+00  0.0000E+00  0.0000E+00  0.0000E+00  0.0000E+00  0.0000E+00  0.0000E+00  0.0000E+00  0.0000E+00
    -24.628  0.0000E+00  0.0000E+00  0.0000E+00  0.0000E+00  0.0000E+00  0.0000E+00  0.0000E+00  0.0000E+00  0.0000E+00  0.0000E+00  0.0000E+00  0.0000E+00  0.0000E+00  0.0000E+00  0.0000E+00  0.0000E+00  0.0000E+00  0.0000E+00
    -24.491  0.0000E+00  0.0000E+00  0.0000E+00  0.0000E+00  0.0000E+00  0.0000E+00  0.0000E+00  0.0000E+00  0.0000E+00  0.0000E+00  0.0000E+00  0.0000E+00  0.0000E+00  0.0000E+00  0.0000E+00  0.0000E+00  0.0000E+00  0.0000E+00
    -24.354  0.0000E+00  0.0000E+00  0.0000E+00  0.0000E+00  0.0000E+00  0.0000E+00  0.0000E+00  0.0000E+00  0.0000E+00  0.0000E+00  0.0000E+00  0.0000E+00  0.0000E+00  0.0000E+00  0.0000E+00  0.0000E+00  0.0000E+00  0.0000E+00
    -24.217  0.0000E+00  0.0000E+00  0.0000E+00  0.0000E+00  0.0000E+00  0.0000E+00  0.0000E+00  0.0000E+00  0.0000E+00  0.0000E+00  0.0000E+00  0.0000E+00  0.0000E+00  0.0000E+00  0.0000E+00  0.0000E+00  0.0000E+00  0.0000E+00
    -24.080  0.0000E+00  0.0000E+00  0.0000E+00  0.0000E+00  0.0000E+00  0.0000E+00  0.0000E+00  0.0000E+00  0.0000E+00  0.0000E+00  0.0000E+00  0.0000E+00  0.0000E+00  0.0000E+00  0.0000E+00  0.0000E+00  0.0000E+00  0.0000E+00
    -23.942  0.0000E+00  0.0000E+00  0.0000E+00  0.0000E+00  0.0000E+00  0.0000E+00  0.0000E+00  0.0000E+00  0.0000E+00  0.0000E+00  0.0000E+00  0.0000E+00  0.0000E+00  0.0000E+00  0.0000E+00  0.0000E+00  0.0000E+00  0.0000E+00
    -23.805  0.0000E+00  0.0000E+00  0.0000E+00  0.0000E+00  0.0000E+00  0.0000E+00  0.0000E+00  0.0000E+00  0.0000E+00  0.0000E+00  0.0000E+00  0.0000E+00  0.0000E+00  0.0000E+00  0.0000E+00  0.0000E+00  0.0000E+00  0.0000E+00
    -23.668  0.0000E+00  0.0000E+00  0.0000E+00  0.0000E+00  0.0000E+00  0.0000E+00  0.0000E+00  0.0000E+00  0.0000E+00  0.0000E+00  0.0000E+00  0.0000E+00  0.0000E+00  0.0000E+00  0.0000E+00  0.0000E+00  0.0000E+00  0.0000E+00
    -23.531  0.0000E+00  0.0000E+00  0.0000E+00  0.0000E+00  0.0000E+00  0.0000E+00  0.0000E+00  0.0000E+00  0.0000E+00  0.0000E+00  0.0000E+00  0.0000E+00  0.0000E+00  0.0000E+00  0.0000E+00  0.0000E+00  0.0000E+00  0.0000E+00
    -23.394  0.0000E+00  0.0000E+00  0.0000E+00  0.0000E+00  0.0000E+00  0.0000E+00  0.0000E+00  0.0000E+00  0.0000E+00  0.0000E+00  0.0000E+00  0.0000E+00  0.0000E+00  0.0000E+00  0.0000E+00  0.0000E+00  0.0000E+00  0.0000E+00
    -23.257  0.0000E+00  0.0000E+00  0.0000E+00  0.0000E+00  0.0000E+00  0.0000E+00  0.0000E+00  0.0000E+00  0.0000E+00  0.0000E+00  0.0000E+00  0.0000E+00  0.0000E+00  0.0000E+00  0.0000E+00  0.0000E+00  0.0000E+00  0.0000E+00
    -23.120  0.0000E+00  0.0000E+00  0.0000E+00  0.0000E+00  0.0000E+00  0.0000E+00  0.0000E+00  0.0000E+00  0.0000E+00  0.0000E+00  0.0000E+00  0.0000E+00  0.0000E+00  0.0000E+00  0.0000E+00  0.0000E+00  0.0000E+00  0.0000E+00
    -22.983  0.0000E+00  0.0000E+00  0.0000E+00  0.0000E+00  0.0000E+00  0.0000E+00  0.0000E+00  0.0000E+00  0.0000E+00  0.0000E+00  0.0000E+00  0.0000E+00  0.0000E+00  0.0000E+00  0.0000E+00  0.0000E+00  0.0000E+00  0.0000E+00
    -22.846  0.0000E+00  0.0000E+00  0.0000E+00  0.0000E+00  0.0000E+00  0.0000E+00  0.0000E+00  0.0000E+00  0.0000E+00  0.0000E+00  0.0000E+00  0.0000E+00  0.0000E+00  0.0000E+00  0.0000E+00  0.0000E+00  0.0000E+00  0.0000E+00
    -22.709  0.0000E+00  0.0000E+00  0.0000E+00  0.0000E+00  0.0000E+00  0.0000E+00  0.0000E+00  0.0000E+00  0.0000E+00  0.0000E+00  0.0000E+00  0.0000E+00  0.0000E+00  0.0000E+00  0.0000E+00  0.0000E+00  0.0000E+00  0.0000E+00
    -22.572  0.0000E+00  0.0000E+00  0.0000E+00  0.0000E+00  0.0000E+00  0.0000E+00  0.0000E+00  0.0000E+00  0.0000E+00  0.0000E+00  0.0000E+00  0.0000E+00  0.0000E+00  0.0000E+00  0.0000E+00  0.0000E+00  0.0000E+00  0.0000E+00
    -22.435  0.0000E+00  0.0000E+00  0.0000E+00  0.0000E+00  0.0000E+00  0.0000E+00  0.0000E+00  0.0000E+00  0.0000E+00  0.0000E+00  0.0000E+00  0.0000E+00  0.0000E+00  0.0000E+00  0.0000E+00  0.0000E+00  0.0000E+00  0.0000E+00
    -22.297  0.0000E+00  0.0000E+00  0.0000E+00  0.0000E+00  0.0000E+00  0.0000E+00  0.0000E+00  0.0000E+00  0.0000E+00  0.0000E+00  0.0000E+00  0.0000E+00  0.0000E+00  0.0000E+00  0.0000E+00  0.0000E+00  0.0000E+00  0.0000E+00
    -22.160  0.0000E+00  0.0000E+00  0.0000E+00  0.0000E+00  0.0000E+00  0.0000E+00  0.0000E+00  0.0000E+00  0.0000E+00  0.0000E+00  0.0000E+00  0.0000E+00  0.0000E+00  0.0000E+00  0.0000E+00  0.0000E+00  0.0000E+00  0.0000E+00
    -22.023  0.0000E+00  0.0000E+00  0.0000E+00  0.0000E+00  0.0000E+00  0.0000E+00  0.0000E+00  0.0000E+00  0.0000E+00  0.0000E+00  0.0000E+00  0.0000E+00  0.0000E+00  0.0000E+00  0.0000E+00  0.0000E+00  0.0000E+00  0.0000E+00
    -21.886  0.0000E+00  0.0000E+00  0.0000E+00  0.0000E+00  0.0000E+00  0.0000E+00  0.0000E+00  0.0000E+00  0.0000E+00  0.0000E+00  0.0000E+00  0.0000E+00  0.0000E+00  0.0000E+00  0.0000E+00  0.0000E+00  0.0000E+00  0.0000E+00
    -21.749  0.0000E+00  0.0000E+00  0.0000E+00  0.0000E+00  0.0000E+00  0.0000E+00  0.0000E+00  0.0000E+00  0.0000E+00  0.0000E+00  0.0000E+00  0.0000E+00  0.0000E+00  0.0000E+00  0.0000E+00  0.0000E+00  0.0000E+00  0.0000E+00
    -21.612  0.0000E+00  0.0000E+00  0.0000E+00  0.0000E+00  0.0000E+00  0.0000E+00  0.0000E+00  0.0000E+00  0.0000E+00  0.0000E+00  0.0000E+00  0.0000E+00  0.0000E+00  0.0000E+00  0.0000E+00  0.0000E+00  0.0000E+00  0.0000E+00
    -21.475  0.0000E+00  0.0000E+00  0.0000E+00  0.0000E+00  0.0000E+00  0.0000E+00  0.0000E+00  0.0000E+00  0.0000E+00  0.0000E+00  0.0000E+00  0.0000E+00  0.0000E+00  0.0000E+00  0.0000E+00  0.0000E+00  0.0000E+00  0.0000E+00
    -21.338  0.0000E+00  0.0000E+00  0.0000E+00  0.0000E+00  0.0000E+00  0.0000E+00  0.0000E+00  0.0000E+00  0.0000E+00  0.0000E+00  0.0000E+00  0.0000E+00  0.0000E+00  0.0000E+00  0.0000E+00  0.0000E+00  0.0000E+00  0.0000E+00
    -21.201  0.0000E+00  0.0000E+00  0.0000E+00  0.0000E+00  0.0000E+00  0.0000E+00  0.0000E+00  0.0000E+00  0.0000E+00  0.0000E+00  0.0000E+00  0.0000E+00  0.0000E+00  0.0000E+00  0.0000E+00  0.0000E+00  0.0000E+00  0.0000E+00