   2   2   1   0
  0.2113120E+02  0.3135233E-09  0.3135232E-09  0.4964596E-09  0.5000000E-15
  1.000000000000000E-004
  CAR 
 unknown system                          
     13.96935211    -27.61126366  301      5.33186225      1.00000000
    -27.611  0.0000E+00  0.0000E+00  0.0000E+00  0.0000E+00
    -27.473  0.0000E+00  0.0000E+00  0.0000E+00  0.0000E+00
    -27.334  0.0000E+00  0.0000E+00  0.0000E+00  0.0000E+00
    -27.195  0.0000E+00  0.0000E+00  0.0000E+00  0.0000E+00
    -27.057  0.0000E+00  0.0000E+00  0.0000E+00  0.0000E+00
    -26.918  0.0000E+00  0.0000E+00  0.0000E+00  0.0000E+00
    -26.780  0.0000E+00  0.0000E+00  0.0000E+00  0.0000E+00
    -26.641  0.0000E+00  0.0000E+00  0.0000E+00  0.0000E+00
    -26.502  0.0000E+00  0.0000E+00  0.0000E+00  0.0000E+00
    -26.364  0.0000E+00  0.0000E+00  0.0000E+00  0.0000E+00
    -26.225  0.1223E-05  0.1245E-05  0.1695E-06  0.1725E-06
    -26.087  0.1201E-03  0.1222E-03  0.1681E-04  0.1711E-04
    -25.948  0.2528E-02  0.2571E-02  0.3672E-03  0.3735E-03
    -25.809  0.3908E-01  0.3973E-01  0.5784E-02  0.5881E-02
    -25.671  0.4779E+00  0.4844E+00  0.7202E-01  0.7302E-01
    -25.532  0.2822E+01  0.2843E+01  0.4632E+00  0.4671E+00
    -25.394  0.5218E+01  0.5219E+01  0.1186E+01  0.1190E+01
    -25.255  0.4402E+01  0.4398E+01  0.1797E+01  0.1800E+01
    -25.116  0.4717E+01  0.4725E+01  0.2451E+01  0.2456E+01
    -24.978  0.6903E+01  0.6921E+01  0.3409E+01  0.3416E+01
    -24.839  0.9574E+01  0.9583E+01  0.4737E+01  0.4746E+01
    -24.701  0.7200E+01  0.7164E+01  0.5736E+01  0.5740E+01
    -24.562  0.1723E+01  0.1702E+01  0.5977E+01  0.5978E+01
    -24.423  0.1302E+00  0.1280E+00  0.5999E+01  0.5999E+01
    -24.285  0.7934E-03  0.7801E-03  0.6000E+01  0.6000E+01
    -24.146  0.0000E+00  0.0000E+00  0.6000E+01  0.6000E+01
    -24.008  0.0000E+00  0.0000E+00  0.6000E+01  0.6000E+01
    -23.869  0.0000E+00  0.0000E+00  0.6000E+01  0.6000E+01
    -23.730  0.0000E+00  0.0000E+00  0.6000E+01  0.6000E+01
    -23.592  0.0000E+00  0.0000E+00  0.6000E+01  0.6000E+01
    -23.453  0.0000E+00  0.0000E+00  0.6000E+01  0.6000E+01
    -23.315  0.0000E+00  0.0000E+00  0.6000E+01  0.6000E+01
    -23.176  0.0000E+00  0.0000E+00  0.6000E+01  0.6000E+01
    -23.037  0.0000E+00  0.0000E+00  0.6000E+01  0.6000E+01
    -22.899  0.0000E+00  0.0000E+00  0.6000E+01  0.6000E+01
    -22.760  0.0000E+00  0.0000E+00  0.6000E+01  0.6000E+01
    -22.622  0.0000E+00  0.0000E+00  0.6000E+01  0.6000E+01
    -22.483  0.0000E+00  0.0000E+00  0.6000E+01  0.6000E+01
    -22.344  0.0000E+00  0.0000E+00  0.6000E+01  0.6000E+01
    -22.206  0.0000E+00  0.0000E+00  0.6000E+01  0.6000E+01
    -22.067  0.0000E+00  0.0000E+00  0.6000E+01  0.6000E+01
    -21.929  0.0000E+00  0.0000E+00  0.6000E+01  0.6000E+01
    -21.790  0.0000E+00  0.0000E+00  0.6000E+01  0.6000E+01
    -21.651  0.0000E+00  0.0000E+00  0.6000E+01  0.6000E+01
    -21.513  0.0000E+00  0.0000E+00  0.6000E+01  0.6000E+01
    -21.374  0.0000E+00  0.0000E+00  0.6000E+01  0.6000E+01
    -21.236  0.0000E+00  0.0000E+00  0.6000E+01  0.6000E+01
    -21.097  0.0000E+00  0.0000E+00  0.6000E+01  0.6000E+01
    -20.958  0.0000E+00  0.0000E+00  0.6000E+01  0.6000E+01
    -20.820  0.0000E+00  0.0000E+00  0.6000E+01  0.6000E+01
    -20.681  0.0000E+00  0.0000E+00  0.6000E+01  0.6000E+01
    -20.543  0.0000E+00  0.0000E+00  0.6000E+01  0.6000E+01
    -20.404  0.0000E+00  0.0000E+00  0.6000E+01  0.6000E+01
    -20.265  0.0000E+00  0.0000E+00  0.6000E+01  0.6000E+01
    -20.127  0.0000E+00  0.0000E+00  0.6000E+01  0.6000E+01
    -19.988  0.0000E+00  0.0000E+00  0.6000E+01  0.6000E+01
    -19.850  0.0000E+00  0.0000E+00  0.6000E+01  0.6000E+01
    -19.711  0.0000E+00  0.0000E+00  0.6000E+01  0.6000E+01
    -19.572  0.0000E+00  0.0000E+00  0.6000E+01  0.6000E+01
    -19.434  0.0000E+00  0.0000E+00  0.6000E+01  0.6000E+01
    -19.295  0.0000E+00  0.0000E+00  0.6000E+01  0.6000E+01
    -19.157  0.0000E+00  0.0000E+00  0.6000E+01  0.6000E+01
    -19.018  0.0000E+00  0.0000E+00  0.6000E+01  0.6000E+01
    -18.879  0.0000E+00  0.0000E+00  0.6000E+01  0.6000E+01
    -18.741  0.0000E+00  0.0000E+00  0.6000E+01  0.6000E+01
    -18.602  0.0000E+00  0.0000E+00  0.6000E+01  0.6000E+01
    -18.464  0.0000E+00  0.0000E+00  0.6000E+01  0.6000E+01
    -18.325  0.0000E+00  0.0000E+00  0.6000E+01  0.6000E+01
    -18.186  0.0000E+00  0.0000E+00  0.6000E+01  0.6000E+01
    -18.048  0.0000E+00  0.0000E+00  0.6000E+01  0.6000E+01
    -17.909  0.0000E+00  0.0000E+00  0.6000E+01  0.6000E+01
    -17.771  0.0000E+00  0.0000E+00  0.6000E+01  0.6000E+01
    -17.632  0.0000E+00  0.0000E+00  0.6000E+01  0.6000E+01
    -17.493  0.0000E+00  0.0000E+00  0.6000E+01  0.6000E+01
    -17.355  0.0000E+00  0.0000E+00  0.6000E+01  0.6000E+01
    -17.216  0.0000E+00  0.0000E+00  0.6000E+01  0.6000E+01
    -17.078  0.0000E+00  0.0000E+00  0.6000E+01  0.6000E+01
    -16.939  0.0000E+00  0.0000E+00  0.6000E+01  0.6000E+01
    -16.800  0.0000E+00  0.0000E+00  0.6000E+01  0.6000E+01
    -16.662  0.0000E+00  0.0000E+00  0.6000E+01  0.6000E+01
    -16.523  0.0000E+00  0.0000E+00  0.6000E+01  0.6000E+01
    -16.384  0.0000E+00  0.0000E+00  0.6000E+01  0.6000E+01
    -16.246  0.0000E+00  0.0000E+00  0.6000E+01  0.6000E+01
    -16.107  0.0000E+00  0.0000E+00  0.6000E+01  0.6000E+01
    -15.969  0.0000E+00  0.0000E+00  0.6000E+01  0.6000E+01
    -15.830  0.0000E+00  0.0000E+00  0.6000E+01  0.6000E+01
    -15.691  0.0000E+00  0.0000E+00  0.6000E+01  0.6000E+01
    -15.553  0.0000E+00  0.0000E+00  0.6000E+01  0.6000E+01
    -15.414  0.0000E+00  0.0000E+00  0.6000E+01  0.6000E+01
    -15.276  0.0000E+00  0.0000E+00  0.6000E+01  0.6000E+01
    -15.137  0.0000E+00  0.0000E+00  0.6000E+01  0.6000E+01
    -14.998  0.0000E+00  0.0000E+00  0.6000E+01  0.6000E+01
    -14.860  0.0000E+00  0.0000E+00  0.6000E+01  0.6000E+01
    -14.721  0.0000E+00  0.0000E+00  0.6000E+01  0.6000E+01
    -14.583  0.0000E+00  0.0000E+00  0.6000E+01  0.6000E+01
    -14.444  0.0000E+00  0.0000E+00  0.6000E+01  0.6000E+01
    -14.305  0.0000E+00  0.0000E+00  0.6000E+01  0.6000E+01
    -14.167  0.0000E+00  0.0000E+00  0.6000E+01  0.6000E+01
    -14.028  0.0000E+00  0.0000E+00  0.6000E+01  0.6000E+01
    -13.890  0.0000E+00  0.0000E+00  0.6000E+01  0.6000E+01
    -13.751  0.0000E+00  0.0000E+00  0.6000E+01  0.6000E+01
    -13.612  0.0000E+00  0.0000E+00  0.6000E+01  0.6000E+01
    -13.474  0.0000E+00  0.0000E+00  0.6000E+01  0.6000E+01
    -13.335  0.0000E+00  0.0000E+00  0.6000E+01  0.6000E+01
    -13.197  0.0000E+00  0.0000E+00  0.6000E+01  0.6000E+01
    -13.058  0.0000E+00  0.0000E+00  0.6000E+01  0.6000E+01
    -12.919  0.0000E+00  0.0000E+00  0.6000E+01  0.6000E+01
    -12.781  0.0000E+00  0.0000E+00  0.6000E+01  0.6000E+01
    -12.642  0.0000E+00  0.0000E+00  0.6000E+01  0.6000E+01
    -12.504  0.0000E+00  0.0000E+00  0.6000E+01  0.6000E+01
    -12.365  0.0000E+00  0.0000E+00  0.6000E+01  0.6000E+01
    -12.226  0.0000E+00  0.0000E+00  0.6000E+01  0.6000E+01
    -12.088  0.0000E+00  0.0000E+00  0.6000E+01  0.6000E+01
    -11.949  0.0000E+00  0.0000E+00  0.6000E+01  0.6000E+01
    -11.811  0.0000E+00  0.0000E+00  0.6000E+01  0.6000E+01
    -11.672  0.0000E+00  0.0000E+00  0.6000E+01  0.6000E+01
    -11.533  0.0000E+00  0.0000E+00  0.6000E+01  0.6000E+01
    -11.395  0.0000E+00  0.0000E+00  0.6000E+01  0.6000E+01
    -11.256  0.0000E+00  0.0000E+00  0.6000E+01  0.6000E+01
    -11.118  0.0000E+00  0.0000E+00  0.6000E+01  0.6000E+01
    -10.979  0.0000E+00  0.0000E+00  0.6000E+01  0.6000E+01
    -10.840  0.0000E+00  0.0000E+00  0.6000E+01  0.6000E+01
    -10.702  0.0000E+00  0.0000E+00  0.6000E+01  0.6000E+01
    -10.563  0.0000E+00  0.0000E+00  0.6000E+01  0.6000E+01
    -10.425  0.0000E+00  0.0000E+00  0.6000E+01  0.6000E+01
    -10.286  0.0000E+00  0.0000E+00  0.6000E+01  0.6000E+01
    -10.147  0.0000E+00  0.0000E+00  0.6000E+01  0.6000E+01
    -10.009  0.0000E+00  0.0000E+00  0.6000E+01  0.6000E+01
     -9.870  0.0000E+00  0.0000E+00  0.6000E+01  0.6000E+01
     -9.732  0.0000E+00  0.0000E+00  0.6000E+01  0.6000E+01
     -9.593  0.0000E+00  0.0000E+00  0.6000E+01  0.6000E+01
     -9.454  0.0000E+00  0.0000E+00  0.6000E+01  0.6000E+01
     -9.316  0.0000E+00  0.0000E+00  0.6000E+01  0.6000E+01
     -9.177  0.0000E+00  0.0000E+00  0.6000E+01  0.6000E+01
     -9.039  0.0000E+00  0.0000E+00  0.6000E+01  0.6000E+01
     -8.900  0.0000E+00  0.0000E+00  0.6000E+01  0.6000E+01
     -8.761  0.0000E+00  0.0000E+00  0.6000E+01  0.6000E+01
     -8.623  0.0000E+00  0.0000E+00  0.6000E+01  0.6000E+01
     -8.484  0.0000E+00  0.0000E+00  0.6000E+01  0.6000E+01
     -8.346  0.0000E+00  0.0000E+00  0.6000E+01  0.6000E+01
     -8.207  0.0000E+00  0.0000E+00  0.6000E+01  0.6000E+01
     -8.068  0.0000E+00  0.0000E+00  0.6000E+01  0.6000E+01
     -7.930  0.0000E+00  0.0000E+00  0.6000E+01  0.6000E+01
     -7.791  0.0000E+00  0.0000E+00  0.6000E+01  0.6000E+01
     -7.653  0.0000E+00  0.0000E+00  0.6000E+01  0.6000E+01
     -7.514  0.0000E+00  0.0000E+00  0.6000E+01  0.6000E+01
     -7.375  0.0000E+00  0.0000E+00  0.6000E+01  0.6000E+01
     -7.237  0.0000E+00  0.0000E+00  0.6000E+01  0.6000E+01
     -7.098  0.0000E+00  0.0000E+00  0.6000E+01  0.6000E+01
     -6.960  0.0000E+00  0.0000E+00  0.6000E+01  0.6000E+01
     -6.821  0.0000E+00  0.0000E+00  0.6000E+01  0.6000E+01
     -6.682  0.0000E+00  0.0000E+00  0.6000E+01  0.6000E+01
     -6.544  0.0000E+00  0.0000E+00  0.6000E+01  0.6000E+01
     -6.405  0.0000E+00  0.0000E+00  0.6000E+01  0.6000E+01
     -6.267  0.0000E+00  0.0000E+00  0.6000E+01  0.6000E+01
     -6.128  0.0000E+00  0.0000E+00  0.6000E+01  0.6000E+01
     -5.989  0.0000E+00  0.0000E+00  0.6000E+01  0.6000E+01
     -5.851  0.0000E+00  0.0000E+00  0.6000E+01  0.6000E+01
     -5.712  0.0000E+00  0.0000E+00  0.6000E+01  0.6000E+01
     -5.574  0.0000E+00  0.0000E+00  0.6000E+01  0.6000E+01
     -5.435  0.0000E+00  0.0000E+00  0.6000E+01  0.6000E+01
     -5.296  0.0000E+00  0.0000E+00  0.6000E+01  0.6000E+01
     -5.158  0.0000E+00  0.0000E+00  0.6000E+01  0.6000E+01
     -5.019  0.0000E+00  0.0000E+00  0.6000E+01  0.6000E+01
     -4.881  0.0000E+00  0.0000E+00  0.6000E+01  0.6000E+01
     -4.742  0.0000E+00  0.0000E+00  0.6000E+01  0.6000E+01
     -4.603  0.0000E+00  0.0000E+00  0.6000E+01  0.6000E+01
     -4.465  0.0000E+00  0.0000E+00  0.6000E+01  0.6000E+01
     -4.326  0.0000E+00  0.0000E+00  0.6000E+01  0.6000E+01
     -4.188  0.0000E+00  0.0000E+00  0.6000E+01  0.6000E+01
     -4.049  0.0000E+00  0.0000E+00  0.6000E+01  0.6000E+01
     -3.910  0.0000E+00  0.0000E+00  0.6000E+01  0.6000E+01
     -3.772  0.0000E+00  0.0000E+00  0.6000E+01  0.6000E+01
     -3.633  0.0000E+00  0.0000E+00  0.6000E+01  0.6000E+01
     -3.495  0.0000E+00  0.0000E+00  0.6000E+01  0.6000E+01
     -3.356  0.0000E+00  0.0000E+00  0.6000E+01  0.6000E+01
     -3.217  0.0000E+00  0.0000E+00  0.6000E+01  0.6000E+01
     -3.079  0.0000E+00  0.0000E+00  0.6000E+01  0.6000E+01
     -2.940  0.0000E+00  0.0000E+00  0.6000E+01  0.6000E+01
     -2.801  0.0000E+00  0.0000E+00  0.6000E+01  0.6000E+01
     -2.663  0.1469E-05  0.1501E-05  0.6000E+01  0.6000E+01
     -2.524  0.2451E-04  0.2505E-04  0.6000E+01  0.6000E+01
     -2.386  0.3778E-03  0.3856E-03  0.6000E+01  0.6000E+01
     -2.247  0.3637E-02  0.3687E-02  0.6001E+01  0.6001E+01
     -2.108  0.1571E-01  0.1587E-01  0.6003E+01  0.6003E+01
     -1.970  0.3873E-01  0.3889E-01  0.6008E+01  0.6008E+01
     -1.831  0.3952E-01  0.3936E-01  0.6014E+01  0.6014E+01
     -1.693  0.3466E-01  0.3489E-01  0.6018E+01  0.6018E+01
     -1.554  0.8563E-01  0.8599E-01  0.6030E+01  0.6030E+01
     -1.415  0.7873E-01  0.7843E-01  0.6041E+01  0.6041E+01
     -1.277  0.5627E-01  0.5622E-01  0.6049E+01  0.6049E+01
     -1.138  0.6396E-01  0.6412E-01  0.6058E+01  0.6058E+01
     -1.000  0.1098E+00  0.1103E+00  0.6073E+01  0.6073E+01
     -0.861  0.1178E+00  0.1175E+00  0.6089E+01  0.6090E+01
     -0.722  0.8531E-01  0.8533E-01  0.6101E+01  0.6101E+01
     -0.584  0.1468E+00  0.1475E+00  0.6122E+01  0.6122E+01
     -0.445  0.1286E+00  0.1278E+00  0.6140E+01  0.6140E+01
     -0.307  0.8132E-01  0.8145E-01  0.6151E+01  0.6151E+01
     -0.168  0.1071E+00  0.1077E+00  0.6166E+01  0.6166E+01
     -0.029  0.2206E+00  0.2212E+00  0.6196E+01  0.6197E+01
      0.109  0.1982E+00  0.1978E+00  0.6224E+01  0.6224E+01
      0.248  0.1827E+00  0.1826E+00  0.6249E+01  0.6249E+01
      0.386  0.1554E+00  0.1551E+00  0.6271E+01  0.6271E+01
      0.525  0.1618E+00  0.1625E+00  0.6293E+01  0.6294E+01
      0.664  0.2217E+00  0.2217E+00  0.6324E+01  0.6324E+01
      0.802  0.2440E+00  0.2446E+00  0.6358E+01  0.6358E+01
      0.941  0.3092E+00  0.3094E+00  0.6401E+01  0.6401E+01
      1.079  0.3254E+00  0.3254E+00  0.6446E+01  0.6446E+01
      1.218  0.3844E+00  0.3852E+00  0.6499E+01  0.6500E+01
      1.357  0.4062E+00  0.4052E+00  0.6556E+01  0.6556E+01
      1.495  0.3692E+00  0.3700E+00  0.6607E+01  0.6607E+01
      1.634  0.7011E+00  0.7037E+00  0.6704E+01  0.6705E+01
      1.772  0.8991E+00  0.8988E+00  0.6829E+01  0.6830E+01
      1.911  0.6801E+00  0.6789E+00  0.6923E+01  0.6924E+01
      2.050  0.7143E+00  0.7142E+00  0.7022E+01  0.7023E+01
      2.188  0.5597E+00  0.5586E+00  0.7100E+01  0.7101E+01
      2.327  0.5546E+00  0.5563E+00  0.7177E+01  0.7178E+01
      2.465  0.8478E+00  0.8487E+00  0.7295E+01  0.7296E+01
      2.604  0.9516E+00  0.9517E+00  0.7427E+01  0.7428E+01
      2.743  0.8579E+00  0.8565E+00  0.7546E+01  0.7547E+01
      2.881  0.6508E+00  0.6507E+00  0.7637E+01  0.7637E+01
      3.020  0.9568E+00  0.9577E+00  0.7769E+01  0.7770E+01
      3.158  0.9911E+00  0.9912E+00  0.7907E+01  0.7908E+01
      3.297  0.9324E+00  0.9308E+00  0.8036E+01  0.8037E+01
      3.436  0.5590E+00  0.5590E+00  0.8114E+01  0.8114E+01
      3.574  0.7392E+00  0.7400E+00  0.8217E+01  0.8217E+01
      3.713  0.7726E+00  0.7734E+00  0.8324E+01  0.8325E+01
      3.851  0.1016E+01  0.1018E+01  0.8465E+01  0.8466E+01
      3.990  0.1179E+01  0.1179E+01  0.8628E+01  0.8629E+01
      4.129  0.1042E+01  0.1041E+01  0.8773E+01  0.8774E+01
      4.267  0.1343E+01  0.1345E+01  0.8960E+01  0.8961E+01
      4.406  0.1446E+01  0.1445E+01  0.9160E+01  0.9161E+01
      4.544  0.1528E+01  0.1530E+01  0.9372E+01  0.9374E+01
      4.683  0.1464E+01  0.1461E+01  0.9576E+01  0.9577E+01
      4.822  0.9141E+00  0.9107E+00  0.9703E+01  0.9703E+01
      4.960  0.5432E+00  0.5423E+00  0.9778E+01  0.9779E+01
      5.099  0.5383E+00  0.5386E+00  0.9854E+01  0.9854E+01
      5.237  0.5969E+00  0.5975E+00  0.9936E+01  0.9937E+01
      5.376  0.6955E+00  0.6964E+00  0.1003E+02  0.1003E+02
      5.515  0.9697E+00  0.9718E+00  0.1017E+02  0.1017E+02
      5.653  0.1521E+01  0.1523E+01  0.1038E+02  0.1038E+02
      5.792  0.1625E+01  0.1625E+01  0.1060E+02  0.1060E+02
      5.930  0.1376E+01  0.1375E+01  0.1079E+02  0.1080E+02
      6.069  0.1617E+01  0.1618E+01  0.1102E+02  0.1102E+02
      6.208  0.1549E+01  0.1548E+01  0.1123E+02  0.1124E+02
      6.346  0.1372E+01  0.1372E+01  0.1142E+02  0.1143E+02
      6.485  0.1639E+01  0.1640E+01  0.1165E+02  0.1165E+02
      6.623  0.1460E+01  0.1458E+01  0.1186E+02  0.1186E+02
      6.762  0.1493E+01  0.1493E+01  0.1206E+02  0.1206E+02
      6.901  0.1418E+01  0.1417E+01  0.1226E+02  0.1226E+02
      7.039  0.1473E+01  0.1473E+01  0.1246E+02  0.1246E+02
      7.178  0.1411E+01  0.1410E+01  0.1266E+02  0.1266E+02
      7.316  0.9880E+00  0.9870E+00  0.1280E+02  0.1280E+02
      7.455  0.8676E+00  0.8676E+00  0.1292E+02  0.1292E+02
      7.594  0.7494E+00  0.7478E+00  0.1302E+02  0.1302E+02
      7.732  0.5974E+00  0.5973E+00  0.1311E+02  0.1311E+02
      7.871  0.5789E+00  0.5784E+00  0.1319E+02  0.1319E+02
      8.009  0.6271E+00  0.6267E+00  0.1327E+02  0.1327E+02
      8.148  0.6607E+00  0.6606E+00  0.1336E+02  0.1336E+02
      8.287  0.6204E+00  0.6205E+00  0.1345E+02  0.1345E+02
      8.425  0.4003E+00  0.4004E+00  0.1351E+02  0.1351E+02
      8.564  0.5512E+00  0.5511E+00  0.1358E+02  0.1358E+02
      8.702  0.6239E+00  0.6237E+00  0.1367E+02  0.1367E+02
      8.841  0.6470E+00  0.6471E+00  0.1376E+02  0.1376E+02
      8.980  0.6643E+00  0.6643E+00  0.1385E+02  0.1385E+02
      9.118  0.4179E+00  0.4178E+00  0.1391E+02  0.1391E+02
      9.257  0.5602E+00  0.5602E+00  0.1399E+02  0.1399E+02
      9.395  0.6243E+00  0.6242E+00  0.1407E+02  0.1407E+02
      9.534  0.6269E+00  0.6270E+00  0.1416E+02  0.1416E+02
      9.673  0.6299E+00  0.6297E+00  0.1425E+02  0.1425E+02
      9.811  0.5760E+00  0.5760E+00  0.1433E+02  0.1433E+02
      9.950  0.5905E+00  0.5903E+00  0.1441E+02  0.1441E+02
     10.088  0.7929E+00  0.7927E+00  0.1452E+02  0.1452E+02
     10.227  0.6935E+00  0.6943E+00  0.1462E+02  0.1462E+02
     10.366  0.7193E+00  0.7171E+00  0.1472E+02  0.1472E+02
     10.504  0.9237E+00  0.9249E+00  0.1485E+02  0.1484E+02
     10.643  0.1141E+01  0.1142E+01  0.1500E+02  0.1500E+02
     10.782  0.1078E+01  0.1078E+01  0.1515E+02  0.1515E+02
     10.920  0.9684E+00  0.9684E+00  0.1529E+02  0.1529E+02
     11.059  0.6972E+00  0.7024E+00  0.1538E+02  0.1538E+02
     11.197  0.5853E+00  0.5837E+00  0.1547E+02  0.1547E+02
     11.336  0.6219E+00  0.6096E+00  0.1555E+02  0.1555E+02
     11.475  0.8380E+00  0.8329E+00  0.1567E+02  0.1567E+02
     11.613  0.8061E+00  0.8144E+00  0.1578E+02  0.1578E+02
     11.752  0.5438E+00  0.5331E+00  0.1586E+02  0.1585E+02
     11.890  0.4668E+00  0.4577E+00  0.1592E+02  0.1592E+02
     12.029  0.4088E+00  0.4185E+00  0.1598E+02  0.1598E+02
     12.168  0.1422E+00  0.1563E+00  0.1600E+02  0.1600E+02
     12.306  0.1450E-01  0.1611E-01  0.1600E+02  0.1600E+02
     12.445  0.2802E-03  0.2827E-03  0.1600E+02  0.1600E+02
     12.583  0.0000E+00  0.0000E+00  0.1600E+02  0.1600E+02
     12.722  0.0000E+00  0.0000E+00  0.1600E+02  0.1600E+02
     12.861  0.0000E+00  0.0000E+00  0.1600E+02  0.1600E+02
     12.999  0.0000E+00  0.0000E+00  0.1600E+02  0.1600E+02
     13.138  0.0000E+00  0.0000E+00  0.1600E+02  0.1600E+02
     13.276  0.0000E+00  0.0000E+00  0.1600E+02  0.1600E+02
     13.415  0.0000E+00  0.0000E+00  0.1600E+02  0.1600E+02
     13.554  0.0000E+00  0.0000E+00  0.1600E+02  0.1600E+02
     13.692  0.0000E+00  0.0000E+00  0.1600E+02  0.1600E+02
     13.831  0.0000E+00  0.0000E+00  0.1600E+02  0.1600E+02
     13.969  0.0000E+00  0.0000E+00  0.1600E+02  0.1600E+02
     13.96935211    -27.61126366  301      5.33186225      1.00000000
    -27.611  0.0000E+00  0.0000E+00  0.0000E+00  0.0000E+00  0.0000E+00  0.0000E+00  0.0000E+00  0.0000E+00  0.0000E+00  0.0000E+00  0.0000E+00  0.0000E+00  0.0000E+00  0.0000E+00  0.0000E+00  0.0000E+00  0.0000E+00  0.0000E+00
    -27.473  0.0000E+00  0.0000E+00  0.0000E+00  0.0000E+00  0.0000E+00  0.0000E+00  0.0000E+00  0.0000E+00  0.0000E+00  0.0000E+00  0.0000E+00  0.0000E+00  0.0000E+00  0.0000E+00  0.0000E+00  0.0000E+00  0.0000E+00  0.0000E+00
    -27.334  0.0000E+00  0.0000E+00  0.0000E+00  0.0000E+00  0.0000E+00  0.0000E+00  0.0000E+00  0.0000E+00  0.0000E+00  0.0000E+00  0.0000E+00  0.0000E+00  0.0000E+00  0.0000E+00  0.0000E+00  0.0000E+00  0.0000E+00  0.0000E+00
    -27.195  0.0000E+00  0.0000E+00  0.0000E+00  0.0000E+00  0.0000E+00  0.0000E+00  0.0000E+00  0.0000E+00  0.0000E+00  0.0000E+00  0.0000E+00  0.0000E+00  0.0000E+00  0.0000E+00  0.0000E+00  0.0000E+00  0.0000E+00  0.0000E+00
    -27.057  0.0000E+00  0.0000E+00  0.0000E+00  0.0000E+00  0.0000E+00  0.0000E+00  0.0000E+00  0.0000E+00  0.0000E+00  0.0000E+00  0.0000E+00  0.0000E+00  0.0000E+00  0.0000E+00  0.0000E+00  0.0000E+00  0.0000E+00  0.0000E+00
    -26.918  0.0000E+00  0.0000E+00  0.0000E+00  0.0000E+00  0.0000E+00  0.0000E+00  0.0000E+00  0.0000E+00  0.0000E+00  0.0000E+00  0.0000E+00  0.0000E+00  0.0000E+00  0.0000E+00  0.0000E+00  0.0000E+00  0.0000E+00  0.0000E+00
    -26.780  0.0000E+00  0.0000E+00  0.0000E+00  0.0000E+00  0.0000E+00  0.0000E+00  0.0000E+00  0.0000E+00  0.0000E+00  0.0000E+00  0.0000E+00  0.0000E+00  0.0000E+00  0.0000E+00  0.0000E+00  0.0000E+00  0.0000E+00  0.0000E+00
    -26.641  0.0000E+00  0.0000E+00  0.0000E+00  0.0000E+00  0.0000E+00  0.0000E+00  0.0000E+00  0.0000E+00  0.0000E+00  0.0000E+00  0.0000E+00  0.0000E+00  0.0000E+00  0.0000E+00  0.0000E+00  0.0000E+00  0.0000E+00  0.0000E+00
    -26.502  0.0000E+00  0.0000E+00  0.0000E+00  0.0000E+00  0.0000E+00  0.0000E+00  0.0000E+00  0.0000E+00  0.0000E+00  0.0000E+00  0.0000E+00  0.0000E+00  0.0000E+00  0.0000E+00  0.0000E+00  0.0000E+00  0.0000E+00  0.0000E+00
    -26.364  0.0000E+00  0.0000E+00  0.0000E+00  0.0000E+00  0.0000E+00  0.0000E+00  0.0000E+00  0.0000E+00  0.0000E+00  0.0000E+00  0.0000E+00  0.0000E+00  0.0000E+00  0.0000E+00  0.0000E+00  0.0000E+00  0.0000E+00  0.0000E+00
    -26.225  0.1298E-10  0.1321E-10  0.3246E-18  0.3082E-18  0.5910E-06  0.6016E-06  0.3246E-18  0.3082E-18  0.3093E-21  0.2893E-21  0.1621E-10  0.1649E-10  0.3449E-11  0.3510E-11  0.1621E-10  0.1649E-10  0.3093E-21  0.2893E-21
    -26.087  0.4859E-08  0.4940E-08  0.8083E-05  0.8213E-05  0.4195E-04  0.4269E-04  0.8083E-05  0.8213E-05  0.1035E-08  0.1051E-08  0.3572E-08  0.3634E-08  0.1454E-08  0.1478E-08  0.3572E-08  0.3634E-08  0.1035E-08  0.1051E-08
    -25.948  0.1465E-06  0.1489E-06  0.2199E-03  0.2234E-03  0.7842E-03  0.7981E-03  0.2199E-03  0.2234E-03  0.4179E-07  0.4244E-07  0.7892E-07  0.8026E-07  0.4522E-07  0.4594E-07  0.7892E-07  0.8026E-07  0.4179E-07  0.4244E-07
    -25.809  0.2342E-05  0.2379E-05  0.3479E-02  0.3535E-02  0.1197E-01  0.1217E-01  0.3479E-02  0.3535E-02  0.6571E-06  0.6673E-06  0.1230E-05  0.1250E-05  0.7149E-06  0.7260E-06  0.1230E-05  0.1250E-05  0.6571E-06  0.6673E-06
    -25.671  0.3233E-04  0.3277E-04  0.4985E-01  0.5057E-01  0.1318E+00  0.1335E+00  0.4985E-01  0.5057E-01  0.9730E-05  0.9869E-05  0.1556E-04  0.1578E-04  0.1002E-04  0.1015E-04  0.1556E-04  0.1578E-04  0.9730E-05  0.9869E-05
    -25.532  0.2621E-03  0.2644E-03  0.3633E+00  0.3662E+00  0.6419E+00  0.6463E+00  0.3633E+00  0.3662E+00  0.8378E-04  0.8448E-04  0.9726E-04  0.9800E-04  0.7840E-04  0.7903E-04  0.9726E-04  0.9800E-04  0.8378E-04  0.8448E-04
    -25.394  0.7497E-03  0.7510E-03  0.7404E+00  0.7408E+00  0.1053E+01  0.1052E+01  0.7404E+00  0.7408E+00  0.1869E-03  0.1868E-03  0.1998E-03  0.1999E-03  0.1887E-03  0.1889E-03  0.1998E-03  0.1999E-03  0.1869E-03  0.1868E-03
    -25.255  0.8605E-03  0.8589E-03  0.6961E+00  0.6958E+00  0.7515E+00  0.7504E+00  0.6961E+00  0.6958E+00  0.1568E-03  0.1567E-03  0.2033E-03  0.2033E-03  0.2475E-03  0.2479E-03  0.2033E-03  0.2033E-03  0.1568E-03  0.1567E-03
    -25.116  0.6426E-03  0.6406E-03  0.7964E+00  0.7981E+00  0.7158E+00  0.7161E+00  0.7964E+00  0.7981E+00  0.2202E-03  0.2207E-03  0.2436E-03  0.2436E-03  0.3702E-03  0.3708E-03  0.2436E-03  0.2436E-03  0.2202E-03  0.2207E-03
    -24.978  0.4403E-03  0.4388E-03  0.1226E+01  0.1229E+01  0.9416E+00  0.9446E+00  0.1226E+01  0.1229E+01  0.3115E-03  0.3115E-03  0.2901E-03  0.2903E-03  0.4428E-03  0.4425E-03  0.2901E-03  0.2903E-03  0.3115E-03  0.3115E-03
    -24.839  0.2773E-03  0.2757E-03  0.1619E+01  0.1620E+01  0.1486E+01  0.1488E+01  0.1619E+01  0.1620E+01  0.2877E-03  0.2869E-03  0.3391E-03  0.3386E-03  0.3499E-03  0.3487E-03  0.3391E-03  0.3386E-03  0.2877E-03  0.2869E-03
    -24.701  0.1058E-03  0.1048E-03  0.1239E+01  0.1234E+01  0.1081E+01  0.1075E+01  0.1239E+01  0.1234E+01  0.1399E-03  0.1388E-03  0.1792E-03  0.1777E-03  0.1595E-03  0.1582E-03  0.1792E-03  0.1777E-03  0.1399E-03  0.1388E-03
    -24.562  0.1573E-04  0.1549E-04  0.3085E+00  0.3049E+00  0.2363E+00  0.2330E+00  0.3085E+00  0.3049E+00  0.2549E-04  0.2514E-04  0.2971E-04  0.2926E-04  0.2827E-04  0.2785E-04  0.2971E-04  0.2926E-04  0.2549E-04  0.2514E-04
    -24.423  0.7855E-06  0.7718E-06  0.2405E-01  0.2368E-01  0.1638E-01  0.1609E-01  0.2405E-01  0.2368E-01  0.1600E-05  0.1574E-05  0.1591E-05  0.1563E-05  0.1724E-05  0.1693E-05  0.1591E-05  0.1563E-05  0.1600E-05  0.1574E-05
    -24.285  0.1969E-15  0.1979E-15  0.1530E-03  0.1505E-03  0.8752E-04  0.8589E-04  0.1530E-03  0.1505E-03  0.5665E-08  0.5567E-08  0.1816E-08  0.1783E-08  0.2073E-16  0.2085E-16  0.1816E-08  0.1783E-08  0.5665E-08  0.5567E-08
    -24.146  0.0000E+00  0.0000E+00  0.0000E+00  0.0000E+00  0.0000E+00  0.0000E+00  0.0000E+00  0.0000E+00  0.0000E+00  0.0000E+00  0.0000E+00  0.0000E+00  0.0000E+00  0.0000E+00  0.0000E+00  0.0000E+00  0.0000E+00  0.0000E+00
    -24.008  0.0000E+00  0.0000E+00  0.0000E+00  0.0000E+00  0.0000E+00  0.0000E+00  0.0000E+00  0.0000E+00  0.0000E+00  0.0000E+00  0.0000E+00  0.0000E+00  0.0000E+00  0.0000E+00  0.0000E+00  0.0000E+00  0.0000E+00  0.0000E+00
    -23.869  0.0000E+00  0.0000E+00  0.0000E+00  0.0000E+00  0.0000E+00  0.0000E+00  0.0000E+00  0.0000E+00  0.0000E+00  0.0000E+00  0.0000E+00  0.0000E+00  0.0000E+00  0.0000E+00  0.0000E+00  0.0000E+00  0.0000E+00  0.0000E+00
    -23.730  0.0000E+00  0.0000E+00  0.0000E+00  0.0000E+00  0.0000E+00  0.0000E+00  0.0000E+00  0.0000E+00  0.0000E+00  0.0000E+00  0.0000E+00  0.0000E+00  0.0000E+00  0.0000E+00  0.0000E+00  0.0000E+00  0.0000E+00  0.0000E+00
    -23.592  0.0000E+00  0.0000E+00  0.0000E+00  0.0000E+00  0.0000E+00  0.0000E+00  0.0000E+00  0.0000E+00  0.0000E+00  0.0000E+00  0.0000E+00  0.0000E+00  0.0000E+00  0.0000E+00  0.0000E+00  0.0000E+00  0.0000E+00  0.0000E+00
    -23.453  0.0000E+00  0.0000E+00  0.0000E+00  0.0000E+00  0.0000E+00  0.0000E+00  0.0000E+00  0.0000E+00  0.0000E+00  0.0000E+00  0.0000E+00  0.0000E+00  0.0000E+00  0.0000E+00  0.0000E+00  0.0000E+00  0.0000E+00  0.0000E+00
    -23.315  0.0000E+00  0.0000E+00  0.0000E+00  0.0000E+00  0.0000E+00  0.0000E+00  0.0000E+00  0.0000E+00  0.0000E+00  0.0000E+00  0.0000E+00  0.0000E+00  0.0000E+00  0.0000E+00  0.0000E+00  0.0000E+00  0.0000E+00  0.0000E+00
    -23.176  0.0000E+00  0.0000E+00  0.0000E+00  0.0000E+00  0.0000E+00  0.0000E+00  0.0000E+00  0.0000E+00  0.0000E+00  0.0000E+00  0.0000E+00  0.0000E+00  0.0000E+00  0.0000E+00  0.0000E+00  0.0000E+00  0.0000E+00  0.0000E+00
    -23.037  0.0000E+00  0.0000E+00  0.0000E+00  0.0000E+00  0.0000E+00  0.0000E+00  0.0000E+00  0.0000E+00  0.0000E+00  0.0000E+00  0.0000E+00  0.0000E+00  0.0000E+00  0.0000E+00  0.0000E+00  0.0000E+00  0.0000E+00  0.0000E+00
    -22.899  0.0000E+00  0.0000E+00  0.0000E+00  0.0000E+00  0.0000E+00  0.0000E+00  0.0000E+00  0.0000E+00  0.0000E+00  0.0000E+00  0.0000E+00  0.0000E+00  0.0000E+00  0.0000E+00  0.0000E+00  0.0000E+00  0.0000E+00  0.0000E+00
    -22.760  0.0000E+00  0.0000E+00  0.0000E+00  0.0000E+00  0.0000E+00  0.0000E+00  0.0000E+00  0.0000E+00  0.0000E+00  0.0000E+00  0.0000E+00  0.0000E+00  0.0000E+00  0.0000E+00  0.0000E+00  0.0000E+00  0.0000E+00  0.0000E+00
    -22.622  0.0000E+00  0.0000E+00  0.0000E+00  0.0000E+00  0.0000E+00  0.0000E+00  0.0000E+00  0.0000E+00  0.0000E+00  0.0000E+00  0.0000E+00  0.0000E+00  0.0000E+00  0.0000E+00  0.0000E+00  0.0000E+00  0.0000E+00  0.0000E+00
    -22.483  0.0000E+00  0.0000E+00  0.0000E+00  0.0000E+00  0.0000E+00  0.0000E+00  0.0000E+00  0.0000E+00  0.0000E+00  0.0000E+00  0.0000E+00  0.0000E+00  0.0000E+00  0.0000E+00  0.0000E+00  0.0000E+00  0.0000E+00  0.0000E+00
    -22.344  0.0000E+00  0.0000E+00  0.0000E+00  0.0000E+00  0.0000E+00  0.0000E+00  0.0000E+00  0.0000E+00  0.0000E+00  0.0000E+00  0.0000E+00  0.0000E+00  0.0000E+00  0.0000E+00  0.0000E+00  0.0000E+00  0.0000E+00  0.0000E+00
    -22.206  0.0000E+00  0.0000E+00  0.0000E+00  0.0000E+00  0.0000E+00  0.0000E+00  0.0000E+00  0.0000E+00  0.0000E+00  0.0000E+00  0.0000E+00  0.0000E+00  0.0000E+00  0.0000E+00  0.0000E+00  0.0000E+00  0.0000E+00  0.0000E+00
    -22.067  0.0000E+00  0.0000E+00  0.0000E+00  0.0000E+00  0.0000E+00  0.0000E+00  0.0000E+00  0.0000E+00  0.0000E+00  0.0000E+00  0.0000E+00  0.0000E+00  0.0000E+00  0.0000E+00  0.0000E+00  0.0000E+00  0.0000E+00  0.0000E+00
    -21.929  0.0000E+00  0.0000E+00  0.0000E+00  0.0000E+00  0.0000E+00  0.0000E+00  0.0000E+00  0.0000E+00  0.0000E+00  0.0000E+00  0.0000E+00  0.0000E+00  0.0000E+00  0.0000E+00  0.0000E+00  0.0000E+00  0.0000E+00  0.0000E+00
    -21.790  0.0000E+00  0.0000E+00  0.0000E+00  0.0000E+00  0.0000E+00  0.0000E+00  0.0000E+00  0.0000E+00  0.0000E+00  0.0000E+00  0.0000E+00  0.0000E+00  0.0000E+00  0.0000E+00  0.0000E+00  0.0000E+00  0.0000E+00  0.0000E+00
    -21.651  0.0000E+00  0.0000E+00  0.0000E+00  0.0000E+00  0.0000E+00  0.0000E+00  0.0000E+00  0.0000E+00  0.0000E+00  0.0000E+00  0.0000E+00  0.0000E+00  0.0000E+00  0.0000E+00  0.0000E+00  0.0000E+00  0.0000E+00  0.0000E+00
    -21.513  0.0000E+00  0.0000E+00  0.0000E+00  0.0000E+00  0.0000E+00  0.0000E+00  0.0000E+00  0.0000E+00  0.0000E+00  0.0000E+00  0.0000E+00  0.0000E+00  0.0000E+00  0.0000E+00  0.0000E+00  0.0000E+00  0.0000E+00  0.0000E+00
    -21.374  0.0000E+00  0.0000E+00  0.0000E+00  0.0000E+00  0.0000E+00  0.0000E+00  0.0000E+00  0.0000E+00  0.0000E+00  0.0000E+00  0.0000E+00  0.0000E+00  0.0000E+00  0.0000E+00  0.0000E+00  0.0000E+00  0.0000E+00  0.0000E+00
    -21.236  0.0000E+00  0.0000E+00  0.0000E+00  0.0000E+00  0.0000E+00  0.0000E+00  0.0000E+00  0.0000E+00  0.0000E+00  0.0000E+00  0.0000E+00  0.0000E+00  0.0000E+00  0.0000E+00  0.0000E+00  0.0000E+00  0.0000E+00  0.0000E+00
    -21.097  0.0000E+00  0.0000E+00  0.0000E+00  0.0000E+00  0.0000E+00  0.0000E+00  0.0000E+00  0.0000E+00  0.0000E+00  0.0000E+00  0.0000E+00  0.0000E+00  0.0000E+00  0.0000E+00  0.0000E+00  0.0000E+00  0.0000E+00  0.0000E+00
    -20.958  0.0000E+00  0.0000E+00  0.0000E+00  0.0000E+00  0.0000E+00  0.0000E+00  0.0000E+00  0.0000E+00  0.0000E+00  0.0000E+00  0.0000E+00  0.0000E+00  0.0000E+00  0.0000E+00  0.0000E+00  0.0000E+00  0.0000E+00  0.0000E+00
    -20.820  0.0000E+00  0.0000E+00  0.0000E+00  0.0000E+00  0.0000E+00  0.0000E+00  0.0000E+00  0.0000E+00  0.0000E+00  0.0000E+00  0.0000E+00  0.0000E+00  0.0000E+00  0.0000E+00  0.0000E+00  0.0000E+00  0.0000E+00  0.0000E+00
    -20.681  0.0000E+00  0.0000E+00  0.0000E+00  0.0000E+00  0.0000E+00  0.0000E+00  0.0000E+00  0.0000E+00  0.0000E+00  0.0000E+00  0.0000E+00  0.0000E+00  0.0000E+00  0.0000E+00  0.0000E+00  0.0000E+00  0.0000E+00  0.0000E+00