 vasp.6.1.0 28Jan20 (build Jun 11 2020 16:13:15) complex                        
  
 executed on             LinuxIFC date 2021.04.16  00:03:13
 running on    4 total cores
 distrk:  each k-point on    4 cores,    1 groups
 distr:  one band on NCORE=   1 cores,    4 groups


--------------------------------------------------------------------------------------------------------


 INCAR:
 POTCAR:    PAW_PBE Hf_pv 06Sep2000               
 POTCAR:    PAW_PBE Hf_pv 06Sep2000               
   SHA256 =  326372999ee61732e8151b0274b0330bf639aff42dca34b327393d3d5ff5d3de Hf_pv/POTCAR          
   COPYR  = (c) Copyright 06Sep2000 Georg Kresse                                                    
   COPYR  = This file is part of the software VASP. Any use, copying, and all other rights are regul
   COPYR  = If you do not have a valid VASP license, you may not use, copy or distribute this file. 
   VRHFIN =Hf: 5p6s5d                                                                               
   LEXCH  = PE                                                                                      
   EATOM  =   860.9206 eV,   63.2759 Ry                                                             
                                                                                                    
   TITEL  = PAW_PBE Hf_pv 06Sep2000                                                                 
   LULTRA =        F    use ultrasoft PP ?                                                          
   IUNSCR =        1    unscreen: 0-lin 1-nonlin 2-no                                               
   RPACOR =    2.500    partial core radius                                                         
   POMASS =  178.490; ZVAL   =   10.000    mass and valenz                                          
   RCORE  =    2.600    outmost cutoff radius                                                       
   RWIGS  =    3.050; RWIGS  =    1.614    wigner-seitz radius (au A)                               
   ENMAX  =  220.334; ENMIN  =  165.250 eV                                                          
   RCLOC  =    2.212    cutoff for local pot                                                        
   LCOR   =        T    correct aug charges                                                         
   LPAW   =        T    paw PP                                                                      
   EAUG   =  380.878                                                                                
   DEXC   =    0.000                                                                                
   RMAX   =    2.665    core radius for proj-oper                                                   
   RAUG   =    1.300    factor for augmentation sphere                                              
   RDEP   =    2.681    radius for radial grids                                                     
   RDEPT  =    2.139    core radius for aug-charge                                                  
                                                                                                    
   Atomic configuration                                                                             
   15 entries                                                                                       
     n  l   j            E        occ.                                                              
     1  0  0.50    -65259.4397   2.0000                                                             
     2  0  0.50    -11157.9884   2.0000                                                             
     2  1  1.50     -9795.2114   6.0000                                                             
     3  0  0.50     -2541.4060   2.0000                                                             
     3  1  1.50     -2134.4772   6.0000                                                             
     3  2  2.50     -1653.5420  10.0000                                                             
     4  0  0.50      -510.9577   2.0000                                                             
     4  1  1.50      -377.5024   6.0000                                                             
     4  2  2.50      -205.2086  10.0000                                                             
     4  3  3.50       -15.4906  14.0000                                                             
     5  0  0.50       -65.6020   2.0000                                                             
     5  1  1.50       -34.2798   6.0000                                                             
     5  2  2.50        -1.9877   3.0000                                                             
     6  0  0.50        -4.7357   1.0000                                                             
     5  3  2.50        -1.3606   0.0000                                                             
   Description                                                                                      
     l       E           TYP  RCUT    TYP  RCUT                                                     
     1    -34.2797769     23  2.500                                                                 
     1    -35.6403595     23  2.500                                                                 
     2     -1.9876655     23  2.500                                                                 
     2      0.0744675     23  2.500                                                                 
     0     -4.7356889     23  2.600                                                                 
     0      3.2364748     23  2.600                                                                 
  local pseudopotential read in
  partial core-charges read in
  partial kinetic energy density read in
  atomic valenz-charges read in
  non local Contribution for L=           1  read in
    real space projection operators read in
  non local Contribution for L=           1  read in
    real space projection operators read in
  non local Contribution for L=           2  read in
    real space projection operators read in
  non local Contribution for L=           2  read in
    real space projection operators read in
  non local Contribution for L=           0  read in
    real space projection operators read in
  non local Contribution for L=           0  read in
    real space projection operators read in
    PAW grid and wavefunctions read in
 
   number of l-projection  operators is LMAX  =           6
   number of lm-projection operators is LMMAX =          18
 
  PAW_PBE Hf_pv 06Sep2000               :
 energy of atom  1       EATOM= -860.9206
 kinetic energy error for atom=    0.0012 (will be added to EATOM!!)
 
 
 POSCAR: Hf2
  positions in direct lattice
  velocities in cartesian coordinates
 exchange correlation table for  LEXCH =        8
   RHO(1)=    0.500       N(1)  =     2000
   RHO(2)=  100.500       N(2)  =     4000
 


--------------------------------------------------------------------------------------------------------


 ion  position               nearest neighbor table
   1  0.333  0.667  0.250-   2 3.13   2 3.13   2 3.13   2 3.13   2 3.13   2 3.13
   2  0.667  0.333  0.750-   1 3.13   1 3.13   1 3.13   1 3.13   1 3.13   1 3.13
 
 -----------------------------------------------------------------------------
|                                                                             |
|           W    W    AA    RRRRR   N    N  II  N    N   GGGG   !!!           |
|           W    W   A  A   R    R  NN   N  II  NN   N  G    G  !!!           |
|           W    W  A    A  R    R  N N  N  II  N N  N  G       !!!           |
|           W WW W  AAAAAA  RRRRR   N  N N  II  N  N N  G  GGG   !            |
|           WW  WW  A    A  R   R   N   NN  II  N   NN  G    G                |
|           W    W  A    A  R    R  N    N  II  N    N   GGGG   !!!           |
|                                                                             |
|     The determination of the symmetry of your systems shows a strong        |
|     dependence on the tolerance parameter SYMPREC. This is often the        |
|     result of "noise" in the structural parameters (lattice vectors         |
|     and/or ionic positions). Set NWRITE=3 for more details.                 |
|                                                                             |
 -----------------------------------------------------------------------------

  LATTYP: Found a hexagonal cell.
 ALAT       =     3.1992170849
 C/A-ratio  =     1.5834856584
  
  Lattice vectors:
  
 A1 = (   3.1992170931,   0.0000000066,   0.0000000000)
 A2 = (  -1.5996080384,   2.7706029654,   0.0000000000)
 A3 = (   0.0000000000,   0.0000000000,   5.0659143719)


Analysis of symmetry for initial positions (statically):
=====================================================================
 Subroutine PRICEL returns:
 Original cell was already a primitive cell.
 

 Routine SETGRP: Setting up the symmetry group for a 
 hexagonal supercell.


 Subroutine GETGRP returns: Found 24 space group operations
 (whereof 12 operations were pure point group operations)
 out of a pool of 24 trial point group operations.


The static configuration has the point symmetry D_3d.
 The point group associated with its full space group is D_6h.


Analysis of symmetry for dynamics (positions and initial velocities):
=====================================================================
 Subroutine PRICEL returns:
 Original cell was already a primitive cell.
 

 Routine SETGRP: Setting up the symmetry group for a 
 hexagonal supercell.


 Subroutine GETGRP returns: Found 24 space group operations
 (whereof 12 operations were pure point group operations)
 out of a pool of 24 trial point group operations.


The dynamic configuration has the point symmetry D_3d.
 The point group associated with its full space group is D_6h.


 Subroutine INISYM returns: Found 24 space group operations
 (whereof 12 operations are pure point group operations),
 and found     1 'primitive' translations


----------------------------------------------------------------------------------------

                                     Primitive cell                                     

  volume of cell :      44.9031

  direct lattice vectors                    reciprocal lattice vectors
     3.199217093  0.000000007  0.000000000     0.312576474  0.180466074  0.000000000
    -1.599608038  2.770602965  0.000000000    -0.000000001  0.360932263  0.000000000
     0.000000000  0.000000000  5.065914372     0.000000000  0.000000000  0.197397731

  length of vectors
     3.199217093  3.199216571  5.065914372     0.360932204  0.360932263  0.197397731

  position of ions in fractional coordinates (direct lattice)
     0.333333000  0.666667000  0.250000000
     0.666667000  0.333333000  0.750000000

  ion indices of the primitive-cell ions
   primitive index   ion index
                 1           1
                 2           2

----------------------------------------------------------------------------------------

 
 
 KPOINTS: k points                                

Automatic generation of k-mesh.
Space group operators:
 irot       det(A)        alpha          n_x          n_y          n_z        tau_x        tau_y        tau_z
    1     1.000000     0.000000     1.000000     0.000000     0.000000     0.000000     0.000000     0.000000
    2    -1.000000     0.000000     1.000000     0.000000     0.000000     0.000000     0.000000     0.000000
    3     1.000000   120.000000     0.000000     0.000000    -1.000000     0.000000     0.000000     0.000000
    4    -1.000000   120.000000     0.000000     0.000000    -1.000000     0.000000     0.000000     0.000000
    5     1.000000   120.000000     0.000000     0.000000     1.000000     0.000000     0.000000     0.000000
    6    -1.000000   120.000000     0.000000     0.000000     1.000000     0.000000     0.000000     0.000000
    7     1.000000   180.000000     1.000000    -0.000000     0.000000     0.000000     0.000000     0.000000
    8    -1.000000   180.000000     1.000000    -0.000000     0.000000     0.000000     0.000000     0.000000
    9     1.000000   180.000000     0.500000    -0.866025     0.000000     0.000000     0.000000     0.000000
   10    -1.000000   180.000000     0.500000    -0.866025     0.000000     0.000000     0.000000     0.000000
   11     1.000000   180.000000    -0.500000    -0.866025     0.000000     0.000000     0.000000     0.000000
   12    -1.000000   180.000000    -0.500000    -0.866025     0.000000     0.000000     0.000000     0.000000
   13     1.000000    60.000000     0.000000     0.000000    -1.000000     0.000001    -0.000000    -0.500000
   14    -1.000000    60.000000     0.000000     0.000000    -1.000000     0.000000     0.000000    -0.500000
   15     1.000000   180.000000     0.000000     0.000000     1.000000     0.000000    -0.000000    -0.500000
   16    -1.000000   180.000000     0.000000     0.000000     1.000000     0.000000     0.000000    -0.500000
   17     1.000000    60.000000     0.000000     0.000000     1.000000     0.000000    -0.000000    -0.500000
   18    -1.000000    60.000000     0.000000     0.000000     1.000000    -0.000000     0.000001    -0.500000
   19     1.000000   180.000000     0.866025    -0.500000     0.000000     0.000000     0.000000    -0.500000
   20    -1.000000   180.000000     0.866025    -0.500000     0.000000     0.000000     0.000000    -0.500000
   21     1.000000   180.000000     0.000000    -1.000000     0.000000     0.000000     0.000000    -0.500000
   22    -1.000000   180.000000     0.000000    -1.000000     0.000000     0.000001    -0.000000    -0.500000
   23     1.000000   180.000000     0.866025     0.500000     0.000000    -0.000000     0.000001    -0.500000
   24    -1.000000   180.000000     0.866025     0.500000     0.000000     0.000000    -0.000000    -0.500000
 
 Subroutine IBZKPT returns following result:
 ===========================================
 
 Found    105 irreducible k-points:
 
 Following reciprocal coordinates:
            Coordinates               Weight
  0.000000  0.000000  0.000000      1.000000
  0.076923 -0.000000  0.000000      6.000000
  0.153846 -0.000000  0.000000      6.000000
  0.230769 -0.000000  0.000000      6.000000
  0.307692 -0.000000  0.000000      6.000000
  0.384615 -0.000000  0.000000      6.000000
  0.461538 -0.000000  0.000000      6.000000
  0.076923  0.076923  0.000000      6.000000
  0.153846  0.076923  0.000000     12.000000
  0.230769  0.076923  0.000000     12.000000
  0.307692  0.076923  0.000000     12.000000
  0.384615  0.076923  0.000000     12.000000
  0.461538  0.076923  0.000000      6.000000
  0.153846  0.153846  0.000000      6.000000
  0.230769  0.153846  0.000000     12.000000
  0.307692  0.153846  0.000000     12.000000
  0.384615  0.153846  0.000000     12.000000
  0.230769  0.230769  0.000000      6.000000
  0.307692  0.230769  0.000000     12.000000
  0.384615  0.230769  0.000000      6.000000
  0.307692  0.307692  0.000000      6.000000
  0.000000  0.000000  0.111111      2.000000
  0.076923 -0.000000  0.111111     12.000000
  0.153846 -0.000000  0.111111     12.000000
  0.230769 -0.000000  0.111111     12.000000
  0.307692 -0.000000  0.111111     12.000000
  0.384615 -0.000000  0.111111     12.000000
  0.461538 -0.000000  0.111111     12.000000
  0.076923  0.076923  0.111111     12.000000
  0.153846  0.076923  0.111111     24.000000
  0.230769  0.076923  0.111111     24.000000
  0.307692  0.076923  0.111111     24.000000
  0.384615  0.076923  0.111111     24.000000
  0.461538  0.076923  0.111111     12.000000
  0.153846  0.153846  0.111111     12.000000
  0.230769  0.153846  0.111111     24.000000
  0.307692  0.153846  0.111111     24.000000
  0.384615  0.153846  0.111111     24.000000
  0.230769  0.230769  0.111111     12.000000
  0.307692  0.230769  0.111111     24.000000
  0.384615  0.230769  0.111111     12.000000
  0.307692  0.307692  0.111111     12.000000
  0.000000  0.000000  0.222222      2.000000
  0.076923 -0.000000  0.222222     12.000000
  0.153846 -0.000000  0.222222     12.000000
  0.230769 -0.000000  0.222222     12.000000
  0.307692 -0.000000  0.222222     12.000000
  0.384615 -0.000000  0.222222     12.000000
  0.461538 -0.000000  0.222222     12.000000
  0.076923  0.076923  0.222222     12.000000
  0.153846  0.076923  0.222222     24.000000
  0.230769  0.076923  0.222222     24.000000
  0.307692  0.076923  0.222222     24.000000
  0.384615  0.076923  0.222222     24.000000
  0.461538  0.076923  0.222222     12.000000
  0.153846  0.153846  0.222222     12.000000
  0.230769  0.153846  0.222222     24.000000
  0.307692  0.153846  0.222222     24.000000
  0.384615  0.153846  0.222222     24.000000
  0.230769  0.230769  0.222222     12.000000
  0.307692  0.230769  0.222222     24.000000
  0.384615  0.230769  0.222222     12.000000
  0.307692  0.307692  0.222222     12.000000
  0.000000  0.000000  0.333333      2.000000
  0.076923 -0.000000  0.333333     12.000000
  0.153846 -0.000000  0.333333     12.000000
  0.230769 -0.000000  0.333333     12.000000
  0.307692 -0.000000  0.333333     12.000000
  0.384615 -0.000000  0.333333     12.000000
  0.461538 -0.000000  0.333333     12.000000
  0.076923  0.076923  0.333333     12.000000
  0.153846  0.076923  0.333333     24.000000
  0.230769  0.076923  0.333333     24.000000
  0.307692  0.076923  0.333333     24.000000
  0.384615  0.076923  0.333333     24.000000
  0.461538  0.076923  0.333333     12.000000
  0.153846  0.153846  0.333333     12.000000
  0.230769  0.153846  0.333333     24.000000
  0.307692  0.153846  0.333333     24.000000
  0.384615  0.153846  0.333333     24.000000
  0.230769  0.230769  0.333333     12.000000
  0.307692  0.230769  0.333333     24.000000
  0.384615  0.230769  0.333333     12.000000
  0.307692  0.307692  0.333333     12.000000
  0.000000  0.000000  0.444444      2.000000
  0.076923 -0.000000  0.444444     12.000000
  0.153846 -0.000000  0.444444     12.000000
  0.230769 -0.000000  0.444444     12.000000
  0.307692 -0.000000  0.444444     12.000000
  0.384615 -0.000000  0.444444     12.000000
  0.461538 -0.000000  0.444444     12.000000
  0.076923  0.076923  0.444444     12.000000
  0.153846  0.076923  0.444444     24.000000
  0.230769  0.076923  0.444444     24.000000
  0.307692  0.076923  0.444444     24.000000
  0.384615  0.076923  0.444444     24.000000
  0.461538  0.076923  0.444444     12.000000
  0.153846  0.153846  0.444444     12.000000
  0.230769  0.153846  0.444444     24.000000
  0.307692  0.153846  0.444444     24.000000
  0.384615  0.153846  0.444444     24.000000
  0.230769  0.230769  0.444444     12.000000
  0.307692  0.230769  0.444444     24.000000
  0.384615  0.230769  0.444444     12.000000
  0.307692  0.307692  0.444444     12.000000
 
 Following cartesian coordinates:
            Coordinates               Weight
  0.000000  0.000000  0.000000      1.000000
  0.024044  0.013882  0.000000      6.000000
  0.048089  0.027764  0.000000      6.000000
  0.072133  0.041646  0.000000      6.000000
  0.096177  0.055528  0.000000      6.000000
  0.120222  0.069410  0.000000      6.000000
  0.144266  0.083292  0.000000      6.000000
  0.024044  0.041646  0.000000      6.000000
  0.048089  0.055528  0.000000     12.000000
  0.072133  0.069410  0.000000     12.000000
  0.096177  0.083292  0.000000     12.000000
  0.120222  0.097174  0.000000     12.000000
  0.144266  0.111056  0.000000      6.000000
  0.048089  0.083292  0.000000      6.000000
  0.072133  0.097174  0.000000     12.000000
  0.096177  0.111056  0.000000     12.000000
  0.120222  0.124938  0.000000     12.000000
  0.072133  0.124938  0.000000      6.000000
  0.096177  0.138820  0.000000     12.000000
  0.120222  0.152702  0.000000      6.000000
  0.096177  0.166584  0.000000      6.000000
  0.000000  0.000000  0.021933      2.000000
  0.024044  0.013882  0.021933     12.000000
  0.048089  0.027764  0.021933     12.000000
  0.072133  0.041646  0.021933     12.000000
  0.096177  0.055528  0.021933     12.000000
  0.120222  0.069410  0.021933     12.000000
  0.144266  0.083292  0.021933     12.000000
  0.024044  0.041646  0.021933     12.000000
  0.048089  0.055528  0.021933     24.000000
  0.072133  0.069410  0.021933     24.000000
  0.096177  0.083292  0.021933     24.000000
  0.120222  0.097174  0.021933     24.000000
  0.144266  0.111056  0.021933     12.000000
  0.048089  0.083292  0.021933     12.000000
  0.072133  0.097174  0.021933     24.000000
  0.096177  0.111056  0.021933     24.000000
  0.120222  0.124938  0.021933     24.000000
  0.072133  0.124938  0.021933     12.000000
  0.096177  0.138820  0.021933     24.000000
  0.120222  0.152702  0.021933     12.000000
  0.096177  0.166584  0.021933     12.000000
  0.000000  0.000000  0.043866      2.000000
  0.024044  0.013882  0.043866     12.000000
  0.048089  0.027764  0.043866     12.000000
  0.072133  0.041646  0.043866     12.000000
  0.096177  0.055528  0.043866     12.000000
  0.120222  0.069410  0.043866     12.000000
  0.144266  0.083292  0.043866     12.000000
  0.024044  0.041646  0.043866     12.000000
  0.048089  0.055528  0.043866     24.000000
  0.072133  0.069410  0.043866     24.000000
  0.096177  0.083292  0.043866     24.000000
  0.120222  0.097174  0.043866     24.000000
  0.144266  0.111056  0.043866     12.000000
  0.048089  0.083292  0.043866     12.000000
  0.072133  0.097174  0.043866     24.000000
  0.096177  0.111056  0.043866     24.000000
  0.120222  0.124938  0.043866     24.000000
  0.072133  0.124938  0.043866     12.000000
  0.096177  0.138820  0.043866     24.000000
  0.120222  0.152702  0.043866     12.000000
  0.096177  0.166584  0.043866     12.000000
  0.000000  0.000000  0.065799      2.000000
  0.024044  0.013882  0.065799     12.000000
  0.048089  0.027764  0.065799     12.000000
  0.072133  0.041646  0.065799     12.000000
  0.096177  0.055528  0.065799     12.000000
  0.120222  0.069410  0.065799     12.000000
  0.144266  0.083292  0.065799     12.000000
  0.024044  0.041646  0.065799     12.000000
  0.048089  0.055528  0.065799     24.000000
  0.072133  0.069410  0.065799     24.000000
  0.096177  0.083292  0.065799     24.000000
  0.120222  0.097174  0.065799     24.000000
  0.144266  0.111056  0.065799     12.000000
  0.048089  0.083292  0.065799     12.000000
  0.072133  0.097174  0.065799     24.000000
  0.096177  0.111056  0.065799     24.000000
  0.120222  0.124938  0.065799     24.000000
  0.072133  0.124938  0.065799     12.000000
  0.096177  0.138820  0.065799     24.000000
  0.120222  0.152702  0.065799     12.000000
  0.096177  0.166584  0.065799     12.000000
  0.000000  0.000000  0.087732      2.000000
  0.024044  0.013882  0.087732     12.000000
  0.048089  0.027764  0.087732     12.000000
  0.072133  0.041646  0.087732     12.000000
  0.096177  0.055528  0.087732     12.000000
  0.120222  0.069410  0.087732     12.000000
  0.144266  0.083292  0.087732     12.000000
  0.024044  0.041646  0.087732     12.000000
  0.048089  0.055528  0.087732     24.000000
  0.072133  0.069410  0.087732     24.000000
  0.096177  0.083292  0.087732     24.000000
  0.120222  0.097174  0.087732     24.000000
  0.144266  0.111056  0.087732     12.000000
  0.048089  0.083292  0.087732     12.000000
  0.072133  0.097174  0.087732     24.000000
  0.096177  0.111056  0.087732     24.000000
  0.120222  0.124938  0.087732     24.000000
  0.072133  0.124938  0.087732     12.000000
  0.096177  0.138820  0.087732     24.000000
  0.120222  0.152702  0.087732     12.000000
  0.096177  0.166584  0.087732     12.000000
 
 
 Subroutine IBZKPT_HF returns following result:
 ==============================================
 
 Found   1521 k-points in 1st BZ
 the following   1521 k-points will be used (e.g. in the exchange kernel)
 Following reciprocal coordinates:   # in IRBZ
  0.000000  0.000000  0.000000    0.00065746   1 t-inv F
  0.076923 -0.000000  0.000000    0.00065746   2 t-inv F
  0.153846 -0.000000  0.000000    0.00065746   3 t-inv F
  0.230769 -0.000000  0.000000    0.00065746   4 t-inv F
  0.307692 -0.000000  0.000000    0.00065746   5 t-inv F
  0.384615 -0.000000  0.000000    0.00065746   6 t-inv F
  0.461538 -0.000000  0.000000    0.00065746   7 t-inv F
  0.076923  0.076923  0.000000    0.00065746   8 t-inv F
  0.153846  0.076923  0.000000    0.00065746   9 t-inv F
  0.230769  0.076923  0.000000    0.00065746  10 t-inv F
  0.307692  0.076923  0.000000    0.00065746  11 t-inv F
  0.384615  0.076923  0.000000    0.00065746  12 t-inv F
  0.461538  0.076923  0.000000    0.00065746  13 t-inv F
  0.153846  0.153846  0.000000    0.00065746  14 t-inv F
  0.230769  0.153846  0.000000    0.00065746  15 t-inv F
  0.307692  0.153846  0.000000    0.00065746  16 t-inv F
  0.384615  0.153846  0.000000    0.00065746  17 t-inv F
  0.230769  0.230769  0.000000    0.00065746  18 t-inv F
  0.307692  0.230769  0.000000    0.00065746  19 t-inv F
  0.384615  0.230769  0.000000    0.00065746  20 t-inv F
  0.307692  0.307692  0.000000    0.00065746  21 t-inv F
  0.000000  0.000000  0.111111    0.00065746  22 t-inv F
  0.076923 -0.000000  0.111111    0.00065746  23 t-inv F
  0.153846 -0.000000  0.111111    0.00065746  24 t-inv F
  0.230769 -0.000000  0.111111    0.00065746  25 t-inv F
  0.307692 -0.000000  0.111111    0.00065746  26 t-inv F
  0.384615 -0.000000  0.111111    0.00065746  27 t-inv F
  0.461538 -0.000000  0.111111    0.00065746  28 t-inv F
  0.076923  0.076923  0.111111    0.00065746  29 t-inv F
  0.153846  0.076923  0.111111    0.00065746  30 t-inv F
  0.230769  0.076923  0.111111    0.00065746  31 t-inv F
  0.307692  0.076923  0.111111    0.00065746  32 t-inv F
  0.384615  0.076923  0.111111    0.00065746  33 t-inv F
  0.461538  0.076923  0.111111    0.00065746  34 t-inv F
  0.153846  0.153846  0.111111    0.00065746  35 t-inv F
  0.230769  0.153846  0.111111    0.00065746  36 t-inv F
  0.307692  0.153846  0.111111    0.00065746  37 t-inv F
  0.384615  0.153846  0.111111    0.00065746  38 t-inv F
  0.230769  0.230769  0.111111    0.00065746  39 t-inv F
  0.307692  0.230769  0.111111    0.00065746  40 t-inv F
  0.384615  0.230769  0.111111    0.00065746  41 t-inv F
  0.307692  0.307692  0.111111    0.00065746  42 t-inv F
  0.000000  0.000000  0.222222    0.00065746  43 t-inv F
  0.076923 -0.000000  0.222222    0.00065746  44 t-inv F
  0.153846 -0.000000  0.222222    0.00065746  45 t-inv F
  0.230769 -0.000000  0.222222    0.00065746  46 t-inv F
  0.307692 -0.000000  0.222222    0.00065746  47 t-inv F
  0.384615 -0.000000  0.222222    0.00065746  48 t-inv F
  0.461538 -0.000000  0.222222    0.00065746  49 t-inv F
  0.076923  0.076923  0.222222    0.00065746  50 t-inv F
  0.153846  0.076923  0.222222    0.00065746  51 t-inv F
  0.230769  0.076923  0.222222    0.00065746  52 t-inv F
  0.307692  0.076923  0.222222    0.00065746  53 t-inv F
  0.384615  0.076923  0.222222    0.00065746  54 t-inv F
  0.461538  0.076923  0.222222    0.00065746  55 t-inv F
  0.153846  0.153846  0.222222    0.00065746  56 t-inv F
  0.230769  0.153846  0.222222    0.00065746  57 t-inv F
  0.307692  0.153846  0.222222    0.00065746  58 t-inv F
  0.384615  0.153846  0.222222    0.00065746  59 t-inv F
  0.230769  0.230769  0.222222    0.00065746  60 t-inv F
  0.307692  0.230769  0.222222    0.00065746  61 t-inv F
  0.384615  0.230769  0.222222    0.00065746  62 t-inv F
  0.307692  0.307692  0.222222    0.00065746  63 t-inv F
  0.000000  0.000000  0.333333    0.00065746  64 t-inv F
  0.076923 -0.000000  0.333333    0.00065746  65 t-inv F
  0.153846 -0.000000  0.333333    0.00065746  66 t-inv F
  0.230769 -0.000000  0.333333    0.00065746  67 t-inv F
  0.307692 -0.000000  0.333333    0.00065746  68 t-inv F
  0.384615 -0.000000  0.333333    0.00065746  69 t-inv F
  0.461538 -0.000000  0.333333    0.00065746  70 t-inv F
  0.076923  0.076923  0.333333    0.00065746  71 t-inv F
  0.153846  0.076923  0.333333    0.00065746  72 t-inv F
  0.230769  0.076923  0.333333    0.00065746  73 t-inv F
  0.307692  0.076923  0.333333    0.00065746  74 t-inv F
  0.384615  0.076923  0.333333    0.00065746  75 t-inv F
  0.461538  0.076923  0.333333    0.00065746  76 t-inv F
  0.153846  0.153846  0.333333    0.00065746  77 t-inv F
  0.230769  0.153846  0.333333    0.00065746  78 t-inv F
  0.307692  0.153846  0.333333    0.00065746  79 t-inv F
  0.384615  0.153846  0.333333    0.00065746  80 t-inv F
  0.230769  0.230769  0.333333    0.00065746  81 t-inv F
  0.307692  0.230769  0.333333    0.00065746  82 t-inv F
  0.384615  0.230769  0.333333    0.00065746  83 t-inv F
  0.307692  0.307692  0.333333    0.00065746  84 t-inv F
  0.000000  0.000000  0.444444    0.00065746  85 t-inv F
  0.076923 -0.000000  0.444444    0.00065746  86 t-inv F
  0.153846 -0.000000  0.444444    0.00065746  87 t-inv F
  0.230769 -0.000000  0.444444    0.00065746  88 t-inv F
  0.307692 -0.000000  0.444444    0.00065746  89 t-inv F
  0.384615 -0.000000  0.444444    0.00065746  90 t-inv F
  0.461538 -0.000000  0.444444    0.00065746  91 t-inv F
  0.076923  0.076923  0.444444    0.00065746  92 t-inv F
  0.153846  0.076923  0.444444    0.00065746  93 t-inv F
  0.230769  0.076923  0.444444    0.00065746  94 t-inv F
  0.307692  0.076923  0.444444    0.00065746  95 t-inv F
  0.384615  0.076923  0.444444    0.00065746  96 t-inv F
  0.461538  0.076923  0.444444    0.00065746  97 t-inv F
  0.153846  0.153846  0.444444    0.00065746  98 t-inv F
  0.230769  0.153846  0.444444    0.00065746  99 t-inv F
  0.307692  0.153846  0.444444    0.00065746 100 t-inv F
  0.384615  0.153846  0.444444    0.00065746 101 t-inv F
  0.230769  0.230769  0.444444    0.00065746 102 t-inv F
  0.307692  0.230769  0.444444    0.00065746 103 t-inv F
  0.384615  0.230769  0.444444    0.00065746 104 t-inv F
  0.307692  0.307692  0.444444    0.00065746 105 t-inv F
 -0.076923  0.000000  0.000000    0.00065746   2 t-inv F
 -0.076923  0.076923  0.000000    0.00065746   2 t-inv F
  0.076923 -0.076923  0.000000    0.00065746   2 t-inv F
 -0.000000 -0.076923  0.000000    0.00065746   2 t-inv F
  0.000000  0.076923  0.000000    0.00065746   2 t-inv F
 -0.153846  0.000000  0.000000    0.00065746   3 t-inv F
 -0.153846  0.153846  0.000000    0.00065746   3 t-inv F
  0.153846 -0.153846  0.000000    0.00065746   3 t-inv F
 -0.000000 -0.153846  0.000000    0.00065746   3 t-inv F
  0.000000  0.153846  0.000000    0.00065746   3 t-inv F
 -0.230769  0.000000  0.000000    0.00065746   4 t-inv F
 -0.230769  0.230769  0.000000    0.00065746   4 t-inv F
  0.230769 -0.230769  0.000000    0.00065746   4 t-inv F
 -0.000000 -0.230769  0.000000    0.00065746   4 t-inv F
  0.000000  0.230769  0.000000    0.00065746   4 t-inv F
 -0.307692  0.000000  0.000000    0.00065746   5 t-inv F
 -0.307692  0.307692  0.000000    0.00065746   5 t-inv F
  0.307692 -0.307692  0.000000    0.00065746   5 t-inv F
 -0.000000 -0.307692  0.000000    0.00065746   5 t-inv F
  0.000000  0.307692  0.000000    0.00065746   5 t-inv F
 -0.384615  0.000000  0.000000    0.00065746   6 t-inv F
 -0.384615  0.384615  0.000000    0.00065746   6 t-inv F
  0.384615 -0.384615  0.000000    0.00065746   6 t-inv F
 -0.000000 -0.384615  0.000000    0.00065746   6 t-inv F
  0.000000  0.384615  0.000000    0.00065746   6 t-inv F
 -0.461538  0.000000  0.000000    0.00065746   7 t-inv F
 -0.461538  0.461538  0.000000    0.00065746   7 t-inv F
  0.461538 -0.461538  0.000000    0.00065746   7 t-inv F
 -0.000000 -0.461538  0.000000    0.00065746   7 t-inv F
  0.000000  0.461538  0.000000    0.00065746   7 t-inv F
 -0.076923 -0.076923  0.000000    0.00065746   8 t-inv F
 -0.153846  0.076923  0.000000    0.00065746   8 t-inv F
  0.153846 -0.076923  0.000000    0.00065746   8 t-inv F
  0.076923 -0.153846  0.000000    0.00065746   8 t-inv F
 -0.076923  0.153846  0.000000    0.00065746   8 t-inv F
 -0.153846 -0.076923  0.000000    0.00065746   9 t-inv F
 -0.230769  0.153846  0.000000    0.00065746   9 t-inv F
  0.230769 -0.153846  0.000000    0.00065746   9 t-inv F
  0.076923 -0.230769  0.000000    0.00065746   9 t-inv F
 -0.076923  0.230769  0.000000    0.00065746   9 t-inv F
  0.153846 -0.230769  0.000000    0.00065746   9 t-inv F
 -0.153846  0.230769  0.000000    0.00065746   9 t-inv F
 -0.230769  0.076923  0.000000    0.00065746   9 t-inv F
  0.230769 -0.076923  0.000000    0.00065746   9 t-inv F
  0.076923  0.153846  0.000000    0.00065746   9 t-inv F
 -0.076923 -0.153846  0.000000    0.00065746   9 t-inv F
 -0.230769 -0.076923  0.000000    0.00065746  10 t-inv F
 -0.307692  0.230769  0.000000    0.00065746  10 t-inv F
  0.307692 -0.230769  0.000000    0.00065746  10 t-inv F
  0.076923 -0.307692  0.000000    0.00065746  10 t-inv F
 -0.076923  0.307692  0.000000    0.00065746  10 t-inv F
  0.230769 -0.307692  0.000000    0.00065746  10 t-inv F
 -0.230769  0.307692  0.000000    0.00065746  10 t-inv F
 -0.307692  0.076923  0.000000    0.00065746  10 t-inv F
  0.307692 -0.076923  0.000000    0.00065746  10 t-inv F
  0.076923  0.230769  0.000000    0.00065746  10 t-inv F
 -0.076923 -0.230769  0.000000    0.00065746  10 t-inv F
 -0.307692 -0.076923  0.000000    0.00065746  11 t-inv F
 -0.384615  0.307692  0.000000    0.00065746  11 t-inv F
  0.384615 -0.307692  0.000000    0.00065746  11 t-inv F
  0.076923 -0.384615  0.000000    0.00065746  11 t-inv F
 -0.076923  0.384615  0.000000    0.00065746  11 t-inv F
  0.307692 -0.384615  0.000000    0.00065746  11 t-inv F
 -0.307692  0.384615  0.000000    0.00065746  11 t-inv F
 -0.384615  0.076923  0.000000    0.00065746  11 t-inv F
  0.384615 -0.076923  0.000000    0.00065746  11 t-inv F
  0.076923  0.307692  0.000000    0.00065746  11 t-inv F
 -0.076923 -0.307692  0.000000    0.00065746  11 t-inv F
 -0.384615 -0.076923  0.000000    0.00065746  12 t-inv F
 -0.461538  0.384615  0.000000    0.00065746  12 t-inv F
  0.461538 -0.384615  0.000000    0.00065746  12 t-inv F
  0.076923 -0.461538  0.000000    0.00065746  12 t-inv F
 -0.076923  0.461538  0.000000    0.00065746  12 t-inv F
  0.384615 -0.461538  0.000000    0.00065746  12 t-inv F
 -0.384615  0.461538  0.000000    0.00065746  12 t-inv F
 -0.461538  0.076923  0.000000    0.00065746  12 t-inv F
  0.461538 -0.076923  0.000000    0.00065746  12 t-inv F
  0.076923  0.384615  0.000000    0.00065746  12 t-inv F
 -0.076923 -0.384615  0.000000    0.00065746  12 t-inv F
 -0.461538 -0.076923  0.000000    0.00065746  13 t-inv F
 -0.538462  0.461538  0.000000    0.00065746  13 t-inv F
  0.538462 -0.461538  0.000000    0.00065746  13 t-inv F
  0.076923 -0.538462  0.000000    0.00065746  13 t-inv F
 -0.076923  0.538462  0.000000    0.00065746  13 t-inv F
 -0.153846 -0.153846  0.000000    0.00065746  14 t-inv F
 -0.307692  0.153846  0.000000    0.00065746  14 t-inv F
  0.307692 -0.153846  0.000000    0.00065746  14 t-inv F
  0.153846 -0.307692  0.000000    0.00065746  14 t-inv F
 -0.153846  0.307692  0.000000    0.00065746  14 t-inv F
 -0.230769 -0.153846  0.000000    0.00065746  15 t-inv F
 -0.384615  0.230769  0.000000    0.00065746  15 t-inv F
  0.384615 -0.230769  0.000000    0.00065746  15 t-inv F
  0.153846 -0.384615  0.000000    0.00065746  15 t-inv F
 -0.153846  0.384615  0.000000    0.00065746  15 t-inv F
  0.230769 -0.384615  0.000000    0.00065746  15 t-inv F
 -0.230769  0.384615  0.000000    0.00065746  15 t-inv F
 -0.384615  0.153846  0.000000    0.00065746  15 t-inv F
  0.384615 -0.153846  0.000000    0.00065746  15 t-inv F
  0.153846  0.230769  0.000000    0.00065746  15 t-inv F
 -0.153846 -0.230769  0.000000    0.00065746  15 t-inv F
 -0.307692 -0.153846  0.000000    0.00065746  16 t-inv F
 -0.461538  0.307692  0.000000    0.00065746  16 t-inv F
  0.461538 -0.307692  0.000000    0.00065746  16 t-inv F
  0.153846 -0.461538  0.000000    0.00065746  16 t-inv F
 -0.153846  0.461538  0.000000    0.00065746  16 t-inv F
  0.307692 -0.461538  0.000000    0.00065746  16 t-inv F
 -0.307692  0.461538  0.000000    0.00065746  16 t-inv F
 -0.461538  0.153846  0.000000    0.00065746  16 t-inv F
  0.461538 -0.153846  0.000000    0.00065746  16 t-inv F
  0.153846  0.307692  0.000000    0.00065746  16 t-inv F
 -0.153846 -0.307692  0.000000    0.00065746  16 t-inv F
 -0.384615 -0.153846  0.000000    0.00065746  17 t-inv F
 -0.538462  0.384615  0.000000    0.00065746  17 t-inv F
  0.538462 -0.384615  0.000000    0.00065746  17 t-inv F
  0.153846 -0.538462  0.000000    0.00065746  17 t-inv F
 -0.153846  0.538462  0.000000    0.00065746  17 t-inv F
  0.384615 -0.538462  0.000000    0.00065746  17 t-inv F
 -0.384615  0.538462  0.000000    0.00065746  17 t-inv F
 -0.538462  0.153846  0.000000    0.00065746  17 t-inv F
  0.538462 -0.153846  0.000000    0.00065746  17 t-inv F
  0.153846  0.384615  0.000000    0.00065746  17 t-inv F
 -0.153846 -0.384615  0.000000    0.00065746  17 t-inv F
 -0.230769 -0.230769  0.000000    0.00065746  18 t-inv F
 -0.461538  0.230769  0.000000    0.00065746  18 t-inv F
  0.461538 -0.230769  0.000000    0.00065746  18 t-inv F
  0.230769 -0.461538  0.000000    0.00065746  18 t-inv F
 -0.230769  0.461538  0.000000    0.00065746  18 t-inv F
 -0.307692 -0.230769  0.000000    0.00065746  19 t-inv F
 -0.538462  0.307692  0.000000    0.00065746  19 t-inv F
  0.538462 -0.307692  0.000000    0.00065746  19 t-inv F
  0.230769 -0.538462  0.000000    0.00065746  19 t-inv F
 -0.230769  0.538462  0.000000    0.00065746  19 t-inv F
  0.307692 -0.538462  0.000000    0.00065746  19 t-inv F
 -0.307692  0.538462  0.000000    0.00065746  19 t-inv F
 -0.538462  0.230769  0.000000    0.00065746  19 t-inv F
  0.538462 -0.230769  0.000000    0.00065746  19 t-inv F
  0.230769  0.307692  0.000000    0.00065746  19 t-inv F
 -0.230769 -0.307692  0.000000    0.00065746  19 t-inv F
 -0.384615 -0.230769  0.000000    0.00065746  20 t-inv F
 -0.615385  0.384615  0.000000    0.00065746  20 t-inv F
  0.615385 -0.384615  0.000000    0.00065746  20 t-inv F
  0.230769 -0.615385  0.000000    0.00065746  20 t-inv F
 -0.230769  0.615385  0.000000    0.00065746  20 t-inv F
 -0.307692 -0.307692  0.000000    0.00065746  21 t-inv F
 -0.615385  0.307692  0.000000    0.00065746  21 t-inv F
  0.615385 -0.307692  0.000000    0.00065746  21 t-inv F
  0.307692 -0.615385  0.000000    0.00065746  21 t-inv F
 -0.307692  0.615385  0.000000    0.00065746  21 t-inv F
  0.000000  0.000000 -0.111111    0.00065746  22 t-inv F
 -0.076923  0.000000 -0.111111    0.00065746  23 t-inv F
 -0.076923  0.076923  0.111111    0.00065746  23 t-inv F
  0.076923 -0.076923 -0.111111    0.00065746  23 t-inv F
 -0.000000 -0.076923  0.111111    0.00065746  23 t-inv F
  0.000000  0.076923 -0.111111    0.00065746  23 t-inv F
  0.000000  0.076923  0.111111    0.00065746  23 t-inv F
 -0.000000 -0.076923 -0.111111    0.00065746  23 t-inv F
 -0.076923  0.000000  0.111111    0.00065746  23 t-inv F
  0.076923 -0.000000 -0.111111    0.00065746  23 t-inv F
  0.076923 -0.076923  0.111111    0.00065746  23 t-inv F
 -0.076923  0.076923 -0.111111    0.00065746  23 t-inv F
 -0.153846  0.000000 -0.111111    0.00065746  24 t-inv F
 -0.153846  0.153846  0.111111    0.00065746  24 t-inv F
  0.153846 -0.153846 -0.111111    0.00065746  24 t-inv F
 -0.000000 -0.153846  0.111111    0.00065746  24 t-inv F
  0.000000  0.153846 -0.111111    0.00065746  24 t-inv F
  0.000000  0.153846  0.111111    0.00065746  24 t-inv F
 -0.000000 -0.153846 -0.111111    0.00065746  24 t-inv F
 -0.153846  0.000000  0.111111    0.00065746  24 t-inv F
  0.153846 -0.000000 -0.111111    0.00065746  24 t-inv F
  0.153846 -0.153846  0.111111    0.00065746  24 t-inv F
 -0.153846  0.153846 -0.111111    0.00065746  24 t-inv F
 -0.230769  0.000000 -0.111111    0.00065746  25 t-inv F
 -0.230769  0.230769  0.111111    0.00065746  25 t-inv F
  0.230769 -0.230769 -0.111111    0.00065746  25 t-inv F
 -0.000000 -0.230769  0.111111    0.00065746  25 t-inv F
  0.000000  0.230769 -0.111111    0.00065746  25 t-inv F
  0.000000  0.230769  0.111111    0.00065746  25 t-inv F
 -0.000000 -0.230769 -0.111111    0.00065746  25 t-inv F
 -0.230769  0.000000  0.111111    0.00065746  25 t-inv F
  0.230769 -0.000000 -0.111111    0.00065746  25 t-inv F
  0.230769 -0.230769  0.111111    0.00065746  25 t-inv F
 -0.230769  0.230769 -0.111111    0.00065746  25 t-inv F
 -0.307692  0.000000 -0.111111    0.00065746  26 t-inv F
 -0.307692  0.307692  0.111111    0.00065746  26 t-inv F
  0.307692 -0.307692 -0.111111    0.00065746  26 t-inv F
 -0.000000 -0.307692  0.111111    0.00065746  26 t-inv F
  0.000000  0.307692 -0.111111    0.00065746  26 t-inv F
  0.000000  0.307692  0.111111    0.00065746  26 t-inv F
 -0.000000 -0.307692 -0.111111    0.00065746  26 t-inv F
 -0.307692  0.000000  0.111111    0.00065746  26 t-inv F
  0.307692 -0.000000 -0.111111    0.00065746  26 t-inv F
  0.307692 -0.307692  0.111111    0.00065746  26 t-inv F
 -0.307692  0.307692 -0.111111    0.00065746  26 t-inv F
 -0.384615  0.000000 -0.111111    0.00065746  27 t-inv F
 -0.384615  0.384615  0.111111    0.00065746  27 t-inv F
  0.384615 -0.384615 -0.111111    0.00065746  27 t-inv F
 -0.000000 -0.384615  0.111111    0.00065746  27 t-inv F
  0.000000  0.384615 -0.111111    0.00065746  27 t-inv F
  0.000000  0.384615  0.111111    0.00065746  27 t-inv F
 -0.000000 -0.384615 -0.111111    0.00065746  27 t-inv F
 -0.384615  0.000000  0.111111    0.00065746  27 t-inv F
  0.384615 -0.000000 -0.111111    0.00065746  27 t-inv F
  0.384615 -0.384615  0.111111    0.00065746  27 t-inv F
 -0.384615  0.384615 -0.111111    0.00065746  27 t-inv F
 -0.461538  0.000000 -0.111111    0.00065746  28 t-inv F
 -0.461538  0.461538  0.111111    0.00065746  28 t-inv F
  0.461538 -0.461538 -0.111111    0.00065746  28 t-inv F
 -0.000000 -0.461538  0.111111    0.00065746  28 t-inv F
  0.000000  0.461538 -0.111111    0.00065746  28 t-inv F
  0.000000  0.461538  0.111111    0.00065746  28 t-inv F
 -0.000000 -0.461538 -0.111111    0.00065746  28 t-inv F
 -0.461538  0.000000  0.111111    0.00065746  28 t-inv F
  0.461538 -0.000000 -0.111111    0.00065746  28 t-inv F
  0.461538 -0.461538  0.111111    0.00065746  28 t-inv F
 -0.461538  0.461538 -0.111111    0.00065746  28 t-inv F
 -0.076923 -0.076923 -0.111111    0.00065746  29 t-inv F
 -0.153846  0.076923  0.111111    0.00065746  29 t-inv F
  0.153846 -0.076923 -0.111111    0.00065746  29 t-inv F
  0.076923 -0.153846  0.111111    0.00065746  29 t-inv F
 -0.076923  0.153846 -0.111111    0.00065746  29 t-inv F
  0.076923 -0.153846 -0.111111    0.00065746  29 t-inv F
 -0.076923  0.153846  0.111111    0.00065746  29 t-inv F
 -0.153846  0.076923 -0.111111    0.00065746  29 t-inv F
  0.153846 -0.076923  0.111111    0.00065746  29 t-inv F
  0.076923  0.076923 -0.111111    0.00065746  29 t-inv F
 -0.076923 -0.076923  0.111111    0.00065746  29 t-inv F
 -0.153846 -0.076923 -0.111111    0.00065746  30 t-inv F
 -0.230769  0.153846  0.111111    0.00065746  30 t-inv F
  0.230769 -0.153846 -0.111111    0.00065746  30 t-inv F
  0.076923 -0.230769  0.111111    0.00065746  30 t-inv F
 -0.076923  0.230769 -0.111111    0.00065746  30 t-inv F
  0.153846 -0.230769 -0.111111    0.00065746  30 t-inv F
 -0.153846  0.230769  0.111111    0.00065746  30 t-inv F
 -0.230769  0.076923 -0.111111    0.00065746  30 t-inv F
  0.230769 -0.076923  0.111111    0.00065746  30 t-inv F
  0.076923  0.153846 -0.111111    0.00065746  30 t-inv F
 -0.076923 -0.153846  0.111111    0.00065746  30 t-inv F
 -0.076923  0.230769  0.111111    0.00065746  30 t-inv F
  0.076923 -0.230769 -0.111111    0.00065746  30 t-inv F
 -0.153846 -0.076923  0.111111    0.00065746  30 t-inv F
  0.153846  0.076923 -0.111111    0.00065746  30 t-inv F
  0.230769 -0.153846  0.111111    0.00065746  30 t-inv F
 -0.230769  0.153846 -0.111111    0.00065746  30 t-inv F
 -0.076923 -0.153846 -0.111111    0.00065746  30 t-inv F
  0.076923  0.153846  0.111111    0.00065746  30 t-inv F
 -0.153846  0.230769 -0.111111    0.00065746  30 t-inv F
  0.153846 -0.230769  0.111111    0.00065746  30 t-inv F
  0.230769 -0.076923 -0.111111    0.00065746  30 t-inv F
 -0.230769  0.076923  0.111111    0.00065746  30 t-inv F
 -0.230769 -0.076923 -0.111111    0.00065746  31 t-inv F
 -0.307692  0.230769  0.111111    0.00065746  31 t-inv F
  0.307692 -0.230769 -0.111111    0.00065746  31 t-inv F
  0.076923 -0.307692  0.111111    0.00065746  31 t-inv F
 -0.076923  0.307692 -0.111111    0.00065746  31 t-inv F
  0.230769 -0.307692 -0.111111    0.00065746  31 t-inv F
 -0.230769  0.307692  0.111111    0.00065746  31 t-inv F
 -0.307692  0.076923 -0.111111    0.00065746  31 t-inv F
  0.307692 -0.076923  0.111111    0.00065746  31 t-inv F
  0.076923  0.230769 -0.111111    0.00065746  31 t-inv F
 -0.076923 -0.230769  0.111111    0.00065746  31 t-inv F
 -0.076923  0.307692  0.111111    0.00065746  31 t-inv F
  0.076923 -0.307692 -0.111111    0.00065746  31 t-inv F
 -0.230769 -0.076923  0.111111    0.00065746  31 t-inv F
  0.230769  0.076923 -0.111111    0.00065746  31 t-inv F
  0.307692 -0.230769  0.111111    0.00065746  31 t-inv F
 -0.307692  0.230769 -0.111111    0.00065746  31 t-inv F
 -0.076923 -0.230769 -0.111111    0.00065746  31 t-inv F
  0.076923  0.230769  0.111111    0.00065746  31 t-inv F
 -0.230769  0.307692 -0.111111    0.00065746  31 t-inv F
  0.230769 -0.307692  0.111111    0.00065746  31 t-inv F
  0.307692 -0.076923 -0.111111    0.00065746  31 t-inv F
 -0.307692  0.076923  0.111111    0.00065746  31 t-inv F
 -0.307692 -0.076923 -0.111111    0.00065746  32 t-inv F
 -0.384615  0.307692  0.111111    0.00065746  32 t-inv F
  0.384615 -0.307692 -0.111111    0.00065746  32 t-inv F
  0.076923 -0.384615  0.111111    0.00065746  32 t-inv F
 -0.076923  0.384615 -0.111111    0.00065746  32 t-inv F
  0.307692 -0.384615 -0.111111    0.00065746  32 t-inv F
 -0.307692  0.384615  0.111111    0.00065746  32 t-inv F
 -0.384615  0.076923 -0.111111    0.00065746  32 t-inv F
  0.384615 -0.076923  0.111111    0.00065746  32 t-inv F
  0.076923  0.307692 -0.111111    0.00065746  32 t-inv F
 -0.076923 -0.307692  0.111111    0.00065746  32 t-inv F
 -0.076923  0.384615  0.111111    0.00065746  32 t-inv F
  0.076923 -0.384615 -0.111111    0.00065746  32 t-inv F
 -0.307692 -0.076923  0.111111    0.00065746  32 t-inv F
  0.307692  0.076923 -0.111111    0.00065746  32 t-inv F
  0.384615 -0.307692  0.111111    0.00065746  32 t-inv F
 -0.384615  0.307692 -0.111111    0.00065746  32 t-inv F
 -0.076923 -0.307692 -0.111111    0.00065746  32 t-inv F
  0.076923  0.307692  0.111111    0.00065746  32 t-inv F
 -0.307692  0.384615 -0.111111    0.00065746  32 t-inv F
  0.307692 -0.384615  0.111111    0.00065746  32 t-inv F
  0.384615 -0.076923 -0.111111    0.00065746  32 t-inv F
 -0.384615  0.076923  0.111111    0.00065746  32 t-inv F
 -0.384615 -0.076923 -0.111111    0.00065746  33 t-inv F
 -0.461538  0.384615  0.111111    0.00065746  33 t-inv F
  0.461538 -0.384615 -0.111111    0.00065746  33 t-inv F
  0.076923 -0.461538  0.111111    0.00065746  33 t-inv F
 -0.076923  0.461538 -0.111111    0.00065746  33 t-inv F
  0.384615 -0.461538 -0.111111    0.00065746  33 t-inv F
 -0.384615  0.461538  0.111111    0.00065746  33 t-inv F
 -0.461538  0.076923 -0.111111    0.00065746  33 t-inv F
  0.461538 -0.076923  0.111111    0.00065746  33 t-inv F
  0.076923  0.384615 -0.111111    0.00065746  33 t-inv F
 -0.076923 -0.384615  0.111111    0.00065746  33 t-inv F
 -0.076923  0.461538  0.111111    0.00065746  33 t-inv F
  0.076923 -0.461538 -0.111111    0.00065746  33 t-inv F
 -0.384615 -0.076923  0.111111    0.00065746  33 t-inv F
  0.384615  0.076923 -0.111111    0.00065746  33 t-inv F
  0.461538 -0.384615  0.111111    0.00065746  33 t-inv F
 -0.461538  0.384615 -0.111111    0.00065746  33 t-inv F
 -0.076923 -0.384615 -0.111111    0.00065746  33 t-inv F
  0.076923  0.384615  0.111111    0.00065746  33 t-inv F
 -0.384615  0.461538 -0.111111    0.00065746  33 t-inv F
  0.384615 -0.461538  0.111111    0.00065746  33 t-inv F
  0.461538 -0.076923 -0.111111    0.00065746  33 t-inv F
 -0.461538  0.076923  0.111111    0.00065746  33 t-inv F
 -0.461538 -0.076923 -0.111111    0.00065746  34 t-inv F
 -0.538462  0.461538  0.111111    0.00065746  34 t-inv F
  0.538462 -0.461538 -0.111111    0.00065746  34 t-inv F
  0.076923 -0.538462  0.111111    0.00065746  34 t-inv F
 -0.076923  0.538462 -0.111111    0.00065746  34 t-inv F
  0.461538 -0.538462 -0.111111    0.00065746  34 t-inv F
 -0.461538  0.538462  0.111111    0.00065746  34 t-inv F
 -0.538462  0.076923 -0.111111    0.00065746  34 t-inv F
  0.538462 -0.076923  0.111111    0.00065746  34 t-inv F
  0.076923  0.461538 -0.111111    0.00065746  34 t-inv F
 -0.076923 -0.461538  0.111111    0.00065746  34 t-inv F
 -0.153846 -0.153846 -0.111111    0.00065746  35 t-inv F
 -0.307692  0.153846  0.111111    0.00065746  35 t-inv F
  0.307692 -0.153846 -0.111111    0.00065746  35 t-inv F
  0.153846 -0.307692  0.111111    0.00065746  35 t-inv F
 -0.153846  0.307692 -0.111111    0.00065746  35 t-inv F
  0.153846 -0.307692 -0.111111    0.00065746  35 t-inv F
 -0.153846  0.307692  0.111111    0.00065746  35 t-inv F
 -0.307692  0.153846 -0.111111    0.00065746  35 t-inv F
  0.307692 -0.153846  0.111111    0.00065746  35 t-inv F
  0.153846  0.153846 -0.111111    0.00065746  35 t-inv F
 -0.153846 -0.153846  0.111111    0.00065746  35 t-inv F
 -0.230769 -0.153846 -0.111111    0.00065746  36 t-inv F
 -0.384615  0.230769  0.111111    0.00065746  36 t-inv F
  0.384615 -0.230769 -0.111111    0.00065746  36 t-inv F
  0.153846 -0.384615  0.111111    0.00065746  36 t-inv F
 -0.153846  0.384615 -0.111111    0.00065746  36 t-inv F
  0.230769 -0.384615 -0.111111    0.00065746  36 t-inv F
 -0.230769  0.384615  0.111111    0.00065746  36 t-inv F
 -0.384615  0.153846 -0.111111    0.00065746  36 t-inv F
  0.384615 -0.153846  0.111111    0.00065746  36 t-inv F
  0.153846  0.230769 -0.111111    0.00065746  36 t-inv F
 -0.153846 -0.230769  0.111111    0.00065746  36 t-inv F
 -0.153846  0.384615  0.111111    0.00065746  36 t-inv F
  0.153846 -0.384615 -0.111111    0.00065746  36 t-inv F
 -0.230769 -0.153846  0.111111    0.00065746  36 t-inv F
  0.230769  0.153846 -0.111111    0.00065746  36 t-inv F
  0.384615 -0.230769  0.111111    0.00065746  36 t-inv F
 -0.384615  0.230769 -0.111111    0.00065746  36 t-inv F
 -0.153846 -0.230769 -0.111111    0.00065746  36 t-inv F
  0.153846  0.230769  0.111111    0.00065746  36 t-inv F
 -0.230769  0.384615 -0.111111    0.00065746  36 t-inv F
  0.230769 -0.384615  0.111111    0.00065746  36 t-inv F
  0.384615 -0.153846 -0.111111    0.00065746  36 t-inv F
 -0.384615  0.153846  0.111111    0.00065746  36 t-inv F
 -0.307692 -0.153846 -0.111111    0.00065746  37 t-inv F
 -0.461538  0.307692  0.111111    0.00065746  37 t-inv F
  0.461538 -0.307692 -0.111111    0.00065746  37 t-inv F
  0.153846 -0.461538  0.111111    0.00065746  37 t-inv F
 -0.153846  0.461538 -0.111111    0.00065746  37 t-inv F
  0.307692 -0.461538 -0.111111    0.00065746  37 t-inv F
 -0.307692  0.461538  0.111111    0.00065746  37 t-inv F
 -0.461538  0.153846 -0.111111    0.00065746  37 t-inv F
  0.461538 -0.153846  0.111111    0.00065746  37 t-inv F
  0.153846  0.307692 -0.111111    0.00065746  37 t-inv F
 -0.153846 -0.307692  0.111111    0.00065746  37 t-inv F
 -0.153846  0.461538  0.111111    0.00065746  37 t-inv F
  0.153846 -0.461538 -0.111111    0.00065746  37 t-inv F
 -0.307692 -0.153846  0.111111    0.00065746  37 t-inv F
  0.307692  0.153846 -0.111111    0.00065746  37 t-inv F
  0.461538 -0.307692  0.111111    0.00065746  37 t-inv F
 -0.461538  0.307692 -0.111111    0.00065746  37 t-inv F
 -0.153846 -0.307692 -0.111111    0.00065746  37 t-inv F
  0.153846  0.307692  0.111111    0.00065746  37 t-inv F
 -0.307692  0.461538 -0.111111    0.00065746  37 t-inv F
  0.307692 -0.461538  0.111111    0.00065746  37 t-inv F
  0.461538 -0.153846 -0.111111    0.00065746  37 t-inv F
 -0.461538  0.153846  0.111111    0.00065746  37 t-inv F
 -0.384615 -0.153846 -0.111111    0.00065746  38 t-inv F
 -0.538462  0.384615  0.111111    0.00065746  38 t-inv F
  0.538462 -0.384615 -0.111111    0.00065746  38 t-inv F
  0.153846 -0.538462  0.111111    0.00065746  38 t-inv F
 -0.153846  0.538462 -0.111111    0.00065746  38 t-inv F
  0.384615 -0.538462 -0.111111    0.00065746  38 t-inv F
 -0.384615  0.538462  0.111111    0.00065746  38 t-inv F
 -0.538462  0.153846 -0.111111    0.00065746  38 t-inv F
  0.538462 -0.153846  0.111111    0.00065746  38 t-inv F
  0.153846  0.384615 -0.111111    0.00065746  38 t-inv F
 -0.153846 -0.384615  0.111111    0.00065746  38 t-inv F
 -0.153846  0.538462  0.111111    0.00065746  38 t-inv F
  0.153846 -0.538462 -0.111111    0.00065746  38 t-inv F
 -0.384615 -0.153846  0.111111    0.00065746  38 t-inv F
  0.384615  0.153846 -0.111111    0.00065746  38 t-inv F
  0.538462 -0.384615  0.111111    0.00065746  38 t-inv F
 -0.538462  0.384615 -0.111111    0.00065746  38 t-inv F
 -0.153846 -0.384615 -0.111111    0.00065746  38 t-inv F
  0.153846  0.384615  0.111111    0.00065746  38 t-inv F
 -0.384615  0.538462 -0.111111    0.00065746  38 t-inv F
  0.384615 -0.538462  0.111111    0.00065746  38 t-inv F
  0.538462 -0.153846 -0.111111    0.00065746  38 t-inv F
 -0.538462  0.153846  0.111111    0.00065746  38 t-inv F
 -0.230769 -0.230769 -0.111111    0.00065746  39 t-inv F
 -0.461538  0.230769  0.111111    0.00065746  39 t-inv F
  0.461538 -0.230769 -0.111111    0.00065746  39 t-inv F
  0.230769 -0.461538  0.111111    0.00065746  39 t-inv F
 -0.230769  0.461538 -0.111111    0.00065746  39 t-inv F
  0.230769 -0.461538 -0.111111    0.00065746  39 t-inv F
 -0.230769  0.461538  0.111111    0.00065746  39 t-inv F
 -0.461538  0.230769 -0.111111    0.00065746  39 t-inv F
  0.461538 -0.230769  0.111111    0.00065746  39 t-inv F
  0.230769  0.230769 -0.111111    0.00065746  39 t-inv F
 -0.230769 -0.230769  0.111111    0.00065746  39 t-inv F
 -0.307692 -0.230769 -0.111111    0.00065746  40 t-inv F
 -0.538462  0.307692  0.111111    0.00065746  40 t-inv F
  0.538462 -0.307692 -0.111111    0.00065746  40 t-inv F
  0.230769 -0.538462  0.111111    0.00065746  40 t-inv F
 -0.230769  0.538462 -0.111111    0.00065746  40 t-inv F
  0.307692 -0.538462 -0.111111    0.00065746  40 t-inv F
 -0.307692  0.538462  0.111111    0.00065746  40 t-inv F
 -0.538462  0.230769 -0.111111    0.00065746  40 t-inv F
  0.538462 -0.230769  0.111111    0.00065746  40 t-inv F
  0.230769  0.307692 -0.111111    0.00065746  40 t-inv F
 -0.230769 -0.307692  0.111111    0.00065746  40 t-inv F
 -0.230769  0.538462  0.111111    0.00065746  40 t-inv F
  0.230769 -0.538462 -0.111111    0.00065746  40 t-inv F
 -0.307692 -0.230769  0.111111    0.00065746  40 t-inv F
  0.307692  0.230769 -0.111111    0.00065746  40 t-inv F
  0.538462 -0.307692  0.111111    0.00065746  40 t-inv F
 -0.538462  0.307692 -0.111111    0.00065746  40 t-inv F
 -0.230769 -0.307692 -0.111111    0.00065746  40 t-inv F
  0.230769  0.307692  0.111111    0.00065746  40 t-inv F
 -0.307692  0.538462 -0.111111    0.00065746  40 t-inv F
  0.307692 -0.538462  0.111111    0.00065746  40 t-inv F
  0.538462 -0.230769 -0.111111    0.00065746  40 t-inv F
 -0.538462  0.230769  0.111111    0.00065746  40 t-inv F
 -0.384615 -0.230769 -0.111111    0.00065746  41 t-inv F
 -0.615385  0.384615  0.111111    0.00065746  41 t-inv F
  0.615385 -0.384615 -0.111111    0.00065746  41 t-inv F
  0.230769 -0.615385  0.111111    0.00065746  41 t-inv F
 -0.230769  0.615385 -0.111111    0.00065746  41 t-inv F
  0.384615 -0.615385 -0.111111    0.00065746  41 t-inv F
 -0.384615  0.615385  0.111111    0.00065746  41 t-inv F
 -0.615385  0.230769 -0.111111    0.00065746  41 t-inv F
  0.615385 -0.230769  0.111111    0.00065746  41 t-inv F
  0.230769  0.384615 -0.111111    0.00065746  41 t-inv F
 -0.230769 -0.384615  0.111111    0.00065746  41 t-inv F
 -0.307692 -0.307692 -0.111111    0.00065746  42 t-inv F
 -0.615385  0.307692  0.111111    0.00065746  42 t-inv F
  0.615385 -0.307692 -0.111111    0.00065746  42 t-inv F
  0.307692 -0.615385  0.111111    0.00065746  42 t-inv F
 -0.307692  0.615385 -0.111111    0.00065746  42 t-inv F
  0.307692 -0.615385 -0.111111    0.00065746  42 t-inv F
 -0.307692  0.615385  0.111111    0.00065746  42 t-inv F
 -0.615385  0.307692 -0.111111    0.00065746  42 t-inv F
  0.615385 -0.307692  0.111111    0.00065746  42 t-inv F
  0.307692  0.307692 -0.111111    0.00065746  42 t-inv F
 -0.307692 -0.307692  0.111111    0.00065746  42 t-inv F
  0.000000  0.000000 -0.222222    0.00065746  43 t-inv F
 -0.076923  0.000000 -0.222222    0.00065746  44 t-inv F
 -0.076923  0.076923  0.222222    0.00065746  44 t-inv F
  0.076923 -0.076923 -0.222222    0.00065746  44 t-inv F
 -0.000000 -0.076923  0.222222    0.00065746  44 t-inv F
  0.000000  0.076923 -0.222222    0.00065746  44 t-inv F
  0.000000  0.076923  0.222222    0.00065746  44 t-inv F
 -0.000000 -0.076923 -0.222222    0.00065746  44 t-inv F
 -0.076923  0.000000  0.222222    0.00065746  44 t-inv F
  0.076923 -0.000000 -0.222222    0.00065746  44 t-inv F
  0.076923 -0.076923  0.222222    0.00065746  44 t-inv F
 -0.076923  0.076923 -0.222222    0.00065746  44 t-inv F
 -0.153846  0.000000 -0.222222    0.00065746  45 t-inv F
 -0.153846  0.153846  0.222222    0.00065746  45 t-inv F
  0.153846 -0.153846 -0.222222    0.00065746  45 t-inv F
 -0.000000 -0.153846  0.222222    0.00065746  45 t-inv F
  0.000000  0.153846 -0.222222    0.00065746  45 t-inv F
  0.000000  0.153846  0.222222    0.00065746  45 t-inv F
 -0.000000 -0.153846 -0.222222    0.00065746  45 t-inv F
 -0.153846  0.000000  0.222222    0.00065746  45 t-inv F
  0.153846 -0.000000 -0.222222    0.00065746  45 t-inv F
  0.153846 -0.153846  0.222222    0.00065746  45 t-inv F
 -0.153846  0.153846 -0.222222    0.00065746  45 t-inv F
 -0.230769  0.000000 -0.222222    0.00065746  46 t-inv F
 -0.230769  0.230769  0.222222    0.00065746  46 t-inv F
  0.230769 -0.230769 -0.222222    0.00065746  46 t-inv F
 -0.000000 -0.230769  0.222222    0.00065746  46 t-inv F
  0.000000  0.230769 -0.222222    0.00065746  46 t-inv F
  0.000000  0.230769  0.222222    0.00065746  46 t-inv F
 -0.000000 -0.230769 -0.222222    0.00065746  46 t-inv F
 -0.230769  0.000000  0.222222    0.00065746  46 t-inv F
  0.230769 -0.000000 -0.222222    0.00065746  46 t-inv F
  0.230769 -0.230769  0.222222    0.00065746  46 t-inv F
 -0.230769  0.230769 -0.222222    0.00065746  46 t-inv F
 -0.307692  0.000000 -0.222222    0.00065746  47 t-inv F
 -0.307692  0.307692  0.222222    0.00065746  47 t-inv F
  0.307692 -0.307692 -0.222222    0.00065746  47 t-inv F
 -0.000000 -0.307692  0.222222    0.00065746  47 t-inv F
  0.000000  0.307692 -0.222222    0.00065746  47 t-inv F
  0.000000  0.307692  0.222222    0.00065746  47 t-inv F
 -0.000000 -0.307692 -0.222222    0.00065746  47 t-inv F
 -0.307692  0.000000  0.222222    0.00065746  47 t-inv F
  0.307692 -0.000000 -0.222222    0.00065746  47 t-inv F
  0.307692 -0.307692  0.222222    0.00065746  47 t-inv F
 -0.307692  0.307692 -0.222222    0.00065746  47 t-inv F
 -0.384615  0.000000 -0.222222    0.00065746  48 t-inv F
 -0.384615  0.384615  0.222222    0.00065746  48 t-inv F
  0.384615 -0.384615 -0.222222    0.00065746  48 t-inv F
 -0.000000 -0.384615  0.222222    0.00065746  48 t-inv F
  0.000000  0.384615 -0.222222    0.00065746  48 t-inv F
  0.000000  0.384615  0.222222    0.00065746  48 t-inv F
 -0.000000 -0.384615 -0.222222    0.00065746  48 t-inv F
 -0.384615  0.000000  0.222222    0.00065746  48 t-inv F
  0.384615 -0.000000 -0.222222    0.00065746  48 t-inv F
  0.384615 -0.384615  0.222222    0.00065746  48 t-inv F
 -0.384615  0.384615 -0.222222    0.00065746  48 t-inv F
 -0.461538  0.000000 -0.222222    0.00065746  49 t-inv F
 -0.461538  0.461538  0.222222    0.00065746  49 t-inv F
  0.461538 -0.461538 -0.222222    0.00065746  49 t-inv F
 -0.000000 -0.461538  0.222222    0.00065746  49 t-inv F
  0.000000  0.461538 -0.222222    0.00065746  49 t-inv F
  0.000000  0.461538  0.222222    0.00065746  49 t-inv F
 -0.000000 -0.461538 -0.222222    0.00065746  49 t-inv F
 -0.461538  0.000000  0.222222    0.00065746  49 t-inv F
  0.461538 -0.000000 -0.222222    0.00065746  49 t-inv F
  0.461538 -0.461538  0.222222    0.00065746  49 t-inv F
 -0.461538  0.461538 -0.222222    0.00065746  49 t-inv F
 -0.076923 -0.076923 -0.222222    0.00065746  50 t-inv F
 -0.153846  0.076923  0.222222    0.00065746  50 t-inv F
  0.153846 -0.076923 -0.222222    0.00065746  50 t-inv F
  0.076923 -0.153846  0.222222    0.00065746  50 t-inv F
 -0.076923  0.153846 -0.222222    0.00065746  50 t-inv F
  0.076923 -0.153846 -0.222222    0.00065746  50 t-inv F
 -0.076923  0.153846  0.222222    0.00065746  50 t-inv F
 -0.153846  0.076923 -0.222222    0.00065746  50 t-inv F
  0.153846 -0.076923  0.222222    0.00065746  50 t-inv F
  0.076923  0.076923 -0.222222    0.00065746  50 t-inv F
 -0.076923 -0.076923  0.222222    0.00065746  50 t-inv F
 -0.153846 -0.076923 -0.222222    0.00065746  51 t-inv F
 -0.230769  0.153846  0.222222    0.00065746  51 t-inv F
  0.230769 -0.153846 -0.222222    0.00065746  51 t-inv F
  0.076923 -0.230769  0.222222    0.00065746  51 t-inv F
 -0.076923  0.230769 -0.222222    0.00065746  51 t-inv F
  0.153846 -0.230769 -0.222222    0.00065746  51 t-inv F
 -0.153846  0.230769  0.222222    0.00065746  51 t-inv F
 -0.230769  0.076923 -0.222222    0.00065746  51 t-inv F
  0.230769 -0.076923  0.222222    0.00065746  51 t-inv F
  0.076923  0.153846 -0.222222    0.00065746  51 t-inv F
 -0.076923 -0.153846  0.222222    0.00065746  51 t-inv F
 -0.076923  0.230769  0.222222    0.00065746  51 t-inv F
  0.076923 -0.230769 -0.222222    0.00065746  51 t-inv F
 -0.153846 -0.076923  0.222222    0.00065746  51 t-inv F
  0.153846  0.076923 -0.222222    0.00065746  51 t-inv F
  0.230769 -0.153846  0.222222    0.00065746  51 t-inv F
 -0.230769  0.153846 -0.222222    0.00065746  51 t-inv F
 -0.076923 -0.153846 -0.222222    0.00065746  51 t-inv F
  0.076923  0.153846  0.222222    0.00065746  51 t-inv F
 -0.153846  0.230769 -0.222222    0.00065746  51 t-inv F
  0.153846 -0.230769  0.222222    0.00065746  51 t-inv F
  0.230769 -0.076923 -0.222222    0.00065746  51 t-inv F
 -0.230769  0.076923  0.222222    0.00065746  51 t-inv F
 -0.230769 -0.076923 -0.222222    0.00065746  52 t-inv F
 -0.307692  0.230769  0.222222    0.00065746  52 t-inv F
  0.307692 -0.230769 -0.222222    0.00065746  52 t-inv F
  0.076923 -0.307692  0.222222    0.00065746  52 t-inv F
 -0.076923  0.307692 -0.222222    0.00065746  52 t-inv F
  0.230769 -0.307692 -0.222222    0.00065746  52 t-inv F
 -0.230769  0.307692  0.222222    0.00065746  52 t-inv F
 -0.307692  0.076923 -0.222222    0.00065746  52 t-inv F
  0.307692 -0.076923  0.222222    0.00065746  52 t-inv F
  0.076923  0.230769 -0.222222    0.00065746  52 t-inv F
 -0.076923 -0.230769  0.222222    0.00065746  52 t-inv F
 -0.076923  0.307692  0.222222    0.00065746  52 t-inv F
  0.076923 -0.307692 -0.222222    0.00065746  52 t-inv F
 -0.230769 -0.076923  0.222222    0.00065746  52 t-inv F
  0.230769  0.076923 -0.222222    0.00065746  52 t-inv F
  0.307692 -0.230769  0.222222    0.00065746  52 t-inv F
 -0.307692  0.230769 -0.222222    0.00065746  52 t-inv F
 -0.076923 -0.230769 -0.222222    0.00065746  52 t-inv F
  0.076923  0.230769  0.222222    0.00065746  52 t-inv F
 -0.230769  0.307692 -0.222222    0.00065746  52 t-inv F
  0.230769 -0.307692  0.222222    0.00065746  52 t-inv F
  0.307692 -0.076923 -0.222222    0.00065746  52 t-inv F
 -0.307692  0.076923  0.222222    0.00065746  52 t-inv F
 -0.307692 -0.076923 -0.222222    0.00065746  53 t-inv F
 -0.384615  0.307692  0.222222    0.00065746  53 t-inv F
  0.384615 -0.307692 -0.222222    0.00065746  53 t-inv F
  0.076923 -0.384615  0.222222    0.00065746  53 t-inv F
 -0.076923  0.384615 -0.222222    0.00065746  53 t-inv F
  0.307692 -0.384615 -0.222222    0.00065746  53 t-inv F
 -0.307692  0.384615  0.222222    0.00065746  53 t-inv F
 -0.384615  0.076923 -0.222222    0.00065746  53 t-inv F
  0.384615 -0.076923  0.222222    0.00065746  53 t-inv F
  0.076923  0.307692 -0.222222    0.00065746  53 t-inv F
 -0.076923 -0.307692  0.222222    0.00065746  53 t-inv F
 -0.076923  0.384615  0.222222    0.00065746  53 t-inv F
  0.076923 -0.384615 -0.222222    0.00065746  53 t-inv F
 -0.307692 -0.076923  0.222222    0.00065746  53 t-inv F
  0.307692  0.076923 -0.222222    0.00065746  53 t-inv F
  0.384615 -0.307692  0.222222    0.00065746  53 t-inv F
 -0.384615  0.307692 -0.222222    0.00065746  53 t-inv F
 -0.076923 -0.307692 -0.222222    0.00065746  53 t-inv F
  0.076923  0.307692  0.222222    0.00065746  53 t-inv F
 -0.307692  0.384615 -0.222222    0.00065746  53 t-inv F
  0.307692 -0.384615  0.222222    0.00065746  53 t-inv F
  0.384615 -0.076923 -0.222222    0.00065746  53 t-inv F
 -0.384615  0.076923  0.222222    0.00065746  53 t-inv F
 -0.384615 -0.076923 -0.222222    0.00065746  54 t-inv F
 -0.461538  0.384615  0.222222    0.00065746  54 t-inv F
  0.461538 -0.384615 -0.222222    0.00065746  54 t-inv F
  0.076923 -0.461538  0.222222    0.00065746  54 t-inv F
 -0.076923  0.461538 -0.222222    0.00065746  54 t-inv F
  0.384615 -0.461538 -0.222222    0.00065746  54 t-inv F
 -0.384615  0.461538  0.222222    0.00065746  54 t-inv F
 -0.461538  0.076923 -0.222222    0.00065746  54 t-inv F
  0.461538 -0.076923  0.222222    0.00065746  54 t-inv F
  0.076923  0.384615 -0.222222    0.00065746  54 t-inv F
 -0.076923 -0.384615  0.222222    0.00065746  54 t-inv F
 -0.076923  0.461538  0.222222    0.00065746  54 t-inv F
  0.076923 -0.461538 -0.222222    0.00065746  54 t-inv F
 -0.384615 -0.076923  0.222222    0.00065746  54 t-inv F
  0.384615  0.076923 -0.222222    0.00065746  54 t-inv F
  0.461538 -0.384615  0.222222    0.00065746  54 t-inv F
 -0.461538  0.384615 -0.222222    0.00065746  54 t-inv F
 -0.076923 -0.384615 -0.222222    0.00065746  54 t-inv F
  0.076923  0.384615  0.222222    0.00065746  54 t-inv F
 -0.384615  0.461538 -0.222222    0.00065746  54 t-inv F
  0.384615 -0.461538  0.222222    0.00065746  54 t-inv F
  0.461538 -0.076923 -0.222222    0.00065746  54 t-inv F
 -0.461538  0.076923  0.222222    0.00065746  54 t-inv F
 -0.461538 -0.076923 -0.222222    0.00065746  55 t-inv F
 -0.538462  0.461538  0.222222    0.00065746  55 t-inv F
  0.538462 -0.461538 -0.222222    0.00065746  55 t-inv F
  0.076923 -0.538462  0.222222    0.00065746  55 t-inv F
 -0.076923  0.538462 -0.222222    0.00065746  55 t-inv F
  0.461538 -0.538462 -0.222222    0.00065746  55 t-inv F
 -0.461538  0.538462  0.222222    0.00065746  55 t-inv F
 -0.538462  0.076923 -0.222222    0.00065746  55 t-inv F
  0.538462 -0.076923  0.222222    0.00065746  55 t-inv F
  0.076923  0.461538 -0.222222    0.00065746  55 t-inv F
 -0.076923 -0.461538  0.222222    0.00065746  55 t-inv F
 -0.153846 -0.153846 -0.222222    0.00065746  56 t-inv F
 -0.307692  0.153846  0.222222    0.00065746  56 t-inv F
  0.307692 -0.153846 -0.222222    0.00065746  56 t-inv F
  0.153846 -0.307692  0.222222    0.00065746  56 t-inv F
 -0.153846  0.307692 -0.222222    0.00065746  56 t-inv F
  0.153846 -0.307692 -0.222222    0.00065746  56 t-inv F
 -0.153846  0.307692  0.222222    0.00065746  56 t-inv F
 -0.307692  0.153846 -0.222222    0.00065746  56 t-inv F
  0.307692 -0.153846  0.222222    0.00065746  56 t-inv F
  0.153846  0.153846 -0.222222    0.00065746  56 t-inv F
 -0.153846 -0.153846  0.222222    0.00065746  56 t-inv F
 -0.230769 -0.153846 -0.222222    0.00065746  57 t-inv F
 -0.384615  0.230769  0.222222    0.00065746  57 t-inv F
  0.384615 -0.230769 -0.222222    0.00065746  57 t-inv F
  0.153846 -0.384615  0.222222    0.00065746  57 t-inv F
 -0.153846  0.384615 -0.222222    0.00065746  57 t-inv F
  0.230769 -0.384615 -0.222222    0.00065746  57 t-inv F
 -0.230769  0.384615  0.222222    0.00065746  57 t-inv F
 -0.384615  0.153846 -0.222222    0.00065746  57 t-inv F
  0.384615 -0.153846  0.222222    0.00065746  57 t-inv F
  0.153846  0.230769 -0.222222    0.00065746  57 t-inv F
 -0.153846 -0.230769  0.222222    0.00065746  57 t-inv F
 -0.153846  0.384615  0.222222    0.00065746  57 t-inv F
  0.153846 -0.384615 -0.222222    0.00065746  57 t-inv F
 -0.230769 -0.153846  0.222222    0.00065746  57 t-inv F
  0.230769  0.153846 -0.222222    0.00065746  57 t-inv F
  0.384615 -0.230769  0.222222    0.00065746  57 t-inv F
 -0.384615  0.230769 -0.222222    0.00065746  57 t-inv F
 -0.153846 -0.230769 -0.222222    0.00065746  57 t-inv F
  0.153846  0.230769  0.222222    0.00065746  57 t-inv F
 -0.230769  0.384615 -0.222222    0.00065746  57 t-inv F
  0.230769 -0.384615  0.222222    0.00065746  57 t-inv F
  0.384615 -0.153846 -0.222222    0.00065746  57 t-inv F
 -0.384615  0.153846  0.222222    0.00065746  57 t-inv F
 -0.307692 -0.153846 -0.222222    0.00065746  58 t-inv F
 -0.461538  0.307692  0.222222    0.00065746  58 t-inv F
  0.461538 -0.307692 -0.222222    0.00065746  58 t-inv F
  0.153846 -0.461538  0.222222    0.00065746  58 t-inv F
 -0.153846  0.461538 -0.222222    0.00065746  58 t-inv F
  0.307692 -0.461538 -0.222222    0.00065746  58 t-inv F
 -0.307692  0.461538  0.222222    0.00065746  58 t-inv F
 -0.461538  0.153846 -0.222222    0.00065746  58 t-inv F
  0.461538 -0.153846  0.222222    0.00065746  58 t-inv F
  0.153846  0.307692 -0.222222    0.00065746  58 t-inv F
 -0.153846 -0.307692  0.222222    0.00065746  58 t-inv F
 -0.153846  0.461538  0.222222    0.00065746  58 t-inv F
  0.153846 -0.461538 -0.222222    0.00065746  58 t-inv F
 -0.307692 -0.153846  0.222222    0.00065746  58 t-inv F
  0.307692  0.153846 -0.222222    0.00065746  58 t-inv F
  0.461538 -0.307692  0.222222    0.00065746  58 t-inv F
 -0.461538  0.307692 -0.222222    0.00065746  58 t-inv F
 -0.153846 -0.307692 -0.222222    0.00065746  58 t-inv F
  0.153846  0.307692  0.222222    0.00065746  58 t-inv F
 -0.307692  0.461538 -0.222222    0.00065746  58 t-inv F
  0.307692 -0.461538  0.222222    0.00065746  58 t-inv F
  0.461538 -0.153846 -0.222222    0.00065746  58 t-inv F
 -0.461538  0.153846  0.222222    0.00065746  58 t-inv F
 -0.384615 -0.153846 -0.222222    0.00065746  59 t-inv F
 -0.538462  0.384615  0.222222    0.00065746  59 t-inv F
  0.538462 -0.384615 -0.222222    0.00065746  59 t-inv F
  0.153846 -0.538462  0.222222    0.00065746  59 t-inv F
 -0.153846  0.538462 -0.222222    0.00065746  59 t-inv F
  0.384615 -0.538462 -0.222222    0.00065746  59 t-inv F
 -0.384615  0.538462  0.222222    0.00065746  59 t-inv F
 -0.538462  0.153846 -0.222222    0.00065746  59 t-inv F
  0.538462 -0.153846  0.222222    0.00065746  59 t-inv F
  0.153846  0.384615 -0.222222    0.00065746  59 t-inv F
 -0.153846 -0.384615  0.222222    0.00065746  59 t-inv F
 -0.153846  0.538462  0.222222    0.00065746  59 t-inv F
  0.153846 -0.538462 -0.222222    0.00065746  59 t-inv F
 -0.384615 -0.153846  0.222222    0.00065746  59 t-inv F
  0.384615  0.153846 -0.222222    0.00065746  59 t-inv F
  0.538462 -0.384615  0.222222    0.00065746  59 t-inv F
 -0.538462  0.384615 -0.222222    0.00065746  59 t-inv F
 -0.153846 -0.384615 -0.222222    0.00065746  59 t-inv F
  0.153846  0.384615  0.222222    0.00065746  59 t-inv F
 -0.384615  0.538462 -0.222222    0.00065746  59 t-inv F
  0.384615 -0.538462  0.222222    0.00065746  59 t-inv F
  0.538462 -0.153846 -0.222222    0.00065746  59 t-inv F
 -0.538462  0.153846  0.222222    0.00065746  59 t-inv F
 -0.230769 -0.230769 -0.222222    0.00065746  60 t-inv F
 -0.461538  0.230769  0.222222    0.00065746  60 t-inv F
  0.461538 -0.230769 -0.222222    0.00065746  60 t-inv F
  0.230769 -0.461538  0.222222    0.00065746  60 t-inv F
 -0.230769  0.461538 -0.222222    0.00065746  60 t-inv F
  0.230769 -0.461538 -0.222222    0.00065746  60 t-inv F
 -0.230769  0.461538  0.222222    0.00065746  60 t-inv F
 -0.461538  0.230769 -0.222222    0.00065746  60 t-inv F
  0.461538 -0.230769  0.222222    0.00065746  60 t-inv F
  0.230769  0.230769 -0.222222    0.00065746  60 t-inv F
 -0.230769 -0.230769  0.222222    0.00065746  60 t-inv F
 -0.307692 -0.230769 -0.222222    0.00065746  61 t-inv F
 -0.538462  0.307692  0.222222    0.00065746  61 t-inv F
  0.538462 -0.307692 -0.222222    0.00065746  61 t-inv F
  0.230769 -0.538462  0.222222    0.00065746  61 t-inv F
 -0.230769  0.538462 -0.222222    0.00065746  61 t-inv F
  0.307692 -0.538462 -0.222222    0.00065746  61 t-inv F
 -0.307692  0.538462  0.222222    0.00065746  61 t-inv F
 -0.538462  0.230769 -0.222222    0.00065746  61 t-inv F
  0.538462 -0.230769  0.222222    0.00065746  61 t-inv F
  0.230769  0.307692 -0.222222    0.00065746  61 t-inv F
 -0.230769 -0.307692  0.222222    0.00065746  61 t-inv F
 -0.230769  0.538462  0.222222    0.00065746  61 t-inv F
  0.230769 -0.538462 -0.222222    0.00065746  61 t-inv F
 -0.307692 -0.230769  0.222222    0.00065746  61 t-inv F
  0.307692  0.230769 -0.222222    0.00065746  61 t-inv F
  0.538462 -0.307692  0.222222    0.00065746  61 t-inv F
 -0.538462  0.307692 -0.222222    0.00065746  61 t-inv F
 -0.230769 -0.307692 -0.222222    0.00065746  61 t-inv F
  0.230769  0.307692  0.222222    0.00065746  61 t-inv F
 -0.307692  0.538462 -0.222222    0.00065746  61 t-inv F
  0.307692 -0.538462  0.222222    0.00065746  61 t-inv F
  0.538462 -0.230769 -0.222222    0.00065746  61 t-inv F
 -0.538462  0.230769  0.222222    0.00065746  61 t-inv F
 -0.384615 -0.230769 -0.222222    0.00065746  62 t-inv F
 -0.615385  0.384615  0.222222    0.00065746  62 t-inv F
  0.615385 -0.384615 -0.222222    0.00065746  62 t-inv F
  0.230769 -0.615385  0.222222    0.00065746  62 t-inv F
 -0.230769  0.615385 -0.222222    0.00065746  62 t-inv F
  0.384615 -0.615385 -0.222222    0.00065746  62 t-inv F
 -0.384615  0.615385  0.222222    0.00065746  62 t-inv F
 -0.615385  0.230769 -0.222222    0.00065746  62 t-inv F
  0.615385 -0.230769  0.222222    0.00065746  62 t-inv F
  0.230769  0.384615 -0.222222    0.00065746  62 t-inv F
 -0.230769 -0.384615  0.222222    0.00065746  62 t-inv F
 -0.307692 -0.307692 -0.222222    0.00065746  63 t-inv F
 -0.615385  0.307692  0.222222    0.00065746  63 t-inv F
  0.615385 -0.307692 -0.222222    0.00065746  63 t-inv F
  0.307692 -0.615385  0.222222    0.00065746  63 t-inv F
 -0.307692  0.615385 -0.222222    0.00065746  63 t-inv F
  0.307692 -0.615385 -0.222222    0.00065746  63 t-inv F
 -0.307692  0.615385  0.222222    0.00065746  63 t-inv F
 -0.615385  0.307692 -0.222222    0.00065746  63 t-inv F
  0.615385 -0.307692  0.222222    0.00065746  63 t-inv F
  0.307692  0.307692 -0.222222    0.00065746  63 t-inv F
 -0.307692 -0.307692  0.222222    0.00065746  63 t-inv F
  0.000000  0.000000 -0.333333    0.00065746  64 t-inv F
 -0.076923  0.000000 -0.333333    0.00065746  65 t-inv F
 -0.076923  0.076923  0.333333    0.00065746  65 t-inv F
  0.076923 -0.076923 -0.333333    0.00065746  65 t-inv F
 -0.000000 -0.076923  0.333333    0.00065746  65 t-inv F
  0.000000  0.076923 -0.333333    0.00065746  65 t-inv F
  0.000000  0.076923  0.333333    0.00065746  65 t-inv F
 -0.000000 -0.076923 -0.333333    0.00065746  65 t-inv F
 -0.076923  0.000000  0.333333    0.00065746  65 t-inv F
  0.076923 -0.000000 -0.333333    0.00065746  65 t-inv F
  0.076923 -0.076923  0.333333    0.00065746  65 t-inv F
 -0.076923  0.076923 -0.333333    0.00065746  65 t-inv F
 -0.153846  0.000000 -0.333333    0.00065746  66 t-inv F
 -0.153846  0.153846  0.333333    0.00065746  66 t-inv F
  0.153846 -0.153846 -0.333333    0.00065746  66 t-inv F
 -0.000000 -0.153846  0.333333    0.00065746  66 t-inv F
  0.000000  0.153846 -0.333333    0.00065746  66 t-inv F
  0.000000  0.153846  0.333333    0.00065746  66 t-inv F
 -0.000000 -0.153846 -0.333333    0.00065746  66 t-inv F
 -0.153846  0.000000  0.333333    0.00065746  66 t-inv F
  0.153846 -0.000000 -0.333333    0.00065746  66 t-inv F
  0.153846 -0.153846  0.333333    0.00065746  66 t-inv F
 -0.153846  0.153846 -0.333333    0.00065746  66 t-inv F
 -0.230769  0.000000 -0.333333    0.00065746  67 t-inv F
 -0.230769  0.230769  0.333333    0.00065746  67 t-inv F
  0.230769 -0.230769 -0.333333    0.00065746  67 t-inv F
 -0.000000 -0.230769  0.333333    0.00065746  67 t-inv F
  0.000000  0.230769 -0.333333    0.00065746  67 t-inv F
  0.000000  0.230769  0.333333    0.00065746  67 t-inv F
 -0.000000 -0.230769 -0.333333    0.00065746  67 t-inv F
 -0.230769  0.000000  0.333333    0.00065746  67 t-inv F
  0.230769 -0.000000 -0.333333    0.00065746  67 t-inv F
  0.230769 -0.230769  0.333333    0.00065746  67 t-inv F
 -0.230769  0.230769 -0.333333    0.00065746  67 t-inv F
 -0.307692  0.000000 -0.333333    0.00065746  68 t-inv F
 -0.307692  0.307692  0.333333    0.00065746  68 t-inv F
  0.307692 -0.307692 -0.333333    0.00065746  68 t-inv F
 -0.000000 -0.307692  0.333333    0.00065746  68 t-inv F
  0.000000  0.307692 -0.333333    0.00065746  68 t-inv F
  0.000000  0.307692  0.333333    0.00065746  68 t-inv F
 -0.000000 -0.307692 -0.333333    0.00065746  68 t-inv F
 -0.307692  0.000000  0.333333    0.00065746  68 t-inv F
  0.307692 -0.000000 -0.333333    0.00065746  68 t-inv F
  0.307692 -0.307692  0.333333    0.00065746  68 t-inv F
 -0.307692  0.307692 -0.333333    0.00065746  68 t-inv F
 -0.384615  0.000000 -0.333333    0.00065746  69 t-inv F
 -0.384615  0.384615  0.333333    0.00065746  69 t-inv F
  0.384615 -0.384615 -0.333333    0.00065746  69 t-inv F
 -0.000000 -0.384615  0.333333    0.00065746  69 t-inv F
  0.000000  0.384615 -0.333333    0.00065746  69 t-inv F
  0.000000  0.384615  0.333333    0.00065746  69 t-inv F
 -0.000000 -0.384615 -0.333333    0.00065746  69 t-inv F
 -0.384615  0.000000  0.333333    0.00065746  69 t-inv F
  0.384615 -0.000000 -0.333333    0.00065746  69 t-inv F
  0.384615 -0.384615  0.333333    0.00065746  69 t-inv F
 -0.384615  0.384615 -0.333333    0.00065746  69 t-inv F
 -0.461538  0.000000 -0.333333    0.00065746  70 t-inv F
 -0.461538  0.461538  0.333333    0.00065746  70 t-inv F
  0.461538 -0.461538 -0.333333    0.00065746  70 t-inv F
 -0.000000 -0.461538  0.333333    0.00065746  70 t-inv F
  0.000000  0.461538 -0.333333    0.00065746  70 t-inv F
  0.000000  0.461538  0.333333    0.00065746  70 t-inv F
 -0.000000 -0.461538 -0.333333    0.00065746  70 t-inv F
 -0.461538  0.000000  0.333333    0.00065746  70 t-inv F
  0.461538 -0.000000 -0.333333    0.00065746  70 t-inv F
  0.461538 -0.461538  0.333333    0.00065746  70 t-inv F
 -0.461538  0.461538 -0.333333    0.00065746  70 t-inv F
 -0.076923 -0.076923 -0.333333    0.00065746  71 t-inv F
 -0.153846  0.076923  0.333333    0.00065746  71 t-inv F
  0.153846 -0.076923 -0.333333    0.00065746  71 t-inv F
  0.076923 -0.153846  0.333333    0.00065746  71 t-inv F
 -0.076923  0.153846 -0.333333    0.00065746  71 t-inv F
  0.076923 -0.153846 -0.333333    0.00065746  71 t-inv F
 -0.076923  0.153846  0.333333    0.00065746  71 t-inv F
 -0.153846  0.076923 -0.333333    0.00065746  71 t-inv F
  0.153846 -0.076923  0.333333    0.00065746  71 t-inv F
  0.076923  0.076923 -0.333333    0.00065746  71 t-inv F
 -0.076923 -0.076923  0.333333    0.00065746  71 t-inv F
 -0.153846 -0.076923 -0.333333    0.00065746  72 t-inv F
 -0.230769  0.153846  0.333333    0.00065746  72 t-inv F
  0.230769 -0.153846 -0.333333    0.00065746  72 t-inv F
  0.076923 -0.230769  0.333333    0.00065746  72 t-inv F
 -0.076923  0.230769 -0.333333    0.00065746  72 t-inv F
  0.153846 -0.230769 -0.333333    0.00065746  72 t-inv F
 -0.153846  0.230769  0.333333    0.00065746  72 t-inv F
 -0.230769  0.076923 -0.333333    0.00065746  72 t-inv F
  0.230769 -0.076923  0.333333    0.00065746  72 t-inv F
  0.076923  0.153846 -0.333333    0.00065746  72 t-inv F
 -0.076923 -0.153846  0.333333    0.00065746  72 t-inv F
 -0.076923  0.230769  0.333333    0.00065746  72 t-inv F
  0.076923 -0.230769 -0.333333    0.00065746  72 t-inv F
 -0.153846 -0.076923  0.333333    0.00065746  72 t-inv F
  0.153846  0.076923 -0.333333    0.00065746  72 t-inv F
  0.230769 -0.153846  0.333333    0.00065746  72 t-inv F
 -0.230769  0.153846 -0.333333    0.00065746  72 t-inv F
[...]
          X           Y           Z          XY          YZ          ZX
  --------------------------------------------------------------------------------
  x    -0.00000     0.00000     0.00000    -2.77078     0.00000     0.00000
  y    -2.77078     2.77078     0.00000     0.00000     0.00000     0.00000
  z    -0.00000    -0.00000     0.00000    -0.00000     0.00000    -0.00000

 INTERNAL STRAIN TENSOR FOR ION    2 for displacements in x,y,z  (eV/Angst):
          X           Y           Z          XY          YZ          ZX
  --------------------------------------------------------------------------------
  x     0.00000    -0.00000    -0.00000     2.77078     0.00000     0.00000
  y     2.77078    -2.77078    -0.00000    -0.00000     0.00000     0.00000
  z     0.00000     0.00000     0.00000     0.00000     0.00000     0.00000


--------------------------------------------------------------------------------------------------------


 
 Eigenvectors and eigenvalues of the dynamical matrix
 ----------------------------------------------------
 
 
   1 f  =    3.078429 THz    19.342342 2PiTHz  102.685349 cm-1    12.731365 meV
             X         Y         Z           dx          dy          dz
     -0.000001  1.847070  1.266479     0.000000    0.000000   -0.707107  
      1.599610  0.923533  3.799436     0.000000    0.000000    0.707107  
 
   2 f  =    2.338497 THz    14.693212 2PiTHz   78.003873 cm-1     9.671251 meV
             X         Y         Z           dx          dy          dz
     -0.000001  1.847070  1.266479     0.614780    0.349350    0.000000  
      1.599610  0.923533  3.799436    -0.614780   -0.349350    0.000000  
 
   3 f  =    2.338497 THz    14.693209 2PiTHz   78.003856 cm-1     9.671249 meV
             X         Y         Z           dx          dy          dz
     -0.000001  1.847070  1.266479     0.349350   -0.614780   -0.000000  
      1.599610  0.923533  3.799436    -0.349350    0.614780    0.000000  
 
   4 f  =    0.000000 THz     0.000000 2PiTHz    0.000000 cm-1     0.000000 meV
             X         Y         Z           dx          dy          dz
     -0.000001  1.847070  1.266479     0.000000   -0.000000    0.707107  
      1.599610  0.923533  3.799436     0.000000    0.000000    0.707107  
 
   5 f/i=    0.000000 THz     0.000000 2PiTHz    0.000001 cm-1     0.000000 meV
             X         Y         Z           dx          dy          dz
     -0.000001  1.847070  1.266479    -0.706593   -0.026960   -0.000000  
      1.599610  0.923533  3.799436    -0.706593   -0.026960    0.000000  
 
   6 f/i=    0.000000 THz     0.000000 2PiTHz    0.000001 cm-1     0.000000 meV
             X         Y         Z           dx          dy          dz
     -0.000001  1.847070  1.266479    -0.026960    0.706593    0.000000  
      1.599610  0.923533  3.799436    -0.026960    0.706593    0.000000  
 


--------------------------------------------------------------------------------------------------------



 ELASTIC MODULI CONTR FROM IONIC RELAXATION (kBar)
 Direction    XX          YY          ZZ          XY          YZ          ZX
 --------------------------------------------------------------------------------
 XX        -137.1772    137.1771      0.0000     -0.0000      0.0000     -0.0000
 YY         137.1771   -137.1771     -0.0000     -0.0000      0.0000      0.0000
 ZZ           0.0000     -0.0000     -0.0000      0.0000      0.0000      0.0000
 XY          -0.0000     -0.0000      0.0000   -137.1771      0.0000      0.0000
 YZ           0.0000      0.0000      0.0000      0.0000      0.0000      0.0000
 ZX          -0.0000      0.0000      0.0000      0.0000      0.0000     -0.0000
 --------------------------------------------------------------------------------


 TOTAL ELASTIC MODULI (kBar)
 Direction    XX          YY          ZZ          XY          YZ          ZX
 --------------------------------------------------------------------------------
 XX        1771.0092    751.7761    697.3408      0.0003      0.0000      0.0000
 YY         751.7761   1771.0084    697.3406      0.0003      0.0000      0.0000
 ZZ         697.3408    697.3406   1969.9984      0.0001     -0.0000      0.0000
 XY           0.0003      0.0003      0.0001    509.6164      0.0000      0.0000
 YZ           0.0000      0.0000     -0.0000     -0.0000    493.2759      0.0001
 ZX           0.0000      0.0000      0.0000     -0.0000      0.0001    493.2761
 --------------------------------------------------------------------------------



--------------------------------------------------------------------------------------------------------


  LATTYP: Found a hexagonal cell.
 ALAT       =     3.1992170849
 C/A-ratio  =     1.5834856584
  
  Lattice vectors:
  
 A1 = (   3.1992170931,   0.0000000066,   0.0000000000)
 A2 = (  -1.5996080384,   2.7706029654,   0.0000000000)
 A3 = (   0.0000000000,   0.0000000000,   5.0659143719)


Analysis of symmetry for initial positions (statically):
=====================================================================
 Subroutine PRICEL returns:
 Original cell was already a primitive cell.
 

 Routine SETGRP: Setting up the symmetry group for a 
 hexagonal supercell.


 Subroutine GETGRP returns: Found 24 space group operations
 (whereof 12 operations were pure point group operations)
 out of a pool of 24 trial point group operations.


The static configuration has the point symmetry D_3d.
 The point group associated with its full space group is D_6h.


Analysis of symmetry for dynamics (positions and initial velocities):
=====================================================================
 Subroutine PRICEL returns:
 Original cell was already a primitive cell.
 

 Routine SETGRP: Setting up the symmetry group for a 
 hexagonal supercell.


 Subroutine GETGRP returns: Found 24 space group operations
 (whereof 12 operations were pure point group operations)
 out of a pool of 24 trial point group operations.


The dynamic configuration has the point symmetry D_3d.
 The point group associated with its full space group is D_6h.


 Subroutine INISYM returns: Found 24 space group operations
 (whereof 12 operations are pure point group operations),
 and found     1 'primitive' translations

 
 KPOINTS: k points                                

Automatic generation of k-mesh.
Space group operators:
 irot       det(A)        alpha          n_x          n_y          n_z        tau_x        tau_y        tau_z
    1     1.000000     0.000000     1.000000     0.000000     0.000000     0.000000     0.000000     0.000000
    2    -1.000000     0.000000     1.000000     0.000000     0.000000     0.000000     0.000000     0.000000
    3     1.000000   120.000000     0.000000     0.000000    -1.000000     0.000000     0.000000     0.000000
    4    -1.000000   120.000000     0.000000     0.000000    -1.000000     0.000000     0.000000     0.000000
    5     1.000000   120.000000     0.000000     0.000000     1.000000     0.000000     0.000000     0.000000
    6    -1.000000   120.000000     0.000000     0.000000     1.000000     0.000000     0.000000     0.000000
    7     1.000000   180.000000     1.000000    -0.000000     0.000000     0.000000     0.000000     0.000000
    8    -1.000000   180.000000     1.000000    -0.000000     0.000000     0.000000     0.000000     0.000000
    9     1.000000   180.000000     0.500000    -0.866025     0.000000     0.000000     0.000000     0.000000
   10    -1.000000   180.000000     0.500000    -0.866025     0.000000     0.000000     0.000000     0.000000
   11     1.000000   180.000000    -0.500000    -0.866025     0.000000     0.000000     0.000000     0.000000
   12    -1.000000   180.000000    -0.500000    -0.866025     0.000000     0.000000     0.000000     0.000000
   13     1.000000    60.000000     0.000000     0.000000    -1.000000     0.000001    -0.000000    -0.500000
   14    -1.000000    60.000000     0.000000     0.000000    -1.000000     0.000000     0.000000    -0.500000
   15     1.000000   180.000000     0.000000     0.000000     1.000000     0.000000    -0.000000    -0.500000
   16    -1.000000   180.000000     0.000000     0.000000     1.000000     0.000000     0.000000    -0.500000
   17     1.000000    60.000000     0.000000     0.000000     1.000000     0.000000    -0.000000    -0.500000
   18    -1.000000    60.000000     0.000000     0.000000     1.000000    -0.000000     0.000001    -0.500000
   19     1.000000   180.000000     0.866025    -0.500000     0.000000     0.000000     0.000000    -0.500000
   20    -1.000000   180.000000     0.866025    -0.500000     0.000000     0.000000     0.000000    -0.500000
   21     1.000000   180.000000     0.000000    -1.000000     0.000000     0.000000     0.000000    -0.500000
   22    -1.000000   180.000000     0.000000    -1.000000     0.000000     0.000001    -0.000000    -0.500000
   23     1.000000   180.000000     0.866025     0.500000     0.000000    -0.000000     0.000001    -0.500000
   24    -1.000000   180.000000     0.866025     0.500000     0.000000     0.000000    -0.000000    -0.500000
 
 Subroutine IBZKPT returns following result:
 ===========================================
 
 Found    105 irreducible k-points:
 
 Following reciprocal coordinates:
            Coordinates               Weight
  0.000000  0.000000  0.000000      1.000000
  0.076923 -0.000000  0.000000      6.000000
  0.153846 -0.000000  0.000000      6.000000
  0.230769 -0.000000  0.000000      6.000000
  0.307692 -0.000000  0.000000      6.000000
  0.384615 -0.000000  0.000000      6.000000
  0.461538 -0.000000  0.000000      6.000000
  0.076923  0.076923  0.000000      6.000000
  0.153846  0.076923  0.000000     12.000000
  0.230769  0.076923  0.000000     12.000000
  0.307692  0.076923  0.000000     12.000000
  0.384615  0.076923  0.000000     12.000000
  0.461538  0.076923  0.000000      6.000000
  0.153846  0.153846  0.000000      6.000000
  0.230769  0.153846  0.000000     12.000000
  0.307692  0.153846  0.000000     12.000000
  0.384615  0.153846  0.000000     12.000000
  0.230769  0.230769  0.000000      6.000000
  0.307692  0.230769  0.000000     12.000000
  0.384615  0.230769  0.000000      6.000000
  0.307692  0.307692  0.000000      6.000000
  0.000000  0.000000  0.111111      2.000000
  0.076923 -0.000000  0.111111     12.000000
  0.153846 -0.000000  0.111111     12.000000
  0.230769 -0.000000  0.111111     12.000000
  0.307692 -0.000000  0.111111     12.000000
  0.384615 -0.000000  0.111111     12.000000
  0.461538 -0.000000  0.111111     12.000000
  0.076923  0.076923  0.111111     12.000000
  0.153846  0.076923  0.111111     24.000000
  0.230769  0.076923  0.111111     24.000000
  0.307692  0.076923  0.111111     24.000000
  0.384615  0.076923  0.111111     24.000000
  0.461538  0.076923  0.111111     12.000000
  0.153846  0.153846  0.111111     12.000000
  0.230769  0.153846  0.111111     24.000000
  0.307692  0.153846  0.111111     24.000000
  0.384615  0.153846  0.111111     24.000000
  0.230769  0.230769  0.111111     12.000000
  0.307692  0.230769  0.111111     24.000000
  0.384615  0.230769  0.111111     12.000000
  0.307692  0.307692  0.111111     12.000000
  0.000000  0.000000  0.222222      2.000000
  0.076923 -0.000000  0.222222     12.000000
  0.153846 -0.000000  0.222222     12.000000
  0.230769 -0.000000  0.222222     12.000000
  0.307692 -0.000000  0.222222     12.000000
  0.384615 -0.000000  0.222222     12.000000
  0.461538 -0.000000  0.222222     12.000000
  0.076923  0.076923  0.222222     12.000000
  0.153846  0.076923  0.222222     24.000000
  0.230769  0.076923  0.222222     24.000000
  0.307692  0.076923  0.222222     24.000000
  0.384615  0.076923  0.222222     24.000000
  0.461538  0.076923  0.222222     12.000000
  0.153846  0.153846  0.222222     12.000000
  0.230769  0.153846  0.222222     24.000000
  0.307692  0.153846  0.222222     24.000000
  0.384615  0.153846  0.222222     24.000000
  0.230769  0.230769  0.222222     12.000000
  0.307692  0.230769  0.222222     24.000000
  0.384615  0.230769  0.222222     12.000000
  0.307692  0.307692  0.222222     12.000000
  0.000000  0.000000  0.333333      2.000000
  0.076923 -0.000000  0.333333     12.000000
  0.153846 -0.000000  0.333333     12.000000
  0.230769 -0.000000  0.333333     12.000000
  0.307692 -0.000000  0.333333     12.000000
  0.384615 -0.000000  0.333333     12.000000
  0.461538 -0.000000  0.333333     12.000000
  0.076923  0.076923  0.333333     12.000000
  0.153846  0.076923  0.333333     24.000000
  0.230769  0.076923  0.333333     24.000000
  0.307692  0.076923  0.333333     24.000000
  0.384615  0.076923  0.333333     24.000000
  0.461538  0.076923  0.333333     12.000000
  0.153846  0.153846  0.333333     12.000000
  0.230769  0.153846  0.333333     24.000000
  0.307692  0.153846  0.333333     24.000000
  0.384615  0.153846  0.333333     24.000000
  0.230769  0.230769  0.333333     12.000000
  0.307692  0.230769  0.333333     24.000000
  0.384615  0.230769  0.333333     12.000000
  0.307692  0.307692  0.333333     12.000000
  0.000000  0.000000  0.444444      2.000000
  0.076923 -0.000000  0.444444     12.000000
  0.153846 -0.000000  0.444444     12.000000
  0.230769 -0.000000  0.444444     12.000000
  0.307692 -0.000000  0.444444     12.000000
  0.384615 -0.000000  0.444444     12.000000
  0.461538 -0.000000  0.444444     12.000000
  0.076923  0.076923  0.444444     12.000000
  0.153846  0.076923  0.444444     24.000000
  0.230769  0.076923  0.444444     24.000000
  0.307692  0.076923  0.444444     24.000000
  0.384615  0.076923  0.444444     24.000000
  0.461538  0.076923  0.444444     12.000000
  0.153846  0.153846  0.444444     12.000000
  0.230769  0.153846  0.444444     24.000000
  0.307692  0.153846  0.444444     24.000000
  0.384615  0.153846  0.444444     24.000000
  0.230769  0.230769  0.444444     12.000000
  0.307692  0.230769  0.444444     24.000000
  0.384615  0.230769  0.444444     12.000000
  0.307692  0.307692  0.444444     12.000000
 
 Following cartesian coordinates:
            Coordinates               Weight
  0.000000  0.000000  0.000000      1.000000
  0.024044  0.013882  0.000000      6.000000
  0.048089  0.027764  0.000000      6.000000
  0.072133  0.041646  0.000000      6.000000
  0.096177  0.055528  0.000000      6.000000
  0.120222  0.069410  0.000000      6.000000
  0.144266  0.083292  0.000000      6.000000
  0.024044  0.041646  0.000000      6.000000
  0.048089  0.055528  0.000000     12.000000
  0.072133  0.069410  0.000000     12.000000
  0.096177  0.083292  0.000000     12.000000
  0.120222  0.097174  0.000000     12.000000
  0.144266  0.111056  0.000000      6.000000
  0.048089  0.083292  0.000000      6.000000
  0.072133  0.097174  0.000000     12.000000
  0.096177  0.111056  0.000000     12.000000
  0.120222  0.124938  0.000000     12.000000
  0.072133  0.124938  0.000000      6.000000
  0.096177  0.138820  0.000000     12.000000
  0.120222  0.152702  0.000000      6.000000
  0.096177  0.166584  0.000000      6.000000
  0.000000  0.000000  0.021933      2.000000
  0.024044  0.013882  0.021933     12.000000
  0.048089  0.027764  0.021933     12.000000
  0.072133  0.041646  0.021933     12.000000
  0.096177  0.055528  0.021933     12.000000
  0.120222  0.069410  0.021933     12.000000
  0.144266  0.083292  0.021933     12.000000
  0.024044  0.041646  0.021933     12.000000
  0.048089  0.055528  0.021933     24.000000
  0.072133  0.069410  0.021933     24.000000
  0.096177  0.083292  0.021933     24.000000
  0.120222  0.097174  0.021933     24.000000
  0.144266  0.111056  0.021933     12.000000
  0.048089  0.083292  0.021933     12.000000
  0.072133  0.097174  0.021933     24.000000
  0.096177  0.111056  0.021933     24.000000
  0.120222  0.124938  0.021933     24.000000
  0.072133  0.124938  0.021933     12.000000
  0.096177  0.138820  0.021933     24.000000
  0.120222  0.152702  0.021933     12.000000
  0.096177  0.166584  0.021933     12.000000
  0.000000  0.000000  0.043866      2.000000
  0.024044  0.013882  0.043866     12.000000
  0.048089  0.027764  0.043866     12.000000
  0.072133  0.041646  0.043866     12.000000
  0.096177  0.055528  0.043866     12.000000
  0.120222  0.069410  0.043866     12.000000
  0.144266  0.083292  0.043866     12.000000
  0.024044  0.041646  0.043866     12.000000
  0.048089  0.055528  0.043866     24.000000
  0.072133  0.069410  0.043866     24.000000
  0.096177  0.083292  0.043866     24.000000
  0.120222  0.097174  0.043866     24.000000
  0.144266  0.111056  0.043866     12.000000
  0.048089  0.083292  0.043866     12.000000
  0.072133  0.097174  0.043866     24.000000
  0.096177  0.111056  0.043866     24.000000
  0.120222  0.124938  0.043866     24.000000
  0.072133  0.124938  0.043866     12.000000
  0.096177  0.138820  0.043866     24.000000
  0.120222  0.152702  0.043866     12.000000
  0.096177  0.166584  0.043866     12.000000
  0.000000  0.000000  0.065799      2.000000
  0.024044  0.013882  0.065799     12.000000
  0.048089  0.027764  0.065799     12.000000
  0.072133  0.041646  0.065799     12.000000
  0.096177  0.055528  0.065799     12.000000
  0.120222  0.069410  0.065799     12.000000
  0.144266  0.083292  0.065799     12.000000
  0.024044  0.041646  0.065799     12.000000
  0.048089  0.055528  0.065799     24.000000
  0.072133  0.069410  0.065799     24.000000
  0.096177  0.083292  0.065799     24.000000
  0.120222  0.097174  0.065799     24.000000
  0.144266  0.111056  0.065799     12.000000
  0.048089  0.083292  0.065799     12.000000
  0.072133  0.097174  0.065799     24.000000
  0.096177  0.111056  0.065799     24.000000
  0.120222  0.124938  0.065799     24.000000
  0.072133  0.124938  0.065799     12.000000
  0.096177  0.138820  0.065799     24.000000
  0.120222  0.152702  0.065799     12.000000
  0.096177  0.166584  0.065799     12.000000
  0.000000  0.000000  0.087732      2.000000
  0.024044  0.013882  0.087732     12.000000
  0.048089  0.027764  0.087732     12.000000
  0.072133  0.041646  0.087732     12.000000
  0.096177  0.055528  0.087732     12.000000
  0.120222  0.069410  0.087732     12.000000
  0.144266  0.083292  0.087732     12.000000
  0.024044  0.041646  0.087732     12.000000
  0.048089  0.055528  0.087732     24.000000
  0.072133  0.069410  0.087732     24.000000
  0.096177  0.083292  0.087732     24.000000
  0.120222  0.097174  0.087732     24.000000
  0.144266  0.111056  0.087732     12.000000
  0.048089  0.083292  0.087732     12.000000
  0.072133  0.097174  0.087732     24.000000
  0.096177  0.111056  0.087732     24.000000
  0.120222  0.124938  0.087732     24.000000
  0.072133  0.124938  0.087732     12.000000
  0.096177  0.138820  0.087732     24.000000
  0.120222  0.152702  0.087732     12.000000
  0.096177  0.166584  0.087732     12.000000
 
 writing wavefunctions
     LOOP+:  cpu time   60.1434: real time   61.4521
    4ORBIT:  cpu time    0.0000: real time    0.0000

 total amount of memory used by VASP MPI-rank0    59059. kBytes
=======================================================================

   base      :      30000. kBytes
   nonl-proj :      18606. kBytes
   fftplans  :        669. kBytes
   grid      :       1259. kBytes
   one-center:         31. kBytes
   wavefun   :       8494. kBytes
 
  
  
 General timing and accounting informations for this job:
 ========================================================
  
                  Total CPU time used (sec):     2241.637
                            User time (sec):      855.106
                          System time (sec):     1386.531
                         Elapsed time (sec):     2248.103
  
                   Maximum memory used (kb):      303652.
                   Average memory used (kb):           0.
  
                          Minor page faults:       278613
                          Major page faults:          184
                 Voluntary context switches:         1600
