   8   8   1   0
  0.1475534E+02  0.3884958E-09  0.3884958E-09  0.7821078E-09  0.5000000E-15
  1.000000000000000E-004
  CAR 
 unknown system                          
     16.70272159     -3.71479032  301      8.45801217      1.00000000
     -3.715  0.0000E+00  0.0000E+00  0.0000E+00  0.0000E+00
     -3.647  0.0000E+00  0.0000E+00  0.0000E+00  0.0000E+00
     -3.579  0.0000E+00  0.0000E+00  0.0000E+00  0.0000E+00
     -3.511  0.0000E+00  0.0000E+00  0.0000E+00  0.0000E+00
     -3.443  0.0000E+00  0.0000E+00  0.0000E+00  0.0000E+00
     -3.374  0.0000E+00  0.0000E+00  0.0000E+00  0.0000E+00
     -3.306  0.0000E+00  0.0000E+00  0.0000E+00  0.0000E+00
     -3.238  0.1483E-05  0.1477E-05  0.1009E-06  0.1005E-06
     -3.170  0.1578E-04  0.1572E-04  0.1175E-05  0.1170E-05
     -3.102  0.7957E-04  0.7926E-04  0.6590E-05  0.6565E-05
     -3.034  0.3087E-03  0.3075E-03  0.2760E-04  0.2749E-04
     -2.966  0.1203E-02  0.1198E-02  0.1095E-03  0.1090E-03
     -2.898  0.4561E-02  0.4544E-02  0.4199E-03  0.4183E-03
     -2.830  0.1570E-01  0.1565E-01  0.1489E-02  0.1483E-02
     -2.762  0.4440E-01  0.4429E-01  0.4510E-02  0.4498E-02
     -2.694  0.9081E-01  0.9067E-01  0.1069E-01  0.1067E-01
     -2.626  0.1331E+00  0.1330E+00  0.1975E-01  0.1972E-01
     -2.558  0.1706E+00  0.1705E+00  0.3136E-01  0.3132E-01
     -2.490  0.2201E+00  0.2200E+00  0.4634E-01  0.4630E-01
     -2.422  0.2368E+00  0.2368E+00  0.6246E-01  0.6241E-01
     -2.354  0.2337E+00  0.2336E+00  0.7836E-01  0.7831E-01
     -2.286  0.2803E+00  0.2801E+00  0.9744E-01  0.9738E-01
     -2.218  0.3193E+00  0.3193E+00  0.1192E+00  0.1191E+00
     -2.149  0.3244E+00  0.3244E+00  0.1413E+00  0.1412E+00
     -2.081  0.3382E+00  0.3381E+00  0.1643E+00  0.1642E+00
     -2.013  0.3634E+00  0.3634E+00  0.1890E+00  0.1890E+00
     -1.945  0.3529E+00  0.3530E+00  0.2131E+00  0.2130E+00
     -1.877  0.3493E+00  0.3492E+00  0.2369E+00  0.2368E+00
     -1.809  0.4171E+00  0.4168E+00  0.2653E+00  0.2652E+00
     -1.741  0.4714E+00  0.4714E+00  0.2974E+00  0.2973E+00
     -1.673  0.4534E+00  0.4535E+00  0.3282E+00  0.3282E+00
     -1.605  0.4425E+00  0.4425E+00  0.3584E+00  0.3583E+00
     -1.537  0.4470E+00  0.4471E+00  0.3888E+00  0.3887E+00
     -1.469  0.4327E+00  0.4327E+00  0.4183E+00  0.4182E+00
     -1.401  0.4624E+00  0.4622E+00  0.4498E+00  0.4497E+00
     -1.333  0.5199E+00  0.5198E+00  0.4852E+00  0.4851E+00
     -1.265  0.5735E+00  0.5735E+00  0.5242E+00  0.5241E+00
     -1.197  0.5470E+00  0.5471E+00  0.5615E+00  0.5614E+00
     -1.129  0.5245E+00  0.5244E+00  0.5972E+00  0.5971E+00
     -1.061  0.5555E+00  0.5554E+00  0.6350E+00  0.6349E+00
     -0.992  0.5690E+00  0.5690E+00  0.6738E+00  0.6737E+00
     -0.924  0.5880E+00  0.5880E+00  0.7138E+00  0.7137E+00
     -0.856  0.6178E+00  0.6178E+00  0.7559E+00  0.7558E+00
     -0.788  0.5917E+00  0.5919E+00  0.7962E+00  0.7961E+00
     -0.720  0.5427E+00  0.5427E+00  0.8332E+00  0.8331E+00
     -0.652  0.5939E+00  0.5936E+00  0.8736E+00  0.8735E+00
     -0.584  0.7078E+00  0.7075E+00  0.9218E+00  0.9217E+00
     -0.516  0.7629E+00  0.7629E+00  0.9738E+00  0.9736E+00
     -0.448  0.7534E+00  0.7535E+00  0.1025E+01  0.1025E+01
     -0.380  0.6938E+00  0.6940E+00  0.1072E+01  0.1072E+01
     -0.312  0.6175E+00  0.6177E+00  0.1114E+01  0.1114E+01
     -0.244  0.5880E+00  0.5879E+00  0.1154E+01  0.1154E+01
     -0.176  0.6433E+00  0.6431E+00  0.1198E+01  0.1198E+01
     -0.108  0.7237E+00  0.7235E+00  0.1248E+01  0.1247E+01
     -0.040  0.7499E+00  0.7499E+00  0.1299E+01  0.1298E+01
      0.028  0.7499E+00  0.7499E+00  0.1350E+01  0.1350E+01
      0.096  0.7457E+00  0.7457E+00  0.1400E+01  0.1400E+01
      0.165  0.7406E+00  0.7406E+00  0.1451E+01  0.1451E+01
      0.233  0.8014E+00  0.8012E+00  0.1505E+01  0.1505E+01
      0.301  0.8213E+00  0.8213E+00  0.1561E+01  0.1561E+01
      0.369  0.7719E+00  0.7721E+00  0.1614E+01  0.1614E+01
      0.437  0.7021E+00  0.7020E+00  0.1662E+01  0.1662E+01
      0.505  0.7378E+00  0.7375E+00  0.1712E+01  0.1712E+01
      0.573  0.7688E+00  0.7687E+00  0.1764E+01  0.1764E+01
      0.641  0.7674E+00  0.7673E+00  0.1817E+01  0.1817E+01
      0.709  0.8224E+00  0.8222E+00  0.1873E+01  0.1872E+01
      0.777  0.8718E+00  0.8717E+00  0.1932E+01  0.1932E+01
      0.845  0.8948E+00  0.8948E+00  0.1993E+01  0.1993E+01
      0.913  0.9057E+00  0.9056E+00  0.2055E+01  0.2054E+01
      0.981  0.9134E+00  0.9134E+00  0.2117E+01  0.2117E+01
      1.049  0.8707E+00  0.8709E+00  0.2176E+01  0.2176E+01
      1.117  0.8332E+00  0.8332E+00  0.2233E+01  0.2233E+01
      1.185  0.8966E+00  0.8962E+00  0.2294E+01  0.2294E+01
      1.253  0.1005E+01  0.1004E+01  0.2362E+01  0.2362E+01
      1.322  0.1061E+01  0.1061E+01  0.2435E+01  0.2434E+01
      1.390  0.1049E+01  0.1049E+01  0.2506E+01  0.2506E+01
      1.458  0.9111E+00  0.9117E+00  0.2568E+01  0.2568E+01
      1.526  0.8063E+00  0.8064E+00  0.2623E+01  0.2623E+01
      1.594  0.8432E+00  0.8428E+00  0.2680E+01  0.2680E+01
      1.662  0.9206E+00  0.9203E+00  0.2743E+01  0.2743E+01
      1.730  0.9512E+00  0.9510E+00  0.2808E+01  0.2808E+01
      1.798  0.9417E+00  0.9417E+00  0.2872E+01  0.2872E+01
      1.866  0.9272E+00  0.9271E+00  0.2935E+01  0.2935E+01
      1.934  0.9732E+00  0.9728E+00  0.3002E+01  0.3001E+01
      2.002  0.1083E+01  0.1082E+01  0.3075E+01  0.3075E+01
      2.070  0.1149E+01  0.1149E+01  0.3153E+01  0.3153E+01
      2.138  0.1042E+01  0.1043E+01  0.3224E+01  0.3224E+01
      2.206  0.9169E+00  0.9170E+00  0.3287E+01  0.3287E+01
      2.274  0.9761E+00  0.9752E+00  0.3353E+01  0.3353E+01
      2.342  0.1231E+01  0.1230E+01  0.3437E+01  0.3437E+01
      2.410  0.1371E+01  0.1371E+01  0.3531E+01  0.3530E+01
      2.479  0.1280E+01  0.1280E+01  0.3618E+01  0.3617E+01
      2.547  0.1144E+01  0.1145E+01  0.3696E+01  0.3695E+01
      2.615  0.1045E+01  0.1045E+01  0.3767E+01  0.3766E+01
      2.683  0.1105E+01  0.1104E+01  0.3842E+01  0.3842E+01
      2.751  0.1178E+01  0.1178E+01  0.3922E+01  0.3922E+01
      2.819  0.1148E+01  0.1148E+01  0.4000E+01  0.4000E+01
      2.887  0.1238E+01  0.1237E+01  0.4085E+01  0.4084E+01
      2.955  0.1472E+01  0.1471E+01  0.4185E+01  0.4184E+01
      3.023  0.1620E+01  0.1619E+01  0.4295E+01  0.4295E+01
      3.091  0.1603E+01  0.1602E+01  0.4404E+01  0.4404E+01
      3.159  0.1584E+01  0.1583E+01  0.4512E+01  0.4512E+01
      3.227  0.1515E+01  0.1515E+01  0.4615E+01  0.4615E+01
      3.295  0.1412E+01  0.1412E+01  0.4712E+01  0.4711E+01
      3.363  0.1331E+01  0.1332E+01  0.4802E+01  0.4802E+01
      3.431  0.1240E+01  0.1239E+01  0.4887E+01  0.4886E+01
      3.499  0.1327E+01  0.1324E+01  0.4977E+01  0.4976E+01
      3.567  0.1692E+01  0.1688E+01  0.5092E+01  0.5091E+01
      3.636  0.2120E+01  0.2116E+01  0.5237E+01  0.5235E+01
      3.704  0.2294E+01  0.2293E+01  0.5393E+01  0.5391E+01
      3.772  0.2181E+01  0.2182E+01  0.5541E+01  0.5540E+01
      3.840  0.1983E+01  0.1984E+01  0.5676E+01  0.5675E+01
      3.908  0.1844E+01  0.1843E+01  0.5802E+01  0.5801E+01
      3.976  0.2060E+01  0.2054E+01  0.5942E+01  0.5940E+01
      4.044  0.2460E+01  0.2454E+01  0.6110E+01  0.6108E+01
      4.112  0.2775E+01  0.2769E+01  0.6299E+01  0.6296E+01
      4.180  0.3099E+01  0.3093E+01  0.6510E+01  0.6507E+01
      4.248  0.3319E+01  0.3312E+01  0.6736E+01  0.6732E+01
      4.316  0.3690E+01  0.3678E+01  0.6987E+01  0.6983E+01
      4.384  0.4369E+01  0.4347E+01  0.7284E+01  0.7278E+01
      4.452  0.5648E+01  0.5608E+01  0.7669E+01  0.7660E+01
      4.520  0.7610E+01  0.7558E+01  0.8187E+01  0.8175E+01
      4.588  0.9761E+01  0.9708E+01  0.8851E+01  0.8836E+01
      4.656  0.1189E+02  0.1184E+02  0.9661E+01  0.9642E+01
      4.724  0.1314E+02  0.1313E+02  0.1056E+02  0.1054E+02
      4.793  0.1216E+02  0.1219E+02  0.1138E+02  0.1137E+02
      4.861  0.9622E+01  0.9683E+01  0.1204E+02  0.1202E+02
      4.929  0.7247E+01  0.7302E+01  0.1253E+02  0.1252E+02
      4.997  0.5939E+01  0.5968E+01  0.1294E+02  0.1293E+02
      5.065  0.6121E+01  0.6120E+01  0.1335E+02  0.1335E+02
      5.133  0.6707E+01  0.6711E+01  0.1381E+02  0.1380E+02
      5.201  0.5955E+01  0.5980E+01  0.1422E+02  0.1421E+02
      5.269  0.4553E+01  0.4574E+01  0.1453E+02  0.1452E+02
      5.337  0.3759E+01  0.3768E+01  0.1478E+02  0.1478E+02
      5.405  0.3564E+01  0.3567E+01  0.1503E+02  0.1502E+02
      5.473  0.3378E+01  0.3384E+01  0.1526E+02  0.1525E+02
      5.541  0.2913E+01  0.2923E+01  0.1546E+02  0.1545E+02
      5.609  0.2370E+01  0.2377E+01  0.1562E+02  0.1561E+02
      5.677  0.2034E+01  0.2040E+01  0.1576E+02  0.1575E+02
      5.745  0.1853E+01  0.1856E+01  0.1588E+02  0.1588E+02
      5.813  0.1783E+01  0.1783E+01  0.1600E+02  0.1600E+02
      5.881  0.1777E+01  0.1778E+01  0.1612E+02  0.1612E+02
      5.949  0.1675E+01  0.1678E+01  0.1624E+02  0.1624E+02
      6.018  0.1443E+01  0.1446E+01  0.1634E+02  0.1634E+02
      6.086  0.1256E+01  0.1258E+01  0.1642E+02  0.1642E+02
      6.154  0.1159E+01  0.1160E+01  0.1650E+02  0.1650E+02
      6.222  0.1109E+01  0.1111E+01  0.1658E+02  0.1658E+02
      6.290  0.1054E+01  0.1055E+01  0.1665E+02  0.1665E+02
      6.358  0.1043E+01  0.1042E+01  0.1672E+02  0.1672E+02
      6.426  0.1143E+01  0.1141E+01  0.1680E+02  0.1680E+02
      6.494  0.1431E+01  0.1426E+01  0.1689E+02  0.1689E+02
      6.562  0.1758E+01  0.1754E+01  0.1701E+02  0.1701E+02
      6.630  0.1799E+01  0.1799E+01  0.1714E+02  0.1714E+02
      6.698  0.1837E+01  0.1836E+01  0.1726E+02  0.1726E+02
      6.766  0.1967E+01  0.1967E+01  0.1740E+02  0.1739E+02
      6.834  0.1934E+01  0.1936E+01  0.1753E+02  0.1753E+02
      6.902  0.1755E+01  0.1758E+01  0.1765E+02  0.1765E+02
      6.970  0.1561E+01  0.1563E+01  0.1775E+02  0.1775E+02
      7.038  0.1458E+01  0.1459E+01  0.1785E+02  0.1785E+02
      7.106  0.1523E+01  0.1522E+01  0.1796E+02  0.1796E+02
      7.175  0.1778E+01  0.1776E+01  0.1808E+02  0.1808E+02
      7.243  0.1917E+01  0.1918E+01  0.1821E+02  0.1821E+02
      7.311  0.1772E+01  0.1774E+01  0.1833E+02  0.1833E+02
      7.379  0.1595E+01  0.1596E+01  0.1844E+02  0.1844E+02
      7.447  0.1484E+01  0.1485E+01  0.1854E+02  0.1854E+02
      7.515  0.1420E+01  0.1421E+01  0.1864E+02  0.1863E+02
      7.583  0.1399E+01  0.1399E+01  0.1873E+02  0.1873E+02
      7.651  0.1512E+01  0.1511E+01  0.1883E+02  0.1883E+02
      7.719  0.1712E+01  0.1712E+01  0.1895E+02  0.1895E+02
      7.787  0.1691E+01  0.1693E+01  0.1907E+02  0.1906E+02
      7.855  0.1448E+01  0.1449E+01  0.1916E+02  0.1916E+02
      7.923  0.1276E+01  0.1277E+01  0.1925E+02  0.1925E+02
      7.991  0.1138E+01  0.1139E+01  0.1933E+02  0.1933E+02
      8.059  0.1084E+01  0.1084E+01  0.1940E+02  0.1940E+02
      8.127  0.1282E+01  0.1280E+01  0.1949E+02  0.1949E+02
      8.195  0.1501E+01  0.1501E+01  0.1959E+02  0.1959E+02
      8.263  0.1524E+01  0.1524E+01  0.1970E+02  0.1970E+02
      8.332  0.1506E+01  0.1506E+01  0.1980E+02  0.1980E+02
      8.400  0.1557E+01  0.1557E+01  0.1990E+02  0.1990E+02
      8.468  0.1644E+01  0.1644E+01  0.2002E+02  0.2002E+02
      8.536  0.1572E+01  0.1574E+01  0.2012E+02  0.2012E+02
      8.604  0.1314E+01  0.1315E+01  0.2021E+02  0.2021E+02
      8.672  0.1113E+01  0.1114E+01  0.2029E+02  0.2029E+02
      8.740  0.1037E+01  0.1037E+01  0.2036E+02  0.2036E+02
      8.808  0.1166E+01  0.1165E+01  0.2044E+02  0.2044E+02
      8.876  0.1405E+01  0.1403E+01  0.2053E+02  0.2053E+02
      8.944  0.1561E+01  0.1560E+01  0.2064E+02  0.2064E+02
      9.012  0.1567E+01  0.1568E+01  0.2075E+02  0.2075E+02
      9.080  0.1474E+01  0.1474E+01  0.2085E+02  0.2085E+02
      9.148  0.1636E+01  0.1635E+01  0.2096E+02  0.2096E+02
      9.216  0.1820E+01  0.1820E+01  0.2108E+02  0.2108E+02
      9.284  0.1698E+01  0.1699E+01  0.2120E+02  0.2120E+02
      9.352  0.1463E+01  0.1464E+01  0.2130E+02  0.2130E+02
      9.420  0.1342E+01  0.1342E+01  0.2139E+02  0.2139E+02
      9.489  0.1337E+01  0.1337E+01  0.2148E+02  0.2148E+02
      9.557  0.1428E+01  0.1428E+01  0.2158E+02  0.2158E+02
      9.625  0.1582E+01  0.1582E+01  0.2169E+02  0.2169E+02
      9.693  0.1730E+01  0.1729E+01  0.2180E+02  0.2180E+02
      9.761  0.1816E+01  0.1816E+01  0.2193E+02  0.2193E+02
      9.829  0.1651E+01  0.1652E+01  0.2204E+02  0.2204E+02
      9.897  0.1448E+01  0.1449E+01  0.2214E+02  0.2214E+02
      9.965  0.1341E+01  0.1342E+01  0.2223E+02  0.2223E+02
     10.033  0.1327E+01  0.1327E+01  0.2232E+02  0.2232E+02
     10.101  0.1506E+01  0.1505E+01  0.2242E+02  0.2242E+02
     10.169  0.1771E+01  0.1770E+01  0.2254E+02  0.2254E+02
     10.237  0.1929E+01  0.1929E+01  0.2267E+02  0.2267E+02
     10.305  0.1907E+01  0.1908E+01  0.2280E+02  0.2280E+02
     10.373  0.1727E+01  0.1728E+01  0.2292E+02  0.2292E+02
     10.441  0.1594E+01  0.1594E+01  0.2303E+02  0.2303E+02
     10.509  0.1499E+01  0.1500E+01  0.2313E+02  0.2313E+02
     10.577  0.1295E+01  0.1296E+01  0.2322E+02  0.2322E+02
     10.646  0.1254E+01  0.1254E+01  0.2331E+02  0.2331E+02
     10.714  0.1471E+01  0.1470E+01  0.2341E+02  0.2341E+02
     10.782  0.1697E+01  0.1697E+01  0.2352E+02  0.2352E+02
     10.850  0.1751E+01  0.1751E+01  0.2364E+02  0.2364E+02
     10.918  0.1730E+01  0.1730E+01  0.2376E+02  0.2376E+02
     10.986  0.1625E+01  0.1625E+01  0.2387E+02  0.2387E+02
     11.054  0.1617E+01  0.1617E+01  0.2398E+02  0.2398E+02
     11.122  0.1719E+01  0.1719E+01  0.2410E+02  0.2410E+02
     11.190  0.1718E+01  0.1718E+01  0.2421E+02  0.2421E+02
     11.258  0.1686E+01  0.1686E+01  0.2433E+02  0.2433E+02
     11.326  0.1623E+01  0.1624E+01  0.2444E+02  0.2444E+02
     11.394  0.1465E+01  0.1466E+01  0.2454E+02  0.2454E+02
     11.462  0.1391E+01  0.1391E+01  0.2463E+02  0.2463E+02
     11.530  0.1521E+01  0.1520E+01  0.2474E+02  0.2474E+02
     11.598  0.1694E+01  0.1694E+01  0.2485E+02  0.2485E+02
     11.666  0.1633E+01  0.1634E+01  0.2496E+02  0.2496E+02
     11.734  0.1558E+01  0.1557E+01  0.2507E+02  0.2507E+02
     11.803  0.1658E+01  0.1657E+01  0.2518E+02  0.2518E+02
     11.871  0.1722E+01  0.1721E+01  0.2530E+02  0.2530E+02
     11.939  0.1642E+01  0.1642E+01  0.2541E+02  0.2541E+02
     12.007  0.1517E+01  0.1516E+01  0.2552E+02  0.2552E+02
     12.075  0.1417E+01  0.1417E+01  0.2561E+02  0.2561E+02
     12.143  0.1478E+01  0.1480E+01  0.2571E+02  0.2571E+02
     12.211  0.1752E+01  0.1753E+01  0.2583E+02  0.2583E+02
     12.279  0.1920E+01  0.1918E+01  0.2596E+02  0.2596E+02
     12.347  0.1954E+01  0.1953E+01  0.2610E+02  0.2610E+02
     12.415  0.1812E+01  0.1815E+01  0.2622E+02  0.2622E+02
     12.483  0.1665E+01  0.1678E+01  0.2633E+02  0.2633E+02
     12.551  0.1663E+01  0.1676E+01  0.2645E+02  0.2645E+02
     12.619  0.1683E+01  0.1647E+01  0.2656E+02  0.2656E+02
     12.687  0.1616E+01  0.1526E+01  0.2667E+02  0.2666E+02
     12.755  0.1610E+01  0.1521E+01  0.2678E+02  0.2677E+02
     12.823  0.1624E+01  0.1606E+01  0.2689E+02  0.2688E+02
     12.891  0.1568E+01  0.1651E+01  0.2700E+02  0.2699E+02
     12.960  0.1392E+01  0.1508E+01  0.2709E+02  0.2709E+02
     13.028  0.1165E+01  0.1228E+01  0.2717E+02  0.2718E+02
     13.096  0.1091E+01  0.1078E+01  0.2725E+02  0.2725E+02
     13.164  0.1124E+01  0.1003E+01  0.2732E+02  0.2732E+02
     13.232  0.1088E+01  0.8998E+00  0.2740E+02  0.2738E+02
     13.300  0.9792E+00  0.8844E+00  0.2746E+02  0.2744E+02
     13.368  0.7792E+00  0.8606E+00  0.2752E+02  0.2750E+02
     13.436  0.6097E+00  0.7501E+00  0.2756E+02  0.2755E+02
     13.504  0.5604E+00  0.6436E+00  0.2760E+02  0.2759E+02
     13.572  0.6046E+00  0.6329E+00  0.2764E+02  0.2764E+02
     13.640  0.6179E+00  0.6272E+00  0.2768E+02  0.2768E+02
     13.708  0.5240E+00  0.5171E+00  0.2772E+02  0.2771E+02
     13.776  0.4619E+00  0.4386E+00  0.2775E+02  0.2774E+02
     13.844  0.4279E+00  0.4118E+00  0.2778E+02  0.2777E+02
     13.912  0.3138E+00  0.3287E+00  0.2780E+02  0.2779E+02
     13.980  0.2783E+00  0.2850E+00  0.2782E+02  0.2781E+02
     14.048  0.2861E+00  0.2935E+00  0.2784E+02  0.2783E+02
     14.117  0.2122E+00  0.2319E+00  0.2785E+02  0.2785E+02
     14.185  0.1453E+00  0.1576E+00  0.2786E+02  0.2786E+02
     14.253  0.1523E+00  0.1511E+00  0.2787E+02  0.2787E+02
     14.321  0.1897E+00  0.1747E+00  0.2788E+02  0.2788E+02
     14.389  0.1996E+00  0.1800E+00  0.2790E+02  0.2789E+02
     14.457  0.1401E+00  0.1432E+00  0.2791E+02  0.2790E+02
     14.525  0.8069E-01  0.1012E+00  0.2791E+02  0.2791E+02
     14.593  0.5225E-01  0.6622E-01  0.2792E+02  0.2792E+02
     14.661  0.3939E-01  0.4480E-01  0.2792E+02  0.2792E+02
     14.729  0.5620E-01  0.5789E-01  0.2792E+02  0.2792E+02
     14.797  0.9603E-01  0.9726E-01  0.2793E+02  0.2793E+02
     14.865  0.1375E+00  0.1393E+00  0.2794E+02  0.2794E+02
     14.933  0.1278E+00  0.1307E+00  0.2795E+02  0.2795E+02
     15.001  0.9059E-01  0.9579E-01  0.2795E+02  0.2795E+02
     15.069  0.8411E-01  0.8514E-01  0.2796E+02  0.2796E+02
     15.137  0.6268E-01  0.5708E-01  0.2796E+02  0.2796E+02
     15.205  0.2975E-01  0.2575E-01  0.2797E+02  0.2797E+02
     15.273  0.2182E-01  0.2018E-01  0.2797E+02  0.2797E+02
     15.342  0.4495E-01  0.4377E-01  0.2797E+02  0.2797E+02
     15.410  0.8583E-01  0.8474E-01  0.2798E+02  0.2798E+02
     15.478  0.8703E-01  0.8746E-01  0.2798E+02  0.2798E+02
     15.546  0.4591E-01  0.4674E-01  0.2799E+02  0.2799E+02
     15.614  0.2111E-01  0.2089E-01  0.2799E+02  0.2799E+02
     15.682  0.2600E-01  0.2422E-01  0.2799E+02  0.2799E+02
     15.750  0.5300E-01  0.5074E-01  0.2799E+02  0.2799E+02
     15.818  0.6330E-01  0.6450E-01  0.2800E+02  0.2800E+02
     15.886  0.3577E-01  0.3821E-01  0.2800E+02  0.2800E+02
     15.954  0.1225E-01  0.1336E-01  0.2800E+02  0.2800E+02
     16.022  0.3418E-02  0.3750E-02  0.2800E+02  0.2800E+02
     16.090  0.8963E-03  0.9849E-03  0.2800E+02  0.2800E+02
     16.158  0.2311E-03  0.2541E-03  0.2800E+02  0.2800E+02
     16.226  0.0000E+00  0.0000E+00  0.2800E+02  0.2800E+02
     16.294  0.0000E+00  0.0000E+00  0.2800E+02  0.2800E+02
     16.362  0.0000E+00  0.0000E+00  0.2800E+02  0.2800E+02
     16.430  0.0000E+00  0.0000E+00  0.2800E+02  0.2800E+02
     16.499  0.0000E+00  0.0000E+00  0.2800E+02  0.2800E+02
     16.567  0.0000E+00  0.0000E+00  0.2800E+02  0.2800E+02
     16.635  0.0000E+00  0.0000E+00  0.2800E+02  0.2800E+02
     16.703  0.0000E+00  0.0000E+00  0.2800E+02  0.2800E+02
     16.70272159     -3.71479032  301      8.45801217      1.00000000
     -3.715  0.0000E+00  0.0000E+00  0.0000E+00  0.0000E+00  0.0000E+00  0.0000E+00  0.0000E+00  0.0000E+00  0.0000E+00  0.0000E+00  0.0000E+00  0.0000E+00  0.0000E+00  0.0000E+00  0.0000E+00  0.0000E+00  0.0000E+00  0.0000E+00
     -3.647  0.0000E+00  0.0000E+00  0.0000E+00  0.0000E+00  0.0000E+00  0.0000E+00  0.0000E+00  0.0000E+00  0.0000E+00  0.0000E+00  0.0000E+00  0.0000E+00  0.0000E+00  0.0000E+00  0.0000E+00  0.0000E+00  0.0000E+00  0.0000E+00
     -3.579  0.0000E+00  0.0000E+00  0.0000E+00  0.0000E+00  0.0000E+00  0.0000E+00  0.0000E+00  0.0000E+00  0.0000E+00  0.0000E+00  0.0000E+00  0.0000E+00  0.0000E+00  0.0000E+00  0.0000E+00  0.0000E+00  0.0000E+00  0.0000E+00
     -3.511  0.0000E+00  0.0000E+00  0.0000E+00  0.0000E+00  0.0000E+00  0.0000E+00  0.0000E+00  0.0000E+00  0.0000E+00  0.0000E+00  0.0000E+00  0.0000E+00  0.0000E+00  0.0000E+00  0.0000E+00  0.0000E+00  0.0000E+00  0.0000E+00
     -3.443  0.0000E+00  0.0000E+00  0.0000E+00  0.0000E+00  0.0000E+00  0.0000E+00  0.0000E+00  0.0000E+00  0.0000E+00  0.0000E+00  0.0000E+00  0.0000E+00  0.0000E+00  0.0000E+00  0.0000E+00  0.0000E+00  0.0000E+00  0.0000E+00
     -3.374  0.0000E+00  0.0000E+00  0.0000E+00  0.0000E+00  0.0000E+00  0.0000E+00  0.0000E+00  0.0000E+00  0.0000E+00  0.0000E+00  0.0000E+00  0.0000E+00  0.0000E+00  0.0000E+00  0.0000E+00  0.0000E+00  0.0000E+00  0.0000E+00
     -3.306  0.0000E+00  0.0000E+00  0.0000E+00  0.0000E+00  0.0000E+00  0.0000E+00  0.0000E+00  0.0000E+00  0.0000E+00  0.0000E+00  0.0000E+00  0.0000E+00  0.0000E+00  0.0000E+00  0.0000E+00  0.0000E+00  0.0000E+00  0.0000E+00
     -3.238  0.6450E-07  0.6424E-07  0.3041E-22  0.1475E-21  0.1111E-21  0.4490E-21  0.3041E-22  0.1475E-21  0.4609E-19  0.1866E-18  0.2700E-18  0.2693E-17  0.4908E-11  0.4656E-11  0.2700E-18  0.2693E-17  0.1385E-18  0.2826E-18
     -3.170  0.6825E-06  0.6798E-06  0.9574E-09  0.9537E-09  0.1067E-08  0.1062E-08  0.9574E-09  0.9537E-09  0.1916E-16  0.1018E-16  0.6133E-17  0.1984E-16  0.5559E-10  0.5458E-10  0.6133E-17  0.1984E-16  0.4848E-11  0.4611E-11
     -3.102  0.3430E-05  0.3416E-05  0.7853E-08  0.7822E-08  0.8251E-08  0.8218E-08  0.7853E-08  0.7822E-08  0.3430E-10  0.3385E-10  0.3521E-10  0.3387E-10  0.2893E-09  0.2850E-09  0.3521E-10  0.3387E-10  0.2770E-10  0.2668E-10
     -3.034  0.1330E-04  0.1324E-04  0.3220E-07  0.3208E-07  0.3656E-07  0.3642E-07  0.3220E-07  0.3208E-07  0.1981E-09  0.1973E-09  0.1856E-09  0.1818E-09  0.1116E-08  0.1101E-08  0.1856E-09  0.1818E-09  0.9426E-10  0.9062E-10
     -2.966  0.5178E-04  0.5157E-04  0.1325E-06  0.1319E-06  0.1509E-06  0.1503E-06  0.1325E-06  0.1319E-06  0.6729E-09  0.6692E-09  0.8170E-09  0.7989E-09  0.4499E-08  0.4441E-08  0.8170E-09  0.7989E-09  0.6136E-09  0.5962E-09
     -2.898  0.1962E-03  0.1955E-03  0.5362E-06  0.5341E-06  0.5861E-06  0.5838E-06  0.5362E-06  0.5341E-06  0.3574E-08  0.3552E-08  0.3464E-08  0.3391E-08  0.1758E-07  0.1736E-07  0.3464E-08  0.3391E-08  0.2441E-08  0.2372E-08
     -2.830  0.6752E-03  0.6728E-03  0.1944E-05  0.1937E-05  0.2132E-05  0.2124E-05  0.1944E-05  0.1937E-05  0.1270E-07  0.1262E-07  0.1272E-07  0.1245E-07  0.6080E-07  0.6018E-07  0.1272E-07  0.1245E-07  0.8748E-08  0.8506E-08
     -2.762  0.1906E-02  0.1900E-02  0.6427E-05  0.6407E-05  0.6989E-05  0.6966E-05  0.6427E-05  0.6407E-05  0.4662E-07  0.4638E-07  0.4699E-07  0.4607E-07  0.1787E-06  0.1775E-06  0.4699E-07  0.4607E-07  0.2971E-07  0.2897E-07
     -2.694  0.3883E-02  0.3876E-02  0.1657E-04  0.1653E-04  0.1812E-04  0.1807E-04  0.1657E-04  0.1653E-04  0.1446E-06  0.1440E-06  0.1433E-06  0.1409E-06  0.3981E-06  0.3971E-06  0.1433E-06  0.1409E-06  0.8474E-07  0.8307E-07
     -2.626  0.5657E-02  0.5652E-02  0.3241E-04  0.3235E-04  0.3694E-04  0.3686E-04  0.3241E-04  0.3235E-04  0.3446E-06  0.3437E-06  0.3484E-06  0.3440E-06  0.6931E-06  0.6921E-06  0.3484E-06  0.3440E-06  0.2268E-06  0.2233E-06
     -2.558  0.7183E-02  0.7176E-02  0.5741E-04  0.5730E-04  0.6561E-04  0.6549E-04  0.5741E-04  0.5730E-04  0.7296E-06  0.7266E-06  0.7585E-06  0.7496E-06  0.1169E-05  0.1164E-05  0.7585E-06  0.7496E-06  0.5716E-06  0.5635E-06
     -2.490  0.9188E-02  0.9181E-02  0.9550E-04  0.9536E-04  0.9966E-04  0.9952E-04  0.9550E-04  0.9536E-04  0.1523E-05  0.1515E-05  0.1496E-05  0.1480E-05  0.1898E-05  0.1883E-05  0.1496E-05  0.1480E-05  0.1062E-05  0.1047E-05
     -2.422  0.9810E-02  0.9809E-02  0.1214E-03  0.1214E-03  0.1248E-03  0.1247E-03  0.1214E-03  0.1214E-03  0.2459E-05  0.2447E-05  0.2378E-05  0.2358E-05  0.2423E-05  0.2400E-05  0.2378E-05  0.2358E-05  0.1384E-05  0.1366E-05
     -2.354  0.9563E-02  0.9559E-02  0.1389E-03  0.1388E-03  0.1687E-03  0.1685E-03  0.1389E-03  0.1388E-03  0.3516E-05  0.3503E-05  0.3641E-05  0.3621E-05  0.3101E-05  0.3075E-05  0.3641E-05  0.3621E-05  0.1858E-05  0.1838E-05
     -2.286  0.1133E-01  0.1132E-01  0.1939E-03  0.1937E-03  0.2463E-03  0.2461E-03  0.1939E-03  0.1937E-03  0.5598E-05  0.5583E-05  0.5611E-05  0.5596E-05  0.5127E-05  0.5099E-05  0.5611E-05  0.5596E-05  0.3373E-05  0.3346E-05
     -2.218  0.1280E-01  0.1280E-01  0.2603E-03  0.2601E-03  0.2813E-03  0.2812E-03  0.2603E-03  0.2601E-03  0.7556E-05  0.7536E-05  0.7253E-05  0.7246E-05  0.7612E-05  0.7592E-05  0.7253E-05  0.7246E-05  0.6021E-05  0.5981E-05
     -2.149  0.1288E-01  0.1288E-01  0.3072E-03  0.3071E-03  0.2908E-03  0.2907E-03  0.3072E-03  0.3071E-03  0.9708E-05  0.9675E-05  0.9843E-05  0.9833E-05  0.8831E-05  0.8823E-05  0.9843E-05  0.9833E-05  0.8029E-05  0.7987E-05
     -2.081  0.1326E-01  0.1326E-01  0.3438E-03  0.3437E-03  0.3664E-03  0.3661E-03  0.3438E-03  0.3437E-03  0.1359E-04  0.1355E-04  0.1480E-04  0.1479E-04  0.9620E-05  0.9617E-05  0.1480E-04  0.1479E-04  0.8444E-05  0.8418E-05
     -2.013  0.1409E-01  0.1408E-01  0.3921E-03  0.3920E-03  0.4553E-03  0.4551E-03  0.3921E-03  0.3920E-03  0.1988E-04  0.1983E-04  0.1871E-04  0.1871E-04  0.1286E-04  0.1287E-04  0.1871E-04  0.1871E-04  0.9000E-05  0.8986E-05
     -1.945  0.1352E-01  0.1352E-01  0.3999E-03  0.3999E-03  0.5049E-03  0.5047E-03  0.3999E-03  0.3999E-03  0.2331E-04  0.2328E-04  0.1961E-04  0.1962E-04  0.1710E-04  0.1713E-04  0.1961E-04  0.1962E-04  0.9819E-05  0.9806E-05
     -1.877  0.1318E-01  0.1317E-01  0.4247E-03  0.4244E-03  0.5741E-03  0.5738E-03  0.4247E-03  0.4244E-03  0.2366E-04  0.2363E-04  0.2440E-04  0.2440E-04  0.2045E-04  0.2048E-04  0.2440E-04  0.2440E-04  0.1432E-04  0.1428E-04
     -1.809  0.1555E-01  0.1554E-01  0.5840E-03  0.5835E-03  0.6621E-03  0.6617E-03  0.5840E-03  0.5835E-03  0.3001E-04  0.2998E-04  0.3539E-04  0.3540E-04  0.2599E-04  0.2601E-04  0.3539E-04  0.3540E-04  0.2548E-04  0.2543E-04
     -1.741  0.1742E-01  0.1741E-01  0.7173E-03  0.7171E-03  0.7422E-03  0.7420E-03  0.7173E-03  0.7171E-03  0.3993E-04  0.3989E-04  0.4436E-04  0.4443E-04  0.3266E-04  0.3272E-04  0.4436E-04  0.4443E-04  0.3338E-04  0.3336E-04
     -1.673  0.1658E-01  0.1658E-01  0.7386E-03  0.7386E-03  0.7289E-03  0.7290E-03  0.7386E-03  0.7386E-03  0.5151E-04  0.5145E-04  0.4725E-04  0.4732E-04  0.3551E-04  0.3559E-04  0.4725E-04  0.4732E-04  0.3311E-04  0.3311E-04
     -1.605  0.1596E-01  0.1596E-01  0.7826E-03  0.7824E-03  0.7238E-03  0.7235E-03  0.7826E-03  0.7824E-03  0.6621E-04  0.6614E-04  0.5332E-04  0.5331E-04  0.3855E-04  0.3858E-04  0.5332E-04  0.5331E-04  0.3381E-04  0.3381E-04
     -1.537  0.1586E-01  0.1586E-01  0.7754E-03  0.7756E-03  0.9053E-03  0.9045E-03  0.7754E-03  0.7756E-03  0.7261E-04  0.7261E-04  0.6447E-04  0.6444E-04  0.4521E-04  0.4520E-04  0.6447E-04  0.6444E-04  0.3159E-04  0.3160E-04
     -1.469  0.1502E-01  0.1502E-01  0.7009E-03  0.7009E-03  0.1141E-02  0.1140E-02  0.7009E-03  0.7009E-03  0.6495E-04  0.6498E-04  0.7751E-04  0.7749E-04  0.5106E-04  0.5108E-04  0.7751E-04  0.7749E-04  0.3064E-04  0.3062E-04
     -1.401  0.1580E-01  0.1580E-01  0.8052E-03  0.8047E-03  0.1258E-02  0.1258E-02  0.8052E-03  0.8047E-03  0.7425E-04  0.7422E-04  0.9590E-04  0.9590E-04  0.5821E-04  0.5826E-04  0.9590E-04  0.9590E-04  0.4318E-04  0.4313E-04
     -1.333  0.1758E-01  0.1758E-01  0.1045E-02  0.1044E-02  0.1269E-02  0.1269E-02  0.1045E-02  0.1044E-02  0.1078E-03  0.1078E-03  0.1080E-03  0.1081E-03  0.7638E-04  0.7648E-04  0.1080E-03  0.1081E-03  0.6445E-04  0.6437E-04
     -1.265  0.1920E-01  0.1920E-01  0.1267E-02  0.1267E-02  0.1298E-02  0.1298E-02  0.1267E-02  0.1267E-02  0.1402E-03  0.1402E-03  0.1194E-03  0.1194E-03  0.9649E-04  0.9672E-04  0.1194E-03  0.1194E-03  0.8628E-04  0.8620E-04
     -1.197  0.1812E-01  0.1813E-01  0.1299E-02  0.1299E-02  0.1180E-02  0.1180E-02  0.1299E-02  0.1299E-02  0.1462E-03  0.1463E-03  0.1267E-03  0.1268E-03  0.9238E-04  0.9258E-04  0.1267E-03  0.1268E-03  0.9622E-04  0.9619E-04
     -1.129  0.1706E-01  0.1705E-01  0.1312E-02  0.1312E-02  0.1172E-02  0.1171E-02  0.1312E-02  0.1312E-02  0.1526E-03  0.1527E-03  0.1408E-03  0.1409E-03  0.9232E-04  0.9237E-04  0.1408E-03  0.1409E-03  0.1037E-03  0.1037E-03
     -1.061  0.1757E-01  0.1756E-01  0.1342E-02  0.1342E-02  0.1557E-02  0.1555E-02  0.1342E-02  0.1342E-02  0.1549E-03  0.1550E-03  0.1759E-03  0.1760E-03  0.1113E-03  0.1113E-03  0.1759E-03  0.1760E-03  0.1110E-03  0.1111E-03
     -0.992  0.1744E-01  0.1744E-01  0.1274E-02  0.1274E-02  0.2021E-02  0.2020E-02  0.1274E-02  0.1274E-02  0.1681E-03  0.1682E-03  0.2128E-03  0.2131E-03  0.1264E-03  0.1265E-03  0.2128E-03  0.2131E-03  0.9650E-04  0.9661E-04
     -0.924  0.1766E-01  0.1766E-01  0.1371E-02  0.1370E-02  0.2151E-02  0.2151E-02  0.1371E-02  0.1370E-02  0.2349E-03  0.2348E-03  0.2404E-03  0.2405E-03  0.1366E-03  0.1366E-03  0.2404E-03  0.2405E-03  0.9043E-04  0.9045E-04
     -0.856  0.1832E-01  0.1832E-01  0.1559E-02  0.1559E-02  0.2154E-02  0.2154E-02  0.1559E-02  0.1559E-02  0.3013E-03  0.3013E-03  0.2695E-03  0.2695E-03  0.1492E-03  0.1492E-03  0.2695E-03  0.2695E-03  0.1025E-03  0.1025E-03
     -0.788  0.1715E-01  0.1715E-01  0.1533E-02  0.1533E-02  0.2158E-02  0.2159E-02  0.1533E-02  0.1533E-02  0.3135E-03  0.3136E-03  0.2641E-03  0.2643E-03  0.1706E-03  0.1707E-03  0.2641E-03  0.2643E-03  0.1107E-03  0.1107E-03
     -0.720  0.1532E-01  0.1532E-01  0.1526E-02  0.1525E-02  0.1939E-02  0.1939E-02  0.1526E-02  0.1525E-02  0.2955E-03  0.2957E-03  0.2451E-03  0.2451E-03  0.1795E-03  0.1797E-03  0.2451E-03  0.2451E-03  0.1445E-03  0.1443E-03
     -0.652  0.1625E-01  0.1625E-01  0.1812E-02  0.1811E-02  0.2083E-02  0.2081E-02  0.1812E-02  0.1811E-02  0.2927E-03  0.2928E-03  0.3114E-03  0.3111E-03  0.1895E-03  0.1897E-03  0.3114E-03  0.3111E-03  0.2176E-03  0.2172E-03
     -0.584  0.1855E-01  0.1854E-01  0.2112E-02  0.2111E-02  0.2872E-02  0.2870E-02  0.2112E-02  0.2111E-02  0.3243E-03  0.3244E-03  0.4493E-03  0.4490E-03  0.2091E-03  0.2092E-03  0.4493E-03  0.4490E-03  0.2625E-03  0.2623E-03
     -0.516  0.1927E-01  0.1926E-01  0.2263E-02  0.2262E-02  0.3382E-02  0.3382E-02  0.2263E-02  0.2262E-02  0.3892E-03  0.3892E-03  0.5328E-03  0.5328E-03  0.2290E-03  0.2291E-03  0.5328E-03  0.5328E-03  0.2756E-03  0.2756E-03
     -0.448  0.1870E-01  0.1870E-01  0.2391E-02  0.2391E-02  0.3174E-02  0.3175E-02  0.2391E-02  0.2391E-02  0.5263E-03  0.5261E-03  0.5196E-03  0.5198E-03  0.2555E-03  0.2556E-03  0.5196E-03  0.5198E-03  0.2792E-03  0.2794E-03
     -0.380  0.1677E-01  0.1677E-01  0.2308E-02  0.2309E-02  0.2878E-02  0.2878E-02  0.2308E-02  0.2309E-02  0.6332E-03  0.6333E-03  0.4965E-03  0.4967E-03  0.2436E-03  0.2439E-03  0.4965E-03  0.4967E-03  0.2408E-03  0.2411E-03
     -0.312  0.1440E-01  0.1440E-01  0.2117E-02  0.2118E-02  0.2641E-02  0.2641E-02  0.2117E-02  0.2118E-02  0.6082E-03  0.6085E-03  0.4928E-03  0.4929E-03  0.2188E-03  0.2189E-03  0.4928E-03  0.4929E-03  0.2206E-03  0.2207E-03