   8   8   1   0
  0.1431271E+02  0.3845716E-09  0.3845716E-09  0.7742077E-09  0.5000000E-15
  1.000000000000000E-004
  CAR 
 unknown system                          
     17.20719980     -3.60876404  301      8.80825244      1.00000000
     -3.609  0.0000E+00  0.0000E+00  0.0000E+00  0.0000E+00
     -3.539  0.0000E+00  0.0000E+00  0.0000E+00  0.0000E+00
     -3.470  0.0000E+00  0.0000E+00  0.0000E+00  0.0000E+00
     -3.401  0.0000E+00  0.0000E+00  0.0000E+00  0.0000E+00
     -3.331  0.0000E+00  0.0000E+00  0.0000E+00  0.0000E+00
     -3.262  0.0000E+00  0.0000E+00  0.0000E+00  0.0000E+00
     -3.192  0.0000E+00  0.0000E+00  0.0000E+00  0.0000E+00
     -3.123  0.1219E-05  0.1213E-05  0.8459E-07  0.8419E-07
     -3.054  0.1313E-04  0.1307E-04  0.9959E-06  0.9911E-06
     -2.984  0.6756E-04  0.6724E-04  0.5684E-05  0.5657E-05
     -2.915  0.2693E-03  0.2680E-03  0.2437E-04  0.2425E-04
     -2.846  0.1069E-02  0.1064E-02  0.9856E-04  0.9810E-04
     -2.776  0.4204E-02  0.4184E-02  0.3902E-03  0.3884E-03
     -2.707  0.1485E-01  0.1479E-01  0.1421E-02  0.1415E-02
     -2.637  0.4293E-01  0.4279E-01  0.4399E-02  0.4384E-02
     -2.568  0.8894E-01  0.8877E-01  0.1057E-01  0.1054E-01
     -2.499  0.1304E+00  0.1303E+00  0.1962E-01  0.1959E-01
     -2.429  0.1666E+00  0.1665E+00  0.3118E-01  0.3114E-01
     -2.360  0.2162E+00  0.2161E+00  0.4619E-01  0.4613E-01
     -2.290  0.2325E+00  0.2326E+00  0.6232E-01  0.6227E-01
     -2.221  0.2274E+00  0.2273E+00  0.7810E-01  0.7804E-01
     -2.152  0.2741E+00  0.2739E+00  0.9713E-01  0.9706E-01
     -2.082  0.3136E+00  0.3135E+00  0.1189E+00  0.1188E+00
     -2.013  0.3176E+00  0.3176E+00  0.1409E+00  0.1409E+00
     -1.943  0.3307E+00  0.3306E+00  0.1639E+00  0.1638E+00
     -1.874  0.3567E+00  0.3567E+00  0.1887E+00  0.1886E+00
     -1.805  0.3459E+00  0.3460E+00  0.2127E+00  0.2126E+00
     -1.735  0.3396E+00  0.3395E+00  0.2363E+00  0.2362E+00
     -1.666  0.4075E+00  0.4072E+00  0.2646E+00  0.2644E+00
     -1.597  0.4636E+00  0.4636E+00  0.2967E+00  0.2966E+00
     -1.527  0.4449E+00  0.4450E+00  0.3276E+00  0.3275E+00
     -1.458  0.4329E+00  0.4328E+00  0.3577E+00  0.3576E+00
     -1.388  0.4385E+00  0.4385E+00  0.3881E+00  0.3880E+00
     -1.319  0.4224E+00  0.4224E+00  0.4174E+00  0.4173E+00
     -1.250  0.4513E+00  0.4511E+00  0.4488E+00  0.4487E+00
     -1.180  0.5081E+00  0.5079E+00  0.4841E+00  0.4839E+00
     -1.111  0.5638E+00  0.5637E+00  0.5232E+00  0.5231E+00
     -1.041  0.5374E+00  0.5376E+00  0.5605E+00  0.5604E+00
     -0.972  0.5119E+00  0.5119E+00  0.5961E+00  0.5960E+00
     -0.903  0.5429E+00  0.5428E+00  0.6338E+00  0.6336E+00
     -0.833  0.5567E+00  0.5567E+00  0.6724E+00  0.6723E+00
     -0.764  0.5754E+00  0.5753E+00  0.7124E+00  0.7122E+00
     -0.695  0.6067E+00  0.6066E+00  0.7545E+00  0.7543E+00
     -0.625  0.5820E+00  0.5822E+00  0.7949E+00  0.7948E+00
     -0.556  0.5297E+00  0.5298E+00  0.8317E+00  0.8315E+00
     -0.486  0.5755E+00  0.5751E+00  0.8716E+00  0.8715E+00
     -0.417  0.6896E+00  0.6893E+00  0.9195E+00  0.9193E+00
     -0.348  0.7482E+00  0.7482E+00  0.9715E+00  0.9713E+00
     -0.278  0.7422E+00  0.7423E+00  0.1023E+01  0.1023E+01
     -0.209  0.6831E+00  0.6834E+00  0.1070E+01  0.1070E+01
     -0.139  0.6072E+00  0.6074E+00  0.1113E+01  0.1112E+01
     -0.070  0.5747E+00  0.5746E+00  0.1152E+01  0.1152E+01
     -0.001  0.6262E+00  0.6259E+00  0.1196E+01  0.1196E+01
      0.069  0.7094E+00  0.7091E+00  0.1245E+01  0.1245E+01
      0.138  0.7377E+00  0.7377E+00  0.1296E+01  0.1296E+01
      0.207  0.7333E+00  0.7333E+00  0.1347E+01  0.1347E+01
      0.277  0.7328E+00  0.7329E+00  0.1398E+01  0.1398E+01
      0.346  0.7230E+00  0.7229E+00  0.1448E+01  0.1448E+01
      0.416  0.7824E+00  0.7822E+00  0.1503E+01  0.1503E+01
      0.485  0.8107E+00  0.8107E+00  0.1559E+01  0.1559E+01
      0.554  0.7703E+00  0.7705E+00  0.1613E+01  0.1612E+01
      0.624  0.7003E+00  0.7003E+00  0.1661E+01  0.1661E+01
      0.693  0.7319E+00  0.7316E+00  0.1712E+01  0.1712E+01
      0.763  0.7585E+00  0.7586E+00  0.1765E+01  0.1764E+01
      0.832  0.7495E+00  0.7495E+00  0.1817E+01  0.1816E+01
      0.901  0.8039E+00  0.8038E+00  0.1873E+01  0.1872E+01
      0.971  0.8542E+00  0.8541E+00  0.1932E+01  0.1932E+01
      1.040  0.8804E+00  0.8803E+00  0.1993E+01  0.1993E+01
      1.110  0.8947E+00  0.8946E+00  0.2055E+01  0.2055E+01
      1.179  0.9040E+00  0.9040E+00  0.2118E+01  0.2118E+01
      1.248  0.8530E+00  0.8532E+00  0.2177E+01  0.2177E+01
      1.318  0.8121E+00  0.8120E+00  0.2233E+01  0.2233E+01
      1.387  0.8843E+00  0.8838E+00  0.2295E+01  0.2295E+01
      1.456  0.9955E+00  0.9951E+00  0.2364E+01  0.2364E+01
      1.526  0.1052E+01  0.1052E+01  0.2437E+01  0.2437E+01
      1.595  0.1038E+01  0.1038E+01  0.2509E+01  0.2509E+01
      1.665  0.8918E+00  0.8924E+00  0.2571E+01  0.2571E+01
      1.734  0.7906E+00  0.7906E+00  0.2626E+01  0.2626E+01
      1.803  0.8347E+00  0.8342E+00  0.2684E+01  0.2684E+01
      1.873  0.9130E+00  0.9127E+00  0.2747E+01  0.2747E+01
      1.942  0.9393E+00  0.9391E+00  0.2813E+01  0.2812E+01
      2.012  0.9354E+00  0.9354E+00  0.2877E+01  0.2877E+01
      2.081  0.9252E+00  0.9251E+00  0.2942E+01  0.2941E+01
      2.150  0.9713E+00  0.9709E+00  0.3009E+01  0.3009E+01
      2.220  0.1077E+01  0.1076E+01  0.3084E+01  0.3084E+01
      2.289  0.1119E+01  0.1119E+01  0.3162E+01  0.3161E+01
      2.358  0.1006E+01  0.1007E+01  0.3231E+01  0.3231E+01
      2.428  0.8980E+00  0.8981E+00  0.3294E+01  0.3294E+01
      2.497  0.9875E+00  0.9862E+00  0.3362E+01  0.3362E+01
      2.567  0.1251E+01  0.1249E+01  0.3449E+01  0.3449E+01
      2.636  0.1353E+01  0.1353E+01  0.3543E+01  0.3543E+01
      2.705  0.1240E+01  0.1240E+01  0.3629E+01  0.3629E+01
      2.775  0.1102E+01  0.1102E+01  0.3706E+01  0.3705E+01
      2.844  0.1026E+01  0.1025E+01  0.3777E+01  0.3776E+01
      2.914  0.1119E+01  0.1118E+01  0.3855E+01  0.3854E+01
      2.983  0.1169E+01  0.1169E+01  0.3936E+01  0.3935E+01
      3.052  0.1145E+01  0.1145E+01  0.4015E+01  0.4015E+01
      3.122  0.1276E+01  0.1274E+01  0.4104E+01  0.4103E+01
      3.191  0.1516E+01  0.1514E+01  0.4209E+01  0.4208E+01
      3.261  0.1611E+01  0.1610E+01  0.4321E+01  0.4320E+01
      3.330  0.1578E+01  0.1577E+01  0.4430E+01  0.4430E+01
      3.399  0.1577E+01  0.1577E+01  0.4540E+01  0.4539E+01
      3.469  0.1498E+01  0.1498E+01  0.4644E+01  0.4643E+01
      3.538  0.1389E+01  0.1389E+01  0.4740E+01  0.4739E+01
      3.607  0.1299E+01  0.1299E+01  0.4831E+01  0.4830E+01
      3.677  0.1249E+01  0.1248E+01  0.4917E+01  0.4916E+01
      3.746  0.1440E+01  0.1436E+01  0.5017E+01  0.5016E+01
      3.816  0.1869E+01  0.1864E+01  0.5147E+01  0.5146E+01
      3.885  0.2244E+01  0.2241E+01  0.5303E+01  0.5301E+01
      3.954  0.2280E+01  0.2280E+01  0.5461E+01  0.5459E+01
      4.024  0.2096E+01  0.2097E+01  0.5607E+01  0.5605E+01
      4.093  0.1888E+01  0.1889E+01  0.5738E+01  0.5736E+01
      4.163  0.1901E+01  0.1897E+01  0.5870E+01  0.5868E+01
      4.232  0.2283E+01  0.2277E+01  0.6028E+01  0.6026E+01
      4.301  0.2625E+01  0.2620E+01  0.6210E+01  0.6208E+01
      4.371  0.2945E+01  0.2939E+01  0.6415E+01  0.6412E+01
      4.440  0.3193E+01  0.3188E+01  0.6636E+01  0.6633E+01
      4.509  0.3426E+01  0.3416E+01  0.6874E+01  0.6870E+01
      4.579  0.3948E+01  0.3931E+01  0.7148E+01  0.7143E+01
      4.648  0.4891E+01  0.4861E+01  0.7488E+01  0.7480E+01
      4.718  0.6575E+01  0.6527E+01  0.7944E+01  0.7933E+01
      4.787  0.8641E+01  0.8590E+01  0.8544E+01  0.8530E+01
      4.856  0.1072E+02  0.1067E+02  0.9288E+01  0.9270E+01
      4.926  0.1249E+02  0.1246E+02  0.1015E+02  0.1013E+02
      4.995  0.1256E+02  0.1257E+02  0.1103E+02  0.1101E+02
      5.065  0.1049E+02  0.1055E+02  0.1175E+02  0.1174E+02
      5.134  0.7910E+01  0.7969E+01  0.1230E+02  0.1229E+02
      5.203  0.6031E+01  0.6075E+01  0.1272E+02  0.1271E+02
      5.273  0.5453E+01  0.5467E+01  0.1310E+02  0.1309E+02
      5.342  0.6141E+01  0.6137E+01  0.1353E+02  0.1352E+02
      5.411  0.6356E+01  0.6369E+01  0.1397E+02  0.1396E+02
      5.481  0.5196E+01  0.5220E+01  0.1433E+02  0.1433E+02
      5.550  0.3972E+01  0.3987E+01  0.1461E+02  0.1460E+02
      5.620  0.3487E+01  0.3491E+01  0.1485E+02  0.1485E+02
      5.689  0.3400E+01  0.3402E+01  0.1509E+02  0.1508E+02
      5.758  0.3166E+01  0.3172E+01  0.1531E+02  0.1530E+02
      5.828  0.2657E+01  0.2666E+01  0.1549E+02  0.1549E+02
      5.897  0.2194E+01  0.2199E+01  0.1564E+02  0.1564E+02
      5.967  0.1929E+01  0.1934E+01  0.1578E+02  0.1578E+02
      6.036  0.1766E+01  0.1768E+01  0.1590E+02  0.1590E+02
      6.105  0.1715E+01  0.1716E+01  0.1602E+02  0.1602E+02
      6.175  0.1723E+01  0.1724E+01  0.1614E+02  0.1614E+02
      6.244  0.1611E+01  0.1614E+01  0.1625E+02  0.1625E+02
      6.314  0.1379E+01  0.1382E+01  0.1635E+02  0.1635E+02
      6.383  0.1202E+01  0.1203E+01  0.1643E+02  0.1643E+02
      6.452  0.1129E+01  0.1129E+01  0.1651E+02  0.1651E+02
      6.522  0.1085E+01  0.1086E+01  0.1658E+02  0.1658E+02
      6.591  0.1023E+01  0.1024E+01  0.1665E+02  0.1665E+02
      6.660  0.1014E+01  0.1014E+01  0.1673E+02  0.1672E+02
      6.730  0.1108E+01  0.1106E+01  0.1680E+02  0.1680E+02
      6.799  0.1374E+01  0.1370E+01  0.1690E+02  0.1690E+02
      6.869  0.1649E+01  0.1646E+01  0.1701E+02  0.1701E+02
      6.938  0.1655E+01  0.1655E+01  0.1713E+02  0.1713E+02
      7.007  0.1704E+01  0.1702E+01  0.1725E+02  0.1724E+02
      7.077  0.1867E+01  0.1867E+01  0.1737E+02  0.1737E+02
      7.146  0.1857E+01  0.1859E+01  0.1750E+02  0.1750E+02
      7.216  0.1727E+01  0.1729E+01  0.1762E+02  0.1762E+02
      7.285  0.1565E+01  0.1568E+01  0.1773E+02  0.1773E+02
      7.354  0.1436E+01  0.1438E+01  0.1783E+02  0.1783E+02
      7.424  0.1454E+01  0.1453E+01  0.1793E+02  0.1793E+02
      7.493  0.1730E+01  0.1728E+01  0.1805E+02  0.1805E+02
      7.562  0.1947E+01  0.1947E+01  0.1819E+02  0.1819E+02
      7.632  0.1789E+01  0.1792E+01  0.1831E+02  0.1831E+02
      7.701  0.1558E+01  0.1560E+01  0.1842E+02  0.1842E+02
      7.771  0.1444E+01  0.1444E+01  0.1852E+02  0.1852E+02
      7.840  0.1379E+01  0.1380E+01  0.1862E+02  0.1862E+02
      7.909  0.1352E+01  0.1352E+01  0.1871E+02  0.1871E+02
      7.979  0.1438E+01  0.1437E+01  0.1881E+02  0.1881E+02
      8.048  0.1682E+01  0.1681E+01  0.1893E+02  0.1893E+02
      8.118  0.1721E+01  0.1722E+01  0.1905E+02  0.1905E+02
      8.187  0.1459E+01  0.1461E+01  0.1915E+02  0.1915E+02
      8.256  0.1256E+01  0.1256E+01  0.1924E+02  0.1923E+02
      8.326  0.1164E+01  0.1165E+01  0.1932E+02  0.1932E+02
      8.395  0.1096E+01  0.1096E+01  0.1939E+02  0.1939E+02
      8.464  0.1255E+01  0.1253E+01  0.1948E+02  0.1948E+02
      8.534  0.1476E+01  0.1476E+01  0.1958E+02  0.1958E+02
      8.603  0.1513E+01  0.1513E+01  0.1969E+02  0.1969E+02
      8.673  0.1470E+01  0.1470E+01  0.1979E+02  0.1979E+02
      8.742  0.1506E+01  0.1506E+01  0.1989E+02  0.1989E+02
      8.811  0.1614E+01  0.1614E+01  0.2001E+02  0.2000E+02
      8.881  0.1578E+01  0.1579E+01  0.2012E+02  0.2011E+02
      8.950  0.1323E+01  0.1325E+01  0.2021E+02  0.2021E+02
      9.020  0.1106E+01  0.1107E+01  0.2028E+02  0.2028E+02
      9.089  0.1006E+01  0.1006E+01  0.2035E+02  0.2035E+02
      9.158  0.1132E+01  0.1131E+01  0.2043E+02  0.2043E+02
      9.228  0.1401E+01  0.1400E+01  0.2053E+02  0.2053E+02
      9.297  0.1578E+01  0.1577E+01  0.2064E+02  0.2064E+02
      9.367  0.1569E+01  0.1569E+01  0.2075E+02  0.2075E+02
      9.436  0.1462E+01  0.1462E+01  0.2085E+02  0.2085E+02
      9.505  0.1602E+01  0.1600E+01  0.2096E+02  0.2096E+02
      9.575  0.1764E+01  0.1764E+01  0.2108E+02  0.2108E+02
      9.644  0.1643E+01  0.1645E+01  0.2120E+02  0.2120E+02
      9.713  0.1411E+01  0.1412E+01  0.2130E+02  0.2129E+02
      9.783  0.1277E+01  0.1277E+01  0.2138E+02  0.2138E+02
      9.852  0.1267E+01  0.1266E+01  0.2147E+02  0.2147E+02
      9.922  0.1332E+01  0.1331E+01  0.2156E+02  0.2156E+02
      9.991  0.1458E+01  0.1458E+01  0.2167E+02  0.2167E+02
     10.060  0.1681E+01  0.1680E+01  0.2178E+02  0.2178E+02
     10.130  0.1842E+01  0.1842E+01  0.2191E+02  0.2191E+02
     10.199  0.1709E+01  0.1710E+01  0.2203E+02  0.2203E+02
     10.269  0.1473E+01  0.1474E+01  0.2213E+02  0.2213E+02
     10.338  0.1312E+01  0.1313E+01  0.2222E+02  0.2222E+02
     10.407  0.1278E+01  0.1278E+01  0.2231E+02  0.2231E+02
     10.477  0.1395E+01  0.1394E+01  0.2241E+02  0.2241E+02
     10.546  0.1669E+01  0.1668E+01  0.2252E+02  0.2252E+02
     10.615  0.1884E+01  0.1884E+01  0.2265E+02  0.2265E+02
     10.685  0.1899E+01  0.1900E+01  0.2279E+02  0.2279E+02
     10.754  0.1738E+01  0.1739E+01  0.2291E+02  0.2291E+02
     10.824  0.1633E+01  0.1633E+01  0.2302E+02  0.2302E+02
     10.893  0.1516E+01  0.1517E+01  0.2313E+02  0.2313E+02
     10.962  0.1268E+01  0.1269E+01  0.2321E+02  0.2321E+02
     11.032  0.1225E+01  0.1224E+01  0.2330E+02  0.2330E+02
     11.101  0.1421E+01  0.1420E+01  0.2340E+02  0.2340E+02
     11.171  0.1605E+01  0.1605E+01  0.2351E+02  0.2351E+02
     11.240  0.1722E+01  0.1721E+01  0.2363E+02  0.2363E+02
     11.309  0.1735E+01  0.1735E+01  0.2375E+02  0.2375E+02
     11.379  0.1600E+01  0.1601E+01  0.2386E+02  0.2386E+02
     11.448  0.1520E+01  0.1520E+01  0.2397E+02  0.2397E+02
     11.518  0.1623E+01  0.1622E+01  0.2408E+02  0.2408E+02
     11.587  0.1696E+01  0.1696E+01  0.2420E+02  0.2420E+02
     11.656  0.1654E+01  0.1655E+01  0.2431E+02  0.2431E+02
     11.726  0.1581E+01  0.1581E+01  0.2442E+02  0.2442E+02
     11.795  0.1465E+01  0.1466E+01  0.2452E+02  0.2452E+02
     11.864  0.1379E+01  0.1379E+01  0.2462E+02  0.2462E+02
     11.934  0.1444E+01  0.1443E+01  0.2472E+02  0.2472E+02
     12.003  0.1648E+01  0.1647E+01  0.2483E+02  0.2483E+02
     12.073  0.1653E+01  0.1653E+01  0.2495E+02  0.2495E+02
     12.142  0.1543E+01  0.1542E+01  0.2505E+02  0.2505E+02
     12.211  0.1554E+01  0.1549E+01  0.2516E+02  0.2516E+02
     12.281  0.1608E+01  0.1605E+01  0.2527E+02  0.2527E+02
     12.350  0.1612E+01  0.1619E+01  0.2539E+02  0.2539E+02
     12.420  0.1570E+01  0.1578E+01  0.2550E+02  0.2550E+02
     12.489  0.1485E+01  0.1490E+01  0.2560E+02  0.2560E+02
     12.558  0.1506E+01  0.1497E+01  0.2570E+02  0.2570E+02
     12.628  0.1680E+01  0.1658E+01  0.2582E+02  0.2582E+02
     12.697  0.1850E+01  0.1824E+01  0.2595E+02  0.2594E+02
     12.766  0.1887E+01  0.1890E+01  0.2608E+02  0.2608E+02
     12.836  0.1710E+01  0.1736E+01  0.2620E+02  0.2620E+02
     12.905  0.1538E+01  0.1550E+01  0.2630E+02  0.2630E+02
     12.975  0.1578E+01  0.1581E+01  0.2641E+02  0.2641E+02
     13.044  0.1678E+01  0.1674E+01  0.2653E+02  0.2653E+02
     13.113  0.1610E+01  0.1595E+01  0.2664E+02  0.2664E+02
     13.183  0.1564E+01  0.1546E+01  0.2675E+02  0.2675E+02
     13.252  0.1593E+01  0.1592E+01  0.2686E+02  0.2686E+02
     13.322  0.1604E+01  0.1643E+01  0.2697E+02  0.2697E+02
     13.391  0.1523E+01  0.1500E+01  0.2708E+02  0.2708E+02
     13.460  0.1295E+01  0.1213E+01  0.2717E+02  0.2716E+02
     13.530  0.1089E+01  0.1079E+01  0.2724E+02  0.2724E+02
     13.599  0.1058E+01  0.1116E+01  0.2732E+02  0.2731E+02
     13.668  0.1000E+01  0.1051E+01  0.2739E+02  0.2739E+02
     13.738  0.9062E+00  0.9377E+00  0.2745E+02  0.2745E+02
     13.807  0.8246E+00  0.7966E+00  0.2751E+02  0.2751E+02
     13.877  0.6781E+00  0.6035E+00  0.2755E+02  0.2755E+02
     13.946  0.5765E+00  0.5488E+00  0.2759E+02  0.2759E+02
     14.015  0.5422E+00  0.5884E+00  0.2763E+02  0.2763E+02
     14.085  0.5510E+00  0.5980E+00  0.2767E+02  0.2767E+02
     14.154  0.4858E+00  0.4852E+00  0.2770E+02  0.2770E+02
     14.224  0.4547E+00  0.4487E+00  0.2774E+02  0.2773E+02
     14.293  0.4485E+00  0.4642E+00  0.2777E+02  0.2777E+02
     14.362  0.3693E+00  0.3692E+00  0.2779E+02  0.2779E+02
     14.432  0.3204E+00  0.3046E+00  0.2782E+02  0.2781E+02
     14.501  0.2816E+00  0.2697E+00  0.2783E+02  0.2783E+02
     14.571  0.2186E+00  0.2086E+00  0.2785E+02  0.2785E+02
     14.640  0.1655E+00  0.1787E+00  0.2786E+02  0.2786E+02
     14.709  0.1596E+00  0.2009E+00  0.2787E+02  0.2787E+02
     14.779  0.1899E+00  0.2134E+00  0.2789E+02  0.2789E+02
     14.848  0.1922E+00  0.1811E+00  0.2790E+02  0.2790E+02
     14.917  0.1286E+00  0.1153E+00  0.2791E+02  0.2791E+02
     14.987  0.7552E-01  0.7185E-01  0.2791E+02  0.2791E+02
     15.056  0.4765E-01  0.5081E-01  0.2792E+02  0.2792E+02
     15.126  0.3468E-01  0.4397E-01  0.2792E+02  0.2792E+02
     15.195  0.5495E-01  0.6128E-01  0.2792E+02  0.2792E+02
     15.264  0.1054E+00  0.9712E-01  0.2793E+02  0.2793E+02
     15.334  0.1511E+00  0.1422E+00  0.2794E+02  0.2794E+02
     15.403  0.1318E+00  0.1270E+00  0.2795E+02  0.2795E+02
     15.473  0.9995E-01  0.9675E-01  0.2796E+02  0.2796E+02
     15.542  0.7906E-01  0.7979E-01  0.2796E+02  0.2796E+02
     15.611  0.3933E-01  0.4170E-01  0.2797E+02  0.2797E+02
     15.681  0.1591E-01  0.1697E-01  0.2797E+02  0.2797E+02
     15.750  0.1687E-01  0.1715E-01  0.2797E+02  0.2797E+02
     15.819  0.4418E-01  0.4412E-01  0.2797E+02  0.2797E+02
     15.889  0.8749E-01  0.8746E-01  0.2798E+02  0.2798E+02
     15.958  0.8579E-01  0.8574E-01  0.2798E+02  0.2798E+02
     16.028  0.4244E-01  0.4215E-01  0.2799E+02  0.2799E+02
     16.097  0.1982E-01  0.1813E-01  0.2799E+02  0.2799E+02
     16.166  0.2736E-01  0.2245E-01  0.2799E+02  0.2799E+02
     16.236  0.5510E-01  0.4963E-01  0.2799E+02  0.2799E+02
     16.305  0.6077E-01  0.6426E-01  0.2800E+02  0.2800E+02
     16.375  0.3196E-01  0.3785E-01  0.2800E+02  0.2800E+02
     16.444  0.1039E-01  0.1289E-01  0.2800E+02  0.2800E+02
     16.513  0.2796E-02  0.3516E-02  0.2800E+02  0.2800E+02
     16.583  0.7118E-03  0.8982E-03  0.2800E+02  0.2800E+02
     16.652  0.1124E-03  0.2255E-03  0.2800E+02  0.2800E+02
     16.721  0.0000E+00  0.0000E+00  0.2800E+02  0.2800E+02
     16.791  0.0000E+00  0.0000E+00  0.2800E+02  0.2800E+02
     16.860  0.0000E+00  0.0000E+00  0.2800E+02  0.2800E+02
     16.930  0.0000E+00  0.0000E+00  0.2800E+02  0.2800E+02
     16.999  0.0000E+00  0.0000E+00  0.2800E+02  0.2800E+02
     17.068  0.0000E+00  0.0000E+00  0.2800E+02  0.2800E+02
     17.138  0.0000E+00  0.0000E+00  0.2800E+02  0.2800E+02
     17.207  0.0000E+00  0.0000E+00  0.2800E+02  0.2800E+02
     17.20719980     -3.60876404  301      8.80825244      1.00000000
     -3.609  0.0000E+00  0.0000E+00  0.0000E+00  0.0000E+00  0.0000E+00  0.0000E+00  0.0000E+00  0.0000E+00  0.0000E+00  0.0000E+00  0.0000E+00  0.0000E+00  0.0000E+00  0.0000E+00  0.0000E+00  0.0000E+00  0.0000E+00  0.0000E+00
     -3.539  0.0000E+00  0.0000E+00  0.0000E+00  0.0000E+00  0.0000E+00  0.0000E+00  0.0000E+00  0.0000E+00  0.0000E+00  0.0000E+00  0.0000E+00  0.0000E+00  0.0000E+00  0.0000E+00  0.0000E+00  0.0000E+00  0.0000E+00  0.0000E+00
     -3.470  0.0000E+00  0.0000E+00  0.0000E+00  0.0000E+00  0.0000E+00  0.0000E+00  0.0000E+00  0.0000E+00  0.0000E+00  0.0000E+00  0.0000E+00  0.0000E+00  0.0000E+00  0.0000E+00  0.0000E+00  0.0000E+00  0.0000E+00  0.0000E+00
     -3.401  0.0000E+00  0.0000E+00  0.0000E+00  0.0000E+00  0.0000E+00  0.0000E+00  0.0000E+00  0.0000E+00  0.0000E+00  0.0000E+00  0.0000E+00  0.0000E+00  0.0000E+00  0.0000E+00  0.0000E+00  0.0000E+00  0.0000E+00  0.0000E+00
     -3.331  0.0000E+00  0.0000E+00  0.0000E+00  0.0000E+00  0.0000E+00  0.0000E+00  0.0000E+00  0.0000E+00  0.0000E+00  0.0000E+00  0.0000E+00  0.0000E+00  0.0000E+00  0.0000E+00  0.0000E+00  0.0000E+00  0.0000E+00  0.0000E+00
     -3.262  0.0000E+00  0.0000E+00  0.0000E+00  0.0000E+00  0.0000E+00  0.0000E+00  0.0000E+00  0.0000E+00  0.0000E+00  0.0000E+00  0.0000E+00  0.0000E+00  0.0000E+00  0.0000E+00  0.0000E+00  0.0000E+00  0.0000E+00  0.0000E+00
     -3.192  0.0000E+00  0.0000E+00  0.0000E+00  0.0000E+00  0.0000E+00  0.0000E+00  0.0000E+00  0.0000E+00  0.0000E+00  0.0000E+00  0.0000E+00  0.0000E+00  0.0000E+00  0.0000E+00  0.0000E+00  0.0000E+00  0.0000E+00  0.0000E+00
     -3.123  0.5525E-07  0.5497E-07  0.1750E-21  0.4610E-21  0.1012E-20  0.9727E-20  0.1750E-21  0.4610E-21  0.1419E-18  0.3177E-16  0.4748E-17  0.9999E-16  0.4211E-11  0.4061E-11  0.4748E-17  0.9999E-16  0.1895E-18  0.5257E-16
     -3.054  0.5918E-06  0.5889E-06  0.8354E-09  0.8314E-09  0.9326E-09  0.9281E-09  0.8354E-09  0.8314E-09  0.4788E-17  0.1530E-15  0.5917E-16  0.3472E-15  0.4930E-10  0.4803E-10  0.5917E-16  0.3472E-15  0.3855E-11  0.4089E-11
     -2.984  0.3034E-05  0.3019E-05  0.6956E-08  0.6922E-08  0.7322E-08  0.7287E-08  0.6956E-08  0.6922E-08  0.2967E-10  0.2898E-10  0.3059E-10  0.2944E-10  0.2599E-09  0.2539E-09  0.3059E-10  0.2944E-10  0.2361E-10  0.2399E-10
     -2.915  0.1208E-04  0.1203E-04  0.2926E-07  0.2912E-07  0.3314E-07  0.3298E-07  0.2926E-07  0.2912E-07  0.1750E-09  0.1730E-09  0.1648E-09  0.1612E-09  0.1030E-08  0.1008E-08  0.1648E-09  0.1612E-09  0.8243E-10  0.8428E-10
     -2.846  0.4797E-04  0.4773E-04  0.1188E-06  0.1182E-06  0.1379E-06  0.1372E-06  0.1188E-06  0.1182E-06  0.6142E-09  0.6061E-09  0.6819E-09  0.6675E-09  0.4178E-08  0.4093E-08  0.6819E-09  0.6675E-09  0.4575E-09  0.4640E-09
     -2.776  0.1884E-03  0.1875E-03  0.5143E-06  0.5118E-06  0.5597E-06  0.5571E-06  0.5143E-06  0.5118E-06  0.3275E-08  0.3241E-08  0.3239E-08  0.3185E-08  0.1707E-07  0.1676E-07  0.3239E-08  0.3185E-08  0.2302E-08  0.2336E-08
     -2.707  0.6653E-03  0.6625E-03  0.1906E-05  0.1897E-05  0.2087E-05  0.2078E-05  0.1906E-05  0.1897E-05  0.1204E-07  0.1191E-07  0.1207E-07  0.1186E-07  0.6051E-07  0.5946E-07  0.1207E-07  0.1186E-07  0.8195E-08  0.8309E-08
     -2.637  0.1919E-02  0.1913E-02  0.6450E-05  0.6425E-05  0.6993E-05  0.6966E-05  0.6450E-05  0.6425E-05  0.4510E-07  0.4465E-07  0.4507E-07  0.4437E-07  0.1816E-06  0.1790E-06  0.4507E-07  0.4437E-07  0.2850E-07  0.2880E-07
     -2.568  0.3962E-02  0.3955E-02  0.1695E-04  0.1690E-04  0.1845E-04  0.1840E-04  0.1695E-04  0.1690E-04  0.1441E-06  0.1430E-06  0.1423E-06  0.1408E-06  0.4076E-06  0.4042E-06  0.1423E-06  0.1408E-06  0.8334E-07  0.8382E-07
     -2.499  0.5775E-02  0.5769E-02  0.3324E-04  0.3317E-04  0.3785E-04  0.3777E-04  0.3324E-04  0.3317E-04  0.3455E-06  0.3443E-06  0.3478E-06  0.3464E-06  0.7054E-06  0.7053E-06  0.3478E-06  0.3464E-06  0.2260E-06  0.2270E-06
     -2.429  0.7308E-02  0.7301E-02  0.5895E-04  0.5883E-04  0.6754E-04  0.6742E-04  0.5895E-04  0.5883E-04  0.7306E-06  0.7296E-06  0.7576E-06  0.7585E-06  0.1185E-05  0.1193E-05  0.7576E-06  0.7585E-06  0.5805E-06  0.5848E-06
     -2.360  0.9403E-02  0.9396E-02  0.9905E-04  0.9891E-04  0.1031E-03  0.1030E-03  0.9905E-04  0.9891E-04  0.1545E-05  0.1544E-05  0.1508E-05  0.1512E-05  0.1933E-05  0.1955E-05  0.1508E-05  0.1512E-05  0.1090E-05  0.1103E-05
     -2.290  0.1004E-01  0.1004E-01  0.1259E-03  0.1259E-03  0.1284E-03  0.1283E-03  0.1259E-03  0.1259E-03  0.2504E-05  0.2503E-05  0.2403E-05  0.2407E-05  0.2457E-05  0.2488E-05  0.2403E-05  0.2407E-05  0.1413E-05  0.1431E-05
     -2.221  0.9693E-02  0.9689E-02  0.1425E-03  0.1424E-03  0.1729E-03  0.1726E-03  0.1425E-03  0.1424E-03  0.3565E-05  0.3551E-05  0.3694E-05  0.3680E-05  0.3131E-05  0.3150E-05  0.3694E-05  0.3680E-05  0.1882E-05  0.1897E-05
     -2.152  0.1154E-01  0.1153E-01  0.1999E-03  0.1996E-03  0.2553E-03  0.2549E-03  0.1999E-03  0.1996E-03  0.5737E-05  0.5704E-05  0.5750E-05  0.5719E-05  0.5254E-05  0.5266E-05  0.5750E-05  0.5719E-05  0.3446E-05  0.3460E-05
     -2.082  0.1309E-01  0.1309E-01  0.2695E-03  0.2693E-03  0.2918E-03  0.2917E-03  0.2695E-03  0.2693E-03  0.7739E-05  0.7697E-05  0.7409E-05  0.7377E-05  0.7870E-05  0.7911E-05  0.7409E-05  0.7377E-05  0.6235E-05  0.6259E-05
     -2.013  0.1313E-01  0.1313E-01  0.3182E-03  0.3180E-03  0.2985E-03  0.2983E-03  0.3182E-03  0.3180E-03  0.9884E-05  0.9832E-05  0.1000E-04  0.9960E-05  0.9130E-05  0.9182E-05  0.1000E-04  0.9960E-05  0.8390E-05  0.8413E-05
     -1.943  0.1351E-01  0.1350E-01  0.3553E-03  0.3551E-03  0.3770E-03  0.3766E-03  0.3553E-03  0.3551E-03  0.1382E-04  0.1374E-04  0.1516E-04  0.1511E-04  0.9890E-05  0.9883E-05  0.1516E-04  0.1511E-04  0.8815E-05  0.8808E-05
     -1.874  0.1441E-01  0.1440E-01  0.4067E-03  0.4065E-03  0.4708E-03  0.4705E-03  0.4067E-03  0.4065E-03  0.2040E-04  0.2028E-04  0.1926E-04  0.1922E-04  0.1330E-04  0.1322E-04  0.1926E-04  0.1922E-04  0.9400E-05  0.9373E-05
     -1.805  0.1381E-01  0.1381E-01  0.4140E-03  0.4140E-03  0.5204E-03  0.5201E-03  0.4140E-03  0.4140E-03  0.2405E-04  0.2393E-04  0.2000E-04  0.1997E-04  0.1781E-04  0.1771E-04  0.2000E-04  0.1997E-04  0.1015E-04  0.1012E-04
     -1.735  0.1335E-01  0.1334E-01  0.4343E-03  0.4338E-03  0.5917E-03  0.5913E-03  0.4343E-03  0.4338E-03  0.2409E-04  0.2398E-04  0.2472E-04  0.2467E-04  0.2122E-04  0.2115E-04  0.2472E-04  0.2467E-04  0.1466E-04  0.1461E-04
     -1.666  0.1583E-01  0.1582E-01  0.6020E-03  0.6011E-03  0.6833E-03  0.6828E-03  0.6020E-03  0.6011E-03  0.3057E-04  0.3045E-04  0.3618E-04  0.3613E-04  0.2693E-04  0.2687E-04  0.3618E-04  0.3613E-04  0.2655E-04  0.2649E-04
     -1.597  0.1785E-01  0.1784E-01  0.7450E-03  0.7446E-03  0.7689E-03  0.7686E-03  0.7450E-03  0.7446E-03  0.4080E-04  0.4065E-04  0.4563E-04  0.4565E-04  0.3405E-04  0.3400E-04  0.4563E-04  0.4565E-04  0.3518E-04  0.3514E-04
     -1.527  0.1695E-01  0.1695E-01  0.7644E-03  0.7643E-03  0.7548E-03  0.7550E-03  0.7644E-03  0.7643E-03  0.5260E-04  0.5242E-04  0.4845E-04  0.4848E-04  0.3702E-04  0.3698E-04  0.4845E-04  0.4848E-04  0.3471E-04  0.3469E-04
     -1.458  0.1628E-01  0.1627E-01  0.8108E-03  0.8104E-03  0.7403E-03  0.7400E-03  0.8108E-03  0.8104E-03  0.6791E-04  0.6770E-04  0.5443E-04  0.5439E-04  0.3995E-04  0.3989E-04  0.5443E-04  0.5439E-04  0.3550E-04  0.3548E-04
     -1.388  0.1622E-01  0.1622E-01  0.8067E-03  0.8068E-03  0.9266E-03  0.9257E-03  0.8067E-03  0.8068E-03  0.7505E-04  0.7490E-04  0.6590E-04  0.6585E-04  0.4698E-04  0.4692E-04  0.6590E-04  0.6585E-04  0.3317E-04  0.3316E-04
     -1.319  0.1529E-01  0.1529E-01  0.7205E-03  0.7205E-03  0.1176E-02  0.1176E-02  0.7205E-03  0.7205E-03  0.6627E-04  0.6618E-04  0.7900E-04  0.7898E-04  0.5321E-04  0.5319E-04  0.7900E-04  0.7898E-04  0.3159E-04  0.3156E-04
     -1.250  0.1608E-01  0.1608E-01  0.8251E-03  0.8243E-03  0.1303E-02  0.1303E-02  0.8251E-03  0.8243E-03  0.7497E-04  0.7485E-04  0.9826E-04  0.9828E-04  0.6037E-04  0.6037E-04  0.9826E-04  0.9828E-04  0.4460E-04  0.4452E-04
     -1.180  0.1792E-01  0.1791E-01  0.1075E-02  0.1074E-02  0.1310E-02  0.1310E-02  0.1075E-02  0.1074E-02  0.1097E-03  0.1095E-03  0.1107E-03  0.1107E-03  0.7912E-04  0.7913E-04  0.1107E-03  0.1107E-03  0.6699E-04  0.6690E-04
     -1.111  0.1969E-01  0.1969E-01  0.1314E-02  0.1313E-02  0.1346E-02  0.1346E-02  0.1314E-02  0.1313E-02  0.1441E-03  0.1440E-03  0.1224E-03  0.1224E-03  0.1012E-03  0.1013E-03  0.1224E-03  0.1224E-03  0.9032E-04  0.9025E-04
     -1.041  0.1858E-01  0.1858E-01  0.1346E-02  0.1346E-02  0.1221E-02  0.1221E-02  0.1346E-02  0.1346E-02  0.1498E-03  0.1498E-03  0.1298E-03  0.1299E-03  0.9656E-04  0.9675E-04  0.1298E-03  0.1299E-03  0.1009E-03  0.1008E-03
     -0.972  0.1738E-01  0.1738E-01  0.1356E-02  0.1356E-02  0.1191E-02  0.1190E-02  0.1356E-02  0.1356E-02  0.1563E-03  0.1564E-03  0.1434E-03  0.1434E-03  0.9523E-04  0.9528E-04  0.1434E-03  0.1434E-03  0.1085E-03  0.1084E-03
     -0.903  0.1794E-01  0.1794E-01  0.1391E-02  0.1392E-02  0.1581E-02  0.1579E-02  0.1391E-02  0.1392E-02  0.1584E-03  0.1585E-03  0.1794E-03  0.1794E-03  0.1153E-03  0.1154E-03  0.1794E-03  0.1794E-03  0.1173E-03  0.1173E-03
     -0.833  0.1783E-01  0.1782E-01  0.1315E-02  0.1315E-02  0.2077E-02  0.2076E-02  0.1315E-02  0.1315E-02  0.1698E-03  0.1698E-03  0.2180E-03  0.2182E-03  0.1319E-03  0.1321E-03  0.2180E-03  0.2182E-03  0.1017E-03  0.1018E-03
     -0.764  0.1805E-01  0.1805E-01  0.1410E-02  0.1409E-02  0.2226E-02  0.2226E-02  0.1410E-02  0.1409E-02  0.2384E-03  0.2382E-03  0.2461E-03  0.2463E-03  0.1432E-03  0.1434E-03  0.2461E-03  0.2463E-03  0.9433E-04  0.9435E-04
     -0.695  0.1881E-01  0.1881E-01  0.1617E-02  0.1616E-02  0.2220E-02  0.2220E-02  0.1617E-02  0.1616E-02  0.3092E-03  0.3092E-03  0.2766E-03  0.2769E-03  0.1558E-03  0.1560E-03  0.2766E-03  0.2769E-03  0.1074E-03  0.1075E-03
     -0.625  0.1764E-01  0.1765E-01  0.1589E-02  0.1590E-02  0.2232E-02  0.2232E-02  0.1589E-02  0.1590E-02  0.3225E-03  0.3226E-03  0.2720E-03  0.2724E-03  0.1786E-03  0.1790E-03  0.2720E-03  0.2724E-03  0.1152E-03  0.1152E-03
     -0.556  0.1565E-01  0.1565E-01  0.1565E-02  0.1564E-02  0.1994E-02  0.1995E-02  0.1565E-02  0.1564E-02  0.3028E-03  0.3030E-03  0.2489E-03  0.2491E-03  0.1883E-03  0.1887E-03  0.2489E-03  0.2491E-03  0.1486E-03  0.1484E-03
     -0.486  0.1653E-01  0.1652E-01  0.1858E-02  0.1857E-02  0.2092E-02  0.2090E-02  0.1858E-02  0.1857E-02  0.2978E-03  0.2979E-03  0.3130E-03  0.3129E-03  0.1972E-03  0.1975E-03  0.3130E-03  0.3129E-03  0.2268E-03  0.2265E-03
     -0.417  0.1898E-01  0.1897E-01  0.2178E-02  0.2178E-02  0.2908E-02  0.2905E-02  0.2178E-02  0.2178E-02  0.3296E-03  0.3296E-03  0.4567E-03  0.4565E-03  0.2175E-03  0.2178E-03  0.4567E-03  0.4565E-03  0.2763E-03  0.2761E-03
     -0.348  0.1979E-01  0.1979E-01  0.2334E-02  0.2333E-02  0.3500E-02  0.3499E-02  0.2334E-02  0.2333E-02  0.3936E-03  0.3934E-03  0.5482E-03  0.5484E-03  0.2383E-03  0.2386E-03  0.5482E-03  0.5484E-03  0.2901E-03  0.2900E-03
     -0.278  0.1930E-01  0.1930E-01  0.2478E-02  0.2478E-02  0.3301E-02  0.3303E-02  0.2478E-02  0.2478E-02  0.5354E-03  0.5351E-03  0.5353E-03  0.5357E-03  0.2684E-03  0.2688E-03  0.5353E-03  0.5357E-03  0.2962E-03  0.2963E-03
     -0.209  0.1731E-01  0.1732E-01  0.2396E-02  0.2396E-02  0.2977E-02  0.2977E-02  0.2396E-02  0.2396E-02  0.6514E-03  0.6514E-03  0.5093E-03  0.5095E-03  0.2566E-03  0.2571E-03  0.5093E-03  0.5095E-03  0.2549E-03  0.2551E-03
     -0.139  0.1480E-01  0.1481E-01  0.2182E-02  0.2182E-02  0.2765E-02  0.2766E-02  0.2182E-02  0.2182E-02  0.6228E-03  0.6230E-03  0.5065E-03  0.5066E-03  0.2292E-03  0.2294E-03  0.5065E-03  0.5066E-03  0.2317E-03  0.2317E-03