   8   8   1   0
  0.1345418E+02  0.3767232E-09  0.3767232E-09  0.7584076E-09  0.5000000E-15
  1.000000000000000E-004
  CAR 
 unknown system                          
     18.24553452     -3.37811665  301      9.54718875      1.00000000
     -3.378  0.0000E+00  0.0000E+00  0.0000E+00  0.0000E+00
     -3.306  0.0000E+00  0.0000E+00  0.0000E+00  0.0000E+00
     -3.234  0.0000E+00  0.0000E+00  0.0000E+00  0.0000E+00
     -3.162  0.0000E+00  0.0000E+00  0.0000E+00  0.0000E+00
     -3.090  0.0000E+00  0.0000E+00  0.0000E+00  0.0000E+00
     -3.018  0.0000E+00  0.0000E+00  0.0000E+00  0.0000E+00
     -2.946  0.0000E+00  0.0000E+00  0.0000E+00  0.0000E+00
     -2.874  0.0000E+00  0.0000E+00  0.0000E+00  0.0000E+00
     -2.801  0.9881E-05  0.9795E-05  0.7122E-06  0.7060E-06
     -2.729  0.4851E-04  0.4808E-04  0.4209E-05  0.4172E-05
     -2.657  0.2024E-03  0.2006E-03  0.1880E-04  0.1863E-04
     -2.585  0.8581E-03  0.8507E-03  0.8065E-04  0.7995E-04
     -2.513  0.3536E-02  0.3507E-02  0.3356E-03  0.3327E-03
     -2.441  0.1328E-01  0.1318E-01  0.1293E-02  0.1283E-02
     -2.369  0.4011E-01  0.3988E-01  0.4184E-02  0.4157E-02
     -2.297  0.8525E-01  0.8496E-01  0.1033E-01  0.1028E-01
     -2.225  0.1251E+00  0.1249E+00  0.1935E-01  0.1929E-01
     -2.153  0.1586E+00  0.1583E+00  0.3078E-01  0.3070E-01
     -2.081  0.2085E+00  0.2082E+00  0.4580E-01  0.4570E-01
     -2.009  0.2245E+00  0.2245E+00  0.6198E-01  0.6189E-01
     -1.937  0.2148E+00  0.2147E+00  0.7747E-01  0.7737E-01
     -1.864  0.2615E+00  0.2612E+00  0.9633E-01  0.9620E-01
     -1.792  0.3023E+00  0.3022E+00  0.1181E+00  0.1180E+00
     -1.720  0.3042E+00  0.3042E+00  0.1401E+00  0.1399E+00
     -1.648  0.3155E+00  0.3154E+00  0.1628E+00  0.1627E+00
     -1.576  0.3434E+00  0.3433E+00  0.1876E+00  0.1874E+00
     -1.504  0.3329E+00  0.3331E+00  0.2116E+00  0.2114E+00
     -1.432  0.3203E+00  0.3202E+00  0.2347E+00  0.2345E+00
     -1.360  0.3874E+00  0.3869E+00  0.2626E+00  0.2625E+00
     -1.288  0.4479E+00  0.4478E+00  0.2949E+00  0.2947E+00
     -1.216  0.4293E+00  0.4295E+00  0.3259E+00  0.3257E+00
     -1.144  0.4136E+00  0.4135E+00  0.3557E+00  0.3555E+00
     -1.072  0.4222E+00  0.4223E+00  0.3862E+00  0.3860E+00
     -1.000  0.4024E+00  0.4024E+00  0.4152E+00  0.4150E+00
     -0.927  0.4291E+00  0.4288E+00  0.4461E+00  0.4459E+00
     -0.855  0.4834E+00  0.4829E+00  0.4810E+00  0.4808E+00
     -0.783  0.5440E+00  0.5439E+00  0.5202E+00  0.5200E+00
     -0.711  0.5208E+00  0.5214E+00  0.5578E+00  0.5576E+00
     -0.639  0.4873E+00  0.4873E+00  0.5930E+00  0.5927E+00
     -0.567  0.5175E+00  0.5173E+00  0.6303E+00  0.6300E+00
     -0.495  0.5326E+00  0.5326E+00  0.6687E+00  0.6684E+00
     -0.423  0.5495E+00  0.5494E+00  0.7083E+00  0.7081E+00
     -0.351  0.5844E+00  0.5842E+00  0.7505E+00  0.7502E+00
     -0.279  0.5649E+00  0.5653E+00  0.7912E+00  0.7910E+00
     -0.207  0.5067E+00  0.5069E+00  0.8278E+00  0.8275E+00
     -0.135  0.5374E+00  0.5369E+00  0.8665E+00  0.8663E+00
     -0.062  0.6502E+00  0.6496E+00  0.9134E+00  0.9131E+00
      0.010  0.7177E+00  0.7175E+00  0.9652E+00  0.9649E+00
      0.082  0.7215E+00  0.7216E+00  0.1017E+01  0.1017E+01
      0.154  0.6645E+00  0.6650E+00  0.1065E+01  0.1065E+01
      0.226  0.5889E+00  0.5892E+00  0.1108E+01  0.1107E+01
      0.298  0.5511E+00  0.5511E+00  0.1147E+01  0.1147E+01
      0.370  0.5909E+00  0.5904E+00  0.1190E+01  0.1190E+01
      0.442  0.6778E+00  0.6773E+00  0.1239E+01  0.1239E+01
      0.514  0.7144E+00  0.7144E+00  0.1290E+01  0.1290E+01
      0.586  0.7012E+00  0.7012E+00  0.1341E+01  0.1341E+01
      0.658  0.7085E+00  0.7085E+00  0.1392E+01  0.1392E+01
      0.730  0.6885E+00  0.6885E+00  0.1442E+01  0.1441E+01
      0.802  0.7401E+00  0.7396E+00  0.1495E+01  0.1495E+01
      0.875  0.7893E+00  0.7892E+00  0.1552E+01  0.1552E+01
      0.947  0.7687E+00  0.7690E+00  0.1608E+01  0.1607E+01
      1.019  0.6979E+00  0.6981E+00  0.1658E+01  0.1658E+01
      1.091  0.7165E+00  0.7162E+00  0.1710E+01  0.1709E+01
      1.163  0.7395E+00  0.7396E+00  0.1763E+01  0.1763E+01
      1.235  0.7145E+00  0.7144E+00  0.1814E+01  0.1814E+01
      1.307  0.7657E+00  0.7652E+00  0.1870E+01  0.1869E+01
      1.379  0.8176E+00  0.8174E+00  0.1929E+01  0.1928E+01
      1.451  0.8517E+00  0.8515E+00  0.1990E+01  0.1990E+01
      1.523  0.8734E+00  0.8733E+00  0.2053E+01  0.2053E+01
      1.595  0.8855E+00  0.8856E+00  0.2117E+01  0.2117E+01
      1.667  0.8215E+00  0.8220E+00  0.2176E+01  0.2176E+01
      1.739  0.7722E+00  0.7720E+00  0.2232E+01  0.2231E+01
      1.812  0.8563E+00  0.8554E+00  0.2294E+01  0.2293E+01
      1.884  0.9754E+00  0.9748E+00  0.2364E+01  0.2363E+01
      1.956  0.1035E+01  0.1035E+01  0.2439E+01  0.2438E+01
      2.028  0.1020E+01  0.1021E+01  0.2512E+01  0.2512E+01
      2.100  0.8591E+00  0.8602E+00  0.2574E+01  0.2574E+01
      2.172  0.7570E+00  0.7570E+00  0.2629E+01  0.2628E+01
      2.244  0.8195E+00  0.8187E+00  0.2688E+01  0.2687E+01
      2.316  0.8967E+00  0.8964E+00  0.2753E+01  0.2752E+01
      2.388  0.9150E+00  0.9148E+00  0.2819E+01  0.2818E+01
      2.460  0.9291E+00  0.9291E+00  0.2886E+01  0.2885E+01
      2.532  0.9183E+00  0.9182E+00  0.2952E+01  0.2951E+01
      2.604  0.9620E+00  0.9614E+00  0.3021E+01  0.3021E+01
      2.677  0.1055E+01  0.1054E+01  0.3097E+01  0.3097E+01
      2.749  0.1060E+01  0.1061E+01  0.3174E+01  0.3173E+01
      2.821  0.9483E+00  0.9494E+00  0.3242E+01  0.3242E+01
      2.893  0.8714E+00  0.8712E+00  0.3305E+01  0.3305E+01
      2.965  0.1010E+01  0.1008E+01  0.3378E+01  0.3377E+01
      3.037  0.1270E+01  0.1269E+01  0.3470E+01  0.3469E+01
      3.109  0.1303E+01  0.1304E+01  0.3564E+01  0.3563E+01
      3.181  0.1166E+01  0.1167E+01  0.3648E+01  0.3647E+01
      3.253  0.1032E+01  0.1032E+01  0.3722E+01  0.3722E+01
      3.325  0.1012E+01  0.1011E+01  0.3795E+01  0.3794E+01
      3.397  0.1137E+01  0.1136E+01  0.3877E+01  0.3876E+01
      3.469  0.1149E+01  0.1149E+01  0.3960E+01  0.3959E+01
      3.541  0.1161E+01  0.1161E+01  0.4044E+01  0.4043E+01
      3.614  0.1356E+01  0.1354E+01  0.4142E+01  0.4141E+01
      3.686  0.1572E+01  0.1571E+01  0.4255E+01  0.4254E+01
      3.758  0.1563E+01  0.1563E+01  0.4368E+01  0.4367E+01
      3.830  0.1556E+01  0.1555E+01  0.4480E+01  0.4479E+01
      3.902  0.1566E+01  0.1566E+01  0.4593E+01  0.4592E+01
      3.974  0.1453E+01  0.1454E+01  0.4698E+01  0.4697E+01
      4.046  0.1341E+01  0.1342E+01  0.4794E+01  0.4793E+01
      4.118  0.1277E+01  0.1277E+01  0.4886E+01  0.4886E+01
      4.190  0.1362E+01  0.1359E+01  0.4985E+01  0.4984E+01
      4.262  0.1736E+01  0.1731E+01  0.5110E+01  0.5108E+01
      4.334  0.2191E+01  0.2188E+01  0.5268E+01  0.5266E+01
      4.406  0.2312E+01  0.2312E+01  0.5435E+01  0.5433E+01
      4.478  0.2124E+01  0.2126E+01  0.5588E+01  0.5586E+01
      4.551  0.1901E+01  0.1902E+01  0.5725E+01  0.5723E+01
      4.623  0.1897E+01  0.1894E+01  0.5862E+01  0.5860E+01
      4.695  0.2277E+01  0.2272E+01  0.6026E+01  0.6024E+01
      4.767  0.2610E+01  0.2606E+01  0.6214E+01  0.6212E+01
      4.839  0.2916E+01  0.2911E+01  0.6424E+01  0.6422E+01
      4.911  0.3133E+01  0.3130E+01  0.6650E+01  0.6648E+01
      4.983  0.3296E+01  0.3289E+01  0.6888E+01  0.6885E+01
      5.055  0.3812E+01  0.3799E+01  0.7163E+01  0.7159E+01
      5.127  0.4756E+01  0.4732E+01  0.7506E+01  0.7500E+01
      5.199  0.6420E+01  0.6384E+01  0.7969E+01  0.7960E+01
      5.271  0.8386E+01  0.8350E+01  0.8573E+01  0.8562E+01
      5.343  0.1029E+02  0.1026E+02  0.9315E+01  0.9302E+01
      5.416  0.1192E+02  0.1190E+02  0.1017E+02  0.1016E+02
      5.488  0.1190E+02  0.1191E+02  0.1103E+02  0.1102E+02
      5.560  0.9814E+01  0.9855E+01  0.1174E+02  0.1173E+02
      5.632  0.7299E+01  0.7342E+01  0.1227E+02  0.1226E+02
      5.704  0.5444E+01  0.5478E+01  0.1266E+02  0.1265E+02
      5.776  0.4694E+01  0.4708E+01  0.1300E+02  0.1299E+02
      5.848  0.5297E+01  0.5293E+01  0.1338E+02  0.1338E+02
      5.920  0.5999E+01  0.6001E+01  0.1381E+02  0.1381E+02
      5.992  0.5264E+01  0.5279E+01  0.1419E+02  0.1419E+02
      6.064  0.3969E+01  0.3981E+01  0.1448E+02  0.1448E+02
      6.136  0.3255E+01  0.3259E+01  0.1472E+02  0.1471E+02
      6.208  0.3158E+01  0.3158E+01  0.1494E+02  0.1494E+02
      6.280  0.3102E+01  0.3105E+01  0.1517E+02  0.1516E+02
      6.353  0.2776E+01  0.2782E+01  0.1537E+02  0.1537E+02
      6.425  0.2263E+01  0.2269E+01  0.1553E+02  0.1553E+02
      6.497  0.1975E+01  0.1978E+01  0.1567E+02  0.1567E+02
      6.569  0.1765E+01  0.1768E+01  0.1580E+02  0.1580E+02
      6.641  0.1609E+01  0.1611E+01  0.1592E+02  0.1592E+02
      6.713  0.1599E+01  0.1599E+01  0.1603E+02  0.1603E+02
      6.785  0.1623E+01  0.1623E+01  0.1615E+02  0.1615E+02
      6.857  0.1516E+01  0.1518E+01  0.1626E+02  0.1626E+02
      6.929  0.1289E+01  0.1292E+01  0.1635E+02  0.1635E+02
      7.001  0.1115E+01  0.1116E+01  0.1643E+02  0.1643E+02
      7.073  0.1083E+01  0.1084E+01  0.1651E+02  0.1651E+02
      7.145  0.1046E+01  0.1047E+01  0.1659E+02  0.1659E+02
      7.217  0.9774E+00  0.9783E+00  0.1666E+02  0.1666E+02
      7.290  0.9617E+00  0.9613E+00  0.1673E+02  0.1673E+02
      7.362  0.1036E+01  0.1035E+01  0.1680E+02  0.1680E+02
      7.434  0.1256E+01  0.1253E+01  0.1689E+02  0.1689E+02
      7.506  0.1462E+01  0.1461E+01  0.1700E+02  0.1700E+02
      7.578  0.1426E+01  0.1427E+01  0.1710E+02  0.1710E+02
      7.650  0.1444E+01  0.1443E+01  0.1720E+02  0.1720E+02
      7.722  0.1593E+01  0.1591E+01  0.1732E+02  0.1732E+02
      7.794  0.1671E+01  0.1671E+01  0.1744E+02  0.1744E+02
      7.866  0.1621E+01  0.1622E+01  0.1756E+02  0.1755E+02
      7.938  0.1541E+01  0.1542E+01  0.1767E+02  0.1767E+02
      8.010  0.1465E+01  0.1467E+01  0.1777E+02  0.1777E+02
      8.082  0.1392E+01  0.1392E+01  0.1787E+02  0.1787E+02
      8.154  0.1536E+01  0.1533E+01  0.1798E+02  0.1798E+02
      8.227  0.1846E+01  0.1844E+01  0.1812E+02  0.1812E+02
      8.299  0.1863E+01  0.1865E+01  0.1825E+02  0.1825E+02
      8.371  0.1588E+01  0.1590E+01  0.1837E+02  0.1837E+02
      8.443  0.1395E+01  0.1396E+01  0.1847E+02  0.1847E+02
      8.515  0.1322E+01  0.1323E+01  0.1856E+02  0.1856E+02
      8.587  0.1275E+01  0.1275E+01  0.1865E+02  0.1865E+02
      8.659  0.1321E+01  0.1321E+01  0.1875E+02  0.1875E+02
      8.731  0.1508E+01  0.1506E+01  0.1886E+02  0.1886E+02
      8.803  0.1707E+01  0.1707E+01  0.1898E+02  0.1898E+02
      8.875  0.1566E+01  0.1569E+01  0.1909E+02  0.1909E+02
      8.947  0.1261E+01  0.1263E+01  0.1919E+02  0.1918E+02
      9.019  0.1200E+01  0.1200E+01  0.1927E+02  0.1927E+02
      9.092  0.1171E+01  0.1172E+01  0.1936E+02  0.1936E+02
      9.164  0.1211E+01  0.1210E+01  0.1944E+02  0.1944E+02
      9.236  0.1359E+01  0.1358E+01  0.1954E+02  0.1954E+02
      9.308  0.1480E+01  0.1479E+01  0.1965E+02  0.1965E+02
      9.380  0.1455E+01  0.1456E+01  0.1975E+02  0.1975E+02
      9.452  0.1396E+01  0.1396E+01  0.1985E+02  0.1985E+02
      9.524  0.1513E+01  0.1512E+01  0.1996E+02  0.1996E+02
      9.596  0.1596E+01  0.1597E+01  0.2008E+02  0.2008E+02
      9.668  0.1417E+01  0.1419E+01  0.2018E+02  0.2018E+02
      9.740  0.1149E+01  0.1150E+01  0.2026E+02  0.2026E+02
      9.812  0.9854E+00  0.9859E+00  0.2033E+02  0.2033E+02
      9.884  0.1040E+01  0.1038E+01  0.2041E+02  0.2041E+02
      9.956  0.1299E+01  0.1297E+01  0.2050E+02  0.2050E+02
     10.029  0.1527E+01  0.1526E+01  0.2061E+02  0.2061E+02
     10.101  0.1591E+01  0.1592E+01  0.2073E+02  0.2073E+02
     10.173  0.1524E+01  0.1525E+01  0.2084E+02  0.2084E+02
     10.245  0.1519E+01  0.1519E+01  0.2095E+02  0.2095E+02
     10.317  0.1605E+01  0.1605E+01  0.2106E+02  0.2106E+02
     10.389  0.1558E+01  0.1560E+01  0.2118E+02  0.2118E+02
     10.461  0.1365E+01  0.1367E+01  0.2127E+02  0.2127E+02
     10.533  0.1190E+01  0.1190E+01  0.2136E+02  0.2136E+02
     10.605  0.1190E+01  0.1189E+01  0.2145E+02  0.2145E+02
     10.677  0.1272E+01  0.1272E+01  0.2154E+02  0.2154E+02
     10.749  0.1260E+01  0.1261E+01  0.2163E+02  0.2163E+02
     10.821  0.1380E+01  0.1378E+01  0.2173E+02  0.2173E+02
     10.893  0.1685E+01  0.1684E+01  0.2185E+02  0.2185E+02
     10.966  0.1770E+01  0.1771E+01  0.2198E+02  0.2198E+02
     11.038  0.1573E+01  0.1575E+01  0.2209E+02  0.2209E+02
     11.110  0.1360E+01  0.1361E+01  0.2219E+02  0.2219E+02
     11.182  0.1261E+01  0.1261E+01  0.2228E+02  0.2228E+02
     11.254  0.1299E+01  0.1298E+01  0.2237E+02  0.2237E+02
     11.326  0.1433E+01  0.1432E+01  0.2248E+02  0.2248E+02
     11.398  0.1631E+01  0.1630E+01  0.2259E+02  0.2259E+02
     11.470  0.1811E+01  0.1811E+01  0.2273E+02  0.2272E+02
     11.542  0.1767E+01  0.1768E+01  0.2285E+02  0.2285E+02
     11.614  0.1643E+01  0.1644E+01  0.2297E+02  0.2297E+02
     11.686  0.1557E+01  0.1558E+01  0.2308E+02  0.2308E+02
     11.758  0.1323E+01  0.1325E+01  0.2318E+02  0.2318E+02
     11.831  0.1220E+01  0.1219E+01  0.2327E+02  0.2327E+02
     11.903  0.1348E+01  0.1347E+01  0.2336E+02  0.2336E+02
     11.975  0.1420E+01  0.1420E+01  0.2347E+02  0.2347E+02
     12.047  0.1565E+01  0.1564E+01  0.2358E+02  0.2358E+02
     12.119  0.1695E+01  0.1695E+01  0.2370E+02  0.2370E+02
     12.191  0.1644E+01  0.1645E+01  0.2382E+02  0.2382E+02
     12.263  0.1466E+01  0.1467E+01  0.2393E+02  0.2393E+02
     12.335  0.1424E+01  0.1424E+01  0.2403E+02  0.2403E+02
     12.407  0.1571E+01  0.1570E+01  0.2414E+02  0.2414E+02
     12.479  0.1599E+01  0.1600E+01  0.2426E+02  0.2426E+02
     12.551  0.1480E+01  0.1481E+01  0.2436E+02  0.2436E+02
     12.623  0.1403E+01  0.1403E+01  0.2447E+02  0.2447E+02
     12.695  0.1362E+01  0.1362E+01  0.2456E+02  0.2456E+02
     12.768  0.1334E+01  0.1332E+01  0.2466E+02  0.2466E+02
     12.840  0.1487E+01  0.1483E+01  0.2477E+02  0.2477E+02
     12.912  0.1688E+01  0.1686E+01  0.2489E+02  0.2489E+02
     12.984  0.1640E+01  0.1641E+01  0.2501E+02  0.2501E+02
     13.056  0.1414E+01  0.1418E+01  0.2511E+02  0.2511E+02
     13.128  0.1349E+01  0.1350E+01  0.2521E+02  0.2521E+02
     13.200  0.1438E+01  0.1437E+01  0.2531E+02  0.2531E+02
     13.272  0.1547E+01  0.1545E+01  0.2542E+02  0.2542E+02
     13.344  0.1627E+01  0.1607E+01  0.2554E+02  0.2554E+02
     13.416  0.1623E+01  0.1578E+01  0.2566E+02  0.2565E+02
     13.488  0.1644E+01  0.1594E+01  0.2578E+02  0.2577E+02
     13.560  0.1731E+01  0.1716E+01  0.2590E+02  0.2589E+02
     13.632  0.1701E+01  0.1750E+01  0.2602E+02  0.2602E+02
     13.705  0.1584E+01  0.1642E+01  0.2614E+02  0.2613E+02
     13.777  0.1421E+01  0.1440E+01  0.2624E+02  0.2624E+02
     13.849  0.1388E+01  0.1380E+01  0.2634E+02  0.2634E+02
     13.921  0.1498E+01  0.1485E+01  0.2645E+02  0.2645E+02
     13.993  0.1568E+01  0.1555E+01  0.2656E+02  0.2656E+02
     14.065  0.1576E+01  0.1546E+01  0.2667E+02  0.2667E+02
     14.137  0.1558E+01  0.1562E+01  0.2679E+02  0.2678E+02
     14.209  0.1505E+01  0.1594E+01  0.2690E+02  0.2690E+02
     14.281  0.1448E+01  0.1607E+01  0.2700E+02  0.2701E+02
     14.353  0.1338E+01  0.1427E+01  0.2710E+02  0.2712E+02
     14.425  0.1250E+01  0.1229E+01  0.2719E+02  0.2720E+02
     14.497  0.1114E+01  0.1080E+01  0.2727E+02  0.2728E+02
     14.570  0.1002E+01  0.9620E+00  0.2734E+02  0.2735E+02
     14.642  0.9427E+00  0.8665E+00  0.2741E+02  0.2741E+02
     14.714  0.9129E+00  0.7831E+00  0.2747E+02  0.2747E+02
     14.786  0.8017E+00  0.6708E+00  0.2753E+02  0.2752E+02
     14.858  0.6459E+00  0.6234E+00  0.2758E+02  0.2756E+02
     14.930  0.5293E+00  0.5941E+00  0.2762E+02  0.2761E+02
     15.002  0.5419E+00  0.5920E+00  0.2766E+02  0.2765E+02
     15.074  0.5495E+00  0.5593E+00  0.2769E+02  0.2769E+02
     15.146  0.4555E+00  0.4783E+00  0.2773E+02  0.2772E+02
     15.218  0.3673E+00  0.4023E+00  0.2775E+02  0.2775E+02
     15.290  0.3282E+00  0.3669E+00  0.2778E+02  0.2778E+02
     15.362  0.3455E+00  0.3619E+00  0.2780E+02  0.2781E+02
     15.434  0.3298E+00  0.3061E+00  0.2783E+02  0.2783E+02
     15.507  0.2479E+00  0.2359E+00  0.2784E+02  0.2785E+02
     15.579  0.1945E+00  0.1966E+00  0.2786E+02  0.2786E+02
     15.651  0.1784E+00  0.1719E+00  0.2787E+02  0.2787E+02
     15.723  0.1973E+00  0.1750E+00  0.2789E+02  0.2788E+02
     15.795  0.1888E+00  0.1786E+00  0.2790E+02  0.2790E+02
     15.867  0.1230E+00  0.1359E+00  0.2791E+02  0.2791E+02
     15.939  0.7767E-01  0.8467E-01  0.2791E+02  0.2791E+02
     16.011  0.5599E-01  0.4794E-01  0.2792E+02  0.2792E+02
     16.083  0.5204E-01  0.2874E-01  0.2792E+02  0.2792E+02
     16.155  0.6221E-01  0.4792E-01  0.2793E+02  0.2792E+02
     16.227  0.9590E-01  0.1148E+00  0.2793E+02  0.2793E+02
     16.299  0.1368E+00  0.1690E+00  0.2794E+02  0.2794E+02
     16.371  0.1268E+00  0.1526E+00  0.2795E+02  0.2795E+02
     16.444  0.1024E+00  0.1038E+00  0.2796E+02  0.2796E+02
     16.516  0.6271E-01  0.4839E-01  0.2796E+02  0.2796E+02
     16.588  0.2323E-01  0.1668E-01  0.2797E+02  0.2797E+02
     16.660  0.8425E-02  0.6828E-02  0.2797E+02  0.2797E+02
     16.732  0.1137E-01  0.1156E-01  0.2797E+02  0.2797E+02
     16.804  0.3562E-01  0.3719E-01  0.2797E+02  0.2797E+02
     16.876  0.8265E-01  0.8491E-01  0.2798E+02  0.2798E+02
     16.948  0.9021E-01  0.8880E-01  0.2798E+02  0.2798E+02
     17.020  0.4510E-01  0.4270E-01  0.2799E+02  0.2799E+02
     17.092  0.1995E-01  0.1859E-01  0.2799E+02  0.2799E+02
     17.164  0.2739E-01  0.2591E-01  0.2799E+02  0.2799E+02
     17.236  0.5525E-01  0.5420E-01  0.2799E+02  0.2799E+02
     17.309  0.5869E-01  0.5979E-01  0.2800E+02  0.2800E+02
     17.381  0.2917E-01  0.3034E-01  0.2800E+02  0.2800E+02
     17.453  0.8910E-02  0.9339E-02  0.2800E+02  0.2800E+02
     17.525  0.2258E-02  0.2372E-02  0.2800E+02  0.2800E+02
     17.597  0.5433E-03  0.5709E-03  0.2800E+02  0.2800E+02
     17.669  0.0000E+00  0.0000E+00  0.2800E+02  0.2800E+02
     17.741  0.0000E+00  0.0000E+00  0.2800E+02  0.2800E+02
     17.813  0.0000E+00  0.0000E+00  0.2800E+02  0.2800E+02
     17.885  0.0000E+00  0.0000E+00  0.2800E+02  0.2800E+02
     17.957  0.0000E+00  0.0000E+00  0.2800E+02  0.2800E+02
     18.029  0.0000E+00  0.0000E+00  0.2800E+02  0.2800E+02
     18.101  0.0000E+00  0.0000E+00  0.2800E+02  0.2800E+02
     18.173  0.0000E+00  0.0000E+00  0.2800E+02  0.2800E+02
     18.246  0.0000E+00  0.0000E+00  0.2800E+02  0.2800E+02
     18.24553452     -3.37811665  301      9.54718875      1.00000000
     -3.378  0.0000E+00  0.0000E+00  0.0000E+00  0.0000E+00  0.0000E+00  0.0000E+00  0.0000E+00  0.0000E+00  0.0000E+00  0.0000E+00  0.0000E+00  0.0000E+00  0.0000E+00  0.0000E+00  0.0000E+00  0.0000E+00  0.0000E+00  0.0000E+00
     -3.306  0.0000E+00  0.0000E+00  0.0000E+00  0.0000E+00  0.0000E+00  0.0000E+00  0.0000E+00  0.0000E+00  0.0000E+00  0.0000E+00  0.0000E+00  0.0000E+00  0.0000E+00  0.0000E+00  0.0000E+00  0.0000E+00  0.0000E+00  0.0000E+00
     -3.234  0.0000E+00  0.0000E+00  0.0000E+00  0.0000E+00  0.0000E+00  0.0000E+00  0.0000E+00  0.0000E+00  0.0000E+00  0.0000E+00  0.0000E+00  0.0000E+00  0.0000E+00  0.0000E+00  0.0000E+00  0.0000E+00  0.0000E+00  0.0000E+00
     -3.162  0.0000E+00  0.0000E+00  0.0000E+00  0.0000E+00  0.0000E+00  0.0000E+00  0.0000E+00  0.0000E+00  0.0000E+00  0.0000E+00  0.0000E+00  0.0000E+00  0.0000E+00  0.0000E+00  0.0000E+00  0.0000E+00  0.0000E+00  0.0000E+00
     -3.090  0.0000E+00  0.0000E+00  0.0000E+00  0.0000E+00  0.0000E+00  0.0000E+00  0.0000E+00  0.0000E+00  0.0000E+00  0.0000E+00  0.0000E+00  0.0000E+00  0.0000E+00  0.0000E+00  0.0000E+00  0.0000E+00  0.0000E+00  0.0000E+00
     -3.018  0.0000E+00  0.0000E+00  0.0000E+00  0.0000E+00  0.0000E+00  0.0000E+00  0.0000E+00  0.0000E+00  0.0000E+00  0.0000E+00  0.0000E+00  0.0000E+00  0.0000E+00  0.0000E+00  0.0000E+00  0.0000E+00  0.0000E+00  0.0000E+00
     -2.946  0.0000E+00  0.0000E+00  0.0000E+00  0.0000E+00  0.0000E+00  0.0000E+00  0.0000E+00  0.0000E+00  0.0000E+00  0.0000E+00  0.0000E+00  0.0000E+00  0.0000E+00  0.0000E+00  0.0000E+00  0.0000E+00  0.0000E+00  0.0000E+00
     -2.874  0.0000E+00  0.0000E+00  0.0000E+00  0.0000E+00  0.0000E+00  0.0000E+00  0.0000E+00  0.0000E+00  0.0000E+00  0.0000E+00  0.0000E+00  0.0000E+00  0.0000E+00  0.0000E+00  0.0000E+00  0.0000E+00  0.0000E+00  0.0000E+00
     -2.801  0.4841E-06  0.4799E-06  0.6320E-09  0.6264E-09  0.7088E-09  0.7027E-09  0.6320E-09  0.6264E-09  0.1827E-17  0.5263E-16  0.5609E-17  0.2968E-15  0.3821E-10  0.3924E-10  0.5609E-17  0.2968E-15  0.3073E-11  0.3105E-11
     -2.729  0.2368E-05  0.2347E-05  0.5426E-08  0.5378E-08  0.5733E-08  0.5683E-08  0.5426E-08  0.5378E-08  0.2212E-10  0.2158E-10  0.2203E-10  0.2232E-10  0.1954E-09  0.1989E-09  0.2203E-10  0.2232E-10  0.1903E-10  0.1918E-10
     -2.657  0.9875E-05  0.9788E-05  0.2404E-07  0.2382E-07  0.2496E-07  0.2474E-07  0.2404E-07  0.2382E-07  0.1360E-09  0.1344E-09  0.1259E-09  0.1269E-09  0.8142E-09  0.8306E-09  0.1259E-09  0.1269E-09  0.7127E-10  0.7183E-10
     -2.585  0.4185E-04  0.4148E-04  0.1027E-06  0.1018E-06  0.1204E-06  0.1193E-06  0.1027E-06  0.1018E-06  0.5095E-09  0.5028E-09  0.5478E-09  0.5506E-09  0.3514E-08  0.3579E-08  0.5478E-09  0.5506E-09  0.4003E-09  0.4014E-09
     -2.513  0.1724E-03  0.1709E-03  0.4535E-06  0.4495E-06  0.5014E-06  0.4971E-06  0.4535E-06  0.4495E-06  0.2523E-08  0.2491E-08  0.2576E-08  0.2585E-08  0.1488E-07  0.1514E-07  0.2576E-08  0.2585E-08  0.1973E-08  0.1975E-08
     -2.441  0.6467E-03  0.6418E-03  0.1835E-05  0.1820E-05  0.2001E-05  0.1985E-05  0.1835E-05  0.1820E-05  0.1106E-07  0.1093E-07  0.1084E-07  0.1088E-07  0.5681E-07  0.5779E-07  0.1084E-07  0.1088E-07  0.7935E-08  0.7945E-08
     -2.369  0.1950E-02  0.1939E-02  0.6512E-05  0.6466E-05  0.7031E-05  0.6982E-05  0.6512E-05  0.6466E-05  0.4283E-07  0.4238E-07  0.4223E-07  0.4239E-07  0.1786E-06  0.1815E-06  0.4223E-07  0.4239E-07  0.2845E-07  0.2849E-07
     -2.297  0.4129E-02  0.4115E-02  0.1771E-04  0.1762E-04  0.1912E-04  0.1903E-04  0.1771E-04  0.1762E-04  0.1432E-06  0.1421E-06  0.1397E-06  0.1401E-06  0.4144E-06  0.4200E-06  0.1397E-06  0.1401E-06  0.8472E-07  0.8462E-07
     -2.225  0.6023E-02  0.6014E-02  0.3494E-04  0.3481E-04  0.3967E-04  0.3952E-04  0.3494E-04  0.3481E-04  0.3492E-06  0.3482E-06  0.3504E-06  0.3504E-06  0.7272E-06  0.7338E-06  0.3504E-06  0.3504E-06  0.2332E-06  0.2320E-06
     -2.153  0.7561E-02  0.7549E-02  0.6201E-04  0.6179E-04  0.7146E-04  0.7123E-04  0.6201E-04  0.6179E-04  0.7354E-06  0.7338E-06  0.7757E-06  0.7722E-06  0.1243E-05  0.1245E-05  0.7757E-06  0.7722E-06  0.6252E-06  0.6215E-06
     -2.081  0.9853E-02  0.9840E-02  0.1065E-03  0.1062E-03  0.1105E-03  0.1103E-03  0.1065E-03  0.1062E-03  0.1597E-05  0.1594E-05  0.1582E-05  0.1575E-05  0.2085E-05  0.2083E-05  0.1582E-05  0.1575E-05  0.1211E-05  0.1208E-05
     -2.009  0.1053E-01  0.1054E-01  0.1357E-03  0.1357E-03  0.1359E-03  0.1358E-03  0.1357E-03  0.1357E-03  0.2612E-05  0.2612E-05  0.2512E-05  0.2507E-05  0.2643E-05  0.2646E-05  0.2512E-05  0.2507E-05  0.1547E-05  0.1548E-05
     -1.937  0.9955E-02  0.9952E-02  0.1499E-03  0.1497E-03  0.1811E-03  0.1806E-03  0.1499E-03  0.1497E-03  0.3641E-05  0.3634E-05  0.3813E-05  0.3804E-05  0.3268E-05  0.3273E-05  0.3813E-05  0.3804E-05  0.1981E-05  0.1981E-05
     -1.864  0.1197E-01  0.1195E-01  0.2119E-03  0.2114E-03  0.2737E-03  0.2732E-03  0.2119E-03  0.2114E-03  0.5958E-05  0.5942E-05  0.6030E-05  0.6014E-05  0.5570E-05  0.5586E-05  0.6030E-05  0.6014E-05  0.3649E-05  0.3639E-05
     -1.792  0.1372E-01  0.1372E-01  0.2890E-03  0.2886E-03  0.3145E-03  0.3145E-03  0.2890E-03  0.2886E-03  0.8055E-05  0.8049E-05  0.7723E-05  0.7706E-05  0.8532E-05  0.8573E-05  0.7723E-05  0.7706E-05  0.6798E-05  0.6789E-05
     -1.720  0.1368E-01  0.1368E-01  0.3413E-03  0.3411E-03  0.3144E-03  0.3141E-03  0.3413E-03  0.3411E-03  0.1015E-04  0.1015E-04  0.1026E-04  0.1024E-04  0.9898E-05  0.9952E-05  0.1026E-04  0.1024E-04  0.9286E-05  0.9298E-05
     -1.648  0.1401E-01  0.1401E-01  0.3794E-03  0.3791E-03  0.3979E-03  0.3971E-03  0.3794E-03  0.3791E-03  0.1414E-04  0.1414E-04  0.1581E-04  0.1580E-04  0.1045E-04  0.1051E-04  0.1581E-04  0.1580E-04  0.9637E-05  0.9658E-05
     -1.576  0.1508E-01  0.1507E-01  0.4376E-03  0.4372E-03  0.5035E-03  0.5030E-03  0.4376E-03  0.4372E-03  0.2125E-04  0.2125E-04  0.2042E-04  0.2046E-04  0.1405E-04  0.1411E-04  0.2042E-04  0.2046E-04  0.1023E-04  0.1025E-04
     -1.504  0.1446E-01  0.1447E-01  0.4456E-03  0.4458E-03  0.5528E-03  0.5525E-03  0.4456E-03  0.4458E-03  0.2542E-04  0.2548E-04  0.2084E-04  0.2088E-04  0.1913E-04  0.1924E-04  0.2084E-04  0.2088E-04  0.1082E-04  0.1084E-04
     -1.432  0.1370E-01  0.1369E-01  0.4528E-03  0.4522E-03  0.6275E-03  0.6269E-03  0.4528E-03  0.4522E-03  0.2475E-04  0.2477E-04  0.2523E-04  0.2519E-04  0.2274E-04  0.2279E-04  0.2523E-04  0.2519E-04  0.1518E-04  0.1513E-04
     -1.360  0.1637E-01  0.1635E-01  0.6367E-03  0.6353E-03  0.7268E-03  0.7261E-03  0.6367E-03  0.6353E-03  0.3138E-04  0.3133E-04  0.3768E-04  0.3758E-04  0.2882E-04  0.2879E-04  0.3768E-04  0.3758E-04  0.2860E-04  0.2851E-04
     -1.288  0.1876E-01  0.1875E-01  0.8035E-03  0.8031E-03  0.8247E-03  0.8243E-03  0.8035E-03  0.8031E-03  0.4214E-04  0.4207E-04  0.4835E-04  0.4827E-04  0.3693E-04  0.3689E-04  0.4835E-04  0.4827E-04  0.3906E-04  0.3903E-04
     -1.216  0.1779E-01  0.1781E-01  0.8202E-03  0.8203E-03  0.8128E-03  0.8132E-03  0.8202E-03  0.8203E-03  0.5438E-04  0.5429E-04  0.5110E-04  0.5107E-04  0.4025E-04  0.4023E-04  0.5110E-04  0.5107E-04  0.3820E-04  0.3821E-04
     -1.144  0.1693E-01  0.1693E-01  0.8689E-03  0.8684E-03  0.7741E-03  0.7737E-03  0.8689E-03  0.8684E-03  0.7079E-04  0.7067E-04  0.5657E-04  0.5650E-04  0.4277E-04  0.4271E-04  0.5657E-04  0.5650E-04  0.3911E-04  0.3909E-04
     -1.072  0.1701E-01  0.1702E-01  0.8771E-03  0.8777E-03  0.9651E-03  0.9634E-03  0.8771E-03  0.8777E-03  0.8010E-04  0.8011E-04  0.6875E-04  0.6871E-04  0.5058E-04  0.5052E-04  0.6875E-04  0.6871E-04  0.3680E-04  0.3681E-04
     -1.000  0.1587E-01  0.1588E-01  0.7634E-03  0.7636E-03  0.1246E-02  0.1244E-02  0.7634E-03  0.7636E-03  0.6910E-04  0.6914E-04  0.8176E-04  0.8170E-04  0.5769E-04  0.5771E-04  0.8176E-04  0.8170E-04  0.3355E-04  0.3349E-04
     -0.927  0.1665E-01  0.1664E-01  0.8627E-03  0.8614E-03  0.1399E-02  0.1399E-02  0.8627E-03  0.8614E-03  0.7588E-04  0.7574E-04  0.1030E-03  0.1029E-03  0.6488E-04  0.6488E-04  0.1030E-03  0.1029E-03  0.4723E-04  0.4708E-04
     -0.855  0.1857E-01  0.1856E-01  0.1133E-02  0.1131E-02  0.1397E-02  0.1397E-02  0.1133E-02  0.1131E-02  0.1122E-03  0.1119E-03  0.1163E-03  0.1163E-03  0.8427E-04  0.8407E-04  0.1163E-03  0.1163E-03  0.7189E-04  0.7171E-04
     -0.783  0.2070E-01  0.2069E-01  0.1410E-02  0.1409E-02  0.1448E-02  0.1448E-02  0.1410E-02  0.1409E-02  0.1518E-03  0.1517E-03  0.1287E-03  0.1286E-03  0.1113E-03  0.1111E-03  0.1287E-03  0.1286E-03  0.9867E-04  0.9853E-04
     -0.711  0.1962E-01  0.1964E-01  0.1449E-02  0.1450E-02  0.1318E-02  0.1320E-02  0.1449E-02  0.1450E-02  0.1575E-03  0.1576E-03  0.1368E-03  0.1368E-03  0.1065E-03  0.1066E-03  0.1368E-03  0.1368E-03  0.1110E-03  0.1110E-03
     -0.639  0.1807E-01  0.1807E-01  0.1447E-02  0.1446E-02  0.1228E-02  0.1227E-02  0.1447E-02  0.1446E-02  0.1641E-03  0.1641E-03  0.1484E-03  0.1482E-03  0.1013E-03  0.1012E-03  0.1484E-03  0.1482E-03  0.1184E-03  0.1183E-03
     -0.567  0.1870E-01  0.1870E-01  0.1499E-02  0.1499E-02  0.1614E-02  0.1611E-02  0.1499E-02  0.1499E-02  0.1664E-03  0.1665E-03  0.1854E-03  0.1851E-03  0.1235E-03  0.1233E-03  0.1854E-03  0.1851E-03  0.1311E-03  0.1310E-03
     -0.495  0.1866E-01  0.1866E-01  0.1406E-02  0.1407E-02  0.2182E-02  0.2179E-02  0.1406E-02  0.1407E-02  0.1727E-03  0.1726E-03  0.2283E-03  0.2281E-03  0.1436E-03  0.1435E-03  0.2283E-03  0.2281E-03  0.1143E-03  0.1144E-03
     -0.423  0.1884E-01  0.1884E-01  0.1485E-02  0.1483E-02  0.2385E-02  0.2385E-02  0.1485E-02  0.1483E-02  0.2427E-03  0.2423E-03  0.2579E-03  0.2578E-03  0.1580E-03  0.1579E-03  0.2579E-03  0.2578E-03  0.1026E-03  0.1026E-03
     -0.351  0.1983E-01  0.1982E-01  0.1736E-02  0.1735E-02  0.2359E-02  0.2359E-02  0.1736E-02  0.1735E-02  0.3251E-03  0.3249E-03  0.2918E-03  0.2917E-03  0.1706E-03  0.1705E-03  0.2918E-03  0.2917E-03  0.1183E-03  0.1182E-03
     -0.279  0.1877E-01  0.1878E-01  0.1716E-02  0.1717E-02  0.2389E-02  0.2390E-02  0.1716E-02  0.1717E-02  0.3422E-03  0.3423E-03  0.2911E-03  0.2914E-03  0.1959E-03  0.1958E-03  0.2911E-03  0.2914E-03  0.1254E-03  0.1254E-03
     -0.207  0.1643E-01  0.1643E-01  0.1648E-02  0.1647E-02  0.2132E-02  0.2134E-02  0.1648E-02  0.1647E-02  0.3202E-03  0.3206E-03  0.2585E-03  0.2586E-03  0.2090E-03  0.2090E-03  0.2585E-03  0.2586E-03  0.1555E-03  0.1551E-03
     -0.135  0.1703E-01  0.1701E-01  0.1941E-02  0.1938E-02  0.2104E-02  0.2101E-02  0.1941E-02  0.1938E-02  0.3084E-03  0.3086E-03  0.3137E-03  0.3131E-03  0.2141E-03  0.2142E-03  0.3137E-03  0.3131E-03  0.2438E-03  0.2433E-03
     -0.062  0.1980E-01  0.1979E-01  0.2313E-02  0.2312E-02  0.2928E-02  0.2922E-02  0.2313E-02  0.2312E-02  0.3399E-03  0.3400E-03  0.4676E-03  0.4668E-03  0.2357E-03  0.2359E-03  0.4676E-03  0.4668E-03  0.3063E-03  0.3061E-03
      0.010  0.2091E-01  0.2090E-01  0.2481E-02  0.2480E-02  0.3720E-02  0.3718E-02  0.2481E-02  0.2480E-02  0.4002E-03  0.3999E-03  0.5803E-03  0.5803E-03  0.2576E-03  0.2577E-03  0.5803E-03  0.5803E-03  0.3215E-03  0.3213E-03
      0.082  0.2060E-01  0.2060E-01  0.2659E-02  0.2658E-02  0.3599E-02  0.3602E-02  0.2659E-02  0.2658E-02  0.5483E-03  0.5475E-03  0.5716E-03  0.5722E-03  0.2963E-03  0.2966E-03  0.5716E-03  0.5722E-03  0.3343E-03  0.3343E-03
      0.154  0.1858E-01  0.1860E-01  0.2595E-02  0.2596E-02  0.3179E-02  0.3181E-02  0.2595E-02  0.2596E-02  0.6892E-03  0.6893E-03  0.5367E-03  0.5371E-03  0.2874E-03  0.2881E-03  0.5367E-03  0.5371E-03  0.2887E-03  0.2891E-03
      0.226  0.1574E-01  0.1575E-01  0.2326E-02  0.2327E-02  0.3032E-02  0.3034E-02  0.2326E-02  0.2327E-02  0.6573E-03  0.6580E-03  0.5364E-03  0.5366E-03  0.2531E-03  0.2534E-03  0.5364E-03  0.5366E-03  0.2556E-03  0.2556E-03