   8   8   1   0
  0.1760401E+02  0.4120410E-09  0.4120410E-09  0.8295083E-09  0.5000000E-15
  1.000000000000000E-004
  CAR 
 unknown system                          
     14.06664644     -4.25194063  301      6.58857040      1.00000000
     -4.252  0.0000E+00  0.0000E+00  0.0000E+00  0.0000E+00
     -4.191  0.0000E+00  0.0000E+00  0.0000E+00  0.0000E+00
     -4.130  0.0000E+00  0.0000E+00  0.0000E+00  0.0000E+00
     -4.069  0.0000E+00  0.0000E+00  0.0000E+00  0.0000E+00
     -4.008  0.0000E+00  0.0000E+00  0.0000E+00  0.0000E+00
     -3.947  0.0000E+00  0.0000E+00  0.0000E+00  0.0000E+00
     -3.886  0.0000E+00  0.0000E+00  0.0000E+00  0.0000E+00
     -3.825  0.1361E-04  0.1358E-04  0.8309E-06  0.8290E-06
     -3.763  0.5648E-04  0.5636E-04  0.4280E-05  0.4270E-05
     -3.702  0.1905E-03  0.1901E-03  0.1592E-04  0.1588E-04
     -3.641  0.6449E-03  0.6435E-03  0.5530E-04  0.5517E-04
     -3.580  0.2205E-02  0.2201E-02  0.1900E-03  0.1895E-03
     -3.519  0.7170E-02  0.7154E-02  0.6278E-03  0.6264E-03
     -3.458  0.2145E-01  0.2141E-01  0.1937E-02  0.1933E-02
     -3.397  0.5388E-01  0.5380E-01  0.5227E-02  0.5218E-02
     -3.336  0.1031E+00  0.1030E+00  0.1152E-01  0.1151E-01
     -3.275  0.1507E+00  0.1506E+00  0.2072E-01  0.2070E-01
     -3.214  0.1956E+00  0.1955E+00  0.3267E-01  0.3264E-01
     -3.153  0.2448E+00  0.2447E+00  0.4761E-01  0.4758E-01
     -3.092  0.2643E+00  0.2643E+00  0.6375E-01  0.6372E-01
     -3.031  0.2738E+00  0.2738E+00  0.8048E-01  0.8044E-01
     -2.970  0.3201E+00  0.3200E+00  0.1000E+00  0.9998E-01
     -2.909  0.3566E+00  0.3566E+00  0.1218E+00  0.1218E+00
     -2.848  0.3679E+00  0.3679E+00  0.1443E+00  0.1442E+00
     -2.786  0.3863E+00  0.3862E+00  0.1679E+00  0.1678E+00
     -2.725  0.4063E+00  0.4062E+00  0.1927E+00  0.1926E+00
     -2.664  0.3988E+00  0.3988E+00  0.2170E+00  0.2170E+00
     -2.603  0.4129E+00  0.4128E+00  0.2423E+00  0.2422E+00
     -2.542  0.4804E+00  0.4803E+00  0.2716E+00  0.2716E+00
     -2.481  0.5212E+00  0.5212E+00  0.3035E+00  0.3034E+00
     -2.420  0.5064E+00  0.5065E+00  0.3344E+00  0.3343E+00
     -2.359  0.5034E+00  0.5034E+00  0.3652E+00  0.3651E+00
     -2.298  0.5022E+00  0.5022E+00  0.3959E+00  0.3958E+00
     -2.237  0.5004E+00  0.5003E+00  0.4264E+00  0.4264E+00
     -2.176  0.5382E+00  0.5381E+00  0.4593E+00  0.4592E+00
     -2.115  0.5996E+00  0.5995E+00  0.4959E+00  0.4959E+00
     -2.054  0.6334E+00  0.6334E+00  0.5346E+00  0.5346E+00
     -1.993  0.6077E+00  0.6077E+00  0.5718E+00  0.5717E+00
     -1.932  0.6086E+00  0.6086E+00  0.6090E+00  0.6089E+00
     -1.871  0.6378E+00  0.6377E+00  0.6479E+00  0.6478E+00
     -1.809  0.6486E+00  0.6486E+00  0.6876E+00  0.6875E+00
     -1.748  0.6723E+00  0.6723E+00  0.7286E+00  0.7285E+00
     -1.687  0.6872E+00  0.6872E+00  0.7706E+00  0.7705E+00
     -1.626  0.6501E+00  0.6502E+00  0.8104E+00  0.8103E+00
     -1.565  0.6403E+00  0.6402E+00  0.8495E+00  0.8494E+00
     -1.504  0.7330E+00  0.7327E+00  0.8943E+00  0.8941E+00
     -1.443  0.8268E+00  0.8266E+00  0.9448E+00  0.9446E+00
     -1.382  0.8485E+00  0.8485E+00  0.9966E+00  0.9965E+00
     -1.321  0.8163E+00  0.8165E+00  0.1046E+01  0.1046E+01
     -1.260  0.7446E+00  0.7448E+00  0.1092E+01  0.1092E+01
     -1.199  0.6826E+00  0.6826E+00  0.1134E+01  0.1134E+01
     -1.138  0.6965E+00  0.6963E+00  0.1176E+01  0.1176E+01
     -1.077  0.7703E+00  0.7701E+00  0.1223E+01  0.1223E+01
     -1.016  0.8202E+00  0.8201E+00  0.1273E+01  0.1273E+01
     -0.955  0.8403E+00  0.8403E+00  0.1325E+01  0.1325E+01
     -0.894  0.8490E+00  0.8490E+00  0.1377E+01  0.1377E+01
     -0.832  0.8315E+00  0.8315E+00  0.1427E+01  0.1427E+01
     -0.771  0.8659E+00  0.8657E+00  0.1480E+01  0.1480E+01
     -0.710  0.9095E+00  0.9094E+00  0.1536E+01  0.1536E+01
     -0.649  0.8638E+00  0.8640E+00  0.1589E+01  0.1589E+01
     -0.588  0.7531E+00  0.7535E+00  0.1635E+01  0.1635E+01
     -0.527  0.7226E+00  0.7225E+00  0.1679E+01  0.1679E+01
     -0.466  0.7876E+00  0.7874E+00  0.1727E+01  0.1727E+01
     -0.405  0.8428E+00  0.8426E+00  0.1778E+01  0.1778E+01
     -0.344  0.8975E+00  0.8972E+00  0.1833E+01  0.1833E+01
     -0.283  0.9536E+00  0.9534E+00  0.1892E+01  0.1891E+01
     -0.222  0.9850E+00  0.9849E+00  0.1952E+01  0.1952E+01
     -0.161  0.9926E+00  0.9926E+00  0.2012E+01  0.2012E+01
     -0.100  0.9783E+00  0.9783E+00  0.2072E+01  0.2072E+01
     -0.039  0.9724E+00  0.9722E+00  0.2132E+01  0.2131E+01
      0.022  0.9753E+00  0.9752E+00  0.2191E+01  0.2191E+01
      0.083  0.9729E+00  0.9727E+00  0.2251E+01  0.2250E+01
      0.145  0.1018E+01  0.1017E+01  0.2313E+01  0.2313E+01
      0.206  0.1103E+01  0.1102E+01  0.2380E+01  0.2380E+01
      0.267  0.1138E+01  0.1138E+01  0.2450E+01  0.2449E+01
      0.328  0.1098E+01  0.1098E+01  0.2517E+01  0.2516E+01
      0.389  0.9679E+00  0.9683E+00  0.2576E+01  0.2576E+01
      0.450  0.8746E+00  0.8746E+00  0.2629E+01  0.2629E+01
      0.511  0.9288E+00  0.9282E+00  0.2686E+01  0.2686E+01
      0.572  0.1019E+01  0.1018E+01  0.2748E+01  0.2748E+01
      0.633  0.1026E+01  0.1026E+01  0.2811E+01  0.2811E+01
      0.694  0.9849E+00  0.9852E+00  0.2871E+01  0.2871E+01
      0.755  0.9585E+00  0.9586E+00  0.2930E+01  0.2930E+01
      0.816  0.1013E+01  0.1013E+01  0.2992E+01  0.2991E+01
      0.877  0.1166E+01  0.1165E+01  0.3063E+01  0.3063E+01
      0.938  0.1279E+01  0.1279E+01  0.3141E+01  0.3141E+01
      0.999  0.1195E+01  0.1196E+01  0.3214E+01  0.3214E+01
      1.060  0.1045E+01  0.1045E+01  0.3278E+01  0.3278E+01
      1.122  0.1054E+01  0.1053E+01  0.3342E+01  0.3342E+01
      1.183  0.1265E+01  0.1263E+01  0.3420E+01  0.3419E+01
      1.244  0.1448E+01  0.1448E+01  0.3508E+01  0.3508E+01
      1.305  0.1439E+01  0.1439E+01  0.3596E+01  0.3595E+01
      1.366  0.1339E+01  0.1339E+01  0.3678E+01  0.3677E+01
      1.427  0.1199E+01  0.1199E+01  0.3751E+01  0.3751E+01
      1.488  0.1151E+01  0.1150E+01  0.3821E+01  0.3821E+01
      1.549  0.1220E+01  0.1219E+01  0.3896E+01  0.3895E+01
      1.610  0.1211E+01  0.1211E+01  0.3970E+01  0.3969E+01
      1.671  0.1212E+01  0.1211E+01  0.4044E+01  0.4043E+01
      1.732  0.1371E+01  0.1369E+01  0.4128E+01  0.4127E+01
      1.793  0.1591E+01  0.1589E+01  0.4225E+01  0.4224E+01
      1.854  0.1746E+01  0.1744E+01  0.4331E+01  0.4331E+01
      1.915  0.1714E+01  0.1714E+01  0.4436E+01  0.4435E+01
      1.976  0.1548E+01  0.1549E+01  0.4531E+01  0.4530E+01
      2.037  0.1408E+01  0.1409E+01  0.4617E+01  0.4616E+01
      2.099  0.1368E+01  0.1367E+01  0.4700E+01  0.4699E+01
      2.160  0.1389E+01  0.1388E+01  0.4785E+01  0.4784E+01
      2.221  0.1313E+01  0.1312E+01  0.4865E+01  0.4865E+01
      2.282  0.1257E+01  0.1254E+01  0.4942E+01  0.4941E+01
      2.343  0.1468E+01  0.1463E+01  0.5032E+01  0.5031E+01
      2.404  0.1869E+01  0.1863E+01  0.5146E+01  0.5144E+01
      2.465  0.2191E+01  0.2187E+01  0.5280E+01  0.5278E+01
      2.526  0.2188E+01  0.2188E+01  0.5414E+01  0.5412E+01
      2.587  0.2066E+01  0.2065E+01  0.5540E+01  0.5538E+01
      2.648  0.1970E+01  0.1969E+01  0.5660E+01  0.5658E+01
      2.709  0.1879E+01  0.1876E+01  0.5775E+01  0.5773E+01
      2.770  0.1980E+01  0.1972E+01  0.5896E+01  0.5893E+01
      2.831  0.2270E+01  0.2259E+01  0.6035E+01  0.6031E+01
      2.892  0.2623E+01  0.2609E+01  0.6195E+01  0.6191E+01
      2.953  0.3014E+01  0.2998E+01  0.6379E+01  0.6374E+01
      3.014  0.3390E+01  0.3372E+01  0.6586E+01  0.6580E+01
      3.075  0.3788E+01  0.3765E+01  0.6818E+01  0.6810E+01
      3.137  0.4391E+01  0.4353E+01  0.7086E+01  0.7076E+01
      3.198  0.5438E+01  0.5371E+01  0.7418E+01  0.7404E+01
      3.259  0.7272E+01  0.7167E+01  0.7862E+01  0.7841E+01
      3.320  0.9708E+01  0.9574E+01  0.8455E+01  0.8426E+01
      3.381  0.1247E+02  0.1233E+02  0.9217E+01  0.9179E+01
      3.442  0.1484E+02  0.1473E+02  0.1012E+02  0.1008E+02
      3.503  0.1519E+02  0.1521E+02  0.1105E+02  0.1101E+02
      3.564  0.1313E+02  0.1326E+02  0.1185E+02  0.1182E+02
      3.625  0.1043E+02  0.1055E+02  0.1249E+02  0.1246E+02
      3.686  0.8776E+01  0.8825E+01  0.1303E+02  0.1300E+02
      3.747  0.8578E+01  0.8574E+01  0.1355E+02  0.1353E+02
      3.808  0.8187E+01  0.8238E+01  0.1405E+02  0.1403E+02
      3.869  0.6642E+01  0.6730E+01  0.1446E+02  0.1444E+02
      3.930  0.5251E+01  0.5308E+01  0.1478E+02  0.1477E+02
      3.991  0.4584E+01  0.4615E+01  0.1506E+02  0.1505E+02
      4.052  0.4132E+01  0.4160E+01  0.1531E+02  0.1530E+02
      4.114  0.3506E+01  0.3536E+01  0.1553E+02  0.1552E+02
      4.175  0.2820E+01  0.2847E+01  0.1570E+02  0.1569E+02
      4.236  0.2370E+01  0.2387E+01  0.1584E+02  0.1584E+02
      4.297  0.2200E+01  0.2209E+01  0.1598E+02  0.1597E+02
      4.358  0.2129E+01  0.2134E+01  0.1611E+02  0.1610E+02
      4.419  0.1957E+01  0.1966E+01  0.1623E+02  0.1622E+02
      4.480  0.1708E+01  0.1716E+01  0.1633E+02  0.1633E+02
      4.541  0.1510E+01  0.1516E+01  0.1642E+02  0.1642E+02
      4.602  0.1370E+01  0.1374E+01  0.1651E+02  0.1651E+02
      4.663  0.1348E+01  0.1348E+01  0.1659E+02  0.1659E+02
      4.724  0.1442E+01  0.1437E+01  0.1668E+02  0.1668E+02
      4.785  0.1647E+01  0.1638E+01  0.1678E+02  0.1678E+02
      4.846  0.1979E+01  0.1968E+01  0.1690E+02  0.1690E+02
      4.907  0.2340E+01  0.2334E+01  0.1704E+02  0.1704E+02
      4.968  0.2463E+01  0.2465E+01  0.1719E+02  0.1719E+02
      5.029  0.2315E+01  0.2322E+01  0.1733E+02  0.1733E+02
      5.091  0.2156E+01  0.2161E+01  0.1747E+02  0.1746E+02
      5.152  0.2129E+01  0.2132E+01  0.1760E+02  0.1759E+02
      5.213  0.2022E+01  0.2026E+01  0.1772E+02  0.1772E+02
      5.274  0.1891E+01  0.1893E+01  0.1784E+02  0.1783E+02
      5.335  0.1822E+01  0.1824E+01  0.1795E+02  0.1795E+02
      5.396  0.1698E+01  0.1703E+01  0.1805E+02  0.1805E+02
      5.457  0.1637E+01  0.1639E+01  0.1815E+02  0.1815E+02
      5.518  0.1730E+01  0.1729E+01  0.1826E+02  0.1825E+02
      5.579  0.1828E+01  0.1828E+01  0.1837E+02  0.1837E+02
      5.640  0.1856E+01  0.1856E+01  0.1848E+02  0.1848E+02
      5.701  0.1862E+01  0.1862E+01  0.1860E+02  0.1859E+02
      5.762  0.1844E+01  0.1845E+01  0.1871E+02  0.1871E+02
      5.823  0.1775E+01  0.1777E+01  0.1882E+02  0.1882E+02
      5.884  0.1650E+01  0.1653E+01  0.1892E+02  0.1892E+02
      5.945  0.1574E+01  0.1576E+01  0.1901E+02  0.1901E+02
      6.006  0.1578E+01  0.1579E+01  0.1911E+02  0.1911E+02
      6.068  0.1562E+01  0.1563E+01  0.1921E+02  0.1920E+02
      6.129  0.1388E+01  0.1391E+01  0.1929E+02  0.1929E+02
      6.190  0.1221E+01  0.1222E+01  0.1936E+02  0.1936E+02
      6.251  0.1220E+01  0.1219E+01  0.1944E+02  0.1944E+02
      6.312  0.1371E+01  0.1370E+01  0.1952E+02  0.1952E+02
      6.373  0.1574E+01  0.1573E+01  0.1962E+02  0.1962E+02
      6.434  0.1659E+01  0.1659E+01  0.1972E+02  0.1972E+02
      6.495  0.1727E+01  0.1726E+01  0.1983E+02  0.1983E+02
      6.556  0.1855E+01  0.1855E+01  0.1994E+02  0.1994E+02
      6.617  0.1851E+01  0.1852E+01  0.2005E+02  0.2005E+02
      6.678  0.1694E+01  0.1696E+01  0.2016E+02  0.2016E+02
      6.739  0.1457E+01  0.1459E+01  0.2025E+02  0.2024E+02
      6.800  0.1308E+01  0.1308E+01  0.2033E+02  0.2032E+02
      6.861  0.1294E+01  0.1294E+01  0.2040E+02  0.2040E+02
      6.922  0.1327E+01  0.1327E+01  0.2049E+02  0.2048E+02
      6.983  0.1386E+01  0.1386E+01  0.2057E+02  0.2057E+02
      7.045  0.1428E+01  0.1428E+01  0.2066E+02  0.2066E+02
      7.106  0.1439E+01  0.1438E+01  0.2075E+02  0.2074E+02
      7.167  0.1626E+01  0.1624E+01  0.2084E+02  0.2084E+02
      7.228  0.2002E+01  0.1999E+01  0.2097E+02  0.2097E+02
      7.289  0.2259E+01  0.2259E+01  0.2110E+02  0.2110E+02
      7.350  0.2261E+01  0.2262E+01  0.2124E+02  0.2124E+02
      7.411  0.2131E+01  0.2133E+01  0.2137E+02  0.2137E+02
      7.472  0.1909E+01  0.1911E+01  0.2149E+02  0.2149E+02
      7.533  0.1687E+01  0.1688E+01  0.2159E+02  0.2159E+02
      7.594  0.1633E+01  0.1633E+01  0.2169E+02  0.2169E+02
      7.655  0.1717E+01  0.1717E+01  0.2180E+02  0.2180E+02
      7.716  0.1712E+01  0.1713E+01  0.2190E+02  0.2190E+02
      7.777  0.1570E+01  0.1571E+01  0.2200E+02  0.2200E+02
      7.838  0.1542E+01  0.1541E+01  0.2209E+02  0.2209E+02
      7.899  0.1686E+01  0.1685E+01  0.2220E+02  0.2219E+02
      7.960  0.1735E+01  0.1736E+01  0.2230E+02  0.2230E+02
      8.022  0.1722E+01  0.1722E+01  0.2241E+02  0.2241E+02
      8.083  0.1881E+01  0.1880E+01  0.2252E+02  0.2252E+02
      8.144  0.2067E+01  0.2066E+01  0.2265E+02  0.2265E+02
      8.205  0.1992E+01  0.1993E+01  0.2277E+02  0.2277E+02
      8.266  0.1722E+01  0.1723E+01  0.2287E+02  0.2287E+02
      8.327  0.1583E+01  0.1583E+01  0.2297E+02  0.2297E+02
      8.388  0.1618E+01  0.1617E+01  0.2307E+02  0.2307E+02
      8.449  0.1708E+01  0.1707E+01  0.2317E+02  0.2317E+02
      8.510  0.1821E+01  0.1821E+01  0.2329E+02  0.2329E+02
      8.571  0.1884E+01  0.1884E+01  0.2340E+02  0.2340E+02
      8.632  0.1859E+01  0.1859E+01  0.2351E+02  0.2351E+02
      8.693  0.1842E+01  0.1842E+01  0.2363E+02  0.2363E+02
      8.754  0.1822E+01  0.1823E+01  0.2374E+02  0.2374E+02
      8.815  0.1767E+01  0.1767E+01  0.2385E+02  0.2385E+02
      8.876  0.1729E+01  0.1729E+01  0.2395E+02  0.2395E+02
      8.937  0.1725E+01  0.1726E+01  0.2406E+02  0.2406E+02
      8.999  0.1848E+01  0.1847E+01  0.2417E+02  0.2417E+02
      9.060  0.2051E+01  0.2050E+01  0.2430E+02  0.2430E+02
      9.121  0.2119E+01  0.2120E+01  0.2443E+02  0.2442E+02
      9.182  0.1961E+01  0.1962E+01  0.2455E+02  0.2454E+02
      9.243  0.1769E+01  0.1769E+01  0.2465E+02  0.2465E+02
      9.304  0.1719E+01  0.1719E+01  0.2476E+02  0.2476E+02
      9.365  0.1745E+01  0.1745E+01  0.2486E+02  0.2486E+02
      9.426  0.1786E+01  0.1786E+01  0.2497E+02  0.2497E+02
      9.487  0.1790E+01  0.1790E+01  0.2508E+02  0.2508E+02
      9.548  0.1719E+01  0.1718E+01  0.2519E+02  0.2519E+02
      9.609  0.1734E+01  0.1731E+01  0.2529E+02  0.2529E+02
      9.670  0.1795E+01  0.1794E+01  0.2540E+02  0.2540E+02
      9.731  0.1779E+01  0.1781E+01  0.2551E+02  0.2551E+02
      9.792  0.1726E+01  0.1732E+01  0.2562E+02  0.2562E+02
      9.853  0.1684E+01  0.1696E+01  0.2572E+02  0.2572E+02
      9.914  0.1826E+01  0.1830E+01  0.2583E+02  0.2583E+02
      9.975  0.2055E+01  0.2048E+01  0.2596E+02  0.2596E+02
     10.037  0.2174E+01  0.2166E+01  0.2609E+02  0.2609E+02
     10.098  0.2233E+01  0.2218E+01  0.2623E+02  0.2623E+02
     10.159  0.2164E+01  0.2139E+01  0.2636E+02  0.2636E+02
     10.220  0.1923E+01  0.1931E+01  0.2648E+02  0.2647E+02
     10.281  0.1707E+01  0.1752E+01  0.2658E+02  0.2658E+02
     10.342  0.1621E+01  0.1630E+01  0.2668E+02  0.2668E+02
     10.403  0.1623E+01  0.1594E+01  0.2678E+02  0.2678E+02
     10.464  0.1686E+01  0.1675E+01  0.2688E+02  0.2688E+02
     10.525  0.1728E+01  0.1747E+01  0.2699E+02  0.2699E+02
     10.586  0.1708E+01  0.1707E+01  0.2709E+02  0.2709E+02
     10.647  0.1566E+01  0.1522E+01  0.2719E+02  0.2719E+02
     10.708  0.1312E+01  0.1270E+01  0.2727E+02  0.2726E+02
     10.769  0.1101E+01  0.1086E+01  0.2734E+02  0.2733E+02
     10.830  0.9766E+00  0.9630E+00  0.2740E+02  0.2739E+02
     10.891  0.8961E+00  0.8984E+00  0.2745E+02  0.2744E+02
     10.952  0.8402E+00  0.8823E+00  0.2750E+02  0.2750E+02
     11.014  0.7891E+00  0.8367E+00  0.2755E+02  0.2755E+02
     11.075  0.7142E+00  0.7380E+00  0.2759E+02  0.2759E+02
     11.136  0.6634E+00  0.6595E+00  0.2763E+02  0.2763E+02
     11.197  0.6289E+00  0.5898E+00  0.2767E+02  0.2767E+02
     11.258  0.5686E+00  0.5137E+00  0.2771E+02  0.2770E+02
     11.319  0.4752E+00  0.4722E+00  0.2774E+02  0.2773E+02
     11.380  0.3760E+00  0.4076E+00  0.2776E+02  0.2775E+02
     11.441  0.3425E+00  0.3578E+00  0.2778E+02  0.2778E+02
     11.502  0.3626E+00  0.3752E+00  0.2780E+02  0.2780E+02
     11.563  0.3223E+00  0.3476E+00  0.2782E+02  0.2782E+02
     11.624  0.2305E+00  0.2576E+00  0.2784E+02  0.2784E+02
     11.685  0.1707E+00  0.1961E+00  0.2785E+02  0.2785E+02
     11.746  0.1842E+00  0.2028E+00  0.2786E+02  0.2786E+02
     11.807  0.2415E+00  0.2344E+00  0.2787E+02  0.2788E+02
     11.868  0.2484E+00  0.2219E+00  0.2789E+02  0.2789E+02
     11.929  0.1850E+00  0.1665E+00  0.2790E+02  0.2790E+02
     11.991  0.1243E+00  0.1172E+00  0.2791E+02  0.2791E+02
     12.052  0.9292E-01  0.9350E-01  0.2791E+02  0.2791E+02
     12.113  0.6802E-01  0.7047E-01  0.2792E+02  0.2792E+02
     12.174  0.5876E-01  0.5928E-01  0.2792E+02  0.2792E+02
     12.235  0.8406E-01  0.8432E-01  0.2793E+02  0.2793E+02
     12.296  0.1115E+00  0.1152E+00  0.2793E+02  0.2793E+02
     12.357  0.9968E-01  0.1084E+00  0.2794E+02  0.2794E+02
     12.418  0.8648E-01  0.9453E-01  0.2794E+02  0.2794E+02
     12.479  0.8052E-01  0.7657E-01  0.2795E+02  0.2795E+02
     12.540  0.5897E-01  0.4846E-01  0.2795E+02  0.2795E+02
     12.601  0.5329E-01  0.4395E-01  0.2796E+02  0.2795E+02
     12.662  0.7727E-01  0.7133E-01  0.2796E+02  0.2796E+02
     12.723  0.9803E-01  0.1011E+00  0.2797E+02  0.2797E+02
     12.784  0.1044E+00  0.1107E+00  0.2797E+02  0.2797E+02
     12.845  0.1031E+00  0.1060E+00  0.2798E+02  0.2798E+02
     12.906  0.7521E-01  0.7529E-01  0.2798E+02  0.2798E+02
     12.968  0.3713E-01  0.3699E-01  0.2799E+02  0.2799E+02
     13.029  0.1906E-01  0.1998E-01  0.2799E+02  0.2799E+02
     13.090  0.2281E-01  0.2524E-01  0.2799E+02  0.2799E+02
     13.151  0.4197E-01  0.4412E-01  0.2799E+02  0.2799E+02
     13.212  0.5703E-01  0.5585E-01  0.2799E+02  0.2799E+02
     13.273  0.5036E-01  0.4783E-01  0.2800E+02  0.2800E+02
     13.334  0.2844E-01  0.2672E-01  0.2800E+02  0.2800E+02
     13.395  0.1114E-01  0.1040E-01  0.2800E+02  0.2800E+02
     13.456  0.3626E-02  0.3377E-02  0.2800E+02  0.2800E+02
     13.517  0.1102E-02  0.1026E-02  0.2800E+02  0.2800E+02
     13.578  0.2702E-03  0.2583E-03  0.2800E+02  0.2800E+02
     13.639  0.0000E+00  0.0000E+00  0.2800E+02  0.2800E+02
     13.700  0.0000E+00  0.0000E+00  0.2800E+02  0.2800E+02
     13.761  0.0000E+00  0.0000E+00  0.2800E+02  0.2800E+02
     13.822  0.0000E+00  0.0000E+00  0.2800E+02  0.2800E+02
     13.883  0.0000E+00  0.0000E+00  0.2800E+02  0.2800E+02
     13.945  0.0000E+00  0.0000E+00  0.2800E+02  0.2800E+02
     14.006  0.0000E+00  0.0000E+00  0.2800E+02  0.2800E+02
     14.067  0.0000E+00  0.0000E+00  0.2800E+02  0.2800E+02
     14.06664644     -4.25194063  301      6.58857040      1.00000000
     -4.252  0.0000E+00  0.0000E+00  0.0000E+00  0.0000E+00  0.0000E+00  0.0000E+00  0.0000E+00  0.0000E+00  0.0000E+00  0.0000E+00  0.0000E+00  0.0000E+00  0.0000E+00  0.0000E+00  0.0000E+00  0.0000E+00  0.0000E+00  0.0000E+00
     -4.191  0.0000E+00  0.0000E+00  0.0000E+00  0.0000E+00  0.0000E+00  0.0000E+00  0.0000E+00  0.0000E+00  0.0000E+00  0.0000E+00  0.0000E+00  0.0000E+00  0.0000E+00  0.0000E+00  0.0000E+00  0.0000E+00  0.0000E+00  0.0000E+00
     -4.130  0.0000E+00  0.0000E+00  0.0000E+00  0.0000E+00  0.0000E+00  0.0000E+00  0.0000E+00  0.0000E+00  0.0000E+00  0.0000E+00  0.0000E+00  0.0000E+00  0.0000E+00  0.0000E+00  0.0000E+00  0.0000E+00  0.0000E+00  0.0000E+00
     -4.069  0.0000E+00  0.0000E+00  0.0000E+00  0.0000E+00  0.0000E+00  0.0000E+00  0.0000E+00  0.0000E+00  0.0000E+00  0.0000E+00  0.0000E+00  0.0000E+00  0.0000E+00  0.0000E+00  0.0000E+00  0.0000E+00  0.0000E+00  0.0000E+00
     -4.008  0.0000E+00  0.0000E+00  0.0000E+00  0.0000E+00  0.0000E+00  0.0000E+00  0.0000E+00  0.0000E+00  0.0000E+00  0.0000E+00  0.0000E+00  0.0000E+00  0.0000E+00  0.0000E+00  0.0000E+00  0.0000E+00  0.0000E+00  0.0000E+00
     -3.947  0.0000E+00  0.0000E+00  0.0000E+00  0.0000E+00  0.0000E+00  0.0000E+00  0.0000E+00  0.0000E+00  0.0000E+00  0.0000E+00  0.0000E+00  0.0000E+00  0.0000E+00  0.0000E+00  0.0000E+00  0.0000E+00  0.0000E+00  0.0000E+00
     -3.886  0.0000E+00  0.0000E+00  0.0000E+00  0.0000E+00  0.0000E+00  0.0000E+00  0.0000E+00  0.0000E+00  0.0000E+00  0.0000E+00  0.0000E+00  0.0000E+00  0.0000E+00  0.0000E+00  0.0000E+00  0.0000E+00  0.0000E+00  0.0000E+00
     -3.825  0.4665E-06  0.4654E-06  0.5706E-09  0.5693E-09  0.6268E-09  0.6254E-09  0.5706E-09  0.5693E-09  0.1916E-14  0.5966E-17  0.1323E-14  0.5429E-17  0.3501E-10  0.3608E-10  0.1323E-14  0.5429E-17  0.2391E-11  0.2650E-11
     -3.763  0.1928E-05  0.1923E-05  0.4339E-08  0.4329E-08  0.4511E-08  0.4500E-08  0.4339E-08  0.4329E-08  0.2128E-10  0.2164E-10  0.2010E-10  0.2105E-10  0.1516E-09  0.1552E-09  0.2010E-10  0.2105E-10  0.1282E-10  0.1375E-10
     -3.702  0.6497E-05  0.6481E-05  0.1559E-07  0.1555E-07  0.1799E-07  0.1795E-07  0.1559E-07  0.1555E-07  0.1120E-09  0.1130E-09  0.9963E-10  0.1015E-09  0.5086E-09  0.5199E-09  0.9963E-10  0.1015E-09  0.3633E-10  0.3918E-10
     -3.641  0.2198E-04  0.2193E-04  0.5422E-07  0.5410E-07  0.6525E-07  0.6510E-07  0.5422E-07  0.5410E-07  0.3184E-09  0.3215E-09  0.3588E-09  0.3650E-09  0.1775E-08  0.1811E-08  0.3588E-09  0.3650E-09  0.2049E-09  0.2138E-09
     -3.580  0.7510E-04  0.7492E-04  0.2038E-06  0.2034E-06  0.2272E-06  0.2267E-06  0.2038E-06  0.2034E-06  0.1442E-08  0.1451E-08  0.1473E-08  0.1491E-08  0.6364E-08  0.6485E-08  0.1473E-08  0.1491E-08  0.9288E-09  0.9584E-09
     -3.519  0.2440E-03  0.2435E-03  0.6858E-06  0.6843E-06  0.7504E-06  0.7487E-06  0.6858E-06  0.6843E-06  0.5377E-08  0.5406E-08  0.5085E-08  0.5146E-08  0.2090E-07  0.2129E-07  0.5085E-08  0.5146E-08  0.3080E-08  0.3176E-08
     -3.458  0.7294E-03  0.7280E-03  0.2173E-05  0.2169E-05  0.2401E-05  0.2396E-05  0.2173E-05  0.2169E-05  0.1722E-07  0.1731E-07  0.1683E-07  0.1702E-07  0.6339E-07  0.6451E-07  0.1683E-07  0.1702E-07  0.9870E-08  0.1016E-07
     -3.397  0.1829E-02  0.1826E-02  0.6279E-05  0.6267E-05  0.6920E-05  0.6907E-05  0.6279E-05  0.6267E-05  0.5522E-07  0.5549E-07  0.5401E-07  0.5451E-07  0.1668E-06  0.1693E-06  0.5401E-07  0.5451E-07  0.3008E-07  0.3077E-07
     -3.336  0.3486E-02  0.3482E-02  0.1482E-04  0.1479E-04  0.1646E-04  0.1644E-04  0.1482E-04  0.1479E-04  0.1509E-06  0.1515E-06  0.1478E-06  0.1486E-06  0.3502E-06  0.3538E-06  0.1478E-06  0.1486E-06  0.8258E-07  0.8350E-07
     -3.275  0.5064E-02  0.5061E-02  0.2841E-04  0.2838E-04  0.3243E-04  0.3239E-04  0.2841E-04  0.2838E-04  0.3468E-06  0.3473E-06  0.3469E-06  0.3466E-06  0.6089E-06  0.6112E-06  0.3469E-06  0.3466E-06  0.2103E-06  0.2105E-06
     -3.214  0.6515E-02  0.6512E-02  0.4945E-04  0.4940E-04  0.5580E-04  0.5575E-04  0.4945E-04  0.4940E-04  0.7206E-06  0.7196E-06  0.7311E-06  0.7275E-06  0.1008E-05  0.1006E-05  0.7311E-06  0.7275E-06  0.4788E-06  0.4775E-06
     -3.153  0.8085E-02  0.8083E-02  0.7805E-04  0.7799E-04  0.8254E-04  0.8248E-04  0.7805E-04  0.7799E-04  0.1409E-05  0.1405E-05  0.1370E-05  0.1362E-05  0.1559E-05  0.1551E-05  0.1370E-05  0.1362E-05  0.8363E-06  0.8338E-06
     -3.092  0.8658E-02  0.8658E-02  0.9945E-04  0.9941E-04  0.1069E-03  0.1068E-03  0.9945E-04  0.9941E-04  0.2236E-05  0.2229E-05  0.2184E-05  0.2171E-05  0.2029E-05  0.2013E-05  0.2184E-05  0.2171E-05  0.1135E-05  0.1131E-05
     -3.031  0.8859E-02  0.8857E-02  0.1203E-03  0.1202E-03  0.1465E-03  0.1464E-03  0.1203E-03  0.1202E-03  0.3323E-05  0.3310E-05  0.3375E-05  0.3355E-05  0.2744E-05  0.2712E-05  0.3375E-05  0.3355E-05  0.1643E-05  0.1632E-05
     -2.970  0.1023E-01  0.1023E-01  0.1643E-03  0.1642E-03  0.2016E-03  0.2015E-03  0.1643E-03  0.1642E-03  0.5067E-05  0.5047E-05  0.5013E-05  0.4983E-05  0.4312E-05  0.4254E-05  0.5013E-05  0.4983E-05  0.2884E-05  0.2859E-05
     -2.909  0.1130E-01  0.1130E-01  0.2144E-03  0.2143E-03  0.2295E-03  0.2295E-03  0.2144E-03  0.2143E-03  0.6841E-05  0.6818E-05  0.6631E-05  0.6591E-05  0.6073E-05  0.5994E-05  0.6631E-05  0.6591E-05  0.4735E-05  0.4699E-05
     -2.848  0.1154E-01  0.1154E-01  0.2526E-03  0.2525E-03  0.2510E-03  0.2509E-03  0.2526E-03  0.2525E-03  0.9030E-05  0.9000E-05  0.9215E-05  0.9159E-05  0.7090E-05  0.7008E-05  0.9215E-05  0.9159E-05  0.6067E-05  0.6040E-05
     -2.786  0.1196E-01  0.1196E-01  0.2855E-03  0.2854E-03  0.3130E-03  0.3128E-03  0.2855E-03  0.2854E-03  0.1270E-04  0.1265E-04  0.1319E-04  0.1311E-04  0.8167E-05  0.8093E-05  0.1319E-04  0.1311E-04  0.6562E-05  0.6552E-05
     -2.725  0.1243E-01  0.1243E-01  0.3192E-03  0.3191E-03  0.3784E-03  0.3783E-03  0.3192E-03  0.3191E-03  0.1761E-04  0.1753E-04  0.1614E-04  0.1605E-04  0.1079E-04  0.1072E-04  0.1614E-04  0.1605E-04  0.7157E-05  0.7154E-05
     -2.664  0.1204E-01  0.1205E-01  0.3312E-03  0.3312E-03  0.4258E-03  0.4257E-03  0.3312E-03  0.3312E-03  0.2023E-04  0.2014E-04  0.1793E-04  0.1784E-04  0.1388E-04  0.1379E-04  0.1793E-04  0.1784E-04  0.8444E-05  0.8435E-05
     -2.603  0.1228E-01  0.1228E-01  0.3767E-03  0.3765E-03  0.4851E-03  0.4849E-03  0.3767E-03  0.3765E-03  0.2210E-04  0.2200E-04  0.2319E-04  0.2306E-04  0.1690E-04  0.1680E-04  0.2319E-04  0.2306E-04  0.1288E-04  0.1284E-04
     -2.542  0.1412E-01  0.1412E-01  0.4956E-03  0.4954E-03  0.5544E-03  0.5542E-03  0.4956E-03  0.4954E-03  0.2820E-04  0.2808E-04  0.3192E-04  0.3176E-04  0.2147E-04  0.2136E-04  0.3192E-04  0.3176E-04  0.2059E-04  0.2054E-04
     -2.481  0.1517E-01  0.1517E-01  0.5808E-03  0.5808E-03  0.6050E-03  0.6048E-03  0.5808E-03  0.5808E-03  0.3696E-04  0.3682E-04  0.3846E-04  0.3832E-04  0.2601E-04  0.2591E-04  0.3846E-04  0.3832E-04  0.2515E-04  0.2510E-04
     -2.420  0.1457E-01  0.1457E-01  0.6069E-03  0.6069E-03  0.6005E-03  0.6004E-03  0.6069E-03  0.6069E-03  0.4748E-04  0.4731E-04  0.4187E-04  0.4176E-04  0.2842E-04  0.2833E-04  0.4187E-04  0.4176E-04  0.2551E-04  0.2546E-04
     -2.359  0.1427E-01  0.1427E-01  0.6376E-03  0.6376E-03  0.6440E-03  0.6436E-03  0.6376E-03  0.6376E-03  0.5877E-04  0.5858E-04  0.4862E-04  0.4850E-04  0.3178E-04  0.3166E-04  0.4862E-04  0.4850E-04  0.2579E-04  0.2574E-04
     -2.298  0.1396E-01  0.1396E-01  0.6189E-03  0.6190E-03  0.8020E-03  0.8015E-03  0.6189E-03  0.6190E-03  0.6160E-04  0.6142E-04  0.5854E-04  0.5840E-04  0.3662E-04  0.3648E-04  0.5854E-04  0.5840E-04  0.2441E-04  0.2437E-04
     -2.237  0.1361E-01  0.1361E-01  0.6039E-03  0.6039E-03  0.9615E-03  0.9611E-03  0.6039E-03  0.6039E-03  0.5988E-04  0.5969E-04  0.7111E-04  0.7093E-04  0.4109E-04  0.4095E-04  0.7111E-04  0.7093E-04  0.2659E-04  0.2652E-04
     -2.176  0.1442E-01  0.1442E-01  0.7138E-03  0.7135E-03  0.1030E-02  0.1029E-02  0.7138E-03  0.7135E-03  0.7336E-04  0.7310E-04  0.8517E-04  0.8497E-04  0.4870E-04  0.4852E-04  0.8517E-04  0.8497E-04  0.3757E-04  0.3749E-04
     -2.115  0.1589E-01  0.1589E-01  0.8990E-03  0.8987E-03  0.1052E-02  0.1052E-02  0.8990E-03  0.8987E-03  0.1018E-03  0.1015E-03  0.9573E-04  0.9556E-04  0.6362E-04  0.6339E-04  0.9573E-04  0.9556E-04  0.5367E-04  0.5362E-04
     -2.054  0.1661E-01  0.1661E-01  0.1035E-02  0.1035E-02  0.1044E-02  0.1044E-02  0.1035E-02  0.1035E-02  0.1231E-03  0.1228E-03  0.1050E-03  0.1049E-03  0.7391E-04  0.7366E-04  0.1050E-03  0.1049E-03  0.6795E-04  0.6793E-04
     -1.993  0.1570E-01  0.1571E-01  0.1061E-02  0.1062E-02  0.9837E-03  0.9837E-03  0.1061E-02  0.1062E-02  0.1294E-03  0.1291E-03  0.1133E-03  0.1131E-03  0.7239E-04  0.7213E-04  0.1133E-03  0.1131E-03  0.7488E-04  0.7486E-04
     -1.932  0.1534E-01  0.1534E-01  0.1087E-02  0.1087E-02  0.1106E-02  0.1105E-02  0.1087E-02  0.1087E-02  0.1355E-03  0.1352E-03  0.1320E-03  0.1318E-03  0.7829E-04  0.7798E-04  0.1320E-03  0.1318E-03  0.8084E-04  0.8080E-04
     -1.871  0.1556E-01  0.1556E-01  0.1087E-02  0.1087E-02  0.1452E-02  0.1451E-02  0.1087E-02  0.1087E-02  0.1407E-03  0.1403E-03  0.1629E-03  0.1626E-03  0.9122E-04  0.9086E-04  0.1629E-03  0.1626E-03  0.8096E-04  0.8093E-04
     -1.809  0.1535E-01  0.1536E-01  0.1069E-02  0.1069E-02  0.1721E-02  0.1721E-02  0.1069E-02  0.1069E-02  0.1666E-03  0.1661E-03  0.1908E-03  0.1904E-03  0.9913E-04  0.9877E-04  0.1908E-03  0.1904E-03  0.7167E-04  0.7162E-04
     -1.748  0.1563E-01  0.1563E-01  0.1178E-02  0.1178E-02  0.1775E-02  0.1775E-02  0.1178E-02  0.1178E-02  0.2247E-03  0.2240E-03  0.2154E-03  0.2149E-03  0.1058E-03  0.1055E-03  0.2154E-03  0.2149E-03  0.7238E-04  0.7229E-04
     -1.687  0.1567E-01  0.1567E-01  0.1269E-02  0.1269E-02  0.1813E-02  0.1813E-02  0.1269E-02  0.1269E-02  0.2649E-03  0.2642E-03  0.2333E-03  0.2328E-03  0.1183E-03  0.1179E-03  0.2333E-03  0.2328E-03  0.8044E-04  0.8033E-04
     -1.626  0.1440E-01  0.1441E-01  0.1259E-02  0.1259E-02  0.1765E-02  0.1765E-02  0.1259E-02  0.1259E-02  0.2692E-03  0.2686E-03  0.2245E-03  0.2240E-03  0.1315E-03  0.1311E-03  0.2245E-03  0.2240E-03  0.9358E-04  0.9346E-04
     -1.565  0.1368E-01  0.1368E-01  0.1352E-02  0.1351E-02  0.1722E-02  0.1721E-02  0.1352E-02  0.1351E-02  0.2607E-03  0.2601E-03  0.2365E-03  0.2360E-03  0.1391E-03  0.1387E-03  0.2365E-03  0.2360E-03  0.1304E-03  0.1303E-03
     -1.504  0.1501E-01  0.1500E-01  0.1601E-02  0.1600E-02  0.2101E-02  0.2099E-02  0.1601E-02  0.1600E-02  0.2727E-03  0.2720E-03  0.3198E-03  0.3190E-03  0.1540E-03  0.1535E-03  0.3198E-03  0.3190E-03  0.1772E-03  0.1770E-03
     -1.443  0.1630E-01  0.1630E-01  0.1787E-02  0.1787E-02  0.2608E-02  0.2607E-02  0.1787E-02  0.1787E-02  0.3095E-03  0.3088E-03  0.4192E-03  0.4183E-03  0.1680E-03  0.1675E-03  0.4192E-03  0.4183E-03  0.1989E-03  0.1988E-03
     -1.382  0.1630E-01  0.1630E-01  0.1897E-02  0.1897E-02  0.2704E-02  0.2704E-02  0.1897E-02  0.1897E-02  0.3858E-03  0.3849E-03  0.4538E-03  0.4532E-03  0.1828E-03  0.1823E-03  0.4538E-03  0.4532E-03  0.2062E-03  0.2060E-03
     -1.321  0.1535E-01  0.1536E-01  0.1941E-02  0.1941E-02  0.2496E-02  0.2496E-02  0.1941E-02  0.1941E-02  0.4966E-03  0.4956E-03  0.4394E-03  0.4389E-03  0.1908E-03  0.1904E-03  0.4394E-03  0.4389E-03  0.1969E-03  0.1968E-03
     -1.260  0.1365E-01  0.1365E-01  0.1856E-02  0.1856E-02  0.2238E-02  0.2238E-02  0.1856E-02  0.1856E-02  0.5471E-03  0.5463E-03  0.4277E-03  0.4272E-03  0.1780E-03  0.1777E-03  0.4277E-03  0.4272E-03  0.1731E-03  0.1730E-03
     -1.199  0.1207E-01  0.1208E-01  0.1783E-02  0.1783E-02  0.2054E-02  0.2054E-02  0.1783E-02  0.1783E-02  0.5411E-03  0.5405E-03  0.4392E-03  0.4386E-03  0.1670E-03  0.1667E-03  0.4392E-03  0.4386E-03  0.1665E-03  0.1664E-03