   8   8   1   0
  0.1520700E+02  0.3924200E-09  0.3924200E-09  0.7900079E-09  0.5000000E-15
  1.000000000000000E-004
  CAR 
 unknown system                          
     16.22914873     -3.81612663  301      8.11981711      1.00000000
     -3.816  0.0000E+00  0.0000E+00  0.0000E+00  0.0000E+00
     -3.749  0.0000E+00  0.0000E+00  0.0000E+00  0.0000E+00
     -3.682  0.0000E+00  0.0000E+00  0.0000E+00  0.0000E+00
     -3.616  0.0000E+00  0.0000E+00  0.0000E+00  0.0000E+00
     -3.549  0.0000E+00  0.0000E+00  0.0000E+00  0.0000E+00
     -3.482  0.0000E+00  0.0000E+00  0.0000E+00  0.0000E+00
     -3.415  0.0000E+00  0.0000E+00  0.0000E+00  0.0000E+00
     -3.348  0.1780E-05  0.1775E-05  0.1190E-06  0.1186E-06
     -3.282  0.1875E-04  0.1869E-04  0.1372E-05  0.1368E-05
     -3.215  0.9286E-04  0.9258E-04  0.7576E-05  0.7554E-05
     -3.148  0.3513E-03  0.3503E-03  0.3105E-04  0.3096E-04
     -3.081  0.1345E-02  0.1342E-02  0.1210E-03  0.1206E-03
     -3.014  0.4930E-02  0.4916E-02  0.4504E-03  0.4491E-03
     -2.947  0.1658E-01  0.1654E-01  0.1558E-02  0.1554E-02
     -2.881  0.4588E-01  0.4579E-01  0.4624E-02  0.4614E-02
     -2.814  0.9275E-01  0.9265E-01  0.1082E-01  0.1080E-01
     -2.747  0.1359E+00  0.1359E+00  0.1991E-01  0.1988E-01
     -2.680  0.1747E+00  0.1746E+00  0.3158E-01  0.3155E-01
     -2.613  0.2241E+00  0.2240E+00  0.4655E-01  0.4652E-01
     -2.547  0.2411E+00  0.2411E+00  0.6266E-01  0.6263E-01
     -2.480  0.2402E+00  0.2402E+00  0.7871E-01  0.7867E-01
     -2.413  0.2868E+00  0.2866E+00  0.9788E-01  0.9783E-01
     -2.346  0.3253E+00  0.3253E+00  0.1196E+00  0.1196E+00
     -2.279  0.3314E+00  0.3314E+00  0.1418E+00  0.1417E+00
     -2.213  0.3460E+00  0.3460E+00  0.1649E+00  0.1648E+00
     -2.146  0.3703E+00  0.3703E+00  0.1897E+00  0.1896E+00
     -2.079  0.3599E+00  0.3600E+00  0.2137E+00  0.2137E+00
     -2.012  0.3594E+00  0.3593E+00  0.2378E+00  0.2377E+00
     -1.945  0.4276E+00  0.4274E+00  0.2663E+00  0.2663E+00
     -1.878  0.4794E+00  0.4794E+00  0.2984E+00  0.2983E+00
     -1.812  0.4617E+00  0.4618E+00  0.3292E+00  0.3292E+00
     -1.745  0.4525E+00  0.4525E+00  0.3595E+00  0.3594E+00
     -1.678  0.4556E+00  0.4556E+00  0.3900E+00  0.3899E+00
     -1.611  0.4433E+00  0.4433E+00  0.4196E+00  0.4195E+00
     -1.544  0.4743E+00  0.4742E+00  0.4513E+00  0.4512E+00
     -1.478  0.5330E+00  0.5329E+00  0.4870E+00  0.4869E+00
     -1.411  0.5834E+00  0.5834E+00  0.5260E+00  0.5259E+00
     -1.344  0.5559E+00  0.5560E+00  0.5631E+00  0.5630E+00
     -1.277  0.5376E+00  0.5376E+00  0.5991E+00  0.5990E+00
     -1.210  0.5688E+00  0.5687E+00  0.6371E+00  0.6370E+00
     -1.143  0.5817E+00  0.5816E+00  0.6760E+00  0.6759E+00
     -1.077  0.6016E+00  0.6015E+00  0.7162E+00  0.7161E+00
     -1.010  0.6295E+00  0.6294E+00  0.7583E+00  0.7582E+00
     -0.943  0.6004E+00  0.6005E+00  0.7984E+00  0.7984E+00
     -0.876  0.5561E+00  0.5561E+00  0.8356E+00  0.8355E+00
     -0.809  0.6157E+00  0.6154E+00  0.8768E+00  0.8767E+00
     -0.743  0.7282E+00  0.7280E+00  0.9255E+00  0.9254E+00
     -0.676  0.7776E+00  0.7776E+00  0.9775E+00  0.9773E+00
     -0.609  0.7637E+00  0.7638E+00  0.1029E+01  0.1028E+01
     -0.542  0.7024E+00  0.7025E+00  0.1075E+01  0.1075E+01
     -0.475  0.6264E+00  0.6265E+00  0.1117E+01  0.1117E+01
     -0.408  0.6030E+00  0.6030E+00  0.1158E+01  0.1158E+01
     -0.342  0.6636E+00  0.6634E+00  0.1202E+01  0.1202E+01
     -0.275  0.7398E+00  0.7396E+00  0.1252E+01  0.1251E+01
     -0.208  0.7628E+00  0.7628E+00  0.1303E+01  0.1302E+01
     -0.141  0.7670E+00  0.7670E+00  0.1354E+01  0.1354E+01
     -0.074  0.7583E+00  0.7583E+00  0.1405E+01  0.1404E+01
     -0.008  0.7602E+00  0.7601E+00  0.1455E+01  0.1455E+01
      0.059  0.8220E+00  0.8218E+00  0.1510E+01  0.1510E+01
      0.126  0.8310E+00  0.8310E+00  0.1566E+01  0.1566E+01
      0.193  0.7697E+00  0.7698E+00  0.1617E+01  0.1617E+01
      0.260  0.7033E+00  0.7033E+00  0.1664E+01  0.1664E+01
      0.327  0.7460E+00  0.7457E+00  0.1714E+01  0.1714E+01
      0.393  0.7791E+00  0.7791E+00  0.1766E+01  0.1766E+01
      0.460  0.7870E+00  0.7869E+00  0.1819E+01  0.1819E+01
      0.527  0.8437E+00  0.8435E+00  0.1875E+01  0.1875E+01
      0.594  0.8908E+00  0.8907E+00  0.1935E+01  0.1935E+01
      0.661  0.9104E+00  0.9104E+00  0.1996E+01  0.1996E+01
      0.727  0.9176E+00  0.9176E+00  0.2057E+01  0.2057E+01
      0.794  0.9220E+00  0.9220E+00  0.2119E+01  0.2119E+01
      0.861  0.8861E+00  0.8862E+00  0.2178E+01  0.2178E+01
      0.928  0.8553E+00  0.8553E+00  0.2235E+01  0.2235E+01
      0.995  0.9148E+00  0.9145E+00  0.2296E+01  0.2296E+01
      1.062  0.1019E+01  0.1018E+01  0.2364E+01  0.2364E+01
      1.128  0.1073E+01  0.1072E+01  0.2436E+01  0.2436E+01
      1.195  0.1057E+01  0.1057E+01  0.2507E+01  0.2507E+01
      1.262  0.9213E+00  0.9217E+00  0.2568E+01  0.2568E+01
      1.329  0.8193E+00  0.8193E+00  0.2623E+01  0.2623E+01
      1.396  0.8570E+00  0.8567E+00  0.2681E+01  0.2680E+01
      1.462  0.9328E+00  0.9325E+00  0.2743E+01  0.2743E+01
      1.529  0.9633E+00  0.9632E+00  0.2807E+01  0.2807E+01
      1.596  0.9479E+00  0.9480E+00  0.2871E+01  0.2870E+01
      1.663  0.9301E+00  0.9300E+00  0.2933E+01  0.2933E+01
      1.730  0.9790E+00  0.9787E+00  0.2998E+01  0.2998E+01
      1.797  0.1094E+01  0.1094E+01  0.3071E+01  0.3071E+01
      1.863  0.1175E+01  0.1175E+01  0.3150E+01  0.3150E+01
      1.930  0.1069E+01  0.1070E+01  0.3222E+01  0.3221E+01
      1.997  0.9347E+00  0.9349E+00  0.3284E+01  0.3284E+01
      2.064  0.9803E+00  0.9796E+00  0.3350E+01  0.3349E+01
      2.131  0.1228E+01  0.1227E+01  0.3432E+01  0.3431E+01
      2.197  0.1385E+01  0.1385E+01  0.3524E+01  0.3524E+01
      2.264  0.1309E+01  0.1309E+01  0.3612E+01  0.3611E+01
      2.331  0.1178E+01  0.1179E+01  0.3691E+01  0.3690E+01
      2.398  0.1068E+01  0.1068E+01  0.3762E+01  0.3762E+01
      2.465  0.1102E+01  0.1102E+01  0.3836E+01  0.3835E+01
      2.532  0.1184E+01  0.1183E+01  0.3915E+01  0.3914E+01
      2.598  0.1155E+01  0.1155E+01  0.3992E+01  0.3992E+01
      2.665  0.1221E+01  0.1220E+01  0.4074E+01  0.4073E+01
      2.732  0.1445E+01  0.1443E+01  0.4170E+01  0.4170E+01
      2.799  0.1622E+01  0.1621E+01  0.4279E+01  0.4278E+01
      2.866  0.1630E+01  0.1629E+01  0.4388E+01  0.4387E+01
      2.932  0.1594E+01  0.1594E+01  0.4494E+01  0.4494E+01
      2.999  0.1520E+01  0.1520E+01  0.4596E+01  0.4595E+01
      3.066  0.1421E+01  0.1421E+01  0.4691E+01  0.4690E+01
      3.133  0.1357E+01  0.1357E+01  0.4782E+01  0.4781E+01
      3.200  0.1255E+01  0.1255E+01  0.4866E+01  0.4865E+01
      3.267  0.1263E+01  0.1261E+01  0.4950E+01  0.4949E+01
      3.333  0.1563E+01  0.1560E+01  0.5055E+01  0.5053E+01
      3.400  0.2002E+01  0.1998E+01  0.5188E+01  0.5187E+01
      3.467  0.2264E+01  0.2262E+01  0.5340E+01  0.5338E+01
      3.534  0.2226E+01  0.2226E+01  0.5488E+01  0.5487E+01
      3.601  0.2057E+01  0.2058E+01  0.5626E+01  0.5625E+01
      3.667  0.1877E+01  0.1877E+01  0.5751E+01  0.5750E+01
      3.734  0.1919E+01  0.1915E+01  0.5880E+01  0.5878E+01
      3.801  0.2288E+01  0.2281E+01  0.6033E+01  0.6031E+01
      3.868  0.2634E+01  0.2628E+01  0.6209E+01  0.6206E+01
      3.935  0.2972E+01  0.2965E+01  0.6407E+01  0.6405E+01
      4.002  0.3251E+01  0.3245E+01  0.6625E+01  0.6621E+01
      4.068  0.3541E+01  0.3531E+01  0.6862E+01  0.6857E+01
      4.135  0.4073E+01  0.4056E+01  0.7134E+01  0.7128E+01
      4.202  0.5037E+01  0.5004E+01  0.7470E+01  0.7463E+01
      4.269  0.6752E+01  0.6702E+01  0.7922E+01  0.7911E+01
      4.336  0.8912E+01  0.8855E+01  0.8517E+01  0.8503E+01
      4.402  0.1117E+02  0.1112E+02  0.9264E+01  0.9246E+01
      4.469  0.1310E+02  0.1306E+02  0.1014E+02  0.1012E+02
      4.536  0.1325E+02  0.1326E+02  0.1102E+02  0.1100E+02
      4.603  0.1120E+02  0.1126E+02  0.1177E+02  0.1176E+02
      4.670  0.8570E+01  0.8634E+01  0.1235E+02  0.1233E+02
      4.737  0.6711E+01  0.6755E+01  0.1279E+02  0.1279E+02
      4.803  0.6307E+01  0.6316E+01  0.1322E+02  0.1321E+02
      4.870  0.6909E+01  0.6908E+01  0.1368E+02  0.1367E+02
      4.937  0.6557E+01  0.6580E+01  0.1412E+02  0.1411E+02
      5.004  0.5136E+01  0.5164E+01  0.1446E+02  0.1446E+02
      5.071  0.4086E+01  0.4100E+01  0.1474E+02  0.1473E+02
      5.137  0.3745E+01  0.3750E+01  0.1499E+02  0.1498E+02
      5.204  0.3556E+01  0.3563E+01  0.1522E+02  0.1522E+02
      5.271  0.3121E+01  0.3131E+01  0.1543E+02  0.1543E+02
      5.338  0.2537E+01  0.2546E+01  0.1560E+02  0.1560E+02
      5.405  0.2131E+01  0.2138E+01  0.1574E+02  0.1574E+02
      5.472  0.1931E+01  0.1934E+01  0.1587E+02  0.1587E+02
      5.538  0.1853E+01  0.1854E+01  0.1600E+02  0.1600E+02
      5.605  0.1834E+01  0.1835E+01  0.1612E+02  0.1612E+02
      5.672  0.1721E+01  0.1725E+01  0.1624E+02  0.1623E+02
      5.739  0.1486E+01  0.1490E+01  0.1634E+02  0.1633E+02
      5.806  0.1299E+01  0.1301E+01  0.1642E+02  0.1642E+02
      5.872  0.1188E+01  0.1189E+01  0.1650E+02  0.1650E+02
      5.939  0.1131E+01  0.1132E+01  0.1658E+02  0.1658E+02
      6.006  0.1083E+01  0.1084E+01  0.1665E+02  0.1665E+02
      6.073  0.1084E+01  0.1083E+01  0.1672E+02  0.1672E+02
      6.140  0.1212E+01  0.1209E+01  0.1680E+02  0.1680E+02
      6.207  0.1549E+01  0.1544E+01  0.1691E+02  0.1691E+02
      6.273  0.1902E+01  0.1898E+01  0.1703E+02  0.1703E+02
      6.340  0.1952E+01  0.1952E+01  0.1716E+02  0.1716E+02
      6.407  0.1966E+01  0.1966E+01  0.1730E+02  0.1729E+02
      6.474  0.2050E+01  0.2051E+01  0.1743E+02  0.1743E+02
      6.541  0.1973E+01  0.1976E+01  0.1756E+02  0.1756E+02
      6.607  0.1736E+01  0.1739E+01  0.1768E+02  0.1768E+02
      6.674  0.1560E+01  0.1562E+01  0.1779E+02  0.1778E+02
      6.741  0.1506E+01  0.1507E+01  0.1789E+02  0.1789E+02
      6.808  0.1610E+01  0.1609E+01  0.1799E+02  0.1799E+02
      6.875  0.1810E+01  0.1810E+01  0.1811E+02  0.1811E+02
      6.942  0.1868E+01  0.1869E+01  0.1824E+02  0.1824E+02
      7.008  0.1753E+01  0.1754E+01  0.1836E+02  0.1836E+02
      7.075  0.1623E+01  0.1624E+01  0.1847E+02  0.1846E+02
      7.142  0.1522E+01  0.1523E+01  0.1857E+02  0.1857E+02
      7.209  0.1464E+01  0.1465E+01  0.1867E+02  0.1866E+02
      7.276  0.1465E+01  0.1465E+01  0.1876E+02  0.1876E+02
      7.342  0.1596E+01  0.1596E+01  0.1887E+02  0.1887E+02
      7.409  0.1725E+01  0.1725E+01  0.1899E+02  0.1898E+02
      7.476  0.1634E+01  0.1636E+01  0.1909E+02  0.1909E+02
      7.543  0.1427E+01  0.1428E+01  0.1919E+02  0.1919E+02
      7.610  0.1273E+01  0.1274E+01  0.1927E+02  0.1927E+02
      7.676  0.1100E+01  0.1101E+01  0.1935E+02  0.1935E+02
      7.743  0.1105E+01  0.1104E+01  0.1942E+02  0.1942E+02
      7.810  0.1346E+01  0.1345E+01  0.1951E+02  0.1951E+02
      7.877  0.1525E+01  0.1525E+01  0.1961E+02  0.1961E+02
      7.944  0.1540E+01  0.1540E+01  0.1972E+02  0.1972E+02
      8.011  0.1551E+01  0.1551E+01  0.1982E+02  0.1982E+02
      8.077  0.1620E+01  0.1620E+01  0.1993E+02  0.1993E+02
      8.144  0.1670E+01  0.1670E+01  0.2004E+02  0.2004E+02
      8.211  0.1540E+01  0.1541E+01  0.2014E+02  0.2014E+02
      8.278  0.1283E+01  0.1284E+01  0.2023E+02  0.2023E+02
      8.345  0.1109E+01  0.1109E+01  0.2030E+02  0.2030E+02
      8.411  0.1083E+01  0.1083E+01  0.2038E+02  0.2038E+02
      8.478  0.1227E+01  0.1226E+01  0.2046E+02  0.2046E+02
      8.545  0.1426E+01  0.1425E+01  0.2055E+02  0.2055E+02
      8.612  0.1552E+01  0.1552E+01  0.2066E+02  0.2066E+02
      8.679  0.1543E+01  0.1544E+01  0.2076E+02  0.2076E+02
      8.746  0.1500E+01  0.1500E+01  0.2086E+02  0.2086E+02
      8.812  0.1715E+01  0.1714E+01  0.2098E+02  0.2097E+02
      8.879  0.1876E+01  0.1877E+01  0.2110E+02  0.2110E+02
      8.946  0.1722E+01  0.1723E+01  0.2122E+02  0.2122E+02
      9.013  0.1511E+01  0.1512E+01  0.2132E+02  0.2132E+02
      9.080  0.1426E+01  0.1426E+01  0.2141E+02  0.2141E+02
      9.146  0.1445E+01  0.1445E+01  0.2151E+02  0.2151E+02
      9.213  0.1566E+01  0.1566E+01  0.2161E+02  0.2161E+02
      9.280  0.1659E+01  0.1658E+01  0.2172E+02  0.2172E+02
      9.347  0.1749E+01  0.1749E+01  0.2184E+02  0.2184E+02
      9.414  0.1753E+01  0.1754E+01  0.2196E+02  0.2196E+02
      9.481  0.1570E+01  0.1571E+01  0.2206E+02  0.2206E+02
      9.547  0.1427E+01  0.1427E+01  0.2216E+02  0.2216E+02
      9.614  0.1368E+01  0.1368E+01  0.2225E+02  0.2225E+02
      9.681  0.1458E+01  0.1458E+01  0.2235E+02  0.2235E+02
      9.748  0.1673E+01  0.1672E+01  0.2246E+02  0.2246E+02
      9.815  0.1859E+01  0.1858E+01  0.2258E+02  0.2258E+02
      9.881  0.1945E+01  0.1945E+01  0.2271E+02  0.2271E+02
      9.948  0.1887E+01  0.1888E+01  0.2284E+02  0.2284E+02
     10.015  0.1671E+01  0.1671E+01  0.2295E+02  0.2295E+02
     10.082  0.1530E+01  0.1530E+01  0.2305E+02  0.2305E+02
     10.149  0.1460E+01  0.1461E+01  0.2315E+02  0.2315E+02
     10.216  0.1322E+01  0.1322E+01  0.2324E+02  0.2324E+02
     10.282  0.1348E+01  0.1347E+01  0.2333E+02  0.2333E+02
     10.349  0.1600E+01  0.1599E+01  0.2344E+02  0.2344E+02
     10.416  0.1781E+01  0.1781E+01  0.2356E+02  0.2356E+02
     10.483  0.1756E+01  0.1757E+01  0.2367E+02  0.2367E+02
     10.550  0.1728E+01  0.1728E+01  0.2379E+02  0.2379E+02
     10.616  0.1676E+01  0.1676E+01  0.2390E+02  0.2390E+02
     10.683  0.1724E+01  0.1724E+01  0.2402E+02  0.2402E+02
     10.750  0.1772E+01  0.1772E+01  0.2414E+02  0.2414E+02
     10.817  0.1734E+01  0.1734E+01  0.2425E+02  0.2425E+02
     10.884  0.1704E+01  0.1705E+01  0.2437E+02  0.2437E+02
     10.951  0.1595E+01  0.1595E+01  0.2447E+02  0.2447E+02
     11.017  0.1464E+01  0.1464E+01  0.2457E+02  0.2457E+02
     11.084  0.1484E+01  0.1484E+01  0.2467E+02  0.2467E+02
     11.151  0.1642E+01  0.1642E+01  0.2478E+02  0.2478E+02
     11.218  0.1703E+01  0.1703E+01  0.2489E+02  0.2489E+02
     11.285  0.1600E+01  0.1600E+01  0.2500E+02  0.2500E+02
     11.351  0.1616E+01  0.1616E+01  0.2511E+02  0.2511E+02
     11.418  0.1772E+01  0.1772E+01  0.2523E+02  0.2523E+02
     11.485  0.1775E+01  0.1775E+01  0.2535E+02  0.2535E+02
     11.552  0.1595E+01  0.1599E+01  0.2545E+02  0.2545E+02
     11.619  0.1433E+01  0.1447E+01  0.2555E+02  0.2555E+02
     11.686  0.1352E+01  0.1378E+01  0.2564E+02  0.2564E+02
     11.752  0.1565E+01  0.1583E+01  0.2574E+02  0.2575E+02
     11.819  0.1903E+01  0.1888E+01  0.2587E+02  0.2587E+02
     11.886  0.1999E+01  0.1966E+01  0.2600E+02  0.2600E+02
     11.953  0.2024E+01  0.1998E+01  0.2614E+02  0.2614E+02
     12.020  0.1922E+01  0.1894E+01  0.2627E+02  0.2626E+02
     12.086  0.1791E+01  0.1754E+01  0.2639E+02  0.2638E+02
     12.153  0.1699E+01  0.1690E+01  0.2650E+02  0.2649E+02
     12.220  0.1623E+01  0.1638E+01  0.2661E+02  0.2660E+02
     12.287  0.1580E+01  0.1611E+01  0.2672E+02  0.2671E+02
     12.354  0.1561E+01  0.1618E+01  0.2682E+02  0.2682E+02
     12.421  0.1576E+01  0.1576E+01  0.2692E+02  0.2693E+02
     12.487  0.1551E+01  0.1483E+01  0.2703E+02  0.2703E+02
     12.554  0.1349E+01  0.1277E+01  0.2712E+02  0.2711E+02
     12.621  0.1171E+01  0.1186E+01  0.2720E+02  0.2719E+02
     12.688  0.1071E+01  0.1211E+01  0.2727E+02  0.2727E+02
     12.755  0.1036E+01  0.1180E+01  0.2734E+02  0.2735E+02
     12.821  0.9952E+00  0.1065E+01  0.2740E+02  0.2742E+02
     12.888  0.9053E+00  0.9178E+00  0.2747E+02  0.2748E+02
     12.955  0.7909E+00  0.7456E+00  0.2752E+02  0.2753E+02
     13.022  0.6632E+00  0.6023E+00  0.2756E+02  0.2757E+02
     13.089  0.6154E+00  0.5700E+00  0.2760E+02  0.2761E+02
     13.156  0.6847E+00  0.6313E+00  0.2765E+02  0.2765E+02
     13.222  0.6544E+00  0.6248E+00  0.2769E+02  0.2769E+02
     13.289  0.5028E+00  0.5080E+00  0.2773E+02  0.2773E+02
     13.356  0.3877E+00  0.4275E+00  0.2775E+02  0.2776E+02
     13.423  0.3277E+00  0.3686E+00  0.2777E+02  0.2778E+02
     13.490  0.3000E+00  0.2856E+00  0.2779E+02  0.2780E+02
     13.556  0.3230E+00  0.2790E+00  0.2782E+02  0.2782E+02
     13.623  0.3126E+00  0.2831E+00  0.2784E+02  0.2784E+02
     13.690  0.2193E+00  0.2059E+00  0.2785E+02  0.2785E+02
     13.757  0.1576E+00  0.1527E+00  0.2786E+02  0.2786E+02
     13.824  0.1818E+00  0.1800E+00  0.2787E+02  0.2787E+02
     13.891  0.2057E+00  0.2052E+00  0.2789E+02  0.2789E+02
     13.957  0.1812E+00  0.1804E+00  0.2790E+02  0.2790E+02
     14.024  0.1204E+00  0.1185E+00  0.2791E+02  0.2791E+02
     14.091  0.7308E-01  0.7084E-01  0.2791E+02  0.2791E+02
     14.158  0.4927E-01  0.4819E-01  0.2792E+02  0.2792E+02
     14.225  0.4091E-01  0.3587E-01  0.2792E+02  0.2792E+02
     14.291  0.6238E-01  0.5455E-01  0.2792E+02  0.2792E+02
     14.358  0.1014E+00  0.1055E+00  0.2793E+02  0.2793E+02
     14.425  0.1314E+00  0.1420E+00  0.2794E+02  0.2794E+02
     14.492  0.1182E+00  0.1243E+00  0.2795E+02  0.2795E+02
     14.559  0.8495E-01  0.8373E-01  0.2795E+02  0.2795E+02
     14.626  0.8087E-01  0.7498E-01  0.2796E+02  0.2796E+02
     14.692  0.7006E-01  0.7056E-01  0.2796E+02  0.2796E+02
     14.759  0.3885E-01  0.4236E-01  0.2797E+02  0.2797E+02
     14.826  0.2998E-01  0.3163E-01  0.2797E+02  0.2797E+02
     14.893  0.5535E-01  0.5575E-01  0.2797E+02  0.2797E+02
     14.960  0.9050E-01  0.9059E-01  0.2798E+02  0.2798E+02
     15.026  0.8059E-01  0.8069E-01  0.2798E+02  0.2798E+02
     15.093  0.3987E-01  0.3971E-01  0.2799E+02  0.2799E+02
     15.160  0.1931E-01  0.1844E-01  0.2799E+02  0.2799E+02
     15.227  0.2614E-01  0.2364E-01  0.2799E+02  0.2799E+02
     15.294  0.5349E-01  0.5024E-01  0.2799E+02  0.2799E+02
     15.361  0.6367E-01  0.6484E-01  0.2800E+02  0.2800E+02
     15.427  0.3634E-01  0.3975E-01  0.2800E+02  0.2800E+02
     15.494  0.1272E-01  0.1442E-01  0.2800E+02  0.2800E+02
     15.561  0.3641E-02  0.4176E-02  0.2800E+02  0.2800E+02
     15.628  0.9793E-03  0.1127E-02  0.2800E+02  0.2800E+02
     15.695  0.2590E-03  0.2983E-03  0.2800E+02  0.2800E+02
     15.761  0.0000E+00  0.0000E+00  0.2800E+02  0.2800E+02
     15.828  0.0000E+00  0.0000E+00  0.2800E+02  0.2800E+02
     15.895  0.0000E+00  0.0000E+00  0.2800E+02  0.2800E+02
     15.962  0.0000E+00  0.0000E+00  0.2800E+02  0.2800E+02
     16.029  0.0000E+00  0.0000E+00  0.2800E+02  0.2800E+02
     16.096  0.0000E+00  0.0000E+00  0.2800E+02  0.2800E+02
     16.162  0.0000E+00  0.0000E+00  0.2800E+02  0.2800E+02
     16.229  0.0000E+00  0.0000E+00  0.2800E+02  0.2800E+02
     16.22914873     -3.81612663  301      8.11981711      1.00000000
     -3.816  0.0000E+00  0.0000E+00  0.0000E+00  0.0000E+00  0.0000E+00  0.0000E+00  0.0000E+00  0.0000E+00  0.0000E+00  0.0000E+00  0.0000E+00  0.0000E+00  0.0000E+00  0.0000E+00  0.0000E+00  0.0000E+00  0.0000E+00  0.0000E+00
     -3.749  0.0000E+00  0.0000E+00  0.0000E+00  0.0000E+00  0.0000E+00  0.0000E+00  0.0000E+00  0.0000E+00  0.0000E+00  0.0000E+00  0.0000E+00  0.0000E+00  0.0000E+00  0.0000E+00  0.0000E+00  0.0000E+00  0.0000E+00  0.0000E+00
     -3.682  0.0000E+00  0.0000E+00  0.0000E+00  0.0000E+00  0.0000E+00  0.0000E+00  0.0000E+00  0.0000E+00  0.0000E+00  0.0000E+00  0.0000E+00  0.0000E+00  0.0000E+00  0.0000E+00  0.0000E+00  0.0000E+00  0.0000E+00  0.0000E+00
     -3.616  0.0000E+00  0.0000E+00  0.0000E+00  0.0000E+00  0.0000E+00  0.0000E+00  0.0000E+00  0.0000E+00  0.0000E+00  0.0000E+00  0.0000E+00  0.0000E+00  0.0000E+00  0.0000E+00  0.0000E+00  0.0000E+00  0.0000E+00  0.0000E+00
     -3.549  0.0000E+00  0.0000E+00  0.0000E+00  0.0000E+00  0.0000E+00  0.0000E+00  0.0000E+00  0.0000E+00  0.0000E+00  0.0000E+00  0.0000E+00  0.0000E+00  0.0000E+00  0.0000E+00  0.0000E+00  0.0000E+00  0.0000E+00  0.0000E+00
     -3.482  0.0000E+00  0.0000E+00  0.0000E+00  0.0000E+00  0.0000E+00  0.0000E+00  0.0000E+00  0.0000E+00  0.0000E+00  0.0000E+00  0.0000E+00  0.0000E+00  0.0000E+00  0.0000E+00  0.0000E+00  0.0000E+00  0.0000E+00  0.0000E+00
     -3.415  0.0000E+00  0.0000E+00  0.0000E+00  0.0000E+00  0.0000E+00  0.0000E+00  0.0000E+00  0.0000E+00  0.0000E+00  0.0000E+00  0.0000E+00  0.0000E+00  0.0000E+00  0.0000E+00  0.0000E+00  0.0000E+00  0.0000E+00  0.0000E+00
     -3.348  0.7440E-07  0.7418E-07  0.5481E-22  0.9138E-23  0.8147E-22  0.6300E-23  0.5481E-22  0.9138E-23  0.1837E-19  0.9477E-18  0.1134E-18  0.4053E-17  0.5316E-11  0.5362E-11  0.1134E-18  0.4053E-17  0.3950E-19  0.9402E-18
     -3.282  0.7790E-06  0.7766E-06  0.1085E-08  0.1082E-08  0.1206E-08  0.1203E-08  0.1085E-08  0.1082E-08  0.3959E-16  0.4411E-16  0.1153E-15  0.1115E-15  0.6215E-10  0.6294E-10  0.1153E-15  0.1115E-15  0.5035E-11  0.5062E-11
     -3.215  0.3845E-05  0.3833E-05  0.8780E-08  0.8754E-08  0.9212E-08  0.9184E-08  0.8780E-08  0.8754E-08  0.3812E-10  0.3823E-10  0.3910E-10  0.3853E-10  0.3150E-09  0.3207E-09  0.3910E-10  0.3853E-10  0.2894E-10  0.2905E-10
     -3.148  0.1453E-04  0.1449E-04  0.3517E-07  0.3506E-07  0.4004E-07  0.3992E-07  0.3517E-07  0.3506E-07  0.2201E-09  0.2203E-09  0.2060E-09  0.2026E-09  0.1191E-08  0.1208E-08  0.2060E-09  0.2026E-09  0.9514E-10  0.9551E-10
     -3.081  0.5562E-04  0.5545E-04  0.1478E-06  0.1474E-06  0.1620E-06  0.1615E-06  0.1478E-06  0.1474E-06  0.8738E-09  0.8744E-09  0.8882E-09  0.8775E-09  0.4870E-08  0.4935E-08  0.8882E-09  0.8775E-09  0.6920E-09  0.6917E-09
     -3.014  0.2037E-03  0.2031E-03  0.5556E-06  0.5539E-06  0.6139E-06  0.6120E-06  0.5556E-06  0.5539E-06  0.3689E-08  0.3687E-08  0.3703E-08  0.3659E-08  0.1778E-07  0.1803E-07  0.3703E-08  0.3659E-08  0.2428E-08  0.2428E-08
     -2.947  0.6846E-03  0.6828E-03  0.1985E-05  0.1979E-05  0.2181E-05  0.2175E-05  0.1985E-05  0.1979E-05  0.1320E-07  0.1320E-07  0.1345E-07  0.1329E-07  0.6055E-07  0.6140E-07  0.1345E-07  0.1329E-07  0.8744E-08  0.8741E-08
     -2.881  0.1891E-02  0.1887E-02  0.6389E-05  0.6373E-05  0.6960E-05  0.6943E-05  0.6389E-05  0.6373E-05  0.4739E-07  0.4739E-07  0.4753E-07  0.4700E-07  0.1747E-06  0.1772E-06  0.4753E-07  0.4700E-07  0.2888E-07  0.2886E-07
     -2.814  0.3809E-02  0.3804E-02  0.1622E-04  0.1619E-04  0.1781E-04  0.1777E-04  0.1622E-04  0.1619E-04  0.1443E-06  0.1443E-06  0.1430E-06  0.1416E-06  0.3861E-06  0.3910E-06  0.1430E-06  0.1416E-06  0.8252E-07  0.8238E-07
     -2.747  0.5547E-02  0.5543E-02  0.3167E-04  0.3162E-04  0.3610E-04  0.3605E-04  0.3167E-04  0.3162E-04  0.3431E-06  0.3428E-06  0.3460E-06  0.3436E-06  0.6751E-06  0.6796E-06  0.3460E-06  0.3436E-06  0.2218E-06  0.2212E-06
     -2.680  0.7063E-02  0.7059E-02  0.5594E-04  0.5586E-04  0.6380E-04  0.6371E-04  0.5594E-04  0.5586E-04  0.7255E-06  0.7237E-06  0.7480E-06  0.7454E-06  0.1136E-05  0.1137E-05  0.7480E-06  0.7454E-06  0.5474E-06  0.5462E-06
     -2.613  0.8985E-02  0.8981E-02  0.9219E-04  0.9210E-04  0.9640E-04  0.9631E-04  0.9219E-04  0.9210E-04  0.1497E-05  0.1492E-05  0.1462E-05  0.1459E-05  0.1826E-05  0.1826E-05  0.1462E-05  0.1459E-05  0.1006E-05  0.1006E-05
     -2.547  0.9591E-02  0.9591E-02  0.1172E-03  0.1172E-03  0.1214E-03  0.1213E-03  0.1172E-03  0.1172E-03  0.2408E-05  0.2402E-05  0.2330E-05  0.2324E-05  0.2337E-05  0.2338E-05  0.2330E-05  0.2324E-05  0.1322E-05  0.1323E-05
     -2.480  0.9439E-02  0.9437E-02  0.1355E-03  0.1355E-03  0.1649E-03  0.1647E-03  0.1355E-03  0.1355E-03  0.3473E-05  0.3466E-05  0.3586E-05  0.3574E-05  0.3027E-05  0.3026E-05  0.3586E-05  0.3574E-05  0.1804E-05  0.1804E-05
     -2.413  0.1113E-01  0.1113E-01  0.1885E-03  0.1884E-03  0.2380E-03  0.2378E-03  0.1885E-03  0.1884E-03  0.5487E-05  0.5480E-05  0.5491E-05  0.5474E-05  0.4958E-05  0.4959E-05  0.5491E-05  0.5474E-05  0.3259E-05  0.3265E-05
     -2.346  0.1252E-01  0.1252E-01  0.2518E-03  0.2516E-03  0.2714E-03  0.2714E-03  0.2518E-03  0.2516E-03  0.7401E-05  0.7391E-05  0.7128E-05  0.7113E-05  0.7291E-05  0.7303E-05  0.7128E-05  0.7113E-05  0.5733E-05  0.5746E-05
     -2.279  0.1263E-01  0.1263E-01  0.2970E-03  0.2969E-03  0.2836E-03  0.2835E-03  0.2970E-03  0.2969E-03  0.9550E-05  0.9533E-05  0.9719E-05  0.9709E-05  0.8477E-05  0.8488E-05  0.9719E-05  0.9709E-05  0.7602E-05  0.7614E-05
     -2.213  0.1303E-01  0.1302E-01  0.3331E-03  0.3330E-03  0.3569E-03  0.3566E-03  0.3331E-03  0.3330E-03  0.1339E-04  0.1337E-04  0.1447E-04  0.1447E-04  0.9349E-05  0.9350E-05  0.1447E-04  0.1447E-04  0.8055E-05  0.8059E-05
     -2.146  0.1378E-01  0.1378E-01  0.3785E-03  0.3784E-03  0.4410E-03  0.4408E-03  0.3785E-03  0.3784E-03  0.1942E-04  0.1939E-04  0.1816E-04  0.1817E-04  0.1250E-04  0.1250E-04  0.1816E-04  0.1817E-04  0.8619E-05  0.8618E-05
     -2.079  0.1324E-01  0.1324E-01  0.3865E-03  0.3865E-03  0.4903E-03  0.4901E-03  0.3865E-03  0.3865E-03  0.2264E-04  0.2263E-04  0.1923E-04  0.1923E-04  0.1650E-04  0.1651E-04  0.1923E-04  0.1923E-04  0.9526E-05  0.9520E-05
     -2.012  0.1301E-01  0.1301E-01  0.4163E-03  0.4161E-03  0.5578E-03  0.5575E-03  0.4163E-03  0.4161E-03  0.2331E-04  0.2329E-04  0.2417E-04  0.2414E-04  0.1979E-04  0.1979E-04  0.2417E-04  0.2414E-04  0.1406E-04  0.1404E-04
     -1.945  0.1530E-01  0.1530E-01  0.5686E-03  0.5682E-03  0.6425E-03  0.6422E-03  0.5686E-03  0.5682E-03  0.2963E-04  0.2958E-04  0.3475E-04  0.3472E-04  0.2517E-04  0.2516E-04  0.3475E-04  0.3472E-04  0.2457E-04  0.2453E-04
     -1.878  0.1700E-01  0.1700E-01  0.6917E-03  0.6915E-03  0.7167E-03  0.7166E-03  0.6917E-03  0.6915E-03  0.3932E-04  0.3928E-04  0.4322E-04  0.4324E-04  0.3142E-04  0.3143E-04  0.4322E-04  0.4324E-04  0.3174E-04  0.3172E-04
     -1.812  0.1620E-01  0.1620E-01  0.7141E-03  0.7141E-03  0.7037E-03  0.7039E-03  0.7141E-03  0.7141E-03  0.5070E-04  0.5066E-04  0.4617E-04  0.4621E-04  0.3416E-04  0.3419E-04  0.4617E-04  0.4621E-04  0.3162E-04  0.3160E-04
     -1.745  0.1566E-01  0.1566E-01  0.7564E-03  0.7563E-03  0.7091E-03  0.7089E-03  0.7564E-03  0.7563E-03  0.6483E-04  0.6479E-04  0.5242E-04  0.5240E-04  0.3731E-04  0.3732E-04  0.5242E-04  0.5240E-04  0.3225E-04  0.3223E-04
     -1.678  0.1550E-01  0.1550E-01  0.7450E-03  0.7452E-03  0.8876E-03  0.8871E-03  0.7450E-03  0.7452E-03  0.7039E-04  0.7039E-04  0.6328E-04  0.6325E-04  0.4361E-04  0.4360E-04  0.6328E-04  0.6325E-04  0.3010E-04  0.3010E-04
     -1.611  0.1476E-01  0.1476E-01  0.6823E-03  0.6823E-03  0.1109E-02  0.1109E-02  0.6823E-03  0.6823E-03  0.6377E-04  0.6379E-04  0.7632E-04  0.7631E-04  0.4913E-04  0.4913E-04  0.7632E-04  0.7631E-04  0.2981E-04  0.2980E-04
     -1.544  0.1555E-01  0.1554E-01  0.7889E-03  0.7885E-03  0.1215E-02  0.1215E-02  0.7889E-03  0.7885E-03  0.7397E-04  0.7396E-04  0.9385E-04  0.9385E-04  0.5636E-04  0.5636E-04  0.9385E-04  0.9385E-04  0.4210E-04  0.4207E-04
     -1.478  0.1729E-01  0.1728E-01  0.1019E-02  0.1018E-02  0.1230E-02  0.1230E-02  0.1019E-02  0.1018E-02  0.1068E-03  0.1067E-03  0.1057E-03  0.1057E-03  0.7421E-04  0.7419E-04  0.1057E-03  0.1057E-03  0.6239E-04  0.6235E-04
     -1.411  0.1874E-01  0.1873E-01  0.1224E-02  0.1224E-02  0.1251E-02  0.1251E-02  0.1224E-02  0.1224E-02  0.1368E-03  0.1369E-03  0.1167E-03  0.1166E-03  0.9234E-04  0.9236E-04  0.1167E-03  0.1166E-03  0.8270E-04  0.8268E-04
     -1.344  0.1765E-01  0.1766E-01  0.1254E-02  0.1254E-02  0.1139E-02  0.1139E-02  0.1254E-02  0.1254E-02  0.1428E-03  0.1429E-03  0.1239E-03  0.1239E-03  0.8843E-04  0.8847E-04  0.1239E-03  0.1239E-03  0.9194E-04  0.9195E-04
     -1.277  0.1674E-01  0.1674E-01  0.1271E-02  0.1271E-02  0.1158E-02  0.1158E-02  0.1271E-02  0.1271E-02  0.1493E-03  0.1493E-03  0.1390E-03  0.1390E-03  0.8980E-04  0.8978E-04  0.1390E-03  0.1390E-03  0.9933E-04  0.9937E-04
     -1.210  0.1721E-01  0.1721E-01  0.1294E-02  0.1294E-02  0.1542E-02  0.1541E-02  0.1294E-02  0.1294E-02  0.1517E-03  0.1518E-03  0.1735E-03  0.1736E-03  0.1077E-03  0.1077E-03  0.1735E-03  0.1736E-03  0.1051E-03  0.1052E-03
     -1.143  0.1705E-01  0.1705E-01  0.1234E-02  0.1234E-02  0.1971E-02  0.1970E-02  0.1234E-02  0.1234E-02  0.1675E-03  0.1674E-03  0.2085E-03  0.2088E-03  0.1213E-03  0.1214E-03  0.2085E-03  0.2088E-03  0.9130E-04  0.9144E-04
     -1.077  0.1730E-01  0.1730E-01  0.1337E-02  0.1336E-02  0.2080E-02  0.2080E-02  0.1337E-02  0.1336E-02  0.2333E-03  0.2332E-03  0.2355E-03  0.2356E-03  0.1305E-03  0.1305E-03  0.2355E-03  0.2356E-03  0.8690E-04  0.8697E-04
     -1.010  0.1786E-01  0.1786E-01  0.1506E-02  0.1506E-02  0.2093E-02  0.2093E-02  0.1506E-02  0.1506E-02  0.2946E-03  0.2945E-03  0.2629E-03  0.2629E-03  0.1433E-03  0.1432E-03  0.2629E-03  0.2629E-03  0.9796E-04  0.9802E-04
     -0.943  0.1662E-01  0.1663E-01  0.1479E-02  0.1479E-02  0.2085E-02  0.2085E-02  0.1479E-02  0.1479E-02  0.3049E-03  0.3050E-03  0.2560E-03  0.2560E-03  0.1634E-03  0.1632E-03  0.2560E-03  0.2560E-03  0.1068E-03  0.1069E-03
     -0.876  0.1498E-01  0.1498E-01  0.1492E-02  0.1491E-02  0.1885E-02  0.1886E-02  0.1492E-02  0.1491E-02  0.2882E-03  0.2883E-03  0.2420E-03  0.2420E-03  0.1713E-03  0.1711E-03  0.2420E-03  0.2420E-03  0.1419E-03  0.1419E-03
     -0.809  0.1604E-01  0.1603E-01  0.1776E-02  0.1775E-02  0.2089E-02  0.2087E-02  0.1776E-02  0.1775E-02  0.2884E-03  0.2885E-03  0.3126E-03  0.3123E-03  0.1828E-03  0.1825E-03  0.3126E-03  0.3123E-03  0.2101E-03  0.2101E-03
     -0.743  0.1816E-01  0.1816E-01  0.2053E-02  0.2052E-02  0.2850E-02  0.2848E-02  0.2053E-02  0.2052E-02  0.3206E-03  0.3206E-03  0.4448E-03  0.4445E-03  0.2014E-03  0.2011E-03  0.4448E-03  0.4445E-03  0.2498E-03  0.2499E-03
     -0.676  0.1874E-01  0.1874E-01  0.2197E-02  0.2197E-02  0.3265E-02  0.3265E-02  0.2197E-02  0.2197E-02  0.3878E-03  0.3877E-03  0.5182E-03  0.5183E-03  0.2206E-03  0.2204E-03  0.5182E-03  0.5183E-03  0.2621E-03  0.2624E-03
     -0.609  0.1809E-01  0.1809E-01  0.2309E-02  0.2309E-02  0.3045E-02  0.3046E-02  0.2309E-02  0.2309E-02  0.5215E-03  0.5213E-03  0.5038E-03  0.5040E-03  0.2433E-03  0.2432E-03  0.5038E-03  0.5040E-03  0.2628E-03  0.2631E-03
     -0.542  0.1618E-01  0.1618E-01  0.2221E-02  0.2221E-02  0.2772E-02  0.2772E-02  0.2221E-02  0.2221E-02  0.6169E-03  0.6170E-03  0.4837E-03  0.4838E-03  0.2305E-03  0.2305E-03  0.4837E-03  0.4838E-03  0.2268E-03  0.2270E-03
     -0.475  0.1396E-01  0.1396E-01  0.2054E-02  0.2054E-02  0.2514E-02  0.2515E-02  0.2054E-02  0.2054E-02  0.5940E-03  0.5941E-03  0.4800E-03  0.4799E-03  0.2085E-03  0.2085E-03  0.4800E-03  0.4799E-03  0.2104E-03  0.2104E-03