   8   8   1   0
  0.1969351E+02  0.4277378E-09  0.4277378E-09  0.8611086E-09  0.5000000E-15
  1.000000000000000E-004
  CAR 
 unknown system                          
     12.49415966     -4.52968939  301      5.52290159      1.00000000
     -4.530  0.0000E+00  0.0000E+00  0.0000E+00  0.0000E+00
     -4.473  0.0000E+00  0.0000E+00  0.0000E+00  0.0000E+00
     -4.416  0.0000E+00  0.0000E+00  0.0000E+00  0.0000E+00
     -4.359  0.0000E+00  0.0000E+00  0.0000E+00  0.0000E+00
     -4.303  0.0000E+00  0.0000E+00  0.0000E+00  0.0000E+00
     -4.246  0.0000E+00  0.0000E+00  0.0000E+00  0.0000E+00
     -4.189  0.2565E-05  0.2553E-05  0.1456E-06  0.1449E-06
     -4.132  0.2478E-04  0.2467E-04  0.1552E-05  0.1545E-05
     -4.076  0.1194E-03  0.1189E-03  0.8328E-05  0.8290E-05
     -4.019  0.3220E-03  0.3206E-03  0.2660E-04  0.2648E-04
     -3.962  0.1048E-02  0.1043E-02  0.8606E-04  0.8567E-04
     -3.905  0.3224E-02  0.3210E-02  0.2690E-03  0.2678E-03
     -3.849  0.9513E-02  0.9472E-02  0.8088E-03  0.8053E-03
     -3.792  0.2613E-01  0.2603E-01  0.2292E-02  0.2282E-02
     -3.735  0.6100E-01  0.6082E-01  0.5753E-02  0.5733E-02
     -3.678  0.1121E+00  0.1118E+00  0.1211E-01  0.1208E-01
     -3.622  0.1632E+00  0.1630E+00  0.2137E-01  0.2133E-01
     -3.565  0.2125E+00  0.2122E+00  0.3343E-01  0.3338E-01
     -3.508  0.2618E+00  0.2617E+00  0.4829E-01  0.4822E-01
     -3.452  0.2850E+00  0.2850E+00  0.6446E-01  0.6440E-01
     -3.395  0.3016E+00  0.3015E+00  0.8158E-01  0.8151E-01
     -3.338  0.3471E+00  0.3469E+00  0.1013E+00  0.1012E+00
     -3.281  0.3836E+00  0.3835E+00  0.1230E+00  0.1230E+00
     -3.225  0.3992E+00  0.3991E+00  0.1457E+00  0.1456E+00
     -3.168  0.4194E+00  0.4193E+00  0.1695E+00  0.1694E+00
     -3.111  0.4373E+00  0.4372E+00  0.1943E+00  0.1942E+00
     -3.054  0.4347E+00  0.4347E+00  0.2190E+00  0.2189E+00
     -2.998  0.4568E+00  0.4565E+00  0.2449E+00  0.2448E+00
     -2.941  0.5211E+00  0.5209E+00  0.2745E+00  0.2744E+00
     -2.884  0.5570E+00  0.5570E+00  0.3062E+00  0.3060E+00
     -2.827  0.5473E+00  0.5474E+00  0.3372E+00  0.3371E+00
     -2.771  0.5466E+00  0.5466E+00  0.3683E+00  0.3681E+00
     -2.714  0.5452E+00  0.5452E+00  0.3992E+00  0.3991E+00
     -2.657  0.5498E+00  0.5497E+00  0.4304E+00  0.4303E+00
     -2.600  0.5910E+00  0.5908E+00  0.4640E+00  0.4638E+00
     -2.544  0.6508E+00  0.6506E+00  0.5009E+00  0.5008E+00
     -2.487  0.6769E+00  0.6769E+00  0.5394E+00  0.5392E+00
     -2.430  0.6592E+00  0.6592E+00  0.5768E+00  0.5766E+00
     -2.373  0.6693E+00  0.6692E+00  0.6148E+00  0.6146E+00
     -2.317  0.6958E+00  0.6957E+00  0.6543E+00  0.6541E+00
     -2.260  0.7070E+00  0.7070E+00  0.6944E+00  0.6943E+00
     -2.203  0.7303E+00  0.7302E+00  0.7359E+00  0.7357E+00
     -2.146  0.7382E+00  0.7383E+00  0.7778E+00  0.7776E+00
     -2.090  0.7058E+00  0.7059E+00  0.8179E+00  0.8177E+00
     -2.033  0.7225E+00  0.7222E+00  0.8589E+00  0.8587E+00
     -1.976  0.8216E+00  0.8212E+00  0.9055E+00  0.9053E+00
     -1.919  0.8985E+00  0.8983E+00  0.9565E+00  0.9563E+00
     -1.863  0.9063E+00  0.9063E+00  0.1008E+01  0.1008E+01
     -1.806  0.8631E+00  0.8635E+00  0.1057E+01  0.1057E+01
     -1.749  0.7922E+00  0.7925E+00  0.1102E+01  0.1102E+01
     -1.692  0.7494E+00  0.7495E+00  0.1145E+01  0.1144E+01
     -1.636  0.7828E+00  0.7825E+00  0.1189E+01  0.1189E+01
     -1.579  0.8523E+00  0.8521E+00  0.1237E+01  0.1237E+01
     -1.522  0.8908E+00  0.8907E+00  0.1288E+01  0.1288E+01
     -1.465  0.9105E+00  0.9104E+00  0.1340E+01  0.1339E+01
     -1.409  0.9112E+00  0.9112E+00  0.1391E+01  0.1391E+01
     -1.352  0.9044E+00  0.9043E+00  0.1443E+01  0.1443E+01
     -1.295  0.9425E+00  0.9423E+00  0.1496E+01  0.1496E+01
     -1.238  0.9637E+00  0.9638E+00  0.1551E+01  0.1551E+01
     -1.182  0.8823E+00  0.8829E+00  0.1601E+01  0.1601E+01
     -1.125  0.7579E+00  0.7583E+00  0.1644E+01  0.1644E+01
     -1.068  0.7424E+00  0.7422E+00  0.1686E+01  0.1686E+01
     -1.011  0.8136E+00  0.8133E+00  0.1732E+01  0.1732E+01
     -0.955  0.8980E+00  0.8977E+00  0.1783E+01  0.1783E+01
     -0.898  0.9863E+00  0.9860E+00  0.1839E+01  0.1839E+01
     -0.841  0.1037E+01  0.1037E+01  0.1898E+01  0.1898E+01
     -0.784  0.1059E+01  0.1059E+01  0.1958E+01  0.1958E+01
     -0.728  0.1063E+01  0.1063E+01  0.2019E+01  0.2019E+01
     -0.671  0.1033E+01  0.1033E+01  0.2077E+01  0.2077E+01
     -0.614  0.1029E+01  0.1029E+01  0.2136E+01  0.2136E+01
     -0.557  0.1061E+01  0.1061E+01  0.2196E+01  0.2196E+01
     -0.501  0.1070E+01  0.1070E+01  0.2257E+01  0.2257E+01
     -0.444  0.1102E+01  0.1102E+01  0.2320E+01  0.2319E+01
     -0.387  0.1172E+01  0.1172E+01  0.2386E+01  0.2386E+01
     -0.330  0.1196E+01  0.1196E+01  0.2454E+01  0.2454E+01
     -0.274  0.1146E+01  0.1146E+01  0.2519E+01  0.2519E+01
     -0.217  0.1029E+01  0.1029E+01  0.2577E+01  0.2577E+01
     -0.160  0.9336E+00  0.9337E+00  0.2630E+01  0.2630E+01
     -0.103  0.9765E+00  0.9761E+00  0.2686E+01  0.2686E+01
     -0.047  0.1076E+01  0.1076E+01  0.2747E+01  0.2747E+01
      0.010  0.1090E+01  0.1091E+01  0.2809E+01  0.2809E+01
      0.067  0.1038E+01  0.1038E+01  0.2868E+01  0.2868E+01
      0.123  0.9977E+00  0.9978E+00  0.2925E+01  0.2924E+01
      0.180  0.1034E+01  0.1033E+01  0.2983E+01  0.2983E+01
      0.237  0.1184E+01  0.1183E+01  0.3050E+01  0.3050E+01
      0.294  0.1321E+01  0.1320E+01  0.3125E+01  0.3125E+01
      0.350  0.1291E+01  0.1291E+01  0.3199E+01  0.3198E+01
      0.407  0.1172E+01  0.1173E+01  0.3265E+01  0.3265E+01
      0.464  0.1154E+01  0.1154E+01  0.3331E+01  0.3330E+01
      0.521  0.1308E+01  0.1307E+01  0.3405E+01  0.3405E+01
      0.577  0.1490E+01  0.1489E+01  0.3490E+01  0.3489E+01
      0.634  0.1538E+01  0.1538E+01  0.3577E+01  0.3577E+01
      0.691  0.1464E+01  0.1464E+01  0.3660E+01  0.3660E+01
      0.748  0.1327E+01  0.1328E+01  0.3735E+01  0.3735E+01
      0.804  0.1254E+01  0.1254E+01  0.3807E+01  0.3806E+01
      0.861  0.1267E+01  0.1267E+01  0.3878E+01  0.3878E+01
      0.918  0.1263E+01  0.1263E+01  0.3950E+01  0.3950E+01
      0.975  0.1259E+01  0.1259E+01  0.4022E+01  0.4021E+01
      1.031  0.1357E+01  0.1357E+01  0.4099E+01  0.4098E+01
      1.088  0.1522E+01  0.1521E+01  0.4185E+01  0.4185E+01
      1.145  0.1714E+01  0.1713E+01  0.4282E+01  0.4282E+01
      1.202  0.1812E+01  0.1812E+01  0.4385E+01  0.4385E+01
      1.258  0.1678E+01  0.1679E+01  0.4481E+01  0.4480E+01
      1.315  0.1454E+01  0.1455E+01  0.4563E+01  0.4563E+01
      1.372  0.1332E+01  0.1333E+01  0.4639E+01  0.4639E+01
      1.429  0.1346E+01  0.1345E+01  0.4715E+01  0.4715E+01
      1.485  0.1385E+01  0.1385E+01  0.4794E+01  0.4794E+01
      1.542  0.1357E+01  0.1357E+01  0.4871E+01  0.4871E+01
      1.599  0.1320E+01  0.1320E+01  0.4946E+01  0.4946E+01
      1.656  0.1433E+01  0.1432E+01  0.5027E+01  0.5027E+01
      1.712  0.1763E+01  0.1761E+01  0.5127E+01  0.5127E+01
      1.769  0.2130E+01  0.2129E+01  0.5248E+01  0.5248E+01
      1.826  0.2185E+01  0.2186E+01  0.5372E+01  0.5372E+01
      1.883  0.2009E+01  0.2010E+01  0.5486E+01  0.5486E+01
      1.939  0.1898E+01  0.1898E+01  0.5594E+01  0.5594E+01
      1.996  0.1867E+01  0.1867E+01  0.5700E+01  0.5700E+01
      2.053  0.1866E+01  0.1866E+01  0.5806E+01  0.5806E+01
      2.110  0.2014E+01  0.2013E+01  0.5920E+01  0.5920E+01
      2.166  0.2293E+01  0.2292E+01  0.6051E+01  0.6050E+01
      2.223  0.2630E+01  0.2628E+01  0.6200E+01  0.6199E+01
      2.280  0.3015E+01  0.3013E+01  0.6371E+01  0.6370E+01
      2.337  0.3404E+01  0.3403E+01  0.6564E+01  0.6564E+01
      2.393  0.3890E+01  0.3888E+01  0.6785E+01  0.6784E+01
      2.450  0.4620E+01  0.4617E+01  0.7047E+01  0.7046E+01
      2.507  0.5731E+01  0.5726E+01  0.7373E+01  0.7371E+01
      2.564  0.7569E+01  0.7562E+01  0.7802E+01  0.7800E+01
      2.620  0.1022E+02  0.1021E+02  0.8382E+01  0.8380E+01
      2.677  0.1342E+02  0.1341E+02  0.9144E+01  0.9141E+01
      2.734  0.1624E+02  0.1623E+02  0.1007E+02  0.1006E+02
      2.791  0.1696E+02  0.1696E+02  0.1103E+02  0.1102E+02
      2.847  0.1508E+02  0.1509E+02  0.1188E+02  0.1188E+02
      2.904  0.1240E+02  0.1241E+02  0.1259E+02  0.1259E+02
      2.961  0.1077E+02  0.1077E+02  0.1320E+02  0.1320E+02
      3.018  0.1014E+02  0.1014E+02  0.1378E+02  0.1377E+02
      3.074  0.8882E+01  0.8888E+01  0.1428E+02  0.1428E+02
      3.131  0.7073E+01  0.7078E+01  0.1468E+02  0.1468E+02
      3.188  0.5770E+01  0.5773E+01  0.1501E+02  0.1501E+02
      3.245  0.4939E+01  0.4941E+01  0.1529E+02  0.1529E+02
      3.301  0.4164E+01  0.4166E+01  0.1553E+02  0.1553E+02
      3.358  0.3397E+01  0.3399E+01  0.1572E+02  0.1572E+02
      3.415  0.2807E+01  0.2809E+01  0.1588E+02  0.1588E+02
      3.472  0.2502E+01  0.2503E+01  0.1602E+02  0.1602E+02
      3.528  0.2319E+01  0.2320E+01  0.1615E+02  0.1615E+02
      3.585  0.2085E+01  0.2086E+01  0.1627E+02  0.1627E+02
      3.642  0.1861E+01  0.1862E+01  0.1638E+02  0.1638E+02
      3.699  0.1762E+01  0.1762E+01  0.1648E+02  0.1648E+02
      3.755  0.1855E+01  0.1855E+01  0.1658E+02  0.1658E+02
      3.812  0.2060E+01  0.2060E+01  0.1670E+02  0.1670E+02
      3.869  0.2238E+01  0.2237E+01  0.1683E+02  0.1683E+02
      3.925  0.2366E+01  0.2365E+01  0.1696E+02  0.1696E+02
      3.982  0.2408E+01  0.2408E+01  0.1710E+02  0.1710E+02
      4.039  0.2351E+01  0.2351E+01  0.1723E+02  0.1723E+02
      4.096  0.2282E+01  0.2282E+01  0.1736E+02  0.1736E+02
      4.152  0.2278E+01  0.2278E+01  0.1749E+02  0.1749E+02
      4.209  0.2303E+01  0.2303E+01  0.1762E+02  0.1762E+02
      4.266  0.2325E+01  0.2325E+01  0.1775E+02  0.1775E+02
      4.323  0.2257E+01  0.2257E+01  0.1788E+02  0.1788E+02
      4.379  0.1969E+01  0.1971E+01  0.1799E+02  0.1799E+02
      4.436  0.1677E+01  0.1678E+01  0.1809E+02  0.1809E+02
      4.493  0.1641E+01  0.1640E+01  0.1818E+02  0.1818E+02
      4.550  0.1787E+01  0.1786E+01  0.1828E+02  0.1828E+02
      4.606  0.1964E+01  0.1963E+01  0.1840E+02  0.1840E+02
      4.663  0.2051E+01  0.2051E+01  0.1851E+02  0.1851E+02
      4.720  0.2053E+01  0.2053E+01  0.1863E+02  0.1863E+02
      4.777  0.2008E+01  0.2008E+01  0.1874E+02  0.1874E+02
      4.833  0.1866E+01  0.1866E+01  0.1885E+02  0.1885E+02
      4.890  0.1671E+01  0.1672E+01  0.1894E+02  0.1894E+02
      4.947  0.1535E+01  0.1535E+01  0.1903E+02  0.1903E+02
      5.004  0.1546E+01  0.1545E+01  0.1912E+02  0.1912E+02
      5.060  0.1604E+01  0.1604E+01  0.1921E+02  0.1921E+02
      5.117  0.1535E+01  0.1536E+01  0.1930E+02  0.1930E+02
      5.174  0.1430E+01  0.1431E+01  0.1938E+02  0.1938E+02
      5.231  0.1412E+01  0.1412E+01  0.1946E+02  0.1946E+02
      5.287  0.1542E+01  0.1541E+01  0.1955E+02  0.1955E+02
      5.344  0.1732E+01  0.1731E+01  0.1964E+02  0.1964E+02
      5.401  0.1846E+01  0.1846E+01  0.1975E+02  0.1975E+02
      5.458  0.1986E+01  0.1985E+01  0.1986E+02  0.1986E+02
      5.514  0.2121E+01  0.2121E+01  0.1998E+02  0.1998E+02
      5.571  0.2059E+01  0.2060E+01  0.2010E+02  0.2010E+02
      5.628  0.1826E+01  0.1827E+01  0.2020E+02  0.2020E+02
      5.685  0.1585E+01  0.1586E+01  0.2029E+02  0.2029E+02
      5.741  0.1443E+01  0.1444E+01  0.2037E+02  0.2037E+02
      5.798  0.1427E+01  0.1427E+01  0.2046E+02  0.2046E+02
      5.855  0.1514E+01  0.1514E+01  0.2054E+02  0.2054E+02
      5.912  0.1605E+01  0.1605E+01  0.2063E+02  0.2063E+02
      5.968  0.1613E+01  0.1613E+01  0.2072E+02  0.2072E+02
      6.025  0.1600E+01  0.1600E+01  0.2082E+02  0.2081E+02
      6.082  0.1739E+01  0.1738E+01  0.2091E+02  0.2091E+02
      6.139  0.2083E+01  0.2082E+01  0.2103E+02  0.2103E+02
      6.195  0.2419E+01  0.2418E+01  0.2117E+02  0.2117E+02
      6.252  0.2445E+01  0.2445E+01  0.2131E+02  0.2131E+02
      6.309  0.2290E+01  0.2291E+01  0.2144E+02  0.2144E+02
      6.366  0.2134E+01  0.2135E+01  0.2156E+02  0.2156E+02
      6.422  0.1941E+01  0.1942E+01  0.2167E+02  0.2167E+02
      6.479  0.1754E+01  0.1755E+01  0.2177E+02  0.2177E+02
      6.536  0.1640E+01  0.1640E+01  0.2186E+02  0.2186E+02
      6.593  0.1574E+01  0.1574E+01  0.2195E+02  0.2195E+02
      6.649  0.1581E+01  0.1580E+01  0.2204E+02  0.2204E+02
      6.706  0.1662E+01  0.1662E+01  0.2214E+02  0.2214E+02
      6.763  0.1753E+01  0.1753E+01  0.2224E+02  0.2224E+02
      6.820  0.1800E+01  0.1800E+01  0.2234E+02  0.2234E+02
      6.876  0.1848E+01  0.1847E+01  0.2244E+02  0.2244E+02
      6.933  0.1984E+01  0.1983E+01  0.2256E+02  0.2255E+02
      6.990  0.2178E+01  0.2178E+01  0.2268E+02  0.2268E+02
      7.047  0.2231E+01  0.2232E+01  0.2281E+02  0.2281E+02
      7.103  0.2001E+01  0.2003E+01  0.2292E+02  0.2292E+02
      7.160  0.1765E+01  0.1765E+01  0.2302E+02  0.2302E+02
      7.217  0.1788E+01  0.1788E+01  0.2312E+02  0.2312E+02
      7.274  0.1949E+01  0.1949E+01  0.2323E+02  0.2323E+02
      7.330  0.2009E+01  0.2009E+01  0.2335E+02  0.2335E+02
      7.387  0.1917E+01  0.1917E+01  0.2345E+02  0.2345E+02
      7.444  0.1869E+01  0.1869E+01  0.2356E+02  0.2356E+02
      7.500  0.1958E+01  0.1958E+01  0.2367E+02  0.2367E+02
      7.557  0.2032E+01  0.2032E+01  0.2379E+02  0.2379E+02
      7.614  0.1903E+01  0.1904E+01  0.2390E+02  0.2390E+02
      7.671  0.1696E+01  0.1697E+01  0.2399E+02  0.2399E+02
      7.727  0.1744E+01  0.1743E+01  0.2409E+02  0.2409E+02
      7.784  0.2054E+01  0.2053E+01  0.2421E+02  0.2421E+02
      7.841  0.2275E+01  0.2275E+01  0.2434E+02  0.2434E+02
      7.898  0.2237E+01  0.2238E+01  0.2446E+02  0.2446E+02
      7.954  0.2087E+01  0.2088E+01  0.2458E+02  0.2458E+02
      8.011  0.1968E+01  0.1968E+01  0.2469E+02  0.2469E+02
      8.068  0.1919E+01  0.1919E+01  0.2480E+02  0.2480E+02
      8.125  0.1930E+01  0.1930E+01  0.2491E+02  0.2491E+02
      8.181  0.1988E+01  0.1988E+01  0.2503E+02  0.2502E+02
      8.238  0.1947E+01  0.1948E+01  0.2514E+02  0.2514E+02
      8.295  0.1793E+01  0.1795E+01  0.2524E+02  0.2524E+02
      8.352  0.1755E+01  0.1758E+01  0.2534E+02  0.2534E+02
      8.408  0.1849E+01  0.1857E+01  0.2544E+02  0.2544E+02
      8.465  0.1937E+01  0.1953E+01  0.2555E+02  0.2555E+02
      8.522  0.1962E+01  0.1979E+01  0.2566E+02  0.2567E+02
      8.579  0.1957E+01  0.1954E+01  0.2577E+02  0.2578E+02
      8.635  0.2002E+01  0.1979E+01  0.2589E+02  0.2589E+02
      8.692  0.2146E+01  0.2125E+01  0.2601E+02  0.2601E+02
      8.749  0.2297E+01  0.2280E+01  0.2614E+02  0.2614E+02
      8.806  0.2300E+01  0.2278E+01  0.2627E+02  0.2627E+02
      8.862  0.2200E+01  0.2178E+01  0.2640E+02  0.2639E+02
      8.919  0.2081E+01  0.2087E+01  0.2651E+02  0.2651E+02
      8.976  0.1964E+01  0.1987E+01  0.2663E+02  0.2662E+02
      9.033  0.1852E+01  0.1870E+01  0.2673E+02  0.2673E+02
      9.089  0.1729E+01  0.1758E+01  0.2683E+02  0.2683E+02
      9.146  0.1654E+01  0.1698E+01  0.2692E+02  0.2693E+02
      9.203  0.1714E+01  0.1767E+01  0.2702E+02  0.2703E+02
      9.260  0.1761E+01  0.1845E+01  0.2712E+02  0.2713E+02
      9.316  0.1620E+01  0.1716E+01  0.2721E+02  0.2723E+02
      9.373  0.1379E+01  0.1420E+01  0.2729E+02  0.2731E+02
      9.430  0.1184E+01  0.1129E+01  0.2736E+02  0.2737E+02
      9.487  0.1034E+01  0.9224E+00  0.2742E+02  0.2743E+02
      9.543  0.9227E+00  0.8271E+00  0.2747E+02  0.2747E+02
      9.600  0.8466E+00  0.7983E+00  0.2752E+02  0.2752E+02
      9.657  0.7955E+00  0.7905E+00  0.2756E+02  0.2756E+02
      9.714  0.7469E+00  0.7560E+00  0.2761E+02  0.2761E+02
      9.770  0.6800E+00  0.6742E+00  0.2764E+02  0.2764E+02
      9.827  0.6044E+00  0.5745E+00  0.2768E+02  0.2768E+02
      9.884  0.5517E+00  0.4907E+00  0.2771E+02  0.2770E+02
      9.941  0.4919E+00  0.4308E+00  0.2774E+02  0.2773E+02
      9.997  0.4280E+00  0.4045E+00  0.2776E+02  0.2775E+02
     10.054  0.4021E+00  0.4154E+00  0.2778E+02  0.2778E+02
     10.111  0.3759E+00  0.4214E+00  0.2781E+02  0.2780E+02
     10.168  0.2974E+00  0.3440E+00  0.2782E+02  0.2782E+02
     10.224  0.2178E+00  0.2418E+00  0.2784E+02  0.2783E+02
     10.281  0.2024E+00  0.2188E+00  0.2785E+02  0.2785E+02
     10.338  0.2534E+00  0.2605E+00  0.2786E+02  0.2786E+02
     10.395  0.2960E+00  0.2792E+00  0.2788E+02  0.2788E+02
     10.451  0.2479E+00  0.2403E+00  0.2789E+02  0.2789E+02
     10.508  0.1576E+00  0.1825E+00  0.2790E+02  0.2790E+02
     10.565  0.1066E+00  0.1370E+00  0.2791E+02  0.2791E+02
     10.622  0.1026E+00  0.1054E+00  0.2791E+02  0.2791E+02
     10.678  0.1063E+00  0.8452E-01  0.2792E+02  0.2792E+02
     10.735  0.1071E+00  0.9003E-01  0.2792E+02  0.2792E+02
     10.792  0.1098E+00  0.1119E+00  0.2793E+02  0.2793E+02
     10.849  0.1048E+00  0.1132E+00  0.2794E+02  0.2794E+02
     10.905  0.9505E-01  0.1000E+00  0.2794E+02  0.2794E+02
     10.962  0.8535E-01  0.8704E-01  0.2795E+02  0.2795E+02
     11.019  0.5916E-01  0.5914E-01  0.2795E+02  0.2795E+02
     11.076  0.3632E-01  0.3522E-01  0.2795E+02  0.2795E+02
     11.132  0.4003E-01  0.3724E-01  0.2796E+02  0.2795E+02
     11.189  0.7566E-01  0.7118E-01  0.2796E+02  0.2796E+02
     11.246  0.1242E+00  0.1226E+00  0.2797E+02  0.2797E+02
     11.302  0.1403E+00  0.1440E+00  0.2797E+02  0.2797E+02
     11.359  0.1119E+00  0.1157E+00  0.2798E+02  0.2798E+02
     11.416  0.6428E-01  0.6590E-01  0.2798E+02  0.2798E+02
     11.473  0.3183E-01  0.3158E-01  0.2799E+02  0.2799E+02
     11.529  0.2554E-01  0.2280E-01  0.2799E+02  0.2799E+02
     11.586  0.4075E-01  0.3275E-01  0.2799E+02  0.2799E+02
     11.643  0.6123E-01  0.4709E-01  0.2799E+02  0.2799E+02
     11.700  0.5868E-01  0.5176E-01  0.2800E+02  0.2799E+02
     11.756  0.3455E-01  0.4469E-01  0.2800E+02  0.2800E+02
     11.813  0.1451E-01  0.2733E-01  0.2800E+02  0.2800E+02
     11.870  0.5148E-02  0.1191E-01  0.2800E+02  0.2800E+02
     11.927  0.1711E-02  0.4297E-02  0.2800E+02  0.2800E+02
     11.983  0.5560E-03  0.1437E-02  0.2800E+02  0.2800E+02
     12.040  0.1235E-03  0.4164E-03  0.2800E+02  0.2800E+02
     12.097  0.0000E+00  0.1345E-03  0.2800E+02  0.2800E+02
     12.154  0.0000E+00  0.0000E+00  0.2800E+02  0.2800E+02
     12.210  0.0000E+00  0.0000E+00  0.2800E+02  0.2800E+02
     12.267  0.0000E+00  0.0000E+00  0.2800E+02  0.2800E+02
     12.324  0.0000E+00  0.0000E+00  0.2800E+02  0.2800E+02
     12.381  0.0000E+00  0.0000E+00  0.2800E+02  0.2800E+02
     12.437  0.0000E+00  0.0000E+00  0.2800E+02  0.2800E+02
     12.494  0.0000E+00  0.0000E+00  0.2800E+02  0.2800E+02
     12.49415966     -4.52968939  301      5.52290159      1.00000000
     -4.530  0.0000E+00  0.0000E+00  0.0000E+00  0.0000E+00  0.0000E+00  0.0000E+00  0.0000E+00  0.0000E+00  0.0000E+00  0.0000E+00  0.0000E+00  0.0000E+00  0.0000E+00  0.0000E+00  0.0000E+00  0.0000E+00  0.0000E+00  0.0000E+00
     -4.473  0.0000E+00  0.0000E+00  0.0000E+00  0.0000E+00  0.0000E+00  0.0000E+00  0.0000E+00  0.0000E+00  0.0000E+00  0.0000E+00  0.0000E+00  0.0000E+00  0.0000E+00  0.0000E+00  0.0000E+00  0.0000E+00  0.0000E+00  0.0000E+00
     -4.416  0.0000E+00  0.0000E+00  0.0000E+00  0.0000E+00  0.0000E+00  0.0000E+00  0.0000E+00  0.0000E+00  0.0000E+00  0.0000E+00  0.0000E+00  0.0000E+00  0.0000E+00  0.0000E+00  0.0000E+00  0.0000E+00  0.0000E+00  0.0000E+00
     -4.359  0.0000E+00  0.0000E+00  0.0000E+00  0.0000E+00  0.0000E+00  0.0000E+00  0.0000E+00  0.0000E+00  0.0000E+00  0.0000E+00  0.0000E+00  0.0000E+00  0.0000E+00  0.0000E+00  0.0000E+00  0.0000E+00  0.0000E+00  0.0000E+00
     -4.303  0.0000E+00  0.0000E+00  0.0000E+00  0.0000E+00  0.0000E+00  0.0000E+00  0.0000E+00  0.0000E+00  0.0000E+00  0.0000E+00  0.0000E+00  0.0000E+00  0.0000E+00  0.0000E+00  0.0000E+00  0.0000E+00  0.0000E+00  0.0000E+00
     -4.246  0.0000E+00  0.0000E+00  0.0000E+00  0.0000E+00  0.0000E+00  0.0000E+00  0.0000E+00  0.0000E+00  0.0000E+00  0.0000E+00  0.0000E+00  0.0000E+00  0.0000E+00  0.0000E+00  0.0000E+00  0.0000E+00  0.0000E+00  0.0000E+00
     -4.189  0.7623E-07  0.7587E-07  0.3666E-22  0.2443E-21  0.1429E-21  0.3190E-20  0.3666E-22  0.2443E-21  0.2868E-17  0.1518E-15  0.5153E-17  0.3443E-16  0.5148E-11  0.5155E-11  0.5153E-17  0.3443E-16  0.5431E-17  0.2131E-17
     -4.132  0.7318E-06  0.7284E-06  0.9534E-09  0.9489E-09  0.1040E-08  0.1035E-08  0.9534E-09  0.9489E-09  0.2699E-16  0.3289E-15  0.1515E-16  0.8428E-16  0.5518E-10  0.5531E-10  0.1515E-16  0.8428E-16  0.4384E-11  0.4299E-11
     -4.076  0.3507E-05  0.3490E-05  0.8926E-08  0.8884E-08  0.9051E-08  0.9009E-08  0.8926E-08  0.8884E-08  0.7164E-10  0.7138E-10  0.6349E-10  0.6372E-10  0.2765E-09  0.2744E-09  0.6349E-10  0.6372E-10  0.2096E-10  0.2089E-10
     -4.019  0.9459E-05  0.9415E-05  0.2293E-07  0.2282E-07  0.2485E-07  0.2474E-07  0.2293E-07  0.2282E-07  0.1511E-09  0.1506E-09  0.1339E-09  0.1344E-09  0.7731E-09  0.7693E-09  0.1339E-09  0.1344E-09  0.9158E-10  0.9065E-10
     -3.962  0.3073E-04  0.3059E-04  0.8329E-07  0.8289E-07  0.9329E-07  0.9286E-07  0.8329E-07  0.8289E-07  0.6401E-09  0.6373E-09  0.6243E-09  0.6249E-09  0.2617E-08  0.2605E-08  0.6243E-09  0.6249E-09  0.4106E-09  0.4097E-09
     -3.905  0.9451E-04  0.9408E-04  0.2655E-06  0.2643E-06  0.2951E-06  0.2937E-06  0.2655E-06  0.2643E-06  0.2385E-08  0.2375E-08  0.2275E-08  0.2277E-08  0.8069E-08  0.8033E-08  0.2275E-08  0.2277E-08  0.1245E-08  0.1243E-08
     -3.849  0.2788E-03  0.2776E-03  0.7909E-06  0.7872E-06  0.8841E-06  0.8802E-06  0.7909E-06  0.7872E-06  0.6778E-08  0.6750E-08  0.6745E-08  0.6752E-08  0.2385E-07  0.2375E-07  0.6745E-08  0.6752E-08  0.3759E-08  0.3752E-08
     -3.792  0.7651E-03  0.7621E-03  0.2329E-05  0.2319E-05  0.2605E-05  0.2594E-05  0.2329E-05  0.2319E-05  0.2148E-07  0.2140E-07  0.2108E-07  0.2111E-07  0.6702E-07  0.6672E-07  0.2108E-07  0.2111E-07  0.1119E-07  0.1117E-07
     -3.735  0.1782E-02  0.1777E-02  0.6202E-05  0.6178E-05  0.6881E-05  0.6856E-05  0.6202E-05  0.6178E-05  0.6257E-07  0.6240E-07  0.6018E-07  0.6026E-07  0.1644E-06  0.1637E-06  0.6018E-07  0.6026E-07  0.3217E-07  0.3216E-07
     -3.678  0.3262E-02  0.3255E-02  0.1386E-04  0.1382E-04  0.1553E-04  0.1548E-04  0.1386E-04  0.1382E-04  0.1593E-06  0.1590E-06  0.1540E-06  0.1541E-06  0.3295E-06  0.3279E-06  0.1540E-06  0.1541E-06  0.8182E-07  0.8191E-07
     -3.622  0.4721E-02  0.4715E-02  0.2609E-04  0.2602E-04  0.2981E-04  0.2974E-04  0.2609E-04  0.2602E-04  0.3525E-06  0.3522E-06  0.3474E-06  0.3476E-06  0.5627E-06  0.5606E-06  0.3474E-06  0.3476E-06  0.1948E-06  0.1953E-06
     -3.565  0.6092E-02  0.6086E-02  0.4463E-04  0.4452E-04  0.5020E-04  0.5011E-04  0.4463E-04  0.4452E-04  0.7175E-06  0.7168E-06  0.7078E-06  0.7084E-06  0.9102E-06  0.9102E-06  0.7078E-06  0.7084E-06  0.4147E-06  0.4167E-06
     -3.508  0.7446E-02  0.7441E-02  0.6845E-04  0.6832E-04  0.7341E-04  0.7332E-04  0.6845E-04  0.6832E-04  0.1343E-05  0.1343E-05  0.1282E-05  0.1285E-05  0.1368E-05  0.1373E-05  0.1282E-05  0.1285E-05  0.7011E-06  0.7064E-06
     -3.452  0.8033E-02  0.8031E-02  0.8791E-04  0.8780E-04  0.9675E-04  0.9664E-04  0.8791E-04  0.8780E-04  0.2121E-05  0.2125E-05  0.2045E-05  0.2053E-05  0.1806E-05  0.1815E-05  0.2045E-05  0.2053E-05  0.9850E-06  0.9911E-06
     -3.395  0.8396E-02  0.8392E-02  0.1089E-03  0.1088E-03  0.1322E-03  0.1321E-03  0.1089E-03  0.1088E-03  0.3174E-05  0.3187E-05  0.3148E-05  0.3165E-05  0.2483E-05  0.2494E-05  0.3148E-05  0.3165E-05  0.1484E-05  0.1488E-05
     -3.338  0.9548E-02  0.9542E-02  0.1465E-03  0.1463E-03  0.1768E-03  0.1766E-03  0.1465E-03  0.1463E-03  0.4738E-05  0.4762E-05  0.4608E-05  0.4633E-05  0.3780E-05  0.3791E-05  0.4608E-05  0.4633E-05  0.2543E-05  0.2542E-05
     -3.281  0.1045E-01  0.1045E-01  0.1886E-03  0.1884E-03  0.2027E-03  0.2027E-03  0.1886E-03  0.1884E-03  0.6431E-05  0.6458E-05  0.6203E-05  0.6225E-05  0.5209E-05  0.5221E-05  0.6203E-05  0.6225E-05  0.4009E-05  0.4006E-05
     -3.225  0.1076E-01  0.1076E-01  0.2223E-03  0.2222E-03  0.2275E-03  0.2273E-03  0.2223E-03  0.2222E-03  0.8603E-05  0.8627E-05  0.8664E-05  0.8674E-05  0.6168E-05  0.6181E-05  0.8664E-05  0.8674E-05  0.5089E-05  0.5091E-05
     -3.168  0.1116E-01  0.1116E-01  0.2519E-03  0.2518E-03  0.2806E-03  0.2803E-03  0.2519E-03  0.2518E-03  0.1201E-04  0.1204E-04  0.1208E-04  0.1209E-04  0.7288E-05  0.7305E-05  0.1208E-04  0.1209E-04  0.5605E-05  0.5611E-05
     -3.111  0.1149E-01  0.1149E-01  0.2796E-03  0.2795E-03  0.3359E-03  0.3357E-03  0.2796E-03  0.2795E-03  0.1615E-04  0.1621E-04  0.1472E-04  0.1474E-04  0.9499E-05  0.9521E-05  0.1472E-04  0.1474E-04  0.6228E-05  0.6236E-05
     -3.054  0.1127E-01  0.1127E-01  0.2960E-03  0.2959E-03  0.3806E-03  0.3804E-03  0.2960E-03  0.2959E-03  0.1865E-04  0.1873E-04  0.1694E-04  0.1696E-04  0.1207E-04  0.1209E-04  0.1694E-04  0.1696E-04  0.7659E-05  0.7658E-05
     -2.998  0.1166E-01  0.1165E-01  0.3436E-03  0.3432E-03  0.4331E-03  0.4328E-03  0.3436E-03  0.3432E-03  0.2109E-04  0.2115E-04  0.2202E-04  0.2202E-04  0.1484E-04  0.1485E-04  0.2202E-04  0.2202E-04  0.1160E-04  0.1158E-04
     -2.941  0.1314E-01  0.1313E-01  0.4390E-03  0.4386E-03  0.4915E-03  0.4911E-03  0.4390E-03  0.4386E-03  0.2683E-04  0.2688E-04  0.2948E-04  0.2949E-04  0.1872E-04  0.1875E-04  0.2948E-04  0.2949E-04  0.1753E-04  0.1750E-04
     -2.884  0.1390E-01  0.1390E-01  0.5064E-03  0.5062E-03  0.5311E-03  0.5309E-03  0.5064E-03  0.5062E-03  0.3486E-04  0.3493E-04  0.3513E-04  0.3516E-04  0.2239E-04  0.2243E-04  0.3513E-04  0.3516E-04  0.2094E-04  0.2092E-04
     -2.827  0.1348E-01  0.1349E-01  0.5337E-03  0.5336E-03  0.5382E-03  0.5380E-03  0.5337E-03  0.5336E-03  0.4447E-04  0.4459E-04  0.3896E-04  0.3901E-04  0.2476E-04  0.2480E-04  0.3896E-04  0.3901E-04  0.2151E-04  0.2150E-04
     -2.771  0.1325E-01  0.1325E-01  0.5565E-03  0.5564E-03  0.5940E-03  0.5936E-03  0.5565E-03  0.5564E-03  0.5379E-04  0.5397E-04  0.4565E-04  0.4572E-04  0.2788E-04  0.2795E-04  0.4565E-04  0.4572E-04  0.2168E-04  0.2170E-04
     -2.714  0.1295E-01  0.1295E-01  0.5436E-03  0.5437E-03  0.7283E-03  0.7277E-03  0.5436E-03  0.5437E-03  0.5628E-04  0.5649E-04  0.5495E-04  0.5504E-04  0.3175E-04  0.3187E-04  0.5495E-04  0.5504E-04  0.2111E-04  0.2113E-04
     -2.657  0.1278E-01  0.1278E-01  0.5499E-03  0.5496E-03  0.8517E-03  0.8514E-03  0.5499E-03  0.5496E-03  0.5746E-04  0.5761E-04  0.6657E-04  0.6665E-04  0.3572E-04  0.3588E-04  0.6657E-04  0.6665E-04  0.2406E-04  0.2404E-04
     -2.600  0.1352E-01  0.1352E-01  0.6503E-03  0.6497E-03  0.9073E-03  0.9072E-03  0.6503E-03  0.6497E-03  0.7129E-04  0.7139E-04  0.7875E-04  0.7884E-04  0.4301E-04  0.4316E-04  0.7875E-04  0.7884E-04  0.3355E-04  0.3349E-04
     -2.544  0.1471E-01  0.1471E-01  0.8010E-03  0.8004E-03  0.9288E-03  0.9288E-03  0.8010E-03  0.8004E-03  0.9557E-04  0.9570E-04  0.8852E-04  0.8865E-04  0.5505E-04  0.5519E-04  0.8852E-04  0.8865E-04  0.4662E-04  0.4656E-04
     -2.487  0.1512E-01  0.1512E-01  0.9053E-03  0.9050E-03  0.9162E-03  0.9164E-03  0.9053E-03  0.9050E-03  0.1129E-03  0.1131E-03  0.9702E-04  0.9720E-04  0.6232E-04  0.6249E-04  0.9702E-04  0.9720E-04  0.5764E-04  0.5761E-04
     -2.430  0.1447E-01  0.1447E-01  0.9346E-03  0.9344E-03  0.9021E-03  0.9019E-03  0.9346E-03  0.9344E-03  0.1199E-03  0.1201E-03  0.1066E-03  0.1067E-03  0.6302E-04  0.6315E-04  0.1066E-03  0.1067E-03  0.6350E-04  0.6353E-04
     -2.373  0.1428E-01  0.1428E-01  0.9577E-03  0.9575E-03  0.1055E-02  0.1054E-02  0.9577E-03  0.9575E-03  0.1259E-03  0.1261E-03  0.1259E-03  0.1259E-03  0.6941E-04  0.6945E-04  0.1259E-03  0.1259E-03  0.6773E-04  0.6784E-04
     -2.317  0.1434E-01  0.1434E-01  0.9551E-03  0.9551E-03  0.1344E-02  0.1343E-02  0.9551E-03  0.9551E-03  0.1341E-03  0.1342E-03  0.1532E-03  0.1532E-03  0.7877E-04  0.7877E-04  0.1532E-03  0.1532E-03  0.6636E-04  0.6653E-04
     -2.260  0.1415E-01  0.1415E-01  0.9599E-03  0.9596E-03  0.1531E-02  0.1531E-02  0.9599E-03  0.9596E-03  0.1626E-03  0.1625E-03  0.1776E-03  0.1776E-03  0.8398E-04  0.8391E-04  0.1776E-03  0.1776E-03  0.6041E-04  0.6054E-04
     -2.203  0.1433E-01  0.1433E-01  0.1050E-02  0.1050E-02  0.1581E-02  0.1581E-02  0.1050E-02  0.1050E-02  0.2115E-03  0.2114E-03  0.1999E-03  0.1999E-03  0.9000E-04  0.8988E-04  0.1999E-03  0.1999E-03  0.6215E-04  0.6222E-04
     -2.146  0.1414E-01  0.1414E-01  0.1113E-02  0.1113E-02  0.1622E-02  0.1622E-02  0.1113E-02  0.1113E-02  0.2424E-03  0.2425E-03  0.2128E-03  0.2129E-03  0.1009E-03  0.1008E-03  0.2128E-03  0.2129E-03  0.6945E-04  0.6948E-04
     -2.090  0.1306E-01  0.1307E-01  0.1127E-02  0.1127E-02  0.1587E-02  0.1587E-02  0.1127E-02  0.1127E-02  0.2464E-03  0.2465E-03  0.2090E-03  0.2091E-03  0.1107E-03  0.1106E-03  0.2090E-03  0.2091E-03  0.8433E-04  0.8428E-04
     -2.033  0.1281E-01  0.1281E-01  0.1243E-02  0.1242E-02  0.1648E-02  0.1647E-02  0.1243E-02  0.1242E-02  0.2446E-03  0.2446E-03  0.2347E-03  0.2345E-03  0.1196E-03  0.1196E-03  0.2347E-03  0.2345E-03  0.1167E-03  0.1165E-03
     -1.976  0.1397E-01  0.1396E-01  0.1449E-02  0.1448E-02  0.2001E-02  0.1999E-02  0.1449E-02  0.1448E-02  0.2607E-03  0.2607E-03  0.3134E-03  0.3131E-03  0.1333E-03  0.1333E-03  0.3134E-03  0.3131E-03  0.1503E-03  0.1502E-03
     -1.919  0.1477E-01  0.1477E-01  0.1594E-02  0.1593E-02  0.2324E-02  0.2323E-02  0.1594E-02  0.1593E-02  0.3000E-03  0.2998E-03  0.3890E-03  0.3888E-03  0.1444E-03  0.1444E-03  0.3890E-03  0.3888E-03  0.1652E-03  0.1651E-03
     -1.863  0.1452E-01  0.1452E-01  0.1678E-02  0.1677E-02  0.2332E-02  0.2332E-02  0.1678E-02  0.1677E-02  0.3745E-03  0.3741E-03  0.4095E-03  0.4095E-03  0.1548E-03  0.1546E-03  0.4095E-03  0.4095E-03  0.1686E-03  0.1686E-03
     -1.806  0.1355E-01  0.1356E-01  0.1697E-02  0.1697E-02  0.2126E-02  0.2127E-02  0.1697E-02  0.1697E-02  0.4646E-03  0.4644E-03  0.3978E-03  0.3978E-03  0.1576E-03  0.1574E-03  0.3978E-03  0.3978E-03  0.1582E-03  0.1583E-03
     -1.749  0.1210E-01  0.1210E-01  0.1640E-02  0.1640E-02  0.1907E-02  0.1908E-02  0.1640E-02  0.1640E-02  0.5014E-03  0.5013E-03  0.3935E-03  0.3934E-03  0.1480E-03  0.1478E-03  0.3935E-03  0.3934E-03  0.1421E-03  0.1422E-03
     -1.692  0.1089E-01  0.1089E-01  0.1609E-02  0.1609E-02  0.1861E-02  0.1861E-02  0.1609E-02  0.1609E-02  0.5095E-03  0.5094E-03  0.4233E-03  0.4230E-03  0.1419E-03  0.1416E-03  0.4233E-03  0.4230E-03  0.1366E-03  0.1367E-03