   4   4   1   0
  0.1748982E+02  0.4120486E-09  0.4120486E-09  0.4120486E-09  0.5000000E-15
  1.000000000000000E-004
  CAR 
 unknown system                          
     17.65297032     -4.14347299  301      7.31690641      1.00000000
     -4.143  0.0000E+00  0.0000E+00  0.0000E+00  0.0000E+00
     -4.071  0.0000E+00  0.0000E+00  0.0000E+00  0.0000E+00
     -3.998  0.0000E+00  0.0000E+00  0.0000E+00  0.0000E+00
     -3.926  0.0000E+00  0.0000E+00  0.0000E+00  0.0000E+00
     -3.853  0.0000E+00  0.0000E+00  0.0000E+00  0.0000E+00
     -3.780  0.0000E+00  0.0000E+00  0.0000E+00  0.0000E+00
     -3.708  0.0000E+00  0.0000E+00  0.0000E+00  0.0000E+00
     -3.635  0.0000E+00  0.0000E+00  0.0000E+00  0.0000E+00
     -3.562  0.1414E-03  0.1297E-03  0.1027E-04  0.9424E-05
     -3.490  0.4626E-03  0.4245E-03  0.4388E-04  0.4027E-04
     -3.417  0.1969E-02  0.1807E-02  0.1869E-03  0.1716E-03
     -3.344  0.8250E-02  0.7587E-02  0.7863E-03  0.7228E-03
     -3.272  0.3245E-01  0.3004E-01  0.3144E-02  0.2905E-02
     -3.199  0.1015E+00  0.9605E-01  0.1052E-01  0.9883E-02
     -3.126  0.1761E+00  0.1745E+00  0.2331E-01  0.2256E-01
     -3.054  0.1278E+00  0.1333E+00  0.3260E-01  0.3225E-01
     -2.981  0.4815E-01  0.5140E-01  0.3610E-01  0.3598E-01
     -2.908  0.2189E-01  0.2214E-01  0.3769E-01  0.3759E-01
     -2.836  0.4338E-01  0.4045E-01  0.4084E-01  0.4053E-01
     -2.763  0.1519E+00  0.1414E+00  0.5188E-01  0.5080E-01
     -2.690  0.4035E+00  0.3871E+00  0.8121E-01  0.7895E-01
     -2.618  0.5215E+00  0.5267E+00  0.1191E+00  0.1172E+00
     -2.545  0.2840E+00  0.3002E+00  0.1397E+00  0.1390E+00
     -2.472  0.9191E-01  0.9866E-01  0.1464E+00  0.1462E+00
     -2.400  0.3886E-01  0.3945E-01  0.1492E+00  0.1491E+00
     -2.327  0.7269E-01  0.6800E-01  0.1545E+00  0.1540E+00
     -2.254  0.2312E+00  0.2169E+00  0.1714E+00  0.1699E+00
     -2.182  0.4921E+00  0.4805E+00  0.2072E+00  0.2048E+00
     -2.109  0.4559E+00  0.4695E+00  0.2403E+00  0.2389E+00
     -2.036  0.1933E+00  0.2063E+00  0.2544E+00  0.2539E+00
     -1.964  0.6263E-01  0.6634E-01  0.2589E+00  0.2587E+00
     -1.891  0.5188E-01  0.4994E-01  0.2627E+00  0.2624E+00
     -1.819  0.1537E+00  0.1430E+00  0.2738E+00  0.2727E+00
     -1.746  0.4496E+00  0.4273E+00  0.3066E+00  0.3039E+00
     -1.673  0.7101E+00  0.7081E+00  0.3582E+00  0.3553E+00
     -1.601  0.4668E+00  0.4891E+00  0.3921E+00  0.3908E+00
     -1.528  0.1647E+00  0.1764E+00  0.4040E+00  0.4037E+00
     -1.455  0.6652E-01  0.6801E-01  0.4089E+00  0.4086E+00
     -1.383  0.1136E+00  0.1064E+00  0.4171E+00  0.4163E+00
     -1.310  0.3759E+00  0.3516E+00  0.4444E+00  0.4419E+00
     -1.237  0.9008E+00  0.8715E+00  0.5099E+00  0.5053E+00
     -1.165  0.9919E+00  0.1011E+01  0.5820E+00  0.5787E+00
     -1.092  0.4736E+00  0.5033E+00  0.6164E+00  0.6153E+00
     -1.019  0.1441E+00  0.1550E+00  0.6269E+00  0.6266E+00
     -0.947  0.5790E-01  0.5902E-01  0.6311E+00  0.6309E+00
     -0.874  0.1012E+00  0.9501E-01  0.6385E+00  0.6378E+00
     -0.801  0.2948E+00  0.2788E+00  0.6601E+00  0.6582E+00
     -0.729  0.5255E+00  0.5198E+00  0.6982E+00  0.6960E+00
     -0.656  0.3929E+00  0.4090E+00  0.7268E+00  0.7257E+00
     -0.583  0.1487E+00  0.1588E+00  0.7376E+00  0.7372E+00
     -0.511  0.5987E-01  0.6135E-01  0.7419E+00  0.7417E+00
     -0.438  0.9878E-01  0.9261E-01  0.7491E+00  0.7484E+00
     -0.365  0.3322E+00  0.3101E+00  0.7732E+00  0.7709E+00
     -0.293  0.8466E+00  0.8151E+00  0.8348E+00  0.8302E+00
     -0.220  0.1026E+01  0.1040E+01  0.9093E+00  0.9058E+00
     -0.147  0.5306E+00  0.5616E+00  0.9479E+00  0.9466E+00
     -0.075  0.1751E+00  0.1867E+00  0.9606E+00  0.9602E+00
     -0.002  0.1044E+00  0.1028E+00  0.9682E+00  0.9676E+00
      0.071  0.2659E+00  0.2476E+00  0.9875E+00  0.9856E+00
      0.143  0.8314E+00  0.7848E+00  0.1048E+01  0.1043E+01
      0.216  0.1557E+01  0.1535E+01  0.1161E+01  0.1154E+01
      0.288  0.1229E+01  0.1276E+01  0.1251E+01  0.1247E+01
      0.361  0.4682E+00  0.5015E+00  0.1285E+01  0.1284E+01
      0.434  0.1357E+00  0.1454E+00  0.1294E+01  0.1294E+01
      0.506  0.7359E-01  0.7287E-01  0.1300E+01  0.1299E+01
      0.579  0.1674E+00  0.1572E+00  0.1312E+01  0.1311E+01
      0.652  0.4167E+00  0.4009E+00  0.1342E+01  0.1340E+01
      0.724  0.5165E+00  0.5230E+00  0.1380E+01  0.1378E+01
      0.797  0.2729E+00  0.2884E+00  0.1400E+01  0.1399E+01
      0.870  0.9466E-01  0.1003E+00  0.1407E+01  0.1406E+01
      0.942  0.7176E-01  0.6950E-01  0.1412E+01  0.1411E+01
      1.015  0.2077E+00  0.1932E+00  0.1427E+01  0.1425E+01
      1.088  0.6547E+00  0.6184E+00  0.1475E+01  0.1470E+01
      1.160  0.1214E+01  0.1198E+01  0.1563E+01  0.1558E+01
      1.233  0.9494E+00  0.9858E+00  0.1632E+01  0.1629E+01
      1.306  0.3650E+00  0.3900E+00  0.1658E+01  0.1657E+01
      1.378  0.1307E+00  0.1360E+00  0.1668E+01  0.1667E+01
      1.451  0.1673E+00  0.1582E+00  0.1680E+01  0.1679E+01
      1.524  0.5308E+00  0.4968E+00  0.1719E+01  0.1715E+01
      1.596  0.1309E+01  0.1263E+01  0.1814E+01  0.1807E+01
      1.669  0.1516E+01  0.1541E+01  0.1924E+01  0.1919E+01
      1.742  0.7548E+00  0.7997E+00  0.1979E+01  0.1977E+01
      1.814  0.2377E+00  0.2546E+00  0.1996E+01  0.1995E+01
      1.887  0.1117E+00  0.1122E+00  0.2004E+01  0.2004E+01
      1.960  0.2304E+00  0.2162E+00  0.2021E+01  0.2019E+01
      2.032  0.6568E+00  0.6244E+00  0.2069E+01  0.2065E+01
      2.105  0.1064E+01  0.1060E+01  0.2146E+01  0.2142E+01
      2.177  0.7181E+00  0.7505E+00  0.2198E+01  0.2196E+01
      2.250  0.2576E+00  0.2751E+00  0.2217E+01  0.2216E+01
      2.323  0.1071E+00  0.1091E+00  0.2225E+01  0.2224E+01
      2.395  0.1890E+00  0.1772E+00  0.2239E+01  0.2237E+01
      2.468  0.6165E+00  0.5784E+00  0.2283E+01  0.2279E+01
      2.541  0.1406E+01  0.1366E+01  0.2386E+01  0.2379E+01
      2.613  0.1443E+01  0.1476E+01  0.2490E+01  0.2486E+01
      2.686  0.6575E+00  0.6987E+00  0.2538E+01  0.2537E+01
      2.759  0.2120E+00  0.2252E+00  0.2554E+01  0.2553E+01
      2.831  0.1497E+00  0.1457E+00  0.2564E+01  0.2564E+01
      2.904  0.4054E+00  0.3791E+00  0.2594E+01  0.2591E+01
      2.977  0.1114E+01  0.1065E+01  0.2675E+01  0.2669E+01
      3.049  0.1589E+01  0.1595E+01  0.2791E+01  0.2785E+01
      3.122  0.9471E+00  0.9956E+00  0.2859E+01  0.2857E+01
      3.195  0.3166E+00  0.3393E+00  0.2882E+01  0.2882E+01
      3.267  0.1204E+00  0.1237E+00  0.2891E+01  0.2891E+01
      3.340  0.1862E+00  0.1755E+00  0.2905E+01  0.2903E+01
      3.413  0.5462E+00  0.5175E+00  0.2945E+01  0.2941E+01
      3.485  0.1035E+01  0.1020E+01  0.3020E+01  0.3015E+01
      3.558  0.8302E+00  0.8605E+00  0.3080E+01  0.3078E+01
      3.631  0.3282E+00  0.3496E+00  0.3104E+01  0.3103E+01
      3.703  0.1349E+00  0.1384E+00  0.3114E+01  0.3113E+01
      3.776  0.2107E+00  0.2003E+00  0.3129E+01  0.3128E+01
      3.849  0.5595E+00  0.5353E+00  0.3170E+01  0.3167E+01
      3.921  0.9340E+00  0.9228E+00  0.3238E+01  0.3234E+01
      3.994  0.8104E+00  0.8301E+00  0.3297E+01  0.3294E+01
      4.067  0.3843E+00  0.4045E+00  0.3325E+01  0.3324E+01
      4.139  0.1825E+00  0.1853E+00  0.3338E+01  0.3337E+01
      4.212  0.3245E+00  0.3063E+00  0.3361E+01  0.3359E+01
      4.284  0.9951E+00  0.9416E+00  0.3434E+01  0.3428E+01
      4.357  0.2114E+01  0.2059E+01  0.3588E+01  0.3578E+01
      4.430  0.2341E+01  0.2370E+01  0.3758E+01  0.3750E+01
      4.502  0.1274E+01  0.1339E+01  0.3850E+01  0.3847E+01
      4.575  0.4312E+00  0.4594E+00  0.3882E+01  0.3881E+01
      4.648  0.2102E+00  0.2112E+00  0.3897E+01  0.3896E+01
      4.720  0.4099E+00  0.3888E+00  0.3927E+01  0.3924E+01
      4.793  0.9874E+00  0.9544E+00  0.3999E+01  0.3994E+01
      4.866  0.1447E+01  0.1440E+01  0.4104E+01  0.4098E+01
      4.938  0.1076E+01  0.1113E+01  0.4182E+01  0.4179E+01
      5.011  0.4375E+00  0.4628E+00  0.4214E+01  0.4213E+01
      5.084  0.2143E+00  0.2160E+00  0.4229E+01  0.4229E+01
      5.156  0.3993E+00  0.3794E+00  0.4258E+01  0.4256E+01
      5.229  0.9395E+00  0.9100E+00  0.4327E+01  0.4322E+01
      5.302  0.1140E+01  0.1151E+01  0.4410E+01  0.4406E+01
      5.374  0.6681E+00  0.6966E+00  0.4458E+01  0.4457E+01
      5.447  0.2569E+00  0.2711E+00  0.4477E+01  0.4476E+01
      5.520  0.1394E+00  0.1392E+00  0.4487E+01  0.4486E+01
      5.592  0.3072E+00  0.2899E+00  0.4509E+01  0.4507E+01
      5.665  0.9206E+00  0.8767E+00  0.4576E+01  0.4571E+01
      5.738  0.1759E+01  0.1726E+01  0.4704E+01  0.4697E+01
      5.810  0.1755E+01  0.1782E+01  0.4832E+01  0.4826E+01
      5.883  0.9133E+00  0.9596E+00  0.4898E+01  0.4896E+01
      5.956  0.2946E+00  0.3149E+00  0.4920E+01  0.4919E+01
      6.028  0.9999E-01  0.1038E+00  0.4927E+01  0.4926E+01
      6.101  0.1218E+00  0.1160E+00  0.4936E+01  0.4935E+01
      6.174  0.3203E+00  0.3083E+00  0.4959E+01  0.4957E+01
      6.246  0.5336E+00  0.5304E+00  0.4998E+01  0.4996E+01
      6.319  0.3790E+00  0.3939E+00  0.5026E+01  0.5025E+01
      6.391  0.1804E+00  0.1860E+00  0.5039E+01  0.5038E+01
      6.464  0.2440E+00  0.2327E+00  0.5056E+01  0.5055E+01
      6.537  0.7452E+00  0.7054E+00  0.5111E+01  0.5106E+01
      6.609  0.1693E+01  0.1648E+01  0.5234E+01  0.5226E+01
      6.682  0.1899E+01  0.1920E+01  0.5372E+01  0.5366E+01
      6.755  0.1128E+01  0.1168E+01  0.5454E+01  0.5450E+01
      6.827  0.6213E+00  0.6261E+00  0.5499E+01  0.5496E+01
      6.900  0.6915E+00  0.6783E+00  0.5549E+01  0.5545E+01
      6.973  0.8452E+00  0.8418E+00  0.5610E+01  0.5606E+01
      7.045  0.1191E+01  0.1171E+01  0.5697E+01  0.5692E+01
      7.118  0.1496E+01  0.1496E+01  0.5806E+01  0.5800E+01
      7.191  0.1162E+01  0.1184E+01  0.5890E+01  0.5886E+01
      7.263  0.8215E+00  0.8172E+00  0.5950E+01  0.5946E+01
      7.336  0.1033E+01  0.1004E+01  0.6025E+01  0.6019E+01
      7.409  0.1061E+01  0.1085E+01  0.6102E+01  0.6098E+01
      7.481  0.6100E+00  0.6401E+00  0.6147E+01  0.6144E+01
      7.554  0.5054E+00  0.5042E+00  0.6184E+01  0.6181E+01
      7.627  0.5885E+00  0.5912E+00  0.6226E+01  0.6224E+01
      7.699  0.4239E+00  0.4327E+00  0.6257E+01  0.6256E+01
      7.772  0.4119E+00  0.3989E+00  0.6287E+01  0.6285E+01
      7.845  0.7252E+00  0.7046E+00  0.6340E+01  0.6336E+01
      7.917  0.1034E+01  0.1025E+01  0.6415E+01  0.6410E+01
      7.990  0.1232E+01  0.1238E+01  0.6505E+01  0.6500E+01
      8.063  0.8653E+00  0.8934E+00  0.6568E+01  0.6565E+01
      8.135  0.4578E+00  0.4617E+00  0.6601E+01  0.6599E+01
      8.208  0.6250E+00  0.5915E+00  0.6646E+01  0.6642E+01
      8.280  0.1163E+01  0.1133E+01  0.6731E+01  0.6724E+01
      8.353  0.1298E+01  0.1314E+01  0.6825E+01  0.6820E+01
      8.426  0.1305E+01  0.1315E+01  0.6920E+01  0.6915E+01
      8.498  0.1050E+01  0.1078E+01  0.6996E+01  0.6994E+01
      8.571  0.5182E+00  0.5337E+00  0.7034E+01  0.7032E+01
      8.644  0.4556E+00  0.4366E+00  0.7067E+01  0.7064E+01
      8.716  0.9782E+00  0.9313E+00  0.7138E+01  0.7132E+01
      8.789  0.1569E+01  0.1553E+01  0.7252E+01  0.7245E+01
      8.862  0.1747E+01  0.1756E+01  0.7379E+01  0.7372E+01
      8.934  0.1538E+01  0.1566E+01  0.7491E+01  0.7486E+01
      9.007  0.9212E+00  0.9569E+00  0.7558E+01  0.7556E+01
      9.080  0.3610E+00  0.3824E+00  0.7584E+01  0.7584E+01
      9.152  0.1371E+00  0.1413E+00  0.7594E+01  0.7594E+01
      9.225  0.1821E+00  0.1747E+00  0.7608E+01  0.7607E+01
      9.298  0.4207E+00  0.4073E+00  0.7638E+01  0.7636E+01
      9.370  0.5284E+00  0.5328E+00  0.7677E+01  0.7675E+01
      9.443  0.3214E+00  0.3305E+00  0.7700E+01  0.7699E+01
      9.516  0.2814E+00  0.2704E+00  0.7721E+01  0.7719E+01
      9.588  0.7214E+00  0.6746E+00  0.7773E+01  0.7768E+01
      9.661  0.1691E+01  0.1632E+01  0.7896E+01  0.7887E+01
      9.734  0.2217E+01  0.2226E+01  0.8057E+01  0.8048E+01
      9.806  0.1741E+01  0.1790E+01  0.8184E+01  0.8178E+01
      9.879  0.9250E+00  0.9565E+00  0.8251E+01  0.8248E+01
      9.952  0.7274E+00  0.7084E+00  0.8304E+01  0.8299E+01
     10.024  0.1185E+01  0.1144E+01  0.8390E+01  0.8382E+01
     10.097  0.1448E+01  0.1454E+01  0.8495E+01  0.8488E+01
     10.170  0.9210E+00  0.9719E+00  0.8562E+01  0.8559E+01
     10.242  0.3539E+00  0.3801E+00  0.8588E+01  0.8587E+01
     10.315  0.2280E+00  0.2245E+00  0.8605E+01  0.8603E+01
     10.387  0.5151E+00  0.4836E+00  0.8642E+01  0.8638E+01
     10.460  0.1073E+01  0.1044E+01  0.8720E+01  0.8714E+01
     10.533  0.1150E+01  0.1169E+01  0.8804E+01  0.8799E+01
     10.605  0.9072E+00  0.9257E+00  0.8870E+01  0.8867E+01
     10.678  0.6642E+00  0.6784E+00  0.8918E+01  0.8916E+01
     10.751  0.4581E+00  0.4619E+00  0.8951E+01  0.8949E+01
     10.823  0.4802E+00  0.4657E+00  0.8986E+01  0.8983E+01
     10.896  0.9465E+00  0.9000E+00  0.9055E+01  0.9049E+01
     10.969  0.1759E+01  0.1714E+01  0.9183E+01  0.9173E+01
     11.041  0.2253E+01  0.2254E+01  0.9346E+01  0.9337E+01
     11.114  0.2104E+01  0.2139E+01  0.9499E+01  0.9493E+01
     11.187  0.1330E+01  0.1375E+01  0.9596E+01  0.9592E+01
     11.259  0.8081E+00  0.8069E+00  0.9655E+01  0.9651E+01
     11.332  0.1293E+01  0.1234E+01  0.9749E+01  0.9741E+01
     11.405  0.2123E+01  0.2100E+01  0.9903E+01  0.9894E+01
     11.477  0.1580E+01  0.1647E+01  0.1002E+02  0.1001E+02
     11.550  0.6064E+00  0.6486E+00  0.1006E+02  0.1006E+02
     11.623  0.2773E+00  0.2804E+00  0.1008E+02  0.1008E+02
     11.695  0.5086E+00  0.4755E+00  0.1012E+02  0.1012E+02
     11.768  0.1365E+01  0.1296E+01  0.1022E+02  0.1021E+02
     11.841  0.2199E+01  0.2180E+01  0.1038E+02  0.1037E+02
     11.913  0.1873E+01  0.1926E+01  0.1051E+02  0.1051E+02
     11.986  0.1045E+01  0.1094E+01  0.1059E+02  0.1059E+02
     12.059  0.4065E+00  0.4313E+00  0.1062E+02  0.1062E+02
     12.131  0.1512E+00  0.1558E+00  0.1063E+02  0.1063E+02
     12.204  0.1774E+00  0.1674E+00  0.1064E+02  0.1064E+02
     12.277  0.4111E+00  0.3928E+00  0.1067E+02  0.1067E+02
     12.349  0.5275E+00  0.5336E+00  0.1071E+02  0.1071E+02
     12.422  0.3110E+00  0.3298E+00  0.1074E+02  0.1073E+02
     12.494  0.2086E+00  0.2179E+00  0.1075E+02  0.1075E+02
     12.567  0.4747E+00  0.4803E+00  0.1078E+02  0.1079E+02
     12.640  0.1214E+01  0.1214E+01  0.1087E+02  0.1087E+02
     12.712  0.1584E+01  0.1574E+01  0.1099E+02  0.1099E+02
     12.785  0.9453E+00  0.9380E+00  0.1106E+02  0.1106E+02
     12.858  0.5314E+00  0.5186E+00  0.1110E+02  0.1109E+02
     12.930  0.5169E+00  0.5104E+00  0.1113E+02  0.1113E+02
     13.003  0.5822E+00  0.5701E+00  0.1118E+02  0.1117E+02
     13.076  0.9651E+00  0.9347E+00  0.1125E+02  0.1124E+02
     13.148  0.1159E+01  0.1160E+01  0.1133E+02  0.1132E+02
     13.221  0.8738E+00  0.8743E+00  0.1139E+02  0.1139E+02
     13.294  0.6856E+00  0.6992E+00  0.1144E+02  0.1144E+02
     13.366  0.3674E+00  0.4026E+00  0.1147E+02  0.1147E+02
     13.439  0.1180E+00  0.1353E+00  0.1148E+02  0.1148E+02
     13.512  0.2862E-01  0.3330E-01  0.1148E+02  0.1148E+02
     13.584  0.8766E-02  0.9749E-02  0.1148E+02  0.1148E+02
     13.657  0.8822E-02  0.9893E-02  0.1148E+02  0.1148E+02
     13.730  0.3729E-01  0.3404E-01  0.1149E+02  0.1148E+02
     13.802  0.1496E+00  0.1373E+00  0.1150E+02  0.1149E+02
     13.875  0.5021E+00  0.4696E+00  0.1153E+02  0.1153E+02
     13.948  0.1017E+01  0.9952E+00  0.1161E+02  0.1160E+02
     14.020  0.9030E+00  0.9323E+00  0.1167E+02  0.1167E+02
     14.093  0.4459E+00  0.4669E+00  0.1170E+02  0.1170E+02
     14.166  0.2702E+00  0.2767E+00  0.1172E+02  0.1172E+02
     14.238  0.1569E+00  0.1650E+00  0.1174E+02  0.1173E+02
     14.311  0.5523E-01  0.5981E-01  0.1174E+02  0.1174E+02
     14.384  0.1328E-01  0.1453E-01  0.1174E+02  0.1174E+02
     14.456  0.3209E-02  0.3523E-02  0.1174E+02  0.1174E+02
     14.529  0.7563E-03  0.8310E-03  0.1174E+02  0.1174E+02
     14.601  0.0000E+00  0.0000E+00  0.1174E+02  0.1174E+02
     14.674  0.0000E+00  0.0000E+00  0.1174E+02  0.1174E+02
     14.747  0.1327E-03  0.1739E-03  0.1174E+02  0.1174E+02
     14.819  0.4345E-03  0.5694E-03  0.1174E+02  0.1174E+02
     14.892  0.1855E-02  0.2430E-02  0.1174E+02  0.1174E+02
     14.965  0.7884E-02  0.1031E-01  0.1174E+02  0.1174E+02
     15.037  0.3282E-01  0.4255E-01  0.1174E+02  0.1174E+02
     15.110  0.1257E+00  0.1579E+00  0.1175E+02  0.1176E+02
     15.183  0.3614E+00  0.4134E+00  0.1178E+02  0.1179E+02
     15.255  0.5313E+00  0.5172E+00  0.1182E+02  0.1182E+02
     15.328  0.3249E+00  0.2733E+00  0.1184E+02  0.1184E+02
     15.401  0.1069E+00  0.8387E-01  0.1185E+02  0.1185E+02
     15.473  0.2742E-01  0.2106E-01  0.1185E+02  0.1185E+02
     15.546  0.6557E-02  0.5011E-02  0.1185E+02  0.1185E+02
     15.619  0.2338E-03  0.2135E-03  0.1185E+02  0.1185E+02
     15.691  0.7654E-03  0.6992E-03  0.1185E+02  0.1185E+02
     15.764  0.3264E-02  0.2983E-02  0.1185E+02  0.1185E+02
     15.837  0.1380E-01  0.1263E-01  0.1185E+02  0.1185E+02
     15.909  0.5632E-01  0.5171E-01  0.1186E+02  0.1186E+02
     15.982  0.2000E+00  0.1863E+00  0.1187E+02  0.1187E+02
     16.055  0.4646E+00  0.4499E+00  0.1191E+02  0.1190E+02
     16.127  0.4844E+00  0.4961E+00  0.1194E+02  0.1194E+02
     16.200  0.2215E+00  0.2367E+00  0.1196E+02  0.1196E+02
     16.273  0.6405E-01  0.6963E-01  0.1196E+02  0.1196E+02
     16.345  0.1651E-01  0.1791E-01  0.1196E+02  0.1196E+02
     16.418  0.6929E-02  0.7002E-02  0.1196E+02  0.1196E+02
     16.490  0.1323E-01  0.1211E-01  0.1196E+02  0.1196E+02
     16.563  0.4954E-01  0.4584E-01  0.1197E+02  0.1197E+02
     16.636  0.1332E+00  0.1273E+00  0.1198E+02  0.1198E+02
     16.708  0.1742E+00  0.1759E+00  0.1199E+02  0.1199E+02
     16.781  0.9565E-01  0.1015E+00  0.1200E+02  0.1200E+02
     16.854  0.2987E-01  0.3245E-01  0.1200E+02  0.1200E+02
     16.926  0.7540E-02  0.8250E-02  0.1200E+02  0.1200E+02
     16.999  0.1796E-02  0.1969E-02  0.1200E+02  0.1200E+02
     17.072  0.0000E+00  0.0000E+00  0.1200E+02  0.1200E+02
     17.144  0.0000E+00  0.0000E+00  0.1200E+02  0.1200E+02
     17.217  0.0000E+00  0.0000E+00  0.1200E+02  0.1200E+02
     17.290  0.0000E+00  0.0000E+00  0.1200E+02  0.1200E+02
     17.362  0.0000E+00  0.0000E+00  0.1200E+02  0.1200E+02
     17.435  0.0000E+00  0.0000E+00  0.1200E+02  0.1200E+02
     17.508  0.0000E+00  0.0000E+00  0.1200E+02  0.1200E+02
     17.580  0.0000E+00  0.0000E+00  0.1200E+02  0.1200E+02
     17.653  0.0000E+00  0.0000E+00  0.1200E+02  0.1200E+02
     17.65297032     -4.14347299  301      7.31690641      1.00000000
     -4.143  0.0000E+00  0.0000E+00  0.0000E+00  0.0000E+00  0.0000E+00  0.0000E+00  0.0000E+00  0.0000E+00  0.0000E+00  0.0000E+00  0.0000E+00  0.0000E+00  0.0000E+00  0.0000E+00  0.0000E+00  0.0000E+00  0.0000E+00  0.0000E+00
     -4.071  0.0000E+00  0.0000E+00  0.0000E+00  0.0000E+00  0.0000E+00  0.0000E+00  0.0000E+00  0.0000E+00  0.0000E+00  0.0000E+00  0.0000E+00  0.0000E+00  0.0000E+00  0.0000E+00  0.0000E+00  0.0000E+00  0.0000E+00  0.0000E+00
     -3.998  0.0000E+00  0.0000E+00  0.0000E+00  0.0000E+00  0.0000E+00  0.0000E+00  0.0000E+00  0.0000E+00  0.0000E+00  0.0000E+00  0.0000E+00  0.0000E+00  0.0000E+00  0.0000E+00  0.0000E+00  0.0000E+00  0.0000E+00  0.0000E+00
     -3.926  0.0000E+00  0.0000E+00  0.0000E+00  0.0000E+00  0.0000E+00  0.0000E+00  0.0000E+00  0.0000E+00  0.0000E+00  0.0000E+00  0.0000E+00  0.0000E+00  0.0000E+00  0.0000E+00  0.0000E+00  0.0000E+00  0.0000E+00  0.0000E+00
     -3.853  0.0000E+00  0.0000E+00  0.0000E+00  0.0000E+00  0.0000E+00  0.0000E+00  0.0000E+00  0.0000E+00  0.0000E+00  0.0000E+00  0.0000E+00  0.0000E+00  0.0000E+00  0.0000E+00  0.0000E+00  0.0000E+00  0.0000E+00  0.0000E+00
     -3.780  0.0000E+00  0.0000E+00  0.0000E+00  0.0000E+00  0.0000E+00  0.0000E+00  0.0000E+00  0.0000E+00  0.0000E+00  0.0000E+00  0.0000E+00  0.0000E+00  0.0000E+00  0.0000E+00  0.0000E+00  0.0000E+00  0.0000E+00  0.0000E+00
     -3.708  0.0000E+00  0.0000E+00  0.0000E+00  0.0000E+00  0.0000E+00  0.0000E+00  0.0000E+00  0.0000E+00  0.0000E+00  0.0000E+00  0.0000E+00  0.0000E+00  0.0000E+00  0.0000E+00  0.0000E+00  0.0000E+00  0.0000E+00  0.0000E+00
     -3.635  0.0000E+00  0.0000E+00  0.0000E+00  0.0000E+00  0.0000E+00  0.0000E+00  0.0000E+00  0.0000E+00  0.0000E+00  0.0000E+00  0.0000E+00  0.0000E+00  0.0000E+00  0.0000E+00  0.0000E+00  0.0000E+00  0.0000E+00  0.0000E+00
     -3.562  0.9098E-05  0.8347E-05  0.4142E-07  0.3800E-07  0.4142E-07  0.3800E-07  0.4142E-07  0.3800E-07  0.0000E+00  0.0000E+00  0.0000E+00  0.0000E+00  0.0000E+00  0.0000E+00  0.0000E+00  0.0000E+00  0.0000E+00  0.0000E+00
     -3.490  0.2977E-04  0.2732E-04  0.1355E-06  0.1244E-06  0.1355E-06  0.1244E-06  0.1355E-06  0.1244E-06  0.0000E+00  0.0000E+00  0.0000E+00  0.0000E+00  0.0000E+00  0.0000E+00  0.0000E+00  0.0000E+00  0.0000E+00  0.0000E+00
     -3.417  0.1267E-03  0.1163E-03  0.5768E-06  0.5295E-06  0.5768E-06  0.5295E-06  0.5768E-06  0.5295E-06  0.0000E+00  0.0000E+00  0.0000E+00  0.0000E+00  0.0000E+00  0.0000E+00  0.0000E+00  0.0000E+00  0.0000E+00  0.0000E+00
     -3.344  0.5310E-03  0.4882E-03  0.2417E-05  0.2223E-05  0.2417E-05  0.2223E-05  0.2417E-05  0.2223E-05  0.0000E+00  0.0000E+00  0.0000E+00  0.0000E+00  0.0000E+00  0.0000E+00  0.0000E+00  0.0000E+00  0.0000E+00  0.0000E+00
     -3.272  0.2088E-02  0.1933E-02  0.9507E-05  0.8800E-05  0.9507E-05  0.8800E-05  0.9507E-05  0.8800E-05  0.0000E+00  0.0000E+00  0.0000E+00  0.0000E+00  0.0000E+00  0.0000E+00  0.0000E+00  0.0000E+00  0.0000E+00  0.0000E+00
     -3.199  0.6533E-02  0.6180E-02  0.2974E-04  0.2814E-04  0.2974E-04  0.2814E-04  0.2974E-04  0.2814E-04  0.0000E+00  0.0000E+00  0.0000E+00  0.0000E+00  0.0000E+00  0.0000E+00  0.0000E+00  0.0000E+00  0.0000E+00  0.0000E+00
     -3.126  0.1133E-01  0.1123E-01  0.5172E-04  0.5123E-04  0.5172E-04  0.5123E-04  0.5172E-04  0.5123E-04  0.0000E+00  0.0000E+00  0.0000E+00  0.0000E+00  0.0000E+00  0.0000E+00  0.0000E+00  0.0000E+00  0.0000E+00  0.0000E+00
     -3.054  0.8227E-02  0.8577E-02  0.3787E-04  0.3944E-04  0.3787E-04  0.3944E-04  0.3787E-04  0.3944E-04  0.0000E+00  0.0000E+00  0.0000E+00  0.0000E+00  0.0000E+00  0.0000E+00  0.0000E+00  0.0000E+00  0.0000E+00  0.0000E+00
     -2.981  0.3094E-02  0.3303E-02  0.1588E-04  0.1669E-04  0.1588E-04  0.1669E-04  0.1588E-04  0.1669E-04  0.0000E+00  0.0000E+00  0.0000E+00  0.0000E+00  0.0000E+00  0.0000E+00  0.0000E+00  0.0000E+00  0.0000E+00  0.0000E+00
     -2.908  0.1387E-02  0.1404E-02  0.1394E-04  0.1340E-04  0.1394E-04  0.1340E-04  0.1394E-04  0.1340E-04  0.0000E+00  0.0000E+00  0.0000E+00  0.0000E+00  0.0000E+00  0.0000E+00  0.0000E+00  0.0000E+00  0.0000E+00  0.0000E+00
     -2.836  0.2701E-02  0.2519E-02  0.4385E-04  0.4052E-04  0.4385E-04  0.4052E-04  0.4385E-04  0.4052E-04  0.0000E+00  0.0000E+00  0.0000E+00  0.0000E+00  0.0000E+00  0.0000E+00  0.0000E+00  0.0000E+00  0.0000E+00  0.0000E+00
     -2.763  0.9434E-02  0.8785E-02  0.1608E-03  0.1497E-03  0.1608E-03  0.1497E-03  0.1608E-03  0.1497E-03  0.0000E+00  0.0000E+00  0.0000E+00  0.0000E+00  0.0000E+00  0.0000E+00  0.0000E+00  0.0000E+00  0.0000E+00  0.0000E+00
     -2.690  0.2506E-01  0.2404E-01  0.4287E-03  0.4112E-03  0.4287E-03  0.4112E-03  0.4287E-03  0.4112E-03  0.0000E+00  0.0000E+00  0.0000E+00  0.0000E+00  0.0000E+00  0.0000E+00  0.0000E+00  0.0000E+00  0.0000E+00  0.0000E+00
     -2.618  0.3239E-01  0.3271E-01  0.5542E-03  0.5597E-03  0.5542E-03  0.5597E-03  0.5542E-03  0.5597E-03  0.0000E+00  0.0000E+00  0.0000E+00  0.0000E+00  0.0000E+00  0.0000E+00  0.0000E+00  0.0000E+00  0.0000E+00  0.0000E+00
     -2.545  0.1764E-01  0.1864E-01  0.3024E-03  0.3195E-03  0.3024E-03  0.3195E-03  0.3024E-03  0.3195E-03  0.0000E+00  0.0000E+00  0.0000E+00  0.0000E+00  0.0000E+00  0.0000E+00  0.0000E+00  0.0000E+00  0.0000E+00  0.0000E+00
     -2.472  0.5700E-02  0.6118E-02  0.1006E-03  0.1075E-03  0.1006E-03  0.1075E-03  0.1006E-03  0.1075E-03  0.0000E+00  0.0000E+00  0.0000E+00  0.0000E+00  0.0000E+00  0.0000E+00  0.0000E+00  0.0000E+00  0.0000E+00  0.0000E+00
     -2.400  0.2377E-02  0.2416E-02  0.5368E-04  0.5330E-04  0.5368E-04  0.5330E-04  0.5368E-04  0.5330E-04  0.0000E+00  0.0000E+00  0.0000E+00  0.0000E+00  0.0000E+00  0.0000E+00  0.0000E+00  0.0000E+00  0.0000E+00  0.0000E+00
     -2.327  0.4366E-02  0.4085E-02  0.1273E-03  0.1185E-03  0.1273E-03  0.1185E-03  0.1273E-03  0.1185E-03  0.0000E+00  0.0000E+00  0.0000E+00  0.0000E+00  0.0000E+00  0.0000E+00  0.0000E+00  0.0000E+00  0.0000E+00  0.0000E+00
     -2.254  0.1385E-01  0.1299E-01  0.4174E-03  0.3917E-03  0.4174E-03  0.3917E-03  0.4174E-03  0.3917E-03  0.0000E+00  0.0000E+00  0.0000E+00  0.0000E+00  0.0000E+00  0.0000E+00  0.0000E+00  0.0000E+00  0.0000E+00  0.0000E+00
     -2.182  0.2948E-01  0.2878E-01  0.8885E-03  0.8675E-03  0.8885E-03  0.8675E-03  0.8885E-03  0.8675E-03  0.0000E+00  0.0000E+00  0.0000E+00  0.0000E+00  0.0000E+00  0.0000E+00  0.0000E+00  0.0000E+00  0.0000E+00  0.0000E+00
     -2.109  0.2731E-01  0.2811E-01  0.8237E-03  0.8480E-03  0.8237E-03  0.8480E-03  0.8237E-03  0.8480E-03  0.0000E+00  0.0000E+00  0.0000E+00  0.0000E+00  0.0000E+00  0.0000E+00  0.0000E+00  0.0000E+00  0.0000E+00  0.0000E+00
     -2.036  0.1158E-01  0.1235E-01  0.3507E-03  0.3739E-03  0.3507E-03  0.3739E-03  0.3507E-03  0.3739E-03  0.0000E+00  0.0000E+00  0.0000E+00  0.0000E+00  0.0000E+00  0.0000E+00  0.0000E+00  0.0000E+00  0.0000E+00  0.0000E+00
     -1.964  0.3731E-02  0.3954E-02  0.1200E-03  0.1261E-03  0.1200E-03  0.1261E-03  0.1200E-03  0.1261E-03  0.0000E+00  0.0000E+00  0.0000E+00  0.0000E+00  0.0000E+00  0.0000E+00  0.0000E+00  0.0000E+00  0.0000E+00  0.0000E+00
     -1.891  0.3021E-02  0.2911E-02  0.1226E-03  0.1167E-03  0.1226E-03  0.1167E-03  0.1226E-03  0.1167E-03  0.0000E+00  0.0000E+00  0.0000E+00  0.0000E+00  0.0000E+00  0.0000E+00  0.0000E+00  0.0000E+00  0.0000E+00  0.0000E+00
     -1.819  0.8868E-02  0.8253E-02  0.3894E-03  0.3620E-03  0.3894E-03  0.3620E-03  0.3894E-03  0.3620E-03  0.0000E+00  0.0000E+00  0.0000E+00  0.0000E+00  0.0000E+00  0.0000E+00  0.0000E+00  0.0000E+00  0.0000E+00  0.0000E+00
     -1.746  0.2592E-01  0.2463E-01  0.1146E-02  0.1089E-02  0.1146E-02  0.1089E-02  0.1146E-02  0.1089E-02  0.0000E+00  0.0000E+00  0.0000E+00  0.0000E+00  0.0000E+00  0.0000E+00  0.0000E+00  0.0000E+00  0.0000E+00  0.0000E+00
     -1.673  0.4094E-01  0.4082E-01  0.1810E-02  0.1805E-02  0.1810E-02  0.1805E-02  0.1810E-02  0.1805E-02  0.0000E+00  0.0000E+00  0.0000E+00  0.0000E+00  0.0000E+00  0.0000E+00  0.0000E+00  0.0000E+00  0.0000E+00  0.0000E+00
     -1.601  0.2691E-01  0.2819E-01  0.1191E-02  0.1247E-02  0.1191E-02  0.1247E-02  0.1191E-02  0.1247E-02  0.0000E+00  0.0000E+00  0.0000E+00  0.0000E+00  0.0000E+00  0.0000E+00  0.0000E+00  0.0000E+00  0.0000E+00  0.0000E+00
     -1.528  0.9486E-02  0.1016E-01  0.4241E-03  0.4535E-03  0.4241E-03  0.4535E-03  0.4241E-03  0.4535E-03  0.0000E+00  0.0000E+00  0.0000E+00  0.0000E+00  0.0000E+00  0.0000E+00  0.0000E+00  0.0000E+00  0.0000E+00  0.0000E+00
     -1.455  0.3781E-02  0.3871E-02  0.1873E-03  0.1897E-03  0.1873E-03  0.1897E-03  0.1873E-03  0.1897E-03  0.0000E+00  0.0000E+00  0.0000E+00  0.0000E+00  0.0000E+00  0.0000E+00  0.0000E+00  0.0000E+00  0.0000E+00  0.0000E+00
     -1.383  0.6328E-02  0.5931E-02  0.3624E-03  0.3384E-03  0.3624E-03  0.3384E-03  0.3624E-03  0.3384E-03  0.0000E+00  0.0000E+00  0.0000E+00  0.0000E+00  0.0000E+00  0.0000E+00  0.0000E+00  0.0000E+00  0.0000E+00  0.0000E+00
     -1.310  0.2088E-01  0.1952E-01  0.1220E-02  0.1141E-02  0.1220E-02  0.1141E-02  0.1220E-02  0.1141E-02  0.0000E+00  0.0000E+00  0.0000E+00  0.0000E+00  0.0000E+00  0.0000E+00  0.0000E+00  0.0000E+00  0.0000E+00  0.0000E+00
     -1.237  0.5001E-01  0.4837E-01  0.2928E-02  0.2832E-02  0.2928E-02  0.2832E-02  0.2928E-02  0.2832E-02  0.0000E+00  0.0000E+00  0.0000E+00  0.0000E+00  0.0000E+00  0.0000E+00  0.0000E+00  0.0000E+00  0.0000E+00  0.0000E+00
     -1.165  0.5506E-01  0.5614E-01  0.3224E-02  0.3287E-02  0.3224E-02  0.3287E-02  0.3224E-02  0.3287E-02  0.0000E+00  0.0000E+00  0.0000E+00  0.0000E+00  0.0000E+00  0.0000E+00  0.0000E+00  0.0000E+00  0.0000E+00  0.0000E+00
     -1.092  0.2629E-01  0.2793E-01  0.1540E-02  0.1637E-02  0.1540E-02  0.1637E-02  0.1540E-02  0.1637E-02  0.0000E+00  0.0000E+00  0.0000E+00  0.0000E+00  0.0000E+00  0.0000E+00  0.0000E+00  0.0000E+00  0.0000E+00  0.0000E+00
     -1.019  0.7991E-02  0.8594E-02  0.4723E-03  0.5073E-03  0.4723E-03  0.5073E-03  0.4723E-03  0.5073E-03  0.0000E+00  0.0000E+00  0.0000E+00  0.0000E+00  0.0000E+00  0.0000E+00  0.0000E+00  0.0000E+00  0.0000E+00  0.0000E+00
     -0.947  0.3166E-02  0.3231E-02  0.2038E-03  0.2062E-03  0.2038E-03  0.2062E-03  0.2038E-03  0.2062E-03  0.0000E+00  0.0000E+00  0.0000E+00  0.0000E+00  0.0000E+00  0.0000E+00  0.0000E+00  0.0000E+00  0.0000E+00  0.0000E+00
     -0.874  0.5425E-02  0.5096E-02  0.3905E-03  0.3658E-03  0.3905E-03  0.3658E-03  0.3905E-03  0.3658E-03  0.0000E+00  0.0000E+00  0.0000E+00  0.0000E+00  0.0000E+00  0.0000E+00  0.0000E+00  0.0000E+00  0.0000E+00  0.0000E+00
     -0.801  0.1576E-01  0.1490E-01  0.1154E-02  0.1091E-02  0.1154E-02  0.1091E-02  0.1154E-02  0.1091E-02  0.0000E+00  0.0000E+00  0.0000E+00  0.0000E+00  0.0000E+00  0.0000E+00  0.0000E+00  0.0000E+00  0.0000E+00  0.0000E+00
     -0.729  0.2809E-01  0.2778E-01  0.2057E-02  0.2034E-02  0.2057E-02  0.2034E-02  0.2057E-02  0.2034E-02  0.0000E+00  0.0000E+00  0.0000E+00  0.0000E+00  0.0000E+00  0.0000E+00  0.0000E+00  0.0000E+00  0.0000E+00  0.0000E+00
     -0.656  0.2100E-01  0.2185E-01  0.1538E-02  0.1601E-02  0.1538E-02  0.1601E-02  0.1538E-02  0.1601E-02  0.0000E+00  0.0000E+00  0.0000E+00  0.0000E+00  0.0000E+00  0.0000E+00  0.0000E+00  0.0000E+00  0.0000E+00  0.0000E+00
     -0.583  0.7934E-02  0.8476E-02  0.5855E-03  0.6247E-03  0.5855E-03  0.6247E-03  0.5855E-03  0.6247E-03  0.0000E+00  0.0000E+00  0.0000E+00  0.0000E+00  0.0000E+00  0.0000E+00  0.0000E+00  0.0000E+00  0.0000E+00  0.0000E+00
     -0.511  0.3149E-02  0.3232E-02  0.2504E-03  0.2549E-03  0.2504E-03  0.2549E-03  0.2504E-03  0.2549E-03  0.0000E+00  0.0000E+00  0.0000E+00  0.0000E+00  0.0000E+00  0.0000E+00  0.0000E+00  0.0000E+00  0.0000E+00  0.0000E+00