   4   4   1   0
  0.2193627E+02  0.4443661E-09  0.4443661E-09  0.4443661E-09  0.5000000E-15
  1.000000000000000E-004
  CAR 
 unknown system                          
     13.97395940     -4.67676296  301      5.13936270      1.00000000
     -4.677  0.0000E+00  0.0000E+00  0.0000E+00  0.0000E+00
     -4.615  0.0000E+00  0.0000E+00  0.0000E+00  0.0000E+00
     -4.552  0.0000E+00  0.0000E+00  0.0000E+00  0.0000E+00
     -4.490  0.0000E+00  0.0000E+00  0.0000E+00  0.0000E+00
     -4.428  0.0000E+00  0.0000E+00  0.0000E+00  0.0000E+00
     -4.366  0.0000E+00  0.0000E+00  0.0000E+00  0.0000E+00
     -4.304  0.0000E+00  0.0000E+00  0.0000E+00  0.0000E+00
     -4.242  0.1554E-03  0.1428E-03  0.9659E-05  0.8877E-05
     -4.179  0.3830E-03  0.3520E-03  0.3347E-04  0.3076E-04
     -4.117  0.1324E-02  0.1217E-02  0.1158E-03  0.1064E-03
     -4.055  0.4546E-02  0.4182E-02  0.3984E-03  0.3665E-03
     -3.993  0.1524E-01  0.1406E-01  0.1346E-02  0.1240E-02
     -3.931  0.4723E-01  0.4395E-01  0.4282E-02  0.3972E-02
     -3.869  0.1171E+00  0.1115E+00  0.1156E-01  0.1090E-01
     -3.806  0.1788E+00  0.1773E+00  0.2268E-01  0.2193E-01
     -3.744  0.1410E+00  0.1462E+00  0.3145E-01  0.3101E-01
     -3.682  0.6839E-01  0.7220E-01  0.3570E-01  0.3550E-01
     -3.620  0.4137E-01  0.4147E-01  0.3827E-01  0.3808E-01
     -3.558  0.7352E-01  0.6898E-01  0.4284E-01  0.4237E-01
     -3.496  0.1997E+00  0.1871E+00  0.5525E-01  0.5400E-01
     -3.433  0.4318E+00  0.4159E+00  0.8210E-01  0.7985E-01
     -3.371  0.5322E+00  0.5361E+00  0.1152E+00  0.1132E+00
     -3.309  0.3395E+00  0.3563E+00  0.1363E+00  0.1353E+00
     -3.247  0.1427E+00  0.1519E+00  0.1452E+00  0.1448E+00
     -3.185  0.7381E-01  0.7496E-01  0.1498E+00  0.1494E+00
     -3.123  0.1124E+00  0.1062E+00  0.1567E+00  0.1561E+00
     -3.060  0.2756E+00  0.2604E+00  0.1739E+00  0.1722E+00
     -2.998  0.5007E+00  0.4892E+00  0.2051E+00  0.2028E+00
     -2.936  0.4883E+00  0.4997E+00  0.2355E+00  0.2338E+00
     -2.874  0.2594E+00  0.2745E+00  0.2516E+00  0.2509E+00
     -2.812  0.1102E+00  0.1159E+00  0.2584E+00  0.2581E+00
     -2.750  0.9167E-01  0.8918E-01  0.2641E+00  0.2636E+00
     -2.687  0.2041E+00  0.1913E+00  0.2768E+00  0.2755E+00
     -2.625  0.4819E+00  0.4595E+00  0.3068E+00  0.3041E+00
     -2.563  0.7162E+00  0.7115E+00  0.3514E+00  0.3484E+00
     -2.501  0.5502E+00  0.5713E+00  0.3856E+00  0.3839E+00
     -2.439  0.2547E+00  0.2704E+00  0.4014E+00  0.4007E+00
     -2.377  0.1260E+00  0.1290E+00  0.4092E+00  0.4087E+00
     -2.314  0.1728E+00  0.1637E+00  0.4200E+00  0.4189E+00
     -2.252  0.4370E+00  0.4106E+00  0.4472E+00  0.4445E+00
     -2.190  0.9031E+00  0.8730E+00  0.5033E+00  0.4987E+00
     -2.128  0.1049E+01  0.1061E+01  0.5686E+00  0.5647E+00
     -2.066  0.6341E+00  0.6674E+00  0.6080E+00  0.6062E+00
     -2.003  0.2543E+00  0.2719E+00  0.6238E+00  0.6231E+00
     -1.941  0.1141E+00  0.1178E+00  0.6309E+00  0.6305E+00
     -1.879  0.1400E+00  0.1336E+00  0.6396E+00  0.6388E+00
     -1.817  0.3136E+00  0.2976E+00  0.6591E+00  0.6573E+00
     -1.755  0.5211E+00  0.5127E+00  0.6916E+00  0.6893E+00
     -1.693  0.4610E+00  0.4746E+00  0.7203E+00  0.7188E+00
     -1.630  0.2327E+00  0.2462E+00  0.7348E+00  0.7341E+00
     -1.568  0.1128E+00  0.1162E+00  0.7418E+00  0.7413E+00
     -1.506  0.1414E+00  0.1344E+00  0.7506E+00  0.7497E+00
     -1.444  0.3606E+00  0.3377E+00  0.7730E+00  0.7707E+00
     -1.382  0.8109E+00  0.7779E+00  0.8234E+00  0.8191E+00
     -1.320  0.1076E+01  0.1079E+01  0.8904E+00  0.8862E+00
     -1.257  0.7382E+00  0.7713E+00  0.9363E+00  0.9341E+00
     -1.195  0.3279E+00  0.3476E+00  0.9567E+00  0.9557E+00
     -1.133  0.1888E+00  0.1898E+00  0.9684E+00  0.9675E+00
     -1.071  0.3219E+00  0.3030E+00  0.9884E+00  0.9864E+00
     -1.009  0.8107E+00  0.7653E+00  0.1039E+01  0.1034E+01
     -0.947  0.1491E+01  0.1456E+01  0.1132E+01  0.1125E+01
     -0.884  0.1472E+01  0.1505E+01  0.1223E+01  0.1218E+01
     -0.822  0.7796E+00  0.8260E+00  0.1272E+01  0.1270E+01
     -0.760  0.2956E+00  0.3163E+00  0.1290E+01  0.1289E+01
     -0.698  0.1389E+00  0.1423E+00  0.1299E+01  0.1298E+01
     -0.636  0.1849E+00  0.1763E+00  0.1310E+01  0.1309E+01
     -0.574  0.3869E+00  0.3707E+00  0.1334E+01  0.1332E+01
     -0.511  0.5398E+00  0.5382E+00  0.1368E+01  0.1366E+01
     -0.449  0.3962E+00  0.4123E+00  0.1393E+01  0.1391E+01
     -0.387  0.1865E+00  0.1968E+00  0.1404E+01  0.1404E+01
     -0.325  0.1204E+00  0.1198E+00  0.1412E+01  0.1411E+01
     -0.263  0.2275E+00  0.2134E+00  0.1426E+01  0.1424E+01
     -0.201  0.5925E+00  0.5583E+00  0.1463E+01  0.1459E+01
     -0.138  0.1133E+01  0.1104E+01  0.1533E+01  0.1528E+01
     -0.076  0.1174E+01  0.1196E+01  0.1606E+01  0.1602E+01
     -0.014  0.6531E+00  0.6892E+00  0.1647E+01  0.1645E+01
      0.048  0.2809E+00  0.2955E+00  0.1664E+01  0.1663E+01
      0.110  0.2258E+00  0.2203E+00  0.1678E+01  0.1677E+01
      0.172  0.4883E+00  0.4584E+00  0.1709E+01  0.1706E+01
      0.235  0.1124E+01  0.1075E+01  0.1779E+01  0.1772E+01
      0.297  0.1612E+01  0.1606E+01  0.1879E+01  0.1872E+01
      0.359  0.1194E+01  0.1243E+01  0.1953E+01  0.1950E+01
      0.421  0.5307E+00  0.5656E+00  0.1986E+01  0.1985E+01
      0.483  0.2220E+00  0.2320E+00  0.2000E+01  0.1999E+01
      0.545  0.2171E+00  0.2092E+00  0.2013E+01  0.2012E+01
      0.608  0.4853E+00  0.4581E+00  0.2044E+01  0.2041E+01
      0.670  0.9441E+00  0.9192E+00  0.2103E+01  0.2098E+01
      0.732  0.1030E+01  0.1047E+01  0.2167E+01  0.2163E+01
      0.794  0.6026E+00  0.6339E+00  0.2204E+01  0.2202E+01
      0.856  0.2812E+00  0.2932E+00  0.2222E+01  0.2221E+01
      0.918  0.2718E+00  0.2626E+00  0.2239E+01  0.2237E+01
      0.981  0.6082E+00  0.5733E+00  0.2276E+01  0.2273E+01
      1.043  0.1261E+01  0.1217E+01  0.2355E+01  0.2348E+01
      1.105  0.1566E+01  0.1574E+01  0.2452E+01  0.2446E+01
      1.167  0.1049E+01  0.1096E+01  0.2517E+01  0.2514E+01
      1.229  0.4616E+00  0.4897E+00  0.2546E+01  0.2545E+01
      1.291  0.2515E+00  0.2544E+00  0.2562E+01  0.2561E+01
      1.354  0.3929E+00  0.3719E+00  0.2586E+01  0.2584E+01
      1.416  0.9172E+00  0.8715E+00  0.2643E+01  0.2638E+01
      1.478  0.1523E+01  0.1501E+01  0.2738E+01  0.2731E+01
      1.540  0.1381E+01  0.1418E+01  0.2824E+01  0.2820E+01
      1.602  0.7117E+00  0.7532E+00  0.2868E+01  0.2866E+01
      1.664  0.3049E+00  0.3199E+00  0.2887E+01  0.2886E+01
      1.727  0.2630E+00  0.2559E+00  0.2904E+01  0.2902E+01
      1.789  0.5396E+00  0.5118E+00  0.2937E+01  0.2934E+01
      1.851  0.9862E+00  0.9638E+00  0.2999E+01  0.2994E+01
      1.913  0.9944E+00  0.1015E+01  0.3061E+01  0.3057E+01
      1.975  0.5379E+00  0.5687E+00  0.3094E+01  0.3093E+01
      2.037  0.2077E+00  0.2216E+00  0.3107E+01  0.3106E+01
      2.100  0.1044E+00  0.1060E+00  0.3113E+01  0.3113E+01
      2.162  0.1587E+00  0.1500E+00  0.3123E+01  0.3122E+01
      2.224  0.3930E+00  0.3708E+00  0.3148E+01  0.3145E+01
      2.286  0.7575E+00  0.7340E+00  0.3195E+01  0.3191E+01
      2.348  0.9427E+00  0.9413E+00  0.3254E+01  0.3250E+01
      2.411  0.7710E+00  0.7913E+00  0.3301E+01  0.3299E+01
      2.473  0.4849E+00  0.4989E+00  0.3332E+01  0.3330E+01
      2.535  0.5081E+00  0.4913E+00  0.3363E+01  0.3360E+01
      2.597  0.1095E+01  0.1036E+01  0.3431E+01  0.3425E+01
      2.659  0.2105E+01  0.2044E+01  0.3562E+01  0.3552E+01
      2.721  0.2407E+01  0.2427E+01  0.3712E+01  0.3703E+01
      2.784  0.1659E+01  0.1721E+01  0.3815E+01  0.3810E+01
      2.846  0.8151E+00  0.8615E+00  0.3866E+01  0.3864E+01
      2.908  0.3790E+00  0.3941E+00  0.3889E+01  0.3888E+01
      2.970  0.3727E+00  0.3613E+00  0.3912E+01  0.3910E+01
      3.032  0.7111E+00  0.6805E+00  0.3957E+01  0.3953E+01
      3.094  0.1164E+01  0.1136E+01  0.4029E+01  0.4024E+01
      3.157  0.1381E+01  0.1381E+01  0.4115E+01  0.4110E+01
      3.219  0.1057E+01  0.1093E+01  0.4181E+01  0.4178E+01
      3.281  0.5654E+00  0.5902E+00  0.4216E+01  0.4214E+01
      3.343  0.4531E+00  0.4463E+00  0.4244E+01  0.4242E+01
      3.405  0.7828E+00  0.7513E+00  0.4293E+01  0.4289E+01
      3.467  0.1181E+01  0.1168E+01  0.4367E+01  0.4362E+01
      3.530  0.1018E+01  0.1046E+01  0.4430E+01  0.4427E+01
      3.592  0.5426E+00  0.5717E+00  0.4464E+01  0.4462E+01
      3.654  0.2343E+00  0.2470E+00  0.4478E+01  0.4478E+01
      3.716  0.1660E+00  0.1635E+00  0.4489E+01  0.4488E+01
      3.778  0.3463E+00  0.3235E+00  0.4510E+01  0.4508E+01
      3.840  0.9350E+00  0.8784E+00  0.4568E+01  0.4562E+01
      3.903  0.1871E+01  0.1814E+01  0.4685E+01  0.4675E+01
      3.965  0.2058E+01  0.2090E+01  0.4813E+01  0.4805E+01
      4.027  0.1189E+01  0.1255E+01  0.4887E+01  0.4883E+01
      4.089  0.4703E+00  0.5028E+00  0.4916E+01  0.4915E+01
      4.151  0.2209E+00  0.2268E+00  0.4929E+01  0.4929E+01
      4.213  0.2723E+00  0.2619E+00  0.4946E+01  0.4945E+01
      4.276  0.4803E+00  0.4670E+00  0.4976E+01  0.4974E+01
      4.338  0.5221E+00  0.5293E+00  0.5009E+01  0.5007E+01
      4.400  0.3206E+00  0.3351E+00  0.5029E+01  0.5028E+01
      4.462  0.1915E+00  0.1938E+00  0.5041E+01  0.5040E+01
      4.524  0.2980E+00  0.2810E+00  0.5059E+01  0.5058E+01
      4.586  0.7966E+00  0.7458E+00  0.5109E+01  0.5104E+01
      4.649  0.1809E+01  0.1733E+01  0.5221E+01  0.5212E+01
      4.711  0.2543E+01  0.2532E+01  0.5380E+01  0.5369E+01
      4.773  0.2003E+01  0.2070E+01  0.5504E+01  0.5498E+01
      4.835  0.9991E+00  0.1056E+01  0.5566E+01  0.5563E+01
      4.897  0.4862E+00  0.5014E+00  0.5596E+01  0.5595E+01
      4.959  0.5796E+00  0.5540E+00  0.5633E+01  0.5629E+01
      5.022  0.1323E+01  0.1253E+01  0.5715E+01  0.5707E+01
      5.084  0.2411E+01  0.2353E+01  0.5865E+01  0.5854E+01
      5.146  0.2459E+01  0.2506E+01  0.6018E+01  0.6010E+01
      5.208  0.1368E+01  0.1445E+01  0.6103E+01  0.6099E+01
      5.270  0.5274E+00  0.5648E+00  0.6136E+01  0.6135E+01
      5.332  0.2244E+00  0.2328E+00  0.6150E+01  0.6149E+01
      5.395  0.2473E+00  0.2372E+00  0.6165E+01  0.6164E+01
      5.457  0.5028E+00  0.4806E+00  0.6196E+01  0.6194E+01
      5.519  0.7968E+00  0.7814E+00  0.6246E+01  0.6243E+01
      5.581  0.8736E+00  0.8763E+00  0.6301E+01  0.6297E+01
      5.643  0.7011E+00  0.7191E+00  0.6344E+01  0.6342E+01
      5.705  0.4763E+00  0.4850E+00  0.6374E+01  0.6372E+01
      5.768  0.5872E+00  0.5643E+00  0.6410E+01  0.6407E+01
      5.830  0.1187E+01  0.1135E+01  0.6484E+01  0.6478E+01
      5.892  0.1856E+01  0.1827E+01  0.6600E+01  0.6591E+01
      5.954  0.1799E+01  0.1831E+01  0.6711E+01  0.6705E+01
      6.016  0.1073E+01  0.1127E+01  0.6778E+01  0.6775E+01
      6.078  0.4719E+00  0.4986E+00  0.6808E+01  0.6806E+01
      6.141  0.3123E+00  0.3097E+00  0.6827E+01  0.6825E+01
      6.203  0.5812E+00  0.5475E+00  0.6863E+01  0.6860E+01
      6.265  0.1304E+01  0.1244E+01  0.6944E+01  0.6937E+01
      6.327  0.1987E+01  0.1963E+01  0.7068E+01  0.7059E+01
      6.389  0.1764E+01  0.1809E+01  0.7178E+01  0.7172E+01
      6.452  0.1016E+01  0.1061E+01  0.7241E+01  0.7238E+01
      6.514  0.7053E+00  0.7050E+00  0.7285E+01  0.7282E+01
      6.576  0.1045E+01  0.1008E+01  0.7350E+01  0.7344E+01
      6.638  0.1528E+01  0.1511E+01  0.7445E+01  0.7438E+01
      6.700  0.1328E+01  0.1364E+01  0.7528E+01  0.7523E+01
      6.762  0.6930E+00  0.7328E+00  0.7571E+01  0.7569E+01
      6.825  0.2788E+00  0.2960E+00  0.7588E+01  0.7587E+01
      6.887  0.1697E+00  0.1694E+00  0.7599E+01  0.7598E+01
      6.949  0.2963E+00  0.2801E+00  0.7617E+01  0.7615E+01
      7.011  0.6430E+00  0.6170E+00  0.7657E+01  0.7654E+01
      7.073  0.1051E+01  0.1025E+01  0.7723E+01  0.7718E+01
      7.135  0.1407E+01  0.1382E+01  0.7810E+01  0.7803E+01
      7.198  0.1631E+01  0.1627E+01  0.7912E+01  0.7905E+01
      7.260  0.1428E+01  0.1454E+01  0.8000E+01  0.7995E+01
      7.322  0.1227E+01  0.1223E+01  0.8077E+01  0.8071E+01
      7.384  0.1763E+01  0.1706E+01  0.8186E+01  0.8177E+01
      7.446  0.2519E+01  0.2491E+01  0.8343E+01  0.8332E+01
      7.508  0.2229E+01  0.2286E+01  0.8482E+01  0.8474E+01
      7.571  0.1177E+01  0.1245E+01  0.8555E+01  0.8552E+01
      7.633  0.4587E+00  0.4894E+00  0.8583E+01  0.8582E+01
      7.695  0.2362E+00  0.2396E+00  0.8598E+01  0.8597E+01
      7.757  0.3533E+00  0.3354E+00  0.8620E+01  0.8618E+01
      7.819  0.7609E+00  0.7279E+00  0.8668E+01  0.8663E+01
      7.881  0.1083E+01  0.1079E+01  0.8735E+01  0.8731E+01
      7.944  0.8149E+00  0.8457E+00  0.8786E+01  0.8783E+01
      8.006  0.4256E+00  0.4429E+00  0.8812E+01  0.8811E+01
      8.068  0.3810E+00  0.3709E+00  0.8836E+01  0.8834E+01
      8.130  0.7439E+00  0.7068E+00  0.8882E+01  0.8878E+01
      8.192  0.1399E+01  0.1351E+01  0.8969E+01  0.8962E+01
      8.254  0.1962E+01  0.1941E+01  0.9091E+01  0.9083E+01
      8.317  0.1833E+01  0.1871E+01  0.9205E+01  0.9199E+01
      8.379  0.1085E+01  0.1133E+01  0.9273E+01  0.9269E+01
      8.441  0.7038E+00  0.7068E+00  0.9317E+01  0.9313E+01
      8.503  0.1077E+01  0.1027E+01  0.9384E+01  0.9377E+01
      8.565  0.2027E+01  0.1958E+01  0.9510E+01  0.9499E+01
      8.627  0.2714E+01  0.2688E+01  0.9678E+01  0.9666E+01
      8.690  0.2712E+01  0.2730E+01  0.9847E+01  0.9836E+01
      8.752  0.2076E+01  0.2138E+01  0.9976E+01  0.9969E+01
      8.814  0.1152E+01  0.1208E+01  0.1005E+02  0.1004E+02
      8.876  0.7046E+00  0.7131E+00  0.1009E+02  0.1009E+02
      8.938  0.9706E+00  0.9329E+00  0.1015E+02  0.1015E+02
      9.000  0.1634E+01  0.1591E+01  0.1025E+02  0.1025E+02
      9.063  0.1908E+01  0.1912E+01  0.1037E+02  0.1036E+02
      9.125  0.1454E+01  0.1501E+01  0.1046E+02  0.1046E+02
      9.187  0.8446E+00  0.8759E+00  0.1052E+02  0.1051E+02
      9.249  0.6787E+00  0.6775E+00  0.1056E+02  0.1055E+02
      9.311  0.7546E+00  0.7516E+00  0.1060E+02  0.1060E+02
      9.373  0.7478E+00  0.7491E+00  0.1065E+02  0.1065E+02
      9.436  0.7020E+00  0.7093E+00  0.1070E+02  0.1069E+02
      9.498  0.4944E+00  0.5131E+00  0.1073E+02  0.1072E+02
      9.560  0.3138E+00  0.3223E+00  0.1075E+02  0.1074E+02
      9.622  0.4330E+00  0.4224E+00  0.1077E+02  0.1077E+02
      9.684  0.9554E+00  0.9258E+00  0.1083E+02  0.1083E+02
      9.746  0.1557E+01  0.1536E+01  0.1093E+02  0.1092E+02
      9.809  0.1461E+01  0.1475E+01  0.1102E+02  0.1102E+02
      9.871  0.9527E+00  0.9695E+00  0.1108E+02  0.1108E+02
      9.933  0.6248E+00  0.6376E+00  0.1112E+02  0.1112E+02
      9.995  0.3912E+00  0.4032E+00  0.1114E+02  0.1114E+02
     10.057  0.3272E+00  0.3217E+00  0.1116E+02  0.1116E+02
     10.119  0.5841E+00  0.5544E+00  0.1120E+02  0.1119E+02
     10.182  0.1017E+01  0.9904E+00  0.1126E+02  0.1126E+02
     10.244  0.1008E+01  0.1023E+01  0.1132E+02  0.1132E+02
     10.306  0.6046E+00  0.6074E+00  0.1136E+02  0.1136E+02
     10.368  0.4429E+00  0.3885E+00  0.1139E+02  0.1138E+02
     10.430  0.5481E+00  0.4828E+00  0.1142E+02  0.1141E+02
     10.492  0.5169E+00  0.5557E+00  0.1146E+02  0.1145E+02
     10.555  0.2836E+00  0.3645E+00  0.1147E+02  0.1147E+02
     10.617  0.1367E+00  0.1765E+00  0.1148E+02  0.1148E+02
     10.679  0.1598E+00  0.1649E+00  0.1149E+02  0.1149E+02
     10.741  0.3932E+00  0.3725E+00  0.1152E+02  0.1151E+02
     10.803  0.8560E+00  0.8241E+00  0.1157E+02  0.1157E+02
     10.866  0.1096E+01  0.1100E+01  0.1164E+02  0.1163E+02
     10.928  0.7714E+00  0.8003E+00  0.1169E+02  0.1168E+02
     10.990  0.4355E+00  0.4511E+00  0.1171E+02  0.1171E+02
     11.052  0.2596E+00  0.2702E+00  0.1173E+02  0.1173E+02
     11.114  0.1229E+00  0.1311E+00  0.1174E+02  0.1174E+02
     11.176  0.4371E-01  0.4740E-01  0.1174E+02  0.1174E+02
     11.239  0.1127E-01  0.1230E-01  0.1174E+02  0.1174E+02
     11.301  0.3331E-02  0.3646E-02  0.1174E+02  0.1174E+02
     11.363  0.9678E-03  0.1060E-02  0.1174E+02  0.1174E+02
     11.425  0.0000E+00  0.0000E+00  0.1174E+02  0.1174E+02
     11.487  0.2739E-03  0.2258E-03  0.1174E+02  0.1174E+02
     11.549  0.6755E-03  0.5568E-03  0.1174E+02  0.1174E+02
     11.612  0.2338E-02  0.1928E-02  0.1174E+02  0.1174E+02
     11.674  0.8060E-02  0.6652E-02  0.1174E+02  0.1174E+02
     11.736  0.2739E-01  0.2269E-01  0.1174E+02  0.1174E+02
     11.798  0.8876E-01  0.7437E-01  0.1175E+02  0.1175E+02
     11.860  0.2484E+00  0.2153E+00  0.1176E+02  0.1176E+02
     11.922  0.4822E+00  0.4507E+00  0.1179E+02  0.1179E+02
     11.985  0.5038E+00  0.5237E+00  0.1183E+02  0.1182E+02
     12.047  0.2776E+00  0.3150E+00  0.1184E+02  0.1184E+02
     12.109  0.1024E+00  0.1215E+00  0.1185E+02  0.1185E+02
     12.171  0.3239E-01  0.3890E-01  0.1185E+02  0.1185E+02
     12.233  0.1050E-01  0.1240E-01  0.1185E+02  0.1185E+02
     12.295  0.6410E-02  0.6686E-02  0.1185E+02  0.1185E+02
     12.358  0.1261E-01  0.1156E-01  0.1185E+02  0.1185E+02
     12.420  0.4237E-01  0.3896E-01  0.1186E+02  0.1186E+02
     12.482  0.1324E+00  0.1227E+00  0.1186E+02  0.1186E+02
     12.544  0.3349E+00  0.3174E+00  0.1188E+02  0.1188E+02
     12.606  0.5308E+00  0.5247E+00  0.1192E+02  0.1192E+02
     12.668  0.4329E+00  0.4487E+00  0.1194E+02  0.1194E+02
     12.731  0.1996E+00  0.2135E+00  0.1196E+02  0.1196E+02
     12.793  0.6840E-01  0.7408E-01  0.1196E+02  0.1196E+02
     12.855  0.2261E-01  0.2428E-01  0.1196E+02  0.1196E+02
     12.917  0.1295E-01  0.1292E-01  0.1196E+02  0.1196E+02
     12.979  0.2454E-01  0.2289E-01  0.1196E+02  0.1196E+02
     13.041  0.6693E-01  0.6243E-01  0.1197E+02  0.1197E+02
     13.104  0.1448E+00  0.1393E+00  0.1198E+02  0.1198E+02
     13.166  0.1768E+00  0.1783E+00  0.1199E+02  0.1199E+02
     13.228  0.1110E+00  0.1169E+00  0.1200E+02  0.1200E+02
     13.290  0.4379E-01  0.4723E-01  0.1200E+02  0.1200E+02
     13.352  0.1400E-01  0.1524E-01  0.1200E+02  0.1200E+02
     13.414  0.4166E-02  0.4546E-02  0.1200E+02  0.1200E+02
     13.477  0.1212E-02  0.1324E-02  0.1200E+02  0.1200E+02
     13.539  0.0000E+00  0.0000E+00  0.1200E+02  0.1200E+02
     13.601  0.0000E+00  0.0000E+00  0.1200E+02  0.1200E+02
     13.663  0.0000E+00  0.0000E+00  0.1200E+02  0.1200E+02
     13.725  0.0000E+00  0.0000E+00  0.1200E+02  0.1200E+02
     13.787  0.0000E+00  0.0000E+00  0.1200E+02  0.1200E+02
     13.850  0.0000E+00  0.0000E+00  0.1200E+02  0.1200E+02
     13.912  0.0000E+00  0.0000E+00  0.1200E+02  0.1200E+02
     13.974  0.0000E+00  0.0000E+00  0.1200E+02  0.1200E+02
     13.97395940     -4.67676296  301      5.13936270      1.00000000
     -4.677  0.0000E+00  0.0000E+00  0.0000E+00  0.0000E+00  0.0000E+00  0.0000E+00  0.0000E+00  0.0000E+00  0.0000E+00  0.0000E+00  0.0000E+00  0.0000E+00  0.0000E+00  0.0000E+00  0.0000E+00  0.0000E+00  0.0000E+00  0.0000E+00
     -4.615  0.0000E+00  0.0000E+00  0.0000E+00  0.0000E+00  0.0000E+00  0.0000E+00  0.0000E+00  0.0000E+00  0.0000E+00  0.0000E+00  0.0000E+00  0.0000E+00  0.0000E+00  0.0000E+00  0.0000E+00  0.0000E+00  0.0000E+00  0.0000E+00
     -4.552  0.0000E+00  0.0000E+00  0.0000E+00  0.0000E+00  0.0000E+00  0.0000E+00  0.0000E+00  0.0000E+00  0.0000E+00  0.0000E+00  0.0000E+00  0.0000E+00  0.0000E+00  0.0000E+00  0.0000E+00  0.0000E+00  0.0000E+00  0.0000E+00
     -4.490  0.0000E+00  0.0000E+00  0.0000E+00  0.0000E+00  0.0000E+00  0.0000E+00  0.0000E+00  0.0000E+00  0.0000E+00  0.0000E+00  0.0000E+00  0.0000E+00  0.0000E+00  0.0000E+00  0.0000E+00  0.0000E+00  0.0000E+00  0.0000E+00
     -4.428  0.0000E+00  0.0000E+00  0.0000E+00  0.0000E+00  0.0000E+00  0.0000E+00  0.0000E+00  0.0000E+00  0.0000E+00  0.0000E+00  0.0000E+00  0.0000E+00  0.0000E+00  0.0000E+00  0.0000E+00  0.0000E+00  0.0000E+00  0.0000E+00
     -4.366  0.0000E+00  0.0000E+00  0.0000E+00  0.0000E+00  0.0000E+00  0.0000E+00  0.0000E+00  0.0000E+00  0.0000E+00  0.0000E+00  0.0000E+00  0.0000E+00  0.0000E+00  0.0000E+00  0.0000E+00  0.0000E+00  0.0000E+00  0.0000E+00
     -4.304  0.0000E+00  0.0000E+00  0.0000E+00  0.0000E+00  0.0000E+00  0.0000E+00  0.0000E+00  0.0000E+00  0.0000E+00  0.0000E+00  0.0000E+00  0.0000E+00  0.0000E+00  0.0000E+00  0.0000E+00  0.0000E+00  0.0000E+00  0.0000E+00
     -4.242  0.8969E-05  0.8239E-05  0.3243E-07  0.2980E-07  0.3243E-07  0.2980E-07  0.3243E-07  0.2980E-07  0.0000E+00  0.0000E+00  0.0000E+00  0.0000E+00  0.0000E+00  0.0000E+00  0.0000E+00  0.0000E+00  0.0000E+00  0.0000E+00
     -4.179  0.2211E-04  0.2031E-04  0.7993E-07  0.7346E-07  0.7993E-07  0.7346E-07  0.7993E-07  0.7346E-07  0.0000E+00  0.0000E+00  0.0000E+00  0.0000E+00  0.0000E+00  0.0000E+00  0.0000E+00  0.0000E+00  0.0000E+00  0.0000E+00
     -4.117  0.7644E-04  0.7024E-04  0.2764E-06  0.2540E-06  0.2764E-06  0.2540E-06  0.2764E-06  0.2540E-06  0.0000E+00  0.0000E+00  0.0000E+00  0.0000E+00  0.0000E+00  0.0000E+00  0.0000E+00  0.0000E+00  0.0000E+00  0.0000E+00
     -4.055  0.2624E-03  0.2413E-03  0.9488E-06  0.8728E-06  0.9488E-06  0.8728E-06  0.9488E-06  0.8728E-06  0.0000E+00  0.0000E+00  0.0000E+00  0.0000E+00  0.0000E+00  0.0000E+00  0.0000E+00  0.0000E+00  0.0000E+00  0.0000E+00
     -3.993  0.8796E-03  0.8111E-03  0.3180E-05  0.2933E-05  0.3180E-05  0.2933E-05  0.3180E-05  0.2933E-05  0.0000E+00  0.0000E+00  0.0000E+00  0.0000E+00  0.0000E+00  0.0000E+00  0.0000E+00  0.0000E+00  0.0000E+00  0.0000E+00
     -3.931  0.2727E-02  0.2536E-02  0.9858E-05  0.9171E-05  0.9858E-05  0.9171E-05  0.9858E-05  0.9171E-05  0.0000E+00  0.0000E+00  0.0000E+00  0.0000E+00  0.0000E+00  0.0000E+00  0.0000E+00  0.0000E+00  0.0000E+00  0.0000E+00
     -3.869  0.6762E-02  0.6432E-02  0.2456E-04  0.2337E-04  0.2456E-04  0.2337E-04  0.2456E-04  0.2337E-04  0.0000E+00  0.0000E+00  0.0000E+00  0.0000E+00  0.0000E+00  0.0000E+00  0.0000E+00  0.0000E+00  0.0000E+00  0.0000E+00
     -3.806  0.1032E-01  0.1023E-01  0.3759E-04  0.3725E-04  0.3759E-04  0.3725E-04  0.3759E-04  0.3725E-04  0.0000E+00  0.0000E+00  0.0000E+00  0.0000E+00  0.0000E+00  0.0000E+00  0.0000E+00  0.0000E+00  0.0000E+00  0.0000E+00
     -3.744  0.8138E-02  0.8431E-02  0.3038E-04  0.3137E-04  0.3038E-04  0.3137E-04  0.3038E-04  0.3137E-04  0.0000E+00  0.0000E+00  0.0000E+00  0.0000E+00  0.0000E+00  0.0000E+00  0.0000E+00  0.0000E+00  0.0000E+00  0.0000E+00
     -3.682  0.3939E-02  0.4158E-02  0.1755E-04  0.1808E-04  0.1755E-04  0.1808E-04  0.1755E-04  0.1808E-04  0.0000E+00  0.0000E+00  0.0000E+00  0.0000E+00  0.0000E+00  0.0000E+00  0.0000E+00  0.0000E+00  0.0000E+00  0.0000E+00
     -3.620  0.2358E-02  0.2365E-02  0.1983E-04  0.1896E-04  0.1983E-04  0.1896E-04  0.1983E-04  0.1896E-04  0.0000E+00  0.0000E+00  0.0000E+00  0.0000E+00  0.0000E+00  0.0000E+00  0.0000E+00  0.0000E+00  0.0000E+00  0.0000E+00
     -3.558  0.4146E-02  0.3890E-02  0.5226E-04  0.4851E-04  0.5226E-04  0.4851E-04  0.5226E-04  0.4851E-04  0.0000E+00  0.0000E+00  0.0000E+00  0.0000E+00  0.0000E+00  0.0000E+00  0.0000E+00  0.0000E+00  0.0000E+00  0.0000E+00
     -3.496  0.1124E-01  0.1052E-01  0.1504E-03  0.1407E-03  0.1504E-03  0.1407E-03  0.1504E-03  0.1407E-03  0.0000E+00  0.0000E+00  0.0000E+00  0.0000E+00  0.0000E+00  0.0000E+00  0.0000E+00  0.0000E+00  0.0000E+00  0.0000E+00
     -3.433  0.2430E-01  0.2339E-01  0.3273E-03  0.3151E-03  0.3273E-03  0.3151E-03  0.3273E-03  0.3151E-03  0.0000E+00  0.0000E+00  0.0000E+00  0.0000E+00  0.0000E+00  0.0000E+00  0.0000E+00  0.0000E+00  0.0000E+00  0.0000E+00
     -3.371  0.2994E-01  0.3015E-01  0.4039E-03  0.4068E-03  0.4039E-03  0.4068E-03  0.4039E-03  0.4068E-03  0.0000E+00  0.0000E+00  0.0000E+00  0.0000E+00  0.0000E+00  0.0000E+00  0.0000E+00  0.0000E+00  0.0000E+00  0.0000E+00
     -3.309  0.1910E-01  0.2003E-01  0.2589E-03  0.2714E-03  0.2589E-03  0.2714E-03  0.2589E-03  0.2714E-03  0.0000E+00  0.0000E+00  0.0000E+00  0.0000E+00  0.0000E+00  0.0000E+00  0.0000E+00  0.0000E+00  0.0000E+00  0.0000E+00
     -3.247  0.8017E-02  0.8533E-02  0.1130E-03  0.1196E-03  0.1130E-03  0.1196E-03  0.1130E-03  0.1196E-03  0.0000E+00  0.0000E+00  0.0000E+00  0.0000E+00  0.0000E+00  0.0000E+00  0.0000E+00  0.0000E+00  0.0000E+00  0.0000E+00
     -3.185  0.4110E-02  0.4176E-02  0.7236E-04  0.7194E-04  0.7236E-04  0.7194E-04  0.7236E-04  0.7194E-04  0.0000E+00  0.0000E+00  0.0000E+00  0.0000E+00  0.0000E+00  0.0000E+00  0.0000E+00  0.0000E+00  0.0000E+00  0.0000E+00
     -3.123  0.6185E-02  0.5844E-02  0.1379E-03  0.1293E-03  0.1379E-03  0.1293E-03  0.1379E-03  0.1293E-03  0.0000E+00  0.0000E+00  0.0000E+00  0.0000E+00  0.0000E+00  0.0000E+00  0.0000E+00  0.0000E+00  0.0000E+00  0.0000E+00
     -3.060  0.1513E-01  0.1429E-01  0.3527E-03  0.3329E-03  0.3527E-03  0.3329E-03  0.3527E-03  0.3329E-03  0.0000E+00  0.0000E+00  0.0000E+00  0.0000E+00  0.0000E+00  0.0000E+00  0.0000E+00  0.0000E+00  0.0000E+00  0.0000E+00
     -2.998  0.2747E-01  0.2683E-01  0.6446E-03  0.6297E-03  0.6446E-03  0.6297E-03  0.6446E-03  0.6297E-03  0.0000E+00  0.0000E+00  0.0000E+00  0.0000E+00  0.0000E+00  0.0000E+00  0.0000E+00  0.0000E+00  0.0000E+00  0.0000E+00
     -2.936  0.2679E-01  0.2741E-01  0.6292E-03  0.6438E-03  0.6292E-03  0.6438E-03  0.6292E-03  0.6438E-03  0.0000E+00  0.0000E+00  0.0000E+00  0.0000E+00  0.0000E+00  0.0000E+00  0.0000E+00  0.0000E+00  0.0000E+00  0.0000E+00
     -2.874  0.1423E-01  0.1505E-01  0.3368E-03  0.3559E-03  0.3368E-03  0.3559E-03  0.3368E-03  0.3559E-03  0.0000E+00  0.0000E+00  0.0000E+00  0.0000E+00  0.0000E+00  0.0000E+00  0.0000E+00  0.0000E+00  0.0000E+00  0.0000E+00
     -2.812  0.6020E-02  0.6331E-02  0.1520E-03  0.1585E-03  0.1520E-03  0.1585E-03  0.1520E-03  0.1585E-03  0.0000E+00  0.0000E+00  0.0000E+00  0.0000E+00  0.0000E+00  0.0000E+00  0.0000E+00  0.0000E+00  0.0000E+00  0.0000E+00
     -2.750  0.4938E-02  0.4806E-02  0.1520E-03  0.1462E-03  0.1520E-03  0.1462E-03  0.1520E-03  0.1462E-03  0.0000E+00  0.0000E+00  0.0000E+00  0.0000E+00  0.0000E+00  0.0000E+00  0.0000E+00  0.0000E+00  0.0000E+00  0.0000E+00
     -2.687  0.1092E-01  0.1023E-01  0.3677E-03  0.3440E-03  0.3677E-03  0.3440E-03  0.3677E-03  0.3440E-03  0.0000E+00  0.0000E+00  0.0000E+00  0.0000E+00  0.0000E+00  0.0000E+00  0.0000E+00  0.0000E+00  0.0000E+00  0.0000E+00
     -2.625  0.2575E-01  0.2454E-01  0.8778E-03  0.8366E-03  0.8778E-03  0.8366E-03  0.8778E-03  0.8366E-03  0.0000E+00  0.0000E+00  0.0000E+00  0.0000E+00  0.0000E+00  0.0000E+00  0.0000E+00  0.0000E+00  0.0000E+00  0.0000E+00
     -2.563  0.3826E-01  0.3799E-01  0.1307E-02  0.1298E-02  0.1307E-02  0.1298E-02  0.1307E-02  0.1298E-02  0.0000E+00  0.0000E+00  0.0000E+00  0.0000E+00  0.0000E+00  0.0000E+00  0.0000E+00  0.0000E+00  0.0000E+00  0.0000E+00
     -2.501  0.2938E-01  0.3050E-01  0.1005E-02  0.1043E-02  0.1005E-02  0.1043E-02  0.1005E-02  0.1043E-02  0.0000E+00  0.0000E+00  0.0000E+00  0.0000E+00  0.0000E+00  0.0000E+00  0.0000E+00  0.0000E+00  0.0000E+00  0.0000E+00
     -2.439  0.1359E-01  0.1442E-01  0.4711E-03  0.4991E-03  0.4711E-03  0.4991E-03  0.4711E-03  0.4991E-03  0.0000E+00  0.0000E+00  0.0000E+00  0.0000E+00  0.0000E+00  0.0000E+00  0.0000E+00  0.0000E+00  0.0000E+00  0.0000E+00
     -2.377  0.6670E-02  0.6834E-02  0.2523E-03  0.2560E-03  0.2523E-03  0.2560E-03  0.2523E-03  0.2560E-03  0.0000E+00  0.0000E+00  0.0000E+00  0.0000E+00  0.0000E+00  0.0000E+00  0.0000E+00  0.0000E+00  0.0000E+00  0.0000E+00
     -2.314  0.9036E-02  0.8563E-02  0.3890E-03  0.3669E-03  0.3890E-03  0.3669E-03  0.3890E-03  0.3669E-03  0.0000E+00  0.0000E+00  0.0000E+00  0.0000E+00  0.0000E+00  0.0000E+00  0.0000E+00  0.0000E+00  0.0000E+00  0.0000E+00
     -2.252  0.2278E-01  0.2140E-01  0.1011E-02  0.9492E-03  0.1011E-02  0.9492E-03  0.1011E-02  0.9492E-03  0.0000E+00  0.0000E+00  0.0000E+00  0.0000E+00  0.0000E+00  0.0000E+00  0.0000E+00  0.0000E+00  0.0000E+00  0.0000E+00
     -2.190  0.4706E-01  0.4547E-01  0.2095E-02  0.2025E-02  0.2095E-02  0.2025E-02  0.2095E-02  0.2025E-02  0.0000E+00  0.0000E+00  0.0000E+00  0.0000E+00  0.0000E+00  0.0000E+00  0.0000E+00  0.0000E+00  0.0000E+00  0.0000E+00
     -2.128  0.5464E-01  0.5525E-01  0.2434E-02  0.2462E-02  0.2434E-02  0.2462E-02  0.2434E-02  0.2462E-02  0.0000E+00  0.0000E+00  0.0000E+00  0.0000E+00  0.0000E+00  0.0000E+00  0.0000E+00  0.0000E+00  0.0000E+00  0.0000E+00
     -2.066  0.3304E-01  0.3475E-01  0.1473E-02  0.1550E-02  0.1473E-02  0.1550E-02  0.1473E-02  0.1550E-02  0.0000E+00  0.0000E+00  0.0000E+00  0.0000E+00  0.0000E+00  0.0000E+00  0.0000E+00  0.0000E+00  0.0000E+00  0.0000E+00
     -2.003  0.1324E-01  0.1415E-01  0.5952E-03  0.6355E-03  0.5952E-03  0.6355E-03  0.5952E-03  0.6355E-03  0.0000E+00  0.0000E+00  0.0000E+00  0.0000E+00  0.0000E+00  0.0000E+00  0.0000E+00  0.0000E+00  0.0000E+00  0.0000E+00
     -1.941  0.5906E-02  0.6094E-02  0.2815E-03  0.2885E-03  0.2815E-03  0.2885E-03  0.2815E-03  0.2885E-03  0.0000E+00  0.0000E+00  0.0000E+00  0.0000E+00  0.0000E+00  0.0000E+00  0.0000E+00  0.0000E+00  0.0000E+00  0.0000E+00
     -1.879  0.7160E-02  0.6834E-02  0.3771E-03  0.3585E-03  0.3771E-03  0.3585E-03  0.3771E-03  0.3585E-03  0.0000E+00  0.0000E+00  0.0000E+00  0.0000E+00  0.0000E+00  0.0000E+00  0.0000E+00  0.0000E+00  0.0000E+00  0.0000E+00
     -1.817  0.1599E-01  0.1517E-01  0.8650E-03  0.8203E-03  0.8650E-03  0.8203E-03  0.8650E-03  0.8203E-03  0.0000E+00  0.0000E+00  0.0000E+00  0.0000E+00  0.0000E+00  0.0000E+00  0.0000E+00  0.0000E+00  0.0000E+00  0.0000E+00
     -1.755  0.2656E-01  0.2612E-01  0.1443E-02  0.1419E-02  0.1443E-02  0.1419E-02  0.1443E-02  0.1419E-02  0.0000E+00  0.0000E+00  0.0000E+00  0.0000E+00  0.0000E+00  0.0000E+00  0.0000E+00  0.0000E+00  0.0000E+00  0.0000E+00
     -1.693  0.2350E-01  0.2418E-01  0.1278E-02  0.1315E-02  0.1278E-02  0.1315E-02  0.1278E-02  0.1315E-02  0.0000E+00  0.0000E+00  0.0000E+00  0.0000E+00  0.0000E+00  0.0000E+00  0.0000E+00  0.0000E+00  0.0000E+00  0.0000E+00
     -1.630  0.1184E-01  0.1253E-01  0.6499E-03  0.6867E-03  0.6499E-03  0.6867E-03  0.6499E-03  0.6867E-03  0.0000E+00  0.0000E+00  0.0000E+00  0.0000E+00  0.0000E+00  0.0000E+00  0.0000E+00  0.0000E+00  0.0000E+00  0.0000E+00
     -1.568  0.5693E-02  0.5868E-02  0.3324E-03  0.3401E-03  0.3324E-03  0.3401E-03  0.3324E-03  0.3401E-03  0.0000E+00  0.0000E+00  0.0000E+00  0.0000E+00  0.0000E+00  0.0000E+00  0.0000E+00  0.0000E+00  0.0000E+00  0.0000E+00