   4   4   1   0
  0.1800928E+02  0.4160883E-09  0.4160883E-09  0.4160883E-09  0.5000000E-15
  1.000000000000000E-004
  CAR 
 unknown system                          
     17.15028379     -4.22213994  301      7.02096362      1.00000000
     -4.222  0.0000E+00  0.0000E+00  0.0000E+00  0.0000E+00
     -4.151  0.0000E+00  0.0000E+00  0.0000E+00  0.0000E+00
     -4.080  0.0000E+00  0.0000E+00  0.0000E+00  0.0000E+00
     -4.008  0.0000E+00  0.0000E+00  0.0000E+00  0.0000E+00
     -3.937  0.0000E+00  0.0000E+00  0.0000E+00  0.0000E+00
     -3.866  0.0000E+00  0.0000E+00  0.0000E+00  0.0000E+00
     -3.795  0.0000E+00  0.0000E+00  0.0000E+00  0.0000E+00
     -3.723  0.0000E+00  0.0000E+00  0.0000E+00  0.0000E+00
     -3.652  0.1690E-03  0.1554E-03  0.1204E-04  0.1107E-04
     -3.581  0.5330E-03  0.4900E-03  0.5001E-04  0.4598E-04
     -3.510  0.2204E-02  0.2027E-02  0.2070E-03  0.1904E-03
     -3.438  0.8965E-02  0.8260E-02  0.8457E-03  0.7788E-03
     -3.367  0.3416E-01  0.3168E-01  0.3279E-02  0.3036E-02
     -3.296  0.1035E+00  0.9812E-01  0.1065E-01  0.1003E-01
     -3.225  0.1765E+00  0.1749E+00  0.2323E-01  0.2249E-01
     -3.154  0.1295E+00  0.1349E+00  0.3245E-01  0.3210E-01
     -3.082  0.5046E-01  0.5374E-01  0.3605E-01  0.3593E-01
     -3.011  0.2387E-01  0.2410E-01  0.3775E-01  0.3764E-01
     -2.940  0.4667E-01  0.4359E-01  0.4107E-01  0.4075E-01
     -2.869  0.1579E+00  0.1473E+00  0.5232E-01  0.5124E-01
     -2.797  0.4076E+00  0.3915E+00  0.8138E-01  0.7915E-01
     -2.726  0.5229E+00  0.5279E+00  0.1186E+00  0.1168E+00
     -2.655  0.2908E+00  0.3068E+00  0.1393E+00  0.1386E+00
     -2.584  0.9743E-01  0.1044E+00  0.1463E+00  0.1461E+00
     -2.512  0.4239E-01  0.4301E-01  0.1493E+00  0.1491E+00
     -2.441  0.7721E-01  0.7239E-01  0.1548E+00  0.1543E+00
     -2.370  0.2368E+00  0.2227E+00  0.1718E+00  0.1703E+00
     -2.299  0.4937E+00  0.4824E+00  0.2070E+00  0.2047E+00
     -2.227  0.4598E+00  0.4729E+00  0.2397E+00  0.2383E+00
     -2.156  0.2009E+00  0.2139E+00  0.2541E+00  0.2536E+00
     -2.085  0.6752E-01  0.7138E-01  0.2589E+00  0.2587E+00
     -2.014  0.5608E-01  0.5408E-01  0.2629E+00  0.2625E+00
     -1.942  0.1600E+00  0.1493E+00  0.2743E+00  0.2732E+00
     -1.871  0.4543E+00  0.4324E+00  0.3067E+00  0.3040E+00
     -1.800  0.7112E+00  0.7090E+00  0.3574E+00  0.3546E+00
     -1.729  0.4770E+00  0.4988E+00  0.3914E+00  0.3901E+00
     -1.657  0.1744E+00  0.1864E+00  0.4038E+00  0.4034E+00
     -1.586  0.7247E-01  0.7408E-01  0.4089E+00  0.4087E+00
     -1.515  0.1203E+00  0.1130E+00  0.4175E+00  0.4167E+00
     -1.444  0.3844E+00  0.3602E+00  0.4449E+00  0.4424E+00
     -1.372  0.9019E+00  0.8730E+00  0.5092E+00  0.5046E+00
     -1.301  0.9998E+00  0.1018E+01  0.5804E+00  0.5772E+00
     -1.230  0.4925E+00  0.5223E+00  0.6155E+00  0.6144E+00
     -1.159  0.1554E+00  0.1668E+00  0.6266E+00  0.6263E+00
     -1.088  0.6329E-01  0.6459E-01  0.6311E+00  0.6309E+00
     -1.016  0.1054E+00  0.9929E-01  0.6386E+00  0.6379E+00
     -0.945  0.2967E+00  0.2809E+00  0.6600E+00  0.6582E+00
     -0.874  0.5254E+00  0.5194E+00  0.6974E+00  0.6952E+00
     -0.803  0.4020E+00  0.4176E+00  0.7260E+00  0.7249E+00
     -0.731  0.1581E+00  0.1685E+00  0.7373E+00  0.7369E+00
     -0.660  0.6520E-01  0.6684E-01  0.7419E+00  0.7417E+00
     -0.589  0.1035E+00  0.9733E-01  0.7493E+00  0.7486E+00
     -0.518  0.3361E+00  0.3143E+00  0.7733E+00  0.7710E+00
     -0.446  0.8423E+00  0.8112E+00  0.8333E+00  0.8289E+00
     -0.375  0.1035E+01  0.1048E+01  0.9071E+00  0.9035E+00
     -0.304  0.5561E+00  0.5871E+00  0.9467E+00  0.9453E+00
     -0.233  0.1907E+00  0.2029E+00  0.9603E+00  0.9598E+00
     -0.161  0.1125E+00  0.1111E+00  0.9683E+00  0.9677E+00
     -0.090  0.2716E+00  0.2536E+00  0.9876E+00  0.9858E+00
     -0.019  0.8267E+00  0.7810E+00  0.1047E+01  0.1042E+01
      0.052  0.1550E+01  0.1527E+01  0.1157E+01  0.1150E+01
      0.124  0.1266E+01  0.1310E+01  0.1247E+01  0.1244E+01
      0.195  0.5041E+00  0.5386E+00  0.1283E+01  0.1282E+01
      0.266  0.1510E+00  0.1616E+00  0.1294E+01  0.1294E+01
      0.337  0.7914E-01  0.7877E-01  0.1300E+01  0.1299E+01
      0.409  0.1679E+00  0.1580E+00  0.1312E+01  0.1311E+01
      0.480  0.4108E+00  0.3951E+00  0.1341E+01  0.1339E+01
      0.551  0.5223E+00  0.5275E+00  0.1378E+01  0.1376E+01
      0.622  0.2895E+00  0.3051E+00  0.1399E+01  0.1398E+01
      0.694  0.1043E+00  0.1104E+00  0.1406E+01  0.1406E+01
      0.765  0.7596E-01  0.7391E-01  0.1412E+01  0.1411E+01
      0.836  0.2075E+00  0.1934E+00  0.1427E+01  0.1425E+01
      0.907  0.6406E+00  0.6053E+00  0.1472E+01  0.1468E+01
      0.978  0.1205E+01  0.1187E+01  0.1558E+01  0.1553E+01
      1.050  0.9882E+00  0.1023E+01  0.1629E+01  0.1626E+01
      1.121  0.4004E+00  0.4267E+00  0.1657E+01  0.1656E+01
      1.192  0.1451E+00  0.1513E+00  0.1667E+01  0.1667E+01
      1.263  0.1700E+00  0.1616E+00  0.1680E+01  0.1678E+01
      1.335  0.5160E+00  0.4835E+00  0.1716E+01  0.1713E+01
      1.406  0.1275E+01  0.1229E+01  0.1807E+01  0.1801E+01
      1.477  0.1545E+01  0.1565E+01  0.1917E+01  0.1912E+01
      1.548  0.8196E+00  0.8655E+00  0.1976E+01  0.1974E+01
      1.620  0.2698E+00  0.2885E+00  0.1995E+01  0.1994E+01
      1.691  0.1207E+00  0.1221E+00  0.2004E+01  0.2003E+01
      1.762  0.2235E+00  0.2103E+00  0.2020E+01  0.2018E+01
      1.833  0.6260E+00  0.5945E+00  0.2064E+01  0.2061E+01
      1.905  0.1059E+01  0.1051E+01  0.2140E+01  0.2136E+01
      1.976  0.7711E+00  0.8024E+00  0.2195E+01  0.2193E+01
      2.047  0.2942E+00  0.3135E+00  0.2216E+01  0.2215E+01
      2.118  0.1191E+00  0.1221E+00  0.2224E+01  0.2224E+01
      2.190  0.1849E+00  0.1742E+00  0.2238E+01  0.2236E+01
      2.261  0.5826E+00  0.5468E+00  0.2279E+01  0.2275E+01
      2.332  0.1358E+01  0.1316E+01  0.2376E+01  0.2369E+01
      2.403  0.1496E+01  0.1523E+01  0.2482E+01  0.2478E+01
      2.475  0.7368E+00  0.7799E+00  0.2535E+01  0.2533E+01
      2.546  0.2459E+00  0.2613E+00  0.2552E+01  0.2552E+01
      2.617  0.1541E+00  0.1515E+00  0.2563E+01  0.2563E+01
      2.688  0.3783E+00  0.3545E+00  0.2590E+01  0.2588E+01
      2.760  0.1045E+01  0.9969E+00  0.2665E+01  0.2659E+01
      2.831  0.1599E+01  0.1597E+01  0.2779E+01  0.2773E+01
      2.902  0.1049E+01  0.1097E+01  0.2854E+01  0.2851E+01
      2.973  0.3749E+00  0.4007E+00  0.2881E+01  0.2880E+01
      3.044  0.1362E+00  0.1412E+00  0.2890E+01  0.2890E+01
      3.116  0.1746E+00  0.1657E+00  0.2903E+01  0.2902E+01
      3.187  0.5000E+00  0.4724E+00  0.2938E+01  0.2935E+01
      3.258  0.1002E+01  0.9818E+00  0.3010E+01  0.3005E+01
      3.329  0.9016E+00  0.9281E+00  0.3074E+01  0.3071E+01
      3.401  0.3897E+00  0.4136E+00  0.3102E+01  0.3101E+01
      3.472  0.1509E+00  0.1565E+00  0.3113E+01  0.3112E+01
      3.543  0.1893E+00  0.1810E+00  0.3126E+01  0.3125E+01
      3.614  0.5026E+00  0.4788E+00  0.3162E+01  0.3159E+01
      3.686  0.9256E+00  0.9090E+00  0.3228E+01  0.3224E+01
      3.757  0.8791E+00  0.8971E+00  0.3291E+01  0.3288E+01
      3.828  0.4422E+00  0.4649E+00  0.3322E+01  0.3321E+01
      3.899  0.1951E+00  0.2004E+00  0.3336E+01  0.3335E+01
      3.971  0.2804E+00  0.2662E+00  0.3356E+01  0.3354E+01
      4.042  0.8498E+00  0.8020E+00  0.3417E+01  0.3411E+01
      4.113  0.1971E+01  0.1910E+01  0.3557E+01  0.3547E+01
      4.184  0.2461E+01  0.2475E+01  0.3732E+01  0.3724E+01
      4.256  0.1501E+01  0.1569E+01  0.3839E+01  0.3836E+01
      4.327  0.5408E+00  0.5759E+00  0.3878E+01  0.3877E+01
      4.398  0.2271E+00  0.2320E+00  0.3894E+01  0.3893E+01
      4.469  0.3575E+00  0.3400E+00  0.3919E+01  0.3917E+01
      4.541  0.9048E+00  0.8667E+00  0.3984E+01  0.3979E+01
      4.612  0.1466E+01  0.1451E+01  0.4089E+01  0.4083E+01
      4.683  0.1194E+01  0.1230E+01  0.4174E+01  0.4170E+01
      4.754  0.5156E+00  0.5455E+00  0.4210E+01  0.4209E+01
      4.826  0.2191E+00  0.2247E+00  0.4226E+01  0.4225E+01
      4.897  0.3199E+00  0.3052E+00  0.4249E+01  0.4247E+01
      4.968  0.8013E+00  0.7699E+00  0.4306E+01  0.4302E+01
      5.039  0.1189E+01  0.1186E+01  0.4391E+01  0.4387E+01
      5.110  0.8273E+00  0.8566E+00  0.4450E+01  0.4448E+01
      5.182  0.3393E+00  0.3581E+00  0.4474E+01  0.4473E+01
      5.253  0.1544E+00  0.1570E+00  0.4485E+01  0.4484E+01
      5.324  0.2616E+00  0.2478E+00  0.4504E+01  0.4502E+01
      5.395  0.7866E+00  0.7460E+00  0.4560E+01  0.4555E+01
      5.467  0.1668E+01  0.1626E+01  0.4679E+01  0.4671E+01
      5.538  0.1879E+01  0.1897E+01  0.4812E+01  0.4806E+01
      5.609  0.1090E+01  0.1139E+01  0.4890E+01  0.4887E+01
      5.680  0.3784E+00  0.4039E+00  0.4917E+01  0.4916E+01
      5.752  0.1211E+00  0.1273E+00  0.4926E+01  0.4925E+01
      5.823  0.1079E+00  0.1040E+00  0.4933E+01  0.4933E+01
      5.894  0.2722E+00  0.2583E+00  0.4953E+01  0.4951E+01
      5.965  0.5147E+00  0.5064E+00  0.4990E+01  0.4987E+01
      6.037  0.4395E+00  0.4528E+00  0.5021E+01  0.5020E+01
      6.108  0.2121E+00  0.2207E+00  0.5036E+01  0.5035E+01
      6.179  0.2034E+00  0.1967E+00  0.5051E+01  0.5049E+01
      6.250  0.5709E+00  0.5389E+00  0.5091E+01  0.5088E+01
      6.322  0.1467E+01  0.1415E+01  0.5196E+01  0.5189E+01
      6.393  0.2023E+01  0.2025E+01  0.5340E+01  0.5333E+01
      6.464  0.1404E+01  0.1446E+01  0.5440E+01  0.5436E+01
      6.535  0.7700E+00  0.7828E+00  0.5495E+01  0.5492E+01
      6.607  0.7169E+00  0.7098E+00  0.5546E+01  0.5542E+01
      6.678  0.7634E+00  0.7653E+00  0.5600E+01  0.5597E+01
      6.749  0.1024E+01  0.1002E+01  0.5674E+01  0.5669E+01
      6.820  0.1495E+01  0.1482E+01  0.5780E+01  0.5774E+01
      6.892  0.1339E+01  0.1359E+01  0.5875E+01  0.5871E+01
      6.963  0.9446E+00  0.9477E+00  0.5943E+01  0.5939E+01
      7.034  0.1058E+01  0.1033E+01  0.6018E+01  0.6012E+01
      7.105  0.1096E+01  0.1116E+01  0.6096E+01  0.6092E+01
      7.176  0.6413E+00  0.6733E+00  0.6142E+01  0.6140E+01
      7.248  0.4793E+00  0.4799E+00  0.6176E+01  0.6174E+01
      7.319  0.5976E+00  0.5950E+00  0.6219E+01  0.6216E+01
      7.390  0.5072E+00  0.5145E+00  0.6255E+01  0.6253E+01
      7.461  0.4806E+00  0.4696E+00  0.6289E+01  0.6287E+01
      7.533  0.7001E+00  0.6879E+00  0.6339E+01  0.6336E+01
      7.604  0.8577E+00  0.8533E+00  0.6400E+01  0.6397E+01
      7.675  0.1130E+01  0.1121E+01  0.6481E+01  0.6477E+01
      7.746  0.1024E+01  0.1045E+01  0.6554E+01  0.6551E+01
      7.818  0.5908E+00  0.6009E+00  0.6596E+01  0.6594E+01
      7.889  0.6549E+00  0.6265E+00  0.6643E+01  0.6638E+01
      7.960  0.1140E+01  0.1112E+01  0.6724E+01  0.6718E+01
      8.031  0.1254E+01  0.1269E+01  0.6813E+01  0.6808E+01
      8.103  0.1248E+01  0.1253E+01  0.6902E+01  0.6898E+01
      8.174  0.1149E+01  0.1170E+01  0.6984E+01  0.6981E+01
      8.245  0.6494E+00  0.6683E+00  0.7030E+01  0.7029E+01
      8.316  0.5306E+00  0.5136E+00  0.7068E+01  0.7065E+01
      8.388  0.9877E+00  0.9471E+00  0.7139E+01  0.7133E+01
      8.459  0.1398E+01  0.1393E+01  0.7238E+01  0.7232E+01
      8.530  0.1513E+01  0.1513E+01  0.7346E+01  0.7340E+01
      8.601  0.1610E+01  0.1620E+01  0.7461E+01  0.7456E+01
      8.673  0.1149E+01  0.1184E+01  0.7543E+01  0.7540E+01
      8.744  0.5053E+00  0.5333E+00  0.7579E+01  0.7578E+01
      8.815  0.1756E+00  0.1842E+00  0.7592E+01  0.7591E+01
      8.886  0.1477E+00  0.1438E+00  0.7602E+01  0.7602E+01
      8.958  0.3341E+00  0.3204E+00  0.7626E+01  0.7625E+01
      9.029  0.5487E+00  0.5461E+00  0.7666E+01  0.7664E+01
      9.100  0.4438E+00  0.4516E+00  0.7697E+01  0.7696E+01
      9.171  0.4078E+00  0.3940E+00  0.7726E+01  0.7724E+01
      9.242  0.9120E+00  0.8594E+00  0.7791E+01  0.7785E+01
      9.314  0.1751E+01  0.1712E+01  0.7916E+01  0.7907E+01
      9.385  0.1868E+01  0.1891E+01  0.8049E+01  0.8042E+01
      9.456  0.1585E+01  0.1612E+01  0.8162E+01  0.8157E+01
      9.527  0.1073E+01  0.1101E+01  0.8238E+01  0.8235E+01
      9.599  0.7863E+00  0.7755E+00  0.8294E+01  0.8290E+01
      9.670  0.1176E+01  0.1135E+01  0.8378E+01  0.8371E+01
      9.741  0.1500E+01  0.1501E+01  0.8485E+01  0.8478E+01
      9.812  0.1012E+01  0.1063E+01  0.8557E+01  0.8554E+01
      9.884  0.4004E+00  0.4296E+00  0.8586E+01  0.8585E+01
      9.955  0.2256E+00  0.2254E+00  0.8602E+01  0.8601E+01
     10.026  0.4546E+00  0.4275E+00  0.8634E+01  0.8631E+01
     10.097  0.9919E+00  0.9598E+00  0.8705E+01  0.8700E+01
     10.169  0.1139E+01  0.1154E+01  0.8786E+01  0.8782E+01
     10.240  0.8945E+00  0.9117E+00  0.8850E+01  0.8847E+01
     10.311  0.7499E+00  0.7608E+00  0.8904E+01  0.8901E+01
     10.382  0.5564E+00  0.5621E+00  0.8943E+01  0.8941E+01
     10.454  0.5432E+00  0.5307E+00  0.8982E+01  0.8979E+01
     10.525  0.9578E+00  0.9133E+00  0.9050E+01  0.9044E+01
     10.596  0.1687E+01  0.1648E+01  0.9171E+01  0.9162E+01
     10.667  0.2017E+01  0.2022E+01  0.9314E+01  0.9306E+01
     10.739  0.2016E+01  0.2031E+01  0.9458E+01  0.9451E+01
     10.810  0.1639E+01  0.1672E+01  0.9575E+01  0.9570E+01
     10.881  0.1143E+01  0.1144E+01  0.9656E+01  0.9651E+01
     10.952  0.1565E+01  0.1507E+01  0.9768E+01  0.9759E+01
     11.024  0.2178E+01  0.2174E+01  0.9923E+01  0.9914E+01
     11.095  0.1442E+01  0.1513E+01  0.1003E+02  0.1002E+02
     11.166  0.5343E+00  0.5722E+00  0.1006E+02  0.1006E+02
     11.237  0.2621E+00  0.2636E+00  0.1008E+02  0.1008E+02
     11.308  0.5099E+00  0.4761E+00  0.1012E+02  0.1012E+02
     11.380  0.1387E+01  0.1315E+01  0.1022E+02  0.1021E+02
     11.451  0.2215E+01  0.2200E+01  0.1038E+02  0.1037E+02
     11.522  0.1751E+01  0.1809E+01  0.1050E+02  0.1050E+02
     11.593  0.1049E+01  0.1087E+01  0.1058E+02  0.1057E+02
     11.665  0.5351E+00  0.5604E+00  0.1061E+02  0.1061E+02
     11.736  0.2219E+00  0.2298E+00  0.1063E+02  0.1063E+02
     11.807  0.2110E+00  0.2019E+00  0.1064E+02  0.1064E+02
     11.878  0.4279E+00  0.4103E+00  0.1068E+02  0.1067E+02
     11.950  0.5293E+00  0.5355E+00  0.1071E+02  0.1071E+02
     12.021  0.3139E+00  0.3293E+00  0.1074E+02  0.1073E+02
     12.092  0.2214E+00  0.2187E+00  0.1075E+02  0.1075E+02
     12.163  0.4988E+00  0.4675E+00  0.1079E+02  0.1078E+02
     12.235  0.1228E+01  0.1178E+01  0.1087E+02  0.1087E+02
     12.306  0.1583E+01  0.1595E+01  0.1099E+02  0.1098E+02
     12.377  0.9841E+00  0.1026E+01  0.1106E+02  0.1105E+02
     12.448  0.5798E+00  0.5887E+00  0.1110E+02  0.1110E+02
     12.520  0.5339E+00  0.5351E+00  0.1114E+02  0.1113E+02
     12.591  0.5992E+00  0.5869E+00  0.1118E+02  0.1118E+02
     12.662  0.9826E+00  0.9555E+00  0.1125E+02  0.1124E+02
     12.733  0.1092E+01  0.1105E+01  0.1133E+02  0.1132E+02
     12.805  0.7416E+00  0.7532E+00  0.1138E+02  0.1138E+02
     12.876  0.6482E+00  0.6449E+00  0.1143E+02  0.1142E+02
     12.947  0.4930E+00  0.5158E+00  0.1146E+02  0.1146E+02
     13.018  0.2034E+00  0.2233E+00  0.1148E+02  0.1148E+02
     13.090  0.5631E-01  0.6299E-01  0.1148E+02  0.1148E+02
     13.161  0.1604E-01  0.1766E-01  0.1148E+02  0.1148E+02
     13.232  0.1180E-01  0.1151E-01  0.1148E+02  0.1148E+02
     13.303  0.3456E-01  0.3161E-01  0.1148E+02  0.1148E+02
     13.374  0.1357E+00  0.1247E+00  0.1149E+02  0.1149E+02
     13.446  0.4564E+00  0.4263E+00  0.1153E+02  0.1152E+02
     13.517  0.9807E+00  0.9538E+00  0.1160E+02  0.1159E+02
     13.588  0.9703E+00  0.9945E+00  0.1167E+02  0.1166E+02
     13.659  0.5172E+00  0.5406E+00  0.1170E+02  0.1170E+02
     13.731  0.2968E+00  0.3056E+00  0.1172E+02  0.1172E+02
     13.802  0.1605E+00  0.1694E+00  0.1174E+02  0.1173E+02
     13.873  0.5594E-01  0.6064E-01  0.1174E+02  0.1174E+02
     13.944  0.1326E-01  0.1452E-01  0.1174E+02  0.1174E+02
     14.016  0.3294E-02  0.3618E-02  0.1174E+02  0.1174E+02
     14.087  0.7986E-03  0.8779E-03  0.1174E+02  0.1174E+02
     14.158  0.0000E+00  0.0000E+00  0.1174E+02  0.1174E+02
     14.229  0.0000E+00  0.0000E+00  0.1174E+02  0.1174E+02
     14.301  0.0000E+00  0.1933E-03  0.1174E+02  0.1174E+02
     14.372  0.5127E-03  0.6101E-03  0.1174E+02  0.1174E+02
     14.443  0.1616E-02  0.2531E-02  0.1174E+02  0.1174E+02
     14.514  0.6683E-02  0.1043E-01  0.1174E+02  0.1174E+02
     14.586  0.2718E-01  0.4192E-01  0.1174E+02  0.1174E+02
     14.657  0.1035E+00  0.1524E+00  0.1175E+02  0.1176E+02
     14.728  0.3127E+00  0.4005E+00  0.1177E+02  0.1178E+02
     14.799  0.5292E+00  0.5249E+00  0.1181E+02  0.1182E+02
     14.871  0.3846E+00  0.2968E+00  0.1184E+02  0.1184E+02
     14.942  0.1422E+00  0.9614E-01  0.1185E+02  0.1185E+02
     15.013  0.3874E-01  0.2509E-01  0.1185E+02  0.1185E+02
     15.084  0.9617E-02  0.6158E-02  0.1185E+02  0.1185E+02
     15.156  0.2587E-02  0.2339E-03  0.1185E+02  0.1185E+02
     15.227  0.8057E-03  0.7379E-03  0.1185E+02  0.1185E+02
     15.298  0.3340E-02  0.3060E-02  0.1185E+02  0.1185E+02
     15.369  0.1373E-01  0.1259E-01  0.1185E+02  0.1185E+02
     15.440  0.5459E-01  0.5024E-01  0.1186E+02  0.1186E+02
     15.512  0.1908E+00  0.1780E+00  0.1187E+02  0.1187E+02
     15.583  0.4509E+00  0.4357E+00  0.1190E+02  0.1190E+02
     15.654  0.4997E+00  0.5094E+00  0.1194E+02  0.1194E+02
     15.725  0.2457E+00  0.2614E+00  0.1196E+02  0.1196E+02
     15.797  0.7487E-01  0.8112E-01  0.1196E+02  0.1196E+02
     15.868  0.1998E-01  0.2162E-01  0.1196E+02  0.1196E+02
     15.939  0.8219E-02  0.8336E-02  0.1196E+02  0.1196E+02
     16.010  0.1425E-01  0.1305E-01  0.1196E+02  0.1196E+02
     16.082  0.5167E-01  0.4783E-01  0.1197E+02  0.1197E+02
     16.153  0.1348E+00  0.1289E+00  0.1198E+02  0.1198E+02
     16.224  0.1745E+00  0.1763E+00  0.1199E+02  0.1199E+02
     16.295  0.9761E-01  0.1035E+00  0.1200E+02  0.1200E+02
     16.367  0.3145E-01  0.3416E-01  0.1200E+02  0.1200E+02
     16.438  0.8195E-02  0.8965E-02  0.1200E+02  0.1200E+02
     16.509  0.2011E-02  0.2204E-02  0.1200E+02  0.1200E+02
     16.580  0.0000E+00  0.0000E+00  0.1200E+02  0.1200E+02
     16.652  0.0000E+00  0.0000E+00  0.1200E+02  0.1200E+02
     16.723  0.0000E+00  0.0000E+00  0.1200E+02  0.1200E+02
     16.794  0.0000E+00  0.0000E+00  0.1200E+02  0.1200E+02
     16.865  0.0000E+00  0.0000E+00  0.1200E+02  0.1200E+02
     16.937  0.0000E+00  0.0000E+00  0.1200E+02  0.1200E+02
     17.008  0.0000E+00  0.0000E+00  0.1200E+02  0.1200E+02
     17.079  0.0000E+00  0.0000E+00  0.1200E+02  0.1200E+02
     17.150  0.0000E+00  0.0000E+00  0.1200E+02  0.1200E+02
     17.15028379     -4.22213994  301      7.02096362      1.00000000
     -4.222  0.0000E+00  0.0000E+00  0.0000E+00  0.0000E+00  0.0000E+00  0.0000E+00  0.0000E+00  0.0000E+00  0.0000E+00  0.0000E+00  0.0000E+00  0.0000E+00  0.0000E+00  0.0000E+00  0.0000E+00  0.0000E+00  0.0000E+00  0.0000E+00
     -4.151  0.0000E+00  0.0000E+00  0.0000E+00  0.0000E+00  0.0000E+00  0.0000E+00  0.0000E+00  0.0000E+00  0.0000E+00  0.0000E+00  0.0000E+00  0.0000E+00  0.0000E+00  0.0000E+00  0.0000E+00  0.0000E+00  0.0000E+00  0.0000E+00
     -4.080  0.0000E+00  0.0000E+00  0.0000E+00  0.0000E+00  0.0000E+00  0.0000E+00  0.0000E+00  0.0000E+00  0.0000E+00  0.0000E+00  0.0000E+00  0.0000E+00  0.0000E+00  0.0000E+00  0.0000E+00  0.0000E+00  0.0000E+00  0.0000E+00
     -4.008  0.0000E+00  0.0000E+00  0.0000E+00  0.0000E+00  0.0000E+00  0.0000E+00  0.0000E+00  0.0000E+00  0.0000E+00  0.0000E+00  0.0000E+00  0.0000E+00  0.0000E+00  0.0000E+00  0.0000E+00  0.0000E+00  0.0000E+00  0.0000E+00
     -3.937  0.0000E+00  0.0000E+00  0.0000E+00  0.0000E+00  0.0000E+00  0.0000E+00  0.0000E+00  0.0000E+00  0.0000E+00  0.0000E+00  0.0000E+00  0.0000E+00  0.0000E+00  0.0000E+00  0.0000E+00  0.0000E+00  0.0000E+00  0.0000E+00
     -3.866  0.0000E+00  0.0000E+00  0.0000E+00  0.0000E+00  0.0000E+00  0.0000E+00  0.0000E+00  0.0000E+00  0.0000E+00  0.0000E+00  0.0000E+00  0.0000E+00  0.0000E+00  0.0000E+00  0.0000E+00  0.0000E+00  0.0000E+00  0.0000E+00
     -3.795  0.0000E+00  0.0000E+00  0.0000E+00  0.0000E+00  0.0000E+00  0.0000E+00  0.0000E+00  0.0000E+00  0.0000E+00  0.0000E+00  0.0000E+00  0.0000E+00  0.0000E+00  0.0000E+00  0.0000E+00  0.0000E+00  0.0000E+00  0.0000E+00
     -3.723  0.0000E+00  0.0000E+00  0.0000E+00  0.0000E+00  0.0000E+00  0.0000E+00  0.0000E+00  0.0000E+00  0.0000E+00  0.0000E+00  0.0000E+00  0.0000E+00  0.0000E+00  0.0000E+00  0.0000E+00  0.0000E+00  0.0000E+00  0.0000E+00
     -3.652  0.1070E-04  0.9837E-05  0.4740E-07  0.4357E-07  0.4740E-07  0.4357E-07  0.4740E-07  0.4357E-07  0.0000E+00  0.0000E+00  0.0000E+00  0.0000E+00  0.0000E+00  0.0000E+00  0.0000E+00  0.0000E+00  0.0000E+00  0.0000E+00
     -3.581  0.3375E-04  0.3102E-04  0.1495E-06  0.1374E-06  0.1495E-06  0.1374E-06  0.1495E-06  0.1374E-06  0.0000E+00  0.0000E+00  0.0000E+00  0.0000E+00  0.0000E+00  0.0000E+00  0.0000E+00  0.0000E+00  0.0000E+00  0.0000E+00
     -3.510  0.1396E-03  0.1283E-03  0.6180E-06  0.5683E-06  0.6180E-06  0.5683E-06  0.6180E-06  0.5683E-06  0.0000E+00  0.0000E+00  0.0000E+00  0.0000E+00  0.0000E+00  0.0000E+00  0.0000E+00  0.0000E+00  0.0000E+00  0.0000E+00
     -3.438  0.5677E-03  0.5229E-03  0.2514E-05  0.2316E-05  0.2514E-05  0.2316E-05  0.2514E-05  0.2316E-05  0.0000E+00  0.0000E+00  0.0000E+00  0.0000E+00  0.0000E+00  0.0000E+00  0.0000E+00  0.0000E+00  0.0000E+00  0.0000E+00
     -3.367  0.2163E-02  0.2006E-02  0.9579E-05  0.8884E-05  0.9579E-05  0.8884E-05  0.9579E-05  0.8884E-05  0.0000E+00  0.0000E+00  0.0000E+00  0.0000E+00  0.0000E+00  0.0000E+00  0.0000E+00  0.0000E+00  0.0000E+00  0.0000E+00
     -3.296  0.6556E-02  0.6212E-02  0.2903E-04  0.2751E-04  0.2903E-04  0.2751E-04  0.2903E-04  0.2751E-04  0.0000E+00  0.0000E+00  0.0000E+00  0.0000E+00  0.0000E+00  0.0000E+00  0.0000E+00  0.0000E+00  0.0000E+00  0.0000E+00
     -3.225  0.1117E-01  0.1107E-01  0.4963E-04  0.4917E-04  0.4963E-04  0.4917E-04  0.4963E-04  0.4917E-04  0.0000E+00  0.0000E+00  0.0000E+00  0.0000E+00  0.0000E+00  0.0000E+00  0.0000E+00  0.0000E+00  0.0000E+00  0.0000E+00
     -3.154  0.8202E-02  0.8538E-02  0.3679E-04  0.3825E-04  0.3679E-04  0.3825E-04  0.3679E-04  0.3825E-04  0.0000E+00  0.0000E+00  0.0000E+00  0.0000E+00  0.0000E+00  0.0000E+00  0.0000E+00  0.0000E+00  0.0000E+00  0.0000E+00
     -3.082  0.3190E-02  0.3397E-02  0.1608E-04  0.1684E-04  0.1608E-04  0.1684E-04  0.1608E-04  0.1684E-04  0.0000E+00  0.0000E+00  0.0000E+00  0.0000E+00  0.0000E+00  0.0000E+00  0.0000E+00  0.0000E+00  0.0000E+00  0.0000E+00
     -3.011  0.1488E-02  0.1504E-02  0.1467E-04  0.1409E-04  0.1467E-04  0.1409E-04  0.1467E-04  0.1409E-04  0.0000E+00  0.0000E+00  0.0000E+00  0.0000E+00  0.0000E+00  0.0000E+00  0.0000E+00  0.0000E+00  0.0000E+00  0.0000E+00
     -2.940  0.2862E-02  0.2674E-02  0.4508E-04  0.4174E-04  0.4508E-04  0.4174E-04  0.4508E-04  0.4174E-04  0.0000E+00  0.0000E+00  0.0000E+00  0.0000E+00  0.0000E+00  0.0000E+00  0.0000E+00  0.0000E+00  0.0000E+00  0.0000E+00
     -2.869  0.9662E-02  0.9014E-02  0.1600E-03  0.1492E-03  0.1600E-03  0.1492E-03  0.1600E-03  0.1492E-03  0.0000E+00  0.0000E+00  0.0000E+00  0.0000E+00  0.0000E+00  0.0000E+00  0.0000E+00  0.0000E+00  0.0000E+00  0.0000E+00
     -2.797  0.2494E-01  0.2395E-01  0.4146E-03  0.3982E-03  0.4146E-03  0.3982E-03  0.4146E-03  0.3982E-03  0.0000E+00  0.0000E+00  0.0000E+00  0.0000E+00  0.0000E+00  0.0000E+00  0.0000E+00  0.0000E+00  0.0000E+00  0.0000E+00
     -2.726  0.3199E-01  0.3229E-01  0.5321E-03  0.5372E-03  0.5321E-03  0.5372E-03  0.5321E-03  0.5372E-03  0.0000E+00  0.0000E+00  0.0000E+00  0.0000E+00  0.0000E+00  0.0000E+00  0.0000E+00  0.0000E+00  0.0000E+00  0.0000E+00
     -2.655  0.1779E-01  0.1876E-01  0.2966E-03  0.3128E-03  0.2966E-03  0.3128E-03  0.2966E-03  0.3128E-03  0.0000E+00  0.0000E+00  0.0000E+00  0.0000E+00  0.0000E+00  0.0000E+00  0.0000E+00  0.0000E+00  0.0000E+00  0.0000E+00
     -2.584  0.5952E-02  0.6375E-02  0.1023E-03  0.1090E-03  0.1023E-03  0.1090E-03  0.1023E-03  0.1090E-03  0.0000E+00  0.0000E+00  0.0000E+00  0.0000E+00  0.0000E+00  0.0000E+00  0.0000E+00  0.0000E+00  0.0000E+00  0.0000E+00
     -2.512  0.2555E-02  0.2596E-02  0.5606E-04  0.5566E-04  0.5606E-04  0.5566E-04  0.5606E-04  0.5566E-04  0.0000E+00  0.0000E+00  0.0000E+00  0.0000E+00  0.0000E+00  0.0000E+00  0.0000E+00  0.0000E+00  0.0000E+00  0.0000E+00
     -2.441  0.4575E-02  0.4290E-02  0.1292E-03  0.1205E-03  0.1292E-03  0.1205E-03  0.1292E-03  0.1205E-03  0.0000E+00  0.0000E+00  0.0000E+00  0.0000E+00  0.0000E+00  0.0000E+00  0.0000E+00  0.0000E+00  0.0000E+00  0.0000E+00
     -2.370  0.1400E-01  0.1315E-01  0.4094E-03  0.3848E-03  0.4094E-03  0.3848E-03  0.4094E-03  0.3848E-03  0.0000E+00  0.0000E+00  0.0000E+00  0.0000E+00  0.0000E+00  0.0000E+00  0.0000E+00  0.0000E+00  0.0000E+00  0.0000E+00
     -2.299  0.2917E-01  0.2850E-01  0.8535E-03  0.8339E-03  0.8535E-03  0.8339E-03  0.8535E-03  0.8339E-03  0.0000E+00  0.0000E+00  0.0000E+00  0.0000E+00  0.0000E+00  0.0000E+00  0.0000E+00  0.0000E+00  0.0000E+00  0.0000E+00
     -2.227  0.2717E-01  0.2794E-01  0.7953E-03  0.8178E-03  0.7953E-03  0.8178E-03  0.7953E-03  0.8178E-03  0.0000E+00  0.0000E+00  0.0000E+00  0.0000E+00  0.0000E+00  0.0000E+00  0.0000E+00  0.0000E+00  0.0000E+00  0.0000E+00
     -2.156  0.1187E-01  0.1263E-01  0.3491E-03  0.3714E-03  0.3491E-03  0.3714E-03  0.3491E-03  0.3714E-03  0.0000E+00  0.0000E+00  0.0000E+00  0.0000E+00  0.0000E+00  0.0000E+00  0.0000E+00  0.0000E+00  0.0000E+00  0.0000E+00
     -2.085  0.3968E-02  0.4197E-02  0.1240E-03  0.1301E-03  0.1240E-03  0.1301E-03  0.1240E-03  0.1301E-03  0.0000E+00  0.0000E+00  0.0000E+00  0.0000E+00  0.0000E+00  0.0000E+00  0.0000E+00  0.0000E+00  0.0000E+00  0.0000E+00
     -2.014  0.3225E-02  0.3113E-02  0.1266E-03  0.1208E-03  0.1266E-03  0.1208E-03  0.1266E-03  0.1208E-03  0.0000E+00  0.0000E+00  0.0000E+00  0.0000E+00  0.0000E+00  0.0000E+00  0.0000E+00  0.0000E+00  0.0000E+00  0.0000E+00
     -1.942  0.9124E-02  0.8508E-02  0.3882E-03  0.3616E-03  0.3882E-03  0.3616E-03  0.3882E-03  0.3616E-03  0.0000E+00  0.0000E+00  0.0000E+00  0.0000E+00  0.0000E+00  0.0000E+00  0.0000E+00  0.0000E+00  0.0000E+00  0.0000E+00
     -1.871  0.2588E-01  0.2462E-01  0.1109E-02  0.1056E-02  0.1109E-02  0.1056E-02  0.1109E-02  0.1056E-02  0.0000E+00  0.0000E+00  0.0000E+00  0.0000E+00  0.0000E+00  0.0000E+00  0.0000E+00  0.0000E+00  0.0000E+00  0.0000E+00
     -1.800  0.4051E-01  0.4038E-01  0.1737E-02  0.1731E-02  0.1737E-02  0.1731E-02  0.1737E-02  0.1731E-02  0.0000E+00  0.0000E+00  0.0000E+00  0.0000E+00  0.0000E+00  0.0000E+00  0.0000E+00  0.0000E+00  0.0000E+00  0.0000E+00
     -1.729  0.2717E-01  0.2840E-01  0.1166E-02  0.1219E-02  0.1166E-02  0.1219E-02  0.1166E-02  0.1219E-02  0.0000E+00  0.0000E+00  0.0000E+00  0.0000E+00  0.0000E+00  0.0000E+00  0.0000E+00  0.0000E+00  0.0000E+00  0.0000E+00
     -1.657  0.9924E-02  0.1060E-01  0.4304E-03  0.4592E-03  0.4304E-03  0.4592E-03  0.4304E-03  0.4592E-03  0.0000E+00  0.0000E+00  0.0000E+00  0.0000E+00  0.0000E+00  0.0000E+00  0.0000E+00  0.0000E+00  0.0000E+00  0.0000E+00
     -1.586  0.4072E-02  0.4167E-02  0.1954E-03  0.1978E-03  0.1954E-03  0.1978E-03  0.1954E-03  0.1978E-03  0.0000E+00  0.0000E+00  0.0000E+00  0.0000E+00  0.0000E+00  0.0000E+00  0.0000E+00  0.0000E+00  0.0000E+00  0.0000E+00
     -1.515  0.6633E-02  0.6231E-02  0.3672E-03  0.3437E-03  0.3672E-03  0.3437E-03  0.3672E-03  0.3437E-03  0.0000E+00  0.0000E+00  0.0000E+00  0.0000E+00  0.0000E+00  0.0000E+00  0.0000E+00  0.0000E+00  0.0000E+00  0.0000E+00
     -1.444  0.2112E-01  0.1979E-01  0.1195E-02  0.1119E-02  0.1195E-02  0.1119E-02  0.1195E-02  0.1119E-02  0.0000E+00  0.0000E+00  0.0000E+00  0.0000E+00  0.0000E+00  0.0000E+00  0.0000E+00  0.0000E+00  0.0000E+00  0.0000E+00
     -1.372  0.4954E-01  0.4794E-01  0.2808E-02  0.2718E-02  0.2808E-02  0.2718E-02  0.2808E-02  0.2718E-02  0.0000E+00  0.0000E+00  0.0000E+00  0.0000E+00  0.0000E+00  0.0000E+00  0.0000E+00  0.0000E+00  0.0000E+00  0.0000E+00
     -1.301  0.5492E-01  0.5592E-01  0.3113E-02  0.3170E-02  0.3113E-02  0.3170E-02  0.3113E-02  0.3170E-02  0.0000E+00  0.0000E+00  0.0000E+00  0.0000E+00  0.0000E+00  0.0000E+00  0.0000E+00  0.0000E+00  0.0000E+00  0.0000E+00
     -1.230  0.2705E-01  0.2868E-01  0.1535E-02  0.1627E-02  0.1535E-02  0.1627E-02  0.1535E-02  0.1627E-02  0.0000E+00  0.0000E+00  0.0000E+00  0.0000E+00  0.0000E+00  0.0000E+00  0.0000E+00  0.0000E+00  0.0000E+00  0.0000E+00
     -1.159  0.8526E-02  0.9151E-02  0.4878E-03  0.5230E-03  0.4878E-03  0.5230E-03  0.4878E-03  0.5230E-03  0.0000E+00  0.0000E+00  0.0000E+00  0.0000E+00  0.0000E+00  0.0000E+00  0.0000E+00  0.0000E+00  0.0000E+00  0.0000E+00
     -1.088  0.3428E-02  0.3503E-02  0.2129E-03  0.2157E-03  0.2129E-03  0.2157E-03  0.2129E-03  0.2157E-03  0.0000E+00  0.0000E+00  0.0000E+00  0.0000E+00  0.0000E+00  0.0000E+00  0.0000E+00  0.0000E+00  0.0000E+00  0.0000E+00
     -1.016  0.5606E-02  0.5281E-02  0.3889E-03  0.3653E-03  0.3889E-03  0.3653E-03  0.3889E-03  0.3653E-03  0.0000E+00  0.0000E+00  0.0000E+00  0.0000E+00  0.0000E+00  0.0000E+00  0.0000E+00  0.0000E+00  0.0000E+00  0.0000E+00
     -0.945  0.1573E-01  0.1488E-01  0.1111E-02  0.1052E-02  0.1111E-02  0.1052E-02  0.1111E-02  0.1052E-02  0.0000E+00  0.0000E+00  0.0000E+00  0.0000E+00  0.0000E+00  0.0000E+00  0.0000E+00  0.0000E+00  0.0000E+00  0.0000E+00
     -0.874  0.2784E-01  0.2752E-01  0.1968E-02  0.1945E-02  0.1968E-02  0.1945E-02  0.1968E-02  0.1945E-02  0.0000E+00  0.0000E+00  0.0000E+00  0.0000E+00  0.0000E+00  0.0000E+00  0.0000E+00  0.0000E+00  0.0000E+00  0.0000E+00
     -0.803  0.2130E-01  0.2212E-01  0.1506E-02  0.1564E-02  0.1506E-02  0.1564E-02  0.1506E-02  0.1564E-02  0.0000E+00  0.0000E+00  0.0000E+00  0.0000E+00  0.0000E+00  0.0000E+00  0.0000E+00  0.0000E+00  0.0000E+00  0.0000E+00
     -0.731  0.8365E-02  0.8915E-02  0.5959E-03  0.6345E-03  0.5959E-03  0.6345E-03  0.5959E-03  0.6345E-03  0.0000E+00  0.0000E+00  0.0000E+00  0.0000E+00  0.0000E+00  0.0000E+00  0.0000E+00  0.0000E+00  0.0000E+00  0.0000E+00
     -0.660  0.3403E-02  0.3493E-02  0.2609E-03  0.2656E-03  0.2609E-03  0.2656E-03  0.2609E-03  0.2656E-03  0.0000E+00  0.0000E+00  0.0000E+00  0.0000E+00  0.0000E+00  0.0000E+00  0.0000E+00  0.0000E+00  0.0000E+00  0.0000E+00