 vasp.6.1.0 28Jan20 (build Jun 11 2020 16:13:15) complex                        
  
 executed on             LinuxIFC date 2022.01.24  17:06:27
 running on   64 total cores
 distrk:  each k-point on   64 cores,    1 groups
 distr:  one band on NCORE=   1 cores,   64 groups


--------------------------------------------------------------------------------------------------------


 INCAR:
 POTCAR:    PAW_PBE Al 04Jan2001                  
 -----------------------------------------------------------------------------
|                                                                             |
|           W    W    AA    RRRRR   N    N  II  N    N   GGGG   !!!           |
|           W    W   A  A   R    R  NN   N  II  NN   N  G    G  !!!           |
|           W    W  A    A  R    R  N N  N  II  N N  N  G       !!!           |
|           W WW W  AAAAAA  RRRRR   N  N N  II  N  N N  G  GGG   !            |
|           WW  WW  A    A  R   R   N   NN  II  N   NN  G    G                |
|           W    W  A    A  R    R  N    N  II  N    N   GGGG   !!!           |
|                                                                             |
|     For optimal performance we recommend to set                             |
|       NCORE = 4 - approx SQRT(number of cores).                             |
|     NCORE specifies how many cores store one orbital (NPAR=cpu/NCORE).      |
|     This setting can greatly improve the performance of VASP for DFT.       |
|     The default, NCORE=1 might be grossly inefficient on modern             |
|     multi-core architectures or massively parallel machines. Do your        |
|     own testing!!!!                                                         |
|     Unfortunately you need to use the default for GW and RPA                |
|     calculations (for HF NCORE is supported but not extensively tested      |
|     yet).                                                                   |
|                                                                             |
 -----------------------------------------------------------------------------

 POTCAR:    PAW_PBE Al 04Jan2001                  
   SHA256 =  17880443556af62b473fe41b62a467bd001ad55d2cabe504a3f22e34d4e9db96 Al/POTCAR             
   COPYR  = (c) Copyright 04Jan2001 Georg Kresse                                                    
   COPYR  = This file is part of the software VASP. Any use, copying, and all other rights are regul
   COPYR  = If you do not have a valid VASP license, you may not use, copy or distribute this file. 
   VRHFIN =Al: s2p1                                                                                 
   LEXCH  = PE                                                                                      
   EATOM  =    53.5387 eV,    3.9350 Ry                                                             
                                                                                                    
   TITEL  = PAW_PBE Al 04Jan2001                                                                    
   LULTRA =        F    use ultrasoft PP ?                                                          
   IUNSCR =        1    unscreen: 0-lin 1-nonlin 2-no                                               
   RPACOR =    1.500    partial core radius                                                         
   POMASS =   26.981; ZVAL   =    3.000    mass and valenz                                          
   RCORE  =    1.900    outmost cutoff radius                                                       
   RWIGS  =    2.650; RWIGS  =    1.402    wigner-seitz radius (au A)                               
   ENMAX  =  240.300; ENMIN  =  180.225 eV                                                          
   ICORE  =        2    local potential                                                             
   LCOR   =        T    correct aug charges                                                         
   LPAW   =        T    paw PP                                                                      
   EAUG   =  291.052                                                                                
   DEXC   =    0.000                                                                                
   RMAX   =    1.939    core radius for proj-oper                                                   
   RAUG   =    1.300    factor for augmentation sphere                                              
   RDEP   =    1.966    radius for radial grids                                                     
   RDEPT  =    1.856    core radius for aug-charge                                                  
                                                                                                    
   Atomic configuration                                                                             
    6 entries                                                                                       
     n  l   j            E        occ.                                                              
     1  0  0.50     -1511.1048   2.0000                                                             
     2  0  0.50      -108.1629   2.0000                                                             
     2  1  1.50       -69.6402   6.0000                                                             
     3  0  0.50        -7.7528   2.0000                                                             
     3  1  1.50        -2.7121   1.0000                                                             
     3  2  2.50        -2.7212   0.0000                                                             
   Description                                                                                      
     l       E           TYP  RCUT    TYP  RCUT                                                     
     0     -7.7528455     23  1.900                                                                 
     0     -3.3096929     23  1.900                                                                 
     1     -2.7120682     23  1.900                                                                 
     1     13.6058260     23  1.900                                                                 
     2     -2.7211652      7  1.900                                                                 
  local pseudopotential read in
  partial core-charges read in
  partial kinetic energy density read in
  atomic valenz-charges read in
  non local Contribution for L=           0  read in
    real space projection operators read in
  non local Contribution for L=           0  read in
    real space projection operators read in
  non local Contribution for L=           1  read in
    real space projection operators read in
  non local Contribution for L=           1  read in
    real space projection operators read in
    PAW grid and wavefunctions read in
 
   number of l-projection  operators is LMAX  =           4
   number of lm-projection operators is LMMAX =           8
 
  PAW_PBE Al 04Jan2001                  :
 energy of atom  1       EATOM=  -53.5387
 kinetic energy error for atom=    0.0002 (will be added to EATOM!!)
 
 
 POSCAR: Al4
  positions in direct lattice
  velocities in cartesian coordinates
 exchange correlation table for  LEXCH =        8
   RHO(1)=    0.500       N(1)  =     2000
   RHO(2)=  100.500       N(2)  =     4000
 


--------------------------------------------------------------------------------------------------------


 ion  position               nearest neighbor table
   1  0.000  0.000  0.000-   2 2.86   3 2.86   4 2.86   2 2.86   3 2.86   2 2.86   4 2.86   2 2.86
                             3 2.86   4 2.86   3 2.86   4 2.86
   2  0.000  0.500  0.500-   1 2.86   3 2.86   4 2.86   1 2.86   4 2.86   1 2.86   3 2.86   1 2.86
                             3 2.86   4 2.86   4 2.86   3 2.86
   3  0.500  0.000  0.500-   1 2.86   2 2.86   4 2.86   1 2.86   4 2.86   2 2.86   4 2.86   4 2.86
                             1 2.86   2 2.86   1 2.86   2 2.86
   4  0.500  0.500  0.000-   1 2.86   2 2.86   3 2.86   2 2.86   3 2.86   1 2.86   3 2.86   3 2.86
                             1 2.86   2 2.86   2 2.86   1 2.86
 
  LATTYP: Found a simple cubic cell.
 ALAT       =     4.0396918604
  
  Lattice vectors:
  
 A1 = (   4.0396918604,   0.0000000000,   0.0000000000)
 A2 = (   0.0000000000,   4.0396918604,   0.0000000000)
 A3 = (   0.0000000000,   0.0000000000,   4.0396918604)


Analysis of symmetry for initial positions (statically):
=====================================================================
 Subroutine PRICEL returns following result:
 
  LATTYP: Found a face centered cubic cell.
 ALAT       =     4.0396918604
  
  Lattice vectors:
  
 A1 = (   2.0198459302,   2.0198459302,   0.0000000000)
 A2 = (   2.0198459302,   0.0000000000,  -2.0198459302)
 A3 = (   0.0000000000,   2.0198459302,  -2.0198459302)
 
   4 primitive cells build up your supercell.
 

 Routine SETGRP: Setting up the symmetry group for a 
 simple cubic supercell.


 Subroutine GETGRP returns: Found 48 space group operations
 (whereof 48 operations were pure point group operations)
 out of a pool of 48 trial point group operations.


The static configuration has the point symmetry O_h .


Analysis of symmetry for dynamics (positions and initial velocities):
=====================================================================
 Subroutine PRICEL returns following result:
 
  LATTYP: Found a face centered cubic cell.
 ALAT       =     4.0396918604
  
  Lattice vectors:
  
 A1 = (   2.0198459302,   2.0198459302,   0.0000000000)
 A2 = (   2.0198459302,   0.0000000000,  -2.0198459302)
 A3 = (   0.0000000000,   2.0198459302,  -2.0198459302)
 
   4 primitive cells build up your supercell.
 

 Routine SETGRP: Setting up the symmetry group for a 
 simple cubic supercell.


 Subroutine GETGRP returns: Found 48 space group operations
 (whereof 48 operations were pure point group operations)
 out of a pool of 48 trial point group operations.


The dynamic configuration has the point symmetry O_h .


 Subroutine INISYM returns: Found 48 space group operations
 (whereof 48 operations are pure point group operations),
 and found     4 'primitive' translations


----------------------------------------------------------------------------------------

                                     Primitive cell                                     

  volume of cell :      16.4810

  direct lattice vectors                    reciprocal lattice vectors
     2.019845930  2.019845930  0.000000000     0.247543633  0.247543633  0.247543633
     2.019845930  0.000000000 -2.019845930     0.247543633 -0.247543633 -0.247543633
     0.000000000  2.019845930 -2.019845930    -0.247543633  0.247543633 -0.247543633

  length of vectors
     2.856493508  2.856493508  2.856493508     0.428758150  0.428758150  0.428758150

  position of ions in fractional coordinates (direct lattice)
     0.000000000  0.000000000  0.000000000

  ion indices of the primitive-cell ions
   primitive index   ion index
                 1           1

----------------------------------------------------------------------------------------

 
 
 KPOINTS: pymatgen with grid density = 882 / numbe

Automatic generation of k-mesh.
Space group operators:
 irot       det(A)        alpha          n_x          n_y          n_z        tau_x        tau_y        tau_z
    1     1.000000     0.000000     1.000000     0.000000     0.000000     0.000000     0.000000     0.000000
    2    -1.000000     0.000000     1.000000     0.000000     0.000000     0.000000     0.000000     0.000000
    3     1.000000   120.000000    -0.577350    -0.577350    -0.577350     0.000000     0.000000     0.000000
    4    -1.000000   120.000000    -0.577350    -0.577350    -0.577350     0.000000     0.000000     0.000000
    5     1.000000   120.000000     0.577350     0.577350     0.577350     0.000000     0.000000     0.000000
    6    -1.000000   120.000000     0.577350     0.577350     0.577350     0.000000     0.000000     0.000000
    7     1.000000    90.000000     0.000000     0.000000    -1.000000     0.000000     0.000000     0.000000
    8    -1.000000    90.000000     0.000000     0.000000    -1.000000     0.000000     0.000000     0.000000
    9     1.000000   180.000000     0.000000     0.707107     0.707107     0.000000     0.000000     0.000000
   10    -1.000000   180.000000     0.000000     0.707107     0.707107     0.000000     0.000000     0.000000
   11     1.000000    90.000000     0.000000     1.000000     0.000000     0.000000     0.000000     0.000000
   12    -1.000000    90.000000     0.000000     1.000000     0.000000     0.000000     0.000000     0.000000
   13     1.000000   180.000000     0.000000     0.000000     1.000000     0.000000     0.000000     0.000000
   14    -1.000000   180.000000     0.000000     0.000000     1.000000     0.000000     0.000000     0.000000
   15     1.000000   120.000000    -0.577350     0.577350     0.577350     0.000000     0.000000     0.000000
   16    -1.000000   120.000000    -0.577350     0.577350     0.577350     0.000000     0.000000     0.000000
   17     1.000000   120.000000    -0.577350     0.577350    -0.577350     0.000000     0.000000     0.000000
   18    -1.000000   120.000000    -0.577350     0.577350    -0.577350     0.000000     0.000000     0.000000
   19     1.000000    90.000000     0.000000     0.000000     1.000000     0.000000     0.000000     0.000000
   20    -1.000000    90.000000     0.000000     0.000000     1.000000     0.000000     0.000000     0.000000
   21     1.000000    90.000000    -1.000000     0.000000     0.000000     0.000000     0.000000     0.000000
   22    -1.000000    90.000000    -1.000000     0.000000     0.000000     0.000000     0.000000     0.000000
   23     1.000000   180.000000     0.707107     0.000000     0.707107     0.000000     0.000000     0.000000
   24    -1.000000   180.000000     0.707107     0.000000     0.707107     0.000000     0.000000     0.000000
   25     1.000000   120.000000     0.577350    -0.577350     0.577350     0.000000     0.000000     0.000000
   26    -1.000000   120.000000     0.577350    -0.577350     0.577350     0.000000     0.000000     0.000000
   27     1.000000   120.000000    -0.577350    -0.577350     0.577350     0.000000     0.000000     0.000000
   28    -1.000000   120.000000    -0.577350    -0.577350     0.577350     0.000000     0.000000     0.000000
   29     1.000000   180.000000     1.000000     0.000000     0.000000     0.000000     0.000000     0.000000
   30    -1.000000   180.000000     1.000000     0.000000     0.000000     0.000000     0.000000     0.000000
   31     1.000000    90.000000     0.000000    -1.000000     0.000000     0.000000     0.000000     0.000000
   32    -1.000000    90.000000     0.000000    -1.000000     0.000000     0.000000     0.000000     0.000000
   33     1.000000   180.000000     0.707107     0.707107     0.000000     0.000000     0.000000     0.000000
   34    -1.000000   180.000000     0.707107     0.707107     0.000000     0.000000     0.000000     0.000000
   35     1.000000    90.000000     1.000000     0.000000     0.000000     0.000000     0.000000     0.000000
   36    -1.000000    90.000000     1.000000     0.000000     0.000000     0.000000     0.000000     0.000000
   37     1.000000   120.000000     0.577350    -0.577350    -0.577350     0.000000     0.000000     0.000000
   38    -1.000000   120.000000     0.577350    -0.577350    -0.577350     0.000000     0.000000     0.000000
   39     1.000000   180.000000     0.000000     1.000000     0.000000     0.000000     0.000000     0.000000
   40    -1.000000   180.000000     0.000000     1.000000     0.000000     0.000000     0.000000     0.000000
   41     1.000000   120.000000     0.577350     0.577350    -0.577350     0.000000     0.000000     0.000000
   42    -1.000000   120.000000     0.577350     0.577350    -0.577350     0.000000     0.000000     0.000000
   43     1.000000   180.000000     0.000000    -0.707107     0.707107     0.000000     0.000000     0.000000
   44    -1.000000   180.000000     0.000000    -0.707107     0.707107     0.000000     0.000000     0.000000
   45     1.000000   180.000000     0.707107    -0.707107     0.000000     0.000000     0.000000     0.000000
   46    -1.000000   180.000000     0.707107    -0.707107     0.000000     0.000000     0.000000     0.000000
   47     1.000000   180.000000     0.707107     0.000000    -0.707107     0.000000     0.000000     0.000000
   48    -1.000000   180.000000     0.707107     0.000000    -0.707107     0.000000     0.000000     0.000000
 
 Subroutine IBZKPT returns following result:
 ===========================================
 
 Found     10 irreducible k-points:
 
 Following reciprocal coordinates:
            Coordinates               Weight
  0.083333  0.083333  0.083333      8.000000
  0.250000  0.083333  0.083333     24.000000
  0.416667  0.083333  0.083333     24.000000
  0.250000  0.250000  0.083333     24.000000
  0.416667  0.250000  0.083333     48.000000
  0.416667  0.416667  0.083333     24.000000
  0.250000  0.250000  0.250000      8.000000
  0.416667  0.250000  0.250000     24.000000
  0.416667  0.416667  0.250000     24.000000
  0.416667  0.416667  0.416667      8.000000
 
 Following cartesian coordinates:
            Coordinates               Weight
  0.020629  0.020629  0.020629      8.000000
  0.061886  0.020629  0.020629     24.000000
  0.103143  0.020629  0.020629     24.000000
  0.061886  0.061886  0.020629     24.000000
  0.103143  0.061886  0.020629     48.000000
  0.103143  0.103143  0.020629     24.000000
  0.061886  0.061886  0.061886      8.000000
  0.103143  0.061886  0.061886     24.000000
  0.103143  0.103143  0.061886     24.000000
  0.103143  0.103143  0.103143      8.000000
 
 
 Subroutine IBZKPT_HF returns following result:
 ==============================================
 
 Found    216 k-points in 1st BZ
 the following    216 k-points will be used (e.g. in the exchange kernel)
 Following reciprocal coordinates:   # in IRBZ
  0.083333  0.083333  0.083333    0.00462963   1 t-inv F
  0.250000  0.083333  0.083333    0.00462963   2 t-inv F
  0.416667  0.083333  0.083333    0.00462963   3 t-inv F
  0.250000  0.250000  0.083333    0.00462963   4 t-inv F
  0.416667  0.250000  0.083333    0.00462963   5 t-inv F
  0.416667  0.416667  0.083333    0.00462963   6 t-inv F
  0.250000  0.250000  0.250000    0.00462963   7 t-inv F
  0.416667  0.250000  0.250000    0.00462963   8 t-inv F
  0.416667  0.416667  0.250000    0.00462963   9 t-inv F
  0.416667  0.416667  0.416667    0.00462963  10 t-inv F
 -0.083333 -0.083333 -0.083333    0.00462963   1 t-inv F
 -0.083333  0.083333  0.083333    0.00462963   1 t-inv F
  0.083333 -0.083333 -0.083333    0.00462963   1 t-inv F
 -0.083333 -0.083333  0.083333    0.00462963   1 t-inv F
  0.083333  0.083333 -0.083333    0.00462963   1 t-inv F
  0.083333 -0.083333  0.083333    0.00462963   1 t-inv F
 -0.083333  0.083333 -0.083333    0.00462963   1 t-inv F
 -0.250000 -0.083333 -0.083333    0.00462963   2 t-inv F
  0.083333  0.250000  0.083333    0.00462963   2 t-inv F
 -0.083333 -0.250000 -0.083333    0.00462963   2 t-inv F
  0.083333  0.083333  0.250000    0.00462963   2 t-inv F
 -0.083333 -0.083333 -0.250000    0.00462963   2 t-inv F
 -0.083333  0.250000  0.083333    0.00462963   2 t-inv F
  0.083333 -0.250000 -0.083333    0.00462963   2 t-inv F
 -0.250000  0.083333  0.083333    0.00462963   2 t-inv F
  0.250000 -0.083333 -0.083333    0.00462963   2 t-inv F
 -0.083333  0.083333  0.250000    0.00462963   2 t-inv F
  0.083333 -0.083333 -0.250000    0.00462963   2 t-inv F
 -0.250000 -0.083333  0.083333    0.00462963   2 t-inv F
  0.250000  0.083333 -0.083333    0.00462963   2 t-inv F
 -0.083333 -0.250000  0.083333    0.00462963   2 t-inv F
  0.083333  0.250000 -0.083333    0.00462963   2 t-inv F
 -0.083333 -0.083333  0.250000    0.00462963   2 t-inv F
  0.083333  0.083333 -0.250000    0.00462963   2 t-inv F
  0.083333 -0.250000  0.083333    0.00462963   2 t-inv F
 -0.083333  0.250000 -0.083333    0.00462963   2 t-inv F
  0.250000 -0.083333  0.083333    0.00462963   2 t-inv F
 -0.250000  0.083333 -0.083333    0.00462963   2 t-inv F
  0.083333 -0.083333  0.250000    0.00462963   2 t-inv F
 -0.083333  0.083333 -0.250000    0.00462963   2 t-inv F
 -0.416667 -0.083333 -0.083333    0.00462963   3 t-inv F
  0.083333  0.416667  0.083333    0.00462963   3 t-inv F
 -0.083333 -0.416667 -0.083333    0.00462963   3 t-inv F
  0.083333  0.083333  0.416667    0.00462963   3 t-inv F
 -0.083333 -0.083333 -0.416667    0.00462963   3 t-inv F
 -0.083333  0.416667  0.083333    0.00462963   3 t-inv F
  0.083333 -0.416667 -0.083333    0.00462963   3 t-inv F
 -0.416667  0.083333  0.083333    0.00462963   3 t-inv F
  0.416667 -0.083333 -0.083333    0.00462963   3 t-inv F
 -0.083333  0.083333  0.416667    0.00462963   3 t-inv F
  0.083333 -0.083333 -0.416667    0.00462963   3 t-inv F
 -0.416667 -0.083333  0.083333    0.00462963   3 t-inv F
  0.416667  0.083333 -0.083333    0.00462963   3 t-inv F
 -0.083333 -0.416667  0.083333    0.00462963   3 t-inv F
  0.083333  0.416667 -0.083333    0.00462963   3 t-inv F
 -0.083333 -0.083333  0.416667    0.00462963   3 t-inv F
  0.083333  0.083333 -0.416667    0.00462963   3 t-inv F
  0.083333 -0.416667  0.083333    0.00462963   3 t-inv F
 -0.083333  0.416667 -0.083333    0.00462963   3 t-inv F
  0.416667 -0.083333  0.083333    0.00462963   3 t-inv F
 -0.416667  0.083333 -0.083333    0.00462963   3 t-inv F
  0.083333 -0.083333  0.416667    0.00462963   3 t-inv F
 -0.083333  0.083333 -0.416667    0.00462963   3 t-inv F
 -0.250000 -0.250000 -0.083333    0.00462963   4 t-inv F
  0.083333  0.250000  0.250000    0.00462963   4 t-inv F
 -0.083333 -0.250000 -0.250000    0.00462963   4 t-inv F
  0.250000  0.083333  0.250000    0.00462963   4 t-inv F
 -0.250000 -0.083333 -0.250000    0.00462963   4 t-inv F
 -0.250000  0.250000  0.083333    0.00462963   4 t-inv F
  0.250000 -0.250000 -0.083333    0.00462963   4 t-inv F
 -0.250000  0.083333  0.250000    0.00462963   4 t-inv F
  0.250000 -0.083333 -0.250000    0.00462963   4 t-inv F
 -0.083333  0.250000  0.250000    0.00462963   4 t-inv F
  0.083333 -0.250000 -0.250000    0.00462963   4 t-inv F
 -0.250000 -0.250000  0.083333    0.00462963   4 t-inv F
  0.250000  0.250000 -0.083333    0.00462963   4 t-inv F
 -0.083333 -0.250000  0.250000    0.00462963   4 t-inv F
  0.083333  0.250000 -0.250000    0.00462963   4 t-inv F
 -0.250000 -0.083333  0.250000    0.00462963   4 t-inv F
  0.250000  0.083333 -0.250000    0.00462963   4 t-inv F
  0.250000 -0.250000  0.083333    0.00462963   4 t-inv F
 -0.250000  0.250000 -0.083333    0.00462963   4 t-inv F
  0.250000 -0.083333  0.250000    0.00462963   4 t-inv F
 -0.250000  0.083333 -0.250000    0.00462963   4 t-inv F
  0.083333 -0.250000  0.250000    0.00462963   4 t-inv F
 -0.083333  0.250000 -0.250000    0.00462963   4 t-inv F
 -0.416667 -0.250000 -0.083333    0.00462963   5 t-inv F
  0.083333  0.416667  0.250000    0.00462963   5 t-inv F
 -0.083333 -0.416667 -0.250000    0.00462963   5 t-inv F
  0.250000  0.083333  0.416667    0.00462963   5 t-inv F
 -0.250000 -0.083333 -0.416667    0.00462963   5 t-inv F
 -0.250000  0.416667  0.083333    0.00462963   5 t-inv F
  0.250000 -0.416667 -0.083333    0.00462963   5 t-inv F
 -0.416667  0.083333  0.250000    0.00462963   5 t-inv F
  0.416667 -0.083333 -0.250000    0.00462963   5 t-inv F
 -0.083333  0.250000  0.416667    0.00462963   5 t-inv F
  0.083333 -0.250000 -0.416667    0.00462963   5 t-inv F
 -0.416667 -0.250000  0.083333    0.00462963   5 t-inv F
  0.416667  0.250000 -0.083333    0.00462963   5 t-inv F
 -0.083333 -0.416667  0.250000    0.00462963   5 t-inv F
  0.083333  0.416667 -0.250000    0.00462963   5 t-inv F
 -0.250000 -0.083333  0.416667    0.00462963   5 t-inv F
  0.250000  0.083333 -0.416667    0.00462963   5 t-inv F
  0.250000 -0.416667  0.083333    0.00462963   5 t-inv F
 -0.250000  0.416667 -0.083333    0.00462963   5 t-inv F
  0.416667 -0.083333  0.250000    0.00462963   5 t-inv F
 -0.416667  0.083333 -0.250000    0.00462963   5 t-inv F
  0.083333 -0.250000  0.416667    0.00462963   5 t-inv F
 -0.083333  0.250000 -0.416667    0.00462963   5 t-inv F
  0.083333 -0.416667 -0.250000    0.00462963   5 t-inv F
 -0.083333  0.416667  0.250000    0.00462963   5 t-inv F
  0.250000 -0.083333 -0.416667    0.00462963   5 t-inv F
 -0.250000  0.083333  0.416667    0.00462963   5 t-inv F
  0.416667 -0.250000 -0.083333    0.00462963   5 t-inv F
 -0.416667  0.250000  0.083333    0.00462963   5 t-inv F
  0.083333  0.250000 -0.416667    0.00462963   5 t-inv F
 -0.083333 -0.250000  0.416667    0.00462963   5 t-inv F
  0.250000  0.416667 -0.083333    0.00462963   5 t-inv F
 -0.250000 -0.416667  0.083333    0.00462963   5 t-inv F
  0.416667  0.083333 -0.250000    0.00462963   5 t-inv F
 -0.416667 -0.083333  0.250000    0.00462963   5 t-inv F
 -0.250000  0.083333 -0.416667    0.00462963   5 t-inv F
  0.250000 -0.083333  0.416667    0.00462963   5 t-inv F
 -0.416667  0.250000 -0.083333    0.00462963   5 t-inv F
  0.416667 -0.250000  0.083333    0.00462963   5 t-inv F
 -0.083333  0.416667 -0.250000    0.00462963   5 t-inv F
  0.083333 -0.416667  0.250000    0.00462963   5 t-inv F
 -0.416667 -0.083333 -0.250000    0.00462963   5 t-inv F
  0.416667  0.083333  0.250000    0.00462963   5 t-inv F
 -0.250000 -0.416667 -0.083333    0.00462963   5 t-inv F
  0.250000  0.416667  0.083333    0.00462963   5 t-inv F
 -0.083333 -0.250000 -0.416667    0.00462963   5 t-inv F
  0.083333  0.250000  0.416667    0.00462963   5 t-inv F
 -0.416667 -0.416667 -0.083333    0.00462963   6 t-inv F
  0.083333  0.416667  0.416667    0.00462963   6 t-inv F
 -0.083333 -0.416667 -0.416667    0.00462963   6 t-inv F
  0.416667  0.083333  0.416667    0.00462963   6 t-inv F
 -0.416667 -0.083333 -0.416667    0.00462963   6 t-inv F
 -0.416667  0.416667  0.083333    0.00462963   6 t-inv F
  0.416667 -0.416667 -0.083333    0.00462963   6 t-inv F
 -0.416667  0.083333  0.416667    0.00462963   6 t-inv F
  0.416667 -0.083333 -0.416667    0.00462963   6 t-inv F
 -0.083333  0.416667  0.416667    0.00462963   6 t-inv F
  0.083333 -0.416667 -0.416667    0.00462963   6 t-inv F
 -0.416667 -0.416667  0.083333    0.00462963   6 t-inv F
  0.416667  0.416667 -0.083333    0.00462963   6 t-inv F
 -0.083333 -0.416667  0.416667    0.00462963   6 t-inv F
  0.083333  0.416667 -0.416667    0.00462963   6 t-inv F
 -0.416667 -0.083333  0.416667    0.00462963   6 t-inv F
  0.416667  0.083333 -0.416667    0.00462963   6 t-inv F
  0.416667 -0.416667  0.083333    0.00462963   6 t-inv F
 -0.416667  0.416667 -0.083333    0.00462963   6 t-inv F
  0.416667 -0.083333  0.416667    0.00462963   6 t-inv F
 -0.416667  0.083333 -0.416667    0.00462963   6 t-inv F
  0.083333 -0.416667  0.416667    0.00462963   6 t-inv F
 -0.083333  0.416667 -0.416667    0.00462963   6 t-inv F
 -0.250000 -0.250000 -0.250000    0.00462963   7 t-inv F
 -0.250000  0.250000  0.250000    0.00462963   7 t-inv F
  0.250000 -0.250000 -0.250000    0.00462963   7 t-inv F
 -0.250000 -0.250000  0.250000    0.00462963   7 t-inv F
  0.250000  0.250000 -0.250000    0.00462963   7 t-inv F
  0.250000 -0.250000  0.250000    0.00462963   7 t-inv F
 -0.250000  0.250000 -0.250000    0.00462963   7 t-inv F
 -0.416667 -0.250000 -0.250000    0.00462963   8 t-inv F
  0.250000  0.416667  0.250000    0.00462963   8 t-inv F
 -0.250000 -0.416667 -0.250000    0.00462963   8 t-inv F
  0.250000  0.250000  0.416667    0.00462963   8 t-inv F
 -0.250000 -0.250000 -0.416667    0.00462963   8 t-inv F
 -0.250000  0.416667  0.250000    0.00462963   8 t-inv F
  0.250000 -0.416667 -0.250000    0.00462963   8 t-inv F
 -0.416667  0.250000  0.250000    0.00462963   8 t-inv F
  0.416667 -0.250000 -0.250000    0.00462963   8 t-inv F
 -0.250000  0.250000  0.416667    0.00462963   8 t-inv F
  0.250000 -0.250000 -0.416667    0.00462963   8 t-inv F
 -0.416667 -0.250000  0.250000    0.00462963   8 t-inv F
  0.416667  0.250000 -0.250000    0.00462963   8 t-inv F
 -0.250000 -0.416667  0.250000    0.00462963   8 t-inv F
  0.250000  0.416667 -0.250000    0.00462963   8 t-inv F
 -0.250000 -0.250000  0.416667    0.00462963   8 t-inv F
  0.250000  0.250000 -0.416667    0.00462963   8 t-inv F
  0.250000 -0.416667  0.250000    0.00462963   8 t-inv F
 -0.250000  0.416667 -0.250000    0.00462963   8 t-inv F
  0.416667 -0.250000  0.250000    0.00462963   8 t-inv F
 -0.416667  0.250000 -0.250000    0.00462963   8 t-inv F
  0.250000 -0.250000  0.416667    0.00462963   8 t-inv F
 -0.250000  0.250000 -0.416667    0.00462963   8 t-inv F
 -0.416667 -0.416667 -0.250000    0.00462963   9 t-inv F
  0.250000  0.416667  0.416667    0.00462963   9 t-inv F
 -0.250000 -0.416667 -0.416667    0.00462963   9 t-inv F
  0.416667  0.250000  0.416667    0.00462963   9 t-inv F
 -0.416667 -0.250000 -0.416667    0.00462963   9 t-inv F
 -0.416667  0.416667  0.250000    0.00462963   9 t-inv F
  0.416667 -0.416667 -0.250000    0.00462963   9 t-inv F
 -0.416667  0.250000  0.416667    0.00462963   9 t-inv F
  0.416667 -0.250000 -0.416667    0.00462963   9 t-inv F
 -0.250000  0.416667  0.416667    0.00462963   9 t-inv F
  0.250000 -0.416667 -0.416667    0.00462963   9 t-inv F
 -0.416667 -0.416667  0.250000    0.00462963   9 t-inv F
  0.416667  0.416667 -0.250000    0.00462963   9 t-inv F
 -0.250000 -0.416667  0.416667    0.00462963   9 t-inv F
  0.250000  0.416667 -0.416667    0.00462963   9 t-inv F
 -0.416667 -0.250000  0.416667    0.00462963   9 t-inv F
  0.416667  0.250000 -0.416667    0.00462963   9 t-inv F
  0.416667 -0.416667  0.250000    0.00462963   9 t-inv F
 -0.416667  0.416667 -0.250000    0.00462963   9 t-inv F
  0.416667 -0.250000  0.416667    0.00462963   9 t-inv F
 -0.416667  0.250000 -0.416667    0.00462963   9 t-inv F
  0.250000 -0.416667  0.416667    0.00462963   9 t-inv F
 -0.250000  0.416667 -0.416667    0.00462963   9 t-inv F
 -0.416667 -0.416667 -0.416667    0.00462963  10 t-inv F
 -0.416667  0.416667  0.416667    0.00462963  10 t-inv F
  0.416667 -0.416667 -0.416667    0.00462963  10 t-inv F
 -0.416667 -0.416667  0.416667    0.00462963  10 t-inv F
  0.416667  0.416667 -0.416667    0.00462963  10 t-inv F
  0.416667 -0.416667  0.416667    0.00462963  10 t-inv F
 -0.416667  0.416667 -0.416667    0.00462963  10 t-inv F


--------------------------------------------------------------------------------------------------------




 Dimension of arrays:
   k-points           NKPTS =     10   k-points in BZ     NKDIM =     10   number of bands    NBANDS=     64
   number of dos      NEDOS =    301   number of ions     NIONS =      4
   non local maximal  LDIM  =      4   non local SUM 2l+1 LMDIM =      8
   total plane-waves  NPLWV =  13824
   max r-space proj   IRMAX =      1   max aug-charges    IRDMAX=   8360
   dimension x,y,z NGX =    24 NGY =   24 NGZ =   24
   dimension x,y,z NGXF=    48 NGYF=   48 NGZF=   48
   support grid    NGXF=    48 NGYF=   48 NGZF=   48
   ions per type =               4
   NGX,Y,Z   is equivalent  to a cutoff of   9.88,  9.88,  9.88 a.u.
   NGXF,Y,Z  is equivalent  to a cutoff of  19.75, 19.75, 19.75 a.u.

 SYSTEM =  unknown system                          
 POSCAR =  Al4                                     

 Startparameter for this run:
   NWRITE =      2    write-flag & timer
   PREC   = normal    normal or accurate (medium, high low for compatibility)
   ISTART =      0    job   : 0-new  1-cont  2-samecut
   ICHARG =      2    charge: 1-file 2-atom 10-const
   ISPIN  =      1    spin polarized calculation?
   LNONCOLLINEAR =      F non collinear calculations
   LSORBIT =      F    spin-orbit coupling
   INIWAV =      1    electr: 0-lowe 1-rand  2-diag
   LASPH  =      F    aspherical Exc in radial PAW
   METAGGA=      F    non-selfconsistent MetaGGA calc.

 Electronic Relaxation 1
   ENCUT  =  520.0 eV  38.22 Ry    6.18 a.u.   7.51  7.51  7.51*2*pi/ulx,y,z
   ENINI  =  520.0     initial cutoff
   ENAUG  =  291.1 eV  augmentation charge cutoff
   NELM   =     60;   NELMIN=  2; NELMDL= -5     # of ELM steps 
   EDIFF  = 0.1E-04   stopping-criterion for ELM
   LREAL  =      F    real-space projection
   NLSPLINE    = F    spline interpolate recip. space projectors
   LCOMPAT=      F    compatible to vasp.4.4
   GGA_COMPAT  = T    GGA compatible to vasp.4.4-vasp.4.6
   LMAXPAW     = -100 max onsite density
   LMAXMIX     =    2 max onsite mixed and CHGCAR
   VOSKOWN=      0    Vosko Wilk Nusair interpolation
   ROPT   =    0.00000
 Ionic relaxation
   EDIFFG = -.1E-07   stopping-criterion for IOM
   NSW    =     85    number of steps for IOM
   NBLOCK =      1;   KBLOCK =     85    inner block; outer block 
   IBRION =      6    ionic relax: 0-MD 1-quasi-New 2-CG
   NFREE  =      2    steps in history (QN), initial steepest desc. (CG)
   ISIF   =      4    stress and relaxation
   IWAVPR =     11    prediction:  0-non 1-charg 2-wave 3-comb
   ISYM   =      2    0-nonsym 1-usesym 2-fastsym
   LCORR  =      T    Harris-Foulkes like correction to forces

   POTIM  = 0.0500    time-step for ionic-motion
   TEIN   =    0.0    initial temperature
   TEBEG  =    0.0;   TEEND  =   0.0 temperature during run
   SMASS  =  -3.00    Nose mass-parameter (am)
   estimated Nose-frequenzy (Omega)   =  0.10E-29 period in steps = 0.13E+48 mass=  -0.373E-27a.u.
   SCALEE = 1.0000    scale energy and forces
   NPACO  =    256;   APACO  = 16.0  distance and # of slots for P.C.
   PSTRESS=    0.0 pullay stress

  Mass of Ions in am
   POMASS =  26.98
  Ionic Valenz
   ZVAL   =   3.00
  Atomic Wigner-Seitz radii
   RWIGS  =  -1.00
  virtual crystal weights 
   VCA    =   1.00
   NELECT =      12.0000    total number of electrons
   NUPDOWN=      -1.0000    fix difference up-down

 DOS related values:
   EMIN   =  10.00;   EMAX   =-10.00  energy-range for DOS
   EFERMI =   0.00
   ISMEAR =    -1;   SIGMA  =   0.10  broadening in eV -4-tet -1-fermi 0-gaus

 Electronic relaxation 2 (details)
   IALGO  =     38    algorithm
   LDIAG  =      T    sub-space diagonalisation (order eigenvalues)
   LSUBROT=      F    optimize rotation matrix (better conditioning)
   TURBO    =      0    0=normal 1=particle mesh
   IRESTART =      0    0=no restart 2=restart with 2 vectors
   NREBOOT  =      0    no. of reboots
   NMIN     =      0    reboot dimension
   EREF     =   0.00    reference energy to select bands
   IMIX   =      4    mixing-type and parameters
     AMIX     =   0.40;   BMIX     =  1.00
     AMIX_MAG =   1.60;   BMIX_MAG =  1.00
     AMIN     =   0.10
     WC   =   100.;   INIMIX=   1;  MIXPRE=   1;  MAXMIX= -45

 Intra band minimization:
   WEIMIN = 0.0010     energy-eigenvalue tresh-hold
   EBREAK =  0.39E-11  absolut break condition
   DEPER  =   0.30     relativ break condition  

   TIME   =   0.40     timestep for ELM

  volume/ion in A,a.u.               =      16.48       111.22
  Fermi-wavevector in a.u.,A,eV,Ry     =   0.927799  1.753285 11.712032  0.860810
  Thomas-Fermi vector in A             =   2.053907
 
 Write flags
   LWAVE        =      T    write WAVECAR
   LDOWNSAMPLE  =      F    k-point downsampling of WAVECAR
   LCHARG       =      T    write CHGCAR
   LVTOT        =      F    write LOCPOT, total local potential
   LVHAR        =      F    write LOCPOT, Hartree potential only
   LELF         =      F    write electronic localiz. function (ELF)
   LORBIT       =      0    0 simple, 1 ext, 2 COOP (PROOUT), +10 PAW based schemes


 Dipole corrections
   LMONO  =      F    monopole corrections only (constant potential shift)
   LDIPOL =      F    correct potential (dipole corrections)
   IDIPOL =      0    1-x, 2-y, 3-z, 4-all directions 
   EPSILON=  1.0000000 bulk dielectric constant

 Exchange correlation treatment:
   GGA     =    --    GGA type
   LEXCH   =     8    internal setting for exchange type
   VOSKOWN=      0    Vosko Wilk Nusair interpolation
   LHFCALC =     F    Hartree Fock is set to
   LHFONE  =     F    Hartree Fock one center treatment
   AEXX    =    0.0000 exact exchange contribution

 Linear response parameters
   LEPSILON=     F    determine dielectric tensor
   LRPA    =     F    only Hartree local field effects (RPA)
   LNABLA  =     F    use nabla operator in PAW spheres
   LVEL    =     F    velocity operator in full k-point grid
   LINTERFAST=   F  fast interpolation
   KINTER  =     0    interpolate to denser k-point grid
   CSHIFT  =0.1000    complex shift for real part using Kramers Kronig
   OMEGAMAX=  -1.0    maximum frequency
   DEG_THRESHOLD= 0.2000000E-02 threshold for treating states as degnerate
   RTIME   =   -0.100 relaxation time in fs
  (WPLASMAI=    0.000 imaginary part of plasma frequency in eV, 0.658/RTIME)
   DFIELD  = 0.0000000 0.0000000 0.0000000 field for delta impulse in time
 
 Orbital magnetization related:
   ORBITALMAG=     F  switch on orbital magnetization
   LCHIMAG   =     F  perturbation theory with respect to B field
   DQ        =  0.001000  dq finite difference perturbation B field
   LLRAUG    =     F  two centre corrections for induced B field



--------------------------------------------------------------------------------------------------------


 finite differences with symmetry
 charge density and potential will be updated during run
 non-spin polarized calculation
 Variant of blocked Davidson
 Davidson routine will perform the subspace rotation
 perform sub-space diagonalisation
    after iterative eigenvector-optimisation
 modified Broyden-mixing scheme, WC =      100.0
 initial mixing is a Kerker type mixing with AMIX =  0.4000 and BMIX =      1.0000
 Hartree-type preconditioning will be used
 using additional bands           58
 reciprocal scheme for non local part
 use partial core corrections
 calculate Harris-corrections to forces 
   (improved forces if not selfconsistent)
 use gradient corrections 
 use of overlap-Matrix (Vanderbilt PP)
 Fermi-smearing in eV        SIGMA  =   0.10


--------------------------------------------------------------------------------------------------------


  energy-cutoff  :      520.00
  volume of cell :       65.92
      direct lattice vectors                 reciprocal lattice vectors
     4.039691860  0.000000000  0.000000000     0.247543633  0.000000000  0.000000000
     0.000000000  4.039691860  0.000000000     0.000000000  0.247543633  0.000000000
     0.000000000  0.000000000  4.039691860     0.000000000  0.000000000  0.247543633

  length of vectors
     4.039691860  4.039691860  4.039691860     0.247543633  0.247543633  0.247543633


 
 k-points in units of 2pi/SCALE and weight: pymatgen with grid density = 882 / numbe
   0.02062864  0.02062864  0.02062864       0.037
   0.06188591  0.02062864  0.02062864       0.111
   0.10314318  0.02062864  0.02062864       0.111
   0.06188591  0.06188591  0.02062864       0.111
   0.10314318  0.06188591  0.02062864       0.222
   0.10314318  0.10314318  0.02062864       0.111
   0.06188591  0.06188591  0.06188591       0.037
   0.10314318  0.06188591  0.06188591       0.111
   0.10314318  0.10314318  0.06188591       0.111
   0.10314318  0.10314318  0.10314318       0.037
 
 k-points in reciprocal lattice and weights: pymatgen with grid density = 882 / numbe
   0.08333333  0.08333333  0.08333333       0.037
   0.25000000  0.08333333  0.08333333       0.111
   0.41666667  0.08333333  0.08333333       0.111
   0.25000000  0.25000000  0.08333333       0.111
   0.41666667  0.25000000  0.08333333       0.222
   0.41666667  0.41666667  0.08333333       0.111
   0.25000000  0.25000000  0.25000000       0.037
   0.41666667  0.25000000  0.25000000       0.111
   0.41666667  0.41666667  0.25000000       0.111
   0.41666667  0.41666667  0.41666667       0.037
 
 position of ions in fractional coordinates (direct lattice) 
   0.00000000  0.00000000  0.00000000
   0.00000000  0.50000000  0.50000000
   0.50000000  0.00000000  0.50000000
   0.50000000  0.50000000  0.00000000
 
 position of ions in cartesian coordinates  (Angst):
   0.00000000  0.00000000  0.00000000
   0.00000000  2.01984593  2.01984593
   2.01984593  0.00000000  2.01984593
   2.01984593  2.01984593  0.00000000
 


--------------------------------------------------------------------------------------------------------


 k-point   1 :   0.0833 0.0833 0.0833  plane waves:    1797
 k-point   2 :   0.2500 0.0833 0.0833  plane waves:    1784
 k-point   3 :   0.4167 0.0833 0.0833  plane waves:    1779
 k-point   4 :   0.2500 0.2500 0.0833  plane waves:    1780
 k-point   5 :   0.4167 0.2500 0.0833  plane waves:    1778
 k-point   6 :   0.4167 0.4167 0.0833  plane waves:    1762
 k-point   7 :   0.2500 0.2500 0.2500  plane waves:    1791
 k-point   8 :   0.4167 0.2500 0.2500  plane waves:    1770
 k-point   9 :   0.4167 0.4167 0.2500  plane waves:    1771
 k-point  10 :   0.4167 0.4167 0.4167  plane waves:    1772

 maximum and minimum number of plane-waves per node :      1797     1762

 maximum number of plane-waves:      1797
 maximum index in each direction: 
   IXMAX=    7   IYMAX=    7   IZMAX=    7
   IXMIN=   -7   IYMIN=   -7   IZMIN=   -7


 serial   3D FFT for wavefunctions
 parallel 3D FFT for charge:
    minimum data exchange during FFTs selected (reduces bandwidth)


 total amount of memory used by VASP MPI-rank0    32453. kBytes
=======================================================================

   base      :      30000. kBytes
   nonl-proj :       1306. kBytes
   fftplans  :        153. kBytes
   grid      :        675. kBytes
   one-center:         12. kBytes
   wavefun   :        307. kBytes
 
     INWAV:  cpu time    0.0000: real time    0.0000
 Broyden mixing: mesh for mixing (old mesh)
   NGX = 15   NGY = 15   NGZ = 15
  (NGX  = 48   NGY  = 48   NGZ  = 48)
  gives a total of   3375 points

 initial charge density was supplied:
 charge density of overlapping atoms calculated
 number of electron      12.0000000 magnetization 
 keeping initial charge density in first step


--------------------------------------------------------------------------------------------------------


 Maximum index for augmentation-charges          481 (set IRDMAX)


--------------------------------------------------------------------------------------------------------


 First call to EWALD:  gamma=   0.439
 Maximum number of real-space cells 3x 3x 3
 Maximum number of reciprocal cells 3x 3x 3

    FEWALD:  cpu time    0.0018: real time    0.0031


--------------------------------------- Iteration      1(   1)  ---------------------------------------


    POTLOK:  cpu time    0.0728: real time    0.0922
    SETDIJ:  cpu time    0.0019: real time    0.0020
     EDDAV:  cpu time    1.3972: real time    1.6150
       DOS:  cpu time    0.0041: real time    0.0043
    --------------------------------------------
      LOOP:  cpu time    1.4759: real time    1.7135

 eigenvalue-minimisations  :  1280
 total energy-change (2. order) :-0.1126721E+02  (-0.4412664E+03)
 number of electron      12.0000000 magnetization 
 augmentation part       12.0000000 magnetization 

 Free energy of the ion-electron system (eV)
  ---------------------------------------------------
  alpha Z        PSCENC =        -0.81519346
  Ewald energy   TEWEN  =      -294.17558039
  -Hartree energ DENC   =        -0.40388529
  -exchange      EXHF   =         0.00000000
  -V(xc)+E(xc)   XCENC  =      -104.95069909
  PAW double counting   =       264.80062850     -136.98248303
  entropy T*S    EENTRO =        -0.07135195
  eigenvalues    EBANDS =        47.17752796
  atomic energy  EATOM  =       214.15382826
  Solvation  Ediel_sol  =         0.00000000
  ---------------------------------------------------
  free energy    TOTEN  =       -11.26720849 eV

  energy without entropy =      -11.19585654  energy(sigma->0) =      -11.23153251


--------------------------------------------------------------------------------------------------------




--------------------------------------- Iteration      1(   2)  ---------------------------------------


     EDDAV:  cpu time    2.4774: real time    2.7613
       DOS:  cpu time    0.0033: real time    0.0035
    --------------------------------------------
      LOOP:  cpu time    2.4807: real time    2.7648

 eigenvalue-minimisations  :  1920
 total energy-change (2. order) :-0.3804237E+01  (-0.3790692E+01)
 number of electron      12.0000000 magnetization 
 augmentation part       12.0000000 magnetization 

 Free energy of the ion-electron system (eV)
  ---------------------------------------------------
  alpha Z        PSCENC =        -0.81519346
  Ewald energy   TEWEN  =      -294.17558039
  -Hartree energ DENC   =        -0.40388529
  -exchange      EXHF   =         0.00000000
  -V(xc)+E(xc)   XCENC  =      -104.95069909
  PAW double counting   =       264.80062850     -136.98248303
  entropy T*S    EENTRO =        -0.05728328
  eigenvalues    EBANDS =        43.35922228
  atomic energy  EATOM  =       214.15382826
  Solvation  Ediel_sol  =         0.00000000
  ---------------------------------------------------
  free energy    TOTEN  =       -15.07144550 eV

  energy without entropy =      -15.01416222  energy(sigma->0) =      -15.04280386


--------------------------------------------------------------------------------------------------------




--------------------------------------- Iteration      1(   3)  ---------------------------------------


     EDDAV:  cpu time    1.4675: real time    1.6715
       DOS:  cpu time    0.0038: real time    0.0041
    --------------------------------------------
      LOOP:  cpu time    1.4713: real time    1.6756

 eigenvalue-minimisations  :  1280
 total energy-change (2. order) :-0.1859574E-02  (-0.1859542E-02)
 number of electron      12.0000000 magnetization 
 augmentation part       12.0000000 magnetization 

 Free energy of the ion-electron system (eV)
  ---------------------------------------------------
  alpha Z        PSCENC =        -0.81519346
  Ewald energy   TEWEN  =      -294.17558039
  -Hartree energ DENC   =        -0.40388529
  -exchange      EXHF   =         0.00000000
  -V(xc)+E(xc)   XCENC  =      -104.95069909
  PAW double counting   =       264.80062850     -136.98248303
  entropy T*S    EENTRO =        -0.05726911
  eigenvalues    EBANDS =        43.35734854
  atomic energy  EATOM  =       214.15382826
  Solvation  Ediel_sol  =         0.00000000
  ---------------------------------------------------
  free energy    TOTEN  =       -15.07330508 eV

  energy without entropy =      -15.01603596  energy(sigma->0) =      -15.04467052


--------------------------------------------------------------------------------------------------------




--------------------------------------- Iteration      1(   4)  ---------------------------------------


     EDDAV:  cpu time    4.2404: real time    4.6209
       DOS:  cpu time    0.0035: real time    0.0037
    --------------------------------------------
      LOOP:  cpu time    4.2439: real time    4.6246

 eigenvalue-minimisations  :  2560
 total energy-change (2. order) :-0.9930647E-06  (-0.9930618E-06)
 number of electron      12.0000000 magnetization 
 augmentation part       12.0000000 magnetization 

 Free energy of the ion-electron system (eV)
  ---------------------------------------------------
  alpha Z        PSCENC =        -0.81519346
  Ewald energy   TEWEN  =      -294.17558039
  -Hartree energ DENC   =        -0.40388529
  -exchange      EXHF   =         0.00000000
  -V(xc)+E(xc)   XCENC  =      -104.95069909
  PAW double counting   =       264.80062850     -136.98248303
  entropy T*S    EENTRO =        -0.05726910
  eigenvalues    EBANDS =        43.35734753
  atomic energy  EATOM  =       214.15382826
  Solvation  Ediel_sol  =         0.00000000
  ---------------------------------------------------
  free energy    TOTEN  =       -15.07330607 eV

  energy without entropy =      -15.01603697  energy(sigma->0) =      -15.04467152


--------------------------------------------------------------------------------------------------------




--------------------------------------- Iteration      1(   5)  ---------------------------------------


     EDDAV:  cpu time    1.4608: real time    1.6668
       DOS:  cpu time    0.0032: real time    0.0034
    CHARGE:  cpu time    0.0108: real time    0.0129
    MIXING:  cpu time    0.0035: real time    0.0036
    --------------------------------------------
      LOOP:  cpu time    1.4783: real time    1.6867

 eigenvalue-minimisations  :  1280
 total energy-change (2. order) : 0.4291678E-10  ( 0.2977619E-13)
 number of electron      11.9999999 magnetization 
 augmentation part       -0.1478111 magnetization 

 Broyden mixing:
  rms(total) = 0.26156E+00    rms(broyden)= 0.26156E+00
  rms(prec ) = 0.47183E+00
  weight for this iteration     100.00

 Free energy of the ion-electron system (eV)
  ---------------------------------------------------
  alpha Z        PSCENC =        -0.81519346
  Ewald energy   TEWEN  =      -294.17558039
  -Hartree energ DENC   =        -0.40388529
  -exchange      EXHF   =         0.00000000
  -V(xc)+E(xc)   XCENC  =      -104.95069909
  PAW double counting   =       264.80062850     -136.98248303
  entropy T*S    EENTRO =        -0.05726910
  eigenvalues    EBANDS =        43.35734753
  atomic energy  EATOM  =       214.15382826
  Solvation  Ediel_sol  =         0.00000000
  ---------------------------------------------------
  free energy    TOTEN  =       -15.07330607 eV

  energy without entropy =      -15.01603697  energy(sigma->0) =      -15.04467152


--------------------------------------------------------------------------------------------------------




--------------------------------------- Iteration      1(   6)  ---------------------------------------


    POTLOK:  cpu time    0.0784: real time    0.0942
    SETDIJ:  cpu time    0.0017: real time    0.0018
     EDDAV:  cpu time    2.9544: real time    3.2628
       DOS:  cpu time    0.0033: real time    0.0035
    CHARGE:  cpu time    0.0105: real time    0.0125
    MIXING:  cpu time    0.0033: real time    0.0035
    --------------------------------------------
      LOOP:  cpu time    3.0517: real time    3.3783

 eigenvalue-minimisations  :  2112
 total energy-change (2. order) : 0.5196290E-01  (-0.6590256E-03)
 number of electron      11.9999999 magnetization 
 augmentation part       -0.1499144 magnetization 

 Broyden mixing:
  rms(total) = 0.15223E+00    rms(broyden)= 0.15223E+00
  rms(prec ) = 0.28912E+00
  weight for this iteration     100.00

 eigenvalues of (default mixing * dielectric matrix)
  average eigenvalue GAMMA=   2.3381
  2.3381

 Free energy of the ion-electron system (eV)
  ---------------------------------------------------
  alpha Z        PSCENC =        -0.81519346
  Ewald energy   TEWEN  =      -294.17558039
  -Hartree energ DENC   =        -0.34075124
  -exchange      EXHF   =         0.00000000
  -V(xc)+E(xc)   XCENC  =      -104.80884546
  PAW double counting   =       379.81024926     -252.00474079
  entropy T*S    EENTRO =        -0.05701609
  eigenvalues    EBANDS =        43.21670675
  atomic energy  EATOM  =       214.15382826
  Solvation  Ediel_sol  =         0.00000000
  ---------------------------------------------------
  free energy    TOTEN  =       -15.02134317 eV

  energy without entropy =      -14.96432708  energy(sigma->0) =      -14.99283512


--------------------------------------------------------------------------------------------------------




--------------------------------------- Iteration      1(   7)  ---------------------------------------


    POTLOK:  cpu time    0.2902: real time    0.3076
    SETDIJ:  cpu time    0.0020: real time    0.0020
     EDDAV:  cpu time    2.7820: real time    3.0833
       DOS:  cpu time    0.0034: real time    0.0036
    CHARGE:  cpu time    0.0102: real time    0.0124
    MIXING:  cpu time    0.0031: real time    0.0033
    --------------------------------------------
      LOOP:  cpu time    3.0908: real time    3.4122

 eigenvalue-minimisations  :  2048
 total energy-change (2. order) : 0.3793499E-01  (-0.1883762E-02)
 number of electron      11.9999999 magnetization 
 augmentation part       -0.1539295 magnetization 

 Broyden mixing:
  rms(total) = 0.27012E-01    rms(broyden)= 0.27011E-01
  rms(prec ) = 0.29291E-01
  weight for this iteration     100.00

 eigenvalues of (default mixing * dielectric matrix)
  average eigenvalue GAMMA=   2.8627
  2.8627  2.8627

 Free energy of the ion-electron system (eV)
  ---------------------------------------------------
  alpha Z        PSCENC =        -0.81519346
  Ewald energy   TEWEN  =      -294.17558039
  -Hartree energ DENC   =        -0.40759455
  -exchange      EXHF   =         0.00000000
  -V(xc)+E(xc)   XCENC  =      -104.53155923
  PAW double counting   =       608.82817897     -481.04932116
  entropy T*S    EENTRO =        -0.05673623
  eigenvalues    EBANDS =        43.07056963
  atomic energy  EATOM  =       214.15382826
  Solvation  Ediel_sol  =         0.00000000
  ---------------------------------------------------
  free energy    TOTEN  =       -14.98340818 eV

  energy without entropy =      -14.92667195  energy(sigma->0) =      -14.95504006


--------------------------------------------------------------------------------------------------------




--------------------------------------- Iteration      1(   8)  ---------------------------------------


    POTLOK:  cpu time    0.0806: real time    0.0950
    SETDIJ:  cpu time    0.0019: real time    0.0020
     EDDAV:  cpu time    2.1261: real time    2.3702
       DOS:  cpu time    0.0036: real time    0.0038
    CHARGE:  cpu time    0.0106: real time    0.0126
    MIXING:  cpu time    0.0030: real time    0.0031
    --------------------------------------------
      LOOP:  cpu time    2.2258: real time    2.4867

 eigenvalue-minimisations  :  1600
 total energy-change (2. order) : 0.1141143E-03  (-0.3602090E-05)
 number of electron      11.9999999 magnetization 
 augmentation part       -0.1542003 magnetization 

 Broyden mixing:
  rms(total) = 0.41832E-02    rms(broyden)= 0.41832E-02
  rms(prec ) = 0.53511E-02
  weight for this iteration     100.00

 eigenvalues of (default mixing * dielectric matrix)
  average eigenvalue GAMMA=   2.1083
  1.0626  2.5315  2.7307

 Free energy of the ion-electron system (eV)
  ---------------------------------------------------
  alpha Z        PSCENC =        -0.81519346
  Ewald energy   TEWEN  =      -294.17558039
  -Hartree energ DENC   =        -0.42228453
  -exchange      EXHF   =         0.00000000
  -V(xc)+E(xc)   XCENC  =      -104.51288649
  PAW double counting   =       556.19663232     -428.42942205
  entropy T*S    EENTRO =        -0.05675029
  eigenvalues    EBANDS =        43.07836257
  atomic energy  EATOM  =       214.15382826
  Solvation  Ediel_sol  =         0.00000000
  ---------------------------------------------------
  free energy    TOTEN  =       -14.98329406 eV

  energy without entropy =      -14.92654377  energy(sigma->0) =      -14.95491892


--------------------------------------------------------------------------------------------------------




--------------------------------------- Iteration      1(   9)  ---------------------------------------


    POTLOK:  cpu time    0.0805: real time    0.0951
    SETDIJ:  cpu time    0.0018: real time    0.0018
     EDDAV:  cpu time    3.5985: real time    3.9313
       DOS:  cpu time    0.0034: real time    0.0036
    --------------------------------------------
      LOOP:  cpu time    3.6842: real time    4.0318

 eigenvalue-minimisations  :  2304
 total energy-change (2. order) : 0.9329804E-05  (-0.4266259E-06)
 number of electron      11.9999999 magnetization 
 augmentation part       -0.1542003 magnetization 

 Free energy of the ion-electron system (eV)
  ---------------------------------------------------
  alpha Z        PSCENC =        -0.81519346
  Ewald energy   TEWEN  =      -294.17558039
  -Hartree energ DENC   =        -0.42409534
  -exchange      EXHF   =         0.00000000
  -V(xc)+E(xc)   XCENC  =      -104.50920393
  PAW double counting   =       563.49682770     -435.72906075
  entropy T*S    EENTRO =        -0.05674587
  eigenvalues    EBANDS =        43.07593904
  atomic energy  EATOM  =       214.15382826
  Solvation  Ediel_sol  =         0.00000000
  ---------------------------------------------------
  free energy    TOTEN  =       -14.98328473 eV

  energy without entropy =      -14.92653887  energy(sigma->0) =      -14.95491180


--------------------------------------------------------------------------------------------------------




 average (electrostatic) potential at core
  the test charge radii are     1.0406
  (the norm of the test charge is              1.0000)
       1 -72.6140       2 -72.6140       3 -72.6140       4 -72.6140
 
 
 
 E-fermi :   7.9276     XC(G=0): -10.2006     alpha+bet :-14.8935


 k-point     1 :       0.0833    0.0833    0.0833
  band No.  band energies     occupation 
      1      -2.9412      2.00000
      2       4.3359      2.00000
      3       4.3359      2.00000
      4       4.3359      2.00000
      5       7.5063      1.97085
      6       7.5063      1.97085
      7       7.5063      1.97085
      8      11.3014      0.00000
      9      11.3014      0.00000
     10      11.3014      0.00000
     11      13.7734      0.00000
     12      13.7734      0.00000
     13      13.7734      0.00000
     14      14.8902      0.00000
     15      14.8902      0.00000
     16      14.8902      0.00000
     17      18.0226      0.00000
     18      18.2693      0.00000
     19      18.2693      0.00000
     20      18.2693      0.00000
     21      20.0705      0.00000
     22      20.0705      0.00000
     23      22.7980      0.00000
     24      22.9949      0.00000
     25      22.9949      0.00000
     26      26.3120      0.00000
     27      26.4684      0.00000
     28      26.4684      0.00000
     29      29.6599      0.00000
     30      32.3319      0.00000
     31      32.3319      0.00000
     32      32.3319      0.00000
     33      33.6090      0.00000
     34      34.0235      0.00000
     35      34.0235      0.00000
     36      34.0689      0.00000
     37      34.0689      0.00000
     38      34.0689      0.00000
     39      34.2809      0.00000
     40      34.2809      0.00000
     41      34.2809      0.00000
     42      39.7741      0.00000
     43      39.7741      0.00000
     44      39.7741      0.00000
     45      41.2483      0.00000
     46      41.2483      0.00000
     47      41.2483      0.00000
     48      41.8004      0.00000
     49      41.8004      0.00000
     50      41.8004      0.00000
     51      42.0402      0.00000
     52      42.6067      0.00000
     53      42.6067      0.00000
     54      42.6067      0.00000
     55      44.0256      0.00000
     56      44.0256      0.00000
     57      44.0256      0.00000
     58      45.4108      0.00000
     59      45.4108      0.00000
     60      45.4108      0.00000
     61      47.0717      0.00000
     62      47.0717      0.00000
     63      47.0717      0.00000
     64      48.2774      0.00000

 k-point     2 :       0.2500    0.0833    0.0833
  band No.  band energies     occupation 
      1      -2.4387      2.00000
      2       1.9978      2.00000
      3       4.8085      2.00000
      4       4.8085      2.00000
      5       7.9559      0.85970
      6       7.9559      0.85970
      7       9.0798      0.00002
      8       9.0798      0.00002
      9      10.7014      0.00000
     10      11.7780      0.00000
     11      12.2200      0.00000
     12      12.2200      0.00000
     13      14.2013      0.00000
     14      15.3650      0.00000
     15      15.8643      0.00000
     16      17.6328      0.00000
     17      17.6328      0.00000
     18      18.0440      0.00000
     19      18.7059      0.00000
     20      19.3215      0.00000
     21      20.9868      0.00000
     22      20.9868      0.00000
     23      21.9273      0.00000
     24      22.8287      0.00000
     25      24.5948      0.00000
     26      25.5925      0.00000
     27      27.1146      0.00000
     28      29.1110      0.00000
     29      29.3764      0.00000
     30      29.3764      0.00000
     31      30.0477      0.00000
     32      30.5518      0.00000
     33      31.5315      0.00000
     34      31.5315      0.00000
     35      32.6895      0.00000
     36      33.9898      0.00000
     37      34.1476      0.00000
     38      34.1476      0.00000
     39      34.5714      0.00000
     40      34.7809      0.00000
     41      36.9464      0.00000
     42      37.5595      0.00000
     43      38.3701      0.00000
     44      38.3701      0.00000
     45      40.8593      0.00000
     46      41.0123      0.00000
     47      41.5514      0.00000
     48      41.5514      0.00000
     49      42.0216      0.00000
     50      42.0216      0.00000
     51      42.1660      0.00000
     52      42.2910      0.00000
     53      43.0730      0.00000
     54      43.0730      0.00000
     55      44.0162      0.00000
     56      44.1192      0.00000
     57      44.6722      0.00000
     58      44.6722      0.00000
     59      45.0552      0.00000
     60      45.5228      0.00000
     61      45.5228      0.00000
     62      46.7286      0.00000
     63      48.3445      0.00000
     64      48.3445      0.00000

 k-point     3 :       0.4167    0.0833    0.0833
  band No.  band energies     occupation 
      1      -1.4392      2.00000
      2       0.0464      2.00000
      3       5.7461      2.00000
      4       5.7461      2.00000
      5       7.1625      1.99905
      6       7.1625      1.99905
      7       8.9189      0.00010
      8       8.9189      0.00010
      9      10.4810      0.00000
     10      10.4810      0.00000
     11      12.6721      0.00000
     12      14.0553      0.00000
     13      14.4098      0.00000
     14      15.0580      0.00000
     15      16.3074      0.00000
     16      16.3425      0.00000
     17      17.6436      0.00000
     18      18.4749      0.00000
     19      19.5477      0.00000
     20      20.7211      0.00000
     21      21.2327      0.00000
     22      21.2327      0.00000
     23      24.1039      0.00000
     24      24.1039      0.00000
     25      25.4134      0.00000
     26      25.4134      0.00000
     27      27.4271      0.00000
     28      27.7037      0.00000
     29      28.1942      0.00000
     30      28.1942      0.00000
     31      28.8587      0.00000
     32      29.2623      0.00000
     33      30.6018      0.00000
     34      31.3112      0.00000
     35      32.0278      0.00000
     36      32.8505      0.00000
     37      33.6194      0.00000
     38      34.2868      0.00000
     39      34.2868      0.00000
     40      35.7722      0.00000
     41      36.7938      0.00000
     42      36.8307      0.00000
     43      37.8938      0.00000
     44      37.9615      0.00000
     45      37.9615      0.00000
     46      39.5558      0.00000
     47      40.2165      0.00000
     48      41.2776      0.00000
     49      41.2776      0.00000
     50      41.9865      0.00000
     51      41.9865      0.00000
     52      42.2491      0.00000
     53      43.1967      0.00000
     54      43.1967      0.00000
     55      44.1079      0.00000
     56      44.1079      0.00000
     57      44.9055      0.00000
     58      45.9202      0.00000
     59      45.9202      0.00000
     60      46.9397      0.00000
     61      48.0933      0.00000
     62      48.0933      0.00000
     63      48.5019      0.00000
     64      48.6025      0.00000

 k-point     4 :       0.2500    0.2500    0.0833
  band No.  band energies     occupation 
      1      -1.9381      2.00000
      2       2.4826      2.00000
      3       2.4826      2.00000
      4       5.2754      2.00000
      5       6.7694      1.99998
      6       8.5138      0.00567
      7       9.4914      0.00000
      8       9.4914      0.00000
      9      11.1796      0.00000
     10      11.1796      0.00000
     11      12.7000      0.00000
     12      12.7000      0.00000
     13      13.6592      0.00000
     14      14.6364      0.00000
     15      16.2834      0.00000
     16      16.5849      0.00000
     17      18.0844      0.00000
     18      18.0844      0.00000
     19      20.9729      0.00000
     20      21.3922      0.00000
     21      21.3922      0.00000
     22      22.2946      0.00000
     23      23.5281      0.00000
     24      23.7593      0.00000
     25      24.0836      0.00000
     26      24.0993      0.00000
     27      26.0838      0.00000
     28      27.3415      0.00000
     29      27.3415      0.00000
     30      28.8262      0.00000
     31      29.7209      0.00000
     32      30.9465      0.00000
     33      31.2429      0.00000
     34      31.5253      0.00000
     35      32.0270      0.00000
     36      32.0270      0.00000
     37      33.4993      0.00000
     38      33.4993      0.00000
     39      35.1634      0.00000
     40      35.1634      0.00000
     41      35.6357      0.00000
     42      35.7316      0.00000
     43      37.9172      0.00000
     44      39.4567      0.00000
     45      39.6007      0.00000
     46      39.6007      0.00000
     47      39.7412      0.00000
     48      40.6082      0.00000
     49      40.6082      0.00000
     50      42.7291      0.00000
     51      42.7291      0.00000
     52      43.3714      0.00000
     53      43.5500      0.00000
     54      44.8538      0.00000
     55      44.8538      0.00000
     56      45.4250      0.00000
     57      45.4250      0.00000
     58      45.4530      0.00000
     59      46.8104      0.00000
     60      47.1975      0.00000
     61      47.2506      0.00000
     62      47.2506      0.00000
     63      48.4602      0.00000
     64      49.0151      0.00000

 k-point     5 :       0.4167    0.2500    0.0833
  band No.  band energies     occupation 
      1      -0.9420      2.00000
      2       0.5384      2.00000
      3       3.4470      2.00000
      4       4.8743      2.00000
      5       6.2417      2.00000
      6       7.6413      1.89202
      7       9.4407      0.00000
      8      10.4343      0.00000
      9      10.7944      0.00000
     10      11.8263      0.00000
     11      12.2191      0.00000
     12      13.5120      0.00000
     13      13.5126      0.00000
     14      14.8742      0.00000
     15      14.9197      0.00000
     16      18.8530      0.00000
     17      18.9694      0.00000
     18      19.2312      0.00000
     19      20.2062      0.00000
     20      21.6418      0.00000
     21      22.1652      0.00000
     22      23.0936      0.00000
     23      23.1781      0.00000
     24      24.4309      0.00000
     25      24.8123      0.00000
     26      25.4863      0.00000
     27      25.6471      0.00000
     28      26.0890      0.00000
     29      26.9136      0.00000
     30      28.3262      0.00000
     31      28.6251      0.00000
     32      29.5238      0.00000
     33      30.2684      0.00000
     34      30.7663      0.00000
     35      31.2890      0.00000
     36      31.7412      0.00000
     37      32.1524      0.00000
     38      32.4152      0.00000
     39      34.3347      0.00000
     40      34.5240      0.00000
     41      34.6612      0.00000
     42      36.8060      0.00000
     43      37.5358      0.00000
     44      38.2798      0.00000
     45      38.3851      0.00000
     46      40.3785      0.00000
     47      40.5249      0.00000
     48      40.7688      0.00000
     49      41.8768      0.00000
     50      41.9895      0.00000
     51      42.4360      0.00000
     52      43.3802      0.00000
     53      43.3804      0.00000
     54      43.8332      0.00000
     55      43.9752      0.00000
     56      45.0813      0.00000
     57      46.5206      0.00000
     58      47.0043      0.00000
     59      47.0715      0.00000
     60      48.0304      0.00000
     61      48.5412      0.00000
     62      49.0620      0.00000
     63      49.5781      0.00000
     64      49.6327      0.00000

 k-point     6 :       0.4167    0.4167    0.0833
  band No.  band energies     occupation 
      1       0.0471      2.00000
      2       1.5173      2.00000
      3       1.5173      2.00000
      4       2.9718      2.00000
      5       7.1757      1.99892
      6       8.5794      0.00295
      7       8.5794      0.00295
      8       9.9788      0.00000
      9      10.3851      0.00000
     10      11.7668      0.00000
     11      11.7668      0.00000
     12      13.1371      0.00000
     13      15.7599      0.00000
     14      15.7599      0.00000
     15      16.3661      0.00000
     16      18.2414      0.00000
     17      18.9536      0.00000
     18      20.9521      0.00000
     19      21.4387      0.00000
     20      21.4387      0.00000
     21      22.4862      0.00000
     22      22.4862      0.00000
     23      22.8259      0.00000
     24      25.2377      0.00000
     25      25.3498      0.00000
     26      25.3498      0.00000
     27      25.4753      0.00000
     28      25.5961      0.00000
     29      27.6320      0.00000
     30      28.0498      0.00000
     31      28.2282      0.00000
     32      28.2282      0.00000
     33      28.4235      0.00000
     34      29.4185      0.00000
     35      30.7119      0.00000
     36      30.7119      0.00000
     37      31.5386      0.00000
     38      32.4147      0.00000
     39      32.4147      0.00000
     40      32.5596      0.00000
     41      35.8190      0.00000
     42      36.5699      0.00000
     43      36.6863      0.00000
     44      36.6863      0.00000
     45      39.6534      0.00000
     46      39.6534      0.00000
     47      40.1472      0.00000
     48      40.3003      0.00000
     49      41.6593      0.00000
     50      43.1351      0.00000
     51      43.8183      0.00000
     52      43.8183      0.00000
     53      45.8095      0.00000
     54      45.8095      0.00000
     55      45.8703      0.00000
     56      46.2377      0.00000
     57      46.3560      0.00000
     58      46.3761      0.00000
     59      46.3761      0.00000
     60      48.7084      0.00000
     61      49.2820      0.00000
     62      49.2820      0.00000
     63      49.4813      0.00000
     64      50.4965      0.00000

 k-point     7 :       0.2500    0.2500    0.2500
  band No.  band energies     occupation 
      1      -1.4392      2.00000
      2       2.9656      2.00000
      3       2.9656      2.00000
      4       2.9656      2.00000
      5       7.2563      1.99758
      6       7.2563      1.99758
      7       7.2563      1.99758
      8      11.4540      0.00000
      9      11.6726      0.00000
     10      11.6726      0.00000
     11      11.6726      0.00000
     12      15.0661      0.00000
     13      15.0661      0.00000
     14      15.0661      0.00000
     15      16.7517      0.00000
     16      16.7517      0.00000
     17      16.7517      0.00000
     18      18.9286      0.00000
     19      18.9286      0.00000
     20      22.3785      0.00000
     21      22.7809      0.00000
     22      22.7809      0.00000
     23      24.1290      0.00000
     24      24.1290      0.00000
     25      24.1290      0.00000
     26      26.7147      0.00000
     27      26.7147      0.00000
     28      26.7147      0.00000
     29      26.7874      0.00000
     30      26.9095      0.00000
     31      26.9095      0.00000
     32      29.6152      0.00000
     33      29.6152      0.00000
     34      29.6152      0.00000
     35      32.5799      0.00000
     36      32.5799      0.00000
     37      32.5799      0.00000
     38      32.6579      0.00000
     39      33.3506      0.00000
     40      33.3506      0.00000
     41      33.3506      0.00000
     42      39.6159      0.00000
     43      39.9517      0.00000
     44      39.9517      0.00000
     45      39.9517      0.00000
     46      40.1309      0.00000
     47      40.1309      0.00000
     48      40.7766      0.00000
     49      40.7766      0.00000
     50      40.7766      0.00000
     51      42.9847      0.00000
     52      42.9847      0.00000
     53      42.9847      0.00000
     54      45.4714      0.00000
     55      45.4714      0.00000
     56      45.4714      0.00000
     57      46.5042      0.00000
     58      46.8258      0.00000
     59      46.8258      0.00000
     60      46.8258      0.00000
     61      48.5923      0.00000
     62      48.5923      0.00000
     63      48.7567      0.00000
     64      48.7567      0.00000

 k-point     8 :       0.4167    0.2500    0.2500
  band No.  band energies     occupation 
      1      -0.4466      2.00000
      2       1.0287      2.00000
      3       3.9219      2.00000
      4       3.9219      2.00000
      5       5.3802      2.00000
      6       5.3802      2.00000
      7       8.2008      0.12223
      8       9.6061      0.00000
      9      12.5661      0.00000
     10      12.5661      0.00000
     11      13.9819      0.00000
     12      13.9819      0.00000
     13      15.3075      0.00000
     14      15.9264      0.00000
     15      17.2172      0.00000
     16      17.6515      0.00000
     17      18.7806      0.00000
     18      19.2471      0.00000
     19      19.6503      0.00000
     20      19.6503      0.00000
     21      23.4638      0.00000
     22      23.4638      0.00000
     23      23.6655      0.00000
     24      24.2276      0.00000
     25      24.7943      0.00000
     26      24.9805      0.00000
     27      25.8911      0.00000
     28      27.1991      0.00000
     29      27.1991      0.00000
     30      27.3192      0.00000
     31      27.8036      0.00000
     32      28.7916      0.00000
     33      29.1313      0.00000
     34      29.1313      0.00000
     35      30.1165      0.00000
     36      30.9798      0.00000
     37      30.9798      0.00000
     38      31.6690      0.00000
     39      31.6690      0.00000
     40      33.0099      0.00000
     41      35.3679      0.00000
     42      38.8483      0.00000
     43      39.1404      0.00000
     44      39.1404      0.00000
     45      40.2081      0.00000
     46      40.2559      0.00000
     47      40.2559      0.00000
     48      40.6949      0.00000
     49      42.4563      0.00000
     50      42.5989      0.00000
     51      43.1136      0.00000
     52      43.8715      0.00000
     53      43.9408      0.00000
     54      43.9408      0.00000
     55      44.9215      0.00000
     56      45.5447      0.00000
     57      46.7507      0.00000
     58      46.8453      0.00000
     59      46.8453      0.00000
     60      46.9590      0.00000
     61      48.2439      0.00000
     62      48.2439      0.00000
     63      49.3723      0.00000
     64      50.0445      0.00000

 k-point     9 :       0.4167    0.4167    0.2500
  band No.  band energies     occupation 
      1       0.5392      2.00000
      2       2.0043      2.00000
      3       2.0043      2.00000
      4       3.4497      2.00000
      5       4.9041      2.00000
      6       6.3249      2.00000
      7       6.3249      2.00000
      8       7.7417      1.73042
      9      13.5033      0.00000
     10      14.8108      0.00000
     11      14.8108      0.00000
     12      16.1261      0.00000
     13      16.2025      0.00000
     14      16.2025      0.00000
     15      16.7985      0.00000
     16      18.6528      0.00000
     17      19.3879      0.00000
     18      20.3985      0.00000
     19      20.3985      0.00000
     20      20.7033      0.00000
     21      21.1246      0.00000
     22      21.8012      0.00000
     23      21.8012      0.00000
     24      23.3159      0.00000
     25      23.5837      0.00000
     26      26.0281      0.00000
     27      26.1776      0.00000
     28      26.1776      0.00000
     29      26.6751      0.00000
     30      27.7524      0.00000
     31      27.7524      0.00000
     32      28.4906      0.00000
     33      28.6942      0.00000
     34      28.6942      0.00000
     35      29.0056      0.00000
     36      30.3960      0.00000
     37      30.7365      0.00000
     38      30.8170      0.00000
     39      32.4054      0.00000
     40      32.4054      0.00000
     41      37.2032      0.00000
     42      37.3721      0.00000
     43      38.0671      0.00000
     44      38.0671      0.00000
     45      40.2918      0.00000
     46      40.4400      0.00000
     47      40.4400      0.00000
     48      41.9145      0.00000
     49      42.4101      0.00000
     50      42.4581      0.00000
     51      42.4581      0.00000
     52      43.9251      0.00000
     53      44.4451      0.00000
     54      45.2709      0.00000
     55      45.6566      0.00000
     56      45.6566      0.00000
     57      46.5805      0.00000
     58      47.8890      0.00000
     59      47.8890      0.00000
     60      48.2414      0.00000
     61      49.1749      0.00000
     62      49.3041      0.00000
     63      49.7491      0.00000
     64      49.7491      0.00000

 k-point    10 :       0.4167    0.4167    0.4167
  band No.  band energies     occupation 
      1       1.5183      2.00000
      2       2.9700      2.00000
      3       2.9700      2.00000
      4       2.9700      2.00000
      5       4.4321      2.00000
      6       4.4321      2.00000
      7       4.4321      2.00000
      8       5.8593      2.00000
      9      17.0195      0.00000
     10      17.0195      0.00000
     11      17.0195      0.00000
     12      17.6645      0.00000
     13      17.6645      0.00000
     14      17.6645      0.00000
     15      18.9643      0.00000
     16      18.9643      0.00000
     17      19.3185      0.00000
     18      19.3185      0.00000
     19      19.3185      0.00000
     20      20.2657      0.00000
     21      20.2657      0.00000
     22      21.5732      0.00000
     23      21.5732      0.00000
     24      21.5732      0.00000
     25      22.6243      0.00000
     26      24.1519      0.00000
     27      24.5540      0.00000
     28      24.5540      0.00000
     29      24.5540      0.00000
     30      25.0148      0.00000
     31      25.0148      0.00000
     32      25.0148      0.00000
     33      31.1634      0.00000
     34      31.1634      0.00000
     35      31.1634      0.00000
     36      31.5002      0.00000
     37      31.5002      0.00000
     38      32.8792      0.00000
     39      32.8792      0.00000
     40      32.8792      0.00000
     41      38.2770      0.00000
     42      39.1112      0.00000
     43      39.1112      0.00000
     44      39.1112      0.00000
     45      39.1591      0.00000
     46      39.1591      0.00000
     47      39.1591      0.00000
     48      40.4043      0.00000
     49      40.4043      0.00000
     50      40.4043      0.00000
     51      40.4405      0.00000
     52      40.4405      0.00000
     53      46.6016      0.00000
     54      46.6672      0.00000
     55      46.6672      0.00000
     56      46.6672      0.00000
     57      48.5386      0.00000
     58      48.8555      0.00000
     59      48.8555      0.00000
     60      50.0607      0.00000
     61      50.0607      0.00000
     62      50.0607      0.00000
     63      50.2045      0.00000
     64      50.2045      0.00000


--------------------------------------------------------------------------------------------------------

[...]
  --------------------------------------------------------------------------------
  x    -0.00000     0.00000    -0.00000    -0.00000    -0.00000    -0.00000
  y    -0.00000    -0.00000     0.00000    -0.00000    -0.00000     0.00000
  z    -0.00000    -0.00000    -0.00000     0.00000     0.00000     0.00000

 INTERNAL STRAIN TENSOR FOR ION    4 for displacements in x,y,z  (eV/Angst):
          X           Y           Z          XY          YZ          ZX
  --------------------------------------------------------------------------------
  x     0.00000    -0.00000     0.00000     0.00000     0.00000    -0.00000
  y     0.00000     0.00000    -0.00000     0.00000     0.00000     0.00000
  z     0.00000    -0.00000     0.00000     0.00000    -0.00000    -0.00000
 
 INTERNAL STRAIN TENSORS FROM DISPLACED ATOMS
 ============================================

 INTERNAL STRAIN TENSOR FOR ION    1 for displacements in x,y,z  (eV/Angst):
          X           Y           Z          XY          YZ          ZX
  --------------------------------------------------------------------------------
  x     0.00000    -0.00000    -0.00000     0.00000    -0.00000    -0.00000
  y    -0.00000     0.00000    -0.00000    -0.00000     0.00000    -0.00000
  z    -0.00000    -0.00000     0.00000    -0.00000    -0.00000     0.00000

 INTERNAL STRAIN TENSOR FOR ION    2 for displacements in x,y,z  (eV/Angst):
          X           Y           Z          XY          YZ          ZX
  --------------------------------------------------------------------------------
  x     0.00000    -0.00000    -0.00000     0.00000    -0.00000    -0.00000
  y    -0.00000     0.00000    -0.00000    -0.00000     0.00000    -0.00000
  z    -0.00000    -0.00000     0.00000    -0.00000    -0.00000     0.00000

 INTERNAL STRAIN TENSOR FOR ION    3 for displacements in x,y,z  (eV/Angst):
          X           Y           Z          XY          YZ          ZX
  --------------------------------------------------------------------------------
  x     0.00000    -0.00000    -0.00000     0.00000    -0.00000    -0.00000
  y    -0.00000     0.00000    -0.00000    -0.00000     0.00000    -0.00000
  z    -0.00000    -0.00000     0.00000    -0.00000    -0.00000     0.00000

 INTERNAL STRAIN TENSOR FOR ION    4 for displacements in x,y,z  (eV/Angst):
          X           Y           Z          XY          YZ          ZX
  --------------------------------------------------------------------------------
  x     0.00000    -0.00000    -0.00000     0.00000    -0.00000    -0.00000
  y    -0.00000     0.00000    -0.00000    -0.00000     0.00000    -0.00000
  z    -0.00000    -0.00000     0.00000    -0.00000    -0.00000     0.00000


--------------------------------------------------------------------------------------------------------


 
 Eigenvectors and eigenvalues of the dynamical matrix
 ----------------------------------------------------
 
 
   1 f  =   10.086680 THz    63.376479 2PiTHz  336.455416 cm-1    41.715170 meV
             X         Y         Z           dx          dy          dz
      0.000000  0.000000  0.000000    -0.086188   -0.492516   -0.000000  
      0.000000  2.019846  2.019846    -0.086188    0.492516   -0.000000  
      2.019846  0.000000  2.019846     0.086188   -0.492516    0.000000  
      2.019846  2.019846  0.000000     0.086188    0.492516   -0.000000  
 
   2 f  =   10.086680 THz    63.376479 2PiTHz  336.455416 cm-1    41.715170 meV
             X         Y         Z           dx          dy          dz
      0.000000  0.000000  0.000000    -0.492516    0.086188    0.000000  
      0.000000  2.019846  2.019846    -0.492516   -0.086188    0.000000  
      2.019846  0.000000  2.019846     0.492516    0.086188   -0.000000  
      2.019846  2.019846  0.000000     0.492516   -0.086188   -0.000000  
 
   3 f  =   10.086680 THz    63.376479 2PiTHz  336.455416 cm-1    41.715170 meV
             X         Y         Z           dx          dy          dz
      0.000000  0.000000  0.000000     0.000000    0.000000   -0.500000  
      0.000000  2.019846  2.019846     0.000000   -0.000000    0.500000  
      2.019846  0.000000  2.019846    -0.000000    0.000000    0.500000  
      2.019846  2.019846  0.000000    -0.000000   -0.000000   -0.500000  
 
   4 f  =    5.808706 THz    36.497175 2PiTHz  193.757566 cm-1    24.022885 meV
             X         Y         Z           dx          dy          dz
      0.000000  0.000000  0.000000     0.432947    0.327630   -0.007277  
      0.000000  2.019846  2.019846    -0.432947    0.323606    0.040423  
      2.019846  0.000000  2.019846    -0.314338   -0.327630   -0.040423  
      2.019846  2.019846  0.000000     0.314338   -0.323606    0.007277  
 
   5 f  =    5.808706 THz    36.497175 2PiTHz  193.757566 cm-1    24.022885 meV
             X         Y         Z           dx          dy          dz
      0.000000  0.000000  0.000000     0.119495   -0.048320    0.077536  
      0.000000  2.019846  2.019846    -0.119495   -0.452592   -0.338899  
      2.019846  0.000000  2.019846    -0.397092    0.048320    0.338899  
      2.019846  2.019846  0.000000     0.397092    0.452592   -0.077536  
 
   6 f  =    5.808706 THz    36.497175 2PiTHz  193.757566 cm-1    24.022885 meV
             X         Y         Z           dx          dy          dz
      0.000000  0.000000  0.000000    -0.239710    0.607204    0.045518  
      0.000000  2.019846  2.019846     0.239710   -0.243824    0.091759  
      2.019846  0.000000  2.019846     0.062455   -0.607204   -0.091759  
      2.019846  2.019846  0.000000    -0.062455    0.243824   -0.045518  
 
   7 f  =    5.808706 THz    36.497175 2PiTHz  193.757566 cm-1    24.022885 meV
             X         Y         Z           dx          dy          dz
      0.000000  0.000000  0.000000     0.284288    0.130022   -0.116290  
      0.000000  2.019846  2.019846    -0.284288   -0.026147   -0.433819  
      2.019846  0.000000  2.019846     0.447066   -0.130022    0.433819  
      2.019846  2.019846  0.000000    -0.447066    0.026147    0.116290  
 
   8 f  =    5.808706 THz    36.497175 2PiTHz  193.757566 cm-1    24.022885 meV
             X         Y         Z           dx          dy          dz
      0.000000  0.000000  0.000000    -0.399856    0.068681   -0.112760  
      0.000000  2.019846  2.019846     0.399856    0.339457   -0.418034  
      2.019846  0.000000  2.019846    -0.180832   -0.068681    0.418034  
      2.019846  2.019846  0.000000     0.180832   -0.339457    0.112760  
 
   9 f  =    5.808706 THz    36.497175 2PiTHz  193.757566 cm-1    24.022885 meV
             X         Y         Z           dx          dy          dz
      0.000000  0.000000  0.000000     0.010598   -0.001989   -0.682367  
      0.000000  2.019846  2.019846    -0.010598   -0.122781    0.110193  
      2.019846  0.000000  2.019846    -0.083910    0.001989   -0.110193  
      2.019846  2.019846  0.000000     0.083910    0.122781    0.682367  
 
  10 f  =    0.000000 THz     0.000003 2PiTHz    0.000014 cm-1     0.000002 meV
             X         Y         Z           dx          dy          dz
      0.000000  0.000000  0.000000    -0.053178    0.055743    0.494029  
      0.000000  2.019846  2.019846    -0.053178    0.055743    0.494029  
      2.019846  0.000000  2.019846    -0.053178    0.055743    0.494029  
      2.019846  2.019846  0.000000    -0.053178    0.055743    0.494029  
 
  11 f  =    0.000000 THz     0.000003 2PiTHz    0.000014 cm-1     0.000002 meV
             X         Y         Z           dx          dy          dz
      0.000000  0.000000  0.000000     0.403628    0.294925    0.010170  
      0.000000  2.019846  2.019846     0.403628    0.294925    0.010170  
      2.019846  0.000000  2.019846     0.403628    0.294925    0.010170  
      2.019846  2.019846  0.000000     0.403628    0.294925    0.010170  
 
  12 f  =    0.000000 THz     0.000002 2PiTHz    0.000013 cm-1     0.000002 meV
             X         Y         Z           dx          dy          dz
      0.000000  0.000000  0.000000    -0.290269    0.399890   -0.076366  
      0.000000  2.019846  2.019846    -0.290269    0.399890   -0.076366  
      2.019846  0.000000  2.019846    -0.290269    0.399890   -0.076366  
      2.019846  2.019846  0.000000    -0.290269    0.399890   -0.076366  
 


--------------------------------------------------------------------------------------------------------



 ELASTIC MODULI CONTR FROM IONIC RELAXATION (kBar)
 Direction    XX          YY          ZZ          XY          YZ          ZX
 --------------------------------------------------------------------------------
 XX          -0.0000      0.0000      0.0000     -0.0000      0.0000     -0.0000
 YY           0.0000     -0.0000      0.0000      0.0000     -0.0000     -0.0000
 ZZ           0.0000      0.0000     -0.0000     -0.0000      0.0000     -0.0000
 XY          -0.0000      0.0000      0.0000     -0.0000      0.0000     -0.0000
 YZ           0.0000     -0.0000     -0.0000      0.0000     -0.0000     -0.0000
 ZX           0.0000     -0.0000     -0.0000     -0.0000      0.0000     -0.0000
 --------------------------------------------------------------------------------


 TOTAL ELASTIC MODULI (kBar)
 Direction    XX          YY          ZZ          XY          YZ          ZX
 --------------------------------------------------------------------------------
 XX         969.7070    685.3121    685.3121     -0.0000      0.0000     -0.0000
 YY         685.3121    969.7070    685.3121      0.0000      0.0000     -0.0000
 ZZ         685.3121    685.3121    969.7070     -0.0000     -0.0000     -0.0000
 XY          -0.0000      0.0000      0.0000    453.2428      0.0000     -0.0000
 YZ           0.0000      0.0000     -0.0000      0.0000    453.2428     -0.0000
 ZX          -0.0000     -0.0000     -0.0000     -0.0000      0.0000    453.2428
 --------------------------------------------------------------------------------



--------------------------------------------------------------------------------------------------------


  LATTYP: Found a simple cubic cell.
 ALAT       =     4.0396918604
  
  Lattice vectors:
  
 A1 = (   4.0396918604,   0.0000000000,   0.0000000000)
 A2 = (   0.0000000000,   4.0396918604,   0.0000000000)
 A3 = (   0.0000000000,   0.0000000000,   4.0396918604)


Analysis of symmetry for initial positions (statically):
=====================================================================
 Subroutine PRICEL returns following result:
 
  LATTYP: Found a face centered cubic cell.
 ALAT       =     4.0396918604
  
  Lattice vectors:
  
 A1 = (   2.0198459302,   2.0198459302,   0.0000000000)
 A2 = (   2.0198459302,   0.0000000000,  -2.0198459302)
 A3 = (   0.0000000000,   2.0198459302,  -2.0198459302)
 
   4 primitive cells build up your supercell.
 

 Routine SETGRP: Setting up the symmetry group for a 
 simple cubic supercell.


 Subroutine GETGRP returns: Found 48 space group operations
 (whereof 48 operations were pure point group operations)
 out of a pool of 48 trial point group operations.


The static configuration has the point symmetry O_h .


Analysis of symmetry for dynamics (positions and initial velocities):
=====================================================================
 Subroutine PRICEL returns following result:
 
  LATTYP: Found a face centered cubic cell.
 ALAT       =     4.0396918604
  
  Lattice vectors:
  
 A1 = (   2.0198459302,   2.0198459302,   0.0000000000)
 A2 = (   2.0198459302,   0.0000000000,  -2.0198459302)
 A3 = (   0.0000000000,   2.0198459302,  -2.0198459302)
 
   4 primitive cells build up your supercell.
 

 Routine SETGRP: Setting up the symmetry group for a 
 simple cubic supercell.


 Subroutine GETGRP returns: Found 48 space group operations
 (whereof 48 operations were pure point group operations)
 out of a pool of 48 trial point group operations.


The dynamic configuration has the point symmetry O_h .


 Subroutine INISYM returns: Found 48 space group operations
 (whereof 48 operations are pure point group operations),
 and found     4 'primitive' translations

 
 KPOINTS: pymatgen with grid density = 882 / numbe

Automatic generation of k-mesh.
Space group operators:
 irot       det(A)        alpha          n_x          n_y          n_z        tau_x        tau_y        tau_z
    1     1.000000     0.000000     1.000000     0.000000     0.000000     0.000000     0.000000     0.000000
    2    -1.000000     0.000000     1.000000     0.000000     0.000000     0.000000     0.000000     0.000000
    3     1.000000   120.000000    -0.577350    -0.577350    -0.577350     0.000000     0.000000     0.000000
    4    -1.000000   120.000000    -0.577350    -0.577350    -0.577350     0.000000     0.000000     0.000000
    5     1.000000   120.000000     0.577350     0.577350     0.577350     0.000000     0.000000     0.000000
    6    -1.000000   120.000000     0.577350     0.577350     0.577350     0.000000     0.000000     0.000000
    7     1.000000    90.000000     0.000000     0.000000    -1.000000     0.000000     0.000000     0.000000
    8    -1.000000    90.000000     0.000000     0.000000    -1.000000     0.000000     0.000000     0.000000
    9     1.000000   180.000000     0.000000     0.707107     0.707107     0.000000     0.000000     0.000000
   10    -1.000000   180.000000     0.000000     0.707107     0.707107     0.000000     0.000000     0.000000
   11     1.000000    90.000000     0.000000     1.000000     0.000000     0.000000     0.000000     0.000000
   12    -1.000000    90.000000     0.000000     1.000000     0.000000     0.000000     0.000000     0.000000
   13     1.000000   180.000000     0.000000     0.000000     1.000000     0.000000     0.000000     0.000000
   14    -1.000000   180.000000     0.000000     0.000000     1.000000     0.000000     0.000000     0.000000
   15     1.000000   120.000000    -0.577350     0.577350     0.577350     0.000000     0.000000     0.000000
   16    -1.000000   120.000000    -0.577350     0.577350     0.577350     0.000000     0.000000     0.000000
   17     1.000000   120.000000    -0.577350     0.577350    -0.577350     0.000000     0.000000     0.000000
   18    -1.000000   120.000000    -0.577350     0.577350    -0.577350     0.000000     0.000000     0.000000
   19     1.000000    90.000000     0.000000     0.000000     1.000000     0.000000     0.000000     0.000000
   20    -1.000000    90.000000     0.000000     0.000000     1.000000     0.000000     0.000000     0.000000
   21     1.000000    90.000000    -1.000000     0.000000     0.000000     0.000000     0.000000     0.000000
   22    -1.000000    90.000000    -1.000000     0.000000     0.000000     0.000000     0.000000     0.000000
   23     1.000000   180.000000     0.707107     0.000000     0.707107     0.000000     0.000000     0.000000
   24    -1.000000   180.000000     0.707107     0.000000     0.707107     0.000000     0.000000     0.000000
   25     1.000000   120.000000     0.577350    -0.577350     0.577350     0.000000     0.000000     0.000000
   26    -1.000000   120.000000     0.577350    -0.577350     0.577350     0.000000     0.000000     0.000000
   27     1.000000   120.000000    -0.577350    -0.577350     0.577350     0.000000     0.000000     0.000000
   28    -1.000000   120.000000    -0.577350    -0.577350     0.577350     0.000000     0.000000     0.000000
   29     1.000000   180.000000     1.000000     0.000000     0.000000     0.000000     0.000000     0.000000
   30    -1.000000   180.000000     1.000000     0.000000     0.000000     0.000000     0.000000     0.000000
   31     1.000000    90.000000     0.000000    -1.000000     0.000000     0.000000     0.000000     0.000000
   32    -1.000000    90.000000     0.000000    -1.000000     0.000000     0.000000     0.000000     0.000000
   33     1.000000   180.000000     0.707107     0.707107     0.000000     0.000000     0.000000     0.000000
   34    -1.000000   180.000000     0.707107     0.707107     0.000000     0.000000     0.000000     0.000000
   35     1.000000    90.000000     1.000000     0.000000     0.000000     0.000000     0.000000     0.000000
   36    -1.000000    90.000000     1.000000     0.000000     0.000000     0.000000     0.000000     0.000000
   37     1.000000   120.000000     0.577350    -0.577350    -0.577350     0.000000     0.000000     0.000000
   38    -1.000000   120.000000     0.577350    -0.577350    -0.577350     0.000000     0.000000     0.000000
   39     1.000000   180.000000     0.000000     1.000000     0.000000     0.000000     0.000000     0.000000
   40    -1.000000   180.000000     0.000000     1.000000     0.000000     0.000000     0.000000     0.000000
   41     1.000000   120.000000     0.577350     0.577350    -0.577350     0.000000     0.000000     0.000000
   42    -1.000000   120.000000     0.577350     0.577350    -0.577350     0.000000     0.000000     0.000000
   43     1.000000   180.000000     0.000000    -0.707107     0.707107     0.000000     0.000000     0.000000
   44    -1.000000   180.000000     0.000000    -0.707107     0.707107     0.000000     0.000000     0.000000
   45     1.000000   180.000000     0.707107    -0.707107     0.000000     0.000000     0.000000     0.000000
   46    -1.000000   180.000000     0.707107    -0.707107     0.000000     0.000000     0.000000     0.000000
   47     1.000000   180.000000     0.707107     0.000000    -0.707107     0.000000     0.000000     0.000000
   48    -1.000000   180.000000     0.707107     0.000000    -0.707107     0.000000     0.000000     0.000000
 
 Subroutine IBZKPT returns following result:
 ===========================================
 
 Found     10 irreducible k-points:
 
 Following reciprocal coordinates:
            Coordinates               Weight
  0.083333  0.083333  0.083333      8.000000
  0.250000  0.083333  0.083333     24.000000
  0.416667  0.083333  0.083333     24.000000
  0.250000  0.250000  0.083333     24.000000
  0.416667  0.250000  0.083333     48.000000
  0.416667  0.416667  0.083333     24.000000
  0.250000  0.250000  0.250000      8.000000
  0.416667  0.250000  0.250000     24.000000
  0.416667  0.416667  0.250000     24.000000
  0.416667  0.416667  0.416667      8.000000
 
 Following cartesian coordinates:
            Coordinates               Weight
  0.020629  0.020629  0.020629      8.000000
  0.061886  0.020629  0.020629     24.000000
  0.103143  0.020629  0.020629     24.000000
  0.061886  0.061886  0.020629     24.000000
  0.103143  0.061886  0.020629     48.000000
  0.103143  0.103143  0.020629     24.000000
  0.061886  0.061886  0.061886      8.000000
  0.103143  0.061886  0.061886     24.000000
  0.103143  0.103143  0.061886     24.000000
  0.103143  0.103143  0.103143      8.000000
 
 writing wavefunctions
     LOOP+:  cpu time   24.2949: real time   27.1880
    4ORBIT:  cpu time    0.0000: real time    0.0000

 total amount of memory used by VASP MPI-rank0    32453. kBytes
=======================================================================

   base      :      30000. kBytes
   nonl-proj :       1306. kBytes
   fftplans  :        153. kBytes
   grid      :        675. kBytes
   one-center:         12. kBytes
   wavefun   :        307. kBytes
 
  
  
 General timing and accounting informations for this job:
 ========================================================
  
                  Total CPU time used (sec):      728.297
                            User time (sec):      437.851
                          System time (sec):      290.447
                         Elapsed time (sec):      808.698
  
                   Maximum memory used (kb):      446084.
                   Average memory used (kb):           0.
  
                          Minor page faults:       248971
                          Major page faults:          123
                 Voluntary context switches:         2150
