 vasp.6.4.1 05Apr23 (build Jul 24 2024 14:19:02) complex                         
 executed on             LinuxGNU date 2024.10.23  12:37:37
 running    1 mpi-ranks, with   24 threads/rank, on    1 nodes
 distrk:  each k-point on    1 cores,    1 groups
 distr:  one band on NCORE=   1 cores,    1 groups


--------------------------------------------------------------------------------------------------------


 INCAR:
   ISTART = 0
   ALGO = Fast
   EDIFF = 0.0001
   ENCUT = 520
   IBRION = -1
   ISIF = 2
   ISMEAR = -5
   ISPIN = 2
   LASPH = True
   LMAXMIX = 6
   LORBIT = 11
   LREAL = Auto
   LWAVE = False
   MAGMOM = 2*0.6
   NELM = 100
   NSW = 0
   PREC = Accurate
   SIGMA = 0.05

 POTCAR:    PAW_PBE Nb_pv 08Apr2002               
 POTCAR:    PAW_PBE Nb_pv 08Apr2002               
   SHA256 =  bac2b60850b34f8515cf56f9feae68b678e347865051052a0e1f5d2c6a691c0a Nb_pv/POTCAR          
   COPYR  = (c) Copyright 08Apr2002 Georg Kresse                                                    
   COPYR  = This file is part of the software VASP. Any use, copying, and all other rights are regul
   COPYR  = If you do not have a valid VASP license, you may not use, copy or distribute this file. 
   VRHFIN =Nb: 4p5s4d                                                                               
   LEXCH  = PE                                                                                      
   EATOM  =  1043.3917 eV,   76.6871 Ry                                                             
                                                                                                    
   TITEL  = PAW_PBE Nb_pv 08Apr2002                                                                 
   LULTRA =        F    use ultrasoft PP ?                                                          
   IUNSCR =        1    unscreen: 0-lin 1-nonlin 2-no                                               
   RPACOR =    2.200    partial core radius                                                         
   POMASS =   92.000; ZVAL   =   11.000    mass and valenz                                          
   RCORE  =    2.750    outmost cutoff radius                                                       
   RWIGS  =    2.840; RWIGS  =    1.503    wigner-seitz radius (au A)                               
   ENMAX  =  208.608; ENMIN  =  156.456 eV                                                          
   RCLOC  =    2.201    cutoff for local pot                                                        
   LCOR   =        T    correct aug charges                                                         
   LPAW   =        T    paw PP                                                                      
   EAUG   =  355.067                                                                                
   DEXC   =    0.000                                                                                
   RMAX   =    2.804    core radius for proj-oper                                                   
   RAUG   =    1.300    factor for augmentation sphere                                              
   RDEP   =    2.776    radius for radial grids                                                     
   RDEPT  =    2.198    core radius for aug-charge                                                  
                                                                                                    
   Atomic configuration                                                                             
   11 entries                                                                                       
     n  l   j            E        occ.                                                              
     1  0  0.50    -18805.2456   2.0000                                                             
     2  0  0.50     -2630.2869   2.0000                                                             
     2  1  1.50     -2348.4045   6.0000                                                             
     3  0  0.50      -438.8756   2.0000                                                             
     3  1  1.50      -346.7587   6.0000                                                             
     3  2  2.50      -196.2559  10.0000                                                             
     4  0  0.50       -58.3859   2.0000                                                             
     4  1  1.50       -34.5141   6.0000                                                             
     4  2  2.50        -3.0408   4.0000                                                             
     5  0  0.50        -3.9816   1.0000                                                             
     4  3  2.50        -1.3606   0.0000                                                             
   Description                                                                                      
     l       E           TYP  RCUT    TYP  RCUT                                                     
     1    -34.5140617     23  2.600                                                                 
     1     -1.3605826     23  2.600                                                                 
     2     -3.0407924     23  2.600                                                                 
     2     -1.4463597     23  2.600                                                                 
     0     -3.9816219     23  2.750                                                                 
     0     20.4087390     23  2.750                                                                 
  local pseudopotential read in
  partial core-charges read in
  partial kinetic energy density read in
  atomic valenz-charges read in
  non local Contribution for L=           1  read in
    real space projection operators read in
  non local Contribution for L=           1  read in
    real space projection operators read in
  non local Contribution for L=           2  read in
    real space projection operators read in
  non local Contribution for L=           2  read in
    real space projection operators read in
  non local Contribution for L=           0  read in
    real space projection operators read in
  non local Contribution for L=           0  read in
    real space projection operators read in
    PAW grid and wavefunctions read in

   number of l-projection  operators is LMAX  =           6
   number of lm-projection operators is LMMAX =          18

 -----------------------------------------------------------------------------
|                                                                             |
|               ----> ADVICE to this user running VASP <----                  |
|                                                                             |
|     You have a (more or less) 'small supercell' and for smaller cells       |
|     it is recommended to use the reciprocal-space projection scheme!        |
|     The real-space optimization is not efficient for small cells and it     |
|     is also less accurate ...                                               |
|     Therefore, set LREAL=.FALSE. in the INCAR file.                         |
|                                                                             |
 -----------------------------------------------------------------------------

 Optimization of the real space projectors (new method)

 maximal supplied QI-value         = 13.61
 optimisation between [QCUT,QGAM] = [ 11.57, 23.27] = [ 37.45,151.59] Ry 
 Optimized for a Real-space Cutoff    1.63 Angstroem

   l    n(q)    QCUT    max X(q) W(low)/X(q) W(high)/X(q)  e(spline) 
   1     11    11.565     4.545    0.12E-04    0.18E-04    0.64E-07
   1     11    11.565     6.014    0.42E-04    0.48E-04    0.13E-06
   2     10    11.565   266.542    0.24E-03    0.87E-04    0.13E-05
   2     10    11.565   232.726    0.24E-03    0.87E-04    0.13E-05
   0     11    11.565    38.050    0.76E-04    0.32E-05    0.94E-06
   0     11    11.565    16.565    0.58E-04    0.25E-05    0.73E-06
  PAW_PBE Nb_pv 08Apr2002               :
 energy of atom  1       EATOM=-1043.3917
 kinetic energy error for atom=    0.0011 (will be added to EATOM!!)


 POSCAR: Generated POSCAR
  positions in direct lattice
  velocities in cartesian coordinates
 exchange correlation table for  LEXCH =        8
   RHO(1)=    0.500       N(1)  =     2000
   RHO(2)=  100.500       N(2)  =     4000



--------------------------------------------------------------------------------------------------------


 ion  position               nearest neighbor table
   1  0.000  0.000  0.000-   2 2.90   2 2.90   2 2.90   2 2.90   2 2.90   2 2.90   2 2.90   2 2.90

   2  0.500  0.500  0.500-   1 2.90   1 2.90   1 2.90   1 2.90   1 2.90   1 2.90   1 2.90   1 2.90


  LATTYP: Found a simple tetragonal cell.
 ALAT       =     3.3217793369
 C/A-ratio  =     1.0200000000
  
  Lattice vectors:
  
 A1 = (   0.0000000000,   3.3217793369,   0.0000000000)
 A2 = (   0.0000000000,   0.0000000000,   3.3217793369)
 A3 = (   3.3882149236,   0.0000000000,   0.0000000000)


Analysis of symmetry for initial positions (statically):
=====================================================================
 Subroutine PRICEL returns following result:
 
  LATTYP: Found a body centered tetragonal cell.
 ALAT       =     3.3217793369
 C/A-ratio  =     1.0200000000
  
  Lattice vectors:
  
 A1 = (  -1.6941074618,   1.6608896685,   1.6608896685)
 A2 = (  -1.6941074618,  -1.6608896685,  -1.6608896685)
 A3 = (   1.6941074618,  -1.6608896685,   1.6608896685)
 
   2 primitive cells build up your supercell.
 

 Routine SETGRP: Setting up the symmetry group for a 
 simple tetragonal supercell.


 Subroutine GETGRP returns: Found 16 space group operations
 (whereof 16 operations were pure point group operations)
 out of a pool of 16 trial point group operations.


The static configuration has the point symmetry D_4h.


Analysis of symmetry for dynamics (positions and initial velocities):
=====================================================================
 Subroutine PRICEL returns following result:
 
  LATTYP: Found a body centered tetragonal cell.
 ALAT       =     3.3217793369
 C/A-ratio  =     1.0200000000
  
  Lattice vectors:
  
 A1 = (  -1.6941074618,   1.6608896685,   1.6608896685)
 A2 = (  -1.6941074618,  -1.6608896685,  -1.6608896685)
 A3 = (   1.6941074618,  -1.6608896685,   1.6608896685)
 
   2 primitive cells build up your supercell.
 

 Routine SETGRP: Setting up the symmetry group for a 
 simple tetragonal supercell.


 Subroutine GETGRP returns: Found 16 space group operations
 (whereof 16 operations were pure point group operations)
 out of a pool of 16 trial point group operations.


The dynamic configuration has the point symmetry D_4h.


Analysis of structural, dynamic, and magnetic symmetry:
=====================================================================
 Subroutine PRICEL returns following result:
 
  LATTYP: Found a body centered tetragonal cell.
 ALAT       =     3.3217793369
 C/A-ratio  =     1.0200000000
  
  Lattice vectors:
  
 A1 = (  -1.6941074618,   1.6608896685,   1.6608896685)
 A2 = (  -1.6941074618,  -1.6608896685,  -1.6608896685)
 A3 = (   1.6941074618,  -1.6608896685,   1.6608896685)
 
   2 primitive cells build up your supercell.
 

 Routine SETGRP: Setting up the symmetry group for a 
 simple tetragonal supercell.


 Subroutine GETGRP returns: Found 16 space group operations
 (whereof 16 operations were pure point group operations)
 out of a pool of 16 trial point group operations.


The overall configuration has the point symmetry D_4h.


 Subroutine INISYM returns: Found 16 space group operations
 (whereof 16 operations are pure point group operations),
 and found     2 'primitive' translations


----------------------------------------------------------------------------------------

                                     Primitive cell                                     

  volume of cell :      18.6932

  direct lattice vectors                    reciprocal lattice vectors
    -1.694107462  1.660889668  1.660889668    -0.295140663  0.000000000  0.301043477
    -1.694107462 -1.660889668 -1.660889668    -0.295140663 -0.301043477  0.000000000
     1.694107462 -1.660889668  1.660889668    -0.000000000 -0.301043477  0.301043477

  length of vectors
     2.896050599  2.896050599  2.896050599     0.421586511  0.421586511  0.425739767

  position of ions in fractional coordinates (direct lattice)
     0.000000000  0.000000000  0.000000000

  ion indices of the primitive-cell ions
   primitive index   ion index
                 1           1

----------------------------------------------------------------------------------------



 KPOINTS: pymatgen with grid density = 869 / numbe

Automatic generation of k-mesh.
 Grid dimensions read from file:
 generate k-points for:    7    7    7

 Generating k-lattice:

  Cartesian coordinates                     Fractional coordinates (reciprocal lattice)
     0.042162952 -0.000000000  0.000000000     0.142857143 -0.000000000  0.000000000
     0.000000000  0.043006211  0.000000000     0.000000000  0.142857143  0.000000000
    -0.000000000 -0.000000000  0.043006211    -0.000000000 -0.000000000  0.142857143

  Length of vectors
     0.042162952  0.043006211  0.043006211

  Shift w.r.t. Gamma in fractional coordinates (k-lattice)
     0.000000000  0.000000000  0.000000000

 TETIRR: Found    500 inequivalent tetrahedra from     2058
 
 Subroutine IBZKPT returns following result:
 ===========================================
 
 Found     40 irreducible k-points:
 
 Following reciprocal coordinates:
            Coordinates               Weight
  0.000000  0.000000  0.000000      1.000000
  0.142857  0.000000  0.000000      2.000000
  0.285714  0.000000  0.000000      2.000000
  0.428571  0.000000  0.000000      2.000000
  0.000000  0.142857  0.000000      4.000000
  0.142857  0.142857  0.000000      8.000000
  0.285714  0.142857  0.000000      8.000000
  0.428571  0.142857  0.000000      8.000000
  0.000000  0.285714  0.000000      4.000000
  0.142857  0.285714  0.000000      8.000000
  0.285714  0.285714  0.000000      8.000000
  0.428571  0.285714  0.000000      8.000000
  0.000000  0.428571  0.000000      4.000000
  0.142857  0.428571  0.000000      8.000000
  0.285714  0.428571  0.000000      8.000000
  0.428571  0.428571  0.000000      8.000000
  0.000000  0.142857  0.142857      4.000000
  0.142857  0.142857  0.142857      8.000000
  0.285714  0.142857  0.142857      8.000000
  0.428571  0.142857  0.142857      8.000000
  0.000000  0.285714  0.142857      8.000000
  0.142857  0.285714  0.142857     16.000000
  0.285714  0.285714  0.142857     16.000000
  0.428571  0.285714  0.142857     16.000000
  0.000000  0.428571  0.142857      8.000000
  0.142857  0.428571  0.142857     16.000000
  0.285714  0.428571  0.142857     16.000000
  0.428571  0.428571  0.142857     16.000000
  0.000000  0.285714  0.285714      4.000000
  0.142857  0.285714  0.285714      8.000000
  0.285714  0.285714  0.285714      8.000000
  0.428571  0.285714  0.285714      8.000000
  0.000000  0.428571  0.285714      8.000000
  0.142857  0.428571  0.285714     16.000000
  0.285714  0.428571  0.285714     16.000000
  0.428571  0.428571  0.285714     16.000000
  0.000000  0.428571  0.428571      4.000000
  0.142857  0.428571  0.428571      8.000000
  0.285714  0.428571  0.428571      8.000000
  0.428571  0.428571  0.428571      8.000000
 
 Following cartesian coordinates:
            Coordinates               Weight
  0.000000  0.000000  0.000000      1.000000
  0.042163  0.000000  0.000000      2.000000
  0.084326  0.000000  0.000000      2.000000
  0.126489  0.000000  0.000000      2.000000
  0.000000  0.043006  0.000000      4.000000
  0.042163  0.043006  0.000000      8.000000
  0.084326  0.043006  0.000000      8.000000
  0.126489  0.043006  0.000000      8.000000
  0.000000  0.086012  0.000000      4.000000
  0.042163  0.086012  0.000000      8.000000
  0.084326  0.086012  0.000000      8.000000
  0.126489  0.086012  0.000000      8.000000
  0.000000  0.129019  0.000000      4.000000
  0.042163  0.129019  0.000000      8.000000
  0.084326  0.129019  0.000000      8.000000
  0.126489  0.129019  0.000000      8.000000
  0.000000  0.043006  0.043006      4.000000
  0.042163  0.043006  0.043006      8.000000
  0.084326  0.043006  0.043006      8.000000
  0.126489  0.043006  0.043006      8.000000
  0.000000  0.086012  0.043006      8.000000
  0.042163  0.086012  0.043006     16.000000
  0.084326  0.086012  0.043006     16.000000
  0.126489  0.086012  0.043006     16.000000
  0.000000  0.129019  0.043006      8.000000
  0.042163  0.129019  0.043006     16.000000
  0.084326  0.129019  0.043006     16.000000
  0.126489  0.129019  0.043006     16.000000
  0.000000  0.086012  0.086012      4.000000
  0.042163  0.086012  0.086012      8.000000
  0.084326  0.086012  0.086012      8.000000
  0.126489  0.086012  0.086012      8.000000
  0.000000  0.129019  0.086012      8.000000
  0.042163  0.129019  0.086012     16.000000
  0.084326  0.129019  0.086012     16.000000
  0.126489  0.129019  0.086012     16.000000
  0.000000  0.129019  0.129019      4.000000
  0.042163  0.129019  0.129019      8.000000
  0.084326  0.129019  0.129019      8.000000
  0.126489  0.129019  0.129019      8.000000
 


--------------------------------------------------------------------------------------------------------




 Dimension of arrays:
   k-points           NKPTS =     40   k-points in BZ     NKDIM =     40   number of bands    NBANDS=     16
   number of dos      NEDOS =    301   number of ions     NIONS =      2
   non local maximal  LDIM  =      6   non local SUM 2l+1 LMDIM =     18
   total plane-waves  NPLWV =  21952
   max r-space proj   IRMAX =  10647   max aug-charges    IRDMAX=  36346
   dimension x,y,z NGX =    28 NGY =   28 NGZ =   28
   dimension x,y,z NGXF=    56 NGYF=   56 NGZF=   56
   support grid    NGXF=    56 NGYF=   56 NGZF=   56
   ions per type =               2
   NGX,Y,Z   is equivalent  to a cutoff of  13.74, 14.01, 14.01 a.u.
   NGXF,Y,Z  is equivalent  to a cutoff of  27.48, 28.03, 28.03 a.u.

 SYSTEM =  unknown system                          
 POSCAR =  Generated POSCAR                        

 Startparameter for this run:
   NWRITE =      2    write-flag & timer
   PREC   = accura    normal or accurate (medium, high low for compatibility)
   ISTART =      0    job   : 0-new  1-cont  2-samecut
   ICHARG =      2    charge: 1-file 2-atom 10-const
   ISPIN  =      2    spin polarized calculation?
   LNONCOLLINEAR =      F non collinear calculations
   LSORBIT =      F    spin-orbit coupling
   INIWAV =      1    electr: 0-lowe 1-rand  2-diag
   LASPH  =      T    aspherical Exc in radial PAW
 Electronic Relaxation 1
   ENCUT  =  520.0 eV  38.22 Ry    6.18 a.u.   6.30  6.18  6.18*2*pi/ulx,y,z
   ENINI  =  520.0     initial cutoff
   ENAUG  =  355.1 eV  augmentation charge cutoff
   NELM   =    100;   NELMIN=  2; NELMDL= -5     # of ELM steps 
   EDIFF  = 0.1E-03   stopping-criterion for ELM
   LREAL  =      T    real-space projection
   NLSPLINE    = F    spline interpolate recip. space projectors
   LCOMPAT=      F    compatible to vasp.4.4
   GGA_COMPAT  = T    GGA compatible to vasp.4.4-vasp.4.6
   LMAXPAW     = -100 max onsite density
   LMAXMIX     =    6 max onsite mixed and CHGCAR
   VOSKOWN=      0    Vosko Wilk Nusair interpolation
   ROPT   =   -0.00025
 Ionic relaxation
   EDIFFG = 0.1E-02   stopping-criterion for IOM
   NSW    =      0    number of steps for IOM
   NBLOCK =      1;   KBLOCK =      1    inner block; outer block 
   IBRION =     -1    ionic relax: 0-MD 1-quasi-New 2-CG
   NFREE  =      0    steps in history (QN), initial steepest desc. (CG)
   ISIF   =      2    stress and relaxation
   IWAVPR =     10    prediction:  0-non 1-charg 2-wave 3-comb
   ISYM   =      2    0-nonsym 1-usesym 2-fastsym
   LCORR  =      T    Harris-Foulkes like correction to forces

   POTIM  = 0.5000    time-step for ionic-motion
   TEIN   =    0.0    initial temperature
   TEBEG  =    0.0;   TEEND  =   0.0 temperature during run
   SMASS  =  -3.00    Nose mass-parameter (am)
   estimated Nose-frequenzy (Omega)   =  0.10E-29 period in steps = 0.13E+47 mass=  -0.262E-27a.u.
   SCALEE = 1.0000    scale energy and forces
   NPACO  =    256;   APACO  = 10.0  distance and # of slots for P.C.
   PSTRESS=    0.0 pullay stress

  Mass of Ions in am
   POMASS =  92.00
  Ionic Valenz
   ZVAL   =  11.00
  Atomic Wigner-Seitz radii
   RWIGS  =  -1.00
  virtual crystal weights 
   VCA    =   1.00
   NELECT =      22.0000    total number of electrons
   NUPDOWN=      -1.0000    fix difference up-down

 DOS related values:
   EMIN   =  10.00;   EMAX   =-10.00  energy-range for DOS
   EFERMI =   0.00;   METHOD = LEGACY      
   ISMEAR =    -5;   SIGMA  =   0.05  broadening in eV -4-tet -1-fermi 0-gaus

 Electronic relaxation 2 (details)
   IALGO  =     68    algorithm
   LDIAG  =      T    sub-space diagonalisation (order eigenvalues)
   LSUBROT=      F    optimize rotation matrix (better conditioning)
   TURBO    =      0    0=normal 1=particle mesh
   IRESTART =      0    0=no restart 2=restart with 2 vectors
   NREBOOT  =      0    no. of reboots
   NMIN     =      0    reboot dimension
   EREF     =   0.00    reference energy to select bands
   IMIX   =      4    mixing-type and parameters
     AMIX     =   0.40;   BMIX     =  1.00
     AMIX_MAG =   1.60;   BMIX_MAG =  1.00
     AMIN     =   0.10
     WC   =   100.;   INIMIX=   1;  MIXPRE=   1;  MAXMIX= -45

 Intra band minimization:
   WEIMIN = 0.0000     energy-eigenvalue tresh-hold
   EBREAK =  0.16E-05  absolut break condition
   DEPER  =   0.30     relativ break condition  

   TIME   =   0.40     timestep for ELM

  volume/ion in A,a.u.               =      18.69       126.15
  Fermi-wavevector in a.u.,A,eV,Ry     =   1.371866  2.592450 25.606370  1.882015
  Thomas-Fermi vector in A             =   2.497524

 Write flags
   LWAVE        =      F    write WAVECAR
   LDOWNSAMPLE  =      F    k-point downsampling of WAVECAR
   LCHARG       =      T    write CHGCAR
   LVTOT        =      F    write LOCPOT, total local potential
   LVHAR        =      F    write LOCPOT, Hartree potential only
   LELF         =      F    write electronic localiz. function (ELF)
   LORBIT       =     11    0 simple, 1 ext, 2 COOP (PROOUT), +10 PAW based schemes


 Dipole corrections
   LMONO  =      F    monopole corrections only (constant potential shift)
   LDIPOL =      F    correct potential (dipole corrections)
   IDIPOL =      0    1-x, 2-y, 3-z, 4-all directions 
   EPSILON=  1.0000000 bulk dielectric constant

 Exchange correlation treatment:
   GGA     =    --    GGA type
   LEXCH   =     8    internal setting for exchange type
   LIBXC   =     F    Libxc                    
   VOSKOWN =     0    Vosko Wilk Nusair interpolation
   LHFCALC =     F    Hartree Fock is set to
   LHFONE  =     F    Hartree Fock one center treatment
   AEXX    =    0.0000 exact exchange contribution

 Linear response parameters
   LEPSILON=     F    determine dielectric tensor
   LRPA    =     F    only Hartree local field effects (RPA)
   LNABLA  =     F    use nabla operator in PAW spheres
   LVEL    =     F    velocity operator in full k-point grid
   CSHIFT  =0.1000    complex shift for real part using Kramers Kronig
   OMEGAMAX=  -1.0    maximum frequency
   DEG_THRESHOLD= 0.2000000E-02 threshold for treating states as degnerate
   RTIME   =   -0.100 relaxation time in fs
  (WPLASMAI=    0.000 imaginary part of plasma frequency in eV, 0.658/RTIME)
   DFIELD  = 0.0000000 0.0000000 0.0000000 field for delta impulse in time

  Optional k-point grid parameters
   LKPOINTS_OPT  =     F    use optional k-point grid
   KPOINTS_OPT_MODE=     1    mode for optional k-point grid

 Orbital magnetization related:
   ORBITALMAG=     F  switch on orbital magnetization
   LCHIMAG   =     F  perturbation theory with respect to B field
   DQ        =  0.001000  dq finite difference perturbation B field
   LLRAUG    =     F  two centre corrections for induced B field
   LBONE     =     F  B-component reconstruction in AE one-centre
   LVGVCALC  =     T  calculate vGv susceptibility
   LVGVAPPL  =     F  apply vGv susceptibility instead of pGv for G=0

 Random number generation:
   RANDOM_GENERATOR = DEFAULT
   PCG_SEED         = not used


--------------------------------------------------------------------------------------------------------


 Static calculation
 charge density and potential will be updated during run
 spin polarized calculation
 RMM-DIIS sequential band-by-band and
  variant of blocked Davidson during initial phase
 perform sub-space diagonalisation
    before iterative eigenvector-optimisation
 modified Broyden-mixing scheme, WC =      100.0
 initial mixing is a Kerker type mixing with AMIX =  0.4000 and BMIX =      1.0000
 Hartree-type preconditioning will be used
 using additional bands            5
 real space projection scheme for non local part
 use partial core corrections
 calculate Harris-corrections to forces   (improved forces if not selfconsistent)
 use gradient corrections 
 use of overlap-Matrix (Vanderbilt PP)
 Fermi weights with tetrahedron method with Bloechl corrections


--------------------------------------------------------------------------------------------------------


  energy-cutoff  :      520.00
  volume of cell :       37.39
      direct lattice vectors                 reciprocal lattice vectors
     3.388214924  0.000000000  0.000000000     0.295140663 -0.000000000  0.000000000
     0.000000000  3.321779337  0.000000000     0.000000000  0.301043477  0.000000000
     0.000000000  0.000000000  3.321779337    -0.000000000 -0.000000000  0.301043477

  length of vectors
     3.388214924  3.321779337  3.321779337     0.295140663  0.301043477  0.301043477



 k-points in units of 2pi/SCALE and weight: pymatgen with grid density = 869 / numbe
   0.00000000  0.00000000  0.00000000       0.003
   0.04216295  0.00000000  0.00000000       0.006
   0.08432590  0.00000000  0.00000000       0.006
   0.12648886  0.00000000  0.00000000       0.006
   0.00000000  0.04300621  0.00000000       0.012
   0.04216295  0.04300621  0.00000000       0.023
   0.08432590  0.04300621  0.00000000       0.023
   0.12648886  0.04300621  0.00000000       0.023
   0.00000000  0.08601242  0.00000000       0.012
   0.04216295  0.08601242  0.00000000       0.023
   0.08432590  0.08601242  0.00000000       0.023
   0.12648886  0.08601242  0.00000000       0.023
   0.00000000  0.12901863  0.00000000       0.012
   0.04216295  0.12901863  0.00000000       0.023
   0.08432590  0.12901863  0.00000000       0.023
   0.12648886  0.12901863  0.00000000       0.023
   0.00000000  0.04300621  0.04300621       0.012
   0.04216295  0.04300621  0.04300621       0.023
   0.08432590  0.04300621  0.04300621       0.023
   0.12648886  0.04300621  0.04300621       0.023
   0.00000000  0.08601242  0.04300621       0.023
   0.04216295  0.08601242  0.04300621       0.047
   0.08432590  0.08601242  0.04300621       0.047
   0.12648886  0.08601242  0.04300621       0.047
   0.00000000  0.12901863  0.04300621       0.023
   0.04216295  0.12901863  0.04300621       0.047
   0.08432590  0.12901863  0.04300621       0.047
   0.12648886  0.12901863  0.04300621       0.047
   0.00000000  0.08601242  0.08601242       0.012
   0.04216295  0.08601242  0.08601242       0.023
   0.08432590  0.08601242  0.08601242       0.023
   0.12648886  0.08601242  0.08601242       0.023
   0.00000000  0.12901863  0.08601242       0.023
   0.04216295  0.12901863  0.08601242       0.047
   0.08432590  0.12901863  0.08601242       0.047
   0.12648886  0.12901863  0.08601242       0.047
   0.00000000  0.12901863  0.12901863       0.012
   0.04216295  0.12901863  0.12901863       0.023
   0.08432590  0.12901863  0.12901863       0.023
   0.12648886  0.12901863  0.12901863       0.023

 k-points in reciprocal lattice and weights: pymatgen with grid density = 869 / numbe
   0.00000000  0.00000000  0.00000000       0.003
   0.14285714  0.00000000  0.00000000       0.006
   0.28571429  0.00000000  0.00000000       0.006
   0.42857143  0.00000000  0.00000000       0.006
   0.00000000  0.14285714  0.00000000       0.012
   0.14285714  0.14285714  0.00000000       0.023
   0.28571429  0.14285714  0.00000000       0.023
   0.42857143  0.14285714  0.00000000       0.023
   0.00000000  0.28571429  0.00000000       0.012
   0.14285714  0.28571429  0.00000000       0.023
   0.28571429  0.28571429  0.00000000       0.023
   0.42857143  0.28571429  0.00000000       0.023
   0.00000000  0.42857143  0.00000000       0.012
   0.14285714  0.42857143  0.00000000       0.023
   0.28571429  0.42857143  0.00000000       0.023
   0.42857143  0.42857143  0.00000000       0.023
   0.00000000  0.14285714  0.14285714       0.012
   0.14285714  0.14285714  0.14285714       0.023
   0.28571429  0.14285714  0.14285714       0.023
   0.42857143  0.14285714  0.14285714       0.023
   0.00000000  0.28571429  0.14285714       0.023
   0.14285714  0.28571429  0.14285714       0.047
   0.28571429  0.28571429  0.14285714       0.047
   0.42857143  0.28571429  0.14285714       0.047
   0.00000000  0.42857143  0.14285714       0.023
   0.14285714  0.42857143  0.14285714       0.047
   0.28571429  0.42857143  0.14285714       0.047
   0.42857143  0.42857143  0.14285714       0.047
   0.00000000  0.28571429  0.28571429       0.012
   0.14285714  0.28571429  0.28571429       0.023
   0.28571429  0.28571429  0.28571429       0.023
   0.42857143  0.28571429  0.28571429       0.023
   0.00000000  0.42857143  0.28571429       0.023
   0.14285714  0.42857143  0.28571429       0.047
   0.28571429  0.42857143  0.28571429       0.047
   0.42857143  0.42857143  0.28571429       0.047
   0.00000000  0.42857143  0.42857143       0.012
   0.14285714  0.42857143  0.42857143       0.023
   0.28571429  0.42857143  0.42857143       0.023
   0.42857143  0.42857143  0.42857143       0.023

 position of ions in fractional coordinates (direct lattice) 
   0.00000000  0.00000000  0.00000000
   0.50000000  0.50000000  0.50000000

 position of ions in cartesian coordinates  (Angst):
   0.00000000  0.00000000  0.00000000
   1.69410746  1.66088967  1.66088967



--------------------------------------------------------------------------------------------------------


 k-point   1 :   0.0000 0.0000 0.0000  plane waves:    1021
 k-point   2 :   0.1429 0.0000 0.0000  plane waves:     997
 k-point   3 :   0.2857 0.0000 0.0000  plane waves:     997
 k-point   4 :   0.4286 0.0000 0.0000  plane waves:    1008
 k-point   5 :   0.0000 0.1429 0.0000  plane waves:     995
 k-point   6 :   0.1429 0.1429 0.0000  plane waves:    1002
 k-point   7 :   0.2857 0.1429 0.0000  plane waves:    1004
 k-point   8 :   0.4286 0.1429 0.0000  plane waves:    1007
 k-point   9 :   0.0000 0.2857 0.0000  plane waves:     998
 k-point  10 :   0.1429 0.2857 0.0000  plane waves:    1011
 k-point  11 :   0.2857 0.2857 0.0000  plane waves:    1003
 k-point  12 :   0.4286 0.2857 0.0000  plane waves:    1003
 k-point  13 :   0.0000 0.4286 0.0000  plane waves:    1016
 k-point  14 :   0.1429 0.4286 0.0000  plane waves:    1002
 k-point  15 :   0.2857 0.4286 0.0000  plane waves:    1005
 k-point  16 :   0.4286 0.4286 0.0000  plane waves:    1006
 k-point  17 :   0.0000 0.1429 0.1429  plane waves:     989
 k-point  18 :   0.1429 0.1429 0.1429  plane waves:    1000
 k-point  19 :   0.2857 0.1429 0.1429  plane waves:    1004
 k-point  20 :   0.4286 0.1429 0.1429  plane waves:    1007
 k-point  21 :   0.0000 0.2857 0.1429  plane waves:    1005
 k-point  22 :   0.1429 0.2857 0.1429  plane waves:    1010
 k-point  23 :   0.2857 0.2857 0.1429  plane waves:    1005
 k-point  24 :   0.4286 0.2857 0.1429  plane waves:    1010
 k-point  25 :   0.0000 0.4286 0.1429  plane waves:    1011
 k-point  26 :   0.1429 0.4286 0.1429  plane waves:    1012
 k-point  27 :   0.2857 0.4286 0.1429  plane waves:    1008
 k-point  28 :   0.4286 0.4286 0.1429  plane waves:    1004
 k-point  29 :   0.0000 0.2857 0.2857  plane waves:    1015
 k-point  30 :   0.1429 0.2857 0.2857  plane waves:    1013
 k-point  31 :   0.2857 0.2857 0.2857  plane waves:    1005
 k-point  32 :   0.4286 0.2857 0.2857  plane waves:    1004
 k-point  33 :   0.0000 0.4286 0.2857  plane waves:    1014
 k-point  34 :   0.1429 0.4286 0.2857  plane waves:    1006
 k-point  35 :   0.2857 0.4286 0.2857  plane waves:    1006
 k-point  36 :   0.4286 0.4286 0.2857  plane waves:    1007
 k-point  37 :   0.0000 0.4286 0.4286  plane waves:    1016
 k-point  38 :   0.1429 0.4286 0.4286  plane waves:    1014
 k-point  39 :   0.2857 0.4286 0.4286  plane waves:    1003
 k-point  40 :   0.4286 0.4286 0.4286  plane waves:    1012

 maximum and minimum number of plane-waves per node :      1021      989

 maximum number of plane-waves:      1021
 maximum index in each direction: 
   IXMAX=    6   IYMAX=    6   IZMAX=    6
   IXMIN=   -6   IYMIN=   -6   IZMIN=   -6


 serial   3D FFT for wavefunctions
 parallel 3D FFT for charge:
    minimum data exchange during FFTs selected (reduces bandwidth)


 total amount of memory used by VASP MPI-rank0    78802. kBytes
=======================================================================

   base      :      30000. kBytes
   nonlr-proj:       6125. kBytes
   fftplans  :       6192. kBytes
   grid      :      14776. kBytes
   one-center:         62. kBytes
   wavefun   :      21647. kBytes

     INWAV:  cpu time      0.0000: real time      0.0000
 Broyden mixing: mesh for mixing (old mesh)
   NGX = 13   NGY = 13   NGZ = 13
  (NGX  = 56   NGY  = 56   NGZ  = 56)
  gives a total of   2197 points

 initial charge density was supplied:
 charge density of overlapping atoms calculated
 number of electron      22.0000000 magnetization       1.2000000
 keeping initial charge density in first step


--------------------------------------------------------------------------------------------------------


 Maximum index for non-local projection operator         1114
 Maximum index for augmentation-charges        35089 (set IRDMAX)


--------------------------------------------------------------------------------------------------------


 First call to EWALD:  gamma=   0.530
 Maximum number of real-space cells 3x 3x 3
 Maximum number of reciprocal cells 3x 3x 3

    FEWALD:  cpu time      0.1450: real time      0.0074


--------------------------------------- Ionic step        1  -------------------------------------------




--------------------------------------- Iteration      1(   1)  ---------------------------------------


    POTLOK:  cpu time      2.7625: real time      0.1879
    SETDIJ:  cpu time      1.2326: real time      0.2801
     EDDAV:  cpu time    228.7927: real time     12.9711
 BZINTS: Fermi energy:   23.257240;   22.000000 electrons
         Band energy:-0.307922E+02;  BLOECHL correction:   -0.559636
       DOS:  cpu time      0.2600: real time      0.0299
    --------------------------------------------
      LOOP:  cpu time    233.0478: real time     13.4690

 eigenvalue-minimisations  :  2752
 total energy-change (2. order) : 0.2020575E+03  (-0.1160957E+04)
 number of electron      22.0000000 magnetization       1.2000000
 augmentation part       22.0000000 magnetization       1.2000000

 Free energy of the ion-electron system (eV)
  ---------------------------------------------------
  alpha Z        PSCENC =       242.17886451
  Ewald energy   TEWEN  =     -1896.31761109
  -Hartree energ DENC   =      -284.15702364
  -exchange      EXHF   =         0.00000000
  -V(xc)+E(xc)   XCENC  =        52.45570196
  PAW double counting   =      1671.32378679    -1639.41528309
  entropy T*S    EENTRO =         0.00000000
  eigenvalues    EBANDS =       -30.79220778
  atomic energy  EATOM  =      2086.78124273
  Solvation  Ediel_sol  =         0.00000000
  ---------------------------------------------------
  free energy    TOTEN  =       202.05747039 eV

  energy without entropy =      202.05747039  energy(sigma->0) =      202.05747039


--------------------------------------------------------------------------------------------------------




--------------------------------------- Iteration      1(   2)  ---------------------------------------


     EDDAV:  cpu time    250.9816: real time     13.9938
 BZINTS: Fermi energy:    6.935472;   22.000000 electrons
         Band energy:-0.243767E+03;  BLOECHL correction:   -0.343757
       DOS:  cpu time      0.3048: real time      0.0256
    --------------------------------------------
      LOOP:  cpu time    251.2863: real time     14.0194

 eigenvalue-minimisations  :  2736
 total energy-change (2. order) :-0.2129746E+03  (-0.2104742E+03)
 number of electron      22.0000000 magnetization       1.2000000
 augmentation part       22.0000000 magnetization       1.2000000

 Free energy of the ion-electron system (eV)
  ---------------------------------------------------
  alpha Z        PSCENC =       242.17886451
  Ewald energy   TEWEN  =     -1896.31761109
  -Hartree energ DENC   =      -284.15702364
  -exchange      EXHF   =         0.00000000
  -V(xc)+E(xc)   XCENC  =        52.45570196
  PAW double counting   =      1671.32378679    -1639.41528309
  entropy T*S    EENTRO =         0.00000000
  eigenvalues    EBANDS =      -243.76682950
  atomic energy  EATOM  =      2086.78124273
  Solvation  Ediel_sol  =         0.00000000
  ---------------------------------------------------
  free energy    TOTEN  =       -10.91715133 eV

  energy without entropy =      -10.91715133  energy(sigma->0) =      -10.91715133


--------------------------------------------------------------------------------------------------------




--------------------------------------- Iteration      1(   3)  ---------------------------------------


     EDDAV:  cpu time    356.9910: real time     19.8059
 BZINTS: Fermi energy:    5.336080;   22.000000 electrons
         Band energy:-0.253820E+03;  BLOECHL correction:   -0.203774
       DOS:  cpu time      0.3237: real time      0.0313
    --------------------------------------------
      LOOP:  cpu time    357.3147: real time     19.8372

 eigenvalue-minimisations  :  4152
 total energy-change (2. order) :-0.1005267E+02  (-0.9565682E+01)
 number of electron      22.0000000 magnetization       1.2000000
 augmentation part       22.0000000 magnetization       1.2000000

 Free energy of the ion-electron system (eV)
  ---------------------------------------------------
  alpha Z        PSCENC =       242.17886451
  Ewald energy   TEWEN  =     -1896.31761109
  -Hartree energ DENC   =      -284.15702364
  -exchange      EXHF   =         0.00000000
  -V(xc)+E(xc)   XCENC  =        52.45570196
  PAW double counting   =      1671.32378679    -1639.41528309
  entropy T*S    EENTRO =         0.00000000
  eigenvalues    EBANDS =      -253.81950100
  atomic energy  EATOM  =      2086.78124273
  Solvation  Ediel_sol  =         0.00000000
  ---------------------------------------------------
  free energy    TOTEN  =       -20.96982283 eV

  energy without entropy =      -20.96982283  energy(sigma->0) =      -20.96982283


--------------------------------------------------------------------------------------------------------




--------------------------------------- Iteration      1(   4)  ---------------------------------------


     EDDAV:  cpu time    265.2084: real time     14.9284
 BZINTS: Fermi energy:    5.305368;   22.000000 electrons
         Band energy:-0.254017E+03;  BLOECHL correction:   -0.201341
       DOS:  cpu time      0.3257: real time      0.0271
    --------------------------------------------
      LOOP:  cpu time    265.5341: real time     14.9555

 eigenvalue-minimisations  :  3336
 total energy-change (2. order) :-0.1970698E+00  (-0.1941582E+00)
 number of electron      22.0000000 magnetization       1.2000000
 augmentation part       22.0000000 magnetization       1.2000000

 Free energy of the ion-electron system (eV)
  ---------------------------------------------------
  alpha Z        PSCENC =       242.17886451
  Ewald energy   TEWEN  =     -1896.31761109
  -Hartree energ DENC   =      -284.15702364
  -exchange      EXHF   =         0.00000000
  -V(xc)+E(xc)   XCENC  =        52.45570196
  PAW double counting   =      1671.32378679    -1639.41528309
  entropy T*S    EENTRO =         0.00000000
  eigenvalues    EBANDS =      -254.01657078
  atomic energy  EATOM  =      2086.78124273
  Solvation  Ediel_sol  =         0.00000000
  ---------------------------------------------------
  free energy    TOTEN  =       -21.16689261 eV

  energy without entropy =      -21.16689261  energy(sigma->0) =      -21.16689261


--------------------------------------------------------------------------------------------------------




--------------------------------------- Iteration      1(   5)  ---------------------------------------


     EDDAV:  cpu time    326.0921: real time     18.2426
 BZINTS: Fermi energy:    5.304612;   22.000000 electrons
         Band energy:-0.254021E+03;  BLOECHL correction:   -0.201200
       DOS:  cpu time      0.3146: real time      0.0289
    CHARGE:  cpu time     20.1110: real time      1.1349
    MIXING:  cpu time      0.0015: real time      0.0015
    --------------------------------------------
      LOOP:  cpu time    346.5191: real time     19.4078

 eigenvalue-minimisations  :  3968
 total energy-change (2. order) :-0.4215105E-02  (-0.4184090E-02)
 number of electron      22.0000001 magnetization       0.3628447
 augmentation part        7.7490509 magnetization      -0.0479592

 Broyden mixing:
  rms(total) = 0.23155E+01    rms(broyden)= 0.23155E+01
  rms(prec ) = 0.27533E+01
  weight for this iteration     100.00

 Free energy of the ion-electron system (eV)
  ---------------------------------------------------
  alpha Z        PSCENC =       242.17886451
  Ewald energy   TEWEN  =     -1896.31761109
  -Hartree energ DENC   =      -284.15702364
  -exchange      EXHF   =         0.00000000
  -V(xc)+E(xc)   XCENC  =        52.45570196
  PAW double counting   =      1671.32378679    -1639.41528309
  entropy T*S    EENTRO =         0.00000000
  eigenvalues    EBANDS =      -254.02078588
  atomic energy  EATOM  =      2086.78124273
  Solvation  Ediel_sol  =         0.00000000
  ---------------------------------------------------
  free energy    TOTEN  =       -21.17110772 eV

  energy without entropy =      -21.17110772  energy(sigma->0) =      -21.17110772


--------------------------------------------------------------------------------------------------------




--------------------------------------- Iteration      1(   6)  ---------------------------------------


    POTLOK:  cpu time      2.5007: real time      0.1756
    SETDIJ:  cpu time      1.1360: real time      0.2549
    EDDIAG:  cpu time     57.6542: real time      3.1888
  RMM-DIIS:  cpu time    168.0461: real time      9.1332
    ORTHCH:  cpu time      1.2375: real time      0.0736
 BZINTS: Fermi energy:    4.943865;   22.000000 electrons
         Band energy:-0.268526E+03;  BLOECHL correction:   -0.204194
       DOS:  cpu time      0.3178: real time      0.0320
    CHARGE:  cpu time     20.5622: real time      1.1518
    MIXING:  cpu time      0.1666: real time      0.0067
    --------------------------------------------
      LOOP:  cpu time    251.6211: real time     14.0167

 eigenvalue-minimisations  :  2824
 total energy-change (2. order) : 0.8380009E+00  (-0.8572835E-01)
 number of electron      22.0000001 magnetization       0.1794233
 augmentation part        7.8801178 magnetization      -0.0478396

 Broyden mixing:
  rms(total) = 0.86121E+00    rms(broyden)= 0.86121E+00
  rms(prec ) = 0.11538E+01
  weight for this iteration     100.00

 eigenvalues of (default mixing * dielectric matrix)
  average eigenvalue GAMMA=   1.4763
  1.4763

 Free energy of the ion-electron system (eV)
  ---------------------------------------------------
  alpha Z        PSCENC =       242.17886451
  Ewald energy   TEWEN  =     -1896.31761109
  -Hartree energ DENC   =      -264.30706963
  -exchange      EXHF   =         0.00000000
  -V(xc)+E(xc)   XCENC  =        51.41768984
  PAW double counting   =      2160.42887968    -2131.98954672
  entropy T*S    EENTRO =         0.00000000
  eigenvalues    EBANDS =      -268.52555612
  atomic energy  EATOM  =      2086.78124273
  Solvation  Ediel_sol  =         0.00000000
  ---------------------------------------------------
  free energy    TOTEN  =       -20.33310680 eV

  energy without entropy =      -20.33310680  energy(sigma->0) =      -20.33310680


--------------------------------------------------------------------------------------------------------




--------------------------------------- Iteration      1(   7)  ---------------------------------------


    POTLOK:  cpu time      2.1292: real time      0.1686
    SETDIJ:  cpu time      1.2474: real time      0.2527
    EDDIAG:  cpu time     93.8552: real time      4.8989
  RMM-DIIS:  cpu time    209.2106: real time     11.3772
    ORTHCH:  cpu time      1.1628: real time      0.0673
 BZINTS: Fermi energy:    4.642156;   22.000000 electrons
         Band energy:-0.280514E+03;  BLOECHL correction:   -0.203124
       DOS:  cpu time      0.2799: real time      0.0285
    CHARGE:  cpu time     22.9839: real time      1.2753
    MIXING:  cpu time      0.0970: real time      0.0027
    --------------------------------------------
      LOOP:  cpu time    330.9659: real time     18.0712

 eigenvalue-minimisations  :  3479
 total energy-change (2. order) : 0.1440623E+00  (-0.2234504E+00)
 number of electron      22.0000001 magnetization       0.0509175
 augmentation part        8.0559432 magnetization       0.0390231

 Broyden mixing:
  rms(total) = 0.23740E+00    rms(broyden)= 0.23740E+00
  rms(prec ) = 0.25647E+00
  weight for this iteration     100.00

 eigenvalues of (default mixing * dielectric matrix)
  average eigenvalue GAMMA=   1.0636
  1.5902  0.5370

 Free energy of the ion-electron system (eV)
  ---------------------------------------------------
  alpha Z        PSCENC =       242.17886451
  Ewald energy   TEWEN  =     -1896.31761109
  -Hartree energ DENC   =      -248.43535998
  -exchange      EXHF   =         0.00000000
  -V(xc)+E(xc)   XCENC  =        50.62943331
  PAW double counting   =      2553.14134510    -2527.65280830
  entropy T*S    EENTRO =         0.00000000
  eigenvalues    EBANDS =      -280.51415083
  atomic energy  EATOM  =      2086.78124273
  Solvation  Ediel_sol  =         0.00000000
  ---------------------------------------------------
  free energy    TOTEN  =       -20.18904455 eV

  energy without entropy =      -20.18904455  energy(sigma->0) =      -20.18904455


--------------------------------------------------------------------------------------------------------




--------------------------------------- Iteration      1(   8)  ---------------------------------------


    POTLOK:  cpu time      1.5205: real time      0.1262
    SETDIJ:  cpu time      1.1795: real time      0.2570
    EDDIAG:  cpu time     52.0802: real time      2.9389
  RMM-DIIS:  cpu time    869.7887: real time     39.9682
    ORTHCH:  cpu time      0.9846: real time      0.0587
 BZINTS: Fermi energy:    4.653830;   22.000000 electrons
         Band energy:-0.279939E+03;  BLOECHL correction:   -0.203136
       DOS:  cpu time      0.2335: real time      0.0286
    CHARGE:  cpu time     19.1661: real time      1.0745
    MIXING:  cpu time      0.0027: real time      0.0020
    --------------------------------------------
      LOOP:  cpu time    944.9558: real time     44.4541

 eigenvalue-minimisations  :  3714
 total energy-change (2. order) :-0.1134427E-01  (-0.1111985E-01)
 number of electron      22.0000001 magnetization       0.0337396
 augmentation part        8.0625641 magnetization       0.0187387

 Broyden mixing:
  rms(total) = 0.11433E+00    rms(broyden)= 0.11433E+00
  rms(prec ) = 0.14271E+00
  weight for this iteration     100.00

 eigenvalues of (default mixing * dielectric matrix)
  average eigenvalue GAMMA=   1.0607
  1.8064  0.6878  0.6878

 Free energy of the ion-electron system (eV)
  ---------------------------------------------------
  alpha Z        PSCENC =       242.17886451
  Ewald energy   TEWEN  =     -1896.31761109
  -Hartree energ DENC   =      -248.82434909
  -exchange      EXHF   =         0.00000000
  -V(xc)+E(xc)   XCENC  =        50.64181297
  PAW double counting   =      2597.77370327    -2572.49509077
  entropy T*S    EENTRO =         0.00000000
  eigenvalues    EBANDS =      -279.93896135
  atomic energy  EATOM  =      2086.78124273
  Solvation  Ediel_sol  =         0.00000000
  ---------------------------------------------------
  free energy    TOTEN  =       -20.20038882 eV

  energy without entropy =      -20.20038882  energy(sigma->0) =      -20.20038882


--------------------------------------------------------------------------------------------------------




--------------------------------------- Iteration      1(   9)  ---------------------------------------


    POTLOK:  cpu time      2.1811: real time      0.1687
    SETDIJ:  cpu time      1.1064: real time      0.2524
    EDDIAG:  cpu time     52.5612: real time      2.9776
  RMM-DIIS:  cpu time    218.1053: real time     11.8809
    ORTHCH:  cpu time      0.8111: real time      0.0531
 BZINTS: Fermi energy:    4.662821;   22.000000 electrons
         Band energy:-0.279513E+03;  BLOECHL correction:   -0.203208
       DOS:  cpu time      0.2768: real time      0.0264
    CHARGE:  cpu time     26.3492: real time      1.4327
    MIXING:  cpu time      0.0019: real time      0.0019
    --------------------------------------------
      LOOP:  cpu time    301.3929: real time     16.7938

 eigenvalue-minimisations  :  3676
 total energy-change (2. order) : 0.4971109E-04  (-0.2497372E-02)
 number of electron      22.0000001 magnetization       0.0223476
 augmentation part        8.0628506 magnetization       0.0143599

 Broyden mixing:
  rms(total) = 0.92793E-01    rms(broyden)= 0.92793E-01
  rms(prec ) = 0.11936E+00
  weight for this iteration     100.00

 eigenvalues of (default mixing * dielectric matrix)
  average eigenvalue GAMMA=   1.0809
  2.0520  0.8374  0.8374  0.5967

 Free energy of the ion-electron system (eV)
  ---------------------------------------------------
  alpha Z        PSCENC =       242.17886451
  Ewald energy   TEWEN  =     -1896.31761109
  -Hartree energ DENC   =      -249.19627498
  -exchange      EXHF   =         0.00000000
  -V(xc)+E(xc)   XCENC  =        50.65908521
  PAW double counting   =      2636.13731248    -2610.93000987
  entropy T*S    EENTRO =         0.00000000
  eigenvalues    EBANDS =      -279.51294811
  atomic energy  EATOM  =      2086.78124273
  Solvation  Ediel_sol  =         0.00000000
  ---------------------------------------------------
  free energy    TOTEN  =       -20.20033911 eV

  energy without entropy =      -20.20033911  energy(sigma->0) =      -20.20033911


--------------------------------------------------------------------------------------------------------




--------------------------------------- Iteration      1(  10)  ---------------------------------------


    POTLOK:  cpu time      2.1871: real time      0.1574
    SETDIJ:  cpu time      1.1556: real time      0.2649
    EDDIAG:  cpu time     71.0213: real time      3.8758
  RMM-DIIS:  cpu time    312.8997: real time     15.7406
    ORTHCH:  cpu time      0.9327: real time      0.0559
 BZINTS: Fermi energy:    4.684328;   22.000000 electrons
         Band energy:-0.278555E+03;  BLOECHL correction:   -0.203381
       DOS:  cpu time      0.2463: real time      0.0314
    CHARGE:  cpu time     16.3911: real time      0.9417
    MIXING:  cpu time      0.0015: real time      0.0015
    --------------------------------------------
      LOOP:  cpu time    404.8353: real time     21.0693

 eigenvalue-minimisations  :  2971
 total energy-change (2. order) : 0.3423752E-02  (-0.5949612E-03)
 number of electron      22.0000001 magnetization      -0.0069436
 augmentation part        8.0544677 magnetization      -0.0054757

 Broyden mixing:
  rms(total) = 0.66040E-01    rms(broyden)= 0.66040E-01
  rms(prec ) = 0.73376E-01
  weight for this iteration     100.00

 eigenvalues of (default mixing * dielectric matrix)
  average eigenvalue GAMMA=   1.3572
  2.6123  1.3889  1.3889  0.6323  0.7636

 Free energy of the ion-electron system (eV)
  ---------------------------------------------------
  alpha Z        PSCENC =       242.17886451
  Ewald energy   TEWEN  =     -1896.31761109
  -Hartree energ DENC   =      -250.14223300
  -exchange      EXHF   =         0.00000000
  -V(xc)+E(xc)   XCENC  =        50.70415748
  PAW double counting   =      2709.65711173    -2684.50368820
  entropy T*S    EENTRO =         0.00000000
  eigenvalues    EBANDS =      -278.55475952
  atomic energy  EATOM  =      2086.78124273
  Solvation  Ediel_sol  =         0.00000000
  ---------------------------------------------------
  free energy    TOTEN  =       -20.19691536 eV

  energy without entropy =      -20.19691536  energy(sigma->0) =      -20.19691536


--------------------------------------------------------------------------------------------------------




--------------------------------------- Iteration      1(  11)  ---------------------------------------


    POTLOK:  cpu time      1.6855: real time      0.1330
    SETDIJ:  cpu time      1.0872: real time      0.2509
    EDDIAG:  cpu time     63.1120: real time      3.4934
  RMM-DIIS:  cpu time    480.7774: real time     23.0813
    ORTHCH:  cpu time      1.7741: real time      0.0948
 BZINTS: Fermi energy:    4.695767;   22.000000 electrons
         Band energy:-0.278034E+03;  BLOECHL correction:   -0.203473
       DOS:  cpu time      0.2241: real time      0.0259
    CHARGE:  cpu time     29.1417: real time      1.5579
    MIXING:  cpu time      0.0018: real time      0.0018
    --------------------------------------------
      LOOP:  cpu time    577.8038: real time     28.6391

 eigenvalue-minimisations  :  3388
 total energy-change (2. order) :-0.3733378E-04  (-0.5392001E-03)
 number of electron      22.0000001 magnetization      -0.0044755
 augmentation part        8.0478756 magnetization      -0.0002900

 Broyden mixing:
  rms(total) = 0.32344E-02    rms(broyden)= 0.32344E-02
  rms(prec ) = 0.41343E-02
  weight for this iteration     100.00

 eigenvalues of (default mixing * dielectric matrix)
  average eigenvalue GAMMA=   1.2748
  2.5867  1.4500  1.4500  0.7972  0.6272  0.7374

 Free energy of the ion-electron system (eV)
  ---------------------------------------------------
  alpha Z        PSCENC =       242.17886451
  Ewald energy   TEWEN  =     -1896.31761109
  -Hartree energ DENC   =      -250.61067181
  -exchange      EXHF   =         0.00000000
  -V(xc)+E(xc)   XCENC  =        50.72621775
  PAW double counting   =      2784.78368614    -2759.70433513
  entropy T*S    EENTRO =         0.00000000
  eigenvalues    EBANDS =      -278.03434580
  atomic energy  EATOM  =      2086.78124273
  Solvation  Ediel_sol  =         0.00000000
  ---------------------------------------------------
  free energy    TOTEN  =       -20.19695269 eV

  energy without entropy =      -20.19695269  energy(sigma->0) =      -20.19695269


--------------------------------------------------------------------------------------------------------




--------------------------------------- Iteration      1(  12)  ---------------------------------------


    POTLOK:  cpu time      1.7999: real time      0.1360
    SETDIJ:  cpu time      1.0304: real time      0.2528
    EDDIAG:  cpu time     55.5072: real time      3.1243
  RMM-DIIS:  cpu time    151.3053: real time      8.2577
    ORTHCH:  cpu time      2.0859: real time      0.1123
 BZINTS: Fermi energy:    4.696018;   22.000000 electrons
         Band energy:-0.278024E+03;  BLOECHL correction:   -0.203473
       DOS:  cpu time      0.2066: real time      0.0332
    --------------------------------------------
      LOOP:  cpu time    211.9354: real time     11.9163

 eigenvalue-minimisations  :  2460
 total energy-change (2. order) :-0.6981128E-04  (-0.5941383E-04)
 number of electron      22.0000001 magnetization      -0.0044755
 augmentation part        8.0478756 magnetization      -0.0002900

 Free energy of the ion-electron system (eV)
  ---------------------------------------------------
  alpha Z        PSCENC =       242.17886451
  Ewald energy   TEWEN  =     -1896.31761109
  -Hartree energ DENC   =      -250.63860858
  -exchange      EXHF   =         0.00000000
  -V(xc)+E(xc)   XCENC  =        50.72757648
  PAW double counting   =      2784.01964569    -2758.92401793
  entropy T*S    EENTRO =         0.00000000
  eigenvalues    EBANDS =      -278.02411432
  atomic energy  EATOM  =      2086.78124273
  Solvation  Ediel_sol  =         0.00000000
  ---------------------------------------------------
  free energy    TOTEN  =       -20.19702251 eV

  energy without entropy =      -20.19702251  energy(sigma->0) =      -20.19702251


--------------------------------------------------------------------------------------------------------




 average (electrostatic) potential at core
  the test charge radii are     1.2125
  (the norm of the test charge is              1.0000)
       1 -35.3818       2 -35.3818



 E-fermi :   4.6960     XC(G=0): -12.2451     alpha+bet :-12.5148

 Fermi energy:         4.6960184138

 spin component 1

 k-point     1 :       0.0000    0.0000    0.0000
  band No.  band energies     occupation 
      1     -25.9909      1.00000
      2     -25.9425      1.00000
      3     -25.9425      1.00000
      4     -25.1320      1.00000
      5     -25.1304      1.00000
      6     -25.1304      1.00000
      7      -1.1756      1.00000
      8       1.1397      1.00000
      9       1.1891      1.00000
     10       4.9823     -0.06273
     11       4.9823     -0.01256
     12       5.1904      0.00000
     13       7.6905      0.00000
     14       7.9672      0.00000
     15       9.9816      0.00000
     16      10.0459      0.00000

 k-point     2 :       0.1429    0.0000    0.0000
  band No.  band energies     occupation 
      1     -25.9868      1.00000
      2     -25.9014      1.00000
      3     -25.9014      1.00000
      4     -25.2166      1.00000
      5     -25.1695      1.00000
      6     -25.1695      1.00000
      7      -0.7856      1.00000
      8       1.4056      1.00000
      9       1.4487      1.00000
     10       4.9765      0.01390
     11       4.9765     -0.01948
     12       5.3713      0.00000
     13       7.1520      0.00000
     14       8.1284      0.00000
     15       8.9729      0.00000
     16       8.9730      0.00000

 k-point     3 :       0.2857    0.0000    0.0000
  band No.  band energies     occupation 
      1     -25.9546      1.00000
      2     -25.7867      1.00000
      3     -25.7867      1.00000
      4     -25.4272      1.00000
      5     -25.2797      1.00000
      6     -25.2797      1.00000
      7       0.2627      1.00000
      8       2.0448      1.00000
      9       2.1323      1.00000
     10       5.0546      0.29614
     11       5.0546     -0.13664
     12       5.8754      0.00000
     13       5.8990      0.00000
     14       7.3995      0.00000
     15       7.3995      0.00000
     16       8.5056      0.00000

 k-point     4 :       0.4286    0.0000    0.0000
  band No.  band energies     occupation 
      1     -25.8546      1.00000
      2     -25.6679      1.00000
      3     -25.6219      1.00000
      4     -25.6219      1.00000
      5     -25.4409      1.00000
      6     -25.4409      1.00000
      7       1.5780      1.00000
      8       2.3972      1.00000
      9       3.0703      1.00000
     10       4.4027      0.99243
     11       5.4056     -0.33584
     12       5.4056      0.00000
     13       6.1726      0.00000
     14       6.1726      0.00000
     15       6.7248      0.00000
     16       7.7521      0.00000

 k-point     5 :       0.0000    0.1429    0.0000
  band No.  band energies     occupation 
      1     -25.9485      1.00000
      2     -25.9469      1.00000
      3     -25.9006      1.00000
      4     -25.2208      1.00000
      5     -25.1727      1.00000
      6     -25.1686      1.00000
      7      -0.7698      1.00000
      8       1.3758      1.00000
      9       1.5125      1.00000
     10       4.9412      0.10494
     11       5.1442     -0.05555
     12       5.1728      0.00000
     13       7.3249      0.00000
     14       7.9968      0.00000
     15       8.8386      0.00000
     16       8.8877      0.00000

 k-point     6 :       0.1429    0.1429    0.0000
  band No.  band energies     occupation 
      1     -26.0397      1.00000
      2     -25.8630      1.00000
      3     -25.8166      1.00000
      4     -25.3736      1.00000
      5     -25.2031      1.00000
      6     -25.1320      1.00000
      7      -0.4161      1.00000
      8       1.6182      1.00000
      9       1.7725      1.00000
     10       4.6543      0.75826
     11       4.8430      0.17272
     12       5.8561     -0.00582
     13       7.2779      0.00000
     14       7.7329      0.00000
     15       7.9242      0.00000
     16       7.9617      0.00000

 k-point     7 :       0.2857    0.1429    0.0000
  band No.  band energies     occupation 
      1     -26.0724      1.00000
      2     -25.7581      1.00000
      3     -25.6550      1.00000
      4     -25.6170      1.00000
      5     -25.3010      1.00000
      6     -25.1795      1.00000
      7       0.5081      1.00000
      8       2.1036      1.00000
      9       2.5003      1.00000
     10       4.4288      0.99566
     11       4.6618      0.76297
     12       6.3006     -0.05116
     13       6.6051      0.00000
     14       6.7178      0.00000
     15       6.7757      0.00000
     16       8.3159      0.00000

 k-point     8 :       0.4286    0.1429    0.0000
  band No.  band energies     occupation 
      1     -26.0153      1.00000
      2     -25.8541      1.00000
      3     -25.6085      1.00000
      4     -25.4762      1.00000
      5     -25.4452      1.00000
      6     -25.3062      1.00000
      7       1.6098      1.00000
      8       2.3121      1.00000
      9       3.2990      1.00000
     10       4.1778      1.00449
     11       4.5908      0.86200
     12       5.2143     -0.04003
     13       6.2202      0.00000
     14       6.3074      0.00000
     15       7.7317      0.00000
     16       8.7775      0.00000

 k-point     9 :       0.0000    0.2857    0.0000
  band No.  band energies     occupation 
      1     -25.9401      1.00000
      2     -25.8243      1.00000
      3     -25.7841      1.00000
      4     -25.4426      1.00000
      5     -25.2879      1.00000
      6     -25.2769      1.00000
      7       0.3154      1.00000
      8       2.0439      1.00000
      9       2.2420      1.00000
     10       4.9423      0.51276
     11       5.1317     -0.12751
     12       5.7288      0.00000
     13       6.0226      0.00000
     14       7.1896      0.00000
     15       7.3033      0.00000
     16       8.5315      0.00000

 k-point    10 :       0.1429    0.2857    0.0000
  band No.  band energies     occupation 
      1     -26.0754      1.00000
      2     -25.7563      1.00000
      3     -25.6679      1.00000
      4     -25.6264      1.00000
      5     -25.2991      1.00000
      6     -25.1862      1.00000
      7       0.5399      1.00000
      8       2.1203      1.00000
      9       2.5531      1.00000
     10       4.4252      1.00317
     11       4.6429      0.76759
     12       6.2612     -0.05148
     13       6.6461      0.00000
     14       6.6570      0.00000
     15       6.6961      0.00000
     16       8.3482      0.00000

 k-point    11 :       0.2857    0.2857    0.0000
  band No.  band energies     occupation 
      1     -26.1957      1.00000
      2     -25.8906      1.00000
      3     -25.6799      1.00000
      4     -25.4714      1.00000
      5     -25.3630      1.00000
      6     -25.1339      1.00000
      7       0.9988      1.00000
      8       2.0478      1.00000
      9       3.4909      1.00000
     10       3.8375      1.00000
     11       4.6629      0.88958
     12       4.9749      0.04725
     13       6.2847      0.00000
     14       7.3778      0.00000
     15       7.9140      0.00000
     16       8.0859      0.00000

 k-point    12 :       0.4286    0.2857    0.0000
  band No.  band energies     occupation 
      1     -26.2145      1.00000
      2     -26.1070      1.00000
      3     -25.5731      1.00000
      4     -25.4598      1.00000
      5     -25.2994      1.00000
      6     -25.1780      1.00000
      7       1.3930      1.00000
      8       1.7552      1.00000
      9       3.7027      1.00000
     10       4.0851      1.00000
     11       4.4646      0.81238
     12       4.9192      0.03125
     13       6.7383      0.00000
     14       7.3079      0.00000
     15       8.5606      0.00000
     16       9.1429      0.00000

 k-point    13 :       0.0000    0.4286    0.0000
  band No.  band energies     occupation 
      1     -25.8633      1.00000
      2     -25.6874      1.00000
      3     -25.6489      1.00000
      4     -25.6178      1.00000
      5     -25.4573      1.00000
      6     -25.4366      1.00000
      7       1.6688      1.00000
      8       2.5165      1.00000
      9       3.1124      1.00000
     10       4.4973      0.98878
     11       5.2225     -0.13384
     12       5.3929      0.00000
     13       5.9529      0.00000
     14       6.0993      0.00000
     15       6.5996      0.00000
     16       7.6848      0.00000

 k-point    14 :       0.1429    0.4286    0.0000
  band No.  band energies     occupation 
      1     -26.0277      1.00000
      2     -25.8699      1.00000
      3     -25.6051      1.00000
      4     -25.4921      1.00000
      5     -25.4417      1.00000
      6     -25.3190      1.00000
      7       1.6577      1.00000
      8       2.3626      1.00000
      9       3.3505      1.00000
     10       4.2285      1.00270
     11       4.5603      0.89936
     12       5.1666     -0.03686
     13       6.1131      0.00000
     14       6.2013      0.00000
     15       7.6469      0.00000
     16       8.7575      0.00000

 k-point    15 :       0.2857    0.4286    0.0000
  band No.  band energies     occupation 
      1     -26.2211      1.00000
      2     -26.1141      1.00000
      3     -25.5716      1.00000
      4     -25.4583      1.00000
      5     -25.3053      1.00000
      6     -25.1834      1.00000
      7       1.3970      1.00000
      8       1.7596      1.00000
      9       3.6877      1.00000
     10       4.0673      1.00000
     11       4.4789      0.80521
     12       4.9492      0.01466
     13       6.7528      0.00000
     14       7.2433      0.00000
     15       8.7227      0.00000
     16       9.1041      0.00000

 k-point    16 :       0.4286    0.4286    0.0000
  band No.  band energies     occupation 
      1     -26.3187      1.00000
      2     -26.2810      1.00000
      3     -25.5284      1.00000
      4     -25.4879      1.00000
      5     -25.1796      1.00000
      6     -25.1356      1.00000
      7       1.1640      1.00000
      8       1.2791      1.00000
      9       3.2752      1.00000
     10       3.4035      1.00000
     11       5.9242     -0.15824
     12       6.2492     -0.08143
     13       7.3894      0.00000
     14       7.7558      0.00000
     15       8.4126      0.00000
     16       9.3342      0.00000

 k-point    17 :       0.0000    0.1429    0.1429
  band No.  band energies     occupation 
      1     -26.0176      1.00000
      2     -25.9066      1.00000
      3     -25.8015      1.00000
      4     -25.3720      1.00000
      5     -25.2085      1.00000
      6     -25.1347      1.00000
      7      -0.4002      1.00000
      8       1.6099      1.00000
      9       1.8138      1.00000
     10       4.5241      0.91529
     11       4.9964      0.00369
     12       5.7607     -0.00637
     13       7.5011      0.00000
     14       7.6092      0.00000
     15       7.7582      0.00000
     16       7.9698      0.00000

 k-point    18 :       0.1429    0.1429    0.1429
  band No.  band energies     occupation 
      1     -25.9991      1.00000
      2     -25.9733      1.00000
      3     -25.6858      1.00000
      4     -25.4968      1.00000
      5     -25.1775      1.00000
      6     -25.1744      1.00000
      7      -0.0602      1.00000
      8       1.9329      1.00000
      9       1.9830      1.00000
     10       4.4171      1.00949
     11       4.5478      0.78185
     12       6.2244     -0.05437
     13       6.4347      0.00000
     14       7.5193      0.00000
     15       7.7159      0.00000
     16       8.9985      0.00000

 k-point    19 :       0.2857    0.1429    0.1429
  band No.  band energies     occupation 
      1     -26.0746      1.00000
      2     -25.8493      1.00000
      3     -25.7220      1.00000
      4     -25.5274      1.00000
      5     -25.2981      1.00000
      6     -25.1818      1.00000
      7       0.8043      1.00000
      8       2.4599      1.00000
      9       2.5855      1.00000
     10       4.1611      1.01712
     11       4.2667      1.04934
     12       5.0417      0.09644
     13       6.9467      0.00000
     14       7.4753      0.00000
     15       7.7067      0.00000
     16       8.2134      0.00000

 k-point    20 :       0.4286    0.1429    0.1429
  band No.  band energies     occupation 
      1     -26.0587      1.00000
      2     -25.9325      1.00000
      3     -25.6708      1.00000
      4     -25.4739      1.00000
      5     -25.3775      1.00000
      6     -25.2554      1.00000
      7       1.7840      1.00000
      8       2.5371      1.00000
      9       3.1315      1.00000
     10       3.7606      1.00677
     11       4.5000      0.95871
     12       4.7563      0.25430
     13       6.5165      0.00000
     14       6.7525      0.00000
     15       8.2687      0.00000
     16       8.5315      0.00000

 k-point    21 :       0.0000    0.2857    0.1429
  band No.  band energies     occupation 
      1     -26.0594      1.00000
      2     -25.7943      1.00000
      3     -25.6523      1.00000
      4     -25.6206      1.00000
      5     -25.3106      1.00000
      6     -25.1869      1.00000
      7       0.5570      1.00000
      8       2.1262      1.00000
      9       2.5766      1.00000
     10       4.2660      1.02374
     11       4.7415      0.56040
     12       6.1161     -0.05457
     13       6.6114      0.00000
     14       6.7598      0.00000
     15       6.7717      0.00000
     16       8.3429      0.00000

 k-point    22 :       0.1429    0.2857    0.1429
  band No.  band energies     occupation 
      1     -26.0692      1.00000
      2     -25.8630      1.00000
      3     -25.7272      1.00000
      4     -25.5333      1.00000
      5     -25.2972      1.00000
      6     -25.1916      1.00000
      7       0.8328      1.00000
      8       2.4429      1.00000
      9       2.6597      1.00000
     10       4.1255      1.01582
     11       4.2456      1.06077
     12       5.0080      0.09865
     13       7.0298      0.00000
     14       7.4346      0.00000
     15       7.5601      0.00000
     16       8.2356      0.00000

 k-point    23 :       0.2857    0.2857    0.1429
  band No.  band energies     occupation 
      1     -26.1425      1.00000
      2     -25.9283      1.00000
      3     -25.8091      1.00000
      4     -25.3844      1.00000
      5     -25.3591      1.00000
      6     -25.1854      1.00000
      7       1.3928      1.00000
      8       2.4505      1.00000
      9       3.5069      1.00000
     10       3.7041      1.00000
     11       4.0718      1.01132
     12       4.1192      0.92020
     13       7.2685      0.00000
     14       7.5195      0.00000
     15       8.0938      0.00000
     16       8.7641      0.00000

 k-point    24 :       0.4286    0.2857    0.1429
  band No.  band energies     occupation 
      1     -26.1756      1.00000
      2     -26.1001      1.00000
      3     -25.6612      1.00000
      4     -25.4955      1.00000
      5     -25.2717      1.00000
      6     -25.2052      1.00000
      7       1.7706      1.00000
      8       2.1026      1.00000
      9       3.5281      1.00000
     10       3.6276      1.00000
     11       4.4819      0.87034
     12       4.5504      0.65080
     13       7.1714      0.00000
     14       7.4049      0.00000
     15       8.3827      0.00000
     16       8.8664      0.00000

 k-point    25 :       0.0000    0.4286    0.1429
  band No.  band energies     occupation 
      1     -26.0155      1.00000
      2     -25.8607      1.00000
      3     -25.6348      1.00000
      4     -25.4810      1.00000
      5     -25.4620      1.00000
      6     -25.3142      1.00000
      7       1.6789      1.00000
      8       2.3841      1.00000
      9       3.3491      1.00000
     10       4.2353      1.00323
     11       4.3948      0.98246
     12       5.0074     -0.02076
     13       6.2912      0.00000
     14       6.3404      0.00000
     15       7.6347      0.00000
     16       8.7855      0.00000

 k-point    26 :       0.1429    0.4286    0.1429
  band No.  band energies     occupation 
      1     -26.0648      1.00000
      2     -25.9423      1.00000
      3     -25.6785      1.00000
      4     -25.4764      1.00000
      5     -25.3886      1.00000
      6     -25.2681      1.00000
      7       1.8134      1.00000
      8       2.5701      1.00000
      9       3.1370      1.00000
     10       3.7696      1.00514
     11       4.4357      0.98297
     12       4.7389      0.25713
     13       6.5015      0.00000
     14       6.6396      0.00000
     15       8.3738      0.00000
     16       8.7182      0.00000

 k-point    27 :       0.2857    0.4286    0.1429
  band No.  band energies     occupation 
      1     -26.1815      1.00000
      2     -26.1065      1.00000
      3     -25.6600      1.00000
      4     -25.4927      1.00000
      5     -25.2779      1.00000
      6     -25.2126      1.00000
      7       1.7613      1.00000
      8       2.0954      1.00000
      9       3.5181      1.00000
     10       3.5833      1.00000
     11       4.5422      0.84782
     12       4.5620      0.64313
     13       7.1270      0.00000
     14       7.3385      0.00000
     15       8.6001      0.00000
     16       9.0152      0.00000

 k-point    28 :       0.4286    0.4286    0.1429
  band No.  band energies     occupation 
      1     -26.2602      1.00000
      2     -26.2343      1.00000
      3     -25.5910      1.00000
      4     -25.5270      1.00000
      5     -25.2135      1.00000
      6     -25.1939      1.00000
      7       1.5690      1.00000
      8       1.6541      1.00000
      9       3.2163      1.00000
     10       3.3094      1.00000
     11       5.5437     -0.10384
     12       5.6156     -0.15247
     13       7.6211      0.00000
     14       7.8406      0.00000
     15       8.4410      0.00000
     16       8.8293      0.00000

 k-point    29 :       0.0000    0.2857    0.2857
  band No.  band energies     occupation 
      1     -26.1828      1.00000
      2     -25.8868      1.00000
      3     -25.7120      1.00000
      4     -25.4725      1.00000
      5     -25.3766      1.00000
      6     -25.1444      1.00000
      7       1.0337      1.00000
      8       2.0552      1.00000
      9       3.5616      1.00000
     10       3.6498      1.00000
     11       4.7337      0.72621
     12       4.7850      0.13495
     13       6.3702      0.00000
     14       7.6283      0.00000
     15       7.8666      0.00000
     16       8.0562      0.00000

 k-point    30 :       0.1429    0.2857    0.2857
  band No.  band energies     occupation 
      1     -26.1315      1.00000
      2     -25.9277      1.00000
      3     -25.8287      1.00000
      4     -25.3897      1.00000
      5     -25.3634      1.00000
      6     -25.1957      1.00000
      7       1.4095      1.00000
      8       2.4294      1.00000
      9       3.5601      1.00000
     10       3.5746      1.00000
     11       4.0096      1.03298
     12       4.1920      0.92594
     13       7.2333      0.00000
     14       7.6904      0.00000
     15       8.0663      0.00000
     16       8.7468      0.00000

 k-point    31 :       0.2857    0.2857    0.2857
  band No.  band energies     occupation 
      1     -26.0218      1.00000
      2     -25.9956      1.00000
      3     -25.9875      1.00000
      4     -25.3395      1.00000
      5     -25.3277      1.00000
      6     -25.3011      1.00000
      7       2.2959      1.00000
      8       2.9816      1.00000
      9       3.4092      1.00000
     10       3.4877      1.00000
     11       3.4880      1.03051
     12       3.5641      1.07582
     13       8.0205      0.00000
     14       8.0472      0.00000
     15       8.1739      0.00000
     16       8.3480      0.00000

 k-point    32 :       0.4286    0.2857    0.2857
  band No.  band energies     occupation 
      1     -26.0996      1.00000
      2     -26.0974      1.00000
      3     -25.7792      1.00000
      4     -25.5478      1.00000
      5     -25.2873      1.00000
      6     -25.2699      1.00000
      7       2.5101      1.00000
      8       2.5414      1.00000
      9       3.3723      1.00000
     10       3.4685      1.00000
     11       3.9357      1.01407
     12       4.2438      0.99276
     13       7.8910      0.00000
     14       7.8926      0.00000
     15       8.3417      0.00000
     16       8.3923      0.00000

 k-point    33 :       0.0000    0.4286    0.2857
  band No.  band energies     occupation 
      1     -26.2095      1.00000
      2     -26.1054      1.00000
      3     -25.5977      1.00000
      4     -25.4778      1.00000
      5     -25.3109      1.00000
      6     -25.1927      1.00000
      7       1.4116      1.00000
      8       1.7601      1.00000
      9       3.4911      1.00000
     10       3.8713      1.00000
     11       4.5467      0.76453
     12       5.0061     -0.02181
     13       6.9108      0.00000
     14       7.4833      0.00000
     15       8.7426      0.00000
     16       9.1084      0.00000

 k-point    34 :       0.1429    0.4286    0.2857
  band No.  band energies     occupation 
      1     -26.1731      1.00000
      2     -26.1014      1.00000
      3     -25.6759      1.00000
      4     -25.5035      1.00000
      5     -25.2842      1.00000
      6     -25.2207      1.00000
      7       1.7588      1.00000
      8       2.0737      1.00000
      9       3.3847      1.00000
     10       3.5167      1.00000
     11       4.5565      0.83008
     12       4.6232      0.54688
     13       7.2331      0.00000
     14       7.4986      0.00000
     15       8.6065      0.00000
     16       9.0708      0.00000

 k-point    35 :       0.2857    0.4286    0.2857
  band No.  band energies     occupation 
      1     -26.1035      1.00000
      2     -26.1005      1.00000
      3     -25.7790      1.00000
      4     -25.5423      1.00000
      5     -25.2996      1.00000
      6     -25.2777      1.00000
      7       2.4367      1.00000
      8       2.4796      1.00000
      9       3.3553      1.00000
     10       3.4192      1.00000
[...]
  band No.  band energies     occupation 
      1     -26.1737      1.00000
      2     -26.1020      1.00000
      3     -25.6763      1.00000
      4     -25.5039      1.00000
      5     -25.2847      1.00000
      6     -25.2212      1.00000
      7       1.7569      1.00000
      8       2.0719      1.00000
      9       3.3832      1.00000
     10       3.5152      1.00000
     11       4.5548      0.83104
     12       4.6214      0.55109
     13       7.2321      0.00000
     14       7.4978      0.00000
     15       8.6057      0.00000
     16       9.0706      0.00000

 k-point    35 :       0.2857    0.4286    0.2857
  band No.  band energies     occupation 
      1     -26.1041      1.00000
      2     -26.1011      1.00000
      3     -25.7795      1.00000
      4     -25.5428      1.00000
      5     -25.3001      1.00000
      6     -25.2782      1.00000
      7       2.4348      1.00000
      8       2.4779      1.00000
      9       3.3537      1.00000
     10       3.4176      1.00000
     11       3.9867      1.00746
     12       4.3314      0.98924
     13       7.8056      0.00000
     14       7.8698      0.00000
     15       8.5506      0.00000
     16       8.6391      0.00000

 k-point    36 :       0.4286    0.4286    0.2857
  band No.  band energies     occupation 
      1     -26.1132      1.00000
      2     -26.0966      1.00000
      3     -25.7300      1.00000
      4     -25.6011      1.00000
      5     -25.3578      1.00000
      6     -25.3208      1.00000
      7       2.4655      1.00000
      8       2.5874      1.00000
      9       3.1609      1.00000
     10       3.3373      1.00000
     11       4.5118      0.86835
     12       4.6782      0.74681
     13       8.1242      0.00000
     14       8.1815      0.00000
     15       8.5015      0.00000
     16       8.5527      0.00000

 k-point    37 :       0.0000    0.4286    0.4286
  band No.  band energies     occupation 
      1     -26.3123      1.00000
      2     -26.2758      1.00000
      3     -25.5510      1.00000
      4     -25.5081      1.00000
      5     -25.1957      1.00000
      6     -25.1529      1.00000
      7       1.1527      1.00000
      8       1.2622      1.00000
      9       3.0547      1.00000
     10       3.1827      1.00000
     11       6.0389     -0.16524
     12       6.3763     -0.06140
     13       7.6320      0.00000
     14       8.0431      0.00000
     15       8.4944      0.00000
     16       9.4859      0.00000

 k-point    38 :       0.1429    0.4286    0.4286
  band No.  band energies     occupation 
      1     -26.2557      1.00000
      2     -26.2312      1.00000
      3     -25.6060      1.00000
      4     -25.5390      1.00000
      5     -25.2291      1.00000
      6     -25.2109      1.00000
      7       1.5364      1.00000
      8       1.6138      1.00000
      9       3.0390      1.00000
     10       3.1417      1.00000
     11       5.6575     -0.15673
     12       5.7378     -0.12882
     13       7.8239      0.00000
     14       8.0848      0.00000
     15       8.5215      0.00000
     16       8.9559      0.00000

 k-point    39 :       0.2857    0.4286    0.4286
  band No.  band energies     occupation 
      1     -26.1142      1.00000
      2     -26.0966      1.00000
      3     -25.7301      1.00000
      4     -25.5954      1.00000
      5     -25.3733      1.00000
      6     -25.3315      1.00000
      7       2.3948      1.00000
      8       2.5130      1.00000
      9       3.0813      1.00000
     10       3.2602      1.00000
     11       4.6260      0.80422
     12       4.7871      0.49420
     13       8.2152      0.00000
     14       8.2987      0.00000
     15       8.5734      0.00000
     16       8.6507      0.00000

 k-point    40 :       0.4286    0.4286    0.4286
  band No.  band energies     occupation 
      1     -25.9759      1.00000
      2     -25.8654      1.00000
      3     -25.8571      1.00000
      4     -25.6071      1.00000
      5     -25.5911      1.00000
      6     -25.4784      1.00000
      7       2.9262      1.00000
      8       3.3202      1.00000
      9       3.3466      1.00000
     10       3.8242      1.00000
     11       3.8999      1.00000
     12       3.9296      1.05804
     13       8.4624      0.00000
     14       8.4749      0.00000
     15       8.6022      0.00000
     16       8.6024      0.00000


--------------------------------------------------------------------------------------------------------


 soft charge-density along one line, spin component           1
         0         1         2         3         4         5         6         7         8         9
 total charge-density along one line

 soft charge-density along one line, spin component           2
         0         1         2         3         4         5         6         7         8         9
 total charge-density along one line

 pseudopotential strength for first ion, spin component:           1
-28.223   0.000   0.000   6.052  -0.000  -0.000  -0.000  -0.000
  0.000 -28.223   0.000  -0.000   6.052  -0.000  -0.000  -0.000
  0.000   0.000 -28.225  -0.000  -0.000   6.053  -0.000  -0.000
  6.052  -0.000  -0.000   4.188   0.000   0.000   0.000   0.000
 -0.000   6.052  -0.000   0.000   4.188   0.000   0.000   0.000
 -0.000  -0.000   6.053   0.000   0.000   4.187   0.000   0.000
 -0.000  -0.000  -0.000   0.000   0.000   0.000  -6.405   0.000
 -0.000  -0.000  -0.000   0.000   0.000   0.000   0.000  -6.405
  0.000  -0.000   0.000  -0.000   0.000  -0.000  -0.000   0.000
 -0.000  -0.000  -0.000   0.000   0.000   0.000   0.000   0.000
  0.000  -0.000   0.000  -0.000   0.000  -0.000  -0.000  -0.000
 -0.000  -0.000  -0.000   0.000   0.000   0.000  -7.271   0.000
 -0.000  -0.000  -0.000   0.000   0.000   0.000   0.000  -7.271
  0.000  -0.000   0.000  -0.000   0.000  -0.000  -0.000   0.000
 -0.000  -0.000  -0.000   0.000   0.000   0.000   0.000   0.000
  0.000  -0.000   0.000  -0.000   0.000  -0.000  -0.000  -0.000
  0.000   0.000   0.000   0.000  -0.000   0.000  -0.000  -0.000
 -0.000  -0.000  -0.000  -0.000  -0.000  -0.000   0.000   0.000
 pseudopotential strength for first ion, spin component:           2
-28.224   0.000   0.000   6.052  -0.000  -0.000  -0.000  -0.000
  0.000 -28.224   0.000  -0.000   6.052  -0.000  -0.000  -0.000
  0.000   0.000 -28.225  -0.000  -0.000   6.053  -0.000  -0.000
  6.052  -0.000  -0.000   4.188   0.000   0.000   0.000   0.000
 -0.000   6.052  -0.000   0.000   4.188   0.000  -0.000   0.000
 -0.000  -0.000   6.053   0.000   0.000   4.187   0.000  -0.000
 -0.000  -0.000  -0.000   0.000  -0.000   0.000  -6.405   0.000
 -0.000  -0.000  -0.000   0.000   0.000  -0.000   0.000  -6.405
  0.000  -0.000   0.000  -0.000   0.000  -0.000  -0.000   0.000
 -0.000  -0.000  -0.000  -0.000   0.000   0.000   0.000   0.000
  0.000  -0.000   0.000  -0.000   0.000  -0.000  -0.000  -0.000
 -0.000  -0.000  -0.000   0.000  -0.000   0.000  -7.271   0.000
 -0.000  -0.000  -0.000   0.000   0.000  -0.000   0.000  -7.271
  0.000  -0.000   0.000  -0.000   0.000  -0.000  -0.000   0.000
 -0.000  -0.000  -0.000  -0.000   0.000   0.000   0.000   0.000
  0.000  -0.000   0.000  -0.000   0.000  -0.000  -0.000  -0.000
  0.000   0.000   0.000  -0.000  -0.000   0.000  -0.000  -0.000
 -0.000  -0.000  -0.000  -0.000  -0.000  -0.000   0.000   0.000
 total augmentation occupancy for first ion, spin component:           1
  1.993   0.000   0.000  -0.015  -0.000  -0.000  -0.000   0.000   0.000  -0.000   0.000  -0.000   0.000   0.000   0.000   0.000
  0.000   1.993   0.000  -0.000  -0.015  -0.000   0.000   0.000  -0.000   0.000   0.000   0.000  -0.000   0.000   0.000   0.000
  0.000   0.000   1.993  -0.000  -0.000  -0.015   0.000   0.000   0.000   0.000  -0.000  -0.000   0.000   0.000   0.000  -0.000
 -0.015  -0.000  -0.000   0.201   0.000   0.000   0.000   0.000   0.000  -0.000   0.000   0.000   0.000   0.000  -0.000   0.000
 -0.000  -0.015  -0.000   0.000   0.201   0.000   0.000   0.000   0.000   0.000   0.000   0.000   0.000   0.000   0.000   0.000
 -0.000  -0.000  -0.015   0.000   0.000   0.198   0.000   0.000   0.000   0.000   0.000   0.000   0.000   0.000   0.000   0.000
 -0.000   0.000  -0.000   0.000   0.000   0.000   5.765   0.000  -0.000   0.000   0.000  -3.176  -0.000   0.000  -0.000  -0.000
  0.000   0.000   0.000   0.000   0.000   0.000   0.000   5.688   0.000   0.000  -0.000  -0.000  -3.140  -0.000  -0.000   0.000
  0.000   0.000   0.000   0.000   0.000   0.000  -0.000   0.000   5.402   0.000   0.040   0.000  -0.000  -3.154  -0.000  -0.020
  0.000   0.000  -0.000   0.000   0.000   0.000   0.000   0.000   0.000   5.765   0.000  -0.000  -0.000  -0.000  -3.176  -0.000
 -0.000   0.000   0.000   0.000   0.000   0.000   0.000  -0.000   0.040   0.000   5.355  -0.000   0.000  -0.020  -0.000  -3.131
 -0.000   0.000   0.000   0.000   0.000   0.000  -3.176  -0.000   0.000  -0.000  -0.000   1.786   0.000  -0.000   0.000  -0.000
  0.000   0.000   0.000   0.000   0.000   0.000  -0.000  -3.140  -0.000  -0.000   0.000   0.000   1.769   0.000   0.000  -0.000
  0.000   0.000   0.000   0.000   0.000   0.000   0.000  -0.000  -3.154  -0.000  -0.020  -0.000   0.000   1.860   0.000   0.010
  0.000  -0.000  -0.000   0.000   0.000   0.000  -0.000  -0.000  -0.000  -3.176  -0.000   0.000   0.000   0.000   1.786   0.000
  0.000   0.000  -0.000  -0.000   0.000  -0.000  -0.000   0.000  -0.020  -0.000  -3.131  -0.000  -0.000   0.010   0.000   1.848
  0.000   0.000   0.000   0.000   0.000   0.000   0.000   0.000   0.008  -0.000  -0.014  -0.000  -0.000  -0.004  -0.000   0.008
  0.000  -0.000  -0.000   0.000   0.000   0.000  -0.000   0.000   0.000  -0.000  -0.000  -0.000   0.000  -0.000  -0.000   0.000
 total augmentation occupancy for first ion, spin component:           2
  0.000   0.000   0.000   0.000   0.000   0.000   0.000   0.000   0.000   0.000   0.000  -0.000   0.000   0.000   0.000  -0.000
  0.000   0.000   0.000   0.000   0.000   0.000   0.000   0.000   0.000   0.000   0.000   0.000  -0.000  -0.000   0.000   0.000
  0.000   0.000   0.000   0.000   0.000   0.000   0.000   0.000   0.000  -0.000   0.000   0.000   0.000   0.000  -0.000   0.000
  0.000   0.000   0.000  -0.000  -0.000  -0.000   0.000   0.000   0.000   0.000   0.000   0.000   0.000   0.000   0.000  -0.000
  0.000   0.000   0.000  -0.000  -0.000  -0.000  -0.000   0.000   0.000   0.000  -0.000   0.000   0.000   0.000  -0.000  -0.000
  0.000   0.000   0.000  -0.000  -0.000  -0.000   0.000   0.000   0.000   0.000   0.000   0.000   0.000   0.000   0.000   0.000
  0.000   0.000   0.000   0.000  -0.000   0.000  -0.003  -0.000   0.000  -0.000   0.000   0.001   0.000  -0.000   0.000  -0.000
  0.000   0.000  -0.000   0.000   0.000   0.000  -0.000  -0.004  -0.000  -0.000   0.000   0.000   0.003   0.000   0.000  -0.000
  0.000   0.000   0.000   0.000   0.000   0.000   0.000  -0.000  -0.006  -0.000  -0.000  -0.000   0.000   0.004  -0.000   0.000
 -0.000  -0.000  -0.000   0.000   0.000   0.000  -0.000  -0.000  -0.000  -0.003  -0.000   0.000   0.000  -0.000   0.001   0.000
  0.000   0.000   0.000   0.000  -0.000   0.000   0.000   0.000  -0.000  -0.000  -0.005  -0.000  -0.000   0.000   0.000   0.004
  0.000  -0.000  -0.000   0.000   0.000   0.000   0.001   0.000  -0.000   0.000  -0.000  -0.001  -0.000   0.000  -0.000   0.000
  0.000   0.000  -0.000   0.000   0.000   0.000   0.000   0.003   0.000   0.000  -0.000  -0.000  -0.001   0.000  -0.000   0.000
  0.000   0.000   0.000   0.000   0.000   0.000  -0.000  -0.000   0.004  -0.000   0.000   0.000   0.000  -0.003   0.000  -0.000
  0.000   0.000  -0.000   0.000   0.000   0.000   0.000   0.000  -0.000   0.001   0.000  -0.000  -0.000   0.000  -0.001  -0.000
  0.000   0.000  -0.000   0.000   0.000   0.000  -0.000  -0.000   0.000   0.000   0.004   0.000   0.000  -0.000  -0.000  -0.003
 -0.000  -0.000   0.000   0.000   0.000   0.000  -0.000   0.000   0.000  -0.000  -0.000   0.000  -0.000  -0.000  -0.000   0.000
 -0.000   0.000   0.000   0.000   0.000   0.000  -0.000   0.000  -0.000   0.000   0.000   0.000   0.000   0.000  -0.000  -0.000


------------------------ aborting loop because EDIFF is reached ----------------------------------------





 total charge

# of ion       s       p       d       tot
------------------------------------------
    1        0.412   6.283   3.048   9.743
    2        0.412   6.283   3.048   9.743
--------------------------------------------------
tot          0.824  12.567   6.095  19.486



 magnetization (x)

# of ion       s       p       d       tot
------------------------------------------
    1       -0.000  -0.000  -0.001  -0.001
    2       -0.000  -0.000  -0.001  -0.001
--------------------------------------------------
tot         -0.000  -0.000  -0.002  -0.002

    CHARGE:  cpu time     25.4672: real time      1.3744
    FORLOC:  cpu time      0.0024: real time      0.0024
    FORNL :  cpu time    120.6191: real time      6.3918
    STRESS:  cpu time    345.4750: real time     18.2466
    FORCOR:  cpu time      1.4972: real time      0.1203
    FORHAR:  cpu time      0.1683: real time      0.0109
    MIXING:  cpu time      0.1234: real time      0.0030
    OFIELD:  cpu time      0.0000: real time      0.0000

  FORCE on cell =-STRESS in cart. coord.  units (eV):
  Direction    XX          YY          ZZ          XY          YZ          ZX
  --------------------------------------------------------------------------------------
  Alpha Z   242.17886   242.17886   242.17886
  Ewald    -633.26729  -631.52556  -631.52556    -0.00000     0.00000     0.00000
  Hartree    82.92987    83.85369    83.85369    -0.00000    -0.00000    -0.00000
  E(xc)     -94.86363   -94.86013   -94.86013    -0.00000     0.00000     0.00000
  Local     204.44131   201.65550   201.65550     0.00000    -0.00000    -0.00000
  n-local   -84.60856   -87.90764   -80.76485     1.88775     0.93195    -0.33179
  augment    53.68133    53.67807    53.67807     0.00000     0.00000     0.00000
  Kinetic   228.25430   222.11583   235.36266     1.42275     0.07827    -1.10058
  Fock        0.00000     0.00000     0.00000     0.00000     0.00000     0.00000
  -------------------------------------------------------------------------------------
  Total      -1.25381    -0.61658    -0.61658    -0.00000     0.00000     0.00000
  in kB     -53.73170   -26.42320   -26.42320    -0.00000     0.00000     0.00000
  external pressure =      -35.53 kB  Pullay stress =        0.00 kB


 VOLUME and BASIS-vectors are now :
 -----------------------------------------------------------------------------
  energy-cutoff  :      520.00
  volume of cell :       37.39
      direct lattice vectors                 reciprocal lattice vectors
     3.388214924  0.000000000  0.000000000     0.295140663 -0.000000000  0.000000000
     0.000000000  3.321779337  0.000000000     0.000000000  0.301043477  0.000000000
     0.000000000  0.000000000  3.321779337    -0.000000000 -0.000000000  0.301043477

  length of vectors
     3.388214924  3.321779337  3.321779337     0.295140663  0.301043477  0.301043477


 FORCES acting on ions
    electron-ion (+dipol)            ewald-force                    non-local-force                 convergence-correction
 -----------------------------------------------------------------------------------------------
   -.956E-14 -.132E-13 -.160E-13   -.253E-14 -.137E-14 -.171E-14   0.376E-21 -.243E-22 -.221E-21   -.156E-13 -.148E-13 0.310E-13
   0.120E-12 0.152E-11 0.164E-11   0.278E-14 0.423E-14 0.520E-14   0.240E-21 -.621E-22 -.350E-22   -.322E-13 -.445E-13 -.310E-13
 -----------------------------------------------------------------------------------------------
   0.111E-12 0.150E-11 0.162E-11   0.248E-15 0.286E-14 0.348E-14   0.616E-21 -.863E-22 -.256E-21   -.477E-13 -.593E-13 0.374E-16


 POSITION                                       TOTAL-FORCE (eV/Angst)
 -----------------------------------------------------------------------------------
      0.00000      0.00000      0.00000        -0.000000      0.000000      0.000000
      1.69411      1.66089      1.66089         0.000000     -0.000000     -0.000000
 -----------------------------------------------------------------------------------
    total drift:                                0.000000      0.000000      0.000000


--------------------------------------------------------------------------------------------------------



  FREE ENERGIE OF THE ION-ELECTRON SYSTEM (eV)
  ---------------------------------------------------
  free  energy   TOTEN  =       -20.19702251 eV

  energy  without entropy=      -20.19702251  energy(sigma->0) =      -20.19702251



--------------------------------------------------------------------------------------------------------


    POTLOK:  cpu time      3.2698: real time      0.4165


--------------------------------------------------------------------------------------------------------


     LOOP+:  cpu time   4975.9939: real time    263.6763
 -----------------------------------------------------------------------------
|                                                                             |
|           W    W    AA    RRRRR   N    N  II  N    N   GGGG   !!!           |
|           W    W   A  A   R    R  NN   N  II  NN   N  G    G  !!!           |
|           W    W  A    A  R    R  N N  N  II  N N  N  G       !!!           |
|           W WW W  AAAAAA  RRRRR   N  N N  II  N  N N  G  GGG   !            |
|           WW  WW  A    A  R   R   N   NN  II  N   NN  G    G                |
|           W    W  A    A  R    R  N    N  II  N    N   GGGG   !!!           |
|                                                                             |
|     Tetrahedron method does not include variations of the Fermi             |
|     occupations, so forces and stress will be inaccurate. We suggest        |
|     using a different smearing scheme ISMEAR = 1 or 2 for metals in         |
|     relaxations.                                                            |
|                                                                             |
 -----------------------------------------------------------------------------

    4ORBIT:  cpu time      0.0000: real time      0.0000



 total charge

# of ion       s       p       d       tot
------------------------------------------
    1        0.412   6.283   3.048   9.743
    2        0.412   6.283   3.048   9.743
--------------------------------------------------
tot          0.824  12.567   6.095  19.486



 magnetization (x)

# of ion       s       p       d       tot
------------------------------------------
    1       -0.000  -0.000  -0.001  -0.001
    2       -0.000  -0.000  -0.001  -0.001
--------------------------------------------------
tot         -0.000  -0.000  -0.002  -0.002

 BZINTS: Fermi energy:    4.696018;   22.000000 electrons
         Band energy:-0.278024E+03;  BLOECHL correction:   -0.203473

 total amount of memory used by VASP MPI-rank0    78802. kBytes
=======================================================================

   base      :      30000. kBytes
   nonlr-proj:       6125. kBytes
   fftplans  :       6192. kBytes
   grid      :      14776. kBytes
   one-center:         62. kBytes
   wavefun   :      21647. kBytes

  
  
 General timing and accounting informations for this job:
 ========================================================
  
                  Total CPU time used (sec):     5026.073
                            User time (sec):     4889.494
                          System time (sec):      136.579
                         Elapsed time (sec):      266.877
  
                   Maximum memory used (kb):      313416.
                   Average memory used (kb):          N/A
  
                          Minor page faults:      4417420
                          Major page faults:          131
                 Voluntary context switches:      1526900
