 vasp.6.4.1 05Apr23 (build Jul 24 2024 14:19:02) complex                         
 executed on             LinuxGNU date 2024.10.23  16:15:23
 running    1 mpi-ranks, with   24 threads/rank, on    1 nodes
 distrk:  each k-point on    1 cores,    1 groups
 distr:  one band on NCORE=   1 cores,    1 groups


--------------------------------------------------------------------------------------------------------


 INCAR:
   ISTART = 0
   ALGO = Fast
   EDIFF = 0.0001
   ENCUT = 520
   IBRION = -1
   ISIF = 2
   ISMEAR = -5
   ISPIN = 2
   LASPH = True
   LMAXMIX = 6
   LORBIT = 11
   LREAL = Auto
   LWAVE = False
   MAGMOM = 2*0.6
   NELM = 100
   NSW = 0
   PREC = Accurate
   SIGMA = 0.05

 POTCAR:    PAW_PBE Nb_pv 08Apr2002               
 POTCAR:    PAW_PBE Nb_pv 08Apr2002               
   SHA256 =  bac2b60850b34f8515cf56f9feae68b678e347865051052a0e1f5d2c6a691c0a Nb_pv/POTCAR          
   COPYR  = (c) Copyright 08Apr2002 Georg Kresse                                                    
   COPYR  = This file is part of the software VASP. Any use, copying, and all other rights are regul
   COPYR  = If you do not have a valid VASP license, you may not use, copy or distribute this file. 
   VRHFIN =Nb: 4p5s4d                                                                               
   LEXCH  = PE                                                                                      
   EATOM  =  1043.3917 eV,   76.6871 Ry                                                             
                                                                                                    
   TITEL  = PAW_PBE Nb_pv 08Apr2002                                                                 
   LULTRA =        F    use ultrasoft PP ?                                                          
   IUNSCR =        1    unscreen: 0-lin 1-nonlin 2-no                                               
   RPACOR =    2.200    partial core radius                                                         
   POMASS =   92.000; ZVAL   =   11.000    mass and valenz                                          
   RCORE  =    2.750    outmost cutoff radius                                                       
   RWIGS  =    2.840; RWIGS  =    1.503    wigner-seitz radius (au A)                               
   ENMAX  =  208.608; ENMIN  =  156.456 eV                                                          
   RCLOC  =    2.201    cutoff for local pot                                                        
   LCOR   =        T    correct aug charges                                                         
   LPAW   =        T    paw PP                                                                      
   EAUG   =  355.067                                                                                
   DEXC   =    0.000                                                                                
   RMAX   =    2.804    core radius for proj-oper                                                   
   RAUG   =    1.300    factor for augmentation sphere                                              
   RDEP   =    2.776    radius for radial grids                                                     
   RDEPT  =    2.198    core radius for aug-charge                                                  
                                                                                                    
   Atomic configuration                                                                             
   11 entries                                                                                       
     n  l   j            E        occ.                                                              
     1  0  0.50    -18805.2456   2.0000                                                             
     2  0  0.50     -2630.2869   2.0000                                                             
     2  1  1.50     -2348.4045   6.0000                                                             
     3  0  0.50      -438.8756   2.0000                                                             
     3  1  1.50      -346.7587   6.0000                                                             
     3  2  2.50      -196.2559  10.0000                                                             
     4  0  0.50       -58.3859   2.0000                                                             
     4  1  1.50       -34.5141   6.0000                                                             
     4  2  2.50        -3.0408   4.0000                                                             
     5  0  0.50        -3.9816   1.0000                                                             
     4  3  2.50        -1.3606   0.0000                                                             
   Description                                                                                      
     l       E           TYP  RCUT    TYP  RCUT                                                     
     1    -34.5140617     23  2.600                                                                 
     1     -1.3605826     23  2.600                                                                 
     2     -3.0407924     23  2.600                                                                 
     2     -1.4463597     23  2.600                                                                 
     0     -3.9816219     23  2.750                                                                 
     0     20.4087390     23  2.750                                                                 
  local pseudopotential read in
  partial core-charges read in
  partial kinetic energy density read in
  atomic valenz-charges read in
  non local Contribution for L=           1  read in
    real space projection operators read in
  non local Contribution for L=           1  read in
    real space projection operators read in
  non local Contribution for L=           2  read in
    real space projection operators read in
  non local Contribution for L=           2  read in
    real space projection operators read in
  non local Contribution for L=           0  read in
    real space projection operators read in
  non local Contribution for L=           0  read in
    real space projection operators read in
    PAW grid and wavefunctions read in

   number of l-projection  operators is LMAX  =           6
   number of lm-projection operators is LMMAX =          18

 -----------------------------------------------------------------------------
|                                                                             |
|               ----> ADVICE to this user running VASP <----                  |
|                                                                             |
|     You have a (more or less) 'small supercell' and for smaller cells       |
|     it is recommended to use the reciprocal-space projection scheme!        |
|     The real-space optimization is not efficient for small cells and it     |
|     is also less accurate ...                                               |
|     Therefore, set LREAL=.FALSE. in the INCAR file.                         |
|                                                                             |
 -----------------------------------------------------------------------------

 Optimization of the real space projectors (new method)

 maximal supplied QI-value         = 13.61
 optimisation between [QCUT,QGAM] = [ 11.57, 23.27] = [ 37.45,151.59] Ry 
 Optimized for a Real-space Cutoff    1.63 Angstroem

   l    n(q)    QCUT    max X(q) W(low)/X(q) W(high)/X(q)  e(spline) 
   1     11    11.565     4.545    0.12E-04    0.18E-04    0.64E-07
   1     11    11.565     6.014    0.42E-04    0.48E-04    0.13E-06
   2     10    11.565   266.542    0.24E-03    0.87E-04    0.13E-05
   2     10    11.565   232.726    0.24E-03    0.87E-04    0.13E-05
   0     11    11.565    38.050    0.76E-04    0.32E-05    0.94E-06
   0     11    11.565    16.565    0.58E-04    0.25E-05    0.73E-06
  PAW_PBE Nb_pv 08Apr2002               :
 energy of atom  1       EATOM=-1043.3917
 kinetic energy error for atom=    0.0011 (will be added to EATOM!!)


 POSCAR: Generated POSCAR
  positions in direct lattice
  velocities in cartesian coordinates
 exchange correlation table for  LEXCH =        8
   RHO(1)=    0.500       N(1)  =     2000
   RHO(2)=  100.500       N(2)  =     4000



--------------------------------------------------------------------------------------------------------


 ion  position               nearest neighbor table
   1  0.000  0.000  0.000-   2 2.88   2 2.88   2 2.88   2 2.88   2 2.88   2 2.88   2 2.88   2 2.88

   2  0.500  0.500  0.500-   1 2.88   1 2.88   1 2.88   1 2.88   1 2.88   1 2.88   1 2.88   1 2.88


  LATTYP: Found a simple orthorhombic cell.
 ALAT       =     3.2557779118
 B/A-ratio  =     1.0204081633
 C/A-ratio  =     1.0408163265
  
  Lattice vectors:
  
 A1 = (   0.0000000000,   0.0000000000,   3.2557779118)
 A2 = (   3.3222223590,   0.0000000000,   0.0000000000)
 A3 = (   0.0000000000,   3.3886668061,   0.0000000000)


Analysis of symmetry for initial positions (statically):
=====================================================================
 Subroutine PRICEL returns following result:
 
  LATTYP: Found a body centered orthorhombic cell.
 ALAT       =     3.2557779118
 B/A-ratio  =     1.0204081633
 C/A-ratio  =     1.0408163265
  
  Lattice vectors:
  
 A1 = (   1.6611111795,   1.6943334031,  -1.6278889559)
 A2 = (  -1.6611111795,   1.6943334031,   1.6278889559)
 A3 = (   1.6611111795,  -1.6943334031,   1.6278889559)
 
   2 primitive cells build up your supercell.
 

 Routine SETGRP: Setting up the symmetry group for a 
 simple orthorhombic supercell.


 Subroutine GETGRP returns: Found  8 space group operations
 (whereof  8 operations were pure point group operations)
 out of a pool of  8 trial point group operations.


The static configuration has the point symmetry D_2h.


Analysis of symmetry for dynamics (positions and initial velocities):
=====================================================================
 Subroutine PRICEL returns following result:
 
  LATTYP: Found a body centered orthorhombic cell.
 ALAT       =     3.2557779118
 B/A-ratio  =     1.0204081633
 C/A-ratio  =     1.0408163265
  
  Lattice vectors:
  
 A1 = (   1.6611111795,   1.6943334031,  -1.6278889559)
 A2 = (  -1.6611111795,   1.6943334031,   1.6278889559)
 A3 = (   1.6611111795,  -1.6943334031,   1.6278889559)
 
   2 primitive cells build up your supercell.
 

 Routine SETGRP: Setting up the symmetry group for a 
 simple orthorhombic supercell.


 Subroutine GETGRP returns: Found  8 space group operations
 (whereof  8 operations were pure point group operations)
 out of a pool of  8 trial point group operations.


The dynamic configuration has the point symmetry D_2h.


Analysis of structural, dynamic, and magnetic symmetry:
=====================================================================
 Subroutine PRICEL returns following result:
 
  LATTYP: Found a body centered orthorhombic cell.
 ALAT       =     3.2557779118
 B/A-ratio  =     1.0204081633
 C/A-ratio  =     1.0408163265
  
  Lattice vectors:
  
 A1 = (   1.6611111795,   1.6943334031,  -1.6278889559)
 A2 = (  -1.6611111795,   1.6943334031,   1.6278889559)
 A3 = (   1.6611111795,  -1.6943334031,   1.6278889559)
 
   2 primitive cells build up your supercell.
 

 Routine SETGRP: Setting up the symmetry group for a 
 simple orthorhombic supercell.


 Subroutine GETGRP returns: Found  8 space group operations
 (whereof  8 operations were pure point group operations)
 out of a pool of  8 trial point group operations.


The overall configuration has the point symmetry D_2h.


 Subroutine INISYM returns: Found  8 space group operations
 (whereof  8 operations are pure point group operations),
 and found     2 'primitive' translations


----------------------------------------------------------------------------------------

                                     Primitive cell                                     

  volume of cell :      18.3266

  direct lattice vectors                    reciprocal lattice vectors
     1.661111179  1.694333403 -1.627888956     0.301003332  0.295101306 -0.000000000
    -1.661111179  1.694333403  1.627888956     0.000000000  0.295101306  0.307146257
     1.661111179 -1.694333403  1.627888956     0.301003332 -0.000000000  0.307146257

  length of vectors
     2.877512552  2.877512552  2.877512552     0.421530292  0.425938498  0.430048636

  position of ions in fractional coordinates (direct lattice)
     0.000000000  0.000000000  0.000000000

  ion indices of the primitive-cell ions
   primitive index   ion index
                 1           1

----------------------------------------------------------------------------------------



 KPOINTS: pymatgen with grid density = 869 / numbe

Automatic generation of k-mesh.
 Grid dimensions read from file:
 generate k-points for:    7    7    7

 Generating k-lattice:

  Cartesian coordinates                     Fractional coordinates (reciprocal lattice)
     0.043000476 -0.000000000  0.000000000     0.142857143  0.000000000  0.000000000
     0.000000000  0.042157329  0.000000000     0.000000000  0.142857143  0.000000000
    -0.000000000 -0.000000000  0.043878037     0.000000000  0.000000000  0.142857143

  Length of vectors
     0.043000476  0.042157329  0.043878037

  Shift w.r.t. Gamma in fractional coordinates (k-lattice)
     0.000000000  0.000000000  0.000000000

 TETIRR: Found   1000 inequivalent tetrahedra from     2058
 
 Subroutine IBZKPT returns following result:
 ===========================================
 
 Found     64 irreducible k-points:
 
 Following reciprocal coordinates:
            Coordinates               Weight
  0.000000  0.000000  0.000000      1.000000
  0.142857  0.000000  0.000000      2.000000
  0.285714  0.000000  0.000000      2.000000
  0.428571  0.000000  0.000000      2.000000
  0.000000  0.142857  0.000000      2.000000
  0.142857  0.142857  0.000000      4.000000
  0.285714  0.142857  0.000000      4.000000
  0.428571  0.142857  0.000000      4.000000
  0.000000  0.285714  0.000000      2.000000
  0.142857  0.285714  0.000000      4.000000
  0.285714  0.285714  0.000000      4.000000
  0.428571  0.285714  0.000000      4.000000
  0.000000  0.428571  0.000000      2.000000
  0.142857  0.428571  0.000000      4.000000
  0.285714  0.428571  0.000000      4.000000
  0.428571  0.428571  0.000000      4.000000
  0.000000  0.000000  0.142857      2.000000
  0.142857  0.000000  0.142857      4.000000
  0.285714  0.000000  0.142857      4.000000
  0.428571  0.000000  0.142857      4.000000
  0.000000  0.142857  0.142857      4.000000
  0.142857  0.142857  0.142857      8.000000
  0.285714  0.142857  0.142857      8.000000
  0.428571  0.142857  0.142857      8.000000
  0.000000  0.285714  0.142857      4.000000
  0.142857  0.285714  0.142857      8.000000
  0.285714  0.285714  0.142857      8.000000
  0.428571  0.285714  0.142857      8.000000
  0.000000  0.428571  0.142857      4.000000
  0.142857  0.428571  0.142857      8.000000
  0.285714  0.428571  0.142857      8.000000
  0.428571  0.428571  0.142857      8.000000
  0.000000  0.000000  0.285714      2.000000
  0.142857  0.000000  0.285714      4.000000
  0.285714  0.000000  0.285714      4.000000
  0.428571  0.000000  0.285714      4.000000
  0.000000  0.142857  0.285714      4.000000
  0.142857  0.142857  0.285714      8.000000
  0.285714  0.142857  0.285714      8.000000
  0.428571  0.142857  0.285714      8.000000
  0.000000  0.285714  0.285714      4.000000
  0.142857  0.285714  0.285714      8.000000
  0.285714  0.285714  0.285714      8.000000
  0.428571  0.285714  0.285714      8.000000
  0.000000  0.428571  0.285714      4.000000
  0.142857  0.428571  0.285714      8.000000
  0.285714  0.428571  0.285714      8.000000
  0.428571  0.428571  0.285714      8.000000
  0.000000  0.000000  0.428571      2.000000
  0.142857  0.000000  0.428571      4.000000
  0.285714  0.000000  0.428571      4.000000
  0.428571  0.000000  0.428571      4.000000
  0.000000  0.142857  0.428571      4.000000
  0.142857  0.142857  0.428571      8.000000
  0.285714  0.142857  0.428571      8.000000
  0.428571  0.142857  0.428571      8.000000
  0.000000  0.285714  0.428571      4.000000
  0.142857  0.285714  0.428571      8.000000
  0.285714  0.285714  0.428571      8.000000
  0.428571  0.285714  0.428571      8.000000
  0.000000  0.428571  0.428571      4.000000
  0.142857  0.428571  0.428571      8.000000
  0.285714  0.428571  0.428571      8.000000
  0.428571  0.428571  0.428571      8.000000
 
 Following cartesian coordinates:
            Coordinates               Weight
  0.000000  0.000000  0.000000      1.000000
  0.043000  0.000000  0.000000      2.000000
  0.086001  0.000000  0.000000      2.000000
  0.129001  0.000000  0.000000      2.000000
  0.000000  0.042157  0.000000      2.000000
  0.043000  0.042157  0.000000      4.000000
  0.086001  0.042157  0.000000      4.000000
  0.129001  0.042157  0.000000      4.000000
  0.000000  0.084315  0.000000      2.000000
  0.043000  0.084315  0.000000      4.000000
  0.086001  0.084315  0.000000      4.000000
  0.129001  0.084315  0.000000      4.000000
  0.000000  0.126472  0.000000      2.000000
  0.043000  0.126472  0.000000      4.000000
  0.086001  0.126472  0.000000      4.000000
  0.129001  0.126472  0.000000      4.000000
  0.000000  0.000000  0.043878      2.000000
  0.043000  0.000000  0.043878      4.000000
  0.086001  0.000000  0.043878      4.000000
  0.129001  0.000000  0.043878      4.000000
  0.000000  0.042157  0.043878      4.000000
  0.043000  0.042157  0.043878      8.000000
  0.086001  0.042157  0.043878      8.000000
  0.129001  0.042157  0.043878      8.000000
  0.000000  0.084315  0.043878      4.000000
  0.043000  0.084315  0.043878      8.000000
  0.086001  0.084315  0.043878      8.000000
  0.129001  0.084315  0.043878      8.000000
  0.000000  0.126472  0.043878      4.000000
  0.043000  0.126472  0.043878      8.000000
  0.086001  0.126472  0.043878      8.000000
  0.129001  0.126472  0.043878      8.000000
  0.000000  0.000000  0.087756      2.000000
  0.043000  0.000000  0.087756      4.000000
  0.086001  0.000000  0.087756      4.000000
  0.129001  0.000000  0.087756      4.000000
  0.000000  0.042157  0.087756      4.000000
  0.043000  0.042157  0.087756      8.000000
  0.086001  0.042157  0.087756      8.000000
  0.129001  0.042157  0.087756      8.000000
  0.000000  0.084315  0.087756      4.000000
  0.043000  0.084315  0.087756      8.000000
  0.086001  0.084315  0.087756      8.000000
  0.129001  0.084315  0.087756      8.000000
  0.000000  0.126472  0.087756      4.000000
  0.043000  0.126472  0.087756      8.000000
  0.086001  0.126472  0.087756      8.000000
  0.129001  0.126472  0.087756      8.000000
  0.000000  0.000000  0.131634      2.000000
  0.043000  0.000000  0.131634      4.000000
  0.086001  0.000000  0.131634      4.000000
  0.129001  0.000000  0.131634      4.000000
  0.000000  0.042157  0.131634      4.000000
  0.043000  0.042157  0.131634      8.000000
  0.086001  0.042157  0.131634      8.000000
  0.129001  0.042157  0.131634      8.000000
  0.000000  0.084315  0.131634      4.000000
  0.043000  0.084315  0.131634      8.000000
  0.086001  0.084315  0.131634      8.000000
  0.129001  0.084315  0.131634      8.000000
  0.000000  0.126472  0.131634      4.000000
  0.043000  0.126472  0.131634      8.000000
  0.086001  0.126472  0.131634      8.000000
  0.129001  0.126472  0.131634      8.000000
 


--------------------------------------------------------------------------------------------------------




 Dimension of arrays:
   k-points           NKPTS =     64   k-points in BZ     NKDIM =     64   number of bands    NBANDS=     16
   number of dos      NEDOS =    301   number of ions     NIONS =      2
   non local maximal  LDIM  =      6   non local SUM 2l+1 LMDIM =     18
   total plane-waves  NPLWV =  18816
   max r-space proj   IRMAX =   9315   max aug-charges    IRDMAX=  31802
   dimension x,y,z NGX =    28 NGY =   28 NGZ =   24
   dimension x,y,z NGXF=    56 NGYF=   56 NGZF=   48
   support grid    NGXF=    56 NGYF=   56 NGZF=   48
   ions per type =               2
   NGX,Y,Z   is equivalent  to a cutoff of  14.01, 13.74, 12.25 a.u.
   NGXF,Y,Z  is equivalent  to a cutoff of  28.02, 27.47, 24.51 a.u.

 SYSTEM =  unknown system                          
 POSCAR =  Generated POSCAR                        

 Startparameter for this run:
   NWRITE =      2    write-flag & timer
   PREC   = accura    normal or accurate (medium, high low for compatibility)
   ISTART =      0    job   : 0-new  1-cont  2-samecut
   ICHARG =      2    charge: 1-file 2-atom 10-const
   ISPIN  =      2    spin polarized calculation?
   LNONCOLLINEAR =      F non collinear calculations
   LSORBIT =      F    spin-orbit coupling
   INIWAV =      1    electr: 0-lowe 1-rand  2-diag
   LASPH  =      T    aspherical Exc in radial PAW
 Electronic Relaxation 1
   ENCUT  =  520.0 eV  38.22 Ry    6.18 a.u.   6.18  6.30  6.05*2*pi/ulx,y,z
   ENINI  =  520.0     initial cutoff
   ENAUG  =  355.1 eV  augmentation charge cutoff
   NELM   =    100;   NELMIN=  2; NELMDL= -5     # of ELM steps 
   EDIFF  = 0.1E-03   stopping-criterion for ELM
   LREAL  =      T    real-space projection
   NLSPLINE    = F    spline interpolate recip. space projectors
   LCOMPAT=      F    compatible to vasp.4.4
   GGA_COMPAT  = T    GGA compatible to vasp.4.4-vasp.4.6
   LMAXPAW     = -100 max onsite density
   LMAXMIX     =    6 max onsite mixed and CHGCAR
   VOSKOWN=      0    Vosko Wilk Nusair interpolation
   ROPT   =   -0.00025
 Ionic relaxation
   EDIFFG = 0.1E-02   stopping-criterion for IOM
   NSW    =      0    number of steps for IOM
   NBLOCK =      1;   KBLOCK =      1    inner block; outer block 
   IBRION =     -1    ionic relax: 0-MD 1-quasi-New 2-CG
   NFREE  =      0    steps in history (QN), initial steepest desc. (CG)
   ISIF   =      2    stress and relaxation
   IWAVPR =     10    prediction:  0-non 1-charg 2-wave 3-comb
   ISYM   =      2    0-nonsym 1-usesym 2-fastsym
   LCORR  =      T    Harris-Foulkes like correction to forces

   POTIM  = 0.5000    time-step for ionic-motion
   TEIN   =    0.0    initial temperature
   TEBEG  =    0.0;   TEEND  =   0.0 temperature during run
   SMASS  =  -3.00    Nose mass-parameter (am)
   estimated Nose-frequenzy (Omega)   =  0.10E-29 period in steps = 0.13E+47 mass=  -0.252E-27a.u.
   SCALEE = 1.0000    scale energy and forces
   NPACO  =    256;   APACO  = 10.0  distance and # of slots for P.C.
   PSTRESS=    0.0 pullay stress

  Mass of Ions in am
   POMASS =  92.00
  Ionic Valenz
   ZVAL   =  11.00
  Atomic Wigner-Seitz radii
   RWIGS  =  -1.00
  virtual crystal weights 
   VCA    =   1.00
   NELECT =      22.0000    total number of electrons
   NUPDOWN=      -1.0000    fix difference up-down

 DOS related values:
   EMIN   =  10.00;   EMAX   =-10.00  energy-range for DOS
   EFERMI =   0.00;   METHOD = LEGACY      
   ISMEAR =    -5;   SIGMA  =   0.05  broadening in eV -4-tet -1-fermi 0-gaus

 Electronic relaxation 2 (details)
   IALGO  =     68    algorithm
   LDIAG  =      T    sub-space diagonalisation (order eigenvalues)
   LSUBROT=      F    optimize rotation matrix (better conditioning)
   TURBO    =      0    0=normal 1=particle mesh
   IRESTART =      0    0=no restart 2=restart with 2 vectors
   NREBOOT  =      0    no. of reboots
   NMIN     =      0    reboot dimension
   EREF     =   0.00    reference energy to select bands
   IMIX   =      4    mixing-type and parameters
     AMIX     =   0.40;   BMIX     =  1.00
     AMIX_MAG =   1.60;   BMIX_MAG =  1.00
     AMIN     =   0.10
     WC   =   100.;   INIMIX=   1;  MIXPRE=   1;  MAXMIX= -45

 Intra band minimization:
   WEIMIN = 0.0000     energy-eigenvalue tresh-hold
   EBREAK =  0.16E-05  absolut break condition
   DEPER  =   0.30     relativ break condition  

   TIME   =   0.40     timestep for ELM

  volume/ion in A,a.u.               =      18.33       123.67
  Fermi-wavevector in a.u.,A,eV,Ry     =   1.380951  2.609619 25.946661  1.907026
  Thomas-Fermi vector in A             =   2.505781

 Write flags
   LWAVE        =      F    write WAVECAR
   LDOWNSAMPLE  =      F    k-point downsampling of WAVECAR
   LCHARG       =      T    write CHGCAR
   LVTOT        =      F    write LOCPOT, total local potential
   LVHAR        =      F    write LOCPOT, Hartree potential only
   LELF         =      F    write electronic localiz. function (ELF)
   LORBIT       =     11    0 simple, 1 ext, 2 COOP (PROOUT), +10 PAW based schemes


 Dipole corrections
   LMONO  =      F    monopole corrections only (constant potential shift)
   LDIPOL =      F    correct potential (dipole corrections)
   IDIPOL =      0    1-x, 2-y, 3-z, 4-all directions 
   EPSILON=  1.0000000 bulk dielectric constant

 Exchange correlation treatment:
   GGA     =    --    GGA type
   LEXCH   =     8    internal setting for exchange type
   LIBXC   =     F    Libxc                    
   VOSKOWN =     0    Vosko Wilk Nusair interpolation
   LHFCALC =     F    Hartree Fock is set to
   LHFONE  =     F    Hartree Fock one center treatment
   AEXX    =    0.0000 exact exchange contribution

 Linear response parameters
   LEPSILON=     F    determine dielectric tensor
   LRPA    =     F    only Hartree local field effects (RPA)
   LNABLA  =     F    use nabla operator in PAW spheres
   LVEL    =     F    velocity operator in full k-point grid
   CSHIFT  =0.1000    complex shift for real part using Kramers Kronig
   OMEGAMAX=  -1.0    maximum frequency
   DEG_THRESHOLD= 0.2000000E-02 threshold for treating states as degnerate
   RTIME   =   -0.100 relaxation time in fs
  (WPLASMAI=    0.000 imaginary part of plasma frequency in eV, 0.658/RTIME)
   DFIELD  = 0.0000000 0.0000000 0.0000000 field for delta impulse in time

  Optional k-point grid parameters
   LKPOINTS_OPT  =     F    use optional k-point grid
   KPOINTS_OPT_MODE=     1    mode for optional k-point grid

 Orbital magnetization related:
   ORBITALMAG=     F  switch on orbital magnetization
   LCHIMAG   =     F  perturbation theory with respect to B field
   DQ        =  0.001000  dq finite difference perturbation B field
   LLRAUG    =     F  two centre corrections for induced B field
   LBONE     =     F  B-component reconstruction in AE one-centre
   LVGVCALC  =     T  calculate vGv susceptibility
   LVGVAPPL  =     F  apply vGv susceptibility instead of pGv for G=0

 Random number generation:
   RANDOM_GENERATOR = DEFAULT
   PCG_SEED         = not used


--------------------------------------------------------------------------------------------------------


 Static calculation
 charge density and potential will be updated during run
 spin polarized calculation
 RMM-DIIS sequential band-by-band and
  variant of blocked Davidson during initial phase
 perform sub-space diagonalisation
    before iterative eigenvector-optimisation
 modified Broyden-mixing scheme, WC =      100.0
 initial mixing is a Kerker type mixing with AMIX =  0.4000 and BMIX =      1.0000
 Hartree-type preconditioning will be used
 using additional bands            5
 real space projection scheme for non local part
 use partial core corrections
 calculate Harris-corrections to forces   (improved forces if not selfconsistent)
 use gradient corrections 
 use of overlap-Matrix (Vanderbilt PP)
 Fermi weights with tetrahedron method with Bloechl corrections


--------------------------------------------------------------------------------------------------------


  energy-cutoff  :      520.00
  volume of cell :       36.65
      direct lattice vectors                 reciprocal lattice vectors
     3.322222359  0.000000000  0.000000000     0.301003332 -0.000000000  0.000000000
     0.000000000  3.388666806  0.000000000     0.000000000  0.295101306  0.000000000
     0.000000000  0.000000000  3.255777912    -0.000000000 -0.000000000  0.307146257

  length of vectors
     3.322222359  3.388666806  3.255777912     0.301003332  0.295101306  0.307146257



 k-points in units of 2pi/SCALE and weight: pymatgen with grid density = 869 / numbe
   0.00000000  0.00000000  0.00000000       0.003
   0.04300048  0.00000000  0.00000000       0.006
   0.08600095  0.00000000  0.00000000       0.006
   0.12900143  0.00000000  0.00000000       0.006
   0.00000000  0.04215733  0.00000000       0.006
   0.04300048  0.04215733  0.00000000       0.012
   0.08600095  0.04215733  0.00000000       0.012
   0.12900143  0.04215733  0.00000000       0.012
   0.00000000  0.08431466  0.00000000       0.006
   0.04300048  0.08431466  0.00000000       0.012
   0.08600095  0.08431466  0.00000000       0.012
   0.12900143  0.08431466  0.00000000       0.012
   0.00000000  0.12647199  0.00000000       0.006
   0.04300048  0.12647199  0.00000000       0.012
   0.08600095  0.12647199  0.00000000       0.012
   0.12900143  0.12647199  0.00000000       0.012
   0.00000000  0.00000000  0.04387804       0.006
   0.04300048  0.00000000  0.04387804       0.012
   0.08600095  0.00000000  0.04387804       0.012
   0.12900143  0.00000000  0.04387804       0.012
   0.00000000  0.04215733  0.04387804       0.012
   0.04300048  0.04215733  0.04387804       0.023
   0.08600095  0.04215733  0.04387804       0.023
   0.12900143  0.04215733  0.04387804       0.023
   0.00000000  0.08431466  0.04387804       0.012
   0.04300048  0.08431466  0.04387804       0.023
   0.08600095  0.08431466  0.04387804       0.023
   0.12900143  0.08431466  0.04387804       0.023
   0.00000000  0.12647199  0.04387804       0.012
   0.04300048  0.12647199  0.04387804       0.023
   0.08600095  0.12647199  0.04387804       0.023
   0.12900143  0.12647199  0.04387804       0.023
   0.00000000  0.00000000  0.08775607       0.006
   0.04300048  0.00000000  0.08775607       0.012
   0.08600095  0.00000000  0.08775607       0.012
   0.12900143  0.00000000  0.08775607       0.012
   0.00000000  0.04215733  0.08775607       0.012
   0.04300048  0.04215733  0.08775607       0.023
   0.08600095  0.04215733  0.08775607       0.023
   0.12900143  0.04215733  0.08775607       0.023
   0.00000000  0.08431466  0.08775607       0.012
   0.04300048  0.08431466  0.08775607       0.023
   0.08600095  0.08431466  0.08775607       0.023
   0.12900143  0.08431466  0.08775607       0.023
   0.00000000  0.12647199  0.08775607       0.012
   0.04300048  0.12647199  0.08775607       0.023
   0.08600095  0.12647199  0.08775607       0.023
   0.12900143  0.12647199  0.08775607       0.023
   0.00000000  0.00000000  0.13163411       0.006
   0.04300048  0.00000000  0.13163411       0.012
   0.08600095  0.00000000  0.13163411       0.012
   0.12900143  0.00000000  0.13163411       0.012
   0.00000000  0.04215733  0.13163411       0.012
   0.04300048  0.04215733  0.13163411       0.023
   0.08600095  0.04215733  0.13163411       0.023
   0.12900143  0.04215733  0.13163411       0.023
   0.00000000  0.08431466  0.13163411       0.012
   0.04300048  0.08431466  0.13163411       0.023
   0.08600095  0.08431466  0.13163411       0.023
   0.12900143  0.08431466  0.13163411       0.023
   0.00000000  0.12647199  0.13163411       0.012
   0.04300048  0.12647199  0.13163411       0.023
   0.08600095  0.12647199  0.13163411       0.023
   0.12900143  0.12647199  0.13163411       0.023

 k-points in reciprocal lattice and weights: pymatgen with grid density = 869 / numbe
   0.00000000  0.00000000  0.00000000       0.003
   0.14285714  0.00000000  0.00000000       0.006
   0.28571429  0.00000000  0.00000000       0.006
   0.42857143  0.00000000  0.00000000       0.006
   0.00000000  0.14285714  0.00000000       0.006
   0.14285714  0.14285714  0.00000000       0.012
   0.28571429  0.14285714  0.00000000       0.012
   0.42857143  0.14285714  0.00000000       0.012
   0.00000000  0.28571429  0.00000000       0.006
   0.14285714  0.28571429  0.00000000       0.012
   0.28571429  0.28571429  0.00000000       0.012
   0.42857143  0.28571429  0.00000000       0.012
   0.00000000  0.42857143  0.00000000       0.006
   0.14285714  0.42857143  0.00000000       0.012
   0.28571429  0.42857143  0.00000000       0.012
   0.42857143  0.42857143  0.00000000       0.012
   0.00000000  0.00000000  0.14285714       0.006
   0.14285714  0.00000000  0.14285714       0.012
   0.28571429  0.00000000  0.14285714       0.012
   0.42857143  0.00000000  0.14285714       0.012
   0.00000000  0.14285714  0.14285714       0.012
   0.14285714  0.14285714  0.14285714       0.023
   0.28571429  0.14285714  0.14285714       0.023
   0.42857143  0.14285714  0.14285714       0.023
   0.00000000  0.28571429  0.14285714       0.012
   0.14285714  0.28571429  0.14285714       0.023
   0.28571429  0.28571429  0.14285714       0.023
   0.42857143  0.28571429  0.14285714       0.023
   0.00000000  0.42857143  0.14285714       0.012
   0.14285714  0.42857143  0.14285714       0.023
   0.28571429  0.42857143  0.14285714       0.023
   0.42857143  0.42857143  0.14285714       0.023
   0.00000000  0.00000000  0.28571429       0.006
   0.14285714  0.00000000  0.28571429       0.012
   0.28571429  0.00000000  0.28571429       0.012
   0.42857143  0.00000000  0.28571429       0.012
   0.00000000  0.14285714  0.28571429       0.012
   0.14285714  0.14285714  0.28571429       0.023
   0.28571429  0.14285714  0.28571429       0.023
   0.42857143  0.14285714  0.28571429       0.023
   0.00000000  0.28571429  0.28571429       0.012
   0.14285714  0.28571429  0.28571429       0.023
   0.28571429  0.28571429  0.28571429       0.023
   0.42857143  0.28571429  0.28571429       0.023
   0.00000000  0.42857143  0.28571429       0.012
   0.14285714  0.42857143  0.28571429       0.023
   0.28571429  0.42857143  0.28571429       0.023
   0.42857143  0.42857143  0.28571429       0.023
   0.00000000  0.00000000  0.42857143       0.006
   0.14285714  0.00000000  0.42857143       0.012
   0.28571429  0.00000000  0.42857143       0.012
   0.42857143  0.00000000  0.42857143       0.012
   0.00000000  0.14285714  0.42857143       0.012
   0.14285714  0.14285714  0.42857143       0.023
   0.28571429  0.14285714  0.42857143       0.023
   0.42857143  0.14285714  0.42857143       0.023
   0.00000000  0.28571429  0.42857143       0.012
   0.14285714  0.28571429  0.42857143       0.023
   0.28571429  0.28571429  0.42857143       0.023
   0.42857143  0.28571429  0.42857143       0.023
   0.00000000  0.42857143  0.42857143       0.012
   0.14285714  0.42857143  0.42857143       0.023
   0.28571429  0.42857143  0.42857143       0.023
   0.42857143  0.42857143  0.42857143       0.023

 position of ions in fractional coordinates (direct lattice) 
   0.00000000  0.00000000  0.00000000
   0.50000000  0.50000000  0.50000000

 position of ions in cartesian coordinates  (Angst):
   0.00000000  0.00000000  0.00000000
   1.66111118  1.69433340  1.62788896



--------------------------------------------------------------------------------------------------------


 k-point   1 :   0.0000 0.0000 0.0000  plane waves:     981
 k-point   2 :   0.1429 0.0000 0.0000  plane waves:     985
 k-point   3 :   0.2857 0.0000 0.0000  plane waves:     984
 k-point   4 :   0.4286 0.0000 0.0000  plane waves:     992
 k-point   5 :   0.0000 0.1429 0.0000  plane waves:     981
 k-point   6 :   0.1429 0.1429 0.0000  plane waves:     978
 k-point   7 :   0.2857 0.1429 0.0000  plane waves:     989
 k-point   8 :   0.4286 0.1429 0.0000  plane waves:     982
 k-point   9 :   0.0000 0.2857 0.0000  plane waves:     983
 k-point  10 :   0.1429 0.2857 0.0000  plane waves:     986
 k-point  11 :   0.2857 0.2857 0.0000  plane waves:     985
 k-point  12 :   0.4286 0.2857 0.0000  plane waves:     975
 k-point  13 :   0.0000 0.4286 0.0000  plane waves:     984
 k-point  14 :   0.1429 0.4286 0.0000  plane waves:     983
 k-point  15 :   0.2857 0.4286 0.0000  plane waves:     975
 k-point  16 :   0.4286 0.4286 0.0000  plane waves:     984
 k-point  17 :   0.0000 0.0000 0.1429  plane waves:     988
 k-point  18 :   0.1429 0.0000 0.1429  plane waves:     981
 k-point  19 :   0.2857 0.0000 0.1429  plane waves:     984
 k-point  20 :   0.4286 0.0000 0.1429  plane waves:     985
 k-point  21 :   0.0000 0.1429 0.1429  plane waves:     994
 k-point  22 :   0.1429 0.1429 0.1429  plane waves:     984
 k-point  23 :   0.2857 0.1429 0.1429  plane waves:     984
 k-point  24 :   0.4286 0.1429 0.1429  plane waves:     985
 k-point  25 :   0.0000 0.2857 0.1429  plane waves:     986
 k-point  26 :   0.1429 0.2857 0.1429  plane waves:     985
 k-point  27 :   0.2857 0.2857 0.1429  plane waves:     983
 k-point  28 :   0.4286 0.2857 0.1429  plane waves:     988
 k-point  29 :   0.0000 0.4286 0.1429  plane waves:     989
 k-point  30 :   0.1429 0.4286 0.1429  plane waves:     986
 k-point  31 :   0.2857 0.4286 0.1429  plane waves:     976
 k-point  32 :   0.4286 0.4286 0.1429  plane waves:     985
 k-point  33 :   0.0000 0.0000 0.2857  plane waves:     974
 k-point  34 :   0.1429 0.0000 0.2857  plane waves:     983
 k-point  35 :   0.2857 0.0000 0.2857  plane waves:     992
 k-point  36 :   0.4286 0.0000 0.2857  plane waves:     995
 k-point  37 :   0.0000 0.1429 0.2857  plane waves:     991
 k-point  38 :   0.1429 0.1429 0.2857  plane waves:     990
 k-point  39 :   0.2857 0.1429 0.2857  plane waves:     990
 k-point  40 :   0.4286 0.1429 0.2857  plane waves:     987
 k-point  41 :   0.0000 0.2857 0.2857  plane waves:     992
 k-point  42 :   0.1429 0.2857 0.2857  plane waves:     992
 k-point  43 :   0.2857 0.2857 0.2857  plane waves:     985
 k-point  44 :   0.4286 0.2857 0.2857  plane waves:     986
 k-point  45 :   0.0000 0.4286 0.2857  plane waves:     981
 k-point  46 :   0.1429 0.4286 0.2857  plane waves:     986
 k-point  47 :   0.2857 0.4286 0.2857  plane waves:     987
 k-point  48 :   0.4286 0.4286 0.2857  plane waves:     993
 k-point  49 :   0.0000 0.0000 0.4286  plane waves:     988
 k-point  50 :   0.1429 0.0000 0.4286  plane waves:     989
 k-point  51 :   0.2857 0.0000 0.4286  plane waves:     997
 k-point  52 :   0.4286 0.0000 0.4286  plane waves:    1000
 k-point  53 :   0.0000 0.1429 0.4286  plane waves:     986
 k-point  54 :   0.1429 0.1429 0.4286  plane waves:     990
 k-point  55 :   0.2857 0.1429 0.4286  plane waves:     986
 k-point  56 :   0.4286 0.1429 0.4286  plane waves:     997
 k-point  57 :   0.0000 0.2857 0.4286  plane waves:     985
 k-point  58 :   0.1429 0.2857 0.4286  plane waves:     986
 k-point  59 :   0.2857 0.2857 0.4286  plane waves:     988
 k-point  60 :   0.4286 0.2857 0.4286  plane waves:     984
 k-point  61 :   0.0000 0.4286 0.4286  plane waves:     987
 k-point  62 :   0.1429 0.4286 0.4286  plane waves:     990
 k-point  63 :   0.2857 0.4286 0.4286  plane waves:     991
 k-point  64 :   0.4286 0.4286 0.4286  plane waves:     986

 maximum and minimum number of plane-waves per node :      1000      974

 maximum number of plane-waves:      1000
 maximum index in each direction: 
   IXMAX=    6   IYMAX=    6   IZMAX=    6
   IXMIN=   -6   IYMIN=   -6   IZMIN=   -6


 serial   3D FFT for wavefunctions
 parallel 3D FFT for charge:
    minimum data exchange during FFTs selected (reduces bandwidth)


 total amount of memory used by VASP MPI-rank0    85760. kBytes
=======================================================================

   base      :      30000. kBytes
   nonlr-proj:       3692. kBytes
   fftplans  :       5340. kBytes
   grid      :      12719. kBytes
   one-center:         62. kBytes
   wavefun   :      33947. kBytes

     INWAV:  cpu time      0.0039: real time      0.0000
 Broyden mixing: mesh for mixing (old mesh)
   NGX = 13   NGY = 13   NGZ = 13
  (NGX  = 56   NGY  = 56   NGZ  = 48)
  gives a total of   2197 points

 initial charge density was supplied:
 charge density of overlapping atoms calculated
 number of electron      22.0000000 magnetization       1.2000000
 keeping initial charge density in first step


--------------------------------------------------------------------------------------------------------


 Maximum index for non-local projection operator          565
 Maximum index for augmentation-charges        30639 (set IRDMAX)


--------------------------------------------------------------------------------------------------------


 First call to EWALD:  gamma=   0.534
 Maximum number of real-space cells 3x 3x 3
 Maximum number of reciprocal cells 3x 3x 3

    FEWALD:  cpu time      0.0044: real time      0.0044


--------------------------------------- Ionic step        1  -------------------------------------------




--------------------------------------- Iteration      1(   1)  ---------------------------------------


    POTLOK:  cpu time      2.1040: real time      0.1422
    SETDIJ:  cpu time      1.1524: real time      0.2606
     EDDAV:  cpu time    313.9046: real time     17.9867
 BZINTS: Fermi energy:   23.254712;   22.000000 electrons
         Band energy:-0.296860E+02;  BLOECHL correction:   -0.625279
       DOS:  cpu time      0.3452: real time      0.0503
    --------------------------------------------
      LOOP:  cpu time    317.5063: real time     18.4397

 eigenvalue-minimisations  :  4384
 total energy-change (2. order) : 0.2003462E+03  (-0.1156174E+04)
 number of electron      22.0000000 magnetization       1.2000000
 augmentation part       22.0000000 magnetization       1.2000000

 Free energy of the ion-electron system (eV)
  ---------------------------------------------------
  alpha Z        PSCENC =       247.02244180
  Ewald energy   TEWEN  =     -1908.84641101
  -Hartree energ DENC   =      -279.45115429
  -exchange      EXHF   =         0.00000000
  -V(xc)+E(xc)   XCENC  =        52.61762111
  PAW double counting   =      1671.32378679    -1639.41528309
  entropy T*S    EENTRO =         0.00000000
  eigenvalues    EBANDS =       -29.68600048
  atomic energy  EATOM  =      2086.78124273
  Solvation  Ediel_sol  =         0.00000000
  ---------------------------------------------------
  free energy    TOTEN  =       200.34624356 eV

  energy without entropy =      200.34624356  energy(sigma->0) =      200.34624356


--------------------------------------------------------------------------------------------------------




--------------------------------------- Iteration      1(   2)  ---------------------------------------


     EDDAV:  cpu time    312.8638: real time     17.9181
 BZINTS: Fermi energy:    7.019427;   22.000000 electrons
         Band energy:-0.240875E+03;  BLOECHL correction:   -0.351767
       DOS:  cpu time      0.2835: real time      0.0551
    --------------------------------------------
      LOOP:  cpu time    313.1473: real time     17.9732

 eigenvalue-minimisations  :  4368
 total energy-change (2. order) :-0.2111894E+03  (-0.2089254E+03)
 number of electron      22.0000000 magnetization       1.2000000
 augmentation part       22.0000000 magnetization       1.2000000

 Free energy of the ion-electron system (eV)
  ---------------------------------------------------
  alpha Z        PSCENC =       247.02244180
  Ewald energy   TEWEN  =     -1908.84641101
  -Hartree energ DENC   =      -279.45115429
  -exchange      EXHF   =         0.00000000
  -V(xc)+E(xc)   XCENC  =        52.61762111
  PAW double counting   =      1671.32378679    -1639.41528309
  entropy T*S    EENTRO =         0.00000000
  eigenvalues    EBANDS =      -240.87539905
  atomic energy  EATOM  =      2086.78124273
  Solvation  Ediel_sol  =         0.00000000
  ---------------------------------------------------
  free energy    TOTEN  =       -10.84315501 eV

  energy without entropy =      -10.84315501  energy(sigma->0) =      -10.84315501


--------------------------------------------------------------------------------------------------------




--------------------------------------- Iteration      1(   3)  ---------------------------------------


     EDDAV:  cpu time    445.3551: real time     25.5872
 BZINTS: Fermi energy:    5.472011;   22.000000 electrons
         Band energy:-0.251013E+03;  BLOECHL correction:   -0.211286
       DOS:  cpu time      0.3383: real time      0.0490
    --------------------------------------------
      LOOP:  cpu time    445.6934: real time     25.6363

 eigenvalue-minimisations  :  6832
 total energy-change (2. order) :-0.1013741E+02  (-0.9571862E+01)
 number of electron      22.0000000 magnetization       1.2000000
 augmentation part       22.0000000 magnetization       1.2000000

 Free energy of the ion-electron system (eV)
  ---------------------------------------------------
  alpha Z        PSCENC =       247.02244180
  Ewald energy   TEWEN  =     -1908.84641101
  -Hartree energ DENC   =      -279.45115429
  -exchange      EXHF   =         0.00000000
  -V(xc)+E(xc)   XCENC  =        52.61762111
  PAW double counting   =      1671.32378679    -1639.41528309
  entropy T*S    EENTRO =         0.00000000
  eigenvalues    EBANDS =      -251.01280869
  atomic energy  EATOM  =      2086.78124273
  Solvation  Ediel_sol  =         0.00000000
  ---------------------------------------------------
  free energy    TOTEN  =       -20.98056465 eV

  energy without entropy =      -20.98056465  energy(sigma->0) =      -20.98056465


--------------------------------------------------------------------------------------------------------




--------------------------------------- Iteration      1(   4)  ---------------------------------------


     EDDAV:  cpu time    357.2394: real time     20.3856
 BZINTS: Fermi energy:    5.449816;   22.000000 electrons
         Band energy:-0.251168E+03;  BLOECHL correction:   -0.207396
       DOS:  cpu time      0.2830: real time      0.0541
    --------------------------------------------
      LOOP:  cpu time    357.5224: real time     20.4397

 eigenvalue-minimisations  :  5008
 total energy-change (2. order) :-0.1547607E+00  (-0.1537632E+00)
 number of electron      22.0000000 magnetization       1.2000000
 augmentation part       22.0000000 magnetization       1.2000000

 Free energy of the ion-electron system (eV)
  ---------------------------------------------------
  alpha Z        PSCENC =       247.02244180
  Ewald energy   TEWEN  =     -1908.84641101
  -Hartree energ DENC   =      -279.45115429
  -exchange      EXHF   =         0.00000000
  -V(xc)+E(xc)   XCENC  =        52.61762111
  PAW double counting   =      1671.32378679    -1639.41528309
  entropy T*S    EENTRO =         0.00000000
  eigenvalues    EBANDS =      -251.16756944
  atomic energy  EATOM  =      2086.78124273
  Solvation  Ediel_sol  =         0.00000000
  ---------------------------------------------------
  free energy    TOTEN  =       -21.13532540 eV

  energy without entropy =      -21.13532540  energy(sigma->0) =      -21.13532540


--------------------------------------------------------------------------------------------------------




--------------------------------------- Iteration      1(   5)  ---------------------------------------


     EDDAV:  cpu time    442.6226: real time     25.2639
 BZINTS: Fermi energy:    5.448556;   22.000000 electrons
         Band energy:-0.251173E+03;  BLOECHL correction:   -0.206956
       DOS:  cpu time      0.2667: real time      0.0477
    CHARGE:  cpu time     22.4014: real time      1.3022
    MIXING:  cpu time      0.0011: real time      0.0011
    --------------------------------------------
      LOOP:  cpu time    465.2918: real time     26.6147

 eigenvalue-minimisations  :  6528
 total energy-change (2. order) :-0.5819521E-02  (-0.5987417E-02)
 number of electron      21.9999998 magnetization       0.3597871
 augmentation part        7.7576054 magnetization      -0.0480927

 Broyden mixing:
  rms(total) = 0.23988E+01    rms(broyden)= 0.23988E+01
  rms(prec ) = 0.28091E+01
  weight for this iteration     100.00

 Free energy of the ion-electron system (eV)
  ---------------------------------------------------
  alpha Z        PSCENC =       247.02244180
  Ewald energy   TEWEN  =     -1908.84641101
  -Hartree energ DENC   =      -279.45115429
  -exchange      EXHF   =         0.00000000
  -V(xc)+E(xc)   XCENC  =        52.61762111
  PAW double counting   =      1671.32378679    -1639.41528309
  entropy T*S    EENTRO =         0.00000000
  eigenvalues    EBANDS =      -251.17338896
  atomic energy  EATOM  =      2086.78124273
  Solvation  Ediel_sol  =         0.00000000
  ---------------------------------------------------
  free energy    TOTEN  =       -21.14114492 eV

  energy without entropy =      -21.14114492  energy(sigma->0) =      -21.14114492


--------------------------------------------------------------------------------------------------------




--------------------------------------- Iteration      1(   6)  ---------------------------------------


    POTLOK:  cpu time      1.2032: real time      0.1006
    SETDIJ:  cpu time      1.0531: real time      0.2484
    EDDIAG:  cpu time     68.3262: real time      3.9454
  RMM-DIIS:  cpu time    217.2813: real time     12.1315
    ORTHCH:  cpu time      1.3013: real time      0.0801
 BZINTS: Fermi energy:    5.099115;   22.000000 electrons
         Band energy:-0.265209E+03;  BLOECHL correction:   -0.208965
       DOS:  cpu time      0.3282: real time      0.0533
    CHARGE:  cpu time     27.6346: real time      1.5400
    MIXING:  cpu time      0.0014: real time      0.0014
    --------------------------------------------
      LOOP:  cpu time    317.1293: real time     18.1005

 eigenvalue-minimisations  :  4489
 total energy-change (2. order) : 0.8067421E+00  (-0.8023535E-01)
 number of electron      21.9999998 magnetization       0.1831176
 augmentation part        7.8845251 magnetization      -0.0442195

 Broyden mixing:
  rms(total) = 0.91216E+00    rms(broyden)= 0.91216E+00
  rms(prec ) = 0.11860E+01
  weight for this iteration     100.00

 eigenvalues of (default mixing * dielectric matrix)
  average eigenvalue GAMMA=   1.4995
  1.4995

 Free energy of the ion-electron system (eV)
  ---------------------------------------------------
  alpha Z        PSCENC =       247.02244180
  Ewald energy   TEWEN  =     -1908.84641101
  -Hartree energ DENC   =      -260.09715255
  -exchange      EXHF   =         0.00000000
  -V(xc)+E(xc)   XCENC  =        51.60281776
  PAW double counting   =      2186.51329826    -2158.10137283
  entropy T*S    EENTRO =         0.00000000
  eigenvalues    EBANDS =      -265.20926697
  atomic energy  EATOM  =      2086.78124273
  Solvation  Ediel_sol  =         0.00000000
  ---------------------------------------------------
  free energy    TOTEN  =       -20.33440281 eV

  energy without entropy =      -20.33440281  energy(sigma->0) =      -20.33440281


--------------------------------------------------------------------------------------------------------




--------------------------------------- Iteration      1(   7)  ---------------------------------------


    POTLOK:  cpu time      1.7362: real time      0.1231
    SETDIJ:  cpu time      1.1190: real time      0.2475
    EDDIAG:  cpu time     68.3035: real time      3.9336
  RMM-DIIS:  cpu time    258.3382: real time     14.4339
    ORTHCH:  cpu time      1.2916: real time      0.0854
 BZINTS: Fermi energy:    4.802604;   22.000000 electrons
         Band energy:-0.276974E+03;  BLOECHL correction:   -0.205387
       DOS:  cpu time      0.3205: real time      0.0542
    CHARGE:  cpu time     29.6007: real time      1.6378
    MIXING:  cpu time      0.1302: real time      0.0055
    --------------------------------------------
      LOOP:  cpu time    360.8398: real time     20.5210

 eigenvalue-minimisations  :  5575
 total energy-change (2. order) : 0.1474491E+00  (-0.2146284E+00)
 number of electron      21.9999998 magnetization       0.0550591
 augmentation part        8.0582925 magnetization       0.0426247

 Broyden mixing:
  rms(total) = 0.24897E+00    rms(broyden)= 0.24897E+00
  rms(prec ) = 0.26758E+00
  weight for this iteration     100.00

 eigenvalues of (default mixing * dielectric matrix)
  average eigenvalue GAMMA=   1.0731
  1.6153  0.5310

 Free energy of the ion-electron system (eV)
  ---------------------------------------------------
  alpha Z        PSCENC =       247.02244180
  Ewald energy   TEWEN  =     -1908.84641101
  -Hartree energ DENC   =      -244.38307028
  -exchange      EXHF   =         0.00000000
  -V(xc)+E(xc)   XCENC  =        50.82160758
  PAW double counting   =      2615.95666248    -2590.56495301
  entropy T*S    EENTRO =         0.00000000
  eigenvalues    EBANDS =      -276.97447400
  atomic energy  EATOM  =      2086.78124273
  Solvation  Ediel_sol  =         0.00000000
  ---------------------------------------------------
  free energy    TOTEN  =       -20.18695371 eV

  energy without entropy =      -20.18695371  energy(sigma->0) =      -20.18695371


--------------------------------------------------------------------------------------------------------




--------------------------------------- Iteration      1(   8)  ---------------------------------------


    POTLOK:  cpu time      1.3805: real time      0.0972
    SETDIJ:  cpu time      1.0301: real time      0.2667
    EDDIAG:  cpu time     69.6414: real time      3.9734
  RMM-DIIS:  cpu time    284.7530: real time     15.8910
    ORTHCH:  cpu time      1.4505: real time      0.0912
 BZINTS: Fermi energy:    4.813808;   22.000000 electrons
         Band energy:-0.276428E+03;  BLOECHL correction:   -0.205469
       DOS:  cpu time      0.2759: real time      0.0527
    CHARGE:  cpu time     28.5645: real time      1.5855
    MIXING:  cpu time      0.0025: real time      0.0025
    --------------------------------------------
      LOOP:  cpu time    387.0985: real time     21.9603

 eigenvalue-minimisations  :  5950
 total energy-change (2. order) :-0.1124564E-01  (-0.1058139E-01)
 number of electron      21.9999998 magnetization       0.0359698
 augmentation part        8.0649666 magnetization       0.0207202

 Broyden mixing:
  rms(total) = 0.11947E+00    rms(broyden)= 0.11947E+00
  rms(prec ) = 0.14815E+00
  weight for this iteration     100.00

 eigenvalues of (default mixing * dielectric matrix)
  average eigenvalue GAMMA=   1.0675
  1.8347  0.6840  0.6840

 Free energy of the ion-electron system (eV)
  ---------------------------------------------------
  alpha Z        PSCENC =       247.02244180
  Ewald energy   TEWEN  =     -1908.84641101
  -Hartree energ DENC   =      -244.74250656
  -exchange      EXHF   =         0.00000000
  -V(xc)+E(xc)   XCENC  =        50.83243842
  PAW double counting   =      2664.10782612    -2638.92516313
  entropy T*S    EENTRO =         0.00000000
  eigenvalues    EBANDS =      -276.42806772
  atomic energy  EATOM  =      2086.78124273
  Solvation  Ediel_sol  =         0.00000000
  ---------------------------------------------------
  free energy    TOTEN  =       -20.19819935 eV

  energy without entropy =      -20.19819935  energy(sigma->0) =      -20.19819935


--------------------------------------------------------------------------------------------------------




--------------------------------------- Iteration      1(   9)  ---------------------------------------


    POTLOK:  cpu time      1.3661: real time      0.1024
    SETDIJ:  cpu time      1.0806: real time      0.2441
    EDDIAG:  cpu time     64.2356: real time      3.7489
  RMM-DIIS:  cpu time    284.5532: real time     15.8889
    ORTHCH:  cpu time      1.0767: real time      0.0685
 BZINTS: Fermi energy:    4.822880;   22.000000 electrons
         Band energy:-0.276003E+03;  BLOECHL correction:   -0.205612
       DOS:  cpu time      0.3159: real time      0.0525
    CHARGE:  cpu time     27.7299: real time      1.5412
    MIXING:  cpu time      0.0028: real time      0.0028
    --------------------------------------------
      LOOP:  cpu time    380.3609: real time     21.6493

 eigenvalue-minimisations  :  5905
 total energy-change (2. order) : 0.1339347E-03  (-0.2352963E-02)
 number of electron      21.9999998 magnetization       0.0230729
 augmentation part        8.0650270 magnetization       0.0148526

 Broyden mixing:
  rms(total) = 0.98173E-01    rms(broyden)= 0.98173E-01
  rms(prec ) = 0.12482E+00
  weight for this iteration     100.00

 eigenvalues of (default mixing * dielectric matrix)
  average eigenvalue GAMMA=   1.0960
  2.0974  0.8441  0.8441  0.5985

 Free energy of the ion-electron system (eV)
  ---------------------------------------------------
  alpha Z        PSCENC =       247.02244180
  Ewald energy   TEWEN  =     -1908.84641101
  -Hartree energ DENC   =      -245.11233294
  -exchange      EXHF   =         0.00000000
  -V(xc)+E(xc)   XCENC  =        50.84962098
  PAW double counting   =      2704.80755058    -2679.69668681
  entropy T*S    EENTRO =         0.00000000
  eigenvalues    EBANDS =      -276.00349074
  atomic energy  EATOM  =      2086.78124273
  Solvation  Ediel_sol  =         0.00000000
  ---------------------------------------------------
  free energy    TOTEN  =       -20.19806541 eV

  energy without entropy =      -20.19806541  energy(sigma->0) =      -20.19806541


--------------------------------------------------------------------------------------------------------




--------------------------------------- Iteration      1(  10)  ---------------------------------------


    POTLOK:  cpu time      1.8859: real time      0.1334
    SETDIJ:  cpu time      1.0900: real time      0.2709
    EDDIAG:  cpu time     85.1830: real time      4.7579
  RMM-DIIS:  cpu time    219.8567: real time     12.3234
    ORTHCH:  cpu time      1.6915: real time      0.0986
 BZINTS: Fermi energy:    4.844974;   22.000000 electrons
         Band energy:-0.275028E+03;  BLOECHL correction:   -0.206108
       DOS:  cpu time      0.3232: real time      0.0560
    CHARGE:  cpu time     26.6158: real time      1.5141
    MIXING:  cpu time      0.0013: real time      0.0013
    --------------------------------------------
      LOOP:  cpu time    336.6474: real time     19.1557

 eigenvalue-minimisations  :  4734
 total energy-change (2. order) : 0.3267584E-02  (-0.5976860E-03)
 number of electron      21.9999998 magnetization      -0.0064940
 augmentation part        8.0564534 magnetization      -0.0048587

 Broyden mixing:
  rms(total) = 0.68340E-01    rms(broyden)= 0.68340E-01
  rms(prec ) = 0.75889E-01
  weight for this iteration     100.00

 eigenvalues of (default mixing * dielectric matrix)
  average eigenvalue GAMMA=   1.3497
  2.6242  1.3681  1.3681  0.6307  0.7574

 Free energy of the ion-electron system (eV)
  ---------------------------------------------------
  alpha Z        PSCENC =       247.02244180
  Ewald energy   TEWEN  =     -1908.84641101
  -Hartree energ DENC   =      -246.07367833
  -exchange      EXHF   =         0.00000000
  -V(xc)+E(xc)   XCENC  =        50.89550011
  PAW double counting   =      2783.78203480    -2758.72780851
  entropy T*S    EENTRO =         0.00000000
  eigenvalues    EBANDS =      -275.02811942
  atomic energy  EATOM  =      2086.78124273
  Solvation  Ediel_sol  =         0.00000000
  ---------------------------------------------------
  free energy    TOTEN  =       -20.19479783 eV

  energy without entropy =      -20.19479783  energy(sigma->0) =      -20.19479783


--------------------------------------------------------------------------------------------------------




--------------------------------------- Iteration      1(  11)  ---------------------------------------


    POTLOK:  cpu time      1.8669: real time      0.1282
    SETDIJ:  cpu time      1.1827: real time      0.2636
    EDDIAG:  cpu time     73.9134: real time      4.2313
  RMM-DIIS:  cpu time    255.5856: real time     14.3463
    ORTHCH:  cpu time      1.6035: real time      0.0996
 BZINTS: Fermi energy:    4.856903;   22.000000 electrons
         Band energy:-0.274495E+03;  BLOECHL correction:   -0.206291
       DOS:  cpu time      0.3497: real time      0.0558
    CHARGE:  cpu time     27.1589: real time      1.5203
    MIXING:  cpu time      0.0019: real time      0.0020
    --------------------------------------------
      LOOP:  cpu time    361.6627: real time     20.6472

 eigenvalue-minimisations  :  5399
 total energy-change (2. order) :-0.1228917E-03  (-0.5552601E-03)
 number of electron      21.9999998 magnetization      -0.0046569
 augmentation part        8.0496860 magnetization      -0.0003608

 Broyden mixing:
  rms(total) = 0.39663E-02    rms(broyden)= 0.39663E-02
  rms(prec ) = 0.48815E-02
  weight for this iteration     100.00

 eigenvalues of (default mixing * dielectric matrix)
  average eigenvalue GAMMA=   1.2686
  2.5871  1.4488  1.4488  0.7849  0.6229  0.7191

 Free energy of the ion-electron system (eV)
  ---------------------------------------------------
  alpha Z        PSCENC =       247.02244180
  Ewald energy   TEWEN  =     -1908.84641101
  -Hartree energ DENC   =      -246.56096159
  -exchange      EXHF   =         0.00000000
  -V(xc)+E(xc)   XCENC  =        50.91852113
  PAW double counting   =      2861.11505770    -2836.13030372
  entropy T*S    EENTRO =         0.00000000
  eigenvalues    EBANDS =      -274.49450777
  atomic energy  EATOM  =      2086.78124273
  Solvation  Ediel_sol  =         0.00000000
  ---------------------------------------------------
  free energy    TOTEN  =       -20.19492072 eV

  energy without entropy =      -20.19492072  energy(sigma->0) =      -20.19492072


--------------------------------------------------------------------------------------------------------




--------------------------------------- Iteration      1(  12)  ---------------------------------------


    POTLOK:  cpu time      1.7369: real time      0.1208
    SETDIJ:  cpu time      1.1046: real time      0.2512
    EDDIAG:  cpu time     65.3739: real time      3.7626
  RMM-DIIS:  cpu time    199.2169: real time     11.1013
    ORTHCH:  cpu time      1.0884: real time      0.0734
 BZINTS: Fermi energy:    4.857212;   22.000000 electrons
         Band energy:-0.274482E+03;  BLOECHL correction:   -0.206300
       DOS:  cpu time      0.3122: real time      0.0512
    --------------------------------------------
      LOOP:  cpu time    268.8329: real time     15.3605

 eigenvalue-minimisations  :  3927
 total energy-change (2. order) :-0.7938018E-04  (-0.5905658E-04)
 number of electron      21.9999998 magnetization      -0.0046569
 augmentation part        8.0496860 magnetization      -0.0003608

 Free energy of the ion-electron system (eV)
  ---------------------------------------------------
  alpha Z        PSCENC =       247.02244180
  Ewald energy   TEWEN  =     -1908.84641101
  -Hartree energ DENC   =      -246.59183112
  -exchange      EXHF   =         0.00000000
  -V(xc)+E(xc)   XCENC  =        50.92002315
  PAW double counting   =      2860.50737692    -2835.50624410
  entropy T*S    EENTRO =         0.00000000
  eigenvalues    EBANDS =      -274.48159847
  atomic energy  EATOM  =      2086.78124273
  Solvation  Ediel_sol  =         0.00000000
  ---------------------------------------------------
  free energy    TOTEN  =       -20.19500010 eV

  energy without entropy =      -20.19500010  energy(sigma->0) =      -20.19500010


--------------------------------------------------------------------------------------------------------




 average (electrostatic) potential at core
  the test charge radii are     1.2125
  (the norm of the test charge is              1.0000)
       1 -35.1672       2 -35.1672



 E-fermi :   4.8572     XC(G=0): -12.3448     alpha+bet :-12.7651

 Fermi energy:         4.8572120728

 spin component 1

 k-point     1 :       0.0000    0.0000    0.0000
  band No.  band energies     occupation 
      1     -25.8296      1.00000
      2     -25.7814      1.00000
      3     -25.7323      1.00000
      4     -24.9045      1.00000
      5     -24.9041      1.00000
      6     -24.9016      1.00000
      7      -1.0610      1.00000
      8       1.1666      1.00000
      9       1.2515      1.00000
     10       4.9905      0.12347
     11       5.2182     -0.01808
     12       5.4242      0.00000
     13       7.7820      0.00000
     14       8.2930      0.00000
     15      10.2553      0.00000
     16      10.3645      0.00000

 k-point     2 :       0.1429    0.0000    0.0000
  band No.  band energies     occupation 
      1     -25.7848      1.00000
      2     -25.7826      1.00000
      3     -25.6898      1.00000
      4     -24.9986      1.00000
      5     -24.9461      1.00000
      6     -24.9436      1.00000
      7      -0.6516      1.00000
      8       1.4268      1.00000
      9       1.5564      1.00000
     10       4.9648      0.37772
     11       5.3873     -0.07564
     12       5.4094      0.00000
     13       7.3954      0.00000
     14       8.3189      0.00000
     15       9.1104      0.00000
     16       9.2023      0.00000

 k-point     3 :       0.2857    0.0000    0.0000
  band No.  band energies     occupation 
      1     -25.7687      1.00000
      2     -25.6512      1.00000
      3     -25.5714      1.00000
      4     -25.2312      1.00000
      5     -25.0717      1.00000
      6     -25.0544      1.00000
      7       0.4416      1.00000
      8       2.1044      1.00000
      9       2.2989      1.00000
     10       5.0043      0.69997
     11       5.3971     -0.18958
     12       5.9680      0.00000
     13       6.1074      0.00000
     14       7.4014      0.00000
     15       7.6299      0.00000
     16       8.7781      0.00000

 k-point     4 :       0.4286    0.0000    0.0000
  band No.  band energies     occupation 
      1     -25.6802      1.00000
      2     -25.4901      1.00000
      3     -25.4627      1.00000
      4     -25.4021      1.00000
      5     -25.2557      1.00000
      6     -25.2175      1.00000
      7       1.7951      1.00000
      8       2.6129      1.00000
      9       3.1807      1.00000
     10       4.5733      0.99863
     11       5.3327     -0.11305
     12       5.6836      0.00000
     13       6.1133      0.00000
     14       6.4124      0.00000
     15       6.8433      0.00000
     16       7.9348      0.00000

 k-point     5 :       0.0000    0.1429    0.0000
  band No.  band energies     occupation 
      1     -25.8226      1.00000
      2     -25.7375      1.00000
      3     -25.6906      1.00000
      4     -24.9905      1.00000
      5     -24.9467      1.00000
      6     -24.9445      1.00000
      7      -0.6674      1.00000
      8       1.4559      1.00000
      9       1.4937      1.00000
     10       4.9995      0.25098
     11       5.2211     -0.05206
     12       5.6059      0.00000
     13       7.2561      0.00000
     14       8.4160      0.00000
     15       9.2502      0.00000
     16       9.2905      0.00000

 k-point     6 :       0.1429    0.1429    0.0000
  band No.  band energies     occupation 
      1     -25.8811      1.00000
      2     -25.6516      1.00000
      3     -25.6417      1.00000
      4     -25.1622      1.00000
      5     -24.9789      1.00000
      6     -24.9014      1.00000
      7      -0.2966      1.00000
      8       1.6816      1.00000
      9       1.8099      1.00000
     10       4.8853      0.70335
     11       4.8979      0.39768
     12       6.1008     -0.00569
     13       7.3197      0.00000
     14       8.0422      0.00000
     15       8.1951      0.00000
     16       8.2483      0.00000

 k-point     7 :       0.2857    0.1429    0.0000
  band No.  band energies     occupation 
      1     -25.9161      1.00000
      2     -25.5432      1.00000
      3     -25.4785      1.00000
      4     -25.4314      1.00000
      5     -25.0771      1.00000
      6     -24.9578      1.00000
      7       0.6601      1.00000
      8       2.1839      1.00000
      9       2.6152      1.00000
     10       4.6798      0.99765
     11       4.7266      0.85109
     12       6.5637     -0.05053
     13       6.7128      0.00000
     14       6.8774      0.00000
     15       6.9130      0.00000
     16       8.5911      0.00000

 k-point     8 :       0.4286    0.1429    0.0000
  band No.  band energies     occupation 
      1     -25.8608      1.00000
      2     -25.6904      1.00000
      3     -25.3893      1.00000
      4     -25.2876      1.00000
      5     -25.2228      1.00000
      6     -25.1004      1.00000
      7       1.7699      1.00000
      8       2.4481      1.00000
      9       3.4442      1.00000
     10       4.3354      1.00183
     11       4.8313      0.82350
     12       5.4549     -0.04791
     13       6.2017      0.00000
     14       6.3299      0.00000
     15       7.9130      0.00000
     16       9.0210      0.00000

 k-point     9 :       0.0000    0.2857    0.0000
  band No.  band energies     occupation 
      1     -25.7821      1.00000
      2     -25.6144      1.00000
      3     -25.5739      1.00000
      4     -25.2124      1.00000
      5     -25.0668      1.00000
      6     -25.0572      1.00000
      7       0.3889      1.00000
      8       2.1063      1.00000
      9       2.1893      1.00000
     10       5.1153      0.46704
     11       5.3207     -0.21486
     12       5.9680      0.00000
     13       6.1363      0.00000
     14       7.6138      0.00000
     15       7.7279      0.00000
     16       8.7403      0.00000

 k-point    10 :       0.1429    0.2857    0.0000
  band No.  band energies     occupation 
      1     -25.9125      1.00000
      2     -25.5450      1.00000
      3     -25.4660      1.00000
      4     -25.4213      1.00000
      5     -25.0790      1.00000
      6     -24.9516      1.00000
      7       0.6286      1.00000
      8       2.1678      1.00000
      9       2.5626      1.00000
     10       4.6841      0.98844
     11       4.7452      0.86247
     12       6.6030     -0.05020
     13       6.6777      0.00000
     14       6.9560      0.00000
     15       6.9722      0.00000
     16       8.5488      0.00000

 k-point    11 :       0.2857    0.2857    0.0000
  band No.  band energies     occupation 
      1     -26.0431      1.00000
      2     -25.7141      1.00000
      3     -25.4655      1.00000
      4     -25.2636      1.00000
      5     -25.1425      1.00000
      6     -24.8984      1.00000
      7       1.1031      1.00000
      8       2.1257      1.00000
      9       3.5687      1.00000
     10       4.0946      1.00036
     11       4.7802      0.91909
     12       5.2625      0.00900
     13       6.4117      0.00000
     14       7.4078      0.00000
     15       8.1822      0.00000
     16       8.3297      0.00000

 k-point    12 :       0.4286    0.2857    0.0000
  band No.  band energies     occupation 
      1     -26.0676      1.00000
      2     -25.9522      1.00000
      3     -25.3553      1.00000
      4     -25.2399      1.00000
      5     -25.0818      1.00000
      6     -24.9498      1.00000
      7       1.4899      1.00000
      8       1.8490      1.00000
      9       3.9524      1.00000
     10       4.3426      1.00000
     11       4.5869      0.83325
     12       5.0818      0.03680
     13       6.8337      0.00000
     14       7.3085      0.00000
     15       8.9002      0.00000
     16       9.3831      0.00000

 k-point    13 :       0.0000    0.4286    0.0000
  band No.  band energies     occupation 
      1     -25.6696      1.00000
      2     -25.4679      1.00000
      3     -25.4372      1.00000
      4     -25.4063      1.00000
      5     -25.2417      1.00000
      6     -25.2217      1.00000
      7       1.7046      1.00000
      8       2.4950      1.00000
      9       3.1388      1.00000
     10       4.4810      1.00119
     11       5.5147     -0.31468
     12       5.6970      0.00000
     13       6.3333      0.00000
     14       6.4869      0.00000
     15       6.9666      0.00000
     16       8.0005      0.00000

 k-point    14 :       0.1429    0.4286    0.0000
  band No.  band energies     occupation 
      1     -25.8476      1.00000
      2     -25.6739      1.00000
      3     -25.3926      1.00000
      4     -25.2721      1.00000
      5     -25.2262      1.00000
      6     -25.0881      1.00000
      7       1.7234      1.00000
      8       2.3993      1.00000
      9       3.3913      1.00000
     10       4.2819      1.00430
     11       4.8624      0.77293
     12       5.5028     -0.04992
     13       6.3101      0.00000
     14       6.4333      0.00000
     15       7.9944      0.00000
     16       8.9391      0.00000

 k-point    15 :       0.2857    0.4286    0.0000
  band No.  band energies     occupation 
      1     -26.0609      1.00000
      2     -25.9449      1.00000
      3     -25.3568      1.00000
      4     -25.2414      1.00000
      5     -25.0760      1.00000
      6     -24.9445      1.00000
      7       1.4866      1.00000
      8       1.8449      1.00000
      9       3.9675      1.00000
     10       4.3604      1.00000
     11       4.5731      0.84064
     12       5.0505      0.05714
     13       6.8150      0.00000
     14       7.3659      0.00000
     15       8.7465      0.00000
     16       9.4248      0.00000

 k-point    16 :       0.4286    0.4286    0.0000
  band No.  band energies     occupation 
      1     -26.1706      1.00000
      2     -26.1300      1.00000
      3     -25.3115      1.00000
      4     -25.2702      1.00000
      5     -24.9438      1.00000
      6     -24.8961      1.00000
      7       1.2526      1.00000
      8       1.3688      1.00000
      9       3.5397      1.00000
     10       3.6715      1.00000
     11       6.0537     -0.15014
     12       6.3907     -0.09016
     13       7.4320      0.00000
     14       7.7976      0.00000
     15       8.5771      0.00000
     16       9.5005      0.00000

 k-point    17 :       0.0000    0.0000    0.1429
  band No.  band energies     occupation 
      1     -25.7816      1.00000
      2     -25.7477      1.00000
      3     -25.7357      1.00000
      4     -25.0066      1.00000
      5     -24.9449      1.00000
      6     -24.9447      1.00000
      7      -0.6345      1.00000
      8       1.4082      1.00000
      9       1.6133      1.00000
     10       5.1458      0.11519
     11       5.1923     -0.02336
     12       5.3467      0.00000
     13       7.6493      0.00000
     14       8.1070      0.00000
     15       9.0155      0.00000
     16       9.0667      0.00000

 k-point    18 :       0.1429    0.0000    0.1429
  band No.  band energies     occupation 
      1     -25.8404      1.00000
      2     -25.7384      1.00000
      3     -25.6099      1.00000
      4     -25.1622      1.00000
      5     -24.9842      1.00000
      6     -24.9106      1.00000
      7      -0.2634      1.00000
      8       1.6615      1.00000
      9       1.9000      1.00000
     10       4.6147      1.01103
     11       5.2014     -0.02694
     12       5.9126     -0.00658
     13       7.7301      0.00000
     14       7.7896      0.00000
     15       7.9570      0.00000
     16       8.1989      0.00000

 k-point    19 :       0.2857    0.0000    0.1429
  band No.  band energies     occupation 
      1     -25.8850      1.00000
      2     -25.6181      1.00000
      3     -25.4488      1.00000
      4     -25.4214      1.00000
      5     -25.0955      1.00000
      6     -24.9636      1.00000
      7       0.6960      1.00000
      8       2.1983      1.00000
      9       2.6631      1.00000
     10       4.3463      1.03189
     11       4.9233      0.52126
     12       6.2669     -0.05297
     13       6.8199      0.00000
     14       6.9556      0.00000
     15       7.0222      0.00000
     16       8.5792      0.00000

 k-point    20 :       0.4286    0.0000    0.1429
  band No.  band energies     occupation 
      1     -25.8367      1.00000
      2     -25.6727      1.00000
      3     -25.4466      1.00000
      4     -25.2685      1.00000
      5     -25.2599      1.00000
      6     -25.0951      1.00000
      7       1.8145      1.00000
      8       2.4936      1.00000
      9       3.4406      1.00000
     10       4.3457      1.00263
     11       4.4889      1.01159
     12       5.1274     -0.01442
     13       6.5719      0.00000
     14       6.6096      0.00000
     15       7.8870      0.00000
     16       9.0712      0.00000

 k-point    21 :       0.0000    0.1429    0.1429
  band No.  band energies     occupation 
      1     -25.8646      1.00000
      2     -25.6954      1.00000
      3     -25.6222      1.00000
      4     -25.1622      1.00000
      5     -24.9824      1.00000
      6     -24.9058      1.00000
      7      -0.2793      1.00000
      8       1.6635      1.00000
      9       1.8654      1.00000
     10       4.7339      0.90626
     11       5.0488      0.09298
     12       6.0160     -0.00625
     13       7.5081      0.00000
     14       7.9150      0.00000
     15       8.1216      0.00000
     16       8.1853      0.00000

 k-point    22 :       0.1429    0.1429    0.1429
  band No.  band energies     occupation 
      1     -25.8333      1.00000
      2     -25.7910      1.00000
      3     -25.4913      1.00000
      4     -25.2936      1.00000
      5     -24.9567      1.00000
      6     -24.9467      1.00000
      7       0.0776      1.00000
      8       1.9858      1.00000
      9       2.0731      1.00000
     10       4.5022      1.05350
     11       4.7394      0.73990
     12       6.4109     -0.05576
     13       6.6285      0.00000
     14       7.6450      0.00000
     15       8.0040      0.00000
     16       9.1919      0.00000

 k-point    23 :       0.2857    0.1429    0.1429
  band No.  band energies     occupation 
      1     -25.9036      1.00000
      2     -25.6758      1.00000
      3     -25.5368      1.00000
      4     -25.3279      1.00000
      5     -25.0811      1.00000
      6     -24.9648      1.00000
      7       0.9707      1.00000
      8       2.5282      1.00000
      9       2.7418      1.00000
     10       4.2064      1.01553
     11       4.4500      1.03676
     12       5.1736      0.09958
     13       7.1554      0.00000
     14       7.6920      0.00000
     15       7.8299      0.00000
     16       8.4748      0.00000

 k-point    24 :       0.4286    0.1429    0.1429
  band No.  band energies     occupation 
      1     -25.8949      1.00000
      2     -25.7637      1.00000
      3     -25.4827      1.00000
      4     -25.2701      1.00000
      5     -25.1731      1.00000
      6     -25.0451      1.00000
      7       1.9458      1.00000
      8       2.6901      1.00000
      9       3.2335      1.00000
     10       3.8785      1.00257
     11       4.6078      0.98026
     12       4.8903      0.26560
     13       6.6886      0.00000
     14       6.8789      0.00000
     15       8.5962      0.00000
     16       8.9115      0.00000

 k-point    25 :       0.0000    0.2857    0.1429
  band No.  band energies     occupation 
      1     -25.8977      1.00000
      2     -25.5830      1.00000
      3     -25.4506      1.00000
      4     -25.4160      1.00000
      5     -25.0890      1.00000
      6     -24.9546      1.00000
      7       0.6473      1.00000
      8       2.1748      1.00000
      9       2.5892      1.00000
     10       4.5071      1.02151
     11       4.8425      0.72873
     12       6.4523     -0.05203
     13       6.8122      0.00000
     14       6.9242      0.00000
     15       7.0191      0.00000
     16       8.5388      0.00000

 k-point    26 :       0.1429    0.2857    0.1429
[...]
  band No.  band energies     occupation 
      1     -26.0258      1.00000
      2     -25.9480      1.00000
      3     -25.4702      1.00000
      4     -25.2894      1.00000
      5     -25.0691      1.00000
      6     -25.0016      1.00000
      7       1.8617      1.00000
      8       2.1799      1.00000
      9       3.5788      1.00000
     10       3.6495      1.00000
     11       4.7534      0.81913
     12       4.7666      0.58560
     13       7.3151      0.00000
     14       7.5487      0.00000
     15       9.0076      0.00000
     16       9.4145      0.00000

 k-point    59 :       0.2857    0.2857    0.4286
  band No.  band energies     occupation 
      1     -25.9448      1.00000
      2     -25.9419      1.00000
      3     -25.5917      1.00000
      4     -25.3364      1.00000
      5     -25.0958      1.00000
      6     -25.0679      1.00000
      7       2.5002      1.00000
      8       2.5364      1.00000
      9       3.4623      1.00000
     10       3.5100      1.00000
     11       4.1875      0.99883
     12       4.5602      0.96484
     13       7.9682      0.00000
     14       8.0786      0.00000
     15       8.9386      0.00000
     16       9.0600      0.00000

 k-point    60 :       0.4286    0.2857    0.4286
  band No.  band energies     occupation 
      1     -25.9532      1.00000
      2     -25.9348      1.00000
      3     -25.5397      1.00000
      4     -25.3939      1.00000
      5     -25.1711      1.00000
      6     -25.1236      1.00000
      7       2.4716      1.00000
      8       2.5992      1.00000
      9       3.1655      1.00000
     10       3.3544      1.00000
     11       4.8517      0.76267
     12       5.0106      0.37599
     13       8.4535      0.00000
     14       8.5456      0.00000
     15       8.8738      0.00000
     16       8.9606      0.00000

 k-point    61 :       0.0000    0.4286    0.4286
  band No.  band energies     occupation 
      1     -26.1675      1.00000
      2     -26.1282      1.00000
      3     -25.3327      1.00000
      4     -25.2889      1.00000
      5     -24.9648      1.00000
      6     -24.9183      1.00000
      7       1.2401      1.00000
      8       1.3511      1.00000
      9       3.3021      1.00000
     10       3.4340      1.00000
     11       6.1704     -0.16120
     12       6.5286     -0.06896
     13       7.6631      0.00000
     14       8.0024      0.00000
     15       8.7660      0.00000
     16       9.6974      0.00000

 k-point    62 :       0.1429    0.4286    0.4286
  band No.  band energies     occupation 
      1     -26.1064      1.00000
      2     -26.0795      1.00000
      3     -25.3974      1.00000
      4     -25.3281      1.00000
      5     -25.0004      1.00000
      6     -24.9802      1.00000
      7       1.6476      1.00000
      8       1.7271      1.00000
      9       3.2595      1.00000
     10       3.3584      1.00000
     11       5.7883     -0.13651
     12       5.8741     -0.13431
     13       7.8700      0.00000
     14       8.0819      0.00000
     15       8.7833      0.00000
     16       9.1741      0.00000

 k-point    63 :       0.2857    0.4286    0.4286
  band No.  band energies     occupation 
      1     -25.9521      1.00000
      2     -25.9345      1.00000
      3     -25.5408      1.00000
      4     -25.4018      1.00000
      5     -25.1536      1.00000
      6     -25.1119      1.00000
      7       2.5443      1.00000
      8       2.6744      1.00000
      9       3.2451      1.00000
     10       3.4290      1.00000
     11       4.7372      0.83216
     12       4.9038      0.57716
     13       8.3265      0.00000
     14       8.3946      0.00000
     15       8.8333      0.00000
     16       8.8954      0.00000

 k-point    64 :       0.4286    0.4286    0.4286
  band No.  band energies     occupation 
      1     -25.8053      1.00000
      2     -25.6944      1.00000
      3     -25.6724      1.00000
      4     -25.4216      1.00000
      5     -25.3865      1.00000
      6     -25.2749      1.00000
      7       3.0373      1.00000
      8       3.4322      1.00000
      9       3.4748      1.00000
     10       3.9325      1.00000
     11       4.0771      1.00000
     12       4.1279      1.08792
     13       8.6565      0.00000
     14       8.6743      0.00000
     15       8.8909      0.00000
     16       8.8956      0.00000


--------------------------------------------------------------------------------------------------------


 soft charge-density along one line, spin component           1
         0         1         2         3         4         5         6         7         8         9
 total charge-density along one line

 soft charge-density along one line, spin component           2
         0         1         2         3         4         5         6         7         8         9
 total charge-density along one line

 pseudopotential strength for first ion, spin component:           1
-28.106   0.000   0.000   5.976  -0.000  -0.000  -0.000  -0.000
  0.000 -28.108   0.000  -0.000   5.978  -0.000   0.000  -0.000
  0.000   0.000 -28.106  -0.000  -0.000   5.977  -0.000   0.000
  5.976  -0.000  -0.000   4.218   0.000   0.000   0.000   0.000
 -0.000   5.978  -0.000   0.000   4.218   0.000  -0.000   0.000
 -0.000  -0.000   5.977   0.000   0.000   4.218   0.000  -0.000
 -0.000   0.000  -0.000   0.000  -0.000   0.000  -6.357   0.000
 -0.000  -0.000   0.000   0.000   0.000  -0.000   0.000  -6.357
  0.000  -0.000  -0.000  -0.000   0.000  -0.000  -0.000   0.000
  0.000   0.000  -0.000  -0.000  -0.000   0.000   0.000   0.000
  0.000  -0.000   0.000  -0.000   0.000  -0.000  -0.000  -0.000
 -0.000   0.000  -0.000   0.000  -0.000   0.000  -7.213   0.000
 -0.000  -0.000   0.000   0.000   0.000  -0.000   0.000  -7.214
  0.000  -0.000  -0.000  -0.000   0.000  -0.000  -0.000   0.000
  0.000   0.000  -0.000  -0.000  -0.000   0.000   0.000   0.000
  0.000  -0.000   0.000  -0.000   0.000  -0.000  -0.000  -0.000
  0.000   0.000  -0.000   0.000  -0.000   0.000  -0.000  -0.000
 -0.000  -0.000   0.000  -0.000  -0.000  -0.000   0.000   0.000
 pseudopotential strength for first ion, spin component:           2
-28.106   0.000   0.000   5.977  -0.000  -0.000  -0.000  -0.000
  0.000 -28.108   0.000  -0.000   5.978  -0.000   0.000  -0.000
  0.000   0.000 -28.106  -0.000  -0.000   5.977  -0.000   0.000
  5.977  -0.000  -0.000   4.218   0.000   0.000   0.000   0.000
 -0.000   5.978  -0.000   0.000   4.218   0.000  -0.000   0.000
 -0.000  -0.000   5.977   0.000   0.000   4.218   0.000  -0.000
 -0.000   0.000  -0.000   0.000  -0.000   0.000  -6.357   0.000
 -0.000  -0.000   0.000   0.000   0.000  -0.000   0.000  -6.357
  0.000  -0.000  -0.000  -0.000   0.000   0.000  -0.000   0.000
  0.000   0.000  -0.000  -0.000  -0.000   0.000   0.000   0.000
  0.000  -0.000   0.000  -0.000   0.000  -0.000  -0.000  -0.000
 -0.000   0.000  -0.000   0.000  -0.000   0.000  -7.213   0.000
 -0.000  -0.000   0.000   0.000   0.000  -0.000   0.000  -7.214
  0.000  -0.000  -0.000  -0.000   0.000   0.000  -0.000   0.000
  0.000   0.000  -0.000  -0.000  -0.000   0.000   0.000   0.000
  0.000  -0.000   0.000  -0.000   0.000  -0.000  -0.000  -0.000
  0.000   0.000  -0.000   0.000  -0.000   0.000  -0.000  -0.000
 -0.000  -0.000   0.000  -0.000  -0.000  -0.000   0.000   0.000
 total augmentation occupancy for first ion, spin component:           1
  1.993   0.000   0.000  -0.013  -0.000  -0.000   0.000   0.000  -0.000   0.000   0.000  -0.000  -0.000   0.000   0.000   0.000
  0.000   1.993   0.000  -0.000  -0.013  -0.000   0.000   0.000   0.000   0.000   0.000   0.000  -0.000   0.000   0.000   0.000
  0.000   0.000   1.993  -0.000  -0.000  -0.013   0.000   0.000   0.000   0.000  -0.000  -0.000   0.000   0.000   0.000  -0.000
 -0.013  -0.000  -0.000   0.202   0.000   0.000   0.000  -0.000   0.000   0.000   0.000   0.000   0.000  -0.000   0.000   0.000
 -0.000  -0.013  -0.000   0.000   0.206   0.000   0.000   0.000  -0.000   0.000   0.000   0.000   0.000   0.000  -0.000   0.000
 -0.000  -0.000  -0.013   0.000   0.000   0.203   0.000   0.000   0.000   0.000   0.000   0.000   0.000  -0.000   0.000   0.000
  0.000   0.000  -0.000   0.000   0.000   0.000   6.103   0.000  -0.000   0.000   0.000  -3.390  -0.000   0.000  -0.000  -0.000
  0.000   0.000   0.000   0.000   0.000   0.000   0.000   5.991   0.000   0.000  -0.000  -0.000  -3.338  -0.000  -0.000   0.000
 -0.000   0.000   0.000   0.000  -0.000   0.000  -0.000   0.000   5.696   0.000  -0.041   0.000  -0.000  -3.351  -0.000   0.020
  0.000   0.000   0.000   0.000   0.000   0.000   0.000   0.000   0.000   5.895   0.000  -0.000  -0.000  -0.000  -3.293  -0.000
  0.000   0.000   0.000   0.000   0.000   0.000   0.000  -0.000  -0.041   0.000   5.551  -0.000   0.000   0.020  -0.000  -3.279
 -0.000  -0.000  -0.000   0.000   0.000   0.000  -3.390  -0.000   0.000  -0.000  -0.000   1.922   0.000  -0.000   0.000  -0.000
 -0.000  -0.000   0.000   0.000   0.000   0.000  -0.000  -3.338  -0.000  -0.000   0.000   0.000   1.898   0.000   0.000  -0.000
  0.000   0.000   0.000  -0.000   0.000  -0.000   0.000  -0.000  -3.351  -0.000   0.020  -0.000   0.000   1.990   0.000  -0.010
  0.000   0.000   0.000   0.000  -0.000   0.000  -0.000  -0.000  -0.000  -3.293  -0.000   0.000   0.000   0.000   1.876   0.000
  0.000   0.000  -0.000   0.000   0.000   0.000  -0.000   0.000   0.020  -0.000  -3.279  -0.000  -0.000  -0.010   0.000   1.955
  0.000  -0.000   0.000   0.000   0.000  -0.000   0.000  -0.000   0.028  -0.000   0.010   0.000   0.000  -0.016   0.000  -0.006
  0.000  -0.000   0.000   0.000   0.000   0.000   0.000   0.000   0.000   0.000   0.000   0.000  -0.000  -0.000  -0.000  -0.000
 total augmentation occupancy for first ion, spin component:           2
  0.000   0.000   0.000   0.000   0.000   0.000   0.000  -0.000   0.000   0.000   0.000   0.000  -0.000   0.000   0.000   0.000
  0.000   0.000   0.000   0.000   0.000   0.000   0.000  -0.000  -0.000   0.000   0.000  -0.000   0.000  -0.000   0.000   0.000
  0.000   0.000   0.000   0.000   0.000   0.000   0.000   0.000   0.000  -0.000   0.000   0.000   0.000   0.000   0.000   0.000
  0.000   0.000   0.000  -0.000  -0.000  -0.000   0.000   0.000   0.000   0.000   0.000   0.000   0.000   0.000   0.000   0.000
  0.000   0.000   0.000  -0.000  -0.000  -0.000   0.000   0.000   0.000   0.000   0.000   0.000   0.000   0.000   0.000   0.000
  0.000   0.000   0.000  -0.000  -0.000  -0.000   0.000   0.000   0.000   0.000   0.000  -0.000   0.000  -0.000   0.000   0.000
  0.000   0.000   0.000   0.000   0.000   0.000  -0.003  -0.000   0.000  -0.000   0.000   0.001   0.000  -0.000   0.000  -0.000
 -0.000  -0.000   0.000   0.000   0.000   0.000  -0.000  -0.003  -0.000  -0.000   0.000   0.000   0.002  -0.000   0.000  -0.000
  0.000   0.000   0.000   0.000   0.000   0.000   0.000  -0.000  -0.006   0.000  -0.000  -0.000  -0.000   0.005   0.000   0.000
  0.000   0.000   0.000   0.000   0.000   0.000  -0.000  -0.000   0.000  -0.004  -0.000   0.000   0.000  -0.000   0.003   0.000
  0.000  -0.000   0.000   0.000   0.000   0.000   0.000   0.000  -0.000  -0.000  -0.006  -0.000  -0.000   0.000   0.000   0.005
  0.000  -0.000   0.000   0.000   0.000   0.000   0.001   0.000  -0.000   0.000  -0.000  -0.001  -0.000   0.000  -0.000   0.000
  0.000   0.000   0.000   0.000   0.000   0.000   0.000   0.002  -0.000   0.000  -0.000  -0.000  -0.001   0.000  -0.000   0.000
  0.000  -0.000   0.000   0.000  -0.000  -0.000  -0.000  -0.000   0.005  -0.000   0.000   0.000   0.000  -0.004   0.000  -0.000
  0.000   0.000  -0.000   0.000   0.000   0.000   0.000   0.000   0.000   0.003   0.000  -0.000  -0.000   0.000  -0.001  -0.000
  0.000  -0.000   0.000   0.000   0.000  -0.000  -0.000  -0.000   0.000   0.000   0.005   0.000   0.000  -0.000  -0.000  -0.004
  0.000   0.000  -0.000   0.000   0.000   0.000  -0.000  -0.000   0.000   0.000   0.000   0.000   0.000  -0.000   0.000  -0.000
  0.000  -0.000   0.000   0.000   0.000   0.000  -0.000   0.000  -0.000  -0.000   0.000  -0.000   0.000   0.000  -0.000  -0.000


------------------------ aborting loop because EDIFF is reached ----------------------------------------





 total charge

# of ion       s       p       d       tot
------------------------------------------
    1        0.419   6.290   3.084   9.792
    2        0.419   6.290   3.084   9.792
--------------------------------------------------
tot          0.837  12.580   6.167  19.584



 magnetization (x)

# of ion       s       p       d       tot
------------------------------------------
    1       -0.000  -0.000  -0.001  -0.001
    2       -0.000  -0.000  -0.001  -0.001
--------------------------------------------------
tot         -0.000  -0.000  -0.002  -0.003

    CHARGE:  cpu time     29.6462: real time      1.6685
    FORLOC:  cpu time      0.0004: real time      0.0004
    FORNL :  cpu time    108.3770: real time      6.1102
    STRESS:  cpu time    338.9894: real time     19.1109
    FORCOR:  cpu time      1.5580: real time      0.1073
    FORHAR:  cpu time      0.1578: real time      0.0098
    MIXING:  cpu time      0.0019: real time      0.0014
    OFIELD:  cpu time      0.0000: real time      0.0000

  FORCE on cell =-STRESS in cart. coord.  units (eV):
  Direction    XX          YY          ZZ          XY          YZ          ZX
  --------------------------------------------------------------------------------------
  Alpha Z   247.02244   247.02244   247.02244
  Ewald    -636.95753  -638.07086  -633.81869    -0.00000    -0.00000    -0.00000
  Hartree    81.94056    81.31956    83.32970    -0.00000    -0.00000    -0.00000
  E(xc)     -95.06767   -95.07199   -95.05923     0.00000     0.00000     0.00000
  Local     204.59873   206.38248   200.16972     0.00000     0.00000    -0.00000
  n-local   -84.68702   -84.93670   -84.31530     0.61672     0.80727     0.89075
  augment    53.57498    53.59409    53.49634     0.00000    -0.00000    -0.00000
  Kinetic   229.49602   229.19487   229.62625     0.38664     0.25030     0.14911
  Fock        0.00000     0.00000     0.00000     0.00000     0.00000     0.00000
  -------------------------------------------------------------------------------------
  Total      -0.07949    -0.56611     0.45124    -0.00000     0.00000    -0.00000
  in kB      -3.47481   -24.74578    19.72456    -0.00000     0.00000    -0.00000
  external pressure =       -2.83 kB  Pullay stress =        0.00 kB


 VOLUME and BASIS-vectors are now :
 -----------------------------------------------------------------------------
  energy-cutoff  :      520.00
  volume of cell :       36.65
      direct lattice vectors                 reciprocal lattice vectors
     3.322222359  0.000000000  0.000000000     0.301003332 -0.000000000  0.000000000
     0.000000000  3.388666806  0.000000000     0.000000000  0.295101306  0.000000000
     0.000000000  0.000000000  3.255777912    -0.000000000 -0.000000000  0.307146257

  length of vectors
     3.322222359  3.388666806  3.255777912     0.301003332  0.295101306  0.307146257


 FORCES acting on ions
    electron-ion (+dipol)            ewald-force                    non-local-force                 convergence-correction
 -----------------------------------------------------------------------------------------------
   -.241E-14 -.121E-13 -.120E-13   -.122E-13 -.676E-14 -.451E-14   0.464E-22 -.140E-21 -.587E-23   0.180E-14 -.196E-13 0.346E-13
   0.120E-12 0.151E-11 0.154E-11   0.143E-13 0.609E-14 0.373E-14   -.117E-22 -.706E-22 0.122E-22   -.275E-13 -.570E-13 -.290E-14
 -----------------------------------------------------------------------------------------------
   0.118E-12 0.150E-11 0.153E-11   0.213E-14 -.673E-15 -.774E-15   0.347E-22 -.210E-21 0.630E-23   -.257E-13 -.766E-13 0.317E-13


 POSITION                                       TOTAL-FORCE (eV/Angst)
 -----------------------------------------------------------------------------------
      0.00000      0.00000      0.00000         0.000000      0.000000     -0.000000
      1.66111      1.69433      1.62789        -0.000000     -0.000000      0.000000
 -----------------------------------------------------------------------------------
    total drift:                                0.000000      0.000000      0.000000


--------------------------------------------------------------------------------------------------------



  FREE ENERGIE OF THE ION-ELECTRON SYSTEM (eV)
  ---------------------------------------------------
  free  energy   TOTEN  =       -20.19500010 eV

  energy  without entropy=      -20.19500010  energy(sigma->0) =      -20.19500010



--------------------------------------------------------------------------------------------------------


    POTLOK:  cpu time      2.2454: real time      0.3428


--------------------------------------------------------------------------------------------------------


     LOOP+:  cpu time   4794.5386: real time    274.2718
 -----------------------------------------------------------------------------
|                                                                             |
|           W    W    AA    RRRRR   N    N  II  N    N   GGGG   !!!           |
|           W    W   A  A   R    R  NN   N  II  NN   N  G    G  !!!           |
|           W    W  A    A  R    R  N N  N  II  N N  N  G       !!!           |
|           W WW W  AAAAAA  RRRRR   N  N N  II  N  N N  G  GGG   !            |
|           WW  WW  A    A  R   R   N   NN  II  N   NN  G    G                |
|           W    W  A    A  R    R  N    N  II  N    N   GGGG   !!!           |
|                                                                             |
|     Tetrahedron method does not include variations of the Fermi             |
|     occupations, so forces and stress will be inaccurate. We suggest        |
|     using a different smearing scheme ISMEAR = 1 or 2 for metals in         |
|     relaxations.                                                            |
|                                                                             |
 -----------------------------------------------------------------------------

    4ORBIT:  cpu time      0.0000: real time      0.0000



 total charge

# of ion       s       p       d       tot
------------------------------------------
    1        0.419   6.290   3.084   9.792
    2        0.419   6.290   3.084   9.792
--------------------------------------------------
tot          0.837  12.580   6.167  19.584



 magnetization (x)

# of ion       s       p       d       tot
------------------------------------------
    1       -0.000  -0.000  -0.001  -0.001
    2       -0.000  -0.000  -0.001  -0.001
--------------------------------------------------
tot         -0.000  -0.000  -0.002  -0.003

 BZINTS: Fermi energy:    4.857212;   22.000000 electrons
         Band energy:-0.274482E+03;  BLOECHL correction:   -0.206300

 total amount of memory used by VASP MPI-rank0    85760. kBytes
=======================================================================

   base      :      30000. kBytes
   nonlr-proj:       3692. kBytes
   fftplans  :       5340. kBytes
   grid      :      12719. kBytes
   one-center:         62. kBytes
   wavefun   :      33947. kBytes

  
  
 General timing and accounting informations for this job:
 ========================================================
  
                  Total CPU time used (sec):     4844.282
                            User time (sec):     4633.844
                          System time (sec):      210.438
                         Elapsed time (sec):      277.831
  
                   Maximum memory used (kb):      335208.
                   Average memory used (kb):          N/A
  
                          Minor page faults:      5565370
                          Major page faults:          121
                 Voluntary context switches:      2444136
