   4   4   1   0
  0.5820879E+02  0.6151998E-09  0.6151998E-09  0.6151998E-09  0.5000000E-15
  1.000000000000000E-004
  CAR 
 unknown system                          
      5.88692902    -37.30671089  301      1.38785014      1.00000000
    -37.307  0.0000E+00  0.0000E+00  0.0000E+00  0.0000E+00
    -37.163  0.0000E+00  0.0000E+00  0.0000E+00  0.0000E+00
    -37.019  0.0000E+00  0.0000E+00  0.0000E+00  0.0000E+00
    -36.875  0.0000E+00  0.0000E+00  0.0000E+00  0.0000E+00
    -36.731  0.0000E+00  0.0000E+00  0.0000E+00  0.0000E+00
    -36.587  0.0000E+00  0.0000E+00  0.0000E+00  0.0000E+00
    -36.443  0.0000E+00  0.0000E+00  0.0000E+00  0.0000E+00
    -36.299  0.0000E+00  0.0000E+00  0.0000E+00  0.0000E+00
    -36.155  0.0000E+00  0.0000E+00  0.0000E+00  0.0000E+00
    -36.011  0.0000E+00  0.0000E+00  0.0000E+00  0.0000E+00
    -35.867  0.6393E-03  0.5875E-03  0.9205E-04  0.8459E-04
    -35.723  0.1074E-01  0.9870E-02  0.1639E-02  0.1506E-02
    -35.579  0.1899E+00  0.1746E+00  0.2898E-01  0.2664E-01
    -35.435  0.2992E+01  0.2777E+01  0.4598E+00  0.4265E+00
    -35.291  0.1619E+02  0.1592E+02  0.2791E+01  0.2718E+01
    -35.147  0.7738E+01  0.8185E+01  0.3905E+01  0.3897E+01
    -35.003  0.6227E+00  0.6761E+00  0.3995E+01  0.3994E+01
    -34.859  0.0000E+00  0.0000E+00  0.4000E+01  0.4000E+01
    -34.715  0.0000E+00  0.0000E+00  0.4000E+01  0.4000E+01
    -34.571  0.0000E+00  0.0000E+00  0.4000E+01  0.4000E+01
    -34.427  0.0000E+00  0.0000E+00  0.4000E+01  0.4000E+01
    -34.283  0.0000E+00  0.0000E+00  0.4000E+01  0.4000E+01
    -34.139  0.0000E+00  0.0000E+00  0.4000E+01  0.4000E+01
    -33.995  0.0000E+00  0.0000E+00  0.4000E+01  0.4000E+01
    -33.851  0.0000E+00  0.0000E+00  0.4000E+01  0.4000E+01
    -33.707  0.0000E+00  0.0000E+00  0.4000E+01  0.4000E+01
    -33.563  0.0000E+00  0.0000E+00  0.4000E+01  0.4000E+01
    -33.419  0.0000E+00  0.0000E+00  0.4000E+01  0.4000E+01
    -33.275  0.0000E+00  0.0000E+00  0.4000E+01  0.4000E+01
    -33.131  0.0000E+00  0.0000E+00  0.4000E+01  0.4000E+01
    -32.987  0.0000E+00  0.0000E+00  0.4000E+01  0.4000E+01
    -32.843  0.0000E+00  0.0000E+00  0.4000E+01  0.4000E+01
    -32.699  0.0000E+00  0.0000E+00  0.4000E+01  0.4000E+01
    -32.555  0.0000E+00  0.0000E+00  0.4000E+01  0.4000E+01
    -32.411  0.0000E+00  0.0000E+00  0.4000E+01  0.4000E+01
    -32.267  0.0000E+00  0.0000E+00  0.4000E+01  0.4000E+01
    -32.123  0.0000E+00  0.0000E+00  0.4000E+01  0.4000E+01
    -31.979  0.0000E+00  0.0000E+00  0.4000E+01  0.4000E+01
    -31.836  0.0000E+00  0.0000E+00  0.4000E+01  0.4000E+01
    -31.692  0.0000E+00  0.0000E+00  0.4000E+01  0.4000E+01
    -31.548  0.0000E+00  0.0000E+00  0.4000E+01  0.4000E+01
    -31.404  0.0000E+00  0.0000E+00  0.4000E+01  0.4000E+01
    -31.260  0.0000E+00  0.0000E+00  0.4000E+01  0.4000E+01
    -31.116  0.0000E+00  0.0000E+00  0.4000E+01  0.4000E+01
    -30.972  0.0000E+00  0.0000E+00  0.4000E+01  0.4000E+01
    -30.828  0.0000E+00  0.0000E+00  0.4000E+01  0.4000E+01
    -30.684  0.0000E+00  0.0000E+00  0.4000E+01  0.4000E+01
    -30.540  0.0000E+00  0.0000E+00  0.4000E+01  0.4000E+01
    -30.396  0.0000E+00  0.0000E+00  0.4000E+01  0.4000E+01
    -30.252  0.0000E+00  0.0000E+00  0.4000E+01  0.4000E+01
    -30.108  0.0000E+00  0.0000E+00  0.4000E+01  0.4000E+01
    -29.964  0.0000E+00  0.0000E+00  0.4000E+01  0.4000E+01
    -29.820  0.0000E+00  0.0000E+00  0.4000E+01  0.4000E+01
    -29.676  0.0000E+00  0.0000E+00  0.4000E+01  0.4000E+01
    -29.532  0.0000E+00  0.0000E+00  0.4000E+01  0.4000E+01
    -29.388  0.0000E+00  0.0000E+00  0.4000E+01  0.4000E+01
    -29.244  0.0000E+00  0.0000E+00  0.4000E+01  0.4000E+01
    -29.100  0.0000E+00  0.0000E+00  0.4000E+01  0.4000E+01
    -28.956  0.0000E+00  0.0000E+00  0.4000E+01  0.4000E+01
    -28.812  0.0000E+00  0.0000E+00  0.4000E+01  0.4000E+01
    -28.668  0.0000E+00  0.0000E+00  0.4000E+01  0.4000E+01
    -28.524  0.0000E+00  0.0000E+00  0.4000E+01  0.4000E+01
    -28.380  0.0000E+00  0.0000E+00  0.4000E+01  0.4000E+01
    -28.236  0.0000E+00  0.0000E+00  0.4000E+01  0.4000E+01
    -28.092  0.0000E+00  0.0000E+00  0.4000E+01  0.4000E+01
    -27.948  0.0000E+00  0.0000E+00  0.4000E+01  0.4000E+01
    -27.804  0.0000E+00  0.0000E+00  0.4000E+01  0.4000E+01
    -27.660  0.0000E+00  0.0000E+00  0.4000E+01  0.4000E+01
    -27.516  0.0000E+00  0.0000E+00  0.4000E+01  0.4000E+01
    -27.372  0.0000E+00  0.0000E+00  0.4000E+01  0.4000E+01
    -27.228  0.0000E+00  0.0000E+00  0.4000E+01  0.4000E+01
    -27.084  0.0000E+00  0.0000E+00  0.4000E+01  0.4000E+01
    -26.940  0.0000E+00  0.0000E+00  0.4000E+01  0.4000E+01
    -26.796  0.0000E+00  0.0000E+00  0.4000E+01  0.4000E+01
    -26.652  0.0000E+00  0.0000E+00  0.4000E+01  0.4000E+01
    -26.508  0.0000E+00  0.0000E+00  0.4000E+01  0.4000E+01
    -26.364  0.0000E+00  0.0000E+00  0.4000E+01  0.4000E+01
    -26.220  0.0000E+00  0.0000E+00  0.4000E+01  0.4000E+01
    -26.076  0.0000E+00  0.0000E+00  0.4000E+01  0.4000E+01
    -25.932  0.0000E+00  0.0000E+00  0.4000E+01  0.4000E+01
    -25.788  0.0000E+00  0.0000E+00  0.4000E+01  0.4000E+01
    -25.644  0.0000E+00  0.0000E+00  0.4000E+01  0.4000E+01
    -25.500  0.0000E+00  0.0000E+00  0.4000E+01  0.4000E+01
    -25.356  0.0000E+00  0.0000E+00  0.4000E+01  0.4000E+01
    -25.212  0.0000E+00  0.0000E+00  0.4000E+01  0.4000E+01
    -25.069  0.0000E+00  0.0000E+00  0.4000E+01  0.4000E+01
    -24.925  0.0000E+00  0.0000E+00  0.4000E+01  0.4000E+01
    -24.781  0.0000E+00  0.0000E+00  0.4000E+01  0.4000E+01
    -24.637  0.0000E+00  0.0000E+00  0.4000E+01  0.4000E+01
    -24.493  0.0000E+00  0.0000E+00  0.4000E+01  0.4000E+01
    -24.349  0.0000E+00  0.0000E+00  0.4000E+01  0.4000E+01
    -24.205  0.0000E+00  0.0000E+00  0.4000E+01  0.4000E+01
    -24.061  0.0000E+00  0.0000E+00  0.4000E+01  0.4000E+01
    -23.917  0.0000E+00  0.0000E+00  0.4000E+01  0.4000E+01
    -23.773  0.0000E+00  0.0000E+00  0.4000E+01  0.4000E+01
    -23.629  0.0000E+00  0.0000E+00  0.4000E+01  0.4000E+01
    -23.485  0.0000E+00  0.0000E+00  0.4000E+01  0.4000E+01
    -23.341  0.0000E+00  0.0000E+00  0.4000E+01  0.4000E+01
    -23.197  0.0000E+00  0.0000E+00  0.4000E+01  0.4000E+01
    -23.053  0.0000E+00  0.0000E+00  0.4000E+01  0.4000E+01
    -22.909  0.0000E+00  0.0000E+00  0.4000E+01  0.4000E+01
    -22.765  0.0000E+00  0.0000E+00  0.4000E+01  0.4000E+01
    -22.621  0.0000E+00  0.0000E+00  0.4000E+01  0.4000E+01
    -22.477  0.0000E+00  0.0000E+00  0.4000E+01  0.4000E+01
    -22.333  0.0000E+00  0.0000E+00  0.4000E+01  0.4000E+01
    -22.189  0.0000E+00  0.0000E+00  0.4000E+01  0.4000E+01
    -22.045  0.0000E+00  0.0000E+00  0.4000E+01  0.4000E+01
    -21.901  0.0000E+00  0.0000E+00  0.4000E+01  0.4000E+01
    -21.757  0.0000E+00  0.0000E+00  0.4000E+01  0.4000E+01
    -21.613  0.0000E+00  0.0000E+00  0.4000E+01  0.4000E+01
    -21.469  0.0000E+00  0.0000E+00  0.4000E+01  0.4000E+01
    -21.325  0.0000E+00  0.0000E+00  0.4000E+01  0.4000E+01
    -21.181  0.0000E+00  0.0000E+00  0.4000E+01  0.4000E+01
    -21.037  0.0000E+00  0.0000E+00  0.4000E+01  0.4000E+01
    -20.893  0.0000E+00  0.0000E+00  0.4000E+01  0.4000E+01
    -20.749  0.0000E+00  0.0000E+00  0.4000E+01  0.4000E+01
    -20.605  0.0000E+00  0.0000E+00  0.4000E+01  0.4000E+01
    -20.461  0.0000E+00  0.0000E+00  0.4000E+01  0.4000E+01
    -20.317  0.0000E+00  0.0000E+00  0.4000E+01  0.4000E+01
    -20.173  0.0000E+00  0.0000E+00  0.4000E+01  0.4000E+01
    -20.029  0.0000E+00  0.0000E+00  0.4000E+01  0.4000E+01
    -19.885  0.0000E+00  0.0000E+00  0.4000E+01  0.4000E+01
    -19.741  0.0000E+00  0.0000E+00  0.4000E+01  0.4000E+01
    -19.597  0.0000E+00  0.0000E+00  0.4000E+01  0.4000E+01
    -19.453  0.0000E+00  0.0000E+00  0.4000E+01  0.4000E+01
    -19.309  0.0000E+00  0.0000E+00  0.4000E+01  0.4000E+01
    -19.165  0.0000E+00  0.0000E+00  0.4000E+01  0.4000E+01
    -19.021  0.0000E+00  0.0000E+00  0.4000E+01  0.4000E+01
    -18.877  0.0000E+00  0.0000E+00  0.4000E+01  0.4000E+01
    -18.733  0.0000E+00  0.0000E+00  0.4000E+01  0.4000E+01
    -18.589  0.0000E+00  0.0000E+00  0.4000E+01  0.4000E+01
    -18.445  0.0000E+00  0.0000E+00  0.4000E+01  0.4000E+01
    -18.302  0.0000E+00  0.0000E+00  0.4000E+01  0.4000E+01
    -18.158  0.0000E+00  0.0000E+00  0.4000E+01  0.4000E+01
    -18.014  0.0000E+00  0.0000E+00  0.4000E+01  0.4000E+01
    -17.870  0.1072E-02  0.9561E-03  0.4000E+01  0.4000E+01
    -17.726  0.2644E-01  0.2417E-01  0.4004E+01  0.4004E+01
    -17.582  0.4576E+00  0.4182E+00  0.4070E+01  0.4064E+01
    -17.438  0.6917E+01  0.6404E+01  0.5066E+01  0.4986E+01
    -17.294  0.3849E+02  0.3746E+02  0.1061E+02  0.1038E+02
    -17.150  0.3296E+02  0.3417E+02  0.1535E+02  0.1530E+02
    -17.006  0.4221E+01  0.4578E+01  0.1596E+02  0.1596E+02
    -16.862  0.7054E-01  0.1066E+00  0.1600E+02  0.1600E+02
    -16.718  0.0000E+00  0.0000E+00  0.1600E+02  0.1600E+02
    -16.574  0.0000E+00  0.0000E+00  0.1600E+02  0.1600E+02
    -16.430  0.0000E+00  0.0000E+00  0.1600E+02  0.1600E+02
    -16.286  0.0000E+00  0.0000E+00  0.1600E+02  0.1600E+02
    -16.142  0.0000E+00  0.0000E+00  0.1600E+02  0.1600E+02
    -15.998  0.0000E+00  0.0000E+00  0.1600E+02  0.1600E+02
    -15.854  0.0000E+00  0.0000E+00  0.1600E+02  0.1600E+02
    -15.710  0.0000E+00  0.0000E+00  0.1600E+02  0.1600E+02
    -15.566  0.0000E+00  0.0000E+00  0.1600E+02  0.1600E+02
    -15.422  0.0000E+00  0.0000E+00  0.1600E+02  0.1600E+02
    -15.278  0.0000E+00  0.0000E+00  0.1600E+02  0.1600E+02
    -15.134  0.0000E+00  0.0000E+00  0.1600E+02  0.1600E+02
    -14.990  0.0000E+00  0.0000E+00  0.1600E+02  0.1600E+02
    -14.846  0.0000E+00  0.0000E+00  0.1600E+02  0.1600E+02
    -14.702  0.0000E+00  0.0000E+00  0.1600E+02  0.1600E+02
    -14.558  0.0000E+00  0.0000E+00  0.1600E+02  0.1600E+02
    -14.414  0.0000E+00  0.0000E+00  0.1600E+02  0.1600E+02
    -14.270  0.0000E+00  0.0000E+00  0.1600E+02  0.1600E+02
    -14.126  0.0000E+00  0.0000E+00  0.1600E+02  0.1600E+02
    -13.982  0.0000E+00  0.0000E+00  0.1600E+02  0.1600E+02
    -13.838  0.0000E+00  0.0000E+00  0.1600E+02  0.1600E+02
    -13.694  0.0000E+00  0.0000E+00  0.1600E+02  0.1600E+02
    -13.550  0.0000E+00  0.0000E+00  0.1600E+02  0.1600E+02
    -13.406  0.0000E+00  0.0000E+00  0.1600E+02  0.1600E+02
    -13.262  0.0000E+00  0.0000E+00  0.1600E+02  0.1600E+02
    -13.118  0.0000E+00  0.0000E+00  0.1600E+02  0.1600E+02
    -12.974  0.0000E+00  0.0000E+00  0.1600E+02  0.1600E+02
    -12.830  0.0000E+00  0.0000E+00  0.1600E+02  0.1600E+02
    -12.686  0.0000E+00  0.0000E+00  0.1600E+02  0.1600E+02
    -12.542  0.0000E+00  0.0000E+00  0.1600E+02  0.1600E+02
    -12.398  0.0000E+00  0.0000E+00  0.1600E+02  0.1600E+02
    -12.254  0.0000E+00  0.0000E+00  0.1600E+02  0.1600E+02
    -12.110  0.0000E+00  0.0000E+00  0.1600E+02  0.1600E+02
    -11.966  0.0000E+00  0.0000E+00  0.1600E+02  0.1600E+02
    -11.822  0.0000E+00  0.0000E+00  0.1600E+02  0.1600E+02
    -11.678  0.0000E+00  0.0000E+00  0.1600E+02  0.1600E+02
    -11.535  0.0000E+00  0.0000E+00  0.1600E+02  0.1600E+02
    -11.391  0.0000E+00  0.0000E+00  0.1600E+02  0.1600E+02
    -11.247  0.0000E+00  0.0000E+00  0.1600E+02  0.1600E+02
    -11.103  0.0000E+00  0.0000E+00  0.1600E+02  0.1600E+02
    -10.959  0.0000E+00  0.0000E+00  0.1600E+02  0.1600E+02
    -10.815  0.0000E+00  0.0000E+00  0.1600E+02  0.1600E+02
    -10.671  0.0000E+00  0.0000E+00  0.1600E+02  0.1600E+02
    -10.527  0.0000E+00  0.0000E+00  0.1600E+02  0.1600E+02
    -10.383  0.0000E+00  0.0000E+00  0.1600E+02  0.1600E+02
    -10.239  0.0000E+00  0.0000E+00  0.1600E+02  0.1600E+02
    -10.095  0.0000E+00  0.0000E+00  0.1600E+02  0.1600E+02
     -9.951  0.0000E+00  0.0000E+00  0.1600E+02  0.1600E+02
     -9.807  0.0000E+00  0.0000E+00  0.1600E+02  0.1600E+02
     -9.663  0.0000E+00  0.0000E+00  0.1600E+02  0.1600E+02
     -9.519  0.0000E+00  0.0000E+00  0.1600E+02  0.1600E+02
     -9.375  0.0000E+00  0.0000E+00  0.1600E+02  0.1600E+02
     -9.231  0.0000E+00  0.0000E+00  0.1600E+02  0.1600E+02
     -9.087  0.0000E+00  0.0000E+00  0.1600E+02  0.1600E+02
     -8.943  0.0000E+00  0.0000E+00  0.1600E+02  0.1600E+02
     -8.799  0.0000E+00  0.0000E+00  0.1600E+02  0.1600E+02
     -8.655  0.0000E+00  0.0000E+00  0.1600E+02  0.1600E+02
     -8.511  0.0000E+00  0.0000E+00  0.1600E+02  0.1600E+02
     -8.367  0.0000E+00  0.0000E+00  0.1600E+02  0.1600E+02
     -8.223  0.0000E+00  0.0000E+00  0.1600E+02  0.1600E+02
     -8.079  0.0000E+00  0.0000E+00  0.1600E+02  0.1600E+02
     -7.935  0.0000E+00  0.0000E+00  0.1600E+02  0.1600E+02
     -7.791  0.0000E+00  0.0000E+00  0.1600E+02  0.1600E+02
     -7.647  0.0000E+00  0.0000E+00  0.1600E+02  0.1600E+02
     -7.503  0.0000E+00  0.0000E+00  0.1600E+02  0.1600E+02
     -7.359  0.0000E+00  0.0000E+00  0.1600E+02  0.1600E+02
     -7.215  0.0000E+00  0.0000E+00  0.1600E+02  0.1600E+02
     -7.071  0.0000E+00  0.0000E+00  0.1600E+02  0.1600E+02
     -6.927  0.0000E+00  0.0000E+00  0.1600E+02  0.1600E+02
     -6.783  0.0000E+00  0.0000E+00  0.1600E+02  0.1600E+02
     -6.639  0.0000E+00  0.0000E+00  0.1600E+02  0.1600E+02
     -6.495  0.0000E+00  0.0000E+00  0.1600E+02  0.1600E+02
     -6.351  0.0000E+00  0.0000E+00  0.1600E+02  0.1600E+02
     -6.207  0.0000E+00  0.0000E+00  0.1600E+02  0.1600E+02
     -6.063  0.0000E+00  0.0000E+00  0.1600E+02  0.1600E+02
     -5.919  0.0000E+00  0.0000E+00  0.1600E+02  0.1600E+02
     -5.775  0.0000E+00  0.0000E+00  0.1600E+02  0.1600E+02
     -5.631  0.0000E+00  0.0000E+00  0.1600E+02  0.1600E+02
     -5.487  0.0000E+00  0.0000E+00  0.1600E+02  0.1600E+02
     -5.343  0.0000E+00  0.0000E+00  0.1600E+02  0.1600E+02
     -5.199  0.0000E+00  0.0000E+00  0.1600E+02  0.1600E+02
     -5.055  0.0000E+00  0.0000E+00  0.1600E+02  0.1600E+02
     -4.911  0.0000E+00  0.0000E+00  0.1600E+02  0.1600E+02
     -4.768  0.0000E+00  0.0000E+00  0.1600E+02  0.1600E+02
     -4.624  0.0000E+00  0.0000E+00  0.1600E+02  0.1600E+02
     -4.480  0.0000E+00  0.0000E+00  0.1600E+02  0.1600E+02
     -4.336  0.0000E+00  0.0000E+00  0.1600E+02  0.1600E+02
     -4.192  0.0000E+00  0.0000E+00  0.1600E+02  0.1600E+02
     -4.048  0.0000E+00  0.0000E+00  0.1600E+02  0.1600E+02
     -3.904  0.0000E+00  0.0000E+00  0.1600E+02  0.1600E+02
     -3.760  0.0000E+00  0.0000E+00  0.1600E+02  0.1600E+02
     -3.616  0.0000E+00  0.0000E+00  0.1600E+02  0.1600E+02
     -3.472  0.0000E+00  0.0000E+00  0.1600E+02  0.1600E+02
     -3.328  0.0000E+00  0.0000E+00  0.1600E+02  0.1600E+02
     -3.184  0.0000E+00  0.0000E+00  0.1600E+02  0.1600E+02
     -3.040  0.0000E+00  0.0000E+00  0.1600E+02  0.1600E+02
     -2.896  0.0000E+00  0.0000E+00  0.1600E+02  0.1600E+02
     -2.752  0.0000E+00  0.0000E+00  0.1600E+02  0.1600E+02
     -2.608  0.5877E-05  0.2366E-05  0.1600E+02  0.1600E+02
     -2.464  0.1270E-03  0.5957E-04  0.1600E+02  0.1600E+02
     -2.320  0.2236E-02  0.1063E-02  0.1600E+02  0.1600E+02
     -2.176  0.2978E-01  0.1616E-01  0.1600E+02  0.1600E+02
     -2.032  0.1400E+00  0.1049E+00  0.1602E+02  0.1602E+02
     -1.888  0.2577E+00  0.2298E+00  0.1606E+02  0.1605E+02
     -1.744  0.3433E+00  0.3251E+00  0.1611E+02  0.1610E+02
     -1.600  0.4254E+00  0.4021E+00  0.1617E+02  0.1616E+02
     -1.456  0.4744E+00  0.4614E+00  0.1624E+02  0.1622E+02
     -1.312  0.5677E+00  0.5495E+00  0.1632E+02  0.1630E+02
     -1.168  0.6040E+00  0.5873E+00  0.1641E+02  0.1639E+02
     -1.024  0.6931E+00  0.6694E+00  0.1651E+02  0.1648E+02
     -0.880  0.7352E+00  0.7378E+00  0.1662E+02  0.1659E+02
     -0.736  0.8255E+00  0.7791E+00  0.1673E+02  0.1670E+02
     -0.592  0.8899E+00  0.9008E+00  0.1686E+02  0.1683E+02
     -0.448  0.9511E+00  0.9102E+00  0.1700E+02  0.1696E+02
     -0.304  0.1063E+01  0.1057E+01  0.1715E+02  0.1711E+02
     -0.160  0.1140E+01  0.1115E+01  0.1732E+02  0.1728E+02
     -0.016  0.1234E+01  0.1203E+01  0.1750E+02  0.1745E+02
      0.128  0.1412E+01  0.1381E+01  0.1770E+02  0.1765E+02
      0.272  0.1517E+01  0.1495E+01  0.1792E+02  0.1786E+02
      0.416  0.1813E+01  0.1771E+01  0.1818E+02  0.1812E+02
      0.560  0.1744E+01  0.1743E+01  0.1843E+02  0.1837E+02
      0.704  0.1907E+01  0.1861E+01  0.1871E+02  0.1864E+02
      0.848  0.1887E+01  0.1818E+01  0.1898E+02  0.1890E+02
      0.992  0.1951E+01  0.1974E+01  0.1926E+02  0.1919E+02
      1.136  0.1738E+01  0.1741E+01  0.1951E+02  0.1944E+02
      1.280  0.1847E+01  0.1728E+01  0.1978E+02  0.1969E+02
      1.424  0.2879E+01  0.2411E+01  0.2019E+02  0.2003E+02
      1.568  0.3004E+01  0.3319E+01  0.2063E+02  0.2051E+02
      1.712  0.3298E+01  0.3375E+01  0.2110E+02  0.2100E+02
      1.856  0.4655E+01  0.4657E+01  0.2177E+02  0.2167E+02
      2.000  0.4642E+01  0.4763E+01  0.2244E+02  0.2236E+02
      2.143  0.4647E+01  0.4563E+01  0.2311E+02  0.2301E+02
      2.287  0.5287E+01  0.5182E+01  0.2387E+02  0.2376E+02
      2.431  0.4731E+01  0.4825E+01  0.2456E+02  0.2446E+02
      2.575  0.3783E+01  0.3888E+01  0.2510E+02  0.2502E+02
      2.719  0.3216E+01  0.3277E+01  0.2557E+02  0.2549E+02
      2.863  0.2815E+01  0.2878E+01  0.2597E+02  0.2591E+02
      3.007  0.2577E+01  0.2615E+01  0.2635E+02  0.2629E+02
      3.151  0.2262E+01  0.2300E+01  0.2667E+02  0.2662E+02
      3.295  0.2120E+01  0.2186E+01  0.2698E+02  0.2693E+02
      3.439  0.1867E+01  0.1895E+01  0.2725E+02  0.2721E+02
      3.583  0.1695E+01  0.1732E+01  0.2749E+02  0.2746E+02
      3.727  0.1576E+01  0.1629E+01  0.2772E+02  0.2769E+02
      3.871  0.1442E+01  0.1497E+01  0.2793E+02  0.2791E+02
      4.015  0.4555E+00  0.5739E+00  0.2799E+02  0.2799E+02
      4.159  0.3758E-01  0.5440E-01  0.2800E+02  0.2800E+02
      4.303  0.1412E-03  0.1594E-03  0.2800E+02  0.2800E+02
      4.447  0.0000E+00  0.0000E+00  0.2800E+02  0.2800E+02
      4.591  0.0000E+00  0.0000E+00  0.2800E+02  0.2800E+02
      4.735  0.0000E+00  0.0000E+00  0.2800E+02  0.2800E+02
      4.879  0.0000E+00  0.0000E+00  0.2800E+02  0.2800E+02
      5.023  0.0000E+00  0.0000E+00  0.2800E+02  0.2800E+02
      5.167  0.0000E+00  0.0000E+00  0.2800E+02  0.2800E+02
      5.311  0.0000E+00  0.0000E+00  0.2800E+02  0.2800E+02
      5.455  0.0000E+00  0.0000E+00  0.2800E+02  0.2800E+02
      5.599  0.0000E+00  0.0000E+00  0.2800E+02  0.2800E+02
      5.743  0.0000E+00  0.0000E+00  0.2800E+02  0.2800E+02
      5.887  0.0000E+00  0.0000E+00  0.2800E+02  0.2800E+02
      5.88692902    -37.30671089  301      1.38785014      1.00000000
    -37.307  0.0000E+00  0.0000E+00  0.0000E+00  0.0000E+00  0.0000E+00  0.0000E+00  0.0000E+00  0.0000E+00  0.0000E+00  0.0000E+00  0.0000E+00  0.0000E+00  0.0000E+00  0.0000E+00  0.0000E+00  0.0000E+00  0.0000E+00  0.0000E+00
    -37.163  0.0000E+00  0.0000E+00  0.0000E+00  0.0000E+00  0.0000E+00  0.0000E+00  0.0000E+00  0.0000E+00  0.0000E+00  0.0000E+00  0.0000E+00  0.0000E+00  0.0000E+00  0.0000E+00  0.0000E+00  0.0000E+00  0.0000E+00  0.0000E+00
    -37.019  0.0000E+00  0.0000E+00  0.0000E+00  0.0000E+00  0.0000E+00  0.0000E+00  0.0000E+00  0.0000E+00  0.0000E+00  0.0000E+00  0.0000E+00  0.0000E+00  0.0000E+00  0.0000E+00  0.0000E+00  0.0000E+00  0.0000E+00  0.0000E+00
    -36.875  0.0000E+00  0.0000E+00  0.0000E+00  0.0000E+00  0.0000E+00  0.0000E+00  0.0000E+00  0.0000E+00  0.0000E+00  0.0000E+00  0.0000E+00  0.0000E+00  0.0000E+00  0.0000E+00  0.0000E+00  0.0000E+00  0.0000E+00  0.0000E+00
    -36.731  0.0000E+00  0.0000E+00  0.0000E+00  0.0000E+00  0.0000E+00  0.0000E+00  0.0000E+00  0.0000E+00  0.0000E+00  0.0000E+00  0.0000E+00  0.0000E+00  0.0000E+00  0.0000E+00  0.0000E+00  0.0000E+00  0.0000E+00  0.0000E+00
    -36.587  0.0000E+00  0.0000E+00  0.0000E+00  0.0000E+00  0.0000E+00  0.0000E+00  0.0000E+00  0.0000E+00  0.0000E+00  0.0000E+00  0.0000E+00  0.0000E+00  0.0000E+00  0.0000E+00  0.0000E+00  0.0000E+00  0.0000E+00  0.0000E+00
    -36.443  0.0000E+00  0.0000E+00  0.0000E+00  0.0000E+00  0.0000E+00  0.0000E+00  0.0000E+00  0.0000E+00  0.0000E+00  0.0000E+00  0.0000E+00  0.0000E+00  0.0000E+00  0.0000E+00  0.0000E+00  0.0000E+00  0.0000E+00  0.0000E+00
    -36.299  0.0000E+00  0.0000E+00  0.0000E+00  0.0000E+00  0.0000E+00  0.0000E+00  0.0000E+00  0.0000E+00  0.0000E+00  0.0000E+00  0.0000E+00  0.0000E+00  0.0000E+00  0.0000E+00  0.0000E+00  0.0000E+00  0.0000E+00  0.0000E+00
    -36.155  0.0000E+00  0.0000E+00  0.0000E+00  0.0000E+00  0.0000E+00  0.0000E+00  0.0000E+00  0.0000E+00  0.0000E+00  0.0000E+00  0.0000E+00  0.0000E+00  0.0000E+00  0.0000E+00  0.0000E+00  0.0000E+00  0.0000E+00  0.0000E+00
    -36.011  0.0000E+00  0.0000E+00  0.0000E+00  0.0000E+00  0.0000E+00  0.0000E+00  0.0000E+00  0.0000E+00  0.0000E+00  0.0000E+00  0.0000E+00  0.0000E+00  0.0000E+00  0.0000E+00  0.0000E+00  0.0000E+00  0.0000E+00  0.0000E+00
    -35.867  0.1566E-03  0.1439E-03  0.6505E-11  0.5983E-11  0.6505E-11  0.5983E-11  0.6505E-11  0.5983E-11  0.1955E-11  0.1786E-11  0.1955E-11  0.1786E-11  0.9393E-12  0.8564E-12  0.1955E-11  0.1786E-11  0.9393E-12  0.8564E-12
    -35.723  0.2631E-02  0.2417E-02  0.1093E-09  0.1005E-09  0.1093E-09  0.1005E-09  0.1093E-09  0.1005E-09  0.3285E-10  0.3001E-10  0.3285E-10  0.3001E-10  0.1578E-10  0.1439E-10  0.3285E-10  0.3001E-10  0.1578E-10  0.1439E-10
    -35.579  0.4651E-01  0.4276E-01  0.1931E-08  0.1777E-08  0.1931E-08  0.1777E-08  0.1931E-08  0.1777E-08  0.5807E-09  0.5308E-09  0.5807E-09  0.5308E-09  0.2790E-09  0.2545E-09  0.5807E-09  0.5308E-09  0.2790E-09  0.2545E-09
    -35.435  0.7329E+00  0.6802E+00  0.3031E-07  0.2817E-07  0.3031E-07  0.2817E-07  0.3031E-07  0.2817E-07  0.9156E-08  0.8447E-08  0.9156E-08  0.8447E-08  0.4416E-08  0.4065E-08  0.9156E-08  0.8447E-08  0.4416E-08  0.4065E-08
    -35.291  0.3965E+01  0.3899E+01  0.1601E-06  0.1577E-06  0.1601E-06  0.1577E-06  0.1601E-06  0.1577E-06  0.4959E-07  0.4846E-07  0.4959E-07  0.4846E-07  0.2450E-07  0.2387E-07  0.4959E-07  0.4846E-07  0.2450E-07  0.2387E-07
    -35.147  0.1895E+01  0.2005E+01  0.7423E-07  0.7864E-07  0.7423E-07  0.7864E-07  0.7423E-07  0.7864E-07  0.2370E-07  0.2491E-07  0.2370E-07  0.2491E-07  0.1206E-07  0.1265E-07  0.2370E-07  0.2491E-07  0.1206E-07  0.1265E-07
    -35.003  0.1525E+00  0.1656E+00  0.5910E-08  0.6424E-08  0.5910E-08  0.6424E-08  0.5910E-08  0.6424E-08  0.1905E-08  0.2056E-08  0.1905E-08  0.2056E-08  0.9803E-09  0.1056E-08  0.1905E-08  0.2056E-08  0.9803E-09  0.1056E-08
    -34.859  0.0000E+00  0.0000E+00  0.0000E+00  0.0000E+00  0.0000E+00  0.0000E+00  0.0000E+00  0.0000E+00  0.0000E+00  0.0000E+00  0.0000E+00  0.0000E+00  0.0000E+00  0.0000E+00  0.0000E+00  0.0000E+00  0.0000E+00  0.0000E+00
    -34.715  0.0000E+00  0.0000E+00  0.0000E+00  0.0000E+00  0.0000E+00  0.0000E+00  0.0000E+00  0.0000E+00  0.0000E+00  0.0000E+00  0.0000E+00  0.0000E+00  0.0000E+00  0.0000E+00  0.0000E+00  0.0000E+00  0.0000E+00  0.0000E+00
    -34.571  0.0000E+00  0.0000E+00  0.0000E+00  0.0000E+00  0.0000E+00  0.0000E+00  0.0000E+00  0.0000E+00  0.0000E+00  0.0000E+00  0.0000E+00  0.0000E+00  0.0000E+00  0.0000E+00  0.0000E+00  0.0000E+00  0.0000E+00  0.0000E+00
    -34.427  0.0000E+00  0.0000E+00  0.0000E+00  0.0000E+00  0.0000E+00  0.0000E+00  0.0000E+00  0.0000E+00  0.0000E+00  0.0000E+00  0.0000E+00  0.0000E+00  0.0000E+00  0.0000E+00  0.0000E+00  0.0000E+00  0.0000E+00  0.0000E+00
    -34.283  0.0000E+00  0.0000E+00  0.0000E+00  0.0000E+00  0.0000E+00  0.0000E+00  0.0000E+00  0.0000E+00  0.0000E+00  0.0000E+00  0.0000E+00  0.0000E+00  0.0000E+00  0.0000E+00  0.0000E+00  0.0000E+00  0.0000E+00  0.0000E+00
    -34.139  0.0000E+00  0.0000E+00  0.0000E+00  0.0000E+00  0.0000E+00  0.0000E+00  0.0000E+00  0.0000E+00  0.0000E+00  0.0000E+00  0.0000E+00  0.0000E+00  0.0000E+00  0.0000E+00  0.0000E+00  0.0000E+00  0.0000E+00  0.0000E+00
    -33.995  0.0000E+00  0.0000E+00  0.0000E+00  0.0000E+00  0.0000E+00  0.0000E+00  0.0000E+00  0.0000E+00  0.0000E+00  0.0000E+00  0.0000E+00  0.0000E+00  0.0000E+00  0.0000E+00  0.0000E+00  0.0000E+00  0.0000E+00  0.0000E+00
    -33.851  0.0000E+00  0.0000E+00  0.0000E+00  0.0000E+00  0.0000E+00  0.0000E+00  0.0000E+00  0.0000E+00  0.0000E+00  0.0000E+00  0.0000E+00  0.0000E+00  0.0000E+00  0.0000E+00  0.0000E+00  0.0000E+00  0.0000E+00  0.0000E+00
    -33.707  0.0000E+00  0.0000E+00  0.0000E+00  0.0000E+00  0.0000E+00  0.0000E+00  0.0000E+00  0.0000E+00  0.0000E+00  0.0000E+00  0.0000E+00  0.0000E+00  0.0000E+00  0.0000E+00  0.0000E+00  0.0000E+00  0.0000E+00  0.0000E+00
    -33.563  0.0000E+00  0.0000E+00  0.0000E+00  0.0000E+00  0.0000E+00  0.0000E+00  0.0000E+00  0.0000E+00  0.0000E+00  0.0000E+00  0.0000E+00  0.0000E+00  0.0000E+00  0.0000E+00  0.0000E+00  0.0000E+00  0.0000E+00  0.0000E+00
    -33.419  0.0000E+00  0.0000E+00  0.0000E+00  0.0000E+00  0.0000E+00  0.0000E+00  0.0000E+00  0.0000E+00  0.0000E+00  0.0000E+00  0.0000E+00  0.0000E+00  0.0000E+00  0.0000E+00  0.0000E+00  0.0000E+00  0.0000E+00  0.0000E+00
    -33.275  0.0000E+00  0.0000E+00  0.0000E+00  0.0000E+00  0.0000E+00  0.0000E+00  0.0000E+00  0.0000E+00  0.0000E+00  0.0000E+00  0.0000E+00  0.0000E+00  0.0000E+00  0.0000E+00  0.0000E+00  0.0000E+00  0.0000E+00  0.0000E+00
    -33.131  0.0000E+00  0.0000E+00  0.0000E+00  0.0000E+00  0.0000E+00  0.0000E+00  0.0000E+00  0.0000E+00  0.0000E+00  0.0000E+00  0.0000E+00  0.0000E+00  0.0000E+00  0.0000E+00  0.0000E+00  0.0000E+00  0.0000E+00  0.0000E+00
    -32.987  0.0000E+00  0.0000E+00  0.0000E+00  0.0000E+00  0.0000E+00  0.0000E+00  0.0000E+00  0.0000E+00  0.0000E+00  0.0000E+00  0.0000E+00  0.0000E+00  0.0000E+00  0.0000E+00  0.0000E+00  0.0000E+00  0.0000E+00  0.0000E+00
    -32.843  0.0000E+00  0.0000E+00  0.0000E+00  0.0000E+00  0.0000E+00  0.0000E+00  0.0000E+00  0.0000E+00  0.0000E+00  0.0000E+00  0.0000E+00  0.0000E+00  0.0000E+00  0.0000E+00  0.0000E+00  0.0000E+00  0.0000E+00  0.0000E+00
    -32.699  0.0000E+00  0.0000E+00  0.0000E+00  0.0000E+00  0.0000E+00  0.0000E+00  0.0000E+00  0.0000E+00  0.0000E+00  0.0000E+00  0.0000E+00  0.0000E+00  0.0000E+00  0.0000E+00  0.0000E+00  0.0000E+00  0.0000E+00  0.0000E+00
    -32.555  0.0000E+00  0.0000E+00  0.0000E+00  0.0000E+00  0.0000E+00  0.0000E+00  0.0000E+00  0.0000E+00  0.0000E+00  0.0000E+00  0.0000E+00  0.0000E+00  0.0000E+00  0.0000E+00  0.0000E+00  0.0000E+00  0.0000E+00  0.0000E+00
    -32.411  0.0000E+00  0.0000E+00  0.0000E+00  0.0000E+00  0.0000E+00  0.0000E+00  0.0000E+00  0.0000E+00  0.0000E+00  0.0000E+00  0.0000E+00  0.0000E+00  0.0000E+00  0.0000E+00  0.0000E+00  0.0000E+00  0.0000E+00  0.0000E+00
    -32.267  0.0000E+00  0.0000E+00  0.0000E+00  0.0000E+00  0.0000E+00  0.0000E+00  0.0000E+00  0.0000E+00  0.0000E+00  0.0000E+00  0.0000E+00  0.0000E+00  0.0000E+00  0.0000E+00  0.0000E+00  0.0000E+00  0.0000E+00  0.0000E+00
    -32.123  0.0000E+00  0.0000E+00  0.0000E+00  0.0000E+00  0.0000E+00  0.0000E+00  0.0000E+00  0.0000E+00  0.0000E+00  0.0000E+00  0.0000E+00  0.0000E+00  0.0000E+00  0.0000E+00  0.0000E+00  0.0000E+00  0.0000E+00  0.0000E+00
    -31.979  0.0000E+00  0.0000E+00  0.0000E+00  0.0000E+00  0.0000E+00  0.0000E+00  0.0000E+00  0.0000E+00  0.0000E+00  0.0000E+00  0.0000E+00  0.0000E+00  0.0000E+00  0.0000E+00  0.0000E+00  0.0000E+00  0.0000E+00  0.0000E+00
    -31.836  0.0000E+00  0.0000E+00  0.0000E+00  0.0000E+00  0.0000E+00  0.0000E+00  0.0000E+00  0.0000E+00  0.0000E+00  0.0000E+00  0.0000E+00  0.0000E+00  0.0000E+00  0.0000E+00  0.0000E+00  0.0000E+00  0.0000E+00  0.0000E+00
    -31.692  0.0000E+00  0.0000E+00  0.0000E+00  0.0000E+00  0.0000E+00  0.0000E+00  0.0000E+00  0.0000E+00  0.0000E+00  0.0000E+00  0.0000E+00  0.0000E+00  0.0000E+00  0.0000E+00  0.0000E+00  0.0000E+00  0.0000E+00  0.0000E+00
    -31.548  0.0000E+00  0.0000E+00  0.0000E+00  0.0000E+00  0.0000E+00  0.0000E+00  0.0000E+00  0.0000E+00  0.0000E+00  0.0000E+00  0.0000E+00  0.0000E+00  0.0000E+00  0.0000E+00  0.0000E+00  0.0000E+00  0.0000E+00  0.0000E+00
    -31.404  0.0000E+00  0.0000E+00  0.0000E+00  0.0000E+00  0.0000E+00  0.0000E+00  0.0000E+00  0.0000E+00  0.0000E+00  0.0000E+00  0.0000E+00  0.0000E+00  0.0000E+00  0.0000E+00  0.0000E+00  0.0000E+00  0.0000E+00  0.0000E+00
    -31.260  0.0000E+00  0.0000E+00  0.0000E+00  0.0000E+00  0.0000E+00  0.0000E+00  0.0000E+00  0.0000E+00  0.0000E+00  0.0000E+00  0.0000E+00  0.0000E+00  0.0000E+00  0.0000E+00  0.0000E+00  0.0000E+00  0.0000E+00  0.0000E+00
    -31.116  0.0000E+00  0.0000E+00  0.0000E+00  0.0000E+00  0.0000E+00  0.0000E+00  0.0000E+00  0.0000E+00  0.0000E+00  0.0000E+00  0.0000E+00  0.0000E+00  0.0000E+00  0.0000E+00  0.0000E+00  0.0000E+00  0.0000E+00  0.0000E+00
    -30.972  0.0000E+00  0.0000E+00  0.0000E+00  0.0000E+00  0.0000E+00  0.0000E+00  0.0000E+00  0.0000E+00  0.0000E+00  0.0000E+00  0.0000E+00  0.0000E+00  0.0000E+00  0.0000E+00  0.0000E+00  0.0000E+00  0.0000E+00  0.0000E+00
    -30.828  0.0000E+00  0.0000E+00  0.0000E+00  0.0000E+00  0.0000E+00  0.0000E+00  0.0000E+00  0.0000E+00  0.0000E+00  0.0000E+00  0.0000E+00  0.0000E+00  0.0000E+00  0.0000E+00  0.0000E+00  0.0000E+00  0.0000E+00  0.0000E+00
    -30.684  0.0000E+00  0.0000E+00  0.0000E+00  0.0000E+00  0.0000E+00  0.0000E+00  0.0000E+00  0.0000E+00  0.0000E+00  0.0000E+00  0.0000E+00  0.0000E+00  0.0000E+00  0.0000E+00  0.0000E+00  0.0000E+00  0.0000E+00  0.0000E+00
    -30.540  0.0000E+00  0.0000E+00  0.0000E+00  0.0000E+00  0.0000E+00  0.0000E+00  0.0000E+00  0.0000E+00  0.0000E+00  0.0000E+00  0.0000E+00  0.0000E+00  0.0000E+00  0.0000E+00  0.0000E+00  0.0000E+00  0.0000E+00  0.0000E+00
    -30.396  0.0000E+00  0.0000E+00  0.0000E+00  0.0000E+00  0.0000E+00  0.0000E+00  0.0000E+00  0.0000E+00  0.0000E+00  0.0000E+00  0.0000E+00  0.0000E+00  0.0000E+00  0.0000E+00  0.0000E+00  0.0000E+00  0.0000E+00  0.0000E+00
    -30.252  0.0000E+00  0.0000E+00  0.0000E+00  0.0000E+00  0.0000E+00  0.0000E+00  0.0000E+00  0.0000E+00  0.0000E+00  0.0000E+00  0.0000E+00  0.0000E+00  0.0000E+00  0.0000E+00  0.0000E+00  0.0000E+00  0.0000E+00  0.0000E+00
    -30.108  0.0000E+00  0.0000E+00  0.0000E+00  0.0000E+00  0.0000E+00  0.0000E+00  0.0000E+00  0.0000E+00  0.0000E+00  0.0000E+00  0.0000E+00  0.0000E+00  0.0000E+00  0.0000E+00  0.0000E+00  0.0000E+00  0.0000E+00  0.0000E+00