   4   4   1   0
  0.4702825E+02  0.5729802E-09  0.5729802E-09  0.5729802E-09  0.5000000E-15
  1.000000000000000E-004
  CAR 
 unknown system                          
      7.05424130    -36.14084667  301      2.17701124      1.00000000
    -36.141  0.0000E+00  0.0000E+00  0.0000E+00  0.0000E+00
    -35.997  0.0000E+00  0.0000E+00  0.0000E+00  0.0000E+00
    -35.853  0.0000E+00  0.0000E+00  0.0000E+00  0.0000E+00
    -35.709  0.0000E+00  0.0000E+00  0.0000E+00  0.0000E+00
    -35.565  0.0000E+00  0.0000E+00  0.0000E+00  0.0000E+00
    -35.421  0.0000E+00  0.0000E+00  0.0000E+00  0.0000E+00
    -35.277  0.0000E+00  0.0000E+00  0.0000E+00  0.0000E+00
    -35.133  0.0000E+00  0.0000E+00  0.0000E+00  0.0000E+00
    -34.989  0.0000E+00  0.0000E+00  0.0000E+00  0.0000E+00
    -34.845  0.0000E+00  0.0000E+00  0.0000E+00  0.0000E+00
    -34.701  0.9743E-04  0.9031E-04  0.1403E-04  0.1300E-04
    -34.557  0.7882E-02  0.7770E-02  0.1149E-02  0.1132E-02
    -34.413  0.1334E+00  0.1314E+00  0.2036E-01  0.2006E-01
    -34.269  0.2173E+01  0.2143E+01  0.3332E+00  0.3286E+00
    -34.125  0.1475E+02  0.1469E+02  0.2457E+01  0.2443E+01
    -33.981  0.9759E+01  0.9844E+01  0.3863E+01  0.3861E+01
    -33.837  0.8984E+00  0.9116E+00  0.3992E+01  0.3992E+01
    -33.693  0.0000E+00  0.0000E+00  0.4000E+01  0.4000E+01
    -33.549  0.0000E+00  0.0000E+00  0.4000E+01  0.4000E+01
    -33.405  0.0000E+00  0.0000E+00  0.4000E+01  0.4000E+01
    -33.261  0.0000E+00  0.0000E+00  0.4000E+01  0.4000E+01
    -33.117  0.0000E+00  0.0000E+00  0.4000E+01  0.4000E+01
    -32.973  0.0000E+00  0.0000E+00  0.4000E+01  0.4000E+01
    -32.829  0.0000E+00  0.0000E+00  0.4000E+01  0.4000E+01
    -32.685  0.0000E+00  0.0000E+00  0.4000E+01  0.4000E+01
    -32.541  0.0000E+00  0.0000E+00  0.4000E+01  0.4000E+01
    -32.397  0.0000E+00  0.0000E+00  0.4000E+01  0.4000E+01
    -32.253  0.0000E+00  0.0000E+00  0.4000E+01  0.4000E+01
    -32.109  0.0000E+00  0.0000E+00  0.4000E+01  0.4000E+01
    -31.965  0.0000E+00  0.0000E+00  0.4000E+01  0.4000E+01
    -31.821  0.0000E+00  0.0000E+00  0.4000E+01  0.4000E+01
    -31.677  0.0000E+00  0.0000E+00  0.4000E+01  0.4000E+01
    -31.533  0.0000E+00  0.0000E+00  0.4000E+01  0.4000E+01
    -31.389  0.0000E+00  0.0000E+00  0.4000E+01  0.4000E+01
    -31.245  0.0000E+00  0.0000E+00  0.4000E+01  0.4000E+01
    -31.101  0.0000E+00  0.0000E+00  0.4000E+01  0.4000E+01
    -30.957  0.0000E+00  0.0000E+00  0.4000E+01  0.4000E+01
    -30.813  0.0000E+00  0.0000E+00  0.4000E+01  0.4000E+01
    -30.669  0.0000E+00  0.0000E+00  0.4000E+01  0.4000E+01
    -30.525  0.0000E+00  0.0000E+00  0.4000E+01  0.4000E+01
    -30.382  0.0000E+00  0.0000E+00  0.4000E+01  0.4000E+01
    -30.238  0.0000E+00  0.0000E+00  0.4000E+01  0.4000E+01
    -30.094  0.0000E+00  0.0000E+00  0.4000E+01  0.4000E+01
    -29.950  0.0000E+00  0.0000E+00  0.4000E+01  0.4000E+01
    -29.806  0.0000E+00  0.0000E+00  0.4000E+01  0.4000E+01
    -29.662  0.0000E+00  0.0000E+00  0.4000E+01  0.4000E+01
    -29.518  0.0000E+00  0.0000E+00  0.4000E+01  0.4000E+01
    -29.374  0.0000E+00  0.0000E+00  0.4000E+01  0.4000E+01
    -29.230  0.0000E+00  0.0000E+00  0.4000E+01  0.4000E+01
    -29.086  0.0000E+00  0.0000E+00  0.4000E+01  0.4000E+01
    -28.942  0.0000E+00  0.0000E+00  0.4000E+01  0.4000E+01
    -28.798  0.0000E+00  0.0000E+00  0.4000E+01  0.4000E+01
    -28.654  0.0000E+00  0.0000E+00  0.4000E+01  0.4000E+01
    -28.510  0.0000E+00  0.0000E+00  0.4000E+01  0.4000E+01
    -28.366  0.0000E+00  0.0000E+00  0.4000E+01  0.4000E+01
    -28.222  0.0000E+00  0.0000E+00  0.4000E+01  0.4000E+01
    -28.078  0.0000E+00  0.0000E+00  0.4000E+01  0.4000E+01
    -27.934  0.0000E+00  0.0000E+00  0.4000E+01  0.4000E+01
    -27.790  0.0000E+00  0.0000E+00  0.4000E+01  0.4000E+01
    -27.646  0.0000E+00  0.0000E+00  0.4000E+01  0.4000E+01
    -27.502  0.0000E+00  0.0000E+00  0.4000E+01  0.4000E+01
    -27.358  0.0000E+00  0.0000E+00  0.4000E+01  0.4000E+01
    -27.214  0.0000E+00  0.0000E+00  0.4000E+01  0.4000E+01
    -27.070  0.0000E+00  0.0000E+00  0.4000E+01  0.4000E+01
    -26.926  0.0000E+00  0.0000E+00  0.4000E+01  0.4000E+01
    -26.782  0.0000E+00  0.0000E+00  0.4000E+01  0.4000E+01
    -26.638  0.0000E+00  0.0000E+00  0.4000E+01  0.4000E+01
    -26.494  0.0000E+00  0.0000E+00  0.4000E+01  0.4000E+01
    -26.350  0.0000E+00  0.0000E+00  0.4000E+01  0.4000E+01
    -26.206  0.0000E+00  0.0000E+00  0.4000E+01  0.4000E+01
    -26.062  0.0000E+00  0.0000E+00  0.4000E+01  0.4000E+01
    -25.918  0.0000E+00  0.0000E+00  0.4000E+01  0.4000E+01
    -25.774  0.0000E+00  0.0000E+00  0.4000E+01  0.4000E+01
    -25.630  0.0000E+00  0.0000E+00  0.4000E+01  0.4000E+01
    -25.486  0.0000E+00  0.0000E+00  0.4000E+01  0.4000E+01
    -25.342  0.0000E+00  0.0000E+00  0.4000E+01  0.4000E+01
    -25.198  0.0000E+00  0.0000E+00  0.4000E+01  0.4000E+01
    -25.054  0.0000E+00  0.0000E+00  0.4000E+01  0.4000E+01
    -24.910  0.0000E+00  0.0000E+00  0.4000E+01  0.4000E+01
    -24.766  0.0000E+00  0.0000E+00  0.4000E+01  0.4000E+01
    -24.622  0.0000E+00  0.0000E+00  0.4000E+01  0.4000E+01
    -24.478  0.0000E+00  0.0000E+00  0.4000E+01  0.4000E+01
    -24.334  0.0000E+00  0.0000E+00  0.4000E+01  0.4000E+01
    -24.190  0.0000E+00  0.0000E+00  0.4000E+01  0.4000E+01
    -24.046  0.0000E+00  0.0000E+00  0.4000E+01  0.4000E+01
    -23.902  0.0000E+00  0.0000E+00  0.4000E+01  0.4000E+01
    -23.758  0.0000E+00  0.0000E+00  0.4000E+01  0.4000E+01
    -23.614  0.0000E+00  0.0000E+00  0.4000E+01  0.4000E+01
    -23.470  0.0000E+00  0.0000E+00  0.4000E+01  0.4000E+01
    -23.326  0.0000E+00  0.0000E+00  0.4000E+01  0.4000E+01
    -23.182  0.0000E+00  0.0000E+00  0.4000E+01  0.4000E+01
    -23.038  0.0000E+00  0.0000E+00  0.4000E+01  0.4000E+01
    -22.894  0.0000E+00  0.0000E+00  0.4000E+01  0.4000E+01
    -22.750  0.0000E+00  0.0000E+00  0.4000E+01  0.4000E+01
    -22.606  0.0000E+00  0.0000E+00  0.4000E+01  0.4000E+01
    -22.462  0.0000E+00  0.0000E+00  0.4000E+01  0.4000E+01
    -22.318  0.0000E+00  0.0000E+00  0.4000E+01  0.4000E+01
    -22.174  0.0000E+00  0.0000E+00  0.4000E+01  0.4000E+01
    -22.030  0.0000E+00  0.0000E+00  0.4000E+01  0.4000E+01
    -21.886  0.0000E+00  0.0000E+00  0.4000E+01  0.4000E+01
    -21.742  0.0000E+00  0.0000E+00  0.4000E+01  0.4000E+01
    -21.599  0.0000E+00  0.0000E+00  0.4000E+01  0.4000E+01
    -21.455  0.0000E+00  0.0000E+00  0.4000E+01  0.4000E+01
    -21.311  0.0000E+00  0.0000E+00  0.4000E+01  0.4000E+01
    -21.167  0.0000E+00  0.0000E+00  0.4000E+01  0.4000E+01
    -21.023  0.0000E+00  0.0000E+00  0.4000E+01  0.4000E+01
    -20.879  0.0000E+00  0.0000E+00  0.4000E+01  0.4000E+01
    -20.735  0.0000E+00  0.0000E+00  0.4000E+01  0.4000E+01
    -20.591  0.0000E+00  0.0000E+00  0.4000E+01  0.4000E+01
    -20.447  0.0000E+00  0.0000E+00  0.4000E+01  0.4000E+01
    -20.303  0.0000E+00  0.0000E+00  0.4000E+01  0.4000E+01
    -20.159  0.0000E+00  0.0000E+00  0.4000E+01  0.4000E+01
    -20.015  0.0000E+00  0.0000E+00  0.4000E+01  0.4000E+01
    -19.871  0.0000E+00  0.0000E+00  0.4000E+01  0.4000E+01
    -19.727  0.0000E+00  0.0000E+00  0.4000E+01  0.4000E+01
    -19.583  0.0000E+00  0.0000E+00  0.4000E+01  0.4000E+01
    -19.439  0.0000E+00  0.0000E+00  0.4000E+01  0.4000E+01
    -19.295  0.0000E+00  0.0000E+00  0.4000E+01  0.4000E+01
    -19.151  0.0000E+00  0.0000E+00  0.4000E+01  0.4000E+01
    -19.007  0.0000E+00  0.0000E+00  0.4000E+01  0.4000E+01
    -18.863  0.0000E+00  0.0000E+00  0.4000E+01  0.4000E+01
    -18.719  0.0000E+00  0.0000E+00  0.4000E+01  0.4000E+01
    -18.575  0.0000E+00  0.0000E+00  0.4000E+01  0.4000E+01
    -18.431  0.0000E+00  0.0000E+00  0.4000E+01  0.4000E+01
    -18.287  0.0000E+00  0.0000E+00  0.4000E+01  0.4000E+01
    -18.143  0.0000E+00  0.0000E+00  0.4000E+01  0.4000E+01
    -17.999  0.0000E+00  0.0000E+00  0.4000E+01  0.4000E+01
    -17.855  0.0000E+00  0.0000E+00  0.4000E+01  0.4000E+01
    -17.711  0.0000E+00  0.0000E+00  0.4000E+01  0.4000E+01
    -17.567  0.0000E+00  0.0000E+00  0.4000E+01  0.4000E+01
    -17.423  0.0000E+00  0.0000E+00  0.4000E+01  0.4000E+01
    -17.279  0.0000E+00  0.0000E+00  0.4000E+01  0.4000E+01
    -17.135  0.0000E+00  0.0000E+00  0.4000E+01  0.4000E+01
    -16.991  0.0000E+00  0.0000E+00  0.4000E+01  0.4000E+01
    -16.847  0.2149E-03  0.1998E-03  0.4000E+01  0.4000E+01
    -16.703  0.7543E-02  0.7369E-02  0.4001E+01  0.4001E+01
    -16.559  0.1353E+00  0.1320E+00  0.4021E+01  0.4020E+01
    -16.415  0.2160E+01  0.2114E+01  0.4332E+01  0.4324E+01
    -16.271  0.1566E+02  0.1549E+02  0.6586E+01  0.6555E+01
    -16.127  0.3185E+02  0.3174E+02  0.1117E+02  0.1112E+02
    -15.983  0.2824E+02  0.2845E+02  0.1524E+02  0.1522E+02
    -15.839  0.4900E+01  0.5006E+01  0.1595E+02  0.1595E+02
    -15.695  0.2280E+00  0.2372E+00  0.1600E+02  0.1600E+02
    -15.551  0.0000E+00  0.0000E+00  0.1600E+02  0.1600E+02
    -15.407  0.0000E+00  0.0000E+00  0.1600E+02  0.1600E+02
    -15.263  0.0000E+00  0.0000E+00  0.1600E+02  0.1600E+02
    -15.119  0.0000E+00  0.0000E+00  0.1600E+02  0.1600E+02
    -14.975  0.0000E+00  0.0000E+00  0.1600E+02  0.1600E+02
    -14.831  0.0000E+00  0.0000E+00  0.1600E+02  0.1600E+02
    -14.687  0.0000E+00  0.0000E+00  0.1600E+02  0.1600E+02
    -14.543  0.0000E+00  0.0000E+00  0.1600E+02  0.1600E+02
    -14.399  0.0000E+00  0.0000E+00  0.1600E+02  0.1600E+02
    -14.255  0.0000E+00  0.0000E+00  0.1600E+02  0.1600E+02
    -14.111  0.0000E+00  0.0000E+00  0.1600E+02  0.1600E+02
    -13.967  0.0000E+00  0.0000E+00  0.1600E+02  0.1600E+02
    -13.823  0.0000E+00  0.0000E+00  0.1600E+02  0.1600E+02
    -13.679  0.0000E+00  0.0000E+00  0.1600E+02  0.1600E+02
    -13.535  0.0000E+00  0.0000E+00  0.1600E+02  0.1600E+02
    -13.391  0.0000E+00  0.0000E+00  0.1600E+02  0.1600E+02
    -13.247  0.0000E+00  0.0000E+00  0.1600E+02  0.1600E+02
    -13.103  0.0000E+00  0.0000E+00  0.1600E+02  0.1600E+02
    -12.959  0.0000E+00  0.0000E+00  0.1600E+02  0.1600E+02
    -12.815  0.0000E+00  0.0000E+00  0.1600E+02  0.1600E+02
    -12.672  0.0000E+00  0.0000E+00  0.1600E+02  0.1600E+02
    -12.528  0.0000E+00  0.0000E+00  0.1600E+02  0.1600E+02
    -12.384  0.0000E+00  0.0000E+00  0.1600E+02  0.1600E+02
    -12.240  0.0000E+00  0.0000E+00  0.1600E+02  0.1600E+02
    -12.096  0.0000E+00  0.0000E+00  0.1600E+02  0.1600E+02
    -11.952  0.0000E+00  0.0000E+00  0.1600E+02  0.1600E+02
    -11.808  0.0000E+00  0.0000E+00  0.1600E+02  0.1600E+02
    -11.664  0.0000E+00  0.0000E+00  0.1600E+02  0.1600E+02
    -11.520  0.0000E+00  0.0000E+00  0.1600E+02  0.1600E+02
    -11.376  0.0000E+00  0.0000E+00  0.1600E+02  0.1600E+02
    -11.232  0.0000E+00  0.0000E+00  0.1600E+02  0.1600E+02
    -11.088  0.0000E+00  0.0000E+00  0.1600E+02  0.1600E+02
    -10.944  0.0000E+00  0.0000E+00  0.1600E+02  0.1600E+02
    -10.800  0.0000E+00  0.0000E+00  0.1600E+02  0.1600E+02
    -10.656  0.0000E+00  0.0000E+00  0.1600E+02  0.1600E+02
    -10.512  0.0000E+00  0.0000E+00  0.1600E+02  0.1600E+02
    -10.368  0.0000E+00  0.0000E+00  0.1600E+02  0.1600E+02
    -10.224  0.0000E+00  0.0000E+00  0.1600E+02  0.1600E+02
    -10.080  0.0000E+00  0.0000E+00  0.1600E+02  0.1600E+02
     -9.936  0.0000E+00  0.0000E+00  0.1600E+02  0.1600E+02
     -9.792  0.0000E+00  0.0000E+00  0.1600E+02  0.1600E+02
     -9.648  0.0000E+00  0.0000E+00  0.1600E+02  0.1600E+02
     -9.504  0.0000E+00  0.0000E+00  0.1600E+02  0.1600E+02
     -9.360  0.0000E+00  0.0000E+00  0.1600E+02  0.1600E+02
     -9.216  0.0000E+00  0.0000E+00  0.1600E+02  0.1600E+02
     -9.072  0.0000E+00  0.0000E+00  0.1600E+02  0.1600E+02
     -8.928  0.0000E+00  0.0000E+00  0.1600E+02  0.1600E+02
     -8.784  0.0000E+00  0.0000E+00  0.1600E+02  0.1600E+02
     -8.640  0.0000E+00  0.0000E+00  0.1600E+02  0.1600E+02
     -8.496  0.0000E+00  0.0000E+00  0.1600E+02  0.1600E+02
     -8.352  0.0000E+00  0.0000E+00  0.1600E+02  0.1600E+02
     -8.208  0.0000E+00  0.0000E+00  0.1600E+02  0.1600E+02
     -8.064  0.0000E+00  0.0000E+00  0.1600E+02  0.1600E+02
     -7.920  0.0000E+00  0.0000E+00  0.1600E+02  0.1600E+02
     -7.776  0.0000E+00  0.0000E+00  0.1600E+02  0.1600E+02
     -7.632  0.0000E+00  0.0000E+00  0.1600E+02  0.1600E+02
     -7.488  0.0000E+00  0.0000E+00  0.1600E+02  0.1600E+02
     -7.344  0.0000E+00  0.0000E+00  0.1600E+02  0.1600E+02
     -7.200  0.0000E+00  0.0000E+00  0.1600E+02  0.1600E+02
     -7.056  0.0000E+00  0.0000E+00  0.1600E+02  0.1600E+02
     -6.912  0.0000E+00  0.0000E+00  0.1600E+02  0.1600E+02
     -6.768  0.0000E+00  0.0000E+00  0.1600E+02  0.1600E+02
     -6.624  0.0000E+00  0.0000E+00  0.1600E+02  0.1600E+02
     -6.480  0.0000E+00  0.0000E+00  0.1600E+02  0.1600E+02
     -6.336  0.0000E+00  0.0000E+00  0.1600E+02  0.1600E+02
     -6.192  0.0000E+00  0.0000E+00  0.1600E+02  0.1600E+02
     -6.048  0.0000E+00  0.0000E+00  0.1600E+02  0.1600E+02
     -5.904  0.0000E+00  0.0000E+00  0.1600E+02  0.1600E+02
     -5.760  0.0000E+00  0.0000E+00  0.1600E+02  0.1600E+02
     -5.616  0.0000E+00  0.0000E+00  0.1600E+02  0.1600E+02
     -5.472  0.0000E+00  0.0000E+00  0.1600E+02  0.1600E+02
     -5.328  0.0000E+00  0.0000E+00  0.1600E+02  0.1600E+02
     -5.184  0.0000E+00  0.0000E+00  0.1600E+02  0.1600E+02
     -5.040  0.0000E+00  0.0000E+00  0.1600E+02  0.1600E+02
     -4.896  0.0000E+00  0.0000E+00  0.1600E+02  0.1600E+02
     -4.752  0.0000E+00  0.0000E+00  0.1600E+02  0.1600E+02
     -4.608  0.0000E+00  0.0000E+00  0.1600E+02  0.1600E+02
     -4.464  0.0000E+00  0.0000E+00  0.1600E+02  0.1600E+02
     -4.320  0.0000E+00  0.0000E+00  0.1600E+02  0.1600E+02
     -4.176  0.0000E+00  0.0000E+00  0.1600E+02  0.1600E+02
     -4.032  0.0000E+00  0.0000E+00  0.1600E+02  0.1600E+02
     -3.889  0.0000E+00  0.0000E+00  0.1600E+02  0.1600E+02
     -3.745  0.0000E+00  0.0000E+00  0.1600E+02  0.1600E+02
     -3.601  0.0000E+00  0.0000E+00  0.1600E+02  0.1600E+02
     -3.457  0.0000E+00  0.0000E+00  0.1600E+02  0.1600E+02
     -3.313  0.0000E+00  0.0000E+00  0.1600E+02  0.1600E+02
     -3.169  0.0000E+00  0.0000E+00  0.1600E+02  0.1600E+02
     -3.025  0.0000E+00  0.0000E+00  0.1600E+02  0.1600E+02
     -2.881  0.0000E+00  0.0000E+00  0.1600E+02  0.1600E+02
     -2.737  0.0000E+00  0.0000E+00  0.1600E+02  0.1600E+02
     -2.593  0.0000E+00  0.0000E+00  0.1600E+02  0.1600E+02
     -2.449  0.0000E+00  0.0000E+00  0.1600E+02  0.1600E+02
     -2.305  0.0000E+00  0.0000E+00  0.1600E+02  0.1600E+02
     -2.161  0.3071E-05  0.3118E-05  0.1600E+02  0.1600E+02
     -2.017  0.6865E-04  0.6968E-04  0.1600E+02  0.1600E+02
     -1.873  0.1199E-02  0.1217E-02  0.1600E+02  0.1600E+02
     -1.729  0.1702E-01  0.1723E-01  0.1600E+02  0.1600E+02
     -1.585  0.9103E-01  0.9154E-01  0.1602E+02  0.1602E+02
     -1.441  0.1793E+00  0.1797E+00  0.1604E+02  0.1604E+02
     -1.297  0.2499E+00  0.2502E+00  0.1608E+02  0.1608E+02
     -1.153  0.2957E+00  0.2959E+00  0.1612E+02  0.1612E+02
     -1.009  0.3669E+00  0.3673E+00  0.1617E+02  0.1617E+02
     -0.865  0.3843E+00  0.3845E+00  0.1623E+02  0.1623E+02
     -0.721  0.4772E+00  0.4776E+00  0.1630E+02  0.1630E+02
     -0.577  0.4879E+00  0.4880E+00  0.1637E+02  0.1637E+02
     -0.433  0.5557E+00  0.5560E+00  0.1645E+02  0.1645E+02
     -0.289  0.6312E+00  0.6316E+00  0.1654E+02  0.1654E+02
     -0.145  0.6373E+00  0.6372E+00  0.1663E+02  0.1663E+02
     -0.001  0.7428E+00  0.7437E+00  0.1674E+02  0.1674E+02
      0.143  0.8032E+00  0.8029E+00  0.1685E+02  0.1685E+02
      0.287  0.8389E+00  0.8397E+00  0.1697E+02  0.1697E+02
      0.431  0.9912E+00  0.9912E+00  0.1712E+02  0.1712E+02
      0.575  0.1015E+01  0.1016E+01  0.1726E+02  0.1726E+02
      0.719  0.1194E+01  0.1194E+01  0.1744E+02  0.1744E+02
      0.863  0.1306E+01  0.1307E+01  0.1762E+02  0.1762E+02
      1.007  0.1611E+01  0.1611E+01  0.1786E+02  0.1786E+02
      1.151  0.1697E+01  0.1696E+01  0.1810E+02  0.1810E+02
      1.295  0.1894E+01  0.1890E+01  0.1837E+02  0.1837E+02
      1.439  0.2030E+01  0.2028E+01  0.1867E+02  0.1867E+02
      1.583  0.1979E+01  0.1978E+01  0.1895E+02  0.1895E+02
      1.727  0.1895E+01  0.1894E+01  0.1923E+02  0.1923E+02
      1.871  0.1754E+01  0.1752E+01  0.1948E+02  0.1948E+02
      2.015  0.1707E+01  0.1704E+01  0.1972E+02  0.1972E+02
      2.159  0.1705E+01  0.1706E+01  0.1997E+02  0.1997E+02
      2.303  0.2023E+01  0.2032E+01  0.2026E+02  0.2026E+02
      2.447  0.4128E+01  0.4140E+01  0.2086E+02  0.2086E+02
      2.591  0.5197E+01  0.5198E+01  0.2161E+02  0.2161E+02
      2.735  0.4317E+01  0.4314E+01  0.2223E+02  0.2223E+02
      2.879  0.3407E+01  0.3407E+01  0.2272E+02  0.2272E+02
      3.023  0.3410E+01  0.3414E+01  0.2321E+02  0.2322E+02
      3.167  0.4022E+01  0.4024E+01  0.2379E+02  0.2380E+02
      3.311  0.4380E+01  0.4378E+01  0.2442E+02  0.2443E+02
      3.455  0.4421E+01  0.4415E+01  0.2506E+02  0.2506E+02
      3.599  0.3801E+01  0.3790E+01  0.2561E+02  0.2561E+02
      3.743  0.2808E+01  0.2800E+01  0.2602E+02  0.2602E+02
      3.887  0.2339E+01  0.2337E+01  0.2635E+02  0.2635E+02
      4.031  0.1988E+01  0.1984E+01  0.2664E+02  0.2664E+02
      4.175  0.1894E+01  0.1883E+01  0.2692E+02  0.2691E+02
      4.319  0.1601E+01  0.1596E+01  0.2715E+02  0.2714E+02
      4.463  0.1544E+01  0.1526E+01  0.2737E+02  0.2736E+02
      4.607  0.1279E+01  0.1316E+01  0.2755E+02  0.2755E+02
      4.751  0.1241E+01  0.1326E+01  0.2773E+02  0.2774E+02
      4.894  0.1286E+01  0.1264E+01  0.2792E+02  0.2793E+02
      5.038  0.4953E+00  0.4370E+00  0.2799E+02  0.2799E+02
      5.182  0.6078E-01  0.6292E-01  0.2800E+02  0.2800E+02
      5.326  0.1960E-02  0.4146E-02  0.2800E+02  0.2800E+02
      5.470  0.0000E+00  0.1593E-03  0.2800E+02  0.2800E+02
      5.614  0.0000E+00  0.0000E+00  0.2800E+02  0.2800E+02
      5.758  0.0000E+00  0.0000E+00  0.2800E+02  0.2800E+02
      5.902  0.0000E+00  0.0000E+00  0.2800E+02  0.2800E+02
      6.046  0.0000E+00  0.0000E+00  0.2800E+02  0.2800E+02
      6.190  0.0000E+00  0.0000E+00  0.2800E+02  0.2800E+02
      6.334  0.0000E+00  0.0000E+00  0.2800E+02  0.2800E+02
      6.478  0.0000E+00  0.0000E+00  0.2800E+02  0.2800E+02
      6.622  0.0000E+00  0.0000E+00  0.2800E+02  0.2800E+02
      6.766  0.0000E+00  0.0000E+00  0.2800E+02  0.2800E+02
      6.910  0.0000E+00  0.0000E+00  0.2800E+02  0.2800E+02
      7.054  0.0000E+00  0.0000E+00  0.2800E+02  0.2800E+02
      7.05424130    -36.14084667  301      2.17701124      1.00000000
    -36.141  0.0000E+00  0.0000E+00  0.0000E+00  0.0000E+00  0.0000E+00  0.0000E+00  0.0000E+00  0.0000E+00  0.0000E+00  0.0000E+00  0.0000E+00  0.0000E+00  0.0000E+00  0.0000E+00  0.0000E+00  0.0000E+00  0.0000E+00  0.0000E+00
    -35.997  0.0000E+00  0.0000E+00  0.0000E+00  0.0000E+00  0.0000E+00  0.0000E+00  0.0000E+00  0.0000E+00  0.0000E+00  0.0000E+00  0.0000E+00  0.0000E+00  0.0000E+00  0.0000E+00  0.0000E+00  0.0000E+00  0.0000E+00  0.0000E+00
    -35.853  0.0000E+00  0.0000E+00  0.0000E+00  0.0000E+00  0.0000E+00  0.0000E+00  0.0000E+00  0.0000E+00  0.0000E+00  0.0000E+00  0.0000E+00  0.0000E+00  0.0000E+00  0.0000E+00  0.0000E+00  0.0000E+00  0.0000E+00  0.0000E+00
    -35.709  0.0000E+00  0.0000E+00  0.0000E+00  0.0000E+00  0.0000E+00  0.0000E+00  0.0000E+00  0.0000E+00  0.0000E+00  0.0000E+00  0.0000E+00  0.0000E+00  0.0000E+00  0.0000E+00  0.0000E+00  0.0000E+00  0.0000E+00  0.0000E+00
    -35.565  0.0000E+00  0.0000E+00  0.0000E+00  0.0000E+00  0.0000E+00  0.0000E+00  0.0000E+00  0.0000E+00  0.0000E+00  0.0000E+00  0.0000E+00  0.0000E+00  0.0000E+00  0.0000E+00  0.0000E+00  0.0000E+00  0.0000E+00  0.0000E+00
    -35.421  0.0000E+00  0.0000E+00  0.0000E+00  0.0000E+00  0.0000E+00  0.0000E+00  0.0000E+00  0.0000E+00  0.0000E+00  0.0000E+00  0.0000E+00  0.0000E+00  0.0000E+00  0.0000E+00  0.0000E+00  0.0000E+00  0.0000E+00  0.0000E+00
    -35.277  0.0000E+00  0.0000E+00  0.0000E+00  0.0000E+00  0.0000E+00  0.0000E+00  0.0000E+00  0.0000E+00  0.0000E+00  0.0000E+00  0.0000E+00  0.0000E+00  0.0000E+00  0.0000E+00  0.0000E+00  0.0000E+00  0.0000E+00  0.0000E+00
    -35.133  0.0000E+00  0.0000E+00  0.0000E+00  0.0000E+00  0.0000E+00  0.0000E+00  0.0000E+00  0.0000E+00  0.0000E+00  0.0000E+00  0.0000E+00  0.0000E+00  0.0000E+00  0.0000E+00  0.0000E+00  0.0000E+00  0.0000E+00  0.0000E+00
    -34.989  0.0000E+00  0.0000E+00  0.0000E+00  0.0000E+00  0.0000E+00  0.0000E+00  0.0000E+00  0.0000E+00  0.0000E+00  0.0000E+00  0.0000E+00  0.0000E+00  0.0000E+00  0.0000E+00  0.0000E+00  0.0000E+00  0.0000E+00  0.0000E+00
    -34.845  0.0000E+00  0.0000E+00  0.0000E+00  0.0000E+00  0.0000E+00  0.0000E+00  0.0000E+00  0.0000E+00  0.0000E+00  0.0000E+00  0.0000E+00  0.0000E+00  0.0000E+00  0.0000E+00  0.0000E+00  0.0000E+00  0.0000E+00  0.0000E+00
    -34.701  0.2382E-04  0.2208E-04  0.1401E-10  0.1294E-10  0.1401E-10  0.1294E-10  0.1401E-10  0.1294E-10  0.1099E-11  0.9183E-12  0.1099E-11  0.9183E-12  0.2453E-12  0.2212E-12  0.1099E-11  0.9183E-12  0.2453E-12  0.2212E-12
    -34.557  0.1930E-02  0.1902E-02  0.6417E-09  0.6318E-09  0.6417E-09  0.6318E-09  0.6417E-09  0.6318E-09  0.1826E-09  0.1801E-09  0.1826E-09  0.1801E-09  0.8238E-10  0.8114E-10  0.1826E-09  0.1801E-09  0.8238E-10  0.8114E-10
    -34.413  0.3266E-01  0.3217E-01  0.1096E-07  0.1078E-07  0.1096E-07  0.1078E-07  0.1096E-07  0.1078E-07  0.3072E-08  0.3028E-08  0.3072E-08  0.3028E-08  0.1382E-08  0.1361E-08  0.3072E-08  0.3028E-08  0.1382E-08  0.1361E-08
    -34.269  0.5319E+00  0.5246E+00  0.1770E-06  0.1743E-06  0.1770E-06  0.1743E-06  0.1770E-06  0.1743E-06  0.5014E-07  0.4948E-07  0.5014E-07  0.4948E-07  0.2273E-07  0.2241E-07  0.5014E-07  0.4948E-07  0.2273E-07  0.2241E-07
    -34.125  0.3612E+01  0.3596E+01  0.1134E-05  0.1127E-05  0.1134E-05  0.1127E-05  0.1134E-05  0.1127E-05  0.3434E-06  0.3421E-06  0.3434E-06  0.3421E-06  0.1647E-06  0.1638E-06  0.3434E-06  0.3421E-06  0.1647E-06  0.1638E-06
    -33.981  0.2390E+01  0.2410E+01  0.6888E-06  0.6932E-06  0.6888E-06  0.6932E-06  0.6888E-06  0.6932E-06  0.2266E-06  0.2288E-06  0.2266E-06  0.2288E-06  0.1182E-06  0.1191E-06  0.2266E-06  0.2288E-06  0.1182E-06  0.1191E-06
    -33.837  0.2200E+00  0.2232E+00  0.6113E-07  0.6185E-07  0.6113E-07  0.6185E-07  0.6113E-07  0.6185E-07  0.2074E-07  0.2107E-07  0.2074E-07  0.2107E-07  0.1123E-07  0.1138E-07  0.2074E-07  0.2107E-07  0.1123E-07  0.1138E-07
    -33.693  0.0000E+00  0.0000E+00  0.0000E+00  0.0000E+00  0.0000E+00  0.0000E+00  0.0000E+00  0.0000E+00  0.0000E+00  0.0000E+00  0.0000E+00  0.0000E+00  0.0000E+00  0.0000E+00  0.0000E+00  0.0000E+00  0.0000E+00  0.0000E+00
    -33.549  0.0000E+00  0.0000E+00  0.0000E+00  0.0000E+00  0.0000E+00  0.0000E+00  0.0000E+00  0.0000E+00  0.0000E+00  0.0000E+00  0.0000E+00  0.0000E+00  0.0000E+00  0.0000E+00  0.0000E+00  0.0000E+00  0.0000E+00  0.0000E+00
    -33.405  0.0000E+00  0.0000E+00  0.0000E+00  0.0000E+00  0.0000E+00  0.0000E+00  0.0000E+00  0.0000E+00  0.0000E+00  0.0000E+00  0.0000E+00  0.0000E+00  0.0000E+00  0.0000E+00  0.0000E+00  0.0000E+00  0.0000E+00  0.0000E+00
    -33.261  0.0000E+00  0.0000E+00  0.0000E+00  0.0000E+00  0.0000E+00  0.0000E+00  0.0000E+00  0.0000E+00  0.0000E+00  0.0000E+00  0.0000E+00  0.0000E+00  0.0000E+00  0.0000E+00  0.0000E+00  0.0000E+00  0.0000E+00  0.0000E+00
    -33.117  0.0000E+00  0.0000E+00  0.0000E+00  0.0000E+00  0.0000E+00  0.0000E+00  0.0000E+00  0.0000E+00  0.0000E+00  0.0000E+00  0.0000E+00  0.0000E+00  0.0000E+00  0.0000E+00  0.0000E+00  0.0000E+00  0.0000E+00  0.0000E+00
    -32.973  0.0000E+00  0.0000E+00  0.0000E+00  0.0000E+00  0.0000E+00  0.0000E+00  0.0000E+00  0.0000E+00  0.0000E+00  0.0000E+00  0.0000E+00  0.0000E+00  0.0000E+00  0.0000E+00  0.0000E+00  0.0000E+00  0.0000E+00  0.0000E+00
    -32.829  0.0000E+00  0.0000E+00  0.0000E+00  0.0000E+00  0.0000E+00  0.0000E+00  0.0000E+00  0.0000E+00  0.0000E+00  0.0000E+00  0.0000E+00  0.0000E+00  0.0000E+00  0.0000E+00  0.0000E+00  0.0000E+00  0.0000E+00  0.0000E+00
    -32.685  0.0000E+00  0.0000E+00  0.0000E+00  0.0000E+00  0.0000E+00  0.0000E+00  0.0000E+00  0.0000E+00  0.0000E+00  0.0000E+00  0.0000E+00  0.0000E+00  0.0000E+00  0.0000E+00  0.0000E+00  0.0000E+00  0.0000E+00  0.0000E+00
    -32.541  0.0000E+00  0.0000E+00  0.0000E+00  0.0000E+00  0.0000E+00  0.0000E+00  0.0000E+00  0.0000E+00  0.0000E+00  0.0000E+00  0.0000E+00  0.0000E+00  0.0000E+00  0.0000E+00  0.0000E+00  0.0000E+00  0.0000E+00  0.0000E+00
    -32.397  0.0000E+00  0.0000E+00  0.0000E+00  0.0000E+00  0.0000E+00  0.0000E+00  0.0000E+00  0.0000E+00  0.0000E+00  0.0000E+00  0.0000E+00  0.0000E+00  0.0000E+00  0.0000E+00  0.0000E+00  0.0000E+00  0.0000E+00  0.0000E+00
    -32.253  0.0000E+00  0.0000E+00  0.0000E+00  0.0000E+00  0.0000E+00  0.0000E+00  0.0000E+00  0.0000E+00  0.0000E+00  0.0000E+00  0.0000E+00  0.0000E+00  0.0000E+00  0.0000E+00  0.0000E+00  0.0000E+00  0.0000E+00  0.0000E+00
    -32.109  0.0000E+00  0.0000E+00  0.0000E+00  0.0000E+00  0.0000E+00  0.0000E+00  0.0000E+00  0.0000E+00  0.0000E+00  0.0000E+00  0.0000E+00  0.0000E+00  0.0000E+00  0.0000E+00  0.0000E+00  0.0000E+00  0.0000E+00  0.0000E+00
    -31.965  0.0000E+00  0.0000E+00  0.0000E+00  0.0000E+00  0.0000E+00  0.0000E+00  0.0000E+00  0.0000E+00  0.0000E+00  0.0000E+00  0.0000E+00  0.0000E+00  0.0000E+00  0.0000E+00  0.0000E+00  0.0000E+00  0.0000E+00  0.0000E+00
    -31.821  0.0000E+00  0.0000E+00  0.0000E+00  0.0000E+00  0.0000E+00  0.0000E+00  0.0000E+00  0.0000E+00  0.0000E+00  0.0000E+00  0.0000E+00  0.0000E+00  0.0000E+00  0.0000E+00  0.0000E+00  0.0000E+00  0.0000E+00  0.0000E+00
    -31.677  0.0000E+00  0.0000E+00  0.0000E+00  0.0000E+00  0.0000E+00  0.0000E+00  0.0000E+00  0.0000E+00  0.0000E+00  0.0000E+00  0.0000E+00  0.0000E+00  0.0000E+00  0.0000E+00  0.0000E+00  0.0000E+00  0.0000E+00  0.0000E+00
    -31.533  0.0000E+00  0.0000E+00  0.0000E+00  0.0000E+00  0.0000E+00  0.0000E+00  0.0000E+00  0.0000E+00  0.0000E+00  0.0000E+00  0.0000E+00  0.0000E+00  0.0000E+00  0.0000E+00  0.0000E+00  0.0000E+00  0.0000E+00  0.0000E+00
    -31.389  0.0000E+00  0.0000E+00  0.0000E+00  0.0000E+00  0.0000E+00  0.0000E+00  0.0000E+00  0.0000E+00  0.0000E+00  0.0000E+00  0.0000E+00  0.0000E+00  0.0000E+00  0.0000E+00  0.0000E+00  0.0000E+00  0.0000E+00  0.0000E+00
    -31.245  0.0000E+00  0.0000E+00  0.0000E+00  0.0000E+00  0.0000E+00  0.0000E+00  0.0000E+00  0.0000E+00  0.0000E+00  0.0000E+00  0.0000E+00  0.0000E+00  0.0000E+00  0.0000E+00  0.0000E+00  0.0000E+00  0.0000E+00  0.0000E+00
    -31.101  0.0000E+00  0.0000E+00  0.0000E+00  0.0000E+00  0.0000E+00  0.0000E+00  0.0000E+00  0.0000E+00  0.0000E+00  0.0000E+00  0.0000E+00  0.0000E+00  0.0000E+00  0.0000E+00  0.0000E+00  0.0000E+00  0.0000E+00  0.0000E+00
    -30.957  0.0000E+00  0.0000E+00  0.0000E+00  0.0000E+00  0.0000E+00  0.0000E+00  0.0000E+00  0.0000E+00  0.0000E+00  0.0000E+00  0.0000E+00  0.0000E+00  0.0000E+00  0.0000E+00  0.0000E+00  0.0000E+00  0.0000E+00  0.0000E+00
    -30.813  0.0000E+00  0.0000E+00  0.0000E+00  0.0000E+00  0.0000E+00  0.0000E+00  0.0000E+00  0.0000E+00  0.0000E+00  0.0000E+00  0.0000E+00  0.0000E+00  0.0000E+00  0.0000E+00  0.0000E+00  0.0000E+00  0.0000E+00  0.0000E+00
    -30.669  0.0000E+00  0.0000E+00  0.0000E+00  0.0000E+00  0.0000E+00  0.0000E+00  0.0000E+00  0.0000E+00  0.0000E+00  0.0000E+00  0.0000E+00  0.0000E+00  0.0000E+00  0.0000E+00  0.0000E+00  0.0000E+00  0.0000E+00  0.0000E+00
    -30.525  0.0000E+00  0.0000E+00  0.0000E+00  0.0000E+00  0.0000E+00  0.0000E+00  0.0000E+00  0.0000E+00  0.0000E+00  0.0000E+00  0.0000E+00  0.0000E+00  0.0000E+00  0.0000E+00  0.0000E+00  0.0000E+00  0.0000E+00  0.0000E+00
    -30.382  0.0000E+00  0.0000E+00  0.0000E+00  0.0000E+00  0.0000E+00  0.0000E+00  0.0000E+00  0.0000E+00  0.0000E+00  0.0000E+00  0.0000E+00  0.0000E+00  0.0000E+00  0.0000E+00  0.0000E+00  0.0000E+00  0.0000E+00  0.0000E+00
    -30.238  0.0000E+00  0.0000E+00  0.0000E+00  0.0000E+00  0.0000E+00  0.0000E+00  0.0000E+00  0.0000E+00  0.0000E+00  0.0000E+00  0.0000E+00  0.0000E+00  0.0000E+00  0.0000E+00  0.0000E+00  0.0000E+00  0.0000E+00  0.0000E+00
    -30.094  0.0000E+00  0.0000E+00  0.0000E+00  0.0000E+00  0.0000E+00  0.0000E+00  0.0000E+00  0.0000E+00  0.0000E+00  0.0000E+00  0.0000E+00  0.0000E+00  0.0000E+00  0.0000E+00  0.0000E+00  0.0000E+00  0.0000E+00  0.0000E+00
    -29.950  0.0000E+00  0.0000E+00  0.0000E+00  0.0000E+00  0.0000E+00  0.0000E+00  0.0000E+00  0.0000E+00  0.0000E+00  0.0000E+00  0.0000E+00  0.0000E+00  0.0000E+00  0.0000E+00  0.0000E+00  0.0000E+00  0.0000E+00  0.0000E+00
    -29.806  0.0000E+00  0.0000E+00  0.0000E+00  0.0000E+00  0.0000E+00  0.0000E+00  0.0000E+00  0.0000E+00  0.0000E+00  0.0000E+00  0.0000E+00  0.0000E+00  0.0000E+00  0.0000E+00  0.0000E+00  0.0000E+00  0.0000E+00  0.0000E+00
    -29.662  0.0000E+00  0.0000E+00  0.0000E+00  0.0000E+00  0.0000E+00  0.0000E+00  0.0000E+00  0.0000E+00  0.0000E+00  0.0000E+00  0.0000E+00  0.0000E+00  0.0000E+00  0.0000E+00  0.0000E+00  0.0000E+00  0.0000E+00  0.0000E+00
    -29.518  0.0000E+00  0.0000E+00  0.0000E+00  0.0000E+00  0.0000E+00  0.0000E+00  0.0000E+00  0.0000E+00  0.0000E+00  0.0000E+00  0.0000E+00  0.0000E+00  0.0000E+00  0.0000E+00  0.0000E+00  0.0000E+00  0.0000E+00  0.0000E+00
    -29.374  0.0000E+00  0.0000E+00  0.0000E+00  0.0000E+00  0.0000E+00  0.0000E+00  0.0000E+00  0.0000E+00  0.0000E+00  0.0000E+00  0.0000E+00  0.0000E+00  0.0000E+00  0.0000E+00  0.0000E+00  0.0000E+00  0.0000E+00  0.0000E+00
    -29.230  0.0000E+00  0.0000E+00  0.0000E+00  0.0000E+00  0.0000E+00  0.0000E+00  0.0000E+00  0.0000E+00  0.0000E+00  0.0000E+00  0.0000E+00  0.0000E+00  0.0000E+00  0.0000E+00  0.0000E+00  0.0000E+00  0.0000E+00  0.0000E+00
    -29.086  0.0000E+00  0.0000E+00  0.0000E+00  0.0000E+00  0.0000E+00  0.0000E+00  0.0000E+00  0.0000E+00  0.0000E+00  0.0000E+00  0.0000E+00  0.0000E+00  0.0000E+00  0.0000E+00  0.0000E+00  0.0000E+00  0.0000E+00  0.0000E+00
    -28.942  0.0000E+00  0.0000E+00  0.0000E+00  0.0000E+00  0.0000E+00  0.0000E+00  0.0000E+00  0.0000E+00  0.0000E+00  0.0000E+00  0.0000E+00  0.0000E+00  0.0000E+00  0.0000E+00  0.0000E+00  0.0000E+00  0.0000E+00  0.0000E+00