   4   4   1   0
  0.5993765E+02  0.6212312E-09  0.6212312E-09  0.6212312E-09  0.5000000E-15
  1.000000000000000E-004
  CAR 
 unknown system                          
      5.77664164    -37.46317480  301      1.28865078      1.00000000
    -37.463  0.0000E+00  0.0000E+00  0.0000E+00  0.0000E+00
    -37.319  0.0000E+00  0.0000E+00  0.0000E+00  0.0000E+00
    -37.175  0.0000E+00  0.0000E+00  0.0000E+00  0.0000E+00
    -37.031  0.0000E+00  0.0000E+00  0.0000E+00  0.0000E+00
    -36.887  0.0000E+00  0.0000E+00  0.0000E+00  0.0000E+00
    -36.743  0.0000E+00  0.0000E+00  0.0000E+00  0.0000E+00
    -36.598  0.0000E+00  0.0000E+00  0.0000E+00  0.0000E+00
    -36.454  0.0000E+00  0.0000E+00  0.0000E+00  0.0000E+00
    -36.310  0.0000E+00  0.0000E+00  0.0000E+00  0.0000E+00
    -36.166  0.0000E+00  0.0000E+00  0.0000E+00  0.0000E+00
    -36.022  0.6494E-03  0.5944E-03  0.9360E-04  0.8567E-04
    -35.878  0.1094E-01  0.1002E-01  0.1671E-02  0.1530E-02
    -35.734  0.1940E+00  0.1777E+00  0.2964E-01  0.2715E-01
    -35.589  0.3059E+01  0.2830E+01  0.4705E+00  0.4350E+00
    -35.445  0.1627E+02  0.1600E+02  0.2816E+01  0.2741E+01
    -35.301  0.7579E+01  0.8042E+01  0.3908E+01  0.3900E+01
    -35.157  0.6025E+00  0.6567E+00  0.3995E+01  0.3994E+01
    -35.013  0.0000E+00  0.0000E+00  0.4000E+01  0.4000E+01
    -34.869  0.0000E+00  0.0000E+00  0.4000E+01  0.4000E+01
    -34.725  0.0000E+00  0.0000E+00  0.4000E+01  0.4000E+01
    -34.581  0.0000E+00  0.0000E+00  0.4000E+01  0.4000E+01
    -34.436  0.0000E+00  0.0000E+00  0.4000E+01  0.4000E+01
    -34.292  0.0000E+00  0.0000E+00  0.4000E+01  0.4000E+01
    -34.148  0.0000E+00  0.0000E+00  0.4000E+01  0.4000E+01
    -34.004  0.0000E+00  0.0000E+00  0.4000E+01  0.4000E+01
    -33.860  0.0000E+00  0.0000E+00  0.4000E+01  0.4000E+01
    -33.716  0.0000E+00  0.0000E+00  0.4000E+01  0.4000E+01
    -33.572  0.0000E+00  0.0000E+00  0.4000E+01  0.4000E+01
    -33.427  0.0000E+00  0.0000E+00  0.4000E+01  0.4000E+01
    -33.283  0.0000E+00  0.0000E+00  0.4000E+01  0.4000E+01
    -33.139  0.0000E+00  0.0000E+00  0.4000E+01  0.4000E+01
    -32.995  0.0000E+00  0.0000E+00  0.4000E+01  0.4000E+01
    -32.851  0.0000E+00  0.0000E+00  0.4000E+01  0.4000E+01
    -32.707  0.0000E+00  0.0000E+00  0.4000E+01  0.4000E+01
    -32.563  0.0000E+00  0.0000E+00  0.4000E+01  0.4000E+01
    -32.419  0.0000E+00  0.0000E+00  0.4000E+01  0.4000E+01
    -32.274  0.0000E+00  0.0000E+00  0.4000E+01  0.4000E+01
    -32.130  0.0000E+00  0.0000E+00  0.4000E+01  0.4000E+01
    -31.986  0.0000E+00  0.0000E+00  0.4000E+01  0.4000E+01
    -31.842  0.0000E+00  0.0000E+00  0.4000E+01  0.4000E+01
    -31.698  0.0000E+00  0.0000E+00  0.4000E+01  0.4000E+01
    -31.554  0.0000E+00  0.0000E+00  0.4000E+01  0.4000E+01
    -31.410  0.0000E+00  0.0000E+00  0.4000E+01  0.4000E+01
    -31.265  0.0000E+00  0.0000E+00  0.4000E+01  0.4000E+01
    -31.121  0.0000E+00  0.0000E+00  0.4000E+01  0.4000E+01
    -30.977  0.0000E+00  0.0000E+00  0.4000E+01  0.4000E+01
    -30.833  0.0000E+00  0.0000E+00  0.4000E+01  0.4000E+01
    -30.689  0.0000E+00  0.0000E+00  0.4000E+01  0.4000E+01
    -30.545  0.0000E+00  0.0000E+00  0.4000E+01  0.4000E+01
    -30.401  0.0000E+00  0.0000E+00  0.4000E+01  0.4000E+01
    -30.257  0.0000E+00  0.0000E+00  0.4000E+01  0.4000E+01
    -30.112  0.0000E+00  0.0000E+00  0.4000E+01  0.4000E+01
    -29.968  0.0000E+00  0.0000E+00  0.4000E+01  0.4000E+01
    -29.824  0.0000E+00  0.0000E+00  0.4000E+01  0.4000E+01
    -29.680  0.0000E+00  0.0000E+00  0.4000E+01  0.4000E+01
    -29.536  0.0000E+00  0.0000E+00  0.4000E+01  0.4000E+01
    -29.392  0.0000E+00  0.0000E+00  0.4000E+01  0.4000E+01
    -29.248  0.0000E+00  0.0000E+00  0.4000E+01  0.4000E+01
    -29.103  0.0000E+00  0.0000E+00  0.4000E+01  0.4000E+01
    -28.959  0.0000E+00  0.0000E+00  0.4000E+01  0.4000E+01
    -28.815  0.0000E+00  0.0000E+00  0.4000E+01  0.4000E+01
    -28.671  0.0000E+00  0.0000E+00  0.4000E+01  0.4000E+01
    -28.527  0.0000E+00  0.0000E+00  0.4000E+01  0.4000E+01
    -28.383  0.0000E+00  0.0000E+00  0.4000E+01  0.4000E+01
    -28.239  0.0000E+00  0.0000E+00  0.4000E+01  0.4000E+01
    -28.095  0.0000E+00  0.0000E+00  0.4000E+01  0.4000E+01
    -27.950  0.0000E+00  0.0000E+00  0.4000E+01  0.4000E+01
    -27.806  0.0000E+00  0.0000E+00  0.4000E+01  0.4000E+01
    -27.662  0.0000E+00  0.0000E+00  0.4000E+01  0.4000E+01
    -27.518  0.0000E+00  0.0000E+00  0.4000E+01  0.4000E+01
    -27.374  0.0000E+00  0.0000E+00  0.4000E+01  0.4000E+01
    -27.230  0.0000E+00  0.0000E+00  0.4000E+01  0.4000E+01
    -27.086  0.0000E+00  0.0000E+00  0.4000E+01  0.4000E+01
    -26.941  0.0000E+00  0.0000E+00  0.4000E+01  0.4000E+01
    -26.797  0.0000E+00  0.0000E+00  0.4000E+01  0.4000E+01
    -26.653  0.0000E+00  0.0000E+00  0.4000E+01  0.4000E+01
    -26.509  0.0000E+00  0.0000E+00  0.4000E+01  0.4000E+01
    -26.365  0.0000E+00  0.0000E+00  0.4000E+01  0.4000E+01
    -26.221  0.0000E+00  0.0000E+00  0.4000E+01  0.4000E+01
    -26.077  0.0000E+00  0.0000E+00  0.4000E+01  0.4000E+01
    -25.933  0.0000E+00  0.0000E+00  0.4000E+01  0.4000E+01
    -25.788  0.0000E+00  0.0000E+00  0.4000E+01  0.4000E+01
    -25.644  0.0000E+00  0.0000E+00  0.4000E+01  0.4000E+01
    -25.500  0.0000E+00  0.0000E+00  0.4000E+01  0.4000E+01
    -25.356  0.0000E+00  0.0000E+00  0.4000E+01  0.4000E+01
    -25.212  0.0000E+00  0.0000E+00  0.4000E+01  0.4000E+01
    -25.068  0.0000E+00  0.0000E+00  0.4000E+01  0.4000E+01
    -24.924  0.0000E+00  0.0000E+00  0.4000E+01  0.4000E+01
    -24.779  0.0000E+00  0.0000E+00  0.4000E+01  0.4000E+01
    -24.635  0.0000E+00  0.0000E+00  0.4000E+01  0.4000E+01
    -24.491  0.0000E+00  0.0000E+00  0.4000E+01  0.4000E+01
    -24.347  0.0000E+00  0.0000E+00  0.4000E+01  0.4000E+01
    -24.203  0.0000E+00  0.0000E+00  0.4000E+01  0.4000E+01
    -24.059  0.0000E+00  0.0000E+00  0.4000E+01  0.4000E+01
    -23.915  0.0000E+00  0.0000E+00  0.4000E+01  0.4000E+01
    -23.771  0.0000E+00  0.0000E+00  0.4000E+01  0.4000E+01
    -23.626  0.0000E+00  0.0000E+00  0.4000E+01  0.4000E+01
    -23.482  0.0000E+00  0.0000E+00  0.4000E+01  0.4000E+01
    -23.338  0.0000E+00  0.0000E+00  0.4000E+01  0.4000E+01
    -23.194  0.0000E+00  0.0000E+00  0.4000E+01  0.4000E+01
    -23.050  0.0000E+00  0.0000E+00  0.4000E+01  0.4000E+01
    -22.906  0.0000E+00  0.0000E+00  0.4000E+01  0.4000E+01
    -22.762  0.0000E+00  0.0000E+00  0.4000E+01  0.4000E+01
    -22.618  0.0000E+00  0.0000E+00  0.4000E+01  0.4000E+01
    -22.473  0.0000E+00  0.0000E+00  0.4000E+01  0.4000E+01
    -22.329  0.0000E+00  0.0000E+00  0.4000E+01  0.4000E+01
    -22.185  0.0000E+00  0.0000E+00  0.4000E+01  0.4000E+01
    -22.041  0.0000E+00  0.0000E+00  0.4000E+01  0.4000E+01
    -21.897  0.0000E+00  0.0000E+00  0.4000E+01  0.4000E+01
    -21.753  0.0000E+00  0.0000E+00  0.4000E+01  0.4000E+01
    -21.609  0.0000E+00  0.0000E+00  0.4000E+01  0.4000E+01
    -21.464  0.0000E+00  0.0000E+00  0.4000E+01  0.4000E+01
    -21.320  0.0000E+00  0.0000E+00  0.4000E+01  0.4000E+01
    -21.176  0.0000E+00  0.0000E+00  0.4000E+01  0.4000E+01
    -21.032  0.0000E+00  0.0000E+00  0.4000E+01  0.4000E+01
    -20.888  0.0000E+00  0.0000E+00  0.4000E+01  0.4000E+01
    -20.744  0.0000E+00  0.0000E+00  0.4000E+01  0.4000E+01
    -20.600  0.0000E+00  0.0000E+00  0.4000E+01  0.4000E+01
    -20.456  0.0000E+00  0.0000E+00  0.4000E+01  0.4000E+01
    -20.311  0.0000E+00  0.0000E+00  0.4000E+01  0.4000E+01
    -20.167  0.0000E+00  0.0000E+00  0.4000E+01  0.4000E+01
    -20.023  0.0000E+00  0.0000E+00  0.4000E+01  0.4000E+01
    -19.879  0.0000E+00  0.0000E+00  0.4000E+01  0.4000E+01
    -19.735  0.0000E+00  0.0000E+00  0.4000E+01  0.4000E+01
    -19.591  0.0000E+00  0.0000E+00  0.4000E+01  0.4000E+01
    -19.447  0.0000E+00  0.0000E+00  0.4000E+01  0.4000E+01
    -19.302  0.0000E+00  0.0000E+00  0.4000E+01  0.4000E+01
    -19.158  0.0000E+00  0.0000E+00  0.4000E+01  0.4000E+01
    -19.014  0.0000E+00  0.0000E+00  0.4000E+01  0.4000E+01
    -18.870  0.0000E+00  0.0000E+00  0.4000E+01  0.4000E+01
    -18.726  0.0000E+00  0.0000E+00  0.4000E+01  0.4000E+01
    -18.582  0.0000E+00  0.0000E+00  0.4000E+01  0.4000E+01
    -18.438  0.0000E+00  0.0000E+00  0.4000E+01  0.4000E+01
    -18.294  0.0000E+00  0.0000E+00  0.4000E+01  0.4000E+01
    -18.149  0.0000E+00  0.0000E+00  0.4000E+01  0.4000E+01
    -18.005  0.1405E-02  0.1245E-02  0.4000E+01  0.4000E+01
    -17.861  0.3323E-01  0.3028E-01  0.4005E+01  0.4005E+01
    -17.717  0.5769E+00  0.5256E+00  0.4088E+01  0.4080E+01
    -17.573  0.8548E+01  0.7905E+01  0.5320E+01  0.5220E+01
    -17.429  0.4249E+02  0.4154E+02  0.1144E+02  0.1121E+02
    -17.285  0.2842E+02  0.2977E+02  0.1554E+02  0.1550E+02
    -17.140  0.3002E+01  0.3274E+01  0.1597E+02  0.1597E+02
    -16.996  0.0000E+00  0.5296E-02  0.1600E+02  0.1600E+02
    -16.852  0.0000E+00  0.0000E+00  0.1600E+02  0.1600E+02
    -16.708  0.0000E+00  0.0000E+00  0.1600E+02  0.1600E+02
    -16.564  0.0000E+00  0.0000E+00  0.1600E+02  0.1600E+02
    -16.420  0.0000E+00  0.0000E+00  0.1600E+02  0.1600E+02
    -16.276  0.0000E+00  0.0000E+00  0.1600E+02  0.1600E+02
    -16.132  0.0000E+00  0.0000E+00  0.1600E+02  0.1600E+02
    -15.987  0.0000E+00  0.0000E+00  0.1600E+02  0.1600E+02
    -15.843  0.0000E+00  0.0000E+00  0.1600E+02  0.1600E+02
    -15.699  0.0000E+00  0.0000E+00  0.1600E+02  0.1600E+02
    -15.555  0.0000E+00  0.0000E+00  0.1600E+02  0.1600E+02
    -15.411  0.0000E+00  0.0000E+00  0.1600E+02  0.1600E+02
    -15.267  0.0000E+00  0.0000E+00  0.1600E+02  0.1600E+02
    -15.123  0.0000E+00  0.0000E+00  0.1600E+02  0.1600E+02
    -14.978  0.0000E+00  0.0000E+00  0.1600E+02  0.1600E+02
    -14.834  0.0000E+00  0.0000E+00  0.1600E+02  0.1600E+02
    -14.690  0.0000E+00  0.0000E+00  0.1600E+02  0.1600E+02
    -14.546  0.0000E+00  0.0000E+00  0.1600E+02  0.1600E+02
    -14.402  0.0000E+00  0.0000E+00  0.1600E+02  0.1600E+02
    -14.258  0.0000E+00  0.0000E+00  0.1600E+02  0.1600E+02
    -14.114  0.0000E+00  0.0000E+00  0.1600E+02  0.1600E+02
    -13.970  0.0000E+00  0.0000E+00  0.1600E+02  0.1600E+02
    -13.825  0.0000E+00  0.0000E+00  0.1600E+02  0.1600E+02
    -13.681  0.0000E+00  0.0000E+00  0.1600E+02  0.1600E+02
    -13.537  0.0000E+00  0.0000E+00  0.1600E+02  0.1600E+02
    -13.393  0.0000E+00  0.0000E+00  0.1600E+02  0.1600E+02
    -13.249  0.0000E+00  0.0000E+00  0.1600E+02  0.1600E+02
    -13.105  0.0000E+00  0.0000E+00  0.1600E+02  0.1600E+02
    -12.961  0.0000E+00  0.0000E+00  0.1600E+02  0.1600E+02
    -12.816  0.0000E+00  0.0000E+00  0.1600E+02  0.1600E+02
    -12.672  0.0000E+00  0.0000E+00  0.1600E+02  0.1600E+02
    -12.528  0.0000E+00  0.0000E+00  0.1600E+02  0.1600E+02
    -12.384  0.0000E+00  0.0000E+00  0.1600E+02  0.1600E+02
    -12.240  0.0000E+00  0.0000E+00  0.1600E+02  0.1600E+02
    -12.096  0.0000E+00  0.0000E+00  0.1600E+02  0.1600E+02
    -11.952  0.0000E+00  0.0000E+00  0.1600E+02  0.1600E+02
    -11.808  0.0000E+00  0.0000E+00  0.1600E+02  0.1600E+02
    -11.663  0.0000E+00  0.0000E+00  0.1600E+02  0.1600E+02
    -11.519  0.0000E+00  0.0000E+00  0.1600E+02  0.1600E+02
    -11.375  0.0000E+00  0.0000E+00  0.1600E+02  0.1600E+02
    -11.231  0.0000E+00  0.0000E+00  0.1600E+02  0.1600E+02
    -11.087  0.0000E+00  0.0000E+00  0.1600E+02  0.1600E+02
    -10.943  0.0000E+00  0.0000E+00  0.1600E+02  0.1600E+02
    -10.799  0.0000E+00  0.0000E+00  0.1600E+02  0.1600E+02
    -10.654  0.0000E+00  0.0000E+00  0.1600E+02  0.1600E+02
    -10.510  0.0000E+00  0.0000E+00  0.1600E+02  0.1600E+02
    -10.366  0.0000E+00  0.0000E+00  0.1600E+02  0.1600E+02
    -10.222  0.0000E+00  0.0000E+00  0.1600E+02  0.1600E+02
    -10.078  0.0000E+00  0.0000E+00  0.1600E+02  0.1600E+02
     -9.934  0.0000E+00  0.0000E+00  0.1600E+02  0.1600E+02
     -9.790  0.0000E+00  0.0000E+00  0.1600E+02  0.1600E+02
     -9.646  0.0000E+00  0.0000E+00  0.1600E+02  0.1600E+02
     -9.501  0.0000E+00  0.0000E+00  0.1600E+02  0.1600E+02
     -9.357  0.0000E+00  0.0000E+00  0.1600E+02  0.1600E+02
     -9.213  0.0000E+00  0.0000E+00  0.1600E+02  0.1600E+02
     -9.069  0.0000E+00  0.0000E+00  0.1600E+02  0.1600E+02
     -8.925  0.0000E+00  0.0000E+00  0.1600E+02  0.1600E+02
     -8.781  0.0000E+00  0.0000E+00  0.1600E+02  0.1600E+02
     -8.637  0.0000E+00  0.0000E+00  0.1600E+02  0.1600E+02
     -8.492  0.0000E+00  0.0000E+00  0.1600E+02  0.1600E+02
     -8.348  0.0000E+00  0.0000E+00  0.1600E+02  0.1600E+02
     -8.204  0.0000E+00  0.0000E+00  0.1600E+02  0.1600E+02
     -8.060  0.0000E+00  0.0000E+00  0.1600E+02  0.1600E+02
     -7.916  0.0000E+00  0.0000E+00  0.1600E+02  0.1600E+02
     -7.772  0.0000E+00  0.0000E+00  0.1600E+02  0.1600E+02
     -7.628  0.0000E+00  0.0000E+00  0.1600E+02  0.1600E+02
     -7.484  0.0000E+00  0.0000E+00  0.1600E+02  0.1600E+02
     -7.339  0.0000E+00  0.0000E+00  0.1600E+02  0.1600E+02
     -7.195  0.0000E+00  0.0000E+00  0.1600E+02  0.1600E+02
     -7.051  0.0000E+00  0.0000E+00  0.1600E+02  0.1600E+02
     -6.907  0.0000E+00  0.0000E+00  0.1600E+02  0.1600E+02
     -6.763  0.0000E+00  0.0000E+00  0.1600E+02  0.1600E+02
     -6.619  0.0000E+00  0.0000E+00  0.1600E+02  0.1600E+02
     -6.475  0.0000E+00  0.0000E+00  0.1600E+02  0.1600E+02
     -6.331  0.0000E+00  0.0000E+00  0.1600E+02  0.1600E+02
     -6.186  0.0000E+00  0.0000E+00  0.1600E+02  0.1600E+02
     -6.042  0.0000E+00  0.0000E+00  0.1600E+02  0.1600E+02
     -5.898  0.0000E+00  0.0000E+00  0.1600E+02  0.1600E+02
     -5.754  0.0000E+00  0.0000E+00  0.1600E+02  0.1600E+02
     -5.610  0.0000E+00  0.0000E+00  0.1600E+02  0.1600E+02
     -5.466  0.0000E+00  0.0000E+00  0.1600E+02  0.1600E+02
     -5.322  0.0000E+00  0.0000E+00  0.1600E+02  0.1600E+02
     -5.177  0.0000E+00  0.0000E+00  0.1600E+02  0.1600E+02
     -5.033  0.0000E+00  0.0000E+00  0.1600E+02  0.1600E+02
     -4.889  0.0000E+00  0.0000E+00  0.1600E+02  0.1600E+02
     -4.745  0.0000E+00  0.0000E+00  0.1600E+02  0.1600E+02
     -4.601  0.0000E+00  0.0000E+00  0.1600E+02  0.1600E+02
     -4.457  0.0000E+00  0.0000E+00  0.1600E+02  0.1600E+02
     -4.313  0.0000E+00  0.0000E+00  0.1600E+02  0.1600E+02
     -4.169  0.0000E+00  0.0000E+00  0.1600E+02  0.1600E+02
     -4.024  0.0000E+00  0.0000E+00  0.1600E+02  0.1600E+02
     -3.880  0.0000E+00  0.0000E+00  0.1600E+02  0.1600E+02
     -3.736  0.0000E+00  0.0000E+00  0.1600E+02  0.1600E+02
     -3.592  0.0000E+00  0.0000E+00  0.1600E+02  0.1600E+02
     -3.448  0.0000E+00  0.0000E+00  0.1600E+02  0.1600E+02
     -3.304  0.0000E+00  0.0000E+00  0.1600E+02  0.1600E+02
     -3.160  0.0000E+00  0.0000E+00  0.1600E+02  0.1600E+02
     -3.015  0.0000E+00  0.0000E+00  0.1600E+02  0.1600E+02
     -2.871  0.0000E+00  0.0000E+00  0.1600E+02  0.1600E+02
     -2.727  0.6920E-06  0.7179E-07  0.1600E+02  0.1600E+02
     -2.583  0.3358E-04  0.1439E-04  0.1600E+02  0.1600E+02
     -2.439  0.5944E-03  0.2679E-03  0.1600E+02  0.1600E+02
     -2.295  0.9702E-02  0.4589E-02  0.1600E+02  0.1600E+02
     -2.151  0.8131E-01  0.5090E-01  0.1601E+02  0.1601E+02
     -2.007  0.2143E+00  0.1793E+00  0.1604E+02  0.1603E+02
     -1.862  0.3202E+00  0.2941E+00  0.1609E+02  0.1608E+02
     -1.718  0.4001E+00  0.3753E+00  0.1615E+02  0.1613E+02
     -1.574  0.4697E+00  0.4590E+00  0.1622E+02  0.1620E+02
     -1.430  0.5528E+00  0.5222E+00  0.1630E+02  0.1627E+02
     -1.286  0.5979E+00  0.5894E+00  0.1638E+02  0.1636E+02
     -1.142  0.6805E+00  0.6547E+00  0.1648E+02  0.1645E+02
     -0.998  0.7511E+00  0.7441E+00  0.1659E+02  0.1656E+02
     -0.853  0.7965E+00  0.7621E+00  0.1670E+02  0.1667E+02
     -0.709  0.9129E+00  0.9078E+00  0.1684E+02  0.1680E+02
     -0.565  0.9309E+00  0.9049E+00  0.1697E+02  0.1693E+02
     -0.421  0.1073E+01  0.1050E+01  0.1712E+02  0.1708E+02
     -0.277  0.1133E+01  0.1109E+01  0.1729E+02  0.1724E+02
     -0.133  0.1220E+01  0.1195E+01  0.1746E+02  0.1741E+02
      0.011  0.1398E+01  0.1357E+01  0.1767E+02  0.1761E+02
      0.155  0.1489E+01  0.1482E+01  0.1788E+02  0.1782E+02
      0.300  0.1789E+01  0.1719E+01  0.1814E+02  0.1807E+02
      0.444  0.1755E+01  0.1780E+01  0.1839E+02  0.1833E+02
      0.588  0.1890E+01  0.1834E+01  0.1867E+02  0.1859E+02
      0.732  0.1840E+01  0.1790E+01  0.1893E+02  0.1885E+02
      0.876  0.1978E+01  0.1970E+01  0.1922E+02  0.1914E+02
      1.020  0.1755E+01  0.1772E+01  0.1947E+02  0.1939E+02
      1.164  0.1842E+01  0.1744E+01  0.1974E+02  0.1964E+02
      1.309  0.2842E+01  0.2319E+01  0.2015E+02  0.1998E+02
      1.453  0.3054E+01  0.3346E+01  0.2059E+02  0.2046E+02
      1.597  0.3123E+01  0.3242E+01  0.2104E+02  0.2093E+02
      1.741  0.4377E+01  0.4340E+01  0.2167E+02  0.2156E+02
      1.885  0.4858E+01  0.4969E+01  0.2237E+02  0.2227E+02
      2.029  0.4870E+01  0.4779E+01  0.2307E+02  0.2296E+02
      2.173  0.5395E+01  0.5313E+01  0.2385E+02  0.2373E+02
      2.317  0.4654E+01  0.4775E+01  0.2453E+02  0.2442E+02
      2.462  0.3785E+01  0.3890E+01  0.2507E+02  0.2498E+02
      2.606  0.3266E+01  0.3324E+01  0.2555E+02  0.2546E+02
      2.750  0.2862E+01  0.2934E+01  0.2596E+02  0.2589E+02
      2.894  0.2627E+01  0.2670E+01  0.2634E+02  0.2627E+02
      3.038  0.2301E+01  0.2359E+01  0.2667E+02  0.2661E+02
      3.182  0.2148E+01  0.2232E+01  0.2698E+02  0.2694E+02
      3.326  0.1905E+01  0.1899E+01  0.2726E+02  0.2721E+02
      3.471  0.1711E+01  0.1782E+01  0.2750E+02  0.2747E+02
      3.615  0.1650E+01  0.1697E+01  0.2774E+02  0.2771E+02
      3.759  0.1388E+01  0.1532E+01  0.2794E+02  0.2794E+02
      3.903  0.3621E+00  0.4024E+00  0.2800E+02  0.2799E+02
      4.047  0.2617E-01  0.3332E-01  0.2800E+02  0.2800E+02
      4.191  0.0000E+00  0.6183E-03  0.2800E+02  0.2800E+02
      4.335  0.0000E+00  0.0000E+00  0.2800E+02  0.2800E+02
      4.479  0.0000E+00  0.0000E+00  0.2800E+02  0.2800E+02
      4.624  0.0000E+00  0.0000E+00  0.2800E+02  0.2800E+02
      4.768  0.0000E+00  0.0000E+00  0.2800E+02  0.2800E+02
      4.912  0.0000E+00  0.0000E+00  0.2800E+02  0.2800E+02
      5.056  0.0000E+00  0.0000E+00  0.2800E+02  0.2800E+02
      5.200  0.0000E+00  0.0000E+00  0.2800E+02  0.2800E+02
      5.344  0.0000E+00  0.0000E+00  0.2800E+02  0.2800E+02
      5.488  0.0000E+00  0.0000E+00  0.2800E+02  0.2800E+02
      5.633  0.0000E+00  0.0000E+00  0.2800E+02  0.2800E+02
      5.777  0.0000E+00  0.0000E+00  0.2800E+02  0.2800E+02
      5.77664164    -37.46317480  301      1.28865078      1.00000000
    -37.463  0.0000E+00  0.0000E+00  0.0000E+00  0.0000E+00  0.0000E+00  0.0000E+00  0.0000E+00  0.0000E+00  0.0000E+00  0.0000E+00  0.0000E+00  0.0000E+00  0.0000E+00  0.0000E+00  0.0000E+00  0.0000E+00  0.0000E+00  0.0000E+00
    -37.319  0.0000E+00  0.0000E+00  0.0000E+00  0.0000E+00  0.0000E+00  0.0000E+00  0.0000E+00  0.0000E+00  0.0000E+00  0.0000E+00  0.0000E+00  0.0000E+00  0.0000E+00  0.0000E+00  0.0000E+00  0.0000E+00  0.0000E+00  0.0000E+00
    -37.175  0.0000E+00  0.0000E+00  0.0000E+00  0.0000E+00  0.0000E+00  0.0000E+00  0.0000E+00  0.0000E+00  0.0000E+00  0.0000E+00  0.0000E+00  0.0000E+00  0.0000E+00  0.0000E+00  0.0000E+00  0.0000E+00  0.0000E+00  0.0000E+00
    -37.031  0.0000E+00  0.0000E+00  0.0000E+00  0.0000E+00  0.0000E+00  0.0000E+00  0.0000E+00  0.0000E+00  0.0000E+00  0.0000E+00  0.0000E+00  0.0000E+00  0.0000E+00  0.0000E+00  0.0000E+00  0.0000E+00  0.0000E+00  0.0000E+00
    -36.887  0.0000E+00  0.0000E+00  0.0000E+00  0.0000E+00  0.0000E+00  0.0000E+00  0.0000E+00  0.0000E+00  0.0000E+00  0.0000E+00  0.0000E+00  0.0000E+00  0.0000E+00  0.0000E+00  0.0000E+00  0.0000E+00  0.0000E+00  0.0000E+00
    -36.743  0.0000E+00  0.0000E+00  0.0000E+00  0.0000E+00  0.0000E+00  0.0000E+00  0.0000E+00  0.0000E+00  0.0000E+00  0.0000E+00  0.0000E+00  0.0000E+00  0.0000E+00  0.0000E+00  0.0000E+00  0.0000E+00  0.0000E+00  0.0000E+00
    -36.598  0.0000E+00  0.0000E+00  0.0000E+00  0.0000E+00  0.0000E+00  0.0000E+00  0.0000E+00  0.0000E+00  0.0000E+00  0.0000E+00  0.0000E+00  0.0000E+00  0.0000E+00  0.0000E+00  0.0000E+00  0.0000E+00  0.0000E+00  0.0000E+00
    -36.454  0.0000E+00  0.0000E+00  0.0000E+00  0.0000E+00  0.0000E+00  0.0000E+00  0.0000E+00  0.0000E+00  0.0000E+00  0.0000E+00  0.0000E+00  0.0000E+00  0.0000E+00  0.0000E+00  0.0000E+00  0.0000E+00  0.0000E+00  0.0000E+00
    -36.310  0.0000E+00  0.0000E+00  0.0000E+00  0.0000E+00  0.0000E+00  0.0000E+00  0.0000E+00  0.0000E+00  0.0000E+00  0.0000E+00  0.0000E+00  0.0000E+00  0.0000E+00  0.0000E+00  0.0000E+00  0.0000E+00  0.0000E+00  0.0000E+00
    -36.166  0.0000E+00  0.0000E+00  0.0000E+00  0.0000E+00  0.0000E+00  0.0000E+00  0.0000E+00  0.0000E+00  0.0000E+00  0.0000E+00  0.0000E+00  0.0000E+00  0.0000E+00  0.0000E+00  0.0000E+00  0.0000E+00  0.0000E+00  0.0000E+00
    -36.022  0.1591E-03  0.1456E-03  0.4956E-11  0.4542E-11  0.4956E-11  0.4542E-11  0.4956E-11  0.4542E-11  0.1470E-11  0.1338E-11  0.1470E-11  0.1338E-11  0.7094E-12  0.6451E-12  0.1470E-11  0.1338E-11  0.7094E-12  0.6451E-12
    -35.878  0.2681E-02  0.2454E-02  0.8353E-10  0.7655E-10  0.8353E-10  0.7655E-10  0.8353E-10  0.7655E-10  0.2478E-10  0.2255E-10  0.2478E-10  0.2255E-10  0.1196E-10  0.1087E-10  0.2478E-10  0.2255E-10  0.1196E-10  0.1087E-10
    -35.734  0.4753E-01  0.4353E-01  0.1481E-08  0.1358E-08  0.1481E-08  0.1358E-08  0.1481E-08  0.1358E-08  0.4393E-09  0.4000E-09  0.4393E-09  0.4000E-09  0.2120E-09  0.1929E-09  0.4393E-09  0.4000E-09  0.2120E-09  0.1929E-09
    -35.589  0.7492E+00  0.6931E+00  0.2325E-07  0.2154E-07  0.2325E-07  0.2154E-07  0.2325E-07  0.2154E-07  0.6926E-08  0.6370E-08  0.6926E-08  0.6370E-08  0.3355E-08  0.3082E-08  0.6926E-08  0.6370E-08  0.3355E-08  0.3082E-08
    -35.445  0.3985E+01  0.3918E+01  0.1211E-06  0.1193E-06  0.1211E-06  0.1193E-06  0.1211E-06  0.1193E-06  0.3688E-07  0.3604E-07  0.3688E-07  0.3604E-07  0.1824E-07  0.1780E-07  0.3688E-07  0.3604E-07  0.1824E-07  0.1780E-07
    -35.301  0.1856E+01  0.1970E+01  0.5494E-07  0.5841E-07  0.5494E-07  0.5841E-07  0.5494E-07  0.5841E-07  0.1718E-07  0.1811E-07  0.1718E-07  0.1811E-07  0.8716E-08  0.9180E-08  0.1718E-07  0.1811E-07  0.8716E-08  0.9180E-08
    -35.157  0.1476E+00  0.1609E+00  0.4329E-08  0.4724E-08  0.4329E-08  0.4724E-08  0.4329E-08  0.4724E-08  0.1365E-08  0.1478E-08  0.1365E-08  0.1478E-08  0.6988E-09  0.7565E-09  0.1365E-08  0.1478E-08  0.6988E-09  0.7565E-09
    -35.013  0.0000E+00  0.0000E+00  0.0000E+00  0.0000E+00  0.0000E+00  0.0000E+00  0.0000E+00  0.0000E+00  0.0000E+00  0.0000E+00  0.0000E+00  0.0000E+00  0.0000E+00  0.0000E+00  0.0000E+00  0.0000E+00  0.0000E+00  0.0000E+00
    -34.869  0.0000E+00  0.0000E+00  0.0000E+00  0.0000E+00  0.0000E+00  0.0000E+00  0.0000E+00  0.0000E+00  0.0000E+00  0.0000E+00  0.0000E+00  0.0000E+00  0.0000E+00  0.0000E+00  0.0000E+00  0.0000E+00  0.0000E+00  0.0000E+00
    -34.725  0.0000E+00  0.0000E+00  0.0000E+00  0.0000E+00  0.0000E+00  0.0000E+00  0.0000E+00  0.0000E+00  0.0000E+00  0.0000E+00  0.0000E+00  0.0000E+00  0.0000E+00  0.0000E+00  0.0000E+00  0.0000E+00  0.0000E+00  0.0000E+00
    -34.581  0.0000E+00  0.0000E+00  0.0000E+00  0.0000E+00  0.0000E+00  0.0000E+00  0.0000E+00  0.0000E+00  0.0000E+00  0.0000E+00  0.0000E+00  0.0000E+00  0.0000E+00  0.0000E+00  0.0000E+00  0.0000E+00  0.0000E+00  0.0000E+00
    -34.436  0.0000E+00  0.0000E+00  0.0000E+00  0.0000E+00  0.0000E+00  0.0000E+00  0.0000E+00  0.0000E+00  0.0000E+00  0.0000E+00  0.0000E+00  0.0000E+00  0.0000E+00  0.0000E+00  0.0000E+00  0.0000E+00  0.0000E+00  0.0000E+00
    -34.292  0.0000E+00  0.0000E+00  0.0000E+00  0.0000E+00  0.0000E+00  0.0000E+00  0.0000E+00  0.0000E+00  0.0000E+00  0.0000E+00  0.0000E+00  0.0000E+00  0.0000E+00  0.0000E+00  0.0000E+00  0.0000E+00  0.0000E+00  0.0000E+00
    -34.148  0.0000E+00  0.0000E+00  0.0000E+00  0.0000E+00  0.0000E+00  0.0000E+00  0.0000E+00  0.0000E+00  0.0000E+00  0.0000E+00  0.0000E+00  0.0000E+00  0.0000E+00  0.0000E+00  0.0000E+00  0.0000E+00  0.0000E+00  0.0000E+00
    -34.004  0.0000E+00  0.0000E+00  0.0000E+00  0.0000E+00  0.0000E+00  0.0000E+00  0.0000E+00  0.0000E+00  0.0000E+00  0.0000E+00  0.0000E+00  0.0000E+00  0.0000E+00  0.0000E+00  0.0000E+00  0.0000E+00  0.0000E+00  0.0000E+00
    -33.860  0.0000E+00  0.0000E+00  0.0000E+00  0.0000E+00  0.0000E+00  0.0000E+00  0.0000E+00  0.0000E+00  0.0000E+00  0.0000E+00  0.0000E+00  0.0000E+00  0.0000E+00  0.0000E+00  0.0000E+00  0.0000E+00  0.0000E+00  0.0000E+00
    -33.716  0.0000E+00  0.0000E+00  0.0000E+00  0.0000E+00  0.0000E+00  0.0000E+00  0.0000E+00  0.0000E+00  0.0000E+00  0.0000E+00  0.0000E+00  0.0000E+00  0.0000E+00  0.0000E+00  0.0000E+00  0.0000E+00  0.0000E+00  0.0000E+00
    -33.572  0.0000E+00  0.0000E+00  0.0000E+00  0.0000E+00  0.0000E+00  0.0000E+00  0.0000E+00  0.0000E+00  0.0000E+00  0.0000E+00  0.0000E+00  0.0000E+00  0.0000E+00  0.0000E+00  0.0000E+00  0.0000E+00  0.0000E+00  0.0000E+00
    -33.427  0.0000E+00  0.0000E+00  0.0000E+00  0.0000E+00  0.0000E+00  0.0000E+00  0.0000E+00  0.0000E+00  0.0000E+00  0.0000E+00  0.0000E+00  0.0000E+00  0.0000E+00  0.0000E+00  0.0000E+00  0.0000E+00  0.0000E+00  0.0000E+00
    -33.283  0.0000E+00  0.0000E+00  0.0000E+00  0.0000E+00  0.0000E+00  0.0000E+00  0.0000E+00  0.0000E+00  0.0000E+00  0.0000E+00  0.0000E+00  0.0000E+00  0.0000E+00  0.0000E+00  0.0000E+00  0.0000E+00  0.0000E+00  0.0000E+00
    -33.139  0.0000E+00  0.0000E+00  0.0000E+00  0.0000E+00  0.0000E+00  0.0000E+00  0.0000E+00  0.0000E+00  0.0000E+00  0.0000E+00  0.0000E+00  0.0000E+00  0.0000E+00  0.0000E+00  0.0000E+00  0.0000E+00  0.0000E+00  0.0000E+00
    -32.995  0.0000E+00  0.0000E+00  0.0000E+00  0.0000E+00  0.0000E+00  0.0000E+00  0.0000E+00  0.0000E+00  0.0000E+00  0.0000E+00  0.0000E+00  0.0000E+00  0.0000E+00  0.0000E+00  0.0000E+00  0.0000E+00  0.0000E+00  0.0000E+00
    -32.851  0.0000E+00  0.0000E+00  0.0000E+00  0.0000E+00  0.0000E+00  0.0000E+00  0.0000E+00  0.0000E+00  0.0000E+00  0.0000E+00  0.0000E+00  0.0000E+00  0.0000E+00  0.0000E+00  0.0000E+00  0.0000E+00  0.0000E+00  0.0000E+00
    -32.707  0.0000E+00  0.0000E+00  0.0000E+00  0.0000E+00  0.0000E+00  0.0000E+00  0.0000E+00  0.0000E+00  0.0000E+00  0.0000E+00  0.0000E+00  0.0000E+00  0.0000E+00  0.0000E+00  0.0000E+00  0.0000E+00  0.0000E+00  0.0000E+00
    -32.563  0.0000E+00  0.0000E+00  0.0000E+00  0.0000E+00  0.0000E+00  0.0000E+00  0.0000E+00  0.0000E+00  0.0000E+00  0.0000E+00  0.0000E+00  0.0000E+00  0.0000E+00  0.0000E+00  0.0000E+00  0.0000E+00  0.0000E+00  0.0000E+00
    -32.419  0.0000E+00  0.0000E+00  0.0000E+00  0.0000E+00  0.0000E+00  0.0000E+00  0.0000E+00  0.0000E+00  0.0000E+00  0.0000E+00  0.0000E+00  0.0000E+00  0.0000E+00  0.0000E+00  0.0000E+00  0.0000E+00  0.0000E+00  0.0000E+00
    -32.274  0.0000E+00  0.0000E+00  0.0000E+00  0.0000E+00  0.0000E+00  0.0000E+00  0.0000E+00  0.0000E+00  0.0000E+00  0.0000E+00  0.0000E+00  0.0000E+00  0.0000E+00  0.0000E+00  0.0000E+00  0.0000E+00  0.0000E+00  0.0000E+00
    -32.130  0.0000E+00  0.0000E+00  0.0000E+00  0.0000E+00  0.0000E+00  0.0000E+00  0.0000E+00  0.0000E+00  0.0000E+00  0.0000E+00  0.0000E+00  0.0000E+00  0.0000E+00  0.0000E+00  0.0000E+00  0.0000E+00  0.0000E+00  0.0000E+00
    -31.986  0.0000E+00  0.0000E+00  0.0000E+00  0.0000E+00  0.0000E+00  0.0000E+00  0.0000E+00  0.0000E+00  0.0000E+00  0.0000E+00  0.0000E+00  0.0000E+00  0.0000E+00  0.0000E+00  0.0000E+00  0.0000E+00  0.0000E+00  0.0000E+00
    -31.842  0.0000E+00  0.0000E+00  0.0000E+00  0.0000E+00  0.0000E+00  0.0000E+00  0.0000E+00  0.0000E+00  0.0000E+00  0.0000E+00  0.0000E+00  0.0000E+00  0.0000E+00  0.0000E+00  0.0000E+00  0.0000E+00  0.0000E+00  0.0000E+00
    -31.698  0.0000E+00  0.0000E+00  0.0000E+00  0.0000E+00  0.0000E+00  0.0000E+00  0.0000E+00  0.0000E+00  0.0000E+00  0.0000E+00  0.0000E+00  0.0000E+00  0.0000E+00  0.0000E+00  0.0000E+00  0.0000E+00  0.0000E+00  0.0000E+00
    -31.554  0.0000E+00  0.0000E+00  0.0000E+00  0.0000E+00  0.0000E+00  0.0000E+00  0.0000E+00  0.0000E+00  0.0000E+00  0.0000E+00  0.0000E+00  0.0000E+00  0.0000E+00  0.0000E+00  0.0000E+00  0.0000E+00  0.0000E+00  0.0000E+00
    -31.410  0.0000E+00  0.0000E+00  0.0000E+00  0.0000E+00  0.0000E+00  0.0000E+00  0.0000E+00  0.0000E+00  0.0000E+00  0.0000E+00  0.0000E+00  0.0000E+00  0.0000E+00  0.0000E+00  0.0000E+00  0.0000E+00  0.0000E+00  0.0000E+00
    -31.265  0.0000E+00  0.0000E+00  0.0000E+00  0.0000E+00  0.0000E+00  0.0000E+00  0.0000E+00  0.0000E+00  0.0000E+00  0.0000E+00  0.0000E+00  0.0000E+00  0.0000E+00  0.0000E+00  0.0000E+00  0.0000E+00  0.0000E+00  0.0000E+00
    -31.121  0.0000E+00  0.0000E+00  0.0000E+00  0.0000E+00  0.0000E+00  0.0000E+00  0.0000E+00  0.0000E+00  0.0000E+00  0.0000E+00  0.0000E+00  0.0000E+00  0.0000E+00  0.0000E+00  0.0000E+00  0.0000E+00  0.0000E+00  0.0000E+00
    -30.977  0.0000E+00  0.0000E+00  0.0000E+00  0.0000E+00  0.0000E+00  0.0000E+00  0.0000E+00  0.0000E+00  0.0000E+00  0.0000E+00  0.0000E+00  0.0000E+00  0.0000E+00  0.0000E+00  0.0000E+00  0.0000E+00  0.0000E+00  0.0000E+00
    -30.833  0.0000E+00  0.0000E+00  0.0000E+00  0.0000E+00  0.0000E+00  0.0000E+00  0.0000E+00  0.0000E+00  0.0000E+00  0.0000E+00  0.0000E+00  0.0000E+00  0.0000E+00  0.0000E+00  0.0000E+00  0.0000E+00  0.0000E+00  0.0000E+00
    -30.689  0.0000E+00  0.0000E+00  0.0000E+00  0.0000E+00  0.0000E+00  0.0000E+00  0.0000E+00  0.0000E+00  0.0000E+00  0.0000E+00  0.0000E+00  0.0000E+00  0.0000E+00  0.0000E+00  0.0000E+00  0.0000E+00  0.0000E+00  0.0000E+00
    -30.545  0.0000E+00  0.0000E+00  0.0000E+00  0.0000E+00  0.0000E+00  0.0000E+00  0.0000E+00  0.0000E+00  0.0000E+00  0.0000E+00  0.0000E+00  0.0000E+00  0.0000E+00  0.0000E+00  0.0000E+00  0.0000E+00  0.0000E+00  0.0000E+00
    -30.401  0.0000E+00  0.0000E+00  0.0000E+00  0.0000E+00  0.0000E+00  0.0000E+00  0.0000E+00  0.0000E+00  0.0000E+00  0.0000E+00  0.0000E+00  0.0000E+00  0.0000E+00  0.0000E+00  0.0000E+00  0.0000E+00  0.0000E+00  0.0000E+00
    -30.257  0.0000E+00  0.0000E+00  0.0000E+00  0.0000E+00  0.0000E+00  0.0000E+00  0.0000E+00  0.0000E+00  0.0000E+00  0.0000E+00  0.0000E+00  0.0000E+00  0.0000E+00  0.0000E+00  0.0000E+00  0.0000E+00  0.0000E+00  0.0000E+00