   4   4   1   0
  0.7300727E+02  0.6634508E-09  0.6634508E-09  0.6634508E-09  0.5000000E-15
  1.000000000000000E-004
  CAR 
 unknown system                          
      5.00048548    -38.46141788  301      0.68874190      1.00000000
    -38.461  0.0000E+00  0.0000E+00  0.0000E+00  0.0000E+00
    -38.317  0.0000E+00  0.0000E+00  0.0000E+00  0.0000E+00
    -38.172  0.0000E+00  0.0000E+00  0.0000E+00  0.0000E+00
    -38.027  0.0000E+00  0.0000E+00  0.0000E+00  0.0000E+00
    -37.882  0.0000E+00  0.0000E+00  0.0000E+00  0.0000E+00
    -37.737  0.0000E+00  0.0000E+00  0.0000E+00  0.0000E+00
    -37.592  0.0000E+00  0.0000E+00  0.0000E+00  0.0000E+00
    -37.447  0.0000E+00  0.0000E+00  0.0000E+00  0.0000E+00
    -37.302  0.0000E+00  0.0000E+00  0.0000E+00  0.0000E+00
    -37.158  0.0000E+00  0.0000E+00  0.0000E+00  0.0000E+00
    -37.013  0.6867E-03  0.6665E-03  0.9949E-04  0.9655E-04
    -36.868  0.1176E-01  0.1141E-01  0.1803E-02  0.1750E-02
    -36.723  0.2114E+00  0.2052E+00  0.3243E-01  0.3148E-01
    -36.578  0.3339E+01  0.3254E+01  0.5162E+00  0.5029E+00
    -36.433  0.1656E+02  0.1648E+02  0.2915E+01  0.2891E+01
    -36.288  0.6936E+01  0.7084E+01  0.3919E+01  0.3917E+01
    -36.143  0.5245E+00  0.5401E+00  0.3995E+01  0.3995E+01
    -35.999  0.0000E+00  0.0000E+00  0.4000E+01  0.4000E+01
    -35.854  0.0000E+00  0.0000E+00  0.4000E+01  0.4000E+01
    -35.709  0.0000E+00  0.0000E+00  0.4000E+01  0.4000E+01
    -35.564  0.0000E+00  0.0000E+00  0.4000E+01  0.4000E+01
    -35.419  0.0000E+00  0.0000E+00  0.4000E+01  0.4000E+01
    -35.274  0.0000E+00  0.0000E+00  0.4000E+01  0.4000E+01
    -35.129  0.0000E+00  0.0000E+00  0.4000E+01  0.4000E+01
    -34.984  0.0000E+00  0.0000E+00  0.4000E+01  0.4000E+01
    -34.840  0.0000E+00  0.0000E+00  0.4000E+01  0.4000E+01
    -34.695  0.0000E+00  0.0000E+00  0.4000E+01  0.4000E+01
    -34.550  0.0000E+00  0.0000E+00  0.4000E+01  0.4000E+01
    -34.405  0.0000E+00  0.0000E+00  0.4000E+01  0.4000E+01
    -34.260  0.0000E+00  0.0000E+00  0.4000E+01  0.4000E+01
    -34.115  0.0000E+00  0.0000E+00  0.4000E+01  0.4000E+01
    -33.970  0.0000E+00  0.0000E+00  0.4000E+01  0.4000E+01
    -33.825  0.0000E+00  0.0000E+00  0.4000E+01  0.4000E+01
    -33.681  0.0000E+00  0.0000E+00  0.4000E+01  0.4000E+01
    -33.536  0.0000E+00  0.0000E+00  0.4000E+01  0.4000E+01
    -33.391  0.0000E+00  0.0000E+00  0.4000E+01  0.4000E+01
    -33.246  0.0000E+00  0.0000E+00  0.4000E+01  0.4000E+01
    -33.101  0.0000E+00  0.0000E+00  0.4000E+01  0.4000E+01
    -32.956  0.0000E+00  0.0000E+00  0.4000E+01  0.4000E+01
    -32.811  0.0000E+00  0.0000E+00  0.4000E+01  0.4000E+01
    -32.666  0.0000E+00  0.0000E+00  0.4000E+01  0.4000E+01
    -32.522  0.0000E+00  0.0000E+00  0.4000E+01  0.4000E+01
    -32.377  0.0000E+00  0.0000E+00  0.4000E+01  0.4000E+01
    -32.232  0.0000E+00  0.0000E+00  0.4000E+01  0.4000E+01
    -32.087  0.0000E+00  0.0000E+00  0.4000E+01  0.4000E+01
    -31.942  0.0000E+00  0.0000E+00  0.4000E+01  0.4000E+01
    -31.797  0.0000E+00  0.0000E+00  0.4000E+01  0.4000E+01
    -31.652  0.0000E+00  0.0000E+00  0.4000E+01  0.4000E+01
    -31.508  0.0000E+00  0.0000E+00  0.4000E+01  0.4000E+01
    -31.363  0.0000E+00  0.0000E+00  0.4000E+01  0.4000E+01
    -31.218  0.0000E+00  0.0000E+00  0.4000E+01  0.4000E+01
    -31.073  0.0000E+00  0.0000E+00  0.4000E+01  0.4000E+01
    -30.928  0.0000E+00  0.0000E+00  0.4000E+01  0.4000E+01
    -30.783  0.0000E+00  0.0000E+00  0.4000E+01  0.4000E+01
    -30.638  0.0000E+00  0.0000E+00  0.4000E+01  0.4000E+01
    -30.493  0.0000E+00  0.0000E+00  0.4000E+01  0.4000E+01
    -30.349  0.0000E+00  0.0000E+00  0.4000E+01  0.4000E+01
    -30.204  0.0000E+00  0.0000E+00  0.4000E+01  0.4000E+01
    -30.059  0.0000E+00  0.0000E+00  0.4000E+01  0.4000E+01
    -29.914  0.0000E+00  0.0000E+00  0.4000E+01  0.4000E+01
    -29.769  0.0000E+00  0.0000E+00  0.4000E+01  0.4000E+01
    -29.624  0.0000E+00  0.0000E+00  0.4000E+01  0.4000E+01
    -29.479  0.0000E+00  0.0000E+00  0.4000E+01  0.4000E+01
    -29.334  0.0000E+00  0.0000E+00  0.4000E+01  0.4000E+01
    -29.190  0.0000E+00  0.0000E+00  0.4000E+01  0.4000E+01
    -29.045  0.0000E+00  0.0000E+00  0.4000E+01  0.4000E+01
    -28.900  0.0000E+00  0.0000E+00  0.4000E+01  0.4000E+01
    -28.755  0.0000E+00  0.0000E+00  0.4000E+01  0.4000E+01
    -28.610  0.0000E+00  0.0000E+00  0.4000E+01  0.4000E+01
    -28.465  0.0000E+00  0.0000E+00  0.4000E+01  0.4000E+01
    -28.320  0.0000E+00  0.0000E+00  0.4000E+01  0.4000E+01
    -28.175  0.0000E+00  0.0000E+00  0.4000E+01  0.4000E+01
    -28.031  0.0000E+00  0.0000E+00  0.4000E+01  0.4000E+01
    -27.886  0.0000E+00  0.0000E+00  0.4000E+01  0.4000E+01
    -27.741  0.0000E+00  0.0000E+00  0.4000E+01  0.4000E+01
    -27.596  0.0000E+00  0.0000E+00  0.4000E+01  0.4000E+01
    -27.451  0.0000E+00  0.0000E+00  0.4000E+01  0.4000E+01
    -27.306  0.0000E+00  0.0000E+00  0.4000E+01  0.4000E+01
    -27.161  0.0000E+00  0.0000E+00  0.4000E+01  0.4000E+01
    -27.016  0.0000E+00  0.0000E+00  0.4000E+01  0.4000E+01
    -26.872  0.0000E+00  0.0000E+00  0.4000E+01  0.4000E+01
    -26.727  0.0000E+00  0.0000E+00  0.4000E+01  0.4000E+01
    -26.582  0.0000E+00  0.0000E+00  0.4000E+01  0.4000E+01
    -26.437  0.0000E+00  0.0000E+00  0.4000E+01  0.4000E+01
    -26.292  0.0000E+00  0.0000E+00  0.4000E+01  0.4000E+01
    -26.147  0.0000E+00  0.0000E+00  0.4000E+01  0.4000E+01
    -26.002  0.0000E+00  0.0000E+00  0.4000E+01  0.4000E+01
    -25.857  0.0000E+00  0.0000E+00  0.4000E+01  0.4000E+01
    -25.713  0.0000E+00  0.0000E+00  0.4000E+01  0.4000E+01
    -25.568  0.0000E+00  0.0000E+00  0.4000E+01  0.4000E+01
    -25.423  0.0000E+00  0.0000E+00  0.4000E+01  0.4000E+01
    -25.278  0.0000E+00  0.0000E+00  0.4000E+01  0.4000E+01
    -25.133  0.0000E+00  0.0000E+00  0.4000E+01  0.4000E+01
    -24.988  0.0000E+00  0.0000E+00  0.4000E+01  0.4000E+01
    -24.843  0.0000E+00  0.0000E+00  0.4000E+01  0.4000E+01
    -24.698  0.0000E+00  0.0000E+00  0.4000E+01  0.4000E+01
    -24.554  0.0000E+00  0.0000E+00  0.4000E+01  0.4000E+01
    -24.409  0.0000E+00  0.0000E+00  0.4000E+01  0.4000E+01
    -24.264  0.0000E+00  0.0000E+00  0.4000E+01  0.4000E+01
    -24.119  0.0000E+00  0.0000E+00  0.4000E+01  0.4000E+01
    -23.974  0.0000E+00  0.0000E+00  0.4000E+01  0.4000E+01
    -23.829  0.0000E+00  0.0000E+00  0.4000E+01  0.4000E+01
    -23.684  0.0000E+00  0.0000E+00  0.4000E+01  0.4000E+01
    -23.539  0.0000E+00  0.0000E+00  0.4000E+01  0.4000E+01
    -23.395  0.0000E+00  0.0000E+00  0.4000E+01  0.4000E+01
    -23.250  0.0000E+00  0.0000E+00  0.4000E+01  0.4000E+01
    -23.105  0.0000E+00  0.0000E+00  0.4000E+01  0.4000E+01
    -22.960  0.0000E+00  0.0000E+00  0.4000E+01  0.4000E+01
    -22.815  0.0000E+00  0.0000E+00  0.4000E+01  0.4000E+01
    -22.670  0.0000E+00  0.0000E+00  0.4000E+01  0.4000E+01
    -22.525  0.0000E+00  0.0000E+00  0.4000E+01  0.4000E+01
    -22.381  0.0000E+00  0.0000E+00  0.4000E+01  0.4000E+01
    -22.236  0.0000E+00  0.0000E+00  0.4000E+01  0.4000E+01
    -22.091  0.0000E+00  0.0000E+00  0.4000E+01  0.4000E+01
    -21.946  0.0000E+00  0.0000E+00  0.4000E+01  0.4000E+01
    -21.801  0.0000E+00  0.0000E+00  0.4000E+01  0.4000E+01
    -21.656  0.0000E+00  0.0000E+00  0.4000E+01  0.4000E+01
    -21.511  0.0000E+00  0.0000E+00  0.4000E+01  0.4000E+01
    -21.366  0.0000E+00  0.0000E+00  0.4000E+01  0.4000E+01
    -21.222  0.0000E+00  0.0000E+00  0.4000E+01  0.4000E+01
    -21.077  0.0000E+00  0.0000E+00  0.4000E+01  0.4000E+01
    -20.932  0.0000E+00  0.0000E+00  0.4000E+01  0.4000E+01
    -20.787  0.0000E+00  0.0000E+00  0.4000E+01  0.4000E+01
    -20.642  0.0000E+00  0.0000E+00  0.4000E+01  0.4000E+01
    -20.497  0.0000E+00  0.0000E+00  0.4000E+01  0.4000E+01
    -20.352  0.0000E+00  0.0000E+00  0.4000E+01  0.4000E+01
    -20.207  0.0000E+00  0.0000E+00  0.4000E+01  0.4000E+01
    -20.063  0.0000E+00  0.0000E+00  0.4000E+01  0.4000E+01
    -19.918  0.0000E+00  0.0000E+00  0.4000E+01  0.4000E+01
    -19.773  0.0000E+00  0.0000E+00  0.4000E+01  0.4000E+01
    -19.628  0.0000E+00  0.0000E+00  0.4000E+01  0.4000E+01
    -19.483  0.0000E+00  0.0000E+00  0.4000E+01  0.4000E+01
    -19.338  0.0000E+00  0.0000E+00  0.4000E+01  0.4000E+01
    -19.193  0.0000E+00  0.0000E+00  0.4000E+01  0.4000E+01
    -19.048  0.0000E+00  0.0000E+00  0.4000E+01  0.4000E+01
    -18.904  0.5872E-02  0.5689E-02  0.4001E+01  0.4001E+01
    -18.759  0.1004E+00  0.9730E-01  0.4015E+01  0.4015E+01
    -18.614  0.1774E+01  0.1720E+01  0.4272E+01  0.4264E+01
    -18.469  0.2206E+02  0.2160E+02  0.7469E+01  0.7393E+01
    -18.324  0.4838E+02  0.4861E+02  0.1448E+02  0.1444E+02
    -18.179  0.9839E+01  0.1011E+02  0.1590E+02  0.1590E+02
    -18.034  0.5221E+00  0.5443E+00  0.1600E+02  0.1600E+02
    -17.889  0.0000E+00  0.0000E+00  0.1600E+02  0.1600E+02
    -17.745  0.0000E+00  0.0000E+00  0.1600E+02  0.1600E+02
    -17.600  0.0000E+00  0.0000E+00  0.1600E+02  0.1600E+02
    -17.455  0.0000E+00  0.0000E+00  0.1600E+02  0.1600E+02
    -17.310  0.0000E+00  0.0000E+00  0.1600E+02  0.1600E+02
    -17.165  0.0000E+00  0.0000E+00  0.1600E+02  0.1600E+02
    -17.020  0.0000E+00  0.0000E+00  0.1600E+02  0.1600E+02
    -16.875  0.0000E+00  0.0000E+00  0.1600E+02  0.1600E+02
    -16.730  0.0000E+00  0.0000E+00  0.1600E+02  0.1600E+02
    -16.586  0.0000E+00  0.0000E+00  0.1600E+02  0.1600E+02
    -16.441  0.0000E+00  0.0000E+00  0.1600E+02  0.1600E+02
    -16.296  0.0000E+00  0.0000E+00  0.1600E+02  0.1600E+02
    -16.151  0.0000E+00  0.0000E+00  0.1600E+02  0.1600E+02
    -16.006  0.0000E+00  0.0000E+00  0.1600E+02  0.1600E+02
    -15.861  0.0000E+00  0.0000E+00  0.1600E+02  0.1600E+02
    -15.716  0.0000E+00  0.0000E+00  0.1600E+02  0.1600E+02
    -15.571  0.0000E+00  0.0000E+00  0.1600E+02  0.1600E+02
    -15.427  0.0000E+00  0.0000E+00  0.1600E+02  0.1600E+02
    -15.282  0.0000E+00  0.0000E+00  0.1600E+02  0.1600E+02
    -15.137  0.0000E+00  0.0000E+00  0.1600E+02  0.1600E+02
    -14.992  0.0000E+00  0.0000E+00  0.1600E+02  0.1600E+02
    -14.847  0.0000E+00  0.0000E+00  0.1600E+02  0.1600E+02
    -14.702  0.0000E+00  0.0000E+00  0.1600E+02  0.1600E+02
    -14.557  0.0000E+00  0.0000E+00  0.1600E+02  0.1600E+02
    -14.412  0.0000E+00  0.0000E+00  0.1600E+02  0.1600E+02
    -14.268  0.0000E+00  0.0000E+00  0.1600E+02  0.1600E+02
    -14.123  0.0000E+00  0.0000E+00  0.1600E+02  0.1600E+02
    -13.978  0.0000E+00  0.0000E+00  0.1600E+02  0.1600E+02
    -13.833  0.0000E+00  0.0000E+00  0.1600E+02  0.1600E+02
    -13.688  0.0000E+00  0.0000E+00  0.1600E+02  0.1600E+02
    -13.543  0.0000E+00  0.0000E+00  0.1600E+02  0.1600E+02
    -13.398  0.0000E+00  0.0000E+00  0.1600E+02  0.1600E+02
    -13.254  0.0000E+00  0.0000E+00  0.1600E+02  0.1600E+02
    -13.109  0.0000E+00  0.0000E+00  0.1600E+02  0.1600E+02
    -12.964  0.0000E+00  0.0000E+00  0.1600E+02  0.1600E+02
    -12.819  0.0000E+00  0.0000E+00  0.1600E+02  0.1600E+02
    -12.674  0.0000E+00  0.0000E+00  0.1600E+02  0.1600E+02
    -12.529  0.0000E+00  0.0000E+00  0.1600E+02  0.1600E+02
    -12.384  0.0000E+00  0.0000E+00  0.1600E+02  0.1600E+02
    -12.239  0.0000E+00  0.0000E+00  0.1600E+02  0.1600E+02
    -12.095  0.0000E+00  0.0000E+00  0.1600E+02  0.1600E+02
    -11.950  0.0000E+00  0.0000E+00  0.1600E+02  0.1600E+02
    -11.805  0.0000E+00  0.0000E+00  0.1600E+02  0.1600E+02
    -11.660  0.0000E+00  0.0000E+00  0.1600E+02  0.1600E+02
    -11.515  0.0000E+00  0.0000E+00  0.1600E+02  0.1600E+02
    -11.370  0.0000E+00  0.0000E+00  0.1600E+02  0.1600E+02
    -11.225  0.0000E+00  0.0000E+00  0.1600E+02  0.1600E+02
    -11.080  0.0000E+00  0.0000E+00  0.1600E+02  0.1600E+02
    -10.936  0.0000E+00  0.0000E+00  0.1600E+02  0.1600E+02
    -10.791  0.0000E+00  0.0000E+00  0.1600E+02  0.1600E+02
    -10.646  0.0000E+00  0.0000E+00  0.1600E+02  0.1600E+02
    -10.501  0.0000E+00  0.0000E+00  0.1600E+02  0.1600E+02
    -10.356  0.0000E+00  0.0000E+00  0.1600E+02  0.1600E+02
    -10.211  0.0000E+00  0.0000E+00  0.1600E+02  0.1600E+02
    -10.066  0.0000E+00  0.0000E+00  0.1600E+02  0.1600E+02
     -9.921  0.0000E+00  0.0000E+00  0.1600E+02  0.1600E+02
     -9.777  0.0000E+00  0.0000E+00  0.1600E+02  0.1600E+02
     -9.632  0.0000E+00  0.0000E+00  0.1600E+02  0.1600E+02
     -9.487  0.0000E+00  0.0000E+00  0.1600E+02  0.1600E+02
     -9.342  0.0000E+00  0.0000E+00  0.1600E+02  0.1600E+02
     -9.197  0.0000E+00  0.0000E+00  0.1600E+02  0.1600E+02
     -9.052  0.0000E+00  0.0000E+00  0.1600E+02  0.1600E+02
     -8.907  0.0000E+00  0.0000E+00  0.1600E+02  0.1600E+02
     -8.762  0.0000E+00  0.0000E+00  0.1600E+02  0.1600E+02
     -8.618  0.0000E+00  0.0000E+00  0.1600E+02  0.1600E+02
     -8.473  0.0000E+00  0.0000E+00  0.1600E+02  0.1600E+02
     -8.328  0.0000E+00  0.0000E+00  0.1600E+02  0.1600E+02
     -8.183  0.0000E+00  0.0000E+00  0.1600E+02  0.1600E+02
     -8.038  0.0000E+00  0.0000E+00  0.1600E+02  0.1600E+02
     -7.893  0.0000E+00  0.0000E+00  0.1600E+02  0.1600E+02
     -7.748  0.0000E+00  0.0000E+00  0.1600E+02  0.1600E+02
     -7.603  0.0000E+00  0.0000E+00  0.1600E+02  0.1600E+02
     -7.459  0.0000E+00  0.0000E+00  0.1600E+02  0.1600E+02
     -7.314  0.0000E+00  0.0000E+00  0.1600E+02  0.1600E+02
     -7.169  0.0000E+00  0.0000E+00  0.1600E+02  0.1600E+02
     -7.024  0.0000E+00  0.0000E+00  0.1600E+02  0.1600E+02
     -6.879  0.0000E+00  0.0000E+00  0.1600E+02  0.1600E+02
     -6.734  0.0000E+00  0.0000E+00  0.1600E+02  0.1600E+02
     -6.589  0.0000E+00  0.0000E+00  0.1600E+02  0.1600E+02
     -6.444  0.0000E+00  0.0000E+00  0.1600E+02  0.1600E+02
     -6.300  0.0000E+00  0.0000E+00  0.1600E+02  0.1600E+02
     -6.155  0.0000E+00  0.0000E+00  0.1600E+02  0.1600E+02
     -6.010  0.0000E+00  0.0000E+00  0.1600E+02  0.1600E+02
     -5.865  0.0000E+00  0.0000E+00  0.1600E+02  0.1600E+02
     -5.720  0.0000E+00  0.0000E+00  0.1600E+02  0.1600E+02
     -5.575  0.0000E+00  0.0000E+00  0.1600E+02  0.1600E+02
     -5.430  0.0000E+00  0.0000E+00  0.1600E+02  0.1600E+02
     -5.285  0.0000E+00  0.0000E+00  0.1600E+02  0.1600E+02
     -5.141  0.0000E+00  0.0000E+00  0.1600E+02  0.1600E+02
     -4.996  0.0000E+00  0.0000E+00  0.1600E+02  0.1600E+02
     -4.851  0.0000E+00  0.0000E+00  0.1600E+02  0.1600E+02
     -4.706  0.0000E+00  0.0000E+00  0.1600E+02  0.1600E+02
     -4.561  0.0000E+00  0.0000E+00  0.1600E+02  0.1600E+02
     -4.416  0.0000E+00  0.0000E+00  0.1600E+02  0.1600E+02
     -4.271  0.0000E+00  0.0000E+00  0.1600E+02  0.1600E+02
     -4.127  0.0000E+00  0.0000E+00  0.1600E+02  0.1600E+02
     -3.982  0.0000E+00  0.0000E+00  0.1600E+02  0.1600E+02
     -3.837  0.0000E+00  0.0000E+00  0.1600E+02  0.1600E+02
     -3.692  0.0000E+00  0.0000E+00  0.1600E+02  0.1600E+02
     -3.547  0.0000E+00  0.0000E+00  0.1600E+02  0.1600E+02
     -3.402  0.0000E+00  0.0000E+00  0.1600E+02  0.1600E+02
     -3.257  0.0000E+00  0.0000E+00  0.1600E+02  0.1600E+02
     -3.112  0.0000E+00  0.0000E+00  0.1600E+02  0.1600E+02
     -2.968  0.2101E-05  0.1561E-05  0.1600E+02  0.1600E+02
     -2.823  0.6202E-04  0.4608E-04  0.1600E+02  0.1600E+02
     -2.678  0.1149E-02  0.8550E-03  0.1600E+02  0.1600E+02
     -2.533  0.1822E-01  0.1399E-01  0.1600E+02  0.1600E+02
     -2.388  0.1304E+00  0.1130E+00  0.1602E+02  0.1602E+02
     -2.243  0.3032E+00  0.2872E+00  0.1607E+02  0.1606E+02
     -2.098  0.4300E+00  0.4186E+00  0.1613E+02  0.1612E+02
     -1.953  0.5352E+00  0.5266E+00  0.1621E+02  0.1620E+02
     -1.809  0.6317E+00  0.6194E+00  0.1630E+02  0.1629E+02
     -1.664  0.7046E+00  0.6974E+00  0.1640E+02  0.1639E+02
     -1.519  0.8096E+00  0.7980E+00  0.1652E+02  0.1650E+02
     -1.374  0.8620E+00  0.8595E+00  0.1664E+02  0.1663E+02
     -1.229  0.9946E+00  0.9800E+00  0.1679E+02  0.1677E+02
     -1.084  0.1027E+01  0.1023E+01  0.1694E+02  0.1692E+02
     -0.939  0.1165E+01  0.1153E+01  0.1710E+02  0.1709E+02
     -0.794  0.1246E+01  0.1239E+01  0.1729E+02  0.1727E+02
     -0.650  0.1328E+01  0.1314E+01  0.1748E+02  0.1746E+02
     -0.505  0.1521E+01  0.1511E+01  0.1770E+02  0.1768E+02
     -0.360  0.1595E+01  0.1580E+01  0.1793E+02  0.1791E+02
     -0.215  0.1905E+01  0.1896E+01  0.1821E+02  0.1818E+02
     -0.070  0.1866E+01  0.1865E+01  0.1848E+02  0.1845E+02
      0.075  0.1872E+01  0.1882E+01  0.1875E+02  0.1872E+02
      0.220  0.1844E+01  0.1827E+01  0.1902E+02  0.1899E+02
      0.365  0.1819E+01  0.1813E+01  0.1928E+02  0.1925E+02
      0.509  0.1909E+01  0.1877E+01  0.1956E+02  0.1953E+02
      0.654  0.2494E+01  0.2349E+01  0.1992E+02  0.1987E+02
      0.799  0.3252E+01  0.3236E+01  0.2039E+02  0.2034E+02
      0.944  0.3151E+01  0.3230E+01  0.2085E+02  0.2080E+02
      1.089  0.3446E+01  0.3445E+01  0.2135E+02  0.2130E+02
      1.234  0.5064E+01  0.4978E+01  0.2208E+02  0.2203E+02
      1.379  0.6440E+01  0.6430E+01  0.2302E+02  0.2296E+02
      1.524  0.5448E+01  0.5512E+01  0.2381E+02  0.2376E+02
      1.668  0.4501E+01  0.4545E+01  0.2446E+02  0.2442E+02
      1.813  0.3965E+01  0.4000E+01  0.2504E+02  0.2500E+02
      1.958  0.3562E+01  0.3583E+01  0.2556E+02  0.2552E+02
      2.103  0.3175E+01  0.3205E+01  0.2602E+02  0.2599E+02
      2.248  0.2933E+01  0.2965E+01  0.2644E+02  0.2642E+02
      2.393  0.2639E+01  0.2673E+01  0.2683E+02  0.2681E+02
      2.538  0.2325E+01  0.2410E+01  0.2716E+02  0.2716E+02
      2.683  0.2171E+01  0.2097E+01  0.2748E+02  0.2746E+02
      2.827  0.2101E+01  0.2075E+01  0.2778E+02  0.2776E+02
      2.972  0.1298E+01  0.1350E+01  0.2797E+02  0.2796E+02
      3.117  0.1767E+00  0.2645E+00  0.2800E+02  0.2800E+02
      3.262  0.4094E-02  0.1963E-01  0.2800E+02  0.2800E+02
      3.407  0.0000E+00  0.6161E-03  0.2800E+02  0.2800E+02
      3.552  0.0000E+00  0.0000E+00  0.2800E+02  0.2800E+02
      3.697  0.0000E+00  0.0000E+00  0.2800E+02  0.2800E+02
      3.842  0.0000E+00  0.0000E+00  0.2800E+02  0.2800E+02
      3.986  0.0000E+00  0.0000E+00  0.2800E+02  0.2800E+02
      4.131  0.0000E+00  0.0000E+00  0.2800E+02  0.2800E+02
      4.276  0.0000E+00  0.0000E+00  0.2800E+02  0.2800E+02
      4.421  0.0000E+00  0.0000E+00  0.2800E+02  0.2800E+02
      4.566  0.0000E+00  0.0000E+00  0.2800E+02  0.2800E+02
      4.711  0.0000E+00  0.0000E+00  0.2800E+02  0.2800E+02
      4.856  0.0000E+00  0.0000E+00  0.2800E+02  0.2800E+02
      5.000  0.0000E+00  0.0000E+00  0.2800E+02  0.2800E+02
      5.00048548    -38.46141788  301      0.68874190      1.00000000
    -38.461  0.0000E+00  0.0000E+00  0.0000E+00  0.0000E+00  0.0000E+00  0.0000E+00  0.0000E+00  0.0000E+00  0.0000E+00  0.0000E+00  0.0000E+00  0.0000E+00  0.0000E+00  0.0000E+00  0.0000E+00  0.0000E+00  0.0000E+00  0.0000E+00
    -38.317  0.0000E+00  0.0000E+00  0.0000E+00  0.0000E+00  0.0000E+00  0.0000E+00  0.0000E+00  0.0000E+00  0.0000E+00  0.0000E+00  0.0000E+00  0.0000E+00  0.0000E+00  0.0000E+00  0.0000E+00  0.0000E+00  0.0000E+00  0.0000E+00
    -38.172  0.0000E+00  0.0000E+00  0.0000E+00  0.0000E+00  0.0000E+00  0.0000E+00  0.0000E+00  0.0000E+00  0.0000E+00  0.0000E+00  0.0000E+00  0.0000E+00  0.0000E+00  0.0000E+00  0.0000E+00  0.0000E+00  0.0000E+00  0.0000E+00
    -38.027  0.0000E+00  0.0000E+00  0.0000E+00  0.0000E+00  0.0000E+00  0.0000E+00  0.0000E+00  0.0000E+00  0.0000E+00  0.0000E+00  0.0000E+00  0.0000E+00  0.0000E+00  0.0000E+00  0.0000E+00  0.0000E+00  0.0000E+00  0.0000E+00
    -37.882  0.0000E+00  0.0000E+00  0.0000E+00  0.0000E+00  0.0000E+00  0.0000E+00  0.0000E+00  0.0000E+00  0.0000E+00  0.0000E+00  0.0000E+00  0.0000E+00  0.0000E+00  0.0000E+00  0.0000E+00  0.0000E+00  0.0000E+00  0.0000E+00
    -37.737  0.0000E+00  0.0000E+00  0.0000E+00  0.0000E+00  0.0000E+00  0.0000E+00  0.0000E+00  0.0000E+00  0.0000E+00  0.0000E+00  0.0000E+00  0.0000E+00  0.0000E+00  0.0000E+00  0.0000E+00  0.0000E+00  0.0000E+00  0.0000E+00
    -37.592  0.0000E+00  0.0000E+00  0.0000E+00  0.0000E+00  0.0000E+00  0.0000E+00  0.0000E+00  0.0000E+00  0.0000E+00  0.0000E+00  0.0000E+00  0.0000E+00  0.0000E+00  0.0000E+00  0.0000E+00  0.0000E+00  0.0000E+00  0.0000E+00
    -37.447  0.0000E+00  0.0000E+00  0.0000E+00  0.0000E+00  0.0000E+00  0.0000E+00  0.0000E+00  0.0000E+00  0.0000E+00  0.0000E+00  0.0000E+00  0.0000E+00  0.0000E+00  0.0000E+00  0.0000E+00  0.0000E+00  0.0000E+00  0.0000E+00
    -37.302  0.0000E+00  0.0000E+00  0.0000E+00  0.0000E+00  0.0000E+00  0.0000E+00  0.0000E+00  0.0000E+00  0.0000E+00  0.0000E+00  0.0000E+00  0.0000E+00  0.0000E+00  0.0000E+00  0.0000E+00  0.0000E+00  0.0000E+00  0.0000E+00
    -37.158  0.0000E+00  0.0000E+00  0.0000E+00  0.0000E+00  0.0000E+00  0.0000E+00  0.0000E+00  0.0000E+00  0.0000E+00  0.0000E+00  0.0000E+00  0.0000E+00  0.0000E+00  0.0000E+00  0.0000E+00  0.0000E+00  0.0000E+00  0.0000E+00
    -37.013  0.1683E-03  0.1633E-03  0.6319E-12  0.6155E-12  0.6319E-12  0.6155E-12  0.6319E-12  0.6155E-12  0.2045E-12  0.1965E-12  0.2045E-12  0.1965E-12  0.1012E-12  0.9694E-13  0.2045E-12  0.1965E-12  0.1012E-12  0.9694E-13
    -36.868  0.2881E-02  0.2796E-02  0.1082E-10  0.1054E-10  0.1082E-10  0.1054E-10  0.1082E-10  0.1054E-10  0.3501E-11  0.3364E-11  0.3501E-11  0.3364E-11  0.1733E-11  0.1660E-11  0.3501E-11  0.3364E-11  0.1733E-11  0.1660E-11
    -36.723  0.5180E-01  0.5028E-01  0.1945E-09  0.1895E-09  0.1945E-09  0.1895E-09  0.1945E-09  0.1895E-09  0.6295E-10  0.6050E-10  0.6295E-10  0.6050E-10  0.3116E-10  0.2985E-10  0.6295E-10  0.6050E-10  0.3116E-10  0.2985E-10
    -36.578  0.8181E+00  0.7972E+00  0.3068E-08  0.3000E-08  0.3068E-08  0.3000E-08  0.3068E-08  0.3000E-08  0.9944E-09  0.9593E-09  0.9944E-09  0.9593E-09  0.4930E-09  0.4740E-09  0.9944E-09  0.9593E-09  0.4930E-09  0.4740E-09
    -36.433  0.4056E+01  0.4038E+01  0.1509E-07  0.1508E-07  0.1509E-07  0.1508E-07  0.1509E-07  0.1508E-07  0.4931E-08  0.4860E-08  0.4931E-08  0.4860E-08  0.2464E-08  0.2420E-08  0.4931E-08  0.4860E-08  0.2464E-08  0.2420E-08
    -36.288  0.1699E+01  0.1736E+01  0.6261E-08  0.6418E-08  0.6261E-08  0.6418E-08  0.6261E-08  0.6418E-08  0.2066E-08  0.2088E-08  0.2066E-08  0.2088E-08  0.1042E-08  0.1050E-08  0.2066E-08  0.2088E-08  0.1042E-08  0.1050E-08
    -36.143  0.1285E+00  0.1323E+00  0.4720E-09  0.4879E-09  0.4720E-09  0.4879E-09  0.4720E-09  0.4879E-09  0.1562E-09  0.1592E-09  0.1562E-09  0.1592E-09  0.7903E-10  0.8030E-10  0.1562E-09  0.1592E-09  0.7903E-10  0.8030E-10
    -35.999  0.0000E+00  0.0000E+00  0.0000E+00  0.0000E+00  0.0000E+00  0.0000E+00  0.0000E+00  0.0000E+00  0.0000E+00  0.0000E+00  0.0000E+00  0.0000E+00  0.0000E+00  0.0000E+00  0.0000E+00  0.0000E+00  0.0000E+00  0.0000E+00
    -35.854  0.0000E+00  0.0000E+00  0.0000E+00  0.0000E+00  0.0000E+00  0.0000E+00  0.0000E+00  0.0000E+00  0.0000E+00  0.0000E+00  0.0000E+00  0.0000E+00  0.0000E+00  0.0000E+00  0.0000E+00  0.0000E+00  0.0000E+00  0.0000E+00
    -35.709  0.0000E+00  0.0000E+00  0.0000E+00  0.0000E+00  0.0000E+00  0.0000E+00  0.0000E+00  0.0000E+00  0.0000E+00  0.0000E+00  0.0000E+00  0.0000E+00  0.0000E+00  0.0000E+00  0.0000E+00  0.0000E+00  0.0000E+00  0.0000E+00
    -35.564  0.0000E+00  0.0000E+00  0.0000E+00  0.0000E+00  0.0000E+00  0.0000E+00  0.0000E+00  0.0000E+00  0.0000E+00  0.0000E+00  0.0000E+00  0.0000E+00  0.0000E+00  0.0000E+00  0.0000E+00  0.0000E+00  0.0000E+00  0.0000E+00
    -35.419  0.0000E+00  0.0000E+00  0.0000E+00  0.0000E+00  0.0000E+00  0.0000E+00  0.0000E+00  0.0000E+00  0.0000E+00  0.0000E+00  0.0000E+00  0.0000E+00  0.0000E+00  0.0000E+00  0.0000E+00  0.0000E+00  0.0000E+00  0.0000E+00
    -35.274  0.0000E+00  0.0000E+00  0.0000E+00  0.0000E+00  0.0000E+00  0.0000E+00  0.0000E+00  0.0000E+00  0.0000E+00  0.0000E+00  0.0000E+00  0.0000E+00  0.0000E+00  0.0000E+00  0.0000E+00  0.0000E+00  0.0000E+00  0.0000E+00
    -35.129  0.0000E+00  0.0000E+00  0.0000E+00  0.0000E+00  0.0000E+00  0.0000E+00  0.0000E+00  0.0000E+00  0.0000E+00  0.0000E+00  0.0000E+00  0.0000E+00  0.0000E+00  0.0000E+00  0.0000E+00  0.0000E+00  0.0000E+00  0.0000E+00
    -34.984  0.0000E+00  0.0000E+00  0.0000E+00  0.0000E+00  0.0000E+00  0.0000E+00  0.0000E+00  0.0000E+00  0.0000E+00  0.0000E+00  0.0000E+00  0.0000E+00  0.0000E+00  0.0000E+00  0.0000E+00  0.0000E+00  0.0000E+00  0.0000E+00
    -34.840  0.0000E+00  0.0000E+00  0.0000E+00  0.0000E+00  0.0000E+00  0.0000E+00  0.0000E+00  0.0000E+00  0.0000E+00  0.0000E+00  0.0000E+00  0.0000E+00  0.0000E+00  0.0000E+00  0.0000E+00  0.0000E+00  0.0000E+00  0.0000E+00
    -34.695  0.0000E+00  0.0000E+00  0.0000E+00  0.0000E+00  0.0000E+00  0.0000E+00  0.0000E+00  0.0000E+00  0.0000E+00  0.0000E+00  0.0000E+00  0.0000E+00  0.0000E+00  0.0000E+00  0.0000E+00  0.0000E+00  0.0000E+00  0.0000E+00
    -34.550  0.0000E+00  0.0000E+00  0.0000E+00  0.0000E+00  0.0000E+00  0.0000E+00  0.0000E+00  0.0000E+00  0.0000E+00  0.0000E+00  0.0000E+00  0.0000E+00  0.0000E+00  0.0000E+00  0.0000E+00  0.0000E+00  0.0000E+00  0.0000E+00
    -34.405  0.0000E+00  0.0000E+00  0.0000E+00  0.0000E+00  0.0000E+00  0.0000E+00  0.0000E+00  0.0000E+00  0.0000E+00  0.0000E+00  0.0000E+00  0.0000E+00  0.0000E+00  0.0000E+00  0.0000E+00  0.0000E+00  0.0000E+00  0.0000E+00
    -34.260  0.0000E+00  0.0000E+00  0.0000E+00  0.0000E+00  0.0000E+00  0.0000E+00  0.0000E+00  0.0000E+00  0.0000E+00  0.0000E+00  0.0000E+00  0.0000E+00  0.0000E+00  0.0000E+00  0.0000E+00  0.0000E+00  0.0000E+00  0.0000E+00
    -34.115  0.0000E+00  0.0000E+00  0.0000E+00  0.0000E+00  0.0000E+00  0.0000E+00  0.0000E+00  0.0000E+00  0.0000E+00  0.0000E+00  0.0000E+00  0.0000E+00  0.0000E+00  0.0000E+00  0.0000E+00  0.0000E+00  0.0000E+00  0.0000E+00
    -33.970  0.0000E+00  0.0000E+00  0.0000E+00  0.0000E+00  0.0000E+00  0.0000E+00  0.0000E+00  0.0000E+00  0.0000E+00  0.0000E+00  0.0000E+00  0.0000E+00  0.0000E+00  0.0000E+00  0.0000E+00  0.0000E+00  0.0000E+00  0.0000E+00
    -33.825  0.0000E+00  0.0000E+00  0.0000E+00  0.0000E+00  0.0000E+00  0.0000E+00  0.0000E+00  0.0000E+00  0.0000E+00  0.0000E+00  0.0000E+00  0.0000E+00  0.0000E+00  0.0000E+00  0.0000E+00  0.0000E+00  0.0000E+00  0.0000E+00
    -33.681  0.0000E+00  0.0000E+00  0.0000E+00  0.0000E+00  0.0000E+00  0.0000E+00  0.0000E+00  0.0000E+00  0.0000E+00  0.0000E+00  0.0000E+00  0.0000E+00  0.0000E+00  0.0000E+00  0.0000E+00  0.0000E+00  0.0000E+00  0.0000E+00
    -33.536  0.0000E+00  0.0000E+00  0.0000E+00  0.0000E+00  0.0000E+00  0.0000E+00  0.0000E+00  0.0000E+00  0.0000E+00  0.0000E+00  0.0000E+00  0.0000E+00  0.0000E+00  0.0000E+00  0.0000E+00  0.0000E+00  0.0000E+00  0.0000E+00
    -33.391  0.0000E+00  0.0000E+00  0.0000E+00  0.0000E+00  0.0000E+00  0.0000E+00  0.0000E+00  0.0000E+00  0.0000E+00  0.0000E+00  0.0000E+00  0.0000E+00  0.0000E+00  0.0000E+00  0.0000E+00  0.0000E+00  0.0000E+00  0.0000E+00
    -33.246  0.0000E+00  0.0000E+00  0.0000E+00  0.0000E+00  0.0000E+00  0.0000E+00  0.0000E+00  0.0000E+00  0.0000E+00  0.0000E+00  0.0000E+00  0.0000E+00  0.0000E+00  0.0000E+00  0.0000E+00  0.0000E+00  0.0000E+00  0.0000E+00
    -33.101  0.0000E+00  0.0000E+00  0.0000E+00  0.0000E+00  0.0000E+00  0.0000E+00  0.0000E+00  0.0000E+00  0.0000E+00  0.0000E+00  0.0000E+00  0.0000E+00  0.0000E+00  0.0000E+00  0.0000E+00  0.0000E+00  0.0000E+00  0.0000E+00
    -32.956  0.0000E+00  0.0000E+00  0.0000E+00  0.0000E+00  0.0000E+00  0.0000E+00  0.0000E+00  0.0000E+00  0.0000E+00  0.0000E+00  0.0000E+00  0.0000E+00  0.0000E+00  0.0000E+00  0.0000E+00  0.0000E+00  0.0000E+00  0.0000E+00
    -32.811  0.0000E+00  0.0000E+00  0.0000E+00  0.0000E+00  0.0000E+00  0.0000E+00  0.0000E+00  0.0000E+00  0.0000E+00  0.0000E+00  0.0000E+00  0.0000E+00  0.0000E+00  0.0000E+00  0.0000E+00  0.0000E+00  0.0000E+00  0.0000E+00
    -32.666  0.0000E+00  0.0000E+00  0.0000E+00  0.0000E+00  0.0000E+00  0.0000E+00  0.0000E+00  0.0000E+00  0.0000E+00  0.0000E+00  0.0000E+00  0.0000E+00  0.0000E+00  0.0000E+00  0.0000E+00  0.0000E+00  0.0000E+00  0.0000E+00
    -32.522  0.0000E+00  0.0000E+00  0.0000E+00  0.0000E+00  0.0000E+00  0.0000E+00  0.0000E+00  0.0000E+00  0.0000E+00  0.0000E+00  0.0000E+00  0.0000E+00  0.0000E+00  0.0000E+00  0.0000E+00  0.0000E+00  0.0000E+00  0.0000E+00
    -32.377  0.0000E+00  0.0000E+00  0.0000E+00  0.0000E+00  0.0000E+00  0.0000E+00  0.0000E+00  0.0000E+00  0.0000E+00  0.0000E+00  0.0000E+00  0.0000E+00  0.0000E+00  0.0000E+00  0.0000E+00  0.0000E+00  0.0000E+00  0.0000E+00
    -32.232  0.0000E+00  0.0000E+00  0.0000E+00  0.0000E+00  0.0000E+00  0.0000E+00  0.0000E+00  0.0000E+00  0.0000E+00  0.0000E+00  0.0000E+00  0.0000E+00  0.0000E+00  0.0000E+00  0.0000E+00  0.0000E+00  0.0000E+00  0.0000E+00
    -32.087  0.0000E+00  0.0000E+00  0.0000E+00  0.0000E+00  0.0000E+00  0.0000E+00  0.0000E+00  0.0000E+00  0.0000E+00  0.0000E+00  0.0000E+00  0.0000E+00  0.0000E+00  0.0000E+00  0.0000E+00  0.0000E+00  0.0000E+00  0.0000E+00
    -31.942  0.0000E+00  0.0000E+00  0.0000E+00  0.0000E+00  0.0000E+00  0.0000E+00  0.0000E+00  0.0000E+00  0.0000E+00  0.0000E+00  0.0000E+00  0.0000E+00  0.0000E+00  0.0000E+00  0.0000E+00  0.0000E+00  0.0000E+00  0.0000E+00
    -31.797  0.0000E+00  0.0000E+00  0.0000E+00  0.0000E+00  0.0000E+00  0.0000E+00  0.0000E+00  0.0000E+00  0.0000E+00  0.0000E+00  0.0000E+00  0.0000E+00  0.0000E+00  0.0000E+00  0.0000E+00  0.0000E+00  0.0000E+00  0.0000E+00
    -31.652  0.0000E+00  0.0000E+00  0.0000E+00  0.0000E+00  0.0000E+00  0.0000E+00  0.0000E+00  0.0000E+00  0.0000E+00  0.0000E+00  0.0000E+00  0.0000E+00  0.0000E+00  0.0000E+00  0.0000E+00  0.0000E+00  0.0000E+00  0.0000E+00
    -31.508  0.0000E+00  0.0000E+00  0.0000E+00  0.0000E+00  0.0000E+00  0.0000E+00  0.0000E+00  0.0000E+00  0.0000E+00  0.0000E+00  0.0000E+00  0.0000E+00  0.0000E+00  0.0000E+00  0.0000E+00  0.0000E+00  0.0000E+00  0.0000E+00
    -31.363  0.0000E+00  0.0000E+00  0.0000E+00  0.0000E+00  0.0000E+00  0.0000E+00  0.0000E+00  0.0000E+00  0.0000E+00  0.0000E+00  0.0000E+00  0.0000E+00  0.0000E+00  0.0000E+00  0.0000E+00  0.0000E+00  0.0000E+00  0.0000E+00
    -31.218  0.0000E+00  0.0000E+00  0.0000E+00  0.0000E+00  0.0000E+00  0.0000E+00  0.0000E+00  0.0000E+00  0.0000E+00  0.0000E+00  0.0000E+00  0.0000E+00  0.0000E+00  0.0000E+00  0.0000E+00  0.0000E+00  0.0000E+00  0.0000E+00