   4   4   1   0
  0.4852904E+02  0.5790116E-09  0.5790116E-09  0.5790116E-09  0.5000000E-15
  1.000000000000000E-004
  CAR 
 unknown system                          
      6.85808107    -36.31297357  301      2.05485128      1.00000000
    -36.313  0.0000E+00  0.0000E+00  0.0000E+00  0.0000E+00
    -36.169  0.0000E+00  0.0000E+00  0.0000E+00  0.0000E+00
    -36.025  0.0000E+00  0.0000E+00  0.0000E+00  0.0000E+00
    -35.881  0.0000E+00  0.0000E+00  0.0000E+00  0.0000E+00
    -35.737  0.0000E+00  0.0000E+00  0.0000E+00  0.0000E+00
    -35.593  0.0000E+00  0.0000E+00  0.0000E+00  0.0000E+00
    -35.450  0.0000E+00  0.0000E+00  0.0000E+00  0.0000E+00
    -35.306  0.0000E+00  0.0000E+00  0.0000E+00  0.0000E+00
    -35.162  0.0000E+00  0.0000E+00  0.0000E+00  0.0000E+00
    -35.018  0.0000E+00  0.0000E+00  0.0000E+00  0.0000E+00
    -34.874  0.1333E-03  0.1335E-03  0.1919E-04  0.1922E-04
    -34.730  0.8483E-02  0.8496E-02  0.1240E-02  0.1242E-02
    -34.586  0.1438E+00  0.1440E+00  0.2193E-01  0.2196E-01
    -34.442  0.2324E+01  0.2327E+01  0.3564E+00  0.3569E+00
    -34.298  0.1510E+02  0.1510E+02  0.2529E+01  0.2530E+01
    -34.154  0.9338E+01  0.9329E+01  0.3872E+01  0.3873E+01
    -34.011  0.8348E+00  0.8335E+00  0.3993E+01  0.3993E+01
    -33.867  0.0000E+00  0.0000E+00  0.4000E+01  0.4000E+01
    -33.723  0.0000E+00  0.0000E+00  0.4000E+01  0.4000E+01
    -33.579  0.0000E+00  0.0000E+00  0.4000E+01  0.4000E+01
    -33.435  0.0000E+00  0.0000E+00  0.4000E+01  0.4000E+01
    -33.291  0.0000E+00  0.0000E+00  0.4000E+01  0.4000E+01
    -33.147  0.0000E+00  0.0000E+00  0.4000E+01  0.4000E+01
    -33.003  0.0000E+00  0.0000E+00  0.4000E+01  0.4000E+01
    -32.859  0.0000E+00  0.0000E+00  0.4000E+01  0.4000E+01
    -32.715  0.0000E+00  0.0000E+00  0.4000E+01  0.4000E+01
    -32.571  0.0000E+00  0.0000E+00  0.4000E+01  0.4000E+01
    -32.428  0.0000E+00  0.0000E+00  0.4000E+01  0.4000E+01
    -32.284  0.0000E+00  0.0000E+00  0.4000E+01  0.4000E+01
    -32.140  0.0000E+00  0.0000E+00  0.4000E+01  0.4000E+01
    -31.996  0.0000E+00  0.0000E+00  0.4000E+01  0.4000E+01
    -31.852  0.0000E+00  0.0000E+00  0.4000E+01  0.4000E+01
    -31.708  0.0000E+00  0.0000E+00  0.4000E+01  0.4000E+01
    -31.564  0.0000E+00  0.0000E+00  0.4000E+01  0.4000E+01
    -31.420  0.0000E+00  0.0000E+00  0.4000E+01  0.4000E+01
    -31.276  0.0000E+00  0.0000E+00  0.4000E+01  0.4000E+01
    -31.132  0.0000E+00  0.0000E+00  0.4000E+01  0.4000E+01
    -30.989  0.0000E+00  0.0000E+00  0.4000E+01  0.4000E+01
    -30.845  0.0000E+00  0.0000E+00  0.4000E+01  0.4000E+01
    -30.701  0.0000E+00  0.0000E+00  0.4000E+01  0.4000E+01
    -30.557  0.0000E+00  0.0000E+00  0.4000E+01  0.4000E+01
    -30.413  0.0000E+00  0.0000E+00  0.4000E+01  0.4000E+01
    -30.269  0.0000E+00  0.0000E+00  0.4000E+01  0.4000E+01
    -30.125  0.0000E+00  0.0000E+00  0.4000E+01  0.4000E+01
    -29.981  0.0000E+00  0.0000E+00  0.4000E+01  0.4000E+01
    -29.837  0.0000E+00  0.0000E+00  0.4000E+01  0.4000E+01
    -29.693  0.0000E+00  0.0000E+00  0.4000E+01  0.4000E+01
    -29.550  0.0000E+00  0.0000E+00  0.4000E+01  0.4000E+01
    -29.406  0.0000E+00  0.0000E+00  0.4000E+01  0.4000E+01
    -29.262  0.0000E+00  0.0000E+00  0.4000E+01  0.4000E+01
    -29.118  0.0000E+00  0.0000E+00  0.4000E+01  0.4000E+01
    -28.974  0.0000E+00  0.0000E+00  0.4000E+01  0.4000E+01
    -28.830  0.0000E+00  0.0000E+00  0.4000E+01  0.4000E+01
    -28.686  0.0000E+00  0.0000E+00  0.4000E+01  0.4000E+01
    -28.542  0.0000E+00  0.0000E+00  0.4000E+01  0.4000E+01
    -28.398  0.0000E+00  0.0000E+00  0.4000E+01  0.4000E+01
    -28.254  0.0000E+00  0.0000E+00  0.4000E+01  0.4000E+01
    -28.110  0.0000E+00  0.0000E+00  0.4000E+01  0.4000E+01
    -27.967  0.0000E+00  0.0000E+00  0.4000E+01  0.4000E+01
    -27.823  0.0000E+00  0.0000E+00  0.4000E+01  0.4000E+01
    -27.679  0.0000E+00  0.0000E+00  0.4000E+01  0.4000E+01
    -27.535  0.0000E+00  0.0000E+00  0.4000E+01  0.4000E+01
    -27.391  0.0000E+00  0.0000E+00  0.4000E+01  0.4000E+01
    -27.247  0.0000E+00  0.0000E+00  0.4000E+01  0.4000E+01
    -27.103  0.0000E+00  0.0000E+00  0.4000E+01  0.4000E+01
    -26.959  0.0000E+00  0.0000E+00  0.4000E+01  0.4000E+01
    -26.815  0.0000E+00  0.0000E+00  0.4000E+01  0.4000E+01
    -26.671  0.0000E+00  0.0000E+00  0.4000E+01  0.4000E+01
    -26.528  0.0000E+00  0.0000E+00  0.4000E+01  0.4000E+01
    -26.384  0.0000E+00  0.0000E+00  0.4000E+01  0.4000E+01
    -26.240  0.0000E+00  0.0000E+00  0.4000E+01  0.4000E+01
    -26.096  0.0000E+00  0.0000E+00  0.4000E+01  0.4000E+01
    -25.952  0.0000E+00  0.0000E+00  0.4000E+01  0.4000E+01
    -25.808  0.0000E+00  0.0000E+00  0.4000E+01  0.4000E+01
    -25.664  0.0000E+00  0.0000E+00  0.4000E+01  0.4000E+01
    -25.520  0.0000E+00  0.0000E+00  0.4000E+01  0.4000E+01
    -25.376  0.0000E+00  0.0000E+00  0.4000E+01  0.4000E+01
    -25.232  0.0000E+00  0.0000E+00  0.4000E+01  0.4000E+01
    -25.088  0.0000E+00  0.0000E+00  0.4000E+01  0.4000E+01
    -24.945  0.0000E+00  0.0000E+00  0.4000E+01  0.4000E+01
    -24.801  0.0000E+00  0.0000E+00  0.4000E+01  0.4000E+01
    -24.657  0.0000E+00  0.0000E+00  0.4000E+01  0.4000E+01
    -24.513  0.0000E+00  0.0000E+00  0.4000E+01  0.4000E+01
    -24.369  0.0000E+00  0.0000E+00  0.4000E+01  0.4000E+01
    -24.225  0.0000E+00  0.0000E+00  0.4000E+01  0.4000E+01
    -24.081  0.0000E+00  0.0000E+00  0.4000E+01  0.4000E+01
    -23.937  0.0000E+00  0.0000E+00  0.4000E+01  0.4000E+01
    -23.793  0.0000E+00  0.0000E+00  0.4000E+01  0.4000E+01
    -23.649  0.0000E+00  0.0000E+00  0.4000E+01  0.4000E+01
    -23.506  0.0000E+00  0.0000E+00  0.4000E+01  0.4000E+01
    -23.362  0.0000E+00  0.0000E+00  0.4000E+01  0.4000E+01
    -23.218  0.0000E+00  0.0000E+00  0.4000E+01  0.4000E+01
    -23.074  0.0000E+00  0.0000E+00  0.4000E+01  0.4000E+01
    -22.930  0.0000E+00  0.0000E+00  0.4000E+01  0.4000E+01
    -22.786  0.0000E+00  0.0000E+00  0.4000E+01  0.4000E+01
    -22.642  0.0000E+00  0.0000E+00  0.4000E+01  0.4000E+01
    -22.498  0.0000E+00  0.0000E+00  0.4000E+01  0.4000E+01
    -22.354  0.0000E+00  0.0000E+00  0.4000E+01  0.4000E+01
    -22.210  0.0000E+00  0.0000E+00  0.4000E+01  0.4000E+01
    -22.067  0.0000E+00  0.0000E+00  0.4000E+01  0.4000E+01
    -21.923  0.0000E+00  0.0000E+00  0.4000E+01  0.4000E+01
    -21.779  0.0000E+00  0.0000E+00  0.4000E+01  0.4000E+01
    -21.635  0.0000E+00  0.0000E+00  0.4000E+01  0.4000E+01
    -21.491  0.0000E+00  0.0000E+00  0.4000E+01  0.4000E+01
    -21.347  0.0000E+00  0.0000E+00  0.4000E+01  0.4000E+01
    -21.203  0.0000E+00  0.0000E+00  0.4000E+01  0.4000E+01
    -21.059  0.0000E+00  0.0000E+00  0.4000E+01  0.4000E+01
    -20.915  0.0000E+00  0.0000E+00  0.4000E+01  0.4000E+01
    -20.771  0.0000E+00  0.0000E+00  0.4000E+01  0.4000E+01
    -20.627  0.0000E+00  0.0000E+00  0.4000E+01  0.4000E+01
    -20.484  0.0000E+00  0.0000E+00  0.4000E+01  0.4000E+01
    -20.340  0.0000E+00  0.0000E+00  0.4000E+01  0.4000E+01
    -20.196  0.0000E+00  0.0000E+00  0.4000E+01  0.4000E+01
    -20.052  0.0000E+00  0.0000E+00  0.4000E+01  0.4000E+01
    -19.908  0.0000E+00  0.0000E+00  0.4000E+01  0.4000E+01
    -19.764  0.0000E+00  0.0000E+00  0.4000E+01  0.4000E+01
    -19.620  0.0000E+00  0.0000E+00  0.4000E+01  0.4000E+01
    -19.476  0.0000E+00  0.0000E+00  0.4000E+01  0.4000E+01
    -19.332  0.0000E+00  0.0000E+00  0.4000E+01  0.4000E+01
    -19.188  0.0000E+00  0.0000E+00  0.4000E+01  0.4000E+01
    -19.045  0.0000E+00  0.0000E+00  0.4000E+01  0.4000E+01
    -18.901  0.0000E+00  0.0000E+00  0.4000E+01  0.4000E+01
    -18.757  0.0000E+00  0.0000E+00  0.4000E+01  0.4000E+01
    -18.613  0.0000E+00  0.0000E+00  0.4000E+01  0.4000E+01
    -18.469  0.0000E+00  0.0000E+00  0.4000E+01  0.4000E+01
    -18.325  0.0000E+00  0.0000E+00  0.4000E+01  0.4000E+01
    -18.181  0.0000E+00  0.0000E+00  0.4000E+01  0.4000E+01
    -18.037  0.0000E+00  0.0000E+00  0.4000E+01  0.4000E+01
    -17.893  0.0000E+00  0.0000E+00  0.4000E+01  0.4000E+01
    -17.749  0.0000E+00  0.0000E+00  0.4000E+01  0.4000E+01
    -17.606  0.0000E+00  0.0000E+00  0.4000E+01  0.4000E+01
    -17.462  0.0000E+00  0.0000E+00  0.4000E+01  0.4000E+01
    -17.318  0.0000E+00  0.0000E+00  0.4000E+01  0.4000E+01
    -17.174  0.0000E+00  0.0000E+00  0.4000E+01  0.4000E+01
    -17.030  0.3674E-04  0.3972E-04  0.4000E+01  0.4000E+01
    -16.886  0.4484E-02  0.4495E-02  0.4001E+01  0.4001E+01
    -16.742  0.8125E-01  0.8150E-01  0.4012E+01  0.4012E+01
    -16.598  0.1356E+01  0.1360E+01  0.4207E+01  0.4208E+01
    -16.454  0.1288E+02  0.1290E+02  0.6061E+01  0.6065E+01
    -16.310  0.3284E+02  0.3285E+02  0.1079E+02  0.1079E+02
    -16.166  0.3038E+02  0.3035E+02  0.1516E+02  0.1516E+02
    -16.023  0.5408E+01  0.5394E+01  0.1595E+02  0.1595E+02
    -15.879  0.2611E+00  0.2600E+00  0.1600E+02  0.1600E+02
    -15.735  0.0000E+00  0.0000E+00  0.1600E+02  0.1600E+02
    -15.591  0.0000E+00  0.0000E+00  0.1600E+02  0.1600E+02
    -15.447  0.0000E+00  0.0000E+00  0.1600E+02  0.1600E+02
    -15.303  0.0000E+00  0.0000E+00  0.1600E+02  0.1600E+02
    -15.159  0.0000E+00  0.0000E+00  0.1600E+02  0.1600E+02
    -15.015  0.0000E+00  0.0000E+00  0.1600E+02  0.1600E+02
    -14.871  0.0000E+00  0.0000E+00  0.1600E+02  0.1600E+02
    -14.727  0.0000E+00  0.0000E+00  0.1600E+02  0.1600E+02
    -14.584  0.0000E+00  0.0000E+00  0.1600E+02  0.1600E+02
    -14.440  0.0000E+00  0.0000E+00  0.1600E+02  0.1600E+02
    -14.296  0.0000E+00  0.0000E+00  0.1600E+02  0.1600E+02
    -14.152  0.0000E+00  0.0000E+00  0.1600E+02  0.1600E+02
    -14.008  0.0000E+00  0.0000E+00  0.1600E+02  0.1600E+02
    -13.864  0.0000E+00  0.0000E+00  0.1600E+02  0.1600E+02
    -13.720  0.0000E+00  0.0000E+00  0.1600E+02  0.1600E+02
    -13.576  0.0000E+00  0.0000E+00  0.1600E+02  0.1600E+02
    -13.432  0.0000E+00  0.0000E+00  0.1600E+02  0.1600E+02
    -13.288  0.0000E+00  0.0000E+00  0.1600E+02  0.1600E+02
    -13.145  0.0000E+00  0.0000E+00  0.1600E+02  0.1600E+02
    -13.001  0.0000E+00  0.0000E+00  0.1600E+02  0.1600E+02
    -12.857  0.0000E+00  0.0000E+00  0.1600E+02  0.1600E+02
    -12.713  0.0000E+00  0.0000E+00  0.1600E+02  0.1600E+02
    -12.569  0.0000E+00  0.0000E+00  0.1600E+02  0.1600E+02
    -12.425  0.0000E+00  0.0000E+00  0.1600E+02  0.1600E+02
    -12.281  0.0000E+00  0.0000E+00  0.1600E+02  0.1600E+02
    -12.137  0.0000E+00  0.0000E+00  0.1600E+02  0.1600E+02
    -11.993  0.0000E+00  0.0000E+00  0.1600E+02  0.1600E+02
    -11.849  0.0000E+00  0.0000E+00  0.1600E+02  0.1600E+02
    -11.705  0.0000E+00  0.0000E+00  0.1600E+02  0.1600E+02
    -11.562  0.0000E+00  0.0000E+00  0.1600E+02  0.1600E+02
    -11.418  0.0000E+00  0.0000E+00  0.1600E+02  0.1600E+02
    -11.274  0.0000E+00  0.0000E+00  0.1600E+02  0.1600E+02
    -11.130  0.0000E+00  0.0000E+00  0.1600E+02  0.1600E+02
    -10.986  0.0000E+00  0.0000E+00  0.1600E+02  0.1600E+02
    -10.842  0.0000E+00  0.0000E+00  0.1600E+02  0.1600E+02
    -10.698  0.0000E+00  0.0000E+00  0.1600E+02  0.1600E+02
    -10.554  0.0000E+00  0.0000E+00  0.1600E+02  0.1600E+02
    -10.410  0.0000E+00  0.0000E+00  0.1600E+02  0.1600E+02
    -10.266  0.0000E+00  0.0000E+00  0.1600E+02  0.1600E+02
    -10.123  0.0000E+00  0.0000E+00  0.1600E+02  0.1600E+02
     -9.979  0.0000E+00  0.0000E+00  0.1600E+02  0.1600E+02
     -9.835  0.0000E+00  0.0000E+00  0.1600E+02  0.1600E+02
     -9.691  0.0000E+00  0.0000E+00  0.1600E+02  0.1600E+02
     -9.547  0.0000E+00  0.0000E+00  0.1600E+02  0.1600E+02
     -9.403  0.0000E+00  0.0000E+00  0.1600E+02  0.1600E+02
     -9.259  0.0000E+00  0.0000E+00  0.1600E+02  0.1600E+02
     -9.115  0.0000E+00  0.0000E+00  0.1600E+02  0.1600E+02
     -8.971  0.0000E+00  0.0000E+00  0.1600E+02  0.1600E+02
     -8.827  0.0000E+00  0.0000E+00  0.1600E+02  0.1600E+02
     -8.683  0.0000E+00  0.0000E+00  0.1600E+02  0.1600E+02
     -8.540  0.0000E+00  0.0000E+00  0.1600E+02  0.1600E+02
     -8.396  0.0000E+00  0.0000E+00  0.1600E+02  0.1600E+02
     -8.252  0.0000E+00  0.0000E+00  0.1600E+02  0.1600E+02
     -8.108  0.0000E+00  0.0000E+00  0.1600E+02  0.1600E+02
     -7.964  0.0000E+00  0.0000E+00  0.1600E+02  0.1600E+02
     -7.820  0.0000E+00  0.0000E+00  0.1600E+02  0.1600E+02
     -7.676  0.0000E+00  0.0000E+00  0.1600E+02  0.1600E+02
     -7.532  0.0000E+00  0.0000E+00  0.1600E+02  0.1600E+02
     -7.388  0.0000E+00  0.0000E+00  0.1600E+02  0.1600E+02
     -7.244  0.0000E+00  0.0000E+00  0.1600E+02  0.1600E+02
     -7.101  0.0000E+00  0.0000E+00  0.1600E+02  0.1600E+02
     -6.957  0.0000E+00  0.0000E+00  0.1600E+02  0.1600E+02
     -6.813  0.0000E+00  0.0000E+00  0.1600E+02  0.1600E+02
     -6.669  0.0000E+00  0.0000E+00  0.1600E+02  0.1600E+02
     -6.525  0.0000E+00  0.0000E+00  0.1600E+02  0.1600E+02
     -6.381  0.0000E+00  0.0000E+00  0.1600E+02  0.1600E+02
     -6.237  0.0000E+00  0.0000E+00  0.1600E+02  0.1600E+02
     -6.093  0.0000E+00  0.0000E+00  0.1600E+02  0.1600E+02
     -5.949  0.0000E+00  0.0000E+00  0.1600E+02  0.1600E+02
     -5.805  0.0000E+00  0.0000E+00  0.1600E+02  0.1600E+02
     -5.662  0.0000E+00  0.0000E+00  0.1600E+02  0.1600E+02
     -5.518  0.0000E+00  0.0000E+00  0.1600E+02  0.1600E+02
     -5.374  0.0000E+00  0.0000E+00  0.1600E+02  0.1600E+02
     -5.230  0.0000E+00  0.0000E+00  0.1600E+02  0.1600E+02
     -5.086  0.0000E+00  0.0000E+00  0.1600E+02  0.1600E+02
     -4.942  0.0000E+00  0.0000E+00  0.1600E+02  0.1600E+02
     -4.798  0.0000E+00  0.0000E+00  0.1600E+02  0.1600E+02
     -4.654  0.0000E+00  0.0000E+00  0.1600E+02  0.1600E+02
     -4.510  0.0000E+00  0.0000E+00  0.1600E+02  0.1600E+02
     -4.366  0.0000E+00  0.0000E+00  0.1600E+02  0.1600E+02
     -4.222  0.0000E+00  0.0000E+00  0.1600E+02  0.1600E+02
     -4.079  0.0000E+00  0.0000E+00  0.1600E+02  0.1600E+02
     -3.935  0.0000E+00  0.0000E+00  0.1600E+02  0.1600E+02
     -3.791  0.0000E+00  0.0000E+00  0.1600E+02  0.1600E+02
     -3.647  0.0000E+00  0.0000E+00  0.1600E+02  0.1600E+02
     -3.503  0.0000E+00  0.0000E+00  0.1600E+02  0.1600E+02
     -3.359  0.0000E+00  0.0000E+00  0.1600E+02  0.1600E+02
     -3.215  0.0000E+00  0.0000E+00  0.1600E+02  0.1600E+02
     -3.071  0.0000E+00  0.0000E+00  0.1600E+02  0.1600E+02
     -2.927  0.0000E+00  0.0000E+00  0.1600E+02  0.1600E+02
     -2.783  0.0000E+00  0.0000E+00  0.1600E+02  0.1600E+02
     -2.640  0.0000E+00  0.0000E+00  0.1600E+02  0.1600E+02
     -2.496  0.0000E+00  0.0000E+00  0.1600E+02  0.1600E+02
     -2.352  0.0000E+00  0.0000E+00  0.1600E+02  0.1600E+02
     -2.208  0.6445E-05  0.6526E-05  0.1600E+02  0.1600E+02
     -2.064  0.1278E-03  0.1294E-03  0.1600E+02  0.1600E+02
     -1.920  0.2221E-02  0.2248E-02  0.1600E+02  0.1600E+02
     -1.776  0.2775E-01  0.2800E-01  0.1600E+02  0.1600E+02
     -1.632  0.1165E+00  0.1170E+00  0.1602E+02  0.1602E+02
     -1.488  0.2028E+00  0.2031E+00  0.1605E+02  0.1605E+02
     -1.344  0.2740E+00  0.2743E+00  0.1609E+02  0.1609E+02
     -1.201  0.3223E+00  0.3226E+00  0.1614E+02  0.1614E+02
     -1.057  0.3917E+00  0.3918E+00  0.1619E+02  0.1619E+02
     -0.913  0.4197E+00  0.4201E+00  0.1625E+02  0.1625E+02
     -0.769  0.5014E+00  0.5014E+00  0.1633E+02  0.1633E+02
     -0.625  0.5230E+00  0.5233E+00  0.1640E+02  0.1640E+02
     -0.481  0.5953E+00  0.5956E+00  0.1649E+02  0.1649E+02
     -0.337  0.6616E+00  0.6617E+00  0.1658E+02  0.1658E+02
     -0.193  0.6732E+00  0.6737E+00  0.1668E+02  0.1668E+02
     -0.049  0.8220E+00  0.8219E+00  0.1680E+02  0.1680E+02
      0.095  0.7933E+00  0.7926E+00  0.1691E+02  0.1691E+02
      0.239  0.9488E+00  0.9495E+00  0.1705E+02  0.1705E+02
      0.382  0.9891E+00  0.9893E+00  0.1719E+02  0.1719E+02
      0.526  0.1124E+01  0.1125E+01  0.1735E+02  0.1735E+02
      0.670  0.1231E+01  0.1231E+01  0.1753E+02  0.1753E+02
      0.814  0.1457E+01  0.1459E+01  0.1774E+02  0.1774E+02
      0.958  0.1617E+01  0.1617E+01  0.1797E+02  0.1797E+02
      1.102  0.1819E+01  0.1818E+01  0.1824E+02  0.1824E+02
      1.246  0.1873E+01  0.1872E+01  0.1851E+02  0.1851E+02
      1.390  0.2059E+01  0.2057E+01  0.1880E+02  0.1880E+02
      1.534  0.1919E+01  0.1919E+01  0.1908E+02  0.1908E+02
      1.678  0.1848E+01  0.1846E+01  0.1935E+02  0.1935E+02
      1.821  0.1693E+01  0.1692E+01  0.1959E+02  0.1959E+02
      1.965  0.1749E+01  0.1747E+01  0.1984E+02  0.1984E+02
      2.109  0.1835E+01  0.1840E+01  0.2011E+02  0.2011E+02
      2.253  0.3018E+01  0.3034E+01  0.2054E+02  0.2054E+02
      2.397  0.4863E+01  0.4877E+01  0.2124E+02  0.2125E+02
      2.541  0.4850E+01  0.4846E+01  0.2194E+02  0.2194E+02
      2.685  0.3828E+01  0.3822E+01  0.2249E+02  0.2250E+02
      2.829  0.3424E+01  0.3428E+01  0.2299E+02  0.2299E+02
      2.973  0.3911E+01  0.3917E+01  0.2355E+02  0.2355E+02
      3.117  0.4454E+01  0.4453E+01  0.2419E+02  0.2420E+02
      3.260  0.4580E+01  0.4575E+01  0.2485E+02  0.2486E+02
      3.404  0.3992E+01  0.3982E+01  0.2543E+02  0.2543E+02
      3.548  0.3025E+01  0.3016E+01  0.2586E+02  0.2586E+02
      3.692  0.2441E+01  0.2439E+01  0.2622E+02  0.2622E+02
      3.836  0.2145E+01  0.2143E+01  0.2653E+02  0.2653E+02
      3.980  0.1976E+01  0.1971E+01  0.2681E+02  0.2681E+02
      4.124  0.1751E+01  0.1758E+01  0.2706E+02  0.2706E+02
      4.268  0.1603E+01  0.1618E+01  0.2729E+02  0.2730E+02
      4.412  0.1391E+01  0.1422E+01  0.2750E+02  0.2750E+02
      4.556  0.1197E+01  0.1277E+01  0.2767E+02  0.2769E+02
      4.700  0.1485E+01  0.1359E+01  0.2788E+02  0.2788E+02
      4.843  0.7120E+00  0.7015E+00  0.2798E+02  0.2798E+02
      4.987  0.9681E-01  0.9976E-01  0.2800E+02  0.2800E+02
      5.131  0.5441E-02  0.4144E-02  0.2800E+02  0.2800E+02
      5.275  0.1598E-03  0.0000E+00  0.2800E+02  0.2800E+02
      5.419  0.0000E+00  0.0000E+00  0.2800E+02  0.2800E+02
      5.563  0.0000E+00  0.0000E+00  0.2800E+02  0.2800E+02
      5.707  0.0000E+00  0.0000E+00  0.2800E+02  0.2800E+02
      5.851  0.0000E+00  0.0000E+00  0.2800E+02  0.2800E+02
      5.995  0.0000E+00  0.0000E+00  0.2800E+02  0.2800E+02
      6.139  0.0000E+00  0.0000E+00  0.2800E+02  0.2800E+02
      6.282  0.0000E+00  0.0000E+00  0.2800E+02  0.2800E+02
      6.426  0.0000E+00  0.0000E+00  0.2800E+02  0.2800E+02
      6.570  0.0000E+00  0.0000E+00  0.2800E+02  0.2800E+02
      6.714  0.0000E+00  0.0000E+00  0.2800E+02  0.2800E+02
      6.858  0.0000E+00  0.0000E+00  0.2800E+02  0.2800E+02
      6.85808107    -36.31297357  301      2.05485128      1.00000000
    -36.313  0.0000E+00  0.0000E+00  0.0000E+00  0.0000E+00  0.0000E+00  0.0000E+00  0.0000E+00  0.0000E+00  0.0000E+00  0.0000E+00  0.0000E+00  0.0000E+00  0.0000E+00  0.0000E+00  0.0000E+00  0.0000E+00  0.0000E+00  0.0000E+00
    -36.169  0.0000E+00  0.0000E+00  0.0000E+00  0.0000E+00  0.0000E+00  0.0000E+00  0.0000E+00  0.0000E+00  0.0000E+00  0.0000E+00  0.0000E+00  0.0000E+00  0.0000E+00  0.0000E+00  0.0000E+00  0.0000E+00  0.0000E+00  0.0000E+00
    -36.025  0.0000E+00  0.0000E+00  0.0000E+00  0.0000E+00  0.0000E+00  0.0000E+00  0.0000E+00  0.0000E+00  0.0000E+00  0.0000E+00  0.0000E+00  0.0000E+00  0.0000E+00  0.0000E+00  0.0000E+00  0.0000E+00  0.0000E+00  0.0000E+00
    -35.881  0.0000E+00  0.0000E+00  0.0000E+00  0.0000E+00  0.0000E+00  0.0000E+00  0.0000E+00  0.0000E+00  0.0000E+00  0.0000E+00  0.0000E+00  0.0000E+00  0.0000E+00  0.0000E+00  0.0000E+00  0.0000E+00  0.0000E+00  0.0000E+00
    -35.737  0.0000E+00  0.0000E+00  0.0000E+00  0.0000E+00  0.0000E+00  0.0000E+00  0.0000E+00  0.0000E+00  0.0000E+00  0.0000E+00  0.0000E+00  0.0000E+00  0.0000E+00  0.0000E+00  0.0000E+00  0.0000E+00  0.0000E+00  0.0000E+00
    -35.593  0.0000E+00  0.0000E+00  0.0000E+00  0.0000E+00  0.0000E+00  0.0000E+00  0.0000E+00  0.0000E+00  0.0000E+00  0.0000E+00  0.0000E+00  0.0000E+00  0.0000E+00  0.0000E+00  0.0000E+00  0.0000E+00  0.0000E+00  0.0000E+00
    -35.450  0.0000E+00  0.0000E+00  0.0000E+00  0.0000E+00  0.0000E+00  0.0000E+00  0.0000E+00  0.0000E+00  0.0000E+00  0.0000E+00  0.0000E+00  0.0000E+00  0.0000E+00  0.0000E+00  0.0000E+00  0.0000E+00  0.0000E+00  0.0000E+00
    -35.306  0.0000E+00  0.0000E+00  0.0000E+00  0.0000E+00  0.0000E+00  0.0000E+00  0.0000E+00  0.0000E+00  0.0000E+00  0.0000E+00  0.0000E+00  0.0000E+00  0.0000E+00  0.0000E+00  0.0000E+00  0.0000E+00  0.0000E+00  0.0000E+00
    -35.162  0.0000E+00  0.0000E+00  0.0000E+00  0.0000E+00  0.0000E+00  0.0000E+00  0.0000E+00  0.0000E+00  0.0000E+00  0.0000E+00  0.0000E+00  0.0000E+00  0.0000E+00  0.0000E+00  0.0000E+00  0.0000E+00  0.0000E+00  0.0000E+00
    -35.018  0.0000E+00  0.0000E+00  0.0000E+00  0.0000E+00  0.0000E+00  0.0000E+00  0.0000E+00  0.0000E+00  0.0000E+00  0.0000E+00  0.0000E+00  0.0000E+00  0.0000E+00  0.0000E+00  0.0000E+00  0.0000E+00  0.0000E+00  0.0000E+00
    -34.874  0.3261E-04  0.3266E-04  0.1475E-10  0.1475E-10  0.1475E-10  0.1475E-10  0.1475E-10  0.1475E-10  0.1430E-11  0.1434E-11  0.1430E-11  0.1434E-11  0.3522E-12  0.3525E-12  0.1430E-11  0.1434E-11  0.3522E-12  0.3525E-12
    -34.730  0.2077E-02  0.2080E-02  0.5109E-09  0.5115E-09  0.5109E-09  0.5115E-09  0.5109E-09  0.5115E-09  0.1465E-09  0.1465E-09  0.1465E-09  0.1465E-09  0.6737E-10  0.6743E-10  0.1465E-09  0.1465E-09  0.6737E-10  0.6743E-10
    -34.586  0.3520E-01  0.3525E-01  0.8767E-08  0.8776E-08  0.8767E-08  0.8776E-08  0.8767E-08  0.8776E-08  0.2468E-08  0.2469E-08  0.2468E-08  0.2469E-08  0.1131E-08  0.1132E-08  0.2468E-08  0.2469E-08  0.1131E-08  0.1132E-08
    -34.442  0.5690E+00  0.5698E+00  0.1407E-06  0.1408E-06  0.1407E-06  0.1408E-06  0.1407E-06  0.1408E-06  0.3997E-07  0.3998E-07  0.3997E-07  0.3998E-07  0.1844E-07  0.1845E-07  0.3997E-07  0.3998E-07  0.1844E-07  0.1845E-07
    -34.298  0.3696E+01  0.3698E+01  0.8674E-06  0.8673E-06  0.8674E-06  0.8673E-06  0.8674E-06  0.8673E-06  0.2613E-06  0.2610E-06  0.2613E-06  0.2610E-06  0.1267E-06  0.1267E-06  0.2613E-06  0.2610E-06  0.1267E-06  0.1267E-06
    -34.154  0.2287E+01  0.2284E+01  0.4986E-06  0.4979E-06  0.4986E-06  0.4979E-06  0.4986E-06  0.4979E-06  0.1614E-06  0.1609E-06  0.1614E-06  0.1609E-06  0.8408E-07  0.8396E-07  0.1614E-06  0.1609E-06  0.8408E-07  0.8396E-07
    -34.011  0.2044E+00  0.2041E+00  0.4324E-07  0.4316E-07  0.4324E-07  0.4316E-07  0.4324E-07  0.4316E-07  0.1436E-07  0.1432E-07  0.1436E-07  0.1432E-07  0.7718E-08  0.7702E-08  0.1436E-07  0.1432E-07  0.7718E-08  0.7702E-08
    -33.867  0.0000E+00  0.0000E+00  0.0000E+00  0.0000E+00  0.0000E+00  0.0000E+00  0.0000E+00  0.0000E+00  0.0000E+00  0.0000E+00  0.0000E+00  0.0000E+00  0.0000E+00  0.0000E+00  0.0000E+00  0.0000E+00  0.0000E+00  0.0000E+00
    -33.723  0.0000E+00  0.0000E+00  0.0000E+00  0.0000E+00  0.0000E+00  0.0000E+00  0.0000E+00  0.0000E+00  0.0000E+00  0.0000E+00  0.0000E+00  0.0000E+00  0.0000E+00  0.0000E+00  0.0000E+00  0.0000E+00  0.0000E+00  0.0000E+00
    -33.579  0.0000E+00  0.0000E+00  0.0000E+00  0.0000E+00  0.0000E+00  0.0000E+00  0.0000E+00  0.0000E+00  0.0000E+00  0.0000E+00  0.0000E+00  0.0000E+00  0.0000E+00  0.0000E+00  0.0000E+00  0.0000E+00  0.0000E+00  0.0000E+00
    -33.435  0.0000E+00  0.0000E+00  0.0000E+00  0.0000E+00  0.0000E+00  0.0000E+00  0.0000E+00  0.0000E+00  0.0000E+00  0.0000E+00  0.0000E+00  0.0000E+00  0.0000E+00  0.0000E+00  0.0000E+00  0.0000E+00  0.0000E+00  0.0000E+00
    -33.291  0.0000E+00  0.0000E+00  0.0000E+00  0.0000E+00  0.0000E+00  0.0000E+00  0.0000E+00  0.0000E+00  0.0000E+00  0.0000E+00  0.0000E+00  0.0000E+00  0.0000E+00  0.0000E+00  0.0000E+00  0.0000E+00  0.0000E+00  0.0000E+00
    -33.147  0.0000E+00  0.0000E+00  0.0000E+00  0.0000E+00  0.0000E+00  0.0000E+00  0.0000E+00  0.0000E+00  0.0000E+00  0.0000E+00  0.0000E+00  0.0000E+00  0.0000E+00  0.0000E+00  0.0000E+00  0.0000E+00  0.0000E+00  0.0000E+00
    -33.003  0.0000E+00  0.0000E+00  0.0000E+00  0.0000E+00  0.0000E+00  0.0000E+00  0.0000E+00  0.0000E+00  0.0000E+00  0.0000E+00  0.0000E+00  0.0000E+00  0.0000E+00  0.0000E+00  0.0000E+00  0.0000E+00  0.0000E+00  0.0000E+00
    -32.859  0.0000E+00  0.0000E+00  0.0000E+00  0.0000E+00  0.0000E+00  0.0000E+00  0.0000E+00  0.0000E+00  0.0000E+00  0.0000E+00  0.0000E+00  0.0000E+00  0.0000E+00  0.0000E+00  0.0000E+00  0.0000E+00  0.0000E+00  0.0000E+00
    -32.715  0.0000E+00  0.0000E+00  0.0000E+00  0.0000E+00  0.0000E+00  0.0000E+00  0.0000E+00  0.0000E+00  0.0000E+00  0.0000E+00  0.0000E+00  0.0000E+00  0.0000E+00  0.0000E+00  0.0000E+00  0.0000E+00  0.0000E+00  0.0000E+00
    -32.571  0.0000E+00  0.0000E+00  0.0000E+00  0.0000E+00  0.0000E+00  0.0000E+00  0.0000E+00  0.0000E+00  0.0000E+00  0.0000E+00  0.0000E+00  0.0000E+00  0.0000E+00  0.0000E+00  0.0000E+00  0.0000E+00  0.0000E+00  0.0000E+00
    -32.428  0.0000E+00  0.0000E+00  0.0000E+00  0.0000E+00  0.0000E+00  0.0000E+00  0.0000E+00  0.0000E+00  0.0000E+00  0.0000E+00  0.0000E+00  0.0000E+00  0.0000E+00  0.0000E+00  0.0000E+00  0.0000E+00  0.0000E+00  0.0000E+00
    -32.284  0.0000E+00  0.0000E+00  0.0000E+00  0.0000E+00  0.0000E+00  0.0000E+00  0.0000E+00  0.0000E+00  0.0000E+00  0.0000E+00  0.0000E+00  0.0000E+00  0.0000E+00  0.0000E+00  0.0000E+00  0.0000E+00  0.0000E+00  0.0000E+00
    -32.140  0.0000E+00  0.0000E+00  0.0000E+00  0.0000E+00  0.0000E+00  0.0000E+00  0.0000E+00  0.0000E+00  0.0000E+00  0.0000E+00  0.0000E+00  0.0000E+00  0.0000E+00  0.0000E+00  0.0000E+00  0.0000E+00  0.0000E+00  0.0000E+00
    -31.996  0.0000E+00  0.0000E+00  0.0000E+00  0.0000E+00  0.0000E+00  0.0000E+00  0.0000E+00  0.0000E+00  0.0000E+00  0.0000E+00  0.0000E+00  0.0000E+00  0.0000E+00  0.0000E+00  0.0000E+00  0.0000E+00  0.0000E+00  0.0000E+00
    -31.852  0.0000E+00  0.0000E+00  0.0000E+00  0.0000E+00  0.0000E+00  0.0000E+00  0.0000E+00  0.0000E+00  0.0000E+00  0.0000E+00  0.0000E+00  0.0000E+00  0.0000E+00  0.0000E+00  0.0000E+00  0.0000E+00  0.0000E+00  0.0000E+00
    -31.708  0.0000E+00  0.0000E+00  0.0000E+00  0.0000E+00  0.0000E+00  0.0000E+00  0.0000E+00  0.0000E+00  0.0000E+00  0.0000E+00  0.0000E+00  0.0000E+00  0.0000E+00  0.0000E+00  0.0000E+00  0.0000E+00  0.0000E+00  0.0000E+00
    -31.564  0.0000E+00  0.0000E+00  0.0000E+00  0.0000E+00  0.0000E+00  0.0000E+00  0.0000E+00  0.0000E+00  0.0000E+00  0.0000E+00  0.0000E+00  0.0000E+00  0.0000E+00  0.0000E+00  0.0000E+00  0.0000E+00  0.0000E+00  0.0000E+00
    -31.420  0.0000E+00  0.0000E+00  0.0000E+00  0.0000E+00  0.0000E+00  0.0000E+00  0.0000E+00  0.0000E+00  0.0000E+00  0.0000E+00  0.0000E+00  0.0000E+00  0.0000E+00  0.0000E+00  0.0000E+00  0.0000E+00  0.0000E+00  0.0000E+00
    -31.276  0.0000E+00  0.0000E+00  0.0000E+00  0.0000E+00  0.0000E+00  0.0000E+00  0.0000E+00  0.0000E+00  0.0000E+00  0.0000E+00  0.0000E+00  0.0000E+00  0.0000E+00  0.0000E+00  0.0000E+00  0.0000E+00  0.0000E+00  0.0000E+00
    -31.132  0.0000E+00  0.0000E+00  0.0000E+00  0.0000E+00  0.0000E+00  0.0000E+00  0.0000E+00  0.0000E+00  0.0000E+00  0.0000E+00  0.0000E+00  0.0000E+00  0.0000E+00  0.0000E+00  0.0000E+00  0.0000E+00  0.0000E+00  0.0000E+00
    -30.989  0.0000E+00  0.0000E+00  0.0000E+00  0.0000E+00  0.0000E+00  0.0000E+00  0.0000E+00  0.0000E+00  0.0000E+00  0.0000E+00  0.0000E+00  0.0000E+00  0.0000E+00  0.0000E+00  0.0000E+00  0.0000E+00  0.0000E+00  0.0000E+00
    -30.845  0.0000E+00  0.0000E+00  0.0000E+00  0.0000E+00  0.0000E+00  0.0000E+00  0.0000E+00  0.0000E+00  0.0000E+00  0.0000E+00  0.0000E+00  0.0000E+00  0.0000E+00  0.0000E+00  0.0000E+00  0.0000E+00  0.0000E+00  0.0000E+00
    -30.701  0.0000E+00  0.0000E+00  0.0000E+00  0.0000E+00  0.0000E+00  0.0000E+00  0.0000E+00  0.0000E+00  0.0000E+00  0.0000E+00  0.0000E+00  0.0000E+00  0.0000E+00  0.0000E+00  0.0000E+00  0.0000E+00  0.0000E+00  0.0000E+00
    -30.557  0.0000E+00  0.0000E+00  0.0000E+00  0.0000E+00  0.0000E+00  0.0000E+00  0.0000E+00  0.0000E+00  0.0000E+00  0.0000E+00  0.0000E+00  0.0000E+00  0.0000E+00  0.0000E+00  0.0000E+00  0.0000E+00  0.0000E+00  0.0000E+00
    -30.413  0.0000E+00  0.0000E+00  0.0000E+00  0.0000E+00  0.0000E+00  0.0000E+00  0.0000E+00  0.0000E+00  0.0000E+00  0.0000E+00  0.0000E+00  0.0000E+00  0.0000E+00  0.0000E+00  0.0000E+00  0.0000E+00  0.0000E+00  0.0000E+00
    -30.269  0.0000E+00  0.0000E+00  0.0000E+00  0.0000E+00  0.0000E+00  0.0000E+00  0.0000E+00  0.0000E+00  0.0000E+00  0.0000E+00  0.0000E+00  0.0000E+00  0.0000E+00  0.0000E+00  0.0000E+00  0.0000E+00  0.0000E+00  0.0000E+00
    -30.125  0.0000E+00  0.0000E+00  0.0000E+00  0.0000E+00  0.0000E+00  0.0000E+00  0.0000E+00  0.0000E+00  0.0000E+00  0.0000E+00  0.0000E+00  0.0000E+00  0.0000E+00  0.0000E+00  0.0000E+00  0.0000E+00  0.0000E+00  0.0000E+00
    -29.981  0.0000E+00  0.0000E+00  0.0000E+00  0.0000E+00  0.0000E+00  0.0000E+00  0.0000E+00  0.0000E+00  0.0000E+00  0.0000E+00  0.0000E+00  0.0000E+00  0.0000E+00  0.0000E+00  0.0000E+00  0.0000E+00  0.0000E+00  0.0000E+00
    -29.837  0.0000E+00  0.0000E+00  0.0000E+00  0.0000E+00  0.0000E+00  0.0000E+00  0.0000E+00  0.0000E+00  0.0000E+00  0.0000E+00  0.0000E+00  0.0000E+00  0.0000E+00  0.0000E+00  0.0000E+00  0.0000E+00  0.0000E+00  0.0000E+00
    -29.693  0.0000E+00  0.0000E+00  0.0000E+00  0.0000E+00  0.0000E+00  0.0000E+00  0.0000E+00  0.0000E+00  0.0000E+00  0.0000E+00  0.0000E+00  0.0000E+00  0.0000E+00  0.0000E+00  0.0000E+00  0.0000E+00  0.0000E+00  0.0000E+00
    -29.550  0.0000E+00  0.0000E+00  0.0000E+00  0.0000E+00  0.0000E+00  0.0000E+00  0.0000E+00  0.0000E+00  0.0000E+00  0.0000E+00  0.0000E+00  0.0000E+00  0.0000E+00  0.0000E+00  0.0000E+00  0.0000E+00  0.0000E+00  0.0000E+00
    -29.406  0.0000E+00  0.0000E+00  0.0000E+00  0.0000E+00  0.0000E+00  0.0000E+00  0.0000E+00  0.0000E+00  0.0000E+00  0.0000E+00  0.0000E+00  0.0000E+00  0.0000E+00  0.0000E+00  0.0000E+00  0.0000E+00  0.0000E+00  0.0000E+00
    -29.262  0.0000E+00  0.0000E+00  0.0000E+00  0.0000E+00  0.0000E+00  0.0000E+00  0.0000E+00  0.0000E+00  0.0000E+00  0.0000E+00  0.0000E+00  0.0000E+00  0.0000E+00  0.0000E+00  0.0000E+00  0.0000E+00  0.0000E+00  0.0000E+00
    -29.118  0.0000E+00  0.0000E+00  0.0000E+00  0.0000E+00  0.0000E+00  0.0000E+00  0.0000E+00  0.0000E+00  0.0000E+00  0.0000E+00  0.0000E+00  0.0000E+00  0.0000E+00  0.0000E+00  0.0000E+00  0.0000E+00  0.0000E+00  0.0000E+00