   4   4   1   0
  0.6170041E+02  0.6272625E-09  0.6272625E-09  0.6272625E-09  0.5000000E-15
  1.000000000000000E-004
  CAR 
 unknown system                          
      5.68464627    -37.61693267  301      1.19313070      1.00000000
    -37.617  0.0000E+00  0.0000E+00  0.0000E+00  0.0000E+00
    -37.473  0.0000E+00  0.0000E+00  0.0000E+00  0.0000E+00
    -37.328  0.0000E+00  0.0000E+00  0.0000E+00  0.0000E+00
    -37.184  0.0000E+00  0.0000E+00  0.0000E+00  0.0000E+00
    -37.040  0.0000E+00  0.0000E+00  0.0000E+00  0.0000E+00
    -36.895  0.0000E+00  0.0000E+00  0.0000E+00  0.0000E+00
    -36.751  0.0000E+00  0.0000E+00  0.0000E+00  0.0000E+00
    -36.607  0.0000E+00  0.0000E+00  0.0000E+00  0.0000E+00
    -36.462  0.0000E+00  0.0000E+00  0.0000E+00  0.0000E+00
    -36.318  0.0000E+00  0.0000E+00  0.0000E+00  0.0000E+00
    -36.174  0.6545E-03  0.6010E-03  0.9446E-04  0.8675E-04
    -36.029  0.1108E-01  0.1017E-01  0.1694E-02  0.1555E-02
    -35.885  0.1972E+00  0.1812E+00  0.3016E-01  0.2771E-01
    -35.741  0.3113E+01  0.2889E+01  0.4795E+00  0.4447E+00
    -35.596  0.1633E+02  0.1608E+02  0.2837E+01  0.2766E+01
    -35.452  0.7436E+01  0.7878E+01  0.3911E+01  0.3903E+01
    -35.308  0.5841E+00  0.6348E+00  0.3995E+01  0.3994E+01
    -35.163  0.0000E+00  0.0000E+00  0.4000E+01  0.4000E+01
    -35.019  0.0000E+00  0.0000E+00  0.4000E+01  0.4000E+01
    -34.874  0.0000E+00  0.0000E+00  0.4000E+01  0.4000E+01
    -34.730  0.0000E+00  0.0000E+00  0.4000E+01  0.4000E+01
    -34.586  0.0000E+00  0.0000E+00  0.4000E+01  0.4000E+01
    -34.441  0.0000E+00  0.0000E+00  0.4000E+01  0.4000E+01
    -34.297  0.0000E+00  0.0000E+00  0.4000E+01  0.4000E+01
    -34.153  0.0000E+00  0.0000E+00  0.4000E+01  0.4000E+01
    -34.008  0.0000E+00  0.0000E+00  0.4000E+01  0.4000E+01
    -33.864  0.0000E+00  0.0000E+00  0.4000E+01  0.4000E+01
    -33.720  0.0000E+00  0.0000E+00  0.4000E+01  0.4000E+01
    -33.575  0.0000E+00  0.0000E+00  0.4000E+01  0.4000E+01
    -33.431  0.0000E+00  0.0000E+00  0.4000E+01  0.4000E+01
    -33.287  0.0000E+00  0.0000E+00  0.4000E+01  0.4000E+01
    -33.142  0.0000E+00  0.0000E+00  0.4000E+01  0.4000E+01
    -32.998  0.0000E+00  0.0000E+00  0.4000E+01  0.4000E+01
    -32.854  0.0000E+00  0.0000E+00  0.4000E+01  0.4000E+01
    -32.709  0.0000E+00  0.0000E+00  0.4000E+01  0.4000E+01
    -32.565  0.0000E+00  0.0000E+00  0.4000E+01  0.4000E+01
    -32.421  0.0000E+00  0.0000E+00  0.4000E+01  0.4000E+01
    -32.276  0.0000E+00  0.0000E+00  0.4000E+01  0.4000E+01
    -32.132  0.0000E+00  0.0000E+00  0.4000E+01  0.4000E+01
    -31.988  0.0000E+00  0.0000E+00  0.4000E+01  0.4000E+01
    -31.843  0.0000E+00  0.0000E+00  0.4000E+01  0.4000E+01
    -31.699  0.0000E+00  0.0000E+00  0.4000E+01  0.4000E+01
    -31.555  0.0000E+00  0.0000E+00  0.4000E+01  0.4000E+01
    -31.410  0.0000E+00  0.0000E+00  0.4000E+01  0.4000E+01
    -31.266  0.0000E+00  0.0000E+00  0.4000E+01  0.4000E+01
    -31.122  0.0000E+00  0.0000E+00  0.4000E+01  0.4000E+01
    -30.977  0.0000E+00  0.0000E+00  0.4000E+01  0.4000E+01
    -30.833  0.0000E+00  0.0000E+00  0.4000E+01  0.4000E+01
    -30.689  0.0000E+00  0.0000E+00  0.4000E+01  0.4000E+01
    -30.544  0.0000E+00  0.0000E+00  0.4000E+01  0.4000E+01
    -30.400  0.0000E+00  0.0000E+00  0.4000E+01  0.4000E+01
    -30.256  0.0000E+00  0.0000E+00  0.4000E+01  0.4000E+01
    -30.111  0.0000E+00  0.0000E+00  0.4000E+01  0.4000E+01
    -29.967  0.0000E+00  0.0000E+00  0.4000E+01  0.4000E+01
    -29.823  0.0000E+00  0.0000E+00  0.4000E+01  0.4000E+01
    -29.678  0.0000E+00  0.0000E+00  0.4000E+01  0.4000E+01
    -29.534  0.0000E+00  0.0000E+00  0.4000E+01  0.4000E+01
    -29.390  0.0000E+00  0.0000E+00  0.4000E+01  0.4000E+01
    -29.245  0.0000E+00  0.0000E+00  0.4000E+01  0.4000E+01
    -29.101  0.0000E+00  0.0000E+00  0.4000E+01  0.4000E+01
    -28.957  0.0000E+00  0.0000E+00  0.4000E+01  0.4000E+01
    -28.812  0.0000E+00  0.0000E+00  0.4000E+01  0.4000E+01
    -28.668  0.0000E+00  0.0000E+00  0.4000E+01  0.4000E+01
    -28.524  0.0000E+00  0.0000E+00  0.4000E+01  0.4000E+01
    -28.379  0.0000E+00  0.0000E+00  0.4000E+01  0.4000E+01
    -28.235  0.0000E+00  0.0000E+00  0.4000E+01  0.4000E+01
    -28.091  0.0000E+00  0.0000E+00  0.4000E+01  0.4000E+01
    -27.946  0.0000E+00  0.0000E+00  0.4000E+01  0.4000E+01
    -27.802  0.0000E+00  0.0000E+00  0.4000E+01  0.4000E+01
    -27.658  0.0000E+00  0.0000E+00  0.4000E+01  0.4000E+01
    -27.513  0.0000E+00  0.0000E+00  0.4000E+01  0.4000E+01
    -27.369  0.0000E+00  0.0000E+00  0.4000E+01  0.4000E+01
    -27.225  0.0000E+00  0.0000E+00  0.4000E+01  0.4000E+01
    -27.080  0.0000E+00  0.0000E+00  0.4000E+01  0.4000E+01
    -26.936  0.0000E+00  0.0000E+00  0.4000E+01  0.4000E+01
    -26.792  0.0000E+00  0.0000E+00  0.4000E+01  0.4000E+01
    -26.647  0.0000E+00  0.0000E+00  0.4000E+01  0.4000E+01
    -26.503  0.0000E+00  0.0000E+00  0.4000E+01  0.4000E+01
    -26.359  0.0000E+00  0.0000E+00  0.4000E+01  0.4000E+01
    -26.214  0.0000E+00  0.0000E+00  0.4000E+01  0.4000E+01
    -26.070  0.0000E+00  0.0000E+00  0.4000E+01  0.4000E+01
    -25.926  0.0000E+00  0.0000E+00  0.4000E+01  0.4000E+01
    -25.781  0.0000E+00  0.0000E+00  0.4000E+01  0.4000E+01
    -25.637  0.0000E+00  0.0000E+00  0.4000E+01  0.4000E+01
    -25.492  0.0000E+00  0.0000E+00  0.4000E+01  0.4000E+01
    -25.348  0.0000E+00  0.0000E+00  0.4000E+01  0.4000E+01
    -25.204  0.0000E+00  0.0000E+00  0.4000E+01  0.4000E+01
    -25.059  0.0000E+00  0.0000E+00  0.4000E+01  0.4000E+01
    -24.915  0.0000E+00  0.0000E+00  0.4000E+01  0.4000E+01
    -24.771  0.0000E+00  0.0000E+00  0.4000E+01  0.4000E+01
    -24.626  0.0000E+00  0.0000E+00  0.4000E+01  0.4000E+01
    -24.482  0.0000E+00  0.0000E+00  0.4000E+01  0.4000E+01
    -24.338  0.0000E+00  0.0000E+00  0.4000E+01  0.4000E+01
    -24.193  0.0000E+00  0.0000E+00  0.4000E+01  0.4000E+01
    -24.049  0.0000E+00  0.0000E+00  0.4000E+01  0.4000E+01
    -23.905  0.0000E+00  0.0000E+00  0.4000E+01  0.4000E+01
    -23.760  0.0000E+00  0.0000E+00  0.4000E+01  0.4000E+01
    -23.616  0.0000E+00  0.0000E+00  0.4000E+01  0.4000E+01
    -23.472  0.0000E+00  0.0000E+00  0.4000E+01  0.4000E+01
    -23.327  0.0000E+00  0.0000E+00  0.4000E+01  0.4000E+01
    -23.183  0.0000E+00  0.0000E+00  0.4000E+01  0.4000E+01
    -23.039  0.0000E+00  0.0000E+00  0.4000E+01  0.4000E+01
    -22.894  0.0000E+00  0.0000E+00  0.4000E+01  0.4000E+01
    -22.750  0.0000E+00  0.0000E+00  0.4000E+01  0.4000E+01
    -22.606  0.0000E+00  0.0000E+00  0.4000E+01  0.4000E+01
    -22.461  0.0000E+00  0.0000E+00  0.4000E+01  0.4000E+01
    -22.317  0.0000E+00  0.0000E+00  0.4000E+01  0.4000E+01
    -22.173  0.0000E+00  0.0000E+00  0.4000E+01  0.4000E+01
    -22.028  0.0000E+00  0.0000E+00  0.4000E+01  0.4000E+01
    -21.884  0.0000E+00  0.0000E+00  0.4000E+01  0.4000E+01
    -21.740  0.0000E+00  0.0000E+00  0.4000E+01  0.4000E+01
    -21.595  0.0000E+00  0.0000E+00  0.4000E+01  0.4000E+01
    -21.451  0.0000E+00  0.0000E+00  0.4000E+01  0.4000E+01
    -21.307  0.0000E+00  0.0000E+00  0.4000E+01  0.4000E+01
    -21.162  0.0000E+00  0.0000E+00  0.4000E+01  0.4000E+01
    -21.018  0.0000E+00  0.0000E+00  0.4000E+01  0.4000E+01
    -20.874  0.0000E+00  0.0000E+00  0.4000E+01  0.4000E+01
    -20.729  0.0000E+00  0.0000E+00  0.4000E+01  0.4000E+01
    -20.585  0.0000E+00  0.0000E+00  0.4000E+01  0.4000E+01
    -20.441  0.0000E+00  0.0000E+00  0.4000E+01  0.4000E+01
    -20.296  0.0000E+00  0.0000E+00  0.4000E+01  0.4000E+01
    -20.152  0.0000E+00  0.0000E+00  0.4000E+01  0.4000E+01
    -20.008  0.0000E+00  0.0000E+00  0.4000E+01  0.4000E+01
    -19.863  0.0000E+00  0.0000E+00  0.4000E+01  0.4000E+01
    -19.719  0.0000E+00  0.0000E+00  0.4000E+01  0.4000E+01
    -19.575  0.0000E+00  0.0000E+00  0.4000E+01  0.4000E+01
    -19.430  0.0000E+00  0.0000E+00  0.4000E+01  0.4000E+01
    -19.286  0.0000E+00  0.0000E+00  0.4000E+01  0.4000E+01
    -19.142  0.0000E+00  0.0000E+00  0.4000E+01  0.4000E+01
    -18.997  0.0000E+00  0.0000E+00  0.4000E+01  0.4000E+01
    -18.853  0.0000E+00  0.0000E+00  0.4000E+01  0.4000E+01
    -18.709  0.0000E+00  0.0000E+00  0.4000E+01  0.4000E+01
    -18.564  0.0000E+00  0.0000E+00  0.4000E+01  0.4000E+01
    -18.420  0.0000E+00  0.0000E+00  0.4000E+01  0.4000E+01
    -18.276  0.0000E+00  0.0000E+00  0.4000E+01  0.4000E+01
    -18.131  0.2335E-02  0.2041E-02  0.4000E+01  0.4000E+01
    -17.987  0.4793E-01  0.4389E-01  0.4007E+01  0.4007E+01
    -17.843  0.8374E+00  0.7664E+00  0.4128E+01  0.4117E+01
    -17.698  0.1178E+02  0.1098E+02  0.5828E+01  0.5701E+01
    -17.554  0.4668E+02  0.4614E+02  0.1257E+02  0.1236E+02
    -17.410  0.2180E+02  0.2305E+02  0.1571E+02  0.1569E+02
    -17.265  0.1864E+01  0.2037E+01  0.1598E+02  0.1598E+02
    -17.121  0.0000E+00  0.0000E+00  0.1600E+02  0.1600E+02
    -16.977  0.0000E+00  0.0000E+00  0.1600E+02  0.1600E+02
    -16.832  0.0000E+00  0.0000E+00  0.1600E+02  0.1600E+02
    -16.688  0.0000E+00  0.0000E+00  0.1600E+02  0.1600E+02
    -16.543  0.0000E+00  0.0000E+00  0.1600E+02  0.1600E+02
    -16.399  0.0000E+00  0.0000E+00  0.1600E+02  0.1600E+02
    -16.255  0.0000E+00  0.0000E+00  0.1600E+02  0.1600E+02
    -16.110  0.0000E+00  0.0000E+00  0.1600E+02  0.1600E+02
    -15.966  0.0000E+00  0.0000E+00  0.1600E+02  0.1600E+02
    -15.822  0.0000E+00  0.0000E+00  0.1600E+02  0.1600E+02
    -15.677  0.0000E+00  0.0000E+00  0.1600E+02  0.1600E+02
    -15.533  0.0000E+00  0.0000E+00  0.1600E+02  0.1600E+02
    -15.389  0.0000E+00  0.0000E+00  0.1600E+02  0.1600E+02
    -15.244  0.0000E+00  0.0000E+00  0.1600E+02  0.1600E+02
    -15.100  0.0000E+00  0.0000E+00  0.1600E+02  0.1600E+02
    -14.956  0.0000E+00  0.0000E+00  0.1600E+02  0.1600E+02
    -14.811  0.0000E+00  0.0000E+00  0.1600E+02  0.1600E+02
    -14.667  0.0000E+00  0.0000E+00  0.1600E+02  0.1600E+02
    -14.523  0.0000E+00  0.0000E+00  0.1600E+02  0.1600E+02
    -14.378  0.0000E+00  0.0000E+00  0.1600E+02  0.1600E+02
    -14.234  0.0000E+00  0.0000E+00  0.1600E+02  0.1600E+02
    -14.090  0.0000E+00  0.0000E+00  0.1600E+02  0.1600E+02
    -13.945  0.0000E+00  0.0000E+00  0.1600E+02  0.1600E+02
    -13.801  0.0000E+00  0.0000E+00  0.1600E+02  0.1600E+02
    -13.657  0.0000E+00  0.0000E+00  0.1600E+02  0.1600E+02
    -13.512  0.0000E+00  0.0000E+00  0.1600E+02  0.1600E+02
    -13.368  0.0000E+00  0.0000E+00  0.1600E+02  0.1600E+02
    -13.224  0.0000E+00  0.0000E+00  0.1600E+02  0.1600E+02
    -13.079  0.0000E+00  0.0000E+00  0.1600E+02  0.1600E+02
    -12.935  0.0000E+00  0.0000E+00  0.1600E+02  0.1600E+02
    -12.791  0.0000E+00  0.0000E+00  0.1600E+02  0.1600E+02
    -12.646  0.0000E+00  0.0000E+00  0.1600E+02  0.1600E+02
    -12.502  0.0000E+00  0.0000E+00  0.1600E+02  0.1600E+02
    -12.358  0.0000E+00  0.0000E+00  0.1600E+02  0.1600E+02
    -12.213  0.0000E+00  0.0000E+00  0.1600E+02  0.1600E+02
    -12.069  0.0000E+00  0.0000E+00  0.1600E+02  0.1600E+02
    -11.925  0.0000E+00  0.0000E+00  0.1600E+02  0.1600E+02
    -11.780  0.0000E+00  0.0000E+00  0.1600E+02  0.1600E+02
    -11.636  0.0000E+00  0.0000E+00  0.1600E+02  0.1600E+02
    -11.492  0.0000E+00  0.0000E+00  0.1600E+02  0.1600E+02
    -11.347  0.0000E+00  0.0000E+00  0.1600E+02  0.1600E+02
    -11.203  0.0000E+00  0.0000E+00  0.1600E+02  0.1600E+02
    -11.059  0.0000E+00  0.0000E+00  0.1600E+02  0.1600E+02
    -10.914  0.0000E+00  0.0000E+00  0.1600E+02  0.1600E+02
    -10.770  0.0000E+00  0.0000E+00  0.1600E+02  0.1600E+02
    -10.626  0.0000E+00  0.0000E+00  0.1600E+02  0.1600E+02
    -10.481  0.0000E+00  0.0000E+00  0.1600E+02  0.1600E+02
    -10.337  0.0000E+00  0.0000E+00  0.1600E+02  0.1600E+02
    -10.193  0.0000E+00  0.0000E+00  0.1600E+02  0.1600E+02
    -10.048  0.0000E+00  0.0000E+00  0.1600E+02  0.1600E+02
     -9.904  0.0000E+00  0.0000E+00  0.1600E+02  0.1600E+02
     -9.760  0.0000E+00  0.0000E+00  0.1600E+02  0.1600E+02
     -9.615  0.0000E+00  0.0000E+00  0.1600E+02  0.1600E+02
     -9.471  0.0000E+00  0.0000E+00  0.1600E+02  0.1600E+02
     -9.327  0.0000E+00  0.0000E+00  0.1600E+02  0.1600E+02
     -9.182  0.0000E+00  0.0000E+00  0.1600E+02  0.1600E+02
     -9.038  0.0000E+00  0.0000E+00  0.1600E+02  0.1600E+02
     -8.894  0.0000E+00  0.0000E+00  0.1600E+02  0.1600E+02
     -8.749  0.0000E+00  0.0000E+00  0.1600E+02  0.1600E+02
     -8.605  0.0000E+00  0.0000E+00  0.1600E+02  0.1600E+02
     -8.461  0.0000E+00  0.0000E+00  0.1600E+02  0.1600E+02
     -8.316  0.0000E+00  0.0000E+00  0.1600E+02  0.1600E+02
     -8.172  0.0000E+00  0.0000E+00  0.1600E+02  0.1600E+02
     -8.028  0.0000E+00  0.0000E+00  0.1600E+02  0.1600E+02
     -7.883  0.0000E+00  0.0000E+00  0.1600E+02  0.1600E+02
     -7.739  0.0000E+00  0.0000E+00  0.1600E+02  0.1600E+02
     -7.595  0.0000E+00  0.0000E+00  0.1600E+02  0.1600E+02
     -7.450  0.0000E+00  0.0000E+00  0.1600E+02  0.1600E+02
     -7.306  0.0000E+00  0.0000E+00  0.1600E+02  0.1600E+02
     -7.161  0.0000E+00  0.0000E+00  0.1600E+02  0.1600E+02
     -7.017  0.0000E+00  0.0000E+00  0.1600E+02  0.1600E+02
     -6.873  0.0000E+00  0.0000E+00  0.1600E+02  0.1600E+02
     -6.728  0.0000E+00  0.0000E+00  0.1600E+02  0.1600E+02
     -6.584  0.0000E+00  0.0000E+00  0.1600E+02  0.1600E+02
     -6.440  0.0000E+00  0.0000E+00  0.1600E+02  0.1600E+02
     -6.295  0.0000E+00  0.0000E+00  0.1600E+02  0.1600E+02
     -6.151  0.0000E+00  0.0000E+00  0.1600E+02  0.1600E+02
     -6.007  0.0000E+00  0.0000E+00  0.1600E+02  0.1600E+02
     -5.862  0.0000E+00  0.0000E+00  0.1600E+02  0.1600E+02
     -5.718  0.0000E+00  0.0000E+00  0.1600E+02  0.1600E+02
     -5.574  0.0000E+00  0.0000E+00  0.1600E+02  0.1600E+02
     -5.429  0.0000E+00  0.0000E+00  0.1600E+02  0.1600E+02
     -5.285  0.0000E+00  0.0000E+00  0.1600E+02  0.1600E+02
     -5.141  0.0000E+00  0.0000E+00  0.1600E+02  0.1600E+02
     -4.996  0.0000E+00  0.0000E+00  0.1600E+02  0.1600E+02
     -4.852  0.0000E+00  0.0000E+00  0.1600E+02  0.1600E+02
     -4.708  0.0000E+00  0.0000E+00  0.1600E+02  0.1600E+02
     -4.563  0.0000E+00  0.0000E+00  0.1600E+02  0.1600E+02
     -4.419  0.0000E+00  0.0000E+00  0.1600E+02  0.1600E+02
     -4.275  0.0000E+00  0.0000E+00  0.1600E+02  0.1600E+02
     -4.130  0.0000E+00  0.0000E+00  0.1600E+02  0.1600E+02
     -3.986  0.0000E+00  0.0000E+00  0.1600E+02  0.1600E+02
     -3.842  0.0000E+00  0.0000E+00  0.1600E+02  0.1600E+02
     -3.697  0.0000E+00  0.0000E+00  0.1600E+02  0.1600E+02
     -3.553  0.0000E+00  0.0000E+00  0.1600E+02  0.1600E+02
     -3.409  0.0000E+00  0.0000E+00  0.1600E+02  0.1600E+02
     -3.264  0.0000E+00  0.0000E+00  0.1600E+02  0.1600E+02
     -3.120  0.0000E+00  0.0000E+00  0.1600E+02  0.1600E+02
     -2.976  0.0000E+00  0.0000E+00  0.1600E+02  0.1600E+02
     -2.831  0.0000E+00  0.0000E+00  0.1600E+02  0.1600E+02
     -2.687  0.9072E-05  0.3923E-05  0.1600E+02  0.1600E+02
     -2.543  0.1930E-03  0.8775E-04  0.1600E+02  0.1600E+02
     -2.398  0.3369E-02  0.1575E-02  0.1600E+02  0.1600E+02
     -2.254  0.4154E-01  0.2297E-01  0.1601E+02  0.1600E+02
     -2.110  0.1693E+00  0.1302E+00  0.1603E+02  0.1602E+02
     -1.965  0.2933E+00  0.2632E+00  0.1607E+02  0.1606E+02
     -1.821  0.3811E+00  0.3599E+00  0.1613E+02  0.1611E+02
     -1.677  0.4677E+00  0.4488E+00  0.1620E+02  0.1618E+02
     -1.532  0.5347E+00  0.5068E+00  0.1627E+02  0.1625E+02
     -1.388  0.6030E+00  0.5967E+00  0.1636E+02  0.1634E+02
     -1.244  0.6732E+00  0.6475E+00  0.1646E+02  0.1643E+02
     -1.099  0.7604E+00  0.7435E+00  0.1657E+02  0.1654E+02
     -0.955  0.7873E+00  0.7680E+00  0.1668E+02  0.1665E+02
     -0.811  0.9260E+00  0.9048E+00  0.1682E+02  0.1678E+02
     -0.666  0.9299E+00  0.9168E+00  0.1695E+02  0.1691E+02
     -0.522  0.1078E+01  0.1046E+01  0.1711E+02  0.1706E+02
     -0.378  0.1137E+01  0.1116E+01  0.1727E+02  0.1722E+02
     -0.233  0.1220E+01  0.1200E+01  0.1745E+02  0.1740E+02
     -0.089  0.1396E+01  0.1353E+01  0.1765E+02  0.1759E+02
      0.055  0.1483E+01  0.1481E+01  0.1786E+02  0.1781E+02
      0.200  0.1776E+01  0.1698E+01  0.1812E+02  0.1805E+02
      0.344  0.1773E+01  0.1805E+01  0.1837E+02  0.1831E+02
      0.488  0.1883E+01  0.1826E+01  0.1865E+02  0.1858E+02
      0.633  0.1810E+01  0.1779E+01  0.1891E+02  0.1884E+02
      0.777  0.1976E+01  0.1950E+01  0.1919E+02  0.1912E+02
      0.921  0.1772E+01  0.1787E+01  0.1945E+02  0.1938E+02
      1.066  0.1865E+01  0.1766E+01  0.1972E+02  0.1963E+02
      1.210  0.2870E+01  0.2371E+01  0.2014E+02  0.1997E+02
      1.354  0.3092E+01  0.3356E+01  0.2058E+02  0.2046E+02
      1.499  0.3066E+01  0.3195E+01  0.2103E+02  0.2092E+02
      1.643  0.4217E+01  0.4167E+01  0.2164E+02  0.2152E+02
      1.788  0.5007E+01  0.5078E+01  0.2236E+02  0.2226E+02
      1.932  0.5160E+01  0.5051E+01  0.2310E+02  0.2299E+02
      2.076  0.5439E+01  0.5423E+01  0.2389E+02  0.2377E+02
      2.221  0.4516E+01  0.4640E+01  0.2454E+02  0.2444E+02
      2.365  0.3752E+01  0.3848E+01  0.2509E+02  0.2500E+02
      2.509  0.3282E+01  0.3336E+01  0.2556E+02  0.2548E+02
      2.654  0.2885E+01  0.2952E+01  0.2598E+02  0.2591E+02
      2.798  0.2655E+01  0.2706E+01  0.2636E+02  0.2630E+02
      2.942  0.2334E+01  0.2384E+01  0.2670E+02  0.2665E+02
      3.087  0.2138E+01  0.2236E+01  0.2701E+02  0.2697E+02
      3.231  0.1917E+01  0.1921E+01  0.2729E+02  0.2725E+02
      3.375  0.1759E+01  0.1718E+01  0.2754E+02  0.2750E+02
      3.520  0.1778E+01  0.1663E+01  0.2780E+02  0.2774E+02
      3.664  0.1144E+01  0.1388E+01  0.2797E+02  0.2794E+02
      3.808  0.2130E+00  0.3800E+00  0.2800E+02  0.2799E+02
      3.953  0.1176E-01  0.3626E-01  0.2800E+02  0.2800E+02
      4.097  0.0000E+00  0.1258E-02  0.2800E+02  0.2800E+02
      4.241  0.0000E+00  0.0000E+00  0.2800E+02  0.2800E+02
      4.386  0.0000E+00  0.0000E+00  0.2800E+02  0.2800E+02
      4.530  0.0000E+00  0.0000E+00  0.2800E+02  0.2800E+02
      4.674  0.0000E+00  0.0000E+00  0.2800E+02  0.2800E+02
      4.819  0.0000E+00  0.0000E+00  0.2800E+02  0.2800E+02
      4.963  0.0000E+00  0.0000E+00  0.2800E+02  0.2800E+02
      5.107  0.0000E+00  0.0000E+00  0.2800E+02  0.2800E+02
      5.252  0.0000E+00  0.0000E+00  0.2800E+02  0.2800E+02
      5.396  0.0000E+00  0.0000E+00  0.2800E+02  0.2800E+02
      5.540  0.0000E+00  0.0000E+00  0.2800E+02  0.2800E+02
      5.685  0.0000E+00  0.0000E+00  0.2800E+02  0.2800E+02
      5.68464627    -37.61693267  301      1.19313070      1.00000000
    -37.617  0.0000E+00  0.0000E+00  0.0000E+00  0.0000E+00  0.0000E+00  0.0000E+00  0.0000E+00  0.0000E+00  0.0000E+00  0.0000E+00  0.0000E+00  0.0000E+00  0.0000E+00  0.0000E+00  0.0000E+00  0.0000E+00  0.0000E+00  0.0000E+00
    -37.473  0.0000E+00  0.0000E+00  0.0000E+00  0.0000E+00  0.0000E+00  0.0000E+00  0.0000E+00  0.0000E+00  0.0000E+00  0.0000E+00  0.0000E+00  0.0000E+00  0.0000E+00  0.0000E+00  0.0000E+00  0.0000E+00  0.0000E+00  0.0000E+00
    -37.328  0.0000E+00  0.0000E+00  0.0000E+00  0.0000E+00  0.0000E+00  0.0000E+00  0.0000E+00  0.0000E+00  0.0000E+00  0.0000E+00  0.0000E+00  0.0000E+00  0.0000E+00  0.0000E+00  0.0000E+00  0.0000E+00  0.0000E+00  0.0000E+00
    -37.184  0.0000E+00  0.0000E+00  0.0000E+00  0.0000E+00  0.0000E+00  0.0000E+00  0.0000E+00  0.0000E+00  0.0000E+00  0.0000E+00  0.0000E+00  0.0000E+00  0.0000E+00  0.0000E+00  0.0000E+00  0.0000E+00  0.0000E+00  0.0000E+00
    -37.040  0.0000E+00  0.0000E+00  0.0000E+00  0.0000E+00  0.0000E+00  0.0000E+00  0.0000E+00  0.0000E+00  0.0000E+00  0.0000E+00  0.0000E+00  0.0000E+00  0.0000E+00  0.0000E+00  0.0000E+00  0.0000E+00  0.0000E+00  0.0000E+00
    -36.895  0.0000E+00  0.0000E+00  0.0000E+00  0.0000E+00  0.0000E+00  0.0000E+00  0.0000E+00  0.0000E+00  0.0000E+00  0.0000E+00  0.0000E+00  0.0000E+00  0.0000E+00  0.0000E+00  0.0000E+00  0.0000E+00  0.0000E+00  0.0000E+00
    -36.751  0.0000E+00  0.0000E+00  0.0000E+00  0.0000E+00  0.0000E+00  0.0000E+00  0.0000E+00  0.0000E+00  0.0000E+00  0.0000E+00  0.0000E+00  0.0000E+00  0.0000E+00  0.0000E+00  0.0000E+00  0.0000E+00  0.0000E+00  0.0000E+00
    -36.607  0.0000E+00  0.0000E+00  0.0000E+00  0.0000E+00  0.0000E+00  0.0000E+00  0.0000E+00  0.0000E+00  0.0000E+00  0.0000E+00  0.0000E+00  0.0000E+00  0.0000E+00  0.0000E+00  0.0000E+00  0.0000E+00  0.0000E+00  0.0000E+00
    -36.462  0.0000E+00  0.0000E+00  0.0000E+00  0.0000E+00  0.0000E+00  0.0000E+00  0.0000E+00  0.0000E+00  0.0000E+00  0.0000E+00  0.0000E+00  0.0000E+00  0.0000E+00  0.0000E+00  0.0000E+00  0.0000E+00  0.0000E+00  0.0000E+00
    -36.318  0.0000E+00  0.0000E+00  0.0000E+00  0.0000E+00  0.0000E+00  0.0000E+00  0.0000E+00  0.0000E+00  0.0000E+00  0.0000E+00  0.0000E+00  0.0000E+00  0.0000E+00  0.0000E+00  0.0000E+00  0.0000E+00  0.0000E+00  0.0000E+00
    -36.174  0.1603E-03  0.1472E-03  0.3744E-11  0.3442E-11  0.3744E-11  0.3442E-11  0.3744E-11  0.3442E-11  0.1095E-11  0.9977E-12  0.1095E-11  0.9977E-12  0.5311E-12  0.4837E-12  0.1095E-11  0.9977E-12  0.5311E-12  0.4837E-12
    -36.029  0.2714E-02  0.2492E-02  0.6338E-10  0.5827E-10  0.6338E-10  0.5827E-10  0.6338E-10  0.5827E-10  0.1853E-10  0.1689E-10  0.1853E-10  0.1689E-10  0.8991E-11  0.8189E-11  0.1853E-10  0.1689E-10  0.8991E-11  0.8189E-11
    -35.885  0.4831E-01  0.4439E-01  0.1128E-08  0.1038E-08  0.1128E-08  0.1038E-08  0.1128E-08  0.1038E-08  0.3298E-09  0.3008E-09  0.3298E-09  0.3008E-09  0.1601E-09  0.1459E-09  0.3298E-09  0.3008E-09  0.1601E-09  0.1459E-09
    -35.741  0.7627E+00  0.7077E+00  0.1775E-07  0.1650E-07  0.1775E-07  0.1650E-07  0.1775E-07  0.1650E-07  0.5208E-08  0.4798E-08  0.5208E-08  0.4798E-08  0.2536E-08  0.2333E-08  0.5208E-08  0.4798E-08  0.2536E-08  0.2333E-08
    -35.596  0.4001E+01  0.3939E+01  0.9142E-07  0.9017E-07  0.9142E-07  0.9017E-07  0.9142E-07  0.9017E-07  0.2735E-07  0.2672E-07  0.2735E-07  0.2672E-07  0.1356E-07  0.1323E-07  0.2735E-07  0.2672E-07  0.1356E-07  0.1323E-07
    -35.452  0.1822E+01  0.1930E+01  0.4069E-07  0.4318E-07  0.4069E-07  0.4318E-07  0.4069E-07  0.4318E-07  0.1245E-07  0.1309E-07  0.1245E-07  0.1309E-07  0.6310E-08  0.6625E-08  0.1245E-07  0.1309E-07  0.6310E-08  0.6625E-08
    -35.308  0.1431E+00  0.1555E+00  0.3172E-08  0.3451E-08  0.3172E-08  0.3451E-08  0.3172E-08  0.3451E-08  0.9777E-09  0.1054E-08  0.9777E-09  0.1054E-08  0.4993E-09  0.5379E-09  0.9777E-09  0.1054E-08  0.4993E-09  0.5379E-09
    -35.163  0.0000E+00  0.0000E+00  0.0000E+00  0.0000E+00  0.0000E+00  0.0000E+00  0.0000E+00  0.0000E+00  0.0000E+00  0.0000E+00  0.0000E+00  0.0000E+00  0.0000E+00  0.0000E+00  0.0000E+00  0.0000E+00  0.0000E+00  0.0000E+00
    -35.019  0.0000E+00  0.0000E+00  0.0000E+00  0.0000E+00  0.0000E+00  0.0000E+00  0.0000E+00  0.0000E+00  0.0000E+00  0.0000E+00  0.0000E+00  0.0000E+00  0.0000E+00  0.0000E+00  0.0000E+00  0.0000E+00  0.0000E+00  0.0000E+00
    -34.874  0.0000E+00  0.0000E+00  0.0000E+00  0.0000E+00  0.0000E+00  0.0000E+00  0.0000E+00  0.0000E+00  0.0000E+00  0.0000E+00  0.0000E+00  0.0000E+00  0.0000E+00  0.0000E+00  0.0000E+00  0.0000E+00  0.0000E+00  0.0000E+00
    -34.730  0.0000E+00  0.0000E+00  0.0000E+00  0.0000E+00  0.0000E+00  0.0000E+00  0.0000E+00  0.0000E+00  0.0000E+00  0.0000E+00  0.0000E+00  0.0000E+00  0.0000E+00  0.0000E+00  0.0000E+00  0.0000E+00  0.0000E+00  0.0000E+00
    -34.586  0.0000E+00  0.0000E+00  0.0000E+00  0.0000E+00  0.0000E+00  0.0000E+00  0.0000E+00  0.0000E+00  0.0000E+00  0.0000E+00  0.0000E+00  0.0000E+00  0.0000E+00  0.0000E+00  0.0000E+00  0.0000E+00  0.0000E+00  0.0000E+00
    -34.441  0.0000E+00  0.0000E+00  0.0000E+00  0.0000E+00  0.0000E+00  0.0000E+00  0.0000E+00  0.0000E+00  0.0000E+00  0.0000E+00  0.0000E+00  0.0000E+00  0.0000E+00  0.0000E+00  0.0000E+00  0.0000E+00  0.0000E+00  0.0000E+00
    -34.297  0.0000E+00  0.0000E+00  0.0000E+00  0.0000E+00  0.0000E+00  0.0000E+00  0.0000E+00  0.0000E+00  0.0000E+00  0.0000E+00  0.0000E+00  0.0000E+00  0.0000E+00  0.0000E+00  0.0000E+00  0.0000E+00  0.0000E+00  0.0000E+00
    -34.153  0.0000E+00  0.0000E+00  0.0000E+00  0.0000E+00  0.0000E+00  0.0000E+00  0.0000E+00  0.0000E+00  0.0000E+00  0.0000E+00  0.0000E+00  0.0000E+00  0.0000E+00  0.0000E+00  0.0000E+00  0.0000E+00  0.0000E+00  0.0000E+00
    -34.008  0.0000E+00  0.0000E+00  0.0000E+00  0.0000E+00  0.0000E+00  0.0000E+00  0.0000E+00  0.0000E+00  0.0000E+00  0.0000E+00  0.0000E+00  0.0000E+00  0.0000E+00  0.0000E+00  0.0000E+00  0.0000E+00  0.0000E+00  0.0000E+00
    -33.864  0.0000E+00  0.0000E+00  0.0000E+00  0.0000E+00  0.0000E+00  0.0000E+00  0.0000E+00  0.0000E+00  0.0000E+00  0.0000E+00  0.0000E+00  0.0000E+00  0.0000E+00  0.0000E+00  0.0000E+00  0.0000E+00  0.0000E+00  0.0000E+00
    -33.720  0.0000E+00  0.0000E+00  0.0000E+00  0.0000E+00  0.0000E+00  0.0000E+00  0.0000E+00  0.0000E+00  0.0000E+00  0.0000E+00  0.0000E+00  0.0000E+00  0.0000E+00  0.0000E+00  0.0000E+00  0.0000E+00  0.0000E+00  0.0000E+00
    -33.575  0.0000E+00  0.0000E+00  0.0000E+00  0.0000E+00  0.0000E+00  0.0000E+00  0.0000E+00  0.0000E+00  0.0000E+00  0.0000E+00  0.0000E+00  0.0000E+00  0.0000E+00  0.0000E+00  0.0000E+00  0.0000E+00  0.0000E+00  0.0000E+00
    -33.431  0.0000E+00  0.0000E+00  0.0000E+00  0.0000E+00  0.0000E+00  0.0000E+00  0.0000E+00  0.0000E+00  0.0000E+00  0.0000E+00  0.0000E+00  0.0000E+00  0.0000E+00  0.0000E+00  0.0000E+00  0.0000E+00  0.0000E+00  0.0000E+00
    -33.287  0.0000E+00  0.0000E+00  0.0000E+00  0.0000E+00  0.0000E+00  0.0000E+00  0.0000E+00  0.0000E+00  0.0000E+00  0.0000E+00  0.0000E+00  0.0000E+00  0.0000E+00  0.0000E+00  0.0000E+00  0.0000E+00  0.0000E+00  0.0000E+00
    -33.142  0.0000E+00  0.0000E+00  0.0000E+00  0.0000E+00  0.0000E+00  0.0000E+00  0.0000E+00  0.0000E+00  0.0000E+00  0.0000E+00  0.0000E+00  0.0000E+00  0.0000E+00  0.0000E+00  0.0000E+00  0.0000E+00  0.0000E+00  0.0000E+00
    -32.998  0.0000E+00  0.0000E+00  0.0000E+00  0.0000E+00  0.0000E+00  0.0000E+00  0.0000E+00  0.0000E+00  0.0000E+00  0.0000E+00  0.0000E+00  0.0000E+00  0.0000E+00  0.0000E+00  0.0000E+00  0.0000E+00  0.0000E+00  0.0000E+00
    -32.854  0.0000E+00  0.0000E+00  0.0000E+00  0.0000E+00  0.0000E+00  0.0000E+00  0.0000E+00  0.0000E+00  0.0000E+00  0.0000E+00  0.0000E+00  0.0000E+00  0.0000E+00  0.0000E+00  0.0000E+00  0.0000E+00  0.0000E+00  0.0000E+00
    -32.709  0.0000E+00  0.0000E+00  0.0000E+00  0.0000E+00  0.0000E+00  0.0000E+00  0.0000E+00  0.0000E+00  0.0000E+00  0.0000E+00  0.0000E+00  0.0000E+00  0.0000E+00  0.0000E+00  0.0000E+00  0.0000E+00  0.0000E+00  0.0000E+00
    -32.565  0.0000E+00  0.0000E+00  0.0000E+00  0.0000E+00  0.0000E+00  0.0000E+00  0.0000E+00  0.0000E+00  0.0000E+00  0.0000E+00  0.0000E+00  0.0000E+00  0.0000E+00  0.0000E+00  0.0000E+00  0.0000E+00  0.0000E+00  0.0000E+00
    -32.421  0.0000E+00  0.0000E+00  0.0000E+00  0.0000E+00  0.0000E+00  0.0000E+00  0.0000E+00  0.0000E+00  0.0000E+00  0.0000E+00  0.0000E+00  0.0000E+00  0.0000E+00  0.0000E+00  0.0000E+00  0.0000E+00  0.0000E+00  0.0000E+00
    -32.276  0.0000E+00  0.0000E+00  0.0000E+00  0.0000E+00  0.0000E+00  0.0000E+00  0.0000E+00  0.0000E+00  0.0000E+00  0.0000E+00  0.0000E+00  0.0000E+00  0.0000E+00  0.0000E+00  0.0000E+00  0.0000E+00  0.0000E+00  0.0000E+00
    -32.132  0.0000E+00  0.0000E+00  0.0000E+00  0.0000E+00  0.0000E+00  0.0000E+00  0.0000E+00  0.0000E+00  0.0000E+00  0.0000E+00  0.0000E+00  0.0000E+00  0.0000E+00  0.0000E+00  0.0000E+00  0.0000E+00  0.0000E+00  0.0000E+00
    -31.988  0.0000E+00  0.0000E+00  0.0000E+00  0.0000E+00  0.0000E+00  0.0000E+00  0.0000E+00  0.0000E+00  0.0000E+00  0.0000E+00  0.0000E+00  0.0000E+00  0.0000E+00  0.0000E+00  0.0000E+00  0.0000E+00  0.0000E+00  0.0000E+00
    -31.843  0.0000E+00  0.0000E+00  0.0000E+00  0.0000E+00  0.0000E+00  0.0000E+00  0.0000E+00  0.0000E+00  0.0000E+00  0.0000E+00  0.0000E+00  0.0000E+00  0.0000E+00  0.0000E+00  0.0000E+00  0.0000E+00  0.0000E+00  0.0000E+00
    -31.699  0.0000E+00  0.0000E+00  0.0000E+00  0.0000E+00  0.0000E+00  0.0000E+00  0.0000E+00  0.0000E+00  0.0000E+00  0.0000E+00  0.0000E+00  0.0000E+00  0.0000E+00  0.0000E+00  0.0000E+00  0.0000E+00  0.0000E+00  0.0000E+00
    -31.555  0.0000E+00  0.0000E+00  0.0000E+00  0.0000E+00  0.0000E+00  0.0000E+00  0.0000E+00  0.0000E+00  0.0000E+00  0.0000E+00  0.0000E+00  0.0000E+00  0.0000E+00  0.0000E+00  0.0000E+00  0.0000E+00  0.0000E+00  0.0000E+00
    -31.410  0.0000E+00  0.0000E+00  0.0000E+00  0.0000E+00  0.0000E+00  0.0000E+00  0.0000E+00  0.0000E+00  0.0000E+00  0.0000E+00  0.0000E+00  0.0000E+00  0.0000E+00  0.0000E+00  0.0000E+00  0.0000E+00  0.0000E+00  0.0000E+00
    -31.266  0.0000E+00  0.0000E+00  0.0000E+00  0.0000E+00  0.0000E+00  0.0000E+00  0.0000E+00  0.0000E+00  0.0000E+00  0.0000E+00  0.0000E+00  0.0000E+00  0.0000E+00  0.0000E+00  0.0000E+00  0.0000E+00  0.0000E+00  0.0000E+00
    -31.122  0.0000E+00  0.0000E+00  0.0000E+00  0.0000E+00  0.0000E+00  0.0000E+00  0.0000E+00  0.0000E+00  0.0000E+00  0.0000E+00  0.0000E+00  0.0000E+00  0.0000E+00  0.0000E+00  0.0000E+00  0.0000E+00  0.0000E+00  0.0000E+00
    -30.977  0.0000E+00  0.0000E+00  0.0000E+00  0.0000E+00  0.0000E+00  0.0000E+00  0.0000E+00  0.0000E+00  0.0000E+00  0.0000E+00  0.0000E+00  0.0000E+00  0.0000E+00  0.0000E+00  0.0000E+00  0.0000E+00  0.0000E+00  0.0000E+00
    -30.833  0.0000E+00  0.0000E+00  0.0000E+00  0.0000E+00  0.0000E+00  0.0000E+00  0.0000E+00  0.0000E+00  0.0000E+00  0.0000E+00  0.0000E+00  0.0000E+00  0.0000E+00  0.0000E+00  0.0000E+00  0.0000E+00  0.0000E+00  0.0000E+00
    -30.689  0.0000E+00  0.0000E+00  0.0000E+00  0.0000E+00  0.0000E+00  0.0000E+00  0.0000E+00  0.0000E+00  0.0000E+00  0.0000E+00  0.0000E+00  0.0000E+00  0.0000E+00  0.0000E+00  0.0000E+00  0.0000E+00  0.0000E+00  0.0000E+00
    -30.544  0.0000E+00  0.0000E+00  0.0000E+00  0.0000E+00  0.0000E+00  0.0000E+00  0.0000E+00  0.0000E+00  0.0000E+00  0.0000E+00  0.0000E+00  0.0000E+00  0.0000E+00  0.0000E+00  0.0000E+00  0.0000E+00  0.0000E+00  0.0000E+00
    -30.400  0.0000E+00  0.0000E+00  0.0000E+00  0.0000E+00  0.0000E+00  0.0000E+00  0.0000E+00  0.0000E+00  0.0000E+00  0.0000E+00  0.0000E+00  0.0000E+00  0.0000E+00  0.0000E+00  0.0000E+00  0.0000E+00  0.0000E+00  0.0000E+00