   4   4   1   0
  0.5651349E+02  0.6091684E-09  0.6091684E-09  0.6091684E-09  0.5000000E-15
  1.000000000000000E-004
  CAR 
 unknown system                          
      6.08637404    -37.15081902  301      1.49080422      1.00000000
    -37.151  0.0000E+00  0.0000E+00  0.0000E+00  0.0000E+00
    -37.007  0.0000E+00  0.0000E+00  0.0000E+00  0.0000E+00
    -36.863  0.0000E+00  0.0000E+00  0.0000E+00  0.0000E+00
    -36.718  0.0000E+00  0.0000E+00  0.0000E+00  0.0000E+00
    -36.574  0.0000E+00  0.0000E+00  0.0000E+00  0.0000E+00
    -36.430  0.0000E+00  0.0000E+00  0.0000E+00  0.0000E+00
    -36.286  0.0000E+00  0.0000E+00  0.0000E+00  0.0000E+00
    -36.142  0.0000E+00  0.0000E+00  0.0000E+00  0.0000E+00
    -35.998  0.0000E+00  0.0000E+00  0.0000E+00  0.0000E+00
    -35.854  0.0000E+00  0.0000E+00  0.0000E+00  0.0000E+00
    -35.710  0.6120E-03  0.5700E-03  0.8820E-04  0.8215E-04
    -35.565  0.1031E-01  0.9606E-02  0.1575E-02  0.1467E-02
    -35.421  0.1829E+00  0.1704E+00  0.2793E-01  0.2603E-01
    -35.277  0.2901E+01  0.2725E+01  0.4461E+00  0.4187E+00
    -35.133  0.1608E+02  0.1584E+02  0.2764E+01  0.2702E+01
    -34.989  0.7900E+01  0.8277E+01  0.3902E+01  0.3895E+01
    -34.845  0.6402E+00  0.6861E+00  0.3994E+01  0.3994E+01
    -34.701  0.0000E+00  0.0000E+00  0.4000E+01  0.4000E+01
    -34.557  0.0000E+00  0.0000E+00  0.4000E+01  0.4000E+01
    -34.412  0.0000E+00  0.0000E+00  0.4000E+01  0.4000E+01
    -34.268  0.0000E+00  0.0000E+00  0.4000E+01  0.4000E+01
    -34.124  0.0000E+00  0.0000E+00  0.4000E+01  0.4000E+01
    -33.980  0.0000E+00  0.0000E+00  0.4000E+01  0.4000E+01
    -33.836  0.0000E+00  0.0000E+00  0.4000E+01  0.4000E+01
    -33.692  0.0000E+00  0.0000E+00  0.4000E+01  0.4000E+01
    -33.548  0.0000E+00  0.0000E+00  0.4000E+01  0.4000E+01
    -33.404  0.0000E+00  0.0000E+00  0.4000E+01  0.4000E+01
    -33.259  0.0000E+00  0.0000E+00  0.4000E+01  0.4000E+01
    -33.115  0.0000E+00  0.0000E+00  0.4000E+01  0.4000E+01
    -32.971  0.0000E+00  0.0000E+00  0.4000E+01  0.4000E+01
    -32.827  0.0000E+00  0.0000E+00  0.4000E+01  0.4000E+01
    -32.683  0.0000E+00  0.0000E+00  0.4000E+01  0.4000E+01
    -32.539  0.0000E+00  0.0000E+00  0.4000E+01  0.4000E+01
    -32.395  0.0000E+00  0.0000E+00  0.4000E+01  0.4000E+01
    -32.251  0.0000E+00  0.0000E+00  0.4000E+01  0.4000E+01
    -32.106  0.0000E+00  0.0000E+00  0.4000E+01  0.4000E+01
    -31.962  0.0000E+00  0.0000E+00  0.4000E+01  0.4000E+01
    -31.818  0.0000E+00  0.0000E+00  0.4000E+01  0.4000E+01
    -31.674  0.0000E+00  0.0000E+00  0.4000E+01  0.4000E+01
    -31.530  0.0000E+00  0.0000E+00  0.4000E+01  0.4000E+01
    -31.386  0.0000E+00  0.0000E+00  0.4000E+01  0.4000E+01
    -31.242  0.0000E+00  0.0000E+00  0.4000E+01  0.4000E+01
    -31.098  0.0000E+00  0.0000E+00  0.4000E+01  0.4000E+01
    -30.953  0.0000E+00  0.0000E+00  0.4000E+01  0.4000E+01
    -30.809  0.0000E+00  0.0000E+00  0.4000E+01  0.4000E+01
    -30.665  0.0000E+00  0.0000E+00  0.4000E+01  0.4000E+01
    -30.521  0.0000E+00  0.0000E+00  0.4000E+01  0.4000E+01
    -30.377  0.0000E+00  0.0000E+00  0.4000E+01  0.4000E+01
    -30.233  0.0000E+00  0.0000E+00  0.4000E+01  0.4000E+01
    -30.089  0.0000E+00  0.0000E+00  0.4000E+01  0.4000E+01
    -29.945  0.0000E+00  0.0000E+00  0.4000E+01  0.4000E+01
    -29.800  0.0000E+00  0.0000E+00  0.4000E+01  0.4000E+01
    -29.656  0.0000E+00  0.0000E+00  0.4000E+01  0.4000E+01
    -29.512  0.0000E+00  0.0000E+00  0.4000E+01  0.4000E+01
    -29.368  0.0000E+00  0.0000E+00  0.4000E+01  0.4000E+01
    -29.224  0.0000E+00  0.0000E+00  0.4000E+01  0.4000E+01
    -29.080  0.0000E+00  0.0000E+00  0.4000E+01  0.4000E+01
    -28.936  0.0000E+00  0.0000E+00  0.4000E+01  0.4000E+01
    -28.792  0.0000E+00  0.0000E+00  0.4000E+01  0.4000E+01
    -28.648  0.0000E+00  0.0000E+00  0.4000E+01  0.4000E+01
    -28.503  0.0000E+00  0.0000E+00  0.4000E+01  0.4000E+01
    -28.359  0.0000E+00  0.0000E+00  0.4000E+01  0.4000E+01
    -28.215  0.0000E+00  0.0000E+00  0.4000E+01  0.4000E+01
    -28.071  0.0000E+00  0.0000E+00  0.4000E+01  0.4000E+01
    -27.927  0.0000E+00  0.0000E+00  0.4000E+01  0.4000E+01
    -27.783  0.0000E+00  0.0000E+00  0.4000E+01  0.4000E+01
    -27.639  0.0000E+00  0.0000E+00  0.4000E+01  0.4000E+01
    -27.495  0.0000E+00  0.0000E+00  0.4000E+01  0.4000E+01
    -27.350  0.0000E+00  0.0000E+00  0.4000E+01  0.4000E+01
    -27.206  0.0000E+00  0.0000E+00  0.4000E+01  0.4000E+01
    -27.062  0.0000E+00  0.0000E+00  0.4000E+01  0.4000E+01
    -26.918  0.0000E+00  0.0000E+00  0.4000E+01  0.4000E+01
    -26.774  0.0000E+00  0.0000E+00  0.4000E+01  0.4000E+01
    -26.630  0.0000E+00  0.0000E+00  0.4000E+01  0.4000E+01
    -26.486  0.0000E+00  0.0000E+00  0.4000E+01  0.4000E+01
    -26.342  0.0000E+00  0.0000E+00  0.4000E+01  0.4000E+01
    -26.197  0.0000E+00  0.0000E+00  0.4000E+01  0.4000E+01
    -26.053  0.0000E+00  0.0000E+00  0.4000E+01  0.4000E+01
    -25.909  0.0000E+00  0.0000E+00  0.4000E+01  0.4000E+01
    -25.765  0.0000E+00  0.0000E+00  0.4000E+01  0.4000E+01
    -25.621  0.0000E+00  0.0000E+00  0.4000E+01  0.4000E+01
    -25.477  0.0000E+00  0.0000E+00  0.4000E+01  0.4000E+01
    -25.333  0.0000E+00  0.0000E+00  0.4000E+01  0.4000E+01
    -25.189  0.0000E+00  0.0000E+00  0.4000E+01  0.4000E+01
    -25.044  0.0000E+00  0.0000E+00  0.4000E+01  0.4000E+01
    -24.900  0.0000E+00  0.0000E+00  0.4000E+01  0.4000E+01
    -24.756  0.0000E+00  0.0000E+00  0.4000E+01  0.4000E+01
    -24.612  0.0000E+00  0.0000E+00  0.4000E+01  0.4000E+01
    -24.468  0.0000E+00  0.0000E+00  0.4000E+01  0.4000E+01
    -24.324  0.0000E+00  0.0000E+00  0.4000E+01  0.4000E+01
    -24.180  0.0000E+00  0.0000E+00  0.4000E+01  0.4000E+01
    -24.036  0.0000E+00  0.0000E+00  0.4000E+01  0.4000E+01
    -23.891  0.0000E+00  0.0000E+00  0.4000E+01  0.4000E+01
    -23.747  0.0000E+00  0.0000E+00  0.4000E+01  0.4000E+01
    -23.603  0.0000E+00  0.0000E+00  0.4000E+01  0.4000E+01
    -23.459  0.0000E+00  0.0000E+00  0.4000E+01  0.4000E+01
    -23.315  0.0000E+00  0.0000E+00  0.4000E+01  0.4000E+01
    -23.171  0.0000E+00  0.0000E+00  0.4000E+01  0.4000E+01
    -23.027  0.0000E+00  0.0000E+00  0.4000E+01  0.4000E+01
    -22.883  0.0000E+00  0.0000E+00  0.4000E+01  0.4000E+01
    -22.738  0.0000E+00  0.0000E+00  0.4000E+01  0.4000E+01
    -22.594  0.0000E+00  0.0000E+00  0.4000E+01  0.4000E+01
    -22.450  0.0000E+00  0.0000E+00  0.4000E+01  0.4000E+01
    -22.306  0.0000E+00  0.0000E+00  0.4000E+01  0.4000E+01
    -22.162  0.0000E+00  0.0000E+00  0.4000E+01  0.4000E+01
    -22.018  0.0000E+00  0.0000E+00  0.4000E+01  0.4000E+01
    -21.874  0.0000E+00  0.0000E+00  0.4000E+01  0.4000E+01
    -21.730  0.0000E+00  0.0000E+00  0.4000E+01  0.4000E+01
    -21.585  0.0000E+00  0.0000E+00  0.4000E+01  0.4000E+01
    -21.441  0.0000E+00  0.0000E+00  0.4000E+01  0.4000E+01
    -21.297  0.0000E+00  0.0000E+00  0.4000E+01  0.4000E+01
    -21.153  0.0000E+00  0.0000E+00  0.4000E+01  0.4000E+01
    -21.009  0.0000E+00  0.0000E+00  0.4000E+01  0.4000E+01
    -20.865  0.0000E+00  0.0000E+00  0.4000E+01  0.4000E+01
    -20.721  0.0000E+00  0.0000E+00  0.4000E+01  0.4000E+01
    -20.577  0.0000E+00  0.0000E+00  0.4000E+01  0.4000E+01
    -20.432  0.0000E+00  0.0000E+00  0.4000E+01  0.4000E+01
    -20.288  0.0000E+00  0.0000E+00  0.4000E+01  0.4000E+01
    -20.144  0.0000E+00  0.0000E+00  0.4000E+01  0.4000E+01
    -20.000  0.0000E+00  0.0000E+00  0.4000E+01  0.4000E+01
    -19.856  0.0000E+00  0.0000E+00  0.4000E+01  0.4000E+01
    -19.712  0.0000E+00  0.0000E+00  0.4000E+01  0.4000E+01
    -19.568  0.0000E+00  0.0000E+00  0.4000E+01  0.4000E+01
    -19.424  0.0000E+00  0.0000E+00  0.4000E+01  0.4000E+01
    -19.279  0.0000E+00  0.0000E+00  0.4000E+01  0.4000E+01
    -19.135  0.0000E+00  0.0000E+00  0.4000E+01  0.4000E+01
    -18.991  0.0000E+00  0.0000E+00  0.4000E+01  0.4000E+01
    -18.847  0.0000E+00  0.0000E+00  0.4000E+01  0.4000E+01
    -18.703  0.0000E+00  0.0000E+00  0.4000E+01  0.4000E+01
    -18.559  0.0000E+00  0.0000E+00  0.4000E+01  0.4000E+01
    -18.415  0.0000E+00  0.0000E+00  0.4000E+01  0.4000E+01
    -18.271  0.0000E+00  0.0000E+00  0.4000E+01  0.4000E+01
    -18.126  0.0000E+00  0.0000E+00  0.4000E+01  0.4000E+01
    -17.982  0.0000E+00  0.0000E+00  0.4000E+01  0.4000E+01
    -17.838  0.0000E+00  0.0000E+00  0.4000E+01  0.4000E+01
    -17.694  0.2097E-02  0.1908E-02  0.4000E+01  0.4000E+01
    -17.550  0.4403E-01  0.4079E-01  0.4007E+01  0.4006E+01
    -17.406  0.7627E+00  0.7070E+00  0.4117E+01  0.4108E+01
    -17.262  0.1034E+02  0.9752E+01  0.5607E+01  0.5514E+01
    -17.118  0.4189E+02  0.4128E+02  0.1164E+02  0.1146E+02
    -16.973  0.2708E+02  0.2811E+02  0.1555E+02  0.1551E+02
    -16.829  0.2927E+01  0.3152E+01  0.1597E+02  0.1597E+02
    -16.685  0.9398E-02  0.1775E-01  0.1600E+02  0.1600E+02
    -16.541  0.0000E+00  0.0000E+00  0.1600E+02  0.1600E+02
    -16.397  0.0000E+00  0.0000E+00  0.1600E+02  0.1600E+02
    -16.253  0.0000E+00  0.0000E+00  0.1600E+02  0.1600E+02
    -16.109  0.0000E+00  0.0000E+00  0.1600E+02  0.1600E+02
    -15.965  0.0000E+00  0.0000E+00  0.1600E+02  0.1600E+02
    -15.820  0.0000E+00  0.0000E+00  0.1600E+02  0.1600E+02
    -15.676  0.0000E+00  0.0000E+00  0.1600E+02  0.1600E+02
    -15.532  0.0000E+00  0.0000E+00  0.1600E+02  0.1600E+02
    -15.388  0.0000E+00  0.0000E+00  0.1600E+02  0.1600E+02
    -15.244  0.0000E+00  0.0000E+00  0.1600E+02  0.1600E+02
    -15.100  0.0000E+00  0.0000E+00  0.1600E+02  0.1600E+02
    -14.956  0.0000E+00  0.0000E+00  0.1600E+02  0.1600E+02
    -14.812  0.0000E+00  0.0000E+00  0.1600E+02  0.1600E+02
    -14.667  0.0000E+00  0.0000E+00  0.1600E+02  0.1600E+02
    -14.523  0.0000E+00  0.0000E+00  0.1600E+02  0.1600E+02
    -14.379  0.0000E+00  0.0000E+00  0.1600E+02  0.1600E+02
    -14.235  0.0000E+00  0.0000E+00  0.1600E+02  0.1600E+02
    -14.091  0.0000E+00  0.0000E+00  0.1600E+02  0.1600E+02
    -13.947  0.0000E+00  0.0000E+00  0.1600E+02  0.1600E+02
    -13.803  0.0000E+00  0.0000E+00  0.1600E+02  0.1600E+02
    -13.659  0.0000E+00  0.0000E+00  0.1600E+02  0.1600E+02
    -13.514  0.0000E+00  0.0000E+00  0.1600E+02  0.1600E+02
    -13.370  0.0000E+00  0.0000E+00  0.1600E+02  0.1600E+02
    -13.226  0.0000E+00  0.0000E+00  0.1600E+02  0.1600E+02
    -13.082  0.0000E+00  0.0000E+00  0.1600E+02  0.1600E+02
    -12.938  0.0000E+00  0.0000E+00  0.1600E+02  0.1600E+02
    -12.794  0.0000E+00  0.0000E+00  0.1600E+02  0.1600E+02
    -12.650  0.0000E+00  0.0000E+00  0.1600E+02  0.1600E+02
    -12.506  0.0000E+00  0.0000E+00  0.1600E+02  0.1600E+02
    -12.361  0.0000E+00  0.0000E+00  0.1600E+02  0.1600E+02
    -12.217  0.0000E+00  0.0000E+00  0.1600E+02  0.1600E+02
    -12.073  0.0000E+00  0.0000E+00  0.1600E+02  0.1600E+02
    -11.929  0.0000E+00  0.0000E+00  0.1600E+02  0.1600E+02
    -11.785  0.0000E+00  0.0000E+00  0.1600E+02  0.1600E+02
    -11.641  0.0000E+00  0.0000E+00  0.1600E+02  0.1600E+02
    -11.497  0.0000E+00  0.0000E+00  0.1600E+02  0.1600E+02
    -11.353  0.0000E+00  0.0000E+00  0.1600E+02  0.1600E+02
    -11.209  0.0000E+00  0.0000E+00  0.1600E+02  0.1600E+02
    -11.064  0.0000E+00  0.0000E+00  0.1600E+02  0.1600E+02
    -10.920  0.0000E+00  0.0000E+00  0.1600E+02  0.1600E+02
    -10.776  0.0000E+00  0.0000E+00  0.1600E+02  0.1600E+02
    -10.632  0.0000E+00  0.0000E+00  0.1600E+02  0.1600E+02
    -10.488  0.0000E+00  0.0000E+00  0.1600E+02  0.1600E+02
    -10.344  0.0000E+00  0.0000E+00  0.1600E+02  0.1600E+02
    -10.200  0.0000E+00  0.0000E+00  0.1600E+02  0.1600E+02
    -10.056  0.0000E+00  0.0000E+00  0.1600E+02  0.1600E+02
     -9.911  0.0000E+00  0.0000E+00  0.1600E+02  0.1600E+02
     -9.767  0.0000E+00  0.0000E+00  0.1600E+02  0.1600E+02
     -9.623  0.0000E+00  0.0000E+00  0.1600E+02  0.1600E+02
     -9.479  0.0000E+00  0.0000E+00  0.1600E+02  0.1600E+02
     -9.335  0.0000E+00  0.0000E+00  0.1600E+02  0.1600E+02
     -9.191  0.0000E+00  0.0000E+00  0.1600E+02  0.1600E+02
     -9.047  0.0000E+00  0.0000E+00  0.1600E+02  0.1600E+02
     -8.903  0.0000E+00  0.0000E+00  0.1600E+02  0.1600E+02
     -8.758  0.0000E+00  0.0000E+00  0.1600E+02  0.1600E+02
     -8.614  0.0000E+00  0.0000E+00  0.1600E+02  0.1600E+02
     -8.470  0.0000E+00  0.0000E+00  0.1600E+02  0.1600E+02
     -8.326  0.0000E+00  0.0000E+00  0.1600E+02  0.1600E+02
     -8.182  0.0000E+00  0.0000E+00  0.1600E+02  0.1600E+02
     -8.038  0.0000E+00  0.0000E+00  0.1600E+02  0.1600E+02
     -7.894  0.0000E+00  0.0000E+00  0.1600E+02  0.1600E+02
     -7.750  0.0000E+00  0.0000E+00  0.1600E+02  0.1600E+02
     -7.605  0.0000E+00  0.0000E+00  0.1600E+02  0.1600E+02
     -7.461  0.0000E+00  0.0000E+00  0.1600E+02  0.1600E+02
     -7.317  0.0000E+00  0.0000E+00  0.1600E+02  0.1600E+02
     -7.173  0.0000E+00  0.0000E+00  0.1600E+02  0.1600E+02
     -7.029  0.0000E+00  0.0000E+00  0.1600E+02  0.1600E+02
     -6.885  0.0000E+00  0.0000E+00  0.1600E+02  0.1600E+02
     -6.741  0.0000E+00  0.0000E+00  0.1600E+02  0.1600E+02
     -6.597  0.0000E+00  0.0000E+00  0.1600E+02  0.1600E+02
     -6.452  0.0000E+00  0.0000E+00  0.1600E+02  0.1600E+02
     -6.308  0.0000E+00  0.0000E+00  0.1600E+02  0.1600E+02
     -6.164  0.0000E+00  0.0000E+00  0.1600E+02  0.1600E+02
     -6.020  0.0000E+00  0.0000E+00  0.1600E+02  0.1600E+02
     -5.876  0.0000E+00  0.0000E+00  0.1600E+02  0.1600E+02
     -5.732  0.0000E+00  0.0000E+00  0.1600E+02  0.1600E+02
     -5.588  0.0000E+00  0.0000E+00  0.1600E+02  0.1600E+02
     -5.444  0.0000E+00  0.0000E+00  0.1600E+02  0.1600E+02
     -5.299  0.0000E+00  0.0000E+00  0.1600E+02  0.1600E+02
     -5.155  0.0000E+00  0.0000E+00  0.1600E+02  0.1600E+02
     -5.011  0.0000E+00  0.0000E+00  0.1600E+02  0.1600E+02
     -4.867  0.0000E+00  0.0000E+00  0.1600E+02  0.1600E+02
     -4.723  0.0000E+00  0.0000E+00  0.1600E+02  0.1600E+02
     -4.579  0.0000E+00  0.0000E+00  0.1600E+02  0.1600E+02
     -4.435  0.0000E+00  0.0000E+00  0.1600E+02  0.1600E+02
     -4.291  0.0000E+00  0.0000E+00  0.1600E+02  0.1600E+02
     -4.146  0.0000E+00  0.0000E+00  0.1600E+02  0.1600E+02
     -4.002  0.0000E+00  0.0000E+00  0.1600E+02  0.1600E+02
     -3.858  0.0000E+00  0.0000E+00  0.1600E+02  0.1600E+02
     -3.714  0.0000E+00  0.0000E+00  0.1600E+02  0.1600E+02
     -3.570  0.0000E+00  0.0000E+00  0.1600E+02  0.1600E+02
     -3.426  0.0000E+00  0.0000E+00  0.1600E+02  0.1600E+02
     -3.282  0.0000E+00  0.0000E+00  0.1600E+02  0.1600E+02
     -3.138  0.0000E+00  0.0000E+00  0.1600E+02  0.1600E+02
     -2.993  0.0000E+00  0.0000E+00  0.1600E+02  0.1600E+02
     -2.849  0.0000E+00  0.0000E+00  0.1600E+02  0.1600E+02
     -2.705  0.0000E+00  0.0000E+00  0.1600E+02  0.1600E+02
     -2.561  0.4833E-05  0.2218E-05  0.1600E+02  0.1600E+02
     -2.417  0.1034E-03  0.5509E-04  0.1600E+02  0.1600E+02
     -2.273  0.1828E-02  0.9835E-03  0.1600E+02  0.1600E+02
     -2.129  0.2524E-01  0.1506E-01  0.1600E+02  0.1600E+02
     -1.985  0.1271E+00  0.9919E-01  0.1602E+02  0.1602E+02
     -1.840  0.2415E+00  0.2192E+00  0.1606E+02  0.1605E+02
     -1.696  0.3269E+00  0.3119E+00  0.1610E+02  0.1609E+02
     -1.552  0.4030E+00  0.3832E+00  0.1616E+02  0.1615E+02
     -1.408  0.4528E+00  0.4467E+00  0.1623E+02  0.1621E+02
     -1.264  0.5447E+00  0.5232E+00  0.1631E+02  0.1629E+02
     -1.120  0.5759E+00  0.5664E+00  0.1639E+02  0.1637E+02
     -0.976  0.6577E+00  0.6390E+00  0.1648E+02  0.1646E+02
     -0.832  0.7237E+00  0.7207E+00  0.1659E+02  0.1657E+02
     -0.687  0.7623E+00  0.7352E+00  0.1670E+02  0.1667E+02
     -0.543  0.8851E+00  0.8823E+00  0.1683E+02  0.1680E+02
     -0.399  0.8885E+00  0.8709E+00  0.1696E+02  0.1693E+02
     -0.255  0.1041E+01  0.1019E+01  0.1711E+02  0.1707E+02
     -0.111  0.1087E+01  0.1069E+01  0.1726E+02  0.1723E+02
      0.033  0.1186E+01  0.1170E+01  0.1743E+02  0.1740E+02
      0.177  0.1341E+01  0.1307E+01  0.1763E+02  0.1758E+02
      0.321  0.1478E+01  0.1474E+01  0.1784E+02  0.1780E+02
      0.466  0.1720E+01  0.1656E+01  0.1809E+02  0.1804E+02
      0.610  0.1770E+01  0.1790E+01  0.1834E+02  0.1830E+02
      0.754  0.1865E+01  0.1800E+01  0.1861E+02  0.1855E+02
      0.898  0.1888E+01  0.1858E+01  0.1889E+02  0.1882E+02
      1.042  0.1998E+01  0.1975E+01  0.1917E+02  0.1911E+02
      1.186  0.1757E+01  0.1792E+01  0.1943E+02  0.1937E+02
      1.330  0.1746E+01  0.1715E+01  0.1968E+02  0.1962E+02
      1.474  0.2292E+01  0.1942E+01  0.2001E+02  0.1990E+02
      1.619  0.3092E+01  0.3138E+01  0.2046E+02  0.2035E+02
      1.763  0.3119E+01  0.3279E+01  0.2091E+02  0.2082E+02
      1.907  0.4324E+01  0.4332E+01  0.2153E+02  0.2145E+02
      2.051  0.4772E+01  0.4891E+01  0.2222E+02  0.2215E+02
      2.195  0.4242E+01  0.4261E+01  0.2283E+02  0.2277E+02
      2.339  0.4873E+01  0.4746E+01  0.2354E+02  0.2345E+02
      2.483  0.5123E+01  0.5094E+01  0.2428E+02  0.2419E+02
      2.627  0.4251E+01  0.4351E+01  0.2489E+02  0.2482E+02
      2.772  0.3431E+01  0.3500E+01  0.2539E+02  0.2532E+02
      2.916  0.2948E+01  0.3002E+01  0.2581E+02  0.2576E+02
      3.060  0.2621E+01  0.2638E+01  0.2619E+02  0.2614E+02
      3.204  0.2332E+01  0.2399E+01  0.2653E+02  0.2648E+02
      3.348  0.2167E+01  0.2181E+01  0.2684E+02  0.2680E+02
      3.492  0.1849E+01  0.1966E+01  0.2711E+02  0.2708E+02
      3.636  0.1801E+01  0.1758E+01  0.2737E+02  0.2734E+02
      3.780  0.1611E+01  0.1603E+01  0.2760E+02  0.2757E+02
      3.925  0.1590E+01  0.1586E+01  0.2783E+02  0.2780E+02
      4.069  0.9812E+00  0.1073E+01  0.2797E+02  0.2795E+02
      4.213  0.1764E+00  0.2856E+00  0.2800E+02  0.2800E+02
      4.357  0.9017E-02  0.2668E-01  0.2800E+02  0.2800E+02
      4.501  0.0000E+00  0.1069E-02  0.2800E+02  0.2800E+02
      4.645  0.0000E+00  0.0000E+00  0.2800E+02  0.2800E+02
      4.789  0.0000E+00  0.0000E+00  0.2800E+02  0.2800E+02
      4.933  0.0000E+00  0.0000E+00  0.2800E+02  0.2800E+02
      5.078  0.0000E+00  0.0000E+00  0.2800E+02  0.2800E+02
      5.222  0.0000E+00  0.0000E+00  0.2800E+02  0.2800E+02
      5.366  0.0000E+00  0.0000E+00  0.2800E+02  0.2800E+02
      5.510  0.0000E+00  0.0000E+00  0.2800E+02  0.2800E+02
      5.654  0.0000E+00  0.0000E+00  0.2800E+02  0.2800E+02
      5.798  0.0000E+00  0.0000E+00  0.2800E+02  0.2800E+02
      5.942  0.0000E+00  0.0000E+00  0.2800E+02  0.2800E+02
      6.086  0.0000E+00  0.0000E+00  0.2800E+02  0.2800E+02
      6.08637404    -37.15081902  301      1.49080422      1.00000000
    -37.151  0.0000E+00  0.0000E+00  0.0000E+00  0.0000E+00  0.0000E+00  0.0000E+00  0.0000E+00  0.0000E+00  0.0000E+00  0.0000E+00  0.0000E+00  0.0000E+00  0.0000E+00  0.0000E+00  0.0000E+00  0.0000E+00  0.0000E+00  0.0000E+00
    -37.007  0.0000E+00  0.0000E+00  0.0000E+00  0.0000E+00  0.0000E+00  0.0000E+00  0.0000E+00  0.0000E+00  0.0000E+00  0.0000E+00  0.0000E+00  0.0000E+00  0.0000E+00  0.0000E+00  0.0000E+00  0.0000E+00  0.0000E+00  0.0000E+00
    -36.863  0.0000E+00  0.0000E+00  0.0000E+00  0.0000E+00  0.0000E+00  0.0000E+00  0.0000E+00  0.0000E+00  0.0000E+00  0.0000E+00  0.0000E+00  0.0000E+00  0.0000E+00  0.0000E+00  0.0000E+00  0.0000E+00  0.0000E+00  0.0000E+00
    -36.718  0.0000E+00  0.0000E+00  0.0000E+00  0.0000E+00  0.0000E+00  0.0000E+00  0.0000E+00  0.0000E+00  0.0000E+00  0.0000E+00  0.0000E+00  0.0000E+00  0.0000E+00  0.0000E+00  0.0000E+00  0.0000E+00  0.0000E+00  0.0000E+00
    -36.574  0.0000E+00  0.0000E+00  0.0000E+00  0.0000E+00  0.0000E+00  0.0000E+00  0.0000E+00  0.0000E+00  0.0000E+00  0.0000E+00  0.0000E+00  0.0000E+00  0.0000E+00  0.0000E+00  0.0000E+00  0.0000E+00  0.0000E+00  0.0000E+00
    -36.430  0.0000E+00  0.0000E+00  0.0000E+00  0.0000E+00  0.0000E+00  0.0000E+00  0.0000E+00  0.0000E+00  0.0000E+00  0.0000E+00  0.0000E+00  0.0000E+00  0.0000E+00  0.0000E+00  0.0000E+00  0.0000E+00  0.0000E+00  0.0000E+00
    -36.286  0.0000E+00  0.0000E+00  0.0000E+00  0.0000E+00  0.0000E+00  0.0000E+00  0.0000E+00  0.0000E+00  0.0000E+00  0.0000E+00  0.0000E+00  0.0000E+00  0.0000E+00  0.0000E+00  0.0000E+00  0.0000E+00  0.0000E+00  0.0000E+00
    -36.142  0.0000E+00  0.0000E+00  0.0000E+00  0.0000E+00  0.0000E+00  0.0000E+00  0.0000E+00  0.0000E+00  0.0000E+00  0.0000E+00  0.0000E+00  0.0000E+00  0.0000E+00  0.0000E+00  0.0000E+00  0.0000E+00  0.0000E+00  0.0000E+00
    -35.998  0.0000E+00  0.0000E+00  0.0000E+00  0.0000E+00  0.0000E+00  0.0000E+00  0.0000E+00  0.0000E+00  0.0000E+00  0.0000E+00  0.0000E+00  0.0000E+00  0.0000E+00  0.0000E+00  0.0000E+00  0.0000E+00  0.0000E+00  0.0000E+00
    -35.854  0.0000E+00  0.0000E+00  0.0000E+00  0.0000E+00  0.0000E+00  0.0000E+00  0.0000E+00  0.0000E+00  0.0000E+00  0.0000E+00  0.0000E+00  0.0000E+00  0.0000E+00  0.0000E+00  0.0000E+00  0.0000E+00  0.0000E+00  0.0000E+00
    -35.710  0.1499E-03  0.1396E-03  0.8316E-11  0.7754E-11  0.8316E-11  0.7754E-11  0.8316E-11  0.7754E-11  0.2515E-11  0.2332E-11  0.2515E-11  0.2332E-11  0.1202E-11  0.1112E-11  0.2515E-11  0.2332E-11  0.1202E-11  0.1112E-11
    -35.565  0.2526E-02  0.2353E-02  0.1401E-09  0.1307E-09  0.1401E-09  0.1307E-09  0.1401E-09  0.1307E-09  0.4239E-10  0.3930E-10  0.4239E-10  0.3930E-10  0.2025E-10  0.1875E-10  0.4239E-10  0.3930E-10  0.2025E-10  0.1875E-10
    -35.421  0.4479E-01  0.4174E-01  0.2485E-08  0.2318E-08  0.2485E-08  0.2318E-08  0.2485E-08  0.2318E-08  0.7517E-09  0.6972E-09  0.7517E-09  0.6972E-09  0.3593E-09  0.3327E-09  0.7517E-09  0.6972E-09  0.3593E-09  0.3327E-09
    -35.277  0.7106E+00  0.6673E+00  0.3924E-07  0.3690E-07  0.3924E-07  0.3690E-07  0.3924E-07  0.3690E-07  0.1193E-07  0.1115E-07  0.1193E-07  0.1115E-07  0.5727E-08  0.5343E-08  0.1193E-07  0.1115E-07  0.5727E-08  0.5343E-08
    -35.133  0.3938E+01  0.3880E+01  0.2115E-06  0.2088E-06  0.2115E-06  0.2088E-06  0.2115E-06  0.2088E-06  0.6622E-07  0.6493E-07  0.6622E-07  0.6493E-07  0.3267E-07  0.3195E-07  0.6622E-07  0.6493E-07  0.3267E-07  0.3195E-07
    -34.989  0.1935E+01  0.2027E+01  0.1003E-06  0.1053E-06  0.1003E-06  0.1053E-06  0.1003E-06  0.1053E-06  0.3251E-07  0.3390E-07  0.3251E-07  0.3390E-07  0.1661E-07  0.1727E-07  0.3251E-07  0.3390E-07  0.1661E-07  0.1727E-07
    -34.845  0.1568E+00  0.1680E+00  0.8031E-08  0.8615E-08  0.8031E-08  0.8615E-08  0.8031E-08  0.8615E-08  0.2633E-08  0.2807E-08  0.2633E-08  0.2807E-08  0.1362E-08  0.1449E-08  0.2633E-08  0.2807E-08  0.1362E-08  0.1449E-08
    -34.701  0.0000E+00  0.0000E+00  0.0000E+00  0.0000E+00  0.0000E+00  0.0000E+00  0.0000E+00  0.0000E+00  0.0000E+00  0.0000E+00  0.0000E+00  0.0000E+00  0.0000E+00  0.0000E+00  0.0000E+00  0.0000E+00  0.0000E+00  0.0000E+00
    -34.557  0.0000E+00  0.0000E+00  0.0000E+00  0.0000E+00  0.0000E+00  0.0000E+00  0.0000E+00  0.0000E+00  0.0000E+00  0.0000E+00  0.0000E+00  0.0000E+00  0.0000E+00  0.0000E+00  0.0000E+00  0.0000E+00  0.0000E+00  0.0000E+00
    -34.412  0.0000E+00  0.0000E+00  0.0000E+00  0.0000E+00  0.0000E+00  0.0000E+00  0.0000E+00  0.0000E+00  0.0000E+00  0.0000E+00  0.0000E+00  0.0000E+00  0.0000E+00  0.0000E+00  0.0000E+00  0.0000E+00  0.0000E+00  0.0000E+00
    -34.268  0.0000E+00  0.0000E+00  0.0000E+00  0.0000E+00  0.0000E+00  0.0000E+00  0.0000E+00  0.0000E+00  0.0000E+00  0.0000E+00  0.0000E+00  0.0000E+00  0.0000E+00  0.0000E+00  0.0000E+00  0.0000E+00  0.0000E+00  0.0000E+00
    -34.124  0.0000E+00  0.0000E+00  0.0000E+00  0.0000E+00  0.0000E+00  0.0000E+00  0.0000E+00  0.0000E+00  0.0000E+00  0.0000E+00  0.0000E+00  0.0000E+00  0.0000E+00  0.0000E+00  0.0000E+00  0.0000E+00  0.0000E+00  0.0000E+00
    -33.980  0.0000E+00  0.0000E+00  0.0000E+00  0.0000E+00  0.0000E+00  0.0000E+00  0.0000E+00  0.0000E+00  0.0000E+00  0.0000E+00  0.0000E+00  0.0000E+00  0.0000E+00  0.0000E+00  0.0000E+00  0.0000E+00  0.0000E+00  0.0000E+00
    -33.836  0.0000E+00  0.0000E+00  0.0000E+00  0.0000E+00  0.0000E+00  0.0000E+00  0.0000E+00  0.0000E+00  0.0000E+00  0.0000E+00  0.0000E+00  0.0000E+00  0.0000E+00  0.0000E+00  0.0000E+00  0.0000E+00  0.0000E+00  0.0000E+00
    -33.692  0.0000E+00  0.0000E+00  0.0000E+00  0.0000E+00  0.0000E+00  0.0000E+00  0.0000E+00  0.0000E+00  0.0000E+00  0.0000E+00  0.0000E+00  0.0000E+00  0.0000E+00  0.0000E+00  0.0000E+00  0.0000E+00  0.0000E+00  0.0000E+00
    -33.548  0.0000E+00  0.0000E+00  0.0000E+00  0.0000E+00  0.0000E+00  0.0000E+00  0.0000E+00  0.0000E+00  0.0000E+00  0.0000E+00  0.0000E+00  0.0000E+00  0.0000E+00  0.0000E+00  0.0000E+00  0.0000E+00  0.0000E+00  0.0000E+00
    -33.404  0.0000E+00  0.0000E+00  0.0000E+00  0.0000E+00  0.0000E+00  0.0000E+00  0.0000E+00  0.0000E+00  0.0000E+00  0.0000E+00  0.0000E+00  0.0000E+00  0.0000E+00  0.0000E+00  0.0000E+00  0.0000E+00  0.0000E+00  0.0000E+00
    -33.259  0.0000E+00  0.0000E+00  0.0000E+00  0.0000E+00  0.0000E+00  0.0000E+00  0.0000E+00  0.0000E+00  0.0000E+00  0.0000E+00  0.0000E+00  0.0000E+00  0.0000E+00  0.0000E+00  0.0000E+00  0.0000E+00  0.0000E+00  0.0000E+00
    -33.115  0.0000E+00  0.0000E+00  0.0000E+00  0.0000E+00  0.0000E+00  0.0000E+00  0.0000E+00  0.0000E+00  0.0000E+00  0.0000E+00  0.0000E+00  0.0000E+00  0.0000E+00  0.0000E+00  0.0000E+00  0.0000E+00  0.0000E+00  0.0000E+00
    -32.971  0.0000E+00  0.0000E+00  0.0000E+00  0.0000E+00  0.0000E+00  0.0000E+00  0.0000E+00  0.0000E+00  0.0000E+00  0.0000E+00  0.0000E+00  0.0000E+00  0.0000E+00  0.0000E+00  0.0000E+00  0.0000E+00  0.0000E+00  0.0000E+00
    -32.827  0.0000E+00  0.0000E+00  0.0000E+00  0.0000E+00  0.0000E+00  0.0000E+00  0.0000E+00  0.0000E+00  0.0000E+00  0.0000E+00  0.0000E+00  0.0000E+00  0.0000E+00  0.0000E+00  0.0000E+00  0.0000E+00  0.0000E+00  0.0000E+00
    -32.683  0.0000E+00  0.0000E+00  0.0000E+00  0.0000E+00  0.0000E+00  0.0000E+00  0.0000E+00  0.0000E+00  0.0000E+00  0.0000E+00  0.0000E+00  0.0000E+00  0.0000E+00  0.0000E+00  0.0000E+00  0.0000E+00  0.0000E+00  0.0000E+00
    -32.539  0.0000E+00  0.0000E+00  0.0000E+00  0.0000E+00  0.0000E+00  0.0000E+00  0.0000E+00  0.0000E+00  0.0000E+00  0.0000E+00  0.0000E+00  0.0000E+00  0.0000E+00  0.0000E+00  0.0000E+00  0.0000E+00  0.0000E+00  0.0000E+00
    -32.395  0.0000E+00  0.0000E+00  0.0000E+00  0.0000E+00  0.0000E+00  0.0000E+00  0.0000E+00  0.0000E+00  0.0000E+00  0.0000E+00  0.0000E+00  0.0000E+00  0.0000E+00  0.0000E+00  0.0000E+00  0.0000E+00  0.0000E+00  0.0000E+00
    -32.251  0.0000E+00  0.0000E+00  0.0000E+00  0.0000E+00  0.0000E+00  0.0000E+00  0.0000E+00  0.0000E+00  0.0000E+00  0.0000E+00  0.0000E+00  0.0000E+00  0.0000E+00  0.0000E+00  0.0000E+00  0.0000E+00  0.0000E+00  0.0000E+00
    -32.106  0.0000E+00  0.0000E+00  0.0000E+00  0.0000E+00  0.0000E+00  0.0000E+00  0.0000E+00  0.0000E+00  0.0000E+00  0.0000E+00  0.0000E+00  0.0000E+00  0.0000E+00  0.0000E+00  0.0000E+00  0.0000E+00  0.0000E+00  0.0000E+00
    -31.962  0.0000E+00  0.0000E+00  0.0000E+00  0.0000E+00  0.0000E+00  0.0000E+00  0.0000E+00  0.0000E+00  0.0000E+00  0.0000E+00  0.0000E+00  0.0000E+00  0.0000E+00  0.0000E+00  0.0000E+00  0.0000E+00  0.0000E+00  0.0000E+00
    -31.818  0.0000E+00  0.0000E+00  0.0000E+00  0.0000E+00  0.0000E+00  0.0000E+00  0.0000E+00  0.0000E+00  0.0000E+00  0.0000E+00  0.0000E+00  0.0000E+00  0.0000E+00  0.0000E+00  0.0000E+00  0.0000E+00  0.0000E+00  0.0000E+00
    -31.674  0.0000E+00  0.0000E+00  0.0000E+00  0.0000E+00  0.0000E+00  0.0000E+00  0.0000E+00  0.0000E+00  0.0000E+00  0.0000E+00  0.0000E+00  0.0000E+00  0.0000E+00  0.0000E+00  0.0000E+00  0.0000E+00  0.0000E+00  0.0000E+00
    -31.530  0.0000E+00  0.0000E+00  0.0000E+00  0.0000E+00  0.0000E+00  0.0000E+00  0.0000E+00  0.0000E+00  0.0000E+00  0.0000E+00  0.0000E+00  0.0000E+00  0.0000E+00  0.0000E+00  0.0000E+00  0.0000E+00  0.0000E+00  0.0000E+00
    -31.386  0.0000E+00  0.0000E+00  0.0000E+00  0.0000E+00  0.0000E+00  0.0000E+00  0.0000E+00  0.0000E+00  0.0000E+00  0.0000E+00  0.0000E+00  0.0000E+00  0.0000E+00  0.0000E+00  0.0000E+00  0.0000E+00  0.0000E+00  0.0000E+00
    -31.242  0.0000E+00  0.0000E+00  0.0000E+00  0.0000E+00  0.0000E+00  0.0000E+00  0.0000E+00  0.0000E+00  0.0000E+00  0.0000E+00  0.0000E+00  0.0000E+00  0.0000E+00  0.0000E+00  0.0000E+00  0.0000E+00  0.0000E+00  0.0000E+00
    -31.098  0.0000E+00  0.0000E+00  0.0000E+00  0.0000E+00  0.0000E+00  0.0000E+00  0.0000E+00  0.0000E+00  0.0000E+00  0.0000E+00  0.0000E+00  0.0000E+00  0.0000E+00  0.0000E+00  0.0000E+00  0.0000E+00  0.0000E+00  0.0000E+00
    -30.953  0.0000E+00  0.0000E+00  0.0000E+00  0.0000E+00  0.0000E+00  0.0000E+00  0.0000E+00  0.0000E+00  0.0000E+00  0.0000E+00  0.0000E+00  0.0000E+00  0.0000E+00  0.0000E+00  0.0000E+00  0.0000E+00  0.0000E+00  0.0000E+00
    -30.809  0.0000E+00  0.0000E+00  0.0000E+00  0.0000E+00  0.0000E+00  0.0000E+00  0.0000E+00  0.0000E+00  0.0000E+00  0.0000E+00  0.0000E+00  0.0000E+00  0.0000E+00  0.0000E+00  0.0000E+00  0.0000E+00  0.0000E+00  0.0000E+00
    -30.665  0.0000E+00  0.0000E+00  0.0000E+00  0.0000E+00  0.0000E+00  0.0000E+00  0.0000E+00  0.0000E+00  0.0000E+00  0.0000E+00  0.0000E+00  0.0000E+00  0.0000E+00  0.0000E+00  0.0000E+00  0.0000E+00  0.0000E+00  0.0000E+00
    -30.521  0.0000E+00  0.0000E+00  0.0000E+00  0.0000E+00  0.0000E+00  0.0000E+00  0.0000E+00  0.0000E+00  0.0000E+00  0.0000E+00  0.0000E+00  0.0000E+00  0.0000E+00  0.0000E+00  0.0000E+00  0.0000E+00  0.0000E+00  0.0000E+00
    -30.377  0.0000E+00  0.0000E+00  0.0000E+00  0.0000E+00  0.0000E+00  0.0000E+00  0.0000E+00  0.0000E+00  0.0000E+00  0.0000E+00  0.0000E+00  0.0000E+00  0.0000E+00  0.0000E+00  0.0000E+00  0.0000E+00  0.0000E+00  0.0000E+00
    -30.233  0.0000E+00  0.0000E+00  0.0000E+00  0.0000E+00  0.0000E+00  0.0000E+00  0.0000E+00  0.0000E+00  0.0000E+00  0.0000E+00  0.0000E+00  0.0000E+00  0.0000E+00  0.0000E+00  0.0000E+00  0.0000E+00  0.0000E+00  0.0000E+00
    -30.089  0.0000E+00  0.0000E+00  0.0000E+00  0.0000E+00  0.0000E+00  0.0000E+00  0.0000E+00  0.0000E+00  0.0000E+00  0.0000E+00  0.0000E+00  0.0000E+00  0.0000E+00  0.0000E+00  0.0000E+00  0.0000E+00  0.0000E+00  0.0000E+00
    -29.945  0.0000E+00  0.0000E+00  0.0000E+00  0.0000E+00  0.0000E+00  0.0000E+00  0.0000E+00  0.0000E+00  0.0000E+00  0.0000E+00  0.0000E+00  0.0000E+00  0.0000E+00  0.0000E+00  0.0000E+00  0.0000E+00  0.0000E+00  0.0000E+00