   4   4   1   0
  0.5006143E+02  0.5850429E-09  0.5850429E-09  0.5850429E-09  0.5000000E-15
  1.000000000000000E-004
  CAR 
 unknown system                          
      6.66029642    -36.48367095  301      1.93588624      1.00000000
    -36.484  0.0000E+00  0.0000E+00  0.0000E+00  0.0000E+00
    -36.340  0.0000E+00  0.0000E+00  0.0000E+00  0.0000E+00
    -36.196  0.0000E+00  0.0000E+00  0.0000E+00  0.0000E+00
    -36.052  0.0000E+00  0.0000E+00  0.0000E+00  0.0000E+00
    -35.908  0.0000E+00  0.0000E+00  0.0000E+00  0.0000E+00
    -35.765  0.0000E+00  0.0000E+00  0.0000E+00  0.0000E+00
    -35.621  0.0000E+00  0.0000E+00  0.0000E+00  0.0000E+00
    -35.477  0.0000E+00  0.0000E+00  0.0000E+00  0.0000E+00
    -35.333  0.0000E+00  0.0000E+00  0.0000E+00  0.0000E+00
    -35.189  0.0000E+00  0.0000E+00  0.0000E+00  0.0000E+00
    -35.046  0.2073E-03  0.1994E-03  0.2982E-04  0.2868E-04
    -34.902  0.9046E-02  0.9020E-02  0.1331E-02  0.1326E-02
    -34.758  0.1541E+00  0.1535E+00  0.2349E-01  0.2340E-01
    -34.614  0.2472E+01  0.2463E+01  0.3790E+00  0.3777E+00
    -34.470  0.1539E+02  0.1537E+02  0.2592E+01  0.2589E+01
    -34.326  0.8961E+01  0.8982E+01  0.3881E+01  0.3880E+01
    -34.183  0.7816E+00  0.7844E+00  0.3993E+01  0.3993E+01
    -34.039  0.0000E+00  0.0000E+00  0.4000E+01  0.4000E+01
    -33.895  0.0000E+00  0.0000E+00  0.4000E+01  0.4000E+01
    -33.751  0.0000E+00  0.0000E+00  0.4000E+01  0.4000E+01
    -33.607  0.0000E+00  0.0000E+00  0.4000E+01  0.4000E+01
    -33.464  0.0000E+00  0.0000E+00  0.4000E+01  0.4000E+01
    -33.320  0.0000E+00  0.0000E+00  0.4000E+01  0.4000E+01
    -33.176  0.0000E+00  0.0000E+00  0.4000E+01  0.4000E+01
    -33.032  0.0000E+00  0.0000E+00  0.4000E+01  0.4000E+01
    -32.888  0.0000E+00  0.0000E+00  0.4000E+01  0.4000E+01
    -32.745  0.0000E+00  0.0000E+00  0.4000E+01  0.4000E+01
    -32.601  0.0000E+00  0.0000E+00  0.4000E+01  0.4000E+01
    -32.457  0.0000E+00  0.0000E+00  0.4000E+01  0.4000E+01
    -32.313  0.0000E+00  0.0000E+00  0.4000E+01  0.4000E+01
    -32.169  0.0000E+00  0.0000E+00  0.4000E+01  0.4000E+01
    -32.025  0.0000E+00  0.0000E+00  0.4000E+01  0.4000E+01
    -31.882  0.0000E+00  0.0000E+00  0.4000E+01  0.4000E+01
    -31.738  0.0000E+00  0.0000E+00  0.4000E+01  0.4000E+01
    -31.594  0.0000E+00  0.0000E+00  0.4000E+01  0.4000E+01
    -31.450  0.0000E+00  0.0000E+00  0.4000E+01  0.4000E+01
    -31.306  0.0000E+00  0.0000E+00  0.4000E+01  0.4000E+01
    -31.163  0.0000E+00  0.0000E+00  0.4000E+01  0.4000E+01
    -31.019  0.0000E+00  0.0000E+00  0.4000E+01  0.4000E+01
    -30.875  0.0000E+00  0.0000E+00  0.4000E+01  0.4000E+01
    -30.731  0.0000E+00  0.0000E+00  0.4000E+01  0.4000E+01
    -30.587  0.0000E+00  0.0000E+00  0.4000E+01  0.4000E+01
    -30.444  0.0000E+00  0.0000E+00  0.4000E+01  0.4000E+01
    -30.300  0.0000E+00  0.0000E+00  0.4000E+01  0.4000E+01
    -30.156  0.0000E+00  0.0000E+00  0.4000E+01  0.4000E+01
    -30.012  0.0000E+00  0.0000E+00  0.4000E+01  0.4000E+01
    -29.868  0.0000E+00  0.0000E+00  0.4000E+01  0.4000E+01
    -29.724  0.0000E+00  0.0000E+00  0.4000E+01  0.4000E+01
    -29.581  0.0000E+00  0.0000E+00  0.4000E+01  0.4000E+01
    -29.437  0.0000E+00  0.0000E+00  0.4000E+01  0.4000E+01
    -29.293  0.0000E+00  0.0000E+00  0.4000E+01  0.4000E+01
    -29.149  0.0000E+00  0.0000E+00  0.4000E+01  0.4000E+01
    -29.005  0.0000E+00  0.0000E+00  0.4000E+01  0.4000E+01
    -28.862  0.0000E+00  0.0000E+00  0.4000E+01  0.4000E+01
    -28.718  0.0000E+00  0.0000E+00  0.4000E+01  0.4000E+01
    -28.574  0.0000E+00  0.0000E+00  0.4000E+01  0.4000E+01
    -28.430  0.0000E+00  0.0000E+00  0.4000E+01  0.4000E+01
    -28.286  0.0000E+00  0.0000E+00  0.4000E+01  0.4000E+01
    -28.143  0.0000E+00  0.0000E+00  0.4000E+01  0.4000E+01
    -27.999  0.0000E+00  0.0000E+00  0.4000E+01  0.4000E+01
    -27.855  0.0000E+00  0.0000E+00  0.4000E+01  0.4000E+01
    -27.711  0.0000E+00  0.0000E+00  0.4000E+01  0.4000E+01
    -27.567  0.0000E+00  0.0000E+00  0.4000E+01  0.4000E+01
    -27.423  0.0000E+00  0.0000E+00  0.4000E+01  0.4000E+01
    -27.280  0.0000E+00  0.0000E+00  0.4000E+01  0.4000E+01
    -27.136  0.0000E+00  0.0000E+00  0.4000E+01  0.4000E+01
    -26.992  0.0000E+00  0.0000E+00  0.4000E+01  0.4000E+01
    -26.848  0.0000E+00  0.0000E+00  0.4000E+01  0.4000E+01
    -26.704  0.0000E+00  0.0000E+00  0.4000E+01  0.4000E+01
    -26.561  0.0000E+00  0.0000E+00  0.4000E+01  0.4000E+01
    -26.417  0.0000E+00  0.0000E+00  0.4000E+01  0.4000E+01
    -26.273  0.0000E+00  0.0000E+00  0.4000E+01  0.4000E+01
    -26.129  0.0000E+00  0.0000E+00  0.4000E+01  0.4000E+01
    -25.985  0.0000E+00  0.0000E+00  0.4000E+01  0.4000E+01
    -25.841  0.0000E+00  0.0000E+00  0.4000E+01  0.4000E+01
    -25.698  0.0000E+00  0.0000E+00  0.4000E+01  0.4000E+01
    -25.554  0.0000E+00  0.0000E+00  0.4000E+01  0.4000E+01
    -25.410  0.0000E+00  0.0000E+00  0.4000E+01  0.4000E+01
    -25.266  0.0000E+00  0.0000E+00  0.4000E+01  0.4000E+01
    -25.122  0.0000E+00  0.0000E+00  0.4000E+01  0.4000E+01
    -24.979  0.0000E+00  0.0000E+00  0.4000E+01  0.4000E+01
    -24.835  0.0000E+00  0.0000E+00  0.4000E+01  0.4000E+01
    -24.691  0.0000E+00  0.0000E+00  0.4000E+01  0.4000E+01
    -24.547  0.0000E+00  0.0000E+00  0.4000E+01  0.4000E+01
    -24.403  0.0000E+00  0.0000E+00  0.4000E+01  0.4000E+01
    -24.260  0.0000E+00  0.0000E+00  0.4000E+01  0.4000E+01
    -24.116  0.0000E+00  0.0000E+00  0.4000E+01  0.4000E+01
    -23.972  0.0000E+00  0.0000E+00  0.4000E+01  0.4000E+01
    -23.828  0.0000E+00  0.0000E+00  0.4000E+01  0.4000E+01
    -23.684  0.0000E+00  0.0000E+00  0.4000E+01  0.4000E+01
    -23.540  0.0000E+00  0.0000E+00  0.4000E+01  0.4000E+01
    -23.397  0.0000E+00  0.0000E+00  0.4000E+01  0.4000E+01
    -23.253  0.0000E+00  0.0000E+00  0.4000E+01  0.4000E+01
    -23.109  0.0000E+00  0.0000E+00  0.4000E+01  0.4000E+01
    -22.965  0.0000E+00  0.0000E+00  0.4000E+01  0.4000E+01
    -22.821  0.0000E+00  0.0000E+00  0.4000E+01  0.4000E+01
    -22.678  0.0000E+00  0.0000E+00  0.4000E+01  0.4000E+01
    -22.534  0.0000E+00  0.0000E+00  0.4000E+01  0.4000E+01
    -22.390  0.0000E+00  0.0000E+00  0.4000E+01  0.4000E+01
    -22.246  0.0000E+00  0.0000E+00  0.4000E+01  0.4000E+01
    -22.102  0.0000E+00  0.0000E+00  0.4000E+01  0.4000E+01
    -21.959  0.0000E+00  0.0000E+00  0.4000E+01  0.4000E+01
    -21.815  0.0000E+00  0.0000E+00  0.4000E+01  0.4000E+01
    -21.671  0.0000E+00  0.0000E+00  0.4000E+01  0.4000E+01
    -21.527  0.0000E+00  0.0000E+00  0.4000E+01  0.4000E+01
    -21.383  0.0000E+00  0.0000E+00  0.4000E+01  0.4000E+01
    -21.239  0.0000E+00  0.0000E+00  0.4000E+01  0.4000E+01
    -21.096  0.0000E+00  0.0000E+00  0.4000E+01  0.4000E+01
    -20.952  0.0000E+00  0.0000E+00  0.4000E+01  0.4000E+01
    -20.808  0.0000E+00  0.0000E+00  0.4000E+01  0.4000E+01
    -20.664  0.0000E+00  0.0000E+00  0.4000E+01  0.4000E+01
    -20.520  0.0000E+00  0.0000E+00  0.4000E+01  0.4000E+01
    -20.377  0.0000E+00  0.0000E+00  0.4000E+01  0.4000E+01
    -20.233  0.0000E+00  0.0000E+00  0.4000E+01  0.4000E+01
    -20.089  0.0000E+00  0.0000E+00  0.4000E+01  0.4000E+01
    -19.945  0.0000E+00  0.0000E+00  0.4000E+01  0.4000E+01
    -19.801  0.0000E+00  0.0000E+00  0.4000E+01  0.4000E+01
    -19.658  0.0000E+00  0.0000E+00  0.4000E+01  0.4000E+01
    -19.514  0.0000E+00  0.0000E+00  0.4000E+01  0.4000E+01
    -19.370  0.0000E+00  0.0000E+00  0.4000E+01  0.4000E+01
    -19.226  0.0000E+00  0.0000E+00  0.4000E+01  0.4000E+01
    -19.082  0.0000E+00  0.0000E+00  0.4000E+01  0.4000E+01
    -18.938  0.0000E+00  0.0000E+00  0.4000E+01  0.4000E+01
    -18.795  0.0000E+00  0.0000E+00  0.4000E+01  0.4000E+01
    -18.651  0.0000E+00  0.0000E+00  0.4000E+01  0.4000E+01
    -18.507  0.0000E+00  0.0000E+00  0.4000E+01  0.4000E+01
    -18.363  0.0000E+00  0.0000E+00  0.4000E+01  0.4000E+01
    -18.219  0.0000E+00  0.0000E+00  0.4000E+01  0.4000E+01
    -18.076  0.0000E+00  0.0000E+00  0.4000E+01  0.4000E+01
    -17.932  0.0000E+00  0.0000E+00  0.4000E+01  0.4000E+01
    -17.788  0.0000E+00  0.0000E+00  0.4000E+01  0.4000E+01
    -17.644  0.0000E+00  0.0000E+00  0.4000E+01  0.4000E+01
    -17.500  0.0000E+00  0.0000E+00  0.4000E+01  0.4000E+01
    -17.357  0.0000E+00  0.0000E+00  0.4000E+01  0.4000E+01
    -17.213  0.0000E+00  0.0000E+00  0.4000E+01  0.4000E+01
    -17.069  0.2605E-02  0.2598E-02  0.4000E+01  0.4000E+01
    -16.925  0.4922E-01  0.4908E-01  0.4007E+01  0.4007E+01
    -16.781  0.8400E+00  0.8377E+00  0.4128E+01  0.4128E+01
    -16.637  0.9871E+01  0.9852E+01  0.5548E+01  0.5545E+01
    -16.494  0.3289E+02  0.3287E+02  0.1028E+02  0.1027E+02
    -16.350  0.3304E+02  0.3306E+02  0.1503E+02  0.1503E+02
    -16.206  0.6256E+01  0.6272E+01  0.1594E+02  0.1594E+02
    -16.062  0.3220E+00  0.3238E+00  0.1600E+02  0.1600E+02
    -15.918  0.0000E+00  0.0000E+00  0.1600E+02  0.1600E+02
    -15.775  0.0000E+00  0.0000E+00  0.1600E+02  0.1600E+02
    -15.631  0.0000E+00  0.0000E+00  0.1600E+02  0.1600E+02
    -15.487  0.0000E+00  0.0000E+00  0.1600E+02  0.1600E+02
    -15.343  0.0000E+00  0.0000E+00  0.1600E+02  0.1600E+02
    -15.199  0.0000E+00  0.0000E+00  0.1600E+02  0.1600E+02
    -15.056  0.0000E+00  0.0000E+00  0.1600E+02  0.1600E+02
    -14.912  0.0000E+00  0.0000E+00  0.1600E+02  0.1600E+02
    -14.768  0.0000E+00  0.0000E+00  0.1600E+02  0.1600E+02
    -14.624  0.0000E+00  0.0000E+00  0.1600E+02  0.1600E+02
    -14.480  0.0000E+00  0.0000E+00  0.1600E+02  0.1600E+02
    -14.336  0.0000E+00  0.0000E+00  0.1600E+02  0.1600E+02
    -14.193  0.0000E+00  0.0000E+00  0.1600E+02  0.1600E+02
    -14.049  0.0000E+00  0.0000E+00  0.1600E+02  0.1600E+02
    -13.905  0.0000E+00  0.0000E+00  0.1600E+02  0.1600E+02
    -13.761  0.0000E+00  0.0000E+00  0.1600E+02  0.1600E+02
    -13.617  0.0000E+00  0.0000E+00  0.1600E+02  0.1600E+02
    -13.474  0.0000E+00  0.0000E+00  0.1600E+02  0.1600E+02
    -13.330  0.0000E+00  0.0000E+00  0.1600E+02  0.1600E+02
    -13.186  0.0000E+00  0.0000E+00  0.1600E+02  0.1600E+02
    -13.042  0.0000E+00  0.0000E+00  0.1600E+02  0.1600E+02
    -12.898  0.0000E+00  0.0000E+00  0.1600E+02  0.1600E+02
    -12.754  0.0000E+00  0.0000E+00  0.1600E+02  0.1600E+02
    -12.611  0.0000E+00  0.0000E+00  0.1600E+02  0.1600E+02
    -12.467  0.0000E+00  0.0000E+00  0.1600E+02  0.1600E+02
    -12.323  0.0000E+00  0.0000E+00  0.1600E+02  0.1600E+02
    -12.179  0.0000E+00  0.0000E+00  0.1600E+02  0.1600E+02
    -12.035  0.0000E+00  0.0000E+00  0.1600E+02  0.1600E+02
    -11.892  0.0000E+00  0.0000E+00  0.1600E+02  0.1600E+02
    -11.748  0.0000E+00  0.0000E+00  0.1600E+02  0.1600E+02
    -11.604  0.0000E+00  0.0000E+00  0.1600E+02  0.1600E+02
    -11.460  0.0000E+00  0.0000E+00  0.1600E+02  0.1600E+02
    -11.316  0.0000E+00  0.0000E+00  0.1600E+02  0.1600E+02
    -11.173  0.0000E+00  0.0000E+00  0.1600E+02  0.1600E+02
    -11.029  0.0000E+00  0.0000E+00  0.1600E+02  0.1600E+02
    -10.885  0.0000E+00  0.0000E+00  0.1600E+02  0.1600E+02
    -10.741  0.0000E+00  0.0000E+00  0.1600E+02  0.1600E+02
    -10.597  0.0000E+00  0.0000E+00  0.1600E+02  0.1600E+02
    -10.453  0.0000E+00  0.0000E+00  0.1600E+02  0.1600E+02
    -10.310  0.0000E+00  0.0000E+00  0.1600E+02  0.1600E+02
    -10.166  0.0000E+00  0.0000E+00  0.1600E+02  0.1600E+02
    -10.022  0.0000E+00  0.0000E+00  0.1600E+02  0.1600E+02
     -9.878  0.0000E+00  0.0000E+00  0.1600E+02  0.1600E+02
     -9.734  0.0000E+00  0.0000E+00  0.1600E+02  0.1600E+02
     -9.591  0.0000E+00  0.0000E+00  0.1600E+02  0.1600E+02
     -9.447  0.0000E+00  0.0000E+00  0.1600E+02  0.1600E+02
     -9.303  0.0000E+00  0.0000E+00  0.1600E+02  0.1600E+02
     -9.159  0.0000E+00  0.0000E+00  0.1600E+02  0.1600E+02
     -9.015  0.0000E+00  0.0000E+00  0.1600E+02  0.1600E+02
     -8.872  0.0000E+00  0.0000E+00  0.1600E+02  0.1600E+02
     -8.728  0.0000E+00  0.0000E+00  0.1600E+02  0.1600E+02
     -8.584  0.0000E+00  0.0000E+00  0.1600E+02  0.1600E+02
     -8.440  0.0000E+00  0.0000E+00  0.1600E+02  0.1600E+02
     -8.296  0.0000E+00  0.0000E+00  0.1600E+02  0.1600E+02
     -8.152  0.0000E+00  0.0000E+00  0.1600E+02  0.1600E+02
     -8.009  0.0000E+00  0.0000E+00  0.1600E+02  0.1600E+02
     -7.865  0.0000E+00  0.0000E+00  0.1600E+02  0.1600E+02
     -7.721  0.0000E+00  0.0000E+00  0.1600E+02  0.1600E+02
     -7.577  0.0000E+00  0.0000E+00  0.1600E+02  0.1600E+02
     -7.433  0.0000E+00  0.0000E+00  0.1600E+02  0.1600E+02
     -7.290  0.0000E+00  0.0000E+00  0.1600E+02  0.1600E+02
     -7.146  0.0000E+00  0.0000E+00  0.1600E+02  0.1600E+02
     -7.002  0.0000E+00  0.0000E+00  0.1600E+02  0.1600E+02
     -6.858  0.0000E+00  0.0000E+00  0.1600E+02  0.1600E+02
     -6.714  0.0000E+00  0.0000E+00  0.1600E+02  0.1600E+02
     -6.571  0.0000E+00  0.0000E+00  0.1600E+02  0.1600E+02
     -6.427  0.0000E+00  0.0000E+00  0.1600E+02  0.1600E+02
     -6.283  0.0000E+00  0.0000E+00  0.1600E+02  0.1600E+02
     -6.139  0.0000E+00  0.0000E+00  0.1600E+02  0.1600E+02
     -5.995  0.0000E+00  0.0000E+00  0.1600E+02  0.1600E+02
     -5.851  0.0000E+00  0.0000E+00  0.1600E+02  0.1600E+02
     -5.708  0.0000E+00  0.0000E+00  0.1600E+02  0.1600E+02
     -5.564  0.0000E+00  0.0000E+00  0.1600E+02  0.1600E+02
     -5.420  0.0000E+00  0.0000E+00  0.1600E+02  0.1600E+02
     -5.276  0.0000E+00  0.0000E+00  0.1600E+02  0.1600E+02
     -5.132  0.0000E+00  0.0000E+00  0.1600E+02  0.1600E+02
     -4.989  0.0000E+00  0.0000E+00  0.1600E+02  0.1600E+02
     -4.845  0.0000E+00  0.0000E+00  0.1600E+02  0.1600E+02
     -4.701  0.0000E+00  0.0000E+00  0.1600E+02  0.1600E+02
     -4.557  0.0000E+00  0.0000E+00  0.1600E+02  0.1600E+02
     -4.413  0.0000E+00  0.0000E+00  0.1600E+02  0.1600E+02
     -4.270  0.0000E+00  0.0000E+00  0.1600E+02  0.1600E+02
     -4.126  0.0000E+00  0.0000E+00  0.1600E+02  0.1600E+02
     -3.982  0.0000E+00  0.0000E+00  0.1600E+02  0.1600E+02
     -3.838  0.0000E+00  0.0000E+00  0.1600E+02  0.1600E+02
     -3.694  0.0000E+00  0.0000E+00  0.1600E+02  0.1600E+02
     -3.550  0.0000E+00  0.0000E+00  0.1600E+02  0.1600E+02
     -3.407  0.0000E+00  0.0000E+00  0.1600E+02  0.1600E+02
     -3.263  0.0000E+00  0.0000E+00  0.1600E+02  0.1600E+02
     -3.119  0.0000E+00  0.0000E+00  0.1600E+02  0.1600E+02
     -2.975  0.0000E+00  0.0000E+00  0.1600E+02  0.1600E+02
     -2.831  0.0000E+00  0.0000E+00  0.1600E+02  0.1600E+02
     -2.688  0.0000E+00  0.0000E+00  0.1600E+02  0.1600E+02
     -2.544  0.0000E+00  0.0000E+00  0.1600E+02  0.1600E+02
     -2.400  0.7625E-07  0.7535E-07  0.1600E+02  0.1600E+02
     -2.256  0.1114E-04  0.1101E-04  0.1600E+02  0.1600E+02
     -2.112  0.2152E-03  0.2127E-03  0.1600E+02  0.1600E+02
     -1.968  0.3667E-02  0.3625E-02  0.1600E+02  0.1600E+02
     -1.825  0.4006E-01  0.3975E-01  0.1601E+02  0.1601E+02
     -1.681  0.1396E+00  0.1392E+00  0.1603E+02  0.1603E+02
     -1.537  0.2258E+00  0.2254E+00  0.1606E+02  0.1606E+02
     -1.393  0.2941E+00  0.2939E+00  0.1610E+02  0.1610E+02
     -1.249  0.3535E+00  0.3531E+00  0.1615E+02  0.1615E+02
     -1.106  0.4038E+00  0.4038E+00  0.1621E+02  0.1621E+02
     -0.962  0.4682E+00  0.4677E+00  0.1628E+02  0.1628E+02
     -0.818  0.5110E+00  0.5110E+00  0.1635E+02  0.1635E+02
     -0.674  0.5662E+00  0.5659E+00  0.1643E+02  0.1643E+02
     -0.530  0.6442E+00  0.6439E+00  0.1653E+02  0.1653E+02
     -0.387  0.6643E+00  0.6644E+00  0.1662E+02  0.1662E+02
     -0.243  0.7538E+00  0.7530E+00  0.1673E+02  0.1673E+02
     -0.099  0.8283E+00  0.8287E+00  0.1685E+02  0.1685E+02
      0.045  0.8568E+00  0.8561E+00  0.1697E+02  0.1697E+02
      0.189  0.1004E+01  0.1004E+01  0.1712E+02  0.1712E+02
      0.333  0.1040E+01  0.1040E+01  0.1727E+02  0.1727E+02
      0.476  0.1180E+01  0.1179E+01  0.1744E+02  0.1744E+02
      0.620  0.1310E+01  0.1310E+01  0.1763E+02  0.1763E+02
      0.764  0.1550E+01  0.1550E+01  0.1785E+02  0.1785E+02
      0.908  0.1695E+01  0.1694E+01  0.1809E+02  0.1809E+02
      1.052  0.1807E+01  0.1804E+01  0.1835E+02  0.1835E+02
      1.195  0.1949E+01  0.1944E+01  0.1863E+02  0.1863E+02
      1.339  0.1987E+01  0.1985E+01  0.1892E+02  0.1892E+02
      1.483  0.1939E+01  0.1939E+01  0.1920E+02  0.1920E+02
      1.627  0.1747E+01  0.1746E+01  0.1945E+02  0.1945E+02
      1.771  0.1698E+01  0.1695E+01  0.1970E+02  0.1969E+02
      1.914  0.1823E+01  0.1818E+01  0.1996E+02  0.1996E+02
      2.058  0.2413E+01  0.2417E+01  0.2031E+02  0.2030E+02
      2.202  0.3817E+01  0.3837E+01  0.2086E+02  0.2086E+02
      2.346  0.4991E+01  0.5004E+01  0.2157E+02  0.2158E+02
      2.490  0.4445E+01  0.4444E+01  0.2221E+02  0.2222E+02
      2.634  0.3586E+01  0.3589E+01  0.2273E+02  0.2273E+02
      2.777  0.3798E+01  0.3803E+01  0.2328E+02  0.2328E+02
      2.921  0.4462E+01  0.4460E+01  0.2392E+02  0.2393E+02
      3.065  0.4679E+01  0.4671E+01  0.2460E+02  0.2460E+02
      3.209  0.4284E+01  0.4274E+01  0.2521E+02  0.2521E+02
      3.353  0.3240E+01  0.3235E+01  0.2568E+02  0.2568E+02
      3.496  0.2605E+01  0.2602E+01  0.2606E+02  0.2606E+02
      3.640  0.2343E+01  0.2343E+01  0.2639E+02  0.2639E+02
      3.784  0.2034E+01  0.2030E+01  0.2669E+02  0.2669E+02
      3.928  0.1930E+01  0.1910E+01  0.2697E+02  0.2696E+02
      4.072  0.1687E+01  0.1674E+01  0.2721E+02  0.2720E+02
      4.215  0.1536E+01  0.1539E+01  0.2743E+02  0.2742E+02
      4.359  0.1234E+01  0.1262E+01  0.2761E+02  0.2761E+02
      4.503  0.1449E+01  0.1433E+01  0.2782E+02  0.2781E+02
      4.647  0.1028E+01  0.1033E+01  0.2797E+02  0.2796E+02
      4.791  0.2161E+00  0.2410E+00  0.2800E+02  0.2800E+02
      4.935  0.1546E-01  0.1632E-01  0.2800E+02  0.2800E+02
      5.078  0.1604E-03  0.1317E-03  0.2800E+02  0.2800E+02
      5.222  0.0000E+00  0.0000E+00  0.2800E+02  0.2800E+02
      5.366  0.0000E+00  0.0000E+00  0.2800E+02  0.2800E+02
      5.510  0.0000E+00  0.0000E+00  0.2800E+02  0.2800E+02
      5.654  0.0000E+00  0.0000E+00  0.2800E+02  0.2800E+02
      5.797  0.0000E+00  0.0000E+00  0.2800E+02  0.2800E+02
      5.941  0.0000E+00  0.0000E+00  0.2800E+02  0.2800E+02
      6.085  0.0000E+00  0.0000E+00  0.2800E+02  0.2800E+02
      6.229  0.0000E+00  0.0000E+00  0.2800E+02  0.2800E+02
      6.373  0.0000E+00  0.0000E+00  0.2800E+02  0.2800E+02
      6.516  0.0000E+00  0.0000E+00  0.2800E+02  0.2800E+02
      6.660  0.0000E+00  0.0000E+00  0.2800E+02  0.2800E+02
      6.66029642    -36.48367095  301      1.93588624      1.00000000
    -36.484  0.0000E+00  0.0000E+00  0.0000E+00  0.0000E+00  0.0000E+00  0.0000E+00  0.0000E+00  0.0000E+00  0.0000E+00  0.0000E+00  0.0000E+00  0.0000E+00  0.0000E+00  0.0000E+00  0.0000E+00  0.0000E+00  0.0000E+00  0.0000E+00
    -36.340  0.0000E+00  0.0000E+00  0.0000E+00  0.0000E+00  0.0000E+00  0.0000E+00  0.0000E+00  0.0000E+00  0.0000E+00  0.0000E+00  0.0000E+00  0.0000E+00  0.0000E+00  0.0000E+00  0.0000E+00  0.0000E+00  0.0000E+00  0.0000E+00
    -36.196  0.0000E+00  0.0000E+00  0.0000E+00  0.0000E+00  0.0000E+00  0.0000E+00  0.0000E+00  0.0000E+00  0.0000E+00  0.0000E+00  0.0000E+00  0.0000E+00  0.0000E+00  0.0000E+00  0.0000E+00  0.0000E+00  0.0000E+00  0.0000E+00
    -36.052  0.0000E+00  0.0000E+00  0.0000E+00  0.0000E+00  0.0000E+00  0.0000E+00  0.0000E+00  0.0000E+00  0.0000E+00  0.0000E+00  0.0000E+00  0.0000E+00  0.0000E+00  0.0000E+00  0.0000E+00  0.0000E+00  0.0000E+00  0.0000E+00
    -35.908  0.0000E+00  0.0000E+00  0.0000E+00  0.0000E+00  0.0000E+00  0.0000E+00  0.0000E+00  0.0000E+00  0.0000E+00  0.0000E+00  0.0000E+00  0.0000E+00  0.0000E+00  0.0000E+00  0.0000E+00  0.0000E+00  0.0000E+00  0.0000E+00
    -35.765  0.0000E+00  0.0000E+00  0.0000E+00  0.0000E+00  0.0000E+00  0.0000E+00  0.0000E+00  0.0000E+00  0.0000E+00  0.0000E+00  0.0000E+00  0.0000E+00  0.0000E+00  0.0000E+00  0.0000E+00  0.0000E+00  0.0000E+00  0.0000E+00
    -35.621  0.0000E+00  0.0000E+00  0.0000E+00  0.0000E+00  0.0000E+00  0.0000E+00  0.0000E+00  0.0000E+00  0.0000E+00  0.0000E+00  0.0000E+00  0.0000E+00  0.0000E+00  0.0000E+00  0.0000E+00  0.0000E+00  0.0000E+00  0.0000E+00
    -35.477  0.0000E+00  0.0000E+00  0.0000E+00  0.0000E+00  0.0000E+00  0.0000E+00  0.0000E+00  0.0000E+00  0.0000E+00  0.0000E+00  0.0000E+00  0.0000E+00  0.0000E+00  0.0000E+00  0.0000E+00  0.0000E+00  0.0000E+00  0.0000E+00
    -35.333  0.0000E+00  0.0000E+00  0.0000E+00  0.0000E+00  0.0000E+00  0.0000E+00  0.0000E+00  0.0000E+00  0.0000E+00  0.0000E+00  0.0000E+00  0.0000E+00  0.0000E+00  0.0000E+00  0.0000E+00  0.0000E+00  0.0000E+00  0.0000E+00
    -35.189  0.0000E+00  0.0000E+00  0.0000E+00  0.0000E+00  0.0000E+00  0.0000E+00  0.0000E+00  0.0000E+00  0.0000E+00  0.0000E+00  0.0000E+00  0.0000E+00  0.0000E+00  0.0000E+00  0.0000E+00  0.0000E+00  0.0000E+00  0.0000E+00
    -35.046  0.5073E-04  0.4879E-04  0.1607E-10  0.1553E-10  0.1607E-10  0.1553E-10  0.1607E-10  0.1553E-10  0.2417E-11  0.2293E-11  0.2417E-11  0.2293E-11  0.5327E-12  0.4859E-12  0.2417E-11  0.2293E-11  0.5327E-12  0.4859E-12
    -34.902  0.2215E-02  0.2208E-02  0.4004E-09  0.3991E-09  0.4004E-09  0.3991E-09  0.4004E-09  0.3991E-09  0.1169E-09  0.1165E-09  0.1169E-09  0.1165E-09  0.5470E-10  0.5456E-10  0.1169E-09  0.1165E-09  0.5470E-10  0.5456E-10
    -34.758  0.3772E-01  0.3758E-01  0.6931E-08  0.6900E-08  0.6931E-08  0.6900E-08  0.6931E-08  0.6900E-08  0.1987E-08  0.1978E-08  0.1987E-08  0.1978E-08  0.9200E-09  0.9169E-09  0.1987E-08  0.1978E-08  0.9200E-09  0.9169E-09
    -34.614  0.6052E+00  0.6032E+00  0.1104E-06  0.1100E-06  0.1104E-06  0.1100E-06  0.1104E-06  0.1100E-06  0.3192E-07  0.3179E-07  0.3192E-07  0.3179E-07  0.1488E-07  0.1483E-07  0.3192E-07  0.3179E-07  0.1488E-07  0.1483E-07
    -34.470  0.3768E+01  0.3764E+01  0.6564E-06  0.6554E-06  0.6564E-06  0.6554E-06  0.6564E-06  0.6554E-06  0.1997E-06  0.1994E-06  0.1997E-06  0.1994E-06  0.9732E-07  0.9726E-07  0.1997E-06  0.1994E-06  0.9732E-07  0.9726E-07
    -34.326  0.2194E+01  0.2199E+01  0.3588E-06  0.3594E-06  0.3588E-06  0.3594E-06  0.3588E-06  0.3594E-06  0.1161E-06  0.1163E-06  0.1161E-06  0.1163E-06  0.6021E-07  0.6037E-07  0.1161E-06  0.1163E-06  0.6021E-07  0.6037E-07
    -34.183  0.1914E+00  0.1921E+00  0.3052E-07  0.3061E-07  0.3052E-07  0.3061E-07  0.3052E-07  0.3061E-07  0.1010E-07  0.1013E-07  0.1010E-07  0.1013E-07  0.5369E-08  0.5392E-08  0.1010E-07  0.1013E-07  0.5369E-08  0.5392E-08
    -34.039  0.0000E+00  0.0000E+00  0.0000E+00  0.0000E+00  0.0000E+00  0.0000E+00  0.0000E+00  0.0000E+00  0.0000E+00  0.0000E+00  0.0000E+00  0.0000E+00  0.0000E+00  0.0000E+00  0.0000E+00  0.0000E+00  0.0000E+00  0.0000E+00
    -33.895  0.0000E+00  0.0000E+00  0.0000E+00  0.0000E+00  0.0000E+00  0.0000E+00  0.0000E+00  0.0000E+00  0.0000E+00  0.0000E+00  0.0000E+00  0.0000E+00  0.0000E+00  0.0000E+00  0.0000E+00  0.0000E+00  0.0000E+00  0.0000E+00
    -33.751  0.0000E+00  0.0000E+00  0.0000E+00  0.0000E+00  0.0000E+00  0.0000E+00  0.0000E+00  0.0000E+00  0.0000E+00  0.0000E+00  0.0000E+00  0.0000E+00  0.0000E+00  0.0000E+00  0.0000E+00  0.0000E+00  0.0000E+00  0.0000E+00
    -33.607  0.0000E+00  0.0000E+00  0.0000E+00  0.0000E+00  0.0000E+00  0.0000E+00  0.0000E+00  0.0000E+00  0.0000E+00  0.0000E+00  0.0000E+00  0.0000E+00  0.0000E+00  0.0000E+00  0.0000E+00  0.0000E+00  0.0000E+00  0.0000E+00
    -33.464  0.0000E+00  0.0000E+00  0.0000E+00  0.0000E+00  0.0000E+00  0.0000E+00  0.0000E+00  0.0000E+00  0.0000E+00  0.0000E+00  0.0000E+00  0.0000E+00  0.0000E+00  0.0000E+00  0.0000E+00  0.0000E+00  0.0000E+00  0.0000E+00
    -33.320  0.0000E+00  0.0000E+00  0.0000E+00  0.0000E+00  0.0000E+00  0.0000E+00  0.0000E+00  0.0000E+00  0.0000E+00  0.0000E+00  0.0000E+00  0.0000E+00  0.0000E+00  0.0000E+00  0.0000E+00  0.0000E+00  0.0000E+00  0.0000E+00
    -33.176  0.0000E+00  0.0000E+00  0.0000E+00  0.0000E+00  0.0000E+00  0.0000E+00  0.0000E+00  0.0000E+00  0.0000E+00  0.0000E+00  0.0000E+00  0.0000E+00  0.0000E+00  0.0000E+00  0.0000E+00  0.0000E+00  0.0000E+00  0.0000E+00
    -33.032  0.0000E+00  0.0000E+00  0.0000E+00  0.0000E+00  0.0000E+00  0.0000E+00  0.0000E+00  0.0000E+00  0.0000E+00  0.0000E+00  0.0000E+00  0.0000E+00  0.0000E+00  0.0000E+00  0.0000E+00  0.0000E+00  0.0000E+00  0.0000E+00
    -32.888  0.0000E+00  0.0000E+00  0.0000E+00  0.0000E+00  0.0000E+00  0.0000E+00  0.0000E+00  0.0000E+00  0.0000E+00  0.0000E+00  0.0000E+00  0.0000E+00  0.0000E+00  0.0000E+00  0.0000E+00  0.0000E+00  0.0000E+00  0.0000E+00
    -32.745  0.0000E+00  0.0000E+00  0.0000E+00  0.0000E+00  0.0000E+00  0.0000E+00  0.0000E+00  0.0000E+00  0.0000E+00  0.0000E+00  0.0000E+00  0.0000E+00  0.0000E+00  0.0000E+00  0.0000E+00  0.0000E+00  0.0000E+00  0.0000E+00
    -32.601  0.0000E+00  0.0000E+00  0.0000E+00  0.0000E+00  0.0000E+00  0.0000E+00  0.0000E+00  0.0000E+00  0.0000E+00  0.0000E+00  0.0000E+00  0.0000E+00  0.0000E+00  0.0000E+00  0.0000E+00  0.0000E+00  0.0000E+00  0.0000E+00
    -32.457  0.0000E+00  0.0000E+00  0.0000E+00  0.0000E+00  0.0000E+00  0.0000E+00  0.0000E+00  0.0000E+00  0.0000E+00  0.0000E+00  0.0000E+00  0.0000E+00  0.0000E+00  0.0000E+00  0.0000E+00  0.0000E+00  0.0000E+00  0.0000E+00
    -32.313  0.0000E+00  0.0000E+00  0.0000E+00  0.0000E+00  0.0000E+00  0.0000E+00  0.0000E+00  0.0000E+00  0.0000E+00  0.0000E+00  0.0000E+00  0.0000E+00  0.0000E+00  0.0000E+00  0.0000E+00  0.0000E+00  0.0000E+00  0.0000E+00
    -32.169  0.0000E+00  0.0000E+00  0.0000E+00  0.0000E+00  0.0000E+00  0.0000E+00  0.0000E+00  0.0000E+00  0.0000E+00  0.0000E+00  0.0000E+00  0.0000E+00  0.0000E+00  0.0000E+00  0.0000E+00  0.0000E+00  0.0000E+00  0.0000E+00
    -32.025  0.0000E+00  0.0000E+00  0.0000E+00  0.0000E+00  0.0000E+00  0.0000E+00  0.0000E+00  0.0000E+00  0.0000E+00  0.0000E+00  0.0000E+00  0.0000E+00  0.0000E+00  0.0000E+00  0.0000E+00  0.0000E+00  0.0000E+00  0.0000E+00
    -31.882  0.0000E+00  0.0000E+00  0.0000E+00  0.0000E+00  0.0000E+00  0.0000E+00  0.0000E+00  0.0000E+00  0.0000E+00  0.0000E+00  0.0000E+00  0.0000E+00  0.0000E+00  0.0000E+00  0.0000E+00  0.0000E+00  0.0000E+00  0.0000E+00
    -31.738  0.0000E+00  0.0000E+00  0.0000E+00  0.0000E+00  0.0000E+00  0.0000E+00  0.0000E+00  0.0000E+00  0.0000E+00  0.0000E+00  0.0000E+00  0.0000E+00  0.0000E+00  0.0000E+00  0.0000E+00  0.0000E+00  0.0000E+00  0.0000E+00
    -31.594  0.0000E+00  0.0000E+00  0.0000E+00  0.0000E+00  0.0000E+00  0.0000E+00  0.0000E+00  0.0000E+00  0.0000E+00  0.0000E+00  0.0000E+00  0.0000E+00  0.0000E+00  0.0000E+00  0.0000E+00  0.0000E+00  0.0000E+00  0.0000E+00
    -31.450  0.0000E+00  0.0000E+00  0.0000E+00  0.0000E+00  0.0000E+00  0.0000E+00  0.0000E+00  0.0000E+00  0.0000E+00  0.0000E+00  0.0000E+00  0.0000E+00  0.0000E+00  0.0000E+00  0.0000E+00  0.0000E+00  0.0000E+00  0.0000E+00
    -31.306  0.0000E+00  0.0000E+00  0.0000E+00  0.0000E+00  0.0000E+00  0.0000E+00  0.0000E+00  0.0000E+00  0.0000E+00  0.0000E+00  0.0000E+00  0.0000E+00  0.0000E+00  0.0000E+00  0.0000E+00  0.0000E+00  0.0000E+00  0.0000E+00
    -31.163  0.0000E+00  0.0000E+00  0.0000E+00  0.0000E+00  0.0000E+00  0.0000E+00  0.0000E+00  0.0000E+00  0.0000E+00  0.0000E+00  0.0000E+00  0.0000E+00  0.0000E+00  0.0000E+00  0.0000E+00  0.0000E+00  0.0000E+00  0.0000E+00
    -31.019  0.0000E+00  0.0000E+00  0.0000E+00  0.0000E+00  0.0000E+00  0.0000E+00  0.0000E+00  0.0000E+00  0.0000E+00  0.0000E+00  0.0000E+00  0.0000E+00  0.0000E+00  0.0000E+00  0.0000E+00  0.0000E+00  0.0000E+00  0.0000E+00
    -30.875  0.0000E+00  0.0000E+00  0.0000E+00  0.0000E+00  0.0000E+00  0.0000E+00  0.0000E+00  0.0000E+00  0.0000E+00  0.0000E+00  0.0000E+00  0.0000E+00  0.0000E+00  0.0000E+00  0.0000E+00  0.0000E+00  0.0000E+00  0.0000E+00
    -30.731  0.0000E+00  0.0000E+00  0.0000E+00  0.0000E+00  0.0000E+00  0.0000E+00  0.0000E+00  0.0000E+00  0.0000E+00  0.0000E+00  0.0000E+00  0.0000E+00  0.0000E+00  0.0000E+00  0.0000E+00  0.0000E+00  0.0000E+00  0.0000E+00
    -30.587  0.0000E+00  0.0000E+00  0.0000E+00  0.0000E+00  0.0000E+00  0.0000E+00  0.0000E+00  0.0000E+00  0.0000E+00  0.0000E+00  0.0000E+00  0.0000E+00  0.0000E+00  0.0000E+00  0.0000E+00  0.0000E+00  0.0000E+00  0.0000E+00
    -30.444  0.0000E+00  0.0000E+00  0.0000E+00  0.0000E+00  0.0000E+00  0.0000E+00  0.0000E+00  0.0000E+00  0.0000E+00  0.0000E+00  0.0000E+00  0.0000E+00  0.0000E+00  0.0000E+00  0.0000E+00  0.0000E+00  0.0000E+00  0.0000E+00
    -30.300  0.0000E+00  0.0000E+00  0.0000E+00  0.0000E+00  0.0000E+00  0.0000E+00  0.0000E+00  0.0000E+00  0.0000E+00  0.0000E+00  0.0000E+00  0.0000E+00  0.0000E+00  0.0000E+00  0.0000E+00  0.0000E+00  0.0000E+00  0.0000E+00
    -30.156  0.0000E+00  0.0000E+00  0.0000E+00  0.0000E+00  0.0000E+00  0.0000E+00  0.0000E+00  0.0000E+00  0.0000E+00  0.0000E+00  0.0000E+00  0.0000E+00  0.0000E+00  0.0000E+00  0.0000E+00  0.0000E+00  0.0000E+00  0.0000E+00
    -30.012  0.0000E+00  0.0000E+00  0.0000E+00  0.0000E+00  0.0000E+00  0.0000E+00  0.0000E+00  0.0000E+00  0.0000E+00  0.0000E+00  0.0000E+00  0.0000E+00  0.0000E+00  0.0000E+00  0.0000E+00  0.0000E+00  0.0000E+00  0.0000E+00
    -29.868  0.0000E+00  0.0000E+00  0.0000E+00  0.0000E+00  0.0000E+00  0.0000E+00  0.0000E+00  0.0000E+00  0.0000E+00  0.0000E+00  0.0000E+00  0.0000E+00  0.0000E+00  0.0000E+00  0.0000E+00  0.0000E+00  0.0000E+00  0.0000E+00
    -29.724  0.0000E+00  0.0000E+00  0.0000E+00  0.0000E+00  0.0000E+00  0.0000E+00  0.0000E+00  0.0000E+00  0.0000E+00  0.0000E+00  0.0000E+00  0.0000E+00  0.0000E+00  0.0000E+00  0.0000E+00  0.0000E+00  0.0000E+00  0.0000E+00
    -29.581  0.0000E+00  0.0000E+00  0.0000E+00  0.0000E+00  0.0000E+00  0.0000E+00  0.0000E+00  0.0000E+00  0.0000E+00  0.0000E+00  0.0000E+00  0.0000E+00  0.0000E+00  0.0000E+00  0.0000E+00  0.0000E+00  0.0000E+00  0.0000E+00
    -29.437  0.0000E+00  0.0000E+00  0.0000E+00  0.0000E+00  0.0000E+00  0.0000E+00  0.0000E+00  0.0000E+00  0.0000E+00  0.0000E+00  0.0000E+00  0.0000E+00  0.0000E+00  0.0000E+00  0.0000E+00  0.0000E+00  0.0000E+00  0.0000E+00
    -29.293  0.0000E+00  0.0000E+00  0.0000E+00  0.0000E+00  0.0000E+00  0.0000E+00  0.0000E+00  0.0000E+00  0.0000E+00  0.0000E+00  0.0000E+00  0.0000E+00  0.0000E+00  0.0000E+00  0.0000E+00  0.0000E+00  0.0000E+00  0.0000E+00