   4   4   1   0
  0.6719537E+02  0.6453567E-09  0.6453567E-09  0.6453567E-09  0.5000000E-15
  1.000000000000000E-004
  CAR 
 unknown system                          
      5.33136760    -38.05366955  301      0.92711172      1.00000000
    -38.054  0.0000E+00  0.0000E+00  0.0000E+00  0.0000E+00
    -37.909  0.0000E+00  0.0000E+00  0.0000E+00  0.0000E+00
    -37.764  0.0000E+00  0.0000E+00  0.0000E+00  0.0000E+00
    -37.620  0.0000E+00  0.0000E+00  0.0000E+00  0.0000E+00
    -37.475  0.0000E+00  0.0000E+00  0.0000E+00  0.0000E+00
    -37.331  0.0000E+00  0.0000E+00  0.0000E+00  0.0000E+00
    -37.186  0.0000E+00  0.0000E+00  0.0000E+00  0.0000E+00
    -37.041  0.0000E+00  0.0000E+00  0.0000E+00  0.0000E+00
    -36.897  0.0000E+00  0.0000E+00  0.0000E+00  0.0000E+00
    -36.752  0.0000E+00  0.0000E+00  0.0000E+00  0.0000E+00
    -36.608  0.6763E-03  0.6400E-03  0.9781E-04  0.9256E-04
    -36.463  0.1152E-01  0.1090E-01  0.1763E-02  0.1669E-02
    -36.318  0.2061E+00  0.1951E+00  0.3156E-01  0.2988E-01
    -36.174  0.3251E+01  0.3099E+01  0.5018E+00  0.4781E+00
    -36.029  0.1648E+02  0.1633E+02  0.2884E+01  0.2840E+01
    -35.884  0.7133E+01  0.7411E+01  0.3916E+01  0.3911E+01
    -35.740  0.5480E+00  0.5783E+00  0.3995E+01  0.3995E+01
    -35.595  0.0000E+00  0.0000E+00  0.4000E+01  0.4000E+01
    -35.451  0.0000E+00  0.0000E+00  0.4000E+01  0.4000E+01
    -35.306  0.0000E+00  0.0000E+00  0.4000E+01  0.4000E+01
    -35.161  0.0000E+00  0.0000E+00  0.4000E+01  0.4000E+01
    -35.017  0.0000E+00  0.0000E+00  0.4000E+01  0.4000E+01
    -34.872  0.0000E+00  0.0000E+00  0.4000E+01  0.4000E+01
    -34.727  0.0000E+00  0.0000E+00  0.4000E+01  0.4000E+01
    -34.583  0.0000E+00  0.0000E+00  0.4000E+01  0.4000E+01
    -34.438  0.0000E+00  0.0000E+00  0.4000E+01  0.4000E+01
    -34.294  0.0000E+00  0.0000E+00  0.4000E+01  0.4000E+01
    -34.149  0.0000E+00  0.0000E+00  0.4000E+01  0.4000E+01
    -34.004  0.0000E+00  0.0000E+00  0.4000E+01  0.4000E+01
    -33.860  0.0000E+00  0.0000E+00  0.4000E+01  0.4000E+01
    -33.715  0.0000E+00  0.0000E+00  0.4000E+01  0.4000E+01
    -33.571  0.0000E+00  0.0000E+00  0.4000E+01  0.4000E+01
    -33.426  0.0000E+00  0.0000E+00  0.4000E+01  0.4000E+01
    -33.281  0.0000E+00  0.0000E+00  0.4000E+01  0.4000E+01
    -33.137  0.0000E+00  0.0000E+00  0.4000E+01  0.4000E+01
    -32.992  0.0000E+00  0.0000E+00  0.4000E+01  0.4000E+01
    -32.847  0.0000E+00  0.0000E+00  0.4000E+01  0.4000E+01
    -32.703  0.0000E+00  0.0000E+00  0.4000E+01  0.4000E+01
    -32.558  0.0000E+00  0.0000E+00  0.4000E+01  0.4000E+01
    -32.414  0.0000E+00  0.0000E+00  0.4000E+01  0.4000E+01
    -32.269  0.0000E+00  0.0000E+00  0.4000E+01  0.4000E+01
    -32.124  0.0000E+00  0.0000E+00  0.4000E+01  0.4000E+01
    -31.980  0.0000E+00  0.0000E+00  0.4000E+01  0.4000E+01
    -31.835  0.0000E+00  0.0000E+00  0.4000E+01  0.4000E+01
    -31.691  0.0000E+00  0.0000E+00  0.4000E+01  0.4000E+01
    -31.546  0.0000E+00  0.0000E+00  0.4000E+01  0.4000E+01
    -31.401  0.0000E+00  0.0000E+00  0.4000E+01  0.4000E+01
    -31.257  0.0000E+00  0.0000E+00  0.4000E+01  0.4000E+01
    -31.112  0.0000E+00  0.0000E+00  0.4000E+01  0.4000E+01
    -30.967  0.0000E+00  0.0000E+00  0.4000E+01  0.4000E+01
    -30.823  0.0000E+00  0.0000E+00  0.4000E+01  0.4000E+01
    -30.678  0.0000E+00  0.0000E+00  0.4000E+01  0.4000E+01
    -30.534  0.0000E+00  0.0000E+00  0.4000E+01  0.4000E+01
    -30.389  0.0000E+00  0.0000E+00  0.4000E+01  0.4000E+01
    -30.244  0.0000E+00  0.0000E+00  0.4000E+01  0.4000E+01
    -30.100  0.0000E+00  0.0000E+00  0.4000E+01  0.4000E+01
    -29.955  0.0000E+00  0.0000E+00  0.4000E+01  0.4000E+01
    -29.811  0.0000E+00  0.0000E+00  0.4000E+01  0.4000E+01
    -29.666  0.0000E+00  0.0000E+00  0.4000E+01  0.4000E+01
    -29.521  0.0000E+00  0.0000E+00  0.4000E+01  0.4000E+01
    -29.377  0.0000E+00  0.0000E+00  0.4000E+01  0.4000E+01
    -29.232  0.0000E+00  0.0000E+00  0.4000E+01  0.4000E+01
    -29.087  0.0000E+00  0.0000E+00  0.4000E+01  0.4000E+01
    -28.943  0.0000E+00  0.0000E+00  0.4000E+01  0.4000E+01
    -28.798  0.0000E+00  0.0000E+00  0.4000E+01  0.4000E+01
    -28.654  0.0000E+00  0.0000E+00  0.4000E+01  0.4000E+01
    -28.509  0.0000E+00  0.0000E+00  0.4000E+01  0.4000E+01
    -28.364  0.0000E+00  0.0000E+00  0.4000E+01  0.4000E+01
    -28.220  0.0000E+00  0.0000E+00  0.4000E+01  0.4000E+01
    -28.075  0.0000E+00  0.0000E+00  0.4000E+01  0.4000E+01
    -27.930  0.0000E+00  0.0000E+00  0.4000E+01  0.4000E+01
    -27.786  0.0000E+00  0.0000E+00  0.4000E+01  0.4000E+01
    -27.641  0.0000E+00  0.0000E+00  0.4000E+01  0.4000E+01
    -27.497  0.0000E+00  0.0000E+00  0.4000E+01  0.4000E+01
    -27.352  0.0000E+00  0.0000E+00  0.4000E+01  0.4000E+01
    -27.207  0.0000E+00  0.0000E+00  0.4000E+01  0.4000E+01
    -27.063  0.0000E+00  0.0000E+00  0.4000E+01  0.4000E+01
    -26.918  0.0000E+00  0.0000E+00  0.4000E+01  0.4000E+01
    -26.774  0.0000E+00  0.0000E+00  0.4000E+01  0.4000E+01
    -26.629  0.0000E+00  0.0000E+00  0.4000E+01  0.4000E+01
    -26.484  0.0000E+00  0.0000E+00  0.4000E+01  0.4000E+01
    -26.340  0.0000E+00  0.0000E+00  0.4000E+01  0.4000E+01
    -26.195  0.0000E+00  0.0000E+00  0.4000E+01  0.4000E+01
    -26.050  0.0000E+00  0.0000E+00  0.4000E+01  0.4000E+01
    -25.906  0.0000E+00  0.0000E+00  0.4000E+01  0.4000E+01
    -25.761  0.0000E+00  0.0000E+00  0.4000E+01  0.4000E+01
    -25.617  0.0000E+00  0.0000E+00  0.4000E+01  0.4000E+01
    -25.472  0.0000E+00  0.0000E+00  0.4000E+01  0.4000E+01
    -25.327  0.0000E+00  0.0000E+00  0.4000E+01  0.4000E+01
    -25.183  0.0000E+00  0.0000E+00  0.4000E+01  0.4000E+01
    -25.038  0.0000E+00  0.0000E+00  0.4000E+01  0.4000E+01
    -24.894  0.0000E+00  0.0000E+00  0.4000E+01  0.4000E+01
    -24.749  0.0000E+00  0.0000E+00  0.4000E+01  0.4000E+01
    -24.604  0.0000E+00  0.0000E+00  0.4000E+01  0.4000E+01
    -24.460  0.0000E+00  0.0000E+00  0.4000E+01  0.4000E+01
    -24.315  0.0000E+00  0.0000E+00  0.4000E+01  0.4000E+01
    -24.170  0.0000E+00  0.0000E+00  0.4000E+01  0.4000E+01
    -24.026  0.0000E+00  0.0000E+00  0.4000E+01  0.4000E+01
    -23.881  0.0000E+00  0.0000E+00  0.4000E+01  0.4000E+01
    -23.737  0.0000E+00  0.0000E+00  0.4000E+01  0.4000E+01
    -23.592  0.0000E+00  0.0000E+00  0.4000E+01  0.4000E+01
    -23.447  0.0000E+00  0.0000E+00  0.4000E+01  0.4000E+01
    -23.303  0.0000E+00  0.0000E+00  0.4000E+01  0.4000E+01
    -23.158  0.0000E+00  0.0000E+00  0.4000E+01  0.4000E+01
    -23.014  0.0000E+00  0.0000E+00  0.4000E+01  0.4000E+01
    -22.869  0.0000E+00  0.0000E+00  0.4000E+01  0.4000E+01
    -22.724  0.0000E+00  0.0000E+00  0.4000E+01  0.4000E+01
    -22.580  0.0000E+00  0.0000E+00  0.4000E+01  0.4000E+01
    -22.435  0.0000E+00  0.0000E+00  0.4000E+01  0.4000E+01
    -22.290  0.0000E+00  0.0000E+00  0.4000E+01  0.4000E+01
    -22.146  0.0000E+00  0.0000E+00  0.4000E+01  0.4000E+01
    -22.001  0.0000E+00  0.0000E+00  0.4000E+01  0.4000E+01
    -21.857  0.0000E+00  0.0000E+00  0.4000E+01  0.4000E+01
    -21.712  0.0000E+00  0.0000E+00  0.4000E+01  0.4000E+01
    -21.567  0.0000E+00  0.0000E+00  0.4000E+01  0.4000E+01
    -21.423  0.0000E+00  0.0000E+00  0.4000E+01  0.4000E+01
    -21.278  0.0000E+00  0.0000E+00  0.4000E+01  0.4000E+01
    -21.134  0.0000E+00  0.0000E+00  0.4000E+01  0.4000E+01
    -20.989  0.0000E+00  0.0000E+00  0.4000E+01  0.4000E+01
    -20.844  0.0000E+00  0.0000E+00  0.4000E+01  0.4000E+01
    -20.700  0.0000E+00  0.0000E+00  0.4000E+01  0.4000E+01
    -20.555  0.0000E+00  0.0000E+00  0.4000E+01  0.4000E+01
    -20.410  0.0000E+00  0.0000E+00  0.4000E+01  0.4000E+01
    -20.266  0.0000E+00  0.0000E+00  0.4000E+01  0.4000E+01
    -20.121  0.0000E+00  0.0000E+00  0.4000E+01  0.4000E+01
    -19.977  0.0000E+00  0.0000E+00  0.4000E+01  0.4000E+01
    -19.832  0.0000E+00  0.0000E+00  0.4000E+01  0.4000E+01
    -19.687  0.0000E+00  0.0000E+00  0.4000E+01  0.4000E+01
    -19.543  0.0000E+00  0.0000E+00  0.4000E+01  0.4000E+01
    -19.398  0.0000E+00  0.0000E+00  0.4000E+01  0.4000E+01
    -19.253  0.0000E+00  0.0000E+00  0.4000E+01  0.4000E+01
    -19.109  0.0000E+00  0.0000E+00  0.4000E+01  0.4000E+01
    -18.964  0.0000E+00  0.0000E+00  0.4000E+01  0.4000E+01
    -18.820  0.0000E+00  0.0000E+00  0.4000E+01  0.4000E+01
    -18.675  0.0000E+00  0.0000E+00  0.4000E+01  0.4000E+01
    -18.530  0.4005E-02  0.3776E-02  0.4001E+01  0.4001E+01
    -18.386  0.6815E-01  0.6429E-01  0.4010E+01  0.4010E+01
    -18.241  0.1205E+01  0.1138E+01  0.4185E+01  0.4174E+01
    -18.097  0.1625E+02  0.1556E+02  0.6535E+01  0.6425E+01
    -17.952  0.4953E+02  0.4955E+02  0.1370E+02  0.1359E+02
    -17.807  0.1481E+02  0.1548E+02  0.1584E+02  0.1583E+02
    -17.663  0.1004E+01  0.1084E+01  0.1599E+02  0.1599E+02
    -17.518  0.0000E+00  0.0000E+00  0.1600E+02  0.1600E+02
    -17.373  0.0000E+00  0.0000E+00  0.1600E+02  0.1600E+02
    -17.229  0.0000E+00  0.0000E+00  0.1600E+02  0.1600E+02
    -17.084  0.0000E+00  0.0000E+00  0.1600E+02  0.1600E+02
    -16.940  0.0000E+00  0.0000E+00  0.1600E+02  0.1600E+02
    -16.795  0.0000E+00  0.0000E+00  0.1600E+02  0.1600E+02
    -16.650  0.0000E+00  0.0000E+00  0.1600E+02  0.1600E+02
    -16.506  0.0000E+00  0.0000E+00  0.1600E+02  0.1600E+02
    -16.361  0.0000E+00  0.0000E+00  0.1600E+02  0.1600E+02
    -16.217  0.0000E+00  0.0000E+00  0.1600E+02  0.1600E+02
    -16.072  0.0000E+00  0.0000E+00  0.1600E+02  0.1600E+02
    -15.927  0.0000E+00  0.0000E+00  0.1600E+02  0.1600E+02
    -15.783  0.0000E+00  0.0000E+00  0.1600E+02  0.1600E+02
    -15.638  0.0000E+00  0.0000E+00  0.1600E+02  0.1600E+02
    -15.493  0.0000E+00  0.0000E+00  0.1600E+02  0.1600E+02
    -15.349  0.0000E+00  0.0000E+00  0.1600E+02  0.1600E+02
    -15.204  0.0000E+00  0.0000E+00  0.1600E+02  0.1600E+02
    -15.060  0.0000E+00  0.0000E+00  0.1600E+02  0.1600E+02
    -14.915  0.0000E+00  0.0000E+00  0.1600E+02  0.1600E+02
    -14.770  0.0000E+00  0.0000E+00  0.1600E+02  0.1600E+02
    -14.626  0.0000E+00  0.0000E+00  0.1600E+02  0.1600E+02
    -14.481  0.0000E+00  0.0000E+00  0.1600E+02  0.1600E+02
    -14.337  0.0000E+00  0.0000E+00  0.1600E+02  0.1600E+02
    -14.192  0.0000E+00  0.0000E+00  0.1600E+02  0.1600E+02
    -14.047  0.0000E+00  0.0000E+00  0.1600E+02  0.1600E+02
    -13.903  0.0000E+00  0.0000E+00  0.1600E+02  0.1600E+02
    -13.758  0.0000E+00  0.0000E+00  0.1600E+02  0.1600E+02
    -13.613  0.0000E+00  0.0000E+00  0.1600E+02  0.1600E+02
    -13.469  0.0000E+00  0.0000E+00  0.1600E+02  0.1600E+02
    -13.324  0.0000E+00  0.0000E+00  0.1600E+02  0.1600E+02
    -13.180  0.0000E+00  0.0000E+00  0.1600E+02  0.1600E+02
    -13.035  0.0000E+00  0.0000E+00  0.1600E+02  0.1600E+02
    -12.890  0.0000E+00  0.0000E+00  0.1600E+02  0.1600E+02
    -12.746  0.0000E+00  0.0000E+00  0.1600E+02  0.1600E+02
    -12.601  0.0000E+00  0.0000E+00  0.1600E+02  0.1600E+02
    -12.456  0.0000E+00  0.0000E+00  0.1600E+02  0.1600E+02
    -12.312  0.0000E+00  0.0000E+00  0.1600E+02  0.1600E+02
    -12.167  0.0000E+00  0.0000E+00  0.1600E+02  0.1600E+02
    -12.023  0.0000E+00  0.0000E+00  0.1600E+02  0.1600E+02
    -11.878  0.0000E+00  0.0000E+00  0.1600E+02  0.1600E+02
    -11.733  0.0000E+00  0.0000E+00  0.1600E+02  0.1600E+02
    -11.589  0.0000E+00  0.0000E+00  0.1600E+02  0.1600E+02
    -11.444  0.0000E+00  0.0000E+00  0.1600E+02  0.1600E+02
    -11.300  0.0000E+00  0.0000E+00  0.1600E+02  0.1600E+02
    -11.155  0.0000E+00  0.0000E+00  0.1600E+02  0.1600E+02
    -11.010  0.0000E+00  0.0000E+00  0.1600E+02  0.1600E+02
    -10.866  0.0000E+00  0.0000E+00  0.1600E+02  0.1600E+02
    -10.721  0.0000E+00  0.0000E+00  0.1600E+02  0.1600E+02
    -10.576  0.0000E+00  0.0000E+00  0.1600E+02  0.1600E+02
    -10.432  0.0000E+00  0.0000E+00  0.1600E+02  0.1600E+02
    -10.287  0.0000E+00  0.0000E+00  0.1600E+02  0.1600E+02
    -10.143  0.0000E+00  0.0000E+00  0.1600E+02  0.1600E+02
     -9.998  0.0000E+00  0.0000E+00  0.1600E+02  0.1600E+02
     -9.853  0.0000E+00  0.0000E+00  0.1600E+02  0.1600E+02
     -9.709  0.0000E+00  0.0000E+00  0.1600E+02  0.1600E+02
     -9.564  0.0000E+00  0.0000E+00  0.1600E+02  0.1600E+02
     -9.420  0.0000E+00  0.0000E+00  0.1600E+02  0.1600E+02
     -9.275  0.0000E+00  0.0000E+00  0.1600E+02  0.1600E+02
     -9.130  0.0000E+00  0.0000E+00  0.1600E+02  0.1600E+02
     -8.986  0.0000E+00  0.0000E+00  0.1600E+02  0.1600E+02
     -8.841  0.0000E+00  0.0000E+00  0.1600E+02  0.1600E+02
     -8.696  0.0000E+00  0.0000E+00  0.1600E+02  0.1600E+02
     -8.552  0.0000E+00  0.0000E+00  0.1600E+02  0.1600E+02
     -8.407  0.0000E+00  0.0000E+00  0.1600E+02  0.1600E+02
     -8.263  0.0000E+00  0.0000E+00  0.1600E+02  0.1600E+02
     -8.118  0.0000E+00  0.0000E+00  0.1600E+02  0.1600E+02
     -7.973  0.0000E+00  0.0000E+00  0.1600E+02  0.1600E+02
     -7.829  0.0000E+00  0.0000E+00  0.1600E+02  0.1600E+02
     -7.684  0.0000E+00  0.0000E+00  0.1600E+02  0.1600E+02
     -7.540  0.0000E+00  0.0000E+00  0.1600E+02  0.1600E+02
     -7.395  0.0000E+00  0.0000E+00  0.1600E+02  0.1600E+02
     -7.250  0.0000E+00  0.0000E+00  0.1600E+02  0.1600E+02
     -7.106  0.0000E+00  0.0000E+00  0.1600E+02  0.1600E+02
     -6.961  0.0000E+00  0.0000E+00  0.1600E+02  0.1600E+02
     -6.816  0.0000E+00  0.0000E+00  0.1600E+02  0.1600E+02
     -6.672  0.0000E+00  0.0000E+00  0.1600E+02  0.1600E+02
     -6.527  0.0000E+00  0.0000E+00  0.1600E+02  0.1600E+02
     -6.383  0.0000E+00  0.0000E+00  0.1600E+02  0.1600E+02
     -6.238  0.0000E+00  0.0000E+00  0.1600E+02  0.1600E+02
     -6.093  0.0000E+00  0.0000E+00  0.1600E+02  0.1600E+02
     -5.949  0.0000E+00  0.0000E+00  0.1600E+02  0.1600E+02
     -5.804  0.0000E+00  0.0000E+00  0.1600E+02  0.1600E+02
     -5.660  0.0000E+00  0.0000E+00  0.1600E+02  0.1600E+02
     -5.515  0.0000E+00  0.0000E+00  0.1600E+02  0.1600E+02
     -5.370  0.0000E+00  0.0000E+00  0.1600E+02  0.1600E+02
     -5.226  0.0000E+00  0.0000E+00  0.1600E+02  0.1600E+02
     -5.081  0.0000E+00  0.0000E+00  0.1600E+02  0.1600E+02
     -4.936  0.0000E+00  0.0000E+00  0.1600E+02  0.1600E+02
     -4.792  0.0000E+00  0.0000E+00  0.1600E+02  0.1600E+02
     -4.647  0.0000E+00  0.0000E+00  0.1600E+02  0.1600E+02
     -4.503  0.0000E+00  0.0000E+00  0.1600E+02  0.1600E+02
     -4.358  0.0000E+00  0.0000E+00  0.1600E+02  0.1600E+02
     -4.213  0.0000E+00  0.0000E+00  0.1600E+02  0.1600E+02
     -4.069  0.0000E+00  0.0000E+00  0.1600E+02  0.1600E+02
     -3.924  0.0000E+00  0.0000E+00  0.1600E+02  0.1600E+02
     -3.779  0.0000E+00  0.0000E+00  0.1600E+02  0.1600E+02
     -3.635  0.0000E+00  0.0000E+00  0.1600E+02  0.1600E+02
     -3.490  0.0000E+00  0.0000E+00  0.1600E+02  0.1600E+02
     -3.346  0.0000E+00  0.0000E+00  0.1600E+02  0.1600E+02
     -3.201  0.0000E+00  0.0000E+00  0.1600E+02  0.1600E+02
     -3.056  0.0000E+00  0.0000E+00  0.1600E+02  0.1600E+02
     -2.912  0.4562E-06  0.5957E-07  0.1600E+02  0.1600E+02
     -2.767  0.2461E-04  0.1367E-04  0.1600E+02  0.1600E+02
     -2.623  0.4473E-03  0.2659E-03  0.1600E+02  0.1600E+02
     -2.478  0.7604E-02  0.4614E-02  0.1600E+02  0.1600E+02
     -2.333  0.7515E-01  0.5398E-01  0.1601E+02  0.1601E+02
     -2.189  0.2295E+00  0.2016E+00  0.1605E+02  0.1604E+02
     -2.044  0.3574E+00  0.3376E+00  0.1610E+02  0.1609E+02
     -1.899  0.4569E+00  0.4377E+00  0.1616E+02  0.1615E+02
     -1.755  0.5314E+00  0.5193E+00  0.1624E+02  0.1622E+02
     -1.610  0.6290E+00  0.6165E+00  0.1633E+02  0.1631E+02
     -1.466  0.6876E+00  0.6717E+00  0.1643E+02  0.1641E+02
     -1.321  0.7884E+00  0.7732E+00  0.1654E+02  0.1652E+02
     -1.176  0.8226E+00  0.8135E+00  0.1666E+02  0.1664E+02
     -1.032  0.9628E+00  0.9446E+00  0.1680E+02  0.1678E+02
     -0.887  0.9778E+00  0.9692E+00  0.1695E+02  0.1692E+02
     -0.743  0.1121E+01  0.1100E+01  0.1711E+02  0.1708E+02
     -0.598  0.1191E+01  0.1178E+01  0.1728E+02  0.1725E+02
     -0.453  0.1270E+01  0.1251E+01  0.1746E+02  0.1743E+02
     -0.309  0.1459E+01  0.1435E+01  0.1768E+02  0.1764E+02
     -0.164  0.1526E+01  0.1516E+01  0.1790E+02  0.1786E+02
     -0.019  0.1844E+01  0.1809E+01  0.1816E+02  0.1812E+02
      0.125  0.1805E+01  0.1815E+01  0.1842E+02  0.1838E+02
      0.270  0.1885E+01  0.1880E+01  0.1870E+02  0.1865E+02
      0.414  0.1811E+01  0.1773E+01  0.1896E+02  0.1891E+02
      0.559  0.1892E+01  0.1889E+01  0.1923E+02  0.1919E+02
      0.704  0.1821E+01  0.1801E+01  0.1950E+02  0.1945E+02
      0.848  0.2148E+01  0.1958E+01  0.1981E+02  0.1973E+02
      0.993  0.3181E+01  0.3013E+01  0.2027E+02  0.2017E+02
      1.137  0.3082E+01  0.3267E+01  0.2072E+02  0.2064E+02
      1.282  0.3218E+01  0.3257E+01  0.2118E+02  0.2111E+02
      1.427  0.4470E+01  0.4402E+01  0.2183E+02  0.2175E+02
      1.571  0.5701E+01  0.5641E+01  0.2266E+02  0.2256E+02
      1.716  0.5829E+01  0.5841E+01  0.2350E+02  0.2341E+02
      1.861  0.4868E+01  0.4963E+01  0.2420E+02  0.2413E+02
      2.005  0.4105E+01  0.4157E+01  0.2480E+02  0.2473E+02
      2.150  0.3575E+01  0.3622E+01  0.2532E+02  0.2526E+02
      2.294  0.3214E+01  0.3269E+01  0.2578E+02  0.2573E+02
      2.439  0.2915E+01  0.2934E+01  0.2621E+02  0.2616E+02
      2.584  0.2598E+01  0.2647E+01  0.2658E+02  0.2654E+02
      2.728  0.2424E+01  0.2407E+01  0.2693E+02  0.2689E+02
      2.873  0.2117E+01  0.2132E+01  0.2724E+02  0.2720E+02
      3.017  0.1913E+01  0.1973E+01  0.2752E+02  0.2749E+02
      3.162  0.1923E+01  0.1991E+01  0.2780E+02  0.2777E+02
      3.307  0.1213E+01  0.1253E+01  0.2797E+02  0.2796E+02
      3.451  0.1701E+00  0.2768E+00  0.2800E+02  0.2800E+02
      3.596  0.5724E-02  0.2277E-01  0.2800E+02  0.2800E+02
      3.741  0.0000E+00  0.6221E-03  0.2800E+02  0.2800E+02
      3.885  0.0000E+00  0.0000E+00  0.2800E+02  0.2800E+02
      4.030  0.0000E+00  0.0000E+00  0.2800E+02  0.2800E+02
      4.174  0.0000E+00  0.0000E+00  0.2800E+02  0.2800E+02
      4.319  0.0000E+00  0.0000E+00  0.2800E+02  0.2800E+02
      4.464  0.0000E+00  0.0000E+00  0.2800E+02  0.2800E+02
      4.608  0.0000E+00  0.0000E+00  0.2800E+02  0.2800E+02
      4.753  0.0000E+00  0.0000E+00  0.2800E+02  0.2800E+02
      4.898  0.0000E+00  0.0000E+00  0.2800E+02  0.2800E+02
      5.042  0.0000E+00  0.0000E+00  0.2800E+02  0.2800E+02
      5.187  0.0000E+00  0.0000E+00  0.2800E+02  0.2800E+02
      5.331  0.0000E+00  0.0000E+00  0.2800E+02  0.2800E+02
      5.33136760    -38.05366955  301      0.92711172      1.00000000
    -38.054  0.0000E+00  0.0000E+00  0.0000E+00  0.0000E+00  0.0000E+00  0.0000E+00  0.0000E+00  0.0000E+00  0.0000E+00  0.0000E+00  0.0000E+00  0.0000E+00  0.0000E+00  0.0000E+00  0.0000E+00  0.0000E+00  0.0000E+00  0.0000E+00
    -37.909  0.0000E+00  0.0000E+00  0.0000E+00  0.0000E+00  0.0000E+00  0.0000E+00  0.0000E+00  0.0000E+00  0.0000E+00  0.0000E+00  0.0000E+00  0.0000E+00  0.0000E+00  0.0000E+00  0.0000E+00  0.0000E+00  0.0000E+00  0.0000E+00
    -37.764  0.0000E+00  0.0000E+00  0.0000E+00  0.0000E+00  0.0000E+00  0.0000E+00  0.0000E+00  0.0000E+00  0.0000E+00  0.0000E+00  0.0000E+00  0.0000E+00  0.0000E+00  0.0000E+00  0.0000E+00  0.0000E+00  0.0000E+00  0.0000E+00
    -37.620  0.0000E+00  0.0000E+00  0.0000E+00  0.0000E+00  0.0000E+00  0.0000E+00  0.0000E+00  0.0000E+00  0.0000E+00  0.0000E+00  0.0000E+00  0.0000E+00  0.0000E+00  0.0000E+00  0.0000E+00  0.0000E+00  0.0000E+00  0.0000E+00
    -37.475  0.0000E+00  0.0000E+00  0.0000E+00  0.0000E+00  0.0000E+00  0.0000E+00  0.0000E+00  0.0000E+00  0.0000E+00  0.0000E+00  0.0000E+00  0.0000E+00  0.0000E+00  0.0000E+00  0.0000E+00  0.0000E+00  0.0000E+00  0.0000E+00
    -37.331  0.0000E+00  0.0000E+00  0.0000E+00  0.0000E+00  0.0000E+00  0.0000E+00  0.0000E+00  0.0000E+00  0.0000E+00  0.0000E+00  0.0000E+00  0.0000E+00  0.0000E+00  0.0000E+00  0.0000E+00  0.0000E+00  0.0000E+00  0.0000E+00
    -37.186  0.0000E+00  0.0000E+00  0.0000E+00  0.0000E+00  0.0000E+00  0.0000E+00  0.0000E+00  0.0000E+00  0.0000E+00  0.0000E+00  0.0000E+00  0.0000E+00  0.0000E+00  0.0000E+00  0.0000E+00  0.0000E+00  0.0000E+00  0.0000E+00
    -37.041  0.0000E+00  0.0000E+00  0.0000E+00  0.0000E+00  0.0000E+00  0.0000E+00  0.0000E+00  0.0000E+00  0.0000E+00  0.0000E+00  0.0000E+00  0.0000E+00  0.0000E+00  0.0000E+00  0.0000E+00  0.0000E+00  0.0000E+00  0.0000E+00
    -36.897  0.0000E+00  0.0000E+00  0.0000E+00  0.0000E+00  0.0000E+00  0.0000E+00  0.0000E+00  0.0000E+00  0.0000E+00  0.0000E+00  0.0000E+00  0.0000E+00  0.0000E+00  0.0000E+00  0.0000E+00  0.0000E+00  0.0000E+00  0.0000E+00
    -36.752  0.0000E+00  0.0000E+00  0.0000E+00  0.0000E+00  0.0000E+00  0.0000E+00  0.0000E+00  0.0000E+00  0.0000E+00  0.0000E+00  0.0000E+00  0.0000E+00  0.0000E+00  0.0000E+00  0.0000E+00  0.0000E+00  0.0000E+00  0.0000E+00
    -36.608  0.1657E-03  0.1568E-03  0.1584E-11  0.1503E-11  0.1584E-11  0.1503E-11  0.1584E-11  0.1503E-11  0.4635E-12  0.4349E-12  0.4635E-12  0.4349E-12  0.2277E-12  0.2132E-12  0.4635E-12  0.4349E-12  0.2277E-12  0.2132E-12
    -36.463  0.2821E-02  0.2670E-02  0.2697E-10  0.2559E-10  0.2697E-10  0.2559E-10  0.2697E-10  0.2559E-10  0.7893E-11  0.7406E-11  0.7893E-11  0.7406E-11  0.3877E-11  0.3631E-11  0.7893E-11  0.7406E-11  0.3877E-11  0.3631E-11
    -36.318  0.5048E-01  0.4779E-01  0.4826E-09  0.4580E-09  0.4826E-09  0.4580E-09  0.4826E-09  0.4580E-09  0.1412E-09  0.1326E-09  0.1412E-09  0.1326E-09  0.6939E-10  0.6500E-10  0.1412E-09  0.1326E-09  0.6939E-10  0.6500E-10
    -36.174  0.7965E+00  0.7592E+00  0.7598E-08  0.7260E-08  0.7598E-08  0.7260E-08  0.7598E-08  0.7260E-08  0.2229E-08  0.2106E-08  0.2229E-08  0.2106E-08  0.1097E-08  0.1035E-08  0.2229E-08  0.2106E-08  0.1097E-08  0.1035E-08
    -36.029  0.4036E+01  0.4000E+01  0.3804E-07  0.3781E-07  0.3804E-07  0.3781E-07  0.3804E-07  0.3781E-07  0.1130E-07  0.1110E-07  0.1130E-07  0.1110E-07  0.5627E-08  0.5516E-08  0.1130E-07  0.1110E-07  0.5627E-08  0.5516E-08
    -35.884  0.1748E+01  0.1816E+01  0.1624E-07  0.1691E-07  0.1624E-07  0.1691E-07  0.1624E-07  0.1691E-07  0.4891E-08  0.5037E-08  0.4891E-08  0.5037E-08  0.2471E-08  0.2539E-08  0.4891E-08  0.5037E-08  0.2471E-08  0.2539E-08
    -35.740  0.1342E+00  0.1417E+00  0.1241E-08  0.1313E-08  0.1241E-08  0.1313E-08  0.1241E-08  0.1313E-08  0.3757E-09  0.3930E-09  0.3757E-09  0.3930E-09  0.1907E-09  0.1991E-09  0.3757E-09  0.3930E-09  0.1907E-09  0.1991E-09
    -35.595  0.0000E+00  0.0000E+00  0.0000E+00  0.0000E+00  0.0000E+00  0.0000E+00  0.0000E+00  0.0000E+00  0.0000E+00  0.0000E+00  0.0000E+00  0.0000E+00  0.0000E+00  0.0000E+00  0.0000E+00  0.0000E+00  0.0000E+00  0.0000E+00
    -35.451  0.0000E+00  0.0000E+00  0.0000E+00  0.0000E+00  0.0000E+00  0.0000E+00  0.0000E+00  0.0000E+00  0.0000E+00  0.0000E+00  0.0000E+00  0.0000E+00  0.0000E+00  0.0000E+00  0.0000E+00  0.0000E+00  0.0000E+00  0.0000E+00
    -35.306  0.0000E+00  0.0000E+00  0.0000E+00  0.0000E+00  0.0000E+00  0.0000E+00  0.0000E+00  0.0000E+00  0.0000E+00  0.0000E+00  0.0000E+00  0.0000E+00  0.0000E+00  0.0000E+00  0.0000E+00  0.0000E+00  0.0000E+00  0.0000E+00
    -35.161  0.0000E+00  0.0000E+00  0.0000E+00  0.0000E+00  0.0000E+00  0.0000E+00  0.0000E+00  0.0000E+00  0.0000E+00  0.0000E+00  0.0000E+00  0.0000E+00  0.0000E+00  0.0000E+00  0.0000E+00  0.0000E+00  0.0000E+00  0.0000E+00
    -35.017  0.0000E+00  0.0000E+00  0.0000E+00  0.0000E+00  0.0000E+00  0.0000E+00  0.0000E+00  0.0000E+00  0.0000E+00  0.0000E+00  0.0000E+00  0.0000E+00  0.0000E+00  0.0000E+00  0.0000E+00  0.0000E+00  0.0000E+00  0.0000E+00
    -34.872  0.0000E+00  0.0000E+00  0.0000E+00  0.0000E+00  0.0000E+00  0.0000E+00  0.0000E+00  0.0000E+00  0.0000E+00  0.0000E+00  0.0000E+00  0.0000E+00  0.0000E+00  0.0000E+00  0.0000E+00  0.0000E+00  0.0000E+00  0.0000E+00
    -34.727  0.0000E+00  0.0000E+00  0.0000E+00  0.0000E+00  0.0000E+00  0.0000E+00  0.0000E+00  0.0000E+00  0.0000E+00  0.0000E+00  0.0000E+00  0.0000E+00  0.0000E+00  0.0000E+00  0.0000E+00  0.0000E+00  0.0000E+00  0.0000E+00
    -34.583  0.0000E+00  0.0000E+00  0.0000E+00  0.0000E+00  0.0000E+00  0.0000E+00  0.0000E+00  0.0000E+00  0.0000E+00  0.0000E+00  0.0000E+00  0.0000E+00  0.0000E+00  0.0000E+00  0.0000E+00  0.0000E+00  0.0000E+00  0.0000E+00
    -34.438  0.0000E+00  0.0000E+00  0.0000E+00  0.0000E+00  0.0000E+00  0.0000E+00  0.0000E+00  0.0000E+00  0.0000E+00  0.0000E+00  0.0000E+00  0.0000E+00  0.0000E+00  0.0000E+00  0.0000E+00  0.0000E+00  0.0000E+00  0.0000E+00
    -34.294  0.0000E+00  0.0000E+00  0.0000E+00  0.0000E+00  0.0000E+00  0.0000E+00  0.0000E+00  0.0000E+00  0.0000E+00  0.0000E+00  0.0000E+00  0.0000E+00  0.0000E+00  0.0000E+00  0.0000E+00  0.0000E+00  0.0000E+00  0.0000E+00
    -34.149  0.0000E+00  0.0000E+00  0.0000E+00  0.0000E+00  0.0000E+00  0.0000E+00  0.0000E+00  0.0000E+00  0.0000E+00  0.0000E+00  0.0000E+00  0.0000E+00  0.0000E+00  0.0000E+00  0.0000E+00  0.0000E+00  0.0000E+00  0.0000E+00
    -34.004  0.0000E+00  0.0000E+00  0.0000E+00  0.0000E+00  0.0000E+00  0.0000E+00  0.0000E+00  0.0000E+00  0.0000E+00  0.0000E+00  0.0000E+00  0.0000E+00  0.0000E+00  0.0000E+00  0.0000E+00  0.0000E+00  0.0000E+00  0.0000E+00
    -33.860  0.0000E+00  0.0000E+00  0.0000E+00  0.0000E+00  0.0000E+00  0.0000E+00  0.0000E+00  0.0000E+00  0.0000E+00  0.0000E+00  0.0000E+00  0.0000E+00  0.0000E+00  0.0000E+00  0.0000E+00  0.0000E+00  0.0000E+00  0.0000E+00
    -33.715  0.0000E+00  0.0000E+00  0.0000E+00  0.0000E+00  0.0000E+00  0.0000E+00  0.0000E+00  0.0000E+00  0.0000E+00  0.0000E+00  0.0000E+00  0.0000E+00  0.0000E+00  0.0000E+00  0.0000E+00  0.0000E+00  0.0000E+00  0.0000E+00
    -33.571  0.0000E+00  0.0000E+00  0.0000E+00  0.0000E+00  0.0000E+00  0.0000E+00  0.0000E+00  0.0000E+00  0.0000E+00  0.0000E+00  0.0000E+00  0.0000E+00  0.0000E+00  0.0000E+00  0.0000E+00  0.0000E+00  0.0000E+00  0.0000E+00
    -33.426  0.0000E+00  0.0000E+00  0.0000E+00  0.0000E+00  0.0000E+00  0.0000E+00  0.0000E+00  0.0000E+00  0.0000E+00  0.0000E+00  0.0000E+00  0.0000E+00  0.0000E+00  0.0000E+00  0.0000E+00  0.0000E+00  0.0000E+00  0.0000E+00
    -33.281  0.0000E+00  0.0000E+00  0.0000E+00  0.0000E+00  0.0000E+00  0.0000E+00  0.0000E+00  0.0000E+00  0.0000E+00  0.0000E+00  0.0000E+00  0.0000E+00  0.0000E+00  0.0000E+00  0.0000E+00  0.0000E+00  0.0000E+00  0.0000E+00
    -33.137  0.0000E+00  0.0000E+00  0.0000E+00  0.0000E+00  0.0000E+00  0.0000E+00  0.0000E+00  0.0000E+00  0.0000E+00  0.0000E+00  0.0000E+00  0.0000E+00  0.0000E+00  0.0000E+00  0.0000E+00  0.0000E+00  0.0000E+00  0.0000E+00
    -32.992  0.0000E+00  0.0000E+00  0.0000E+00  0.0000E+00  0.0000E+00  0.0000E+00  0.0000E+00  0.0000E+00  0.0000E+00  0.0000E+00  0.0000E+00  0.0000E+00  0.0000E+00  0.0000E+00  0.0000E+00  0.0000E+00  0.0000E+00  0.0000E+00
    -32.847  0.0000E+00  0.0000E+00  0.0000E+00  0.0000E+00  0.0000E+00  0.0000E+00  0.0000E+00  0.0000E+00  0.0000E+00  0.0000E+00  0.0000E+00  0.0000E+00  0.0000E+00  0.0000E+00  0.0000E+00  0.0000E+00  0.0000E+00  0.0000E+00
    -32.703  0.0000E+00  0.0000E+00  0.0000E+00  0.0000E+00  0.0000E+00  0.0000E+00  0.0000E+00  0.0000E+00  0.0000E+00  0.0000E+00  0.0000E+00  0.0000E+00  0.0000E+00  0.0000E+00  0.0000E+00  0.0000E+00  0.0000E+00  0.0000E+00
    -32.558  0.0000E+00  0.0000E+00  0.0000E+00  0.0000E+00  0.0000E+00  0.0000E+00  0.0000E+00  0.0000E+00  0.0000E+00  0.0000E+00  0.0000E+00  0.0000E+00  0.0000E+00  0.0000E+00  0.0000E+00  0.0000E+00  0.0000E+00  0.0000E+00
    -32.414  0.0000E+00  0.0000E+00  0.0000E+00  0.0000E+00  0.0000E+00  0.0000E+00  0.0000E+00  0.0000E+00  0.0000E+00  0.0000E+00  0.0000E+00  0.0000E+00  0.0000E+00  0.0000E+00  0.0000E+00  0.0000E+00  0.0000E+00  0.0000E+00
    -32.269  0.0000E+00  0.0000E+00  0.0000E+00  0.0000E+00  0.0000E+00  0.0000E+00  0.0000E+00  0.0000E+00  0.0000E+00  0.0000E+00  0.0000E+00  0.0000E+00  0.0000E+00  0.0000E+00  0.0000E+00  0.0000E+00  0.0000E+00  0.0000E+00
    -32.124  0.0000E+00  0.0000E+00  0.0000E+00  0.0000E+00  0.0000E+00  0.0000E+00  0.0000E+00  0.0000E+00  0.0000E+00  0.0000E+00  0.0000E+00  0.0000E+00  0.0000E+00  0.0000E+00  0.0000E+00  0.0000E+00  0.0000E+00  0.0000E+00
    -31.980  0.0000E+00  0.0000E+00  0.0000E+00  0.0000E+00  0.0000E+00  0.0000E+00  0.0000E+00  0.0000E+00  0.0000E+00  0.0000E+00  0.0000E+00  0.0000E+00  0.0000E+00  0.0000E+00  0.0000E+00  0.0000E+00  0.0000E+00  0.0000E+00
    -31.835  0.0000E+00  0.0000E+00  0.0000E+00  0.0000E+00  0.0000E+00  0.0000E+00  0.0000E+00  0.0000E+00  0.0000E+00  0.0000E+00  0.0000E+00  0.0000E+00  0.0000E+00  0.0000E+00  0.0000E+00  0.0000E+00  0.0000E+00  0.0000E+00
    -31.691  0.0000E+00  0.0000E+00  0.0000E+00  0.0000E+00  0.0000E+00  0.0000E+00  0.0000E+00  0.0000E+00  0.0000E+00  0.0000E+00  0.0000E+00  0.0000E+00  0.0000E+00  0.0000E+00  0.0000E+00  0.0000E+00  0.0000E+00  0.0000E+00
    -31.546  0.0000E+00  0.0000E+00  0.0000E+00  0.0000E+00  0.0000E+00  0.0000E+00  0.0000E+00  0.0000E+00  0.0000E+00  0.0000E+00  0.0000E+00  0.0000E+00  0.0000E+00  0.0000E+00  0.0000E+00  0.0000E+00  0.0000E+00  0.0000E+00
    -31.401  0.0000E+00  0.0000E+00  0.0000E+00  0.0000E+00  0.0000E+00  0.0000E+00  0.0000E+00  0.0000E+00  0.0000E+00  0.0000E+00  0.0000E+00  0.0000E+00  0.0000E+00  0.0000E+00  0.0000E+00  0.0000E+00  0.0000E+00  0.0000E+00
    -31.257  0.0000E+00  0.0000E+00  0.0000E+00  0.0000E+00  0.0000E+00  0.0000E+00  0.0000E+00  0.0000E+00  0.0000E+00  0.0000E+00  0.0000E+00  0.0000E+00  0.0000E+00  0.0000E+00  0.0000E+00  0.0000E+00  0.0000E+00  0.0000E+00
    -31.112  0.0000E+00  0.0000E+00  0.0000E+00  0.0000E+00  0.0000E+00  0.0000E+00  0.0000E+00  0.0000E+00  0.0000E+00  0.0000E+00  0.0000E+00  0.0000E+00  0.0000E+00  0.0000E+00  0.0000E+00  0.0000E+00  0.0000E+00  0.0000E+00
    -30.967  0.0000E+00  0.0000E+00  0.0000E+00  0.0000E+00  0.0000E+00  0.0000E+00  0.0000E+00  0.0000E+00  0.0000E+00  0.0000E+00  0.0000E+00  0.0000E+00  0.0000E+00  0.0000E+00  0.0000E+00  0.0000E+00  0.0000E+00  0.0000E+00
    -30.823  0.0000E+00  0.0000E+00  0.0000E+00  0.0000E+00  0.0000E+00  0.0000E+00  0.0000E+00  0.0000E+00  0.0000E+00  0.0000E+00  0.0000E+00  0.0000E+00  0.0000E+00  0.0000E+00  0.0000E+00  0.0000E+00  0.0000E+00  0.0000E+00