   4   4   1   0
  0.5485144E+02  0.6031371E-09  0.6031371E-09  0.6031371E-09  0.5000000E-15
  1.000000000000000E-004
  CAR 
 unknown system                          
      6.16401572    -36.98551121  301      1.59736696      1.00000000
    -36.986  0.0000E+00  0.0000E+00  0.0000E+00  0.0000E+00
    -36.842  0.0000E+00  0.0000E+00  0.0000E+00  0.0000E+00
    -36.698  0.0000E+00  0.0000E+00  0.0000E+00  0.0000E+00
    -36.554  0.0000E+00  0.0000E+00  0.0000E+00  0.0000E+00
    -36.410  0.0000E+00  0.0000E+00  0.0000E+00  0.0000E+00
    -36.266  0.0000E+00  0.0000E+00  0.0000E+00  0.0000E+00
    -36.123  0.0000E+00  0.0000E+00  0.0000E+00  0.0000E+00
    -35.979  0.0000E+00  0.0000E+00  0.0000E+00  0.0000E+00
    -35.835  0.0000E+00  0.0000E+00  0.0000E+00  0.0000E+00
    -35.691  0.0000E+00  0.0000E+00  0.0000E+00  0.0000E+00
    -35.547  0.6037E-03  0.5306E-03  0.8683E-04  0.7631E-04
    -35.403  0.1011E-01  0.9670E-02  0.1541E-02  0.1467E-02
    -35.260  0.1783E+00  0.1698E+00  0.2718E-01  0.2589E-01
    -35.116  0.2821E+01  0.2701E+01  0.4330E+00  0.4144E+00
    -34.972  0.1596E+02  0.1579E+02  0.2729E+01  0.2686E+01
    -34.828  0.8125E+01  0.8388E+01  0.3898E+01  0.3893E+01
    -34.684  0.6711E+00  0.7039E+00  0.3994E+01  0.3994E+01
    -34.540  0.0000E+00  0.0000E+00  0.4000E+01  0.4000E+01
    -34.397  0.0000E+00  0.0000E+00  0.4000E+01  0.4000E+01
    -34.253  0.0000E+00  0.0000E+00  0.4000E+01  0.4000E+01
    -34.109  0.0000E+00  0.0000E+00  0.4000E+01  0.4000E+01
    -33.965  0.0000E+00  0.0000E+00  0.4000E+01  0.4000E+01
    -33.821  0.0000E+00  0.0000E+00  0.4000E+01  0.4000E+01
    -33.677  0.0000E+00  0.0000E+00  0.4000E+01  0.4000E+01
    -33.534  0.0000E+00  0.0000E+00  0.4000E+01  0.4000E+01
    -33.390  0.0000E+00  0.0000E+00  0.4000E+01  0.4000E+01
    -33.246  0.0000E+00  0.0000E+00  0.4000E+01  0.4000E+01
    -33.102  0.0000E+00  0.0000E+00  0.4000E+01  0.4000E+01
    -32.958  0.0000E+00  0.0000E+00  0.4000E+01  0.4000E+01
    -32.814  0.0000E+00  0.0000E+00  0.4000E+01  0.4000E+01
    -32.671  0.0000E+00  0.0000E+00  0.4000E+01  0.4000E+01
    -32.527  0.0000E+00  0.0000E+00  0.4000E+01  0.4000E+01
    -32.383  0.0000E+00  0.0000E+00  0.4000E+01  0.4000E+01
    -32.239  0.0000E+00  0.0000E+00  0.4000E+01  0.4000E+01
    -32.095  0.0000E+00  0.0000E+00  0.4000E+01  0.4000E+01
    -31.951  0.0000E+00  0.0000E+00  0.4000E+01  0.4000E+01
    -31.808  0.0000E+00  0.0000E+00  0.4000E+01  0.4000E+01
    -31.664  0.0000E+00  0.0000E+00  0.4000E+01  0.4000E+01
    -31.520  0.0000E+00  0.0000E+00  0.4000E+01  0.4000E+01
    -31.376  0.0000E+00  0.0000E+00  0.4000E+01  0.4000E+01
    -31.232  0.0000E+00  0.0000E+00  0.4000E+01  0.4000E+01
    -31.088  0.0000E+00  0.0000E+00  0.4000E+01  0.4000E+01
    -30.945  0.0000E+00  0.0000E+00  0.4000E+01  0.4000E+01
    -30.801  0.0000E+00  0.0000E+00  0.4000E+01  0.4000E+01
    -30.657  0.0000E+00  0.0000E+00  0.4000E+01  0.4000E+01
    -30.513  0.0000E+00  0.0000E+00  0.4000E+01  0.4000E+01
    -30.369  0.0000E+00  0.0000E+00  0.4000E+01  0.4000E+01
    -30.225  0.0000E+00  0.0000E+00  0.4000E+01  0.4000E+01
    -30.082  0.0000E+00  0.0000E+00  0.4000E+01  0.4000E+01
    -29.938  0.0000E+00  0.0000E+00  0.4000E+01  0.4000E+01
    -29.794  0.0000E+00  0.0000E+00  0.4000E+01  0.4000E+01
    -29.650  0.0000E+00  0.0000E+00  0.4000E+01  0.4000E+01
    -29.506  0.0000E+00  0.0000E+00  0.4000E+01  0.4000E+01
    -29.362  0.0000E+00  0.0000E+00  0.4000E+01  0.4000E+01
    -29.219  0.0000E+00  0.0000E+00  0.4000E+01  0.4000E+01
    -29.075  0.0000E+00  0.0000E+00  0.4000E+01  0.4000E+01
    -28.931  0.0000E+00  0.0000E+00  0.4000E+01  0.4000E+01
    -28.787  0.0000E+00  0.0000E+00  0.4000E+01  0.4000E+01
    -28.643  0.0000E+00  0.0000E+00  0.4000E+01  0.4000E+01
    -28.499  0.0000E+00  0.0000E+00  0.4000E+01  0.4000E+01
    -28.356  0.0000E+00  0.0000E+00  0.4000E+01  0.4000E+01
    -28.212  0.0000E+00  0.0000E+00  0.4000E+01  0.4000E+01
    -28.068  0.0000E+00  0.0000E+00  0.4000E+01  0.4000E+01
    -27.924  0.0000E+00  0.0000E+00  0.4000E+01  0.4000E+01
    -27.780  0.0000E+00  0.0000E+00  0.4000E+01  0.4000E+01
    -27.636  0.0000E+00  0.0000E+00  0.4000E+01  0.4000E+01
    -27.493  0.0000E+00  0.0000E+00  0.4000E+01  0.4000E+01
    -27.349  0.0000E+00  0.0000E+00  0.4000E+01  0.4000E+01
    -27.205  0.0000E+00  0.0000E+00  0.4000E+01  0.4000E+01
    -27.061  0.0000E+00  0.0000E+00  0.4000E+01  0.4000E+01
    -26.917  0.0000E+00  0.0000E+00  0.4000E+01  0.4000E+01
    -26.773  0.0000E+00  0.0000E+00  0.4000E+01  0.4000E+01
    -26.630  0.0000E+00  0.0000E+00  0.4000E+01  0.4000E+01
    -26.486  0.0000E+00  0.0000E+00  0.4000E+01  0.4000E+01
    -26.342  0.0000E+00  0.0000E+00  0.4000E+01  0.4000E+01
    -26.198  0.0000E+00  0.0000E+00  0.4000E+01  0.4000E+01
    -26.054  0.0000E+00  0.0000E+00  0.4000E+01  0.4000E+01
    -25.910  0.0000E+00  0.0000E+00  0.4000E+01  0.4000E+01
    -25.767  0.0000E+00  0.0000E+00  0.4000E+01  0.4000E+01
    -25.623  0.0000E+00  0.0000E+00  0.4000E+01  0.4000E+01
    -25.479  0.0000E+00  0.0000E+00  0.4000E+01  0.4000E+01
    -25.335  0.0000E+00  0.0000E+00  0.4000E+01  0.4000E+01
    -25.191  0.0000E+00  0.0000E+00  0.4000E+01  0.4000E+01
    -25.047  0.0000E+00  0.0000E+00  0.4000E+01  0.4000E+01
    -24.904  0.0000E+00  0.0000E+00  0.4000E+01  0.4000E+01
    -24.760  0.0000E+00  0.0000E+00  0.4000E+01  0.4000E+01
    -24.616  0.0000E+00  0.0000E+00  0.4000E+01  0.4000E+01
    -24.472  0.0000E+00  0.0000E+00  0.4000E+01  0.4000E+01
    -24.328  0.0000E+00  0.0000E+00  0.4000E+01  0.4000E+01
    -24.184  0.0000E+00  0.0000E+00  0.4000E+01  0.4000E+01
    -24.041  0.0000E+00  0.0000E+00  0.4000E+01  0.4000E+01
    -23.897  0.0000E+00  0.0000E+00  0.4000E+01  0.4000E+01
    -23.753  0.0000E+00  0.0000E+00  0.4000E+01  0.4000E+01
    -23.609  0.0000E+00  0.0000E+00  0.4000E+01  0.4000E+01
    -23.465  0.0000E+00  0.0000E+00  0.4000E+01  0.4000E+01
    -23.321  0.0000E+00  0.0000E+00  0.4000E+01  0.4000E+01
    -23.178  0.0000E+00  0.0000E+00  0.4000E+01  0.4000E+01
    -23.034  0.0000E+00  0.0000E+00  0.4000E+01  0.4000E+01
    -22.890  0.0000E+00  0.0000E+00  0.4000E+01  0.4000E+01
    -22.746  0.0000E+00  0.0000E+00  0.4000E+01  0.4000E+01
    -22.602  0.0000E+00  0.0000E+00  0.4000E+01  0.4000E+01
    -22.459  0.0000E+00  0.0000E+00  0.4000E+01  0.4000E+01
    -22.315  0.0000E+00  0.0000E+00  0.4000E+01  0.4000E+01
    -22.171  0.0000E+00  0.0000E+00  0.4000E+01  0.4000E+01
    -22.027  0.0000E+00  0.0000E+00  0.4000E+01  0.4000E+01
    -21.883  0.0000E+00  0.0000E+00  0.4000E+01  0.4000E+01
    -21.739  0.0000E+00  0.0000E+00  0.4000E+01  0.4000E+01
    -21.596  0.0000E+00  0.0000E+00  0.4000E+01  0.4000E+01
    -21.452  0.0000E+00  0.0000E+00  0.4000E+01  0.4000E+01
    -21.308  0.0000E+00  0.0000E+00  0.4000E+01  0.4000E+01
    -21.164  0.0000E+00  0.0000E+00  0.4000E+01  0.4000E+01
    -21.020  0.0000E+00  0.0000E+00  0.4000E+01  0.4000E+01
    -20.876  0.0000E+00  0.0000E+00  0.4000E+01  0.4000E+01
    -20.733  0.0000E+00  0.0000E+00  0.4000E+01  0.4000E+01
    -20.589  0.0000E+00  0.0000E+00  0.4000E+01  0.4000E+01
    -20.445  0.0000E+00  0.0000E+00  0.4000E+01  0.4000E+01
    -20.301  0.0000E+00  0.0000E+00  0.4000E+01  0.4000E+01
    -20.157  0.0000E+00  0.0000E+00  0.4000E+01  0.4000E+01
    -20.013  0.0000E+00  0.0000E+00  0.4000E+01  0.4000E+01
    -19.870  0.0000E+00  0.0000E+00  0.4000E+01  0.4000E+01
    -19.726  0.0000E+00  0.0000E+00  0.4000E+01  0.4000E+01
    -19.582  0.0000E+00  0.0000E+00  0.4000E+01  0.4000E+01
    -19.438  0.0000E+00  0.0000E+00  0.4000E+01  0.4000E+01
    -19.294  0.0000E+00  0.0000E+00  0.4000E+01  0.4000E+01
    -19.150  0.0000E+00  0.0000E+00  0.4000E+01  0.4000E+01
    -19.007  0.0000E+00  0.0000E+00  0.4000E+01  0.4000E+01
    -18.863  0.0000E+00  0.0000E+00  0.4000E+01  0.4000E+01
    -18.719  0.0000E+00  0.0000E+00  0.4000E+01  0.4000E+01
    -18.575  0.0000E+00  0.0000E+00  0.4000E+01  0.4000E+01
    -18.431  0.0000E+00  0.0000E+00  0.4000E+01  0.4000E+01
    -18.287  0.0000E+00  0.0000E+00  0.4000E+01  0.4000E+01
    -18.144  0.0000E+00  0.0000E+00  0.4000E+01  0.4000E+01
    -18.000  0.0000E+00  0.0000E+00  0.4000E+01  0.4000E+01
    -17.856  0.0000E+00  0.0000E+00  0.4000E+01  0.4000E+01
    -17.712  0.0000E+00  0.0000E+00  0.4000E+01  0.4000E+01
    -17.568  0.1151E-02  0.1075E-02  0.4000E+01  0.4000E+01
    -17.424  0.2601E-01  0.2463E-01  0.4004E+01  0.4004E+01
    -17.281  0.4493E+00  0.4256E+00  0.4069E+01  0.4065E+01
    -17.137  0.6593E+01  0.6301E+01  0.5017E+01  0.4971E+01
    -16.993  0.3472E+02  0.3415E+02  0.1001E+02  0.9883E+01
    -16.849  0.3549E+02  0.3608E+02  0.1512E+02  0.1507E+02
    -16.705  0.5762E+01  0.6039E+01  0.1594E+02  0.1594E+02
    -16.561  0.2408E+00  0.2664E+00  0.1600E+02  0.1600E+02
    -16.418  0.0000E+00  0.0000E+00  0.1600E+02  0.1600E+02
    -16.274  0.0000E+00  0.0000E+00  0.1600E+02  0.1600E+02
    -16.130  0.0000E+00  0.0000E+00  0.1600E+02  0.1600E+02
    -15.986  0.0000E+00  0.0000E+00  0.1600E+02  0.1600E+02
    -15.842  0.0000E+00  0.0000E+00  0.1600E+02  0.1600E+02
    -15.698  0.0000E+00  0.0000E+00  0.1600E+02  0.1600E+02
    -15.555  0.0000E+00  0.0000E+00  0.1600E+02  0.1600E+02
    -15.411  0.0000E+00  0.0000E+00  0.1600E+02  0.1600E+02
    -15.267  0.0000E+00  0.0000E+00  0.1600E+02  0.1600E+02
    -15.123  0.0000E+00  0.0000E+00  0.1600E+02  0.1600E+02
    -14.979  0.0000E+00  0.0000E+00  0.1600E+02  0.1600E+02
    -14.835  0.0000E+00  0.0000E+00  0.1600E+02  0.1600E+02
    -14.692  0.0000E+00  0.0000E+00  0.1600E+02  0.1600E+02
    -14.548  0.0000E+00  0.0000E+00  0.1600E+02  0.1600E+02
    -14.404  0.0000E+00  0.0000E+00  0.1600E+02  0.1600E+02
    -14.260  0.0000E+00  0.0000E+00  0.1600E+02  0.1600E+02
    -14.116  0.0000E+00  0.0000E+00  0.1600E+02  0.1600E+02
    -13.972  0.0000E+00  0.0000E+00  0.1600E+02  0.1600E+02
    -13.829  0.0000E+00  0.0000E+00  0.1600E+02  0.1600E+02
    -13.685  0.0000E+00  0.0000E+00  0.1600E+02  0.1600E+02
    -13.541  0.0000E+00  0.0000E+00  0.1600E+02  0.1600E+02
    -13.397  0.0000E+00  0.0000E+00  0.1600E+02  0.1600E+02
    -13.253  0.0000E+00  0.0000E+00  0.1600E+02  0.1600E+02
    -13.109  0.0000E+00  0.0000E+00  0.1600E+02  0.1600E+02
    -12.966  0.0000E+00  0.0000E+00  0.1600E+02  0.1600E+02
    -12.822  0.0000E+00  0.0000E+00  0.1600E+02  0.1600E+02
    -12.678  0.0000E+00  0.0000E+00  0.1600E+02  0.1600E+02
    -12.534  0.0000E+00  0.0000E+00  0.1600E+02  0.1600E+02
    -12.390  0.0000E+00  0.0000E+00  0.1600E+02  0.1600E+02
    -12.246  0.0000E+00  0.0000E+00  0.1600E+02  0.1600E+02
    -12.103  0.0000E+00  0.0000E+00  0.1600E+02  0.1600E+02
    -11.959  0.0000E+00  0.0000E+00  0.1600E+02  0.1600E+02
    -11.815  0.0000E+00  0.0000E+00  0.1600E+02  0.1600E+02
    -11.671  0.0000E+00  0.0000E+00  0.1600E+02  0.1600E+02
    -11.527  0.0000E+00  0.0000E+00  0.1600E+02  0.1600E+02
    -11.383  0.0000E+00  0.0000E+00  0.1600E+02  0.1600E+02
    -11.240  0.0000E+00  0.0000E+00  0.1600E+02  0.1600E+02
    -11.096  0.0000E+00  0.0000E+00  0.1600E+02  0.1600E+02
    -10.952  0.0000E+00  0.0000E+00  0.1600E+02  0.1600E+02
    -10.808  0.0000E+00  0.0000E+00  0.1600E+02  0.1600E+02
    -10.664  0.0000E+00  0.0000E+00  0.1600E+02  0.1600E+02
    -10.520  0.0000E+00  0.0000E+00  0.1600E+02  0.1600E+02
    -10.377  0.0000E+00  0.0000E+00  0.1600E+02  0.1600E+02
    -10.233  0.0000E+00  0.0000E+00  0.1600E+02  0.1600E+02
    -10.089  0.0000E+00  0.0000E+00  0.1600E+02  0.1600E+02
     -9.945  0.0000E+00  0.0000E+00  0.1600E+02  0.1600E+02
     -9.801  0.0000E+00  0.0000E+00  0.1600E+02  0.1600E+02
     -9.657  0.0000E+00  0.0000E+00  0.1600E+02  0.1600E+02
     -9.514  0.0000E+00  0.0000E+00  0.1600E+02  0.1600E+02
     -9.370  0.0000E+00  0.0000E+00  0.1600E+02  0.1600E+02
     -9.226  0.0000E+00  0.0000E+00  0.1600E+02  0.1600E+02
     -9.082  0.0000E+00  0.0000E+00  0.1600E+02  0.1600E+02
     -8.938  0.0000E+00  0.0000E+00  0.1600E+02  0.1600E+02
     -8.794  0.0000E+00  0.0000E+00  0.1600E+02  0.1600E+02
     -8.651  0.0000E+00  0.0000E+00  0.1600E+02  0.1600E+02
     -8.507  0.0000E+00  0.0000E+00  0.1600E+02  0.1600E+02
     -8.363  0.0000E+00  0.0000E+00  0.1600E+02  0.1600E+02
     -8.219  0.0000E+00  0.0000E+00  0.1600E+02  0.1600E+02
     -8.075  0.0000E+00  0.0000E+00  0.1600E+02  0.1600E+02
     -7.931  0.0000E+00  0.0000E+00  0.1600E+02  0.1600E+02
     -7.788  0.0000E+00  0.0000E+00  0.1600E+02  0.1600E+02
     -7.644  0.0000E+00  0.0000E+00  0.1600E+02  0.1600E+02
     -7.500  0.0000E+00  0.0000E+00  0.1600E+02  0.1600E+02
     -7.356  0.0000E+00  0.0000E+00  0.1600E+02  0.1600E+02
     -7.212  0.0000E+00  0.0000E+00  0.1600E+02  0.1600E+02
     -7.069  0.0000E+00  0.0000E+00  0.1600E+02  0.1600E+02
     -6.925  0.0000E+00  0.0000E+00  0.1600E+02  0.1600E+02
     -6.781  0.0000E+00  0.0000E+00  0.1600E+02  0.1600E+02
     -6.637  0.0000E+00  0.0000E+00  0.1600E+02  0.1600E+02
     -6.493  0.0000E+00  0.0000E+00  0.1600E+02  0.1600E+02
     -6.349  0.0000E+00  0.0000E+00  0.1600E+02  0.1600E+02
     -6.206  0.0000E+00  0.0000E+00  0.1600E+02  0.1600E+02
     -6.062  0.0000E+00  0.0000E+00  0.1600E+02  0.1600E+02
     -5.918  0.0000E+00  0.0000E+00  0.1600E+02  0.1600E+02
     -5.774  0.0000E+00  0.0000E+00  0.1600E+02  0.1600E+02
     -5.630  0.0000E+00  0.0000E+00  0.1600E+02  0.1600E+02
     -5.486  0.0000E+00  0.0000E+00  0.1600E+02  0.1600E+02
     -5.343  0.0000E+00  0.0000E+00  0.1600E+02  0.1600E+02
     -5.199  0.0000E+00  0.0000E+00  0.1600E+02  0.1600E+02
     -5.055  0.0000E+00  0.0000E+00  0.1600E+02  0.1600E+02
     -4.911  0.0000E+00  0.0000E+00  0.1600E+02  0.1600E+02
     -4.767  0.0000E+00  0.0000E+00  0.1600E+02  0.1600E+02
     -4.623  0.0000E+00  0.0000E+00  0.1600E+02  0.1600E+02
     -4.480  0.0000E+00  0.0000E+00  0.1600E+02  0.1600E+02
     -4.336  0.0000E+00  0.0000E+00  0.1600E+02  0.1600E+02
     -4.192  0.0000E+00  0.0000E+00  0.1600E+02  0.1600E+02
     -4.048  0.0000E+00  0.0000E+00  0.1600E+02  0.1600E+02
     -3.904  0.0000E+00  0.0000E+00  0.1600E+02  0.1600E+02
     -3.760  0.0000E+00  0.0000E+00  0.1600E+02  0.1600E+02
     -3.617  0.0000E+00  0.0000E+00  0.1600E+02  0.1600E+02
     -3.473  0.0000E+00  0.0000E+00  0.1600E+02  0.1600E+02
     -3.329  0.0000E+00  0.0000E+00  0.1600E+02  0.1600E+02
     -3.185  0.0000E+00  0.0000E+00  0.1600E+02  0.1600E+02
     -3.041  0.0000E+00  0.0000E+00  0.1600E+02  0.1600E+02
     -2.897  0.0000E+00  0.0000E+00  0.1600E+02  0.1600E+02
     -2.754  0.0000E+00  0.0000E+00  0.1600E+02  0.1600E+02
     -2.610  0.6151E-07  0.0000E+00  0.1600E+02  0.1600E+02
     -2.466  0.9934E-05  0.6145E-05  0.1600E+02  0.1600E+02
     -2.322  0.2003E-03  0.1289E-03  0.1600E+02  0.1600E+02
     -2.178  0.3423E-02  0.2249E-02  0.1600E+02  0.1600E+02
     -2.034  0.3986E-01  0.2927E-01  0.1601E+02  0.1600E+02
     -1.891  0.1508E+00  0.1324E+00  0.1603E+02  0.1602E+02
     -1.747  0.2530E+00  0.2390E+00  0.1606E+02  0.1606E+02
     -1.603  0.3278E+00  0.3193E+00  0.1611E+02  0.1610E+02
     -1.459  0.4045E+00  0.3915E+00  0.1617E+02  0.1616E+02
     -1.315  0.4450E+00  0.4395E+00  0.1623E+02  0.1622E+02
     -1.171  0.5392E+00  0.5277E+00  0.1631E+02  0.1630E+02
     -1.028  0.5657E+00  0.5573E+00  0.1639E+02  0.1638E+02
     -0.884  0.6464E+00  0.6340E+00  0.1649E+02  0.1647E+02
     -0.740  0.7108E+00  0.7103E+00  0.1659E+02  0.1657E+02
     -0.596  0.7449E+00  0.7250E+00  0.1670E+02  0.1668E+02
     -0.452  0.8726E+00  0.8708E+00  0.1682E+02  0.1680E+02
     -0.308  0.8672E+00  0.8559E+00  0.1695E+02  0.1693E+02
     -0.165  0.1025E+01  0.1007E+01  0.1709E+02  0.1707E+02
     -0.021  0.1062E+01  0.1052E+01  0.1725E+02  0.1722E+02
      0.123  0.1172E+01  0.1161E+01  0.1742E+02  0.1739E+02
      0.267  0.1311E+01  0.1288E+01  0.1760E+02  0.1758E+02
      0.411  0.1477E+01  0.1472E+01  0.1782E+02  0.1779E+02
      0.555  0.1677E+01  0.1637E+01  0.1806E+02  0.1802E+02
      0.698  0.1787E+01  0.1796E+01  0.1832E+02  0.1828E+02
      0.842  0.1841E+01  0.1792E+01  0.1858E+02  0.1854E+02
      0.986  0.1928E+01  0.1908E+01  0.1886E+02  0.1882E+02
      1.130  0.1985E+01  0.1967E+01  0.1915E+02  0.1910E+02
      1.274  0.1779E+01  0.1808E+01  0.1940E+02  0.1936E+02
      1.418  0.1724E+01  0.1706E+01  0.1965E+02  0.1961E+02
      1.561  0.2023E+01  0.1839E+01  0.1994E+02  0.1987E+02
      1.705  0.2971E+01  0.2909E+01  0.2037E+02  0.2029E+02
      1.849  0.3170E+01  0.3299E+01  0.2083E+02  0.2076E+02
      1.993  0.4320E+01  0.4343E+01  0.2145E+02  0.2139E+02
      2.137  0.4795E+01  0.4880E+01  0.2214E+02  0.2209E+02
      2.281  0.4050E+01  0.4092E+01  0.2272E+02  0.2268E+02
      2.424  0.4468E+01  0.4399E+01  0.2337E+02  0.2332E+02
      2.568  0.5054E+01  0.4991E+01  0.2409E+02  0.2404E+02
      2.712  0.4629E+01  0.4668E+01  0.2476E+02  0.2471E+02
      2.856  0.3647E+01  0.3708E+01  0.2529E+02  0.2524E+02
      3.000  0.3022E+01  0.3058E+01  0.2572E+02  0.2568E+02
      3.144  0.2634E+01  0.2653E+01  0.2610E+02  0.2607E+02
      3.287  0.2392E+01  0.2433E+01  0.2645E+02  0.2642E+02
      3.431  0.2144E+01  0.2147E+01  0.2676E+02  0.2673E+02
      3.575  0.1968E+01  0.2005E+01  0.2704E+02  0.2702E+02
      3.719  0.1761E+01  0.1766E+01  0.2729E+02  0.2727E+02
      3.863  0.1572E+01  0.1568E+01  0.2752E+02  0.2750E+02
      4.007  0.1474E+01  0.1561E+01  0.2773E+02  0.2772E+02
      4.150  0.1350E+01  0.1420E+01  0.2793E+02  0.2793E+02
      4.294  0.4506E+00  0.4602E+00  0.2799E+02  0.2799E+02
      4.438  0.3913E-01  0.4098E-01  0.2800E+02  0.2800E+02
      4.582  0.1226E-03  0.7842E-03  0.2800E+02  0.2800E+02
      4.726  0.0000E+00  0.0000E+00  0.2800E+02  0.2800E+02
      4.870  0.0000E+00  0.0000E+00  0.2800E+02  0.2800E+02
      5.013  0.0000E+00  0.0000E+00  0.2800E+02  0.2800E+02
      5.157  0.0000E+00  0.0000E+00  0.2800E+02  0.2800E+02
      5.301  0.0000E+00  0.0000E+00  0.2800E+02  0.2800E+02
      5.445  0.0000E+00  0.0000E+00  0.2800E+02  0.2800E+02
      5.589  0.0000E+00  0.0000E+00  0.2800E+02  0.2800E+02
      5.733  0.0000E+00  0.0000E+00  0.2800E+02  0.2800E+02
      5.876  0.0000E+00  0.0000E+00  0.2800E+02  0.2800E+02
      6.020  0.0000E+00  0.0000E+00  0.2800E+02  0.2800E+02
      6.164  0.0000E+00  0.0000E+00  0.2800E+02  0.2800E+02
      6.16401572    -36.98551121  301      1.59736696      1.00000000
    -36.986  0.0000E+00  0.0000E+00  0.0000E+00  0.0000E+00  0.0000E+00  0.0000E+00  0.0000E+00  0.0000E+00  0.0000E+00  0.0000E+00  0.0000E+00  0.0000E+00  0.0000E+00  0.0000E+00  0.0000E+00  0.0000E+00  0.0000E+00  0.0000E+00
    -36.842  0.0000E+00  0.0000E+00  0.0000E+00  0.0000E+00  0.0000E+00  0.0000E+00  0.0000E+00  0.0000E+00  0.0000E+00  0.0000E+00  0.0000E+00  0.0000E+00  0.0000E+00  0.0000E+00  0.0000E+00  0.0000E+00  0.0000E+00  0.0000E+00
    -36.698  0.0000E+00  0.0000E+00  0.0000E+00  0.0000E+00  0.0000E+00  0.0000E+00  0.0000E+00  0.0000E+00  0.0000E+00  0.0000E+00  0.0000E+00  0.0000E+00  0.0000E+00  0.0000E+00  0.0000E+00  0.0000E+00  0.0000E+00  0.0000E+00
    -36.554  0.0000E+00  0.0000E+00  0.0000E+00  0.0000E+00  0.0000E+00  0.0000E+00  0.0000E+00  0.0000E+00  0.0000E+00  0.0000E+00  0.0000E+00  0.0000E+00  0.0000E+00  0.0000E+00  0.0000E+00  0.0000E+00  0.0000E+00  0.0000E+00
    -36.410  0.0000E+00  0.0000E+00  0.0000E+00  0.0000E+00  0.0000E+00  0.0000E+00  0.0000E+00  0.0000E+00  0.0000E+00  0.0000E+00  0.0000E+00  0.0000E+00  0.0000E+00  0.0000E+00  0.0000E+00  0.0000E+00  0.0000E+00  0.0000E+00
    -36.266  0.0000E+00  0.0000E+00  0.0000E+00  0.0000E+00  0.0000E+00  0.0000E+00  0.0000E+00  0.0000E+00  0.0000E+00  0.0000E+00  0.0000E+00  0.0000E+00  0.0000E+00  0.0000E+00  0.0000E+00  0.0000E+00  0.0000E+00  0.0000E+00
    -36.123  0.0000E+00  0.0000E+00  0.0000E+00  0.0000E+00  0.0000E+00  0.0000E+00  0.0000E+00  0.0000E+00  0.0000E+00  0.0000E+00  0.0000E+00  0.0000E+00  0.0000E+00  0.0000E+00  0.0000E+00  0.0000E+00  0.0000E+00  0.0000E+00
    -35.979  0.0000E+00  0.0000E+00  0.0000E+00  0.0000E+00  0.0000E+00  0.0000E+00  0.0000E+00  0.0000E+00  0.0000E+00  0.0000E+00  0.0000E+00  0.0000E+00  0.0000E+00  0.0000E+00  0.0000E+00  0.0000E+00  0.0000E+00  0.0000E+00
    -35.835  0.0000E+00  0.0000E+00  0.0000E+00  0.0000E+00  0.0000E+00  0.0000E+00  0.0000E+00  0.0000E+00  0.0000E+00  0.0000E+00  0.0000E+00  0.0000E+00  0.0000E+00  0.0000E+00  0.0000E+00  0.0000E+00  0.0000E+00  0.0000E+00
    -35.691  0.0000E+00  0.0000E+00  0.0000E+00  0.0000E+00  0.0000E+00  0.0000E+00  0.0000E+00  0.0000E+00  0.0000E+00  0.0000E+00  0.0000E+00  0.0000E+00  0.0000E+00  0.0000E+00  0.0000E+00  0.0000E+00  0.0000E+00  0.0000E+00
    -35.547  0.1478E-03  0.1299E-03  0.1099E-10  0.1042E-10  0.1099E-10  0.1042E-10  0.1099E-10  0.1042E-10  0.3323E-11  0.3136E-11  0.3323E-11  0.3136E-11  0.1576E-11  0.1148E-11  0.3323E-11  0.3136E-11  0.1576E-11  0.1148E-11
    -35.403  0.2476E-02  0.2368E-02  0.1841E-09  0.1755E-09  0.1841E-09  0.1755E-09  0.1841E-09  0.1755E-09  0.5566E-10  0.5285E-10  0.5566E-10  0.5285E-10  0.2640E-10  0.2535E-10  0.5566E-10  0.5285E-10  0.2640E-10  0.2535E-10
    -35.260  0.4366E-01  0.4158E-01  0.3245E-08  0.3094E-08  0.3245E-08  0.3094E-08  0.3245E-08  0.3094E-08  0.9814E-09  0.9319E-09  0.9814E-09  0.9319E-09  0.4657E-09  0.4412E-09  0.9814E-09  0.9319E-09  0.4657E-09  0.4412E-09
    -35.116  0.6910E+00  0.6615E+00  0.5110E-07  0.4898E-07  0.5110E-07  0.4898E-07  0.5110E-07  0.4898E-07  0.1554E-07  0.1483E-07  0.1554E-07  0.1483E-07  0.7411E-08  0.7056E-08  0.1554E-07  0.1483E-07  0.7411E-08  0.7056E-08
    -34.972  0.3909E+01  0.3868E+01  0.2801E-06  0.2776E-06  0.2801E-06  0.2776E-06  0.2801E-06  0.2776E-06  0.8811E-07  0.8691E-07  0.8811E-07  0.8691E-07  0.4333E-07  0.4261E-07  0.8811E-07  0.8691E-07  0.4333E-07  0.4261E-07
    -34.828  0.1990E+01  0.2054E+01  0.1369E-06  0.1416E-06  0.1369E-06  0.1416E-06  0.1369E-06  0.1416E-06  0.4482E-07  0.4613E-07  0.4482E-07  0.4613E-07  0.2294E-07  0.2354E-07  0.4482E-07  0.4613E-07  0.2294E-07  0.2354E-07
    -34.684  0.1644E+00  0.1724E+00  0.1114E-07  0.1170E-07  0.1114E-07  0.1170E-07  0.1114E-07  0.1170E-07  0.3697E-08  0.3866E-08  0.3697E-08  0.3866E-08  0.1921E-08  0.2003E-08  0.3697E-08  0.3866E-08  0.1921E-08  0.2003E-08
    -34.540  0.0000E+00  0.0000E+00  0.0000E+00  0.0000E+00  0.0000E+00  0.0000E+00  0.0000E+00  0.0000E+00  0.0000E+00  0.0000E+00  0.0000E+00  0.0000E+00  0.0000E+00  0.0000E+00  0.0000E+00  0.0000E+00  0.0000E+00  0.0000E+00
    -34.397  0.0000E+00  0.0000E+00  0.0000E+00  0.0000E+00  0.0000E+00  0.0000E+00  0.0000E+00  0.0000E+00  0.0000E+00  0.0000E+00  0.0000E+00  0.0000E+00  0.0000E+00  0.0000E+00  0.0000E+00  0.0000E+00  0.0000E+00  0.0000E+00
    -34.253  0.0000E+00  0.0000E+00  0.0000E+00  0.0000E+00  0.0000E+00  0.0000E+00  0.0000E+00  0.0000E+00  0.0000E+00  0.0000E+00  0.0000E+00  0.0000E+00  0.0000E+00  0.0000E+00  0.0000E+00  0.0000E+00  0.0000E+00  0.0000E+00
    -34.109  0.0000E+00  0.0000E+00  0.0000E+00  0.0000E+00  0.0000E+00  0.0000E+00  0.0000E+00  0.0000E+00  0.0000E+00  0.0000E+00  0.0000E+00  0.0000E+00  0.0000E+00  0.0000E+00  0.0000E+00  0.0000E+00  0.0000E+00  0.0000E+00
    -33.965  0.0000E+00  0.0000E+00  0.0000E+00  0.0000E+00  0.0000E+00  0.0000E+00  0.0000E+00  0.0000E+00  0.0000E+00  0.0000E+00  0.0000E+00  0.0000E+00  0.0000E+00  0.0000E+00  0.0000E+00  0.0000E+00  0.0000E+00  0.0000E+00
    -33.821  0.0000E+00  0.0000E+00  0.0000E+00  0.0000E+00  0.0000E+00  0.0000E+00  0.0000E+00  0.0000E+00  0.0000E+00  0.0000E+00  0.0000E+00  0.0000E+00  0.0000E+00  0.0000E+00  0.0000E+00  0.0000E+00  0.0000E+00  0.0000E+00
    -33.677  0.0000E+00  0.0000E+00  0.0000E+00  0.0000E+00  0.0000E+00  0.0000E+00  0.0000E+00  0.0000E+00  0.0000E+00  0.0000E+00  0.0000E+00  0.0000E+00  0.0000E+00  0.0000E+00  0.0000E+00  0.0000E+00  0.0000E+00  0.0000E+00
    -33.534  0.0000E+00  0.0000E+00  0.0000E+00  0.0000E+00  0.0000E+00  0.0000E+00  0.0000E+00  0.0000E+00  0.0000E+00  0.0000E+00  0.0000E+00  0.0000E+00  0.0000E+00  0.0000E+00  0.0000E+00  0.0000E+00  0.0000E+00  0.0000E+00
    -33.390  0.0000E+00  0.0000E+00  0.0000E+00  0.0000E+00  0.0000E+00  0.0000E+00  0.0000E+00  0.0000E+00  0.0000E+00  0.0000E+00  0.0000E+00  0.0000E+00  0.0000E+00  0.0000E+00  0.0000E+00  0.0000E+00  0.0000E+00  0.0000E+00
    -33.246  0.0000E+00  0.0000E+00  0.0000E+00  0.0000E+00  0.0000E+00  0.0000E+00  0.0000E+00  0.0000E+00  0.0000E+00  0.0000E+00  0.0000E+00  0.0000E+00  0.0000E+00  0.0000E+00  0.0000E+00  0.0000E+00  0.0000E+00  0.0000E+00
    -33.102  0.0000E+00  0.0000E+00  0.0000E+00  0.0000E+00  0.0000E+00  0.0000E+00  0.0000E+00  0.0000E+00  0.0000E+00  0.0000E+00  0.0000E+00  0.0000E+00  0.0000E+00  0.0000E+00  0.0000E+00  0.0000E+00  0.0000E+00  0.0000E+00
    -32.958  0.0000E+00  0.0000E+00  0.0000E+00  0.0000E+00  0.0000E+00  0.0000E+00  0.0000E+00  0.0000E+00  0.0000E+00  0.0000E+00  0.0000E+00  0.0000E+00  0.0000E+00  0.0000E+00  0.0000E+00  0.0000E+00  0.0000E+00  0.0000E+00
    -32.814  0.0000E+00  0.0000E+00  0.0000E+00  0.0000E+00  0.0000E+00  0.0000E+00  0.0000E+00  0.0000E+00  0.0000E+00  0.0000E+00  0.0000E+00  0.0000E+00  0.0000E+00  0.0000E+00  0.0000E+00  0.0000E+00  0.0000E+00  0.0000E+00
    -32.671  0.0000E+00  0.0000E+00  0.0000E+00  0.0000E+00  0.0000E+00  0.0000E+00  0.0000E+00  0.0000E+00  0.0000E+00  0.0000E+00  0.0000E+00  0.0000E+00  0.0000E+00  0.0000E+00  0.0000E+00  0.0000E+00  0.0000E+00  0.0000E+00
    -32.527  0.0000E+00  0.0000E+00  0.0000E+00  0.0000E+00  0.0000E+00  0.0000E+00  0.0000E+00  0.0000E+00  0.0000E+00  0.0000E+00  0.0000E+00  0.0000E+00  0.0000E+00  0.0000E+00  0.0000E+00  0.0000E+00  0.0000E+00  0.0000E+00
    -32.383  0.0000E+00  0.0000E+00  0.0000E+00  0.0000E+00  0.0000E+00  0.0000E+00  0.0000E+00  0.0000E+00  0.0000E+00  0.0000E+00  0.0000E+00  0.0000E+00  0.0000E+00  0.0000E+00  0.0000E+00  0.0000E+00  0.0000E+00  0.0000E+00
    -32.239  0.0000E+00  0.0000E+00  0.0000E+00  0.0000E+00  0.0000E+00  0.0000E+00  0.0000E+00  0.0000E+00  0.0000E+00  0.0000E+00  0.0000E+00  0.0000E+00  0.0000E+00  0.0000E+00  0.0000E+00  0.0000E+00  0.0000E+00  0.0000E+00
    -32.095  0.0000E+00  0.0000E+00  0.0000E+00  0.0000E+00  0.0000E+00  0.0000E+00  0.0000E+00  0.0000E+00  0.0000E+00  0.0000E+00  0.0000E+00  0.0000E+00  0.0000E+00  0.0000E+00  0.0000E+00  0.0000E+00  0.0000E+00  0.0000E+00
    -31.951  0.0000E+00  0.0000E+00  0.0000E+00  0.0000E+00  0.0000E+00  0.0000E+00  0.0000E+00  0.0000E+00  0.0000E+00  0.0000E+00  0.0000E+00  0.0000E+00  0.0000E+00  0.0000E+00  0.0000E+00  0.0000E+00  0.0000E+00  0.0000E+00
    -31.808  0.0000E+00  0.0000E+00  0.0000E+00  0.0000E+00  0.0000E+00  0.0000E+00  0.0000E+00  0.0000E+00  0.0000E+00  0.0000E+00  0.0000E+00  0.0000E+00  0.0000E+00  0.0000E+00  0.0000E+00  0.0000E+00  0.0000E+00  0.0000E+00
    -31.664  0.0000E+00  0.0000E+00  0.0000E+00  0.0000E+00  0.0000E+00  0.0000E+00  0.0000E+00  0.0000E+00  0.0000E+00  0.0000E+00  0.0000E+00  0.0000E+00  0.0000E+00  0.0000E+00  0.0000E+00  0.0000E+00  0.0000E+00  0.0000E+00
    -31.520  0.0000E+00  0.0000E+00  0.0000E+00  0.0000E+00  0.0000E+00  0.0000E+00  0.0000E+00  0.0000E+00  0.0000E+00  0.0000E+00  0.0000E+00  0.0000E+00  0.0000E+00  0.0000E+00  0.0000E+00  0.0000E+00  0.0000E+00  0.0000E+00
    -31.376  0.0000E+00  0.0000E+00  0.0000E+00  0.0000E+00  0.0000E+00  0.0000E+00  0.0000E+00  0.0000E+00  0.0000E+00  0.0000E+00  0.0000E+00  0.0000E+00  0.0000E+00  0.0000E+00  0.0000E+00  0.0000E+00  0.0000E+00  0.0000E+00
    -31.232  0.0000E+00  0.0000E+00  0.0000E+00  0.0000E+00  0.0000E+00  0.0000E+00  0.0000E+00  0.0000E+00  0.0000E+00  0.0000E+00  0.0000E+00  0.0000E+00  0.0000E+00  0.0000E+00  0.0000E+00  0.0000E+00  0.0000E+00  0.0000E+00
    -31.088  0.0000E+00  0.0000E+00  0.0000E+00  0.0000E+00  0.0000E+00  0.0000E+00  0.0000E+00  0.0000E+00  0.0000E+00  0.0000E+00  0.0000E+00  0.0000E+00  0.0000E+00  0.0000E+00  0.0000E+00  0.0000E+00  0.0000E+00  0.0000E+00
    -30.945  0.0000E+00  0.0000E+00  0.0000E+00  0.0000E+00  0.0000E+00  0.0000E+00  0.0000E+00  0.0000E+00  0.0000E+00  0.0000E+00  0.0000E+00  0.0000E+00  0.0000E+00  0.0000E+00  0.0000E+00  0.0000E+00  0.0000E+00  0.0000E+00
    -30.801  0.0000E+00  0.0000E+00  0.0000E+00  0.0000E+00  0.0000E+00  0.0000E+00  0.0000E+00  0.0000E+00  0.0000E+00  0.0000E+00  0.0000E+00  0.0000E+00  0.0000E+00  0.0000E+00  0.0000E+00  0.0000E+00  0.0000E+00  0.0000E+00
    -30.657  0.0000E+00  0.0000E+00  0.0000E+00  0.0000E+00  0.0000E+00  0.0000E+00  0.0000E+00  0.0000E+00  0.0000E+00  0.0000E+00  0.0000E+00  0.0000E+00  0.0000E+00  0.0000E+00  0.0000E+00  0.0000E+00  0.0000E+00  0.0000E+00
    -30.513  0.0000E+00  0.0000E+00  0.0000E+00  0.0000E+00  0.0000E+00  0.0000E+00  0.0000E+00  0.0000E+00  0.0000E+00  0.0000E+00  0.0000E+00  0.0000E+00  0.0000E+00  0.0000E+00  0.0000E+00  0.0000E+00  0.0000E+00  0.0000E+00
    -30.369  0.0000E+00  0.0000E+00  0.0000E+00  0.0000E+00  0.0000E+00  0.0000E+00  0.0000E+00  0.0000E+00  0.0000E+00  0.0000E+00  0.0000E+00  0.0000E+00  0.0000E+00  0.0000E+00  0.0000E+00  0.0000E+00  0.0000E+00  0.0000E+00
    -30.225  0.0000E+00  0.0000E+00  0.0000E+00  0.0000E+00  0.0000E+00  0.0000E+00  0.0000E+00  0.0000E+00  0.0000E+00  0.0000E+00  0.0000E+00  0.0000E+00  0.0000E+00  0.0000E+00  0.0000E+00  0.0000E+00  0.0000E+00  0.0000E+00
    -30.082  0.0000E+00  0.0000E+00  0.0000E+00  0.0000E+00  0.0000E+00  0.0000E+00  0.0000E+00  0.0000E+00  0.0000E+00  0.0000E+00  0.0000E+00  0.0000E+00  0.0000E+00  0.0000E+00  0.0000E+00  0.0000E+00  0.0000E+00  0.0000E+00
    -29.938  0.0000E+00  0.0000E+00  0.0000E+00  0.0000E+00  0.0000E+00  0.0000E+00  0.0000E+00  0.0000E+00  0.0000E+00  0.0000E+00  0.0000E+00  0.0000E+00  0.0000E+00  0.0000E+00  0.0000E+00  0.0000E+00  0.0000E+00  0.0000E+00
    -29.794  0.0000E+00  0.0000E+00  0.0000E+00  0.0000E+00  0.0000E+00  0.0000E+00  0.0000E+00  0.0000E+00  0.0000E+00  0.0000E+00  0.0000E+00  0.0000E+00  0.0000E+00  0.0000E+00  0.0000E+00  0.0000E+00  0.0000E+00  0.0000E+00