   4   4   1   0
  0.7103421E+02  0.6574194E-09  0.6574194E-09  0.6574194E-09  0.5000000E-15
  1.000000000000000E-004
  CAR 
 unknown system                          
      5.01920175    -38.32443707  301      0.76537777      1.00000000
    -38.324  0.0000E+00  0.0000E+00  0.0000E+00  0.0000E+00
    -38.180  0.0000E+00  0.0000E+00  0.0000E+00  0.0000E+00
    -38.035  0.0000E+00  0.0000E+00  0.0000E+00  0.0000E+00
    -37.891  0.0000E+00  0.0000E+00  0.0000E+00  0.0000E+00
    -37.747  0.0000E+00  0.0000E+00  0.0000E+00  0.0000E+00
    -37.602  0.0000E+00  0.0000E+00  0.0000E+00  0.0000E+00
    -37.458  0.0000E+00  0.0000E+00  0.0000E+00  0.0000E+00
    -37.313  0.0000E+00  0.0000E+00  0.0000E+00  0.0000E+00
    -37.169  0.0000E+00  0.0000E+00  0.0000E+00  0.0000E+00
    -37.024  0.0000E+00  0.0000E+00  0.0000E+00  0.0000E+00
    -36.880  0.7014E-03  0.6761E-03  0.1013E-03  0.9769E-04
    -36.735  0.1191E-01  0.1148E-01  0.1822E-02  0.1756E-02
    -36.591  0.2125E+00  0.2049E+00  0.3252E-01  0.3135E-01
    -36.446  0.3332E+01  0.3227E+01  0.5139E+00  0.4976E+00
    -36.302  0.1654E+02  0.1645E+02  0.2904E+01  0.2875E+01
    -36.157  0.7016E+01  0.7199E+01  0.3918E+01  0.3915E+01
    -36.013  0.5367E+00  0.5563E+00  0.3995E+01  0.3995E+01
    -35.868  0.0000E+00  0.0000E+00  0.4000E+01  0.4000E+01
    -35.724  0.0000E+00  0.0000E+00  0.4000E+01  0.4000E+01
    -35.579  0.0000E+00  0.0000E+00  0.4000E+01  0.4000E+01
    -35.435  0.0000E+00  0.0000E+00  0.4000E+01  0.4000E+01
    -35.290  0.0000E+00  0.0000E+00  0.4000E+01  0.4000E+01
    -35.146  0.0000E+00  0.0000E+00  0.4000E+01  0.4000E+01
    -35.001  0.0000E+00  0.0000E+00  0.4000E+01  0.4000E+01
    -34.857  0.0000E+00  0.0000E+00  0.4000E+01  0.4000E+01
    -34.712  0.0000E+00  0.0000E+00  0.4000E+01  0.4000E+01
    -34.568  0.0000E+00  0.0000E+00  0.4000E+01  0.4000E+01
    -34.424  0.0000E+00  0.0000E+00  0.4000E+01  0.4000E+01
    -34.279  0.0000E+00  0.0000E+00  0.4000E+01  0.4000E+01
    -34.135  0.0000E+00  0.0000E+00  0.4000E+01  0.4000E+01
    -33.990  0.0000E+00  0.0000E+00  0.4000E+01  0.4000E+01
    -33.846  0.0000E+00  0.0000E+00  0.4000E+01  0.4000E+01
    -33.701  0.0000E+00  0.0000E+00  0.4000E+01  0.4000E+01
    -33.557  0.0000E+00  0.0000E+00  0.4000E+01  0.4000E+01
    -33.412  0.0000E+00  0.0000E+00  0.4000E+01  0.4000E+01
    -33.268  0.0000E+00  0.0000E+00  0.4000E+01  0.4000E+01
    -33.123  0.0000E+00  0.0000E+00  0.4000E+01  0.4000E+01
    -32.979  0.0000E+00  0.0000E+00  0.4000E+01  0.4000E+01
    -32.834  0.0000E+00  0.0000E+00  0.4000E+01  0.4000E+01
    -32.690  0.0000E+00  0.0000E+00  0.4000E+01  0.4000E+01
    -32.545  0.0000E+00  0.0000E+00  0.4000E+01  0.4000E+01
    -32.401  0.0000E+00  0.0000E+00  0.4000E+01  0.4000E+01
    -32.256  0.0000E+00  0.0000E+00  0.4000E+01  0.4000E+01
    -32.112  0.0000E+00  0.0000E+00  0.4000E+01  0.4000E+01
    -31.967  0.0000E+00  0.0000E+00  0.4000E+01  0.4000E+01
    -31.823  0.0000E+00  0.0000E+00  0.4000E+01  0.4000E+01
    -31.678  0.0000E+00  0.0000E+00  0.4000E+01  0.4000E+01
    -31.534  0.0000E+00  0.0000E+00  0.4000E+01  0.4000E+01
    -31.389  0.0000E+00  0.0000E+00  0.4000E+01  0.4000E+01
    -31.245  0.0000E+00  0.0000E+00  0.4000E+01  0.4000E+01
    -31.100  0.0000E+00  0.0000E+00  0.4000E+01  0.4000E+01
    -30.956  0.0000E+00  0.0000E+00  0.4000E+01  0.4000E+01
    -30.812  0.0000E+00  0.0000E+00  0.4000E+01  0.4000E+01
    -30.667  0.0000E+00  0.0000E+00  0.4000E+01  0.4000E+01
    -30.523  0.0000E+00  0.0000E+00  0.4000E+01  0.4000E+01
    -30.378  0.0000E+00  0.0000E+00  0.4000E+01  0.4000E+01
    -30.234  0.0000E+00  0.0000E+00  0.4000E+01  0.4000E+01
    -30.089  0.0000E+00  0.0000E+00  0.4000E+01  0.4000E+01
    -29.945  0.0000E+00  0.0000E+00  0.4000E+01  0.4000E+01
    -29.800  0.0000E+00  0.0000E+00  0.4000E+01  0.4000E+01
    -29.656  0.0000E+00  0.0000E+00  0.4000E+01  0.4000E+01
    -29.511  0.0000E+00  0.0000E+00  0.4000E+01  0.4000E+01
    -29.367  0.0000E+00  0.0000E+00  0.4000E+01  0.4000E+01
    -29.222  0.0000E+00  0.0000E+00  0.4000E+01  0.4000E+01
    -29.078  0.0000E+00  0.0000E+00  0.4000E+01  0.4000E+01
    -28.933  0.0000E+00  0.0000E+00  0.4000E+01  0.4000E+01
    -28.789  0.0000E+00  0.0000E+00  0.4000E+01  0.4000E+01
    -28.644  0.0000E+00  0.0000E+00  0.4000E+01  0.4000E+01
    -28.500  0.0000E+00  0.0000E+00  0.4000E+01  0.4000E+01
    -28.355  0.0000E+00  0.0000E+00  0.4000E+01  0.4000E+01
    -28.211  0.0000E+00  0.0000E+00  0.4000E+01  0.4000E+01
    -28.066  0.0000E+00  0.0000E+00  0.4000E+01  0.4000E+01
    -27.922  0.0000E+00  0.0000E+00  0.4000E+01  0.4000E+01
    -27.777  0.0000E+00  0.0000E+00  0.4000E+01  0.4000E+01
    -27.633  0.0000E+00  0.0000E+00  0.4000E+01  0.4000E+01
    -27.489  0.0000E+00  0.0000E+00  0.4000E+01  0.4000E+01
    -27.344  0.0000E+00  0.0000E+00  0.4000E+01  0.4000E+01
    -27.200  0.0000E+00  0.0000E+00  0.4000E+01  0.4000E+01
    -27.055  0.0000E+00  0.0000E+00  0.4000E+01  0.4000E+01
    -26.911  0.0000E+00  0.0000E+00  0.4000E+01  0.4000E+01
    -26.766  0.0000E+00  0.0000E+00  0.4000E+01  0.4000E+01
    -26.622  0.0000E+00  0.0000E+00  0.4000E+01  0.4000E+01
    -26.477  0.0000E+00  0.0000E+00  0.4000E+01  0.4000E+01
    -26.333  0.0000E+00  0.0000E+00  0.4000E+01  0.4000E+01
    -26.188  0.0000E+00  0.0000E+00  0.4000E+01  0.4000E+01
    -26.044  0.0000E+00  0.0000E+00  0.4000E+01  0.4000E+01
    -25.899  0.0000E+00  0.0000E+00  0.4000E+01  0.4000E+01
    -25.755  0.0000E+00  0.0000E+00  0.4000E+01  0.4000E+01
    -25.610  0.0000E+00  0.0000E+00  0.4000E+01  0.4000E+01
    -25.466  0.0000E+00  0.0000E+00  0.4000E+01  0.4000E+01
    -25.321  0.0000E+00  0.0000E+00  0.4000E+01  0.4000E+01
    -25.177  0.0000E+00  0.0000E+00  0.4000E+01  0.4000E+01
    -25.032  0.0000E+00  0.0000E+00  0.4000E+01  0.4000E+01
    -24.888  0.0000E+00  0.0000E+00  0.4000E+01  0.4000E+01
    -24.743  0.0000E+00  0.0000E+00  0.4000E+01  0.4000E+01
    -24.599  0.0000E+00  0.0000E+00  0.4000E+01  0.4000E+01
    -24.454  0.0000E+00  0.0000E+00  0.4000E+01  0.4000E+01
    -24.310  0.0000E+00  0.0000E+00  0.4000E+01  0.4000E+01
    -24.166  0.0000E+00  0.0000E+00  0.4000E+01  0.4000E+01
    -24.021  0.0000E+00  0.0000E+00  0.4000E+01  0.4000E+01
    -23.877  0.0000E+00  0.0000E+00  0.4000E+01  0.4000E+01
    -23.732  0.0000E+00  0.0000E+00  0.4000E+01  0.4000E+01
    -23.588  0.0000E+00  0.0000E+00  0.4000E+01  0.4000E+01
    -23.443  0.0000E+00  0.0000E+00  0.4000E+01  0.4000E+01
    -23.299  0.0000E+00  0.0000E+00  0.4000E+01  0.4000E+01
    -23.154  0.0000E+00  0.0000E+00  0.4000E+01  0.4000E+01
    -23.010  0.0000E+00  0.0000E+00  0.4000E+01  0.4000E+01
    -22.865  0.0000E+00  0.0000E+00  0.4000E+01  0.4000E+01
    -22.721  0.0000E+00  0.0000E+00  0.4000E+01  0.4000E+01
    -22.576  0.0000E+00  0.0000E+00  0.4000E+01  0.4000E+01
    -22.432  0.0000E+00  0.0000E+00  0.4000E+01  0.4000E+01
    -22.287  0.0000E+00  0.0000E+00  0.4000E+01  0.4000E+01
    -22.143  0.0000E+00  0.0000E+00  0.4000E+01  0.4000E+01
    -21.998  0.0000E+00  0.0000E+00  0.4000E+01  0.4000E+01
    -21.854  0.0000E+00  0.0000E+00  0.4000E+01  0.4000E+01
    -21.709  0.0000E+00  0.0000E+00  0.4000E+01  0.4000E+01
    -21.565  0.0000E+00  0.0000E+00  0.4000E+01  0.4000E+01
    -21.420  0.0000E+00  0.0000E+00  0.4000E+01  0.4000E+01
    -21.276  0.0000E+00  0.0000E+00  0.4000E+01  0.4000E+01
    -21.131  0.0000E+00  0.0000E+00  0.4000E+01  0.4000E+01
    -20.987  0.0000E+00  0.0000E+00  0.4000E+01  0.4000E+01
    -20.843  0.0000E+00  0.0000E+00  0.4000E+01  0.4000E+01
    -20.698  0.0000E+00  0.0000E+00  0.4000E+01  0.4000E+01
    -20.554  0.0000E+00  0.0000E+00  0.4000E+01  0.4000E+01
    -20.409  0.0000E+00  0.0000E+00  0.4000E+01  0.4000E+01
    -20.265  0.0000E+00  0.0000E+00  0.4000E+01  0.4000E+01
    -20.120  0.0000E+00  0.0000E+00  0.4000E+01  0.4000E+01
    -19.976  0.0000E+00  0.0000E+00  0.4000E+01  0.4000E+01
    -19.831  0.0000E+00  0.0000E+00  0.4000E+01  0.4000E+01
    -19.687  0.0000E+00  0.0000E+00  0.4000E+01  0.4000E+01
    -19.542  0.0000E+00  0.0000E+00  0.4000E+01  0.4000E+01
    -19.398  0.0000E+00  0.0000E+00  0.4000E+01  0.4000E+01
    -19.253  0.0000E+00  0.0000E+00  0.4000E+01  0.4000E+01
    -19.109  0.0000E+00  0.0000E+00  0.4000E+01  0.4000E+01
    -18.964  0.0000E+00  0.0000E+00  0.4000E+01  0.4000E+01
    -18.820  0.2164E-02  0.2008E-02  0.4000E+01  0.4000E+01
    -18.675  0.4154E-01  0.4002E-01  0.4006E+01  0.4006E+01
    -18.531  0.7342E+00  0.7063E+00  0.4112E+01  0.4108E+01
    -18.386  0.1106E+02  0.1071E+02  0.5711E+01  0.5655E+01
    -18.242  0.4897E+02  0.4873E+02  0.1279E+02  0.1270E+02
    -18.097  0.2053E+02  0.2109E+02  0.1575E+02  0.1574E+02
    -17.953  0.1612E+01  0.1674E+01  0.1599E+02  0.1599E+02
    -17.808  0.0000E+00  0.0000E+00  0.1600E+02  0.1600E+02
    -17.664  0.0000E+00  0.0000E+00  0.1600E+02  0.1600E+02
    -17.519  0.0000E+00  0.0000E+00  0.1600E+02  0.1600E+02
    -17.375  0.0000E+00  0.0000E+00  0.1600E+02  0.1600E+02
    -17.231  0.0000E+00  0.0000E+00  0.1600E+02  0.1600E+02
    -17.086  0.0000E+00  0.0000E+00  0.1600E+02  0.1600E+02
    -16.942  0.0000E+00  0.0000E+00  0.1600E+02  0.1600E+02
    -16.797  0.0000E+00  0.0000E+00  0.1600E+02  0.1600E+02
    -16.653  0.0000E+00  0.0000E+00  0.1600E+02  0.1600E+02
    -16.508  0.0000E+00  0.0000E+00  0.1600E+02  0.1600E+02
    -16.364  0.0000E+00  0.0000E+00  0.1600E+02  0.1600E+02
    -16.219  0.0000E+00  0.0000E+00  0.1600E+02  0.1600E+02
    -16.075  0.0000E+00  0.0000E+00  0.1600E+02  0.1600E+02
    -15.930  0.0000E+00  0.0000E+00  0.1600E+02  0.1600E+02
    -15.786  0.0000E+00  0.0000E+00  0.1600E+02  0.1600E+02
    -15.641  0.0000E+00  0.0000E+00  0.1600E+02  0.1600E+02
    -15.497  0.0000E+00  0.0000E+00  0.1600E+02  0.1600E+02
    -15.352  0.0000E+00  0.0000E+00  0.1600E+02  0.1600E+02
    -15.208  0.0000E+00  0.0000E+00  0.1600E+02  0.1600E+02
    -15.063  0.0000E+00  0.0000E+00  0.1600E+02  0.1600E+02
    -14.919  0.0000E+00  0.0000E+00  0.1600E+02  0.1600E+02
    -14.774  0.0000E+00  0.0000E+00  0.1600E+02  0.1600E+02
    -14.630  0.0000E+00  0.0000E+00  0.1600E+02  0.1600E+02
    -14.485  0.0000E+00  0.0000E+00  0.1600E+02  0.1600E+02
    -14.341  0.0000E+00  0.0000E+00  0.1600E+02  0.1600E+02
    -14.196  0.0000E+00  0.0000E+00  0.1600E+02  0.1600E+02
    -14.052  0.0000E+00  0.0000E+00  0.1600E+02  0.1600E+02
    -13.908  0.0000E+00  0.0000E+00  0.1600E+02  0.1600E+02
    -13.763  0.0000E+00  0.0000E+00  0.1600E+02  0.1600E+02
    -13.619  0.0000E+00  0.0000E+00  0.1600E+02  0.1600E+02
    -13.474  0.0000E+00  0.0000E+00  0.1600E+02  0.1600E+02
    -13.330  0.0000E+00  0.0000E+00  0.1600E+02  0.1600E+02
    -13.185  0.0000E+00  0.0000E+00  0.1600E+02  0.1600E+02
    -13.041  0.0000E+00  0.0000E+00  0.1600E+02  0.1600E+02
    -12.896  0.0000E+00  0.0000E+00  0.1600E+02  0.1600E+02
    -12.752  0.0000E+00  0.0000E+00  0.1600E+02  0.1600E+02
    -12.607  0.0000E+00  0.0000E+00  0.1600E+02  0.1600E+02
    -12.463  0.0000E+00  0.0000E+00  0.1600E+02  0.1600E+02
    -12.318  0.0000E+00  0.0000E+00  0.1600E+02  0.1600E+02
    -12.174  0.0000E+00  0.0000E+00  0.1600E+02  0.1600E+02
    -12.029  0.0000E+00  0.0000E+00  0.1600E+02  0.1600E+02
    -11.885  0.0000E+00  0.0000E+00  0.1600E+02  0.1600E+02
    -11.740  0.0000E+00  0.0000E+00  0.1600E+02  0.1600E+02
    -11.596  0.0000E+00  0.0000E+00  0.1600E+02  0.1600E+02
    -11.451  0.0000E+00  0.0000E+00  0.1600E+02  0.1600E+02
    -11.307  0.0000E+00  0.0000E+00  0.1600E+02  0.1600E+02
    -11.162  0.0000E+00  0.0000E+00  0.1600E+02  0.1600E+02
    -11.018  0.0000E+00  0.0000E+00  0.1600E+02  0.1600E+02
    -10.873  0.0000E+00  0.0000E+00  0.1600E+02  0.1600E+02
    -10.729  0.0000E+00  0.0000E+00  0.1600E+02  0.1600E+02
    -10.585  0.0000E+00  0.0000E+00  0.1600E+02  0.1600E+02
    -10.440  0.0000E+00  0.0000E+00  0.1600E+02  0.1600E+02
    -10.296  0.0000E+00  0.0000E+00  0.1600E+02  0.1600E+02
    -10.151  0.0000E+00  0.0000E+00  0.1600E+02  0.1600E+02
    -10.007  0.0000E+00  0.0000E+00  0.1600E+02  0.1600E+02
     -9.862  0.0000E+00  0.0000E+00  0.1600E+02  0.1600E+02
     -9.718  0.0000E+00  0.0000E+00  0.1600E+02  0.1600E+02
     -9.573  0.0000E+00  0.0000E+00  0.1600E+02  0.1600E+02
     -9.429  0.0000E+00  0.0000E+00  0.1600E+02  0.1600E+02
     -9.284  0.0000E+00  0.0000E+00  0.1600E+02  0.1600E+02
     -9.140  0.0000E+00  0.0000E+00  0.1600E+02  0.1600E+02
     -8.995  0.0000E+00  0.0000E+00  0.1600E+02  0.1600E+02
     -8.851  0.0000E+00  0.0000E+00  0.1600E+02  0.1600E+02
     -8.706  0.0000E+00  0.0000E+00  0.1600E+02  0.1600E+02
     -8.562  0.0000E+00  0.0000E+00  0.1600E+02  0.1600E+02
     -8.417  0.0000E+00  0.0000E+00  0.1600E+02  0.1600E+02
     -8.273  0.0000E+00  0.0000E+00  0.1600E+02  0.1600E+02
     -8.128  0.0000E+00  0.0000E+00  0.1600E+02  0.1600E+02
     -7.984  0.0000E+00  0.0000E+00  0.1600E+02  0.1600E+02
     -7.839  0.0000E+00  0.0000E+00  0.1600E+02  0.1600E+02
     -7.695  0.0000E+00  0.0000E+00  0.1600E+02  0.1600E+02
     -7.550  0.0000E+00  0.0000E+00  0.1600E+02  0.1600E+02
     -7.406  0.0000E+00  0.0000E+00  0.1600E+02  0.1600E+02
     -7.261  0.0000E+00  0.0000E+00  0.1600E+02  0.1600E+02
     -7.117  0.0000E+00  0.0000E+00  0.1600E+02  0.1600E+02
     -6.973  0.0000E+00  0.0000E+00  0.1600E+02  0.1600E+02
     -6.828  0.0000E+00  0.0000E+00  0.1600E+02  0.1600E+02
     -6.684  0.0000E+00  0.0000E+00  0.1600E+02  0.1600E+02
     -6.539  0.0000E+00  0.0000E+00  0.1600E+02  0.1600E+02
     -6.395  0.0000E+00  0.0000E+00  0.1600E+02  0.1600E+02
     -6.250  0.0000E+00  0.0000E+00  0.1600E+02  0.1600E+02
     -6.106  0.0000E+00  0.0000E+00  0.1600E+02  0.1600E+02
     -5.961  0.0000E+00  0.0000E+00  0.1600E+02  0.1600E+02
     -5.817  0.0000E+00  0.0000E+00  0.1600E+02  0.1600E+02
     -5.672  0.0000E+00  0.0000E+00  0.1600E+02  0.1600E+02
     -5.528  0.0000E+00  0.0000E+00  0.1600E+02  0.1600E+02
     -5.383  0.0000E+00  0.0000E+00  0.1600E+02  0.1600E+02
     -5.239  0.0000E+00  0.0000E+00  0.1600E+02  0.1600E+02
     -5.094  0.0000E+00  0.0000E+00  0.1600E+02  0.1600E+02
     -4.950  0.0000E+00  0.0000E+00  0.1600E+02  0.1600E+02
     -4.805  0.0000E+00  0.0000E+00  0.1600E+02  0.1600E+02
     -4.661  0.0000E+00  0.0000E+00  0.1600E+02  0.1600E+02
     -4.516  0.0000E+00  0.0000E+00  0.1600E+02  0.1600E+02
     -4.372  0.0000E+00  0.0000E+00  0.1600E+02  0.1600E+02
     -4.227  0.0000E+00  0.0000E+00  0.1600E+02  0.1600E+02
     -4.083  0.0000E+00  0.0000E+00  0.1600E+02  0.1600E+02
     -3.938  0.0000E+00  0.0000E+00  0.1600E+02  0.1600E+02
     -3.794  0.0000E+00  0.0000E+00  0.1600E+02  0.1600E+02
     -3.650  0.0000E+00  0.0000E+00  0.1600E+02  0.1600E+02
     -3.505  0.0000E+00  0.0000E+00  0.1600E+02  0.1600E+02
     -3.361  0.0000E+00  0.0000E+00  0.1600E+02  0.1600E+02
     -3.216  0.0000E+00  0.0000E+00  0.1600E+02  0.1600E+02
     -3.072  0.0000E+00  0.0000E+00  0.1600E+02  0.1600E+02
     -2.927  0.3012E-05  0.1754E-05  0.1600E+02  0.1600E+02
     -2.783  0.7206E-04  0.5055E-04  0.1600E+02  0.1600E+02
     -2.638  0.1326E-02  0.9264E-03  0.1600E+02  0.1600E+02
     -2.494  0.2043E-01  0.1488E-01  0.1600E+02  0.1600E+02
     -2.349  0.1355E+00  0.1147E+00  0.1602E+02  0.1602E+02
     -2.205  0.3006E+00  0.2821E+00  0.1607E+02  0.1606E+02
     -2.060  0.4205E+00  0.4073E+00  0.1613E+02  0.1612E+02
     -1.916  0.5223E+00  0.5122E+00  0.1620E+02  0.1619E+02
     -1.771  0.6134E+00  0.5988E+00  0.1629E+02  0.1628E+02
     -1.627  0.6849E+00  0.6781E+00  0.1639E+02  0.1638E+02
     -1.482  0.7838E+00  0.7695E+00  0.1650E+02  0.1649E+02
     -1.338  0.8427E+00  0.8409E+00  0.1663E+02  0.1661E+02
     -1.193  0.9584E+00  0.9371E+00  0.1676E+02  0.1675E+02
     -1.049  0.1002E+01  0.1003E+01  0.1691E+02  0.1689E+02
     -0.904  0.1125E+01  0.1106E+01  0.1707E+02  0.1705E+02
     -0.760  0.1211E+01  0.1202E+01  0.1725E+02  0.1722E+02
     -0.615  0.1283E+01  0.1275E+01  0.1743E+02  0.1741E+02
     -0.471  0.1469E+01  0.1451E+01  0.1765E+02  0.1762E+02
     -0.327  0.1539E+01  0.1536E+01  0.1787E+02  0.1784E+02
     -0.182  0.1841E+01  0.1810E+01  0.1813E+02  0.1810E+02
     -0.038  0.1850E+01  0.1861E+01  0.1840E+02  0.1837E+02
      0.107  0.1901E+01  0.1897E+01  0.1868E+02  0.1865E+02
      0.251  0.1801E+01  0.1785E+01  0.1894E+02  0.1891E+02
      0.396  0.1864E+01  0.1859E+01  0.1921E+02  0.1917E+02
      0.540  0.1846E+01  0.1825E+01  0.1948E+02  0.1944E+02
      0.685  0.2182E+01  0.2050E+01  0.1979E+02  0.1974E+02
      0.829  0.3144E+01  0.3039E+01  0.2025E+02  0.2018E+02
      0.974  0.3172E+01  0.3274E+01  0.2070E+02  0.2065E+02
      1.118  0.3215E+01  0.3250E+01  0.2117E+02  0.2112E+02
      1.263  0.4373E+01  0.4305E+01  0.2180E+02  0.2174E+02
      1.407  0.6124E+01  0.6055E+01  0.2269E+02  0.2262E+02
      1.552  0.5878E+01  0.5941E+01  0.2354E+02  0.2348E+02
      1.696  0.4791E+01  0.4853E+01  0.2423E+02  0.2418E+02
      1.841  0.4124E+01  0.4158E+01  0.2483E+02  0.2478E+02
      1.985  0.3632E+01  0.3662E+01  0.2536E+02  0.2531E+02
      2.130  0.3280E+01  0.3320E+01  0.2583E+02  0.2579E+02
      2.274  0.3000E+01  0.3022E+01  0.2626E+02  0.2623E+02
      2.419  0.2654E+01  0.2704E+01  0.2665E+02  0.2662E+02
      2.563  0.2472E+01  0.2554E+01  0.2701E+02  0.2699E+02
      2.708  0.2153E+01  0.2326E+01  0.2732E+02  0.2733E+02
      2.852  0.2076E+01  0.1957E+01  0.2762E+02  0.2761E+02
      2.996  0.1827E+01  0.1835E+01  0.2788E+02  0.2788E+02
      3.141  0.7213E+00  0.7551E+00  0.2799E+02  0.2799E+02
      3.285  0.6501E-01  0.7461E-01  0.2800E+02  0.2800E+02
      3.430  0.0000E+00  0.1654E-02  0.2800E+02  0.2800E+02
      3.574  0.0000E+00  0.0000E+00  0.2800E+02  0.2800E+02
      3.719  0.0000E+00  0.0000E+00  0.2800E+02  0.2800E+02
      3.863  0.0000E+00  0.0000E+00  0.2800E+02  0.2800E+02
      4.008  0.0000E+00  0.0000E+00  0.2800E+02  0.2800E+02
      4.152  0.0000E+00  0.0000E+00  0.2800E+02  0.2800E+02
      4.297  0.0000E+00  0.0000E+00  0.2800E+02  0.2800E+02
      4.441  0.0000E+00  0.0000E+00  0.2800E+02  0.2800E+02
      4.586  0.0000E+00  0.0000E+00  0.2800E+02  0.2800E+02
      4.730  0.0000E+00  0.0000E+00  0.2800E+02  0.2800E+02
      4.875  0.0000E+00  0.0000E+00  0.2800E+02  0.2800E+02
      5.019  0.0000E+00  0.0000E+00  0.2800E+02  0.2800E+02
      5.01920175    -38.32443707  301      0.76537777      1.00000000
    -38.324  0.0000E+00  0.0000E+00  0.0000E+00  0.0000E+00  0.0000E+00  0.0000E+00  0.0000E+00  0.0000E+00  0.0000E+00  0.0000E+00  0.0000E+00  0.0000E+00  0.0000E+00  0.0000E+00  0.0000E+00  0.0000E+00  0.0000E+00  0.0000E+00
    -38.180  0.0000E+00  0.0000E+00  0.0000E+00  0.0000E+00  0.0000E+00  0.0000E+00  0.0000E+00  0.0000E+00  0.0000E+00  0.0000E+00  0.0000E+00  0.0000E+00  0.0000E+00  0.0000E+00  0.0000E+00  0.0000E+00  0.0000E+00  0.0000E+00
    -38.035  0.0000E+00  0.0000E+00  0.0000E+00  0.0000E+00  0.0000E+00  0.0000E+00  0.0000E+00  0.0000E+00  0.0000E+00  0.0000E+00  0.0000E+00  0.0000E+00  0.0000E+00  0.0000E+00  0.0000E+00  0.0000E+00  0.0000E+00  0.0000E+00
    -37.891  0.0000E+00  0.0000E+00  0.0000E+00  0.0000E+00  0.0000E+00  0.0000E+00  0.0000E+00  0.0000E+00  0.0000E+00  0.0000E+00  0.0000E+00  0.0000E+00  0.0000E+00  0.0000E+00  0.0000E+00  0.0000E+00  0.0000E+00  0.0000E+00
    -37.747  0.0000E+00  0.0000E+00  0.0000E+00  0.0000E+00  0.0000E+00  0.0000E+00  0.0000E+00  0.0000E+00  0.0000E+00  0.0000E+00  0.0000E+00  0.0000E+00  0.0000E+00  0.0000E+00  0.0000E+00  0.0000E+00  0.0000E+00  0.0000E+00
    -37.602  0.0000E+00  0.0000E+00  0.0000E+00  0.0000E+00  0.0000E+00  0.0000E+00  0.0000E+00  0.0000E+00  0.0000E+00  0.0000E+00  0.0000E+00  0.0000E+00  0.0000E+00  0.0000E+00  0.0000E+00  0.0000E+00  0.0000E+00  0.0000E+00
    -37.458  0.0000E+00  0.0000E+00  0.0000E+00  0.0000E+00  0.0000E+00  0.0000E+00  0.0000E+00  0.0000E+00  0.0000E+00  0.0000E+00  0.0000E+00  0.0000E+00  0.0000E+00  0.0000E+00  0.0000E+00  0.0000E+00  0.0000E+00  0.0000E+00
    -37.313  0.0000E+00  0.0000E+00  0.0000E+00  0.0000E+00  0.0000E+00  0.0000E+00  0.0000E+00  0.0000E+00  0.0000E+00  0.0000E+00  0.0000E+00  0.0000E+00  0.0000E+00  0.0000E+00  0.0000E+00  0.0000E+00  0.0000E+00  0.0000E+00
    -37.169  0.0000E+00  0.0000E+00  0.0000E+00  0.0000E+00  0.0000E+00  0.0000E+00  0.0000E+00  0.0000E+00  0.0000E+00  0.0000E+00  0.0000E+00  0.0000E+00  0.0000E+00  0.0000E+00  0.0000E+00  0.0000E+00  0.0000E+00  0.0000E+00
    -37.024  0.0000E+00  0.0000E+00  0.0000E+00  0.0000E+00  0.0000E+00  0.0000E+00  0.0000E+00  0.0000E+00  0.0000E+00  0.0000E+00  0.0000E+00  0.0000E+00  0.0000E+00  0.0000E+00  0.0000E+00  0.0000E+00  0.0000E+00  0.0000E+00
    -36.880  0.1718E-03  0.1657E-03  0.8823E-12  0.8526E-12  0.8823E-12  0.8526E-12  0.8823E-12  0.8526E-12  0.2739E-12  0.2614E-12  0.2739E-12  0.2614E-12  0.1356E-12  0.1288E-12  0.2739E-12  0.2614E-12  0.1356E-12  0.1288E-12
    -36.735  0.2918E-02  0.2812E-02  0.1498E-10  0.1448E-10  0.1498E-10  0.1448E-10  0.1498E-10  0.1448E-10  0.4651E-11  0.4438E-11  0.4651E-11  0.4438E-11  0.2301E-11  0.2186E-11  0.4651E-11  0.4438E-11  0.2301E-11  0.2186E-11
    -36.591  0.5205E-01  0.5019E-01  0.2672E-09  0.2583E-09  0.2672E-09  0.2583E-09  0.2672E-09  0.2583E-09  0.8297E-10  0.7920E-10  0.8297E-10  0.7920E-10  0.4106E-10  0.3902E-10  0.8297E-10  0.7920E-10  0.4106E-10  0.3902E-10
    -36.446  0.8162E+00  0.7907E+00  0.4183E-08  0.4063E-08  0.4183E-08  0.4063E-08  0.4183E-08  0.4063E-08  0.1301E-08  0.1248E-08  0.1301E-08  0.1248E-08  0.6450E-09  0.6156E-09  0.1301E-08  0.1248E-08  0.6450E-09  0.6156E-09
    -36.302  0.4053E+01  0.4031E+01  0.2058E-07  0.2052E-07  0.2058E-07  0.2052E-07  0.2058E-07  0.2052E-07  0.6462E-08  0.6361E-08  0.6462E-08  0.6361E-08  0.3233E-08  0.3167E-08  0.6462E-08  0.6361E-08  0.3233E-08  0.3167E-08
    -36.157  0.1719E+01  0.1764E+01  0.8633E-08  0.8882E-08  0.8633E-08  0.8882E-08  0.8633E-08  0.8882E-08  0.2740E-08  0.2783E-08  0.2740E-08  0.2783E-08  0.1385E-08  0.1400E-08  0.2740E-08  0.2783E-08  0.1385E-08  0.1400E-08
    -36.013  0.1315E+00  0.1363E+00  0.6581E-09  0.6839E-09  0.6581E-09  0.6839E-09  0.6581E-09  0.6839E-09  0.2096E-09  0.2150E-09  0.2096E-09  0.2150E-09  0.1063E-09  0.1086E-09  0.2096E-09  0.2150E-09  0.1063E-09  0.1086E-09
    -35.868  0.0000E+00  0.0000E+00  0.0000E+00  0.0000E+00  0.0000E+00  0.0000E+00  0.0000E+00  0.0000E+00  0.0000E+00  0.0000E+00  0.0000E+00  0.0000E+00  0.0000E+00  0.0000E+00  0.0000E+00  0.0000E+00  0.0000E+00  0.0000E+00
    -35.724  0.0000E+00  0.0000E+00  0.0000E+00  0.0000E+00  0.0000E+00  0.0000E+00  0.0000E+00  0.0000E+00  0.0000E+00  0.0000E+00  0.0000E+00  0.0000E+00  0.0000E+00  0.0000E+00  0.0000E+00  0.0000E+00  0.0000E+00  0.0000E+00
    -35.579  0.0000E+00  0.0000E+00  0.0000E+00  0.0000E+00  0.0000E+00  0.0000E+00  0.0000E+00  0.0000E+00  0.0000E+00  0.0000E+00  0.0000E+00  0.0000E+00  0.0000E+00  0.0000E+00  0.0000E+00  0.0000E+00  0.0000E+00  0.0000E+00
    -35.435  0.0000E+00  0.0000E+00  0.0000E+00  0.0000E+00  0.0000E+00  0.0000E+00  0.0000E+00  0.0000E+00  0.0000E+00  0.0000E+00  0.0000E+00  0.0000E+00  0.0000E+00  0.0000E+00  0.0000E+00  0.0000E+00  0.0000E+00  0.0000E+00
    -35.290  0.0000E+00  0.0000E+00  0.0000E+00  0.0000E+00  0.0000E+00  0.0000E+00  0.0000E+00  0.0000E+00  0.0000E+00  0.0000E+00  0.0000E+00  0.0000E+00  0.0000E+00  0.0000E+00  0.0000E+00  0.0000E+00  0.0000E+00  0.0000E+00
    -35.146  0.0000E+00  0.0000E+00  0.0000E+00  0.0000E+00  0.0000E+00  0.0000E+00  0.0000E+00  0.0000E+00  0.0000E+00  0.0000E+00  0.0000E+00  0.0000E+00  0.0000E+00  0.0000E+00  0.0000E+00  0.0000E+00  0.0000E+00  0.0000E+00
    -35.001  0.0000E+00  0.0000E+00  0.0000E+00  0.0000E+00  0.0000E+00  0.0000E+00  0.0000E+00  0.0000E+00  0.0000E+00  0.0000E+00  0.0000E+00  0.0000E+00  0.0000E+00  0.0000E+00  0.0000E+00  0.0000E+00  0.0000E+00  0.0000E+00
    -34.857  0.0000E+00  0.0000E+00  0.0000E+00  0.0000E+00  0.0000E+00  0.0000E+00  0.0000E+00  0.0000E+00  0.0000E+00  0.0000E+00  0.0000E+00  0.0000E+00  0.0000E+00  0.0000E+00  0.0000E+00  0.0000E+00  0.0000E+00  0.0000E+00
    -34.712  0.0000E+00  0.0000E+00  0.0000E+00  0.0000E+00  0.0000E+00  0.0000E+00  0.0000E+00  0.0000E+00  0.0000E+00  0.0000E+00  0.0000E+00  0.0000E+00  0.0000E+00  0.0000E+00  0.0000E+00  0.0000E+00  0.0000E+00  0.0000E+00
    -34.568  0.0000E+00  0.0000E+00  0.0000E+00  0.0000E+00  0.0000E+00  0.0000E+00  0.0000E+00  0.0000E+00  0.0000E+00  0.0000E+00  0.0000E+00  0.0000E+00  0.0000E+00  0.0000E+00  0.0000E+00  0.0000E+00  0.0000E+00  0.0000E+00
    -34.424  0.0000E+00  0.0000E+00  0.0000E+00  0.0000E+00  0.0000E+00  0.0000E+00  0.0000E+00  0.0000E+00  0.0000E+00  0.0000E+00  0.0000E+00  0.0000E+00  0.0000E+00  0.0000E+00  0.0000E+00  0.0000E+00  0.0000E+00  0.0000E+00
    -34.279  0.0000E+00  0.0000E+00  0.0000E+00  0.0000E+00  0.0000E+00  0.0000E+00  0.0000E+00  0.0000E+00  0.0000E+00  0.0000E+00  0.0000E+00  0.0000E+00  0.0000E+00  0.0000E+00  0.0000E+00  0.0000E+00  0.0000E+00  0.0000E+00
    -34.135  0.0000E+00  0.0000E+00  0.0000E+00  0.0000E+00  0.0000E+00  0.0000E+00  0.0000E+00  0.0000E+00  0.0000E+00  0.0000E+00  0.0000E+00  0.0000E+00  0.0000E+00  0.0000E+00  0.0000E+00  0.0000E+00  0.0000E+00  0.0000E+00
    -33.990  0.0000E+00  0.0000E+00  0.0000E+00  0.0000E+00  0.0000E+00  0.0000E+00  0.0000E+00  0.0000E+00  0.0000E+00  0.0000E+00  0.0000E+00  0.0000E+00  0.0000E+00  0.0000E+00  0.0000E+00  0.0000E+00  0.0000E+00  0.0000E+00
    -33.846  0.0000E+00  0.0000E+00  0.0000E+00  0.0000E+00  0.0000E+00  0.0000E+00  0.0000E+00  0.0000E+00  0.0000E+00  0.0000E+00  0.0000E+00  0.0000E+00  0.0000E+00  0.0000E+00  0.0000E+00  0.0000E+00  0.0000E+00  0.0000E+00
    -33.701  0.0000E+00  0.0000E+00  0.0000E+00  0.0000E+00  0.0000E+00  0.0000E+00  0.0000E+00  0.0000E+00  0.0000E+00  0.0000E+00  0.0000E+00  0.0000E+00  0.0000E+00  0.0000E+00  0.0000E+00  0.0000E+00  0.0000E+00  0.0000E+00
    -33.557  0.0000E+00  0.0000E+00  0.0000E+00  0.0000E+00  0.0000E+00  0.0000E+00  0.0000E+00  0.0000E+00  0.0000E+00  0.0000E+00  0.0000E+00  0.0000E+00  0.0000E+00  0.0000E+00  0.0000E+00  0.0000E+00  0.0000E+00  0.0000E+00
    -33.412  0.0000E+00  0.0000E+00  0.0000E+00  0.0000E+00  0.0000E+00  0.0000E+00  0.0000E+00  0.0000E+00  0.0000E+00  0.0000E+00  0.0000E+00  0.0000E+00  0.0000E+00  0.0000E+00  0.0000E+00  0.0000E+00  0.0000E+00  0.0000E+00
    -33.268  0.0000E+00  0.0000E+00  0.0000E+00  0.0000E+00  0.0000E+00  0.0000E+00  0.0000E+00  0.0000E+00  0.0000E+00  0.0000E+00  0.0000E+00  0.0000E+00  0.0000E+00  0.0000E+00  0.0000E+00  0.0000E+00  0.0000E+00  0.0000E+00
    -33.123  0.0000E+00  0.0000E+00  0.0000E+00  0.0000E+00  0.0000E+00  0.0000E+00  0.0000E+00  0.0000E+00  0.0000E+00  0.0000E+00  0.0000E+00  0.0000E+00  0.0000E+00  0.0000E+00  0.0000E+00  0.0000E+00  0.0000E+00  0.0000E+00
    -32.979  0.0000E+00  0.0000E+00  0.0000E+00  0.0000E+00  0.0000E+00  0.0000E+00  0.0000E+00  0.0000E+00  0.0000E+00  0.0000E+00  0.0000E+00  0.0000E+00  0.0000E+00  0.0000E+00  0.0000E+00  0.0000E+00  0.0000E+00  0.0000E+00
    -32.834  0.0000E+00  0.0000E+00  0.0000E+00  0.0000E+00  0.0000E+00  0.0000E+00  0.0000E+00  0.0000E+00  0.0000E+00  0.0000E+00  0.0000E+00  0.0000E+00  0.0000E+00  0.0000E+00  0.0000E+00  0.0000E+00  0.0000E+00  0.0000E+00
    -32.690  0.0000E+00  0.0000E+00  0.0000E+00  0.0000E+00  0.0000E+00  0.0000E+00  0.0000E+00  0.0000E+00  0.0000E+00  0.0000E+00  0.0000E+00  0.0000E+00  0.0000E+00  0.0000E+00  0.0000E+00  0.0000E+00  0.0000E+00  0.0000E+00
    -32.545  0.0000E+00  0.0000E+00  0.0000E+00  0.0000E+00  0.0000E+00  0.0000E+00  0.0000E+00  0.0000E+00  0.0000E+00  0.0000E+00  0.0000E+00  0.0000E+00  0.0000E+00  0.0000E+00  0.0000E+00  0.0000E+00  0.0000E+00  0.0000E+00
    -32.401  0.0000E+00  0.0000E+00  0.0000E+00  0.0000E+00  0.0000E+00  0.0000E+00  0.0000E+00  0.0000E+00  0.0000E+00  0.0000E+00  0.0000E+00  0.0000E+00  0.0000E+00  0.0000E+00  0.0000E+00  0.0000E+00  0.0000E+00  0.0000E+00
    -32.256  0.0000E+00  0.0000E+00  0.0000E+00  0.0000E+00  0.0000E+00  0.0000E+00  0.0000E+00  0.0000E+00  0.0000E+00  0.0000E+00  0.0000E+00  0.0000E+00  0.0000E+00  0.0000E+00  0.0000E+00  0.0000E+00  0.0000E+00  0.0000E+00
    -32.112  0.0000E+00  0.0000E+00  0.0000E+00  0.0000E+00  0.0000E+00  0.0000E+00  0.0000E+00  0.0000E+00  0.0000E+00  0.0000E+00  0.0000E+00  0.0000E+00  0.0000E+00  0.0000E+00  0.0000E+00  0.0000E+00  0.0000E+00  0.0000E+00
    -31.967  0.0000E+00  0.0000E+00  0.0000E+00  0.0000E+00  0.0000E+00  0.0000E+00  0.0000E+00  0.0000E+00  0.0000E+00  0.0000E+00  0.0000E+00  0.0000E+00  0.0000E+00  0.0000E+00  0.0000E+00  0.0000E+00  0.0000E+00  0.0000E+00
    -31.823  0.0000E+00  0.0000E+00  0.0000E+00  0.0000E+00  0.0000E+00  0.0000E+00  0.0000E+00  0.0000E+00  0.0000E+00  0.0000E+00  0.0000E+00  0.0000E+00  0.0000E+00  0.0000E+00  0.0000E+00  0.0000E+00  0.0000E+00  0.0000E+00
    -31.678  0.0000E+00  0.0000E+00  0.0000E+00  0.0000E+00  0.0000E+00  0.0000E+00  0.0000E+00  0.0000E+00  0.0000E+00  0.0000E+00  0.0000E+00  0.0000E+00  0.0000E+00  0.0000E+00  0.0000E+00  0.0000E+00  0.0000E+00  0.0000E+00
    -31.534  0.0000E+00  0.0000E+00  0.0000E+00  0.0000E+00  0.0000E+00  0.0000E+00  0.0000E+00  0.0000E+00  0.0000E+00  0.0000E+00  0.0000E+00  0.0000E+00  0.0000E+00  0.0000E+00  0.0000E+00  0.0000E+00  0.0000E+00  0.0000E+00
    -31.389  0.0000E+00  0.0000E+00  0.0000E+00  0.0000E+00  0.0000E+00  0.0000E+00  0.0000E+00  0.0000E+00  0.0000E+00  0.0000E+00  0.0000E+00  0.0000E+00  0.0000E+00  0.0000E+00  0.0000E+00  0.0000E+00  0.0000E+00  0.0000E+00
    -31.245  0.0000E+00  0.0000E+00  0.0000E+00  0.0000E+00  0.0000E+00  0.0000E+00  0.0000E+00  0.0000E+00  0.0000E+00  0.0000E+00  0.0000E+00  0.0000E+00  0.0000E+00  0.0000E+00  0.0000E+00  0.0000E+00  0.0000E+00  0.0000E+00
    -31.100  0.0000E+00  0.0000E+00  0.0000E+00  0.0000E+00  0.0000E+00  0.0000E+00  0.0000E+00  0.0000E+00  0.0000E+00  0.0000E+00  0.0000E+00  0.0000E+00  0.0000E+00  0.0000E+00  0.0000E+00  0.0000E+00  0.0000E+00  0.0000E+00