   4   4   1   0
  0.4555873E+02  0.5669488E-09  0.5669488E-09  0.5669488E-09  0.5000000E-15
  1.000000000000000E-004
  CAR 
 unknown system                          
      7.20705400    -35.96043309  301      2.30243251      1.00000000
    -35.960  0.0000E+00  0.0000E+00  0.0000E+00  0.0000E+00
    -35.817  0.0000E+00  0.0000E+00  0.0000E+00  0.0000E+00
    -35.673  0.0000E+00  0.0000E+00  0.0000E+00  0.0000E+00
    -35.529  0.0000E+00  0.0000E+00  0.0000E+00  0.0000E+00
    -35.385  0.0000E+00  0.0000E+00  0.0000E+00  0.0000E+00
    -35.241  0.0000E+00  0.0000E+00  0.0000E+00  0.0000E+00
    -35.097  0.0000E+00  0.0000E+00  0.0000E+00  0.0000E+00
    -34.953  0.0000E+00  0.0000E+00  0.0000E+00  0.0000E+00
    -34.809  0.0000E+00  0.0000E+00  0.0000E+00  0.0000E+00
    -34.665  0.0000E+00  0.0000E+00  0.0000E+00  0.0000E+00
    -34.522  0.7296E-04  0.6944E-04  0.1050E-04  0.9991E-05
    -34.378  0.7301E-02  0.7237E-02  0.1061E-02  0.1051E-02
    -34.234  0.1231E+00  0.1220E+00  0.1877E-01  0.1860E-01
    -34.090  0.2013E+01  0.1996E+01  0.3084E+00  0.3058E+00
    -33.946  0.1433E+02  0.1429E+02  0.2371E+01  0.2362E+01
    -33.802  0.1028E+02  0.1033E+02  0.3849E+01  0.3848E+01
    -33.658  0.9858E+00  0.9945E+00  0.3991E+01  0.3991E+01
    -33.514  0.0000E+00  0.0000E+00  0.4000E+01  0.4000E+01
    -33.370  0.0000E+00  0.0000E+00  0.4000E+01  0.4000E+01
    -33.226  0.0000E+00  0.0000E+00  0.4000E+01  0.4000E+01
    -33.083  0.0000E+00  0.0000E+00  0.4000E+01  0.4000E+01
    -32.939  0.0000E+00  0.0000E+00  0.4000E+01  0.4000E+01
    -32.795  0.0000E+00  0.0000E+00  0.4000E+01  0.4000E+01
    -32.651  0.0000E+00  0.0000E+00  0.4000E+01  0.4000E+01
    -32.507  0.0000E+00  0.0000E+00  0.4000E+01  0.4000E+01
    -32.363  0.0000E+00  0.0000E+00  0.4000E+01  0.4000E+01
    -32.219  0.0000E+00  0.0000E+00  0.4000E+01  0.4000E+01
    -32.075  0.0000E+00  0.0000E+00  0.4000E+01  0.4000E+01
    -31.931  0.0000E+00  0.0000E+00  0.4000E+01  0.4000E+01
    -31.788  0.0000E+00  0.0000E+00  0.4000E+01  0.4000E+01
    -31.644  0.0000E+00  0.0000E+00  0.4000E+01  0.4000E+01
    -31.500  0.0000E+00  0.0000E+00  0.4000E+01  0.4000E+01
    -31.356  0.0000E+00  0.0000E+00  0.4000E+01  0.4000E+01
    -31.212  0.0000E+00  0.0000E+00  0.4000E+01  0.4000E+01
    -31.068  0.0000E+00  0.0000E+00  0.4000E+01  0.4000E+01
    -30.924  0.0000E+00  0.0000E+00  0.4000E+01  0.4000E+01
    -30.780  0.0000E+00  0.0000E+00  0.4000E+01  0.4000E+01
    -30.636  0.0000E+00  0.0000E+00  0.4000E+01  0.4000E+01
    -30.493  0.0000E+00  0.0000E+00  0.4000E+01  0.4000E+01
    -30.349  0.0000E+00  0.0000E+00  0.4000E+01  0.4000E+01
    -30.205  0.0000E+00  0.0000E+00  0.4000E+01  0.4000E+01
    -30.061  0.0000E+00  0.0000E+00  0.4000E+01  0.4000E+01
    -29.917  0.0000E+00  0.0000E+00  0.4000E+01  0.4000E+01
    -29.773  0.0000E+00  0.0000E+00  0.4000E+01  0.4000E+01
    -29.629  0.0000E+00  0.0000E+00  0.4000E+01  0.4000E+01
    -29.485  0.0000E+00  0.0000E+00  0.4000E+01  0.4000E+01
    -29.341  0.0000E+00  0.0000E+00  0.4000E+01  0.4000E+01
    -29.198  0.0000E+00  0.0000E+00  0.4000E+01  0.4000E+01
    -29.054  0.0000E+00  0.0000E+00  0.4000E+01  0.4000E+01
    -28.910  0.0000E+00  0.0000E+00  0.4000E+01  0.4000E+01
    -28.766  0.0000E+00  0.0000E+00  0.4000E+01  0.4000E+01
    -28.622  0.0000E+00  0.0000E+00  0.4000E+01  0.4000E+01
    -28.478  0.0000E+00  0.0000E+00  0.4000E+01  0.4000E+01
    -28.334  0.0000E+00  0.0000E+00  0.4000E+01  0.4000E+01
    -28.190  0.0000E+00  0.0000E+00  0.4000E+01  0.4000E+01
    -28.046  0.0000E+00  0.0000E+00  0.4000E+01  0.4000E+01
    -27.903  0.0000E+00  0.0000E+00  0.4000E+01  0.4000E+01
    -27.759  0.0000E+00  0.0000E+00  0.4000E+01  0.4000E+01
    -27.615  0.0000E+00  0.0000E+00  0.4000E+01  0.4000E+01
    -27.471  0.0000E+00  0.0000E+00  0.4000E+01  0.4000E+01
    -27.327  0.0000E+00  0.0000E+00  0.4000E+01  0.4000E+01
    -27.183  0.0000E+00  0.0000E+00  0.4000E+01  0.4000E+01
    -27.039  0.0000E+00  0.0000E+00  0.4000E+01  0.4000E+01
    -26.895  0.0000E+00  0.0000E+00  0.4000E+01  0.4000E+01
    -26.751  0.0000E+00  0.0000E+00  0.4000E+01  0.4000E+01
    -26.607  0.0000E+00  0.0000E+00  0.4000E+01  0.4000E+01
    -26.464  0.0000E+00  0.0000E+00  0.4000E+01  0.4000E+01
    -26.320  0.0000E+00  0.0000E+00  0.4000E+01  0.4000E+01
    -26.176  0.0000E+00  0.0000E+00  0.4000E+01  0.4000E+01
    -26.032  0.0000E+00  0.0000E+00  0.4000E+01  0.4000E+01
    -25.888  0.0000E+00  0.0000E+00  0.4000E+01  0.4000E+01
    -25.744  0.0000E+00  0.0000E+00  0.4000E+01  0.4000E+01
    -25.600  0.0000E+00  0.0000E+00  0.4000E+01  0.4000E+01
    -25.456  0.0000E+00  0.0000E+00  0.4000E+01  0.4000E+01
    -25.312  0.0000E+00  0.0000E+00  0.4000E+01  0.4000E+01
    -25.169  0.0000E+00  0.0000E+00  0.4000E+01  0.4000E+01
    -25.025  0.0000E+00  0.0000E+00  0.4000E+01  0.4000E+01
    -24.881  0.0000E+00  0.0000E+00  0.4000E+01  0.4000E+01
    -24.737  0.0000E+00  0.0000E+00  0.4000E+01  0.4000E+01
    -24.593  0.0000E+00  0.0000E+00  0.4000E+01  0.4000E+01
    -24.449  0.0000E+00  0.0000E+00  0.4000E+01  0.4000E+01
    -24.305  0.0000E+00  0.0000E+00  0.4000E+01  0.4000E+01
    -24.161  0.0000E+00  0.0000E+00  0.4000E+01  0.4000E+01
    -24.017  0.0000E+00  0.0000E+00  0.4000E+01  0.4000E+01
    -23.874  0.0000E+00  0.0000E+00  0.4000E+01  0.4000E+01
    -23.730  0.0000E+00  0.0000E+00  0.4000E+01  0.4000E+01
    -23.586  0.0000E+00  0.0000E+00  0.4000E+01  0.4000E+01
    -23.442  0.0000E+00  0.0000E+00  0.4000E+01  0.4000E+01
    -23.298  0.0000E+00  0.0000E+00  0.4000E+01  0.4000E+01
    -23.154  0.0000E+00  0.0000E+00  0.4000E+01  0.4000E+01
    -23.010  0.0000E+00  0.0000E+00  0.4000E+01  0.4000E+01
    -22.866  0.0000E+00  0.0000E+00  0.4000E+01  0.4000E+01
    -22.722  0.0000E+00  0.0000E+00  0.4000E+01  0.4000E+01
    -22.579  0.0000E+00  0.0000E+00  0.4000E+01  0.4000E+01
    -22.435  0.0000E+00  0.0000E+00  0.4000E+01  0.4000E+01
    -22.291  0.0000E+00  0.0000E+00  0.4000E+01  0.4000E+01
    -22.147  0.0000E+00  0.0000E+00  0.4000E+01  0.4000E+01
    -22.003  0.0000E+00  0.0000E+00  0.4000E+01  0.4000E+01
    -21.859  0.0000E+00  0.0000E+00  0.4000E+01  0.4000E+01
    -21.715  0.0000E+00  0.0000E+00  0.4000E+01  0.4000E+01
    -21.571  0.0000E+00  0.0000E+00  0.4000E+01  0.4000E+01
    -21.427  0.0000E+00  0.0000E+00  0.4000E+01  0.4000E+01
    -21.283  0.0000E+00  0.0000E+00  0.4000E+01  0.4000E+01
    -21.140  0.0000E+00  0.0000E+00  0.4000E+01  0.4000E+01
    -20.996  0.0000E+00  0.0000E+00  0.4000E+01  0.4000E+01
    -20.852  0.0000E+00  0.0000E+00  0.4000E+01  0.4000E+01
    -20.708  0.0000E+00  0.0000E+00  0.4000E+01  0.4000E+01
    -20.564  0.0000E+00  0.0000E+00  0.4000E+01  0.4000E+01
    -20.420  0.0000E+00  0.0000E+00  0.4000E+01  0.4000E+01
    -20.276  0.0000E+00  0.0000E+00  0.4000E+01  0.4000E+01
    -20.132  0.0000E+00  0.0000E+00  0.4000E+01  0.4000E+01
    -19.988  0.0000E+00  0.0000E+00  0.4000E+01  0.4000E+01
    -19.845  0.0000E+00  0.0000E+00  0.4000E+01  0.4000E+01
    -19.701  0.0000E+00  0.0000E+00  0.4000E+01  0.4000E+01
    -19.557  0.0000E+00  0.0000E+00  0.4000E+01  0.4000E+01
    -19.413  0.0000E+00  0.0000E+00  0.4000E+01  0.4000E+01
    -19.269  0.0000E+00  0.0000E+00  0.4000E+01  0.4000E+01
    -19.125  0.0000E+00  0.0000E+00  0.4000E+01  0.4000E+01
    -18.981  0.0000E+00  0.0000E+00  0.4000E+01  0.4000E+01
    -18.837  0.0000E+00  0.0000E+00  0.4000E+01  0.4000E+01
    -18.693  0.0000E+00  0.0000E+00  0.4000E+01  0.4000E+01
    -18.550  0.0000E+00  0.0000E+00  0.4000E+01  0.4000E+01
    -18.406  0.0000E+00  0.0000E+00  0.4000E+01  0.4000E+01
    -18.262  0.0000E+00  0.0000E+00  0.4000E+01  0.4000E+01
    -18.118  0.0000E+00  0.0000E+00  0.4000E+01  0.4000E+01
    -17.974  0.0000E+00  0.0000E+00  0.4000E+01  0.4000E+01
    -17.830  0.0000E+00  0.0000E+00  0.4000E+01  0.4000E+01
    -17.686  0.0000E+00  0.0000E+00  0.4000E+01  0.4000E+01
    -17.542  0.0000E+00  0.0000E+00  0.4000E+01  0.4000E+01
    -17.398  0.0000E+00  0.0000E+00  0.4000E+01  0.4000E+01
    -17.255  0.0000E+00  0.0000E+00  0.4000E+01  0.4000E+01
    -17.111  0.0000E+00  0.0000E+00  0.4000E+01  0.4000E+01
    -16.967  0.0000E+00  0.0000E+00  0.4000E+01  0.4000E+01
    -16.823  0.0000E+00  0.0000E+00  0.4000E+01  0.4000E+01
    -16.679  0.3300E-03  0.3080E-03  0.4000E+01  0.4000E+01
    -16.535  0.8700E-02  0.8543E-02  0.4001E+01  0.4001E+01
    -16.391  0.1550E+00  0.1520E+00  0.4024E+01  0.4023E+01
    -16.247  0.2408E+01  0.2367E+01  0.4370E+01  0.4364E+01
    -16.103  0.1549E+02  0.1537E+02  0.6599E+01  0.6576E+01
    -15.959  0.2872E+02  0.2864E+02  0.1073E+02  0.1070E+02
    -15.816  0.2957E+02  0.2970E+02  0.1499E+02  0.1497E+02
    -15.672  0.6509E+01  0.6616E+01  0.1593E+02  0.1593E+02
    -15.528  0.3800E+00  0.3899E+00  0.1600E+02  0.1600E+02
    -15.384  0.0000E+00  0.0000E+00  0.1600E+02  0.1600E+02
    -15.240  0.0000E+00  0.0000E+00  0.1600E+02  0.1600E+02
    -15.096  0.0000E+00  0.0000E+00  0.1600E+02  0.1600E+02
    -14.952  0.0000E+00  0.0000E+00  0.1600E+02  0.1600E+02
    -14.808  0.0000E+00  0.0000E+00  0.1600E+02  0.1600E+02
    -14.664  0.0000E+00  0.0000E+00  0.1600E+02  0.1600E+02
    -14.521  0.0000E+00  0.0000E+00  0.1600E+02  0.1600E+02
    -14.377  0.0000E+00  0.0000E+00  0.1600E+02  0.1600E+02
    -14.233  0.0000E+00  0.0000E+00  0.1600E+02  0.1600E+02
    -14.089  0.0000E+00  0.0000E+00  0.1600E+02  0.1600E+02
    -13.945  0.0000E+00  0.0000E+00  0.1600E+02  0.1600E+02
    -13.801  0.0000E+00  0.0000E+00  0.1600E+02  0.1600E+02
    -13.657  0.0000E+00  0.0000E+00  0.1600E+02  0.1600E+02
    -13.513  0.0000E+00  0.0000E+00  0.1600E+02  0.1600E+02
    -13.369  0.0000E+00  0.0000E+00  0.1600E+02  0.1600E+02
    -13.226  0.0000E+00  0.0000E+00  0.1600E+02  0.1600E+02
    -13.082  0.0000E+00  0.0000E+00  0.1600E+02  0.1600E+02
    -12.938  0.0000E+00  0.0000E+00  0.1600E+02  0.1600E+02
    -12.794  0.0000E+00  0.0000E+00  0.1600E+02  0.1600E+02
    -12.650  0.0000E+00  0.0000E+00  0.1600E+02  0.1600E+02
    -12.506  0.0000E+00  0.0000E+00  0.1600E+02  0.1600E+02
    -12.362  0.0000E+00  0.0000E+00  0.1600E+02  0.1600E+02
    -12.218  0.0000E+00  0.0000E+00  0.1600E+02  0.1600E+02
    -12.074  0.0000E+00  0.0000E+00  0.1600E+02  0.1600E+02
    -11.931  0.0000E+00  0.0000E+00  0.1600E+02  0.1600E+02
    -11.787  0.0000E+00  0.0000E+00  0.1600E+02  0.1600E+02
    -11.643  0.0000E+00  0.0000E+00  0.1600E+02  0.1600E+02
    -11.499  0.0000E+00  0.0000E+00  0.1600E+02  0.1600E+02
    -11.355  0.0000E+00  0.0000E+00  0.1600E+02  0.1600E+02
    -11.211  0.0000E+00  0.0000E+00  0.1600E+02  0.1600E+02
    -11.067  0.0000E+00  0.0000E+00  0.1600E+02  0.1600E+02
    -10.923  0.0000E+00  0.0000E+00  0.1600E+02  0.1600E+02
    -10.779  0.0000E+00  0.0000E+00  0.1600E+02  0.1600E+02
    -10.636  0.0000E+00  0.0000E+00  0.1600E+02  0.1600E+02
    -10.492  0.0000E+00  0.0000E+00  0.1600E+02  0.1600E+02
    -10.348  0.0000E+00  0.0000E+00  0.1600E+02  0.1600E+02
    -10.204  0.0000E+00  0.0000E+00  0.1600E+02  0.1600E+02
    -10.060  0.0000E+00  0.0000E+00  0.1600E+02  0.1600E+02
     -9.916  0.0000E+00  0.0000E+00  0.1600E+02  0.1600E+02
     -9.772  0.0000E+00  0.0000E+00  0.1600E+02  0.1600E+02
     -9.628  0.0000E+00  0.0000E+00  0.1600E+02  0.1600E+02
     -9.484  0.0000E+00  0.0000E+00  0.1600E+02  0.1600E+02
     -9.340  0.0000E+00  0.0000E+00  0.1600E+02  0.1600E+02
     -9.197  0.0000E+00  0.0000E+00  0.1600E+02  0.1600E+02
     -9.053  0.0000E+00  0.0000E+00  0.1600E+02  0.1600E+02
     -8.909  0.0000E+00  0.0000E+00  0.1600E+02  0.1600E+02
     -8.765  0.0000E+00  0.0000E+00  0.1600E+02  0.1600E+02
     -8.621  0.0000E+00  0.0000E+00  0.1600E+02  0.1600E+02
     -8.477  0.0000E+00  0.0000E+00  0.1600E+02  0.1600E+02
     -8.333  0.0000E+00  0.0000E+00  0.1600E+02  0.1600E+02
     -8.189  0.0000E+00  0.0000E+00  0.1600E+02  0.1600E+02
     -8.045  0.0000E+00  0.0000E+00  0.1600E+02  0.1600E+02
     -7.902  0.0000E+00  0.0000E+00  0.1600E+02  0.1600E+02
     -7.758  0.0000E+00  0.0000E+00  0.1600E+02  0.1600E+02
     -7.614  0.0000E+00  0.0000E+00  0.1600E+02  0.1600E+02
     -7.470  0.0000E+00  0.0000E+00  0.1600E+02  0.1600E+02
     -7.326  0.0000E+00  0.0000E+00  0.1600E+02  0.1600E+02
     -7.182  0.0000E+00  0.0000E+00  0.1600E+02  0.1600E+02
     -7.038  0.0000E+00  0.0000E+00  0.1600E+02  0.1600E+02
     -6.894  0.0000E+00  0.0000E+00  0.1600E+02  0.1600E+02
     -6.750  0.0000E+00  0.0000E+00  0.1600E+02  0.1600E+02
     -6.607  0.0000E+00  0.0000E+00  0.1600E+02  0.1600E+02
     -6.463  0.0000E+00  0.0000E+00  0.1600E+02  0.1600E+02
     -6.319  0.0000E+00  0.0000E+00  0.1600E+02  0.1600E+02
     -6.175  0.0000E+00  0.0000E+00  0.1600E+02  0.1600E+02
     -6.031  0.0000E+00  0.0000E+00  0.1600E+02  0.1600E+02
     -5.887  0.0000E+00  0.0000E+00  0.1600E+02  0.1600E+02
     -5.743  0.0000E+00  0.0000E+00  0.1600E+02  0.1600E+02
     -5.599  0.0000E+00  0.0000E+00  0.1600E+02  0.1600E+02
     -5.455  0.0000E+00  0.0000E+00  0.1600E+02  0.1600E+02
     -5.312  0.0000E+00  0.0000E+00  0.1600E+02  0.1600E+02
     -5.168  0.0000E+00  0.0000E+00  0.1600E+02  0.1600E+02
     -5.024  0.0000E+00  0.0000E+00  0.1600E+02  0.1600E+02
     -4.880  0.0000E+00  0.0000E+00  0.1600E+02  0.1600E+02
     -4.736  0.0000E+00  0.0000E+00  0.1600E+02  0.1600E+02
     -4.592  0.0000E+00  0.0000E+00  0.1600E+02  0.1600E+02
     -4.448  0.0000E+00  0.0000E+00  0.1600E+02  0.1600E+02
     -4.304  0.0000E+00  0.0000E+00  0.1600E+02  0.1600E+02
     -4.160  0.0000E+00  0.0000E+00  0.1600E+02  0.1600E+02
     -4.016  0.0000E+00  0.0000E+00  0.1600E+02  0.1600E+02
     -3.873  0.0000E+00  0.0000E+00  0.1600E+02  0.1600E+02
     -3.729  0.0000E+00  0.0000E+00  0.1600E+02  0.1600E+02
     -3.585  0.0000E+00  0.0000E+00  0.1600E+02  0.1600E+02
     -3.441  0.0000E+00  0.0000E+00  0.1600E+02  0.1600E+02
     -3.297  0.0000E+00  0.0000E+00  0.1600E+02  0.1600E+02
     -3.153  0.0000E+00  0.0000E+00  0.1600E+02  0.1600E+02
     -3.009  0.0000E+00  0.0000E+00  0.1600E+02  0.1600E+02
     -2.865  0.0000E+00  0.0000E+00  0.1600E+02  0.1600E+02
     -2.721  0.0000E+00  0.0000E+00  0.1600E+02  0.1600E+02
     -2.578  0.0000E+00  0.0000E+00  0.1600E+02  0.1600E+02
     -2.434  0.0000E+00  0.0000E+00  0.1600E+02  0.1600E+02
     -2.290  0.0000E+00  0.0000E+00  0.1600E+02  0.1600E+02
     -2.146  0.1231E-06  0.1276E-06  0.1600E+02  0.1600E+02
     -2.002  0.1607E-04  0.1665E-04  0.1600E+02  0.1600E+02
     -1.858  0.3013E-03  0.3122E-03  0.1600E+02  0.1600E+02
     -1.714  0.4993E-02  0.5162E-02  0.1600E+02  0.1600E+02
     -1.570  0.4638E-01  0.4732E-01  0.1601E+02  0.1601E+02
     -1.426  0.1358E+00  0.1368E+00  0.1603E+02  0.1603E+02
     -1.283  0.2050E+00  0.2058E+00  0.1606E+02  0.1606E+02
     -1.139  0.2662E+00  0.2667E+00  0.1609E+02  0.1610E+02
     -0.995  0.3091E+00  0.3100E+00  0.1614E+02  0.1614E+02
     -0.851  0.3739E+00  0.3741E+00  0.1619E+02  0.1619E+02
     -0.707  0.3931E+00  0.3943E+00  0.1625E+02  0.1625E+02
     -0.563  0.4799E+00  0.4800E+00  0.1632E+02  0.1632E+02
     -0.419  0.4895E+00  0.4904E+00  0.1639E+02  0.1639E+02
     -0.275  0.5587E+00  0.5594E+00  0.1647E+02  0.1647E+02
     -0.131  0.6347E+00  0.6351E+00  0.1656E+02  0.1656E+02
      0.012  0.6296E+00  0.6297E+00  0.1665E+02  0.1665E+02
      0.156  0.7691E+00  0.7710E+00  0.1676E+02  0.1676E+02
      0.300  0.7763E+00  0.7755E+00  0.1688E+02  0.1688E+02
      0.444  0.8685E+00  0.8705E+00  0.1700E+02  0.1700E+02
      0.588  0.9853E+00  0.9848E+00  0.1714E+02  0.1714E+02
      0.732  0.1040E+01  0.1043E+01  0.1729E+02  0.1729E+02
      0.876  0.1224E+01  0.1224E+01  0.1747E+02  0.1747E+02
      1.020  0.1366E+01  0.1369E+01  0.1767E+02  0.1767E+02
      1.164  0.1665E+01  0.1664E+01  0.1791E+02  0.1791E+02
      1.307  0.1762E+01  0.1763E+01  0.1816E+02  0.1816E+02
      1.451  0.1981E+01  0.1980E+01  0.1844E+02  0.1845E+02
      1.595  0.2054E+01  0.2052E+01  0.1874E+02  0.1874E+02
      1.739  0.1943E+01  0.1941E+01  0.1902E+02  0.1902E+02
      1.883  0.1857E+01  0.1856E+01  0.1929E+02  0.1929E+02
      2.027  0.1734E+01  0.1732E+01  0.1954E+02  0.1954E+02
      2.171  0.1737E+01  0.1736E+01  0.1979E+02  0.1979E+02
      2.315  0.1585E+01  0.1585E+01  0.2002E+02  0.2002E+02
      2.459  0.2232E+01  0.2248E+01  0.2034E+02  0.2034E+02
      2.603  0.4578E+01  0.4594E+01  0.2100E+02  0.2100E+02
      2.746  0.5112E+01  0.5107E+01  0.2173E+02  0.2174E+02
      2.890  0.4098E+01  0.4087E+01  0.2232E+02  0.2233E+02
      3.034  0.3287E+01  0.3284E+01  0.2280E+02  0.2280E+02
      3.178  0.3322E+01  0.3327E+01  0.2328E+02  0.2328E+02
      3.322  0.3891E+01  0.3894E+01  0.2384E+02  0.2384E+02
      3.466  0.4267E+01  0.4268E+01  0.2445E+02  0.2446E+02
      3.610  0.4313E+01  0.4309E+01  0.2508E+02  0.2508E+02
      3.754  0.3861E+01  0.3852E+01  0.2563E+02  0.2564E+02
      3.898  0.2912E+01  0.2900E+01  0.2605E+02  0.2605E+02
      4.041  0.2319E+01  0.2316E+01  0.2639E+02  0.2639E+02
      4.185  0.1941E+01  0.1939E+01  0.2667E+02  0.2667E+02
      4.329  0.1845E+01  0.1843E+01  0.2693E+02  0.2693E+02
      4.473  0.1573E+01  0.1563E+01  0.2716E+02  0.2716E+02
      4.617  0.1510E+01  0.1478E+01  0.2738E+02  0.2737E+02
      4.761  0.1253E+01  0.1226E+01  0.2756E+02  0.2755E+02
      4.905  0.1238E+01  0.1256E+01  0.2774E+02  0.2773E+02
      5.049  0.1269E+01  0.1263E+01  0.2792E+02  0.2791E+02
      5.193  0.4761E+00  0.5287E+00  0.2799E+02  0.2799E+02
      5.336  0.6312E-01  0.6893E-01  0.2800E+02  0.2800E+02
      5.480  0.4210E-02  0.3651E-02  0.2800E+02  0.2800E+02
      5.624  0.1599E-03  0.1299E-03  0.2800E+02  0.2800E+02
      5.768  0.0000E+00  0.0000E+00  0.2800E+02  0.2800E+02
      5.912  0.0000E+00  0.0000E+00  0.2800E+02  0.2800E+02
      6.056  0.0000E+00  0.0000E+00  0.2800E+02  0.2800E+02
      6.200  0.0000E+00  0.0000E+00  0.2800E+02  0.2800E+02
      6.344  0.0000E+00  0.0000E+00  0.2800E+02  0.2800E+02
      6.488  0.0000E+00  0.0000E+00  0.2800E+02  0.2800E+02
      6.631  0.0000E+00  0.0000E+00  0.2800E+02  0.2800E+02
      6.775  0.0000E+00  0.0000E+00  0.2800E+02  0.2800E+02
      6.919  0.0000E+00  0.0000E+00  0.2800E+02  0.2800E+02
      7.063  0.0000E+00  0.0000E+00  0.2800E+02  0.2800E+02
      7.207  0.0000E+00  0.0000E+00  0.2800E+02  0.2800E+02
      7.20705400    -35.96043309  301      2.30243251      1.00000000
    -35.960  0.0000E+00  0.0000E+00  0.0000E+00  0.0000E+00  0.0000E+00  0.0000E+00  0.0000E+00  0.0000E+00  0.0000E+00  0.0000E+00  0.0000E+00  0.0000E+00  0.0000E+00  0.0000E+00  0.0000E+00  0.0000E+00  0.0000E+00  0.0000E+00
    -35.817  0.0000E+00  0.0000E+00  0.0000E+00  0.0000E+00  0.0000E+00  0.0000E+00  0.0000E+00  0.0000E+00  0.0000E+00  0.0000E+00  0.0000E+00  0.0000E+00  0.0000E+00  0.0000E+00  0.0000E+00  0.0000E+00  0.0000E+00  0.0000E+00
    -35.673  0.0000E+00  0.0000E+00  0.0000E+00  0.0000E+00  0.0000E+00  0.0000E+00  0.0000E+00  0.0000E+00  0.0000E+00  0.0000E+00  0.0000E+00  0.0000E+00  0.0000E+00  0.0000E+00  0.0000E+00  0.0000E+00  0.0000E+00  0.0000E+00
    -35.529  0.0000E+00  0.0000E+00  0.0000E+00  0.0000E+00  0.0000E+00  0.0000E+00  0.0000E+00  0.0000E+00  0.0000E+00  0.0000E+00  0.0000E+00  0.0000E+00  0.0000E+00  0.0000E+00  0.0000E+00  0.0000E+00  0.0000E+00  0.0000E+00
    -35.385  0.0000E+00  0.0000E+00  0.0000E+00  0.0000E+00  0.0000E+00  0.0000E+00  0.0000E+00  0.0000E+00  0.0000E+00  0.0000E+00  0.0000E+00  0.0000E+00  0.0000E+00  0.0000E+00  0.0000E+00  0.0000E+00  0.0000E+00  0.0000E+00
    -35.241  0.0000E+00  0.0000E+00  0.0000E+00  0.0000E+00  0.0000E+00  0.0000E+00  0.0000E+00  0.0000E+00  0.0000E+00  0.0000E+00  0.0000E+00  0.0000E+00  0.0000E+00  0.0000E+00  0.0000E+00  0.0000E+00  0.0000E+00  0.0000E+00
    -35.097  0.0000E+00  0.0000E+00  0.0000E+00  0.0000E+00  0.0000E+00  0.0000E+00  0.0000E+00  0.0000E+00  0.0000E+00  0.0000E+00  0.0000E+00  0.0000E+00  0.0000E+00  0.0000E+00  0.0000E+00  0.0000E+00  0.0000E+00  0.0000E+00
    -34.953  0.0000E+00  0.0000E+00  0.0000E+00  0.0000E+00  0.0000E+00  0.0000E+00  0.0000E+00  0.0000E+00  0.0000E+00  0.0000E+00  0.0000E+00  0.0000E+00  0.0000E+00  0.0000E+00  0.0000E+00  0.0000E+00  0.0000E+00  0.0000E+00
    -34.809  0.0000E+00  0.0000E+00  0.0000E+00  0.0000E+00  0.0000E+00  0.0000E+00  0.0000E+00  0.0000E+00  0.0000E+00  0.0000E+00  0.0000E+00  0.0000E+00  0.0000E+00  0.0000E+00  0.0000E+00  0.0000E+00  0.0000E+00  0.0000E+00
    -34.665  0.0000E+00  0.0000E+00  0.0000E+00  0.0000E+00  0.0000E+00  0.0000E+00  0.0000E+00  0.0000E+00  0.0000E+00  0.0000E+00  0.0000E+00  0.0000E+00  0.0000E+00  0.0000E+00  0.0000E+00  0.0000E+00  0.0000E+00  0.0000E+00
    -34.522  0.1783E-04  0.1697E-04  0.1335E-10  0.1259E-10  0.1335E-10  0.1259E-10  0.1335E-10  0.1259E-10  0.8003E-12  0.7173E-12  0.8003E-12  0.7173E-12  0.1956E-12  0.1715E-12  0.8003E-12  0.7173E-12  0.1956E-12  0.1715E-12
    -34.378  0.1787E-02  0.1772E-02  0.8105E-09  0.8023E-09  0.8105E-09  0.8023E-09  0.8105E-09  0.8023E-09  0.2248E-09  0.2232E-09  0.2248E-09  0.2232E-09  0.9977E-10  0.9914E-10  0.2248E-09  0.2232E-09  0.9977E-10  0.9914E-10
    -34.234  0.3013E-01  0.2986E-01  0.1375E-07  0.1360E-07  0.1375E-07  0.1360E-07  0.1375E-07  0.1360E-07  0.3767E-08  0.3739E-08  0.3767E-08  0.3739E-08  0.1670E-08  0.1659E-08  0.3767E-08  0.3739E-08  0.1670E-08  0.1659E-08
    -34.090  0.4927E+00  0.4886E+00  0.2229E-06  0.2206E-06  0.2229E-06  0.2206E-06  0.2229E-06  0.2206E-06  0.6178E-07  0.6136E-07  0.6178E-07  0.6136E-07  0.2760E-07  0.2744E-07  0.6178E-07  0.6136E-07  0.2760E-07  0.2744E-07
    -33.946  0.3508E+01  0.3498E+01  0.1487E-05  0.1480E-05  0.1487E-05  0.1480E-05  0.1487E-05  0.1480E-05  0.4449E-06  0.4445E-06  0.4449E-06  0.4445E-06  0.2117E-06  0.2115E-06  0.4449E-06  0.4445E-06  0.2117E-06  0.2115E-06
    -33.802  0.2516E+01  0.2529E+01  0.9666E-06  0.9693E-06  0.9666E-06  0.9693E-06  0.9666E-06  0.9693E-06  0.3181E-06  0.3205E-06  0.3181E-06  0.3205E-06  0.1667E-06  0.1679E-06  0.3181E-06  0.3205E-06  0.1667E-06  0.1679E-06
    -33.658  0.2414E+00  0.2435E+00  0.8869E-07  0.8923E-07  0.8869E-07  0.8923E-07  0.8869E-07  0.8923E-07  0.3028E-07  0.3062E-07  0.3028E-07  0.3062E-07  0.1661E-07  0.1679E-07  0.3028E-07  0.3062E-07  0.1661E-07  0.1679E-07
    -33.514  0.0000E+00  0.0000E+00  0.0000E+00  0.0000E+00  0.0000E+00  0.0000E+00  0.0000E+00  0.0000E+00  0.0000E+00  0.0000E+00  0.0000E+00  0.0000E+00  0.0000E+00  0.0000E+00  0.0000E+00  0.0000E+00  0.0000E+00  0.0000E+00
    -33.370  0.0000E+00  0.0000E+00  0.0000E+00  0.0000E+00  0.0000E+00  0.0000E+00  0.0000E+00  0.0000E+00  0.0000E+00  0.0000E+00  0.0000E+00  0.0000E+00  0.0000E+00  0.0000E+00  0.0000E+00  0.0000E+00  0.0000E+00  0.0000E+00
    -33.226  0.0000E+00  0.0000E+00  0.0000E+00  0.0000E+00  0.0000E+00  0.0000E+00  0.0000E+00  0.0000E+00  0.0000E+00  0.0000E+00  0.0000E+00  0.0000E+00  0.0000E+00  0.0000E+00  0.0000E+00  0.0000E+00  0.0000E+00  0.0000E+00
    -33.083  0.0000E+00  0.0000E+00  0.0000E+00  0.0000E+00  0.0000E+00  0.0000E+00  0.0000E+00  0.0000E+00  0.0000E+00  0.0000E+00  0.0000E+00  0.0000E+00  0.0000E+00  0.0000E+00  0.0000E+00  0.0000E+00  0.0000E+00  0.0000E+00
    -32.939  0.0000E+00  0.0000E+00  0.0000E+00  0.0000E+00  0.0000E+00  0.0000E+00  0.0000E+00  0.0000E+00  0.0000E+00  0.0000E+00  0.0000E+00  0.0000E+00  0.0000E+00  0.0000E+00  0.0000E+00  0.0000E+00  0.0000E+00  0.0000E+00
    -32.795  0.0000E+00  0.0000E+00  0.0000E+00  0.0000E+00  0.0000E+00  0.0000E+00  0.0000E+00  0.0000E+00  0.0000E+00  0.0000E+00  0.0000E+00  0.0000E+00  0.0000E+00  0.0000E+00  0.0000E+00  0.0000E+00  0.0000E+00  0.0000E+00
    -32.651  0.0000E+00  0.0000E+00  0.0000E+00  0.0000E+00  0.0000E+00  0.0000E+00  0.0000E+00  0.0000E+00  0.0000E+00  0.0000E+00  0.0000E+00  0.0000E+00  0.0000E+00  0.0000E+00  0.0000E+00  0.0000E+00  0.0000E+00  0.0000E+00
    -32.507  0.0000E+00  0.0000E+00  0.0000E+00  0.0000E+00  0.0000E+00  0.0000E+00  0.0000E+00  0.0000E+00  0.0000E+00  0.0000E+00  0.0000E+00  0.0000E+00  0.0000E+00  0.0000E+00  0.0000E+00  0.0000E+00  0.0000E+00  0.0000E+00
    -32.363  0.0000E+00  0.0000E+00  0.0000E+00  0.0000E+00  0.0000E+00  0.0000E+00  0.0000E+00  0.0000E+00  0.0000E+00  0.0000E+00  0.0000E+00  0.0000E+00  0.0000E+00  0.0000E+00  0.0000E+00  0.0000E+00  0.0000E+00  0.0000E+00
    -32.219  0.0000E+00  0.0000E+00  0.0000E+00  0.0000E+00  0.0000E+00  0.0000E+00  0.0000E+00  0.0000E+00  0.0000E+00  0.0000E+00  0.0000E+00  0.0000E+00  0.0000E+00  0.0000E+00  0.0000E+00  0.0000E+00  0.0000E+00  0.0000E+00
    -32.075  0.0000E+00  0.0000E+00  0.0000E+00  0.0000E+00  0.0000E+00  0.0000E+00  0.0000E+00  0.0000E+00  0.0000E+00  0.0000E+00  0.0000E+00  0.0000E+00  0.0000E+00  0.0000E+00  0.0000E+00  0.0000E+00  0.0000E+00  0.0000E+00
    -31.931  0.0000E+00  0.0000E+00  0.0000E+00  0.0000E+00  0.0000E+00  0.0000E+00  0.0000E+00  0.0000E+00  0.0000E+00  0.0000E+00  0.0000E+00  0.0000E+00  0.0000E+00  0.0000E+00  0.0000E+00  0.0000E+00  0.0000E+00  0.0000E+00
    -31.788  0.0000E+00  0.0000E+00  0.0000E+00  0.0000E+00  0.0000E+00  0.0000E+00  0.0000E+00  0.0000E+00  0.0000E+00  0.0000E+00  0.0000E+00  0.0000E+00  0.0000E+00  0.0000E+00  0.0000E+00  0.0000E+00  0.0000E+00  0.0000E+00
    -31.644  0.0000E+00  0.0000E+00  0.0000E+00  0.0000E+00  0.0000E+00  0.0000E+00  0.0000E+00  0.0000E+00  0.0000E+00  0.0000E+00  0.0000E+00  0.0000E+00  0.0000E+00  0.0000E+00  0.0000E+00  0.0000E+00  0.0000E+00  0.0000E+00
    -31.500  0.0000E+00  0.0000E+00  0.0000E+00  0.0000E+00  0.0000E+00  0.0000E+00  0.0000E+00  0.0000E+00  0.0000E+00  0.0000E+00  0.0000E+00  0.0000E+00  0.0000E+00  0.0000E+00  0.0000E+00  0.0000E+00  0.0000E+00  0.0000E+00
    -31.356  0.0000E+00  0.0000E+00  0.0000E+00  0.0000E+00  0.0000E+00  0.0000E+00  0.0000E+00  0.0000E+00  0.0000E+00  0.0000E+00  0.0000E+00  0.0000E+00  0.0000E+00  0.0000E+00  0.0000E+00  0.0000E+00  0.0000E+00  0.0000E+00
    -31.212  0.0000E+00  0.0000E+00  0.0000E+00  0.0000E+00  0.0000E+00  0.0000E+00  0.0000E+00  0.0000E+00  0.0000E+00  0.0000E+00  0.0000E+00  0.0000E+00  0.0000E+00  0.0000E+00  0.0000E+00  0.0000E+00  0.0000E+00  0.0000E+00
    -31.068  0.0000E+00  0.0000E+00  0.0000E+00  0.0000E+00  0.0000E+00  0.0000E+00  0.0000E+00  0.0000E+00  0.0000E+00  0.0000E+00  0.0000E+00  0.0000E+00  0.0000E+00  0.0000E+00  0.0000E+00  0.0000E+00  0.0000E+00  0.0000E+00
    -30.924  0.0000E+00  0.0000E+00  0.0000E+00  0.0000E+00  0.0000E+00  0.0000E+00  0.0000E+00  0.0000E+00  0.0000E+00  0.0000E+00  0.0000E+00  0.0000E+00  0.0000E+00  0.0000E+00  0.0000E+00  0.0000E+00  0.0000E+00  0.0000E+00
    -30.780  0.0000E+00  0.0000E+00  0.0000E+00  0.0000E+00  0.0000E+00  0.0000E+00  0.0000E+00  0.0000E+00  0.0000E+00  0.0000E+00  0.0000E+00  0.0000E+00  0.0000E+00  0.0000E+00  0.0000E+00  0.0000E+00  0.0000E+00  0.0000E+00
    -30.636  0.0000E+00  0.0000E+00  0.0000E+00  0.0000E+00  0.0000E+00  0.0000E+00  0.0000E+00  0.0000E+00  0.0000E+00  0.0000E+00  0.0000E+00  0.0000E+00  0.0000E+00  0.0000E+00  0.0000E+00  0.0000E+00  0.0000E+00  0.0000E+00
    -30.493  0.0000E+00  0.0000E+00  0.0000E+00  0.0000E+00  0.0000E+00  0.0000E+00  0.0000E+00  0.0000E+00  0.0000E+00  0.0000E+00  0.0000E+00  0.0000E+00  0.0000E+00  0.0000E+00  0.0000E+00  0.0000E+00  0.0000E+00  0.0000E+00
    -30.349  0.0000E+00  0.0000E+00  0.0000E+00  0.0000E+00  0.0000E+00  0.0000E+00  0.0000E+00  0.0000E+00  0.0000E+00  0.0000E+00  0.0000E+00  0.0000E+00  0.0000E+00  0.0000E+00  0.0000E+00  0.0000E+00  0.0000E+00  0.0000E+00
    -30.205  0.0000E+00  0.0000E+00  0.0000E+00  0.0000E+00  0.0000E+00  0.0000E+00  0.0000E+00  0.0000E+00  0.0000E+00  0.0000E+00  0.0000E+00  0.0000E+00  0.0000E+00  0.0000E+00  0.0000E+00  0.0000E+00  0.0000E+00  0.0000E+00
    -30.061  0.0000E+00  0.0000E+00  0.0000E+00  0.0000E+00  0.0000E+00  0.0000E+00  0.0000E+00  0.0000E+00  0.0000E+00  0.0000E+00  0.0000E+00  0.0000E+00  0.0000E+00  0.0000E+00  0.0000E+00  0.0000E+00  0.0000E+00  0.0000E+00
    -29.917  0.0000E+00  0.0000E+00  0.0000E+00  0.0000E+00  0.0000E+00  0.0000E+00  0.0000E+00  0.0000E+00  0.0000E+00  0.0000E+00  0.0000E+00  0.0000E+00  0.0000E+00  0.0000E+00  0.0000E+00  0.0000E+00  0.0000E+00  0.0000E+00
    -29.773  0.0000E+00  0.0000E+00  0.0000E+00  0.0000E+00  0.0000E+00  0.0000E+00  0.0000E+00  0.0000E+00  0.0000E+00  0.0000E+00  0.0000E+00  0.0000E+00  0.0000E+00  0.0000E+00  0.0000E+00  0.0000E+00  0.0000E+00  0.0000E+00
    -29.629  0.0000E+00  0.0000E+00  0.0000E+00  0.0000E+00  0.0000E+00  0.0000E+00  0.0000E+00  0.0000E+00  0.0000E+00  0.0000E+00  0.0000E+00  0.0000E+00  0.0000E+00  0.0000E+00  0.0000E+00  0.0000E+00  0.0000E+00  0.0000E+00
    -29.485  0.0000E+00  0.0000E+00  0.0000E+00  0.0000E+00  0.0000E+00  0.0000E+00  0.0000E+00  0.0000E+00  0.0000E+00  0.0000E+00  0.0000E+00  0.0000E+00  0.0000E+00  0.0000E+00  0.0000E+00  0.0000E+00  0.0000E+00  0.0000E+00
    -29.341  0.0000E+00  0.0000E+00  0.0000E+00  0.0000E+00  0.0000E+00  0.0000E+00  0.0000E+00  0.0000E+00  0.0000E+00  0.0000E+00  0.0000E+00  0.0000E+00  0.0000E+00  0.0000E+00  0.0000E+00  0.0000E+00  0.0000E+00  0.0000E+00
    -29.198  0.0000E+00  0.0000E+00  0.0000E+00  0.0000E+00  0.0000E+00  0.0000E+00  0.0000E+00  0.0000E+00  0.0000E+00  0.0000E+00  0.0000E+00  0.0000E+00  0.0000E+00  0.0000E+00  0.0000E+00  0.0000E+00  0.0000E+00  0.0000E+00
    -29.054  0.0000E+00  0.0000E+00  0.0000E+00  0.0000E+00  0.0000E+00  0.0000E+00  0.0000E+00  0.0000E+00  0.0000E+00  0.0000E+00  0.0000E+00  0.0000E+00  0.0000E+00  0.0000E+00  0.0000E+00  0.0000E+00  0.0000E+00  0.0000E+00
    -28.910  0.0000E+00  0.0000E+00  0.0000E+00  0.0000E+00  0.0000E+00  0.0000E+00  0.0000E+00  0.0000E+00  0.0000E+00  0.0000E+00  0.0000E+00  0.0000E+00  0.0000E+00  0.0000E+00  0.0000E+00  0.0000E+00  0.0000E+00  0.0000E+00
    -28.766  0.0000E+00  0.0000E+00  0.0000E+00  0.0000E+00  0.0000E+00  0.0000E+00  0.0000E+00  0.0000E+00  0.0000E+00  0.0000E+00  0.0000E+00  0.0000E+00  0.0000E+00  0.0000E+00  0.0000E+00  0.0000E+00  0.0000E+00  0.0000E+00