   4   4   1   0
  0.3998670E+02  0.5428234E-09  0.5428234E-09  0.5428234E-09  0.5000000E-15
  1.000000000000000E-004
  CAR 
 unknown system                          
      7.86130469    -35.20891182  301      2.83009609      1.00000000
    -35.209  0.0000E+00  0.0000E+00  0.0000E+00  0.0000E+00
    -35.065  0.0000E+00  0.0000E+00  0.0000E+00  0.0000E+00
    -34.922  0.0000E+00  0.0000E+00  0.0000E+00  0.0000E+00
    -34.778  0.0000E+00  0.0000E+00  0.0000E+00  0.0000E+00
    -34.635  0.0000E+00  0.0000E+00  0.0000E+00  0.0000E+00
    -34.491  0.0000E+00  0.0000E+00  0.0000E+00  0.0000E+00
    -34.348  0.0000E+00  0.0000E+00  0.0000E+00  0.0000E+00
    -34.204  0.0000E+00  0.0000E+00  0.0000E+00  0.0000E+00
    -34.060  0.0000E+00  0.0000E+00  0.0000E+00  0.0000E+00
    -33.917  0.0000E+00  0.0000E+00  0.0000E+00  0.0000E+00
    -33.773  0.2763E-04  0.3084E-04  0.3967E-05  0.4427E-05
    -33.630  0.4617E-02  0.4666E-02  0.6668E-03  0.6743E-03
    -33.486  0.7711E-01  0.7797E-01  0.1174E-01  0.1187E-01
    -33.343  0.1284E+01  0.1298E+01  0.1961E+00  0.1982E+00
    -33.199  0.1151E+02  0.1157E+02  0.1849E+01  0.1860E+01
    -33.055  0.1318E+02  0.1313E+02  0.3742E+01  0.3744E+01
    -32.912  0.1689E+01  0.1672E+01  0.3984E+01  0.3985E+01
    -32.768  0.0000E+00  0.0000E+00  0.4000E+01  0.4000E+01
    -32.625  0.0000E+00  0.0000E+00  0.4000E+01  0.4000E+01
    -32.481  0.0000E+00  0.0000E+00  0.4000E+01  0.4000E+01
    -32.338  0.0000E+00  0.0000E+00  0.4000E+01  0.4000E+01
    -32.194  0.0000E+00  0.0000E+00  0.4000E+01  0.4000E+01
    -32.050  0.0000E+00  0.0000E+00  0.4000E+01  0.4000E+01
    -31.907  0.0000E+00  0.0000E+00  0.4000E+01  0.4000E+01
    -31.763  0.0000E+00  0.0000E+00  0.4000E+01  0.4000E+01
    -31.620  0.0000E+00  0.0000E+00  0.4000E+01  0.4000E+01
    -31.476  0.0000E+00  0.0000E+00  0.4000E+01  0.4000E+01
    -31.333  0.0000E+00  0.0000E+00  0.4000E+01  0.4000E+01
    -31.189  0.0000E+00  0.0000E+00  0.4000E+01  0.4000E+01
    -31.045  0.0000E+00  0.0000E+00  0.4000E+01  0.4000E+01
    -30.902  0.0000E+00  0.0000E+00  0.4000E+01  0.4000E+01
    -30.758  0.0000E+00  0.0000E+00  0.4000E+01  0.4000E+01
    -30.615  0.0000E+00  0.0000E+00  0.4000E+01  0.4000E+01
    -30.471  0.0000E+00  0.0000E+00  0.4000E+01  0.4000E+01
    -30.328  0.0000E+00  0.0000E+00  0.4000E+01  0.4000E+01
    -30.184  0.0000E+00  0.0000E+00  0.4000E+01  0.4000E+01
    -30.040  0.0000E+00  0.0000E+00  0.4000E+01  0.4000E+01
    -29.897  0.0000E+00  0.0000E+00  0.4000E+01  0.4000E+01
    -29.753  0.0000E+00  0.0000E+00  0.4000E+01  0.4000E+01
    -29.610  0.0000E+00  0.0000E+00  0.4000E+01  0.4000E+01
    -29.466  0.0000E+00  0.0000E+00  0.4000E+01  0.4000E+01
    -29.323  0.0000E+00  0.0000E+00  0.4000E+01  0.4000E+01
    -29.179  0.0000E+00  0.0000E+00  0.4000E+01  0.4000E+01
    -29.036  0.0000E+00  0.0000E+00  0.4000E+01  0.4000E+01
    -28.892  0.0000E+00  0.0000E+00  0.4000E+01  0.4000E+01
    -28.748  0.0000E+00  0.0000E+00  0.4000E+01  0.4000E+01
    -28.605  0.0000E+00  0.0000E+00  0.4000E+01  0.4000E+01
    -28.461  0.0000E+00  0.0000E+00  0.4000E+01  0.4000E+01
    -28.318  0.0000E+00  0.0000E+00  0.4000E+01  0.4000E+01
    -28.174  0.0000E+00  0.0000E+00  0.4000E+01  0.4000E+01
    -28.031  0.0000E+00  0.0000E+00  0.4000E+01  0.4000E+01
    -27.887  0.0000E+00  0.0000E+00  0.4000E+01  0.4000E+01
    -27.743  0.0000E+00  0.0000E+00  0.4000E+01  0.4000E+01
    -27.600  0.0000E+00  0.0000E+00  0.4000E+01  0.4000E+01
    -27.456  0.0000E+00  0.0000E+00  0.4000E+01  0.4000E+01
    -27.313  0.0000E+00  0.0000E+00  0.4000E+01  0.4000E+01
    -27.169  0.0000E+00  0.0000E+00  0.4000E+01  0.4000E+01
    -27.026  0.0000E+00  0.0000E+00  0.4000E+01  0.4000E+01
    -26.882  0.0000E+00  0.0000E+00  0.4000E+01  0.4000E+01
    -26.738  0.0000E+00  0.0000E+00  0.4000E+01  0.4000E+01
    -26.595  0.0000E+00  0.0000E+00  0.4000E+01  0.4000E+01
    -26.451  0.0000E+00  0.0000E+00  0.4000E+01  0.4000E+01
    -26.308  0.0000E+00  0.0000E+00  0.4000E+01  0.4000E+01
    -26.164  0.0000E+00  0.0000E+00  0.4000E+01  0.4000E+01
    -26.021  0.0000E+00  0.0000E+00  0.4000E+01  0.4000E+01
    -25.877  0.0000E+00  0.0000E+00  0.4000E+01  0.4000E+01
    -25.733  0.0000E+00  0.0000E+00  0.4000E+01  0.4000E+01
    -25.590  0.0000E+00  0.0000E+00  0.4000E+01  0.4000E+01
    -25.446  0.0000E+00  0.0000E+00  0.4000E+01  0.4000E+01
    -25.303  0.0000E+00  0.0000E+00  0.4000E+01  0.4000E+01
    -25.159  0.0000E+00  0.0000E+00  0.4000E+01  0.4000E+01
    -25.016  0.0000E+00  0.0000E+00  0.4000E+01  0.4000E+01
    -24.872  0.0000E+00  0.0000E+00  0.4000E+01  0.4000E+01
    -24.728  0.0000E+00  0.0000E+00  0.4000E+01  0.4000E+01
    -24.585  0.0000E+00  0.0000E+00  0.4000E+01  0.4000E+01
    -24.441  0.0000E+00  0.0000E+00  0.4000E+01  0.4000E+01
    -24.298  0.0000E+00  0.0000E+00  0.4000E+01  0.4000E+01
    -24.154  0.0000E+00  0.0000E+00  0.4000E+01  0.4000E+01
    -24.011  0.0000E+00  0.0000E+00  0.4000E+01  0.4000E+01
    -23.867  0.0000E+00  0.0000E+00  0.4000E+01  0.4000E+01
    -23.724  0.0000E+00  0.0000E+00  0.4000E+01  0.4000E+01
    -23.580  0.0000E+00  0.0000E+00  0.4000E+01  0.4000E+01
    -23.436  0.0000E+00  0.0000E+00  0.4000E+01  0.4000E+01
    -23.293  0.0000E+00  0.0000E+00  0.4000E+01  0.4000E+01
    -23.149  0.0000E+00  0.0000E+00  0.4000E+01  0.4000E+01
    -23.006  0.0000E+00  0.0000E+00  0.4000E+01  0.4000E+01
    -22.862  0.0000E+00  0.0000E+00  0.4000E+01  0.4000E+01
    -22.719  0.0000E+00  0.0000E+00  0.4000E+01  0.4000E+01
    -22.575  0.0000E+00  0.0000E+00  0.4000E+01  0.4000E+01
    -22.431  0.0000E+00  0.0000E+00  0.4000E+01  0.4000E+01
    -22.288  0.0000E+00  0.0000E+00  0.4000E+01  0.4000E+01
    -22.144  0.0000E+00  0.0000E+00  0.4000E+01  0.4000E+01
    -22.001  0.0000E+00  0.0000E+00  0.4000E+01  0.4000E+01
    -21.857  0.0000E+00  0.0000E+00  0.4000E+01  0.4000E+01
    -21.714  0.0000E+00  0.0000E+00  0.4000E+01  0.4000E+01
    -21.570  0.0000E+00  0.0000E+00  0.4000E+01  0.4000E+01
    -21.426  0.0000E+00  0.0000E+00  0.4000E+01  0.4000E+01
    -21.283  0.0000E+00  0.0000E+00  0.4000E+01  0.4000E+01
    -21.139  0.0000E+00  0.0000E+00  0.4000E+01  0.4000E+01
    -20.996  0.0000E+00  0.0000E+00  0.4000E+01  0.4000E+01
    -20.852  0.0000E+00  0.0000E+00  0.4000E+01  0.4000E+01
    -20.709  0.0000E+00  0.0000E+00  0.4000E+01  0.4000E+01
    -20.565  0.0000E+00  0.0000E+00  0.4000E+01  0.4000E+01
    -20.421  0.0000E+00  0.0000E+00  0.4000E+01  0.4000E+01
    -20.278  0.0000E+00  0.0000E+00  0.4000E+01  0.4000E+01
    -20.134  0.0000E+00  0.0000E+00  0.4000E+01  0.4000E+01
    -19.991  0.0000E+00  0.0000E+00  0.4000E+01  0.4000E+01
    -19.847  0.0000E+00  0.0000E+00  0.4000E+01  0.4000E+01
    -19.704  0.0000E+00  0.0000E+00  0.4000E+01  0.4000E+01
    -19.560  0.0000E+00  0.0000E+00  0.4000E+01  0.4000E+01
    -19.416  0.0000E+00  0.0000E+00  0.4000E+01  0.4000E+01
    -19.273  0.0000E+00  0.0000E+00  0.4000E+01  0.4000E+01
    -19.129  0.0000E+00  0.0000E+00  0.4000E+01  0.4000E+01
    -18.986  0.0000E+00  0.0000E+00  0.4000E+01  0.4000E+01
    -18.842  0.0000E+00  0.0000E+00  0.4000E+01  0.4000E+01
    -18.699  0.0000E+00  0.0000E+00  0.4000E+01  0.4000E+01
    -18.555  0.0000E+00  0.0000E+00  0.4000E+01  0.4000E+01
    -18.412  0.0000E+00  0.0000E+00  0.4000E+01  0.4000E+01
    -18.268  0.0000E+00  0.0000E+00  0.4000E+01  0.4000E+01
    -18.124  0.0000E+00  0.0000E+00  0.4000E+01  0.4000E+01
    -17.981  0.0000E+00  0.0000E+00  0.4000E+01  0.4000E+01
    -17.837  0.0000E+00  0.0000E+00  0.4000E+01  0.4000E+01
    -17.694  0.0000E+00  0.0000E+00  0.4000E+01  0.4000E+01
    -17.550  0.0000E+00  0.0000E+00  0.4000E+01  0.4000E+01
    -17.407  0.0000E+00  0.0000E+00  0.4000E+01  0.4000E+01
    -17.263  0.0000E+00  0.0000E+00  0.4000E+01  0.4000E+01
    -17.119  0.0000E+00  0.0000E+00  0.4000E+01  0.4000E+01
    -16.976  0.0000E+00  0.0000E+00  0.4000E+01  0.4000E+01
    -16.832  0.0000E+00  0.0000E+00  0.4000E+01  0.4000E+01
    -16.689  0.0000E+00  0.0000E+00  0.4000E+01  0.4000E+01
    -16.545  0.0000E+00  0.0000E+00  0.4000E+01  0.4000E+01
    -16.402  0.0000E+00  0.0000E+00  0.4000E+01  0.4000E+01
    -16.258  0.0000E+00  0.0000E+00  0.4000E+01  0.4000E+01
    -16.114  0.7153E-05  0.7151E-05  0.4000E+01  0.4000E+01
    -15.971  0.1469E-02  0.1468E-02  0.4000E+01  0.4000E+01
    -15.827  0.2577E-01  0.2577E-01  0.4004E+01  0.4004E+01
    -15.684  0.4383E+00  0.4382E+00  0.4067E+01  0.4067E+01
    -15.540  0.4969E+01  0.4969E+01  0.4780E+01  0.4780E+01
    -15.397  0.1504E+02  0.1504E+02  0.6940E+01  0.6940E+01
    -15.253  0.1743E+02  0.1743E+02  0.9442E+01  0.9441E+01
    -15.109  0.2650E+02  0.2650E+02  0.1325E+02  0.1325E+02
    -14.966  0.1663E+02  0.1663E+02  0.1564E+02  0.1564E+02
    -14.822  0.2313E+01  0.2313E+01  0.1598E+02  0.1598E+02
    -14.679  0.7684E-01  0.7686E-01  0.1600E+02  0.1600E+02
    -14.535  0.0000E+00  0.0000E+00  0.1600E+02  0.1600E+02
    -14.392  0.0000E+00  0.0000E+00  0.1600E+02  0.1600E+02
    -14.248  0.0000E+00  0.0000E+00  0.1600E+02  0.1600E+02
    -14.105  0.0000E+00  0.0000E+00  0.1600E+02  0.1600E+02
    -13.961  0.0000E+00  0.0000E+00  0.1600E+02  0.1600E+02
    -13.817  0.0000E+00  0.0000E+00  0.1600E+02  0.1600E+02
    -13.674  0.0000E+00  0.0000E+00  0.1600E+02  0.1600E+02
    -13.530  0.0000E+00  0.0000E+00  0.1600E+02  0.1600E+02
    -13.387  0.0000E+00  0.0000E+00  0.1600E+02  0.1600E+02
    -13.243  0.0000E+00  0.0000E+00  0.1600E+02  0.1600E+02
    -13.100  0.0000E+00  0.0000E+00  0.1600E+02  0.1600E+02
    -12.956  0.0000E+00  0.0000E+00  0.1600E+02  0.1600E+02
    -12.812  0.0000E+00  0.0000E+00  0.1600E+02  0.1600E+02
    -12.669  0.0000E+00  0.0000E+00  0.1600E+02  0.1600E+02
    -12.525  0.0000E+00  0.0000E+00  0.1600E+02  0.1600E+02
    -12.382  0.0000E+00  0.0000E+00  0.1600E+02  0.1600E+02
    -12.238  0.0000E+00  0.0000E+00  0.1600E+02  0.1600E+02
    -12.095  0.0000E+00  0.0000E+00  0.1600E+02  0.1600E+02
    -11.951  0.0000E+00  0.0000E+00  0.1600E+02  0.1600E+02
    -11.807  0.0000E+00  0.0000E+00  0.1600E+02  0.1600E+02
    -11.664  0.0000E+00  0.0000E+00  0.1600E+02  0.1600E+02
    -11.520  0.0000E+00  0.0000E+00  0.1600E+02  0.1600E+02
    -11.377  0.0000E+00  0.0000E+00  0.1600E+02  0.1600E+02
    -11.233  0.0000E+00  0.0000E+00  0.1600E+02  0.1600E+02
    -11.090  0.0000E+00  0.0000E+00  0.1600E+02  0.1600E+02
    -10.946  0.0000E+00  0.0000E+00  0.1600E+02  0.1600E+02
    -10.802  0.0000E+00  0.0000E+00  0.1600E+02  0.1600E+02
    -10.659  0.0000E+00  0.0000E+00  0.1600E+02  0.1600E+02
    -10.515  0.0000E+00  0.0000E+00  0.1600E+02  0.1600E+02
    -10.372  0.0000E+00  0.0000E+00  0.1600E+02  0.1600E+02
    -10.228  0.0000E+00  0.0000E+00  0.1600E+02  0.1600E+02
    -10.085  0.0000E+00  0.0000E+00  0.1600E+02  0.1600E+02
     -9.941  0.0000E+00  0.0000E+00  0.1600E+02  0.1600E+02
     -9.797  0.0000E+00  0.0000E+00  0.1600E+02  0.1600E+02
     -9.654  0.0000E+00  0.0000E+00  0.1600E+02  0.1600E+02
     -9.510  0.0000E+00  0.0000E+00  0.1600E+02  0.1600E+02
     -9.367  0.0000E+00  0.0000E+00  0.1600E+02  0.1600E+02
     -9.223  0.0000E+00  0.0000E+00  0.1600E+02  0.1600E+02
     -9.080  0.0000E+00  0.0000E+00  0.1600E+02  0.1600E+02
     -8.936  0.0000E+00  0.0000E+00  0.1600E+02  0.1600E+02
     -8.793  0.0000E+00  0.0000E+00  0.1600E+02  0.1600E+02
     -8.649  0.0000E+00  0.0000E+00  0.1600E+02  0.1600E+02
     -8.505  0.0000E+00  0.0000E+00  0.1600E+02  0.1600E+02
     -8.362  0.0000E+00  0.0000E+00  0.1600E+02  0.1600E+02
     -8.218  0.0000E+00  0.0000E+00  0.1600E+02  0.1600E+02
     -8.075  0.0000E+00  0.0000E+00  0.1600E+02  0.1600E+02
     -7.931  0.0000E+00  0.0000E+00  0.1600E+02  0.1600E+02
     -7.788  0.0000E+00  0.0000E+00  0.1600E+02  0.1600E+02
     -7.644  0.0000E+00  0.0000E+00  0.1600E+02  0.1600E+02
     -7.500  0.0000E+00  0.0000E+00  0.1600E+02  0.1600E+02
     -7.357  0.0000E+00  0.0000E+00  0.1600E+02  0.1600E+02
     -7.213  0.0000E+00  0.0000E+00  0.1600E+02  0.1600E+02
     -7.070  0.0000E+00  0.0000E+00  0.1600E+02  0.1600E+02
     -6.926  0.0000E+00  0.0000E+00  0.1600E+02  0.1600E+02
     -6.783  0.0000E+00  0.0000E+00  0.1600E+02  0.1600E+02
     -6.639  0.0000E+00  0.0000E+00  0.1600E+02  0.1600E+02
     -6.495  0.0000E+00  0.0000E+00  0.1600E+02  0.1600E+02
     -6.352  0.0000E+00  0.0000E+00  0.1600E+02  0.1600E+02
     -6.208  0.0000E+00  0.0000E+00  0.1600E+02  0.1600E+02
     -6.065  0.0000E+00  0.0000E+00  0.1600E+02  0.1600E+02
     -5.921  0.0000E+00  0.0000E+00  0.1600E+02  0.1600E+02
     -5.778  0.0000E+00  0.0000E+00  0.1600E+02  0.1600E+02
     -5.634  0.0000E+00  0.0000E+00  0.1600E+02  0.1600E+02
     -5.490  0.0000E+00  0.0000E+00  0.1600E+02  0.1600E+02
     -5.347  0.0000E+00  0.0000E+00  0.1600E+02  0.1600E+02
     -5.203  0.0000E+00  0.0000E+00  0.1600E+02  0.1600E+02
     -5.060  0.0000E+00  0.0000E+00  0.1600E+02  0.1600E+02
     -4.916  0.0000E+00  0.0000E+00  0.1600E+02  0.1600E+02
     -4.773  0.0000E+00  0.0000E+00  0.1600E+02  0.1600E+02
     -4.629  0.0000E+00  0.0000E+00  0.1600E+02  0.1600E+02
     -4.485  0.0000E+00  0.0000E+00  0.1600E+02  0.1600E+02
     -4.342  0.0000E+00  0.0000E+00  0.1600E+02  0.1600E+02
     -4.198  0.0000E+00  0.0000E+00  0.1600E+02  0.1600E+02
     -4.055  0.0000E+00  0.0000E+00  0.1600E+02  0.1600E+02
     -3.911  0.0000E+00  0.0000E+00  0.1600E+02  0.1600E+02
     -3.768  0.0000E+00  0.0000E+00  0.1600E+02  0.1600E+02
     -3.624  0.0000E+00  0.0000E+00  0.1600E+02  0.1600E+02
     -3.481  0.0000E+00  0.0000E+00  0.1600E+02  0.1600E+02
     -3.337  0.0000E+00  0.0000E+00  0.1600E+02  0.1600E+02
     -3.193  0.0000E+00  0.0000E+00  0.1600E+02  0.1600E+02
     -3.050  0.0000E+00  0.0000E+00  0.1600E+02  0.1600E+02
     -2.906  0.0000E+00  0.0000E+00  0.1600E+02  0.1600E+02
     -2.763  0.0000E+00  0.0000E+00  0.1600E+02  0.1600E+02
     -2.619  0.0000E+00  0.0000E+00  0.1600E+02  0.1600E+02
     -2.476  0.0000E+00  0.0000E+00  0.1600E+02  0.1600E+02
     -2.332  0.0000E+00  0.0000E+00  0.1600E+02  0.1600E+02
     -2.188  0.0000E+00  0.0000E+00  0.1600E+02  0.1600E+02
     -2.045  0.0000E+00  0.0000E+00  0.1600E+02  0.1600E+02
     -1.901  0.0000E+00  0.0000E+00  0.1600E+02  0.1600E+02
     -1.758  0.1275E-06  0.1318E-06  0.1600E+02  0.1600E+02
     -1.614  0.1383E-04  0.1431E-04  0.1600E+02  0.1600E+02
     -1.471  0.2480E-03  0.2564E-03  0.1600E+02  0.1600E+02
     -1.327  0.4076E-02  0.4205E-02  0.1600E+02  0.1600E+02
     -1.183  0.3768E-01  0.3840E-01  0.1601E+02  0.1601E+02
     -1.040  0.1092E+00  0.1101E+00  0.1602E+02  0.1602E+02
     -0.896  0.1640E+00  0.1645E+00  0.1605E+02  0.1605E+02
     -0.753  0.2195E+00  0.2201E+00  0.1608E+02  0.1608E+02
     -0.609  0.2493E+00  0.2496E+00  0.1611E+02  0.1611E+02
     -0.466  0.3023E+00  0.3033E+00  0.1616E+02  0.1616E+02
     -0.322  0.3351E+00  0.3348E+00  0.1620E+02  0.1620E+02
     -0.178  0.3650E+00  0.3664E+00  0.1626E+02  0.1626E+02
     -0.035  0.4390E+00  0.4388E+00  0.1632E+02  0.1632E+02
      0.109  0.4391E+00  0.4399E+00  0.1638E+02  0.1638E+02
      0.252  0.5077E+00  0.5076E+00  0.1646E+02  0.1646E+02
      0.396  0.5765E+00  0.5775E+00  0.1654E+02  0.1654E+02
      0.539  0.5868E+00  0.5866E+00  0.1662E+02  0.1662E+02
      0.683  0.6577E+00  0.6596E+00  0.1672E+02  0.1672E+02
      0.827  0.7817E+00  0.7812E+00  0.1683E+02  0.1683E+02
      0.970  0.7531E+00  0.7546E+00  0.1694E+02  0.1694E+02
      1.114  0.9662E+00  0.9673E+00  0.1708E+02  0.1708E+02
      1.257  0.9712E+00  0.9709E+00  0.1722E+02  0.1722E+02
      1.401  0.1246E+01  0.1249E+01  0.1740E+02  0.1740E+02
      1.544  0.1413E+01  0.1413E+01  0.1760E+02  0.1760E+02
      1.688  0.1762E+01  0.1765E+01  0.1785E+02  0.1785E+02
      1.831  0.2025E+01  0.2023E+01  0.1814E+02  0.1815E+02
      1.975  0.2050E+01  0.2050E+01  0.1844E+02  0.1844E+02
      2.119  0.2087E+01  0.2085E+01  0.1874E+02  0.1874E+02
      2.262  0.1842E+01  0.1841E+01  0.1900E+02  0.1900E+02
      2.406  0.1913E+01  0.1910E+01  0.1928E+02  0.1928E+02
      2.549  0.1739E+01  0.1739E+01  0.1953E+02  0.1953E+02
      2.693  0.1783E+01  0.1781E+01  0.1978E+02  0.1979E+02
      2.836  0.1560E+01  0.1560E+01  0.2001E+02  0.2001E+02
      2.980  0.2063E+01  0.2076E+01  0.2031E+02  0.2031E+02
      3.124  0.3771E+01  0.3781E+01  0.2085E+02  0.2085E+02
      3.267  0.4254E+01  0.4256E+01  0.2146E+02  0.2146E+02
      3.411  0.4125E+01  0.4124E+01  0.2205E+02  0.2206E+02
      3.554  0.3735E+01  0.3729E+01  0.2259E+02  0.2259E+02
      3.698  0.3085E+01  0.3080E+01  0.2303E+02  0.2304E+02
      3.841  0.3099E+01  0.3100E+01  0.2348E+02  0.2348E+02
      3.985  0.3388E+01  0.3391E+01  0.2397E+02  0.2397E+02
      4.129  0.3663E+01  0.3663E+01  0.2449E+02  0.2450E+02
      4.272  0.4000E+01  0.4000E+01  0.2507E+02  0.2507E+02
      4.416  0.3680E+01  0.3674E+01  0.2560E+02  0.2560E+02
      4.559  0.3245E+01  0.3241E+01  0.2606E+02  0.2607E+02
      4.703  0.2645E+01  0.2640E+01  0.2644E+02  0.2645E+02
      4.846  0.2109E+01  0.2108E+01  0.2675E+02  0.2675E+02
      4.990  0.1691E+01  0.1695E+01  0.2699E+02  0.2699E+02
      5.134  0.1411E+01  0.1434E+01  0.2720E+02  0.2720E+02
      5.277  0.1310E+01  0.1344E+01  0.2738E+02  0.2739E+02
      5.421  0.1113E+01  0.1119E+01  0.2754E+02  0.2756E+02
      5.564  0.1041E+01  0.1038E+01  0.2769E+02  0.2770E+02
      5.708  0.1195E+01  0.1128E+01  0.2787E+02  0.2787E+02
      5.851  0.7769E+00  0.7126E+00  0.2798E+02  0.2797E+02
      5.995  0.1418E+00  0.1903E+00  0.2800E+02  0.2800E+02
      6.138  0.8684E-02  0.1529E-01  0.2800E+02  0.2800E+02
      6.282  0.1607E-03  0.1619E-03  0.2800E+02  0.2800E+02
      6.426  0.0000E+00  0.0000E+00  0.2800E+02  0.2800E+02
      6.569  0.0000E+00  0.0000E+00  0.2800E+02  0.2800E+02
      6.713  0.0000E+00  0.0000E+00  0.2800E+02  0.2800E+02
      6.856  0.0000E+00  0.0000E+00  0.2800E+02  0.2800E+02
      7.000  0.0000E+00  0.0000E+00  0.2800E+02  0.2800E+02
      7.143  0.0000E+00  0.0000E+00  0.2800E+02  0.2800E+02
      7.287  0.0000E+00  0.0000E+00  0.2800E+02  0.2800E+02
      7.431  0.0000E+00  0.0000E+00  0.2800E+02  0.2800E+02
      7.574  0.0000E+00  0.0000E+00  0.2800E+02  0.2800E+02
      7.718  0.0000E+00  0.0000E+00  0.2800E+02  0.2800E+02
      7.861  0.0000E+00  0.0000E+00  0.2800E+02  0.2800E+02
      7.86130469    -35.20891182  301      2.83009609      1.00000000
    -35.209  0.0000E+00  0.0000E+00  0.0000E+00  0.0000E+00  0.0000E+00  0.0000E+00  0.0000E+00  0.0000E+00  0.0000E+00  0.0000E+00  0.0000E+00  0.0000E+00  0.0000E+00  0.0000E+00  0.0000E+00  0.0000E+00  0.0000E+00  0.0000E+00
    -35.065  0.0000E+00  0.0000E+00  0.0000E+00  0.0000E+00  0.0000E+00  0.0000E+00  0.0000E+00  0.0000E+00  0.0000E+00  0.0000E+00  0.0000E+00  0.0000E+00  0.0000E+00  0.0000E+00  0.0000E+00  0.0000E+00  0.0000E+00  0.0000E+00
    -34.922  0.0000E+00  0.0000E+00  0.0000E+00  0.0000E+00  0.0000E+00  0.0000E+00  0.0000E+00  0.0000E+00  0.0000E+00  0.0000E+00  0.0000E+00  0.0000E+00  0.0000E+00  0.0000E+00  0.0000E+00  0.0000E+00  0.0000E+00  0.0000E+00
    -34.778  0.0000E+00  0.0000E+00  0.0000E+00  0.0000E+00  0.0000E+00  0.0000E+00  0.0000E+00  0.0000E+00  0.0000E+00  0.0000E+00  0.0000E+00  0.0000E+00  0.0000E+00  0.0000E+00  0.0000E+00  0.0000E+00  0.0000E+00  0.0000E+00
    -34.635  0.0000E+00  0.0000E+00  0.0000E+00  0.0000E+00  0.0000E+00  0.0000E+00  0.0000E+00  0.0000E+00  0.0000E+00  0.0000E+00  0.0000E+00  0.0000E+00  0.0000E+00  0.0000E+00  0.0000E+00  0.0000E+00  0.0000E+00  0.0000E+00
    -34.491  0.0000E+00  0.0000E+00  0.0000E+00  0.0000E+00  0.0000E+00  0.0000E+00  0.0000E+00  0.0000E+00  0.0000E+00  0.0000E+00  0.0000E+00  0.0000E+00  0.0000E+00  0.0000E+00  0.0000E+00  0.0000E+00  0.0000E+00  0.0000E+00
    -34.348  0.0000E+00  0.0000E+00  0.0000E+00  0.0000E+00  0.0000E+00  0.0000E+00  0.0000E+00  0.0000E+00  0.0000E+00  0.0000E+00  0.0000E+00  0.0000E+00  0.0000E+00  0.0000E+00  0.0000E+00  0.0000E+00  0.0000E+00  0.0000E+00
    -34.204  0.0000E+00  0.0000E+00  0.0000E+00  0.0000E+00  0.0000E+00  0.0000E+00  0.0000E+00  0.0000E+00  0.0000E+00  0.0000E+00  0.0000E+00  0.0000E+00  0.0000E+00  0.0000E+00  0.0000E+00  0.0000E+00  0.0000E+00  0.0000E+00
    -34.060  0.0000E+00  0.0000E+00  0.0000E+00  0.0000E+00  0.0000E+00  0.0000E+00  0.0000E+00  0.0000E+00  0.0000E+00  0.0000E+00  0.0000E+00  0.0000E+00  0.0000E+00  0.0000E+00  0.0000E+00  0.0000E+00  0.0000E+00  0.0000E+00
    -33.917  0.0000E+00  0.0000E+00  0.0000E+00  0.0000E+00  0.0000E+00  0.0000E+00  0.0000E+00  0.0000E+00  0.0000E+00  0.0000E+00  0.0000E+00  0.0000E+00  0.0000E+00  0.0000E+00  0.0000E+00  0.0000E+00  0.0000E+00  0.0000E+00
    -33.773  0.6737E-05  0.7520E-05  0.1144E-10  0.1338E-10  0.1144E-10  0.1338E-10  0.1144E-10  0.1338E-10  0.3036E-12  0.3833E-12  0.3036E-12  0.3833E-12  0.8569E-13  0.1091E-12  0.3036E-12  0.3833E-12  0.8569E-13  0.1091E-12
    -33.630  0.1129E-02  0.1141E-02  0.1772E-08  0.1786E-08  0.1772E-08  0.1786E-08  0.1772E-08  0.1786E-08  0.4418E-09  0.4474E-09  0.4418E-09  0.4474E-09  0.1806E-09  0.1830E-09  0.4418E-09  0.4474E-09  0.1806E-09  0.1830E-09
    -33.486  0.1886E-01  0.1907E-01  0.2960E-07  0.2986E-07  0.2960E-07  0.2986E-07  0.2960E-07  0.2986E-07  0.7343E-08  0.7438E-08  0.7343E-08  0.7438E-08  0.3003E-08  0.3044E-08  0.7343E-08  0.7438E-08  0.3003E-08  0.3044E-08
    -33.343  0.3141E+00  0.3175E+00  0.4886E-06  0.4926E-06  0.4886E-06  0.4926E-06  0.4886E-06  0.4926E-06  0.1232E-06  0.1247E-06  0.1232E-06  0.1247E-06  0.5080E-07  0.5146E-07  0.1232E-06  0.1247E-06  0.5080E-07  0.5146E-07
    -33.199  0.2817E+01  0.2832E+01  0.4013E-05  0.4022E-05  0.4013E-05  0.4022E-05  0.4013E-05  0.4022E-05  0.1147E-05  0.1155E-05  0.1147E-05  0.1155E-05  0.5136E-06  0.5178E-06  0.1147E-05  0.1155E-05  0.5136E-06  0.5178E-06
    -33.055  0.3227E+01  0.3213E+01  0.3863E-05  0.3833E-05  0.3863E-05  0.3833E-05  0.3863E-05  0.3833E-05  0.1314E-05  0.1311E-05  0.1314E-05  0.1311E-05  0.6970E-06  0.6958E-06  0.1314E-05  0.1311E-05  0.6970E-06  0.6958E-06
    -32.912  0.4136E+00  0.4093E+00  0.4467E-06  0.4406E-06  0.4467E-06  0.4406E-06  0.4467E-06  0.4406E-06  0.1641E-06  0.1628E-06  0.1641E-06  0.1628E-06  0.9687E-07  0.9606E-07  0.1641E-06  0.1628E-06  0.9687E-07  0.9606E-07
    -32.768  0.0000E+00  0.0000E+00  0.0000E+00  0.0000E+00  0.0000E+00  0.0000E+00  0.0000E+00  0.0000E+00  0.0000E+00  0.0000E+00  0.0000E+00  0.0000E+00  0.0000E+00  0.0000E+00  0.0000E+00  0.0000E+00  0.0000E+00  0.0000E+00
    -32.625  0.0000E+00  0.0000E+00  0.0000E+00  0.0000E+00  0.0000E+00  0.0000E+00  0.0000E+00  0.0000E+00  0.0000E+00  0.0000E+00  0.0000E+00  0.0000E+00  0.0000E+00  0.0000E+00  0.0000E+00  0.0000E+00  0.0000E+00  0.0000E+00
    -32.481  0.0000E+00  0.0000E+00  0.0000E+00  0.0000E+00  0.0000E+00  0.0000E+00  0.0000E+00  0.0000E+00  0.0000E+00  0.0000E+00  0.0000E+00  0.0000E+00  0.0000E+00  0.0000E+00  0.0000E+00  0.0000E+00  0.0000E+00  0.0000E+00
    -32.338  0.0000E+00  0.0000E+00  0.0000E+00  0.0000E+00  0.0000E+00  0.0000E+00  0.0000E+00  0.0000E+00  0.0000E+00  0.0000E+00  0.0000E+00  0.0000E+00  0.0000E+00  0.0000E+00  0.0000E+00  0.0000E+00  0.0000E+00  0.0000E+00
    -32.194  0.0000E+00  0.0000E+00  0.0000E+00  0.0000E+00  0.0000E+00  0.0000E+00  0.0000E+00  0.0000E+00  0.0000E+00  0.0000E+00  0.0000E+00  0.0000E+00  0.0000E+00  0.0000E+00  0.0000E+00  0.0000E+00  0.0000E+00  0.0000E+00
    -32.050  0.0000E+00  0.0000E+00  0.0000E+00  0.0000E+00  0.0000E+00  0.0000E+00  0.0000E+00  0.0000E+00  0.0000E+00  0.0000E+00  0.0000E+00  0.0000E+00  0.0000E+00  0.0000E+00  0.0000E+00  0.0000E+00  0.0000E+00  0.0000E+00
    -31.907  0.0000E+00  0.0000E+00  0.0000E+00  0.0000E+00  0.0000E+00  0.0000E+00  0.0000E+00  0.0000E+00  0.0000E+00  0.0000E+00  0.0000E+00  0.0000E+00  0.0000E+00  0.0000E+00  0.0000E+00  0.0000E+00  0.0000E+00  0.0000E+00
    -31.763  0.0000E+00  0.0000E+00  0.0000E+00  0.0000E+00  0.0000E+00  0.0000E+00  0.0000E+00  0.0000E+00  0.0000E+00  0.0000E+00  0.0000E+00  0.0000E+00  0.0000E+00  0.0000E+00  0.0000E+00  0.0000E+00  0.0000E+00  0.0000E+00
    -31.620  0.0000E+00  0.0000E+00  0.0000E+00  0.0000E+00  0.0000E+00  0.0000E+00  0.0000E+00  0.0000E+00  0.0000E+00  0.0000E+00  0.0000E+00  0.0000E+00  0.0000E+00  0.0000E+00  0.0000E+00  0.0000E+00  0.0000E+00  0.0000E+00
    -31.476  0.0000E+00  0.0000E+00  0.0000E+00  0.0000E+00  0.0000E+00  0.0000E+00  0.0000E+00  0.0000E+00  0.0000E+00  0.0000E+00  0.0000E+00  0.0000E+00  0.0000E+00  0.0000E+00  0.0000E+00  0.0000E+00  0.0000E+00  0.0000E+00
    -31.333  0.0000E+00  0.0000E+00  0.0000E+00  0.0000E+00  0.0000E+00  0.0000E+00  0.0000E+00  0.0000E+00  0.0000E+00  0.0000E+00  0.0000E+00  0.0000E+00  0.0000E+00  0.0000E+00  0.0000E+00  0.0000E+00  0.0000E+00  0.0000E+00
    -31.189  0.0000E+00  0.0000E+00  0.0000E+00  0.0000E+00  0.0000E+00  0.0000E+00  0.0000E+00  0.0000E+00  0.0000E+00  0.0000E+00  0.0000E+00  0.0000E+00  0.0000E+00  0.0000E+00  0.0000E+00  0.0000E+00  0.0000E+00  0.0000E+00
    -31.045  0.0000E+00  0.0000E+00  0.0000E+00  0.0000E+00  0.0000E+00  0.0000E+00  0.0000E+00  0.0000E+00  0.0000E+00  0.0000E+00  0.0000E+00  0.0000E+00  0.0000E+00  0.0000E+00  0.0000E+00  0.0000E+00  0.0000E+00  0.0000E+00
    -30.902  0.0000E+00  0.0000E+00  0.0000E+00  0.0000E+00  0.0000E+00  0.0000E+00  0.0000E+00  0.0000E+00  0.0000E+00  0.0000E+00  0.0000E+00  0.0000E+00  0.0000E+00  0.0000E+00  0.0000E+00  0.0000E+00  0.0000E+00  0.0000E+00
    -30.758  0.0000E+00  0.0000E+00  0.0000E+00  0.0000E+00  0.0000E+00  0.0000E+00  0.0000E+00  0.0000E+00  0.0000E+00  0.0000E+00  0.0000E+00  0.0000E+00  0.0000E+00  0.0000E+00  0.0000E+00  0.0000E+00  0.0000E+00  0.0000E+00
    -30.615  0.0000E+00  0.0000E+00  0.0000E+00  0.0000E+00  0.0000E+00  0.0000E+00  0.0000E+00  0.0000E+00  0.0000E+00  0.0000E+00  0.0000E+00  0.0000E+00  0.0000E+00  0.0000E+00  0.0000E+00  0.0000E+00  0.0000E+00  0.0000E+00
    -30.471  0.0000E+00  0.0000E+00  0.0000E+00  0.0000E+00  0.0000E+00  0.0000E+00  0.0000E+00  0.0000E+00  0.0000E+00  0.0000E+00  0.0000E+00  0.0000E+00  0.0000E+00  0.0000E+00  0.0000E+00  0.0000E+00  0.0000E+00  0.0000E+00
    -30.328  0.0000E+00  0.0000E+00  0.0000E+00  0.0000E+00  0.0000E+00  0.0000E+00  0.0000E+00  0.0000E+00  0.0000E+00  0.0000E+00  0.0000E+00  0.0000E+00  0.0000E+00  0.0000E+00  0.0000E+00  0.0000E+00  0.0000E+00  0.0000E+00
    -30.184  0.0000E+00  0.0000E+00  0.0000E+00  0.0000E+00  0.0000E+00  0.0000E+00  0.0000E+00  0.0000E+00  0.0000E+00  0.0000E+00  0.0000E+00  0.0000E+00  0.0000E+00  0.0000E+00  0.0000E+00  0.0000E+00  0.0000E+00  0.0000E+00
    -30.040  0.0000E+00  0.0000E+00  0.0000E+00  0.0000E+00  0.0000E+00  0.0000E+00  0.0000E+00  0.0000E+00  0.0000E+00  0.0000E+00  0.0000E+00  0.0000E+00  0.0000E+00  0.0000E+00  0.0000E+00  0.0000E+00  0.0000E+00  0.0000E+00
    -29.897  0.0000E+00  0.0000E+00  0.0000E+00  0.0000E+00  0.0000E+00  0.0000E+00  0.0000E+00  0.0000E+00  0.0000E+00  0.0000E+00  0.0000E+00  0.0000E+00  0.0000E+00  0.0000E+00  0.0000E+00  0.0000E+00  0.0000E+00  0.0000E+00
    -29.753  0.0000E+00  0.0000E+00  0.0000E+00  0.0000E+00  0.0000E+00  0.0000E+00  0.0000E+00  0.0000E+00  0.0000E+00  0.0000E+00  0.0000E+00  0.0000E+00  0.0000E+00  0.0000E+00  0.0000E+00  0.0000E+00  0.0000E+00  0.0000E+00
    -29.610  0.0000E+00  0.0000E+00  0.0000E+00  0.0000E+00  0.0000E+00  0.0000E+00  0.0000E+00  0.0000E+00  0.0000E+00  0.0000E+00  0.0000E+00  0.0000E+00  0.0000E+00  0.0000E+00  0.0000E+00  0.0000E+00  0.0000E+00  0.0000E+00
    -29.466  0.0000E+00  0.0000E+00  0.0000E+00  0.0000E+00  0.0000E+00  0.0000E+00  0.0000E+00  0.0000E+00  0.0000E+00  0.0000E+00  0.0000E+00  0.0000E+00  0.0000E+00  0.0000E+00  0.0000E+00  0.0000E+00  0.0000E+00  0.0000E+00
    -29.323  0.0000E+00  0.0000E+00  0.0000E+00  0.0000E+00  0.0000E+00  0.0000E+00  0.0000E+00  0.0000E+00  0.0000E+00  0.0000E+00  0.0000E+00  0.0000E+00  0.0000E+00  0.0000E+00  0.0000E+00  0.0000E+00  0.0000E+00  0.0000E+00
    -29.179  0.0000E+00  0.0000E+00  0.0000E+00  0.0000E+00  0.0000E+00  0.0000E+00  0.0000E+00  0.0000E+00  0.0000E+00  0.0000E+00  0.0000E+00  0.0000E+00  0.0000E+00  0.0000E+00  0.0000E+00  0.0000E+00  0.0000E+00  0.0000E+00
    -29.036  0.0000E+00  0.0000E+00  0.0000E+00  0.0000E+00  0.0000E+00  0.0000E+00  0.0000E+00  0.0000E+00  0.0000E+00  0.0000E+00  0.0000E+00  0.0000E+00  0.0000E+00  0.0000E+00  0.0000E+00  0.0000E+00  0.0000E+00  0.0000E+00
    -28.892  0.0000E+00  0.0000E+00  0.0000E+00  0.0000E+00  0.0000E+00  0.0000E+00  0.0000E+00  0.0000E+00  0.0000E+00  0.0000E+00  0.0000E+00  0.0000E+00  0.0000E+00  0.0000E+00  0.0000E+00  0.0000E+00  0.0000E+00  0.0000E+00
    -28.748  0.0000E+00  0.0000E+00  0.0000E+00  0.0000E+00  0.0000E+00  0.0000E+00  0.0000E+00  0.0000E+00  0.0000E+00  0.0000E+00  0.0000E+00  0.0000E+00  0.0000E+00  0.0000E+00  0.0000E+00  0.0000E+00  0.0000E+00  0.0000E+00
    -28.605  0.0000E+00  0.0000E+00  0.0000E+00  0.0000E+00  0.0000E+00  0.0000E+00  0.0000E+00  0.0000E+00  0.0000E+00  0.0000E+00  0.0000E+00  0.0000E+00  0.0000E+00  0.0000E+00  0.0000E+00  0.0000E+00  0.0000E+00  0.0000E+00
    -28.461  0.0000E+00  0.0000E+00  0.0000E+00  0.0000E+00  0.0000E+00  0.0000E+00  0.0000E+00  0.0000E+00  0.0000E+00  0.0000E+00  0.0000E+00  0.0000E+00  0.0000E+00  0.0000E+00  0.0000E+00  0.0000E+00  0.0000E+00  0.0000E+00
    -28.318  0.0000E+00  0.0000E+00  0.0000E+00  0.0000E+00  0.0000E+00  0.0000E+00  0.0000E+00  0.0000E+00  0.0000E+00  0.0000E+00  0.0000E+00  0.0000E+00  0.0000E+00  0.0000E+00  0.0000E+00  0.0000E+00  0.0000E+00  0.0000E+00
    -28.174  0.0000E+00  0.0000E+00  0.0000E+00  0.0000E+00  0.0000E+00  0.0000E+00  0.0000E+00  0.0000E+00  0.0000E+00  0.0000E+00  0.0000E+00  0.0000E+00  0.0000E+00  0.0000E+00  0.0000E+00  0.0000E+00  0.0000E+00  0.0000E+00
    -28.031  0.0000E+00  0.0000E+00  0.0000E+00  0.0000E+00  0.0000E+00  0.0000E+00  0.0000E+00  0.0000E+00  0.0000E+00  0.0000E+00  0.0000E+00  0.0000E+00  0.0000E+00  0.0000E+00  0.0000E+00  0.0000E+00  0.0000E+00  0.0000E+00