   4   4   1   0
  0.1825826E+02  0.4179040E-09  0.4180435E-09  0.4180435E-09  0.5000000E-15
  1.000000000000000E-004
  CAR 
 unknown system                          
     17.41898373     -4.74655591  301      6.19360424      1.00000000
     -4.747  0.0000E+00  0.0000E+00  0.0000E+00  0.0000E+00
     -4.673  0.0000E+00  0.0000E+00  0.0000E+00  0.0000E+00
     -4.599  0.0000E+00  0.0000E+00  0.0000E+00  0.0000E+00
     -4.525  0.0000E+00  0.0000E+00  0.0000E+00  0.0000E+00
     -4.451  0.0000E+00  0.0000E+00  0.0000E+00  0.0000E+00
     -4.377  0.0000E+00  0.0000E+00  0.0000E+00  0.0000E+00
     -4.303  0.0000E+00  0.0000E+00  0.0000E+00  0.0000E+00
     -4.229  0.0000E+00  0.0000E+00  0.0000E+00  0.0000E+00
     -4.155  0.4796E-05  0.4558E-05  0.3543E-06  0.3368E-06
     -4.082  0.2697E-04  0.2564E-04  0.2347E-05  0.2231E-05
     -4.008  0.1222E-03  0.1161E-03  0.1137E-04  0.1081E-04
     -3.934  0.5379E-03  0.5116E-03  0.5112E-04  0.4861E-04
     -3.860  0.2302E-02  0.2192E-02  0.2212E-03  0.2106E-03
     -3.786  0.8982E-02  0.8594E-02  0.8848E-03  0.8456E-03
     -3.712  0.2800E-01  0.2708E-01  0.2953E-02  0.2847E-02
     -3.638  0.5920E-01  0.5810E-01  0.7327E-02  0.7139E-02
     -3.564  0.8825E-01  0.8729E-01  0.1385E-01  0.1359E-01
     -3.491  0.1198E+00  0.1187E+00  0.2270E-01  0.2236E-01
     -3.417  0.1392E+00  0.1391E+00  0.3298E-01  0.3263E-01
     -3.343  0.1425E+00  0.1420E+00  0.4351E-01  0.4312E-01
     -3.269  0.1757E+00  0.1744E+00  0.5649E-01  0.5601E-01
     -3.195  0.1961E+00  0.1960E+00  0.7099E-01  0.7049E-01
     -3.121  0.1963E+00  0.1960E+00  0.8549E-01  0.8498E-01
     -3.047  0.2115E+00  0.2111E+00  0.1011E+00  0.1006E+00
     -2.973  0.2064E+00  0.2067E+00  0.1164E+00  0.1159E+00
     -2.899  0.2295E+00  0.2277E+00  0.1333E+00  0.1327E+00
     -2.826  0.2738E+00  0.2730E+00  0.1536E+00  0.1529E+00
     -2.752  0.2779E+00  0.2780E+00  0.1741E+00  0.1734E+00
     -2.678  0.2678E+00  0.2686E+00  0.1939E+00  0.1933E+00
     -2.604  0.2348E+00  0.2356E+00  0.2113E+00  0.2107E+00
     -2.530  0.2585E+00  0.2562E+00  0.2304E+00  0.2296E+00
     -2.456  0.3368E+00  0.3349E+00  0.2553E+00  0.2544E+00
     -2.382  0.3465E+00  0.3471E+00  0.2809E+00  0.2801E+00
     -2.308  0.3414E+00  0.3411E+00  0.3061E+00  0.3053E+00
     -2.234  0.3157E+00  0.3178E+00  0.3295E+00  0.3288E+00
     -2.161  0.2804E+00  0.2797E+00  0.3502E+00  0.3494E+00
     -2.087  0.3579E+00  0.3543E+00  0.3767E+00  0.3756E+00
     -2.013  0.4285E+00  0.4277E+00  0.4083E+00  0.4073E+00
     -1.939  0.4068E+00  0.4084E+00  0.4384E+00  0.4374E+00
     -1.865  0.3771E+00  0.3774E+00  0.4663E+00  0.4654E+00
     -1.791  0.3767E+00  0.3765E+00  0.4941E+00  0.4932E+00
     -1.717  0.3998E+00  0.3983E+00  0.5237E+00  0.5226E+00
     -1.643  0.4339E+00  0.4334E+00  0.5558E+00  0.5547E+00
     -1.569  0.4173E+00  0.4188E+00  0.5866E+00  0.5857E+00
     -1.496  0.3386E+00  0.3420E+00  0.6117E+00  0.6109E+00
     -1.422  0.2684E+00  0.2692E+00  0.6315E+00  0.6308E+00
     -1.348  0.2928E+00  0.2907E+00  0.6531E+00  0.6523E+00
     -1.274  0.3754E+00  0.3726E+00  0.6809E+00  0.6799E+00
     -1.200  0.4061E+00  0.4065E+00  0.7109E+00  0.7099E+00
     -1.126  0.3901E+00  0.3901E+00  0.7398E+00  0.7388E+00
     -1.052  0.3868E+00  0.3875E+00  0.7684E+00  0.7674E+00
     -0.978  0.3616E+00  0.3616E+00  0.7951E+00  0.7942E+00
     -0.905  0.4103E+00  0.4076E+00  0.8255E+00  0.8243E+00
     -0.831  0.4780E+00  0.4770E+00  0.8608E+00  0.8596E+00
     -0.757  0.4637E+00  0.4654E+00  0.8951E+00  0.8940E+00
     -0.683  0.4139E+00  0.4153E+00  0.9257E+00  0.9247E+00
     -0.609  0.3790E+00  0.3803E+00  0.9537E+00  0.9528E+00
     -0.535  0.3749E+00  0.3735E+00  0.9814E+00  0.9804E+00
     -0.461  0.4387E+00  0.4361E+00  0.1014E+01  0.1013E+01
     -0.387  0.5249E+00  0.5220E+00  0.1053E+01  0.1051E+01
     -0.313  0.5675E+00  0.5676E+00  0.1095E+01  0.1093E+01
     -0.240  0.5234E+00  0.5259E+00  0.1133E+01  0.1132E+01
     -0.166  0.4553E+00  0.4569E+00  0.1167E+01  0.1166E+01
     -0.092  0.4657E+00  0.4635E+00  0.1201E+01  0.1200E+01
     -0.018  0.5464E+00  0.5439E+00  0.1242E+01  0.1240E+01
      0.056  0.5628E+00  0.5642E+00  0.1283E+01  0.1282E+01
      0.130  0.4773E+00  0.4808E+00  0.1319E+01  0.1318E+01
      0.204  0.4046E+00  0.4056E+00  0.1349E+01  0.1348E+01
      0.278  0.4469E+00  0.4430E+00  0.1382E+01  0.1380E+01
      0.352  0.6099E+00  0.6039E+00  0.1427E+01  0.1425E+01
      0.425  0.7185E+00  0.7179E+00  0.1480E+01  0.1478E+01
      0.499  0.6753E+00  0.6783E+00  0.1530E+01  0.1528E+01
      0.573  0.5744E+00  0.5782E+00  0.1572E+01  0.1571E+01
      0.647  0.5114E+00  0.5108E+00  0.1610E+01  0.1609E+01
      0.721  0.5928E+00  0.5899E+00  0.1654E+01  0.1652E+01
      0.795  0.5867E+00  0.5895E+00  0.1697E+01  0.1696E+01
      0.869  0.5191E+00  0.5196E+00  0.1736E+01  0.1734E+01
      0.943  0.5287E+00  0.5293E+00  0.1775E+01  0.1774E+01
      1.016  0.4709E+00  0.4733E+00  0.1810E+01  0.1809E+01
      1.090  0.4537E+00  0.4524E+00  0.1843E+01  0.1842E+01
      1.164  0.5078E+00  0.5061E+00  0.1881E+01  0.1879E+01
      1.238  0.5654E+00  0.5628E+00  0.1923E+01  0.1921E+01
      1.312  0.6370E+00  0.6364E+00  0.1970E+01  0.1968E+01
      1.386  0.5829E+00  0.5856E+00  0.2013E+01  0.2011E+01
      1.460  0.5776E+00  0.5752E+00  0.2055E+01  0.2054E+01
      1.534  0.6798E+00  0.6766E+00  0.2106E+01  0.2104E+01
      1.608  0.7127E+00  0.7140E+00  0.2158E+01  0.2157E+01
      1.681  0.6229E+00  0.6272E+00  0.2204E+01  0.2203E+01
      1.755  0.4691E+00  0.4741E+00  0.2239E+01  0.2238E+01
      1.829  0.4183E+00  0.4163E+00  0.2270E+01  0.2269E+01
      1.903  0.5561E+00  0.5505E+00  0.2311E+01  0.2310E+01
      1.977  0.6589E+00  0.6579E+00  0.2360E+01  0.2358E+01
      2.051  0.6396E+00  0.6407E+00  0.2407E+01  0.2406E+01
      2.125  0.6467E+00  0.6451E+00  0.2455E+01  0.2453E+01
      2.199  0.7164E+00  0.7146E+00  0.2508E+01  0.2506E+01
      2.273  0.7283E+00  0.7297E+00  0.2562E+01  0.2560E+01
      2.346  0.6528E+00  0.6560E+00  0.2610E+01  0.2609E+01
      2.420  0.5817E+00  0.5827E+00  0.2653E+01  0.2652E+01
      2.494  0.6052E+00  0.6036E+00  0.2698E+01  0.2696E+01
      2.568  0.6557E+00  0.6546E+00  0.2746E+01  0.2745E+01
      2.642  0.6651E+00  0.6655E+00  0.2796E+01  0.2794E+01
      2.716  0.6577E+00  0.6578E+00  0.2844E+01  0.2843E+01
      2.790  0.6898E+00  0.6879E+00  0.2895E+01  0.2893E+01
      2.864  0.7319E+00  0.7316E+00  0.2949E+01  0.2947E+01
      2.937  0.7567E+00  0.7542E+00  0.3005E+01  0.3003E+01
      3.011  0.8502E+00  0.8482E+00  0.3068E+01  0.3066E+01
      3.085  0.8250E+00  0.8278E+00  0.3129E+01  0.3127E+01
      3.159  0.7083E+00  0.7131E+00  0.3181E+01  0.3180E+01
      3.233  0.5574E+00  0.5616E+00  0.3223E+01  0.3221E+01
      3.307  0.5236E+00  0.5213E+00  0.3261E+01  0.3260E+01
      3.381  0.7089E+00  0.7012E+00  0.3314E+01  0.3312E+01
      3.455  0.8229E+00  0.8242E+00  0.3375E+01  0.3373E+01
      3.529  0.7106E+00  0.7133E+00  0.3427E+01  0.3426E+01
      3.602  0.7351E+00  0.7324E+00  0.3482E+01  0.3480E+01
      3.676  0.7952E+00  0.7955E+00  0.3540E+01  0.3538E+01
      3.750  0.7720E+00  0.7721E+00  0.3597E+01  0.3596E+01
      3.824  0.8562E+00  0.8511E+00  0.3661E+01  0.3658E+01
      3.898  0.9765E+00  0.9751E+00  0.3733E+01  0.3731E+01
      3.972  0.8949E+00  0.9006E+00  0.3799E+01  0.3797E+01
      4.046  0.7096E+00  0.7154E+00  0.3851E+01  0.3850E+01
      4.120  0.6023E+00  0.6038E+00  0.3896E+01  0.3895E+01
      4.194  0.6557E+00  0.6526E+00  0.3944E+01  0.3943E+01
      4.267  0.7305E+00  0.7295E+00  0.3998E+01  0.3997E+01
      4.341  0.7293E+00  0.7282E+00  0.4052E+01  0.4051E+01
      4.415  0.8336E+00  0.8292E+00  0.4114E+01  0.4112E+01
      4.489  0.9236E+00  0.9223E+00  0.4182E+01  0.4180E+01
      4.563  0.9506E+00  0.9502E+00  0.4253E+01  0.4250E+01
      4.637  0.8599E+00  0.8660E+00  0.4316E+01  0.4314E+01
      4.711  0.6860E+00  0.6891E+00  0.4367E+01  0.4365E+01
      4.785  0.6749E+00  0.6741E+00  0.4417E+01  0.4415E+01
      4.859  0.6802E+00  0.6805E+00  0.4467E+01  0.4466E+01
      4.932  0.6602E+00  0.6604E+00  0.4516E+01  0.4514E+01
      5.006  0.6648E+00  0.6633E+00  0.4565E+01  0.4564E+01
      5.080  0.7357E+00  0.7325E+00  0.4620E+01  0.4618E+01
      5.154  0.8565E+00  0.8531E+00  0.4683E+01  0.4681E+01
      5.228  0.9465E+00  0.9433E+00  0.4753E+01  0.4750E+01
      5.302  0.1006E+01  0.1005E+01  0.4827E+01  0.4825E+01
      5.376  0.8575E+00  0.8660E+00  0.4891E+01  0.4889E+01
      5.450  0.6358E+00  0.6397E+00  0.4938E+01  0.4936E+01
      5.523  0.6673E+00  0.6638E+00  0.4987E+01  0.4985E+01
      5.597  0.6938E+00  0.6968E+00  0.5038E+01  0.5037E+01
      5.671  0.5735E+00  0.5753E+00  0.5081E+01  0.5079E+01
      5.745  0.6386E+00  0.6318E+00  0.5128E+01  0.5126E+01
      5.819  0.8405E+00  0.8348E+00  0.5190E+01  0.5188E+01
      5.893  0.8890E+00  0.8909E+00  0.5256E+01  0.5254E+01
      5.967  0.8365E+00  0.8384E+00  0.5318E+01  0.5316E+01
      6.041  0.8339E+00  0.8342E+00  0.5379E+01  0.5377E+01
      6.115  0.8189E+00  0.8199E+00  0.5440E+01  0.5438E+01
      6.188  0.7743E+00  0.7750E+00  0.5497E+01  0.5495E+01
      6.262  0.7452E+00  0.7459E+00  0.5552E+01  0.5550E+01
      6.336  0.6738E+00  0.6744E+00  0.5602E+01  0.5600E+01
      6.410  0.7211E+00  0.7153E+00  0.5655E+01  0.5653E+01
      6.484  0.9312E+00  0.9256E+00  0.5724E+01  0.5722E+01
      6.558  0.1007E+01  0.1010E+01  0.5799E+01  0.5796E+01
      6.632  0.8728E+00  0.8798E+00  0.5863E+01  0.5861E+01
      6.706  0.6953E+00  0.6989E+00  0.5915E+01  0.5913E+01
      6.780  0.7059E+00  0.7003E+00  0.5967E+01  0.5965E+01
      6.853  0.8600E+00  0.8547E+00  0.6030E+01  0.6028E+01
      6.927  0.9009E+00  0.9005E+00  0.6097E+01  0.6095E+01
      7.001  0.9059E+00  0.9054E+00  0.6164E+01  0.6161E+01
      7.075  0.9801E+00  0.9790E+00  0.6236E+01  0.6234E+01
      7.149  0.1026E+01  0.1026E+01  0.6312E+01  0.6310E+01
      7.223  0.1051E+01  0.1048E+01  0.6390E+01  0.6387E+01
      7.297  0.1077E+01  0.1078E+01  0.6469E+01  0.6467E+01
      7.371  0.9246E+00  0.9327E+00  0.6538E+01  0.6536E+01
      7.444  0.7281E+00  0.7330E+00  0.6592E+01  0.6590E+01
      7.518  0.6778E+00  0.6762E+00  0.6642E+01  0.6640E+01
      7.592  0.7504E+00  0.7453E+00  0.6697E+01  0.6695E+01
      7.666  0.8601E+00  0.8568E+00  0.6761E+01  0.6758E+01
      7.740  0.9882E+00  0.9830E+00  0.6834E+01  0.6831E+01
      7.814  0.1110E+01  0.1109E+01  0.6916E+01  0.6913E+01
      7.888  0.1060E+01  0.1064E+01  0.6994E+01  0.6992E+01
      7.962  0.9677E+00  0.9686E+00  0.7066E+01  0.7063E+01
      8.036  0.9172E+00  0.9179E+00  0.7134E+01  0.7131E+01
      8.109  0.8955E+00  0.8941E+00  0.7200E+01  0.7197E+01
      8.183  0.1012E+01  0.1009E+01  0.7275E+01  0.7272E+01
      8.257  0.9850E+00  0.9914E+00  0.7348E+01  0.7345E+01
      8.331  0.7624E+00  0.7680E+00  0.7404E+01  0.7402E+01
      8.405  0.6923E+00  0.6912E+00  0.7455E+01  0.7453E+01
      8.479  0.8016E+00  0.7963E+00  0.7514E+01  0.7512E+01
      8.553  0.8754E+00  0.8784E+00  0.7579E+01  0.7577E+01
      8.627  0.7067E+00  0.7137E+00  0.7631E+01  0.7630E+01
      8.701  0.7003E+00  0.6952E+00  0.7683E+01  0.7681E+01
      8.774  0.9598E+00  0.9477E+00  0.7754E+01  0.7751E+01
      8.848  0.1188E+01  0.1181E+01  0.7842E+01  0.7839E+01
      8.922  0.1196E+01  0.1199E+01  0.7930E+01  0.7927E+01
      8.996  0.1006E+01  0.1014E+01  0.8005E+01  0.8002E+01
      9.070  0.8666E+00  0.8687E+00  0.8069E+01  0.8066E+01
      9.144  0.9459E+00  0.9403E+00  0.8139E+01  0.8136E+01
      9.218  0.1091E+01  0.1086E+01  0.8219E+01  0.8216E+01
      9.292  0.1067E+01  0.1069E+01  0.8298E+01  0.8295E+01
      9.366  0.9433E+00  0.9489E+00  0.8368E+01  0.8365E+01
      9.439  0.9248E+00  0.9236E+00  0.8436E+01  0.8434E+01
      9.513  0.1055E+01  0.1052E+01  0.8514E+01  0.8512E+01
      9.587  0.1083E+01  0.1083E+01  0.8595E+01  0.8592E+01
      9.661  0.1053E+01  0.1054E+01  0.8672E+01  0.8669E+01
      9.735  0.9889E+00  0.9923E+00  0.8745E+01  0.8743E+01
      9.809  0.8994E+00  0.9020E+00  0.8812E+01  0.8810E+01
      9.883  0.8373E+00  0.8389E+00  0.8874E+01  0.8872E+01
      9.957  0.8008E+00  0.7971E+00  0.8933E+01  0.8931E+01
     10.030  0.9925E+00  0.9816E+00  0.9007E+01  0.9003E+01
     10.104  0.1168E+01  0.1169E+01  0.9093E+01  0.9090E+01
     10.178  0.1037E+01  0.1045E+01  0.9170E+01  0.9167E+01
     10.252  0.9263E+00  0.9251E+00  0.9238E+01  0.9235E+01
     10.326  0.1029E+01  0.1023E+01  0.9314E+01  0.9311E+01
     10.400  0.1133E+01  0.1133E+01  0.9398E+01  0.9395E+01
     10.474  0.1165E+01  0.1165E+01  0.9484E+01  0.9481E+01
     10.548  0.1141E+01  0.1141E+01  0.9568E+01  0.9565E+01
     10.622  0.1052E+01  0.1054E+01  0.9646E+01  0.9643E+01
     10.695  0.1021E+01  0.1018E+01  0.9722E+01  0.9718E+01
     10.769  0.1128E+01  0.1121E+01  0.9805E+01  0.9801E+01
     10.843  0.1219E+01  0.1220E+01  0.9895E+01  0.9891E+01
     10.917  0.1120E+01  0.1128E+01  0.9978E+01  0.9975E+01
     10.991  0.1043E+01  0.1045E+01  0.1006E+02  0.1005E+02
     11.065  0.1035E+01  0.1036E+01  0.1013E+02  0.1013E+02
     11.139  0.1017E+01  0.1016E+01  0.1021E+02  0.1020E+02
     11.213  0.9889E+00  0.9891E+00  0.1028E+02  0.1028E+02
     11.287  0.8858E+00  0.8855E+00  0.1035E+02  0.1034E+02
     11.360  0.9299E+00  0.9205E+00  0.1041E+02  0.1041E+02
     11.434  0.1117E+01  0.1113E+01  0.1050E+02  0.1049E+02
     11.508  0.1094E+01  0.1102E+01  0.1058E+02  0.1057E+02
     11.582  0.9449E+00  0.9489E+00  0.1065E+02  0.1064E+02
     11.656  0.9179E+00  0.9184E+00  0.1072E+02  0.1071E+02
     11.730  0.9617E+00  0.9581E+00  0.1079E+02  0.1078E+02
     11.804  0.1144E+01  0.1138E+01  0.1087E+02  0.1087E+02
     11.878  0.1175E+01  0.1177E+01  0.1096E+02  0.1095E+02
     11.951  0.9636E+00  0.9729E+00  0.1103E+02  0.1103E+02
     12.025  0.7479E+00  0.7537E+00  0.1108E+02  0.1108E+02
     12.099  0.6163E+00  0.6092E+00  0.1113E+02  0.1113E+02
     12.173  0.7187E+00  0.6955E+00  0.1118E+02  0.1118E+02
     12.247  0.8601E+00  0.8654E+00  0.1125E+02  0.1124E+02
     12.321  0.6901E+00  0.7147E+00  0.1130E+02  0.1130E+02
     12.395  0.5295E+00  0.5404E+00  0.1134E+02  0.1134E+02
     12.469  0.4688E+00  0.4746E+00  0.1137E+02  0.1137E+02
     12.543  0.4279E+00  0.4333E+00  0.1140E+02  0.1140E+02
     12.616  0.4377E+00  0.4425E+00  0.1144E+02  0.1144E+02
     12.690  0.4049E+00  0.4033E+00  0.1147E+02  0.1147E+02
     12.764  0.3269E+00  0.3253E+00  0.1149E+02  0.1149E+02
     12.838  0.2883E+00  0.2852E+00  0.1151E+02  0.1151E+02
     12.912  0.3170E+00  0.3136E+00  0.1153E+02  0.1153E+02
     12.986  0.2909E+00  0.2915E+00  0.1156E+02  0.1156E+02
     13.060  0.2623E+00  0.2640E+00  0.1158E+02  0.1157E+02
     13.134  0.3486E+00  0.3463E+00  0.1160E+02  0.1160E+02
     13.208  0.3967E+00  0.4016E+00  0.1163E+02  0.1163E+02
     13.281  0.3162E+00  0.3249E+00  0.1165E+02  0.1165E+02
     13.355  0.3074E+00  0.3107E+00  0.1168E+02  0.1168E+02
     13.429  0.2818E+00  0.2787E+00  0.1170E+02  0.1170E+02
     13.503  0.2365E+00  0.2324E+00  0.1172E+02  0.1171E+02
     13.577  0.2198E+00  0.2192E+00  0.1173E+02  0.1173E+02
     13.651  0.1725E+00  0.1730E+00  0.1174E+02  0.1174E+02
     13.725  0.1861E+00  0.1838E+00  0.1176E+02  0.1176E+02
     13.799  0.2232E+00  0.2223E+00  0.1177E+02  0.1177E+02
     13.872  0.2241E+00  0.2247E+00  0.1179E+02  0.1179E+02
     13.946  0.2020E+00  0.2025E+00  0.1181E+02  0.1181E+02
     14.020  0.2370E+00  0.2348E+00  0.1182E+02  0.1182E+02
     14.094  0.2663E+00  0.2677E+00  0.1184E+02  0.1184E+02
     14.168  0.1963E+00  0.2000E+00  0.1186E+02  0.1186E+02
     14.242  0.1045E+00  0.1078E+00  0.1187E+02  0.1187E+02
     14.316  0.4497E-01  0.4651E-01  0.1187E+02  0.1187E+02
     14.390  0.4345E-01  0.4285E-01  0.1187E+02  0.1187E+02
     14.464  0.1029E+00  0.1006E+00  0.1188E+02  0.1188E+02
     14.537  0.1634E+00  0.1625E+00  0.1189E+02  0.1189E+02
     14.611  0.1405E+00  0.1409E+00  0.1190E+02  0.1190E+02
     14.685  0.1319E+00  0.1307E+00  0.1191E+02  0.1191E+02
     14.759  0.1368E+00  0.1375E+00  0.1192E+02  0.1192E+02
     14.833  0.8266E-01  0.8550E-01  0.1193E+02  0.1193E+02
     14.907  0.2870E-01  0.3017E-01  0.1193E+02  0.1193E+02
     14.981  0.1108E-01  0.1126E-01  0.1193E+02  0.1193E+02
     15.055  0.1756E-01  0.1677E-01  0.1193E+02  0.1193E+02
     15.129  0.4943E-01  0.4725E-01  0.1194E+02  0.1194E+02
     15.202  0.8974E-01  0.8788E-01  0.1194E+02  0.1194E+02
     15.276  0.9582E-01  0.9651E-01  0.1195E+02  0.1195E+02
     15.350  0.8725E-01  0.8871E-01  0.1196E+02  0.1196E+02
     15.424  0.1051E+00  0.1066E+00  0.1196E+02  0.1196E+02
     15.498  0.1003E+00  0.1014E+00  0.1197E+02  0.1197E+02
     15.572  0.7535E-01  0.7390E-01  0.1198E+02  0.1198E+02
     15.646  0.6442E-01  0.6419E-01  0.1198E+02  0.1198E+02
     15.720  0.3601E-01  0.3733E-01  0.1198E+02  0.1198E+02
     15.794  0.1285E-01  0.1345E-01  0.1199E+02  0.1199E+02
     15.867  0.9232E-02  0.9110E-02  0.1199E+02  0.1199E+02
     15.941  0.2246E-01  0.2172E-01  0.1199E+02  0.1199E+02
     16.015  0.4341E-01  0.4295E-01  0.1199E+02  0.1199E+02
     16.089  0.4236E-01  0.4295E-01  0.1199E+02  0.1199E+02
     16.163  0.2245E-01  0.2311E-01  0.1200E+02  0.1200E+02
     16.237  0.8332E-02  0.8559E-02  0.1200E+02  0.1200E+02
     16.311  0.6360E-02  0.6227E-02  0.1200E+02  0.1200E+02
     16.385  0.1316E-01  0.1282E-01  0.1200E+02  0.1200E+02
     16.458  0.1724E-01  0.1734E-01  0.1200E+02  0.1200E+02
     16.532  0.9459E-02  0.9809E-02  0.1200E+02  0.1200E+02
     16.606  0.2899E-02  0.3050E-02  0.1200E+02  0.1200E+02
     16.680  0.7141E-03  0.7543E-03  0.1200E+02  0.1200E+02
     16.754  0.1659E-03  0.1754E-03  0.1200E+02  0.1200E+02
     16.828  0.0000E+00  0.0000E+00  0.1200E+02  0.1200E+02
     16.902  0.0000E+00  0.0000E+00  0.1200E+02  0.1200E+02
     16.976  0.0000E+00  0.0000E+00  0.1200E+02  0.1200E+02
     17.050  0.0000E+00  0.0000E+00  0.1200E+02  0.1200E+02
     17.123  0.0000E+00  0.0000E+00  0.1200E+02  0.1200E+02
     17.197  0.0000E+00  0.0000E+00  0.1200E+02  0.1200E+02
     17.271  0.0000E+00  0.0000E+00  0.1200E+02  0.1200E+02
     17.345  0.0000E+00  0.0000E+00  0.1200E+02  0.1200E+02
     17.419  0.0000E+00  0.0000E+00  0.1200E+02  0.1200E+02
     17.41898373     -4.74655591  301      6.19360424      1.00000000
     -4.747  0.0000E+00  0.0000E+00  0.0000E+00  0.0000E+00  0.0000E+00  0.0000E+00  0.0000E+00  0.0000E+00  0.0000E+00  0.0000E+00  0.0000E+00  0.0000E+00  0.0000E+00  0.0000E+00  0.0000E+00  0.0000E+00  0.0000E+00  0.0000E+00
     -4.673  0.0000E+00  0.0000E+00  0.0000E+00  0.0000E+00  0.0000E+00  0.0000E+00  0.0000E+00  0.0000E+00  0.0000E+00  0.0000E+00  0.0000E+00  0.0000E+00  0.0000E+00  0.0000E+00  0.0000E+00  0.0000E+00  0.0000E+00  0.0000E+00
     -4.599  0.0000E+00  0.0000E+00  0.0000E+00  0.0000E+00  0.0000E+00  0.0000E+00  0.0000E+00  0.0000E+00  0.0000E+00  0.0000E+00  0.0000E+00  0.0000E+00  0.0000E+00  0.0000E+00  0.0000E+00  0.0000E+00  0.0000E+00  0.0000E+00
     -4.525  0.0000E+00  0.0000E+00  0.0000E+00  0.0000E+00  0.0000E+00  0.0000E+00  0.0000E+00  0.0000E+00  0.0000E+00  0.0000E+00  0.0000E+00  0.0000E+00  0.0000E+00  0.0000E+00  0.0000E+00  0.0000E+00  0.0000E+00  0.0000E+00
     -4.451  0.0000E+00  0.0000E+00  0.0000E+00  0.0000E+00  0.0000E+00  0.0000E+00  0.0000E+00  0.0000E+00  0.0000E+00  0.0000E+00  0.0000E+00  0.0000E+00  0.0000E+00  0.0000E+00  0.0000E+00  0.0000E+00  0.0000E+00  0.0000E+00
     -4.377  0.0000E+00  0.0000E+00  0.0000E+00  0.0000E+00  0.0000E+00  0.0000E+00  0.0000E+00  0.0000E+00  0.0000E+00  0.0000E+00  0.0000E+00  0.0000E+00  0.0000E+00  0.0000E+00  0.0000E+00  0.0000E+00  0.0000E+00  0.0000E+00
     -4.303  0.0000E+00  0.0000E+00  0.0000E+00  0.0000E+00  0.0000E+00  0.0000E+00  0.0000E+00  0.0000E+00  0.0000E+00  0.0000E+00  0.0000E+00  0.0000E+00  0.0000E+00  0.0000E+00  0.0000E+00  0.0000E+00  0.0000E+00  0.0000E+00
     -4.229  0.0000E+00  0.0000E+00  0.0000E+00  0.0000E+00  0.0000E+00  0.0000E+00  0.0000E+00  0.0000E+00  0.0000E+00  0.0000E+00  0.0000E+00  0.0000E+00  0.0000E+00  0.0000E+00  0.0000E+00  0.0000E+00  0.0000E+00  0.0000E+00
     -4.155  0.1566E-06  0.1488E-06  0.2209E-09  0.2100E-09  0.2209E-09  0.2100E-09  0.2209E-09  0.2099E-09  0.1358E-20  0.4902E-20  0.2138E-21  0.5585E-21  0.1526E-12  0.1449E-12  0.1358E-20  0.4902E-20  0.1960E-12  0.1862E-12
     -4.082  0.8766E-06  0.8327E-06  0.2175E-08  0.2068E-08  0.2175E-08  0.2068E-08  0.2175E-08  0.2068E-08  0.2338E-11  0.2224E-11  0.2338E-11  0.2224E-11  0.1145E-11  0.1087E-11  0.2338E-11  0.2224E-11  0.1152E-11  0.1094E-11
     -4.008  0.3964E-05  0.3766E-05  0.1128E-07  0.1073E-07  0.1128E-07  0.1073E-07  0.1128E-07  0.1072E-07  0.1551E-10  0.1475E-10  0.1551E-10  0.1475E-10  0.6742E-11  0.6402E-11  0.1551E-10  0.1475E-10  0.7584E-11  0.7202E-11
     -3.934  0.1744E-04  0.1657E-04  0.5314E-07  0.5053E-07  0.5314E-07  0.5053E-07  0.5313E-07  0.5052E-07  0.7893E-10  0.7509E-10  0.7896E-10  0.7511E-10  0.4018E-10  0.3816E-10  0.7893E-10  0.7509E-10  0.4537E-10  0.4309E-10
     -3.860  0.7458E-04  0.7098E-04  0.2364E-06  0.2249E-06  0.2364E-06  0.2249E-06  0.2363E-06  0.2248E-06  0.3933E-09  0.3743E-09  0.3934E-09  0.3743E-09  0.1751E-09  0.1664E-09  0.3933E-09  0.3743E-09  0.1994E-09  0.1894E-09
     -3.786  0.2908E-03  0.2781E-03  0.9733E-06  0.9283E-06  0.9733E-06  0.9283E-06  0.9730E-06  0.9281E-06  0.1651E-08  0.1573E-08  0.1652E-08  0.1573E-08  0.7310E-09  0.6958E-09  0.1651E-08  0.1573E-08  0.8264E-09  0.7867E-09
     -3.712  0.9040E-03  0.8740E-03  0.3554E-05  0.3414E-05  0.3554E-05  0.3414E-05  0.3553E-05  0.3413E-05  0.6735E-08  0.6442E-08  0.6736E-08  0.6443E-08  0.2862E-08  0.2737E-08  0.6735E-08  0.6442E-08  0.3246E-08  0.3103E-08
     -3.638  0.1901E-02  0.1865E-02  0.9776E-05  0.9493E-05  0.9776E-05  0.9493E-05  0.9773E-05  0.9490E-05  0.2209E-07  0.2131E-07  0.2210E-07  0.2131E-07  0.9349E-08  0.8984E-08  0.2209E-07  0.2131E-07  0.1080E-07  0.1037E-07
     -3.564  0.2805E-02  0.2774E-02  0.2073E-04  0.2025E-04  0.2073E-04  0.2025E-04  0.2072E-04  0.2024E-04  0.5780E-07  0.5608E-07  0.5782E-07  0.5609E-07  0.2699E-07  0.2606E-07  0.5780E-07  0.5608E-07  0.3204E-07  0.3092E-07
     -3.491  0.3760E-02  0.3723E-02  0.3824E-04  0.3758E-04  0.3824E-04  0.3758E-04  0.3823E-04  0.3757E-04  0.1343E-06  0.1309E-06  0.1343E-06  0.1309E-06  0.5989E-07  0.5859E-07  0.1343E-06  0.1309E-06  0.7125E-07  0.6973E-07
     -3.417  0.4320E-02  0.4315E-02  0.5452E-04  0.5410E-04  0.5452E-04  0.5410E-04  0.5452E-04  0.5410E-04  0.2472E-06  0.2431E-06  0.2472E-06  0.2431E-06  0.9266E-07  0.9135E-07  0.2472E-06  0.2431E-06  0.1080E-06  0.1066E-06
     -3.343  0.4349E-02  0.4332E-02  0.7102E-04  0.7015E-04  0.7102E-04  0.7015E-04  0.7098E-04  0.7011E-04  0.4021E-06  0.3951E-06  0.4021E-06  0.3952E-06  0.1557E-06  0.1520E-06  0.4021E-06  0.3951E-06  0.1777E-06  0.1734E-06
     -3.269  0.5268E-02  0.5227E-02  0.1061E-03  0.1048E-03  0.1061E-03  0.1048E-03  0.1060E-03  0.1047E-03  0.6452E-06  0.6368E-06  0.6452E-06  0.6368E-06  0.3034E-06  0.2971E-06  0.6452E-06  0.6368E-06  0.3562E-06  0.3484E-06
     -3.195  0.5801E-02  0.5795E-02  0.1340E-03  0.1334E-03  0.1340E-03  0.1334E-03  0.1340E-03  0.1334E-03  0.8969E-06  0.8869E-06  0.8969E-06  0.8869E-06  0.4370E-06  0.4337E-06  0.8969E-06  0.8869E-06  0.5245E-06  0.5205E-06
     -3.121  0.5713E-02  0.5704E-02  0.1526E-03  0.1517E-03  0.1526E-03  0.1517E-03  0.1526E-03  0.1517E-03  0.1331E-05  0.1311E-05  0.1331E-05  0.1311E-05  0.4835E-06  0.4809E-06  0.1331E-05  0.1311E-05  0.5650E-06  0.5629E-06
     -3.047  0.6052E-02  0.6039E-02  0.1844E-03  0.1835E-03  0.1844E-03  0.1835E-03  0.1844E-03  0.1834E-03  0.1912E-05  0.1897E-05  0.1912E-05  0.1897E-05  0.5948E-06  0.5888E-06  0.1912E-05  0.1897E-05  0.6762E-06  0.6693E-06
     -2.973  0.5793E-02  0.5801E-02  0.2004E-03  0.1999E-03  0.2004E-03  0.1999E-03  0.2002E-03  0.1997E-03  0.2106E-05  0.2102E-05  0.2105E-05  0.2101E-05  0.8026E-06  0.7910E-06  0.2106E-05  0.2102E-05  0.9448E-06  0.9297E-06
     -2.899  0.6275E-02  0.6225E-02  0.2525E-03  0.2497E-03  0.2525E-03  0.2497E-03  0.2522E-03  0.2494E-03  0.2669E-05  0.2633E-05  0.2670E-05  0.2635E-05  0.1266E-05  0.1246E-05  0.2669E-05  0.2633E-05  0.1527E-05  0.1502E-05
     -2.826  0.7361E-02  0.7337E-02  0.3234E-03  0.3219E-03  0.3234E-03  0.3219E-03  0.3233E-03  0.3218E-03  0.3835E-05  0.3797E-05  0.3837E-05  0.3799E-05  0.1681E-05  0.1671E-05  0.3835E-05  0.3797E-05  0.1983E-05  0.1973E-05
     -2.752  0.7350E-02  0.7349E-02  0.3500E-03  0.3493E-03  0.3500E-03  0.3493E-03  0.3500E-03  0.3494E-03  0.4825E-05  0.4792E-05  0.4825E-05  0.4792E-05  0.1793E-05  0.1788E-05  0.4825E-05  0.4792E-05  0.2065E-05  0.2059E-05
     -2.678  0.6957E-02  0.6975E-02  0.3590E-03  0.3595E-03  0.3590E-03  0.3595E-03  0.3593E-03  0.3597E-03  0.5659E-05  0.5639E-05  0.5655E-05  0.5635E-05  0.1771E-05  0.1774E-05  0.5659E-05  0.5639E-05  0.2048E-05  0.2052E-05
     -2.604  0.5959E-02  0.5980E-02  0.3382E-03  0.3383E-03  0.3382E-03  0.3383E-03  0.3381E-03  0.3382E-03  0.5979E-05  0.5965E-05  0.5978E-05  0.5964E-05  0.1632E-05  0.1625E-05  0.5979E-05  0.5965E-05  0.1900E-05  0.1892E-05
     -2.530  0.6292E-02  0.6237E-02  0.4131E-03  0.4081E-03  0.4131E-03  0.4081E-03  0.4120E-03  0.4070E-03  0.7251E-05  0.7174E-05  0.7260E-05  0.7183E-05  0.2402E-05  0.2353E-05  0.7251E-05  0.7174E-05  0.2813E-05  0.2755E-05
     -2.456  0.7941E-02  0.7893E-02  0.5751E-03  0.5708E-03  0.5751E-03  0.5708E-03  0.5742E-03  0.5699E-03  0.9737E-05  0.9664E-05  0.9740E-05  0.9667E-05  0.3816E-05  0.3774E-05  0.9737E-05  0.9664E-05  0.4484E-05  0.4434E-05
     -2.382  0.7975E-02  0.7990E-02  0.6191E-03  0.6193E-03  0.6191E-03  0.6193E-03  0.6192E-03  0.6194E-03  0.1107E-04  0.1103E-04  0.1106E-04  0.1102E-04  0.4168E-05  0.4169E-05  0.1107E-04  0.1103E-04  0.4954E-05  0.4952E-05
     -2.308  0.7649E-02  0.7642E-02  0.6409E-03  0.6394E-03  0.6409E-03  0.6394E-03  0.6408E-03  0.6393E-03  0.1295E-04  0.1288E-04  0.1295E-04  0.1288E-04  0.4175E-05  0.4164E-05  0.1295E-04  0.1288E-04  0.4986E-05  0.4974E-05
     -2.234  0.6891E-02  0.6936E-02  0.6179E-03  0.6210E-03  0.6179E-03  0.6210E-03  0.6186E-03  0.6216E-03  0.1348E-04  0.1351E-04  0.1348E-04  0.1351E-04  0.4032E-05  0.4049E-05  0.1348E-04  0.1351E-04  0.4762E-05  0.4787E-05
     -2.161  0.5861E-02  0.5853E-02  0.5835E-03  0.5806E-03  0.5835E-03  0.5806E-03  0.5830E-03  0.5802E-03  0.1447E-04  0.1433E-04  0.1448E-04  0.1435E-04  0.3626E-05  0.3617E-05  0.1447E-04  0.1433E-04  0.4106E-05  0.4103E-05
     -2.087  0.7015E-02  0.6957E-02  0.8010E-03  0.7912E-03  0.8010E-03  0.7912E-03  0.7982E-03  0.7884E-03  0.2085E-04  0.2062E-04  0.2087E-04  0.2064E-04  0.4569E-05  0.4522E-05  0.2085E-04  0.2062E-04  0.5099E-05  0.5044E-05
     -2.013  0.7689E-02  0.7695E-02  0.1034E-02  0.1029E-02  0.1034E-02  0.1029E-02  0.1031E-02  0.1026E-02  0.2491E-04  0.2488E-04  0.2490E-04  0.2487E-04  0.5606E-05  0.5588E-05  0.2491E-04  0.2488E-04  0.6397E-05  0.6371E-05
     -1.939  0.6582E-02  0.6624E-02  0.1054E-02  0.1056E-02  0.1054E-02  0.1056E-02  0.1054E-02  0.1056E-02  0.2409E-04  0.2412E-04  0.2407E-04  0.2410E-04  0.5444E-05  0.5461E-05  0.2409E-04  0.2412E-04  0.6346E-05  0.6362E-05
     -1.865  0.5550E-02  0.5567E-02  0.1034E-02  0.1033E-02  0.1034E-02  0.1033E-02  0.1033E-02  0.1032E-02  0.2512E-04  0.2503E-04  0.2514E-04  0.2504E-04  0.5129E-05  0.5128E-05  0.2512E-04  0.2503E-04  0.6058E-05  0.6056E-05
     -1.791  0.5209E-02  0.5203E-02  0.1067E-02  0.1066E-02  0.1067E-02  0.1066E-02  0.1068E-02  0.1067E-02  0.2915E-04  0.2894E-04  0.2918E-04  0.2897E-04  0.5168E-05  0.5167E-05  0.2915E-04  0.2894E-04  0.5992E-05  0.6000E-05
     -1.717  0.5805E-02  0.5768E-02  0.1112E-02  0.1109E-02  0.1112E-02  0.1109E-02  0.1113E-02  0.1110E-02  0.3837E-04  0.3798E-04  0.3842E-04  0.3803E-04  0.5261E-05  0.5249E-05  0.3837E-04  0.3798E-04  0.5753E-05  0.5750E-05
     -1.643  0.6202E-02  0.6206E-02  0.1217E-02  0.1214E-02  0.1217E-02  0.1214E-02  0.1216E-02  0.1213E-02  0.4750E-04  0.4731E-04  0.4752E-04  0.4733E-04  0.5557E-05  0.5552E-05  0.4750E-04  0.4731E-04  0.6011E-05  0.6002E-05
     -1.569  0.5440E-02  0.5469E-02  0.1216E-02  0.1219E-02  0.1216E-02  0.1219E-02  0.1216E-02  0.1219E-02  0.4929E-04  0.4933E-04  0.4925E-04  0.4930E-04  0.5300E-05  0.5319E-05  0.4929E-04  0.4933E-04  0.5849E-05  0.5869E-05
     -1.496  0.4191E-02  0.4237E-02  0.1005E-02  0.1014E-02  0.1005E-02  0.1014E-02  0.1008E-02  0.1018E-02  0.4359E-04  0.4388E-04  0.4350E-04  0.4379E-04  0.4215E-05  0.4262E-05  0.4359E-04  0.4388E-04  0.4649E-05  0.4701E-05
     -1.422  0.3110E-02  0.3122E-02  0.8149E-03  0.8165E-03  0.8149E-03  0.8165E-03  0.8159E-03  0.8175E-03  0.3939E-04  0.3930E-04  0.3937E-04  0.3928E-04  0.3206E-05  0.3217E-05  0.3939E-04  0.3930E-04  0.3559E-05  0.3572E-05
     -1.348  0.3486E-02  0.3449E-02  0.8845E-03  0.8786E-03  0.8845E-03  0.8786E-03  0.8846E-03  0.8787E-03  0.4902E-04  0.4849E-04  0.4912E-04  0.4858E-04  0.3699E-05  0.3652E-05  0.4902E-04  0.4849E-04  0.3986E-05  0.3941E-05
     -1.274  0.4688E-02  0.4648E-02  0.1120E-02  0.1111E-02  0.1120E-02  0.1111E-02  0.1118E-02  0.1109E-02  0.6777E-04  0.6719E-04  0.6793E-04  0.6734E-04  0.6224E-05  0.6095E-05  0.6777E-04  0.6719E-04  0.6691E-05  0.6541E-05
     -1.200  0.5328E-02  0.5303E-02  0.1197E-02  0.1200E-02  0.1197E-02  0.1200E-02  0.1197E-02  0.1199E-02  0.7353E-04  0.7370E-04  0.7345E-04  0.7364E-04  0.1180E-04  0.1152E-04  0.7353E-04  0.7370E-04  0.1376E-04  0.1340E-04
     -1.126  0.6655E-02  0.6577E-02  0.1059E-02  0.1063E-02  0.1059E-02  0.1063E-02  0.1061E-02  0.1065E-02  0.6489E-04  0.6516E-04  0.6474E-04  0.6502E-04  0.2349E-04  0.2298E-04  0.6489E-04  0.6516E-04  0.2907E-04  0.2841E-04
     -1.052  0.8530E-02  0.8481E-02  0.9399E-03  0.9444E-03  0.9399E-03  0.9444E-03  0.9422E-03  0.9467E-03  0.5699E-04  0.5731E-04  0.5684E-04  0.5715E-04  0.3595E-04  0.3566E-04  0.5699E-04  0.5731E-04  0.4525E-04  0.4486E-04