   4   4   1   0
  0.1567866E+02  0.3972157E-09  0.3973483E-09  0.3973483E-09  0.5000000E-15
  1.000000000000000E-004
  CAR 
 unknown system                          
     20.25012368     -4.40653356  301      7.57620526      1.00000000
     -4.407  0.0000E+00  0.0000E+00  0.0000E+00  0.0000E+00
     -4.324  0.0000E+00  0.0000E+00  0.0000E+00  0.0000E+00
     -4.242  0.0000E+00  0.0000E+00  0.0000E+00  0.0000E+00
     -4.160  0.0000E+00  0.0000E+00  0.0000E+00  0.0000E+00
     -4.078  0.0000E+00  0.0000E+00  0.0000E+00  0.0000E+00
     -3.996  0.0000E+00  0.0000E+00  0.0000E+00  0.0000E+00
     -3.913  0.0000E+00  0.0000E+00  0.0000E+00  0.0000E+00
     -3.831  0.0000E+00  0.0000E+00  0.0000E+00  0.0000E+00
     -3.749  0.5196E-06  0.5243E-06  0.4271E-07  0.4309E-07
     -3.667  0.7534E-05  0.7602E-05  0.6619E-06  0.6679E-06
     -3.585  0.5616E-04  0.5667E-04  0.5278E-05  0.5326E-05
     -3.502  0.2720E-03  0.2745E-03  0.2764E-04  0.2789E-04
     -3.420  0.1418E-02  0.1430E-02  0.1442E-03  0.1454E-03
     -3.338  0.6548E-02  0.6601E-02  0.6824E-03  0.6880E-03
     -3.256  0.2358E-01  0.2372E-01  0.2621E-02  0.2638E-02
     -3.174  0.5354E-01  0.5370E-01  0.7021E-02  0.7052E-02
     -3.092  0.7932E-01  0.7945E-01  0.1354E-01  0.1358E-01
     -3.009  0.1094E+00  0.1096E+00  0.2253E-01  0.2259E-01
     -2.927  0.1276E+00  0.1276E+00  0.3302E-01  0.3307E-01
     -2.845  0.1250E+00  0.1251E+00  0.4330E-01  0.4336E-01
     -2.763  0.1605E+00  0.1607E+00  0.5650E-01  0.5658E-01
     -2.681  0.1792E+00  0.1792E+00  0.7123E-01  0.7131E-01
     -2.598  0.1752E+00  0.1752E+00  0.8564E-01  0.8573E-01
     -2.516  0.1936E+00  0.1937E+00  0.1016E+00  0.1017E+00
     -2.434  0.1823E+00  0.1822E+00  0.1166E+00  0.1166E+00
     -2.352  0.2063E+00  0.2066E+00  0.1335E+00  0.1336E+00
     -2.270  0.2525E+00  0.2526E+00  0.1543E+00  0.1544E+00
     -2.187  0.2520E+00  0.2520E+00  0.1750E+00  0.1751E+00
     -2.105  0.2434E+00  0.2432E+00  0.1950E+00  0.1952E+00
     -2.023  0.2040E+00  0.2038E+00  0.2118E+00  0.2119E+00
     -1.941  0.2299E+00  0.2304E+00  0.2307E+00  0.2309E+00
     -1.859  0.3145E+00  0.3149E+00  0.2566E+00  0.2568E+00
     -1.776  0.3126E+00  0.3125E+00  0.2823E+00  0.2825E+00
     -1.694  0.3113E+00  0.3114E+00  0.3079E+00  0.3081E+00
     -1.612  0.2818E+00  0.2813E+00  0.3311E+00  0.3312E+00
     -1.530  0.2415E+00  0.2417E+00  0.3509E+00  0.3511E+00
     -1.448  0.3289E+00  0.3295E+00  0.3780E+00  0.3782E+00
     -1.366  0.3939E+00  0.3940E+00  0.4104E+00  0.4106E+00
     -1.283  0.3625E+00  0.3622E+00  0.4402E+00  0.4404E+00
     -1.201  0.3357E+00  0.3357E+00  0.4678E+00  0.4680E+00
     -1.119  0.3401E+00  0.3402E+00  0.4958E+00  0.4959E+00
     -1.037  0.3676E+00  0.3679E+00  0.5260E+00  0.5262E+00
     -0.955  0.3960E+00  0.3961E+00  0.5586E+00  0.5588E+00
     -0.872  0.3794E+00  0.3791E+00  0.5898E+00  0.5900E+00
     -0.790  0.2954E+00  0.2947E+00  0.6141E+00  0.6142E+00
     -0.708  0.2316E+00  0.2316E+00  0.6332E+00  0.6333E+00
     -0.626  0.2691E+00  0.2696E+00  0.6553E+00  0.6554E+00
     -0.544  0.3565E+00  0.3570E+00  0.6846E+00  0.6848E+00
     -0.461  0.3782E+00  0.3778E+00  0.7157E+00  0.7159E+00
     -0.379  0.3701E+00  0.3700E+00  0.7462E+00  0.7464E+00
     -0.297  0.3562E+00  0.3559E+00  0.7755E+00  0.7756E+00
     -0.215  0.3287E+00  0.3288E+00  0.8025E+00  0.8026E+00
     -0.133  0.3776E+00  0.3781E+00  0.8336E+00  0.8338E+00
     -0.051  0.4383E+00  0.4386E+00  0.8696E+00  0.8698E+00
      0.032  0.4257E+00  0.4252E+00  0.9046E+00  0.9048E+00
      0.114  0.3678E+00  0.3675E+00  0.9349E+00  0.9350E+00
      0.196  0.3268E+00  0.3267E+00  0.9617E+00  0.9619E+00
      0.278  0.3509E+00  0.3512E+00  0.9906E+00  0.9908E+00
      0.360  0.4204E+00  0.4209E+00  0.1025E+01  0.1025E+01
      0.443  0.5124E+00  0.5128E+00  0.1067E+01  0.1068E+01
      0.525  0.5230E+00  0.5227E+00  0.1110E+01  0.1111E+01
      0.607  0.4450E+00  0.4445E+00  0.1147E+01  0.1147E+01
      0.689  0.3816E+00  0.3817E+00  0.1178E+01  0.1179E+01
      0.771  0.4403E+00  0.4408E+00  0.1215E+01  0.1215E+01
      0.854  0.5239E+00  0.5240E+00  0.1258E+01  0.1258E+01
      0.936  0.4947E+00  0.4942E+00  0.1298E+01  0.1299E+01
      1.018  0.3894E+00  0.3888E+00  0.1330E+01  0.1331E+01
      1.100  0.3438E+00  0.3439E+00  0.1359E+01  0.1359E+01
      1.182  0.4335E+00  0.4345E+00  0.1394E+01  0.1395E+01
      1.264  0.6103E+00  0.6110E+00  0.1445E+01  0.1445E+01
      1.347  0.6605E+00  0.6603E+00  0.1499E+01  0.1499E+01
      1.429  0.5724E+00  0.5718E+00  0.1546E+01  0.1546E+01
      1.511  0.4789E+00  0.4783E+00  0.1585E+01  0.1585E+01
      1.593  0.4778E+00  0.4783E+00  0.1625E+01  0.1625E+01
      1.675  0.5763E+00  0.5766E+00  0.1672E+01  0.1672E+01
      1.758  0.5318E+00  0.5314E+00  0.1716E+01  0.1716E+01
      1.840  0.4622E+00  0.4621E+00  0.1754E+01  0.1754E+01
      1.922  0.4498E+00  0.4495E+00  0.1791E+01  0.1791E+01
      2.004  0.3867E+00  0.3865E+00  0.1823E+01  0.1823E+01
      2.086  0.4404E+00  0.4413E+00  0.1859E+01  0.1859E+01
      2.169  0.5498E+00  0.5504E+00  0.1904E+01  0.1904E+01
      2.251  0.5786E+00  0.5787E+00  0.1952E+01  0.1952E+01
      2.333  0.5561E+00  0.5557E+00  0.1997E+01  0.1998E+01
      2.415  0.5175E+00  0.5176E+00  0.2040E+01  0.2040E+01
      2.497  0.6074E+00  0.6084E+00  0.2090E+01  0.2090E+01
      2.580  0.7088E+00  0.7086E+00  0.2148E+01  0.2149E+01
      2.662  0.5875E+00  0.5867E+00  0.2197E+01  0.2197E+01
      2.744  0.4641E+00  0.4633E+00  0.2235E+01  0.2235E+01
      2.826  0.3645E+00  0.3646E+00  0.2265E+01  0.2265E+01
      2.908  0.4635E+00  0.4648E+00  0.2303E+01  0.2303E+01
      2.990  0.6011E+00  0.6016E+00  0.2352E+01  0.2353E+01
      3.073  0.6124E+00  0.6124E+00  0.2403E+01  0.2403E+01
      3.155  0.6575E+00  0.6580E+00  0.2457E+01  0.2457E+01
      3.237  0.6804E+00  0.6802E+00  0.2513E+01  0.2513E+01
      3.319  0.6620E+00  0.6624E+00  0.2567E+01  0.2568E+01
      3.401  0.6738E+00  0.6741E+00  0.2623E+01  0.2623E+01
      3.484  0.6096E+00  0.6092E+00  0.2673E+01  0.2673E+01
      3.566  0.5507E+00  0.5502E+00  0.2718E+01  0.2718E+01
      3.648  0.5210E+00  0.5213E+00  0.2761E+01  0.2761E+01
      3.730  0.6130E+00  0.6143E+00  0.2811E+01  0.2812E+01
      3.812  0.7342E+00  0.7344E+00  0.2872E+01  0.2872E+01
      3.895  0.6495E+00  0.6483E+00  0.2925E+01  0.2926E+01
      3.977  0.6500E+00  0.6508E+00  0.2979E+01  0.2979E+01
      4.059  0.7248E+00  0.7256E+00  0.3038E+01  0.3039E+01
      4.141  0.7684E+00  0.7687E+00  0.3101E+01  0.3102E+01
      4.223  0.6899E+00  0.6889E+00  0.3158E+01  0.3159E+01
      4.305  0.5816E+00  0.5807E+00  0.3206E+01  0.3206E+01
      4.388  0.5122E+00  0.5117E+00  0.3248E+01  0.3248E+01
      4.470  0.4834E+00  0.4837E+00  0.3288E+01  0.3288E+01
      4.552  0.6269E+00  0.6282E+00  0.3340E+01  0.3340E+01
      4.634  0.7382E+00  0.7380E+00  0.3400E+01  0.3401E+01
      4.716  0.6709E+00  0.6713E+00  0.3455E+01  0.3456E+01
      4.799  0.7516E+00  0.7528E+00  0.3517E+01  0.3518E+01
      4.881  0.8287E+00  0.8287E+00  0.3585E+01  0.3586E+01
      4.963  0.7793E+00  0.7797E+00  0.3649E+01  0.3650E+01
      5.045  0.7430E+00  0.7422E+00  0.3711E+01  0.3711E+01
      5.127  0.6964E+00  0.6954E+00  0.3768E+01  0.3768E+01
      5.210  0.7200E+00  0.7198E+00  0.3827E+01  0.3828E+01
      5.292  0.6639E+00  0.6637E+00  0.3882E+01  0.3882E+01
      5.374  0.5718E+00  0.5723E+00  0.3929E+01  0.3929E+01
      5.456  0.6302E+00  0.6306E+00  0.3981E+01  0.3981E+01
      5.538  0.7413E+00  0.7423E+00  0.4042E+01  0.4042E+01
      5.621  0.7614E+00  0.7613E+00  0.4104E+01  0.4105E+01
      5.703  0.7006E+00  0.6998E+00  0.4162E+01  0.4162E+01
      5.785  0.7987E+00  0.7996E+00  0.4228E+01  0.4228E+01
      5.867  0.9346E+00  0.9343E+00  0.4304E+01  0.4305E+01
      5.949  0.7681E+00  0.7664E+00  0.4368E+01  0.4368E+01
      6.031  0.5050E+00  0.5044E+00  0.4409E+01  0.4410E+01
      6.114  0.5018E+00  0.5020E+00  0.4450E+01  0.4451E+01
      6.196  0.5521E+00  0.5511E+00  0.4496E+01  0.4496E+01
      6.278  0.5744E+00  0.5753E+00  0.4543E+01  0.4544E+01
      6.360  0.7040E+00  0.7058E+00  0.4601E+01  0.4602E+01
      6.442  0.7858E+00  0.7857E+00  0.4666E+01  0.4666E+01
      6.525  0.8255E+00  0.8255E+00  0.4734E+01  0.4734E+01
      6.607  0.8855E+00  0.8848E+00  0.4806E+01  0.4807E+01
      6.689  0.8625E+00  0.8617E+00  0.4877E+01  0.4878E+01
      6.771  0.6863E+00  0.6864E+00  0.4934E+01  0.4934E+01
      6.853  0.6239E+00  0.6243E+00  0.4985E+01  0.4986E+01
      6.936  0.6299E+00  0.6289E+00  0.5037E+01  0.5037E+01
      7.018  0.5622E+00  0.5608E+00  0.5083E+01  0.5083E+01
      7.100  0.5391E+00  0.5395E+00  0.5128E+01  0.5128E+01
      7.182  0.7048E+00  0.7060E+00  0.5186E+01  0.5186E+01
      7.264  0.8201E+00  0.8205E+00  0.5253E+01  0.5253E+01
      7.346  0.8564E+00  0.8579E+00  0.5323E+01  0.5324E+01
      7.429  0.9134E+00  0.9138E+00  0.5399E+01  0.5399E+01
      7.511  0.7611E+00  0.7597E+00  0.5461E+01  0.5462E+01
      7.593  0.5830E+00  0.5817E+00  0.5509E+01  0.5509E+01
      7.675  0.5255E+00  0.5241E+00  0.5552E+01  0.5553E+01
      7.757  0.5470E+00  0.5474E+00  0.5597E+01  0.5598E+01
      7.840  0.7156E+00  0.7181E+00  0.5656E+01  0.5657E+01
      7.922  0.8844E+00  0.8857E+00  0.5729E+01  0.5730E+01
      8.004  0.8281E+00  0.8270E+00  0.5797E+01  0.5798E+01
      8.086  0.6506E+00  0.6472E+00  0.5851E+01  0.5851E+01
      8.168  0.6234E+00  0.6229E+00  0.5902E+01  0.5902E+01
      8.251  0.7954E+00  0.7971E+00  0.5967E+01  0.5968E+01
      8.333  0.7799E+00  0.7795E+00  0.6031E+01  0.6032E+01
      8.415  0.6564E+00  0.6567E+00  0.6085E+01  0.6086E+01
      8.497  0.6559E+00  0.6567E+00  0.6139E+01  0.6140E+01
      8.579  0.7272E+00  0.7263E+00  0.6199E+01  0.6199E+01
      8.661  0.8780E+00  0.8777E+00  0.6271E+01  0.6272E+01
      8.744  0.1126E+01  0.1126E+01  0.6364E+01  0.6364E+01
      8.826  0.1120E+01  0.1119E+01  0.6456E+01  0.6456E+01
      8.908  0.8606E+00  0.8594E+00  0.6527E+01  0.6527E+01
      8.990  0.6815E+00  0.6813E+00  0.6583E+01  0.6583E+01
      9.072  0.6703E+00  0.6715E+00  0.6638E+01  0.6638E+01
      9.155  0.7571E+00  0.7591E+00  0.6700E+01  0.6701E+01
      9.237  0.9157E+00  0.9156E+00  0.6776E+01  0.6776E+01
      9.319  0.9397E+00  0.9390E+00  0.6853E+01  0.6853E+01
      9.401  0.8763E+00  0.8759E+00  0.6925E+01  0.6925E+01
      9.483  0.7824E+00  0.7817E+00  0.6989E+01  0.6990E+01
      9.566  0.7643E+00  0.7643E+00  0.7052E+01  0.7053E+01
      9.648  0.7827E+00  0.7819E+00  0.7117E+01  0.7117E+01
      9.730  0.8585E+00  0.8575E+00  0.7187E+01  0.7187E+01
      9.812  0.9660E+00  0.9654E+00  0.7267E+01  0.7267E+01
      9.894  0.8808E+00  0.8813E+00  0.7339E+01  0.7339E+01
      9.977  0.7366E+00  0.7380E+00  0.7400E+01  0.7400E+01
     10.059  0.7308E+00  0.7317E+00  0.7460E+01  0.7460E+01
     10.141  0.7986E+00  0.7972E+00  0.7526E+01  0.7526E+01
     10.223  0.8399E+00  0.8399E+00  0.7595E+01  0.7595E+01
     10.305  0.8118E+00  0.8133E+00  0.7662E+01  0.7662E+01
     10.387  0.7208E+00  0.7217E+00  0.7721E+01  0.7721E+01
     10.470  0.6915E+00  0.6910E+00  0.7778E+01  0.7778E+01
     10.552  0.8363E+00  0.8353E+00  0.7847E+01  0.7847E+01
     10.634  0.1005E+01  0.1005E+01  0.7929E+01  0.7929E+01
     10.716  0.9694E+00  0.9705E+00  0.8009E+01  0.8009E+01
     10.798  0.8778E+00  0.8777E+00  0.8081E+01  0.8081E+01
     10.881  0.7537E+00  0.7506E+00  0.8143E+01  0.8143E+01
     10.963  0.8076E+00  0.8050E+00  0.8210E+01  0.8209E+01
     11.045  0.9822E+00  0.9845E+00  0.8290E+01  0.8290E+01
     11.127  0.1018E+01  0.1022E+01  0.8374E+01  0.8374E+01
     11.209  0.9106E+00  0.9107E+00  0.8449E+01  0.8449E+01
     11.292  0.7336E+00  0.7319E+00  0.8509E+01  0.8510E+01
     11.374  0.8076E+00  0.8069E+00  0.8576E+01  0.8576E+01
     11.456  0.1045E+01  0.1042E+01  0.8662E+01  0.8662E+01
     11.538  0.1069E+01  0.1068E+01  0.8750E+01  0.8749E+01
     11.620  0.8039E+00  0.8060E+00  0.8816E+01  0.8816E+01
     11.702  0.5994E+00  0.6019E+00  0.8865E+01  0.8865E+01
     11.785  0.6670E+00  0.6670E+00  0.8920E+01  0.8920E+01
     11.867  0.7980E+00  0.7958E+00  0.8986E+01  0.8986E+01
     11.949  0.8654E+00  0.8642E+00  0.9057E+01  0.9057E+01
     12.031  0.9042E+00  0.9047E+00  0.9131E+01  0.9131E+01
     12.113  0.9258E+00  0.9264E+00  0.9208E+01  0.9207E+01
     12.196  0.1018E+01  0.1017E+01  0.9291E+01  0.9291E+01
     12.278  0.1056E+01  0.1054E+01  0.9378E+01  0.9378E+01
     12.360  0.9215E+00  0.9210E+00  0.9454E+01  0.9453E+01
     12.442  0.8946E+00  0.8947E+00  0.9527E+01  0.9527E+01
     12.524  0.1071E+01  0.1070E+01  0.9616E+01  0.9615E+01
     12.607  0.1166E+01  0.1165E+01  0.9711E+01  0.9711E+01
     12.689  0.1025E+01  0.1029E+01  0.9796E+01  0.9796E+01
     12.771  0.8790E+00  0.8809E+00  0.9868E+01  0.9868E+01
     12.853  0.9333E+00  0.9310E+00  0.9945E+01  0.9945E+01
     12.935  0.1130E+01  0.1127E+01  0.1004E+02  0.1004E+02
     13.018  0.1167E+01  0.1165E+01  0.1013E+02  0.1013E+02
     13.100  0.9575E+00  0.9593E+00  0.1021E+02  0.1021E+02
     13.182  0.6953E+00  0.6981E+00  0.1027E+02  0.1027E+02
     13.264  0.6321E+00  0.6340E+00  0.1032E+02  0.1032E+02
     13.346  0.5999E+00  0.5991E+00  0.1037E+02  0.1037E+02
     13.428  0.7023E+00  0.6972E+00  0.1043E+02  0.1043E+02
     13.511  0.8868E+00  0.8793E+00  0.1050E+02  0.1050E+02
     13.593  0.1055E+01  0.1049E+01  0.1059E+02  0.1059E+02
     13.675  0.1207E+01  0.1208E+01  0.1069E+02  0.1069E+02
     13.757  0.1040E+01  0.1027E+01  0.1077E+02  0.1077E+02
     13.839  0.9132E+00  0.8830E+00  0.1085E+02  0.1084E+02
     13.922  0.9979E+00  0.1012E+01  0.1093E+02  0.1093E+02
     14.004  0.9790E+00  0.1015E+01  0.1101E+02  0.1101E+02
     14.086  0.9249E+00  0.9313E+00  0.1109E+02  0.1109E+02
     14.168  0.8731E+00  0.8645E+00  0.1116E+02  0.1116E+02
     14.250  0.6158E+00  0.6225E+00  0.1121E+02  0.1121E+02
     14.333  0.3404E+00  0.3501E+00  0.1124E+02  0.1124E+02
     14.415  0.3375E+00  0.3466E+00  0.1127E+02  0.1127E+02
     14.497  0.5597E+00  0.5611E+00  0.1131E+02  0.1131E+02
     14.579  0.6435E+00  0.6356E+00  0.1136E+02  0.1136E+02
     14.661  0.5590E+00  0.5546E+00  0.1141E+02  0.1141E+02
     14.743  0.4603E+00  0.4607E+00  0.1145E+02  0.1145E+02
     14.826  0.3077E+00  0.3079E+00  0.1147E+02  0.1147E+02
     14.908  0.1875E+00  0.1875E+00  0.1149E+02  0.1149E+02
     14.990  0.2239E+00  0.2236E+00  0.1151E+02  0.1151E+02
     15.072  0.3854E+00  0.3857E+00  0.1154E+02  0.1154E+02
     15.154  0.4073E+00  0.4071E+00  0.1157E+02  0.1157E+02
     15.237  0.3040E+00  0.3039E+00  0.1160E+02  0.1160E+02
     15.319  0.2482E+00  0.2483E+00  0.1162E+02  0.1162E+02
     15.401  0.2000E+00  0.2000E+00  0.1163E+02  0.1163E+02
     15.483  0.1992E+00  0.1995E+00  0.1165E+02  0.1165E+02
     15.565  0.2673E+00  0.2697E+00  0.1167E+02  0.1167E+02
     15.648  0.2767E+00  0.2777E+00  0.1170E+02  0.1170E+02
     15.730  0.2370E+00  0.2353E+00  0.1172E+02  0.1172E+02
     15.812  0.1911E+00  0.1907E+00  0.1173E+02  0.1173E+02
     15.894  0.1299E+00  0.1291E+00  0.1174E+02  0.1174E+02
     15.976  0.1422E+00  0.1411E+00  0.1175E+02  0.1175E+02
     16.058  0.2289E+00  0.2290E+00  0.1177E+02  0.1177E+02
     16.141  0.2197E+00  0.2200E+00  0.1179E+02  0.1179E+02
     16.223  0.1881E+00  0.1873E+00  0.1181E+02  0.1181E+02
     16.305  0.2039E+00  0.2031E+00  0.1182E+02  0.1182E+02
     16.387  0.2170E+00  0.2164E+00  0.1184E+02  0.1184E+02
     16.469  0.1631E+00  0.1641E+00  0.1185E+02  0.1185E+02
     16.552  0.1063E+00  0.1076E+00  0.1186E+02  0.1186E+02
     16.634  0.9305E-01  0.9367E-01  0.1187E+02  0.1187E+02
     16.716  0.1184E+00  0.1184E+00  0.1188E+02  0.1188E+02
     16.798  0.1565E+00  0.1562E+00  0.1189E+02  0.1189E+02
     16.880  0.1124E+00  0.1126E+00  0.1190E+02  0.1190E+02
     16.963  0.5644E-01  0.5640E-01  0.1191E+02  0.1191E+02
     17.045  0.7796E-01  0.7747E-01  0.1191E+02  0.1191E+02
     17.127  0.1096E+00  0.1097E+00  0.1192E+02  0.1192E+02
     17.209  0.7309E-01  0.7363E-01  0.1193E+02  0.1193E+02
     17.291  0.2491E-01  0.2520E-01  0.1193E+02  0.1193E+02
     17.374  0.9474E-02  0.9526E-02  0.1193E+02  0.1193E+02
     17.456  0.1885E-01  0.1877E-01  0.1193E+02  0.1193E+02
     17.538  0.5026E-01  0.5004E-01  0.1194E+02  0.1194E+02
     17.620  0.6683E-01  0.6641E-01  0.1194E+02  0.1194E+02
     17.702  0.7465E-01  0.7403E-01  0.1195E+02  0.1195E+02
     17.784  0.8072E-01  0.7987E-01  0.1196E+02  0.1195E+02
     17.867  0.7746E-01  0.7293E-01  0.1196E+02  0.1196E+02
     17.949  0.7003E-01  0.5701E-01  0.1197E+02  0.1197E+02
     18.031  0.7893E-01  0.7486E-01  0.1197E+02  0.1197E+02
     18.113  0.7537E-01  0.8902E-01  0.1198E+02  0.1198E+02
     18.195  0.4780E-01  0.5543E-01  0.1198E+02  0.1198E+02
     18.278  0.1537E-01  0.1741E-01  0.1199E+02  0.1199E+02
     18.360  0.5001E-02  0.5406E-02  0.1199E+02  0.1199E+02
     18.442  0.8654E-02  0.8573E-02  0.1199E+02  0.1199E+02
     18.524  0.2814E-01  0.2794E-01  0.1199E+02  0.1199E+02
     18.606  0.4758E-01  0.4766E-01  0.1199E+02  0.1199E+02
     18.689  0.3289E-01  0.3307E-01  0.1200E+02  0.1200E+02
     18.771  0.1105E-01  0.1110E-01  0.1200E+02  0.1200E+02
     18.853  0.2629E-02  0.2654E-02  0.1200E+02  0.1200E+02
     18.935  0.1214E-02  0.1292E-02  0.1200E+02  0.1200E+02
     19.017  0.3429E-02  0.3751E-02  0.1200E+02  0.1200E+02
     19.099  0.1146E-01  0.1212E-01  0.1200E+02  0.1200E+02
     19.182  0.1706E-01  0.1686E-01  0.1200E+02  0.1200E+02
     19.264  0.8702E-02  0.8098E-02  0.1200E+02  0.1200E+02
     19.346  0.2243E-02  0.2036E-02  0.1200E+02  0.1200E+02
     19.428  0.4617E-03  0.4166E-03  0.1200E+02  0.1200E+02
     19.510  0.9035E-04  0.8143E-04  0.1200E+02  0.1200E+02
     19.593  0.0000E+00  0.0000E+00  0.1200E+02  0.1200E+02
     19.675  0.0000E+00  0.0000E+00  0.1200E+02  0.1200E+02
     19.757  0.0000E+00  0.0000E+00  0.1200E+02  0.1200E+02
     19.839  0.0000E+00  0.0000E+00  0.1200E+02  0.1200E+02
     19.921  0.0000E+00  0.0000E+00  0.1200E+02  0.1200E+02
     20.004  0.0000E+00  0.0000E+00  0.1200E+02  0.1200E+02
     20.086  0.0000E+00  0.0000E+00  0.1200E+02  0.1200E+02
     20.168  0.0000E+00  0.0000E+00  0.1200E+02  0.1200E+02
     20.250  0.0000E+00  0.0000E+00  0.1200E+02  0.1200E+02
     20.25012368     -4.40653356  301      7.57620526      1.00000000
     -4.407  0.0000E+00  0.0000E+00  0.0000E+00  0.0000E+00  0.0000E+00  0.0000E+00  0.0000E+00  0.0000E+00  0.0000E+00  0.0000E+00  0.0000E+00  0.0000E+00  0.0000E+00  0.0000E+00  0.0000E+00  0.0000E+00  0.0000E+00  0.0000E+00
     -4.324  0.0000E+00  0.0000E+00  0.0000E+00  0.0000E+00  0.0000E+00  0.0000E+00  0.0000E+00  0.0000E+00  0.0000E+00  0.0000E+00  0.0000E+00  0.0000E+00  0.0000E+00  0.0000E+00  0.0000E+00  0.0000E+00  0.0000E+00  0.0000E+00
     -4.242  0.0000E+00  0.0000E+00  0.0000E+00  0.0000E+00  0.0000E+00  0.0000E+00  0.0000E+00  0.0000E+00  0.0000E+00  0.0000E+00  0.0000E+00  0.0000E+00  0.0000E+00  0.0000E+00  0.0000E+00  0.0000E+00  0.0000E+00  0.0000E+00
     -4.160  0.0000E+00  0.0000E+00  0.0000E+00  0.0000E+00  0.0000E+00  0.0000E+00  0.0000E+00  0.0000E+00  0.0000E+00  0.0000E+00  0.0000E+00  0.0000E+00  0.0000E+00  0.0000E+00  0.0000E+00  0.0000E+00  0.0000E+00  0.0000E+00
     -4.078  0.0000E+00  0.0000E+00  0.0000E+00  0.0000E+00  0.0000E+00  0.0000E+00  0.0000E+00  0.0000E+00  0.0000E+00  0.0000E+00  0.0000E+00  0.0000E+00  0.0000E+00  0.0000E+00  0.0000E+00  0.0000E+00  0.0000E+00  0.0000E+00
     -3.996  0.0000E+00  0.0000E+00  0.0000E+00  0.0000E+00  0.0000E+00  0.0000E+00  0.0000E+00  0.0000E+00  0.0000E+00  0.0000E+00  0.0000E+00  0.0000E+00  0.0000E+00  0.0000E+00  0.0000E+00  0.0000E+00  0.0000E+00  0.0000E+00
     -3.913  0.0000E+00  0.0000E+00  0.0000E+00  0.0000E+00  0.0000E+00  0.0000E+00  0.0000E+00  0.0000E+00  0.0000E+00  0.0000E+00  0.0000E+00  0.0000E+00  0.0000E+00  0.0000E+00  0.0000E+00  0.0000E+00  0.0000E+00  0.0000E+00
     -3.831  0.0000E+00  0.0000E+00  0.0000E+00  0.0000E+00  0.0000E+00  0.0000E+00  0.0000E+00  0.0000E+00  0.0000E+00  0.0000E+00  0.0000E+00  0.0000E+00  0.0000E+00  0.0000E+00  0.0000E+00  0.0000E+00  0.0000E+00  0.0000E+00
     -3.749  0.2040E-07  0.2057E-07  0.3134E-24  0.5602E-22  0.3134E-24  0.5602E-22  0.1829E-24  0.1639E-22  0.6593E-23  0.1176E-22  0.5241E-22  0.1705E-22  0.5344E-19  0.5083E-19  0.6593E-23  0.1176E-22  0.6881E-19  0.6445E-19
     -3.667  0.2938E-06  0.2962E-06  0.4631E-09  0.4671E-09  0.4631E-09  0.4671E-09  0.4629E-09  0.4669E-09  0.6237E-21  0.2381E-21  0.1062E-20  0.9405E-22  0.3662E-12  0.3693E-12  0.6237E-21  0.2381E-21  0.4705E-12  0.4745E-12
     -3.585  0.2179E-05  0.2196E-05  0.6153E-08  0.6208E-08  0.6153E-08  0.6208E-08  0.6153E-08  0.6207E-08  0.9305E-11  0.9392E-11  0.9303E-11  0.9390E-11  0.3140E-11  0.3166E-11  0.9305E-11  0.9392E-11  0.3216E-11  0.3243E-11
     -3.502  0.1055E-04  0.1064E-04  0.2940E-07  0.2966E-07  0.2940E-07  0.2966E-07  0.2940E-07  0.2966E-07  0.3880E-10  0.3917E-10  0.3880E-10  0.3916E-10  0.2029E-10  0.2046E-10  0.3880E-10  0.3917E-10  0.2267E-10  0.2285E-10
     -3.420  0.5493E-04  0.5536E-04  0.1707E-06  0.1722E-06  0.1707E-06  0.1722E-06  0.1706E-06  0.1721E-06  0.2778E-09  0.2804E-09  0.2779E-09  0.2804E-09  0.1390E-09  0.1401E-09  0.2778E-09  0.2804E-09  0.1571E-09  0.1584E-09
     -3.338  0.2536E-03  0.2554E-03  0.8210E-06  0.8278E-06  0.8210E-06  0.8278E-06  0.8207E-06  0.8276E-06  0.1332E-08  0.1344E-08  0.1332E-08  0.1344E-08  0.6506E-09  0.6557E-09  0.1332E-08  0.1344E-08  0.7320E-09  0.7378E-09
     -3.256  0.9107E-03  0.9153E-03  0.3510E-05  0.3535E-05  0.3510E-05  0.3535E-05  0.3510E-05  0.3534E-05  0.6442E-08  0.6496E-08  0.6443E-08  0.6496E-08  0.2908E-08  0.2928E-08  0.6442E-08  0.6496E-08  0.3255E-08  0.3277E-08
     -3.174  0.2056E-02  0.2060E-02  0.1061E-04  0.1067E-04  0.1061E-04  0.1067E-04  0.1061E-04  0.1066E-04  0.2389E-07  0.2405E-07  0.2389E-07  0.2405E-07  0.1043E-07  0.1049E-07  0.2389E-07  0.2405E-07  0.1190E-07  0.1197E-07
     -3.092  0.3013E-02  0.3015E-02  0.2313E-04  0.2322E-04  0.2313E-04  0.2322E-04  0.2312E-04  0.2320E-04  0.6519E-07  0.6554E-07  0.6520E-07  0.6555E-07  0.3309E-07  0.3326E-07  0.6519E-07  0.6554E-07  0.3932E-07  0.3952E-07
     -3.009  0.4100E-02  0.4102E-02  0.4463E-04  0.4476E-04  0.4463E-04  0.4476E-04  0.4462E-04  0.4475E-04  0.1601E-06  0.1609E-06  0.1601E-06  0.1609E-06  0.7932E-07  0.7951E-07  0.1601E-06  0.1609E-06  0.9473E-07  0.9496E-07
     -2.927  0.4731E-02  0.4725E-02  0.6363E-04  0.6368E-04  0.6363E-04  0.6368E-04  0.6364E-04  0.6369E-04  0.3013E-06  0.3021E-06  0.3013E-06  0.3021E-06  0.1180E-06  0.1181E-06  0.3013E-06  0.3021E-06  0.1378E-06  0.1379E-06
     -2.845  0.4555E-02  0.4553E-02  0.8003E-04  0.8019E-04  0.8003E-04  0.8019E-04  0.7998E-04  0.8014E-04  0.4839E-06  0.4855E-06  0.4840E-06  0.4855E-06  0.1927E-06  0.1933E-06  0.4839E-06  0.4855E-06  0.2179E-06  0.2185E-06
     -2.763  0.5741E-02  0.5743E-02  0.1251E-03  0.1254E-03  0.1251E-03  0.1254E-03  0.1250E-03  0.1253E-03  0.7997E-06  0.8015E-06  0.7997E-06  0.8015E-06  0.4054E-06  0.4064E-06  0.7997E-06  0.8015E-06  0.4751E-06  0.4764E-06
     -2.681  0.6327E-02  0.6319E-02  0.1576E-03  0.1577E-03  0.1576E-03  0.1577E-03  0.1576E-03  0.1577E-03  0.1084E-05  0.1086E-05  0.1084E-05  0.1087E-05  0.5934E-06  0.5932E-06  0.1084E-05  0.1086E-05  0.7160E-06  0.7158E-06
     -2.598  0.6081E-02  0.6076E-02  0.1758E-03  0.1760E-03  0.1758E-03  0.1760E-03  0.1759E-03  0.1760E-03  0.1630E-05  0.1635E-05  0.1631E-05  0.1635E-05  0.6265E-06  0.6261E-06  0.1630E-05  0.1635E-05  0.7318E-06  0.7312E-06
     -2.516  0.6608E-02  0.6603E-02  0.2179E-03  0.2180E-03  0.2179E-03  0.2180E-03  0.2179E-03  0.2180E-03  0.2433E-05  0.2436E-05  0.2432E-05  0.2436E-05  0.7746E-06  0.7750E-06  0.2433E-05  0.2436E-05  0.8725E-06  0.8730E-06
     -2.434  0.6105E-02  0.6094E-02  0.2277E-03  0.2277E-03  0.2277E-03  0.2277E-03  0.2275E-03  0.2275E-03  0.2535E-05  0.2535E-05  0.2534E-05  0.2534E-05  0.1025E-05  0.1026E-05  0.2535E-05  0.2535E-05  0.1206E-05  0.1208E-05
     -2.352  0.6720E-02  0.6723E-02  0.2938E-03  0.2944E-03  0.2938E-03  0.2944E-03  0.2933E-03  0.2939E-03  0.3238E-05  0.3246E-05  0.3240E-05  0.3248E-05  0.1706E-05  0.1709E-05  0.3238E-05  0.3246E-05  0.2066E-05  0.2070E-05
     -2.270  0.8099E-02  0.8092E-02  0.3845E-03  0.3847E-03  0.3845E-03  0.3847E-03  0.3845E-03  0.3847E-03  0.4807E-05  0.4814E-05  0.4810E-05  0.4817E-05  0.2289E-05  0.2287E-05  0.4807E-05  0.4814E-05  0.2697E-05  0.2695E-05
     -2.187  0.7947E-02  0.7937E-02  0.4097E-03  0.4098E-03  0.4097E-03  0.4098E-03  0.4098E-03  0.4098E-03  0.6012E-05  0.6019E-05  0.6012E-05  0.6019E-05  0.2398E-05  0.2396E-05  0.6012E-05  0.6019E-05  0.2750E-05  0.2747E-05
     -2.105  0.7539E-02  0.7525E-02  0.4211E-03  0.4209E-03  0.4211E-03  0.4209E-03  0.4214E-03  0.4212E-03  0.7089E-05  0.7091E-05  0.7083E-05  0.7086E-05  0.2355E-05  0.2350E-05  0.7089E-05  0.7091E-05  0.2724E-05  0.2719E-05
     -2.023  0.6181E-02  0.6169E-02  0.3778E-03  0.3777E-03  0.3778E-03  0.3777E-03  0.3778E-03  0.3776E-03  0.7231E-05  0.7230E-05  0.7230E-05  0.7229E-05  0.2011E-05  0.2009E-05  0.7231E-05  0.7230E-05  0.2339E-05  0.2337E-05
     -1.941  0.6672E-02  0.6677E-02  0.4747E-03  0.4758E-03  0.4747E-03  0.4758E-03  0.4732E-03  0.4742E-03  0.8893E-05  0.8910E-05  0.8908E-05  0.8925E-05  0.3171E-05  0.3181E-05  0.8893E-05  0.8910E-05  0.3708E-05  0.3719E-05
     -1.859  0.8851E-02  0.8849E-02  0.6919E-03  0.6926E-03  0.6919E-03  0.6926E-03  0.6908E-03  0.6915E-03  0.1234E-04  0.1235E-04  0.1234E-04  0.1236E-04  0.5341E-05  0.5344E-05  0.1234E-04  0.1235E-04  0.6266E-05  0.6270E-05
     -1.776  0.8594E-02  0.8578E-02  0.7193E-03  0.7189E-03  0.7193E-03  0.7189E-03  0.7197E-03  0.7193E-03  0.1359E-04  0.1359E-04  0.1358E-04  0.1358E-04  0.5603E-05  0.5595E-05  0.1359E-04  0.1359E-04  0.6668E-05  0.6658E-05
     -1.694  0.8328E-02  0.8320E-02  0.7538E-03  0.7540E-03  0.7538E-03  0.7540E-03  0.7535E-03  0.7537E-03  0.1633E-04  0.1634E-04  0.1633E-04  0.1635E-04  0.5633E-05  0.5631E-05  0.1633E-04  0.1634E-04  0.6736E-05  0.6734E-05
     -1.612  0.7357E-02  0.7336E-02  0.7091E-03  0.7079E-03  0.7091E-03  0.7079E-03  0.7102E-03  0.7090E-03  0.1640E-04  0.1639E-04  0.1640E-04  0.1638E-04  0.5390E-05  0.5379E-05  0.1640E-04  0.1639E-04  0.6370E-05  0.6356E-05
     -1.530  0.6056E-02  0.6053E-02  0.6451E-03  0.6458E-03  0.6451E-03  0.6458E-03  0.6445E-03  0.6451E-03  0.1741E-04  0.1744E-04  0.1744E-04  0.1747E-04  0.4651E-05  0.4652E-05  0.1741E-04  0.1744E-04  0.5218E-05  0.5218E-05
     -1.448  0.7771E-02  0.7776E-02  0.9417E-03  0.9437E-03  0.9417E-03  0.9437E-03  0.9382E-03  0.9402E-03  0.2673E-04  0.2679E-04  0.2676E-04  0.2681E-04  0.6228E-05  0.6239E-05  0.2673E-04  0.2679E-04  0.6908E-05  0.6922E-05
     -1.366  0.8488E-02  0.8476E-02  0.1221E-02  0.1222E-02  0.1221E-02  0.1222E-02  0.1218E-02  0.1219E-02  0.3131E-04  0.3130E-04  0.3129E-04  0.3128E-04  0.7766E-05  0.7767E-05  0.3131E-04  0.3130E-04  0.8862E-05  0.8866E-05
     -1.283  0.6987E-02  0.6970E-02  0.1215E-02  0.1214E-02  0.1215E-02  0.1214E-02  0.1215E-02  0.1214E-02  0.2899E-04  0.2898E-04  0.2897E-04  0.2896E-04  0.7381E-05  0.7372E-05  0.2899E-04  0.2898E-04  0.8633E-05  0.8625E-05
     -1.201  0.5905E-02  0.5896E-02  0.1189E-02  0.1189E-02  0.1189E-02  0.1189E-02  0.1188E-02  0.1188E-02  0.3050E-04  0.3052E-04  0.3053E-04  0.3055E-04  0.6982E-05  0.6980E-05  0.3050E-04  0.3052E-04  0.8287E-05  0.8285E-05
     -1.119  0.5603E-02  0.5598E-02  0.1246E-02  0.1246E-02  0.1246E-02  0.1246E-02  0.1247E-02  0.1247E-02  0.3589E-04  0.3594E-04  0.3594E-04  0.3599E-04  0.7165E-05  0.7162E-05  0.3589E-04  0.3594E-04  0.8314E-05  0.8308E-05
     -1.037  0.6513E-02  0.6513E-02  0.1307E-02  0.1307E-02  0.1307E-02  0.1307E-02  0.1309E-02  0.1309E-02  0.4898E-04  0.4907E-04  0.4905E-04  0.4914E-04  0.7340E-05  0.7340E-05  0.4898E-04  0.4907E-04  0.7949E-05  0.7946E-05
     -0.955  0.6829E-02  0.6819E-02  0.1428E-02  0.1428E-02  0.1428E-02  0.1428E-02  0.1426E-02  0.1426E-02  0.5979E-04  0.5982E-04  0.5981E-04  0.5984E-04  0.7712E-05  0.7710E-05  0.5979E-04  0.5982E-04  0.8337E-05  0.8337E-05
     -0.872  0.5886E-02  0.5873E-02  0.1429E-02  0.1428E-02  0.1429E-02  0.1428E-02  0.1430E-02  0.1428E-02  0.6161E-04  0.6159E-04  0.6157E-04  0.6155E-04  0.7370E-05  0.7362E-05  0.6161E-04  0.6159E-04  0.8157E-05  0.8148E-05
     -0.790  0.4379E-02  0.4363E-02  0.1131E-02  0.1128E-02  0.1131E-02  0.1128E-02  0.1135E-02  0.1132E-02  0.5228E-04  0.5219E-04  0.5214E-04  0.5204E-04  0.5627E-05  0.5610E-05  0.5228E-04  0.5219E-04  0.6205E-05  0.6187E-05
     -0.708  0.3184E-02  0.3180E-02  0.9100E-03  0.9096E-03  0.9100E-03  0.9096E-03  0.9106E-03  0.9102E-03  0.4704E-04  0.4707E-04  0.4704E-04  0.4708E-04  0.4179E-05  0.4176E-05  0.4704E-04  0.4707E-04  0.4667E-05  0.4664E-05
     -0.626  0.3915E-02  0.3919E-02  0.1043E-02  0.1044E-02  0.1043E-02  0.1044E-02  0.1043E-02  0.1044E-02  0.6216E-04  0.6229E-04  0.6231E-04  0.6245E-04  0.5210E-05  0.5222E-05  0.6216E-04  0.6229E-04  0.5583E-05  0.5594E-05
     -0.544  0.5464E-02  0.5465E-02  0.1361E-02  0.1362E-02  0.1361E-02  0.1362E-02  0.1357E-02  0.1358E-02  0.8809E-04  0.8822E-04  0.8831E-04  0.8843E-04  0.9609E-05  0.9641E-05  0.8809E-04  0.8822E-04  0.1036E-04  0.1040E-04
     -0.461  0.6273E-02  0.6264E-02  0.1412E-02  0.1410E-02  0.1412E-02  0.1410E-02  0.1412E-02  0.1410E-02  0.9151E-04  0.9138E-04  0.9133E-04  0.9124E-04  0.1971E-04  0.1977E-04  0.9151E-04  0.9138E-04  0.2336E-04  0.2344E-04
     -0.379  0.8254E-02  0.8255E-02  0.1244E-02  0.1242E-02  0.1244E-02  0.1242E-02  0.1246E-02  0.1244E-02  0.7929E-04  0.7922E-04  0.7911E-04  0.7904E-04  0.3849E-04  0.3858E-04  0.7929E-04  0.7922E-04  0.4792E-04  0.4804E-04
     -0.297  0.9631E-02  0.9621E-02  0.1096E-02  0.1093E-02  0.1096E-02  0.1093E-02  0.1099E-02  0.1097E-02  0.6918E-04  0.6907E-04  0.6897E-04  0.6886E-04  0.5019E-04  0.5020E-04  0.6918E-04  0.6907E-04  0.6315E-04  0.6317E-04