   4   4   1   0
  0.1719495E+02  0.4096286E-09  0.4097654E-09  0.4097654E-09  0.5000000E-15
  1.000000000000000E-004
  CAR 
 unknown system                          
     18.52908714     -4.62351335  301      6.72011781      1.00000000
     -4.624  0.0000E+00  0.0000E+00  0.0000E+00  0.0000E+00
     -4.546  0.0000E+00  0.0000E+00  0.0000E+00  0.0000E+00
     -4.469  0.0000E+00  0.0000E+00  0.0000E+00  0.0000E+00
     -4.392  0.0000E+00  0.0000E+00  0.0000E+00  0.0000E+00
     -4.315  0.0000E+00  0.0000E+00  0.0000E+00  0.0000E+00
     -4.238  0.0000E+00  0.0000E+00  0.0000E+00  0.0000E+00
     -4.160  0.0000E+00  0.0000E+00  0.0000E+00  0.0000E+00
     -4.083  0.0000E+00  0.0000E+00  0.0000E+00  0.0000E+00
     -4.006  0.9826E-06  0.9550E-06  0.7583E-07  0.7370E-07
     -3.929  0.2041E-04  0.1984E-04  0.1651E-05  0.1605E-05
     -3.852  0.8640E-04  0.8398E-04  0.8319E-05  0.8086E-05
     -3.775  0.4178E-03  0.4061E-03  0.4056E-04  0.3943E-04
     -3.697  0.1903E-02  0.1851E-02  0.1874E-03  0.1823E-03
     -3.620  0.7954E-02  0.7759E-02  0.8013E-03  0.7811E-03
     -3.543  0.2622E-01  0.2573E-01  0.2825E-02  0.2767E-02
     -3.466  0.5698E-01  0.5640E-01  0.7222E-02  0.7120E-02
     -3.389  0.8475E-01  0.8426E-01  0.1376E-01  0.1362E-01
     -3.312  0.1158E+00  0.1152E+00  0.2270E-01  0.2251E-01
     -3.234  0.1344E+00  0.1344E+00  0.3307E-01  0.3289E-01
     -3.157  0.1356E+00  0.1353E+00  0.4354E-01  0.4333E-01
     -3.080  0.1699E+00  0.1692E+00  0.5665E-01  0.5639E-01
     -3.003  0.1892E+00  0.1892E+00  0.7126E-01  0.7100E-01
     -2.926  0.1879E+00  0.1877E+00  0.8576E-01  0.8549E-01
     -2.848  0.2042E+00  0.2040E+00  0.1015E+00  0.1012E+00
     -2.771  0.1965E+00  0.1967E+00  0.1167E+00  0.1164E+00
     -2.694  0.2209E+00  0.2198E+00  0.1338E+00  0.1334E+00
     -2.617  0.2656E+00  0.2652E+00  0.1543E+00  0.1539E+00
     -2.540  0.2673E+00  0.2674E+00  0.1749E+00  0.1745E+00
     -2.463  0.2573E+00  0.2578E+00  0.1948E+00  0.1944E+00
     -2.385  0.2217E+00  0.2221E+00  0.2119E+00  0.2116E+00
     -2.308  0.2487E+00  0.2473E+00  0.2311E+00  0.2307E+00
     -2.231  0.3289E+00  0.3279E+00  0.2565E+00  0.2560E+00
     -2.154  0.3323E+00  0.3328E+00  0.2822E+00  0.2817E+00
     -2.077  0.3290E+00  0.3289E+00  0.3076E+00  0.3071E+00
     -2.000  0.2999E+00  0.3012E+00  0.3307E+00  0.3304E+00
     -1.922  0.2651E+00  0.2645E+00  0.3512E+00  0.3508E+00
     -1.845  0.3491E+00  0.3472E+00  0.3782E+00  0.3776E+00
     -1.768  0.4151E+00  0.4148E+00  0.4102E+00  0.4096E+00
     -1.691  0.3872E+00  0.3880E+00  0.4401E+00  0.4396E+00
     -1.614  0.3599E+00  0.3600E+00  0.4679E+00  0.4674E+00
     -1.536  0.3618E+00  0.3616E+00  0.4958E+00  0.4953E+00
     -1.459  0.3882E+00  0.3874E+00  0.5258E+00  0.5252E+00
     -1.382  0.4189E+00  0.4187E+00  0.5582E+00  0.5576E+00
     -1.305  0.3999E+00  0.4007E+00  0.5891E+00  0.5885E+00
     -1.228  0.3166E+00  0.3185E+00  0.6135E+00  0.6131E+00
     -1.151  0.2523E+00  0.2525E+00  0.6330E+00  0.6327E+00
     -1.073  0.2854E+00  0.2842E+00  0.6551E+00  0.6546E+00
     -0.996  0.3709E+00  0.3696E+00  0.6837E+00  0.6832E+00
     -0.919  0.3942E+00  0.3945E+00  0.7142E+00  0.7136E+00
     -0.842  0.3820E+00  0.3819E+00  0.7437E+00  0.7431E+00
     -0.765  0.3741E+00  0.3746E+00  0.7725E+00  0.7720E+00
     -0.688  0.3481E+00  0.3478E+00  0.7994E+00  0.7989E+00
     -0.610  0.4019E+00  0.4005E+00  0.8304E+00  0.8298E+00
     -0.533  0.4627E+00  0.4622E+00  0.8662E+00  0.8655E+00
     -0.456  0.4452E+00  0.4461E+00  0.9005E+00  0.9000E+00
     -0.379  0.3940E+00  0.3947E+00  0.9310E+00  0.9305E+00
     -0.302  0.3555E+00  0.3561E+00  0.9584E+00  0.9579E+00
     -0.225  0.3665E+00  0.3655E+00  0.9868E+00  0.9862E+00
     -0.147  0.4352E+00  0.4337E+00  0.1020E+01  0.1020E+01
     -0.070  0.5244E+00  0.5229E+00  0.1061E+01  0.1060E+01
      0.007  0.5501E+00  0.5505E+00  0.1103E+01  0.1103E+01
      0.084  0.4881E+00  0.4896E+00  0.1141E+01  0.1140E+01
      0.161  0.4212E+00  0.4217E+00  0.1174E+01  0.1173E+01
      0.239  0.4574E+00  0.4558E+00  0.1209E+01  0.1208E+01
      0.316  0.5412E+00  0.5401E+00  0.1251E+01  0.1250E+01
      0.393  0.5332E+00  0.5345E+00  0.1292E+01  0.1291E+01
      0.470  0.4350E+00  0.4368E+00  0.1325E+01  0.1325E+01
      0.547  0.3767E+00  0.3768E+00  0.1355E+01  0.1354E+01
      0.624  0.4473E+00  0.4447E+00  0.1389E+01  0.1388E+01
      0.702  0.6212E+00  0.6182E+00  0.1437E+01  0.1436E+01
      0.779  0.6975E+00  0.6977E+00  0.1491E+01  0.1490E+01
      0.856  0.6286E+00  0.6303E+00  0.1539E+01  0.1539E+01
      0.933  0.5276E+00  0.5295E+00  0.1580E+01  0.1580E+01
      1.010  0.4953E+00  0.4941E+00  0.1618E+01  0.1618E+01
      1.087  0.5896E+00  0.5886E+00  0.1664E+01  0.1663E+01
      1.165  0.5573E+00  0.5591E+00  0.1707E+01  0.1706E+01
      1.242  0.4992E+00  0.4993E+00  0.1746E+01  0.1745E+01
      1.319  0.4960E+00  0.4966E+00  0.1784E+01  0.1783E+01
      1.396  0.4319E+00  0.4329E+00  0.1817E+01  0.1817E+01
      1.473  0.4451E+00  0.4437E+00  0.1852E+01  0.1851E+01
      1.551  0.5215E+00  0.5206E+00  0.1892E+01  0.1891E+01
      1.628  0.5863E+00  0.5851E+00  0.1937E+01  0.1936E+01
      1.705  0.6114E+00  0.6123E+00  0.1984E+01  0.1984E+01
      1.782  0.5414E+00  0.5421E+00  0.2026E+01  0.2026E+01
      1.859  0.5838E+00  0.5816E+00  0.2071E+01  0.2070E+01
      1.936  0.7110E+00  0.7096E+00  0.2126E+01  0.2125E+01
      2.014  0.6710E+00  0.6731E+00  0.2178E+01  0.2177E+01
      2.091  0.5481E+00  0.5504E+00  0.2220E+01  0.2220E+01
      2.168  0.4062E+00  0.4082E+00  0.2252E+01  0.2251E+01
      2.245  0.4237E+00  0.4213E+00  0.2285E+01  0.2284E+01
      2.322  0.5927E+00  0.5902E+00  0.2330E+01  0.2329E+01
      2.399  0.6438E+00  0.6442E+00  0.2380E+01  0.2379E+01
      2.477  0.6197E+00  0.6193E+00  0.2428E+01  0.2427E+01
      2.554  0.6936E+00  0.6920E+00  0.2481E+01  0.2480E+01
      2.631  0.7303E+00  0.7307E+00  0.2538E+01  0.2537E+01
      2.708  0.6772E+00  0.6786E+00  0.2590E+01  0.2589E+01
      2.785  0.6146E+00  0.6159E+00  0.2638E+01  0.2637E+01
      2.862  0.5919E+00  0.5922E+00  0.2683E+01  0.2683E+01
      2.940  0.5894E+00  0.5889E+00  0.2729E+01  0.2728E+01
      3.017  0.6193E+00  0.6186E+00  0.2777E+01  0.2776E+01
      3.094  0.6609E+00  0.6603E+00  0.2828E+01  0.2827E+01
      3.171  0.7105E+00  0.7104E+00  0.2883E+01  0.2882E+01
      3.248  0.6961E+00  0.6967E+00  0.2936E+01  0.2936E+01
      3.326  0.6919E+00  0.6909E+00  0.2990E+01  0.2989E+01
      3.403  0.7803E+00  0.7788E+00  0.3050E+01  0.3049E+01
      3.480  0.8116E+00  0.8125E+00  0.3113E+01  0.3112E+01
      3.557  0.7155E+00  0.7172E+00  0.3168E+01  0.3167E+01
      3.634  0.6041E+00  0.6064E+00  0.3215E+01  0.3214E+01
      3.711  0.5045E+00  0.5054E+00  0.3254E+01  0.3253E+01
      3.789  0.5867E+00  0.5836E+00  0.3299E+01  0.3298E+01
      3.866  0.7635E+00  0.7616E+00  0.3358E+01  0.3357E+01
      3.943  0.7188E+00  0.7207E+00  0.3414E+01  0.3413E+01
      4.020  0.6915E+00  0.6903E+00  0.3467E+01  0.3466E+01
      4.097  0.8134E+00  0.8127E+00  0.3530E+01  0.3529E+01
      4.174  0.7773E+00  0.7787E+00  0.3590E+01  0.3589E+01
      4.252  0.7767E+00  0.7754E+00  0.3650E+01  0.3649E+01
      4.329  0.8864E+00  0.8849E+00  0.3718E+01  0.3717E+01
      4.406  0.8654E+00  0.8667E+00  0.3785E+01  0.3784E+01
      4.483  0.7392E+00  0.7417E+00  0.3842E+01  0.3841E+01
      4.560  0.6137E+00  0.6161E+00  0.3890E+01  0.3889E+01
      4.638  0.6006E+00  0.5994E+00  0.3936E+01  0.3935E+01
      4.715  0.7002E+00  0.6990E+00  0.3990E+01  0.3989E+01
      4.792  0.7230E+00  0.7226E+00  0.4046E+01  0.4045E+01
      4.869  0.7912E+00  0.7901E+00  0.4107E+01  0.4106E+01
      4.946  0.8353E+00  0.8344E+00  0.4172E+01  0.4171E+01
      5.023  0.9036E+00  0.9015E+00  0.4241E+01  0.4240E+01
      5.101  0.9106E+00  0.9129E+00  0.4312E+01  0.4311E+01
      5.178  0.7026E+00  0.7062E+00  0.4366E+01  0.4365E+01
      5.255  0.5879E+00  0.5884E+00  0.4411E+01  0.4411E+01
      5.332  0.6143E+00  0.6130E+00  0.4459E+01  0.4458E+01
      5.409  0.6317E+00  0.6317E+00  0.4508E+01  0.4507E+01
      5.486  0.6172E+00  0.6163E+00  0.4555E+01  0.4554E+01
      5.564  0.7158E+00  0.7143E+00  0.4611E+01  0.4610E+01
      5.641  0.8258E+00  0.8245E+00  0.4674E+01  0.4673E+01
      5.718  0.8826E+00  0.8807E+00  0.4742E+01  0.4741E+01
      5.795  0.9661E+00  0.9645E+00  0.4817E+01  0.4816E+01
      5.872  0.8742E+00  0.8778E+00  0.4885E+01  0.4884E+01
      5.950  0.6473E+00  0.6510E+00  0.4935E+01  0.4934E+01
      6.027  0.6369E+00  0.6355E+00  0.4984E+01  0.4983E+01
      6.104  0.6770E+00  0.6768E+00  0.5036E+01  0.5035E+01
      6.181  0.5675E+00  0.5691E+00  0.5080E+01  0.5079E+01
      6.258  0.5743E+00  0.5714E+00  0.5124E+01  0.5123E+01
      6.335  0.7931E+00  0.7890E+00  0.5186E+01  0.5184E+01
      6.413  0.8745E+00  0.8756E+00  0.5253E+01  0.5252E+01
      6.490  0.8252E+00  0.8257E+00  0.5317E+01  0.5316E+01
      6.567  0.8692E+00  0.8694E+00  0.5384E+01  0.5383E+01
      6.644  0.8206E+00  0.8229E+00  0.5447E+01  0.5446E+01
      6.721  0.6980E+00  0.6993E+00  0.5501E+01  0.5500E+01
      6.798  0.6295E+00  0.6298E+00  0.5550E+01  0.5549E+01
      6.876  0.5648E+00  0.5642E+00  0.5593E+01  0.5593E+01
      6.953  0.6675E+00  0.6631E+00  0.5645E+01  0.5644E+01
      7.030  0.9370E+00  0.9335E+00  0.5717E+01  0.5716E+01
      7.107  0.1000E+01  0.1002E+01  0.5795E+01  0.5793E+01
      7.184  0.8411E+00  0.8445E+00  0.5860E+01  0.5859E+01
      7.261  0.6781E+00  0.6791E+00  0.5912E+01  0.5911E+01
      7.339  0.6962E+00  0.6952E+00  0.5966E+01  0.5965E+01
      7.416  0.7579E+00  0.7570E+00  0.6024E+01  0.6023E+01
      7.493  0.7624E+00  0.7606E+00  0.6083E+01  0.6082E+01
      7.570  0.8113E+00  0.8099E+00  0.6146E+01  0.6144E+01
      7.647  0.9410E+00  0.9394E+00  0.6218E+01  0.6217E+01
      7.725  0.1019E+01  0.1018E+01  0.6297E+01  0.6296E+01
      7.802  0.1089E+01  0.1087E+01  0.6381E+01  0.6379E+01
      7.879  0.1111E+01  0.1112E+01  0.6467E+01  0.6465E+01
      7.956  0.9124E+00  0.9178E+00  0.6537E+01  0.6536E+01
      8.033  0.7029E+00  0.7067E+00  0.6592E+01  0.6591E+01
      8.110  0.6094E+00  0.6096E+00  0.6639E+01  0.6638E+01
      8.188  0.6792E+00  0.6754E+00  0.6691E+01  0.6690E+01
      8.265  0.8827E+00  0.8779E+00  0.6760E+01  0.6758E+01
      8.342  0.1039E+01  0.1038E+01  0.6840E+01  0.6838E+01
      8.419  0.1053E+01  0.1055E+01  0.6921E+01  0.6920E+01
      8.496  0.9587E+00  0.9615E+00  0.6995E+01  0.6994E+01
      8.573  0.8392E+00  0.8396E+00  0.7060E+01  0.7059E+01
      8.651  0.8490E+00  0.8469E+00  0.7126E+01  0.7124E+01
      8.728  0.9405E+00  0.9378E+00  0.7198E+01  0.7197E+01
      8.805  0.1044E+01  0.1044E+01  0.7279E+01  0.7277E+01
      8.882  0.9054E+00  0.9112E+00  0.7349E+01  0.7348E+01
      8.959  0.6626E+00  0.6650E+00  0.7400E+01  0.7399E+01
      9.037  0.6877E+00  0.6838E+00  0.7453E+01  0.7452E+01
      9.114  0.9118E+00  0.9088E+00  0.7524E+01  0.7522E+01
      9.191  0.8850E+00  0.8895E+00  0.7592E+01  0.7591E+01
      9.268  0.6813E+00  0.6855E+00  0.7645E+01  0.7644E+01
      9.345  0.6769E+00  0.6758E+00  0.7697E+01  0.7696E+01
      9.422  0.8289E+00  0.8234E+00  0.7761E+01  0.7759E+01
      9.500  0.1030E+01  0.1024E+01  0.7840E+01  0.7839E+01
      9.577  0.1079E+01  0.1078E+01  0.7924E+01  0.7922E+01
      9.654  0.9698E+00  0.9712E+00  0.7999E+01  0.7997E+01
      9.731  0.9688E+00  0.9677E+00  0.8073E+01  0.8072E+01
      9.808  0.1051E+01  0.1052E+01  0.8154E+01  0.8153E+01
      9.885  0.9111E+00  0.9143E+00  0.8225E+01  0.8223E+01
      9.963  0.8210E+00  0.8203E+00  0.8288E+01  0.8287E+01
     10.040  0.9153E+00  0.9113E+00  0.8359E+01  0.8357E+01
     10.117  0.1073E+01  0.1072E+01  0.8442E+01  0.8440E+01
     10.194  0.1029E+01  0.1032E+01  0.8521E+01  0.8520E+01
     10.271  0.9520E+00  0.9514E+00  0.8595E+01  0.8593E+01
     10.349  0.1045E+01  0.1043E+01  0.8676E+01  0.8674E+01
     10.426  0.1003E+01  0.1008E+01  0.8753E+01  0.8752E+01
     10.503  0.7858E+00  0.7890E+00  0.8814E+01  0.8813E+01
     10.580  0.6831E+00  0.6820E+00  0.8867E+01  0.8865E+01
     10.657  0.7052E+00  0.7020E+00  0.8921E+01  0.8920E+01
     10.734  0.9627E+00  0.9554E+00  0.8995E+01  0.8993E+01
     10.812  0.1162E+01  0.1162E+01  0.9085E+01  0.9083E+01
     10.889  0.9977E+00  0.1003E+01  0.9162E+01  0.9160E+01
     10.966  0.8780E+00  0.8800E+00  0.9230E+01  0.9228E+01
     11.043  0.9237E+00  0.9200E+00  0.9301E+01  0.9299E+01
     11.120  0.1189E+01  0.1182E+01  0.9393E+01  0.9391E+01
     11.197  0.1260E+01  0.1261E+01  0.9490E+01  0.9488E+01
     11.275  0.1045E+01  0.1050E+01  0.9571E+01  0.9569E+01
     11.352  0.9534E+00  0.9547E+00  0.9645E+01  0.9643E+01
     11.429  0.9331E+00  0.9341E+00  0.9717E+01  0.9715E+01
     11.506  0.9670E+00  0.9621E+00  0.9792E+01  0.9789E+01
     11.583  0.1159E+01  0.1154E+01  0.9881E+01  0.9879E+01
     11.660  0.1243E+01  0.1244E+01  0.9977E+01  0.9975E+01
     11.738  0.1190E+01  0.1195E+01  0.1007E+02  0.1007E+02
     11.815  0.1088E+01  0.1094E+01  0.1015E+02  0.1015E+02
     11.892  0.8953E+00  0.9003E+00  0.1022E+02  0.1022E+02
     11.969  0.7329E+00  0.7331E+00  0.1028E+02  0.1028E+02
     12.046  0.7075E+00  0.7039E+00  0.1033E+02  0.1033E+02
     12.124  0.8128E+00  0.8090E+00  0.1040E+02  0.1039E+02
     12.201  0.9872E+00  0.9816E+00  0.1047E+02  0.1047E+02
     12.278  0.1075E+01  0.1075E+01  0.1056E+02  0.1055E+02
     12.355  0.9521E+00  0.9573E+00  0.1063E+02  0.1063E+02
     12.432  0.9510E+00  0.9499E+00  0.1070E+02  0.1070E+02
     12.509  0.1152E+01  0.1149E+01  0.1079E+02  0.1079E+02
     12.587  0.1153E+01  0.1147E+01  0.1088E+02  0.1088E+02
     12.664  0.1087E+01  0.1083E+01  0.1096E+02  0.1096E+02
     12.741  0.9138E+00  0.9233E+00  0.1103E+02  0.1103E+02
     12.818  0.7270E+00  0.7293E+00  0.1109E+02  0.1109E+02
     12.895  0.6655E+00  0.6591E+00  0.1114E+02  0.1114E+02
     12.972  0.6635E+00  0.6658E+00  0.1119E+02  0.1119E+02
     13.050  0.6298E+00  0.6360E+00  0.1124E+02  0.1124E+02
     13.127  0.5730E+00  0.5781E+00  0.1129E+02  0.1129E+02
     13.204  0.5623E+00  0.5627E+00  0.1133E+02  0.1133E+02
     13.281  0.5780E+00  0.5817E+00  0.1137E+02  0.1137E+02
     13.358  0.4855E+00  0.4919E+00  0.1141E+02  0.1141E+02
     13.436  0.3998E+00  0.4073E+00  0.1144E+02  0.1144E+02
     13.513  0.3245E+00  0.3316E+00  0.1147E+02  0.1147E+02
     13.590  0.2698E+00  0.2689E+00  0.1149E+02  0.1149E+02
     13.667  0.2732E+00  0.2664E+00  0.1151E+02  0.1151E+02
     13.744  0.3331E+00  0.3328E+00  0.1154E+02  0.1154E+02
     13.821  0.3329E+00  0.3348E+00  0.1156E+02  0.1156E+02
     13.899  0.3043E+00  0.2990E+00  0.1159E+02  0.1158E+02
     13.976  0.3408E+00  0.3354E+00  0.1161E+02  0.1161E+02
     14.053  0.3178E+00  0.3175E+00  0.1164E+02  0.1164E+02
     14.130  0.2289E+00  0.2295E+00  0.1165E+02  0.1165E+02
     14.207  0.2487E+00  0.2479E+00  0.1167E+02  0.1167E+02
     14.284  0.3215E+00  0.3211E+00  0.1170E+02  0.1170E+02
     14.362  0.3157E+00  0.3193E+00  0.1172E+02  0.1172E+02
     14.439  0.1921E+00  0.1961E+00  0.1174E+02  0.1174E+02
     14.516  0.1133E+00  0.1134E+00  0.1175E+02  0.1175E+02
     14.593  0.1532E+00  0.1512E+00  0.1176E+02  0.1176E+02
     14.670  0.1915E+00  0.1912E+00  0.1177E+02  0.1177E+02
     14.747  0.1923E+00  0.1921E+00  0.1179E+02  0.1179E+02
     14.825  0.2301E+00  0.2277E+00  0.1181E+02  0.1180E+02
     14.902  0.3196E+00  0.3183E+00  0.1183E+02  0.1183E+02
     14.979  0.2551E+00  0.2597E+00  0.1185E+02  0.1185E+02
     15.056  0.1214E+00  0.1239E+00  0.1186E+02  0.1186E+02
     15.133  0.7738E-01  0.7812E-01  0.1186E+02  0.1186E+02
     15.211  0.5196E-01  0.5273E-01  0.1187E+02  0.1187E+02
     15.288  0.6117E-01  0.6027E-01  0.1187E+02  0.1187E+02
     15.365  0.1350E+00  0.1332E+00  0.1188E+02  0.1188E+02
     15.442  0.1615E+00  0.1623E+00  0.1190E+02  0.1190E+02
     15.519  0.1161E+00  0.1165E+00  0.1191E+02  0.1191E+02
     15.596  0.1184E+00  0.1177E+00  0.1191E+02  0.1191E+02
     15.674  0.1135E+00  0.1141E+00  0.1192E+02  0.1192E+02
     15.751  0.6663E-01  0.6823E-01  0.1193E+02  0.1193E+02
     15.828  0.2289E-01  0.2376E-01  0.1193E+02  0.1193E+02
     15.905  0.8902E-02  0.9019E-02  0.1193E+02  0.1193E+02
     15.982  0.1594E-01  0.1548E-01  0.1193E+02  0.1193E+02
     16.059  0.4749E-01  0.4645E-01  0.1194E+02  0.1194E+02
     16.137  0.8489E-01  0.8457E-01  0.1194E+02  0.1194E+02
     16.214  0.8991E-01  0.9023E-01  0.1195E+02  0.1195E+02
     16.291  0.7862E-01  0.7846E-01  0.1196E+02  0.1196E+02
     16.368  0.8928E-01  0.8940E-01  0.1196E+02  0.1196E+02
     16.445  0.9390E-01  0.9447E-01  0.1197E+02  0.1197E+02
     16.523  0.8191E-01  0.8135E-01  0.1198E+02  0.1198E+02
     16.600  0.6921E-01  0.6917E-01  0.1198E+02  0.1198E+02
     16.677  0.3825E-01  0.3932E-01  0.1198E+02  0.1198E+02
     16.754  0.1217E-01  0.1267E-01  0.1199E+02  0.1199E+02
     16.831  0.5553E-02  0.5546E-02  0.1199E+02  0.1199E+02
     16.908  0.1264E-01  0.1216E-01  0.1199E+02  0.1199E+02
     16.986  0.3441E-01  0.3358E-01  0.1199E+02  0.1199E+02
     17.063  0.4771E-01  0.4789E-01  0.1199E+02  0.1199E+02
     17.140  0.3013E-01  0.3092E-01  0.1200E+02  0.1200E+02
     17.217  0.1046E-01  0.1086E-01  0.1200E+02  0.1200E+02
     17.294  0.3487E-02  0.3560E-02  0.1200E+02  0.1200E+02
     17.371  0.4634E-02  0.4508E-02  0.1200E+02  0.1200E+02
     17.449  0.1237E-01  0.1209E-01  0.1200E+02  0.1200E+02
     17.526  0.1711E-01  0.1719E-01  0.1200E+02  0.1200E+02
     17.603  0.9093E-02  0.9360E-02  0.1200E+02  0.1200E+02
     17.680  0.2596E-02  0.2702E-02  0.1200E+02  0.1200E+02
     17.757  0.5951E-03  0.6212E-03  0.1200E+02  0.1200E+02
     17.835  0.1291E-03  0.1349E-03  0.1200E+02  0.1200E+02
     17.912  0.0000E+00  0.0000E+00  0.1200E+02  0.1200E+02
     17.989  0.0000E+00  0.0000E+00  0.1200E+02  0.1200E+02
     18.066  0.0000E+00  0.0000E+00  0.1200E+02  0.1200E+02
     18.143  0.0000E+00  0.0000E+00  0.1200E+02  0.1200E+02
     18.220  0.0000E+00  0.0000E+00  0.1200E+02  0.1200E+02
     18.298  0.0000E+00  0.0000E+00  0.1200E+02  0.1200E+02
     18.375  0.0000E+00  0.0000E+00  0.1200E+02  0.1200E+02
     18.452  0.0000E+00  0.0000E+00  0.1200E+02  0.1200E+02
     18.529  0.0000E+00  0.0000E+00  0.1200E+02  0.1200E+02
     18.52908714     -4.62351335  301      6.72011781      1.00000000
     -4.624  0.0000E+00  0.0000E+00  0.0000E+00  0.0000E+00  0.0000E+00  0.0000E+00  0.0000E+00  0.0000E+00  0.0000E+00  0.0000E+00  0.0000E+00  0.0000E+00  0.0000E+00  0.0000E+00  0.0000E+00  0.0000E+00  0.0000E+00  0.0000E+00
     -4.546  0.0000E+00  0.0000E+00  0.0000E+00  0.0000E+00  0.0000E+00  0.0000E+00  0.0000E+00  0.0000E+00  0.0000E+00  0.0000E+00  0.0000E+00  0.0000E+00  0.0000E+00  0.0000E+00  0.0000E+00  0.0000E+00  0.0000E+00  0.0000E+00
     -4.469  0.0000E+00  0.0000E+00  0.0000E+00  0.0000E+00  0.0000E+00  0.0000E+00  0.0000E+00  0.0000E+00  0.0000E+00  0.0000E+00  0.0000E+00  0.0000E+00  0.0000E+00  0.0000E+00  0.0000E+00  0.0000E+00  0.0000E+00  0.0000E+00
     -4.392  0.0000E+00  0.0000E+00  0.0000E+00  0.0000E+00  0.0000E+00  0.0000E+00  0.0000E+00  0.0000E+00  0.0000E+00  0.0000E+00  0.0000E+00  0.0000E+00  0.0000E+00  0.0000E+00  0.0000E+00  0.0000E+00  0.0000E+00  0.0000E+00
     -4.315  0.0000E+00  0.0000E+00  0.0000E+00  0.0000E+00  0.0000E+00  0.0000E+00  0.0000E+00  0.0000E+00  0.0000E+00  0.0000E+00  0.0000E+00  0.0000E+00  0.0000E+00  0.0000E+00  0.0000E+00  0.0000E+00  0.0000E+00  0.0000E+00
     -4.238  0.0000E+00  0.0000E+00  0.0000E+00  0.0000E+00  0.0000E+00  0.0000E+00  0.0000E+00  0.0000E+00  0.0000E+00  0.0000E+00  0.0000E+00  0.0000E+00  0.0000E+00  0.0000E+00  0.0000E+00  0.0000E+00  0.0000E+00  0.0000E+00
     -4.160  0.0000E+00  0.0000E+00  0.0000E+00  0.0000E+00  0.0000E+00  0.0000E+00  0.0000E+00  0.0000E+00  0.0000E+00  0.0000E+00  0.0000E+00  0.0000E+00  0.0000E+00  0.0000E+00  0.0000E+00  0.0000E+00  0.0000E+00  0.0000E+00
     -4.083  0.0000E+00  0.0000E+00  0.0000E+00  0.0000E+00  0.0000E+00  0.0000E+00  0.0000E+00  0.0000E+00  0.0000E+00  0.0000E+00  0.0000E+00  0.0000E+00  0.0000E+00  0.0000E+00  0.0000E+00  0.0000E+00  0.0000E+00  0.0000E+00
     -4.006  0.3460E-07  0.3360E-07  0.2759E-23  0.6524E-23  0.2759E-23  0.6524E-23  0.2482E-23  0.1688E-22  0.8793E-23  0.1657E-22  0.1044E-23  0.1532E-23  0.5314E-19  0.5352E-19  0.8793E-23  0.1657E-22  0.6814E-19  0.6871E-19
     -3.929  0.7110E-06  0.6905E-06  0.1752E-08  0.1702E-08  0.1752E-08  0.1702E-08  0.1751E-08  0.1702E-08  0.1755E-11  0.1706E-11  0.1755E-11  0.1706E-11  0.1024E-11  0.9938E-12  0.1755E-11  0.1706E-11  0.1070E-11  0.1038E-11
     -3.852  0.3006E-05  0.2920E-05  0.8142E-08  0.7913E-08  0.8142E-08  0.7913E-08  0.8142E-08  0.7913E-08  0.1227E-10  0.1193E-10  0.1226E-10  0.1192E-10  0.3764E-11  0.3655E-11  0.1227E-10  0.1193E-10  0.3933E-11  0.3819E-11
     -3.775  0.1451E-04  0.1410E-04  0.4430E-07  0.4305E-07  0.4430E-07  0.4305E-07  0.4428E-07  0.4304E-07  0.6544E-10  0.6364E-10  0.6545E-10  0.6364E-10  0.3589E-10  0.3484E-10  0.6544E-10  0.6364E-10  0.4071E-10  0.3952E-10
     -3.697  0.6608E-04  0.6423E-04  0.2070E-06  0.2013E-06  0.2070E-06  0.2013E-06  0.2070E-06  0.2012E-06  0.3427E-09  0.3333E-09  0.3427E-09  0.3333E-09  0.1590E-09  0.1544E-09  0.3427E-09  0.3333E-09  0.1804E-09  0.1752E-09
     -3.620  0.2760E-03  0.2690E-03  0.9141E-06  0.8900E-06  0.9141E-06  0.8900E-06  0.9139E-06  0.8897E-06  0.1544E-08  0.1502E-08  0.1544E-08  0.1503E-08  0.7097E-09  0.6900E-09  0.1544E-08  0.1502E-08  0.8003E-09  0.7780E-09
     -3.543  0.9073E-03  0.8899E-03  0.3539E-05  0.3460E-05  0.3539E-05  0.3460E-05  0.3538E-05  0.3459E-05  0.6667E-08  0.6503E-08  0.6667E-08  0.6503E-08  0.2887E-08  0.2815E-08  0.6667E-08  0.6503E-08  0.3256E-08  0.3174E-08
     -3.466  0.1961E-02  0.1940E-02  0.1012E-04  0.9962E-05  0.1012E-04  0.9962E-05  0.1012E-04  0.9959E-05  0.2301E-07  0.2256E-07  0.2301E-07  0.2256E-07  0.9913E-08  0.9692E-08  0.2301E-07  0.2256E-07  0.1141E-07  0.1114E-07
     -3.389  0.2886E-02  0.2868E-02  0.2171E-04  0.2143E-04  0.2171E-04  0.2143E-04  0.2170E-04  0.2142E-04  0.6099E-07  0.6000E-07  0.6100E-07  0.6001E-07  0.2955E-07  0.2897E-07  0.6099E-07  0.6000E-07  0.3510E-07  0.3440E-07
     -3.312  0.3893E-02  0.3870E-02  0.4078E-04  0.4038E-04  0.4078E-04  0.4038E-04  0.4077E-04  0.4037E-04  0.1449E-06  0.1428E-06  0.1449E-06  0.1428E-06  0.6743E-07  0.6660E-07  0.1449E-06  0.1428E-06  0.8035E-07  0.7937E-07
     -3.234  0.4469E-02  0.4466E-02  0.5799E-04  0.5777E-04  0.5799E-04  0.5777E-04  0.5799E-04  0.5777E-04  0.2680E-06  0.2657E-06  0.2680E-06  0.2657E-06  0.1024E-06  0.1016E-06  0.2680E-06  0.2657E-06  0.1194E-06  0.1186E-06
     -3.157  0.4431E-02  0.4419E-02  0.7476E-04  0.7425E-04  0.7476E-04  0.7425E-04  0.7471E-04  0.7420E-04  0.4346E-06  0.4305E-06  0.4347E-06  0.4306E-06  0.1710E-06  0.1686E-06  0.4346E-06  0.4305E-06  0.1945E-06  0.1917E-06
     -3.080  0.5453E-02  0.5427E-02  0.1136E-03  0.1128E-03  0.1136E-03  0.1128E-03  0.1135E-03  0.1128E-03  0.7036E-06  0.6989E-06  0.7036E-06  0.6988E-06  0.3424E-06  0.3383E-06  0.7036E-06  0.6989E-06  0.4019E-06  0.3968E-06
     -3.003  0.5993E-02  0.5988E-02  0.1430E-03  0.1427E-03  0.1430E-03  0.1427E-03  0.1430E-03  0.1427E-03  0.9698E-06  0.9641E-06  0.9698E-06  0.9642E-06  0.4941E-06  0.4920E-06  0.9698E-06  0.9641E-06  0.5943E-06  0.5917E-06
     -2.926  0.5854E-02  0.5845E-02  0.1618E-03  0.1612E-03  0.1618E-03  0.1612E-03  0.1618E-03  0.1613E-03  0.1449E-05  0.1437E-05  0.1449E-05  0.1438E-05  0.5368E-06  0.5349E-06  0.1449E-05  0.1437E-05  0.6268E-06  0.6252E-06
     -2.848  0.6254E-02  0.6243E-02  0.1972E-03  0.1966E-03  0.1972E-03  0.1966E-03  0.1971E-03  0.1966E-03  0.2107E-05  0.2098E-05  0.2106E-05  0.2098E-05  0.6623E-06  0.6583E-06  0.2107E-05  0.2098E-05  0.7504E-06  0.7458E-06
     -2.771  0.5903E-02  0.5905E-02  0.2111E-03  0.2108E-03  0.2111E-03  0.2108E-03  0.2109E-03  0.2106E-03  0.2267E-05  0.2265E-05  0.2265E-05  0.2264E-05  0.8905E-06  0.8829E-06  0.2267E-05  0.2265E-05  0.1049E-05  0.1039E-05
     -2.694  0.6459E-02  0.6425E-02  0.2694E-03  0.2677E-03  0.2694E-03  0.2677E-03  0.2691E-03  0.2673E-03  0.2898E-05  0.2876E-05  0.2900E-05  0.2877E-05  0.1436E-05  0.1422E-05  0.2898E-05  0.2876E-05  0.1734E-05  0.1717E-05
     -2.617  0.7643E-02  0.7627E-02  0.3470E-03  0.3461E-03  0.3470E-03  0.3461E-03  0.3470E-03  0.3461E-03  0.4211E-05  0.4189E-05  0.4213E-05  0.4191E-05  0.1905E-05  0.1898E-05  0.4211E-05  0.4189E-05  0.2245E-05  0.2238E-05
     -2.540  0.7566E-02  0.7562E-02  0.3728E-03  0.3724E-03  0.3728E-03  0.3724E-03  0.3728E-03  0.3724E-03  0.5280E-05  0.5260E-05  0.5279E-05  0.5260E-05  0.2015E-05  0.2010E-05  0.5280E-05  0.5260E-05  0.2316E-05  0.2311E-05
     -2.463  0.7155E-02  0.7162E-02  0.3818E-03  0.3821E-03  0.3818E-03  0.3821E-03  0.3821E-03  0.3823E-03  0.6193E-05  0.6182E-05  0.6189E-05  0.6177E-05  0.1977E-05  0.1979E-05  0.6193E-05  0.6182E-05  0.2288E-05  0.2289E-05
     -2.385  0.6022E-02  0.6031E-02  0.3533E-03  0.3533E-03  0.3533E-03  0.3533E-03  0.3532E-03  0.3532E-03  0.6451E-05  0.6444E-05  0.6450E-05  0.6443E-05  0.1779E-05  0.1774E-05  0.6451E-05  0.6444E-05  0.2071E-05  0.2065E-05
     -2.308  0.6474E-02  0.6435E-02  0.4404E-03  0.4372E-03  0.4404E-03  0.4372E-03  0.4391E-03  0.4359E-03  0.7918E-05  0.7869E-05  0.7929E-05  0.7880E-05  0.2722E-05  0.2688E-05  0.7918E-05  0.7869E-05  0.3185E-05  0.3147E-05
     -2.231  0.8300E-02  0.8269E-02  0.6212E-03  0.6188E-03  0.6212E-03  0.6188E-03  0.6203E-03  0.6178E-03  0.1073E-04  0.1069E-04  0.1074E-04  0.1070E-04  0.4389E-05  0.4362E-05  0.1073E-04  0.1069E-04  0.5155E-05  0.5122E-05
     -2.154  0.8191E-02  0.8196E-02  0.6567E-03  0.6569E-03  0.6567E-03  0.6569E-03  0.6570E-03  0.6572E-03  0.1203E-04  0.1201E-04  0.1202E-04  0.1200E-04  0.4686E-05  0.4686E-05  0.1203E-04  0.1201E-04  0.5573E-05  0.5572E-05
     -2.077  0.7892E-02  0.7882E-02  0.6837E-03  0.6827E-03  0.6837E-03  0.6827E-03  0.6836E-03  0.6825E-03  0.1423E-04  0.1419E-04  0.1424E-04  0.1419E-04  0.4707E-05  0.4697E-05  0.1423E-04  0.1419E-04  0.5624E-05  0.5612E-05
     -2.000  0.7013E-02  0.7038E-02  0.6489E-03  0.6509E-03  0.6489E-03  0.6509E-03  0.6497E-03  0.6517E-03  0.1453E-04  0.1455E-04  0.1452E-04  0.1455E-04  0.4501E-05  0.4512E-05  0.1453E-04  0.1455E-04  0.5313E-05  0.5329E-05
     -1.922  0.5938E-02  0.5926E-02  0.6100E-03  0.6079E-03  0.6100E-03  0.6079E-03  0.6094E-03  0.6073E-03  0.1569E-04  0.1560E-04  0.1572E-04  0.1562E-04  0.4013E-05  0.4005E-05  0.1569E-04  0.1560E-04  0.4523E-05  0.4518E-05
     -1.845  0.7342E-02  0.7305E-02  0.8629E-03  0.8570E-03  0.8629E-03  0.8570E-03  0.8598E-03  0.8539E-03  0.2321E-04  0.2307E-04  0.2324E-04  0.2310E-04  0.5213E-05  0.5182E-05  0.2321E-04  0.2307E-04  0.5806E-05  0.5770E-05
     -1.768  0.7971E-02  0.7974E-02  0.1108E-02  0.1106E-02  0.1108E-02  0.1106E-02  0.1106E-02  0.1103E-02  0.2726E-04  0.2725E-04  0.2725E-04  0.2724E-04  0.6398E-05  0.6387E-05  0.2726E-04  0.2725E-04  0.7307E-05  0.7292E-05
     -1.691  0.6684E-02  0.6705E-02  0.1113E-02  0.1114E-02  0.1113E-02  0.1114E-02  0.1113E-02  0.1114E-02  0.2587E-04  0.2589E-04  0.2586E-04  0.2587E-04  0.6120E-05  0.6130E-05  0.2587E-04  0.2589E-04  0.7148E-05  0.7157E-05
     -1.614  0.5657E-02  0.5663E-02  0.1093E-02  0.1092E-02  0.1093E-02  0.1092E-02  0.1092E-02  0.1092E-02  0.2720E-04  0.2714E-04  0.2722E-04  0.2716E-04  0.5797E-05  0.5794E-05  0.2720E-04  0.2714E-04  0.6861E-05  0.6857E-05
     -1.536  0.5355E-02  0.5347E-02  0.1134E-02  0.1134E-02  0.1134E-02  0.1134E-02  0.1136E-02  0.1135E-02  0.3185E-04  0.3172E-04  0.3189E-04  0.3175E-04  0.5878E-05  0.5875E-05  0.3185E-04  0.3172E-04  0.6806E-05  0.6809E-05
     -1.459  0.6103E-02  0.6079E-02  0.1189E-02  0.1186E-02  0.1189E-02  0.1186E-02  0.1190E-02  0.1188E-02  0.4268E-04  0.4244E-04  0.4273E-04  0.4250E-04  0.6016E-05  0.6006E-05  0.4268E-04  0.4244E-04  0.6541E-05  0.6537E-05
     -1.382  0.6421E-02  0.6423E-02  0.1299E-02  0.1297E-02  0.1299E-02  0.1297E-02  0.1298E-02  0.1296E-02  0.5220E-04  0.5210E-04  0.5222E-04  0.5212E-04  0.6331E-05  0.6327E-05  0.5220E-04  0.5210E-04  0.6852E-05  0.6845E-05
     -1.305  0.5563E-02  0.5577E-02  0.1291E-02  0.1292E-02  0.1291E-02  0.1292E-02  0.1291E-02  0.1293E-02  0.5368E-04  0.5372E-04  0.5364E-04  0.5368E-04  0.6007E-05  0.6018E-05  0.5368E-04  0.5372E-04  0.6638E-05  0.6650E-05
     -1.228  0.4194E-02  0.4219E-02  0.1040E-02  0.1045E-02  0.1040E-02  0.1045E-02  0.1044E-02  0.1049E-02  0.4639E-04  0.4657E-04  0.4628E-04  0.4646E-04  0.4657E-05  0.4686E-05  0.4639E-04  0.4657E-04  0.5137E-05  0.5169E-05
     -1.151  0.3120E-02  0.3121E-02  0.8485E-03  0.8485E-03  0.8485E-03  0.8485E-03  0.8493E-03  0.8493E-03  0.4233E-04  0.4224E-04  0.4233E-04  0.4224E-04  0.3545E-05  0.3547E-05  0.4233E-04  0.4224E-04  0.3943E-05  0.3946E-05
     -1.073  0.3686E-02  0.3660E-02  0.9505E-03  0.9464E-03  0.9505E-03  0.9464E-03  0.9505E-03  0.9464E-03  0.5449E-04  0.5414E-04  0.5461E-04  0.5426E-04  0.4303E-05  0.4268E-05  0.5449E-04  0.5414E-04  0.4618E-05  0.4584E-05
     -0.996  0.5022E-02  0.4998E-02  0.1219E-02  0.1214E-02  0.1219E-02  0.1214E-02  0.1217E-02  0.1212E-02  0.7586E-04  0.7555E-04  0.7603E-04  0.7572E-04  0.7585E-05  0.7492E-05  0.7586E-04  0.7555E-04  0.8181E-05  0.8072E-05
     -0.919  0.5707E-02  0.5686E-02  0.1274E-02  0.1275E-02  0.1274E-02  0.1275E-02  0.1274E-02  0.1275E-02  0.7985E-04  0.7999E-04  0.7974E-04  0.7989E-04  0.1491E-04  0.1470E-04  0.7985E-04  0.7999E-04  0.1757E-04  0.1729E-04
     -0.842  0.7360E-02  0.7308E-02  0.1122E-02  0.1124E-02  0.1122E-02  0.1124E-02  0.1124E-02  0.1125E-02  0.6973E-04  0.6988E-04  0.6957E-04  0.6972E-04  0.2947E-04  0.2915E-04  0.6973E-04  0.6988E-04  0.3662E-04  0.3620E-04
     -0.765  0.9039E-02  0.9016E-02  0.9918E-03  0.9943E-03  0.9918E-03  0.9943E-03  0.9946E-03  0.9970E-03  0.6096E-04  0.6115E-04  0.6078E-04  0.6097E-04  0.4165E-04  0.4153E-04  0.6096E-04  0.6115E-04  0.5245E-04  0.5228E-04