   4   4   1   0
  0.2294958E+02  0.4510053E-09  0.4511558E-09  0.4511558E-09  0.5000000E-15
  1.000000000000000E-004
  CAR 
 unknown system                          
     13.51442518     -5.11388309  301      4.33301446      1.00000000
     -5.114  0.0000E+00  0.0000E+00  0.0000E+00  0.0000E+00
     -5.052  0.0000E+00  0.0000E+00  0.0000E+00  0.0000E+00
     -4.990  0.0000E+00  0.0000E+00  0.0000E+00  0.0000E+00
     -4.928  0.0000E+00  0.0000E+00  0.0000E+00  0.0000E+00
     -4.866  0.0000E+00  0.0000E+00  0.0000E+00  0.0000E+00
     -4.803  0.0000E+00  0.0000E+00  0.0000E+00  0.0000E+00
     -4.741  0.0000E+00  0.0000E+00  0.0000E+00  0.0000E+00
     -4.679  0.6901E-05  0.6325E-05  0.4285E-06  0.3927E-06
     -4.617  0.3175E-04  0.2910E-04  0.2400E-05  0.2200E-05
     -4.555  0.1144E-03  0.1049E-03  0.9504E-05  0.8711E-05
     -4.493  0.4034E-03  0.3698E-03  0.3455E-04  0.3168E-04
     -4.431  0.1393E-02  0.1279E-02  0.1211E-03  0.1111E-03
     -4.369  0.4604E-02  0.4239E-02  0.4070E-03  0.3743E-03
     -4.307  0.1415E-01  0.1313E-01  0.1286E-02  0.1190E-02
     -4.245  0.3601E-01  0.3403E-01  0.3522E-02  0.3302E-02
     -4.182  0.6901E-01  0.6658E-01  0.7807E-02  0.7436E-02
     -4.120  0.1026E+00  0.1003E+00  0.1418E-01  0.1367E-01
     -4.058  0.1362E+00  0.1339E+00  0.2264E-01  0.2198E-01
     -3.996  0.1594E+00  0.1585E+00  0.3254E-01  0.3182E-01
     -3.934  0.1709E+00  0.1696E+00  0.4315E-01  0.4236E-01
     -3.872  0.2005E+00  0.1981E+00  0.5560E-01  0.5465E-01
     -3.810  0.2246E+00  0.2237E+00  0.6955E-01  0.6855E-01
     -3.748  0.2312E+00  0.2306E+00  0.8390E-01  0.8287E-01
     -3.686  0.2436E+00  0.2427E+00  0.9903E-01  0.9795E-01
     -3.624  0.2477E+00  0.2476E+00  0.1144E+00  0.1133E+00
     -3.562  0.2664E+00  0.2637E+00  0.1310E+00  0.1297E+00
     -3.499  0.3078E+00  0.3055E+00  0.1501E+00  0.1487E+00
     -3.437  0.3215E+00  0.3214E+00  0.1701E+00  0.1687E+00
     -3.375  0.3145E+00  0.3156E+00  0.1896E+00  0.1883E+00
     -3.313  0.2917E+00  0.2931E+00  0.2077E+00  0.2065E+00
     -3.251  0.3025E+00  0.2994E+00  0.2265E+00  0.2251E+00
     -3.189  0.3684E+00  0.3637E+00  0.2494E+00  0.2477E+00
     -3.127  0.4017E+00  0.4014E+00  0.2744E+00  0.2726E+00
     -3.065  0.3969E+00  0.3973E+00  0.2990E+00  0.2973E+00
     -3.003  0.3826E+00  0.3849E+00  0.3228E+00  0.3212E+00
     -2.941  0.3507E+00  0.3514E+00  0.3446E+00  0.3430E+00
     -2.878  0.3966E+00  0.3906E+00  0.3692E+00  0.3673E+00
     -2.816  0.4778E+00  0.4737E+00  0.3989E+00  0.3967E+00
     -2.754  0.4882E+00  0.4898E+00  0.4292E+00  0.4271E+00
     -2.692  0.4575E+00  0.4592E+00  0.4577E+00  0.4557E+00
     -2.630  0.4458E+00  0.4460E+00  0.4854E+00  0.4834E+00
     -2.568  0.4546E+00  0.4529E+00  0.5136E+00  0.5115E+00
     -2.506  0.4908E+00  0.4885E+00  0.5441E+00  0.5418E+00
     -2.444  0.4934E+00  0.4954E+00  0.5748E+00  0.5726E+00
     -2.382  0.4340E+00  0.4400E+00  0.6017E+00  0.6000E+00
     -2.320  0.3527E+00  0.3571E+00  0.6236E+00  0.6222E+00
     -2.258  0.3355E+00  0.3339E+00  0.6445E+00  0.6429E+00
     -2.195  0.3927E+00  0.3872E+00  0.6689E+00  0.6670E+00
     -2.133  0.4507E+00  0.4490E+00  0.6969E+00  0.6949E+00
     -2.071  0.4382E+00  0.4404E+00  0.7241E+00  0.7222E+00
     -2.009  0.4235E+00  0.4241E+00  0.7504E+00  0.7486E+00
     -1.947  0.4200E+00  0.4205E+00  0.7765E+00  0.7747E+00
     -1.885  0.4416E+00  0.4377E+00  0.8040E+00  0.8019E+00
     -1.823  0.5249E+00  0.5187E+00  0.8366E+00  0.8341E+00
     -1.761  0.5561E+00  0.5579E+00  0.8711E+00  0.8688E+00
     -1.699  0.4998E+00  0.5040E+00  0.9022E+00  0.9001E+00
     -1.637  0.4697E+00  0.4711E+00  0.9314E+00  0.9294E+00
     -1.575  0.4510E+00  0.4522E+00  0.9594E+00  0.9575E+00
     -1.512  0.4627E+00  0.4597E+00  0.9881E+00  0.9860E+00
     -1.450  0.5284E+00  0.5231E+00  0.1021E+01  0.1019E+01
     -1.388  0.6018E+00  0.5977E+00  0.1058E+01  0.1056E+01
     -1.326  0.6317E+00  0.6319E+00  0.1098E+01  0.1095E+01
     -1.264  0.6087E+00  0.6112E+00  0.1135E+01  0.1133E+01
     -1.202  0.5752E+00  0.5764E+00  0.1171E+01  0.1169E+01
     -1.140  0.5850E+00  0.5824E+00  0.1207E+01  0.1205E+01
     -1.078  0.6361E+00  0.6333E+00  0.1247E+01  0.1244E+01
     -1.016  0.6402E+00  0.6431E+00  0.1287E+01  0.1284E+01
     -0.954  0.5684E+00  0.5736E+00  0.1322E+01  0.1320E+01
     -0.891  0.5289E+00  0.5287E+00  0.1355E+01  0.1353E+01
     -0.829  0.5947E+00  0.5866E+00  0.1392E+01  0.1389E+01
     -0.767  0.7355E+00  0.7261E+00  0.1438E+01  0.1434E+01
     -0.705  0.8178E+00  0.8164E+00  0.1488E+01  0.1485E+01
     -0.643  0.7645E+00  0.7716E+00  0.1536E+01  0.1533E+01
     -0.581  0.6726E+00  0.6772E+00  0.1578E+01  0.1575E+01
     -0.519  0.6570E+00  0.6551E+00  0.1619E+01  0.1616E+01
     -0.457  0.6910E+00  0.6903E+00  0.1661E+01  0.1659E+01
     -0.395  0.6512E+00  0.6556E+00  0.1702E+01  0.1699E+01
     -0.333  0.6061E+00  0.6070E+00  0.1740E+01  0.1737E+01
     -0.271  0.6095E+00  0.6096E+00  0.1777E+01  0.1775E+01
     -0.208  0.5751E+00  0.5786E+00  0.1813E+01  0.1811E+01
     -0.146  0.5471E+00  0.5465E+00  0.1847E+01  0.1845E+01
     -0.084  0.5780E+00  0.5753E+00  0.1883E+01  0.1881E+01
     -0.022  0.6101E+00  0.6078E+00  0.1921E+01  0.1918E+01
      0.040  0.6541E+00  0.6510E+00  0.1962E+01  0.1959E+01
      0.102  0.6818E+00  0.6811E+00  0.2004E+01  0.2001E+01
      0.164  0.7058E+00  0.7027E+00  0.2048E+01  0.2045E+01
      0.226  0.7739E+00  0.7690E+00  0.2096E+01  0.2093E+01
      0.288  0.7945E+00  0.7976E+00  0.2145E+01  0.2142E+01
      0.350  0.6861E+00  0.6955E+00  0.2188E+01  0.2185E+01
      0.413  0.5802E+00  0.5849E+00  0.2224E+01  0.2222E+01
      0.475  0.5571E+00  0.5563E+00  0.2259E+01  0.2256E+01
      0.537  0.6147E+00  0.6085E+00  0.2297E+01  0.2294E+01
      0.599  0.6973E+00  0.6937E+00  0.2340E+01  0.2337E+01
      0.661  0.6924E+00  0.6950E+00  0.2383E+01  0.2380E+01
      0.723  0.6596E+00  0.6610E+00  0.2424E+01  0.2421E+01
      0.785  0.6628E+00  0.6615E+00  0.2465E+01  0.2463E+01
      0.847  0.7058E+00  0.7034E+00  0.2509E+01  0.2506E+01
      0.909  0.7033E+00  0.7069E+00  0.2553E+01  0.2550E+01
      0.971  0.6364E+00  0.6404E+00  0.2592E+01  0.2590E+01
      1.033  0.6209E+00  0.6193E+00  0.2631E+01  0.2628E+01
      1.096  0.6389E+00  0.6388E+00  0.2671E+01  0.2668E+01
      1.158  0.6097E+00  0.6113E+00  0.2709E+01  0.2706E+01
      1.220  0.6262E+00  0.6214E+00  0.2748E+01  0.2745E+01
      1.282  0.7230E+00  0.7159E+00  0.2792E+01  0.2789E+01
      1.344  0.8017E+00  0.7971E+00  0.2842E+01  0.2839E+01
      1.406  0.8548E+00  0.8523E+00  0.2895E+01  0.2892E+01
      1.468  0.8725E+00  0.8736E+00  0.2950E+01  0.2946E+01
      1.530  0.8410E+00  0.8454E+00  0.3002E+01  0.2998E+01
      1.592  0.7630E+00  0.7689E+00  0.3049E+01  0.3046E+01
      1.654  0.7220E+00  0.7207E+00  0.3094E+01  0.3091E+01
      1.716  0.8128E+00  0.8034E+00  0.3145E+01  0.3141E+01
      1.779  0.8994E+00  0.8980E+00  0.3200E+01  0.3197E+01
      1.841  0.8320E+00  0.8401E+00  0.3252E+01  0.3249E+01
      1.903  0.7291E+00  0.7350E+00  0.3298E+01  0.3295E+01
      1.965  0.7022E+00  0.7001E+00  0.3341E+01  0.3338E+01
      2.027  0.7909E+00  0.7826E+00  0.3390E+01  0.3387E+01
      2.089  0.9042E+00  0.8968E+00  0.3446E+01  0.3442E+01
      2.151  0.9932E+00  0.9878E+00  0.3508E+01  0.3504E+01
      2.213  0.1009E+01  0.1012E+01  0.3571E+01  0.3567E+01
      2.275  0.9202E+00  0.9271E+00  0.3628E+01  0.3624E+01
      2.337  0.8679E+00  0.8696E+00  0.3682E+01  0.3678E+01
      2.400  0.8765E+00  0.8756E+00  0.3736E+01  0.3733E+01
      2.462  0.8722E+00  0.8752E+00  0.3791E+01  0.3787E+01
      2.524  0.7667E+00  0.7756E+00  0.3838E+01  0.3835E+01
      2.586  0.6794E+00  0.6799E+00  0.3880E+01  0.3878E+01
      2.648  0.7645E+00  0.7538E+00  0.3928E+01  0.3924E+01
      2.710  0.9387E+00  0.9278E+00  0.3986E+01  0.3982E+01
      2.772  0.1040E+01  0.1037E+01  0.4051E+01  0.4046E+01
      2.834  0.1061E+01  0.1061E+01  0.4117E+01  0.4112E+01
      2.896  0.1031E+01  0.1034E+01  0.4181E+01  0.4177E+01
      2.958  0.9868E+00  0.9895E+00  0.4242E+01  0.4238E+01
      3.020  0.9213E+00  0.9282E+00  0.4299E+01  0.4296E+01
      3.083  0.7975E+00  0.8058E+00  0.4349E+01  0.4346E+01
      3.145  0.7490E+00  0.7477E+00  0.4396E+01  0.4392E+01
      3.207  0.8159E+00  0.8105E+00  0.4446E+01  0.4443E+01
      3.269  0.8631E+00  0.8605E+00  0.4500E+01  0.4496E+01
      3.331  0.8775E+00  0.8760E+00  0.4554E+01  0.4551E+01
      3.393  0.9145E+00  0.9106E+00  0.4611E+01  0.4607E+01
      3.455  0.1001E+01  0.9950E+00  0.4673E+01  0.4669E+01
      3.517  0.1083E+01  0.1079E+01  0.4741E+01  0.4736E+01
      3.579  0.1121E+01  0.1122E+01  0.4810E+01  0.4806E+01
      3.641  0.1044E+01  0.1053E+01  0.4875E+01  0.4871E+01
      3.704  0.8802E+00  0.8899E+00  0.4930E+01  0.4926E+01
      3.766  0.7843E+00  0.7868E+00  0.4979E+01  0.4975E+01
      3.828  0.7716E+00  0.7711E+00  0.5027E+01  0.5023E+01
      3.890  0.7946E+00  0.7923E+00  0.5076E+01  0.5073E+01
      3.952  0.8703E+00  0.8643E+00  0.5130E+01  0.5126E+01
      4.014  0.9568E+00  0.9536E+00  0.5189E+01  0.5186E+01
      4.076  0.9428E+00  0.9470E+00  0.5248E+01  0.5244E+01
      4.138  0.8743E+00  0.8768E+00  0.5302E+01  0.5299E+01
      4.200  0.9239E+00  0.9162E+00  0.5360E+01  0.5356E+01
      4.262  0.1060E+01  0.1052E+01  0.5426E+01  0.5421E+01
      4.324  0.1087E+01  0.1089E+01  0.5493E+01  0.5489E+01
      4.387  0.1032E+01  0.1034E+01  0.5557E+01  0.5553E+01
      4.449  0.9924E+00  0.9955E+00  0.5619E+01  0.5615E+01
      4.511  0.9274E+00  0.9314E+00  0.5677E+01  0.5673E+01
      4.573  0.8943E+00  0.8951E+00  0.5732E+01  0.5728E+01
      4.635  0.8991E+00  0.8985E+00  0.5788E+01  0.5784E+01
      4.697  0.9094E+00  0.9088E+00  0.5845E+01  0.5841E+01
      4.759  0.9296E+00  0.9273E+00  0.5902E+01  0.5898E+01
      4.821  0.9573E+00  0.9552E+00  0.5962E+01  0.5958E+01
      4.883  0.9967E+00  0.9926E+00  0.6024E+01  0.6019E+01
      4.945  0.1067E+01  0.1064E+01  0.6090E+01  0.6085E+01
      5.007  0.1066E+01  0.1068E+01  0.6156E+01  0.6152E+01
      5.070  0.1060E+01  0.1058E+01  0.6222E+01  0.6218E+01
      5.132  0.1111E+01  0.1109E+01  0.6291E+01  0.6287E+01
      5.194  0.1088E+01  0.1092E+01  0.6359E+01  0.6354E+01
      5.256  0.1045E+01  0.1045E+01  0.6424E+01  0.6419E+01
      5.318  0.1096E+01  0.1092E+01  0.6492E+01  0.6487E+01
      5.380  0.1107E+01  0.1110E+01  0.6561E+01  0.6556E+01
      5.442  0.9782E+00  0.9878E+00  0.6621E+01  0.6618E+01
      5.504  0.8667E+00  0.8697E+00  0.6675E+01  0.6672E+01
      5.566  0.9027E+00  0.8956E+00  0.6731E+01  0.6727E+01
      5.628  0.1023E+01  0.1016E+01  0.6795E+01  0.6790E+01
      5.691  0.1076E+01  0.1074E+01  0.6862E+01  0.6857E+01
      5.753  0.1108E+01  0.1106E+01  0.6931E+01  0.6926E+01
      5.815  0.1123E+01  0.1124E+01  0.7000E+01  0.6996E+01
      5.877  0.1091E+01  0.1094E+01  0.7068E+01  0.7064E+01
      5.939  0.1071E+01  0.1071E+01  0.7135E+01  0.7130E+01
      6.001  0.1112E+01  0.1106E+01  0.7204E+01  0.7199E+01
      6.063  0.1211E+01  0.1205E+01  0.7279E+01  0.7274E+01
      6.125  0.1226E+01  0.1231E+01  0.7355E+01  0.7350E+01
      6.187  0.1066E+01  0.1083E+01  0.7421E+01  0.7418E+01
      6.249  0.8158E+00  0.8296E+00  0.7472E+01  0.7469E+01
      6.311  0.7368E+00  0.7327E+00  0.7518E+01  0.7515E+01
      6.374  0.9054E+00  0.8886E+00  0.7574E+01  0.7570E+01
      6.436  0.1098E+01  0.1089E+01  0.7642E+01  0.7638E+01
      6.498  0.1109E+01  0.1114E+01  0.7711E+01  0.7707E+01
      6.560  0.1059E+01  0.1061E+01  0.7777E+01  0.7773E+01
      6.622  0.1149E+01  0.1140E+01  0.7849E+01  0.7844E+01
      6.684  0.1302E+01  0.1295E+01  0.7929E+01  0.7924E+01
      6.746  0.1348E+01  0.1346E+01  0.8013E+01  0.8008E+01
      6.808  0.1315E+01  0.1317E+01  0.8095E+01  0.8089E+01
      6.870  0.1230E+01  0.1237E+01  0.8171E+01  0.8166E+01
      6.932  0.1134E+01  0.1141E+01  0.8242E+01  0.8237E+01
      6.995  0.1059E+01  0.1064E+01  0.8308E+01  0.8303E+01
      7.057  0.1022E+01  0.1022E+01  0.8371E+01  0.8367E+01
      7.119  0.1083E+01  0.1075E+01  0.8438E+01  0.8434E+01
      7.181  0.1203E+01  0.1196E+01  0.8513E+01  0.8508E+01
      7.243  0.1250E+01  0.1250E+01  0.8591E+01  0.8586E+01
      7.305  0.1191E+01  0.1198E+01  0.8665E+01  0.8660E+01
      7.367  0.1093E+01  0.1099E+01  0.8733E+01  0.8728E+01
      7.429  0.1102E+01  0.1096E+01  0.8801E+01  0.8796E+01
      7.491  0.1259E+01  0.1247E+01  0.8879E+01  0.8874E+01
      7.553  0.1339E+01  0.1339E+01  0.8963E+01  0.8957E+01
      7.615  0.1268E+01  0.1274E+01  0.9041E+01  0.9036E+01
      7.678  0.1190E+01  0.1195E+01  0.9115E+01  0.9111E+01
      7.740  0.1131E+01  0.1136E+01  0.9186E+01  0.9181E+01
      7.802  0.1038E+01  0.1044E+01  0.9250E+01  0.9246E+01
      7.864  0.9728E+00  0.9718E+00  0.9310E+01  0.9306E+01
      7.926  0.1082E+01  0.1068E+01  0.9378E+01  0.9373E+01
      7.988  0.1301E+01  0.1287E+01  0.9459E+01  0.9453E+01
      8.050  0.1429E+01  0.1426E+01  0.9547E+01  0.9541E+01
      8.112  0.1417E+01  0.1420E+01  0.9635E+01  0.9630E+01
      8.174  0.1346E+01  0.1350E+01  0.9719E+01  0.9714E+01
      8.236  0.1319E+01  0.1320E+01  0.9801E+01  0.9796E+01
      8.298  0.1303E+01  0.1306E+01  0.9882E+01  0.9877E+01
      8.361  0.1272E+01  0.1273E+01  0.9961E+01  0.9956E+01
      8.423  0.1255E+01  0.1256E+01  0.1004E+02  0.1003E+02
      8.485  0.1209E+01  0.1213E+01  0.1011E+02  0.1011E+02
      8.547  0.1126E+01  0.1131E+01  0.1018E+02  0.1018E+02
      8.609  0.1106E+01  0.1102E+01  0.1025E+02  0.1025E+02
      8.671  0.1260E+01  0.1246E+01  0.1033E+02  0.1033E+02
      8.733  0.1468E+01  0.1458E+01  0.1042E+02  0.1042E+02
      8.795  0.1490E+01  0.1497E+01  0.1051E+02  0.1051E+02
      8.857  0.1289E+01  0.1305E+01  0.1059E+02  0.1059E+02
      8.919  0.1065E+01  0.1077E+01  0.1066E+02  0.1066E+02
      8.982  0.9403E+00  0.9467E+00  0.1072E+02  0.1072E+02
      9.044  0.9767E+00  0.9758E+00  0.1078E+02  0.1078E+02
      9.106  0.1128E+01  0.1130E+01  0.1085E+02  0.1085E+02
      9.168  0.1192E+01  0.1195E+01  0.1092E+02  0.1092E+02
      9.230  0.1139E+01  0.1138E+01  0.1100E+02  0.1099E+02
      9.292  0.1042E+01  0.1051E+01  0.1106E+02  0.1106E+02
      9.354  0.9319E+00  0.9474E+00  0.1112E+02  0.1112E+02
      9.416  0.8468E+00  0.8473E+00  0.1117E+02  0.1117E+02
      9.478  0.8122E+00  0.8031E+00  0.1122E+02  0.1122E+02
      9.540  0.8102E+00  0.8018E+00  0.1127E+02  0.1127E+02
      9.602  0.7954E+00  0.7845E+00  0.1132E+02  0.1132E+02
      9.665  0.7170E+00  0.7122E+00  0.1137E+02  0.1136E+02
      9.727  0.5994E+00  0.6102E+00  0.1140E+02  0.1140E+02
      9.789  0.4803E+00  0.4963E+00  0.1143E+02  0.1143E+02
      9.851  0.3914E+00  0.4000E+00  0.1146E+02  0.1146E+02
      9.913  0.3585E+00  0.3609E+00  0.1148E+02  0.1148E+02
      9.975  0.3626E+00  0.3619E+00  0.1150E+02  0.1150E+02
     10.037  0.3654E+00  0.3673E+00  0.1152E+02  0.1152E+02
     10.099  0.3147E+00  0.3182E+00  0.1154E+02  0.1154E+02
     10.161  0.3238E+00  0.3190E+00  0.1156E+02  0.1156E+02
     10.223  0.4404E+00  0.4330E+00  0.1159E+02  0.1159E+02
     10.286  0.4866E+00  0.4891E+00  0.1162E+02  0.1162E+02
     10.348  0.4199E+00  0.4288E+00  0.1165E+02  0.1165E+02
     10.410  0.3479E+00  0.3562E+00  0.1167E+02  0.1167E+02
     10.472  0.3175E+00  0.3192E+00  0.1169E+02  0.1169E+02
     10.534  0.2923E+00  0.2909E+00  0.1171E+02  0.1171E+02
     10.596  0.2695E+00  0.2670E+00  0.1172E+02  0.1172E+02
     10.658  0.2527E+00  0.2524E+00  0.1174E+02  0.1174E+02
     10.720  0.2357E+00  0.2345E+00  0.1175E+02  0.1175E+02
     10.782  0.2770E+00  0.2723E+00  0.1177E+02  0.1177E+02
     10.844  0.3091E+00  0.3095E+00  0.1179E+02  0.1179E+02
     10.906  0.2642E+00  0.2681E+00  0.1181E+02  0.1181E+02
     10.969  0.2221E+00  0.2238E+00  0.1182E+02  0.1182E+02
     11.031  0.1990E+00  0.2009E+00  0.1183E+02  0.1183E+02
     11.093  0.1509E+00  0.1553E+00  0.1184E+02  0.1184E+02
     11.155  0.1054E+00  0.1079E+00  0.1185E+02  0.1185E+02
     11.217  0.1065E+00  0.1067E+00  0.1186E+02  0.1186E+02
     11.279  0.1380E+00  0.1364E+00  0.1186E+02  0.1186E+02
     11.341  0.1915E+00  0.1870E+00  0.1188E+02  0.1188E+02
     11.403  0.2265E+00  0.2237E+00  0.1189E+02  0.1189E+02
     11.465  0.2127E+00  0.2144E+00  0.1190E+02  0.1190E+02
     11.527  0.1590E+00  0.1632E+00  0.1191E+02  0.1191E+02
     11.589  0.1083E+00  0.1111E+00  0.1192E+02  0.1192E+02
     11.652  0.7341E-01  0.7553E-01  0.1192E+02  0.1192E+02
     11.714  0.4920E-01  0.4996E-01  0.1193E+02  0.1193E+02
     11.776  0.5467E-01  0.5348E-01  0.1193E+02  0.1193E+02
     11.838  0.7476E-01  0.7347E-01  0.1194E+02  0.1194E+02
     11.900  0.9260E-01  0.9041E-01  0.1194E+02  0.1194E+02
     11.962  0.1362E+00  0.1327E+00  0.1195E+02  0.1195E+02
     12.024  0.1704E+00  0.1712E+00  0.1196E+02  0.1196E+02
     12.086  0.1364E+00  0.1407E+00  0.1197E+02  0.1197E+02
     12.148  0.8170E-01  0.8453E-01  0.1197E+02  0.1197E+02
     12.210  0.6536E-01  0.6597E-01  0.1198E+02  0.1198E+02
     12.273  0.6742E-01  0.6764E-01  0.1198E+02  0.1198E+02
     12.335  0.5810E-01  0.5829E-01  0.1199E+02  0.1199E+02
     12.397  0.5305E-01  0.5290E-01  0.1199E+02  0.1199E+02
     12.459  0.4682E-01  0.4685E-01  0.1199E+02  0.1199E+02
     12.521  0.3607E-01  0.3628E-01  0.1199E+02  0.1199E+02
     12.583  0.2629E-01  0.2669E-01  0.1200E+02  0.1200E+02
     12.645  0.2227E-01  0.2232E-01  0.1200E+02  0.1200E+02
     12.707  0.2003E-01  0.2041E-01  0.1200E+02  0.1200E+02
     12.769  0.1172E-01  0.1238E-01  0.1200E+02  0.1200E+02
     12.831  0.4510E-02  0.4870E-02  0.1200E+02  0.1200E+02
     12.893  0.1438E-02  0.1567E-02  0.1200E+02  0.1200E+02
     12.956  0.4119E-03  0.4496E-03  0.1200E+02  0.1200E+02
     13.018  0.1201E-03  0.1312E-03  0.1200E+02  0.1200E+02
     13.080  0.0000E+00  0.0000E+00  0.1200E+02  0.1200E+02
     13.142  0.0000E+00  0.0000E+00  0.1200E+02  0.1200E+02
     13.204  0.0000E+00  0.0000E+00  0.1200E+02  0.1200E+02
     13.266  0.0000E+00  0.0000E+00  0.1200E+02  0.1200E+02
     13.328  0.0000E+00  0.0000E+00  0.1200E+02  0.1200E+02
     13.390  0.0000E+00  0.0000E+00  0.1200E+02  0.1200E+02
     13.452  0.0000E+00  0.0000E+00  0.1200E+02  0.1200E+02
     13.514  0.0000E+00  0.0000E+00  0.1200E+02  0.1200E+02
     13.51442518     -5.11388309  301      4.33301446      1.00000000
     -5.114  0.0000E+00  0.0000E+00  0.0000E+00  0.0000E+00  0.0000E+00  0.0000E+00  0.0000E+00  0.0000E+00  0.0000E+00  0.0000E+00  0.0000E+00  0.0000E+00  0.0000E+00  0.0000E+00  0.0000E+00  0.0000E+00  0.0000E+00  0.0000E+00
     -5.052  0.0000E+00  0.0000E+00  0.0000E+00  0.0000E+00  0.0000E+00  0.0000E+00  0.0000E+00  0.0000E+00  0.0000E+00  0.0000E+00  0.0000E+00  0.0000E+00  0.0000E+00  0.0000E+00  0.0000E+00  0.0000E+00  0.0000E+00  0.0000E+00
     -4.990  0.0000E+00  0.0000E+00  0.0000E+00  0.0000E+00  0.0000E+00  0.0000E+00  0.0000E+00  0.0000E+00  0.0000E+00  0.0000E+00  0.0000E+00  0.0000E+00  0.0000E+00  0.0000E+00  0.0000E+00  0.0000E+00  0.0000E+00  0.0000E+00
     -4.928  0.0000E+00  0.0000E+00  0.0000E+00  0.0000E+00  0.0000E+00  0.0000E+00  0.0000E+00  0.0000E+00  0.0000E+00  0.0000E+00  0.0000E+00  0.0000E+00  0.0000E+00  0.0000E+00  0.0000E+00  0.0000E+00  0.0000E+00  0.0000E+00
     -4.866  0.0000E+00  0.0000E+00  0.0000E+00  0.0000E+00  0.0000E+00  0.0000E+00  0.0000E+00  0.0000E+00  0.0000E+00  0.0000E+00  0.0000E+00  0.0000E+00  0.0000E+00  0.0000E+00  0.0000E+00  0.0000E+00  0.0000E+00  0.0000E+00
     -4.803  0.0000E+00  0.0000E+00  0.0000E+00  0.0000E+00  0.0000E+00  0.0000E+00  0.0000E+00  0.0000E+00  0.0000E+00  0.0000E+00  0.0000E+00  0.0000E+00  0.0000E+00  0.0000E+00  0.0000E+00  0.0000E+00  0.0000E+00  0.0000E+00
     -4.741  0.0000E+00  0.0000E+00  0.0000E+00  0.0000E+00  0.0000E+00  0.0000E+00  0.0000E+00  0.0000E+00  0.0000E+00  0.0000E+00  0.0000E+00  0.0000E+00  0.0000E+00  0.0000E+00  0.0000E+00  0.0000E+00  0.0000E+00  0.0000E+00
     -4.679  0.1766E-06  0.1619E-06  0.2276E-09  0.2087E-09  0.2276E-09  0.2087E-09  0.2276E-09  0.2087E-09  0.7077E-19  0.2186E-18  0.2887E-19  0.1689E-18  0.1315E-12  0.1206E-12  0.7077E-19  0.2186E-18  0.1690E-12  0.1550E-12
     -4.617  0.8081E-06  0.7406E-06  0.1904E-08  0.1747E-08  0.1904E-08  0.1747E-08  0.1904E-08  0.1747E-08  0.2058E-11  0.1886E-11  0.2058E-11  0.1886E-11  0.8240E-12  0.7551E-12  0.2058E-11  0.1886E-11  0.8050E-12  0.7377E-12
     -4.555  0.2905E-05  0.2663E-05  0.8102E-08  0.7432E-08  0.8102E-08  0.7432E-08  0.8102E-08  0.7431E-08  0.1117E-10  0.1024E-10  0.1116E-10  0.1023E-10  0.4328E-11  0.3964E-11  0.1117E-10  0.1024E-10  0.4938E-11  0.4522E-11
     -4.493  0.1023E-04  0.9376E-05  0.3155E-07  0.2894E-07  0.3155E-07  0.2894E-07  0.3154E-07  0.2894E-07  0.4823E-10  0.4421E-10  0.4822E-10  0.4420E-10  0.2296E-10  0.2103E-10  0.4823E-10  0.4421E-10  0.2617E-10  0.2397E-10
     -4.431  0.3530E-04  0.3239E-04  0.1135E-06  0.1042E-06  0.1135E-06  0.1042E-06  0.1135E-06  0.1042E-06  0.2032E-09  0.1863E-09  0.2031E-09  0.1862E-09  0.7889E-10  0.7228E-10  0.2032E-09  0.1863E-09  0.9107E-10  0.8343E-10
     -4.369  0.1166E-03  0.1074E-03  0.3789E-06  0.3483E-06  0.3789E-06  0.3483E-06  0.3788E-06  0.3482E-06  0.6747E-09  0.6190E-09  0.6746E-09  0.6189E-09  0.2666E-09  0.2446E-09  0.6747E-09  0.6190E-09  0.3040E-09  0.2788E-09
     -4.307  0.3581E-03  0.3322E-03  0.1255E-05  0.1152E-05  0.1255E-05  0.1152E-05  0.1255E-05  0.1151E-05  0.2389E-08  0.2177E-08  0.2389E-08  0.2176E-08  0.9417E-09  0.8364E-09  0.2389E-08  0.2177E-08  0.1079E-08  0.9553E-09
     -4.245  0.9087E-03  0.8587E-03  0.3644E-05  0.3409E-05  0.3644E-05  0.3409E-05  0.3643E-05  0.3408E-05  0.7461E-08  0.6927E-08  0.7460E-08  0.6926E-08  0.2905E-08  0.2718E-08  0.7461E-08  0.6927E-08  0.3346E-08  0.3132E-08
     -4.182  0.1732E-02  0.1671E-02  0.8762E-05  0.8302E-05  0.8762E-05  0.8302E-05  0.8760E-05  0.8300E-05  0.2068E-07  0.1935E-07  0.2068E-07  0.1935E-07  0.8112E-08  0.7564E-08  0.2068E-07  0.1935E-07  0.9467E-08  0.8816E-08
     -4.120  0.2552E-02  0.2496E-02  0.1753E-04  0.1679E-04  0.1753E-04  0.1679E-04  0.1753E-04  0.1679E-04  0.4972E-07  0.4696E-07  0.4972E-07  0.4695E-07  0.2030E-07  0.1913E-07  0.4972E-07  0.4696E-07  0.2403E-07  0.2262E-07
     -4.058  0.3349E-02  0.3294E-02  0.3033E-04  0.2937E-04  0.3033E-04  0.2937E-04  0.3033E-04  0.2937E-04  0.1047E-06  0.9981E-07  0.1047E-06  0.9980E-07  0.4084E-07  0.3916E-07  0.1047E-06  0.9981E-07  0.4833E-07  0.4636E-07
     -3.996  0.3873E-02  0.3854E-02  0.4361E-04  0.4278E-04  0.4361E-04  0.4278E-04  0.4361E-04  0.4277E-04  0.1874E-06  0.1809E-06  0.1874E-06  0.1809E-06  0.6599E-07  0.6394E-07  0.1874E-06  0.1809E-06  0.7693E-07  0.7463E-07
     -3.934  0.4089E-02  0.4063E-02  0.5834E-04  0.5705E-04  0.5834E-04  0.5705E-04  0.5831E-04  0.5703E-04  0.3028E-06  0.2930E-06  0.3028E-06  0.2929E-06  0.1099E-06  0.1055E-06  0.3028E-06  0.2930E-06  0.1269E-06  0.1217E-06
     -3.872  0.4717E-02  0.4664E-02  0.8240E-04  0.8062E-04  0.8240E-04  0.8062E-04  0.8235E-04  0.8057E-04  0.4703E-06  0.4576E-06  0.4703E-06  0.4575E-06  0.1931E-06  0.1863E-06  0.4703E-06  0.4576E-06  0.2268E-06  0.2185E-06
     -3.810  0.5211E-02  0.5194E-02  0.1049E-03  0.1037E-03  0.1049E-03  0.1037E-03  0.1049E-03  0.1037E-03  0.6679E-06  0.6522E-06  0.6678E-06  0.6522E-06  0.2765E-06  0.2718E-06  0.6679E-06  0.6522E-06  0.3295E-06  0.3239E-06
     -3.748  0.5280E-02  0.5273E-02  0.1222E-03  0.1209E-03  0.1222E-03  0.1209E-03  0.1222E-03  0.1209E-03  0.9608E-06  0.9358E-06  0.9608E-06  0.9358E-06  0.3250E-06  0.3215E-06  0.9608E-06  0.9358E-06  0.3813E-06  0.3778E-06
     -3.686  0.5470E-02  0.5455E-02  0.1445E-03  0.1430E-03  0.1445E-03  0.1430E-03  0.1445E-03  0.1430E-03  0.1336E-05  0.1312E-05  0.1336E-05  0.1312E-05  0.3980E-06  0.3910E-06  0.1336E-05  0.1312E-05  0.4583E-06  0.4502E-06
     -3.624  0.5455E-02  0.5460E-02  0.1638E-03  0.1625E-03  0.1638E-03  0.1625E-03  0.1637E-03  0.1624E-03  0.1583E-05  0.1569E-05  0.1583E-05  0.1568E-05  0.5350E-06  0.5221E-06  0.1583E-05  0.1569E-05  0.6285E-06  0.6120E-06
     -3.562  0.5727E-02  0.5676E-02  0.1980E-03  0.1947E-03  0.1980E-03  0.1947E-03  0.1978E-03  0.1945E-03  0.1959E-05  0.1919E-05  0.1960E-05  0.1919E-05  0.7843E-06  0.7635E-06  0.1959E-05  0.1919E-05  0.9392E-06  0.9140E-06
     -3.499  0.6494E-02  0.6451E-02  0.2477E-03  0.2449E-03  0.2477E-03  0.2449E-03  0.2476E-03  0.2448E-03  0.2692E-05  0.2637E-05  0.2693E-05  0.2638E-05  0.1042E-05  0.1028E-05  0.2692E-05  0.2637E-05  0.1233E-05  0.1219E-05
     -3.437  0.6674E-02  0.6677E-02  0.2756E-03  0.2744E-03  0.2756E-03  0.2744E-03  0.2756E-03  0.2744E-03  0.3420E-05  0.3373E-05  0.3420E-05  0.3372E-05  0.1154E-05  0.1149E-05  0.3420E-05  0.3373E-05  0.1339E-05  0.1335E-05
     -3.375  0.6410E-02  0.6439E-02  0.2871E-03  0.2870E-03  0.2871E-03  0.2870E-03  0.2872E-03  0.2871E-03  0.4044E-05  0.4007E-05  0.4042E-05  0.4005E-05  0.1176E-05  0.1177E-05  0.4044E-05  0.4007E-05  0.1363E-05  0.1364E-05
     -3.313  0.5807E-02  0.5845E-02  0.2859E-03  0.2858E-03  0.2859E-03  0.2858E-03  0.2859E-03  0.2857E-03  0.4473E-05  0.4445E-05  0.4472E-05  0.4443E-05  0.1164E-05  0.1159E-05  0.4473E-05  0.4445E-05  0.1357E-05  0.1351E-05
     -3.251  0.5797E-02  0.5751E-02  0.3263E-03  0.3210E-03  0.3263E-03  0.3210E-03  0.3257E-03  0.3203E-03  0.5235E-05  0.5152E-05  0.5238E-05  0.5155E-05  0.1501E-05  0.1459E-05  0.5235E-05  0.5152E-05  0.1761E-05  0.1711E-05
     -3.189  0.6815E-02  0.6740E-02  0.4278E-03  0.4209E-03  0.4278E-03  0.4209E-03  0.4271E-03  0.4202E-03  0.6735E-05  0.6626E-05  0.6738E-05  0.6628E-05  0.2226E-05  0.2177E-05  0.6735E-05  0.6626E-05  0.2621E-05  0.2562E-05
     -3.127  0.7244E-02  0.7249E-02  0.4896E-03  0.4879E-03  0.4896E-03  0.4879E-03  0.4895E-03  0.4878E-03  0.7993E-05  0.7921E-05  0.7989E-05  0.7917E-05  0.2635E-05  0.2625E-05  0.7993E-05  0.7921E-05  0.3125E-05  0.3111E-05
     -3.065  0.6968E-02  0.6986E-02  0.5073E-03  0.5062E-03  0.5073E-03  0.5062E-03  0.5073E-03  0.5062E-03  0.9144E-05  0.9054E-05  0.9142E-05  0.9052E-05  0.2678E-05  0.2676E-05  0.9144E-05  0.9054E-05  0.3193E-05  0.3189E-05
     -3.003  0.6526E-02  0.6578E-02  0.5116E-03  0.5132E-03  0.5116E-03  0.5132E-03  0.5118E-03  0.5133E-03  0.1006E-04  0.1003E-04  0.1006E-04  0.1003E-04  0.2656E-05  0.2666E-05  0.1006E-04  0.1003E-04  0.3146E-05  0.3160E-05
     -2.941  0.5728E-02  0.5761E-02  0.4973E-03  0.4959E-03  0.4973E-03  0.4959E-03  0.4971E-03  0.4957E-03  0.1074E-04  0.1063E-04  0.1075E-04  0.1063E-04  0.2484E-05  0.2488E-05  0.1074E-04  0.1063E-04  0.2865E-05  0.2876E-05
     -2.878  0.6059E-02  0.5997E-02  0.6059E-03  0.5939E-03  0.6059E-03  0.5939E-03  0.6042E-03  0.5922E-03  0.1393E-04  0.1363E-04  0.1394E-04  0.1364E-04  0.2786E-05  0.2745E-05  0.1393E-04  0.1363E-04  0.3143E-05  0.3097E-05
     -2.816  0.6737E-02  0.6721E-02  0.7823E-03  0.7721E-03  0.7823E-03  0.7721E-03  0.7802E-03  0.7700E-03  0.1743E-04  0.1726E-04  0.1743E-04  0.1726E-04  0.3369E-05  0.3338E-05  0.1743E-04  0.1726E-04  0.3836E-05  0.3795E-05
     -2.754  0.6278E-02  0.6341E-02  0.8527E-03  0.8521E-03  0.8527E-03  0.8521E-03  0.8520E-03  0.8513E-03  0.1828E-04  0.1827E-04  0.1826E-04  0.1825E-04  0.3479E-05  0.3490E-05  0.1828E-04  0.1827E-04  0.4027E-05  0.4035E-05
     -2.692  0.5361E-02  0.5415E-02  0.8447E-03  0.8450E-03  0.8447E-03  0.8450E-03  0.8445E-03  0.8447E-03  0.1879E-04  0.1869E-04  0.1879E-04  0.1870E-04  0.3280E-05  0.3291E-05  0.1879E-04  0.1869E-04  0.3842E-05  0.3853E-05
     -2.630  0.4851E-02  0.4870E-02  0.8556E-03  0.8550E-03  0.8556E-03  0.8550E-03  0.8559E-03  0.8552E-03  0.2100E-04  0.2077E-04  0.2102E-04  0.2079E-04  0.3210E-05  0.3215E-05  0.2100E-04  0.2077E-04  0.3738E-05  0.3749E-05
     -2.568  0.4956E-02  0.4926E-02  0.8750E-03  0.8725E-03  0.8750E-03  0.8725E-03  0.8760E-03  0.8736E-03  0.2577E-04  0.2531E-04  0.2579E-04  0.2533E-04  0.3196E-05  0.3194E-05  0.2577E-04  0.2531E-04  0.3578E-05  0.3588E-05
     -2.506  0.5391E-02  0.5376E-02  0.9433E-03  0.9382E-03  0.9433E-03  0.9382E-03  0.9430E-03  0.9381E-03  0.3246E-04  0.3203E-04  0.3248E-04  0.3205E-04  0.3341E-05  0.3332E-05  0.3246E-04  0.3203E-04  0.3634E-05  0.3626E-05
     -2.444  0.5094E-02  0.5143E-02  0.9724E-03  0.9747E-03  0.9724E-03  0.9747E-03  0.9726E-03  0.9747E-03  0.3564E-04  0.3558E-04  0.3562E-04  0.3556E-04  0.3302E-05  0.3320E-05  0.3564E-04  0.3558E-04  0.3622E-05  0.3639E-05
     -2.382  0.4209E-02  0.4283E-02  0.8749E-03  0.8860E-03  0.8749E-03  0.8860E-03  0.8767E-03  0.8878E-03  0.3404E-04  0.3427E-04  0.3399E-04  0.3422E-04  0.2851E-05  0.2897E-05  0.3404E-04  0.3427E-04  0.3145E-05  0.3195E-05
     -2.320  0.3239E-02  0.3294E-02  0.7238E-03  0.7321E-03  0.7238E-03  0.7321E-03  0.7252E-03  0.7336E-03  0.3092E-04  0.3101E-04  0.3089E-04  0.3097E-04  0.2251E-05  0.2286E-05  0.3092E-04  0.3101E-04  0.2486E-05  0.2524E-05
     -2.258  0.2995E-02  0.2979E-02  0.6953E-03  0.6924E-03  0.6953E-03  0.6924E-03  0.6957E-03  0.6929E-03  0.3365E-04  0.3318E-04  0.3367E-04  0.3320E-04  0.2171E-05  0.2153E-05  0.3365E-04  0.3318E-04  0.2370E-05  0.2355E-05
     -2.195  0.3626E-02  0.3570E-02  0.8077E-03  0.7969E-03  0.8077E-03  0.7969E-03  0.8069E-03  0.7962E-03  0.4353E-04  0.4269E-04  0.4361E-04  0.4276E-04  0.2974E-05  0.2888E-05  0.4353E-04  0.4269E-04  0.3191E-05  0.3098E-05
     -2.133  0.4231E-02  0.4209E-02  0.9243E-03  0.9214E-03  0.9243E-03  0.9214E-03  0.9236E-03  0.9206E-03  0.5203E-04  0.5175E-04  0.5204E-04  0.5177E-04  0.4878E-05  0.4709E-05  0.5203E-04  0.5175E-04  0.5473E-05  0.5259E-05
     -2.071  0.4644E-02  0.4600E-02  0.8732E-03  0.8811E-03  0.8732E-03  0.8811E-03  0.8741E-03  0.8819E-03  0.5005E-04  0.5041E-04  0.4996E-04  0.5032E-04  0.8850E-05  0.8484E-05  0.5005E-04  0.5041E-04  0.1066E-04  0.1018E-04
     -2.009  0.5995E-02  0.5880E-02  0.7687E-03  0.7761E-03  0.7687E-03  0.7761E-03  0.7701E-03  0.7774E-03  0.4460E-04  0.4497E-04  0.4449E-04  0.4486E-04  0.1642E-04  0.1584E-04  0.4460E-04  0.4497E-04  0.2051E-04  0.1976E-04