   4   4   1   0
  0.1617374E+02  0.4013533E-09  0.4014873E-09  0.4014873E-09  0.5000000E-15
  1.000000000000000E-004
  CAR 
 unknown system                          
     19.66989964     -4.48335668  301      7.28110783      1.00000000
     -4.483  0.0000E+00  0.0000E+00  0.0000E+00  0.0000E+00
     -4.403  0.0000E+00  0.0000E+00  0.0000E+00  0.0000E+00
     -4.322  0.0000E+00  0.0000E+00  0.0000E+00  0.0000E+00
     -4.242  0.0000E+00  0.0000E+00  0.0000E+00  0.0000E+00
     -4.161  0.0000E+00  0.0000E+00  0.0000E+00  0.0000E+00
     -4.081  0.0000E+00  0.0000E+00  0.0000E+00  0.0000E+00
     -4.000  0.0000E+00  0.0000E+00  0.0000E+00  0.0000E+00
     -3.920  0.0000E+00  0.0000E+00  0.0000E+00  0.0000E+00
     -3.839  0.6467E-06  0.6441E-06  0.5207E-07  0.5185E-07
     -3.759  0.9197E-05  0.9160E-05  0.7926E-06  0.7893E-06
     -3.678  0.6699E-04  0.6672E-04  0.6186E-05  0.6161E-05
     -3.598  0.3125E-03  0.3112E-03  0.3135E-04  0.3122E-04
     -3.517  0.1578E-02  0.1572E-02  0.1584E-03  0.1578E-03
     -3.437  0.7026E-02  0.7001E-02  0.7241E-03  0.7214E-03
     -3.356  0.2454E-01  0.2447E-01  0.2700E-02  0.2692E-02
     -3.276  0.5480E-01  0.5472E-01  0.7111E-02  0.7097E-02
     -3.195  0.8122E-01  0.8116E-01  0.1365E-01  0.1363E-01
     -3.115  0.1117E+00  0.1116E+00  0.2264E-01  0.2262E-01
     -3.034  0.1298E+00  0.1298E+00  0.3310E-01  0.3307E-01
     -2.954  0.1287E+00  0.1286E+00  0.4345E-01  0.4343E-01
     -2.873  0.1638E+00  0.1637E+00  0.5665E-01  0.5661E-01
     -2.793  0.1825E+00  0.1825E+00  0.7135E-01  0.7131E-01
     -2.712  0.1794E+00  0.1794E+00  0.8581E-01  0.8577E-01
     -2.632  0.1972E+00  0.1971E+00  0.1017E+00  0.1017E+00
     -2.551  0.1868E+00  0.1868E+00  0.1167E+00  0.1167E+00
     -2.471  0.2116E+00  0.2115E+00  0.1338E+00  0.1337E+00
     -2.390  0.2569E+00  0.2569E+00  0.1545E+00  0.1544E+00
     -2.310  0.2571E+00  0.2571E+00  0.1752E+00  0.1751E+00
     -2.229  0.2475E+00  0.2476E+00  0.1952E+00  0.1951E+00
     -2.149  0.2095E+00  0.2095E+00  0.2120E+00  0.2120E+00
     -2.068  0.2369E+00  0.2367E+00  0.2311E+00  0.2311E+00
     -1.988  0.3199E+00  0.3198E+00  0.2569E+00  0.2568E+00
     -1.907  0.3188E+00  0.3188E+00  0.2826E+00  0.2825E+00
     -1.826  0.3173E+00  0.3173E+00  0.3081E+00  0.3081E+00
     -1.746  0.2867E+00  0.2869E+00  0.3312E+00  0.3312E+00
     -1.665  0.2496E+00  0.2496E+00  0.3513E+00  0.3513E+00
     -1.585  0.3369E+00  0.3367E+00  0.3785E+00  0.3784E+00
     -1.504  0.4010E+00  0.4010E+00  0.4108E+00  0.4107E+00
     -1.424  0.3697E+00  0.3698E+00  0.4406E+00  0.4406E+00
     -1.343  0.3436E+00  0.3436E+00  0.4683E+00  0.4682E+00
     -1.263  0.3473E+00  0.3473E+00  0.4962E+00  0.4962E+00
     -1.182  0.3751E+00  0.3750E+00  0.5265E+00  0.5264E+00
     -1.102  0.4036E+00  0.4036E+00  0.5590E+00  0.5590E+00
     -1.021  0.3854E+00  0.3855E+00  0.5901E+00  0.5900E+00
     -0.941  0.3003E+00  0.3005E+00  0.6143E+00  0.6142E+00
     -0.860  0.2383E+00  0.2383E+00  0.6335E+00  0.6334E+00
     -0.780  0.2757E+00  0.2756E+00  0.6557E+00  0.6556E+00
     -0.699  0.3626E+00  0.3625E+00  0.6849E+00  0.6849E+00
     -0.619  0.3831E+00  0.3831E+00  0.7158E+00  0.7157E+00
     -0.538  0.3742E+00  0.3741E+00  0.7459E+00  0.7459E+00
     -0.458  0.3614E+00  0.3614E+00  0.7751E+00  0.7750E+00
     -0.377  0.3353E+00  0.3352E+00  0.8021E+00  0.8020E+00
     -0.297  0.3872E+00  0.3871E+00  0.8333E+00  0.8332E+00
     -0.216  0.4468E+00  0.4468E+00  0.8693E+00  0.8692E+00
     -0.136  0.4307E+00  0.4307E+00  0.9040E+00  0.9039E+00
     -0.055  0.3758E+00  0.3758E+00  0.9342E+00  0.9342E+00
      0.025  0.3353E+00  0.3354E+00  0.9613E+00  0.9612E+00
      0.106  0.3573E+00  0.3572E+00  0.9901E+00  0.9900E+00
      0.186  0.4272E+00  0.4271E+00  0.1024E+01  0.1024E+01
      0.267  0.5182E+00  0.5180E+00  0.1066E+01  0.1066E+01
      0.347  0.5313E+00  0.5313E+00  0.1109E+01  0.1109E+01
      0.428  0.4571E+00  0.4574E+00  0.1146E+01  0.1146E+01
      0.508  0.3938E+00  0.3940E+00  0.1178E+01  0.1177E+01
      0.589  0.4477E+00  0.4474E+00  0.1214E+01  0.1214E+01
      0.669  0.5311E+00  0.5309E+00  0.1256E+01  0.1256E+01
      0.750  0.5054E+00  0.5056E+00  0.1297E+01  0.1297E+01
      0.830  0.4017E+00  0.4019E+00  0.1330E+01  0.1329E+01
      0.911  0.3542E+00  0.3541E+00  0.1358E+01  0.1358E+01
      0.991  0.4414E+00  0.4411E+00  0.1394E+01  0.1394E+01
      1.072  0.6182E+00  0.6179E+00  0.1443E+01  0.1443E+01
      1.152  0.6720E+00  0.6721E+00  0.1498E+01  0.1497E+01
      1.233  0.5887E+00  0.5889E+00  0.1545E+01  0.1545E+01
      1.313  0.4921E+00  0.4923E+00  0.1585E+01  0.1585E+01
      1.394  0.4843E+00  0.4841E+00  0.1624E+01  0.1624E+01
      1.474  0.5819E+00  0.5818E+00  0.1671E+01  0.1670E+01
      1.555  0.5374E+00  0.5378E+00  0.1714E+01  0.1714E+01
      1.635  0.4756E+00  0.4756E+00  0.1752E+01  0.1752E+01
      1.716  0.4636E+00  0.4636E+00  0.1790E+01  0.1789E+01
      1.796  0.4002E+00  0.4003E+00  0.1822E+01  0.1822E+01
      1.877  0.4425E+00  0.4423E+00  0.1858E+01  0.1857E+01
      1.958  0.5410E+00  0.5411E+00  0.1901E+01  0.1901E+01
      2.038  0.5871E+00  0.5870E+00  0.1948E+01  0.1948E+01
      2.119  0.5725E+00  0.5726E+00  0.1994E+01  0.1994E+01
      2.199  0.5219E+00  0.5219E+00  0.2037E+01  0.2036E+01
      2.280  0.6014E+00  0.6011E+00  0.2085E+01  0.2085E+01
      2.360  0.7174E+00  0.7174E+00  0.2143E+01  0.2143E+01
      2.441  0.6110E+00  0.6112E+00  0.2192E+01  0.2192E+01
      2.521  0.4885E+00  0.4888E+00  0.2231E+01  0.2231E+01
      2.602  0.3704E+00  0.3707E+00  0.2261E+01  0.2261E+01
      2.682  0.4527E+00  0.4525E+00  0.2298E+01  0.2298E+01
      2.763  0.6046E+00  0.6044E+00  0.2346E+01  0.2346E+01
      2.843  0.6170E+00  0.6171E+00  0.2396E+01  0.2396E+01
      2.924  0.6469E+00  0.6469E+00  0.2448E+01  0.2448E+01
      3.004  0.6996E+00  0.6995E+00  0.2505E+01  0.2505E+01
      3.085  0.6791E+00  0.6792E+00  0.2559E+01  0.2559E+01
      3.165  0.6681E+00  0.6687E+00  0.2613E+01  0.2613E+01
      3.246  0.6168E+00  0.6171E+00  0.2663E+01  0.2663E+01
      3.326  0.5681E+00  0.5681E+00  0.2709E+01  0.2709E+01
      3.407  0.5403E+00  0.5402E+00  0.2752E+01  0.2752E+01
      3.487  0.6033E+00  0.6033E+00  0.2801E+01  0.2801E+01
      3.568  0.7224E+00  0.7227E+00  0.2859E+01  0.2859E+01
      3.648  0.6924E+00  0.6923E+00  0.2915E+01  0.2915E+01
      3.729  0.6439E+00  0.6438E+00  0.2967E+01  0.2967E+01
      3.809  0.7170E+00  0.7172E+00  0.3024E+01  0.3024E+01
      3.890  0.7781E+00  0.7782E+00  0.3087E+01  0.3087E+01
      3.970  0.7304E+00  0.7304E+00  0.3146E+01  0.3146E+01
      4.051  0.6221E+00  0.6220E+00  0.3196E+01  0.3196E+01
      4.131  0.5387E+00  0.5389E+00  0.3239E+01  0.3240E+01
      4.212  0.4918E+00  0.4919E+00  0.3279E+01  0.3279E+01
      4.292  0.6178E+00  0.6174E+00  0.3329E+01  0.3329E+01
      4.373  0.7451E+00  0.7449E+00  0.3389E+01  0.3389E+01
      4.453  0.6728E+00  0.6733E+00  0.3443E+01  0.3443E+01
      4.534  0.7442E+00  0.7444E+00  0.3503E+01  0.3503E+01
      4.614  0.8295E+00  0.8297E+00  0.3570E+01  0.3570E+01
      4.695  0.7674E+00  0.7679E+00  0.3632E+01  0.3632E+01
      4.775  0.7837E+00  0.7836E+00  0.3695E+01  0.3695E+01
      4.856  0.7674E+00  0.7665E+00  0.3757E+01  0.3757E+01
      4.936  0.7469E+00  0.7468E+00  0.3817E+01  0.3817E+01
      5.017  0.6802E+00  0.6809E+00  0.3872E+01  0.3872E+01
      5.097  0.5713E+00  0.5720E+00  0.3918E+01  0.3918E+01
      5.178  0.6278E+00  0.6275E+00  0.3968E+01  0.3969E+01
      5.258  0.7217E+00  0.7218E+00  0.4027E+01  0.4027E+01
      5.339  0.7676E+00  0.7682E+00  0.4088E+01  0.4089E+01
      5.419  0.7460E+00  0.7454E+00  0.4149E+01  0.4149E+01
      5.500  0.7937E+00  0.7932E+00  0.4212E+01  0.4213E+01
      5.581  0.9328E+00  0.9324E+00  0.4288E+01  0.4288E+01
      5.661  0.8194E+00  0.8201E+00  0.4354E+01  0.4354E+01
      5.742  0.5616E+00  0.5621E+00  0.4399E+01  0.4399E+01
      5.822  0.5159E+00  0.5156E+00  0.4440E+01  0.4441E+01
      5.903  0.5825E+00  0.5815E+00  0.4487E+01  0.4487E+01
      5.983  0.5756E+00  0.5753E+00  0.4534E+01  0.4534E+01
      6.064  0.6684E+00  0.6690E+00  0.4588E+01  0.4588E+01
      6.144  0.7874E+00  0.7874E+00  0.4651E+01  0.4651E+01
      6.225  0.8238E+00  0.8232E+00  0.4717E+01  0.4717E+01
      6.305  0.8964E+00  0.8956E+00  0.4790E+01  0.4790E+01
      6.386  0.9034E+00  0.9030E+00  0.4862E+01  0.4862E+01
      6.466  0.7207E+00  0.7219E+00  0.4921E+01  0.4921E+01
      6.547  0.6223E+00  0.6232E+00  0.4971E+01  0.4971E+01
      6.627  0.6438E+00  0.6429E+00  0.5023E+01  0.5023E+01
      6.708  0.5910E+00  0.5903E+00  0.5070E+01  0.5070E+01
      6.788  0.5325E+00  0.5322E+00  0.5113E+01  0.5113E+01
      6.869  0.6801E+00  0.6796E+00  0.5168E+01  0.5168E+01
      6.949  0.8331E+00  0.8331E+00  0.5235E+01  0.5235E+01
      7.030  0.8247E+00  0.8253E+00  0.5302E+01  0.5301E+01
      7.110  0.8988E+00  0.8996E+00  0.5374E+01  0.5374E+01
      7.191  0.8423E+00  0.8428E+00  0.5442E+01  0.5442E+01
      7.271  0.6507E+00  0.6507E+00  0.5494E+01  0.5494E+01
      7.352  0.5660E+00  0.5649E+00  0.5540E+01  0.5540E+01
      7.432  0.5326E+00  0.5318E+00  0.5583E+01  0.5583E+01
      7.513  0.6286E+00  0.6289E+00  0.5633E+01  0.5633E+01
      7.593  0.8596E+00  0.8603E+00  0.5703E+01  0.5703E+01
      7.674  0.9079E+00  0.9080E+00  0.5776E+01  0.5776E+01
      7.754  0.7848E+00  0.7833E+00  0.5839E+01  0.5839E+01
      7.835  0.6516E+00  0.6506E+00  0.5892E+01  0.5891E+01
      7.915  0.7277E+00  0.7281E+00  0.5950E+01  0.5950E+01
      7.996  0.7853E+00  0.7859E+00  0.6013E+01  0.6013E+01
      8.076  0.6866E+00  0.6866E+00  0.6069E+01  0.6069E+01
      8.157  0.6788E+00  0.6787E+00  0.6123E+01  0.6123E+01
      8.237  0.7675E+00  0.7668E+00  0.6185E+01  0.6185E+01
      8.318  0.8889E+00  0.8869E+00  0.6257E+01  0.6257E+01
      8.398  0.1096E+01  0.1096E+01  0.6345E+01  0.6345E+01
      8.479  0.1163E+01  0.1163E+01  0.6439E+01  0.6438E+01
      8.559  0.9472E+00  0.9481E+00  0.6515E+01  0.6515E+01
      8.640  0.7131E+00  0.7136E+00  0.6573E+01  0.6572E+01
      8.720  0.6532E+00  0.6537E+00  0.6625E+01  0.6625E+01
      8.801  0.6676E+00  0.6686E+00  0.6679E+01  0.6679E+01
      8.881  0.8514E+00  0.8504E+00  0.6748E+01  0.6748E+01
      8.962  0.1000E+01  0.9996E+00  0.6828E+01  0.6828E+01
      9.042  0.9503E+00  0.9511E+00  0.6905E+01  0.6905E+01
      9.123  0.8428E+00  0.8427E+00  0.6973E+01  0.6973E+01
      9.203  0.7907E+00  0.7896E+00  0.7037E+01  0.7036E+01
      9.284  0.8192E+00  0.8186E+00  0.7103E+01  0.7102E+01
      9.365  0.8721E+00  0.8716E+00  0.7173E+01  0.7172E+01
      9.445  0.9785E+00  0.9771E+00  0.7252E+01  0.7251E+01
      9.526  0.9411E+00  0.9418E+00  0.7327E+01  0.7327E+01
      9.606  0.7303E+00  0.7331E+00  0.7386E+01  0.7386E+01
      9.687  0.6556E+00  0.6559E+00  0.7439E+01  0.7439E+01
      9.767  0.8559E+00  0.8534E+00  0.7508E+01  0.7508E+01
      9.848  0.8861E+00  0.8865E+00  0.7580E+01  0.7579E+01
      9.928  0.7715E+00  0.7741E+00  0.7642E+01  0.7642E+01
     10.009  0.7026E+00  0.7041E+00  0.7698E+01  0.7698E+01
     10.089  0.7046E+00  0.7035E+00  0.7755E+01  0.7755E+01
     10.170  0.8413E+00  0.8381E+00  0.7823E+01  0.7823E+01
     10.250  0.1020E+01  0.1018E+01  0.7905E+01  0.7905E+01
     10.331  0.9543E+00  0.9556E+00  0.7982E+01  0.7982E+01
     10.411  0.9237E+00  0.9239E+00  0.8056E+01  0.8056E+01
     10.492  0.9318E+00  0.9291E+00  0.8131E+01  0.8131E+01
     10.572  0.8799E+00  0.8788E+00  0.8202E+01  0.8202E+01
     10.653  0.8610E+00  0.8623E+00  0.8272E+01  0.8271E+01
     10.733  0.9349E+00  0.9366E+00  0.8347E+01  0.8347E+01
     10.814  0.9758E+00  0.9770E+00  0.8426E+01  0.8425E+01
     10.894  0.8630E+00  0.8625E+00  0.8495E+01  0.8495E+01
     10.975  0.8168E+00  0.8138E+00  0.8561E+01  0.8560E+01
     11.055  0.1067E+01  0.1063E+01  0.8647E+01  0.8646E+01
     11.136  0.1118E+01  0.1121E+01  0.8737E+01  0.8736E+01
     11.216  0.8040E+00  0.8070E+00  0.8802E+01  0.8801E+01
     11.297  0.6095E+00  0.6094E+00  0.8851E+01  0.8851E+01
     11.377  0.6382E+00  0.6378E+00  0.8902E+01  0.8902E+01
     11.458  0.8385E+00  0.8369E+00  0.8970E+01  0.8969E+01
     11.538  0.9328E+00  0.9309E+00  0.9045E+01  0.9044E+01
     11.619  0.9482E+00  0.9468E+00  0.9122E+01  0.9121E+01
     11.699  0.9348E+00  0.9357E+00  0.9197E+01  0.9196E+01
     11.780  0.9720E+00  0.9725E+00  0.9275E+01  0.9274E+01
     11.860  0.1090E+01  0.1090E+01  0.9363E+01  0.9362E+01
     11.941  0.1040E+01  0.1038E+01  0.9447E+01  0.9446E+01
     12.021  0.9414E+00  0.9392E+00  0.9523E+01  0.9522E+01
     12.102  0.1049E+01  0.1047E+01  0.9607E+01  0.9606E+01
     12.182  0.1131E+01  0.1135E+01  0.9698E+01  0.9697E+01
     12.263  0.9616E+00  0.9663E+00  0.9776E+01  0.9775E+01
     12.343  0.9033E+00  0.9020E+00  0.9849E+01  0.9848E+01
     12.424  0.1031E+01  0.1027E+01  0.9932E+01  0.9931E+01
     12.504  0.1170E+01  0.1168E+01  0.1003E+02  0.1002E+02
     12.585  0.1249E+01  0.1249E+01  0.1013E+02  0.1013E+02
     12.665  0.9940E+00  0.9998E+00  0.1021E+02  0.1021E+02
     12.746  0.7078E+00  0.7106E+00  0.1026E+02  0.1026E+02
     12.826  0.5901E+00  0.5908E+00  0.1031E+02  0.1031E+02
     12.907  0.6172E+00  0.6145E+00  0.1036E+02  0.1036E+02
     12.987  0.7832E+00  0.7767E+00  0.1042E+02  0.1042E+02
     13.068  0.9508E+00  0.9445E+00  0.1050E+02  0.1050E+02
     13.149  0.1016E+01  0.1008E+01  0.1058E+02  0.1058E+02
     13.229  0.1080E+01  0.1080E+01  0.1067E+02  0.1067E+02
     13.310  0.1103E+01  0.1116E+01  0.1076E+02  0.1076E+02
     13.390  0.1017E+01  0.1030E+01  0.1084E+02  0.1084E+02
     13.471  0.1028E+01  0.1030E+01  0.1092E+02  0.1092E+02
     13.551  0.9846E+00  0.9753E+00  0.1100E+02  0.1100E+02
     13.632  0.8786E+00  0.8787E+00  0.1107E+02  0.1107E+02
     13.712  0.8437E+00  0.8480E+00  0.1114E+02  0.1114E+02
     13.793  0.6922E+00  0.6959E+00  0.1120E+02  0.1120E+02
     13.873  0.4279E+00  0.4390E+00  0.1123E+02  0.1123E+02
     13.954  0.3493E+00  0.3751E+00  0.1126E+02  0.1126E+02
     14.034  0.4892E+00  0.5042E+00  0.1130E+02  0.1130E+02
     14.115  0.6585E+00  0.6295E+00  0.1135E+02  0.1135E+02
     14.195  0.6380E+00  0.6206E+00  0.1140E+02  0.1140E+02
     14.276  0.4593E+00  0.4600E+00  0.1144E+02  0.1144E+02
     14.356  0.3253E+00  0.3201E+00  0.1147E+02  0.1147E+02
     14.437  0.2232E+00  0.2159E+00  0.1149E+02  0.1148E+02
     14.517  0.2129E+00  0.2146E+00  0.1150E+02  0.1150E+02
     14.598  0.3303E+00  0.3297E+00  0.1153E+02  0.1153E+02
     14.678  0.4153E+00  0.4146E+00  0.1156E+02  0.1156E+02
     14.759  0.3419E+00  0.3471E+00  0.1159E+02  0.1159E+02
     14.839  0.2706E+00  0.2736E+00  0.1161E+02  0.1161E+02
     14.920  0.2423E+00  0.2423E+00  0.1163E+02  0.1163E+02
     15.000  0.2050E+00  0.2066E+00  0.1165E+02  0.1165E+02
     15.081  0.2251E+00  0.2307E+00  0.1167E+02  0.1167E+02
     15.161  0.2715E+00  0.2756E+00  0.1169E+02  0.1169E+02
     15.242  0.2948E+00  0.3053E+00  0.1171E+02  0.1171E+02
     15.322  0.2063E+00  0.2295E+00  0.1173E+02  0.1173E+02
     15.403  0.1263E+00  0.1235E+00  0.1174E+02  0.1174E+02
     15.483  0.1484E+00  0.1221E+00  0.1175E+02  0.1175E+02
     15.564  0.2067E+00  0.1934E+00  0.1177E+02  0.1177E+02
     15.644  0.2090E+00  0.2061E+00  0.1178E+02  0.1178E+02
     15.725  0.2192E+00  0.2175E+00  0.1180E+02  0.1180E+02
     15.805  0.2459E+00  0.2444E+00  0.1182E+02  0.1182E+02
     15.886  0.2519E+00  0.2518E+00  0.1184E+02  0.1184E+02
     15.966  0.1627E+00  0.1651E+00  0.1185E+02  0.1185E+02
     16.047  0.8888E-01  0.8992E-01  0.1186E+02  0.1186E+02
     16.127  0.7494E-01  0.7554E-01  0.1187E+02  0.1187E+02
     16.208  0.8418E-01  0.8436E-01  0.1187E+02  0.1187E+02
     16.288  0.1453E+00  0.1453E+00  0.1189E+02  0.1189E+02
     16.369  0.1529E+00  0.1531E+00  0.1190E+02  0.1190E+02
     16.449  0.8600E-01  0.8586E-01  0.1191E+02  0.1191E+02
     16.530  0.8098E-01  0.8016E-01  0.1191E+02  0.1191E+02
     16.610  0.1078E+00  0.1076E+00  0.1192E+02  0.1192E+02
     16.691  0.8181E-01  0.8259E-01  0.1193E+02  0.1193E+02
     16.772  0.3241E-01  0.3304E-01  0.1193E+02  0.1193E+02
     16.852  0.1033E-01  0.1043E-01  0.1193E+02  0.1193E+02
     16.933  0.1286E-01  0.1247E-01  0.1193E+02  0.1193E+02
     17.013  0.3902E-01  0.3741E-01  0.1194E+02  0.1193E+02
     17.094  0.7089E-01  0.6638E-01  0.1194E+02  0.1194E+02
     17.174  0.8018E-01  0.7440E-01  0.1195E+02  0.1195E+02
     17.255  0.7863E-01  0.8307E-01  0.1195E+02  0.1195E+02
     17.335  0.7792E-01  0.8389E-01  0.1196E+02  0.1196E+02
     17.416  0.7409E-01  0.7843E-01  0.1197E+02  0.1197E+02
     17.496  0.8010E-01  0.8179E-01  0.1197E+02  0.1197E+02
     17.577  0.8152E-01  0.7873E-01  0.1198E+02  0.1198E+02
     17.657  0.5625E-01  0.5512E-01  0.1198E+02  0.1198E+02
     17.738  0.1990E-01  0.1994E-01  0.1198E+02  0.1198E+02
     17.818  0.5810E-02  0.5811E-02  0.1199E+02  0.1199E+02
     17.899  0.6569E-02  0.6400E-02  0.1199E+02  0.1199E+02
     17.979  0.2174E-01  0.2131E-01  0.1199E+02  0.1199E+02
     18.060  0.4561E-01  0.4537E-01  0.1199E+02  0.1199E+02
     18.140  0.3994E-01  0.4047E-01  0.1199E+02  0.1199E+02
     18.221  0.1612E-01  0.1649E-01  0.1200E+02  0.1200E+02
     18.301  0.4185E-02  0.4288E-02  0.1200E+02  0.1200E+02
     18.382  0.1660E-02  0.1653E-02  0.1200E+02  0.1200E+02
     18.462  0.3777E-02  0.3656E-02  0.1200E+02  0.1200E+02
     18.543  0.1189E-01  0.1165E-01  0.1200E+02  0.1200E+02
     18.623  0.1704E-01  0.1711E-01  0.1200E+02  0.1200E+02
     18.704  0.8687E-02  0.8918E-02  0.1200E+02  0.1200E+02
     18.784  0.2304E-02  0.2388E-02  0.1200E+02  0.1200E+02
     18.865  0.4908E-03  0.5099E-03  0.1200E+02  0.1200E+02
     18.945  0.9937E-04  0.1033E-03  0.1200E+02  0.1200E+02
     19.026  0.0000E+00  0.0000E+00  0.1200E+02  0.1200E+02
     19.106  0.0000E+00  0.0000E+00  0.1200E+02  0.1200E+02
     19.187  0.0000E+00  0.0000E+00  0.1200E+02  0.1200E+02
     19.267  0.0000E+00  0.0000E+00  0.1200E+02  0.1200E+02
     19.348  0.0000E+00  0.0000E+00  0.1200E+02  0.1200E+02
     19.428  0.0000E+00  0.0000E+00  0.1200E+02  0.1200E+02
     19.509  0.0000E+00  0.0000E+00  0.1200E+02  0.1200E+02
     19.589  0.0000E+00  0.0000E+00  0.1200E+02  0.1200E+02
     19.670  0.0000E+00  0.0000E+00  0.1200E+02  0.1200E+02
     19.66989964     -4.48335668  301      7.28110783      1.00000000
     -4.483  0.0000E+00  0.0000E+00  0.0000E+00  0.0000E+00  0.0000E+00  0.0000E+00  0.0000E+00  0.0000E+00  0.0000E+00  0.0000E+00  0.0000E+00  0.0000E+00  0.0000E+00  0.0000E+00  0.0000E+00  0.0000E+00  0.0000E+00  0.0000E+00
     -4.403  0.0000E+00  0.0000E+00  0.0000E+00  0.0000E+00  0.0000E+00  0.0000E+00  0.0000E+00  0.0000E+00  0.0000E+00  0.0000E+00  0.0000E+00  0.0000E+00  0.0000E+00  0.0000E+00  0.0000E+00  0.0000E+00  0.0000E+00  0.0000E+00
     -4.322  0.0000E+00  0.0000E+00  0.0000E+00  0.0000E+00  0.0000E+00  0.0000E+00  0.0000E+00  0.0000E+00  0.0000E+00  0.0000E+00  0.0000E+00  0.0000E+00  0.0000E+00  0.0000E+00  0.0000E+00  0.0000E+00  0.0000E+00  0.0000E+00
     -4.242  0.0000E+00  0.0000E+00  0.0000E+00  0.0000E+00  0.0000E+00  0.0000E+00  0.0000E+00  0.0000E+00  0.0000E+00  0.0000E+00  0.0000E+00  0.0000E+00  0.0000E+00  0.0000E+00  0.0000E+00  0.0000E+00  0.0000E+00  0.0000E+00
     -4.161  0.0000E+00  0.0000E+00  0.0000E+00  0.0000E+00  0.0000E+00  0.0000E+00  0.0000E+00  0.0000E+00  0.0000E+00  0.0000E+00  0.0000E+00  0.0000E+00  0.0000E+00  0.0000E+00  0.0000E+00  0.0000E+00  0.0000E+00  0.0000E+00
     -4.081  0.0000E+00  0.0000E+00  0.0000E+00  0.0000E+00  0.0000E+00  0.0000E+00  0.0000E+00  0.0000E+00  0.0000E+00  0.0000E+00  0.0000E+00  0.0000E+00  0.0000E+00  0.0000E+00  0.0000E+00  0.0000E+00  0.0000E+00  0.0000E+00
     -4.000  0.0000E+00  0.0000E+00  0.0000E+00  0.0000E+00  0.0000E+00  0.0000E+00  0.0000E+00  0.0000E+00  0.0000E+00  0.0000E+00  0.0000E+00  0.0000E+00  0.0000E+00  0.0000E+00  0.0000E+00  0.0000E+00  0.0000E+00  0.0000E+00
     -3.920  0.0000E+00  0.0000E+00  0.0000E+00  0.0000E+00  0.0000E+00  0.0000E+00  0.0000E+00  0.0000E+00  0.0000E+00  0.0000E+00  0.0000E+00  0.0000E+00  0.0000E+00  0.0000E+00  0.0000E+00  0.0000E+00  0.0000E+00  0.0000E+00
     -3.839  0.2447E-07  0.2435E-07  0.3571E-24  0.1408E-21  0.3571E-24  0.1408E-21  0.1523E-24  0.2356E-21  0.2349E-23  0.1639E-22  0.1146E-22  0.1473E-22  0.4898E-19  0.5020E-19  0.2349E-23  0.1639E-22  0.6308E-19  0.6424E-19
     -3.759  0.3456E-06  0.3439E-06  0.5420E-09  0.5396E-09  0.5420E-09  0.5396E-09  0.5418E-09  0.5394E-09  0.2180E-20  0.4993E-21  0.1543E-20  0.4177E-21  0.4128E-12  0.4108E-12  0.2180E-20  0.4993E-21  0.5304E-12  0.5279E-12
     -3.678  0.2504E-05  0.2491E-05  0.7081E-08  0.7051E-08  0.7081E-08  0.7051E-08  0.7080E-08  0.7050E-08  0.1067E-10  0.1063E-10  0.1067E-10  0.1063E-10  0.3443E-11  0.3426E-11  0.1067E-10  0.1063E-10  0.3516E-11  0.3500E-11
     -3.598  0.1168E-04  0.1162E-04  0.3261E-07  0.3247E-07  0.3261E-07  0.3247E-07  0.3260E-07  0.3246E-07  0.4268E-10  0.4252E-10  0.4265E-10  0.4249E-10  0.2186E-10  0.2175E-10  0.4268E-10  0.4252E-10  0.2447E-10  0.2435E-10
     -3.517  0.5889E-04  0.5861E-04  0.1848E-06  0.1840E-06  0.1848E-06  0.1840E-06  0.1847E-06  0.1839E-06  0.3024E-09  0.3012E-09  0.3023E-09  0.3011E-09  0.1478E-09  0.1471E-09  0.3024E-09  0.3012E-09  0.1675E-09  0.1667E-09
     -3.437  0.2621E-03  0.2609E-03  0.8553E-06  0.8519E-06  0.8553E-06  0.8519E-06  0.8550E-06  0.8516E-06  0.1393E-08  0.1388E-08  0.1392E-08  0.1387E-08  0.6647E-09  0.6615E-09  0.1393E-08  0.1388E-08  0.7499E-09  0.7463E-09
     -3.356  0.9129E-03  0.9097E-03  0.3540E-05  0.3528E-05  0.3540E-05  0.3528E-05  0.3539E-05  0.3527E-05  0.6528E-08  0.6507E-08  0.6526E-08  0.6504E-08  0.2892E-08  0.2880E-08  0.6528E-08  0.6507E-08  0.3248E-08  0.3233E-08
     -3.276  0.2027E-02  0.2022E-02  0.1049E-04  0.1046E-04  0.1049E-04  0.1046E-04  0.1049E-04  0.1045E-04  0.2362E-07  0.2353E-07  0.2361E-07  0.2354E-07  0.1026E-07  0.1021E-07  0.2362E-07  0.2353E-07  0.1176E-07  0.1169E-07
     -3.195  0.2973E-02  0.2968E-02  0.2271E-04  0.2267E-04  0.2271E-04  0.2267E-04  0.2270E-04  0.2267E-04  0.6381E-07  0.6371E-07  0.6380E-07  0.6367E-07  0.3188E-07  0.3177E-07  0.6381E-07  0.6371E-07  0.3789E-07  0.3777E-07
     -3.115  0.4034E-02  0.4027E-02  0.4342E-04  0.4336E-04  0.4342E-04  0.4336E-04  0.4341E-04  0.4335E-04  0.1553E-06  0.1551E-06  0.1553E-06  0.1550E-06  0.7515E-07  0.7495E-07  0.1553E-06  0.1551E-06  0.8969E-07  0.8946E-07
     -3.034  0.4637E-02  0.4633E-02  0.6170E-04  0.6167E-04  0.6170E-04  0.6167E-04  0.6171E-04  0.6167E-04  0.2899E-06  0.2896E-06  0.2899E-06  0.2896E-06  0.1125E-06  0.1123E-06  0.2899E-06  0.2896E-06  0.1313E-06  0.1311E-06
     -2.954  0.4516E-02  0.4510E-02  0.7843E-04  0.7835E-04  0.7843E-04  0.7835E-04  0.7838E-04  0.7829E-04  0.4685E-06  0.4680E-06  0.4686E-06  0.4680E-06  0.1862E-06  0.1856E-06  0.4685E-06  0.4680E-06  0.2109E-06  0.2103E-06
     -2.873  0.5647E-02  0.5638E-02  0.1214E-03  0.1213E-03  0.1214E-03  0.1213E-03  0.1213E-03  0.1212E-03  0.7681E-06  0.7675E-06  0.7681E-06  0.7675E-06  0.3850E-06  0.3839E-06  0.7681E-06  0.7675E-06  0.4516E-06  0.4503E-06
     -2.793  0.6209E-02  0.6203E-02  0.1526E-03  0.1526E-03  0.1526E-03  0.1526E-03  0.1526E-03  0.1526E-03  0.1048E-05  0.1047E-05  0.1048E-05  0.1047E-05  0.5593E-06  0.5584E-06  0.1048E-05  0.1047E-05  0.6742E-06  0.6731E-06
     -2.712  0.6001E-02  0.5994E-02  0.1712E-03  0.1711E-03  0.1712E-03  0.1711E-03  0.1712E-03  0.1711E-03  0.1574E-05  0.1573E-05  0.1575E-05  0.1574E-05  0.5961E-06  0.5953E-06  0.1574E-05  0.1573E-05  0.6960E-06  0.6951E-06
     -2.632  0.6485E-02  0.6478E-02  0.2109E-03  0.2108E-03  0.2109E-03  0.2108E-03  0.2108E-03  0.2107E-03  0.2325E-05  0.2324E-05  0.2324E-05  0.2323E-05  0.7375E-06  0.7362E-06  0.2325E-05  0.2324E-05  0.8325E-06  0.8311E-06
     -2.551  0.6027E-02  0.6022E-02  0.2221E-03  0.2220E-03  0.2221E-03  0.2220E-03  0.2218E-03  0.2218E-03  0.2444E-05  0.2444E-05  0.2443E-05  0.2443E-05  0.9832E-06  0.9811E-06  0.2444E-05  0.2444E-05  0.1158E-05  0.1155E-05
     -2.471  0.6645E-02  0.6634E-02  0.2863E-03  0.2861E-03  0.2863E-03  0.2861E-03  0.2859E-03  0.2856E-03  0.3135E-05  0.3132E-05  0.3138E-05  0.3134E-05  0.1620E-05  0.1616E-05  0.3135E-05  0.3132E-05  0.1960E-05  0.1956E-05
     -2.390  0.7940E-02  0.7930E-02  0.3717E-03  0.3716E-03  0.3717E-03  0.3716E-03  0.3717E-03  0.3716E-03  0.4612E-05  0.4608E-05  0.4615E-05  0.4612E-05  0.2157E-05  0.2154E-05  0.4612E-05  0.4608E-05  0.2542E-05  0.2538E-05
     -2.310  0.7812E-02  0.7804E-02  0.3971E-03  0.3970E-03  0.3971E-03  0.3970E-03  0.3972E-03  0.3971E-03  0.5769E-05  0.5766E-05  0.5769E-05  0.5766E-05  0.2266E-05  0.2263E-05  0.5769E-05  0.5766E-05  0.2601E-05  0.2597E-05
     -2.229  0.7389E-02  0.7383E-02  0.4069E-03  0.4069E-03  0.4069E-03  0.4069E-03  0.4073E-03  0.4072E-03  0.6779E-05  0.6777E-05  0.6774E-05  0.6771E-05  0.2219E-05  0.2217E-05  0.6779E-05  0.6777E-05  0.2566E-05  0.2564E-05
     -2.149  0.6114E-02  0.6110E-02  0.3693E-03  0.3692E-03  0.3693E-03  0.3692E-03  0.3692E-03  0.3691E-03  0.6963E-05  0.6960E-05  0.6962E-05  0.6959E-05  0.1933E-05  0.1931E-05  0.6963E-05  0.6960E-05  0.2249E-05  0.2246E-05
     -2.068  0.6621E-02  0.6610E-02  0.4650E-03  0.4645E-03  0.4650E-03  0.4645E-03  0.4636E-03  0.4630E-03  0.8587E-05  0.8578E-05  0.8600E-05  0.8592E-05  0.3035E-05  0.3028E-05  0.8587E-05  0.8578E-05  0.3550E-05  0.3542E-05
     -1.988  0.8672E-02  0.8659E-02  0.6688E-03  0.6684E-03  0.6688E-03  0.6684E-03  0.6678E-03  0.6674E-03  0.1180E-04  0.1179E-04  0.1180E-04  0.1180E-04  0.5015E-05  0.5007E-05  0.1180E-04  0.1179E-04  0.5887E-05  0.5877E-05
     -1.907  0.8440E-02  0.8433E-02  0.6972E-03  0.6971E-03  0.6972E-03  0.6971E-03  0.6976E-03  0.6975E-03  0.1306E-04  0.1305E-04  0.1305E-04  0.1304E-04  0.5271E-05  0.5266E-05  0.1306E-04  0.1305E-04  0.6272E-05  0.6267E-05
     -1.826  0.8177E-02  0.8168E-02  0.7302E-03  0.7299E-03  0.7302E-03  0.7299E-03  0.7300E-03  0.7296E-03  0.1562E-04  0.1561E-04  0.1563E-04  0.1562E-04  0.5308E-05  0.5302E-05  0.1562E-04  0.1561E-04  0.6345E-05  0.6338E-05
     -1.746  0.7208E-02  0.7205E-02  0.6861E-03  0.6863E-03  0.6861E-03  0.6863E-03  0.6871E-03  0.6873E-03  0.1571E-04  0.1571E-04  0.1571E-04  0.1571E-04  0.5057E-05  0.5055E-05  0.1571E-04  0.1571E-04  0.5972E-05  0.5970E-05
     -1.665  0.6021E-02  0.6015E-02  0.6349E-03  0.6345E-03  0.6349E-03  0.6345E-03  0.6344E-03  0.6339E-03  0.1689E-04  0.1687E-04  0.1692E-04  0.1690E-04  0.4431E-05  0.4428E-05  0.1689E-04  0.1687E-04  0.4976E-05  0.4973E-05
     -1.585  0.7644E-02  0.7633E-02  0.9191E-03  0.9181E-03  0.9191E-03  0.9181E-03  0.9157E-03  0.9147E-03  0.2560E-04  0.2557E-04  0.2562E-04  0.2560E-04  0.5890E-05  0.5884E-05  0.2560E-04  0.2557E-04  0.6543E-05  0.6538E-05
     -1.504  0.8297E-02  0.8291E-02  0.1184E-02  0.1184E-02  0.1184E-02  0.1184E-02  0.1181E-02  0.1180E-02  0.2986E-04  0.2986E-04  0.2984E-04  0.2984E-04  0.7280E-05  0.7277E-05  0.2986E-04  0.2986E-04  0.8314E-05  0.8310E-05
     -1.424  0.6854E-02  0.6851E-02  0.1178E-02  0.1178E-02  0.1178E-02  0.1178E-02  0.1178E-02  0.1178E-02  0.2786E-04  0.2786E-04  0.2784E-04  0.2784E-04  0.6914E-05  0.6912E-05  0.2786E-04  0.2786E-04  0.8086E-05  0.8084E-05
     -1.343  0.5808E-02  0.5804E-02  0.1157E-02  0.1156E-02  0.1157E-02  0.1156E-02  0.1156E-02  0.1155E-02  0.2938E-04  0.2937E-04  0.2941E-04  0.2940E-04  0.6558E-05  0.6555E-05  0.2938E-04  0.2937E-04  0.7777E-05  0.7773E-05
     -1.263  0.5520E-02  0.5513E-02  0.1208E-02  0.1207E-02  0.1208E-02  0.1207E-02  0.1209E-02  0.1208E-02  0.3459E-04  0.3456E-04  0.3463E-04  0.3461E-04  0.6699E-05  0.6696E-05  0.3459E-04  0.3456E-04  0.7761E-05  0.7758E-05
     -1.182  0.6388E-02  0.6379E-02  0.1268E-02  0.1267E-02  0.1268E-02  0.1267E-02  0.1269E-02  0.1269E-02  0.4698E-04  0.4695E-04  0.4704E-04  0.4701E-04  0.6866E-05  0.6862E-05  0.4698E-04  0.4695E-04  0.7439E-05  0.7436E-05
     -1.102  0.6678E-02  0.6672E-02  0.1384E-02  0.1384E-02  0.1384E-02  0.1384E-02  0.1383E-02  0.1382E-02  0.5719E-04  0.5718E-04  0.5721E-04  0.5720E-04  0.7213E-05  0.7210E-05  0.5719E-04  0.5718E-04  0.7804E-05  0.7801E-05
     -1.021  0.5755E-02  0.5752E-02  0.1379E-02  0.1378E-02  0.1379E-02  0.1378E-02  0.1380E-02  0.1379E-02  0.5876E-04  0.5875E-04  0.5871E-04  0.5871E-04  0.6863E-05  0.6862E-05  0.5876E-04  0.5875E-04  0.7593E-05  0.7592E-05
     -0.941  0.4282E-02  0.4281E-02  0.1092E-02  0.1093E-02  0.1092E-02  0.1093E-02  0.1096E-02  0.1097E-02  0.4997E-04  0.4999E-04  0.4984E-04  0.4986E-04  0.5237E-05  0.5238E-05  0.4997E-04  0.4999E-04  0.5774E-05  0.5776E-05
     -0.860  0.3158E-02  0.3155E-02  0.8888E-03  0.8884E-03  0.8888E-03  0.8884E-03  0.8895E-03  0.8891E-03  0.4549E-04  0.4547E-04  0.4549E-04  0.4547E-04  0.3949E-05  0.3948E-05  0.4549E-04  0.4547E-04  0.4404E-05  0.4402E-05
     -0.780  0.3860E-02  0.3853E-02  0.1015E-02  0.1014E-02  0.1015E-02  0.1014E-02  0.1015E-02  0.1014E-02  0.5983E-04  0.5978E-04  0.5998E-04  0.5993E-04  0.4924E-05  0.4917E-05  0.5983E-04  0.5978E-04  0.5275E-05  0.5268E-05
     -0.699  0.5330E-02  0.5322E-02  0.1316E-02  0.1315E-02  0.1316E-02  0.1315E-02  0.1313E-02  0.1312E-02  0.8410E-04  0.8406E-04  0.8429E-04  0.8426E-04  0.8985E-05  0.8965E-05  0.8410E-04  0.8406E-04  0.9701E-05  0.9677E-05
     -0.619  0.6095E-02  0.6083E-02  0.1361E-02  0.1361E-02  0.1361E-02  0.1361E-02  0.1361E-02  0.1361E-02  0.8719E-04  0.8720E-04  0.8706E-04  0.8708E-04  0.1820E-04  0.1815E-04  0.8719E-04  0.8720E-04  0.2156E-04  0.2150E-04
     -0.538  0.7994E-02  0.7976E-02  0.1199E-02  0.1198E-02  0.1199E-02  0.1198E-02  0.1201E-02  0.1200E-02  0.7573E-04  0.7574E-04  0.7556E-04  0.7556E-04  0.3560E-04  0.3553E-04  0.7573E-04  0.7574E-04  0.4431E-04  0.4423E-04
     -0.458  0.9446E-02  0.9434E-02  0.1055E-02  0.1055E-02  0.1055E-02  0.1055E-02  0.1059E-02  0.1058E-02  0.6597E-04  0.6598E-04  0.6577E-04  0.6578E-04  0.4731E-04  0.4729E-04  0.6597E-04  0.6598E-04  0.5954E-04  0.5952E-04