   4   4   1   0
  0.1772129E+02  0.4137663E-09  0.4139044E-09  0.4139044E-09  0.5000000E-15
  1.000000000000000E-004
  CAR 
 unknown system                          
     17.96818096     -4.68692091  301      6.45307829      1.00000000
     -4.687  0.0000E+00  0.0000E+00  0.0000E+00  0.0000E+00
     -4.611  0.0000E+00  0.0000E+00  0.0000E+00  0.0000E+00
     -4.536  0.0000E+00  0.0000E+00  0.0000E+00  0.0000E+00
     -4.460  0.0000E+00  0.0000E+00  0.0000E+00  0.0000E+00
     -4.385  0.0000E+00  0.0000E+00  0.0000E+00  0.0000E+00
     -4.309  0.0000E+00  0.0000E+00  0.0000E+00  0.0000E+00
     -4.234  0.0000E+00  0.0000E+00  0.0000E+00  0.0000E+00
     -4.158  0.0000E+00  0.0000E+00  0.0000E+00  0.0000E+00
     -4.083  0.1210E-05  0.1163E-05  0.9141E-07  0.8784E-07
     -4.007  0.2489E-04  0.2392E-04  0.1971E-05  0.1894E-05
     -3.932  0.1015E-03  0.9750E-04  0.9633E-05  0.9257E-05
     -3.856  0.4758E-03  0.4574E-03  0.4556E-04  0.4380E-04
     -3.781  0.2094E-02  0.2015E-02  0.2037E-03  0.1959E-03
     -3.705  0.8454E-02  0.8165E-02  0.8421E-03  0.8125E-03
     -3.630  0.2708E-01  0.2639E-01  0.2887E-02  0.2805E-02
     -3.554  0.5808E-01  0.5724E-01  0.7274E-02  0.7128E-02
     -3.479  0.8649E-01  0.8577E-01  0.1380E-01  0.1361E-01
     -3.403  0.1178E+00  0.1169E+00  0.2270E-01  0.2244E-01
     -3.328  0.1368E+00  0.1367E+00  0.3303E-01  0.3276E-01
     -3.252  0.1391E+00  0.1386E+00  0.4353E-01  0.4323E-01
     -3.177  0.1728E+00  0.1718E+00  0.5658E-01  0.5621E-01
     -3.101  0.1926E+00  0.1926E+00  0.7114E-01  0.7076E-01
     -3.026  0.1921E+00  0.1919E+00  0.8564E-01  0.8525E-01
     -2.950  0.2077E+00  0.2074E+00  0.1013E+00  0.1009E+00
     -2.875  0.2014E+00  0.2017E+00  0.1166E+00  0.1162E+00
     -2.799  0.2251E+00  0.2237E+00  0.1336E+00  0.1331E+00
     -2.723  0.2697E+00  0.2692E+00  0.1540E+00  0.1534E+00
     -2.648  0.2726E+00  0.2726E+00  0.1745E+00  0.1740E+00
     -2.572  0.2625E+00  0.2631E+00  0.1944E+00  0.1939E+00
     -2.497  0.2282E+00  0.2288E+00  0.2116E+00  0.2112E+00
     -2.421  0.2536E+00  0.2517E+00  0.2308E+00  0.2302E+00
     -2.346  0.3328E+00  0.3313E+00  0.2559E+00  0.2552E+00
     -2.270  0.3394E+00  0.3400E+00  0.2816E+00  0.2809E+00
     -2.195  0.3350E+00  0.3347E+00  0.3069E+00  0.3062E+00
     -2.119  0.3077E+00  0.3094E+00  0.3302E+00  0.3296E+00
     -2.044  0.2726E+00  0.2719E+00  0.3508E+00  0.3502E+00
     -1.968  0.3537E+00  0.3510E+00  0.3775E+00  0.3767E+00
     -1.893  0.4218E+00  0.4213E+00  0.4094E+00  0.4085E+00
     -1.817  0.3968E+00  0.3981E+00  0.4393E+00  0.4386E+00
     -1.742  0.3684E+00  0.3686E+00  0.4672E+00  0.4665E+00
     -1.666  0.3692E+00  0.3690E+00  0.4951E+00  0.4943E+00
     -1.591  0.3940E+00  0.3929E+00  0.5248E+00  0.5240E+00
     -1.515  0.4262E+00  0.4260E+00  0.5571E+00  0.5562E+00
     -1.440  0.4083E+00  0.4095E+00  0.5879E+00  0.5872E+00
     -1.364  0.3271E+00  0.3297E+00  0.6127E+00  0.6121E+00
     -1.289  0.2599E+00  0.2603E+00  0.6323E+00  0.6318E+00
     -1.213  0.2891E+00  0.2874E+00  0.6542E+00  0.6535E+00
     -1.138  0.3733E+00  0.3713E+00  0.6824E+00  0.6816E+00
     -1.062  0.4001E+00  0.4005E+00  0.7126E+00  0.7119E+00
     -0.987  0.3860E+00  0.3859E+00  0.7418E+00  0.7410E+00
     -0.911  0.3806E+00  0.3813E+00  0.7706E+00  0.7698E+00
     -0.836  0.3546E+00  0.3545E+00  0.7973E+00  0.7966E+00
     -0.760  0.4066E+00  0.4045E+00  0.8281E+00  0.8272E+00
     -0.685  0.4703E+00  0.4695E+00  0.8636E+00  0.8627E+00
     -0.609  0.4541E+00  0.4554E+00  0.8979E+00  0.8971E+00
     -0.533  0.4041E+00  0.4050E+00  0.9285E+00  0.9277E+00
     -0.458  0.3669E+00  0.3679E+00  0.9562E+00  0.9555E+00
     -0.382  0.3706E+00  0.3693E+00  0.9842E+00  0.9834E+00
     -0.307  0.4373E+00  0.4354E+00  0.1017E+01  0.1016E+01
     -0.231  0.5250E+00  0.5230E+00  0.1057E+01  0.1056E+01
     -0.156  0.5593E+00  0.5596E+00  0.1099E+01  0.1098E+01
     -0.080  0.5058E+00  0.5078E+00  0.1137E+01  0.1136E+01
     -0.005  0.4377E+00  0.4387E+00  0.1170E+01  0.1170E+01
      0.071  0.4610E+00  0.4590E+00  0.1205E+01  0.1204E+01
      0.146  0.5439E+00  0.5424E+00  0.1246E+01  0.1245E+01
      0.222  0.5484E+00  0.5499E+00  0.1288E+01  0.1287E+01
      0.297  0.4554E+00  0.4580E+00  0.1322E+01  0.1321E+01
      0.373  0.3898E+00  0.3902E+00  0.1352E+01  0.1351E+01
      0.448  0.4467E+00  0.4432E+00  0.1386E+01  0.1384E+01
      0.524  0.6166E+00  0.6122E+00  0.1432E+01  0.1431E+01
      0.599  0.7089E+00  0.7088E+00  0.1486E+01  0.1484E+01
      0.675  0.6515E+00  0.6540E+00  0.1535E+01  0.1534E+01
      0.750  0.5501E+00  0.5529E+00  0.1577E+01  0.1576E+01
      0.826  0.5018E+00  0.5007E+00  0.1614E+01  0.1613E+01
      0.901  0.5919E+00  0.5900E+00  0.1659E+01  0.1658E+01
      0.977  0.5716E+00  0.5740E+00  0.1702E+01  0.1701E+01
      1.052  0.5094E+00  0.5096E+00  0.1741E+01  0.1740E+01
      1.128  0.5131E+00  0.5137E+00  0.1780E+01  0.1779E+01
      1.203  0.4505E+00  0.4521E+00  0.1814E+01  0.1813E+01
      1.279  0.4482E+00  0.4467E+00  0.1848E+01  0.1847E+01
      1.354  0.5131E+00  0.5117E+00  0.1886E+01  0.1885E+01
      1.430  0.5769E+00  0.5748E+00  0.1930E+01  0.1929E+01
      1.505  0.6281E+00  0.6286E+00  0.1977E+01  0.1976E+01
      1.581  0.5596E+00  0.5612E+00  0.2020E+01  0.2019E+01
      1.657  0.5780E+00  0.5755E+00  0.2063E+01  0.2062E+01
      1.732  0.6959E+00  0.6934E+00  0.2116E+01  0.2115E+01
      1.808  0.6977E+00  0.6999E+00  0.2169E+01  0.2167E+01
      1.883  0.5842E+00  0.5879E+00  0.2213E+01  0.2212E+01
      1.959  0.4359E+00  0.4393E+00  0.2246E+01  0.2245E+01
      2.034  0.4155E+00  0.4130E+00  0.2277E+01  0.2276E+01
      2.110  0.5745E+00  0.5704E+00  0.2321E+01  0.2319E+01
      2.185  0.6568E+00  0.6569E+00  0.2370E+01  0.2369E+01
      2.261  0.6228E+00  0.6233E+00  0.2417E+01  0.2416E+01
      2.336  0.6673E+00  0.6651E+00  0.2468E+01  0.2466E+01
      2.412  0.7374E+00  0.7370E+00  0.2523E+01  0.2522E+01
      2.487  0.7039E+00  0.7058E+00  0.2577E+01  0.2575E+01
      2.563  0.6226E+00  0.6248E+00  0.2624E+01  0.2623E+01
      2.638  0.5878E+00  0.5879E+00  0.2668E+01  0.2667E+01
      2.714  0.6049E+00  0.6041E+00  0.2714E+01  0.2713E+01
      2.789  0.6404E+00  0.6397E+00  0.2762E+01  0.2761E+01
      2.865  0.6528E+00  0.6525E+00  0.2812E+01  0.2810E+01
      2.940  0.6778E+00  0.6773E+00  0.2863E+01  0.2862E+01
      3.016  0.7136E+00  0.7133E+00  0.2917E+01  0.2915E+01
      3.091  0.7059E+00  0.7057E+00  0.2970E+01  0.2969E+01
      3.167  0.7653E+00  0.7628E+00  0.3028E+01  0.3026E+01
      3.242  0.8398E+00  0.8397E+00  0.3091E+01  0.3090E+01
      3.318  0.7720E+00  0.7745E+00  0.3150E+01  0.3148E+01
      3.393  0.6505E+00  0.6542E+00  0.3199E+01  0.3198E+01
      3.469  0.5225E+00  0.5249E+00  0.3238E+01  0.3238E+01
      3.544  0.5515E+00  0.5481E+00  0.3280E+01  0.3279E+01
      3.620  0.7537E+00  0.7493E+00  0.3337E+01  0.3336E+01
      3.695  0.7712E+00  0.7738E+00  0.3395E+01  0.3394E+01
      3.771  0.6830E+00  0.6829E+00  0.3447E+01  0.3446E+01
      3.847  0.7741E+00  0.7721E+00  0.3506E+01  0.3504E+01
      3.922  0.7964E+00  0.7980E+00  0.3566E+01  0.3564E+01
      3.998  0.7646E+00  0.7634E+00  0.3623E+01  0.3622E+01
      4.073  0.8833E+00  0.8797E+00  0.3690E+01  0.3689E+01
      4.149  0.9435E+00  0.9445E+00  0.3761E+01  0.3760E+01
      4.224  0.8024E+00  0.8068E+00  0.3822E+01  0.3821E+01
      4.300  0.6525E+00  0.6562E+00  0.3871E+01  0.3870E+01
      4.375  0.5944E+00  0.5941E+00  0.3916E+01  0.3915E+01
      4.451  0.6827E+00  0.6803E+00  0.3968E+01  0.3967E+01
      4.526  0.7200E+00  0.7199E+00  0.4022E+01  0.4021E+01
      4.602  0.7551E+00  0.7530E+00  0.4080E+01  0.4078E+01
      4.677  0.8600E+00  0.8583E+00  0.4145E+01  0.4143E+01
      4.753  0.9013E+00  0.8996E+00  0.4213E+01  0.4211E+01
      4.828  0.9411E+00  0.9424E+00  0.4284E+01  0.4282E+01
      4.904  0.7763E+00  0.7816E+00  0.4342E+01  0.4341E+01
      4.979  0.6395E+00  0.6408E+00  0.4391E+01  0.4390E+01
      5.055  0.6403E+00  0.6397E+00  0.4439E+01  0.4438E+01
      5.130  0.6539E+00  0.6538E+00  0.4489E+01  0.4487E+01
      5.206  0.6352E+00  0.6350E+00  0.4537E+01  0.4535E+01
      5.281  0.6725E+00  0.6708E+00  0.4587E+01  0.4586E+01
      5.357  0.7865E+00  0.7839E+00  0.4647E+01  0.4645E+01
      5.432  0.8816E+00  0.8796E+00  0.4714E+01  0.4712E+01
      5.508  0.9566E+00  0.9537E+00  0.4786E+01  0.4784E+01
      5.583  0.9635E+00  0.9660E+00  0.4859E+01  0.4857E+01
      5.659  0.7320E+00  0.7389E+00  0.4914E+01  0.4913E+01
      5.734  0.6119E+00  0.6117E+00  0.4960E+01  0.4959E+01
      5.810  0.6981E+00  0.6962E+00  0.5013E+01  0.5012E+01
      5.885  0.6277E+00  0.6313E+00  0.5060E+01  0.5059E+01
      5.961  0.5517E+00  0.5503E+00  0.5102E+01  0.5101E+01
      6.036  0.7079E+00  0.7012E+00  0.5156E+01  0.5154E+01
      6.112  0.8871E+00  0.8857E+00  0.5223E+01  0.5221E+01
      6.188  0.8517E+00  0.8538E+00  0.5287E+01  0.5285E+01
      6.263  0.8360E+00  0.8362E+00  0.5350E+01  0.5349E+01
      6.339  0.8466E+00  0.8476E+00  0.5414E+01  0.5413E+01
      6.414  0.7729E+00  0.7749E+00  0.5473E+01  0.5471E+01
      6.490  0.7090E+00  0.7098E+00  0.5526E+01  0.5525E+01
      6.565  0.6378E+00  0.6384E+00  0.5574E+01  0.5573E+01
      6.641  0.6210E+00  0.6179E+00  0.5621E+01  0.5620E+01
      6.716  0.8253E+00  0.8184E+00  0.5684E+01  0.5682E+01
      6.792  0.1014E+01  0.1013E+01  0.5760E+01  0.5758E+01
      6.867  0.9525E+00  0.9573E+00  0.5832E+01  0.5831E+01
      6.943  0.7641E+00  0.7687E+00  0.5890E+01  0.5889E+01
      7.018  0.6540E+00  0.6539E+00  0.5939E+01  0.5938E+01
      7.094  0.7450E+00  0.7409E+00  0.5996E+01  0.5994E+01
      7.169  0.8278E+00  0.8253E+00  0.6058E+01  0.6056E+01
      7.245  0.8382E+00  0.8375E+00  0.6122E+01  0.6120E+01
      7.320  0.9212E+00  0.9190E+00  0.6191E+01  0.6189E+01
      7.396  0.1022E+01  0.1022E+01  0.6268E+01  0.6266E+01
      7.471  0.1037E+01  0.1036E+01  0.6347E+01  0.6345E+01
      7.547  0.1095E+01  0.1093E+01  0.6430E+01  0.6427E+01
      7.622  0.1022E+01  0.1027E+01  0.6507E+01  0.6505E+01
      7.698  0.8005E+00  0.8069E+00  0.6567E+01  0.6566E+01
      7.773  0.6527E+00  0.6548E+00  0.6617E+01  0.6615E+01
      7.849  0.6572E+00  0.6539E+00  0.6666E+01  0.6665E+01
      7.924  0.7924E+00  0.7870E+00  0.6726E+01  0.6724E+01
      8.000  0.9501E+00  0.9468E+00  0.6798E+01  0.6796E+01
      8.075  0.1074E+01  0.1072E+01  0.6879E+01  0.6877E+01
      8.151  0.1079E+01  0.1082E+01  0.6961E+01  0.6959E+01
      8.226  0.9287E+00  0.9322E+00  0.7031E+01  0.7029E+01
      8.302  0.8784E+00  0.8768E+00  0.7097E+01  0.7095E+01
      8.378  0.8973E+00  0.8952E+00  0.7165E+01  0.7163E+01
      8.453  0.9821E+00  0.9802E+00  0.7239E+01  0.7237E+01
      8.529  0.1022E+01  0.1025E+01  0.7317E+01  0.7315E+01
      8.604  0.8094E+00  0.8158E+00  0.7378E+01  0.7376E+01
      8.680  0.6651E+00  0.6652E+00  0.7428E+01  0.7427E+01
      8.755  0.7598E+00  0.7548E+00  0.7485E+01  0.7484E+01
      8.831  0.9257E+00  0.9247E+00  0.7555E+01  0.7553E+01
      8.906  0.7832E+00  0.7908E+00  0.7615E+01  0.7613E+01
      8.982  0.6455E+00  0.6469E+00  0.7663E+01  0.7662E+01
      9.057  0.7720E+00  0.7654E+00  0.7722E+01  0.7720E+01
      9.133  0.1014E+01  0.1006E+01  0.7798E+01  0.7796E+01
      9.208  0.1153E+01  0.1149E+01  0.7886E+01  0.7883E+01
      9.284  0.1088E+01  0.1091E+01  0.7968E+01  0.7965E+01
      9.359  0.9304E+00  0.9336E+00  0.8038E+01  0.8036E+01
      9.435  0.9514E+00  0.9501E+00  0.8110E+01  0.8108E+01
      9.510  0.1016E+01  0.1016E+01  0.8187E+01  0.8184E+01
      9.586  0.9440E+00  0.9444E+00  0.8258E+01  0.8256E+01
      9.661  0.9215E+00  0.9187E+00  0.8328E+01  0.8325E+01
      9.737  0.9956E+00  0.9946E+00  0.8403E+01  0.8400E+01
      9.812  0.1051E+01  0.1053E+01  0.8482E+01  0.8480E+01
      9.888  0.1014E+01  0.1014E+01  0.8559E+01  0.8557E+01
      9.963  0.1027E+01  0.1024E+01  0.8636E+01  0.8634E+01
     10.039  0.1031E+01  0.1034E+01  0.8714E+01  0.8712E+01
     10.114  0.9018E+00  0.9062E+00  0.8783E+01  0.8781E+01
     10.190  0.7998E+00  0.8006E+00  0.8843E+01  0.8841E+01
     10.265  0.7402E+00  0.7397E+00  0.8899E+01  0.8897E+01
     10.341  0.8278E+00  0.8196E+00  0.8962E+01  0.8959E+01
     10.416  0.1138E+01  0.1132E+01  0.9048E+01  0.9045E+01
     10.492  0.1127E+01  0.1134E+01  0.9133E+01  0.9130E+01
     10.568  0.9152E+00  0.9198E+00  0.9202E+01  0.9200E+01
     10.643  0.8939E+00  0.8902E+00  0.9269E+01  0.9267E+01
     10.719  0.1091E+01  0.1084E+01  0.9352E+01  0.9349E+01
     10.794  0.1262E+01  0.1263E+01  0.9447E+01  0.9444E+01
     10.870  0.1155E+01  0.1160E+01  0.9535E+01  0.9532E+01
     10.945  0.1006E+01  0.1009E+01  0.9611E+01  0.9608E+01
     11.021  0.9538E+00  0.9539E+00  0.9683E+01  0.9680E+01
     11.096  0.9770E+00  0.9731E+00  0.9756E+01  0.9754E+01
     11.172  0.1148E+01  0.1139E+01  0.9843E+01  0.9840E+01
     11.247  0.1254E+01  0.1257E+01  0.9938E+01  0.9935E+01
     11.323  0.1147E+01  0.1153E+01  0.1002E+02  0.1002E+02
     11.398  0.1076E+01  0.1079E+01  0.1011E+02  0.1010E+02
     11.474  0.9946E+00  0.9978E+00  0.1018E+02  0.1018E+02
     11.549  0.8991E+00  0.9002E+00  0.1025E+02  0.1025E+02
     11.625  0.8234E+00  0.8232E+00  0.1031E+02  0.1031E+02
     11.700  0.8119E+00  0.8102E+00  0.1037E+02  0.1037E+02
     11.776  0.9581E+00  0.9498E+00  0.1045E+02  0.1044E+02
     11.851  0.1111E+01  0.1109E+01  0.1053E+02  0.1053E+02
     11.927  0.1007E+01  0.1013E+01  0.1061E+02  0.1060E+02
     12.002  0.9180E+00  0.9186E+00  0.1067E+02  0.1067E+02
     12.078  0.9977E+00  0.9946E+00  0.1075E+02  0.1075E+02
     12.153  0.1117E+01  0.1111E+01  0.1083E+02  0.1083E+02
     12.229  0.1178E+01  0.1169E+01  0.1092E+02  0.1092E+02
     12.304  0.1045E+01  0.1048E+01  0.1100E+02  0.1100E+02
     12.380  0.8017E+00  0.8140E+00  0.1106E+02  0.1106E+02
     12.455  0.6509E+00  0.6614E+00  0.1111E+02  0.1111E+02
     12.531  0.6345E+00  0.6439E+00  0.1116E+02  0.1116E+02
     12.606  0.7503E+00  0.7473E+00  0.1122E+02  0.1122E+02
     12.682  0.7123E+00  0.7118E+00  0.1127E+02  0.1127E+02
     12.758  0.5769E+00  0.5750E+00  0.1131E+02  0.1131E+02
     12.833  0.5468E+00  0.5454E+00  0.1136E+02  0.1135E+02
     12.909  0.4781E+00  0.4842E+00  0.1139E+02  0.1139E+02
     12.984  0.4371E+00  0.4427E+00  0.1143E+02  0.1142E+02
     13.060  0.3985E+00  0.4007E+00  0.1146E+02  0.1145E+02
     13.135  0.3255E+00  0.3249E+00  0.1148E+02  0.1148E+02
     13.211  0.2733E+00  0.2732E+00  0.1150E+02  0.1150E+02
     13.286  0.3078E+00  0.3060E+00  0.1152E+02  0.1152E+02
     13.362  0.3297E+00  0.3314E+00  0.1155E+02  0.1155E+02
     13.437  0.2765E+00  0.2778E+00  0.1157E+02  0.1157E+02
     13.513  0.3113E+00  0.3069E+00  0.1159E+02  0.1159E+02
     13.588  0.3834E+00  0.3826E+00  0.1162E+02  0.1162E+02
     13.664  0.2976E+00  0.3025E+00  0.1164E+02  0.1164E+02
     13.739  0.2592E+00  0.2586E+00  0.1166E+02  0.1166E+02
     13.815  0.3048E+00  0.3038E+00  0.1169E+02  0.1169E+02
     13.890  0.2913E+00  0.2932E+00  0.1171E+02  0.1171E+02
     13.966  0.2497E+00  0.2522E+00  0.1173E+02  0.1173E+02
     14.041  0.1652E+00  0.1675E+00  0.1174E+02  0.1174E+02
     14.117  0.1432E+00  0.1418E+00  0.1175E+02  0.1175E+02
     14.192  0.1906E+00  0.1891E+00  0.1177E+02  0.1177E+02
     14.268  0.2064E+00  0.2063E+00  0.1178E+02  0.1178E+02
     14.343  0.2060E+00  0.2055E+00  0.1180E+02  0.1180E+02
     14.419  0.2480E+00  0.2458E+00  0.1182E+02  0.1182E+02
     14.494  0.2997E+00  0.3006E+00  0.1184E+02  0.1184E+02
     14.570  0.2094E+00  0.2137E+00  0.1185E+02  0.1185E+02
     14.645  0.1121E+00  0.1142E+00  0.1186E+02  0.1186E+02
     14.721  0.6227E-01  0.6371E-01  0.1187E+02  0.1187E+02
     14.796  0.4039E-01  0.4009E-01  0.1187E+02  0.1187E+02
     14.872  0.7868E-01  0.7552E-01  0.1188E+02  0.1188E+02
     14.948  0.1556E+00  0.1533E+00  0.1189E+02  0.1189E+02
     15.023  0.1480E+00  0.1504E+00  0.1190E+02  0.1190E+02
     15.099  0.1205E+00  0.1210E+00  0.1191E+02  0.1191E+02
     15.174  0.1351E+00  0.1351E+00  0.1192E+02  0.1192E+02
     15.250  0.1020E+00  0.1040E+00  0.1193E+02  0.1193E+02
     15.325  0.4300E-01  0.4488E-01  0.1193E+02  0.1193E+02
     15.401  0.1341E-01  0.1394E-01  0.1193E+02  0.1193E+02
     15.476  0.1039E-01  0.1020E-01  0.1193E+02  0.1193E+02
     15.552  0.2895E-01  0.2795E-01  0.1193E+02  0.1193E+02
     15.627  0.7014E-01  0.6903E-01  0.1194E+02  0.1194E+02
     15.703  0.9518E-01  0.9531E-01  0.1195E+02  0.1195E+02
     15.778  0.8598E-01  0.8570E-01  0.1195E+02  0.1195E+02
     15.854  0.8816E-01  0.8603E-01  0.1196E+02  0.1196E+02
     15.929  0.1030E+00  0.1015E+00  0.1197E+02  0.1197E+02
     16.005  0.8834E-01  0.8985E-01  0.1197E+02  0.1197E+02
     16.080  0.7255E-01  0.7391E-01  0.1198E+02  0.1198E+02
     16.156  0.5319E-01  0.5494E-01  0.1198E+02  0.1198E+02
     16.231  0.2158E-01  0.2278E-01  0.1198E+02  0.1198E+02
     16.307  0.7648E-02  0.7885E-02  0.1199E+02  0.1199E+02
     16.382  0.1001E-01  0.9558E-02  0.1199E+02  0.1199E+02
     16.458  0.2791E-01  0.2675E-01  0.1199E+02  0.1199E+02
     16.533  0.4686E-01  0.4646E-01  0.1199E+02  0.1199E+02
     16.609  0.3733E-01  0.3832E-01  0.1199E+02  0.1199E+02
     16.684  0.1591E-01  0.1681E-01  0.1200E+02  0.1200E+02
     16.760  0.5352E-02  0.5693E-02  0.1200E+02  0.1200E+02
     16.835  0.5145E-02  0.5312E-02  0.1200E+02  0.1200E+02
     16.911  0.1235E-01  0.1252E-01  0.1200E+02  0.1200E+02
     16.986  0.1723E-01  0.1719E-01  0.1200E+02  0.1200E+02
     17.062  0.9584E-02  0.9432E-02  0.1200E+02  0.1200E+02
     17.137  0.2873E-02  0.2809E-02  0.1200E+02  0.1200E+02
     17.213  0.6851E-03  0.6688E-03  0.1200E+02  0.1200E+02
     17.289  0.1540E-03  0.1502E-03  0.1200E+02  0.1200E+02
     17.364  0.0000E+00  0.0000E+00  0.1200E+02  0.1200E+02
     17.440  0.0000E+00  0.0000E+00  0.1200E+02  0.1200E+02
     17.515  0.0000E+00  0.0000E+00  0.1200E+02  0.1200E+02
     17.591  0.0000E+00  0.0000E+00  0.1200E+02  0.1200E+02
     17.666  0.0000E+00  0.0000E+00  0.1200E+02  0.1200E+02
     17.742  0.0000E+00  0.0000E+00  0.1200E+02  0.1200E+02
     17.817  0.0000E+00  0.0000E+00  0.1200E+02  0.1200E+02
     17.893  0.0000E+00  0.0000E+00  0.1200E+02  0.1200E+02
     17.968  0.0000E+00  0.0000E+00  0.1200E+02  0.1200E+02
     17.96818096     -4.68692091  301      6.45307829      1.00000000
     -4.687  0.0000E+00  0.0000E+00  0.0000E+00  0.0000E+00  0.0000E+00  0.0000E+00  0.0000E+00  0.0000E+00  0.0000E+00  0.0000E+00  0.0000E+00  0.0000E+00  0.0000E+00  0.0000E+00  0.0000E+00  0.0000E+00  0.0000E+00  0.0000E+00
     -4.611  0.0000E+00  0.0000E+00  0.0000E+00  0.0000E+00  0.0000E+00  0.0000E+00  0.0000E+00  0.0000E+00  0.0000E+00  0.0000E+00  0.0000E+00  0.0000E+00  0.0000E+00  0.0000E+00  0.0000E+00  0.0000E+00  0.0000E+00  0.0000E+00
     -4.536  0.0000E+00  0.0000E+00  0.0000E+00  0.0000E+00  0.0000E+00  0.0000E+00  0.0000E+00  0.0000E+00  0.0000E+00  0.0000E+00  0.0000E+00  0.0000E+00  0.0000E+00  0.0000E+00  0.0000E+00  0.0000E+00  0.0000E+00  0.0000E+00
     -4.460  0.0000E+00  0.0000E+00  0.0000E+00  0.0000E+00  0.0000E+00  0.0000E+00  0.0000E+00  0.0000E+00  0.0000E+00  0.0000E+00  0.0000E+00  0.0000E+00  0.0000E+00  0.0000E+00  0.0000E+00  0.0000E+00  0.0000E+00  0.0000E+00
     -4.385  0.0000E+00  0.0000E+00  0.0000E+00  0.0000E+00  0.0000E+00  0.0000E+00  0.0000E+00  0.0000E+00  0.0000E+00  0.0000E+00  0.0000E+00  0.0000E+00  0.0000E+00  0.0000E+00  0.0000E+00  0.0000E+00  0.0000E+00  0.0000E+00
     -4.309  0.0000E+00  0.0000E+00  0.0000E+00  0.0000E+00  0.0000E+00  0.0000E+00  0.0000E+00  0.0000E+00  0.0000E+00  0.0000E+00  0.0000E+00  0.0000E+00  0.0000E+00  0.0000E+00  0.0000E+00  0.0000E+00  0.0000E+00  0.0000E+00
     -4.234  0.0000E+00  0.0000E+00  0.0000E+00  0.0000E+00  0.0000E+00  0.0000E+00  0.0000E+00  0.0000E+00  0.0000E+00  0.0000E+00  0.0000E+00  0.0000E+00  0.0000E+00  0.0000E+00  0.0000E+00  0.0000E+00  0.0000E+00  0.0000E+00
     -4.158  0.0000E+00  0.0000E+00  0.0000E+00  0.0000E+00  0.0000E+00  0.0000E+00  0.0000E+00  0.0000E+00  0.0000E+00  0.0000E+00  0.0000E+00  0.0000E+00  0.0000E+00  0.0000E+00  0.0000E+00  0.0000E+00  0.0000E+00  0.0000E+00
     -4.083  0.4117E-07  0.3953E-07  0.6562E-23  0.2008E-22  0.6562E-23  0.2008E-22  0.9456E-23  0.1382E-22  0.9904E-23  0.4198E-23  0.4798E-24  0.6694E-23  0.9044E-19  0.8924E-19  0.9904E-23  0.4198E-23  0.1164E-18  0.1146E-18
     -4.007  0.8372E-06  0.8039E-06  0.2053E-08  0.1973E-08  0.2053E-08  0.1973E-08  0.2053E-08  0.1972E-08  0.2025E-11  0.1948E-11  0.2025E-11  0.1948E-11  0.1141E-11  0.1095E-11  0.2025E-11  0.1948E-11  0.1185E-11  0.1138E-11
     -3.932  0.3409E-05  0.3273E-05  0.9221E-08  0.8860E-08  0.9221E-08  0.8860E-08  0.9221E-08  0.8861E-08  0.1380E-10  0.1327E-10  0.1380E-10  0.1327E-10  0.4021E-11  0.3861E-11  0.1380E-10  0.1327E-10  0.4176E-11  0.4010E-11
     -3.856  0.1596E-04  0.1533E-04  0.4897E-07  0.4707E-07  0.4897E-07  0.4707E-07  0.4896E-07  0.4705E-07  0.7188E-10  0.6911E-10  0.7188E-10  0.6912E-10  0.3890E-10  0.3734E-10  0.7188E-10  0.6911E-10  0.4415E-10  0.4239E-10
     -3.781  0.7020E-04  0.6750E-04  0.2214E-06  0.2129E-06  0.2214E-06  0.2129E-06  0.2214E-06  0.2128E-06  0.3672E-09  0.3531E-09  0.3671E-09  0.3531E-09  0.1661E-09  0.1595E-09  0.3672E-09  0.3531E-09  0.1886E-09  0.1811E-09
     -3.705  0.2832E-03  0.2734E-03  0.9439E-06  0.9093E-06  0.9439E-06  0.9093E-06  0.9436E-06  0.9091E-06  0.1596E-08  0.1537E-08  0.1596E-08  0.1537E-08  0.7170E-09  0.6896E-09  0.1596E-08  0.1537E-08  0.8088E-09  0.7779E-09
     -3.630  0.9051E-03  0.8812E-03  0.3543E-05  0.3433E-05  0.3543E-05  0.3433E-05  0.3542E-05  0.3432E-05  0.6683E-08  0.6454E-08  0.6683E-08  0.6454E-08  0.2844E-08  0.2746E-08  0.6683E-08  0.6454E-08  0.3212E-08  0.3100E-08
     -3.554  0.1930E-02  0.1901E-02  0.9954E-05  0.9729E-05  0.9954E-05  0.9729E-05  0.9951E-05  0.9726E-05  0.2254E-07  0.2192E-07  0.2254E-07  0.2192E-07  0.9642E-08  0.9343E-08  0.2254E-07  0.2192E-07  0.1111E-07  0.1076E-07
     -3.479  0.2844E-02  0.2820E-02  0.2121E-04  0.2083E-04  0.2121E-04  0.2083E-04  0.2120E-04  0.2082E-04  0.5932E-07  0.5794E-07  0.5932E-07  0.5795E-07  0.2824E-07  0.2747E-07  0.5932E-07  0.5794E-07  0.3353E-07  0.3260E-07
     -3.403  0.3825E-02  0.3795E-02  0.3949E-04  0.3896E-04  0.3949E-04  0.3896E-04  0.3948E-04  0.3895E-04  0.1395E-06  0.1368E-06  0.1395E-06  0.1368E-06  0.6360E-07  0.6251E-07  0.1395E-06  0.1368E-06  0.7572E-07  0.7444E-07
     -3.328  0.4392E-02  0.4388E-02  0.5622E-04  0.5590E-04  0.5622E-04  0.5590E-04  0.5622E-04  0.5590E-04  0.2574E-06  0.2542E-06  0.2574E-06  0.2542E-06  0.9747E-07  0.9641E-07  0.2574E-06  0.2542E-06  0.1136E-06  0.1125E-06
     -3.252  0.4389E-02  0.4374E-02  0.7286E-04  0.7217E-04  0.7286E-04  0.7217E-04  0.7282E-04  0.7212E-04  0.4181E-06  0.4125E-06  0.4181E-06  0.4125E-06  0.1632E-06  0.1601E-06  0.4181E-06  0.4125E-06  0.1859E-06  0.1823E-06
     -3.177  0.5359E-02  0.5324E-02  0.1098E-03  0.1087E-03  0.1098E-03  0.1087E-03  0.1097E-03  0.1086E-03  0.6736E-06  0.6667E-06  0.6735E-06  0.6666E-06  0.3222E-06  0.3169E-06  0.6736E-06  0.6667E-06  0.3783E-06  0.3716E-06
     -3.101  0.5893E-02  0.5888E-02  0.1384E-03  0.1379E-03  0.1384E-03  0.1379E-03  0.1384E-03  0.1379E-03  0.9319E-06  0.9243E-06  0.9319E-06  0.9243E-06  0.4643E-06  0.4616E-06  0.9319E-06  0.9243E-06  0.5579E-06  0.5546E-06
     -3.026  0.5781E-02  0.5772E-02  0.1571E-03  0.1564E-03  0.1571E-03  0.1564E-03  0.1571E-03  0.1564E-03  0.1388E-05  0.1371E-05  0.1388E-05  0.1372E-05  0.5090E-06  0.5068E-06  0.1388E-05  0.1371E-05  0.5947E-06  0.5928E-06
     -2.950  0.6147E-02  0.6135E-02  0.1906E-03  0.1899E-03  0.1906E-03  0.1899E-03  0.1905E-03  0.1898E-03  0.2005E-05  0.1993E-05  0.2004E-05  0.1993E-05  0.6270E-06  0.6220E-06  0.2005E-05  0.1993E-05  0.7118E-06  0.7060E-06
     -2.875  0.5847E-02  0.5852E-02  0.2057E-03  0.2053E-03  0.2057E-03  0.2053E-03  0.2055E-03  0.2051E-03  0.2184E-05  0.2181E-05  0.2182E-05  0.2180E-05  0.8453E-06  0.8355E-06  0.2184E-05  0.2181E-05  0.9955E-06  0.9828E-06
     -2.799  0.6362E-02  0.6319E-02  0.2607E-03  0.2585E-03  0.2607E-03  0.2585E-03  0.2604E-03  0.2581E-03  0.2779E-05  0.2750E-05  0.2781E-05  0.2751E-05  0.1348E-05  0.1330E-05  0.2779E-05  0.2750E-05  0.1627E-05  0.1605E-05
     -2.723  0.7499E-02  0.7479E-02  0.3350E-03  0.3338E-03  0.3350E-03  0.3338E-03  0.3349E-03  0.3338E-03  0.4018E-05  0.3987E-05  0.4020E-05  0.3990E-05  0.1789E-05  0.1781E-05  0.4018E-05  0.3987E-05  0.2109E-05  0.2101E-05
     -2.648  0.7454E-02  0.7452E-02  0.3611E-03  0.3606E-03  0.3611E-03  0.3606E-03  0.3612E-03  0.3606E-03  0.5045E-05  0.5019E-05  0.5045E-05  0.5019E-05  0.1900E-05  0.1896E-05  0.5045E-05  0.5019E-05  0.2186E-05  0.2181E-05
     -2.572  0.7052E-02  0.7065E-02  0.3702E-03  0.3705E-03  0.3702E-03  0.3705E-03  0.3704E-03  0.3707E-03  0.5919E-05  0.5902E-05  0.5914E-05  0.5898E-05  0.1871E-05  0.1874E-05  0.5919E-05  0.5902E-05  0.2165E-05  0.2167E-05
     -2.497  0.5988E-02  0.6004E-02  0.3457E-03  0.3457E-03  0.3457E-03  0.3457E-03  0.3456E-03  0.3456E-03  0.6209E-05  0.6199E-05  0.6208E-05  0.6198E-05  0.1704E-05  0.1698E-05  0.6209E-05  0.6199E-05  0.1984E-05  0.1977E-05
     -2.421  0.6382E-02  0.6334E-02  0.4267E-03  0.4224E-03  0.4267E-03  0.4224E-03  0.4255E-03  0.4212E-03  0.7578E-05  0.7514E-05  0.7588E-05  0.7523E-05  0.2558E-05  0.2516E-05  0.7578E-05  0.7514E-05  0.2995E-05  0.2946E-05
     -2.346  0.8114E-02  0.8074E-02  0.5977E-03  0.5943E-03  0.5977E-03  0.5943E-03  0.5967E-03  0.5933E-03  0.1022E-04  0.1016E-04  0.1022E-04  0.1017E-04  0.4093E-05  0.4058E-05  0.1022E-04  0.1016E-04  0.4808E-05  0.4766E-05
     -2.270  0.8080E-02  0.8091E-02  0.6376E-03  0.6379E-03  0.6376E-03  0.6379E-03  0.6378E-03  0.6381E-03  0.1154E-04  0.1151E-04  0.1153E-04  0.1150E-04  0.4420E-05  0.4420E-05  0.1154E-04  0.1151E-04  0.5254E-05  0.5253E-05
     -2.195  0.7761E-02  0.7753E-02  0.6616E-03  0.6603E-03  0.6616E-03  0.6603E-03  0.6614E-03  0.6602E-03  0.1357E-04  0.1351E-04  0.1358E-04  0.1351E-04  0.4430E-05  0.4420E-05  0.1357E-04  0.1351E-04  0.5292E-05  0.5280E-05
     -2.119  0.6948E-02  0.6985E-02  0.6330E-03  0.6357E-03  0.6330E-03  0.6357E-03  0.6338E-03  0.6364E-03  0.1399E-04  0.1402E-04  0.1399E-04  0.1402E-04  0.4259E-05  0.4273E-05  0.1399E-04  0.1402E-04  0.5028E-05  0.5049E-05
     -2.044  0.5895E-02  0.5884E-02  0.5965E-03  0.5939E-03  0.5965E-03  0.5939E-03  0.5960E-03  0.5934E-03  0.1507E-04  0.1495E-04  0.1509E-04  0.1497E-04  0.3815E-05  0.3805E-05  0.1507E-04  0.1495E-04  0.4309E-05  0.4304E-05
     -1.968  0.7178E-02  0.7130E-02  0.8319E-03  0.8238E-03  0.8319E-03  0.8238E-03  0.8289E-03  0.8209E-03  0.2201E-04  0.2182E-04  0.2203E-04  0.2184E-04  0.4884E-05  0.4844E-05  0.2201E-04  0.2182E-04  0.5444E-05  0.5398E-05
     -1.893  0.7826E-02  0.7832E-02  0.1071E-02  0.1067E-02  0.1071E-02  0.1067E-02  0.1068E-02  0.1064E-02  0.2606E-04  0.2604E-04  0.2604E-04  0.2603E-04  0.5990E-05  0.5975E-05  0.2606E-04  0.2604E-04  0.6837E-05  0.6817E-05
     -1.817  0.6627E-02  0.6662E-02  0.1083E-02  0.1084E-02  0.1083E-02  0.1084E-02  0.1083E-02  0.1084E-02  0.2496E-04  0.2498E-04  0.2494E-04  0.2497E-04  0.5769E-05  0.5785E-05  0.2496E-04  0.2498E-04  0.6731E-05  0.6747E-05
     -1.742  0.5600E-02  0.5611E-02  0.1063E-02  0.1062E-02  0.1063E-02  0.1062E-02  0.1062E-02  0.1061E-02  0.2614E-04  0.2606E-04  0.2616E-04  0.2608E-04  0.5452E-05  0.5449E-05  0.2614E-04  0.2606E-04  0.6445E-05  0.6441E-05
     -1.666  0.5280E-02  0.5272E-02  0.1100E-02  0.1099E-02  0.1100E-02  0.1099E-02  0.1101E-02  0.1100E-02  0.3047E-04  0.3030E-04  0.3051E-04  0.3033E-04  0.5511E-05  0.5509E-05  0.3047E-04  0.3030E-04  0.6384E-05  0.6390E-05
     -1.591  0.5952E-02  0.5921E-02  0.1150E-02  0.1147E-02  0.1150E-02  0.1147E-02  0.1151E-02  0.1148E-02  0.4048E-04  0.4016E-04  0.4054E-04  0.4022E-04  0.5626E-05  0.5614E-05  0.4048E-04  0.4016E-04  0.6133E-05  0.6129E-05
     -1.515  0.6306E-02  0.6310E-02  0.1257E-02  0.1255E-02  0.1257E-02  0.1255E-02  0.1256E-02  0.1254E-02  0.4980E-04  0.4966E-04  0.4981E-04  0.4967E-04  0.5929E-05  0.5925E-05  0.4980E-04  0.4966E-04  0.6414E-05  0.6406E-05
     -1.440  0.5496E-02  0.5518E-02  0.1252E-02  0.1254E-02  0.1252E-02  0.1254E-02  0.1252E-02  0.1255E-02  0.5142E-04  0.5146E-04  0.5138E-04  0.5142E-04  0.5637E-05  0.5654E-05  0.5142E-04  0.5146E-04  0.6225E-05  0.6243E-05
     -1.364  0.4185E-02  0.4221E-02  0.1021E-02  0.1029E-02  0.1021E-02  0.1029E-02  0.1024E-02  0.1032E-02  0.4493E-04  0.4517E-04  0.4482E-04  0.4507E-04  0.4425E-05  0.4463E-05  0.4493E-04  0.4517E-04  0.4880E-05  0.4923E-05
     -1.289  0.3110E-02  0.3116E-02  0.8303E-03  0.8309E-03  0.8303E-03  0.8309E-03  0.8311E-03  0.8318E-03  0.4080E-04  0.4071E-04  0.4080E-04  0.4070E-04  0.3365E-05  0.3371E-05  0.4080E-04  0.4071E-04  0.3739E-05  0.3746E-05
     -1.213  0.3584E-02  0.3552E-02  0.9169E-03  0.9117E-03  0.9169E-03  0.9117E-03  0.9169E-03  0.9117E-03  0.5170E-04  0.5125E-04  0.5181E-04  0.5135E-04  0.3989E-05  0.3946E-05  0.5170E-04  0.5125E-04  0.4290E-05  0.4248E-05
     -1.138  0.4854E-02  0.4822E-02  0.1169E-02  0.1162E-02  0.1169E-02  0.1162E-02  0.1166E-02  0.1160E-02  0.7173E-04  0.7129E-04  0.7189E-04  0.7145E-04  0.6878E-05  0.6763E-05  0.7173E-04  0.7129E-04  0.7406E-05  0.7272E-05
     -1.062  0.5512E-02  0.5489E-02  0.1235E-02  0.1237E-02  0.1235E-02  0.1237E-02  0.1235E-02  0.1237E-02  0.7661E-04  0.7678E-04  0.7652E-04  0.7670E-04  0.1328E-04  0.1303E-04  0.7661E-04  0.7678E-04  0.1558E-04  0.1525E-04
     -0.987  0.7006E-02  0.6939E-02  0.1089E-02  0.1092E-02  0.1089E-02  0.1092E-02  0.1091E-02  0.1093E-02  0.6720E-04  0.6742E-04  0.6705E-04  0.6726E-04  0.2640E-04  0.2597E-04  0.6720E-04  0.6742E-04  0.3274E-04  0.3219E-04
     -0.911  0.8798E-02  0.8763E-02  0.9651E-03  0.9686E-03  0.9651E-03  0.9686E-03  0.9677E-03  0.9711E-03  0.5890E-04  0.5916E-04  0.5873E-04  0.5899E-04  0.3881E-04  0.3861E-04  0.5890E-04  0.5916E-04  0.4886E-04  0.4860E-04