   4   4   1   0
  0.1936453E+02  0.4261793E-09  0.4263216E-09  0.4263216E-09  0.5000000E-15
  1.000000000000000E-004
  CAR 
 unknown system                          
     16.35936294     -4.85501266  301      5.69061293      1.00000000
     -4.855  0.0000E+00  0.0000E+00  0.0000E+00  0.0000E+00
     -4.784  0.0000E+00  0.0000E+00  0.0000E+00  0.0000E+00
     -4.714  0.0000E+00  0.0000E+00  0.0000E+00  0.0000E+00
     -4.643  0.0000E+00  0.0000E+00  0.0000E+00  0.0000E+00
     -4.572  0.0000E+00  0.0000E+00  0.0000E+00  0.0000E+00
     -4.501  0.0000E+00  0.0000E+00  0.0000E+00  0.0000E+00
     -4.431  0.0000E+00  0.0000E+00  0.0000E+00  0.0000E+00
     -4.360  0.5401E-06  0.0000E+00  0.3819E-07  0.0000E+00
     -4.289  0.6821E-05  0.6886E-05  0.5205E-06  0.4870E-06
     -4.219  0.3921E-04  0.3669E-04  0.3293E-05  0.3081E-05
     -4.148  0.1669E-03  0.1562E-03  0.1510E-04  0.1413E-04
     -4.077  0.6906E-03  0.6465E-03  0.6393E-04  0.5985E-04
     -4.006  0.2769E-02  0.2597E-02  0.2597E-03  0.2435E-03
     -3.936  0.1011E-01  0.9544E-02  0.9746E-03  0.9184E-03
     -3.865  0.2986E-01  0.2858E-01  0.3086E-02  0.2940E-02
     -3.794  0.6150E-01  0.5996E-01  0.7435E-02  0.7180E-02
     -3.724  0.9176E-01  0.9038E-01  0.1392E-01  0.1357E-01
     -3.653  0.1238E+00  0.1223E+00  0.2268E-01  0.2222E-01
     -3.582  0.1440E+00  0.1438E+00  0.3286E-01  0.3238E-01
     -3.511  0.1495E+00  0.1487E+00  0.4344E-01  0.4290E-01
     -3.441  0.1815E+00  0.1798E+00  0.5628E-01  0.5562E-01
     -3.370  0.2030E+00  0.2027E+00  0.7064E-01  0.6996E-01
     -3.299  0.2047E+00  0.2045E+00  0.8512E-01  0.8442E-01
     -3.229  0.2190E+00  0.2184E+00  0.1006E+00  0.9987E-01
     -3.158  0.2165E+00  0.2168E+00  0.1159E+00  0.1152E+00
     -3.087  0.2381E+00  0.2358E+00  0.1328E+00  0.1319E+00
     -3.016  0.2820E+00  0.2809E+00  0.1527E+00  0.1518E+00
     -2.946  0.2886E+00  0.2887E+00  0.1731E+00  0.1722E+00
     -2.875  0.2790E+00  0.2800E+00  0.1929E+00  0.1920E+00
     -2.804  0.2485E+00  0.2496E+00  0.2105E+00  0.2097E+00
     -2.734  0.2683E+00  0.2654E+00  0.2294E+00  0.2284E+00
     -2.663  0.3442E+00  0.3412E+00  0.2538E+00  0.2526E+00
     -2.592  0.3607E+00  0.3614E+00  0.2793E+00  0.2781E+00
     -2.521  0.3541E+00  0.3539E+00  0.3044E+00  0.3032E+00
     -2.451  0.3324E+00  0.3349E+00  0.3279E+00  0.3269E+00
     -2.380  0.2964E+00  0.2959E+00  0.3488E+00  0.3478E+00
     -2.309  0.3658E+00  0.3612E+00  0.3747E+00  0.3734E+00
     -2.239  0.4412E+00  0.4396E+00  0.4060E+00  0.4045E+00
     -2.168  0.4272E+00  0.4292E+00  0.4362E+00  0.4348E+00
     -2.097  0.3957E+00  0.3963E+00  0.4642E+00  0.4629E+00
     -2.026  0.3924E+00  0.3923E+00  0.4919E+00  0.4906E+00
     -1.956  0.4119E+00  0.4101E+00  0.5211E+00  0.5196E+00
     -1.885  0.4481E+00  0.4471E+00  0.5528E+00  0.5513E+00
     -1.814  0.4361E+00  0.4379E+00  0.5837E+00  0.5823E+00
     -1.744  0.3623E+00  0.3669E+00  0.6093E+00  0.6082E+00
     -1.673  0.2866E+00  0.2883E+00  0.6296E+00  0.6286E+00
     -1.602  0.3003E+00  0.2978E+00  0.6508E+00  0.6497E+00
     -1.531  0.3785E+00  0.3745E+00  0.6776E+00  0.6762E+00
     -1.461  0.4182E+00  0.4184E+00  0.7072E+00  0.7058E+00
     -1.390  0.3998E+00  0.4003E+00  0.7355E+00  0.7342E+00
     -1.319  0.3977E+00  0.3982E+00  0.7636E+00  0.7623E+00
     -1.249  0.3766E+00  0.3771E+00  0.7903E+00  0.7890E+00
     -1.178  0.4166E+00  0.4128E+00  0.8197E+00  0.8182E+00
     -1.107  0.4925E+00  0.4901E+00  0.8546E+00  0.8529E+00
     -1.036  0.4851E+00  0.4875E+00  0.8889E+00  0.8874E+00
     -0.966  0.4342E+00  0.4359E+00  0.9196E+00  0.9182E+00
     -0.895  0.4038E+00  0.4054E+00  0.9482E+00  0.9469E+00
     -0.824  0.3869E+00  0.3860E+00  0.9756E+00  0.9743E+00
     -0.754  0.4409E+00  0.4374E+00  0.1007E+01  0.1005E+01
     -0.683  0.5235E+00  0.5194E+00  0.1044E+01  0.1042E+01
     -0.612  0.5809E+00  0.5800E+00  0.1085E+01  0.1083E+01
     -0.541  0.5573E+00  0.5602E+00  0.1124E+01  0.1123E+01
     -0.471  0.4939E+00  0.4964E+00  0.1159E+01  0.1158E+01
     -0.400  0.4808E+00  0.4791E+00  0.1193E+01  0.1192E+01
     -0.329  0.5491E+00  0.5455E+00  0.1232E+01  0.1230E+01
     -0.259  0.5878E+00  0.5883E+00  0.1274E+01  0.1272E+01
     -0.188  0.5225E+00  0.5271E+00  0.1311E+01  0.1309E+01
     -0.117  0.4400E+00  0.4424E+00  0.1342E+01  0.1341E+01
     -0.046  0.4527E+00  0.4490E+00  0.1374E+01  0.1372E+01
      0.024  0.5950E+00  0.5868E+00  0.1416E+01  0.1414E+01
      0.095  0.7297E+00  0.7264E+00  0.1468E+01  0.1465E+01
      0.166  0.7210E+00  0.7243E+00  0.1519E+01  0.1516E+01
      0.236  0.6245E+00  0.6296E+00  0.1563E+01  0.1561E+01
      0.307  0.5414E+00  0.5427E+00  0.1601E+01  0.1599E+01
      0.378  0.5950E+00  0.5908E+00  0.1643E+01  0.1641E+01
      0.449  0.6166E+00  0.6192E+00  0.1687E+01  0.1685E+01
      0.519  0.5423E+00  0.5445E+00  0.1725E+01  0.1724E+01
      0.590  0.5510E+00  0.5500E+00  0.1764E+01  0.1763E+01
      0.661  0.5166E+00  0.5201E+00  0.1801E+01  0.1799E+01
      0.731  0.4723E+00  0.4721E+00  0.1834E+01  0.1833E+01
      0.802  0.5059E+00  0.5038E+00  0.1870E+01  0.1868E+01
      0.873  0.5481E+00  0.5455E+00  0.1909E+01  0.1907E+01
      0.944  0.6296E+00  0.6260E+00  0.1953E+01  0.1951E+01
      1.014  0.6320E+00  0.6348E+00  0.1998E+01  0.1996E+01
      1.085  0.5942E+00  0.5935E+00  0.2040E+01  0.2038E+01
      1.156  0.6603E+00  0.6563E+00  0.2087E+01  0.2085E+01
      1.226  0.7182E+00  0.7174E+00  0.2138E+01  0.2135E+01
      1.297  0.6812E+00  0.6852E+00  0.2186E+01  0.2184E+01
      1.368  0.5463E+00  0.5538E+00  0.2225E+01  0.2223E+01
      1.439  0.4463E+00  0.4465E+00  0.2256E+01  0.2255E+01
      1.509  0.5352E+00  0.5286E+00  0.2294E+01  0.2292E+01
      1.580  0.6426E+00  0.6398E+00  0.2340E+01  0.2337E+01
      1.651  0.6704E+00  0.6701E+00  0.2387E+01  0.2385E+01
      1.721  0.6579E+00  0.6594E+00  0.2434E+01  0.2432E+01
      1.792  0.6445E+00  0.6435E+00  0.2479E+01  0.2477E+01
      1.863  0.7107E+00  0.7077E+00  0.2529E+01  0.2527E+01
      1.934  0.7232E+00  0.7252E+00  0.2581E+01  0.2578E+01
      2.004  0.6421E+00  0.6462E+00  0.2626E+01  0.2624E+01
      2.075  0.5831E+00  0.5838E+00  0.2667E+01  0.2665E+01
      2.146  0.6196E+00  0.6161E+00  0.2711E+01  0.2709E+01
      2.216  0.6979E+00  0.6959E+00  0.2761E+01  0.2758E+01
      2.287  0.6862E+00  0.6885E+00  0.2809E+01  0.2807E+01
      2.358  0.6449E+00  0.6453E+00  0.2855E+01  0.2853E+01
      2.429  0.6980E+00  0.6936E+00  0.2904E+01  0.2902E+01
      2.499  0.7789E+00  0.7764E+00  0.2959E+01  0.2957E+01
      2.570  0.8491E+00  0.8452E+00  0.3019E+01  0.3016E+01
      2.641  0.8870E+00  0.8884E+00  0.3082E+01  0.3079E+01
      2.711  0.8077E+00  0.8124E+00  0.3139E+01  0.3137E+01
      2.782  0.6876E+00  0.6940E+00  0.3188E+01  0.3186E+01
      2.853  0.5550E+00  0.5591E+00  0.3227E+01  0.3226E+01
      2.924  0.5848E+00  0.5783E+00  0.3269E+01  0.3266E+01
      2.994  0.7829E+00  0.7747E+00  0.3324E+01  0.3321E+01
      3.065  0.8334E+00  0.8367E+00  0.3383E+01  0.3381E+01
      3.136  0.7416E+00  0.7435E+00  0.3435E+01  0.3433E+01
      3.206  0.7606E+00  0.7587E+00  0.3489E+01  0.3487E+01
      3.277  0.7911E+00  0.7905E+00  0.3545E+01  0.3543E+01
      3.348  0.8302E+00  0.8267E+00  0.3604E+01  0.3601E+01
      3.419  0.9359E+00  0.9311E+00  0.3670E+01  0.3667E+01
      3.489  0.9852E+00  0.9862E+00  0.3740E+01  0.3737E+01
      3.560  0.8956E+00  0.9024E+00  0.3803E+01  0.3801E+01
      3.631  0.7085E+00  0.7171E+00  0.3853E+01  0.3851E+01
      3.701  0.6070E+00  0.6072E+00  0.3896E+01  0.3894E+01
      3.772  0.6927E+00  0.6876E+00  0.3945E+01  0.3943E+01
      3.843  0.7720E+00  0.7709E+00  0.4000E+01  0.3998E+01
      3.914  0.7660E+00  0.7650E+00  0.4054E+01  0.4052E+01
      3.984  0.8709E+00  0.8640E+00  0.4116E+01  0.4113E+01
      4.055  0.9815E+00  0.9797E+00  0.4185E+01  0.4182E+01
      4.126  0.9696E+00  0.9718E+00  0.4254E+01  0.4251E+01
      4.196  0.8511E+00  0.8586E+00  0.4314E+01  0.4312E+01
      4.267  0.7173E+00  0.7202E+00  0.4365E+01  0.4363E+01
      4.338  0.7321E+00  0.7304E+00  0.4417E+01  0.4414E+01
      4.409  0.7310E+00  0.7328E+00  0.4468E+01  0.4466E+01
      4.479  0.6888E+00  0.6889E+00  0.4517E+01  0.4515E+01
      4.550  0.7203E+00  0.7172E+00  0.4568E+01  0.4566E+01
      4.621  0.7700E+00  0.7678E+00  0.4623E+01  0.4620E+01
      4.691  0.8677E+00  0.8620E+00  0.4684E+01  0.4681E+01
      4.762  0.1009E+01  0.1004E+01  0.4755E+01  0.4752E+01
      4.833  0.1028E+01  0.1030E+01  0.4828E+01  0.4825E+01
      4.904  0.8736E+00  0.8830E+00  0.4890E+01  0.4888E+01
      4.974  0.6820E+00  0.6870E+00  0.4938E+01  0.4936E+01
      5.045  0.6621E+00  0.6609E+00  0.4985E+01  0.4983E+01
      5.116  0.6809E+00  0.6826E+00  0.5033E+01  0.5031E+01
      5.186  0.6341E+00  0.6336E+00  0.5078E+01  0.5076E+01
      5.257  0.7224E+00  0.7140E+00  0.5129E+01  0.5127E+01
      5.328  0.8706E+00  0.8665E+00  0.5191E+01  0.5188E+01
      5.399  0.8671E+00  0.8708E+00  0.5252E+01  0.5250E+01
      5.469  0.8182E+00  0.8194E+00  0.5310E+01  0.5308E+01
      5.540  0.8481E+00  0.8464E+00  0.5370E+01  0.5368E+01
      5.611  0.8704E+00  0.8695E+00  0.5432E+01  0.5429E+01
      5.681  0.8694E+00  0.8681E+00  0.5493E+01  0.5490E+01
      5.752  0.8796E+00  0.8804E+00  0.5556E+01  0.5553E+01
      5.823  0.7869E+00  0.7915E+00  0.5611E+01  0.5609E+01
      5.894  0.7579E+00  0.7542E+00  0.5665E+01  0.5662E+01
      5.964  0.8838E+00  0.8788E+00  0.5728E+01  0.5724E+01
      6.035  0.9471E+00  0.9485E+00  0.5795E+01  0.5792E+01
      6.106  0.8818E+00  0.8866E+00  0.5857E+01  0.5854E+01
      6.176  0.7976E+00  0.7985E+00  0.5913E+01  0.5911E+01
      6.247  0.8165E+00  0.8120E+00  0.5971E+01  0.5968E+01
      6.318  0.9386E+00  0.9322E+00  0.6038E+01  0.6034E+01
      6.389  0.9945E+00  0.9953E+00  0.6108E+01  0.6105E+01
      6.459  0.9295E+00  0.9338E+00  0.6174E+01  0.6171E+01
      6.530  0.9186E+00  0.9170E+00  0.6239E+01  0.6236E+01
      6.601  0.1005E+01  0.1000E+01  0.6310E+01  0.6306E+01
      6.671  0.1084E+01  0.1082E+01  0.6386E+01  0.6383E+01
      6.742  0.1081E+01  0.1082E+01  0.6463E+01  0.6459E+01
      6.813  0.9821E+00  0.9904E+00  0.6532E+01  0.6530E+01
      6.884  0.7732E+00  0.7805E+00  0.6587E+01  0.6585E+01
      6.954  0.7456E+00  0.7412E+00  0.6640E+01  0.6637E+01
      7.025  0.8178E+00  0.8154E+00  0.6698E+01  0.6695E+01
      7.096  0.8401E+00  0.8384E+00  0.6757E+01  0.6754E+01
      7.166  0.9347E+00  0.9282E+00  0.6823E+01  0.6820E+01
      7.237  0.1064E+01  0.1060E+01  0.6899E+01  0.6895E+01
      7.308  0.1151E+01  0.1148E+01  0.6980E+01  0.6976E+01
      7.379  0.1148E+01  0.1153E+01  0.7061E+01  0.7058E+01
      7.449  0.9754E+00  0.9851E+00  0.7130E+01  0.7128E+01
      7.520  0.8520E+00  0.8512E+00  0.7191E+01  0.7188E+01
      7.591  0.9832E+00  0.9746E+00  0.7260E+01  0.7257E+01
      7.661  0.1066E+01  0.1069E+01  0.7336E+01  0.7332E+01
      7.732  0.8976E+00  0.9056E+00  0.7399E+01  0.7396E+01
      7.803  0.7473E+00  0.7521E+00  0.7452E+01  0.7450E+01
      7.874  0.7015E+00  0.7007E+00  0.7502E+01  0.7499E+01
      7.944  0.7794E+00  0.7760E+00  0.7557E+01  0.7554E+01
      8.015  0.8008E+00  0.8017E+00  0.7614E+01  0.7611E+01
      8.086  0.8332E+00  0.8269E+00  0.7673E+01  0.7670E+01
      8.156  0.1046E+01  0.1035E+01  0.7747E+01  0.7743E+01
      8.227  0.1224E+01  0.1220E+01  0.7833E+01  0.7829E+01
      8.298  0.1219E+01  0.1223E+01  0.7919E+01  0.7915E+01
      8.369  0.1072E+01  0.1079E+01  0.7995E+01  0.7992E+01
      8.439  0.9224E+00  0.9251E+00  0.8061E+01  0.8057E+01
      8.510  0.9497E+00  0.9434E+00  0.8128E+01  0.8124E+01
      8.581  0.1159E+01  0.1148E+01  0.8210E+01  0.8205E+01
      8.651  0.1230E+01  0.1236E+01  0.8297E+01  0.8293E+01
      8.722  0.9460E+00  0.9634E+00  0.8364E+01  0.8361E+01
      8.793  0.7750E+00  0.7756E+00  0.8419E+01  0.8416E+01
      8.864  0.9899E+00  0.9742E+00  0.8489E+01  0.8485E+01
      8.934  0.1255E+01  0.1247E+01  0.8577E+01  0.8573E+01
      9.005  0.1209E+01  0.1218E+01  0.8663E+01  0.8659E+01
      9.076  0.1018E+01  0.1025E+01  0.8735E+01  0.8732E+01
      9.146  0.9587E+00  0.9594E+00  0.8803E+01  0.8800E+01
      9.217  0.9169E+00  0.9194E+00  0.8868E+01  0.8865E+01
      9.288  0.9351E+00  0.9300E+00  0.8934E+01  0.8931E+01
      9.359  0.1058E+01  0.1050E+01  0.9009E+01  0.9005E+01
      9.429  0.1110E+01  0.1110E+01  0.9087E+01  0.9083E+01
      9.500  0.1089E+01  0.1092E+01  0.9164E+01  0.9161E+01
      9.571  0.1046E+01  0.1048E+01  0.9238E+01  0.9235E+01
      9.641  0.1005E+01  0.1009E+01  0.9310E+01  0.9306E+01
      9.712  0.9724E+00  0.9722E+00  0.9378E+01  0.9375E+01
      9.783  0.1097E+01  0.1087E+01  0.9456E+01  0.9452E+01
      9.854  0.1271E+01  0.1263E+01  0.9546E+01  0.9541E+01
      9.924  0.1290E+01  0.1290E+01  0.9637E+01  0.9633E+01
      9.995  0.1225E+01  0.1227E+01  0.9724E+01  0.9719E+01
     10.066  0.1199E+01  0.1202E+01  0.9809E+01  0.9805E+01
     10.136  0.1087E+01  0.1095E+01  0.9886E+01  0.9882E+01
     10.207  0.9798E+00  0.9820E+00  0.9955E+01  0.9952E+01
     10.278  0.1020E+01  0.1015E+01  0.1003E+02  0.1002E+02
     10.349  0.1088E+01  0.1087E+01  0.1010E+02  0.1010E+02
     10.419  0.1096E+01  0.1096E+01  0.1018E+02  0.1018E+02
     10.490  0.1106E+01  0.1106E+01  0.1026E+02  0.1026E+02
     10.561  0.1102E+01  0.1100E+01  0.1034E+02  0.1033E+02
     10.631  0.1132E+01  0.1123E+01  0.1042E+02  0.1041E+02
     10.702  0.1195E+01  0.1186E+01  0.1050E+02  0.1050E+02
     10.773  0.1149E+01  0.1158E+01  0.1058E+02  0.1058E+02
     10.844  0.9657E+00  0.9816E+00  0.1065E+02  0.1065E+02
     10.914  0.8293E+00  0.8373E+00  0.1071E+02  0.1071E+02
     10.985  0.8621E+00  0.8614E+00  0.1077E+02  0.1077E+02
     11.056  0.1048E+01  0.1049E+01  0.1085E+02  0.1084E+02
     11.126  0.1172E+01  0.1186E+01  0.1093E+02  0.1093E+02
     11.197  0.1044E+01  0.1046E+01  0.1100E+02  0.1100E+02
     11.268  0.8646E+00  0.8610E+00  0.1106E+02  0.1106E+02
     11.339  0.7033E+00  0.7044E+00  0.1111E+02  0.1111E+02
     11.409  0.7647E+00  0.7534E+00  0.1117E+02  0.1117E+02
     11.480  0.9274E+00  0.9178E+00  0.1123E+02  0.1123E+02
     11.551  0.8080E+00  0.8174E+00  0.1129E+02  0.1129E+02
     11.621  0.5854E+00  0.5945E+00  0.1133E+02  0.1133E+02
     11.692  0.4623E+00  0.4655E+00  0.1137E+02  0.1136E+02
     11.763  0.4229E+00  0.4186E+00  0.1140E+02  0.1139E+02
     11.834  0.4380E+00  0.4381E+00  0.1143E+02  0.1142E+02
     11.904  0.4150E+00  0.4241E+00  0.1146E+02  0.1145E+02
     11.975  0.3878E+00  0.3919E+00  0.1148E+02  0.1148E+02
     12.046  0.3597E+00  0.3609E+00  0.1151E+02  0.1151E+02
     12.116  0.3192E+00  0.3214E+00  0.1153E+02  0.1153E+02
     12.187  0.2714E+00  0.2725E+00  0.1155E+02  0.1155E+02
     12.258  0.2579E+00  0.2532E+00  0.1157E+02  0.1157E+02
     12.329  0.2953E+00  0.2770E+00  0.1159E+02  0.1159E+02
     12.399  0.4017E+00  0.3629E+00  0.1162E+02  0.1161E+02
     12.470  0.4702E+00  0.4407E+00  0.1165E+02  0.1164E+02
     12.541  0.3821E+00  0.3865E+00  0.1168E+02  0.1167E+02
     12.611  0.2552E+00  0.2838E+00  0.1170E+02  0.1169E+02
     12.682  0.1845E+00  0.2203E+00  0.1171E+02  0.1171E+02
     12.753  0.1864E+00  0.2044E+00  0.1172E+02  0.1172E+02
     12.824  0.2130E+00  0.2185E+00  0.1174E+02  0.1174E+02
     12.894  0.2406E+00  0.2396E+00  0.1175E+02  0.1175E+02
     12.965  0.2820E+00  0.2813E+00  0.1177E+02  0.1177E+02
     13.036  0.2532E+00  0.2571E+00  0.1179E+02  0.1179E+02
     13.106  0.1752E+00  0.1779E+00  0.1180E+02  0.1180E+02
     13.177  0.1837E+00  0.1804E+00  0.1182E+02  0.1182E+02
     13.248  0.2352E+00  0.2331E+00  0.1183E+02  0.1183E+02
     13.319  0.2189E+00  0.2192E+00  0.1185E+02  0.1185E+02
     13.389  0.1550E+00  0.1568E+00  0.1186E+02  0.1186E+02
     13.460  0.8432E-01  0.8945E-01  0.1187E+02  0.1187E+02
     13.531  0.5192E-01  0.5435E-01  0.1187E+02  0.1187E+02
     13.601  0.8370E-01  0.8117E-01  0.1188E+02  0.1188E+02
     13.672  0.1472E+00  0.1447E+00  0.1189E+02  0.1189E+02
     13.743  0.1602E+00  0.1611E+00  0.1190E+02  0.1190E+02
     13.814  0.1478E+00  0.1482E+00  0.1191E+02  0.1191E+02
     13.884  0.1409E+00  0.1422E+00  0.1192E+02  0.1192E+02
     13.955  0.9350E-01  0.9671E-01  0.1193E+02  0.1193E+02
     14.026  0.4799E-01  0.4972E-01  0.1193E+02  0.1193E+02
     14.096  0.2620E-01  0.2679E-01  0.1193E+02  0.1193E+02
     14.167  0.2523E-01  0.2444E-01  0.1193E+02  0.1193E+02
     14.238  0.5356E-01  0.5114E-01  0.1194E+02  0.1194E+02
     14.309  0.9137E-01  0.8867E-01  0.1194E+02  0.1194E+02
     14.379  0.1061E+00  0.1021E+00  0.1195E+02  0.1195E+02
     14.450  0.1132E+00  0.1046E+00  0.1196E+02  0.1196E+02
     14.521  0.1223E+00  0.1203E+00  0.1197E+02  0.1197E+02
     14.591  0.8814E-01  0.9793E-01  0.1197E+02  0.1197E+02
     14.662  0.6202E-01  0.6754E-01  0.1198E+02  0.1198E+02
     14.733  0.6020E-01  0.6244E-01  0.1198E+02  0.1198E+02
     14.804  0.3732E-01  0.3966E-01  0.1198E+02  0.1198E+02
     14.874  0.1671E-01  0.1777E-01  0.1199E+02  0.1199E+02
     14.945  0.1783E-01  0.1767E-01  0.1199E+02  0.1199E+02
     15.016  0.3486E-01  0.3535E-01  0.1199E+02  0.1199E+02
     15.087  0.4245E-01  0.4556E-01  0.1199E+02  0.1199E+02
     15.157  0.3288E-01  0.3383E-01  0.1199E+02  0.1199E+02
     15.228  0.1893E-01  0.1669E-01  0.1200E+02  0.1200E+02
     15.299  0.1141E-01  0.9562E-02  0.1200E+02  0.1200E+02
     15.369  0.1527E-01  0.1398E-01  0.1200E+02  0.1200E+02
     15.440  0.1738E-01  0.1757E-01  0.1200E+02  0.1200E+02
     15.511  0.9417E-02  0.1031E-01  0.1200E+02  0.1200E+02
     15.582  0.3004E-02  0.3423E-02  0.1200E+02  0.1200E+02
     15.652  0.7886E-03  0.9092E-03  0.1200E+02  0.1200E+02
     15.723  0.1955E-03  0.2260E-03  0.1200E+02  0.1200E+02
     15.794  0.0000E+00  0.5524E-04  0.1200E+02  0.1200E+02
     15.864  0.0000E+00  0.0000E+00  0.1200E+02  0.1200E+02
     15.935  0.0000E+00  0.0000E+00  0.1200E+02  0.1200E+02
     16.006  0.0000E+00  0.0000E+00  0.1200E+02  0.1200E+02
     16.077  0.0000E+00  0.0000E+00  0.1200E+02  0.1200E+02
     16.147  0.0000E+00  0.0000E+00  0.1200E+02  0.1200E+02
     16.218  0.0000E+00  0.0000E+00  0.1200E+02  0.1200E+02
     16.289  0.0000E+00  0.0000E+00  0.1200E+02  0.1200E+02
     16.359  0.0000E+00  0.0000E+00  0.1200E+02  0.1200E+02
     16.35936294     -4.85501266  301      5.69061293      1.00000000
     -4.855  0.0000E+00  0.0000E+00  0.0000E+00  0.0000E+00  0.0000E+00  0.0000E+00  0.0000E+00  0.0000E+00  0.0000E+00  0.0000E+00  0.0000E+00  0.0000E+00  0.0000E+00  0.0000E+00  0.0000E+00  0.0000E+00  0.0000E+00  0.0000E+00
     -4.784  0.0000E+00  0.0000E+00  0.0000E+00  0.0000E+00  0.0000E+00  0.0000E+00  0.0000E+00  0.0000E+00  0.0000E+00  0.0000E+00  0.0000E+00  0.0000E+00  0.0000E+00  0.0000E+00  0.0000E+00  0.0000E+00  0.0000E+00  0.0000E+00
     -4.714  0.0000E+00  0.0000E+00  0.0000E+00  0.0000E+00  0.0000E+00  0.0000E+00  0.0000E+00  0.0000E+00  0.0000E+00  0.0000E+00  0.0000E+00  0.0000E+00  0.0000E+00  0.0000E+00  0.0000E+00  0.0000E+00  0.0000E+00  0.0000E+00
     -4.643  0.0000E+00  0.0000E+00  0.0000E+00  0.0000E+00  0.0000E+00  0.0000E+00  0.0000E+00  0.0000E+00  0.0000E+00  0.0000E+00  0.0000E+00  0.0000E+00  0.0000E+00  0.0000E+00  0.0000E+00  0.0000E+00  0.0000E+00  0.0000E+00
     -4.572  0.0000E+00  0.0000E+00  0.0000E+00  0.0000E+00  0.0000E+00  0.0000E+00  0.0000E+00  0.0000E+00  0.0000E+00  0.0000E+00  0.0000E+00  0.0000E+00  0.0000E+00  0.0000E+00  0.0000E+00  0.0000E+00  0.0000E+00  0.0000E+00
     -4.501  0.0000E+00  0.0000E+00  0.0000E+00  0.0000E+00  0.0000E+00  0.0000E+00  0.0000E+00  0.0000E+00  0.0000E+00  0.0000E+00  0.0000E+00  0.0000E+00  0.0000E+00  0.0000E+00  0.0000E+00  0.0000E+00  0.0000E+00  0.0000E+00
     -4.431  0.0000E+00  0.0000E+00  0.0000E+00  0.0000E+00  0.0000E+00  0.0000E+00  0.0000E+00  0.0000E+00  0.0000E+00  0.0000E+00  0.0000E+00  0.0000E+00  0.0000E+00  0.0000E+00  0.0000E+00  0.0000E+00  0.0000E+00  0.0000E+00
     -4.360  0.1663E-07  0.0000E+00  0.7407E-23  0.0000E+00  0.7407E-23  0.0000E+00  0.6284E-24  0.0000E+00  0.1675E-22  0.0000E+00  0.1564E-24  0.0000E+00  0.1062E-19  0.0000E+00  0.1675E-22  0.0000E+00  0.1368E-19  0.0000E+00
     -4.289  0.2086E-06  0.2106E-06  0.3113E-09  0.2912E-09  0.3113E-09  0.2912E-09  0.3112E-09  0.2912E-09  0.8286E-20  0.1001E-19  0.2465E-20  0.2089E-20  0.2085E-12  0.1949E-12  0.8286E-20  0.1001E-19  0.2680E-12  0.2505E-12
     -4.219  0.1194E-05  0.1116E-05  0.2932E-08  0.2744E-08  0.2932E-08  0.2744E-08  0.2932E-08  0.2744E-08  0.3196E-11  0.2992E-11  0.3195E-11  0.2992E-11  0.1488E-11  0.1390E-11  0.3196E-11  0.2992E-11  0.1486E-11  0.1389E-11
     -4.148  0.5073E-05  0.4745E-05  0.1441E-07  0.1348E-07  0.1441E-07  0.1348E-07  0.1440E-07  0.1348E-07  0.2007E-10  0.1879E-10  0.2006E-10  0.1878E-10  0.8455E-11  0.7901E-11  0.2007E-10  0.1879E-10  0.9542E-11  0.8917E-11
     -4.077  0.2096E-04  0.1962E-04  0.6430E-07  0.6019E-07  0.6430E-07  0.6019E-07  0.6428E-07  0.6017E-07  0.9734E-10  0.9114E-10  0.9734E-10  0.9113E-10  0.4862E-10  0.4544E-10  0.9734E-10  0.9114E-10  0.5504E-10  0.5144E-10
     -4.006  0.8400E-04  0.7876E-04  0.2691E-06  0.2521E-06  0.2691E-06  0.2521E-06  0.2690E-06  0.2520E-06  0.4617E-09  0.4325E-09  0.4617E-09  0.4324E-09  0.1984E-09  0.1855E-09  0.4617E-09  0.4325E-09  0.2267E-09  0.2120E-09
     -3.936  0.3064E-03  0.2892E-03  0.1035E-05  0.9734E-06  0.1035E-05  0.9734E-06  0.1035E-05  0.9731E-06  0.1810E-08  0.1698E-08  0.1810E-08  0.1698E-08  0.7762E-09  0.7277E-09  0.1810E-08  0.1698E-08  0.8799E-09  0.8249E-09
     -3.865  0.9027E-03  0.8638E-03  0.3570E-05  0.3387E-05  0.3570E-05  0.3387E-05  0.3570E-05  0.3386E-05  0.6972E-08  0.6574E-08  0.6971E-08  0.6574E-08  0.2896E-08  0.2730E-08  0.6972E-08  0.6574E-08  0.3298E-08  0.3108E-08
     -3.794  0.1849E-02  0.1802E-02  0.9473E-05  0.9108E-05  0.9473E-05  0.9108E-05  0.9470E-05  0.9105E-05  0.2179E-07  0.2076E-07  0.2178E-07  0.2076E-07  0.9085E-08  0.8618E-08  0.2179E-07  0.2076E-07  0.1053E-07  0.9976E-08
     -3.724  0.2731E-02  0.2690E-02  0.1981E-04  0.1921E-04  0.1981E-04  0.1921E-04  0.1980E-04  0.1920E-04  0.5573E-07  0.5350E-07  0.5573E-07  0.5350E-07  0.2519E-07  0.2407E-07  0.5573E-07  0.5350E-07  0.2990E-07  0.2854E-07
     -3.653  0.3640E-02  0.3595E-02  0.3594E-04  0.3512E-04  0.3594E-04  0.3512E-04  0.3594E-04  0.3511E-04  0.1262E-06  0.1220E-06  0.1262E-06  0.1220E-06  0.5440E-07  0.5282E-07  0.1262E-06  0.1220E-06  0.6464E-07  0.6279E-07
     -3.582  0.4188E-02  0.4179E-02  0.5136E-04  0.5078E-04  0.5136E-04  0.5078E-04  0.5136E-04  0.5078E-04  0.2304E-06  0.2252E-06  0.2304E-06  0.2251E-06  0.8512E-07  0.8343E-07  0.2304E-06  0.2252E-06  0.9921E-07  0.9736E-07
     -3.511  0.4274E-02  0.4253E-02  0.6749E-04  0.6639E-04  0.6749E-04  0.6639E-04  0.6745E-04  0.6635E-04  0.3745E-06  0.3657E-06  0.3745E-06  0.3657E-06  0.1428E-06  0.1383E-06  0.3745E-06  0.3657E-06  0.1636E-06  0.1583E-06
     -3.441  0.5101E-02  0.5054E-02  0.9919E-04  0.9763E-04  0.9919E-04  0.9763E-04  0.9912E-04  0.9756E-04  0.5947E-06  0.5841E-06  0.5947E-06  0.5840E-06  0.2701E-06  0.2629E-06  0.5947E-06  0.5841E-06  0.3171E-06  0.3082E-06
     -3.370  0.5628E-02  0.5620E-02  0.1257E-03  0.1248E-03  0.1257E-03  0.1248E-03  0.1256E-03  0.1248E-03  0.8322E-06  0.8191E-06  0.8324E-06  0.8191E-06  0.3886E-06  0.3844E-06  0.8322E-06  0.8191E-06  0.4655E-06  0.4605E-06
     -3.299  0.5585E-02  0.5579E-02  0.1439E-03  0.1429E-03  0.1439E-03  0.1429E-03  0.1440E-03  0.1429E-03  0.1223E-05  0.1200E-05  0.1223E-05  0.1200E-05  0.4367E-06  0.4337E-06  0.1223E-05  0.1200E-05  0.5109E-06  0.5085E-06
     -3.229  0.5873E-02  0.5858E-02  0.1728E-03  0.1716E-03  0.1728E-03  0.1716E-03  0.1727E-03  0.1715E-03  0.1742E-05  0.1722E-05  0.1741E-05  0.1721E-05  0.5353E-06  0.5282E-06  0.1742E-05  0.1722E-05  0.6108E-06  0.6026E-06
     -3.158  0.5696E-02  0.5706E-02  0.1903E-03  0.1895E-03  0.1903E-03  0.1895E-03  0.1901E-03  0.1893E-03  0.1960E-05  0.1953E-05  0.1959E-05  0.1952E-05  0.7227E-06  0.7094E-06  0.1960E-05  0.1953E-05  0.8502E-06  0.8328E-06
     -3.087  0.6104E-02  0.6048E-02  0.2367E-03  0.2334E-03  0.2367E-03  0.2334E-03  0.2364E-03  0.2331E-03  0.2461E-05  0.2419E-05  0.2462E-05  0.2420E-05  0.1118E-05  0.1094E-05  0.2461E-05  0.2419E-05  0.1345E-05  0.1317E-05
     -3.016  0.7107E-02  0.7078E-02  0.3016E-03  0.2996E-03  0.3016E-03  0.2996E-03  0.3017E-03  0.2996E-03  0.3498E-05  0.3450E-05  0.3500E-05  0.3452E-05  0.1487E-05  0.1475E-05  0.3498E-05  0.3450E-05  0.1755E-05  0.1744E-05
     -2.946  0.7155E-02  0.7158E-02  0.3289E-03  0.3281E-03  0.3289E-03  0.3281E-03  0.3290E-03  0.3282E-03  0.4417E-05  0.4376E-05  0.4417E-05  0.4376E-05  0.1601E-05  0.1596E-05  0.4417E-05  0.4376E-05  0.1847E-05  0.1842E-05
     -2.875  0.6795E-02  0.6819E-02  0.3386E-03  0.3390E-03  0.3386E-03  0.3390E-03  0.3388E-03  0.3391E-03  0.5188E-05  0.5160E-05  0.5185E-05  0.5157E-05  0.1594E-05  0.1597E-05  0.5188E-05  0.5160E-05  0.1844E-05  0.1848E-05
     -2.804  0.5911E-02  0.5941E-02  0.3240E-03  0.3241E-03  0.3240E-03  0.3241E-03  0.3239E-03  0.3241E-03  0.5554E-05  0.5535E-05  0.5553E-05  0.5534E-05  0.1499E-05  0.1492E-05  0.5554E-05  0.5535E-05  0.1746E-05  0.1738E-05
     -2.734  0.6128E-02  0.6068E-02  0.3875E-03  0.3816E-03  0.3875E-03  0.3816E-03  0.3864E-03  0.3806E-03  0.6653E-05  0.6563E-05  0.6661E-05  0.6570E-05  0.2120E-05  0.2067E-05  0.6653E-05  0.6563E-05  0.2485E-05  0.2422E-05
     -2.663  0.7606E-02  0.7543E-02  0.5322E-03  0.5265E-03  0.5322E-03  0.5265E-03  0.5313E-03  0.5256E-03  0.8849E-05  0.8753E-05  0.8852E-05  0.8757E-05  0.3322E-05  0.3272E-05  0.8849E-05  0.8753E-05  0.3905E-05  0.3846E-05
     -2.592  0.7782E-02  0.7800E-02  0.5839E-03  0.5838E-03  0.5839E-03  0.5838E-03  0.5840E-03  0.5839E-03  0.1019E-04  0.1014E-04  0.1019E-04  0.1013E-04  0.3718E-05  0.3717E-05  0.1019E-04  0.1014E-04  0.4415E-05  0.4412E-05
     -2.521  0.7436E-02  0.7436E-02  0.6020E-03  0.6004E-03  0.6020E-03  0.6004E-03  0.6019E-03  0.6004E-03  0.1182E-04  0.1173E-04  0.1182E-04  0.1173E-04  0.3720E-05  0.3711E-05  0.1182E-04  0.1173E-04  0.4440E-05  0.4431E-05
     -2.451  0.6796E-02  0.6852E-02  0.5897E-03  0.5929E-03  0.5897E-03  0.5929E-03  0.5902E-03  0.5933E-03  0.1254E-04  0.1256E-04  0.1254E-04  0.1256E-04  0.3628E-05  0.3646E-05  0.1254E-04  0.1256E-04  0.4289E-05  0.4315E-05
     -2.380  0.5803E-02  0.5805E-02  0.5587E-03  0.5558E-03  0.5587E-03  0.5558E-03  0.5583E-03  0.5555E-03  0.1336E-04  0.1321E-04  0.1337E-04  0.1322E-04  0.3287E-05  0.3282E-05  0.1336E-04  0.1321E-04  0.3742E-05  0.3744E-05
     -2.309  0.6709E-02  0.6644E-02  0.7423E-03  0.7304E-03  0.7423E-03  0.7304E-03  0.7398E-03  0.7280E-03  0.1874E-04  0.1845E-04  0.1876E-04  0.1847E-04  0.4008E-05  0.3956E-05  0.1874E-04  0.1845E-04  0.4482E-05  0.4422E-05
     -2.239  0.7431E-02  0.7433E-02  0.9632E-03  0.9563E-03  0.9632E-03  0.9563E-03  0.9607E-03  0.9537E-03  0.2278E-04  0.2271E-04  0.2277E-04  0.2270E-04  0.4924E-05  0.4899E-05  0.2278E-04  0.2271E-04  0.5614E-05  0.5579E-05
     -2.168  0.6505E-02  0.6562E-02  0.1000E-02  0.1002E-02  0.1000E-02  0.1002E-02  0.9997E-03  0.1001E-02  0.2248E-04  0.2251E-04  0.2246E-04  0.2249E-04  0.4862E-05  0.4881E-05  0.2248E-04  0.2251E-04  0.5656E-05  0.5674E-05
     -2.097  0.5481E-02  0.5509E-02  0.9801E-03  0.9793E-03  0.9801E-03  0.9793E-03  0.9796E-03  0.9788E-03  0.2326E-04  0.2315E-04  0.2327E-04  0.2316E-04  0.4566E-05  0.4569E-05  0.2326E-04  0.2315E-04  0.5381E-05  0.5384E-05
     -2.026  0.5087E-02  0.5087E-02  0.1006E-02  0.1005E-02  0.1006E-02  0.1005E-02  0.1007E-02  0.1006E-02  0.2670E-04  0.2646E-04  0.2673E-04  0.2649E-04  0.4564E-05  0.4565E-05  0.2670E-04  0.2646E-04  0.5301E-05  0.5312E-05
     -1.956  0.5540E-02  0.5499E-02  0.1043E-02  0.1039E-02  0.1043E-02  0.1039E-02  0.1044E-02  0.1041E-02  0.3450E-04  0.3403E-04  0.3455E-04  0.3407E-04  0.4619E-05  0.4609E-05  0.3450E-04  0.3403E-04  0.5084E-05  0.5086E-05
     -1.885  0.5987E-02  0.5989E-02  0.1140E-02  0.1136E-02  0.1140E-02  0.1136E-02  0.1139E-02  0.1135E-02  0.4315E-04  0.4286E-04  0.4316E-04  0.4288E-04  0.4880E-05  0.4873E-05  0.4315E-04  0.4286E-04  0.5279E-05  0.5269E-05
     -1.814  0.5350E-02  0.5391E-02  0.1149E-02  0.1152E-02  0.1149E-02  0.1152E-02  0.1149E-02  0.1152E-02  0.4539E-04  0.4541E-04  0.4536E-04  0.4539E-04  0.4697E-05  0.4719E-05  0.4539E-04  0.4541E-04  0.5175E-05  0.5198E-05
     -1.744  0.4205E-02  0.4265E-02  0.9740E-03  0.9855E-03  0.9740E-03  0.9855E-03  0.9767E-03  0.9883E-03  0.4106E-04  0.4138E-04  0.4097E-04  0.4129E-04  0.3831E-05  0.3885E-05  0.4106E-04  0.4138E-04  0.4226E-05  0.4287E-05
     -1.673  0.3125E-02  0.3150E-02  0.7870E-03  0.7906E-03  0.7870E-03  0.7906E-03  0.7881E-03  0.7918E-03  0.3681E-04  0.3677E-04  0.3679E-04  0.3674E-04  0.2918E-05  0.2939E-05  0.3681E-04  0.3677E-04  0.3234E-05  0.3257E-05
     -1.602  0.3305E-02  0.3266E-02  0.8246E-03  0.8184E-03  0.8246E-03  0.8184E-03  0.8248E-03  0.8186E-03  0.4410E-04  0.4350E-04  0.4418E-04  0.4356E-04  0.3186E-05  0.3142E-05  0.4410E-04  0.4350E-04  0.3449E-05  0.3407E-05
     -1.531  0.4371E-02  0.4320E-02  0.1026E-02  0.1016E-02  0.1026E-02  0.1016E-02  0.1025E-02  0.1014E-02  0.6036E-04  0.5958E-04  0.6049E-04  0.5972E-04  0.5094E-05  0.4961E-05  0.6036E-04  0.5958E-04  0.5462E-05  0.5312E-05
     -1.461  0.4997E-02  0.4975E-02  0.1126E-02  0.1127E-02  0.1126E-02  0.1127E-02  0.1125E-02  0.1127E-02  0.6767E-04  0.6776E-04  0.6763E-04  0.6772E-04  0.9295E-05  0.9019E-05  0.6767E-04  0.6776E-04  0.1072E-04  0.1036E-04
     -1.390  0.6004E-02  0.5922E-02  0.1007E-02  0.1013E-02  0.1007E-02  0.1013E-02  0.1008E-02  0.1014E-02  0.6074E-04  0.6111E-04  0.6060E-04  0.6097E-04  0.1836E-04  0.1781E-04  0.6074E-04  0.6111E-04  0.2260E-04  0.2188E-04
     -1.319  0.7923E-02  0.7843E-02  0.8934E-03  0.8990E-03  0.8934E-03  0.8990E-03  0.8953E-03  0.9008E-03  0.5352E-04  0.5388E-04  0.5338E-04  0.5374E-04  0.3031E-04  0.2985E-04  0.5352E-04  0.5388E-04  0.3811E-04  0.3751E-04