   4   4   1   0
  0.2232372E+02  0.4468676E-09  0.4470168E-09  0.4470168E-09  0.5000000E-15
  1.000000000000000E-004
  CAR 
 unknown system                          
     13.95479651     -5.07637563  301      4.54166279      1.00000000
     -5.076  0.0000E+00  0.0000E+00  0.0000E+00  0.0000E+00
     -5.013  0.0000E+00  0.0000E+00  0.0000E+00  0.0000E+00
     -4.950  0.0000E+00  0.0000E+00  0.0000E+00  0.0000E+00
     -4.886  0.0000E+00  0.0000E+00  0.0000E+00  0.0000E+00
     -4.823  0.0000E+00  0.0000E+00  0.0000E+00  0.0000E+00
     -4.759  0.0000E+00  0.0000E+00  0.0000E+00  0.0000E+00
     -4.696  0.0000E+00  0.0000E+00  0.0000E+00  0.0000E+00
     -4.632  0.1581E-05  0.1453E-05  0.1003E-06  0.9219E-07
     -4.569  0.3029E-04  0.2784E-04  0.2022E-05  0.1858E-05
     -4.505  0.9341E-04  0.8584E-04  0.7947E-05  0.7304E-05
     -4.442  0.3556E-03  0.3269E-03  0.3050E-04  0.2804E-04
     -4.379  0.1248E-02  0.1148E-02  0.1097E-03  0.1009E-03
     -4.315  0.4246E-02  0.3918E-02  0.3790E-03  0.3495E-03
     -4.252  0.1340E-01  0.1247E-01  0.1229E-02  0.1140E-02
     -4.188  0.3493E-01  0.3305E-01  0.3445E-02  0.3237E-02
     -4.125  0.6768E-01  0.6539E-01  0.7739E-02  0.7385E-02
     -4.061  0.1008E+00  0.9861E-01  0.1413E-01  0.1364E-01
     -3.998  0.1341E+00  0.1319E+00  0.2264E-01  0.2201E-01
     -3.935  0.1567E+00  0.1559E+00  0.3258E-01  0.3190E-01
     -3.871  0.1672E+00  0.1661E+00  0.4319E-01  0.4244E-01
     -3.808  0.1971E+00  0.1948E+00  0.5570E-01  0.5480E-01
     -3.744  0.2209E+00  0.2201E+00  0.6971E-01  0.6876E-01
     -3.681  0.2266E+00  0.2262E+00  0.8409E-01  0.8311E-01
     -3.617  0.2392E+00  0.2384E+00  0.9927E-01  0.9824E-01
     -3.554  0.2424E+00  0.2424E+00  0.1147E+00  0.1136E+00
     -3.490  0.2613E+00  0.2587E+00  0.1312E+00  0.1300E+00
     -3.427  0.3033E+00  0.3012E+00  0.1505E+00  0.1491E+00
     -3.364  0.3160E+00  0.3159E+00  0.1705E+00  0.1692E+00
     -3.300  0.3084E+00  0.3095E+00  0.1901E+00  0.1888E+00
     -3.237  0.2844E+00  0.2857E+00  0.2082E+00  0.2070E+00
     -3.173  0.2962E+00  0.2930E+00  0.2270E+00  0.2256E+00
     -3.110  0.3639E+00  0.3594E+00  0.2500E+00  0.2484E+00
     -3.046  0.3951E+00  0.3950E+00  0.2751E+00  0.2735E+00
     -2.983  0.3894E+00  0.3895E+00  0.2998E+00  0.2982E+00
     -2.920  0.3743E+00  0.3766E+00  0.3236E+00  0.3221E+00
     -2.856  0.3411E+00  0.3414E+00  0.3452E+00  0.3438E+00
     -2.793  0.3903E+00  0.3843E+00  0.3700E+00  0.3681E+00
     -2.729  0.4715E+00  0.4678E+00  0.3999E+00  0.3978E+00
     -2.666  0.4781E+00  0.4799E+00  0.4303E+00  0.4283E+00
     -2.602  0.4467E+00  0.4482E+00  0.4586E+00  0.4567E+00
     -2.539  0.4360E+00  0.4364E+00  0.4863E+00  0.4844E+00
     -2.475  0.4466E+00  0.4448E+00  0.5147E+00  0.5127E+00
     -2.412  0.4833E+00  0.4813E+00  0.5453E+00  0.5432E+00
     -2.349  0.4840E+00  0.4859E+00  0.5761E+00  0.5741E+00
     -2.285  0.4225E+00  0.4283E+00  0.6029E+00  0.6012E+00
     -2.222  0.3411E+00  0.3451E+00  0.6245E+00  0.6231E+00
     -2.158  0.3281E+00  0.3263E+00  0.6454E+00  0.6439E+00
     -2.095  0.3890E+00  0.3836E+00  0.6701E+00  0.6682E+00
     -2.031  0.4453E+00  0.4441E+00  0.6983E+00  0.6964E+00
     -1.968  0.4312E+00  0.4331E+00  0.7257E+00  0.7239E+00
     -1.905  0.4191E+00  0.4198E+00  0.7523E+00  0.7506E+00
     -1.841  0.4138E+00  0.4146E+00  0.7786E+00  0.7769E+00
     -1.778  0.4360E+00  0.4321E+00  0.8063E+00  0.8043E+00
     -1.714  0.5201E+00  0.5144E+00  0.8393E+00  0.8369E+00
     -1.651  0.5445E+00  0.5465E+00  0.8738E+00  0.8716E+00
     -1.587  0.4879E+00  0.4916E+00  0.9048E+00  0.9028E+00
     -1.524  0.4598E+00  0.4611E+00  0.9340E+00  0.9321E+00
     -1.460  0.4387E+00  0.4398E+00  0.9618E+00  0.9600E+00
     -1.397  0.4562E+00  0.4529E+00  0.9908E+00  0.9888E+00
     -1.334  0.5259E+00  0.5207E+00  0.1024E+01  0.1022E+01
     -1.270  0.5991E+00  0.5955E+00  0.1062E+01  0.1060E+01
     -1.207  0.6221E+00  0.6228E+00  0.1102E+01  0.1099E+01
     -1.143  0.5913E+00  0.5940E+00  0.1139E+01  0.1137E+01
     -1.080  0.5560E+00  0.5570E+00  0.1174E+01  0.1172E+01
     -1.016  0.5743E+00  0.5712E+00  0.1211E+01  0.1208E+01
     -0.953  0.6289E+00  0.6264E+00  0.1251E+01  0.1248E+01
     -0.890  0.6234E+00  0.6272E+00  0.1290E+01  0.1288E+01
     -0.826  0.5463E+00  0.5514E+00  0.1325E+01  0.1323E+01
     -0.763  0.5110E+00  0.5104E+00  0.1358E+01  0.1355E+01
     -0.699  0.5875E+00  0.5792E+00  0.1395E+01  0.1392E+01
     -0.636  0.7331E+00  0.7243E+00  0.1441E+01  0.1438E+01
     -0.572  0.8061E+00  0.8057E+00  0.1493E+01  0.1489E+01
     -0.509  0.7436E+00  0.7501E+00  0.1540E+01  0.1537E+01
     -0.445  0.6502E+00  0.6546E+00  0.1581E+01  0.1578E+01
     -0.382  0.6398E+00  0.6373E+00  0.1622E+01  0.1619E+01
     -0.319  0.6784E+00  0.6779E+00  0.1665E+01  0.1662E+01
     -0.255  0.6320E+00  0.6364E+00  0.1705E+01  0.1702E+01
     -0.192  0.5920E+00  0.5920E+00  0.1742E+01  0.1740E+01
     -0.128  0.5998E+00  0.6003E+00  0.1780E+01  0.1778E+01
     -0.065  0.5573E+00  0.5609E+00  0.1816E+01  0.1814E+01
     -0.001  0.5355E+00  0.5344E+00  0.1850E+01  0.1848E+01
      0.062  0.5681E+00  0.5656E+00  0.1886E+01  0.1883E+01
      0.125  0.6028E+00  0.6000E+00  0.1924E+01  0.1922E+01
      0.189  0.6557E+00  0.6527E+00  0.1966E+01  0.1963E+01
      0.252  0.6754E+00  0.6754E+00  0.2009E+01  0.2006E+01
      0.316  0.6915E+00  0.6890E+00  0.2053E+01  0.2050E+01
      0.379  0.7561E+00  0.7516E+00  0.2101E+01  0.2097E+01
      0.443  0.7719E+00  0.7752E+00  0.2150E+01  0.2147E+01
      0.506  0.6611E+00  0.6699E+00  0.2192E+01  0.2189E+01
      0.570  0.5671E+00  0.5708E+00  0.2228E+01  0.2225E+01
      0.633  0.5532E+00  0.5521E+00  0.2263E+01  0.2260E+01
      0.696  0.6164E+00  0.6097E+00  0.2302E+01  0.2299E+01
      0.760  0.7059E+00  0.7028E+00  0.2347E+01  0.2344E+01
      0.823  0.6857E+00  0.6892E+00  0.2390E+01  0.2387E+01
      0.887  0.6466E+00  0.6481E+00  0.2431E+01  0.2429E+01
      0.950  0.6495E+00  0.6483E+00  0.2472E+01  0.2470E+01
      1.014  0.6975E+00  0.6944E+00  0.2517E+01  0.2514E+01
      1.077  0.7123E+00  0.7146E+00  0.2562E+01  0.2559E+01
      1.140  0.6533E+00  0.6568E+00  0.2603E+01  0.2601E+01
      1.204  0.6340E+00  0.6339E+00  0.2644E+01  0.2641E+01
      1.267  0.6134E+00  0.6155E+00  0.2683E+01  0.2680E+01
      1.331  0.6027E+00  0.6008E+00  0.2721E+01  0.2718E+01
      1.394  0.6711E+00  0.6652E+00  0.2763E+01  0.2760E+01
      1.458  0.7388E+00  0.7360E+00  0.2810E+01  0.2807E+01
      1.521  0.7706E+00  0.7676E+00  0.2859E+01  0.2856E+01
      1.585  0.8349E+00  0.8304E+00  0.2912E+01  0.2909E+01
      1.648  0.8868E+00  0.8862E+00  0.2968E+01  0.2965E+01
      1.711  0.8508E+00  0.8564E+00  0.3022E+01  0.3019E+01
      1.775  0.7551E+00  0.7605E+00  0.3070E+01  0.3068E+01
      1.838  0.7430E+00  0.7386E+00  0.3118E+01  0.3114E+01
      1.902  0.8396E+00  0.8345E+00  0.3171E+01  0.3167E+01
      1.965  0.8243E+00  0.8296E+00  0.3223E+01  0.3220E+01
      2.029  0.7393E+00  0.7438E+00  0.3270E+01  0.3267E+01
      2.092  0.7070E+00  0.7076E+00  0.3315E+01  0.3312E+01
      2.155  0.7417E+00  0.7367E+00  0.3362E+01  0.3359E+01
      2.219  0.8334E+00  0.8271E+00  0.3415E+01  0.3411E+01
      2.282  0.9176E+00  0.9120E+00  0.3473E+01  0.3469E+01
      2.346  0.9822E+00  0.9798E+00  0.3536E+01  0.3532E+01
      2.409  0.9630E+00  0.9679E+00  0.3597E+01  0.3593E+01
      2.473  0.8965E+00  0.8999E+00  0.3654E+01  0.3650E+01
      2.536  0.8865E+00  0.8863E+00  0.3710E+01  0.3706E+01
      2.600  0.8930E+00  0.8934E+00  0.3767E+01  0.3763E+01
      2.663  0.8276E+00  0.8352E+00  0.3819E+01  0.3816E+01
      2.726  0.6858E+00  0.6928E+00  0.3863E+01  0.3860E+01
      2.790  0.6807E+00  0.6744E+00  0.3906E+01  0.3903E+01
      2.853  0.8363E+00  0.8251E+00  0.3959E+01  0.3955E+01
      2.917  0.9644E+00  0.9600E+00  0.4020E+01  0.4016E+01
      2.980  0.1004E+01  0.1003E+01  0.4084E+01  0.4080E+01
      3.044  0.1025E+01  0.1025E+01  0.4149E+01  0.4145E+01
      3.107  0.1016E+01  0.1017E+01  0.4214E+01  0.4210E+01
      3.170  0.9708E+00  0.9767E+00  0.4275E+01  0.4271E+01
      3.234  0.8382E+00  0.8475E+00  0.4328E+01  0.4325E+01
      3.297  0.7463E+00  0.7482E+00  0.4376E+01  0.4373E+01
      3.361  0.7873E+00  0.7828E+00  0.4426E+01  0.4422E+01
      3.424  0.8326E+00  0.8312E+00  0.4479E+01  0.4475E+01
      3.488  0.8255E+00  0.8246E+00  0.4531E+01  0.4528E+01
      3.551  0.8635E+00  0.8589E+00  0.4586E+01  0.4582E+01
      3.615  0.9397E+00  0.9356E+00  0.4645E+01  0.4642E+01
      3.678  0.1014E+01  0.1010E+01  0.4710E+01  0.4706E+01
      3.741  0.1096E+01  0.1092E+01  0.4779E+01  0.4775E+01
      3.805  0.1088E+01  0.1094E+01  0.4848E+01  0.4844E+01
      3.868  0.9199E+00  0.9322E+00  0.4907E+01  0.4904E+01
      3.932  0.7546E+00  0.7609E+00  0.4955E+01  0.4952E+01
      3.995  0.7254E+00  0.7230E+00  0.5001E+01  0.4998E+01
      4.059  0.7711E+00  0.7686E+00  0.5050E+01  0.5047E+01
      4.122  0.8153E+00  0.8122E+00  0.5102E+01  0.5098E+01
      4.185  0.9053E+00  0.8991E+00  0.5159E+01  0.5155E+01
      4.249  0.9568E+00  0.9577E+00  0.5220E+01  0.5216E+01
      4.312  0.8811E+00  0.8863E+00  0.5276E+01  0.5272E+01
      4.376  0.8787E+00  0.8740E+00  0.5331E+01  0.5328E+01
      4.439  0.1002E+01  0.9946E+00  0.5395E+01  0.5391E+01
      4.503  0.1057E+01  0.1056E+01  0.5462E+01  0.5458E+01
      4.566  0.1010E+01  0.1014E+01  0.5526E+01  0.5522E+01
      4.630  0.9586E+00  0.9608E+00  0.5587E+01  0.5583E+01
      4.693  0.9299E+00  0.9307E+00  0.5646E+01  0.5642E+01
      4.756  0.9237E+00  0.9243E+00  0.5705E+01  0.5701E+01
      4.820  0.9027E+00  0.9048E+00  0.5762E+01  0.5758E+01
      4.883  0.8931E+00  0.8928E+00  0.5819E+01  0.5815E+01
      4.947  0.9112E+00  0.9094E+00  0.5877E+01  0.5873E+01
      5.010  0.9446E+00  0.9422E+00  0.5937E+01  0.5933E+01
      5.074  0.9690E+00  0.9672E+00  0.5998E+01  0.5994E+01
      5.137  0.1009E+01  0.1007E+01  0.6062E+01  0.6058E+01
      5.200  0.1024E+01  0.1024E+01  0.6127E+01  0.6123E+01
      5.264  0.1035E+01  0.1033E+01  0.6193E+01  0.6189E+01
      5.327  0.1087E+01  0.1084E+01  0.6262E+01  0.6257E+01
      5.391  0.1089E+01  0.1091E+01  0.6331E+01  0.6327E+01
      5.454  0.1043E+01  0.1046E+01  0.6397E+01  0.6393E+01
      5.518  0.1066E+01  0.1062E+01  0.6465E+01  0.6460E+01
      5.581  0.1100E+01  0.1100E+01  0.6535E+01  0.6530E+01
      5.645  0.9958E+00  0.1005E+01  0.6598E+01  0.6594E+01
      5.708  0.8600E+00  0.8647E+00  0.6652E+01  0.6649E+01
      5.771  0.8624E+00  0.8588E+00  0.6707E+01  0.6704E+01
      5.835  0.9354E+00  0.9300E+00  0.6767E+01  0.6763E+01
      5.898  0.1009E+01  0.1003E+01  0.6831E+01  0.6826E+01
      5.962  0.1117E+01  0.1109E+01  0.6902E+01  0.6897E+01
      6.025  0.1188E+01  0.1189E+01  0.6977E+01  0.6972E+01
      6.089  0.1117E+01  0.1125E+01  0.7048E+01  0.7044E+01
      6.152  0.1031E+01  0.1035E+01  0.7113E+01  0.7109E+01
      6.215  0.1026E+01  0.1022E+01  0.7178E+01  0.7174E+01
      6.279  0.1128E+01  0.1117E+01  0.7250E+01  0.7245E+01
      6.342  0.1236E+01  0.1235E+01  0.7328E+01  0.7323E+01
      6.406  0.1140E+01  0.1154E+01  0.7401E+01  0.7397E+01
      6.469  0.8774E+00  0.8953E+00  0.7456E+01  0.7453E+01
      6.533  0.6804E+00  0.6854E+00  0.7500E+01  0.7497E+01
      6.596  0.7595E+00  0.7451E+00  0.7548E+01  0.7544E+01
      6.660  0.1005E+01  0.9904E+00  0.7612E+01  0.7607E+01
      6.723  0.1114E+01  0.1113E+01  0.7682E+01  0.7678E+01
      6.786  0.1089E+01  0.1093E+01  0.7752E+01  0.7747E+01
      6.850  0.1111E+01  0.1107E+01  0.7822E+01  0.7817E+01
      6.913  0.1252E+01  0.1243E+01  0.7902E+01  0.7896E+01
      6.977  0.1321E+01  0.1320E+01  0.7985E+01  0.7980E+01
      7.040  0.1267E+01  0.1269E+01  0.8066E+01  0.8061E+01
      7.104  0.1217E+01  0.1218E+01  0.8143E+01  0.8138E+01
      7.167  0.1167E+01  0.1172E+01  0.8217E+01  0.8212E+01
      7.230  0.1083E+01  0.1091E+01  0.8286E+01  0.8282E+01
      7.294  0.9685E+00  0.9743E+00  0.8347E+01  0.8343E+01
      7.357  0.9691E+00  0.9626E+00  0.8409E+01  0.8405E+01
      7.421  0.1154E+01  0.1139E+01  0.8482E+01  0.8477E+01
      7.484  0.1301E+01  0.1298E+01  0.8565E+01  0.8559E+01
      7.548  0.1246E+01  0.1254E+01  0.8644E+01  0.8639E+01
      7.611  0.1120E+01  0.1129E+01  0.8715E+01  0.8711E+01
      7.675  0.1053E+01  0.1054E+01  0.8782E+01  0.8778E+01
      7.738  0.1131E+01  0.1122E+01  0.8854E+01  0.8849E+01
      7.801  0.1257E+01  0.1250E+01  0.8933E+01  0.8928E+01
      7.865  0.1286E+01  0.1288E+01  0.9015E+01  0.9010E+01
      7.928  0.1212E+01  0.1218E+01  0.9092E+01  0.9087E+01
      7.992  0.1128E+01  0.1133E+01  0.9164E+01  0.9159E+01
      8.055  0.1039E+01  0.1046E+01  0.9230E+01  0.9226E+01
      8.119  0.9446E+00  0.9473E+00  0.9289E+01  0.9286E+01
      8.182  0.1012E+01  0.9999E+00  0.9354E+01  0.9349E+01
      8.245  0.1231E+01  0.1217E+01  0.9432E+01  0.9426E+01
      8.309  0.1390E+01  0.1383E+01  0.9520E+01  0.9514E+01
      8.372  0.1441E+01  0.1441E+01  0.9612E+01  0.9606E+01
      8.436  0.1376E+01  0.1382E+01  0.9699E+01  0.9693E+01
      8.499  0.1281E+01  0.1287E+01  0.9780E+01  0.9775E+01
      8.563  0.1233E+01  0.1236E+01  0.9858E+01  0.9854E+01
      8.626  0.1207E+01  0.1208E+01  0.9935E+01  0.9930E+01
      8.690  0.1204E+01  0.1203E+01  0.1001E+02  0.1001E+02
      8.753  0.1204E+01  0.1206E+01  0.1009E+02  0.1008E+02
      8.816  0.1129E+01  0.1136E+01  0.1016E+02  0.1016E+02
      8.880  0.1069E+01  0.1068E+01  0.1023E+02  0.1022E+02
      8.943  0.1222E+01  0.1208E+01  0.1031E+02  0.1030E+02
      9.007  0.1464E+01  0.1451E+01  0.1040E+02  0.1039E+02
      9.070  0.1536E+01  0.1540E+01  0.1050E+02  0.1049E+02
      9.134  0.1324E+01  0.1341E+01  0.1058E+02  0.1057E+02
      9.197  0.1055E+01  0.1067E+01  0.1065E+02  0.1064E+02
      9.260  0.8830E+00  0.8890E+00  0.1070E+02  0.1070E+02
      9.324  0.8621E+00  0.8537E+00  0.1076E+02  0.1075E+02
      9.387  0.1059E+01  0.1044E+01  0.1082E+02  0.1082E+02
      9.451  0.1220E+01  0.1220E+01  0.1090E+02  0.1090E+02
      9.514  0.1161E+01  0.1170E+01  0.1098E+02  0.1097E+02
      9.578  0.1042E+01  0.1050E+01  0.1104E+02  0.1104E+02
      9.641  0.9380E+00  0.9439E+00  0.1110E+02  0.1110E+02
      9.705  0.8558E+00  0.8578E+00  0.1116E+02  0.1115E+02
      9.768  0.8045E+00  0.7991E+00  0.1121E+02  0.1120E+02
      9.831  0.8026E+00  0.7911E+00  0.1126E+02  0.1125E+02
      9.895  0.8043E+00  0.8020E+00  0.1131E+02  0.1130E+02
      9.958  0.7210E+00  0.7291E+00  0.1135E+02  0.1135E+02
     10.022  0.5986E+00  0.6110E+00  0.1139E+02  0.1139E+02
     10.085  0.4855E+00  0.5019E+00  0.1142E+02  0.1142E+02
     10.149  0.3895E+00  0.4000E+00  0.1145E+02  0.1145E+02
     10.212  0.3593E+00  0.3615E+00  0.1147E+02  0.1147E+02
     10.275  0.3770E+00  0.3766E+00  0.1149E+02  0.1149E+02
     10.339  0.3849E+00  0.3868E+00  0.1152E+02  0.1152E+02
     10.402  0.3196E+00  0.3245E+00  0.1154E+02  0.1154E+02
     10.466  0.2840E+00  0.2813E+00  0.1156E+02  0.1156E+02
     10.529  0.3762E+00  0.3659E+00  0.1158E+02  0.1158E+02
     10.593  0.4631E+00  0.4531E+00  0.1161E+02  0.1161E+02
     10.656  0.4519E+00  0.4363E+00  0.1164E+02  0.1164E+02
     10.719  0.3960E+00  0.3780E+00  0.1166E+02  0.1166E+02
     10.783  0.3327E+00  0.3317E+00  0.1169E+02  0.1168E+02
     10.846  0.2712E+00  0.2934E+00  0.1170E+02  0.1170E+02
     10.910  0.2303E+00  0.2532E+00  0.1172E+02  0.1172E+02
     10.973  0.2388E+00  0.2489E+00  0.1173E+02  0.1173E+02
     11.037  0.2488E+00  0.2516E+00  0.1175E+02  0.1175E+02
     11.100  0.2824E+00  0.2800E+00  0.1177E+02  0.1177E+02
     11.164  0.3088E+00  0.3101E+00  0.1179E+02  0.1179E+02
     11.227  0.2517E+00  0.2561E+00  0.1180E+02  0.1180E+02
     11.290  0.2159E+00  0.2161E+00  0.1182E+02  0.1182E+02
     11.354  0.2167E+00  0.2172E+00  0.1183E+02  0.1183E+02
     11.417  0.1755E+00  0.1799E+00  0.1184E+02  0.1184E+02
     11.481  0.1167E+00  0.1199E+00  0.1185E+02  0.1185E+02
     11.544  0.1011E+00  0.1015E+00  0.1185E+02  0.1185E+02
     11.608  0.1144E+00  0.1134E+00  0.1186E+02  0.1186E+02
     11.671  0.1552E+00  0.1526E+00  0.1187E+02  0.1187E+02
     11.734  0.1995E+00  0.1972E+00  0.1188E+02  0.1188E+02
     11.798  0.2079E+00  0.2074E+00  0.1190E+02  0.1190E+02
     11.861  0.1825E+00  0.1847E+00  0.1191E+02  0.1191E+02
     11.925  0.1326E+00  0.1359E+00  0.1192E+02  0.1192E+02
     11.988  0.8787E-01  0.9059E-01  0.1192E+02  0.1192E+02
     12.052  0.5018E-01  0.5194E-01  0.1193E+02  0.1193E+02
     12.115  0.3940E-01  0.3925E-01  0.1193E+02  0.1193E+02
     12.179  0.6056E-01  0.5894E-01  0.1193E+02  0.1193E+02
     12.242  0.8760E-01  0.8669E-01  0.1194E+02  0.1194E+02
     12.305  0.1188E+00  0.1188E+00  0.1195E+02  0.1195E+02
     12.369  0.1583E+00  0.1598E+00  0.1196E+02  0.1196E+02
     12.432  0.1521E+00  0.1527E+00  0.1197E+02  0.1197E+02
     12.496  0.9995E-01  0.1001E+00  0.1197E+02  0.1197E+02
     12.559  0.6420E-01  0.6319E-01  0.1198E+02  0.1198E+02
     12.623  0.6378E-01  0.6268E-01  0.1198E+02  0.1198E+02
     12.686  0.5877E-01  0.6011E-01  0.1198E+02  0.1198E+02
     12.749  0.4677E-01  0.4824E-01  0.1199E+02  0.1199E+02
     12.813  0.4711E-01  0.4874E-01  0.1199E+02  0.1199E+02
     12.876  0.4218E-01  0.4501E-01  0.1199E+02  0.1199E+02
     12.940  0.3302E-01  0.3395E-01  0.1199E+02  0.1199E+02
     13.003  0.2485E-01  0.2311E-01  0.1200E+02  0.1200E+02
     13.067  0.2157E-01  0.2002E-01  0.1200E+02  0.1200E+02
     13.130  0.1990E-01  0.1952E-01  0.1200E+02  0.1200E+02
     13.194  0.1163E-01  0.1189E-01  0.1200E+02  0.1200E+02
     13.257  0.4414E-02  0.4577E-02  0.1200E+02  0.1200E+02
     13.320  0.1370E-02  0.1392E-02  0.1200E+02  0.1200E+02
     13.384  0.3825E-03  0.4040E-03  0.1200E+02  0.1200E+02
     13.447  0.1085E-03  0.1146E-03  0.1200E+02  0.1200E+02
     13.511  0.0000E+00  0.0000E+00  0.1200E+02  0.1200E+02
     13.574  0.0000E+00  0.0000E+00  0.1200E+02  0.1200E+02
     13.638  0.0000E+00  0.0000E+00  0.1200E+02  0.1200E+02
     13.701  0.0000E+00  0.0000E+00  0.1200E+02  0.1200E+02
     13.764  0.0000E+00  0.0000E+00  0.1200E+02  0.1200E+02
     13.828  0.0000E+00  0.0000E+00  0.1200E+02  0.1200E+02
     13.891  0.0000E+00  0.0000E+00  0.1200E+02  0.1200E+02
     13.955  0.0000E+00  0.0000E+00  0.1200E+02  0.1200E+02
     13.95479651     -5.07637563  301      4.54166279      1.00000000
     -5.076  0.0000E+00  0.0000E+00  0.0000E+00  0.0000E+00  0.0000E+00  0.0000E+00  0.0000E+00  0.0000E+00  0.0000E+00  0.0000E+00  0.0000E+00  0.0000E+00  0.0000E+00  0.0000E+00  0.0000E+00  0.0000E+00  0.0000E+00  0.0000E+00
     -5.013  0.0000E+00  0.0000E+00  0.0000E+00  0.0000E+00  0.0000E+00  0.0000E+00  0.0000E+00  0.0000E+00  0.0000E+00  0.0000E+00  0.0000E+00  0.0000E+00  0.0000E+00  0.0000E+00  0.0000E+00  0.0000E+00  0.0000E+00  0.0000E+00
     -4.950  0.0000E+00  0.0000E+00  0.0000E+00  0.0000E+00  0.0000E+00  0.0000E+00  0.0000E+00  0.0000E+00  0.0000E+00  0.0000E+00  0.0000E+00  0.0000E+00  0.0000E+00  0.0000E+00  0.0000E+00  0.0000E+00  0.0000E+00  0.0000E+00
     -4.886  0.0000E+00  0.0000E+00  0.0000E+00  0.0000E+00  0.0000E+00  0.0000E+00  0.0000E+00  0.0000E+00  0.0000E+00  0.0000E+00  0.0000E+00  0.0000E+00  0.0000E+00  0.0000E+00  0.0000E+00  0.0000E+00  0.0000E+00  0.0000E+00
     -4.823  0.0000E+00  0.0000E+00  0.0000E+00  0.0000E+00  0.0000E+00  0.0000E+00  0.0000E+00  0.0000E+00  0.0000E+00  0.0000E+00  0.0000E+00  0.0000E+00  0.0000E+00  0.0000E+00  0.0000E+00  0.0000E+00  0.0000E+00  0.0000E+00
     -4.759  0.0000E+00  0.0000E+00  0.0000E+00  0.0000E+00  0.0000E+00  0.0000E+00  0.0000E+00  0.0000E+00  0.0000E+00  0.0000E+00  0.0000E+00  0.0000E+00  0.0000E+00  0.0000E+00  0.0000E+00  0.0000E+00  0.0000E+00  0.0000E+00
     -4.696  0.0000E+00  0.0000E+00  0.0000E+00  0.0000E+00  0.0000E+00  0.0000E+00  0.0000E+00  0.0000E+00  0.0000E+00  0.0000E+00  0.0000E+00  0.0000E+00  0.0000E+00  0.0000E+00  0.0000E+00  0.0000E+00  0.0000E+00  0.0000E+00
     -4.632  0.4191E-07  0.3851E-07  0.6145E-20  0.4886E-22  0.6145E-20  0.4886E-22  0.1272E-19  0.7595E-22  0.8362E-21  0.5759E-21  0.2649E-20  0.8172E-22  0.4267E-19  0.2793E-19  0.8362E-21  0.5759E-21  0.5248E-19  0.3570E-19
     -4.569  0.7935E-06  0.7291E-06  0.1827E-08  0.1680E-08  0.1827E-08  0.1680E-08  0.1827E-08  0.1680E-08  0.1748E-11  0.1607E-11  0.1747E-11  0.1606E-11  0.8270E-12  0.7598E-12  0.1748E-11  0.1607E-11  0.8451E-12  0.7764E-12
     -4.505  0.2443E-05  0.2245E-05  0.6375E-08  0.5862E-08  0.6375E-08  0.5862E-08  0.6375E-08  0.5863E-08  0.9726E-11  0.8941E-11  0.9721E-11  0.8936E-11  0.2112E-11  0.1941E-11  0.9726E-11  0.8941E-11  0.2158E-11  0.1983E-11
     -4.442  0.9275E-05  0.8525E-05  0.2902E-07  0.2669E-07  0.2902E-07  0.2669E-07  0.2901E-07  0.2668E-07  0.4281E-10  0.3936E-10  0.4281E-10  0.3935E-10  0.2220E-10  0.2039E-10  0.4281E-10  0.3936E-10  0.2554E-10  0.2345E-10
     -4.379  0.3254E-04  0.2994E-04  0.1043E-06  0.9600E-07  0.1043E-06  0.9600E-07  0.1043E-06  0.9598E-07  0.1839E-09  0.1691E-09  0.1839E-09  0.1691E-09  0.7250E-10  0.6660E-10  0.1839E-09  0.1691E-09  0.8359E-10  0.7678E-10
     -4.315  0.1107E-03  0.1021E-03  0.3586E-06  0.3304E-06  0.3586E-06  0.3304E-06  0.3585E-06  0.3303E-06  0.6289E-09  0.5786E-09  0.6288E-09  0.5785E-09  0.2520E-09  0.2317E-09  0.6289E-09  0.5786E-09  0.2872E-09  0.2641E-09
     -4.252  0.3489E-03  0.3247E-03  0.1212E-05  0.1122E-05  0.1212E-05  0.1122E-05  0.1211E-05  0.1121E-05  0.2260E-08  0.2084E-08  0.2259E-08  0.2083E-08  0.8807E-09  0.8123E-09  0.2260E-08  0.2084E-08  0.1005E-08  0.9271E-09
     -4.188  0.9070E-03  0.8583E-03  0.3635E-05  0.3400E-05  0.3635E-05  0.3400E-05  0.3634E-05  0.3399E-05  0.7336E-08  0.6808E-08  0.7335E-08  0.6807E-08  0.2904E-08  0.2694E-08  0.7336E-08  0.6808E-08  0.3344E-08  0.3100E-08
     -4.125  0.1748E-02  0.1689E-02  0.8864E-05  0.8415E-05  0.8864E-05  0.8415E-05  0.8861E-05  0.8412E-05  0.2070E-07  0.1943E-07  0.2070E-07  0.1942E-07  0.8197E-08  0.7662E-08  0.2070E-07  0.1943E-07  0.9561E-08  0.8925E-08
     -4.061  0.2578E-02  0.2524E-02  0.1787E-04  0.1715E-04  0.1787E-04  0.1715E-04  0.1787E-04  0.1714E-04  0.5039E-07  0.4770E-07  0.5039E-07  0.4769E-07  0.2089E-07  0.1972E-07  0.5039E-07  0.4770E-07  0.2474E-07  0.2334E-07
     -3.998  0.3391E-02  0.3338E-02  0.3115E-04  0.3021E-04  0.3115E-04  0.3021E-04  0.3115E-04  0.3020E-04  0.1075E-06  0.1026E-06  0.1074E-06  0.1026E-06  0.4250E-07  0.4085E-07  0.1075E-06  0.1026E-06  0.5033E-07  0.4841E-07
     -3.935  0.3919E-02  0.3902E-02  0.4477E-04  0.4397E-04  0.4477E-04  0.4397E-04  0.4476E-04  0.4396E-04  0.1933E-06  0.1869E-06  0.1933E-06  0.1869E-06  0.6858E-07  0.6654E-07  0.1933E-06  0.1869E-06  0.7995E-07  0.7768E-07
     -3.871  0.4117E-02  0.4092E-02  0.5973E-04  0.5847E-04  0.5973E-04  0.5847E-04  0.5970E-04  0.5844E-04  0.3130E-06  0.3032E-06  0.3130E-06  0.3032E-06  0.1146E-06  0.1101E-06  0.3130E-06  0.3032E-06  0.1321E-06  0.1269E-06
     -3.808  0.4771E-02  0.4718E-02  0.8486E-04  0.8310E-04  0.8486E-04  0.8310E-04  0.8481E-04  0.8304E-04  0.4880E-06  0.4755E-06  0.4880E-06  0.4754E-06  0.2039E-06  0.1969E-06  0.4880E-06  0.4755E-06  0.2395E-06  0.2309E-06
     -3.744  0.5273E-02  0.5258E-02  0.1080E-03  0.1069E-03  0.1080E-03  0.1069E-03  0.1080E-03  0.1069E-03  0.6921E-06  0.6767E-06  0.6921E-06  0.6767E-06  0.2924E-06  0.2878E-06  0.6921E-06  0.6767E-06  0.3489E-06  0.3433E-06
     -3.681  0.5325E-02  0.5319E-02  0.1254E-03  0.1242E-03  0.1254E-03  0.1242E-03  0.1255E-03  0.1242E-03  0.9990E-06  0.9739E-06  0.9991E-06  0.9740E-06  0.3415E-06  0.3381E-06  0.9990E-06  0.9739E-06  0.4005E-06  0.3973E-06
     -3.617  0.5527E-02  0.5512E-02  0.1487E-03  0.1472E-03  0.1487E-03  0.1472E-03  0.1486E-03  0.1472E-03  0.1394E-05  0.1371E-05  0.1394E-05  0.1371E-05  0.4180E-06  0.4109E-06  0.1394E-05  0.1371E-05  0.4807E-06  0.4725E-06
     -3.554  0.5493E-02  0.5499E-02  0.1679E-03  0.1667E-03  0.1679E-03  0.1667E-03  0.1677E-03  0.1665E-03  0.1641E-05  0.1627E-05  0.1640E-05  0.1627E-05  0.5626E-06  0.5495E-06  0.1641E-05  0.1627E-05  0.6610E-06  0.6443E-06
     -3.490  0.5778E-02  0.5726E-02  0.2036E-03  0.2003E-03  0.2036E-03  0.2003E-03  0.2034E-03  0.2000E-03  0.2032E-05  0.1990E-05  0.2032E-05  0.1991E-05  0.8313E-06  0.8098E-06  0.2032E-05  0.1990E-05  0.9962E-06  0.9703E-06
     -3.427  0.6584E-02  0.6542E-02  0.2557E-03  0.2529E-03  0.2557E-03  0.2529E-03  0.2556E-03  0.2528E-03  0.2807E-05  0.2753E-05  0.2808E-05  0.2754E-05  0.1106E-05  0.1092E-05  0.2807E-05  0.2753E-05  0.1308E-05  0.1294E-05
     -3.364  0.6748E-02  0.6751E-02  0.2836E-03  0.2825E-03  0.2836E-03  0.2825E-03  0.2837E-03  0.2826E-03  0.3565E-05  0.3517E-05  0.3564E-05  0.3517E-05  0.1219E-05  0.1214E-05  0.3565E-05  0.3517E-05  0.1413E-05  0.1409E-05
     -3.300  0.6468E-02  0.6496E-02  0.2949E-03  0.2948E-03  0.2949E-03  0.2948E-03  0.2950E-03  0.2949E-03  0.4210E-05  0.4174E-05  0.4207E-05  0.4171E-05  0.1237E-05  0.1239E-05  0.4210E-05  0.4174E-05  0.1433E-05  0.1435E-05
     -3.237  0.5826E-02  0.5863E-02  0.2919E-03  0.2918E-03  0.2919E-03  0.2918E-03  0.2918E-03  0.2918E-03  0.4635E-05  0.4608E-05  0.4634E-05  0.4606E-05  0.1215E-05  0.1210E-05  0.4635E-05  0.4608E-05  0.1416E-05  0.1410E-05
     -3.173  0.5838E-02  0.5789E-02  0.3350E-03  0.3295E-03  0.3350E-03  0.3295E-03  0.3343E-03  0.3288E-03  0.5436E-05  0.5352E-05  0.5439E-05  0.5355E-05  0.1585E-05  0.1541E-05  0.5436E-05  0.5352E-05  0.1859E-05  0.1807E-05
     -3.110  0.6927E-02  0.6852E-02  0.4428E-03  0.4359E-03  0.4428E-03  0.4359E-03  0.4420E-03  0.4352E-03  0.7034E-05  0.6924E-05  0.7036E-05  0.6927E-05  0.2375E-05  0.2325E-05  0.7034E-05  0.6924E-05  0.2796E-05  0.2736E-05
     -3.046  0.7333E-02  0.7340E-02  0.5042E-03  0.5028E-03  0.5042E-03  0.5028E-03  0.5041E-03  0.5027E-03  0.8318E-05  0.8248E-05  0.8314E-05  0.8244E-05  0.2793E-05  0.2785E-05  0.8318E-05  0.8248E-05  0.3312E-05  0.3300E-05
     -2.983  0.7036E-02  0.7049E-02  0.5213E-03  0.5200E-03  0.5213E-03  0.5200E-03  0.5213E-03  0.5201E-03  0.9523E-05  0.9430E-05  0.9521E-05  0.9427E-05  0.2827E-05  0.2824E-05  0.9523E-05  0.9430E-05  0.3370E-05  0.3367E-05
     -2.920  0.6574E-02  0.6627E-02  0.5240E-03  0.5259E-03  0.5240E-03  0.5259E-03  0.5242E-03  0.5261E-03  0.1044E-04  0.1042E-04  0.1044E-04  0.1041E-04  0.2799E-05  0.2811E-05  0.1044E-04  0.1042E-04  0.3314E-05  0.3331E-05
     -2.856  0.5737E-02  0.5764E-02  0.5065E-03  0.5048E-03  0.5065E-03  0.5048E-03  0.5062E-03  0.5046E-03  0.1111E-04  0.1099E-04  0.1112E-04  0.1100E-04  0.2602E-05  0.2606E-05  0.1111E-04  0.1099E-04  0.2996E-05  0.3007E-05
     -2.793  0.6143E-02  0.6078E-02  0.6245E-03  0.6121E-03  0.6245E-03  0.6121E-03  0.6227E-03  0.6103E-03  0.1458E-04  0.1428E-04  0.1459E-04  0.1429E-04  0.2952E-05  0.2908E-05  0.1458E-04  0.1428E-04  0.3324E-05  0.3275E-05
     -2.729  0.6846E-02  0.6831E-02  0.8089E-03  0.7990E-03  0.8089E-03  0.7990E-03  0.8067E-03  0.7968E-03  0.1821E-04  0.1806E-04  0.1821E-04  0.1806E-04  0.3587E-05  0.3555E-05  0.1821E-04  0.1806E-04  0.4083E-05  0.4042E-05
     -2.666  0.6322E-02  0.6386E-02  0.8758E-03  0.8755E-03  0.8758E-03  0.8755E-03  0.8751E-03  0.8748E-03  0.1892E-04  0.1892E-04  0.1891E-04  0.1891E-04  0.3681E-05  0.3694E-05  0.1892E-04  0.1892E-04  0.4263E-05  0.4274E-05
     -2.602  0.5380E-02  0.5431E-02  0.8652E-03  0.8654E-03  0.8652E-03  0.8654E-03  0.8649E-03  0.8652E-03  0.1944E-04  0.1934E-04  0.1944E-04  0.1934E-04  0.3464E-05  0.3476E-05  0.1944E-04  0.1934E-04  0.4062E-05  0.4073E-05
     -2.539  0.4879E-02  0.4899E-02  0.8777E-03  0.8774E-03  0.8777E-03  0.8774E-03  0.8780E-03  0.8776E-03  0.2180E-04  0.2157E-04  0.2181E-04  0.2159E-04  0.3399E-05  0.3407E-05  0.2180E-04  0.2157E-04  0.3957E-05  0.3973E-05
     -2.475  0.5033E-02  0.5000E-02  0.8994E-03  0.8968E-03  0.8994E-03  0.8968E-03  0.9005E-03  0.8979E-03  0.2695E-04  0.2648E-04  0.2698E-04  0.2651E-04  0.3395E-05  0.3392E-05  0.2695E-04  0.2648E-04  0.3792E-05  0.3801E-05
     -2.412  0.5485E-02  0.5475E-02  0.9722E-03  0.9674E-03  0.9722E-03  0.9674E-03  0.9719E-03  0.9672E-03  0.3399E-04  0.3358E-04  0.3401E-04  0.3360E-04  0.3557E-05  0.3550E-05  0.3399E-04  0.3358E-04  0.3863E-05  0.3857E-05
     -2.349  0.5144E-02  0.5191E-02  0.1000E-02  0.1002E-02  0.1000E-02  0.1002E-02  0.1000E-02  0.1002E-02  0.3710E-04  0.3705E-04  0.3708E-04  0.3703E-04  0.3505E-05  0.3525E-05  0.3710E-04  0.3705E-04  0.3847E-05  0.3866E-05
     -2.285  0.4220E-02  0.4292E-02  0.8928E-03  0.9043E-03  0.8928E-03  0.9043E-03  0.8948E-03  0.9062E-03  0.3517E-04  0.3542E-04  0.3511E-04  0.3537E-04  0.3005E-05  0.3054E-05  0.3517E-04  0.3542E-04  0.3315E-05  0.3369E-05
     -2.222  0.3223E-02  0.3275E-02  0.7341E-03  0.7419E-03  0.7341E-03  0.7419E-03  0.7355E-03  0.7434E-03  0.3179E-04  0.3188E-04  0.3176E-04  0.3184E-04  0.2355E-05  0.2389E-05  0.3179E-04  0.3188E-04  0.2601E-05  0.2639E-05
     -2.158  0.3027E-02  0.3006E-02  0.7126E-03  0.7090E-03  0.7126E-03  0.7090E-03  0.7129E-03  0.7094E-03  0.3501E-04  0.3451E-04  0.3504E-04  0.3453E-04  0.2302E-05  0.2281E-05  0.3501E-04  0.3451E-04  0.2512E-05  0.2493E-05
     -2.095  0.3726E-02  0.3670E-02  0.8375E-03  0.8264E-03  0.8375E-03  0.8264E-03  0.8366E-03  0.8256E-03  0.4577E-04  0.4492E-04  0.4586E-04  0.4501E-04  0.3229E-05  0.3136E-05  0.4577E-04  0.4492E-04  0.3462E-05  0.3361E-05
     -2.031  0.4341E-02  0.4323E-02  0.9557E-03  0.9537E-03  0.9557E-03  0.9537E-03  0.9550E-03  0.9532E-03  0.5440E-04  0.5419E-04  0.5440E-04  0.5418E-04  0.5385E-05  0.5205E-05  0.5440E-04  0.5419E-04  0.6062E-05  0.5831E-05
     -1.968  0.4817E-02  0.4767E-02  0.8949E-03  0.9029E-03  0.8949E-03  0.9029E-03  0.8959E-03  0.9037E-03  0.5175E-04  0.5213E-04  0.5165E-04  0.5203E-04  0.9941E-05  0.9542E-05  0.5175E-04  0.5213E-04  0.1202E-04  0.1149E-04
     -1.905  0.6291E-02  0.6181E-02  0.7880E-03  0.7956E-03  0.7880E-03  0.7956E-03  0.7893E-03  0.7970E-03  0.4596E-04  0.4637E-04  0.4585E-04  0.4626E-04  0.1831E-04  0.1772E-04  0.4596E-04  0.4637E-04  0.2289E-04  0.2214E-04