   4   4   1   0
  0.2170934E+02  0.4427300E-09  0.4428778E-09  0.4428778E-09  0.5000000E-15
  1.000000000000000E-004
  CAR 
 unknown system                          
     14.40570547     -5.03660255  301      4.75653703      1.00000000
     -5.037  0.0000E+00  0.0000E+00  0.0000E+00  0.0000E+00
     -4.972  0.0000E+00  0.0000E+00  0.0000E+00  0.0000E+00
     -4.907  0.0000E+00  0.0000E+00  0.0000E+00  0.0000E+00
     -4.842  0.0000E+00  0.0000E+00  0.0000E+00  0.0000E+00
     -4.777  0.0000E+00  0.0000E+00  0.0000E+00  0.0000E+00
     -4.713  0.0000E+00  0.0000E+00  0.0000E+00  0.0000E+00
     -4.648  0.0000E+00  0.0000E+00  0.0000E+00  0.0000E+00
     -4.583  0.1291E-05  0.1191E-05  0.8364E-07  0.7716E-07
     -4.518  0.2490E-04  0.2297E-04  0.1698E-05  0.1566E-05
     -4.453  0.7933E-04  0.7319E-04  0.6839E-05  0.6309E-05
     -4.389  0.3091E-03  0.2853E-03  0.2687E-04  0.2480E-04
     -4.324  0.1116E-02  0.1031E-02  0.9922E-04  0.9161E-04
     -4.259  0.3911E-02  0.3622E-02  0.3527E-03  0.3263E-03
     -4.194  0.1269E-01  0.1185E-01  0.1175E-02  0.1094E-02
     -4.129  0.3386E-01  0.3212E-01  0.3370E-02  0.3176E-02
     -4.064  0.6639E-01  0.6427E-01  0.7672E-02  0.7341E-02
     -4.000  0.9893E-01  0.9695E-01  0.1408E-01  0.1362E-01
     -3.935  0.1320E+00  0.1299E+00  0.2264E-01  0.2204E-01
     -3.870  0.1541E+00  0.1534E+00  0.3262E-01  0.3199E-01
     -3.805  0.1636E+00  0.1626E+00  0.4323E-01  0.4252E-01
     -3.740  0.1939E+00  0.1917E+00  0.5579E-01  0.5495E-01
     -3.676  0.2173E+00  0.2166E+00  0.6987E-01  0.6898E-01
     -3.611  0.2221E+00  0.2217E+00  0.8428E-01  0.8336E-01
     -3.546  0.2350E+00  0.2342E+00  0.9951E-01  0.9854E-01
     -3.481  0.2370E+00  0.2371E+00  0.1149E+00  0.1139E+00
     -3.416  0.2564E+00  0.2538E+00  0.1315E+00  0.1304E+00
     -3.352  0.2988E+00  0.2968E+00  0.1509E+00  0.1496E+00
     -3.287  0.3104E+00  0.3104E+00  0.1710E+00  0.1697E+00
     -3.222  0.3023E+00  0.3034E+00  0.1906E+00  0.1894E+00
     -3.157  0.2771E+00  0.2785E+00  0.2086E+00  0.2075E+00
     -3.092  0.2900E+00  0.2868E+00  0.2274E+00  0.2261E+00
     -3.028  0.3595E+00  0.3553E+00  0.2507E+00  0.2491E+00
     -2.963  0.3881E+00  0.3883E+00  0.2759E+00  0.2743E+00
     -2.898  0.3820E+00  0.3821E+00  0.3006E+00  0.2991E+00
     -2.833  0.3658E+00  0.3682E+00  0.3244E+00  0.3230E+00
     -2.768  0.3316E+00  0.3319E+00  0.3459E+00  0.3445E+00
     -2.704  0.3841E+00  0.3785E+00  0.3708E+00  0.3690E+00
     -2.639  0.4653E+00  0.4620E+00  0.4009E+00  0.3990E+00
     -2.574  0.4681E+00  0.4700E+00  0.4313E+00  0.4294E+00
     -2.509  0.4362E+00  0.4375E+00  0.4596E+00  0.4578E+00
     -2.444  0.4267E+00  0.4268E+00  0.4873E+00  0.4855E+00
     -2.379  0.4388E+00  0.4370E+00  0.5157E+00  0.5138E+00
     -2.315  0.4759E+00  0.4740E+00  0.5466E+00  0.5446E+00
     -2.250  0.4747E+00  0.4766E+00  0.5773E+00  0.5755E+00
     -2.185  0.4110E+00  0.4167E+00  0.6040E+00  0.6025E+00
     -2.120  0.3298E+00  0.3334E+00  0.6254E+00  0.6241E+00
     -2.055  0.3212E+00  0.3192E+00  0.6462E+00  0.6448E+00
     -1.991  0.3856E+00  0.3805E+00  0.6712E+00  0.6695E+00
     -1.926  0.4402E+00  0.4392E+00  0.6998E+00  0.6980E+00
     -1.861  0.4246E+00  0.4263E+00  0.7273E+00  0.7256E+00
     -1.796  0.4151E+00  0.4155E+00  0.7542E+00  0.7526E+00
     -1.731  0.4072E+00  0.4081E+00  0.7806E+00  0.7790E+00
     -1.667  0.4305E+00  0.4266E+00  0.8086E+00  0.8067E+00
     -1.602  0.5148E+00  0.5098E+00  0.8419E+00  0.8397E+00
     -1.537  0.5328E+00  0.5350E+00  0.8765E+00  0.8744E+00
     -1.472  0.4768E+00  0.4800E+00  0.9074E+00  0.9056E+00
     -1.407  0.4498E+00  0.4511E+00  0.9366E+00  0.9348E+00
     -1.343  0.4266E+00  0.4275E+00  0.9642E+00  0.9625E+00
     -1.278  0.4507E+00  0.4473E+00  0.9934E+00  0.9915E+00
     -1.213  0.5234E+00  0.5184E+00  0.1027E+01  0.1025E+01
     -1.148  0.5959E+00  0.5930E+00  0.1066E+01  0.1064E+01
     -1.083  0.6115E+00  0.6127E+00  0.1106E+01  0.1103E+01
     -1.019  0.5730E+00  0.5762E+00  0.1143E+01  0.1141E+01
     -0.954  0.5378E+00  0.5383E+00  0.1178E+01  0.1176E+01
     -0.889  0.5649E+00  0.5618E+00  0.1214E+01  0.1212E+01
     -0.824  0.6217E+00  0.6197E+00  0.1255E+01  0.1252E+01
     -0.759  0.6062E+00  0.6101E+00  0.1294E+01  0.1292E+01
     -0.694  0.5249E+00  0.5294E+00  0.1328E+01  0.1326E+01
     -0.630  0.4948E+00  0.4936E+00  0.1360E+01  0.1358E+01
     -0.565  0.5823E+00  0.5738E+00  0.1398E+01  0.1395E+01
     -0.500  0.7311E+00  0.7232E+00  0.1445E+01  0.1442E+01
     -0.435  0.7928E+00  0.7933E+00  0.1497E+01  0.1494E+01
     -0.370  0.7224E+00  0.7287E+00  0.1544E+01  0.1541E+01
     -0.306  0.6279E+00  0.6319E+00  0.1584E+01  0.1582E+01
     -0.241  0.6245E+00  0.6215E+00  0.1625E+01  0.1622E+01
     -0.176  0.6667E+00  0.6666E+00  0.1668E+01  0.1665E+01
     -0.111  0.6132E+00  0.6175E+00  0.1708E+01  0.1705E+01
     -0.046  0.5801E+00  0.5797E+00  0.1745E+01  0.1743E+01
      0.018  0.5891E+00  0.5902E+00  0.1784E+01  0.1781E+01
      0.083  0.5390E+00  0.5421E+00  0.1819E+01  0.1817E+01
      0.148  0.5258E+00  0.5242E+00  0.1853E+01  0.1851E+01
      0.213  0.5589E+00  0.5571E+00  0.1889E+01  0.1887E+01
      0.278  0.5995E+00  0.5961E+00  0.1928E+01  0.1925E+01
      0.342  0.6582E+00  0.6557E+00  0.1971E+01  0.1968E+01
      0.407  0.6651E+00  0.6659E+00  0.2014E+01  0.2011E+01
      0.472  0.6778E+00  0.6752E+00  0.2058E+01  0.2055E+01
      0.537  0.7415E+00  0.7377E+00  0.2106E+01  0.2103E+01
      0.602  0.7503E+00  0.7541E+00  0.2154E+01  0.2152E+01
      0.666  0.6413E+00  0.6493E+00  0.2196E+01  0.2194E+01
      0.731  0.5539E+00  0.5570E+00  0.2232E+01  0.2230E+01
      0.796  0.5439E+00  0.5422E+00  0.2267E+01  0.2265E+01
      0.861  0.6185E+00  0.6116E+00  0.2307E+01  0.2305E+01
      0.926  0.7043E+00  0.7020E+00  0.2353E+01  0.2350E+01
      0.991  0.6800E+00  0.6831E+00  0.2397E+01  0.2394E+01
      1.055  0.6418E+00  0.6437E+00  0.2439E+01  0.2436E+01
      1.120  0.6399E+00  0.6386E+00  0.2480E+01  0.2478E+01
      1.185  0.6966E+00  0.6930E+00  0.2525E+01  0.2523E+01
      1.250  0.7179E+00  0.7197E+00  0.2572E+01  0.2569E+01
      1.315  0.6689E+00  0.6717E+00  0.2615E+01  0.2613E+01
      1.379  0.6293E+00  0.6320E+00  0.2656E+01  0.2654E+01
      1.444  0.5826E+00  0.5831E+00  0.2694E+01  0.2692E+01
      1.509  0.6309E+00  0.6253E+00  0.2735E+01  0.2732E+01
      1.574  0.7158E+00  0.7126E+00  0.2781E+01  0.2778E+01
      1.639  0.7201E+00  0.7208E+00  0.2828E+01  0.2825E+01
      1.703  0.7391E+00  0.7354E+00  0.2876E+01  0.2873E+01
      1.768  0.8290E+00  0.8230E+00  0.2930E+01  0.2926E+01
      1.833  0.9034E+00  0.9024E+00  0.2988E+01  0.2985E+01
      1.898  0.8557E+00  0.8622E+00  0.3044E+01  0.3041E+01
      1.963  0.7515E+00  0.7551E+00  0.3092E+01  0.3090E+01
      2.027  0.7760E+00  0.7711E+00  0.3143E+01  0.3140E+01
      2.092  0.8026E+00  0.8051E+00  0.3195E+01  0.3192E+01
      2.157  0.7195E+00  0.7241E+00  0.3241E+01  0.3239E+01
      2.222  0.7036E+00  0.7025E+00  0.3287E+01  0.3284E+01
      2.287  0.7358E+00  0.7332E+00  0.3335E+01  0.3332E+01
      2.351  0.7912E+00  0.7874E+00  0.3386E+01  0.3383E+01
      2.416  0.8442E+00  0.8407E+00  0.3441E+01  0.3437E+01
      2.481  0.9026E+00  0.8985E+00  0.3499E+01  0.3496E+01
      2.546  0.9500E+00  0.9495E+00  0.3561E+01  0.3557E+01
      2.611  0.9286E+00  0.9316E+00  0.3621E+01  0.3618E+01
      2.676  0.9070E+00  0.9076E+00  0.3680E+01  0.3677E+01
      2.740  0.9096E+00  0.9100E+00  0.3739E+01  0.3736E+01
      2.805  0.8821E+00  0.8861E+00  0.3796E+01  0.3793E+01
      2.870  0.7482E+00  0.7581E+00  0.3845E+01  0.3842E+01
      2.935  0.6368E+00  0.6376E+00  0.3886E+01  0.3884E+01
      3.000  0.7335E+00  0.7233E+00  0.3934E+01  0.3930E+01
      3.064  0.8885E+00  0.8823E+00  0.3991E+01  0.3988E+01
      3.129  0.9322E+00  0.9317E+00  0.4052E+01  0.4048E+01
      3.194  0.9779E+00  0.9742E+00  0.4115E+01  0.4111E+01
      3.259  0.1017E+01  0.1017E+01  0.4181E+01  0.4177E+01
      3.324  0.1006E+01  0.1008E+01  0.4246E+01  0.4243E+01
      3.388  0.9080E+00  0.9170E+00  0.4305E+01  0.4302E+01
      3.453  0.7624E+00  0.7688E+00  0.4355E+01  0.4352E+01
      3.518  0.7525E+00  0.7492E+00  0.4403E+01  0.4400E+01
      3.583  0.8151E+00  0.8130E+00  0.4456E+01  0.4453E+01
      3.648  0.8027E+00  0.8040E+00  0.4508E+01  0.4505E+01
      3.712  0.7983E+00  0.7954E+00  0.4560E+01  0.4557E+01
      3.777  0.8733E+00  0.8683E+00  0.4617E+01  0.4613E+01
      3.842  0.9533E+00  0.9494E+00  0.4679E+01  0.4675E+01
      3.907  0.1045E+01  0.1040E+01  0.4746E+01  0.4742E+01
      3.972  0.1097E+01  0.1097E+01  0.4817E+01  0.4813E+01
      4.036  0.9941E+00  0.1004E+01  0.4882E+01  0.4878E+01
      4.101  0.7845E+00  0.7957E+00  0.4933E+01  0.4930E+01
      4.166  0.6724E+00  0.6731E+00  0.4976E+01  0.4974E+01
      4.231  0.7258E+00  0.7202E+00  0.5023E+01  0.5020E+01
      4.296  0.7946E+00  0.7927E+00  0.5075E+01  0.5072E+01
      4.361  0.8281E+00  0.8259E+00  0.5129E+01  0.5125E+01
      4.425  0.9025E+00  0.8984E+00  0.5187E+01  0.5184E+01
      4.490  0.9035E+00  0.9069E+00  0.5246E+01  0.5243E+01
      4.555  0.8524E+00  0.8524E+00  0.5301E+01  0.5298E+01
      4.620  0.9476E+00  0.9396E+00  0.5363E+01  0.5359E+01
      4.685  0.1042E+01  0.1041E+01  0.5430E+01  0.5426E+01
      4.749  0.9989E+00  0.1002E+01  0.5495E+01  0.5491E+01
      4.814  0.9392E+00  0.9419E+00  0.5556E+01  0.5552E+01
      4.879  0.8986E+00  0.8996E+00  0.5614E+01  0.5611E+01
      4.944  0.9013E+00  0.8997E+00  0.5673E+01  0.5669E+01
      5.009  0.9169E+00  0.9177E+00  0.5732E+01  0.5729E+01
      5.073  0.8984E+00  0.8996E+00  0.5790E+01  0.5787E+01
      5.138  0.9004E+00  0.9000E+00  0.5849E+01  0.5845E+01
      5.203  0.9146E+00  0.9130E+00  0.5908E+01  0.5904E+01
      5.268  0.9494E+00  0.9460E+00  0.5970E+01  0.5966E+01
      5.333  0.9942E+00  0.9930E+00  0.6034E+01  0.6030E+01
      5.397  0.9866E+00  0.9876E+00  0.6098E+01  0.6094E+01
      5.462  0.9859E+00  0.9837E+00  0.6162E+01  0.6158E+01
      5.527  0.1039E+01  0.1036E+01  0.6229E+01  0.6225E+01
      5.592  0.1074E+01  0.1073E+01  0.6299E+01  0.6295E+01
      5.657  0.1064E+01  0.1066E+01  0.6368E+01  0.6364E+01
      5.721  0.1055E+01  0.1055E+01  0.6436E+01  0.6432E+01
      5.786  0.1076E+01  0.1074E+01  0.6506E+01  0.6502E+01
      5.851  0.1019E+01  0.1026E+01  0.6572E+01  0.6569E+01
      5.916  0.8600E+00  0.8675E+00  0.6628E+01  0.6625E+01
      5.981  0.8342E+00  0.8309E+00  0.6682E+01  0.6679E+01
      6.046  0.8971E+00  0.8947E+00  0.6740E+01  0.6737E+01
      6.110  0.9207E+00  0.9173E+00  0.6800E+01  0.6796E+01
      6.175  0.1041E+01  0.1029E+01  0.6868E+01  0.6863E+01
      6.240  0.1215E+01  0.1210E+01  0.6946E+01  0.6941E+01
      6.305  0.1193E+01  0.1202E+01  0.7024E+01  0.7019E+01
      6.370  0.1047E+01  0.1056E+01  0.7092E+01  0.7088E+01
      6.434  0.9746E+00  0.9749E+00  0.7155E+01  0.7151E+01
      6.499  0.1018E+01  0.1011E+01  0.7221E+01  0.7217E+01
      6.564  0.1173E+01  0.1164E+01  0.7297E+01  0.7292E+01
      6.629  0.1183E+01  0.1191E+01  0.7374E+01  0.7369E+01
      6.694  0.9592E+00  0.9752E+00  0.7436E+01  0.7433E+01
      6.758  0.7221E+00  0.7331E+00  0.7483E+01  0.7480E+01
      6.823  0.6676E+00  0.6622E+00  0.7526E+01  0.7523E+01
      6.888  0.8644E+00  0.8486E+00  0.7582E+01  0.7578E+01
      6.953  0.1054E+01  0.1047E+01  0.7650E+01  0.7646E+01
      7.018  0.1090E+01  0.1091E+01  0.7721E+01  0.7717E+01
      7.082  0.1107E+01  0.1105E+01  0.7793E+01  0.7789E+01
      7.147  0.1212E+01  0.1205E+01  0.7872E+01  0.7867E+01
      7.212  0.1291E+01  0.1289E+01  0.7955E+01  0.7950E+01
      7.277  0.1233E+01  0.1236E+01  0.8035E+01  0.8030E+01
      7.342  0.1168E+01  0.1168E+01  0.8111E+01  0.8106E+01
      7.406  0.1175E+01  0.1175E+01  0.8187E+01  0.8182E+01
      7.471  0.1126E+01  0.1134E+01  0.8260E+01  0.8256E+01
      7.536  0.9864E+00  0.9957E+00  0.8324E+01  0.8320E+01
      7.601  0.8952E+00  0.8955E+00  0.8382E+01  0.8379E+01
      7.666  0.1027E+01  0.1011E+01  0.8449E+01  0.8444E+01
      7.731  0.1288E+01  0.1277E+01  0.8532E+01  0.8527E+01
      7.795  0.1309E+01  0.1315E+01  0.8617E+01  0.8612E+01
      7.860  0.1165E+01  0.1174E+01  0.8693E+01  0.8688E+01
      7.925  0.1052E+01  0.1056E+01  0.8761E+01  0.8757E+01
      7.990  0.1047E+01  0.1044E+01  0.8829E+01  0.8825E+01
      8.055  0.1126E+01  0.1118E+01  0.8902E+01  0.8897E+01
      8.119  0.1250E+01  0.1244E+01  0.8983E+01  0.8978E+01
      8.184  0.1251E+01  0.1257E+01  0.9064E+01  0.9059E+01
      8.249  0.1141E+01  0.1147E+01  0.9138E+01  0.9134E+01
      8.314  0.1047E+01  0.1053E+01  0.9206E+01  0.9202E+01
      8.379  0.9409E+00  0.9463E+00  0.9267E+01  0.9263E+01
      8.443  0.9499E+00  0.9428E+00  0.9329E+01  0.9325E+01
      8.508  0.1140E+01  0.1127E+01  0.9403E+01  0.9398E+01
      8.573  0.1325E+01  0.1315E+01  0.9488E+01  0.9483E+01
      8.638  0.1439E+01  0.1434E+01  0.9582E+01  0.9576E+01
      8.703  0.1413E+01  0.1419E+01  0.9673E+01  0.9668E+01
      8.767  0.1293E+01  0.1302E+01  0.9757E+01  0.9752E+01
      8.832  0.1190E+01  0.1196E+01  0.9834E+01  0.9830E+01
      8.897  0.1136E+01  0.1137E+01  0.9908E+01  0.9904E+01
      8.962  0.1137E+01  0.1134E+01  0.9982E+01  0.9977E+01
      9.027  0.1176E+01  0.1173E+01  0.1006E+02  0.1005E+02
      9.091  0.1154E+01  0.1160E+01  0.1013E+02  0.1013E+02
      9.156  0.1049E+01  0.1052E+01  0.1020E+02  0.1020E+02
      9.221  0.1155E+01  0.1142E+01  0.1028E+02  0.1027E+02
      9.286  0.1415E+01  0.1403E+01  0.1037E+02  0.1036E+02
      9.351  0.1537E+01  0.1536E+01  0.1047E+02  0.1046E+02
      9.416  0.1385E+01  0.1401E+01  0.1056E+02  0.1055E+02
      9.480  0.1086E+01  0.1101E+01  0.1063E+02  0.1062E+02
      9.545  0.8832E+00  0.8925E+00  0.1068E+02  0.1068E+02
      9.610  0.7833E+00  0.7825E+00  0.1074E+02  0.1073E+02
      9.675  0.9321E+00  0.9150E+00  0.1080E+02  0.1079E+02
      9.740  0.1195E+01  0.1183E+01  0.1087E+02  0.1087E+02
      9.804  0.1206E+01  0.1213E+01  0.1095E+02  0.1095E+02
      9.869  0.1053E+01  0.1062E+01  0.1102E+02  0.1102E+02
      9.934  0.9324E+00  0.9396E+00  0.1108E+02  0.1108E+02
      9.999  0.8599E+00  0.8622E+00  0.1114E+02  0.1113E+02
     10.064  0.8182E+00  0.8225E+00  0.1119E+02  0.1119E+02
     10.128  0.7930E+00  0.8025E+00  0.1124E+02  0.1124E+02
     10.193  0.7996E+00  0.8084E+00  0.1129E+02  0.1129E+02
     10.258  0.7183E+00  0.7274E+00  0.1134E+02  0.1134E+02
     10.323  0.5840E+00  0.5914E+00  0.1138E+02  0.1138E+02
     10.388  0.5109E+00  0.5102E+00  0.1141E+02  0.1141E+02
     10.452  0.4268E+00  0.4250E+00  0.1144E+02  0.1144E+02
     10.517  0.3654E+00  0.3631E+00  0.1146E+02  0.1146E+02
     10.582  0.3828E+00  0.3793E+00  0.1149E+02  0.1149E+02
     10.647  0.4064E+00  0.4069E+00  0.1151E+02  0.1151E+02
     10.712  0.3404E+00  0.3464E+00  0.1154E+02  0.1153E+02
     10.776  0.2650E+00  0.2666E+00  0.1155E+02  0.1155E+02
     10.841  0.3116E+00  0.3069E+00  0.1157E+02  0.1157E+02
     10.906  0.4018E+00  0.4009E+00  0.1160E+02  0.1160E+02
     10.971  0.4333E+00  0.4410E+00  0.1163E+02  0.1163E+02
     11.036  0.4137E+00  0.4233E+00  0.1165E+02  0.1165E+02
     11.101  0.3695E+00  0.3625E+00  0.1168E+02  0.1168E+02
     11.165  0.3015E+00  0.2877E+00  0.1170E+02  0.1170E+02
     11.230  0.2260E+00  0.2289E+00  0.1171E+02  0.1171E+02
     11.295  0.2172E+00  0.2217E+00  0.1173E+02  0.1172E+02
     11.360  0.2476E+00  0.2477E+00  0.1174E+02  0.1174E+02
     11.425  0.2921E+00  0.2894E+00  0.1176E+02  0.1176E+02
     11.489  0.3178E+00  0.3190E+00  0.1178E+02  0.1178E+02
     11.554  0.2518E+00  0.2577E+00  0.1180E+02  0.1180E+02
     11.619  0.1950E+00  0.1956E+00  0.1181E+02  0.1181E+02
     11.684  0.2192E+00  0.2172E+00  0.1182E+02  0.1182E+02
     11.749  0.2086E+00  0.2122E+00  0.1184E+02  0.1184E+02
     11.813  0.1392E+00  0.1436E+00  0.1185E+02  0.1185E+02
     11.878  0.1035E+00  0.1052E+00  0.1185E+02  0.1185E+02
     11.943  0.9920E-01  0.9971E-01  0.1186E+02  0.1186E+02
     12.008  0.1240E+00  0.1225E+00  0.1187E+02  0.1187E+02
     12.073  0.1677E+00  0.1651E+00  0.1188E+02  0.1188E+02
     12.137  0.1926E+00  0.1907E+00  0.1189E+02  0.1189E+02
     12.202  0.1893E+00  0.1890E+00  0.1190E+02  0.1190E+02
     12.267  0.1590E+00  0.1614E+00  0.1191E+02  0.1191E+02
     12.332  0.1111E+00  0.1142E+00  0.1192E+02  0.1192E+02
     12.397  0.6174E-01  0.6433E-01  0.1193E+02  0.1193E+02
     12.461  0.3358E-01  0.3392E-01  0.1193E+02  0.1193E+02
     12.526  0.4143E-01  0.3862E-01  0.1193E+02  0.1193E+02
     12.591  0.7677E-01  0.7051E-01  0.1194E+02  0.1193E+02
     12.656  0.1092E+00  0.9865E-01  0.1194E+02  0.1194E+02
     12.721  0.1372E+00  0.1171E+00  0.1195E+02  0.1195E+02
     12.786  0.1526E+00  0.1316E+00  0.1196E+02  0.1196E+02
     12.850  0.1221E+00  0.1284E+00  0.1197E+02  0.1197E+02
     12.915  0.7426E-01  0.1007E+00  0.1197E+02  0.1197E+02
     12.980  0.5825E-01  0.7541E-01  0.1198E+02  0.1198E+02
     13.045  0.6175E-01  0.6849E-01  0.1198E+02  0.1198E+02
     13.110  0.4816E-01  0.5095E-01  0.1198E+02  0.1198E+02
     13.174  0.3961E-01  0.3948E-01  0.1199E+02  0.1199E+02
     13.239  0.4544E-01  0.4456E-01  0.1199E+02  0.1199E+02
     13.304  0.4190E-01  0.4176E-01  0.1199E+02  0.1199E+02
     13.369  0.3112E-01  0.3211E-01  0.1200E+02  0.1199E+02
     13.434  0.2089E-01  0.2241E-01  0.1200E+02  0.1200E+02
     13.498  0.1929E-01  0.1978E-01  0.1200E+02  0.1200E+02
     13.563  0.1888E-01  0.1942E-01  0.1200E+02  0.1200E+02
     13.628  0.1083E-01  0.1157E-01  0.1200E+02  0.1200E+02
     13.693  0.3985E-02  0.4360E-02  0.1200E+02  0.1200E+02
     13.758  0.1168E-02  0.1285E-02  0.1200E+02  0.1200E+02
     13.822  0.3284E-03  0.3622E-03  0.1200E+02  0.1200E+02
     13.887  0.9053E-04  0.9991E-04  0.1200E+02  0.1200E+02
     13.952  0.0000E+00  0.0000E+00  0.1200E+02  0.1200E+02
     14.017  0.0000E+00  0.0000E+00  0.1200E+02  0.1200E+02
     14.082  0.0000E+00  0.0000E+00  0.1200E+02  0.1200E+02
     14.146  0.0000E+00  0.0000E+00  0.1200E+02  0.1200E+02
     14.211  0.0000E+00  0.0000E+00  0.1200E+02  0.1200E+02
     14.276  0.0000E+00  0.0000E+00  0.1200E+02  0.1200E+02
     14.341  0.0000E+00  0.0000E+00  0.1200E+02  0.1200E+02
     14.406  0.0000E+00  0.0000E+00  0.1200E+02  0.1200E+02
     14.40570547     -5.03660255  301      4.75653703      1.00000000
     -5.037  0.0000E+00  0.0000E+00  0.0000E+00  0.0000E+00  0.0000E+00  0.0000E+00  0.0000E+00  0.0000E+00  0.0000E+00  0.0000E+00  0.0000E+00  0.0000E+00  0.0000E+00  0.0000E+00  0.0000E+00  0.0000E+00  0.0000E+00  0.0000E+00
     -4.972  0.0000E+00  0.0000E+00  0.0000E+00  0.0000E+00  0.0000E+00  0.0000E+00  0.0000E+00  0.0000E+00  0.0000E+00  0.0000E+00  0.0000E+00  0.0000E+00  0.0000E+00  0.0000E+00  0.0000E+00  0.0000E+00  0.0000E+00  0.0000E+00
     -4.907  0.0000E+00  0.0000E+00  0.0000E+00  0.0000E+00  0.0000E+00  0.0000E+00  0.0000E+00  0.0000E+00  0.0000E+00  0.0000E+00  0.0000E+00  0.0000E+00  0.0000E+00  0.0000E+00  0.0000E+00  0.0000E+00  0.0000E+00  0.0000E+00
     -4.842  0.0000E+00  0.0000E+00  0.0000E+00  0.0000E+00  0.0000E+00  0.0000E+00  0.0000E+00  0.0000E+00  0.0000E+00  0.0000E+00  0.0000E+00  0.0000E+00  0.0000E+00  0.0000E+00  0.0000E+00  0.0000E+00  0.0000E+00  0.0000E+00
     -4.777  0.0000E+00  0.0000E+00  0.0000E+00  0.0000E+00  0.0000E+00  0.0000E+00  0.0000E+00  0.0000E+00  0.0000E+00  0.0000E+00  0.0000E+00  0.0000E+00  0.0000E+00  0.0000E+00  0.0000E+00  0.0000E+00  0.0000E+00  0.0000E+00
     -4.713  0.0000E+00  0.0000E+00  0.0000E+00  0.0000E+00  0.0000E+00  0.0000E+00  0.0000E+00  0.0000E+00  0.0000E+00  0.0000E+00  0.0000E+00  0.0000E+00  0.0000E+00  0.0000E+00  0.0000E+00  0.0000E+00  0.0000E+00  0.0000E+00
     -4.648  0.0000E+00  0.0000E+00  0.0000E+00  0.0000E+00  0.0000E+00  0.0000E+00  0.0000E+00  0.0000E+00  0.0000E+00  0.0000E+00  0.0000E+00  0.0000E+00  0.0000E+00  0.0000E+00  0.0000E+00  0.0000E+00  0.0000E+00  0.0000E+00
     -4.583  0.3521E-07  0.3247E-07  0.3156E-22  0.1496E-21  0.3156E-22  0.1496E-21  0.7438E-23  0.4718E-20  0.3568E-22  0.4233E-21  0.7465E-22  0.8034E-21  0.2261E-19  0.1749E-19  0.3568E-22  0.4233E-21  0.2858E-19  0.2222E-19
     -4.518  0.6716E-06  0.6194E-06  0.1562E-08  0.1441E-08  0.1562E-08  0.1441E-08  0.1562E-08  0.1442E-08  0.1502E-11  0.1387E-11  0.1502E-11  0.1387E-11  0.7277E-12  0.6712E-12  0.1502E-11  0.1387E-11  0.7452E-12  0.6874E-12
     -4.453  0.2136E-05  0.1970E-05  0.5609E-08  0.5177E-08  0.5609E-08  0.5177E-08  0.5610E-08  0.5178E-08  0.8556E-11  0.7896E-11  0.8552E-11  0.7893E-11  0.1931E-11  0.1781E-11  0.8556E-11  0.7896E-11  0.1977E-11  0.1824E-11
     -4.389  0.8303E-05  0.7660E-05  0.2594E-07  0.2395E-07  0.2594E-07  0.2395E-07  0.2594E-07  0.2394E-07  0.3833E-10  0.3537E-10  0.3833E-10  0.3537E-10  0.2000E-10  0.1843E-10  0.3833E-10  0.3537E-10  0.2297E-10  0.2117E-10
     -4.324  0.2997E-04  0.2767E-04  0.9583E-07  0.8850E-07  0.9583E-07  0.8850E-07  0.9581E-07  0.8848E-07  0.1678E-09  0.1549E-09  0.1678E-09  0.1549E-09  0.6742E-10  0.6216E-10  0.1678E-09  0.1549E-09  0.7759E-10  0.7154E-10
     -4.259  0.1050E-03  0.9720E-04  0.3392E-06  0.3137E-06  0.3392E-06  0.3137E-06  0.3391E-06  0.3136E-06  0.5912E-09  0.5460E-09  0.5911E-09  0.5459E-09  0.2411E-09  0.2225E-09  0.5912E-09  0.5460E-09  0.2745E-09  0.2533E-09
     -4.194  0.3403E-03  0.3176E-03  0.1178E-05  0.1094E-05  0.1178E-05  0.1094E-05  0.1177E-05  0.1094E-05  0.2177E-08  0.2015E-08  0.2176E-08  0.2014E-08  0.8638E-09  0.7995E-09  0.2177E-08  0.2015E-08  0.9849E-09  0.9116E-09
     -4.129  0.9055E-03  0.8589E-03  0.3621E-05  0.3397E-05  0.3621E-05  0.3397E-05  0.3620E-05  0.3397E-05  0.7257E-08  0.6757E-08  0.7256E-08  0.6756E-08  0.2905E-08  0.2705E-08  0.7257E-08  0.6757E-08  0.3339E-08  0.3107E-08
     -4.064  0.1766E-02  0.1710E-02  0.8974E-05  0.8543E-05  0.8974E-05  0.8543E-05  0.8972E-05  0.8541E-05  0.2090E-07  0.1967E-07  0.2090E-07  0.1967E-07  0.8373E-08  0.7851E-08  0.2090E-07  0.1967E-07  0.9755E-08  0.9135E-08
     -4.000  0.2606E-02  0.2555E-02  0.1823E-04  0.1753E-04  0.1823E-04  0.1753E-04  0.1823E-04  0.1752E-04  0.5139E-07  0.4879E-07  0.5138E-07  0.4878E-07  0.2169E-07  0.2053E-07  0.5139E-07  0.4879E-07  0.2570E-07  0.2431E-07
     -3.935  0.3436E-02  0.3385E-02  0.3201E-04  0.3109E-04  0.3201E-04  0.3109E-04  0.3201E-04  0.3109E-04  0.1108E-06  0.1061E-06  0.1108E-06  0.1061E-06  0.4461E-07  0.4297E-07  0.1108E-06  0.1061E-06  0.5286E-07  0.5095E-07
     -3.870  0.3968E-02  0.3952E-02  0.4597E-04  0.4520E-04  0.4597E-04  0.4520E-04  0.4596E-04  0.4519E-04  0.2000E-06  0.1936E-06  0.2000E-06  0.1936E-06  0.7160E-07  0.6962E-07  0.2000E-06  0.1936E-06  0.8345E-07  0.8125E-07
     -3.805  0.4145E-02  0.4122E-02  0.6116E-04  0.5994E-04  0.6116E-04  0.5994E-04  0.6112E-04  0.5991E-04  0.3242E-06  0.3148E-06  0.3241E-06  0.3148E-06  0.1197E-06  0.1153E-06  0.3242E-06  0.3148E-06  0.1379E-06  0.1327E-06
     -3.740  0.4829E-02  0.4777E-02  0.8742E-04  0.8569E-04  0.8742E-04  0.8569E-04  0.8737E-04  0.8564E-04  0.5072E-06  0.4949E-06  0.5071E-06  0.4949E-06  0.2155E-06  0.2085E-06  0.5072E-06  0.4949E-06  0.2531E-06  0.2444E-06
     -3.676  0.5338E-02  0.5324E-02  0.1112E-03  0.1101E-03  0.1112E-03  0.1101E-03  0.1112E-03  0.1101E-03  0.7176E-06  0.7027E-06  0.7176E-06  0.7027E-06  0.3094E-06  0.3048E-06  0.7176E-06  0.7027E-06  0.3694E-06  0.3639E-06
     -3.611  0.5373E-02  0.5365E-02  0.1288E-03  0.1276E-03  0.1288E-03  0.1276E-03  0.1288E-03  0.1276E-03  0.1039E-05  0.1014E-05  0.1039E-05  0.1014E-05  0.3587E-06  0.3554E-06  0.1039E-05  0.1014E-05  0.4206E-06  0.4175E-06
     -3.546  0.5588E-02  0.5573E-02  0.1530E-03  0.1516E-03  0.1530E-03  0.1516E-03  0.1530E-03  0.1516E-03  0.1456E-05  0.1433E-05  0.1456E-05  0.1433E-05  0.4389E-06  0.4318E-06  0.1456E-05  0.1433E-05  0.5040E-06  0.4958E-06
     -3.481  0.5528E-02  0.5535E-02  0.1720E-03  0.1709E-03  0.1720E-03  0.1709E-03  0.1719E-03  0.1707E-03  0.1700E-05  0.1687E-05  0.1699E-05  0.1687E-05  0.5913E-06  0.5780E-06  0.1700E-05  0.1687E-05  0.6948E-06  0.6778E-06
     -3.416  0.5833E-02  0.5780E-02  0.2094E-03  0.2061E-03  0.2094E-03  0.2061E-03  0.2092E-03  0.2059E-03  0.2108E-05  0.2068E-05  0.2109E-05  0.2067E-05  0.8809E-06  0.8592E-06  0.2108E-05  0.2068E-05  0.1057E-05  0.1030E-05
     -3.352  0.6675E-02  0.6634E-02  0.2639E-03  0.2612E-03  0.2639E-03  0.2612E-03  0.2638E-03  0.2612E-03  0.2929E-05  0.2875E-05  0.2930E-05  0.2876E-05  0.1173E-05  0.1160E-05  0.2929E-05  0.2875E-05  0.1387E-05  0.1374E-05
     -3.287  0.6824E-02  0.6829E-02  0.2920E-03  0.2910E-03  0.2920E-03  0.2910E-03  0.2920E-03  0.2910E-03  0.3718E-05  0.3673E-05  0.3717E-05  0.3673E-05  0.1287E-05  0.1283E-05  0.3718E-05  0.3673E-05  0.1492E-05  0.1488E-05
     -3.222  0.6527E-02  0.6555E-02  0.3029E-03  0.3030E-03  0.3029E-03  0.3030E-03  0.3030E-03  0.3031E-03  0.4386E-05  0.4351E-05  0.4383E-05  0.4349E-05  0.1302E-05  0.1304E-05  0.4386E-05  0.4351E-05  0.1508E-05  0.1510E-05
     -3.157  0.5845E-02  0.5882E-02  0.2981E-03  0.2980E-03  0.2981E-03  0.2980E-03  0.2980E-03  0.2980E-03  0.4805E-05  0.4780E-05  0.4803E-05  0.4778E-05  0.1268E-05  0.1263E-05  0.4805E-05  0.4780E-05  0.1478E-05  0.1471E-05
     -3.092  0.5882E-02  0.5831E-02  0.3440E-03  0.3384E-03  0.3440E-03  0.3384E-03  0.3432E-03  0.3377E-03  0.5649E-05  0.5564E-05  0.5653E-05  0.5568E-05  0.1675E-05  0.1630E-05  0.5649E-05  0.5564E-05  0.1965E-05  0.1911E-05
     -3.028  0.7045E-02  0.6972E-02  0.4585E-03  0.4518E-03  0.4585E-03  0.4518E-03  0.4577E-03  0.4510E-03  0.7350E-05  0.7243E-05  0.7353E-05  0.7246E-05  0.2536E-05  0.2486E-05  0.7350E-05  0.7243E-05  0.2985E-05  0.2925E-05
     -2.963  0.7418E-02  0.7430E-02  0.5190E-03  0.5180E-03  0.5190E-03  0.5180E-03  0.5190E-03  0.5179E-03  0.8655E-05  0.8591E-05  0.8651E-05  0.8587E-05  0.2960E-05  0.2953E-05  0.8655E-05  0.8591E-05  0.3510E-05  0.3501E-05
     -2.898  0.7108E-02  0.7119E-02  0.5358E-03  0.5346E-03  0.5358E-03  0.5346E-03  0.5358E-03  0.5346E-03  0.9923E-05  0.9831E-05  0.9922E-05  0.9829E-05  0.2986E-05  0.2983E-05  0.9923E-05  0.9831E-05  0.3561E-05  0.3557E-05
     -2.833  0.6618E-02  0.6673E-02  0.5365E-03  0.5386E-03  0.5365E-03  0.5386E-03  0.5367E-03  0.5390E-03  0.1083E-04  0.1081E-04  0.1083E-04  0.1081E-04  0.2950E-05  0.2963E-05  0.1083E-04  0.1081E-04  0.3491E-05  0.3511E-05
     -2.768  0.5747E-02  0.5770E-02  0.5158E-03  0.5141E-03  0.5158E-03  0.5141E-03  0.5156E-03  0.5139E-03  0.1150E-04  0.1138E-04  0.1151E-04  0.1138E-04  0.2727E-05  0.2729E-05  0.1150E-04  0.1138E-04  0.3134E-05  0.3144E-05
     -2.704  0.6230E-02  0.6166E-02  0.6438E-03  0.6316E-03  0.6438E-03  0.6316E-03  0.6418E-03  0.6297E-03  0.1527E-04  0.1497E-04  0.1528E-04  0.1498E-04  0.3128E-05  0.3084E-05  0.1527E-04  0.1497E-04  0.3517E-05  0.3467E-05
     -2.639  0.6959E-02  0.6947E-02  0.8365E-03  0.8271E-03  0.8365E-03  0.8271E-03  0.8343E-03  0.8248E-03  0.1904E-04  0.1890E-04  0.1904E-04  0.1889E-04  0.3819E-05  0.3789E-05  0.1904E-04  0.1890E-04  0.4348E-05  0.4308E-05
     -2.574  0.6368E-02  0.6431E-02  0.8995E-03  0.8998E-03  0.8995E-03  0.8998E-03  0.8988E-03  0.8990E-03  0.1959E-04  0.1960E-04  0.1957E-04  0.1958E-04  0.3896E-05  0.3911E-05  0.1959E-04  0.1960E-04  0.4515E-05  0.4528E-05
     -2.509  0.5402E-02  0.5448E-02  0.8864E-03  0.8864E-03  0.8864E-03  0.8864E-03  0.8861E-03  0.8862E-03  0.2012E-04  0.2002E-04  0.2012E-04  0.2002E-04  0.3661E-05  0.3671E-05  0.2012E-04  0.2002E-04  0.4296E-05  0.4307E-05
     -2.444  0.4914E-02  0.4927E-02  0.9011E-03  0.9003E-03  0.9011E-03  0.9003E-03  0.9015E-03  0.9006E-03  0.2264E-04  0.2241E-04  0.2266E-04  0.2243E-04  0.3604E-05  0.3609E-05  0.2264E-04  0.2241E-04  0.4196E-05  0.4208E-05
     -2.379  0.5115E-02  0.5080E-02  0.9249E-03  0.9221E-03  0.9249E-03  0.9221E-03  0.9260E-03  0.9233E-03  0.2820E-04  0.2773E-04  0.2823E-04  0.2776E-04  0.3608E-05  0.3604E-05  0.2820E-04  0.2773E-04  0.4020E-05  0.4029E-05
     -2.315  0.5582E-02  0.5571E-02  0.1002E-02  0.9974E-03  0.1002E-02  0.9974E-03  0.1002E-02  0.9971E-03  0.3560E-04  0.3520E-04  0.3562E-04  0.3522E-04  0.3789E-05  0.3781E-05  0.3560E-04  0.3520E-04  0.4111E-05  0.4103E-05
     -2.250  0.5194E-02  0.5240E-02  0.1028E-02  0.1031E-02  0.1028E-02  0.1031E-02  0.1029E-02  0.1031E-02  0.3863E-04  0.3859E-04  0.3861E-04  0.3857E-04  0.3722E-05  0.3743E-05  0.3863E-04  0.3859E-04  0.4088E-05  0.4108E-05
     -2.185  0.4228E-02  0.4299E-02  0.9108E-03  0.9224E-03  0.9108E-03  0.9224E-03  0.9129E-03  0.9245E-03  0.3633E-04  0.3660E-04  0.3627E-04  0.3654E-04  0.3166E-05  0.3217E-05  0.3633E-04  0.3660E-04  0.3494E-05  0.3550E-05
     -2.120  0.3208E-02  0.3256E-02  0.7446E-03  0.7518E-03  0.7446E-03  0.7518E-03  0.7460E-03  0.7533E-03  0.3270E-04  0.3277E-04  0.3267E-04  0.3273E-04  0.2463E-05  0.2497E-05  0.3270E-04  0.3277E-04  0.2722E-05  0.2759E-05
     -2.055  0.3063E-02  0.3039E-02  0.7309E-03  0.7268E-03  0.7309E-03  0.7268E-03  0.7312E-03  0.7272E-03  0.3646E-04  0.3594E-04  0.3650E-04  0.3598E-04  0.2445E-05  0.2420E-05  0.3646E-04  0.3594E-04  0.2665E-05  0.2643E-05
     -1.991  0.3833E-02  0.3776E-02  0.8690E-03  0.8578E-03  0.8690E-03  0.8578E-03  0.8680E-03  0.8569E-03  0.4818E-04  0.4733E-04  0.4827E-04  0.4743E-04  0.3511E-05  0.3412E-05  0.4818E-04  0.4733E-04  0.3762E-05  0.3654E-05
     -1.926  0.4460E-02  0.4440E-02  0.9885E-03  0.9870E-03  0.9885E-03  0.9870E-03  0.9879E-03  0.9862E-03  0.5688E-04  0.5671E-04  0.5689E-04  0.5672E-04  0.5955E-05  0.5760E-05  0.5688E-04  0.5671E-04  0.6728E-05  0.6479E-05
     -1.861  0.5005E-02  0.4949E-02  0.9175E-03  0.9253E-03  0.9175E-03  0.9253E-03  0.9185E-03  0.9263E-03  0.5351E-04  0.5390E-04  0.5340E-04  0.5380E-04  0.1117E-04  0.1074E-04  0.5351E-04  0.5390E-04  0.1355E-04  0.1299E-04
     -1.796  0.6599E-02  0.6488E-02  0.8087E-03  0.8154E-03  0.8087E-03  0.8154E-03  0.8102E-03  0.8168E-03  0.4742E-04  0.4779E-04  0.4731E-04  0.4768E-04  0.2033E-04  0.1976E-04  0.4742E-04  0.4779E-04  0.2546E-04  0.2471E-04