   4   4   1   0
  0.1335425E+02  0.3765273E-09  0.3766530E-09  0.3766530E-09  0.5000000E-15
  1.000000000000000E-004
  CAR 
 unknown system                          
     23.05251587     -3.92513295  301      9.21606218      1.00000000
     -3.925  0.0000E+00  0.0000E+00  0.0000E+00  0.0000E+00
     -3.835  0.0000E+00  0.0000E+00  0.0000E+00  0.0000E+00
     -3.745  0.0000E+00  0.0000E+00  0.0000E+00  0.0000E+00
     -3.655  0.0000E+00  0.0000E+00  0.0000E+00  0.0000E+00
     -3.565  0.0000E+00  0.0000E+00  0.0000E+00  0.0000E+00
     -3.476  0.0000E+00  0.0000E+00  0.0000E+00  0.0000E+00
     -3.386  0.0000E+00  0.0000E+00  0.0000E+00  0.0000E+00
     -3.296  0.0000E+00  0.0000E+00  0.0000E+00  0.0000E+00
     -3.206  0.0000E+00  0.0000E+00  0.0000E+00  0.0000E+00
     -3.116  0.3205E-05  0.3339E-05  0.2882E-06  0.3003E-06
     -3.026  0.2339E-04  0.2437E-04  0.2391E-05  0.2491E-05
     -2.936  0.1440E-03  0.1500E-03  0.1534E-04  0.1598E-04
     -2.846  0.8568E-03  0.8920E-03  0.9239E-04  0.9619E-04
     -2.756  0.4695E-02  0.4870E-02  0.5146E-03  0.5342E-03
     -2.666  0.1941E-01  0.1994E-01  0.2260E-02  0.2327E-02
     -2.576  0.4759E-01  0.4824E-01  0.6539E-02  0.6665E-02
     -2.486  0.6980E-01  0.7023E-01  0.1282E-01  0.1298E-01
     -2.396  0.9675E-01  0.9756E-01  0.2152E-01  0.2175E-01
     -2.306  0.1177E+00  0.1175E+00  0.3210E-01  0.3232E-01
     -2.217  0.1070E+00  0.1072E+00  0.4173E-01  0.4197E-01
     -2.127  0.1407E+00  0.1417E+00  0.5438E-01  0.5471E-01
     -2.037  0.1641E+00  0.1640E+00  0.6914E-01  0.6947E-01
     -1.947  0.1545E+00  0.1545E+00  0.8304E-01  0.8337E-01
     -1.857  0.1738E+00  0.1744E+00  0.9868E-01  0.9906E-01
     -1.767  0.1659E+00  0.1651E+00  0.1136E+00  0.1139E+00
     -1.677  0.1698E+00  0.1712E+00  0.1289E+00  0.1293E+00
     -1.587  0.2280E+00  0.2287E+00  0.1494E+00  0.1499E+00
     -1.497  0.2280E+00  0.2278E+00  0.1699E+00  0.1704E+00
     -1.407  0.2268E+00  0.2266E+00  0.1904E+00  0.1908E+00
     -1.317  0.1894E+00  0.1882E+00  0.2074E+00  0.2077E+00
     -1.227  0.1802E+00  0.1815E+00  0.2236E+00  0.2241E+00
     -1.137  0.2686E+00  0.2707E+00  0.2478E+00  0.2485E+00
     -1.048  0.2953E+00  0.2944E+00  0.2744E+00  0.2749E+00
     -0.958  0.2721E+00  0.2727E+00  0.2989E+00  0.2995E+00
     -0.868  0.2817E+00  0.2804E+00  0.3242E+00  0.3247E+00
     -0.778  0.2052E+00  0.2043E+00  0.3427E+00  0.3431E+00
     -0.688  0.2540E+00  0.2566E+00  0.3655E+00  0.3662E+00
     -0.598  0.3476E+00  0.3489E+00  0.3968E+00  0.3976E+00
     -0.508  0.3459E+00  0.3449E+00  0.4279E+00  0.4286E+00
     -0.418  0.3026E+00  0.3021E+00  0.4552E+00  0.4558E+00
     -0.328  0.3009E+00  0.3012E+00  0.4822E+00  0.4829E+00
     -0.238  0.3188E+00  0.3195E+00  0.5109E+00  0.5117E+00
     -0.148  0.3536E+00  0.3542E+00  0.5428E+00  0.5436E+00
     -0.058  0.3554E+00  0.3552E+00  0.5747E+00  0.5755E+00
      0.032  0.3212E+00  0.3191E+00  0.6037E+00  0.6043E+00
      0.122  0.2152E+00  0.2135E+00  0.6230E+00  0.6235E+00
      0.211  0.2133E+00  0.2143E+00  0.6422E+00  0.6428E+00
      0.301  0.2813E+00  0.2836E+00  0.6676E+00  0.6683E+00
      0.391  0.3528E+00  0.3534E+00  0.6993E+00  0.7001E+00
      0.481  0.3486E+00  0.3482E+00  0.7307E+00  0.7314E+00
      0.571  0.3474E+00  0.3470E+00  0.7620E+00  0.7627E+00
      0.661  0.3059E+00  0.3048E+00  0.7895E+00  0.7901E+00
      0.751  0.3102E+00  0.3110E+00  0.8174E+00  0.8181E+00
      0.841  0.3535E+00  0.3555E+00  0.8492E+00  0.8501E+00
      0.931  0.4198E+00  0.4201E+00  0.8870E+00  0.8879E+00
      1.021  0.3699E+00  0.3678E+00  0.9203E+00  0.9210E+00
      1.111  0.3065E+00  0.3056E+00  0.9479E+00  0.9485E+00
      1.201  0.2919E+00  0.2925E+00  0.9742E+00  0.9748E+00
      1.291  0.3411E+00  0.3424E+00  0.1005E+01  0.1006E+01
      1.380  0.4228E+00  0.4254E+00  0.1043E+01  0.1044E+01
      1.470  0.4977E+00  0.4979E+00  0.1088E+01  0.1089E+01
      1.560  0.4569E+00  0.4548E+00  0.1129E+01  0.1130E+01
      1.650  0.3563E+00  0.3545E+00  0.1161E+01  0.1162E+01
      1.740  0.3386E+00  0.3402E+00  0.1191E+01  0.1192E+01
      1.830  0.4397E+00  0.4417E+00  0.1231E+01  0.1232E+01
      1.920  0.4899E+00  0.4893E+00  0.1275E+01  0.1276E+01
      2.010  0.4141E+00  0.4116E+00  0.1312E+01  0.1313E+01
      2.100  0.3124E+00  0.3109E+00  0.1340E+01  0.1341E+01
      2.190  0.3098E+00  0.3114E+00  0.1368E+01  0.1369E+01
      2.280  0.4379E+00  0.4422E+00  0.1408E+01  0.1409E+01
      2.370  0.5937E+00  0.5960E+00  0.1461E+01  0.1462E+01
      2.460  0.5864E+00  0.5839E+00  0.1514E+01  0.1515E+01
      2.550  0.4728E+00  0.4706E+00  0.1556E+01  0.1557E+01
      2.639  0.4132E+00  0.4131E+00  0.1594E+01  0.1595E+01
      2.729  0.4793E+00  0.4820E+00  0.1637E+01  0.1638E+01
      2.819  0.5577E+00  0.5581E+00  0.1687E+01  0.1688E+01
      2.909  0.4761E+00  0.4731E+00  0.1730E+01  0.1731E+01
      2.999  0.3949E+00  0.3944E+00  0.1765E+01  0.1766E+01
      3.089  0.3723E+00  0.3709E+00  0.1799E+01  0.1800E+01
      3.179  0.3316E+00  0.3324E+00  0.1829E+01  0.1830E+01
      3.269  0.4812E+00  0.4867E+00  0.1872E+01  0.1873E+01
      3.359  0.5737E+00  0.5725E+00  0.1924E+01  0.1925E+01
      3.449  0.5040E+00  0.5033E+00  0.1969E+01  0.1970E+01
      3.539  0.4978E+00  0.4976E+00  0.2014E+01  0.2015E+01
      3.629  0.5271E+00  0.5287E+00  0.2061E+01  0.2063E+01
      3.719  0.6132E+00  0.6156E+00  0.2116E+01  0.2118E+01
      3.808  0.6249E+00  0.6224E+00  0.2173E+01  0.2174E+01
      3.898  0.4691E+00  0.4656E+00  0.2215E+01  0.2216E+01
      3.988  0.3787E+00  0.3780E+00  0.2249E+01  0.2250E+01
      4.078  0.3863E+00  0.3881E+00  0.2284E+01  0.2285E+01
      4.168  0.4958E+00  0.4996E+00  0.2329E+01  0.2330E+01
      4.258  0.5944E+00  0.5953E+00  0.2382E+01  0.2383E+01
      4.348  0.6098E+00  0.6095E+00  0.2437E+01  0.2438E+01
      4.438  0.6147E+00  0.6148E+00  0.2492E+01  0.2494E+01
      4.528  0.6094E+00  0.6094E+00  0.2547E+01  0.2548E+01
      4.618  0.6075E+00  0.6083E+00  0.2602E+01  0.2603E+01
      4.708  0.6394E+00  0.6389E+00  0.2659E+01  0.2661E+01
      4.798  0.5603E+00  0.5577E+00  0.2710E+01  0.2711E+01
      4.888  0.4941E+00  0.4950E+00  0.2754E+01  0.2755E+01
      4.977  0.5439E+00  0.5448E+00  0.2803E+01  0.2804E+01
      5.067  0.5590E+00  0.5586E+00  0.2853E+01  0.2855E+01
      5.157  0.5891E+00  0.5890E+00  0.2906E+01  0.2908E+01
      5.247  0.6094E+00  0.6112E+00  0.2961E+01  0.2963E+01
      5.337  0.6827E+00  0.6845E+00  0.3023E+01  0.3024E+01
      5.427  0.7499E+00  0.7518E+00  0.3090E+01  0.3092E+01
      5.517  0.7153E+00  0.7117E+00  0.3155E+01  0.3156E+01
      5.607  0.4702E+00  0.4628E+00  0.3197E+01  0.3198E+01
      5.697  0.3189E+00  0.3182E+00  0.3226E+01  0.3226E+01
      5.787  0.4107E+00  0.4137E+00  0.3263E+01  0.3264E+01
      5.877  0.5401E+00  0.5447E+00  0.3311E+01  0.3313E+01
      5.967  0.6940E+00  0.6973E+00  0.3374E+01  0.3375E+01
      6.057  0.7192E+00  0.7169E+00  0.3438E+01  0.3440E+01
      6.147  0.6191E+00  0.6185E+00  0.3494E+01  0.3496E+01
      6.236  0.7062E+00  0.7108E+00  0.3558E+01  0.3560E+01
      6.326  0.8177E+00  0.8164E+00  0.3631E+01  0.3633E+01
      6.416  0.6964E+00  0.6930E+00  0.3694E+01  0.3695E+01
      6.506  0.5316E+00  0.5272E+00  0.3742E+01  0.3743E+01
      6.596  0.4588E+00  0.4599E+00  0.3783E+01  0.3784E+01
      6.686  0.6136E+00  0.6181E+00  0.3838E+01  0.3840E+01
      6.776  0.7375E+00  0.7386E+00  0.3905E+01  0.3906E+01
      6.866  0.6359E+00  0.6321E+00  0.3962E+01  0.3963E+01
      6.956  0.5446E+00  0.5457E+00  0.4011E+01  0.4012E+01
      7.046  0.6651E+00  0.6679E+00  0.4071E+01  0.4073E+01
      7.136  0.6710E+00  0.6684E+00  0.4131E+01  0.4133E+01
      7.226  0.6322E+00  0.6335E+00  0.4188E+01  0.4190E+01
      7.316  0.7320E+00  0.7336E+00  0.4254E+01  0.4256E+01
      7.405  0.7917E+00  0.7913E+00  0.4325E+01  0.4327E+01
      7.495  0.6864E+00  0.6819E+00  0.4387E+01  0.4388E+01
      7.585  0.4548E+00  0.4506E+00  0.4428E+01  0.4429E+01
      7.675  0.3748E+00  0.3749E+00  0.4462E+01  0.4463E+01
      7.765  0.4642E+00  0.4673E+00  0.4504E+01  0.4505E+01
      7.855  0.5813E+00  0.5849E+00  0.4556E+01  0.4558E+01
      7.945  0.6878E+00  0.6896E+00  0.4618E+01  0.4620E+01
      8.035  0.7599E+00  0.7613E+00  0.4686E+01  0.4688E+01
      8.125  0.7727E+00  0.7712E+00  0.4756E+01  0.4757E+01
      8.215  0.8036E+00  0.8058E+00  0.4828E+01  0.4830E+01
      8.305  0.8388E+00  0.8370E+00  0.4904E+01  0.4905E+01
      8.395  0.6716E+00  0.6683E+00  0.4964E+01  0.4965E+01
      8.485  0.6168E+00  0.6175E+00  0.5020E+01  0.5021E+01
      8.575  0.5836E+00  0.5795E+00  0.5072E+01  0.5073E+01
      8.664  0.4658E+00  0.4641E+00  0.5114E+01  0.5115E+01
      8.754  0.4957E+00  0.4991E+00  0.5159E+01  0.5160E+01
      8.844  0.7159E+00  0.7225E+00  0.5223E+01  0.5225E+01
      8.934  0.8563E+00  0.8569E+00  0.5300E+01  0.5302E+01
      9.024  0.8381E+00  0.8371E+00  0.5376E+01  0.5377E+01
      9.114  0.7358E+00  0.7323E+00  0.5442E+01  0.5443E+01
      9.204  0.5741E+00  0.5704E+00  0.5493E+01  0.5495E+01
      9.294  0.5074E+00  0.5077E+00  0.5539E+01  0.5540E+01
      9.384  0.5886E+00  0.5901E+00  0.5592E+01  0.5593E+01
      9.474  0.5927E+00  0.5931E+00  0.5645E+01  0.5647E+01
      9.564  0.7334E+00  0.7398E+00  0.5712E+01  0.5713E+01
      9.654  0.8473E+00  0.8454E+00  0.5788E+01  0.5790E+01
      9.744  0.5945E+00  0.5864E+00  0.5841E+01  0.5842E+01
      9.833  0.4127E+00  0.4128E+00  0.5878E+01  0.5879E+01
      9.923  0.5771E+00  0.5830E+00  0.5930E+01  0.5932E+01
     10.013  0.6445E+00  0.6400E+00  0.5988E+01  0.5990E+01
     10.103  0.5469E+00  0.5472E+00  0.6038E+01  0.6039E+01
     10.193  0.7511E+00  0.7560E+00  0.6105E+01  0.6107E+01
     10.283  0.7732E+00  0.7715E+00  0.6175E+01  0.6176E+01
     10.373  0.6305E+00  0.6290E+00  0.6231E+01  0.6233E+01
     10.463  0.6225E+00  0.6221E+00  0.6287E+01  0.6289E+01
     10.553  0.7325E+00  0.7345E+00  0.6353E+01  0.6355E+01
     10.643  0.8882E+00  0.8890E+00  0.6433E+01  0.6435E+01
     10.733  0.8373E+00  0.8347E+00  0.6509E+01  0.6510E+01
     10.823  0.7584E+00  0.7607E+00  0.6577E+01  0.6579E+01
     10.913  0.9356E+00  0.9378E+00  0.6661E+01  0.6663E+01
     11.002  0.9271E+00  0.9257E+00  0.6745E+01  0.6746E+01
     11.092  0.8142E+00  0.8134E+00  0.6818E+01  0.6819E+01
     11.182  0.7256E+00  0.7260E+00  0.6883E+01  0.6885E+01
     11.272  0.7646E+00  0.7632E+00  0.6952E+01  0.6953E+01
     11.362  0.6891E+00  0.6855E+00  0.7014E+01  0.7015E+01
     11.452  0.5811E+00  0.5792E+00  0.7066E+01  0.7067E+01
     11.542  0.5281E+00  0.5290E+00  0.7114E+01  0.7115E+01
     11.632  0.6694E+00  0.6738E+00  0.7174E+01  0.7176E+01
     11.722  0.8694E+00  0.8725E+00  0.7252E+01  0.7254E+01
     11.812  0.9170E+00  0.9154E+00  0.7335E+01  0.7337E+01
     11.902  0.7576E+00  0.7524E+00  0.7403E+01  0.7404E+01
     11.992  0.6048E+00  0.6043E+00  0.7458E+01  0.7459E+01
     12.082  0.6187E+00  0.6223E+00  0.7513E+01  0.7515E+01
     12.172  0.7436E+00  0.7457E+00  0.7580E+01  0.7582E+01
     12.261  0.9248E+00  0.9240E+00  0.7663E+01  0.7665E+01
     12.351  0.8234E+00  0.8204E+00  0.7738E+01  0.7739E+01
     12.441  0.7580E+00  0.7624E+00  0.7806E+01  0.7807E+01
     12.531  0.8630E+00  0.8614E+00  0.7883E+01  0.7885E+01
     12.621  0.7614E+00  0.7589E+00  0.7952E+01  0.7953E+01
     12.711  0.8139E+00  0.8162E+00  0.8025E+01  0.8027E+01
     12.801  0.7751E+00  0.7719E+00  0.8095E+01  0.8096E+01
     12.891  0.6199E+00  0.6192E+00  0.8151E+01  0.8152E+01
     12.981  0.6112E+00  0.6126E+00  0.8206E+01  0.8207E+01
     13.071  0.7325E+00  0.7351E+00  0.8272E+01  0.8273E+01
     13.161  0.8701E+00  0.8716E+00  0.8350E+01  0.8352E+01
     13.251  0.7767E+00  0.7735E+00  0.8420E+01  0.8421E+01
     13.341  0.7496E+00  0.7497E+00  0.8487E+01  0.8489E+01
     13.430  0.7673E+00  0.7645E+00  0.8556E+01  0.8558E+01
     13.520  0.8030E+00  0.8021E+00  0.8629E+01  0.8630E+01
     13.610  0.9283E+00  0.9332E+00  0.8712E+01  0.8714E+01
     13.700  0.8469E+00  0.8451E+00  0.8788E+01  0.8790E+01
     13.790  0.5568E+00  0.5530E+00  0.8839E+01  0.8840E+01
     13.880  0.5514E+00  0.5506E+00  0.8888E+01  0.8889E+01
     13.970  0.6980E+00  0.6999E+00  0.8951E+01  0.8952E+01
     14.060  0.7830E+00  0.7856E+00  0.9022E+01  0.9023E+01
     14.150  0.9151E+00  0.9182E+00  0.9104E+01  0.9106E+01
     14.240  0.9201E+00  0.9185E+00  0.9187E+01  0.9188E+01
     14.330  0.7044E+00  0.6974E+00  0.9250E+01  0.9251E+01
     14.420  0.5523E+00  0.5525E+00  0.9300E+01  0.9301E+01
     14.510  0.7056E+00  0.7133E+00  0.9363E+01  0.9365E+01
     14.600  0.9033E+00  0.8984E+00  0.9445E+01  0.9446E+01
     14.689  0.7963E+00  0.7921E+00  0.9516E+01  0.9517E+01
     14.779  0.8186E+00  0.8226E+00  0.9590E+01  0.9591E+01
     14.869  0.9607E+00  0.9582E+00  0.9677E+01  0.9677E+01
     14.959  0.1102E+01  0.1102E+01  0.9776E+01  0.9777E+01
     15.049  0.9046E+00  0.9052E+00  0.9857E+01  0.9858E+01
     15.139  0.7409E+00  0.7421E+00  0.9924E+01  0.9925E+01
     15.229  0.9359E+00  0.9324E+00  0.1001E+02  0.1001E+02
     15.319  0.8681E+00  0.8628E+00  0.1009E+02  0.1009E+02
     15.409  0.7312E+00  0.7311E+00  0.1015E+02  0.1015E+02
     15.499  0.5834E+00  0.5826E+00  0.1020E+02  0.1020E+02
     15.589  0.6273E+00  0.6283E+00  0.1026E+02  0.1026E+02
     15.679  0.7828E+00  0.7878E+00  0.1033E+02  0.1033E+02
     15.769  0.1068E+01  0.1071E+01  0.1043E+02  0.1043E+02
     15.858  0.9969E+00  0.9940E+00  0.1052E+02  0.1052E+02
     15.948  0.6915E+00  0.6910E+00  0.1058E+02  0.1058E+02
     16.038  0.5917E+00  0.5900E+00  0.1063E+02  0.1063E+02
     16.128  0.6261E+00  0.6125E+00  0.1069E+02  0.1069E+02
     16.218  0.8593E+00  0.8528E+00  0.1077E+02  0.1077E+02
     16.308  0.1136E+01  0.1139E+01  0.1087E+02  0.1087E+02
     16.398  0.1019E+01  0.1012E+01  0.1096E+02  0.1096E+02
     16.488  0.7181E+00  0.7264E+00  0.1103E+02  0.1102E+02
     16.578  0.6482E+00  0.6637E+00  0.1108E+02  0.1108E+02
     16.668  0.7387E+00  0.7406E+00  0.1115E+02  0.1115E+02
     16.758  0.7259E+00  0.7230E+00  0.1122E+02  0.1122E+02
     16.848  0.5846E+00  0.5820E+00  0.1127E+02  0.1127E+02
     16.938  0.5071E+00  0.5068E+00  0.1131E+02  0.1131E+02
     17.028  0.4472E+00  0.4503E+00  0.1135E+02  0.1135E+02
     17.117  0.4862E+00  0.4867E+00  0.1140E+02  0.1140E+02
     17.207  0.4196E+00  0.4173E+00  0.1144E+02  0.1144E+02
     17.297  0.3307E+00  0.3298E+00  0.1147E+02  0.1147E+02
     17.387  0.3437E+00  0.3395E+00  0.1150E+02  0.1150E+02
     17.477  0.3361E+00  0.3430E+00  0.1153E+02  0.1153E+02
     17.567  0.2450E+00  0.2455E+00  0.1155E+02  0.1155E+02
     17.657  0.2091E+00  0.2059E+00  0.1157E+02  0.1157E+02
     17.747  0.2355E+00  0.2358E+00  0.1159E+02  0.1159E+02
     17.837  0.2835E+00  0.2858E+00  0.1161E+02  0.1161E+02
     17.927  0.3345E+00  0.3355E+00  0.1164E+02  0.1164E+02
     18.017  0.3039E+00  0.3033E+00  0.1167E+02  0.1167E+02
     18.107  0.1855E+00  0.1826E+00  0.1169E+02  0.1169E+02
     18.197  0.6170E-01  0.6010E-01  0.1169E+02  0.1169E+02
     18.286  0.4848E-01  0.4760E-01  0.1170E+02  0.1170E+02
     18.376  0.1334E+00  0.1319E+00  0.1171E+02  0.1171E+02
     18.466  0.2133E+00  0.2072E+00  0.1173E+02  0.1173E+02
     18.556  0.2533E+00  0.2485E+00  0.1175E+02  0.1175E+02
     18.646  0.2363E+00  0.2449E+00  0.1177E+02  0.1177E+02
     18.736  0.1730E+00  0.1770E+00  0.1179E+02  0.1179E+02
     18.826  0.1393E+00  0.1404E+00  0.1180E+02  0.1180E+02
     18.916  0.9755E-01  0.9777E-01  0.1181E+02  0.1181E+02
     19.006  0.8294E-01  0.8303E-01  0.1182E+02  0.1182E+02
     19.096  0.1649E+00  0.1661E+00  0.1183E+02  0.1183E+02
     19.186  0.2599E+00  0.2600E+00  0.1186E+02  0.1186E+02
     19.276  0.1773E+00  0.1778E+00  0.1187E+02  0.1187E+02
     19.366  0.1467E+00  0.1505E+00  0.1189E+02  0.1189E+02
     19.455  0.1484E+00  0.1474E+00  0.1190E+02  0.1190E+02
     19.545  0.6060E-01  0.5671E-01  0.1190E+02  0.1190E+02
     19.635  0.1865E-01  0.1758E-01  0.1191E+02  0.1191E+02
     19.725  0.3129E-01  0.3157E-01  0.1191E+02  0.1191E+02
     19.815  0.7675E-01  0.7682E-01  0.1192E+02  0.1192E+02
     19.905  0.9576E-01  0.9525E-01  0.1192E+02  0.1192E+02
     19.995  0.6206E-01  0.6158E-01  0.1193E+02  0.1193E+02
     20.085  0.4118E-01  0.3984E-01  0.1193E+02  0.1193E+02
     20.175  0.8015E-01  0.7240E-01  0.1194E+02  0.1194E+02
     20.265  0.8908E-01  0.7205E-01  0.1195E+02  0.1195E+02
     20.355  0.4135E-01  0.3456E-01  0.1195E+02  0.1195E+02
     20.445  0.3180E-01  0.4633E-01  0.1196E+02  0.1195E+02
     20.535  0.6317E-01  0.1047E+00  0.1196E+02  0.1196E+02
     20.625  0.5471E-01  0.9142E-01  0.1197E+02  0.1197E+02
     20.714  0.3196E-01  0.3147E-01  0.1197E+02  0.1197E+02
     20.804  0.4429E-01  0.1385E-01  0.1197E+02  0.1198E+02
     20.894  0.5448E-01  0.3289E-01  0.1198E+02  0.1198E+02
     20.984  0.5663E-01  0.5085E-01  0.1198E+02  0.1198E+02
     21.074  0.2637E-01  0.2509E-01  0.1199E+02  0.1199E+02
     21.164  0.1459E-01  0.1441E-01  0.1199E+02  0.1199E+02
     21.254  0.3158E-01  0.3119E-01  0.1199E+02  0.1199E+02
     21.344  0.3960E-01  0.3730E-01  0.1199E+02  0.1199E+02
     21.434  0.2704E-01  0.2657E-01  0.1200E+02  0.1199E+02
     21.524  0.1135E-01  0.1240E-01  0.1200E+02  0.1200E+02
     21.614  0.7488E-02  0.3358E-02  0.1200E+02  0.1200E+02
     21.704  0.1557E-01  0.3100E-02  0.1200E+02  0.1200E+02
     21.794  0.1366E-01  0.1072E-01  0.1200E+02  0.1200E+02
     21.883  0.4107E-02  0.1686E-01  0.1200E+02  0.1200E+02
     21.973  0.7735E-03  0.7751E-02  0.1200E+02  0.1200E+02
     22.063  0.1310E-03  0.1677E-02  0.1200E+02  0.1200E+02
     22.153  0.0000E+00  0.2919E-03  0.1200E+02  0.1200E+02
     22.243  0.0000E+00  0.0000E+00  0.1200E+02  0.1200E+02
     22.333  0.0000E+00  0.0000E+00  0.1200E+02  0.1200E+02
     22.423  0.0000E+00  0.0000E+00  0.1200E+02  0.1200E+02
     22.513  0.0000E+00  0.0000E+00  0.1200E+02  0.1200E+02
     22.603  0.0000E+00  0.0000E+00  0.1200E+02  0.1200E+02
     22.693  0.0000E+00  0.0000E+00  0.1200E+02  0.1200E+02
     22.783  0.0000E+00  0.0000E+00  0.1200E+02  0.1200E+02
     22.873  0.0000E+00  0.0000E+00  0.1200E+02  0.1200E+02
     22.963  0.0000E+00  0.0000E+00  0.1200E+02  0.1200E+02
     23.053  0.0000E+00  0.0000E+00  0.1200E+02  0.1200E+02
     23.05251587     -3.92513295  301      9.21606218      1.00000000
     -3.925  0.0000E+00  0.0000E+00  0.0000E+00  0.0000E+00  0.0000E+00  0.0000E+00  0.0000E+00  0.0000E+00  0.0000E+00  0.0000E+00  0.0000E+00  0.0000E+00  0.0000E+00  0.0000E+00  0.0000E+00  0.0000E+00  0.0000E+00  0.0000E+00
     -3.835  0.0000E+00  0.0000E+00  0.0000E+00  0.0000E+00  0.0000E+00  0.0000E+00  0.0000E+00  0.0000E+00  0.0000E+00  0.0000E+00  0.0000E+00  0.0000E+00  0.0000E+00  0.0000E+00  0.0000E+00  0.0000E+00  0.0000E+00  0.0000E+00
     -3.745  0.0000E+00  0.0000E+00  0.0000E+00  0.0000E+00  0.0000E+00  0.0000E+00  0.0000E+00  0.0000E+00  0.0000E+00  0.0000E+00  0.0000E+00  0.0000E+00  0.0000E+00  0.0000E+00  0.0000E+00  0.0000E+00  0.0000E+00  0.0000E+00
     -3.655  0.0000E+00  0.0000E+00  0.0000E+00  0.0000E+00  0.0000E+00  0.0000E+00  0.0000E+00  0.0000E+00  0.0000E+00  0.0000E+00  0.0000E+00  0.0000E+00  0.0000E+00  0.0000E+00  0.0000E+00  0.0000E+00  0.0000E+00  0.0000E+00
     -3.565  0.0000E+00  0.0000E+00  0.0000E+00  0.0000E+00  0.0000E+00  0.0000E+00  0.0000E+00  0.0000E+00  0.0000E+00  0.0000E+00  0.0000E+00  0.0000E+00  0.0000E+00  0.0000E+00  0.0000E+00  0.0000E+00  0.0000E+00  0.0000E+00
     -3.476  0.0000E+00  0.0000E+00  0.0000E+00  0.0000E+00  0.0000E+00  0.0000E+00  0.0000E+00  0.0000E+00  0.0000E+00  0.0000E+00  0.0000E+00  0.0000E+00  0.0000E+00  0.0000E+00  0.0000E+00  0.0000E+00  0.0000E+00  0.0000E+00
     -3.386  0.0000E+00  0.0000E+00  0.0000E+00  0.0000E+00  0.0000E+00  0.0000E+00  0.0000E+00  0.0000E+00  0.0000E+00  0.0000E+00  0.0000E+00  0.0000E+00  0.0000E+00  0.0000E+00  0.0000E+00  0.0000E+00  0.0000E+00  0.0000E+00
     -3.296  0.0000E+00  0.0000E+00  0.0000E+00  0.0000E+00  0.0000E+00  0.0000E+00  0.0000E+00  0.0000E+00  0.0000E+00  0.0000E+00  0.0000E+00  0.0000E+00  0.0000E+00  0.0000E+00  0.0000E+00  0.0000E+00  0.0000E+00  0.0000E+00
     -3.206  0.0000E+00  0.0000E+00  0.0000E+00  0.0000E+00  0.0000E+00  0.0000E+00  0.0000E+00  0.0000E+00  0.0000E+00  0.0000E+00  0.0000E+00  0.0000E+00  0.0000E+00  0.0000E+00  0.0000E+00  0.0000E+00  0.0000E+00  0.0000E+00
     -3.116  0.1525E-06  0.1587E-06  0.2323E-09  0.2419E-09  0.2323E-09  0.2419E-09  0.2322E-09  0.2417E-09  0.2345E-21  0.7486E-22  0.2719E-21  0.1018E-21  0.2049E-12  0.2134E-12  0.2345E-21  0.7486E-22  0.2631E-12  0.2741E-12
     -3.026  0.1108E-05  0.1154E-05  0.2808E-08  0.2924E-08  0.2808E-08  0.2924E-08  0.2807E-08  0.2923E-08  0.3020E-11  0.3148E-11  0.3021E-11  0.3149E-11  0.1962E-11  0.2043E-11  0.3020E-11  0.3148E-11  0.2048E-11  0.2133E-11
     -2.936  0.6817E-05  0.7096E-05  0.1905E-07  0.1984E-07  0.1905E-07  0.1984E-07  0.1905E-07  0.1983E-07  0.2593E-10  0.2703E-10  0.2593E-10  0.2703E-10  0.1392E-10  0.1449E-10  0.2593E-10  0.2703E-10  0.1550E-10  0.1614E-10
     -2.846  0.4053E-04  0.4216E-04  0.1181E-06  0.1230E-06  0.1181E-06  0.1230E-06  0.1181E-06  0.1229E-06  0.1683E-09  0.1754E-09  0.1683E-09  0.1754E-09  0.9870E-10  0.1027E-09  0.1683E-09  0.1754E-09  0.1103E-09  0.1149E-09
     -2.756  0.2219E-03  0.2300E-03  0.6935E-06  0.7208E-06  0.6935E-06  0.7208E-06  0.6933E-06  0.7205E-06  0.1068E-08  0.1113E-08  0.1068E-08  0.1113E-08  0.5768E-09  0.5996E-09  0.1068E-08  0.1113E-08  0.6459E-09  0.6713E-09
     -2.666  0.9151E-03  0.9392E-03  0.3436E-05  0.3548E-05  0.3436E-05  0.3548E-05  0.3435E-05  0.3548E-05  0.5883E-08  0.6108E-08  0.5884E-08  0.6109E-08  0.2908E-08  0.3006E-08  0.5883E-08  0.6108E-08  0.3223E-08  0.3331E-08
     -2.576  0.2231E-02  0.2259E-02  0.1145E-04  0.1169E-04  0.1145E-04  0.1169E-04  0.1145E-04  0.1169E-04  0.2510E-07  0.2582E-07  0.2511E-07  0.2582E-07  0.1116E-07  0.1147E-07  0.2510E-07  0.2582E-07  0.1251E-07  0.1287E-07
     -2.486  0.3238E-02  0.3254E-02  0.2517E-04  0.2557E-04  0.2517E-04  0.2557E-04  0.2515E-04  0.2555E-04  0.7011E-07  0.7163E-07  0.7014E-07  0.7165E-07  0.3791E-07  0.3893E-07  0.7011E-07  0.7163E-07  0.4496E-07  0.4621E-07
     -2.396  0.4422E-02  0.4454E-02  0.5067E-04  0.5137E-04  0.5067E-04  0.5137E-04  0.5065E-04  0.5135E-04  0.1805E-06  0.1843E-06  0.1805E-06  0.1843E-06  0.1020E-06  0.1035E-06  0.1805E-06  0.1843E-06  0.1223E-06  0.1241E-06
     -2.306  0.5322E-02  0.5311E-02  0.7493E-04  0.7513E-04  0.7493E-04  0.7513E-04  0.7494E-04  0.7515E-04  0.3584E-06  0.3621E-06  0.3584E-06  0.3621E-06  0.1506E-06  0.1511E-06  0.3584E-06  0.3621E-06  0.1773E-06  0.1777E-06
     -2.217  0.4761E-02  0.4761E-02  0.8689E-04  0.8755E-04  0.8689E-04  0.8755E-04  0.8685E-04  0.8750E-04  0.5504E-06  0.5575E-06  0.5505E-06  0.5577E-06  0.2198E-06  0.2234E-06  0.5504E-06  0.5575E-06  0.2458E-06  0.2497E-06
     -2.127  0.6137E-02  0.6175E-02  0.1416E-03  0.1430E-03  0.1416E-03  0.1430E-03  0.1415E-03  0.1429E-03  0.9598E-06  0.9693E-06  0.9599E-06  0.9694E-06  0.5012E-06  0.5093E-06  0.9598E-06  0.9693E-06  0.5808E-06  0.5911E-06
     -2.037  0.7066E-02  0.7054E-02  0.1858E-03  0.1862E-03  0.1858E-03  0.1862E-03  0.1858E-03  0.1861E-03  0.1276E-05  0.1284E-05  0.1276E-05  0.1284E-05  0.8073E-06  0.8099E-06  0.1276E-05  0.1284E-05  0.9777E-06  0.9813E-06
     -1.947  0.6548E-02  0.6538E-02  0.1989E-03  0.1994E-03  0.1989E-03  0.1994E-03  0.1990E-03  0.1995E-03  0.1851E-05  0.1872E-05  0.1852E-05  0.1873E-05  0.8190E-06  0.8184E-06  0.1851E-05  0.1872E-05  0.9689E-06  0.9667E-06
     -1.857  0.7236E-02  0.7251E-02  0.2529E-03  0.2541E-03  0.2529E-03  0.2541E-03  0.2528E-03  0.2541E-03  0.2998E-05  0.3022E-05  0.2998E-05  0.3022E-05  0.9873E-06  0.9927E-06  0.2998E-05  0.3022E-05  0.1101E-05  0.1107E-05
     -1.767  0.6800E-02  0.6758E-02  0.2638E-03  0.2631E-03  0.2638E-03  0.2631E-03  0.2636E-03  0.2630E-03  0.3184E-05  0.3172E-05  0.3181E-05  0.3170E-05  0.1236E-05  0.1243E-05  0.3184E-05  0.3172E-05  0.1430E-05  0.1440E-05
     -1.677  0.6758E-02  0.6800E-02  0.3112E-03  0.3143E-03  0.3112E-03  0.3143E-03  0.3105E-03  0.3136E-03  0.3540E-05  0.3580E-05  0.3543E-05  0.3582E-05  0.2046E-05  0.2073E-05  0.3540E-05  0.3580E-05  0.2491E-05  0.2525E-05
     -1.587  0.8923E-02  0.8937E-02  0.4487E-03  0.4503E-03  0.4487E-03  0.4503E-03  0.4486E-03  0.4502E-03  0.5688E-05  0.5732E-05  0.5694E-05  0.5738E-05  0.3096E-05  0.3104E-05  0.5688E-05  0.5732E-05  0.3689E-05  0.3695E-05
     -1.497  0.8786E-02  0.8766E-02  0.4773E-03  0.4775E-03  0.4773E-03  0.4775E-03  0.4774E-03  0.4776E-03  0.7199E-05  0.7232E-05  0.7202E-05  0.7234E-05  0.3219E-05  0.3219E-05  0.7199E-05  0.7232E-05  0.3682E-05  0.3680E-05
     -1.407  0.8577E-02  0.8558E-02  0.5078E-03  0.5077E-03  0.5078E-03  0.5077E-03  0.5080E-03  0.5080E-03  0.8748E-05  0.8779E-05  0.8743E-05  0.8774E-05  0.3353E-05  0.3345E-05  0.8748E-05  0.8779E-05  0.3867E-05  0.3858E-05
     -1.317  0.7050E-02  0.6993E-02  0.4467E-03  0.4443E-03  0.4467E-03  0.4443E-03  0.4472E-03  0.4448E-03  0.9009E-05  0.8991E-05  0.9001E-05  0.8984E-05  0.2605E-05  0.2587E-05  0.9009E-05  0.8991E-05  0.3020E-05  0.2999E-05
     -1.227  0.6448E-02  0.6481E-02  0.4722E-03  0.4765E-03  0.4722E-03  0.4765E-03  0.4707E-03  0.4750E-03  0.9770E-05  0.9844E-05  0.9787E-05  0.9862E-05  0.3299E-05  0.3353E-05  0.9770E-05  0.9844E-05  0.3854E-05  0.3917E-05
     -1.137  0.9270E-02  0.9327E-02  0.7610E-03  0.7674E-03  0.7610E-03  0.7674E-03  0.7589E-03  0.7653E-03  0.1452E-04  0.1463E-04  0.1454E-04  0.1465E-04  0.6655E-05  0.6727E-05  0.1452E-04  0.1463E-04  0.7767E-05  0.7852E-05
     -1.048  0.9967E-02  0.9922E-02  0.8731E-03  0.8709E-03  0.8731E-03  0.8709E-03  0.8737E-03  0.8715E-03  0.1677E-04  0.1677E-04  0.1676E-04  0.1675E-04  0.8007E-05  0.7980E-05  0.1677E-04  0.1677E-04  0.9482E-05  0.9455E-05
     -0.958  0.8937E-02  0.8942E-02  0.8481E-03  0.8505E-03  0.8481E-03  0.8505E-03  0.8478E-03  0.8501E-03  0.1889E-04  0.1902E-04  0.1890E-04  0.1903E-04  0.7380E-05  0.7389E-05  0.1889E-04  0.1902E-04  0.8838E-05  0.8849E-05
     -0.868  0.9040E-02  0.8986E-02  0.9131E-03  0.9092E-03  0.9131E-03  0.9092E-03  0.9139E-03  0.9101E-03  0.2192E-04  0.2185E-04  0.2191E-04  0.2184E-04  0.8005E-05  0.7978E-05  0.2192E-04  0.2185E-04  0.9550E-05  0.9515E-05
     -0.778  0.6399E-02  0.6361E-02  0.6953E-03  0.6931E-03  0.6953E-03  0.6931E-03  0.6964E-03  0.6941E-03  0.1873E-04  0.1878E-04  0.1875E-04  0.1880E-04  0.6115E-05  0.6082E-05  0.1873E-04  0.1878E-04  0.7002E-05  0.6953E-05
     -0.688  0.7568E-02  0.7629E-02  0.9175E-03  0.9278E-03  0.9175E-03  0.9278E-03  0.9143E-03  0.9246E-03  0.2874E-04  0.2909E-04  0.2880E-04  0.2915E-04  0.7258E-05  0.7327E-05  0.2874E-04  0.2909E-04  0.7937E-05  0.8014E-05
     -0.598  0.9637E-02  0.9641E-02  0.1348E-02  0.1355E-02  0.1348E-02  0.1355E-02  0.1343E-02  0.1350E-02  0.3969E-04  0.3978E-04  0.3969E-04  0.3978E-04  0.1020E-04  0.1025E-04  0.3969E-04  0.3978E-04  0.1146E-04  0.1153E-04
     -0.508  0.8528E-02  0.8469E-02  0.1469E-02  0.1467E-02  0.1469E-02  0.1467E-02  0.1468E-02  0.1466E-02  0.3739E-04  0.3726E-04  0.3735E-04  0.3722E-04  0.1081E-04  0.1078E-04  0.3739E-04  0.3726E-04  0.1253E-04  0.1250E-04
     -0.418  0.6776E-02  0.6746E-02  0.1368E-02  0.1366E-02  0.1368E-02  0.1366E-02  0.1368E-02  0.1367E-02  0.3560E-04  0.3567E-04  0.3562E-04  0.3569E-04  0.9658E-05  0.9638E-05  0.3560E-04  0.3567E-04  0.1146E-04  0.1145E-04
     -0.328  0.6129E-02  0.6114E-02  0.1432E-02  0.1434E-02  0.1432E-02  0.1434E-02  0.1430E-02  0.1432E-02  0.4034E-04  0.4050E-04  0.4040E-04  0.4056E-04  0.9935E-05  0.9941E-05  0.4034E-04  0.4050E-04  0.1179E-04  0.1180E-04
     -0.238  0.6618E-02  0.6647E-02  0.1508E-02  0.1508E-02  0.1508E-02  0.1508E-02  0.1512E-02  0.1512E-02  0.5281E-04  0.5327E-04  0.5290E-04  0.5336E-04  0.1022E-04  0.1022E-04  0.5281E-04  0.5327E-04  0.1143E-04  0.1140E-04
     -0.148  0.7839E-02  0.7836E-02  0.1624E-02  0.1627E-02  0.1624E-02  0.1627E-02  0.1623E-02  0.1626E-02  0.7157E-04  0.7186E-04  0.7162E-04  0.7191E-04  0.1070E-04  0.1071E-04  0.7157E-04  0.7186E-04  0.1136E-04  0.1136E-04
     -0.058  0.7067E-02  0.7033E-02  0.1716E-02  0.1716E-02  0.1716E-02  0.1716E-02  0.1713E-02  0.1714E-02  0.7761E-04  0.7766E-04  0.7763E-04  0.7768E-04  0.1075E-04  0.1072E-04  0.7761E-04  0.7766E-04  0.1185E-04  0.1184E-04
      0.032  0.5921E-02  0.5871E-02  0.1597E-02  0.1586E-02  0.1597E-02  0.1586E-02  0.1601E-02  0.1590E-02  0.7565E-04  0.7525E-04  0.7550E-04  0.7510E-04  0.9720E-05  0.9633E-05  0.7565E-04  0.7525E-04  0.1073E-04  0.1063E-04
      0.122  0.3757E-02  0.3712E-02  0.1090E-02  0.1082E-02  0.1090E-02  0.1082E-02  0.1093E-02  0.1085E-02  0.5625E-04  0.5597E-04  0.5613E-04  0.5585E-04  0.6222E-05  0.6147E-05  0.5625E-04  0.5597E-04  0.6915E-05  0.6836E-05
      0.211  0.3569E-02  0.3588E-02  0.1098E-02  0.1102E-02  0.1098E-02  0.1102E-02  0.1098E-02  0.1102E-02  0.6438E-04  0.6483E-04  0.6448E-04  0.6493E-04  0.5905E-05  0.5924E-05  0.6438E-04  0.6483E-04  0.6572E-05  0.6583E-05
      0.301  0.5281E-02  0.5325E-02  0.1399E-02  0.1409E-02  0.1399E-02  0.1409E-02  0.1397E-02  0.1406E-02  0.9438E-04  0.9528E-04  0.9473E-04  0.9563E-04  0.9422E-05  0.9558E-05  0.9438E-04  0.9528E-04  0.9888E-05  0.1003E-04
      0.391  0.6785E-02  0.6791E-02  0.1740E-02  0.1741E-02  0.1740E-02  0.1741E-02  0.1737E-02  0.1738E-02  0.1213E-03  0.1213E-03  0.1214E-03  0.1214E-03  0.1982E-04  0.2013E-04  0.1213E-03  0.1213E-03  0.2229E-04  0.2270E-04
      0.481  0.8283E-02  0.8322E-02  0.1605E-02  0.1597E-02  0.1605E-02  0.1597E-02  0.1606E-02  0.1599E-02  0.1089E-03  0.1083E-03  0.1086E-03  0.1080E-03  0.4247E-04  0.4305E-04  0.1089E-03  0.1083E-03  0.5208E-04  0.5285E-04
      0.571  0.1054E-01  0.1054E-01  0.1440E-02  0.1435E-02  0.1440E-02  0.1435E-02  0.1442E-02  0.1437E-02  0.9641E-04  0.9608E-04  0.9624E-04  0.9590E-04  0.6517E-04  0.6537E-04  0.9641E-04  0.9608E-04  0.8164E-04  0.8190E-04