   4   4   1   0
  0.1291882E+02  0.3723897E-09  0.3725140E-09  0.3725140E-09  0.5000000E-15
  1.000000000000000E-004
  CAR 
 unknown system                          
     23.65031293     -3.80840109  301      9.57905100      1.00000000
     -3.808  0.0000E+00  0.0000E+00  0.0000E+00  0.0000E+00
     -3.717  0.0000E+00  0.0000E+00  0.0000E+00  0.0000E+00
     -3.625  0.0000E+00  0.0000E+00  0.0000E+00  0.0000E+00
     -3.534  0.0000E+00  0.0000E+00  0.0000E+00  0.0000E+00
     -3.442  0.0000E+00  0.0000E+00  0.0000E+00  0.0000E+00
     -3.351  0.0000E+00  0.0000E+00  0.0000E+00  0.0000E+00
     -3.259  0.0000E+00  0.0000E+00  0.0000E+00  0.0000E+00
     -3.168  0.0000E+00  0.0000E+00  0.0000E+00  0.0000E+00
     -3.076  0.0000E+00  0.0000E+00  0.0000E+00  0.0000E+00
     -2.985  0.2709E-05  0.2778E-05  0.2480E-06  0.2543E-06
     -2.893  0.2027E-04  0.2079E-04  0.2103E-05  0.2157E-05
     -2.802  0.1272E-03  0.1304E-03  0.1374E-04  0.1409E-04
     -2.710  0.7923E-03  0.8121E-03  0.8627E-04  0.8843E-04
     -2.619  0.4471E-02  0.4573E-02  0.4955E-03  0.5069E-03
     -2.527  0.1892E-01  0.1924E-01  0.2227E-02  0.2268E-02
     -2.435  0.4679E-01  0.4718E-01  0.6510E-02  0.6586E-02
     -2.344  0.6820E-01  0.6845E-01  0.1275E-01  0.1285E-01
     -2.252  0.9457E-01  0.9506E-01  0.2141E-01  0.2155E-01
     -2.161  0.1158E+00  0.1157E+00  0.3201E-01  0.3214E-01
     -2.069  0.1037E+00  0.1038E+00  0.4150E-01  0.4165E-01
     -1.978  0.1370E+00  0.1377E+00  0.5405E-01  0.5425E-01
     -1.886  0.1612E+00  0.1612E+00  0.6881E-01  0.6901E-01
     -1.795  0.1507E+00  0.1506E+00  0.8261E-01  0.8280E-01
     -1.703  0.1698E+00  0.1701E+00  0.9815E-01  0.9838E-01
     -1.612  0.1633E+00  0.1628E+00  0.1131E+00  0.1133E+00
     -1.520  0.1629E+00  0.1636E+00  0.1280E+00  0.1283E+00
     -1.429  0.2230E+00  0.2235E+00  0.1485E+00  0.1488E+00
     -1.337  0.2235E+00  0.2234E+00  0.1689E+00  0.1692E+00
     -1.246  0.2230E+00  0.2229E+00  0.1894E+00  0.1896E+00
     -1.154  0.1879E+00  0.1871E+00  0.2066E+00  0.2068E+00
     -1.063  0.1715E+00  0.1722E+00  0.2223E+00  0.2226E+00
     -0.971  0.2579E+00  0.2593E+00  0.2459E+00  0.2463E+00
     -0.879  0.2927E+00  0.2922E+00  0.2727E+00  0.2731E+00
     -0.788  0.2640E+00  0.2643E+00  0.2969E+00  0.2973E+00
     -0.696  0.2810E+00  0.2804E+00  0.3226E+00  0.3230E+00
     -0.605  0.2021E+00  0.2013E+00  0.3412E+00  0.3414E+00
     -0.513  0.2388E+00  0.2404E+00  0.3630E+00  0.3634E+00
     -0.422  0.3363E+00  0.3372E+00  0.3938E+00  0.3943E+00
     -0.330  0.3428E+00  0.3422E+00  0.4252E+00  0.4257E+00
     -0.239  0.2977E+00  0.2973E+00  0.4525E+00  0.4529E+00
     -0.147  0.2931E+00  0.2933E+00  0.4793E+00  0.4797E+00
     -0.056  0.3097E+00  0.3101E+00  0.5077E+00  0.5082E+00
      0.036  0.3445E+00  0.3449E+00  0.5393E+00  0.5398E+00
      0.127  0.3489E+00  0.3489E+00  0.5712E+00  0.5717E+00
      0.219  0.3248E+00  0.3237E+00  0.6010E+00  0.6014E+00
      0.310  0.2181E+00  0.2167E+00  0.6210E+00  0.6213E+00
      0.402  0.2036E+00  0.2042E+00  0.6396E+00  0.6400E+00
      0.493  0.2647E+00  0.2661E+00  0.6639E+00  0.6643E+00
      0.585  0.3440E+00  0.3446E+00  0.6954E+00  0.6959E+00
      0.677  0.3452E+00  0.3448E+00  0.7270E+00  0.7275E+00
      0.768  0.3438E+00  0.3436E+00  0.7586E+00  0.7590E+00
      0.860  0.3057E+00  0.3049E+00  0.7865E+00  0.7869E+00
      0.951  0.3001E+00  0.3005E+00  0.8141E+00  0.8145E+00
      1.043  0.3349E+00  0.3361E+00  0.8447E+00  0.8452E+00
      1.134  0.4106E+00  0.4112E+00  0.8824E+00  0.8829E+00
      1.226  0.3754E+00  0.3739E+00  0.9167E+00  0.9172E+00
      1.317  0.3048E+00  0.3042E+00  0.9447E+00  0.9450E+00
      1.409  0.2825E+00  0.2827E+00  0.9705E+00  0.9709E+00
      1.500  0.3267E+00  0.3275E+00  0.1001E+01  0.1001E+01
      1.592  0.4007E+00  0.4022E+00  0.1037E+01  0.1038E+01
      1.683  0.4879E+00  0.4883E+00  0.1082E+01  0.1083E+01
      1.775  0.4604E+00  0.4592E+00  0.1124E+01  0.1125E+01
      1.866  0.3600E+00  0.3587E+00  0.1157E+01  0.1157E+01
      1.958  0.3219E+00  0.3227E+00  0.1187E+01  0.1187E+01
      2.049  0.4159E+00  0.4173E+00  0.1225E+01  0.1225E+01
      2.141  0.4834E+00  0.4832E+00  0.1269E+01  0.1270E+01
      2.233  0.4232E+00  0.4216E+00  0.1308E+01  0.1308E+01
      2.324  0.3145E+00  0.3133E+00  0.1336E+01  0.1337E+01
      2.416  0.2934E+00  0.2940E+00  0.1363E+01  0.1364E+01
      2.507  0.4017E+00  0.4041E+00  0.1400E+01  0.1401E+01
      2.599  0.5638E+00  0.5656E+00  0.1452E+01  0.1453E+01
      2.690  0.5923E+00  0.5911E+00  0.1506E+01  0.1507E+01
      2.782  0.4752E+00  0.4736E+00  0.1550E+01  0.1550E+01
      2.873  0.4053E+00  0.4050E+00  0.1587E+01  0.1587E+01
      2.965  0.4585E+00  0.4601E+00  0.1629E+01  0.1629E+01
      3.056  0.5478E+00  0.5486E+00  0.1679E+01  0.1680E+01
      3.148  0.4926E+00  0.4909E+00  0.1724E+01  0.1725E+01
      3.239  0.3898E+00  0.3892E+00  0.1760E+01  0.1760E+01
      3.331  0.3648E+00  0.3640E+00  0.1793E+01  0.1794E+01
      3.422  0.3235E+00  0.3235E+00  0.1823E+01  0.1823E+01
      3.514  0.4430E+00  0.4465E+00  0.1863E+01  0.1864E+01
      3.605  0.5806E+00  0.5803E+00  0.1917E+01  0.1917E+01
      3.697  0.4987E+00  0.4980E+00  0.1962E+01  0.1963E+01
      3.789  0.4875E+00  0.4874E+00  0.2007E+01  0.2008E+01
      3.880  0.5174E+00  0.5181E+00  0.2054E+01  0.2055E+01
      3.972  0.5886E+00  0.5901E+00  0.2108E+01  0.2109E+01
      4.063  0.6242E+00  0.6232E+00  0.2165E+01  0.2166E+01
      4.155  0.4825E+00  0.4801E+00  0.2210E+01  0.2210E+01
      4.246  0.3785E+00  0.3780E+00  0.2244E+01  0.2245E+01
      4.338  0.3819E+00  0.3827E+00  0.2279E+01  0.2280E+01
      4.429  0.4705E+00  0.4730E+00  0.2322E+01  0.2323E+01
      4.521  0.5786E+00  0.5794E+00  0.2375E+01  0.2376E+01
      4.612  0.6089E+00  0.6085E+00  0.2431E+01  0.2432E+01
      4.704  0.6001E+00  0.6005E+00  0.2486E+01  0.2487E+01
      4.795  0.6067E+00  0.6067E+00  0.2542E+01  0.2543E+01
      4.887  0.5804E+00  0.5805E+00  0.2595E+01  0.2596E+01
      4.978  0.6308E+00  0.6312E+00  0.2653E+01  0.2654E+01
      5.070  0.5753E+00  0.5737E+00  0.2705E+01  0.2706E+01
      5.161  0.4986E+00  0.4991E+00  0.2751E+01  0.2752E+01
      5.253  0.5349E+00  0.5350E+00  0.2800E+01  0.2801E+01
      5.345  0.5165E+00  0.5161E+00  0.2847E+01  0.2848E+01
      5.436  0.5681E+00  0.5686E+00  0.2900E+01  0.2900E+01
      5.528  0.6092E+00  0.6103E+00  0.2955E+01  0.2956E+01
      5.619  0.6605E+00  0.6612E+00  0.3016E+01  0.3017E+01
      5.711  0.7369E+00  0.7386E+00  0.3083E+01  0.3084E+01
      5.802  0.7401E+00  0.7382E+00  0.3151E+01  0.3152E+01
      5.894  0.4764E+00  0.4711E+00  0.3195E+01  0.3195E+01
      5.985  0.2803E+00  0.2792E+00  0.3220E+01  0.3221E+01
      6.077  0.3569E+00  0.3591E+00  0.3253E+01  0.3254E+01
      6.168  0.5334E+00  0.5367E+00  0.3302E+01  0.3303E+01
      6.260  0.6954E+00  0.6976E+00  0.3366E+01  0.3367E+01
      6.351  0.7086E+00  0.7070E+00  0.3431E+01  0.3432E+01
      6.443  0.6179E+00  0.6174E+00  0.3487E+01  0.3488E+01
      6.534  0.6800E+00  0.6829E+00  0.3549E+01  0.3551E+01
      6.626  0.7760E+00  0.7750E+00  0.3621E+01  0.3622E+01
      6.717  0.6962E+00  0.6952E+00  0.3684E+01  0.3685E+01
      6.809  0.5541E+00  0.5507E+00  0.3735E+01  0.3736E+01
      6.900  0.4214E+00  0.4212E+00  0.3774E+01  0.3774E+01
      6.992  0.5535E+00  0.5568E+00  0.3825E+01  0.3826E+01
      7.084  0.7351E+00  0.7369E+00  0.3892E+01  0.3893E+01
      7.175  0.6988E+00  0.6964E+00  0.3956E+01  0.3957E+01
      7.267  0.5250E+00  0.5240E+00  0.4004E+01  0.4005E+01
      7.358  0.5851E+00  0.5875E+00  0.4058E+01  0.4059E+01
      7.450  0.6804E+00  0.6803E+00  0.4120E+01  0.4121E+01
      7.541  0.6357E+00  0.6353E+00  0.4178E+01  0.4179E+01
      7.633  0.6753E+00  0.6755E+00  0.4240E+01  0.4241E+01
      7.724  0.7372E+00  0.7380E+00  0.4308E+01  0.4309E+01
      7.816  0.7315E+00  0.7298E+00  0.4375E+01  0.4376E+01
      7.907  0.5115E+00  0.5077E+00  0.4421E+01  0.4422E+01
      7.999  0.3628E+00  0.3622E+00  0.4455E+01  0.4455E+01
      8.090  0.4178E+00  0.4192E+00  0.4493E+01  0.4494E+01
      8.182  0.5443E+00  0.5471E+00  0.4543E+01  0.4544E+01
      8.273  0.6618E+00  0.6631E+00  0.4604E+01  0.4605E+01
      8.365  0.7280E+00  0.7288E+00  0.4670E+01  0.4671E+01
      8.456  0.7723E+00  0.7716E+00  0.4741E+01  0.4742E+01
      8.548  0.7749E+00  0.7757E+00  0.4812E+01  0.4813E+01
      8.640  0.8628E+00  0.8628E+00  0.4891E+01  0.4892E+01
      8.731  0.7194E+00  0.7165E+00  0.4957E+01  0.4958E+01
      8.823  0.6045E+00  0.6046E+00  0.5012E+01  0.5013E+01
      8.914  0.5879E+00  0.5856E+00  0.5066E+01  0.5067E+01
      9.006  0.4716E+00  0.4700E+00  0.5109E+01  0.5110E+01
      9.097  0.4714E+00  0.4732E+00  0.5153E+01  0.5153E+01
      9.189  0.6688E+00  0.6728E+00  0.5214E+01  0.5215E+01
      9.280  0.8266E+00  0.8274E+00  0.5290E+01  0.5291E+01
      9.372  0.8127E+00  0.8123E+00  0.5364E+01  0.5365E+01
      9.463  0.7427E+00  0.7410E+00  0.5432E+01  0.5433E+01
      9.555  0.5996E+00  0.5975E+00  0.5487E+01  0.5488E+01
      9.646  0.5287E+00  0.5285E+00  0.5535E+01  0.5536E+01
      9.738  0.5865E+00  0.5867E+00  0.5589E+01  0.5590E+01
      9.829  0.5490E+00  0.5491E+00  0.5639E+01  0.5640E+01
      9.921  0.6760E+00  0.6806E+00  0.5701E+01  0.5703E+01
     10.012  0.8624E+00  0.8627E+00  0.5780E+01  0.5782E+01
     10.104  0.6361E+00  0.6305E+00  0.5839E+01  0.5839E+01
     10.196  0.4103E+00  0.4095E+00  0.5876E+01  0.5877E+01
     10.287  0.5295E+00  0.5332E+00  0.5925E+01  0.5926E+01
     10.379  0.6168E+00  0.6145E+00  0.5981E+01  0.5982E+01
     10.470  0.4899E+00  0.4894E+00  0.6026E+01  0.6027E+01
     10.562  0.6734E+00  0.6769E+00  0.6088E+01  0.6089E+01
     10.653  0.8147E+00  0.8141E+00  0.6162E+01  0.6164E+01
     10.745  0.6806E+00  0.6793E+00  0.6225E+01  0.6226E+01
     10.836  0.5845E+00  0.5835E+00  0.6278E+01  0.6279E+01
     10.928  0.6322E+00  0.6329E+00  0.6336E+01  0.6337E+01
     11.019  0.8065E+00  0.8080E+00  0.6410E+01  0.6411E+01
     11.111  0.8618E+00  0.8611E+00  0.6489E+01  0.6490E+01
     11.202  0.7865E+00  0.7870E+00  0.6561E+01  0.6562E+01
     11.294  0.8598E+00  0.8607E+00  0.6640E+01  0.6641E+01
     11.385  0.9282E+00  0.9279E+00  0.6725E+01  0.6726E+01
     11.477  0.8864E+00  0.8870E+00  0.6806E+01  0.6807E+01
     11.568  0.7581E+00  0.7582E+00  0.6876E+01  0.6877E+01
     11.660  0.7421E+00  0.7406E+00  0.6944E+01  0.6945E+01
     11.752  0.6670E+00  0.6643E+00  0.7005E+01  0.7005E+01
     11.843  0.5492E+00  0.5478E+00  0.7055E+01  0.7056E+01
     11.935  0.4911E+00  0.4919E+00  0.7100E+01  0.7101E+01
     12.026  0.6137E+00  0.6166E+00  0.7156E+01  0.7157E+01
     12.118  0.8631E+00  0.8659E+00  0.7235E+01  0.7236E+01
     12.209  0.9242E+00  0.9225E+00  0.7320E+01  0.7321E+01
     12.301  0.7104E+00  0.7074E+00  0.7385E+01  0.7386E+01
     12.392  0.6135E+00  0.6133E+00  0.7441E+01  0.7442E+01
     12.484  0.6496E+00  0.6518E+00  0.7501E+01  0.7502E+01
     12.575  0.6954E+00  0.6964E+00  0.7565E+01  0.7566E+01
     12.667  0.8481E+00  0.8485E+00  0.7642E+01  0.7643E+01
     12.758  0.8488E+00  0.8465E+00  0.7720E+01  0.7721E+01
     12.850  0.8056E+00  0.8068E+00  0.7794E+01  0.7795E+01
     12.941  0.8512E+00  0.8502E+00  0.7872E+01  0.7873E+01
     13.033  0.6674E+00  0.6658E+00  0.7933E+01  0.7934E+01
     13.124  0.7394E+00  0.7413E+00  0.8001E+01  0.8001E+01
     13.216  0.8264E+00  0.8252E+00  0.8076E+01  0.8077E+01
     13.308  0.6759E+00  0.6738E+00  0.8138E+01  0.8139E+01
     13.399  0.6278E+00  0.6284E+00  0.8196E+01  0.8196E+01
     13.491  0.6645E+00  0.6674E+00  0.8257E+01  0.8258E+01
     13.582  0.8001E+00  0.8025E+00  0.8330E+01  0.8331E+01
     13.674  0.7753E+00  0.7723E+00  0.8401E+01  0.8402E+01
     13.765  0.7359E+00  0.7356E+00  0.8468E+01  0.8469E+01
     13.857  0.7202E+00  0.7192E+00  0.8534E+01  0.8535E+01
     13.948  0.6827E+00  0.6817E+00  0.8597E+01  0.8597E+01
     14.040  0.8452E+00  0.8462E+00  0.8674E+01  0.8675E+01
     14.131  0.1000E+01  0.9985E+00  0.8766E+01  0.8766E+01
     14.223  0.6674E+00  0.6669E+00  0.8827E+01  0.8828E+01
     14.314  0.4864E+00  0.4876E+00  0.8872E+01  0.8872E+01
     14.406  0.5684E+00  0.5688E+00  0.8924E+01  0.8924E+01
     14.497  0.7459E+00  0.7458E+00  0.8992E+01  0.8993E+01
     14.589  0.8826E+00  0.8844E+00  0.9073E+01  0.9074E+01
     14.680  0.9581E+00  0.9576E+00  0.9161E+01  0.9162E+01
     14.772  0.7662E+00  0.7634E+00  0.9231E+01  0.9231E+01
     14.864  0.5480E+00  0.5480E+00  0.9281E+01  0.9282E+01
     14.955  0.7147E+00  0.7189E+00  0.9347E+01  0.9348E+01
     15.047  0.7979E+00  0.7944E+00  0.9420E+01  0.9420E+01
     15.138  0.6102E+00  0.6066E+00  0.9476E+01  0.9476E+01
     15.230  0.7880E+00  0.7896E+00  0.9548E+01  0.9548E+01
     15.321  0.8449E+00  0.8437E+00  0.9625E+01  0.9626E+01
     15.413  0.8873E+00  0.8876E+00  0.9707E+01  0.9707E+01
     15.504  0.1083E+01  0.1079E+01  0.9806E+01  0.9806E+01
     15.596  0.9435E+00  0.9474E+00  0.9892E+01  0.9892E+01
     15.687  0.8143E+00  0.8163E+00  0.9967E+01  0.9967E+01
     15.779  0.6999E+00  0.6942E+00  0.1003E+02  0.1003E+02
     15.870  0.7114E+00  0.7078E+00  0.1010E+02  0.1010E+02
     15.962  0.6653E+00  0.6639E+00  0.1016E+02  0.1016E+02
     16.053  0.6274E+00  0.6309E+00  0.1021E+02  0.1021E+02
     16.145  0.7546E+00  0.7576E+00  0.1028E+02  0.1028E+02
     16.236  0.1012E+01  0.1014E+01  0.1038E+02  0.1038E+02
     16.328  0.1022E+01  0.1019E+01  0.1047E+02  0.1047E+02
     16.420  0.7988E+00  0.7976E+00  0.1054E+02  0.1054E+02
     16.511  0.6537E+00  0.6531E+00  0.1060E+02  0.1060E+02
     16.603  0.5735E+00  0.5659E+00  0.1066E+02  0.1065E+02
     16.694  0.6340E+00  0.6275E+00  0.1071E+02  0.1071E+02
     16.786  0.8190E+00  0.8262E+00  0.1079E+02  0.1079E+02
     16.877  0.1064E+01  0.1062E+01  0.1089E+02  0.1089E+02
     16.969  0.9781E+00  0.9664E+00  0.1098E+02  0.1097E+02
     17.060  0.7420E+00  0.7492E+00  0.1104E+02  0.1104E+02
     17.152  0.6587E+00  0.6690E+00  0.1110E+02  0.1110E+02
     17.243  0.6553E+00  0.6555E+00  0.1116E+02  0.1116E+02
     17.335  0.6616E+00  0.6615E+00  0.1122E+02  0.1122E+02
     17.426  0.5607E+00  0.5629E+00  0.1128E+02  0.1128E+02
     17.518  0.5521E+00  0.5536E+00  0.1133E+02  0.1133E+02
     17.609  0.5214E+00  0.5235E+00  0.1137E+02  0.1137E+02
     17.701  0.4160E+00  0.4161E+00  0.1141E+02  0.1141E+02
     17.792  0.4221E+00  0.4236E+00  0.1145E+02  0.1145E+02
     17.884  0.3675E+00  0.3713E+00  0.1149E+02  0.1149E+02
     17.976  0.2644E+00  0.2726E+00  0.1151E+02  0.1151E+02
     18.067  0.2709E+00  0.2651E+00  0.1153E+02  0.1154E+02
     18.159  0.2139E+00  0.2060E+00  0.1155E+02  0.1155E+02
     18.250  0.2299E+00  0.2283E+00  0.1157E+02  0.1157E+02
     18.342  0.2772E+00  0.2790E+00  0.1160E+02  0.1160E+02
     18.433  0.3371E+00  0.3367E+00  0.1163E+02  0.1163E+02
     18.525  0.3075E+00  0.3023E+00  0.1166E+02  0.1166E+02
     18.616  0.2474E+00  0.2422E+00  0.1168E+02  0.1168E+02
     18.708  0.1081E+00  0.1138E+00  0.1169E+02  0.1169E+02
     18.799  0.4114E-01  0.4476E-01  0.1170E+02  0.1170E+02
     18.891  0.7421E-01  0.7514E-01  0.1170E+02  0.1170E+02
     18.982  0.1601E+00  0.1600E+00  0.1172E+02  0.1172E+02
     19.074  0.2722E+00  0.2741E+00  0.1174E+02  0.1174E+02
     19.165  0.2692E+00  0.2683E+00  0.1177E+02  0.1177E+02
     19.257  0.1522E+00  0.1508E+00  0.1178E+02  0.1178E+02
     19.348  0.1206E+00  0.1198E+00  0.1179E+02  0.1179E+02
     19.440  0.1447E+00  0.1454E+00  0.1181E+02  0.1181E+02
     19.532  0.1020E+00  0.1027E+00  0.1181E+02  0.1181E+02
     19.623  0.1080E+00  0.1087E+00  0.1182E+02  0.1182E+02
     19.715  0.1925E+00  0.1920E+00  0.1184E+02  0.1184E+02
     19.806  0.2161E+00  0.2151E+00  0.1186E+02  0.1186E+02
     19.898  0.1785E+00  0.1786E+00  0.1188E+02  0.1188E+02
     19.989  0.1494E+00  0.1465E+00  0.1189E+02  0.1189E+02
     20.081  0.9735E-01  0.9574E-01  0.1190E+02  0.1190E+02
     20.172  0.4346E-01  0.4654E-01  0.1190E+02  0.1190E+02
     20.264  0.2536E-01  0.2679E-01  0.1191E+02  0.1191E+02
     20.355  0.5331E-01  0.5376E-01  0.1191E+02  0.1191E+02
     20.447  0.7063E-01  0.7049E-01  0.1192E+02  0.1192E+02
     20.538  0.7858E-01  0.7890E-01  0.1193E+02  0.1193E+02
     20.630  0.6376E-01  0.6715E-01  0.1193E+02  0.1193E+02
     20.721  0.6927E-01  0.8259E-01  0.1194E+02  0.1194E+02
     20.813  0.7764E-01  0.9447E-01  0.1194E+02  0.1195E+02
     20.904  0.6075E-01  0.4623E-01  0.1195E+02  0.1195E+02
     20.996  0.5188E-01  0.3586E-01  0.1196E+02  0.1196E+02
     21.087  0.9264E-01  0.8764E-01  0.1196E+02  0.1196E+02
     21.179  0.8613E-01  0.8662E-01  0.1197E+02  0.1197E+02
     21.271  0.2677E-01  0.2766E-01  0.1197E+02  0.1197E+02
     21.362  0.7600E-02  0.7912E-02  0.1197E+02  0.1197E+02
     21.454  0.1539E-01  0.1597E-01  0.1198E+02  0.1198E+02
     21.545  0.4481E-01  0.4529E-01  0.1198E+02  0.1198E+02
     21.637  0.4323E-01  0.4241E-01  0.1198E+02  0.1198E+02
     21.728  0.2078E-01  0.1995E-01  0.1199E+02  0.1199E+02
     21.820  0.3114E-01  0.2989E-01  0.1199E+02  0.1199E+02
     21.911  0.3809E-01  0.3617E-01  0.1199E+02  0.1199E+02
     22.003  0.2740E-01  0.2578E-01  0.1199E+02  0.1199E+02
     22.094  0.1543E-01  0.1553E-01  0.1200E+02  0.1200E+02
     22.186  0.1442E-01  0.4652E-02  0.1200E+02  0.1200E+02
     22.277  0.1686E-01  0.3214E-02  0.1200E+02  0.1200E+02
     22.369  0.6715E-02  0.1059E-01  0.1200E+02  0.1200E+02
     22.460  0.1334E-02  0.1682E-01  0.1200E+02  0.1200E+02
     22.552  0.2227E-03  0.7565E-02  0.1200E+02  0.1200E+02
     22.643  0.0000E+00  0.1578E-02  0.1200E+02  0.1200E+02
     22.735  0.0000E+00  0.2654E-03  0.1200E+02  0.1200E+02
     22.827  0.0000E+00  0.0000E+00  0.1200E+02  0.1200E+02
     22.918  0.0000E+00  0.0000E+00  0.1200E+02  0.1200E+02
     23.010  0.0000E+00  0.0000E+00  0.1200E+02  0.1200E+02
     23.101  0.0000E+00  0.0000E+00  0.1200E+02  0.1200E+02
     23.193  0.0000E+00  0.0000E+00  0.1200E+02  0.1200E+02
     23.284  0.0000E+00  0.0000E+00  0.1200E+02  0.1200E+02
     23.376  0.0000E+00  0.0000E+00  0.1200E+02  0.1200E+02
     23.467  0.0000E+00  0.0000E+00  0.1200E+02  0.1200E+02
     23.559  0.0000E+00  0.0000E+00  0.1200E+02  0.1200E+02
     23.650  0.0000E+00  0.0000E+00  0.1200E+02  0.1200E+02
     23.65031293     -3.80840109  301      9.57905100      1.00000000
     -3.808  0.0000E+00  0.0000E+00  0.0000E+00  0.0000E+00  0.0000E+00  0.0000E+00  0.0000E+00  0.0000E+00  0.0000E+00  0.0000E+00  0.0000E+00  0.0000E+00  0.0000E+00  0.0000E+00  0.0000E+00  0.0000E+00  0.0000E+00  0.0000E+00
     -3.717  0.0000E+00  0.0000E+00  0.0000E+00  0.0000E+00  0.0000E+00  0.0000E+00  0.0000E+00  0.0000E+00  0.0000E+00  0.0000E+00  0.0000E+00  0.0000E+00  0.0000E+00  0.0000E+00  0.0000E+00  0.0000E+00  0.0000E+00  0.0000E+00
     -3.625  0.0000E+00  0.0000E+00  0.0000E+00  0.0000E+00  0.0000E+00  0.0000E+00  0.0000E+00  0.0000E+00  0.0000E+00  0.0000E+00  0.0000E+00  0.0000E+00  0.0000E+00  0.0000E+00  0.0000E+00  0.0000E+00  0.0000E+00  0.0000E+00
     -3.534  0.0000E+00  0.0000E+00  0.0000E+00  0.0000E+00  0.0000E+00  0.0000E+00  0.0000E+00  0.0000E+00  0.0000E+00  0.0000E+00  0.0000E+00  0.0000E+00  0.0000E+00  0.0000E+00  0.0000E+00  0.0000E+00  0.0000E+00  0.0000E+00
     -3.442  0.0000E+00  0.0000E+00  0.0000E+00  0.0000E+00  0.0000E+00  0.0000E+00  0.0000E+00  0.0000E+00  0.0000E+00  0.0000E+00  0.0000E+00  0.0000E+00  0.0000E+00  0.0000E+00  0.0000E+00  0.0000E+00  0.0000E+00  0.0000E+00
     -3.351  0.0000E+00  0.0000E+00  0.0000E+00  0.0000E+00  0.0000E+00  0.0000E+00  0.0000E+00  0.0000E+00  0.0000E+00  0.0000E+00  0.0000E+00  0.0000E+00  0.0000E+00  0.0000E+00  0.0000E+00  0.0000E+00  0.0000E+00  0.0000E+00
     -3.259  0.0000E+00  0.0000E+00  0.0000E+00  0.0000E+00  0.0000E+00  0.0000E+00  0.0000E+00  0.0000E+00  0.0000E+00  0.0000E+00  0.0000E+00  0.0000E+00  0.0000E+00  0.0000E+00  0.0000E+00  0.0000E+00  0.0000E+00  0.0000E+00
     -3.168  0.0000E+00  0.0000E+00  0.0000E+00  0.0000E+00  0.0000E+00  0.0000E+00  0.0000E+00  0.0000E+00  0.0000E+00  0.0000E+00  0.0000E+00  0.0000E+00  0.0000E+00  0.0000E+00  0.0000E+00  0.0000E+00  0.0000E+00  0.0000E+00
     -3.076  0.0000E+00  0.0000E+00  0.0000E+00  0.0000E+00  0.0000E+00  0.0000E+00  0.0000E+00  0.0000E+00  0.0000E+00  0.0000E+00  0.0000E+00  0.0000E+00  0.0000E+00  0.0000E+00  0.0000E+00  0.0000E+00  0.0000E+00  0.0000E+00
     -2.985  0.1345E-06  0.1378E-06  0.2059E-09  0.2111E-09  0.2059E-09  0.2111E-09  0.2058E-09  0.2110E-09  0.1956E-23  0.2511E-23  0.1218E-23  0.1894E-23  0.1872E-12  0.1917E-12  0.1956E-23  0.2511E-23  0.2404E-12  0.2462E-12
     -2.893  0.1002E-05  0.1027E-05  0.2536E-08  0.2600E-08  0.2536E-08  0.2600E-08  0.2535E-08  0.2599E-08  0.2741E-11  0.2814E-11  0.2742E-11  0.2815E-11  0.1830E-11  0.1873E-11  0.2741E-11  0.2814E-11  0.1919E-11  0.1965E-11
     -2.802  0.6285E-05  0.6437E-05  0.1692E-07  0.1735E-07  0.1692E-07  0.1735E-07  0.1692E-07  0.1735E-07  0.2409E-10  0.2472E-10  0.2409E-10  0.2472E-10  0.1055E-10  0.1080E-10  0.2409E-10  0.2472E-10  0.1129E-10  0.1156E-10
     -2.710  0.3912E-04  0.4005E-04  0.1135E-06  0.1164E-06  0.1135E-06  0.1164E-06  0.1135E-06  0.1163E-06  0.1603E-09  0.1645E-09  0.1603E-09  0.1645E-09  0.9828E-10  0.1006E-09  0.1603E-09  0.1645E-09  0.1103E-09  0.1129E-09
     -2.619  0.2206E-03  0.2253E-03  0.6834E-06  0.6998E-06  0.6834E-06  0.6998E-06  0.6832E-06  0.6996E-06  0.1045E-08  0.1072E-08  0.1045E-08  0.1072E-08  0.5766E-09  0.5896E-09  0.1045E-08  0.1072E-08  0.6451E-09  0.6597E-09
     -2.527  0.9311E-03  0.9455E-03  0.3487E-05  0.3557E-05  0.3487E-05  0.3557E-05  0.3486E-05  0.3557E-05  0.5950E-08  0.6091E-08  0.5951E-08  0.6092E-08  0.2982E-08  0.3039E-08  0.5950E-08  0.6091E-08  0.3299E-08  0.3361E-08
     -2.435  0.2290E-02  0.2306E-02  0.1177E-04  0.1193E-04  0.1177E-04  0.1193E-04  0.1177E-04  0.1193E-04  0.2591E-07  0.2637E-07  0.2591E-07  0.2637E-07  0.1146E-07  0.1163E-07  0.2591E-07  0.2637E-07  0.1279E-07  0.1299E-07
     -2.344  0.3302E-02  0.3309E-02  0.2583E-04  0.2608E-04  0.2583E-04  0.2608E-04  0.2581E-04  0.2606E-04  0.7234E-07  0.7328E-07  0.7236E-07  0.7330E-07  0.3943E-07  0.4002E-07  0.7234E-07  0.7328E-07  0.4674E-07  0.4748E-07
     -2.252  0.4510E-02  0.4527E-02  0.5230E-04  0.5275E-04  0.5230E-04  0.5275E-04  0.5228E-04  0.5273E-04  0.1870E-06  0.1894E-06  0.1870E-06  0.1895E-06  0.1080E-06  0.1089E-06  0.1870E-06  0.1894E-06  0.1296E-06  0.1306E-06
     -2.161  0.5465E-02  0.5455E-02  0.7775E-04  0.7788E-04  0.7775E-04  0.7788E-04  0.7777E-04  0.7790E-04  0.3743E-06  0.3766E-06  0.3743E-06  0.3766E-06  0.1589E-06  0.1590E-06  0.3743E-06  0.3766E-06  0.1873E-06  0.1874E-06
     -2.069  0.4815E-02  0.4810E-02  0.8861E-04  0.8901E-04  0.8861E-04  0.8901E-04  0.8857E-04  0.8896E-04  0.5679E-06  0.5722E-06  0.5682E-06  0.5725E-06  0.2266E-06  0.2286E-06  0.5679E-06  0.5722E-06  0.2528E-06  0.2549E-06
     -1.978  0.6237E-02  0.6258E-02  0.1456E-03  0.1465E-03  0.1456E-03  0.1465E-03  0.1454E-03  0.1464E-03  0.1001E-05  0.1007E-05  0.1001E-05  0.1007E-05  0.5244E-06  0.5294E-06  0.1001E-05  0.1007E-05  0.6062E-06  0.6127E-06
     -1.886  0.7242E-02  0.7232E-02  0.1925E-03  0.1927E-03  0.1925E-03  0.1927E-03  0.1925E-03  0.1927E-03  0.1325E-05  0.1329E-05  0.1325E-05  0.1330E-05  0.8602E-06  0.8617E-06  0.1325E-05  0.1329E-05  0.1042E-05  0.1044E-05
     -1.795  0.6663E-02  0.6652E-02  0.2044E-03  0.2046E-03  0.2044E-03  0.2046E-03  0.2045E-03  0.2047E-03  0.1904E-05  0.1917E-05  0.1906E-05  0.1918E-05  0.8669E-06  0.8656E-06  0.1904E-05  0.1917E-05  0.1028E-05  0.1026E-05
     -1.703  0.7374E-02  0.7380E-02  0.2606E-03  0.2614E-03  0.2606E-03  0.2614E-03  0.2605E-03  0.2614E-03  0.3130E-05  0.3145E-05  0.3131E-05  0.3146E-05  0.1039E-05  0.1041E-05  0.3130E-05  0.3145E-05  0.1157E-05  0.1159E-05
     -1.612  0.6989E-02  0.6957E-02  0.2732E-03  0.2727E-03  0.2732E-03  0.2727E-03  0.2731E-03  0.2726E-03  0.3359E-05  0.3349E-05  0.3356E-05  0.3346E-05  0.1291E-05  0.1294E-05  0.3359E-05  0.3349E-05  0.1487E-05  0.1492E-05
     -1.520  0.6765E-02  0.6787E-02  0.3143E-03  0.3163E-03  0.3143E-03  0.3163E-03  0.3137E-03  0.3156E-03  0.3607E-05  0.3630E-05  0.3610E-05  0.3632E-05  0.2116E-05  0.2133E-05  0.3607E-05  0.3630E-05  0.2578E-05  0.2600E-05
     -1.429  0.9105E-02  0.9113E-02  0.4630E-03  0.4641E-03  0.4630E-03  0.4641E-03  0.4629E-03  0.4640E-03  0.5894E-05  0.5922E-05  0.5900E-05  0.5928E-05  0.3291E-05  0.3296E-05  0.5894E-05  0.5922E-05  0.3931E-05  0.3935E-05
     -1.337  0.8987E-02  0.8972E-02  0.4931E-03  0.4931E-03  0.4931E-03  0.4931E-03  0.4932E-03  0.4933E-03  0.7486E-05  0.7506E-05  0.7489E-05  0.7509E-05  0.3420E-05  0.3419E-05  0.7486E-05  0.7506E-05  0.3911E-05  0.3908E-05
     -1.246  0.8796E-02  0.8784E-02  0.5268E-03  0.5268E-03  0.5268E-03  0.5268E-03  0.5270E-03  0.5270E-03  0.9126E-05  0.9147E-05  0.9121E-05  0.9142E-05  0.3598E-05  0.3593E-05  0.9126E-05  0.9147E-05  0.4145E-05  0.4141E-05
     -1.154  0.7301E-02  0.7261E-02  0.4664E-03  0.4647E-03  0.4664E-03  0.4647E-03  0.4670E-03  0.4653E-03  0.9491E-05  0.9475E-05  0.9482E-05  0.9466E-05  0.2791E-05  0.2775E-05  0.9491E-05  0.9475E-05  0.3234E-05  0.3216E-05
     -1.063  0.6417E-02  0.6431E-02  0.4717E-03  0.4742E-03  0.4717E-03  0.4742E-03  0.4703E-03  0.4727E-03  0.9981E-05  0.1002E-04  0.9998E-05  0.1004E-04  0.3309E-05  0.3340E-05  0.9981E-05  0.1002E-04  0.3866E-05  0.3902E-05
     -0.971  0.9299E-02  0.9334E-02  0.7699E-03  0.7743E-03  0.7699E-03  0.7743E-03  0.7676E-03  0.7719E-03  0.1495E-04  0.1502E-04  0.1497E-04  0.1504E-04  0.6889E-05  0.6937E-05  0.1495E-04  0.1502E-04  0.8034E-05  0.8090E-05
     -0.879  0.1032E-01  0.1029E-01  0.9118E-03  0.9104E-03  0.9118E-03  0.9104E-03  0.9123E-03  0.9109E-03  0.1764E-04  0.1763E-04  0.1762E-04  0.1761E-04  0.8640E-05  0.8621E-05  0.1764E-04  0.1763E-04  0.1022E-04  0.1020E-04
     -0.788  0.9060E-02  0.9056E-02  0.8665E-03  0.8678E-03  0.8665E-03  0.8678E-03  0.8663E-03  0.8676E-03  0.1937E-04  0.1944E-04  0.1938E-04  0.1945E-04  0.7799E-05  0.7799E-05  0.1937E-04  0.1944E-04  0.9343E-05  0.9343E-05
     -0.696  0.9418E-02  0.9385E-02  0.9604E-03  0.9584E-03  0.9604E-03  0.9584E-03  0.9609E-03  0.9590E-03  0.2333E-04  0.2329E-04  0.2332E-04  0.2328E-04  0.8650E-05  0.8635E-05  0.2333E-04  0.2329E-04  0.1033E-04  0.1031E-04
     -0.605  0.6595E-02  0.6560E-02  0.7199E-03  0.7176E-03  0.7199E-03  0.7176E-03  0.7214E-03  0.7190E-03  0.1932E-04  0.1931E-04  0.1933E-04  0.1933E-04  0.6593E-05  0.6561E-05  0.1932E-04  0.1931E-04  0.7593E-05  0.7549E-05
     -0.513  0.7465E-02  0.7498E-02  0.9056E-03  0.9120E-03  0.9056E-03  0.9120E-03  0.9027E-03  0.9090E-03  0.2886E-04  0.2907E-04  0.2892E-04  0.2913E-04  0.7451E-05  0.7487E-05  0.2886E-04  0.2907E-04  0.8132E-05  0.8172E-05
     -0.422  0.9835E-02  0.9833E-02  0.1365E-02  0.1370E-02  0.1365E-02  0.1370E-02  0.1360E-02  0.1365E-02  0.4149E-04  0.4154E-04  0.4150E-04  0.4155E-04  0.1071E-04  0.1073E-04  0.4149E-04  0.4154E-04  0.1199E-04  0.1202E-04
     -0.330  0.8925E-02  0.8879E-02  0.1526E-02  0.1525E-02  0.1526E-02  0.1525E-02  0.1524E-02  0.1523E-02  0.3976E-04  0.3964E-04  0.3971E-04  0.3959E-04  0.1170E-04  0.1166E-04  0.3976E-04  0.3964E-04  0.1353E-04  0.1349E-04
     -0.239  0.7010E-02  0.6982E-02  0.1416E-02  0.1415E-02  0.1416E-02  0.1415E-02  0.1416E-02  0.1415E-02  0.3691E-04  0.3691E-04  0.3692E-04  0.3693E-04  0.1040E-04  0.1037E-04  0.3691E-04  0.3691E-04  0.1234E-04  0.1230E-04
     -0.147  0.6293E-02  0.6276E-02  0.1467E-02  0.1469E-02  0.1467E-02  0.1469E-02  0.1465E-02  0.1466E-02  0.4156E-04  0.4161E-04  0.4162E-04  0.4168E-04  0.1060E-04  0.1058E-04  0.4156E-04  0.4161E-04  0.1262E-04  0.1260E-04
     -0.056  0.6622E-02  0.6633E-02  0.1557E-02  0.1557E-02  0.1557E-02  0.1557E-02  0.1561E-02  0.1561E-02  0.5340E-04  0.5364E-04  0.5349E-04  0.5374E-04  0.1099E-04  0.1097E-04  0.5340E-04  0.5364E-04  0.1241E-04  0.1237E-04
      0.036  0.8020E-02  0.8014E-02  0.1666E-02  0.1668E-02  0.1666E-02  0.1668E-02  0.1668E-02  0.1668E-02  0.7393E-04  0.7409E-04  0.7398E-04  0.7416E-04  0.1145E-04  0.1143E-04  0.7393E-04  0.7409E-04  0.1212E-04  0.1210E-04
      0.127  0.7350E-02  0.7321E-02  0.1769E-02  0.1769E-02  0.1769E-02  0.1769E-02  0.1766E-02  0.1767E-02  0.8112E-04  0.8110E-04  0.8114E-04  0.8113E-04  0.1155E-04  0.1152E-04  0.8112E-04  0.8110E-04  0.1270E-04  0.1268E-04
      0.219  0.6265E-02  0.6230E-02  0.1704E-02  0.1698E-02  0.1704E-02  0.1698E-02  0.1709E-02  0.1702E-02  0.8133E-04  0.8106E-04  0.8120E-04  0.8095E-04  0.1080E-04  0.1073E-04  0.8133E-04  0.8106E-04  0.1194E-04  0.1186E-04
      0.310  0.4020E-02  0.3982E-02  0.1162E-02  0.1155E-02  0.1162E-02  0.1155E-02  0.1166E-02  0.1159E-02  0.6009E-04  0.5977E-04  0.5992E-04  0.5961E-04  0.6971E-05  0.6901E-05  0.6009E-04  0.5977E-04  0.7722E-05  0.7648E-05
      0.402  0.3516E-02  0.3522E-02  0.1110E-02  0.1112E-02  0.1110E-02  0.1112E-02  0.1110E-02  0.1112E-02  0.6489E-04  0.6512E-04  0.6498E-04  0.6521E-04  0.6129E-05  0.6130E-05  0.6489E-04  0.6512E-04  0.6872E-05  0.6867E-05
      0.493  0.5151E-02  0.5175E-02  0.1393E-02  0.1399E-02  0.1393E-02  0.1399E-02  0.1392E-02  0.1398E-02  0.9438E-04  0.9488E-04  0.9472E-04  0.9522E-04  0.9300E-05  0.9366E-05  0.9438E-04  0.9488E-04  0.9768E-05  0.9831E-05
      0.585  0.6885E-02  0.6883E-02  0.1793E-02  0.1795E-02  0.1793E-02  0.1795E-02  0.1788E-02  0.1790E-02  0.1270E-03  0.1271E-03  0.1273E-03  0.1273E-03  0.1955E-04  0.1971E-04  0.1270E-03  0.1271E-03  0.2168E-04  0.2189E-04
      0.677  0.8262E-02  0.8276E-02  0.1698E-02  0.1693E-02  0.1698E-02  0.1693E-02  0.1699E-02  0.1694E-02  0.1172E-03  0.1167E-03  0.1168E-03  0.1164E-03  0.4252E-04  0.4285E-04  0.1172E-03  0.1167E-03  0.5185E-04  0.5230E-04
      0.768  0.1069E-01  0.1069E-01  0.1514E-02  0.1511E-02  0.1514E-02  0.1511E-02  0.1517E-02  0.1513E-02  0.1027E-03  0.1024E-03  0.1025E-03  0.1022E-03  0.6842E-04  0.6857E-04  0.1027E-03  0.1024E-03  0.8562E-04  0.8582E-04