   4   4   1   0
  0.1993404E+02  0.4303170E-09  0.4304606E-09  0.4304606E-09  0.5000000E-15
  1.000000000000000E-004
  CAR 
 unknown system                          
     15.84938213     -4.90430772  301      5.44640476      1.00000000
     -4.904  0.0000E+00  0.0000E+00  0.0000E+00  0.0000E+00
     -4.835  0.0000E+00  0.0000E+00  0.0000E+00  0.0000E+00
     -4.766  0.0000E+00  0.0000E+00  0.0000E+00  0.0000E+00
     -4.697  0.0000E+00  0.0000E+00  0.0000E+00  0.0000E+00
     -4.628  0.0000E+00  0.0000E+00  0.0000E+00  0.0000E+00
     -4.558  0.0000E+00  0.0000E+00  0.0000E+00  0.0000E+00
     -4.489  0.0000E+00  0.0000E+00  0.0000E+00  0.0000E+00
     -4.420  0.6768E-06  0.6314E-06  0.4682E-07  0.4368E-07
     -4.351  0.8388E-05  0.7825E-05  0.6271E-06  0.5850E-06
     -4.282  0.5227E-04  0.4876E-04  0.4243E-05  0.3958E-05
     -4.213  0.1891E-03  0.1764E-03  0.1732E-04  0.1616E-04
     -4.143  0.7952E-03  0.7424E-03  0.7234E-04  0.6752E-04
     -4.074  0.3015E-02  0.2821E-02  0.2809E-03  0.2626E-03
     -4.005  0.1073E-01  0.1011E-01  0.1023E-02  0.9617E-03
     -3.936  0.3081E-01  0.2944E-01  0.3154E-02  0.2998E-02
     -3.867  0.6269E-01  0.6103E-01  0.7491E-02  0.7220E-02
     -3.797  0.9352E-01  0.9201E-01  0.1396E-01  0.1359E-01
     -3.728  0.1258E+00  0.1242E+00  0.2266E-01  0.2218E-01
     -3.659  0.1465E+00  0.1461E+00  0.3280E-01  0.3229E-01
     -3.590  0.1530E+00  0.1522E+00  0.4338E-01  0.4281E-01
     -3.521  0.1845E+00  0.1827E+00  0.5615E-01  0.5545E-01
     -3.452  0.2065E+00  0.2062E+00  0.7044E-01  0.6972E-01
     -3.382  0.2090E+00  0.2087E+00  0.8491E-01  0.8416E-01
     -3.313  0.2228E+00  0.2222E+00  0.1003E+00  0.9954E-01
     -3.244  0.2216E+00  0.2218E+00  0.1157E+00  0.1149E+00
     -3.175  0.2425E+00  0.2401E+00  0.1324E+00  0.1315E+00
     -3.106  0.2862E+00  0.2848E+00  0.1523E+00  0.1512E+00
     -3.036  0.2939E+00  0.2940E+00  0.1726E+00  0.1716E+00
     -2.967  0.2847E+00  0.2857E+00  0.1923E+00  0.1914E+00
     -2.898  0.2554E+00  0.2566E+00  0.2100E+00  0.2091E+00
     -2.829  0.2734E+00  0.2704E+00  0.2289E+00  0.2278E+00
     -2.760  0.3477E+00  0.3445E+00  0.2530E+00  0.2517E+00
     -2.691  0.3677E+00  0.3683E+00  0.2784E+00  0.2772E+00
     -2.621  0.3608E+00  0.3606E+00  0.3034E+00  0.3021E+00
     -2.552  0.3408E+00  0.3433E+00  0.3270E+00  0.3259E+00
     -2.483  0.3047E+00  0.3044E+00  0.3481E+00  0.3470E+00
     -2.414  0.3699E+00  0.3649E+00  0.3737E+00  0.3722E+00
     -2.345  0.4472E+00  0.4452E+00  0.4047E+00  0.4031E+00
     -2.276  0.4376E+00  0.4395E+00  0.4349E+00  0.4335E+00
     -2.206  0.4053E+00  0.4061E+00  0.4630E+00  0.4616E+00
     -2.137  0.4006E+00  0.4006E+00  0.4907E+00  0.4893E+00
     -2.068  0.4181E+00  0.4162E+00  0.5197E+00  0.5181E+00
     -1.999  0.4551E+00  0.4539E+00  0.5512E+00  0.5496E+00
     -1.930  0.4456E+00  0.4475E+00  0.5820E+00  0.5805E+00
     -1.860  0.3746E+00  0.3795E+00  0.6080E+00  0.6068E+00
     -1.791  0.2967E+00  0.2987E+00  0.6285E+00  0.6275E+00
     -1.722  0.3045E+00  0.3021E+00  0.6496E+00  0.6484E+00
     -1.653  0.3797E+00  0.3754E+00  0.6759E+00  0.6744E+00
     -1.584  0.4239E+00  0.4239E+00  0.7052E+00  0.7038E+00
     -1.515  0.4053E+00  0.4061E+00  0.7333E+00  0.7319E+00
     -1.445  0.4025E+00  0.4029E+00  0.7612E+00  0.7598E+00
     -1.376  0.3844E+00  0.3851E+00  0.7878E+00  0.7865E+00
     -1.307  0.4193E+00  0.4154E+00  0.8168E+00  0.8152E+00
     -1.238  0.4988E+00  0.4958E+00  0.8513E+00  0.8495E+00
     -1.169  0.4967E+00  0.4991E+00  0.8857E+00  0.8841E+00
     -1.099  0.4444E+00  0.4465E+00  0.9165E+00  0.9150E+00
     -1.030  0.4161E+00  0.4176E+00  0.9453E+00  0.9439E+00
     -0.961  0.3951E+00  0.3947E+00  0.9726E+00  0.9712E+00
     -0.892  0.4423E+00  0.4388E+00  0.1003E+01  0.1002E+01
     -0.823  0.5225E+00  0.5182E+00  0.1039E+01  0.1037E+01
     -0.754  0.5858E+00  0.5845E+00  0.1080E+01  0.1078E+01
     -0.684  0.5730E+00  0.5753E+00  0.1120E+01  0.1118E+01
     -0.615  0.5141E+00  0.5169E+00  0.1155E+01  0.1154E+01
     -0.546  0.4920E+00  0.4909E+00  0.1189E+01  0.1187E+01
     -0.477  0.5508E+00  0.5471E+00  0.1227E+01  0.1225E+01
     -0.408  0.5978E+00  0.5979E+00  0.1269E+01  0.1267E+01
     -0.338  0.5452E+00  0.5497E+00  0.1306E+01  0.1305E+01
     -0.269  0.4599E+00  0.4628E+00  0.1338E+01  0.1337E+01
     -0.200  0.4593E+00  0.4562E+00  0.1370E+01  0.1368E+01
     -0.131  0.5880E+00  0.5796E+00  0.1411E+01  0.1409E+01
     -0.062  0.7317E+00  0.7271E+00  0.1461E+01  0.1459E+01
      0.007  0.7420E+00  0.7447E+00  0.1513E+01  0.1510E+01
      0.077  0.6500E+00  0.6556E+00  0.1558E+01  0.1556E+01
      0.146  0.5609E+00  0.5631E+00  0.1597E+01  0.1595E+01
      0.215  0.5978E+00  0.5936E+00  0.1638E+01  0.1636E+01
      0.284  0.6309E+00  0.6329E+00  0.1682E+01  0.1680E+01
      0.353  0.5576E+00  0.5608E+00  0.1720E+01  0.1718E+01
      0.422  0.5580E+00  0.5567E+00  0.1759E+01  0.1757E+01
      0.492  0.5392E+00  0.5424E+00  0.1796E+01  0.1795E+01
      0.561  0.4854E+00  0.4861E+00  0.1830E+01  0.1828E+01
      0.630  0.5084E+00  0.5063E+00  0.1865E+01  0.1863E+01
      0.699  0.5455E+00  0.5432E+00  0.1903E+01  0.1901E+01
      0.768  0.6184E+00  0.6142E+00  0.1946E+01  0.1943E+01
      0.838  0.6489E+00  0.6504E+00  0.1991E+01  0.1989E+01
      0.907  0.6109E+00  0.6113E+00  0.2033E+01  0.2031E+01
      0.976  0.6576E+00  0.6538E+00  0.2078E+01  0.2076E+01
      1.045  0.7199E+00  0.7183E+00  0.2128E+01  0.2126E+01
      1.114  0.6979E+00  0.7015E+00  0.2177E+01  0.2174E+01
      1.183  0.5821E+00  0.5894E+00  0.2217E+01  0.2215E+01
      1.253  0.4718E+00  0.4737E+00  0.2250E+01  0.2248E+01
      1.322  0.5304E+00  0.5248E+00  0.2286E+01  0.2284E+01
      1.391  0.6365E+00  0.6329E+00  0.2330E+01  0.2328E+01
      1.460  0.6758E+00  0.6748E+00  0.2377E+01  0.2375E+01
      1.529  0.6730E+00  0.6748E+00  0.2424E+01  0.2422E+01
      1.599  0.6296E+00  0.6306E+00  0.2467E+01  0.2465E+01
      1.668  0.6767E+00  0.6727E+00  0.2514E+01  0.2512E+01
      1.737  0.7311E+00  0.7309E+00  0.2565E+01  0.2562E+01
      1.806  0.6857E+00  0.6892E+00  0.2612E+01  0.2610E+01
      1.875  0.6104E+00  0.6138E+00  0.2655E+01  0.2653E+01
      1.944  0.5794E+00  0.5782E+00  0.2695E+01  0.2693E+01
      2.014  0.6749E+00  0.6695E+00  0.2741E+01  0.2739E+01
      2.083  0.7165E+00  0.7184E+00  0.2791E+01  0.2789E+01
      2.152  0.6600E+00  0.6622E+00  0.2837E+01  0.2834E+01
      2.221  0.6687E+00  0.6653E+00  0.2883E+01  0.2881E+01
      2.290  0.7654E+00  0.7608E+00  0.2936E+01  0.2933E+01
      2.359  0.8546E+00  0.8504E+00  0.2995E+01  0.2992E+01
      2.429  0.9025E+00  0.9036E+00  0.3058E+01  0.3055E+01
      2.498  0.8268E+00  0.8313E+00  0.3115E+01  0.3112E+01
      2.567  0.7493E+00  0.7535E+00  0.3167E+01  0.3164E+01
      2.636  0.6299E+00  0.6365E+00  0.3210E+01  0.3208E+01
      2.705  0.5699E+00  0.5681E+00  0.3250E+01  0.3248E+01
      2.775  0.7079E+00  0.6990E+00  0.3299E+01  0.3296E+01
      2.844  0.8351E+00  0.8332E+00  0.3357E+01  0.3354E+01
      2.913  0.7923E+00  0.7958E+00  0.3411E+01  0.3409E+01
      2.982  0.7634E+00  0.7624E+00  0.3464E+01  0.3462E+01
      3.051  0.7937E+00  0.7923E+00  0.3519E+01  0.3517E+01
      3.120  0.8374E+00  0.8346E+00  0.3577E+01  0.3574E+01
      3.190  0.9118E+00  0.9081E+00  0.3640E+01  0.3637E+01
      3.259  0.9698E+00  0.9691E+00  0.3707E+01  0.3704E+01
      3.328  0.9453E+00  0.9488E+00  0.3773E+01  0.3770E+01
      3.397  0.8151E+00  0.8240E+00  0.3829E+01  0.3827E+01
      3.466  0.6372E+00  0.6431E+00  0.3873E+01  0.3871E+01
      3.536  0.6407E+00  0.6362E+00  0.3918E+01  0.3916E+01
      3.605  0.7671E+00  0.7621E+00  0.3971E+01  0.3968E+01
      3.674  0.8007E+00  0.8015E+00  0.4026E+01  0.4024E+01
      3.743  0.8236E+00  0.8190E+00  0.4083E+01  0.4081E+01
      3.812  0.9584E+00  0.9528E+00  0.4150E+01  0.4146E+01
      3.881  0.1001E+01  0.1002E+01  0.4219E+01  0.4216E+01
      3.951  0.9342E+00  0.9399E+00  0.4284E+01  0.4281E+01
      4.020  0.7853E+00  0.7919E+00  0.4338E+01  0.4336E+01
      4.089  0.7262E+00  0.7256E+00  0.4388E+01  0.4386E+01
      4.158  0.7602E+00  0.7598E+00  0.4441E+01  0.4439E+01
      4.227  0.7284E+00  0.7302E+00  0.4491E+01  0.4489E+01
      4.296  0.7209E+00  0.7182E+00  0.4541E+01  0.4539E+01
      4.366  0.7721E+00  0.7703E+00  0.4595E+01  0.4592E+01
      4.435  0.8154E+00  0.8119E+00  0.4651E+01  0.4648E+01
      4.504  0.9606E+00  0.9531E+00  0.4718E+01  0.4714E+01
      4.573  0.1059E+01  0.1058E+01  0.4791E+01  0.4788E+01
      4.642  0.9848E+00  0.9909E+00  0.4859E+01  0.4856E+01
      4.712  0.8011E+00  0.8098E+00  0.4915E+01  0.4912E+01
      4.781  0.6574E+00  0.6610E+00  0.4960E+01  0.4958E+01
      4.850  0.6593E+00  0.6582E+00  0.5006E+01  0.5004E+01
      4.919  0.6802E+00  0.6796E+00  0.5053E+01  0.5051E+01
      4.988  0.7114E+00  0.7064E+00  0.5102E+01  0.5100E+01
      5.057  0.8340E+00  0.8279E+00  0.5160E+01  0.5157E+01
      5.127  0.8779E+00  0.8802E+00  0.5221E+01  0.5218E+01
      5.196  0.8107E+00  0.8137E+00  0.5277E+01  0.5274E+01
      5.265  0.8337E+00  0.8303E+00  0.5335E+01  0.5332E+01
      5.334  0.9199E+00  0.9167E+00  0.5398E+01  0.5395E+01
      5.403  0.9261E+00  0.9264E+00  0.5462E+01  0.5459E+01
      5.473  0.9127E+00  0.9125E+00  0.5525E+01  0.5522E+01
      5.542  0.8779E+00  0.8817E+00  0.5586E+01  0.5583E+01
      5.611  0.7852E+00  0.7874E+00  0.5641E+01  0.5638E+01
      5.680  0.8165E+00  0.8119E+00  0.5697E+01  0.5694E+01
      5.749  0.8997E+00  0.8979E+00  0.5759E+01  0.5756E+01
      5.818  0.9215E+00  0.9225E+00  0.5823E+01  0.5820E+01
      5.888  0.8821E+00  0.8846E+00  0.5884E+01  0.5881E+01
      5.957  0.8351E+00  0.8348E+00  0.5942E+01  0.5939E+01
      6.026  0.9065E+00  0.8993E+00  0.6005E+01  0.6001E+01
      6.095  0.1011E+01  0.1009E+01  0.6075E+01  0.6071E+01
      6.164  0.9611E+00  0.9660E+00  0.6141E+01  0.6138E+01
      6.234  0.9132E+00  0.9137E+00  0.6205E+01  0.6201E+01
      6.303  0.9560E+00  0.9521E+00  0.6271E+01  0.6267E+01
      6.372  0.1052E+01  0.1048E+01  0.6344E+01  0.6340E+01
      6.441  0.1110E+01  0.1110E+01  0.6420E+01  0.6417E+01
      6.510  0.1067E+01  0.1072E+01  0.6494E+01  0.6491E+01
      6.579  0.9082E+00  0.9172E+00  0.6557E+01  0.6554E+01
      6.649  0.7628E+00  0.7644E+00  0.6610E+01  0.6607E+01
      6.718  0.8054E+00  0.8014E+00  0.6666E+01  0.6663E+01
      6.787  0.8456E+00  0.8446E+00  0.6724E+01  0.6721E+01
      6.856  0.8697E+00  0.8667E+00  0.6784E+01  0.6781E+01
      6.925  0.9699E+00  0.9632E+00  0.6852E+01  0.6848E+01
      6.994  0.1123E+01  0.1116E+01  0.6929E+01  0.6925E+01
      7.064  0.1220E+01  0.1219E+01  0.7014E+01  0.7010E+01
      7.133  0.1114E+01  0.1124E+01  0.7091E+01  0.7087E+01
      7.202  0.9095E+00  0.9168E+00  0.7154E+01  0.7151E+01
      7.271  0.8928E+00  0.8865E+00  0.7216E+01  0.7212E+01
      7.340  0.1055E+01  0.1049E+01  0.7289E+01  0.7285E+01
      7.410  0.1065E+01  0.1071E+01  0.7362E+01  0.7359E+01
      7.479  0.8703E+00  0.8796E+00  0.7423E+01  0.7420E+01
      7.548  0.7143E+00  0.7195E+00  0.7472E+01  0.7470E+01
      7.617  0.6914E+00  0.6888E+00  0.7520E+01  0.7517E+01
      7.686  0.8030E+00  0.7970E+00  0.7576E+01  0.7573E+01
      7.755  0.8729E+00  0.8704E+00  0.7636E+01  0.7633E+01
      7.825  0.9553E+00  0.9487E+00  0.7702E+01  0.7699E+01
      7.894  0.1130E+01  0.1123E+01  0.7780E+01  0.7776E+01
      7.963  0.1233E+01  0.1231E+01  0.7866E+01  0.7862E+01
      8.032  0.1209E+01  0.1212E+01  0.7949E+01  0.7945E+01
      8.101  0.1071E+01  0.1077E+01  0.8024E+01  0.8020E+01
      8.171  0.9539E+00  0.9557E+00  0.8090E+01  0.8086E+01
      8.240  0.1042E+01  0.1032E+01  0.8162E+01  0.8157E+01
      8.309  0.1249E+01  0.1243E+01  0.8248E+01  0.8243E+01
      8.378  0.1119E+01  0.1136E+01  0.8326E+01  0.8322E+01
      8.447  0.8022E+00  0.8142E+00  0.8381E+01  0.8379E+01
      8.516  0.8208E+00  0.8091E+00  0.8438E+01  0.8435E+01
      8.586  0.1179E+01  0.1159E+01  0.8520E+01  0.8515E+01
      8.655  0.1359E+01  0.1362E+01  0.8614E+01  0.8609E+01
      8.724  0.1129E+01  0.1144E+01  0.8692E+01  0.8688E+01
      8.793  0.9880E+00  0.9889E+00  0.8760E+01  0.8757E+01
      8.862  0.9866E+00  0.9885E+00  0.8829E+01  0.8825E+01
      8.931  0.9301E+00  0.9304E+00  0.8893E+01  0.8890E+01
      9.001  0.1058E+01  0.1047E+01  0.8966E+01  0.8962E+01
      9.070  0.1146E+01  0.1145E+01  0.9046E+01  0.9041E+01
      9.139  0.1106E+01  0.1107E+01  0.9122E+01  0.9118E+01
      9.208  0.1085E+01  0.1089E+01  0.9197E+01  0.9193E+01
      9.277  0.9958E+00  0.1002E+01  0.9266E+01  0.9263E+01
      9.347  0.9516E+00  0.9520E+00  0.9332E+01  0.9329E+01
      9.416  0.1010E+01  0.1004E+01  0.9402E+01  0.9398E+01
      9.485  0.1200E+01  0.1187E+01  0.9485E+01  0.9480E+01
      9.554  0.1374E+01  0.1368E+01  0.9580E+01  0.9575E+01
      9.623  0.1350E+01  0.1354E+01  0.9673E+01  0.9669E+01
      9.692  0.1257E+01  0.1262E+01  0.9760E+01  0.9756E+01
      9.762  0.1146E+01  0.1155E+01  0.9840E+01  0.9836E+01
      9.831  0.1002E+01  0.1008E+01  0.9909E+01  0.9906E+01
      9.900  0.9781E+00  0.9743E+00  0.9977E+01  0.9973E+01
      9.969  0.1088E+01  0.1081E+01  0.1005E+02  0.1005E+02
     10.038  0.1123E+01  0.1126E+01  0.1013E+02  0.1013E+02
     10.108  0.1078E+01  0.1080E+01  0.1020E+02  0.1020E+02
     10.177  0.1140E+01  0.1134E+01  0.1028E+02  0.1028E+02
     10.246  0.1243E+01  0.1237E+01  0.1037E+02  0.1036E+02
     10.315  0.1275E+01  0.1275E+01  0.1046E+02  0.1045E+02
     10.384  0.1236E+01  0.1241E+01  0.1054E+02  0.1054E+02
     10.453  0.1076E+01  0.1088E+01  0.1062E+02  0.1061E+02
     10.523  0.8770E+00  0.8868E+00  0.1068E+02  0.1068E+02
     10.592  0.7824E+00  0.7816E+00  0.1073E+02  0.1073E+02
     10.661  0.9102E+00  0.8956E+00  0.1080E+02  0.1079E+02
     10.730  0.1156E+01  0.1146E+01  0.1088E+02  0.1087E+02
     10.799  0.1159E+01  0.1173E+01  0.1096E+02  0.1095E+02
     10.868  0.9728E+00  0.9875E+00  0.1102E+02  0.1102E+02
     10.938  0.8141E+00  0.8187E+00  0.1108E+02  0.1108E+02
     11.007  0.7430E+00  0.7361E+00  0.1113E+02  0.1113E+02
     11.076  0.8446E+00  0.8317E+00  0.1119E+02  0.1119E+02
     11.145  0.8937E+00  0.8909E+00  0.1125E+02  0.1125E+02
     11.214  0.7617E+00  0.7749E+00  0.1130E+02  0.1130E+02
     11.284  0.5731E+00  0.5842E+00  0.1134E+02  0.1134E+02
     11.353  0.4564E+00  0.4612E+00  0.1138E+02  0.1137E+02
     11.422  0.4414E+00  0.4438E+00  0.1141E+02  0.1140E+02
     11.491  0.4332E+00  0.4365E+00  0.1144E+02  0.1143E+02
     11.560  0.3897E+00  0.3911E+00  0.1146E+02  0.1146E+02
     11.629  0.3929E+00  0.3916E+00  0.1149E+02  0.1149E+02
     11.699  0.3805E+00  0.3828E+00  0.1152E+02  0.1152E+02
     11.768  0.3036E+00  0.3080E+00  0.1154E+02  0.1154E+02
     11.837  0.2557E+00  0.2568E+00  0.1156E+02  0.1155E+02
     11.906  0.2681E+00  0.2686E+00  0.1157E+02  0.1157E+02
     11.975  0.3183E+00  0.3209E+00  0.1160E+02  0.1160E+02
     12.045  0.4293E+00  0.4344E+00  0.1163E+02  0.1163E+02
     12.114  0.4866E+00  0.4886E+00  0.1166E+02  0.1166E+02
     12.183  0.3651E+00  0.3621E+00  0.1168E+02  0.1168E+02
     12.252  0.2303E+00  0.2289E+00  0.1170E+02  0.1170E+02
     12.321  0.1698E+00  0.1686E+00  0.1171E+02  0.1171E+02
     12.390  0.1872E+00  0.1843E+00  0.1173E+02  0.1172E+02
     12.460  0.2312E+00  0.2278E+00  0.1174E+02  0.1174E+02
     12.529  0.2918E+00  0.2883E+00  0.1176E+02  0.1176E+02
     12.598  0.3037E+00  0.3061E+00  0.1178E+02  0.1178E+02
     12.667  0.2186E+00  0.2242E+00  0.1180E+02  0.1180E+02
     12.736  0.1588E+00  0.1590E+00  0.1181E+02  0.1181E+02
     12.806  0.2043E+00  0.2003E+00  0.1182E+02  0.1182E+02
     12.875  0.2329E+00  0.2330E+00  0.1184E+02  0.1184E+02
     12.944  0.1810E+00  0.1817E+00  0.1185E+02  0.1185E+02
     13.013  0.1242E+00  0.1218E+00  0.1186E+02  0.1186E+02
     13.082  0.8851E-01  0.9085E-01  0.1187E+02  0.1187E+02
     13.151  0.7393E-01  0.7849E-01  0.1187E+02  0.1187E+02
     13.221  0.1123E+00  0.1119E+00  0.1188E+02  0.1188E+02
     13.290  0.1596E+00  0.1589E+00  0.1189E+02  0.1189E+02
     13.359  0.1626E+00  0.1630E+00  0.1190E+02  0.1190E+02
     13.428  0.1553E+00  0.1558E+00  0.1191E+02  0.1191E+02
     13.497  0.1269E+00  0.1297E+00  0.1192E+02  0.1192E+02
     13.566  0.6771E-01  0.7052E-01  0.1193E+02  0.1193E+02
     13.636  0.3662E-01  0.3739E-01  0.1193E+02  0.1193E+02
     13.705  0.3274E-01  0.3267E-01  0.1193E+02  0.1193E+02
     13.774  0.4424E-01  0.4306E-01  0.1193E+02  0.1193E+02
     13.843  0.7637E-01  0.7454E-01  0.1194E+02  0.1194E+02
     13.912  0.1012E+00  0.1005E+00  0.1195E+02  0.1195E+02
     13.982  0.1129E+00  0.1136E+00  0.1195E+02  0.1195E+02
     14.051  0.1246E+00  0.1269E+00  0.1196E+02  0.1196E+02
     14.120  0.1098E+00  0.1120E+00  0.1197E+02  0.1197E+02
     14.189  0.7141E-01  0.7015E-01  0.1198E+02  0.1198E+02
     14.258  0.6272E-01  0.6101E-01  0.1198E+02  0.1198E+02
     14.327  0.5298E-01  0.5402E-01  0.1198E+02  0.1198E+02
     14.397  0.2775E-01  0.2904E-01  0.1199E+02  0.1199E+02
     14.466  0.1979E-01  0.1977E-01  0.1199E+02  0.1199E+02
     14.535  0.3328E-01  0.3285E-01  0.1199E+02  0.1199E+02
     14.604  0.4437E-01  0.4513E-01  0.1199E+02  0.1199E+02
     14.673  0.3627E-01  0.3716E-01  0.1199E+02  0.1199E+02
     14.743  0.2127E-01  0.2113E-01  0.1200E+02  0.1200E+02
     14.812  0.1250E-01  0.1195E-01  0.1200E+02  0.1200E+02
     14.881  0.1549E-01  0.1485E-01  0.1200E+02  0.1200E+02
     14.950  0.1768E-01  0.1788E-01  0.1200E+02  0.1200E+02
     15.019  0.9986E-02  0.1057E-01  0.1200E+02  0.1200E+02
     15.088  0.3334E-02  0.3619E-02  0.1200E+02  0.1200E+02
     15.158  0.9096E-03  0.9950E-03  0.1200E+02  0.1200E+02
     15.227  0.2331E-03  0.2555E-03  0.1200E+02  0.1200E+02
     15.296  0.5876E-04  0.6444E-04  0.1200E+02  0.1200E+02
     15.365  0.0000E+00  0.0000E+00  0.1200E+02  0.1200E+02
     15.434  0.0000E+00  0.0000E+00  0.1200E+02  0.1200E+02
     15.503  0.0000E+00  0.0000E+00  0.1200E+02  0.1200E+02
     15.573  0.0000E+00  0.0000E+00  0.1200E+02  0.1200E+02
     15.642  0.0000E+00  0.0000E+00  0.1200E+02  0.1200E+02
     15.711  0.0000E+00  0.0000E+00  0.1200E+02  0.1200E+02
     15.780  0.0000E+00  0.0000E+00  0.1200E+02  0.1200E+02
     15.849  0.0000E+00  0.0000E+00  0.1200E+02  0.1200E+02
     15.84938213     -4.90430772  301      5.44640476      1.00000000
     -4.904  0.0000E+00  0.0000E+00  0.0000E+00  0.0000E+00  0.0000E+00  0.0000E+00  0.0000E+00  0.0000E+00  0.0000E+00  0.0000E+00  0.0000E+00  0.0000E+00  0.0000E+00  0.0000E+00  0.0000E+00  0.0000E+00  0.0000E+00  0.0000E+00
     -4.835  0.0000E+00  0.0000E+00  0.0000E+00  0.0000E+00  0.0000E+00  0.0000E+00  0.0000E+00  0.0000E+00  0.0000E+00  0.0000E+00  0.0000E+00  0.0000E+00  0.0000E+00  0.0000E+00  0.0000E+00  0.0000E+00  0.0000E+00  0.0000E+00
     -4.766  0.0000E+00  0.0000E+00  0.0000E+00  0.0000E+00  0.0000E+00  0.0000E+00  0.0000E+00  0.0000E+00  0.0000E+00  0.0000E+00  0.0000E+00  0.0000E+00  0.0000E+00  0.0000E+00  0.0000E+00  0.0000E+00  0.0000E+00  0.0000E+00
     -4.697  0.0000E+00  0.0000E+00  0.0000E+00  0.0000E+00  0.0000E+00  0.0000E+00  0.0000E+00  0.0000E+00  0.0000E+00  0.0000E+00  0.0000E+00  0.0000E+00  0.0000E+00  0.0000E+00  0.0000E+00  0.0000E+00  0.0000E+00  0.0000E+00
     -4.628  0.0000E+00  0.0000E+00  0.0000E+00  0.0000E+00  0.0000E+00  0.0000E+00  0.0000E+00  0.0000E+00  0.0000E+00  0.0000E+00  0.0000E+00  0.0000E+00  0.0000E+00  0.0000E+00  0.0000E+00  0.0000E+00  0.0000E+00  0.0000E+00
     -4.558  0.0000E+00  0.0000E+00  0.0000E+00  0.0000E+00  0.0000E+00  0.0000E+00  0.0000E+00  0.0000E+00  0.0000E+00  0.0000E+00  0.0000E+00  0.0000E+00  0.0000E+00  0.0000E+00  0.0000E+00  0.0000E+00  0.0000E+00  0.0000E+00
     -4.489  0.0000E+00  0.0000E+00  0.0000E+00  0.0000E+00  0.0000E+00  0.0000E+00  0.0000E+00  0.0000E+00  0.0000E+00  0.0000E+00  0.0000E+00  0.0000E+00  0.0000E+00  0.0000E+00  0.0000E+00  0.0000E+00  0.0000E+00  0.0000E+00
     -4.420  0.2020E-07  0.1884E-07  0.3822E-22  0.4190E-22  0.3822E-22  0.4190E-22  0.3007E-25  0.1027E-21  0.4934E-23  0.1290E-21  0.6152E-23  0.1647E-21  0.1653E-19  0.1438E-19  0.4934E-23  0.1290E-21  0.2130E-19  0.1868E-19
     -4.351  0.2486E-06  0.2318E-06  0.3676E-09  0.3429E-09  0.3676E-09  0.3429E-09  0.3675E-09  0.3429E-09  0.1415E-19  0.6402E-19  0.2856E-19  0.4195E-19  0.2353E-12  0.2194E-12  0.1415E-19  0.6402E-19  0.3024E-12  0.2820E-12
     -4.282  0.1540E-05  0.1436E-05  0.4285E-08  0.3998E-08  0.4285E-08  0.3998E-08  0.4285E-08  0.3999E-08  0.6542E-11  0.6107E-11  0.6539E-11  0.6105E-11  0.1645E-11  0.1533E-11  0.6542E-11  0.6107E-11  0.1636E-11  0.1525E-11
     -4.213  0.5570E-05  0.5194E-05  0.1532E-07  0.1430E-07  0.1532E-07  0.1430E-07  0.1532E-07  0.1430E-07  0.1954E-10  0.1824E-10  0.1953E-10  0.1824E-10  0.9237E-11  0.8608E-11  0.1954E-10  0.1824E-10  0.1045E-10  0.9735E-11
     -4.143  0.2337E-04  0.2181E-04  0.7578E-07  0.7073E-07  0.7578E-07  0.7073E-07  0.7575E-07  0.7071E-07  0.1319E-09  0.1231E-09  0.1319E-09  0.1231E-09  0.5745E-10  0.5354E-10  0.1319E-09  0.1231E-09  0.6589E-10  0.6141E-10
     -4.074  0.8863E-04  0.8289E-04  0.2814E-06  0.2630E-06  0.2814E-06  0.2630E-06  0.2814E-06  0.2629E-06  0.4686E-09  0.4376E-09  0.4685E-09  0.4376E-09  0.2024E-09  0.1887E-09  0.4686E-09  0.4376E-09  0.2310E-09  0.2154E-09
     -4.005  0.3151E-03  0.2966E-03  0.1077E-05  0.1010E-05  0.1077E-05  0.1010E-05  0.1077E-05  0.1010E-05  0.1940E-08  0.1815E-08  0.1940E-08  0.1815E-08  0.8035E-09  0.7513E-09  0.1940E-08  0.1815E-08  0.9117E-09  0.8525E-09
     -3.936  0.9023E-03  0.8620E-03  0.3572E-05  0.3381E-05  0.3572E-05  0.3381E-05  0.3571E-05  0.3380E-05  0.6959E-08  0.6546E-08  0.6958E-08  0.6545E-08  0.2856E-08  0.2686E-08  0.6959E-08  0.6546E-08  0.3261E-08  0.3065E-08
     -3.867  0.1826E-02  0.1777E-02  0.9340E-05  0.8961E-05  0.9340E-05  0.8961E-05  0.9337E-05  0.8958E-05  0.2151E-07  0.2044E-07  0.2151E-07  0.2044E-07  0.8853E-08  0.8377E-08  0.2151E-07  0.2044E-07  0.1028E-07  0.9715E-08
     -3.797  0.2697E-02  0.2654E-02  0.1938E-04  0.1876E-04  0.1938E-04  0.1876E-04  0.1937E-04  0.1875E-04  0.5434E-07  0.5205E-07  0.5434E-07  0.5204E-07  0.2413E-07  0.2301E-07  0.5434E-07  0.5205E-07  0.2863E-07  0.2728E-07
     -3.728  0.3585E-02  0.3539E-02  0.3489E-04  0.3404E-04  0.3489E-04  0.3404E-04  0.3488E-04  0.3404E-04  0.1219E-06  0.1176E-06  0.1219E-06  0.1176E-06  0.5154E-07  0.4996E-07  0.1219E-06  0.1176E-06  0.6120E-07  0.5935E-07
     -3.659  0.4128E-02  0.4118E-02  0.4991E-04  0.4929E-04  0.4991E-04  0.4929E-04  0.4990E-04  0.4929E-04  0.2219E-06  0.2165E-06  0.2219E-06  0.2164E-06  0.8127E-07  0.7951E-07  0.2219E-06  0.2165E-06  0.9471E-07  0.9279E-07
     -3.590  0.4240E-02  0.4219E-02  0.6583E-04  0.6472E-04  0.6583E-04  0.6472E-04  0.6579E-04  0.6468E-04  0.3610E-06  0.3521E-06  0.3610E-06  0.3521E-06  0.1366E-06  0.1321E-06  0.3610E-06  0.3521E-06  0.1566E-06  0.1515E-06
     -3.521  0.5027E-02  0.4978E-02  0.9601E-04  0.9441E-04  0.9601E-04  0.9441E-04  0.9595E-04  0.9434E-04  0.5709E-06  0.5598E-06  0.5708E-06  0.5598E-06  0.2549E-06  0.2477E-06  0.5709E-06  0.5598E-06  0.2994E-06  0.2905E-06
     -3.452  0.5550E-02  0.5541E-02  0.1218E-03  0.1209E-03  0.1218E-03  0.1209E-03  0.1218E-03  0.1209E-03  0.8021E-06  0.7888E-06  0.8021E-06  0.7888E-06  0.3669E-06  0.3627E-06  0.8021E-06  0.7888E-06  0.4392E-06  0.4342E-06
     -3.382  0.5529E-02  0.5521E-02  0.1399E-03  0.1388E-03  0.1399E-03  0.1388E-03  0.1399E-03  0.1389E-03  0.1174E-05  0.1150E-05  0.1175E-05  0.1151E-05  0.4159E-06  0.4128E-06  0.1174E-05  0.1150E-05  0.4869E-06  0.4842E-06
     -3.313  0.5793E-02  0.5778E-02  0.1675E-03  0.1662E-03  0.1675E-03  0.1662E-03  0.1674E-03  0.1662E-03  0.1665E-05  0.1645E-05  0.1665E-05  0.1645E-05  0.5097E-06  0.5026E-06  0.1665E-05  0.1645E-05  0.5825E-06  0.5744E-06
     -3.244  0.5651E-02  0.5660E-02  0.1855E-03  0.1846E-03  0.1855E-03  0.1846E-03  0.1853E-03  0.1845E-03  0.1893E-05  0.1884E-05  0.1892E-05  0.1883E-05  0.6880E-06  0.6747E-06  0.1893E-05  0.1884E-05  0.8091E-06  0.7919E-06
     -3.175  0.6028E-02  0.5972E-02  0.2293E-03  0.2260E-03  0.2293E-03  0.2260E-03  0.2290E-03  0.2257E-03  0.2368E-05  0.2326E-05  0.2369E-05  0.2327E-05  0.1054E-05  0.1031E-05  0.2368E-05  0.2326E-05  0.1267E-05  0.1240E-05
     -3.106  0.6992E-02  0.6958E-02  0.2915E-03  0.2894E-03  0.2915E-03  0.2894E-03  0.2915E-03  0.2893E-03  0.3346E-05  0.3296E-05  0.3347E-05  0.3298E-05  0.1403E-05  0.1390E-05  0.3346E-05  0.3296E-05  0.1657E-05  0.1645E-05
     -3.036  0.7066E-02  0.7069E-02  0.3191E-03  0.3183E-03  0.3191E-03  0.3183E-03  0.3192E-03  0.3183E-03  0.4231E-05  0.4189E-05  0.4231E-05  0.4189E-05  0.1517E-05  0.1512E-05  0.4231E-05  0.4189E-05  0.1752E-05  0.1747E-05
     -2.967  0.6722E-02  0.6747E-02  0.3291E-03  0.3294E-03  0.3291E-03  0.3294E-03  0.3293E-03  0.3295E-03  0.4974E-05  0.4944E-05  0.4971E-05  0.4941E-05  0.1516E-05  0.1519E-05  0.4974E-05  0.4944E-05  0.1754E-05  0.1757E-05
     -2.898  0.5891E-02  0.5923E-02  0.3172E-03  0.3173E-03  0.3172E-03  0.3173E-03  0.3172E-03  0.3173E-03  0.5356E-05  0.5336E-05  0.5355E-05  0.5334E-05  0.1437E-05  0.1432E-05  0.5356E-05  0.5336E-05  0.1675E-05  0.1667E-05
     -2.829  0.6056E-02  0.5998E-02  0.3755E-03  0.3697E-03  0.3755E-03  0.3697E-03  0.3746E-03  0.3688E-03  0.6378E-05  0.6290E-05  0.6384E-05  0.6296E-05  0.1995E-05  0.1943E-05  0.6378E-05  0.6290E-05  0.2338E-05  0.2277E-05
     -2.760  0.7450E-02  0.7385E-02  0.5122E-03  0.5062E-03  0.5122E-03  0.5062E-03  0.5113E-03  0.5053E-03  0.8438E-05  0.8339E-05  0.8441E-05  0.8343E-05  0.3101E-05  0.3051E-05  0.8438E-05  0.8339E-05  0.3646E-05  0.3586E-05
     -2.691  0.7690E-02  0.7706E-02  0.5670E-03  0.5667E-03  0.5670E-03  0.5667E-03  0.5671E-03  0.5668E-03  0.9780E-05  0.9725E-05  0.9774E-05  0.9720E-05  0.3512E-05  0.3509E-05  0.9780E-05  0.9725E-05  0.4169E-05  0.4164E-05
     -2.621  0.7344E-02  0.7346E-02  0.5842E-03  0.5826E-03  0.5842E-03  0.5826E-03  0.5840E-03  0.5826E-03  0.1130E-04  0.1120E-04  0.1130E-04  0.1120E-04  0.3517E-05  0.3509E-05  0.1130E-04  0.1120E-04  0.4197E-05  0.4189E-05
     -2.552  0.6753E-02  0.6807E-02  0.5761E-03  0.5790E-03  0.5761E-03  0.5790E-03  0.5766E-03  0.5794E-03  0.1209E-04  0.1210E-04  0.1209E-04  0.1210E-04  0.3445E-05  0.3461E-05  0.1209E-04  0.1210E-04  0.4074E-05  0.4097E-05
     -2.483  0.5783E-02  0.5791E-02  0.5471E-03  0.5446E-03  0.5471E-03  0.5446E-03  0.5467E-03  0.5444E-03  0.1284E-04  0.1270E-04  0.1285E-04  0.1271E-04  0.3134E-05  0.3131E-05  0.1284E-04  0.1270E-04  0.3577E-05  0.3582E-05
     -2.414  0.6575E-02  0.6506E-02  0.7151E-03  0.7029E-03  0.7151E-03  0.7029E-03  0.7128E-03  0.7007E-03  0.1777E-04  0.1747E-04  0.1779E-04  0.1749E-04  0.3759E-05  0.3708E-05  0.1777E-04  0.1747E-04  0.4209E-05  0.4151E-05
     -2.345  0.7307E-02  0.7305E-02  0.9294E-03  0.9219E-03  0.9294E-03  0.9219E-03  0.9269E-03  0.9193E-03  0.2178E-04  0.2168E-04  0.2177E-04  0.2168E-04  0.4616E-05  0.4589E-05  0.2178E-04  0.2168E-04  0.5260E-05  0.5224E-05
     -2.276  0.6474E-02  0.6532E-02  0.9743E-03  0.9756E-03  0.9743E-03  0.9756E-03  0.9738E-03  0.9750E-03  0.2172E-04  0.2174E-04  0.2170E-04  0.2173E-04  0.4600E-05  0.4618E-05  0.2172E-04  0.2174E-04  0.5346E-05  0.5362E-05
     -2.206  0.5454E-02  0.5486E-02  0.9549E-03  0.9543E-03  0.9549E-03  0.9543E-03  0.9545E-03  0.9540E-03  0.2240E-04  0.2229E-04  0.2241E-04  0.2230E-04  0.4315E-05  0.4319E-05  0.2240E-04  0.2229E-04  0.5080E-05  0.5084E-05
     -2.137  0.5037E-02  0.5040E-02  0.9783E-03  0.9774E-03  0.9783E-03  0.9774E-03  0.9789E-03  0.9780E-03  0.2558E-04  0.2535E-04  0.2561E-04  0.2537E-04  0.4298E-05  0.4300E-05  0.2558E-04  0.2535E-04  0.4997E-05  0.5008E-05
     -2.068  0.5418E-02  0.5378E-02  0.1011E-02  0.1008E-02  0.1011E-02  0.1008E-02  0.1012E-02  0.1009E-02  0.3274E-04  0.3226E-04  0.3278E-04  0.3230E-04  0.4337E-05  0.4328E-05  0.3274E-04  0.3226E-04  0.4789E-05  0.4793E-05
     -1.999  0.5886E-02  0.5885E-02  0.1103E-02  0.1099E-02  0.1103E-02  0.1099E-02  0.1103E-02  0.1098E-02  0.4111E-04  0.4080E-04  0.4113E-04  0.4082E-04  0.4578E-05  0.4571E-05  0.4111E-04  0.4080E-04  0.4954E-05  0.4945E-05
     -1.930  0.5311E-02  0.5353E-02  0.1117E-02  0.1120E-02  0.1117E-02  0.1120E-02  0.1118E-02  0.1120E-02  0.4358E-04  0.4359E-04  0.4356E-04  0.4357E-04  0.4430E-05  0.4452E-05  0.4358E-04  0.4359E-04  0.4876E-05  0.4898E-05
     -1.860  0.4216E-02  0.4278E-02  0.9590E-03  0.9706E-03  0.9590E-03  0.9706E-03  0.9616E-03  0.9732E-03  0.3985E-04  0.4016E-04  0.3977E-04  0.4008E-04  0.3657E-05  0.3711E-05  0.3985E-04  0.4016E-04  0.4035E-05  0.4094E-05
     -1.791  0.3142E-02  0.3172E-02  0.7752E-03  0.7797E-03  0.7752E-03  0.7797E-03  0.7764E-03  0.7810E-03  0.3567E-04  0.3566E-04  0.3565E-04  0.3563E-04  0.2794E-05  0.2818E-05  0.3567E-04  0.3566E-04  0.3093E-05  0.3120E-05
     -1.722  0.3228E-02  0.3192E-02  0.7977E-03  0.7920E-03  0.7977E-03  0.7920E-03  0.7979E-03  0.7923E-03  0.4190E-04  0.4132E-04  0.4197E-04  0.4138E-04  0.2968E-05  0.2929E-05  0.4190E-04  0.4132E-04  0.3219E-05  0.3183E-05
     -1.653  0.4220E-02  0.4167E-02  0.9827E-03  0.9718E-03  0.9827E-03  0.9718E-03  0.9813E-03  0.9704E-03  0.5693E-04  0.5614E-04  0.5706E-04  0.5626E-04  0.4618E-05  0.4496E-05  0.5693E-04  0.5614E-04  0.4948E-05  0.4811E-05
     -1.584  0.4849E-02  0.4829E-02  0.1091E-02  0.1092E-02  0.1091E-02  0.1092E-02  0.1090E-02  0.1091E-02  0.6486E-04  0.6488E-04  0.6483E-04  0.6486E-04  0.8269E-05  0.8020E-05  0.6486E-04  0.6488E-04  0.9483E-05  0.9159E-05
     -1.515  0.5713E-02  0.5636E-02  0.9835E-03  0.9901E-03  0.9835E-03  0.9901E-03  0.9847E-03  0.9913E-03  0.5884E-04  0.5922E-04  0.5871E-04  0.5909E-04  0.1618E-04  0.1566E-04  0.5884E-04  0.5922E-04  0.1985E-04  0.1917E-04
     -1.445  0.7593E-02  0.7504E-02  0.8716E-03  0.8774E-03  0.8716E-03  0.8774E-03  0.8734E-03  0.8791E-03  0.5192E-04  0.5228E-04  0.5179E-04  0.5215E-04  0.2759E-04  0.2709E-04  0.5192E-04  0.5228E-04  0.3467E-04  0.3402E-04