   4   4   1   0
  0.1379936E+02  0.3806650E-09  0.3807921E-09  0.3807921E-09  0.5000000E-15
  1.000000000000000E-004
  CAR 
 unknown system                          
     22.35901042     -4.02915648  301      8.86497184      1.00000000
     -4.029  0.0000E+00  0.0000E+00  0.0000E+00  0.0000E+00
     -3.941  0.0000E+00  0.0000E+00  0.0000E+00  0.0000E+00
     -3.853  0.0000E+00  0.0000E+00  0.0000E+00  0.0000E+00
     -3.765  0.0000E+00  0.0000E+00  0.0000E+00  0.0000E+00
     -3.677  0.0000E+00  0.0000E+00  0.0000E+00  0.0000E+00
     -3.589  0.0000E+00  0.0000E+00  0.0000E+00  0.0000E+00
     -3.501  0.0000E+00  0.0000E+00  0.0000E+00  0.0000E+00
     -3.413  0.0000E+00  0.0000E+00  0.0000E+00  0.0000E+00
     -3.325  0.0000E+00  0.0000E+00  0.0000E+00  0.0000E+00
     -3.238  0.3983E-05  0.4167E-05  0.3503E-06  0.3665E-06
     -3.150  0.2811E-04  0.2941E-04  0.2823E-05  0.2954E-05
     -3.062  0.1666E-03  0.1743E-03  0.1747E-04  0.1828E-04
     -2.974  0.9524E-03  0.9954E-03  0.1012E-03  0.1058E-03
     -2.886  0.5015E-02  0.5221E-02  0.5424E-03  0.5651E-03
     -2.798  0.2006E-01  0.2067E-01  0.2307E-02  0.2383E-02
     -2.710  0.4847E-01  0.4921E-01  0.6570E-02  0.6711E-02
     -2.622  0.7137E-01  0.7188E-01  0.1285E-01  0.1303E-01
     -2.534  0.9870E-01  0.9960E-01  0.2153E-01  0.2179E-01
     -2.446  0.1196E+00  0.1195E+00  0.3205E-01  0.3231E-01
     -2.358  0.1103E+00  0.1105E+00  0.4176E-01  0.4203E-01
     -2.270  0.1434E+00  0.1446E+00  0.5437E-01  0.5475E-01
     -2.182  0.1671E+00  0.1670E+00  0.6907E-01  0.6945E-01
     -2.094  0.1584E+00  0.1584E+00  0.8302E-01  0.8339E-01
     -2.006  0.1770E+00  0.1777E+00  0.9860E-01  0.9902E-01
     -1.918  0.1699E+00  0.1691E+00  0.1136E+00  0.1139E+00
     -1.830  0.1743E+00  0.1758E+00  0.1289E+00  0.1294E+00
     -1.742  0.2316E+00  0.2324E+00  0.1493E+00  0.1498E+00
     -1.654  0.2331E+00  0.2328E+00  0.1698E+00  0.1703E+00
     -1.566  0.2311E+00  0.2308E+00  0.1902E+00  0.1907E+00
     -1.478  0.1945E+00  0.1931E+00  0.2073E+00  0.2077E+00
     -1.390  0.1856E+00  0.1871E+00  0.2236E+00  0.2241E+00
     -1.302  0.2728E+00  0.2752E+00  0.2476E+00  0.2484E+00
     -1.214  0.3009E+00  0.2999E+00  0.2741E+00  0.2748E+00
     -1.126  0.2786E+00  0.2792E+00  0.2986E+00  0.2993E+00
     -1.038  0.2866E+00  0.2852E+00  0.3238E+00  0.3244E+00
     -0.951  0.2126E+00  0.2116E+00  0.3426E+00  0.3430E+00
     -0.863  0.2591E+00  0.2620E+00  0.3654E+00  0.3661E+00
     -0.775  0.3534E+00  0.3549E+00  0.3965E+00  0.3974E+00
     -0.687  0.3536E+00  0.3524E+00  0.4276E+00  0.4284E+00
     -0.599  0.3102E+00  0.3096E+00  0.4549E+00  0.4556E+00
     -0.511  0.3078E+00  0.3081E+00  0.4820E+00  0.4827E+00
     -0.423  0.3244E+00  0.3252E+00  0.5106E+00  0.5114E+00
     -0.335  0.3600E+00  0.3607E+00  0.5423E+00  0.5431E+00
     -0.247  0.3629E+00  0.3627E+00  0.5742E+00  0.5751E+00
     -0.159  0.3279E+00  0.3256E+00  0.6031E+00  0.6037E+00
     -0.071  0.2231E+00  0.2212E+00  0.6227E+00  0.6232E+00
      0.017  0.2176E+00  0.2187E+00  0.6419E+00  0.6425E+00
      0.105  0.2842E+00  0.2868E+00  0.6669E+00  0.6677E+00
      0.193  0.3577E+00  0.3582E+00  0.6984E+00  0.6993E+00
      0.281  0.3533E+00  0.3529E+00  0.7295E+00  0.7303E+00
      0.369  0.3531E+00  0.3524E+00  0.7605E+00  0.7613E+00
      0.457  0.3132E+00  0.3120E+00  0.7881E+00  0.7888E+00
      0.545  0.3154E+00  0.3162E+00  0.8159E+00  0.8167E+00
      0.633  0.3610E+00  0.3631E+00  0.8477E+00  0.8486E+00
      0.721  0.4240E+00  0.4244E+00  0.8850E+00  0.8860E+00
      0.809  0.3793E+00  0.3770E+00  0.9184E+00  0.9192E+00
      0.897  0.3172E+00  0.3161E+00  0.9463E+00  0.9470E+00
      0.985  0.2968E+00  0.2974E+00  0.9724E+00  0.9732E+00
      1.073  0.3448E+00  0.3463E+00  0.1003E+01  0.1004E+01
      1.161  0.4237E+00  0.4265E+00  0.1040E+01  0.1041E+01
      1.248  0.5030E+00  0.5035E+00  0.1084E+01  0.1086E+01
      1.336  0.4705E+00  0.4683E+00  0.1126E+01  0.1127E+01
      1.424  0.3722E+00  0.3700E+00  0.1159E+01  0.1159E+01
      1.512  0.3443E+00  0.3457E+00  0.1189E+01  0.1190E+01
      1.600  0.4396E+00  0.4423E+00  0.1228E+01  0.1229E+01
      1.688  0.4985E+00  0.4981E+00  0.1271E+01  0.1273E+01
      1.776  0.4315E+00  0.4287E+00  0.1309E+01  0.1310E+01
      1.864  0.3271E+00  0.3252E+00  0.1338E+01  0.1339E+01
      1.952  0.3138E+00  0.3150E+00  0.1366E+01  0.1367E+01
      2.040  0.4330E+00  0.4376E+00  0.1404E+01  0.1405E+01
      2.128  0.5959E+00  0.5989E+00  0.1456E+01  0.1458E+01
      2.216  0.6048E+00  0.6023E+00  0.1510E+01  0.1511E+01
      2.304  0.4954E+00  0.4930E+00  0.1553E+01  0.1554E+01
      2.392  0.4249E+00  0.4241E+00  0.1591E+01  0.1592E+01
      2.480  0.4721E+00  0.4751E+00  0.1632E+01  0.1633E+01
      2.568  0.5605E+00  0.5612E+00  0.1682E+01  0.1683E+01
      2.656  0.4959E+00  0.4928E+00  0.1725E+01  0.1726E+01
      2.744  0.4083E+00  0.4076E+00  0.1761E+01  0.1762E+01
      2.832  0.3921E+00  0.3908E+00  0.1796E+01  0.1797E+01
      2.920  0.3387E+00  0.3386E+00  0.1826E+01  0.1826E+01
      3.008  0.4550E+00  0.4608E+00  0.1866E+01  0.1867E+01
      3.096  0.5770E+00  0.5768E+00  0.1916E+01  0.1918E+01
      3.184  0.5224E+00  0.5213E+00  0.1962E+01  0.1964E+01
      3.272  0.5070E+00  0.5066E+00  0.2007E+01  0.2008E+01
      3.360  0.5183E+00  0.5196E+00  0.2053E+01  0.2054E+01
      3.447  0.6086E+00  0.6118E+00  0.2106E+01  0.2108E+01
      3.535  0.6505E+00  0.6486E+00  0.2163E+01  0.2165E+01
      3.623  0.5078E+00  0.5036E+00  0.2208E+01  0.2209E+01
      3.711  0.3940E+00  0.3922E+00  0.2243E+01  0.2244E+01
      3.799  0.3754E+00  0.3766E+00  0.2276E+01  0.2277E+01
      3.887  0.4745E+00  0.4789E+00  0.2318E+01  0.2319E+01
      3.975  0.5902E+00  0.5918E+00  0.2370E+01  0.2371E+01
      4.063  0.6106E+00  0.6106E+00  0.2423E+01  0.2425E+01
      4.151  0.6284E+00  0.6287E+00  0.2479E+01  0.2480E+01
      4.239  0.6175E+00  0.6174E+00  0.2533E+01  0.2535E+01
      4.327  0.6223E+00  0.6234E+00  0.2588E+01  0.2590E+01
      4.415  0.6488E+00  0.6486E+00  0.2645E+01  0.2647E+01
      4.503  0.5871E+00  0.5843E+00  0.2697E+01  0.2698E+01
      4.591  0.4966E+00  0.4959E+00  0.2740E+01  0.2742E+01
      4.679  0.5266E+00  0.5293E+00  0.2787E+01  0.2788E+01
      4.767  0.5902E+00  0.5907E+00  0.2839E+01  0.2840E+01
      4.855  0.6140E+00  0.6130E+00  0.2893E+01  0.2894E+01
      4.943  0.5913E+00  0.5924E+00  0.2945E+01  0.2946E+01
      5.031  0.6761E+00  0.6788E+00  0.3004E+01  0.3006E+01
      5.119  0.7353E+00  0.7371E+00  0.3069E+01  0.3071E+01
      5.207  0.7403E+00  0.7388E+00  0.3134E+01  0.3136E+01
      5.295  0.5716E+00  0.5643E+00  0.3185E+01  0.3186E+01
      5.383  0.3793E+00  0.3764E+00  0.3218E+01  0.3219E+01
      5.471  0.4126E+00  0.4145E+00  0.3254E+01  0.3255E+01
      5.559  0.4887E+00  0.4923E+00  0.3297E+01  0.3299E+01
      5.647  0.6415E+00  0.6466E+00  0.3354E+01  0.3356E+01
      5.734  0.7426E+00  0.7425E+00  0.3419E+01  0.3421E+01
      5.822  0.6524E+00  0.6498E+00  0.3477E+01  0.3478E+01
      5.910  0.6658E+00  0.6702E+00  0.3535E+01  0.3537E+01
      5.998  0.8364E+00  0.8388E+00  0.3609E+01  0.3611E+01
      6.086  0.7677E+00  0.7625E+00  0.3677E+01  0.3678E+01
      6.174  0.5874E+00  0.5836E+00  0.3728E+01  0.3730E+01
      6.262  0.4932E+00  0.4921E+00  0.3772E+01  0.3773E+01
      6.350  0.5921E+00  0.5960E+00  0.3824E+01  0.3825E+01
      6.438  0.7117E+00  0.7135E+00  0.3886E+01  0.3888E+01
      6.526  0.6535E+00  0.6505E+00  0.3944E+01  0.3946E+01
      6.614  0.5584E+00  0.5587E+00  0.3993E+01  0.3995E+01
      6.702  0.6749E+00  0.6789E+00  0.4053E+01  0.4054E+01
      6.790  0.7040E+00  0.7012E+00  0.4114E+01  0.4116E+01
      6.878  0.6190E+00  0.6192E+00  0.4169E+01  0.4171E+01
      6.966  0.7253E+00  0.7289E+00  0.4233E+01  0.4235E+01
      7.054  0.8347E+00  0.8347E+00  0.4306E+01  0.4308E+01
      7.142  0.7432E+00  0.7375E+00  0.4372E+01  0.4373E+01
      7.230  0.5046E+00  0.5001E+00  0.4416E+01  0.4417E+01
      7.318  0.3950E+00  0.3940E+00  0.4451E+01  0.4452E+01
      7.406  0.4439E+00  0.4462E+00  0.4490E+01  0.4491E+01
      7.494  0.5589E+00  0.5626E+00  0.4539E+01  0.4541E+01
      7.582  0.6687E+00  0.6717E+00  0.4598E+01  0.4600E+01
      7.670  0.7473E+00  0.7490E+00  0.4664E+01  0.4666E+01
      7.758  0.7932E+00  0.7925E+00  0.4734E+01  0.4736E+01
      7.846  0.7850E+00  0.7858E+00  0.4803E+01  0.4805E+01
      7.933  0.8541E+00  0.8540E+00  0.4878E+01  0.4880E+01
      8.021  0.7178E+00  0.7138E+00  0.4941E+01  0.4943E+01
      8.109  0.6167E+00  0.6169E+00  0.4996E+01  0.4997E+01
      8.197  0.6250E+00  0.6232E+00  0.5051E+01  0.5052E+01
      8.285  0.5141E+00  0.5100E+00  0.5096E+01  0.5097E+01
      8.373  0.4740E+00  0.4753E+00  0.5138E+01  0.5139E+01
      8.461  0.6171E+00  0.6238E+00  0.5192E+01  0.5194E+01
      8.549  0.8385E+00  0.8423E+00  0.5266E+01  0.5268E+01
      8.637  0.8741E+00  0.8742E+00  0.5343E+01  0.5345E+01
      8.725  0.8205E+00  0.8169E+00  0.5415E+01  0.5417E+01
      8.813  0.6523E+00  0.6478E+00  0.5472E+01  0.5474E+01
      8.901  0.5061E+00  0.5035E+00  0.5517E+01  0.5518E+01
      8.989  0.5247E+00  0.5265E+00  0.5563E+01  0.5565E+01
      9.077  0.6193E+00  0.6209E+00  0.5618E+01  0.5619E+01
      9.165  0.6727E+00  0.6766E+00  0.5677E+01  0.5679E+01
      9.253  0.8426E+00  0.8458E+00  0.5751E+01  0.5753E+01
      9.341  0.7420E+00  0.7349E+00  0.5816E+01  0.5818E+01
      9.429  0.4676E+00  0.4621E+00  0.5858E+01  0.5859E+01
      9.517  0.4775E+00  0.4832E+00  0.5900E+01  0.5901E+01
      9.605  0.6928E+00  0.6947E+00  0.5961E+01  0.5962E+01
      9.693  0.6495E+00  0.6443E+00  0.6018E+01  0.6019E+01
      9.781  0.6778E+00  0.6812E+00  0.6077E+01  0.6079E+01
      9.869  0.7575E+00  0.7597E+00  0.6144E+01  0.6146E+01
      9.957  0.6595E+00  0.6569E+00  0.6202E+01  0.6204E+01
     10.045  0.6386E+00  0.6394E+00  0.6258E+01  0.6260E+01
     10.132  0.7496E+00  0.7506E+00  0.6324E+01  0.6326E+01
     10.220  0.9099E+00  0.9118E+00  0.6404E+01  0.6406E+01
     10.308  0.9002E+00  0.8968E+00  0.6484E+01  0.6485E+01
     10.396  0.7335E+00  0.7325E+00  0.6548E+01  0.6550E+01
     10.484  0.8433E+00  0.8486E+00  0.6622E+01  0.6624E+01
     10.572  0.9642E+00  0.9641E+00  0.6707E+01  0.6709E+01
     10.660  0.8503E+00  0.8484E+00  0.6782E+01  0.6784E+01
     10.748  0.7421E+00  0.7409E+00  0.6848E+01  0.6849E+01
     10.836  0.7545E+00  0.7557E+00  0.6914E+01  0.6916E+01
     10.924  0.7623E+00  0.7596E+00  0.6981E+01  0.6983E+01
     11.012  0.6860E+00  0.6837E+00  0.7042E+01  0.7043E+01
     11.100  0.5853E+00  0.5839E+00  0.7093E+01  0.7094E+01
     11.188  0.6044E+00  0.6067E+00  0.7146E+01  0.7148E+01
     11.276  0.7861E+00  0.7892E+00  0.7216E+01  0.7217E+01
     11.364  0.8978E+00  0.9006E+00  0.7295E+01  0.7297E+01
     11.452  0.8955E+00  0.8931E+00  0.7373E+01  0.7375E+01
     11.540  0.6965E+00  0.6904E+00  0.7435E+01  0.7436E+01
     11.628  0.5736E+00  0.5745E+00  0.7485E+01  0.7486E+01
     11.716  0.7223E+00  0.7259E+00  0.7549E+01  0.7550E+01
     11.804  0.8923E+00  0.8948E+00  0.7627E+01  0.7629E+01
     11.892  0.8638E+00  0.8608E+00  0.7703E+01  0.7705E+01
     11.980  0.7158E+00  0.7142E+00  0.7766E+01  0.7768E+01
     12.068  0.8196E+00  0.8252E+00  0.7839E+01  0.7840E+01
     12.156  0.8887E+00  0.8864E+00  0.7917E+01  0.7919E+01
     12.244  0.8404E+00  0.8394E+00  0.7991E+01  0.7992E+01
     12.332  0.8161E+00  0.8150E+00  0.8063E+01  0.8064E+01
     12.419  0.6338E+00  0.6305E+00  0.8118E+01  0.8120E+01
     12.507  0.5975E+00  0.5983E+00  0.8171E+01  0.8172E+01
     12.595  0.7299E+00  0.7327E+00  0.8235E+01  0.8237E+01
     12.683  0.8482E+00  0.8512E+00  0.8310E+01  0.8312E+01
     12.771  0.8693E+00  0.8677E+00  0.8387E+01  0.8388E+01
     12.859  0.7870E+00  0.7842E+00  0.8456E+01  0.8457E+01
     12.947  0.8533E+00  0.8529E+00  0.8531E+01  0.8532E+01
     13.035  0.8457E+00  0.8441E+00  0.8605E+01  0.8607E+01
     13.123  0.7683E+00  0.7710E+00  0.8673E+01  0.8675E+01
     13.211  0.8337E+00  0.8356E+00  0.8746E+01  0.8748E+01
     13.299  0.7562E+00  0.7518E+00  0.8813E+01  0.8814E+01
     13.387  0.6529E+00  0.6497E+00  0.8871E+01  0.8871E+01
     13.475  0.6488E+00  0.6493E+00  0.8928E+01  0.8929E+01
     13.563  0.7098E+00  0.7124E+00  0.8990E+01  0.8991E+01
     13.651  0.8107E+00  0.8141E+00  0.9062E+01  0.9063E+01
     13.739  0.9360E+00  0.9373E+00  0.9144E+01  0.9146E+01
     13.827  0.8633E+00  0.8607E+00  0.9220E+01  0.9221E+01
     13.915  0.6608E+00  0.6539E+00  0.9278E+01  0.9279E+01
     14.003  0.6032E+00  0.6026E+00  0.9331E+01  0.9332E+01
     14.091  0.8411E+00  0.8495E+00  0.9405E+01  0.9407E+01
     14.179  0.9888E+00  0.9871E+00  0.9492E+01  0.9494E+01
     14.267  0.8770E+00  0.8716E+00  0.9569E+01  0.9570E+01
     14.355  0.1028E+01  0.1029E+01  0.9660E+01  0.9661E+01
     14.443  0.1018E+01  0.1021E+01  0.9749E+01  0.9751E+01
     14.531  0.8747E+00  0.8743E+00  0.9827E+01  0.9828E+01
     14.618  0.8417E+00  0.8373E+00  0.9901E+01  0.9901E+01
     14.706  0.9737E+00  0.9752E+00  0.9986E+01  0.9987E+01
     14.794  0.9816E+00  0.9799E+00  0.1007E+02  0.1007E+02
     14.882  0.7594E+00  0.7588E+00  0.1014E+02  0.1014E+02
     14.970  0.7019E+00  0.6975E+00  0.1020E+02  0.1020E+02
     15.058  0.6105E+00  0.6080E+00  0.1026E+02  0.1026E+02
     15.146  0.6498E+00  0.6528E+00  0.1031E+02  0.1031E+02
     15.234  0.8892E+00  0.8963E+00  0.1039E+02  0.1039E+02
     15.322  0.1027E+01  0.1030E+01  0.1048E+02  0.1048E+02
     15.410  0.8477E+00  0.8427E+00  0.1056E+02  0.1056E+02
     15.498  0.6473E+00  0.6454E+00  0.1061E+02  0.1061E+02
     15.586  0.6938E+00  0.6957E+00  0.1067E+02  0.1067E+02
     15.674  0.8645E+00  0.8686E+00  0.1075E+02  0.1075E+02
     15.762  0.1100E+01  0.1105E+01  0.1085E+02  0.1085E+02
     15.850  0.1075E+01  0.1056E+01  0.1094E+02  0.1094E+02
     15.938  0.8275E+00  0.8006E+00  0.1101E+02  0.1101E+02
     16.026  0.7580E+00  0.7517E+00  0.1108E+02  0.1108E+02
     16.114  0.7107E+00  0.7342E+00  0.1114E+02  0.1114E+02
     16.202  0.6619E+00  0.6790E+00  0.1120E+02  0.1120E+02
     16.290  0.6145E+00  0.6215E+00  0.1126E+02  0.1126E+02
     16.378  0.5142E+00  0.5104E+00  0.1130E+02  0.1130E+02
     16.466  0.4122E+00  0.4090E+00  0.1134E+02  0.1134E+02
     16.554  0.4657E+00  0.4667E+00  0.1138E+02  0.1138E+02
     16.642  0.4817E+00  0.4800E+00  0.1142E+02  0.1142E+02
     16.730  0.3338E+00  0.3314E+00  0.1145E+02  0.1145E+02
     16.817  0.3152E+00  0.3147E+00  0.1148E+02  0.1148E+02
     16.905  0.3752E+00  0.3705E+00  0.1151E+02  0.1151E+02
     16.993  0.3234E+00  0.3185E+00  0.1154E+02  0.1154E+02
     17.081  0.2222E+00  0.2252E+00  0.1156E+02  0.1156E+02
     17.169  0.2296E+00  0.2322E+00  0.1158E+02  0.1158E+02
     17.257  0.2567E+00  0.2587E+00  0.1160E+02  0.1160E+02
     17.345  0.3005E+00  0.3023E+00  0.1163E+02  0.1163E+02
     17.433  0.2968E+00  0.2976E+00  0.1165E+02  0.1166E+02
     17.521  0.2472E+00  0.2466E+00  0.1168E+02  0.1168E+02
     17.609  0.1542E+00  0.1496E+00  0.1169E+02  0.1169E+02
     17.697  0.7853E-01  0.7688E-01  0.1170E+02  0.1170E+02
     17.785  0.1018E+00  0.1040E+00  0.1171E+02  0.1171E+02
     17.873  0.1470E+00  0.1493E+00  0.1172E+02  0.1172E+02
     17.961  0.1992E+00  0.2005E+00  0.1174E+02  0.1174E+02
     18.049  0.2596E+00  0.2598E+00  0.1176E+02  0.1176E+02
     18.137  0.2558E+00  0.2541E+00  0.1178E+02  0.1178E+02
     18.225  0.1821E+00  0.1810E+00  0.1180E+02  0.1180E+02
     18.313  0.9802E-01  0.9820E-01  0.1181E+02  0.1181E+02
     18.401  0.8900E-01  0.8884E-01  0.1181E+02  0.1181E+02
     18.489  0.1249E+00  0.1253E+00  0.1183E+02  0.1183E+02
     18.577  0.2206E+00  0.2222E+00  0.1184E+02  0.1184E+02
     18.665  0.2307E+00  0.2304E+00  0.1187E+02  0.1187E+02
     18.753  0.1555E+00  0.1548E+00  0.1188E+02  0.1188E+02
     18.841  0.1604E+00  0.1607E+00  0.1189E+02  0.1189E+02
     18.929  0.1053E+00  0.1041E+00  0.1190E+02  0.1190E+02
     19.017  0.3187E-01  0.3122E-01  0.1190E+02  0.1190E+02
     19.104  0.1749E-01  0.1758E-01  0.1191E+02  0.1191E+02
     19.192  0.5133E-01  0.5197E-01  0.1191E+02  0.1191E+02
     19.280  0.1087E+00  0.1088E+00  0.1192E+02  0.1192E+02
     19.368  0.8512E-01  0.8435E-01  0.1193E+02  0.1193E+02
     19.456  0.3173E-01  0.3082E-01  0.1193E+02  0.1193E+02
     19.544  0.3230E-01  0.2842E-01  0.1193E+02  0.1193E+02
     19.632  0.7601E-01  0.5777E-01  0.1194E+02  0.1194E+02
     19.720  0.8805E-01  0.5380E-01  0.1195E+02  0.1194E+02
     19.808  0.4779E-01  0.3544E-01  0.1195E+02  0.1195E+02
     19.896  0.4132E-01  0.6134E-01  0.1196E+02  0.1195E+02
     19.984  0.7899E-01  0.1141E+00  0.1196E+02  0.1196E+02
     20.072  0.8195E-01  0.9693E-01  0.1197E+02  0.1197E+02
     20.160  0.4139E-01  0.4167E-01  0.1197E+02  0.1197E+02
     20.248  0.2416E-01  0.2373E-01  0.1198E+02  0.1198E+02
     20.336  0.4574E-01  0.4583E-01  0.1198E+02  0.1198E+02
     20.424  0.4414E-01  0.4379E-01  0.1198E+02  0.1198E+02
     20.512  0.1625E-01  0.1606E-01  0.1199E+02  0.1199E+02
     20.600  0.1150E-01  0.1179E-01  0.1199E+02  0.1199E+02
     20.688  0.2973E-01  0.3059E-01  0.1199E+02  0.1199E+02
     20.776  0.4117E-01  0.4189E-01  0.1199E+02  0.1199E+02
     20.864  0.2896E-01  0.2833E-01  0.1200E+02  0.1200E+02
     20.952  0.1229E-01  0.1080E-01  0.1200E+02  0.1200E+02
     21.040  0.7197E-02  0.5018E-02  0.1200E+02  0.1200E+02
     21.128  0.1470E-01  0.1117E-01  0.1200E+02  0.1200E+02
     21.216  0.1498E-01  0.1691E-01  0.1200E+02  0.1200E+02
     21.303  0.5128E-02  0.7985E-02  0.1200E+02  0.1200E+02
     21.391  0.1039E-02  0.1806E-02  0.1200E+02  0.1200E+02
     21.479  0.1843E-03  0.3279E-03  0.1200E+02  0.1200E+02
     21.567  0.0000E+00  0.0000E+00  0.1200E+02  0.1200E+02
     21.655  0.0000E+00  0.0000E+00  0.1200E+02  0.1200E+02
     21.743  0.0000E+00  0.0000E+00  0.1200E+02  0.1200E+02
     21.831  0.0000E+00  0.0000E+00  0.1200E+02  0.1200E+02
     21.919  0.0000E+00  0.0000E+00  0.1200E+02  0.1200E+02
     22.007  0.0000E+00  0.0000E+00  0.1200E+02  0.1200E+02
     22.095  0.0000E+00  0.0000E+00  0.1200E+02  0.1200E+02
     22.183  0.0000E+00  0.0000E+00  0.1200E+02  0.1200E+02
     22.271  0.0000E+00  0.0000E+00  0.1200E+02  0.1200E+02
     22.359  0.0000E+00  0.0000E+00  0.1200E+02  0.1200E+02
     22.35901042     -4.02915648  301      8.86497184      1.00000000
     -4.029  0.0000E+00  0.0000E+00  0.0000E+00  0.0000E+00  0.0000E+00  0.0000E+00  0.0000E+00  0.0000E+00  0.0000E+00  0.0000E+00  0.0000E+00  0.0000E+00  0.0000E+00  0.0000E+00  0.0000E+00  0.0000E+00  0.0000E+00  0.0000E+00
     -3.941  0.0000E+00  0.0000E+00  0.0000E+00  0.0000E+00  0.0000E+00  0.0000E+00  0.0000E+00  0.0000E+00  0.0000E+00  0.0000E+00  0.0000E+00  0.0000E+00  0.0000E+00  0.0000E+00  0.0000E+00  0.0000E+00  0.0000E+00  0.0000E+00
     -3.853  0.0000E+00  0.0000E+00  0.0000E+00  0.0000E+00  0.0000E+00  0.0000E+00  0.0000E+00  0.0000E+00  0.0000E+00  0.0000E+00  0.0000E+00  0.0000E+00  0.0000E+00  0.0000E+00  0.0000E+00  0.0000E+00  0.0000E+00  0.0000E+00
     -3.765  0.0000E+00  0.0000E+00  0.0000E+00  0.0000E+00  0.0000E+00  0.0000E+00  0.0000E+00  0.0000E+00  0.0000E+00  0.0000E+00  0.0000E+00  0.0000E+00  0.0000E+00  0.0000E+00  0.0000E+00  0.0000E+00  0.0000E+00  0.0000E+00
     -3.677  0.0000E+00  0.0000E+00  0.0000E+00  0.0000E+00  0.0000E+00  0.0000E+00  0.0000E+00  0.0000E+00  0.0000E+00  0.0000E+00  0.0000E+00  0.0000E+00  0.0000E+00  0.0000E+00  0.0000E+00  0.0000E+00  0.0000E+00  0.0000E+00
     -3.589  0.0000E+00  0.0000E+00  0.0000E+00  0.0000E+00  0.0000E+00  0.0000E+00  0.0000E+00  0.0000E+00  0.0000E+00  0.0000E+00  0.0000E+00  0.0000E+00  0.0000E+00  0.0000E+00  0.0000E+00  0.0000E+00  0.0000E+00  0.0000E+00
     -3.501  0.0000E+00  0.0000E+00  0.0000E+00  0.0000E+00  0.0000E+00  0.0000E+00  0.0000E+00  0.0000E+00  0.0000E+00  0.0000E+00  0.0000E+00  0.0000E+00  0.0000E+00  0.0000E+00  0.0000E+00  0.0000E+00  0.0000E+00  0.0000E+00
     -3.413  0.0000E+00  0.0000E+00  0.0000E+00  0.0000E+00  0.0000E+00  0.0000E+00  0.0000E+00  0.0000E+00  0.0000E+00  0.0000E+00  0.0000E+00  0.0000E+00  0.0000E+00  0.0000E+00  0.0000E+00  0.0000E+00  0.0000E+00  0.0000E+00
     -3.325  0.0000E+00  0.0000E+00  0.0000E+00  0.0000E+00  0.0000E+00  0.0000E+00  0.0000E+00  0.0000E+00  0.0000E+00  0.0000E+00  0.0000E+00  0.0000E+00  0.0000E+00  0.0000E+00  0.0000E+00  0.0000E+00  0.0000E+00  0.0000E+00
     -3.238  0.1818E-06  0.1900E-06  0.2755E-09  0.2880E-09  0.2755E-09  0.2880E-09  0.2753E-09  0.2879E-09  0.2822E-22  0.2826E-22  0.1706E-21  0.1897E-22  0.2419E-12  0.2529E-12  0.2822E-22  0.2826E-22  0.3107E-12  0.3249E-12
     -3.150  0.1278E-05  0.1336E-05  0.3242E-08  0.3390E-08  0.3242E-08  0.3390E-08  0.3241E-08  0.3390E-08  0.3538E-11  0.3703E-11  0.3539E-11  0.3704E-11  0.2243E-11  0.2346E-11  0.3538E-11  0.3703E-11  0.2333E-11  0.2439E-11
     -3.062  0.7563E-05  0.7905E-05  0.2125E-07  0.2222E-07  0.2125E-07  0.2222E-07  0.2125E-07  0.2222E-07  0.2935E-10  0.3072E-10  0.2935E-10  0.3072E-10  0.1544E-10  0.1614E-10  0.2935E-10  0.3072E-10  0.1720E-10  0.1798E-10
     -2.974  0.4322E-04  0.4513E-04  0.1270E-06  0.1328E-06  0.1270E-06  0.1328E-06  0.1270E-06  0.1327E-06  0.1841E-09  0.1926E-09  0.1841E-09  0.1927E-09  0.1064E-09  0.1112E-09  0.1841E-09  0.1926E-09  0.1189E-09  0.1243E-09
     -2.886  0.2274E-03  0.2365E-03  0.7171E-06  0.7482E-06  0.7171E-06  0.7482E-06  0.7168E-06  0.7480E-06  0.1129E-08  0.1180E-08  0.1129E-08  0.1180E-08  0.5972E-09  0.6232E-09  0.1129E-08  0.1180E-08  0.6693E-09  0.6983E-09
     -2.798  0.9074E-03  0.9339E-03  0.3420E-05  0.3544E-05  0.3420E-05  0.3544E-05  0.3419E-05  0.3543E-05  0.5965E-08  0.6214E-08  0.5965E-08  0.6215E-08  0.2905E-08  0.3014E-08  0.5965E-08  0.6214E-08  0.3225E-08  0.3345E-08
     -2.710  0.2180E-02  0.2211E-02  0.1116E-04  0.1143E-04  0.1116E-04  0.1143E-04  0.1116E-04  0.1143E-04  0.2470E-07  0.2548E-07  0.2470E-07  0.2548E-07  0.1096E-07  0.1130E-07  0.2470E-07  0.2548E-07  0.1232E-07  0.1272E-07
     -2.622  0.3176E-02  0.3195E-02  0.2450E-04  0.2494E-04  0.2450E-04  0.2494E-04  0.2448E-04  0.2492E-04  0.6847E-07  0.7013E-07  0.6848E-07  0.7014E-07  0.3649E-07  0.3758E-07  0.6847E-07  0.7013E-07  0.4327E-07  0.4460E-07
     -2.534  0.4329E-02  0.4363E-02  0.4889E-04  0.4965E-04  0.4889E-04  0.4965E-04  0.4888E-04  0.4963E-04  0.1741E-06  0.1782E-06  0.1741E-06  0.1782E-06  0.9603E-07  0.9765E-07  0.1741E-06  0.1782E-06  0.1151E-06  0.1170E-06
     -2.446  0.5192E-02  0.5181E-02  0.7213E-04  0.7238E-04  0.7213E-04  0.7238E-04  0.7214E-04  0.7239E-04  0.3427E-06  0.3468E-06  0.3426E-06  0.3467E-06  0.1425E-06  0.1431E-06  0.3427E-06  0.3468E-06  0.1676E-06  0.1682E-06
     -2.358  0.4707E-02  0.4708E-02  0.8470E-04  0.8543E-04  0.8470E-04  0.8543E-04  0.8465E-04  0.8538E-04  0.5294E-06  0.5370E-06  0.5295E-06  0.5371E-06  0.2105E-06  0.2143E-06  0.5294E-06  0.5370E-06  0.2360E-06  0.2401E-06
     -2.270  0.6005E-02  0.6045E-02  0.1365E-03  0.1380E-03  0.1365E-03  0.1380E-03  0.1363E-03  0.1378E-03  0.9135E-06  0.9236E-06  0.9136E-06  0.9237E-06  0.4713E-06  0.4798E-06  0.9135E-06  0.9236E-06  0.5467E-06  0.5573E-06
     -2.182  0.6905E-02  0.6894E-02  0.1789E-03  0.1794E-03  0.1789E-03  0.1794E-03  0.1789E-03  0.1793E-03  0.1222E-05  0.1230E-05  0.1222E-05  0.1230E-05  0.7540E-06  0.7569E-06  0.1222E-05  0.1230E-05  0.9121E-06  0.9160E-06
     -2.094  0.6444E-02  0.6434E-02  0.1928E-03  0.1934E-03  0.1928E-03  0.1934E-03  0.1929E-03  0.1935E-03  0.1771E-05  0.1794E-05  0.1772E-05  0.1795E-05  0.7733E-06  0.7730E-06  0.1771E-05  0.1794E-05  0.9143E-06  0.9123E-06
     -2.006  0.7076E-02  0.7090E-02  0.2434E-03  0.2447E-03  0.2434E-03  0.2447E-03  0.2434E-03  0.2447E-03  0.2839E-05  0.2864E-05  0.2840E-05  0.2864E-05  0.9286E-06  0.9344E-06  0.2839E-05  0.2864E-05  0.1038E-05  0.1044E-05
     -1.918  0.6685E-02  0.6642E-02  0.2556E-03  0.2551E-03  0.2556E-03  0.2551E-03  0.2555E-03  0.2550E-03  0.3040E-05  0.3030E-05  0.3038E-05  0.3028E-05  0.1170E-05  0.1178E-05  0.3040E-05  0.3030E-05  0.1355E-05  0.1366E-05
     -1.830  0.6662E-02  0.6706E-02  0.3018E-03  0.3051E-03  0.3018E-03  0.3051E-03  0.3012E-03  0.3045E-03  0.3402E-05  0.3443E-05  0.3404E-05  0.3445E-05  0.1921E-05  0.1949E-05  0.3402E-05  0.3443E-05  0.2336E-05  0.2371E-05
     -1.742  0.8702E-02  0.8718E-02  0.4311E-03  0.4329E-03  0.4311E-03  0.4329E-03  0.4310E-03  0.4328E-03  0.5402E-05  0.5448E-05  0.5407E-05  0.5454E-05  0.2887E-05  0.2896E-05  0.5402E-05  0.5448E-05  0.3439E-05  0.3447E-05
     -1.654  0.8626E-02  0.8600E-02  0.4614E-03  0.4615E-03  0.4614E-03  0.4615E-03  0.4615E-03  0.4617E-03  0.6859E-05  0.6892E-05  0.6861E-05  0.6893E-05  0.3023E-05  0.3022E-05  0.6859E-05  0.6892E-05  0.3462E-05  0.3459E-05
     -1.566  0.8390E-02  0.8368E-02  0.4890E-03  0.4889E-03  0.4890E-03  0.4889E-03  0.4892E-03  0.4892E-03  0.8309E-05  0.8342E-05  0.8304E-05  0.8337E-05  0.3135E-05  0.3126E-05  0.8309E-05  0.8342E-05  0.3614E-05  0.3605E-05
     -1.478  0.6950E-02  0.6889E-02  0.4341E-03  0.4316E-03  0.4341E-03  0.4316E-03  0.4345E-03  0.4320E-03  0.8603E-05  0.8587E-05  0.8596E-05  0.8581E-05  0.2480E-05  0.2461E-05  0.8603E-05  0.8587E-05  0.2876E-05  0.2854E-05
     -1.390  0.6378E-02  0.6412E-02  0.4601E-03  0.4647E-03  0.4601E-03  0.4647E-03  0.4587E-03  0.4632E-03  0.9367E-05  0.9444E-05  0.9383E-05  0.9460E-05  0.3131E-05  0.3187E-05  0.9367E-05  0.9444E-05  0.3658E-05  0.3724E-05
     -1.302  0.9042E-02  0.9103E-02  0.7313E-03  0.7381E-03  0.7313E-03  0.7381E-03  0.7292E-03  0.7361E-03  0.1378E-04  0.1390E-04  0.1380E-04  0.1391E-04  0.6195E-05  0.6269E-05  0.1378E-04  0.1390E-04  0.7235E-05  0.7322E-05
     -1.214  0.9749E-02  0.9703E-02  0.8418E-03  0.8398E-03  0.8418E-03  0.8398E-03  0.8423E-03  0.8403E-03  0.1599E-04  0.1599E-04  0.1598E-04  0.1598E-04  0.7482E-05  0.7458E-05  0.1599E-04  0.1599E-04  0.8860E-05  0.8836E-05
     -1.126  0.8788E-02  0.8790E-02  0.8212E-03  0.8235E-03  0.8212E-03  0.8235E-03  0.8209E-03  0.8232E-03  0.1802E-04  0.1814E-04  0.1802E-04  0.1815E-04  0.6944E-05  0.6952E-05  0.1802E-04  0.1814E-04  0.8314E-05  0.8323E-05
     -1.038  0.8830E-02  0.8773E-02  0.8790E-03  0.8752E-03  0.8790E-03  0.8752E-03  0.8797E-03  0.8760E-03  0.2083E-04  0.2077E-04  0.2083E-04  0.2076E-04  0.7472E-05  0.7445E-05  0.2083E-04  0.2077E-04  0.8912E-05  0.8877E-05
     -0.951  0.6364E-02  0.6323E-02  0.6818E-03  0.6795E-03  0.6818E-03  0.6795E-03  0.6828E-03  0.6805E-03  0.1810E-04  0.1814E-04  0.1811E-04  0.1816E-04  0.5805E-05  0.5772E-05  0.1810E-04  0.1814E-04  0.6654E-05  0.6604E-05
     -0.863  0.7402E-02  0.7467E-02  0.8868E-03  0.8977E-03  0.8868E-03  0.8977E-03  0.8839E-03  0.8947E-03  0.2726E-04  0.2762E-04  0.2731E-04  0.2768E-04  0.6812E-05  0.6882E-05  0.2726E-04  0.2762E-04  0.7463E-05  0.7541E-05
     -0.775  0.9392E-02  0.9397E-02  0.1299E-02  0.1306E-02  0.1299E-02  0.1306E-02  0.1294E-02  0.1301E-02  0.3760E-04  0.3770E-04  0.3760E-04  0.3770E-04  0.9522E-05  0.9573E-05  0.3760E-04  0.3770E-04  0.1070E-04  0.1077E-04
     -0.687  0.8372E-02  0.8310E-02  0.1421E-02  0.1419E-02  0.1421E-02  0.1419E-02  0.1419E-02  0.1417E-02  0.3579E-04  0.3565E-04  0.3574E-04  0.3561E-04  0.1011E-04  0.1008E-04  0.3579E-04  0.3565E-04  0.1171E-04  0.1169E-04
     -0.599  0.6668E-02  0.6635E-02  0.1327E-02  0.1325E-02  0.1327E-02  0.1325E-02  0.1327E-02  0.1325E-02  0.3412E-04  0.3419E-04  0.3413E-04  0.3421E-04  0.9052E-05  0.9034E-05  0.3412E-04  0.3419E-04  0.1073E-04  0.1072E-04
     -0.511  0.6025E-02  0.6009E-02  0.1385E-02  0.1387E-02  0.1385E-02  0.1387E-02  0.1384E-02  0.1386E-02  0.3859E-04  0.3875E-04  0.3865E-04  0.3881E-04  0.9278E-05  0.9284E-05  0.3859E-04  0.3875E-04  0.1101E-04  0.1101E-04
     -0.423  0.6456E-02  0.6486E-02  0.1453E-02  0.1454E-02  0.1453E-02  0.1454E-02  0.1457E-02  0.1458E-02  0.5010E-04  0.5058E-04  0.5019E-04  0.5067E-04  0.9510E-05  0.9507E-05  0.5010E-04  0.5058E-04  0.1065E-04  0.1062E-04
     -0.335  0.7636E-02  0.7635E-02  0.1568E-02  0.1571E-02  0.1568E-02  0.1571E-02  0.1567E-02  0.1570E-02  0.6785E-04  0.6818E-04  0.6791E-04  0.6824E-04  0.9983E-05  0.9989E-05  0.6785E-04  0.6818E-04  0.1061E-04  0.1062E-04
     -0.247  0.6938E-02  0.6902E-02  0.1657E-02  0.1658E-02  0.1657E-02  0.1658E-02  0.1655E-02  0.1656E-02  0.7392E-04  0.7400E-04  0.7394E-04  0.7402E-04  0.1003E-04  0.1001E-04  0.7392E-04  0.7400E-04  0.1105E-04  0.1104E-04
     -0.159  0.5802E-02  0.5751E-02  0.1543E-02  0.1531E-02  0.1543E-02  0.1531E-02  0.1547E-02  0.1536E-02  0.7197E-04  0.7162E-04  0.7184E-04  0.7148E-04  0.9056E-05  0.8982E-05  0.7197E-04  0.7162E-04  0.1000E-04  0.9919E-05
     -0.071  0.3745E-02  0.3698E-02  0.1069E-02  0.1060E-02  0.1069E-02  0.1060E-02  0.1072E-02  0.1063E-02  0.5434E-04  0.5407E-04  0.5422E-04  0.5396E-04  0.5898E-05  0.5830E-05  0.5434E-04  0.5407E-04  0.6547E-05  0.6477E-05
      0.017  0.3492E-02  0.3513E-02  0.1060E-02  0.1064E-02  0.1060E-02  0.1064E-02  0.1060E-02  0.1064E-02  0.6116E-04  0.6167E-04  0.6125E-04  0.6176E-04  0.5514E-05  0.5543E-05  0.6116E-04  0.6167E-04  0.6133E-05  0.6155E-05
      0.105  0.5096E-02  0.5145E-02  0.1340E-02  0.1351E-02  0.1340E-02  0.1351E-02  0.1339E-02  0.1349E-02  0.8892E-04  0.8990E-04  0.8923E-04  0.9022E-04  0.8658E-05  0.8804E-05  0.8892E-04  0.8990E-04  0.9099E-05  0.9248E-05
      0.193  0.6567E-02  0.6576E-02  0.1674E-02  0.1674E-02  0.1674E-02  0.1674E-02  0.1671E-02  0.1672E-02  0.1149E-03  0.1151E-03  0.1150E-03  0.1151E-03  0.1791E-04  0.1823E-04  0.1149E-03  0.1151E-03  0.2008E-04  0.2050E-04
      0.281  0.7927E-02  0.7972E-02  0.1551E-02  0.1543E-02  0.1551E-02  0.1543E-02  0.1552E-02  0.1545E-02  0.1040E-03  0.1035E-03  0.1038E-03  0.1033E-03  0.3816E-04  0.3878E-04  0.1040E-03  0.1035E-03  0.4670E-04  0.4753E-04
      0.369  0.1023E-01  0.1024E-01  0.1391E-02  0.1384E-02  0.1391E-02  0.1384E-02  0.1393E-02  0.1388E-02  0.9197E-04  0.9163E-04  0.9182E-04  0.9141E-04  0.6045E-04  0.6072E-04  0.9197E-04  0.9163E-04  0.7572E-04  0.7607E-04