   2   2   1   0
  0.2243268E+02  0.3197041E-09  0.3197041E-09  0.5068554E-09  0.5000000E-15
  1.000000000000000E-004
  CAR 
 unknown system                          
     15.23545814    -54.58955495  301      5.88796969      1.00000000
    -54.590  0.0000E+00  0.0000E+00  0.0000E+00  0.0000E+00
    -54.357  0.0000E+00  0.0000E+00  0.0000E+00  0.0000E+00
    -54.124  0.0000E+00  0.0000E+00  0.0000E+00  0.0000E+00
    -53.891  0.0000E+00  0.0000E+00  0.0000E+00  0.0000E+00
    -53.659  0.0000E+00  0.0000E+00  0.0000E+00  0.0000E+00
    -53.426  0.0000E+00  0.0000E+00  0.0000E+00  0.0000E+00
    -53.193  0.0000E+00  0.0000E+00  0.0000E+00  0.0000E+00
    -52.960  0.0000E+00  0.0000E+00  0.0000E+00  0.0000E+00
    -52.728  0.0000E+00  0.0000E+00  0.0000E+00  0.0000E+00
    -52.495  0.0000E+00  0.0000E+00  0.0000E+00  0.0000E+00
    -52.262  0.0000E+00  0.0000E+00  0.0000E+00  0.0000E+00
    -52.029  0.2238E-05  0.2211E-05  0.5210E-06  0.5147E-06
    -51.797  0.1926E-02  0.1918E-02  0.4488E-03  0.4470E-03
    -51.564  0.1958E+00  0.1950E+00  0.4602E-01  0.4584E-01
    -51.331  0.5850E+01  0.5844E+01  0.1408E+01  0.1406E+01
    -51.098  0.2510E+01  0.2517E+01  0.1992E+01  0.1992E+01
    -50.866  0.0000E+00  0.0000E+00  0.2000E+01  0.2000E+01
    -50.633  0.0000E+00  0.0000E+00  0.2000E+01  0.2000E+01
    -50.400  0.0000E+00  0.0000E+00  0.2000E+01  0.2000E+01
    -50.167  0.0000E+00  0.0000E+00  0.2000E+01  0.2000E+01
    -49.935  0.0000E+00  0.0000E+00  0.2000E+01  0.2000E+01
    -49.702  0.0000E+00  0.0000E+00  0.2000E+01  0.2000E+01
    -49.469  0.0000E+00  0.0000E+00  0.2000E+01  0.2000E+01
    -49.236  0.0000E+00  0.0000E+00  0.2000E+01  0.2000E+01
    -49.004  0.0000E+00  0.0000E+00  0.2000E+01  0.2000E+01
    -48.771  0.0000E+00  0.0000E+00  0.2000E+01  0.2000E+01
    -48.538  0.0000E+00  0.0000E+00  0.2000E+01  0.2000E+01
    -48.305  0.0000E+00  0.0000E+00  0.2000E+01  0.2000E+01
    -48.073  0.0000E+00  0.0000E+00  0.2000E+01  0.2000E+01
    -47.840  0.0000E+00  0.0000E+00  0.2000E+01  0.2000E+01
    -47.607  0.0000E+00  0.0000E+00  0.2000E+01  0.2000E+01
    -47.374  0.0000E+00  0.0000E+00  0.2000E+01  0.2000E+01
    -47.142  0.0000E+00  0.0000E+00  0.2000E+01  0.2000E+01
    -46.909  0.0000E+00  0.0000E+00  0.2000E+01  0.2000E+01
    -46.676  0.0000E+00  0.0000E+00  0.2000E+01  0.2000E+01
    -46.443  0.0000E+00  0.0000E+00  0.2000E+01  0.2000E+01
    -46.211  0.0000E+00  0.0000E+00  0.2000E+01  0.2000E+01
    -45.978  0.0000E+00  0.0000E+00  0.2000E+01  0.2000E+01
    -45.745  0.0000E+00  0.0000E+00  0.2000E+01  0.2000E+01
    -45.512  0.0000E+00  0.0000E+00  0.2000E+01  0.2000E+01
    -45.280  0.0000E+00  0.0000E+00  0.2000E+01  0.2000E+01
    -45.047  0.0000E+00  0.0000E+00  0.2000E+01  0.2000E+01
    -44.814  0.0000E+00  0.0000E+00  0.2000E+01  0.2000E+01
    -44.581  0.0000E+00  0.0000E+00  0.2000E+01  0.2000E+01
    -44.349  0.0000E+00  0.0000E+00  0.2000E+01  0.2000E+01
    -44.116  0.0000E+00  0.0000E+00  0.2000E+01  0.2000E+01
    -43.883  0.0000E+00  0.0000E+00  0.2000E+01  0.2000E+01
    -43.650  0.0000E+00  0.0000E+00  0.2000E+01  0.2000E+01
    -43.418  0.0000E+00  0.0000E+00  0.2000E+01  0.2000E+01
    -43.185  0.0000E+00  0.0000E+00  0.2000E+01  0.2000E+01
    -42.952  0.0000E+00  0.0000E+00  0.2000E+01  0.2000E+01
    -42.719  0.0000E+00  0.0000E+00  0.2000E+01  0.2000E+01
    -42.487  0.0000E+00  0.0000E+00  0.2000E+01  0.2000E+01
    -42.254  0.0000E+00  0.0000E+00  0.2000E+01  0.2000E+01
    -42.021  0.0000E+00  0.0000E+00  0.2000E+01  0.2000E+01
    -41.788  0.0000E+00  0.0000E+00  0.2000E+01  0.2000E+01
    -41.556  0.0000E+00  0.0000E+00  0.2000E+01  0.2000E+01
    -41.323  0.0000E+00  0.0000E+00  0.2000E+01  0.2000E+01
    -41.090  0.0000E+00  0.0000E+00  0.2000E+01  0.2000E+01
    -40.857  0.0000E+00  0.0000E+00  0.2000E+01  0.2000E+01
    -40.625  0.0000E+00  0.0000E+00  0.2000E+01  0.2000E+01
    -40.392  0.0000E+00  0.0000E+00  0.2000E+01  0.2000E+01
    -40.159  0.0000E+00  0.0000E+00  0.2000E+01  0.2000E+01
    -39.926  0.0000E+00  0.0000E+00  0.2000E+01  0.2000E+01
    -39.694  0.0000E+00  0.0000E+00  0.2000E+01  0.2000E+01
    -39.461  0.0000E+00  0.0000E+00  0.2000E+01  0.2000E+01
    -39.228  0.0000E+00  0.0000E+00  0.2000E+01  0.2000E+01
    -38.995  0.0000E+00  0.0000E+00  0.2000E+01  0.2000E+01
    -38.763  0.0000E+00  0.0000E+00  0.2000E+01  0.2000E+01
    -38.530  0.0000E+00  0.0000E+00  0.2000E+01  0.2000E+01
    -38.297  0.0000E+00  0.0000E+00  0.2000E+01  0.2000E+01
    -38.064  0.0000E+00  0.0000E+00  0.2000E+01  0.2000E+01
    -37.832  0.0000E+00  0.0000E+00  0.2000E+01  0.2000E+01
    -37.599  0.0000E+00  0.0000E+00  0.2000E+01  0.2000E+01
    -37.366  0.0000E+00  0.0000E+00  0.2000E+01  0.2000E+01
    -37.133  0.0000E+00  0.0000E+00  0.2000E+01  0.2000E+01
    -36.901  0.0000E+00  0.0000E+00  0.2000E+01  0.2000E+01
    -36.668  0.0000E+00  0.0000E+00  0.2000E+01  0.2000E+01
    -36.435  0.0000E+00  0.0000E+00  0.2000E+01  0.2000E+01
    -36.202  0.0000E+00  0.0000E+00  0.2000E+01  0.2000E+01
    -35.970  0.0000E+00  0.0000E+00  0.2000E+01  0.2000E+01
    -35.737  0.0000E+00  0.0000E+00  0.2000E+01  0.2000E+01
    -35.504  0.0000E+00  0.0000E+00  0.2000E+01  0.2000E+01
    -35.271  0.0000E+00  0.0000E+00  0.2000E+01  0.2000E+01
    -35.039  0.0000E+00  0.0000E+00  0.2000E+01  0.2000E+01
    -34.806  0.0000E+00  0.0000E+00  0.2000E+01  0.2000E+01
    -34.573  0.0000E+00  0.0000E+00  0.2000E+01  0.2000E+01
    -34.340  0.0000E+00  0.0000E+00  0.2000E+01  0.2000E+01
    -34.108  0.0000E+00  0.0000E+00  0.2000E+01  0.2000E+01
    -33.875  0.0000E+00  0.0000E+00  0.2000E+01  0.2000E+01
    -33.642  0.0000E+00  0.0000E+00  0.2000E+01  0.2000E+01
    -33.409  0.0000E+00  0.0000E+00  0.2000E+01  0.2000E+01
    -33.177  0.0000E+00  0.0000E+00  0.2000E+01  0.2000E+01
    -32.944  0.0000E+00  0.0000E+00  0.2000E+01  0.2000E+01
    -32.711  0.0000E+00  0.0000E+00  0.2000E+01  0.2000E+01
    -32.478  0.0000E+00  0.0000E+00  0.2000E+01  0.2000E+01
    -32.246  0.0000E+00  0.0000E+00  0.2000E+01  0.2000E+01
    -32.013  0.0000E+00  0.0000E+00  0.2000E+01  0.2000E+01
    -31.780  0.0000E+00  0.0000E+00  0.2000E+01  0.2000E+01
    -31.547  0.0000E+00  0.0000E+00  0.2000E+01  0.2000E+01
    -31.315  0.0000E+00  0.0000E+00  0.2000E+01  0.2000E+01
    -31.082  0.0000E+00  0.0000E+00  0.2000E+01  0.2000E+01
    -30.849  0.0000E+00  0.0000E+00  0.2000E+01  0.2000E+01
    -30.616  0.0000E+00  0.0000E+00  0.2000E+01  0.2000E+01
    -30.384  0.0000E+00  0.0000E+00  0.2000E+01  0.2000E+01
    -30.151  0.0000E+00  0.0000E+00  0.2000E+01  0.2000E+01
    -29.918  0.0000E+00  0.0000E+00  0.2000E+01  0.2000E+01
    -29.685  0.0000E+00  0.0000E+00  0.2000E+01  0.2000E+01
    -29.453  0.0000E+00  0.0000E+00  0.2000E+01  0.2000E+01
    -29.220  0.0000E+00  0.0000E+00  0.2000E+01  0.2000E+01
    -28.987  0.0000E+00  0.0000E+00  0.2000E+01  0.2000E+01
    -28.754  0.0000E+00  0.0000E+00  0.2000E+01  0.2000E+01
    -28.522  0.0000E+00  0.0000E+00  0.2000E+01  0.2000E+01
    -28.289  0.5807E-04  0.5761E-04  0.2000E+01  0.2000E+01
    -28.056  0.7258E-02  0.7228E-02  0.2002E+01  0.2002E+01
    -27.823  0.6854E+00  0.6828E+00  0.2161E+01  0.2161E+01
    -27.591  0.1136E+02  0.1135E+02  0.4806E+01  0.4802E+01
    -27.358  0.1312E+02  0.1314E+02  0.7861E+01  0.7861E+01
    -27.125  0.3883E+00  0.3909E+00  0.7999E+01  0.7999E+01
    -26.892  0.0000E+00  0.0000E+00  0.8000E+01  0.8000E+01
    -26.660  0.0000E+00  0.0000E+00  0.8000E+01  0.8000E+01
    -26.427  0.0000E+00  0.0000E+00  0.8000E+01  0.8000E+01
    -26.194  0.0000E+00  0.0000E+00  0.8000E+01  0.8000E+01
    -25.961  0.0000E+00  0.0000E+00  0.8000E+01  0.8000E+01
    -25.729  0.0000E+00  0.0000E+00  0.8000E+01  0.8000E+01
    -25.496  0.0000E+00  0.0000E+00  0.8000E+01  0.8000E+01
    -25.263  0.0000E+00  0.0000E+00  0.8000E+01  0.8000E+01
    -25.030  0.0000E+00  0.0000E+00  0.8000E+01  0.8000E+01
    -24.798  0.0000E+00  0.0000E+00  0.8000E+01  0.8000E+01
    -24.565  0.0000E+00  0.0000E+00  0.8000E+01  0.8000E+01
    -24.332  0.0000E+00  0.0000E+00  0.8000E+01  0.8000E+01
    -24.099  0.0000E+00  0.0000E+00  0.8000E+01  0.8000E+01
    -23.867  0.0000E+00  0.0000E+00  0.8000E+01  0.8000E+01
    -23.634  0.0000E+00  0.0000E+00  0.8000E+01  0.8000E+01
    -23.401  0.0000E+00  0.0000E+00  0.8000E+01  0.8000E+01
    -23.168  0.0000E+00  0.0000E+00  0.8000E+01  0.8000E+01
    -22.936  0.0000E+00  0.0000E+00  0.8000E+01  0.8000E+01
    -22.703  0.0000E+00  0.0000E+00  0.8000E+01  0.8000E+01
    -22.470  0.0000E+00  0.0000E+00  0.8000E+01  0.8000E+01
    -22.237  0.0000E+00  0.0000E+00  0.8000E+01  0.8000E+01
    -22.005  0.0000E+00  0.0000E+00  0.8000E+01  0.8000E+01
    -21.772  0.0000E+00  0.0000E+00  0.8000E+01  0.8000E+01
    -21.539  0.0000E+00  0.0000E+00  0.8000E+01  0.8000E+01
    -21.306  0.0000E+00  0.0000E+00  0.8000E+01  0.8000E+01
    -21.074  0.0000E+00  0.0000E+00  0.8000E+01  0.8000E+01
    -20.841  0.0000E+00  0.0000E+00  0.8000E+01  0.8000E+01
    -20.608  0.0000E+00  0.0000E+00  0.8000E+01  0.8000E+01
    -20.375  0.0000E+00  0.0000E+00  0.8000E+01  0.8000E+01
    -20.143  0.0000E+00  0.0000E+00  0.8000E+01  0.8000E+01
    -19.910  0.0000E+00  0.0000E+00  0.8000E+01  0.8000E+01
    -19.677  0.0000E+00  0.0000E+00  0.8000E+01  0.8000E+01
    -19.444  0.0000E+00  0.0000E+00  0.8000E+01  0.8000E+01
    -19.212  0.0000E+00  0.0000E+00  0.8000E+01  0.8000E+01
    -18.979  0.0000E+00  0.0000E+00  0.8000E+01  0.8000E+01
    -18.746  0.0000E+00  0.0000E+00  0.8000E+01  0.8000E+01
    -18.513  0.0000E+00  0.0000E+00  0.8000E+01  0.8000E+01
    -18.281  0.0000E+00  0.0000E+00  0.8000E+01  0.8000E+01
    -18.048  0.0000E+00  0.0000E+00  0.8000E+01  0.8000E+01
    -17.815  0.0000E+00  0.0000E+00  0.8000E+01  0.8000E+01
    -17.582  0.0000E+00  0.0000E+00  0.8000E+01  0.8000E+01
    -17.350  0.0000E+00  0.0000E+00  0.8000E+01  0.8000E+01
    -17.117  0.0000E+00  0.0000E+00  0.8000E+01  0.8000E+01
    -16.884  0.0000E+00  0.0000E+00  0.8000E+01  0.8000E+01
    -16.651  0.0000E+00  0.0000E+00  0.8000E+01  0.8000E+01
    -16.419  0.0000E+00  0.0000E+00  0.8000E+01  0.8000E+01
    -16.186  0.0000E+00  0.0000E+00  0.8000E+01  0.8000E+01
    -15.953  0.0000E+00  0.0000E+00  0.8000E+01  0.8000E+01
    -15.720  0.0000E+00  0.0000E+00  0.8000E+01  0.8000E+01
    -15.488  0.0000E+00  0.0000E+00  0.8000E+01  0.8000E+01
    -15.255  0.0000E+00  0.0000E+00  0.8000E+01  0.8000E+01
    -15.022  0.0000E+00  0.0000E+00  0.8000E+01  0.8000E+01
    -14.789  0.0000E+00  0.0000E+00  0.8000E+01  0.8000E+01
    -14.557  0.0000E+00  0.0000E+00  0.8000E+01  0.8000E+01
    -14.324  0.0000E+00  0.0000E+00  0.8000E+01  0.8000E+01
    -14.091  0.0000E+00  0.0000E+00  0.8000E+01  0.8000E+01
    -13.858  0.0000E+00  0.0000E+00  0.8000E+01  0.8000E+01
    -13.626  0.0000E+00  0.0000E+00  0.8000E+01  0.8000E+01
    -13.393  0.0000E+00  0.0000E+00  0.8000E+01  0.8000E+01
    -13.160  0.0000E+00  0.0000E+00  0.8000E+01  0.8000E+01
    -12.927  0.0000E+00  0.0000E+00  0.8000E+01  0.8000E+01
    -12.695  0.0000E+00  0.0000E+00  0.8000E+01  0.8000E+01
    -12.462  0.0000E+00  0.0000E+00  0.8000E+01  0.8000E+01
    -12.229  0.0000E+00  0.0000E+00  0.8000E+01  0.8000E+01
    -11.996  0.0000E+00  0.0000E+00  0.8000E+01  0.8000E+01
    -11.764  0.0000E+00  0.0000E+00  0.8000E+01  0.8000E+01
    -11.531  0.0000E+00  0.0000E+00  0.8000E+01  0.8000E+01
    -11.298  0.0000E+00  0.0000E+00  0.8000E+01  0.8000E+01
    -11.065  0.0000E+00  0.0000E+00  0.8000E+01  0.8000E+01
    -10.833  0.0000E+00  0.0000E+00  0.8000E+01  0.8000E+01
    -10.600  0.0000E+00  0.0000E+00  0.8000E+01  0.8000E+01
    -10.367  0.0000E+00  0.0000E+00  0.8000E+01  0.8000E+01
    -10.134  0.0000E+00  0.0000E+00  0.8000E+01  0.8000E+01
     -9.902  0.0000E+00  0.0000E+00  0.8000E+01  0.8000E+01
     -9.669  0.0000E+00  0.0000E+00  0.8000E+01  0.8000E+01
     -9.436  0.0000E+00  0.0000E+00  0.8000E+01  0.8000E+01
     -9.203  0.0000E+00  0.0000E+00  0.8000E+01  0.8000E+01
     -8.971  0.0000E+00  0.0000E+00  0.8000E+01  0.8000E+01
     -8.738  0.0000E+00  0.0000E+00  0.8000E+01  0.8000E+01
     -8.505  0.0000E+00  0.0000E+00  0.8000E+01  0.8000E+01
     -8.272  0.0000E+00  0.0000E+00  0.8000E+01  0.8000E+01
     -8.040  0.0000E+00  0.0000E+00  0.8000E+01  0.8000E+01
     -7.807  0.0000E+00  0.0000E+00  0.8000E+01  0.8000E+01
     -7.574  0.0000E+00  0.0000E+00  0.8000E+01  0.8000E+01
     -7.341  0.0000E+00  0.0000E+00  0.8000E+01  0.8000E+01
     -7.109  0.0000E+00  0.0000E+00  0.8000E+01  0.8000E+01
     -6.876  0.0000E+00  0.0000E+00  0.8000E+01  0.8000E+01
     -6.643  0.0000E+00  0.0000E+00  0.8000E+01  0.8000E+01
     -6.410  0.0000E+00  0.0000E+00  0.8000E+01  0.8000E+01
     -6.178  0.0000E+00  0.0000E+00  0.8000E+01  0.8000E+01
     -5.945  0.0000E+00  0.0000E+00  0.8000E+01  0.8000E+01
     -5.712  0.0000E+00  0.0000E+00  0.8000E+01  0.8000E+01
     -5.479  0.0000E+00  0.0000E+00  0.8000E+01  0.8000E+01
     -5.247  0.0000E+00  0.0000E+00  0.8000E+01  0.8000E+01
     -5.014  0.0000E+00  0.0000E+00  0.8000E+01  0.8000E+01
     -4.781  0.0000E+00  0.0000E+00  0.8000E+01  0.8000E+01
     -4.548  0.0000E+00  0.0000E+00  0.8000E+01  0.8000E+01
     -4.316  0.0000E+00  0.0000E+00  0.8000E+01  0.8000E+01
     -4.083  0.0000E+00  0.0000E+00  0.8000E+01  0.8000E+01
     -3.850  0.0000E+00  0.0000E+00  0.8000E+01  0.8000E+01
     -3.617  0.0000E+00  0.0000E+00  0.8000E+01  0.8000E+01
     -3.385  0.0000E+00  0.0000E+00  0.8000E+01  0.8000E+01
     -3.152  0.0000E+00  0.0000E+00  0.8000E+01  0.8000E+01
     -2.919  0.0000E+00  0.0000E+00  0.8000E+01  0.8000E+01
     -2.686  0.0000E+00  0.0000E+00  0.8000E+01  0.8000E+01
     -2.454  0.0000E+00  0.0000E+00  0.8000E+01  0.8000E+01
     -2.221  0.0000E+00  0.0000E+00  0.8000E+01  0.8000E+01
     -1.988  0.0000E+00  0.0000E+00  0.8000E+01  0.8000E+01
     -1.755  0.0000E+00  0.0000E+00  0.8000E+01  0.8000E+01
     -1.523  0.0000E+00  0.0000E+00  0.8000E+01  0.8000E+01
     -1.290  0.0000E+00  0.0000E+00  0.8000E+01  0.8000E+01
     -1.057  0.0000E+00  0.0000E+00  0.8000E+01  0.8000E+01
     -0.824  0.0000E+00  0.0000E+00  0.8000E+01  0.8000E+01
     -0.592  0.0000E+00  0.0000E+00  0.8000E+01  0.8000E+01
     -0.359  0.0000E+00  0.0000E+00  0.8000E+01  0.8000E+01
     -0.126  0.2984E-06  0.2994E-06  0.8000E+01  0.8000E+01
      0.107  0.3384E-04  0.3395E-04  0.8000E+01  0.8000E+01
      0.339  0.2744E-02  0.2751E-02  0.8001E+01  0.8001E+01
      0.572  0.3696E-01  0.3699E-01  0.8009E+01  0.8009E+01
      0.805  0.6801E-01  0.6805E-01  0.8025E+01  0.8025E+01
      1.038  0.1006E+00  0.1006E+00  0.8049E+01  0.8049E+01
      1.270  0.1196E+00  0.1197E+00  0.8077E+01  0.8077E+01
      1.503  0.1440E+00  0.1440E+00  0.8110E+01  0.8110E+01
      1.736  0.1537E+00  0.1536E+00  0.8147E+01  0.8147E+01
      1.969  0.1896E+00  0.1897E+00  0.8192E+01  0.8192E+01
      2.201  0.2260E+00  0.2259E+00  0.8244E+01  0.8244E+01
      2.434  0.2065E+00  0.2066E+00  0.8293E+01  0.8293E+01
      2.667  0.2794E+00  0.2794E+00  0.8359E+01  0.8359E+01
      2.900  0.3157E+00  0.3157E+00  0.8432E+01  0.8432E+01
      3.132  0.3541E+00  0.3541E+00  0.8515E+01  0.8515E+01
      3.365  0.3295E+00  0.3296E+00  0.8593E+01  0.8593E+01
      3.598  0.6408E+00  0.6408E+00  0.8743E+01  0.8743E+01
      3.831  0.6748E+00  0.6748E+00  0.8902E+01  0.8902E+01
      4.063  0.9693E+00  0.9693E+00  0.9128E+01  0.9128E+01
      4.296  0.9796E+00  0.9796E+00  0.9357E+01  0.9357E+01
      4.529  0.1185E+01  0.1184E+01  0.9634E+01  0.9634E+01
      4.762  0.1520E+01  0.1520E+01  0.9990E+01  0.9990E+01
      4.994  0.1697E+01  0.1697E+01  0.1039E+02  0.1039E+02
      5.227  0.2052E+01  0.2052E+01  0.1087E+02  0.1087E+02
      5.460  0.2307E+01  0.2307E+01  0.1141E+02  0.1141E+02
      5.693  0.1528E+01  0.1528E+01  0.1177E+02  0.1177E+02
      5.925  0.1214E+01  0.1214E+01  0.1206E+02  0.1205E+02
      6.158  0.2392E+01  0.2391E+01  0.1261E+02  0.1261E+02
      6.391  0.3055E+01  0.3055E+01  0.1333E+02  0.1333E+02
      6.624  0.3268E+01  0.3267E+01  0.1409E+02  0.1409E+02
      6.856  0.2922E+01  0.2924E+01  0.1478E+02  0.1478E+02
      7.089  0.1845E+01  0.1845E+01  0.1521E+02  0.1521E+02
      7.322  0.1515E+01  0.1515E+01  0.1557E+02  0.1557E+02
      7.555  0.1534E+01  0.1534E+01  0.1593E+02  0.1593E+02
      7.787  0.1805E+01  0.1804E+01  0.1635E+02  0.1635E+02
      8.020  0.2407E+01  0.2406E+01  0.1691E+02  0.1691E+02
      8.253  0.4059E+01  0.4058E+01  0.1786E+02  0.1786E+02
      8.486  0.3356E+01  0.3359E+01  0.1865E+02  0.1865E+02
      8.718  0.1015E+01  0.1015E+01  0.1890E+02  0.1889E+02
      8.951  0.6550E+00  0.6551E+00  0.1905E+02  0.1905E+02
      9.184  0.6808E+00  0.6804E+00  0.1921E+02  0.1921E+02
      9.417  0.5113E+00  0.5136E+00  0.1933E+02  0.1933E+02
      9.649  0.4495E+00  0.4399E+00  0.1943E+02  0.1943E+02
      9.882  0.4834E+00  0.4908E+00  0.1955E+02  0.1955E+02
     10.115  0.4265E+00  0.4254E+00  0.1965E+02  0.1965E+02
     10.348  0.4854E+00  0.4865E+00  0.1976E+02  0.1976E+02
     10.580  0.2154E+00  0.2171E+00  0.1981E+02  0.1981E+02
     10.813  0.3627E+00  0.3652E+00  0.1990E+02  0.1990E+02
     11.046  0.1988E+00  0.1995E+00  0.1994E+02  0.1994E+02
     11.279  0.9493E-01  0.9387E-01  0.1997E+02  0.1997E+02
     11.511  0.5985E-01  0.6128E-01  0.1998E+02  0.1998E+02
     11.744  0.4627E-01  0.4767E-01  0.1999E+02  0.1999E+02
     11.977  0.1970E-01  0.1760E-01  0.2000E+02  0.2000E+02
     12.210  0.1324E-01  0.1348E-01  0.2000E+02  0.2000E+02
     12.442  0.7163E-03  0.8249E-03  0.2000E+02  0.2000E+02
     12.675  0.0000E+00  0.0000E+00  0.2000E+02  0.2000E+02
     12.908  0.0000E+00  0.0000E+00  0.2000E+02  0.2000E+02
     13.141  0.0000E+00  0.0000E+00  0.2000E+02  0.2000E+02
     13.373  0.0000E+00  0.0000E+00  0.2000E+02  0.2000E+02
     13.606  0.0000E+00  0.0000E+00  0.2000E+02  0.2000E+02
     13.839  0.0000E+00  0.0000E+00  0.2000E+02  0.2000E+02
     14.072  0.0000E+00  0.0000E+00  0.2000E+02  0.2000E+02
     14.304  0.0000E+00  0.0000E+00  0.2000E+02  0.2000E+02
     14.537  0.0000E+00  0.0000E+00  0.2000E+02  0.2000E+02
     14.770  0.0000E+00  0.0000E+00  0.2000E+02  0.2000E+02
     15.003  0.0000E+00  0.0000E+00  0.2000E+02  0.2000E+02
     15.235  0.0000E+00  0.0000E+00  0.2000E+02  0.2000E+02
     15.23545814    -54.58955495  301      5.88796969      1.00000000
    -54.590  0.0000E+00  0.0000E+00  0.0000E+00  0.0000E+00  0.0000E+00  0.0000E+00  0.0000E+00  0.0000E+00  0.0000E+00  0.0000E+00  0.0000E+00  0.0000E+00  0.0000E+00  0.0000E+00  0.0000E+00  0.0000E+00  0.0000E+00  0.0000E+00
    -54.357  0.0000E+00  0.0000E+00  0.0000E+00  0.0000E+00  0.0000E+00  0.0000E+00  0.0000E+00  0.0000E+00  0.0000E+00  0.0000E+00  0.0000E+00  0.0000E+00  0.0000E+00  0.0000E+00  0.0000E+00  0.0000E+00  0.0000E+00  0.0000E+00
    -54.124  0.0000E+00  0.0000E+00  0.0000E+00  0.0000E+00  0.0000E+00  0.0000E+00  0.0000E+00  0.0000E+00  0.0000E+00  0.0000E+00  0.0000E+00  0.0000E+00  0.0000E+00  0.0000E+00  0.0000E+00  0.0000E+00  0.0000E+00  0.0000E+00
    -53.891  0.0000E+00  0.0000E+00  0.0000E+00  0.0000E+00  0.0000E+00  0.0000E+00  0.0000E+00  0.0000E+00  0.0000E+00  0.0000E+00  0.0000E+00  0.0000E+00  0.0000E+00  0.0000E+00  0.0000E+00  0.0000E+00  0.0000E+00  0.0000E+00
    -53.659  0.0000E+00  0.0000E+00  0.0000E+00  0.0000E+00  0.0000E+00  0.0000E+00  0.0000E+00  0.0000E+00  0.0000E+00  0.0000E+00  0.0000E+00  0.0000E+00  0.0000E+00  0.0000E+00  0.0000E+00  0.0000E+00  0.0000E+00  0.0000E+00
    -53.426  0.0000E+00  0.0000E+00  0.0000E+00  0.0000E+00  0.0000E+00  0.0000E+00  0.0000E+00  0.0000E+00  0.0000E+00  0.0000E+00  0.0000E+00  0.0000E+00  0.0000E+00  0.0000E+00  0.0000E+00  0.0000E+00  0.0000E+00  0.0000E+00
    -53.193  0.0000E+00  0.0000E+00  0.0000E+00  0.0000E+00  0.0000E+00  0.0000E+00  0.0000E+00  0.0000E+00  0.0000E+00  0.0000E+00  0.0000E+00  0.0000E+00  0.0000E+00  0.0000E+00  0.0000E+00  0.0000E+00  0.0000E+00  0.0000E+00
    -52.960  0.0000E+00  0.0000E+00  0.0000E+00  0.0000E+00  0.0000E+00  0.0000E+00  0.0000E+00  0.0000E+00  0.0000E+00  0.0000E+00  0.0000E+00  0.0000E+00  0.0000E+00  0.0000E+00  0.0000E+00  0.0000E+00  0.0000E+00  0.0000E+00
    -52.728  0.0000E+00  0.0000E+00  0.0000E+00  0.0000E+00  0.0000E+00  0.0000E+00  0.0000E+00  0.0000E+00  0.0000E+00  0.0000E+00  0.0000E+00  0.0000E+00  0.0000E+00  0.0000E+00  0.0000E+00  0.0000E+00  0.0000E+00  0.0000E+00
    -52.495  0.0000E+00  0.0000E+00  0.0000E+00  0.0000E+00  0.0000E+00  0.0000E+00  0.0000E+00  0.0000E+00  0.0000E+00  0.0000E+00  0.0000E+00  0.0000E+00  0.0000E+00  0.0000E+00  0.0000E+00  0.0000E+00  0.0000E+00  0.0000E+00
    -52.262  0.0000E+00  0.0000E+00  0.0000E+00  0.0000E+00  0.0000E+00  0.0000E+00  0.0000E+00  0.0000E+00  0.0000E+00  0.0000E+00  0.0000E+00  0.0000E+00  0.0000E+00  0.0000E+00  0.0000E+00  0.0000E+00  0.0000E+00  0.0000E+00
    -52.029  0.1113E-05  0.1099E-05  0.8700E-12  0.8670E-12  0.1101E-11  0.1061E-11  0.8700E-12  0.8670E-12  0.4894E-13  0.4873E-13  0.3458E-13  0.3444E-13  0.6119E-12  0.6051E-12  0.3458E-13  0.3444E-13  0.4894E-13  0.4873E-13
    -51.797  0.9583E-03  0.9545E-03  0.5345E-09  0.5324E-09  0.7212E-09  0.7185E-09  0.5345E-09  0.5324E-09  0.1688E-09  0.1681E-09  0.2023E-09  0.2015E-09  0.6324E-09  0.6296E-09  0.2023E-09  0.2015E-09  0.1688E-09  0.1681E-09
    -51.564  0.9742E-01  0.9704E-01  0.5419E-07  0.5397E-07  0.7315E-07  0.7288E-07  0.5419E-07  0.5397E-07  0.1716E-07  0.1710E-07  0.2060E-07  0.2052E-07  0.6428E-07  0.6401E-07  0.2060E-07  0.2052E-07  0.1716E-07  0.1710E-07
    -51.331  0.2911E+01  0.2908E+01  0.1464E-05  0.1463E-05  0.2016E-05  0.2014E-05  0.1464E-05  0.1463E-05  0.5221E-06  0.5215E-06  0.6549E-06  0.6541E-06  0.1916E-05  0.1913E-05  0.6549E-06  0.6541E-06  0.5221E-06  0.5215E-06
    -51.098  0.1249E+01  0.1253E+01  0.5462E-06  0.5478E-06  0.7698E-06  0.7723E-06  0.5462E-06  0.5478E-06  0.2232E-06  0.2238E-06  0.2955E-06  0.2963E-06  0.8127E-06  0.8148E-06  0.2955E-06  0.2963E-06  0.2232E-06  0.2238E-06
    -50.866  0.0000E+00  0.0000E+00  0.0000E+00  0.0000E+00  0.0000E+00  0.0000E+00  0.0000E+00  0.0000E+00  0.0000E+00  0.0000E+00  0.0000E+00  0.0000E+00  0.0000E+00  0.0000E+00  0.0000E+00  0.0000E+00  0.0000E+00  0.0000E+00
    -50.633  0.0000E+00  0.0000E+00  0.0000E+00  0.0000E+00  0.0000E+00  0.0000E+00  0.0000E+00  0.0000E+00  0.0000E+00  0.0000E+00  0.0000E+00  0.0000E+00  0.0000E+00  0.0000E+00  0.0000E+00  0.0000E+00  0.0000E+00  0.0000E+00
    -50.400  0.0000E+00  0.0000E+00  0.0000E+00  0.0000E+00  0.0000E+00  0.0000E+00  0.0000E+00  0.0000E+00  0.0000E+00  0.0000E+00  0.0000E+00  0.0000E+00  0.0000E+00  0.0000E+00  0.0000E+00  0.0000E+00  0.0000E+00  0.0000E+00
    -50.167  0.0000E+00  0.0000E+00  0.0000E+00  0.0000E+00  0.0000E+00  0.0000E+00  0.0000E+00  0.0000E+00  0.0000E+00  0.0000E+00  0.0000E+00  0.0000E+00  0.0000E+00  0.0000E+00  0.0000E+00  0.0000E+00  0.0000E+00  0.0000E+00
    -49.935  0.0000E+00  0.0000E+00  0.0000E+00  0.0000E+00  0.0000E+00  0.0000E+00  0.0000E+00  0.0000E+00  0.0000E+00  0.0000E+00  0.0000E+00  0.0000E+00  0.0000E+00  0.0000E+00  0.0000E+00  0.0000E+00  0.0000E+00  0.0000E+00
    -49.702  0.0000E+00  0.0000E+00  0.0000E+00  0.0000E+00  0.0000E+00  0.0000E+00  0.0000E+00  0.0000E+00  0.0000E+00  0.0000E+00  0.0000E+00  0.0000E+00  0.0000E+00  0.0000E+00  0.0000E+00  0.0000E+00  0.0000E+00  0.0000E+00
    -49.469  0.0000E+00  0.0000E+00  0.0000E+00  0.0000E+00  0.0000E+00  0.0000E+00  0.0000E+00  0.0000E+00  0.0000E+00  0.0000E+00  0.0000E+00  0.0000E+00  0.0000E+00  0.0000E+00  0.0000E+00  0.0000E+00  0.0000E+00  0.0000E+00
    -49.236  0.0000E+00  0.0000E+00  0.0000E+00  0.0000E+00  0.0000E+00  0.0000E+00  0.0000E+00  0.0000E+00  0.0000E+00  0.0000E+00  0.0000E+00  0.0000E+00  0.0000E+00  0.0000E+00  0.0000E+00  0.0000E+00  0.0000E+00  0.0000E+00
    -49.004  0.0000E+00  0.0000E+00  0.0000E+00  0.0000E+00  0.0000E+00  0.0000E+00  0.0000E+00  0.0000E+00  0.0000E+00  0.0000E+00  0.0000E+00  0.0000E+00  0.0000E+00  0.0000E+00  0.0000E+00  0.0000E+00  0.0000E+00  0.0000E+00
    -48.771  0.0000E+00  0.0000E+00  0.0000E+00  0.0000E+00  0.0000E+00  0.0000E+00  0.0000E+00  0.0000E+00  0.0000E+00  0.0000E+00  0.0000E+00  0.0000E+00  0.0000E+00  0.0000E+00  0.0000E+00  0.0000E+00  0.0000E+00  0.0000E+00
    -48.538  0.0000E+00  0.0000E+00  0.0000E+00  0.0000E+00  0.0000E+00  0.0000E+00  0.0000E+00  0.0000E+00  0.0000E+00  0.0000E+00  0.0000E+00  0.0000E+00  0.0000E+00  0.0000E+00  0.0000E+00  0.0000E+00  0.0000E+00  0.0000E+00
    -48.305  0.0000E+00  0.0000E+00  0.0000E+00  0.0000E+00  0.0000E+00  0.0000E+00  0.0000E+00  0.0000E+00  0.0000E+00  0.0000E+00  0.0000E+00  0.0000E+00  0.0000E+00  0.0000E+00  0.0000E+00  0.0000E+00  0.0000E+00  0.0000E+00
    -48.073  0.0000E+00  0.0000E+00  0.0000E+00  0.0000E+00  0.0000E+00  0.0000E+00  0.0000E+00  0.0000E+00  0.0000E+00  0.0000E+00  0.0000E+00  0.0000E+00  0.0000E+00  0.0000E+00  0.0000E+00  0.0000E+00  0.0000E+00  0.0000E+00
    -47.840  0.0000E+00  0.0000E+00  0.0000E+00  0.0000E+00  0.0000E+00  0.0000E+00  0.0000E+00  0.0000E+00  0.0000E+00  0.0000E+00  0.0000E+00  0.0000E+00  0.0000E+00  0.0000E+00  0.0000E+00  0.0000E+00  0.0000E+00  0.0000E+00
    -47.607  0.0000E+00  0.0000E+00  0.0000E+00  0.0000E+00  0.0000E+00  0.0000E+00  0.0000E+00  0.0000E+00  0.0000E+00  0.0000E+00  0.0000E+00  0.0000E+00  0.0000E+00  0.0000E+00  0.0000E+00  0.0000E+00  0.0000E+00  0.0000E+00
    -47.374  0.0000E+00  0.0000E+00  0.0000E+00  0.0000E+00  0.0000E+00  0.0000E+00  0.0000E+00  0.0000E+00  0.0000E+00  0.0000E+00  0.0000E+00  0.0000E+00  0.0000E+00  0.0000E+00  0.0000E+00  0.0000E+00  0.0000E+00  0.0000E+00
    -47.142  0.0000E+00  0.0000E+00  0.0000E+00  0.0000E+00  0.0000E+00  0.0000E+00  0.0000E+00  0.0000E+00  0.0000E+00  0.0000E+00  0.0000E+00  0.0000E+00  0.0000E+00  0.0000E+00  0.0000E+00  0.0000E+00  0.0000E+00  0.0000E+00
    -46.909  0.0000E+00  0.0000E+00  0.0000E+00  0.0000E+00  0.0000E+00  0.0000E+00  0.0000E+00  0.0000E+00  0.0000E+00  0.0000E+00  0.0000E+00  0.0000E+00  0.0000E+00  0.0000E+00  0.0000E+00  0.0000E+00  0.0000E+00  0.0000E+00
    -46.676  0.0000E+00  0.0000E+00  0.0000E+00  0.0000E+00  0.0000E+00  0.0000E+00  0.0000E+00  0.0000E+00  0.0000E+00  0.0000E+00  0.0000E+00  0.0000E+00  0.0000E+00  0.0000E+00  0.0000E+00  0.0000E+00  0.0000E+00  0.0000E+00
    -46.443  0.0000E+00  0.0000E+00  0.0000E+00  0.0000E+00  0.0000E+00  0.0000E+00  0.0000E+00  0.0000E+00  0.0000E+00  0.0000E+00  0.0000E+00  0.0000E+00  0.0000E+00  0.0000E+00  0.0000E+00  0.0000E+00  0.0000E+00  0.0000E+00
    -46.211  0.0000E+00  0.0000E+00  0.0000E+00  0.0000E+00  0.0000E+00  0.0000E+00  0.0000E+00  0.0000E+00  0.0000E+00  0.0000E+00  0.0000E+00  0.0000E+00  0.0000E+00  0.0000E+00  0.0000E+00  0.0000E+00  0.0000E+00  0.0000E+00
    -45.978  0.0000E+00  0.0000E+00  0.0000E+00  0.0000E+00  0.0000E+00  0.0000E+00  0.0000E+00  0.0000E+00  0.0000E+00  0.0000E+00  0.0000E+00  0.0000E+00  0.0000E+00  0.0000E+00  0.0000E+00  0.0000E+00  0.0000E+00  0.0000E+00
    -45.745  0.0000E+00  0.0000E+00  0.0000E+00  0.0000E+00  0.0000E+00  0.0000E+00  0.0000E+00  0.0000E+00  0.0000E+00  0.0000E+00  0.0000E+00  0.0000E+00  0.0000E+00  0.0000E+00  0.0000E+00  0.0000E+00  0.0000E+00  0.0000E+00
    -45.512  0.0000E+00  0.0000E+00  0.0000E+00  0.0000E+00  0.0000E+00  0.0000E+00  0.0000E+00  0.0000E+00  0.0000E+00  0.0000E+00  0.0000E+00  0.0000E+00  0.0000E+00  0.0000E+00  0.0000E+00  0.0000E+00  0.0000E+00  0.0000E+00
    -45.280  0.0000E+00  0.0000E+00  0.0000E+00  0.0000E+00  0.0000E+00  0.0000E+00  0.0000E+00  0.0000E+00  0.0000E+00  0.0000E+00  0.0000E+00  0.0000E+00  0.0000E+00  0.0000E+00  0.0000E+00  0.0000E+00  0.0000E+00  0.0000E+00
    -45.047  0.0000E+00  0.0000E+00  0.0000E+00  0.0000E+00  0.0000E+00  0.0000E+00  0.0000E+00  0.0000E+00  0.0000E+00  0.0000E+00  0.0000E+00  0.0000E+00  0.0000E+00  0.0000E+00  0.0000E+00  0.0000E+00  0.0000E+00  0.0000E+00
    -44.814  0.0000E+00  0.0000E+00  0.0000E+00  0.0000E+00  0.0000E+00  0.0000E+00  0.0000E+00  0.0000E+00  0.0000E+00  0.0000E+00  0.0000E+00  0.0000E+00  0.0000E+00  0.0000E+00  0.0000E+00  0.0000E+00  0.0000E+00  0.0000E+00
    -44.581  0.0000E+00  0.0000E+00  0.0000E+00  0.0000E+00  0.0000E+00  0.0000E+00  0.0000E+00  0.0000E+00  0.0000E+00  0.0000E+00  0.0000E+00  0.0000E+00  0.0000E+00  0.0000E+00  0.0000E+00  0.0000E+00  0.0000E+00  0.0000E+00
    -44.349  0.0000E+00  0.0000E+00  0.0000E+00  0.0000E+00  0.0000E+00  0.0000E+00  0.0000E+00  0.0000E+00  0.0000E+00  0.0000E+00  0.0000E+00  0.0000E+00  0.0000E+00  0.0000E+00  0.0000E+00  0.0000E+00  0.0000E+00  0.0000E+00
    -44.116  0.0000E+00  0.0000E+00  0.0000E+00  0.0000E+00  0.0000E+00  0.0000E+00  0.0000E+00  0.0000E+00  0.0000E+00  0.0000E+00  0.0000E+00  0.0000E+00  0.0000E+00  0.0000E+00  0.0000E+00  0.0000E+00  0.0000E+00  0.0000E+00
    -43.883  0.0000E+00  0.0000E+00  0.0000E+00  0.0000E+00  0.0000E+00  0.0000E+00  0.0000E+00  0.0000E+00  0.0000E+00  0.0000E+00  0.0000E+00  0.0000E+00  0.0000E+00  0.0000E+00  0.0000E+00  0.0000E+00  0.0000E+00  0.0000E+00
    -43.650  0.0000E+00  0.0000E+00  0.0000E+00  0.0000E+00  0.0000E+00  0.0000E+00  0.0000E+00  0.0000E+00  0.0000E+00  0.0000E+00  0.0000E+00  0.0000E+00  0.0000E+00  0.0000E+00  0.0000E+00  0.0000E+00  0.0000E+00  0.0000E+00
    -43.418  0.0000E+00  0.0000E+00  0.0000E+00  0.0000E+00  0.0000E+00  0.0000E+00  0.0000E+00  0.0000E+00  0.0000E+00  0.0000E+00  0.0000E+00  0.0000E+00  0.0000E+00  0.0000E+00  0.0000E+00  0.0000E+00  0.0000E+00  0.0000E+00
    -43.185  0.0000E+00  0.0000E+00  0.0000E+00  0.0000E+00  0.0000E+00  0.0000E+00  0.0000E+00  0.0000E+00  0.0000E+00  0.0000E+00  0.0000E+00  0.0000E+00  0.0000E+00  0.0000E+00  0.0000E+00  0.0000E+00  0.0000E+00  0.0000E+00
    -42.952  0.0000E+00  0.0000E+00  0.0000E+00  0.0000E+00  0.0000E+00  0.0000E+00  0.0000E+00  0.0000E+00  0.0000E+00  0.0000E+00  0.0000E+00  0.0000E+00  0.0000E+00  0.0000E+00  0.0000E+00  0.0000E+00  0.0000E+00  0.0000E+00