   2   2   1   0
  0.1948506E+02  0.3050388E-09  0.3050388E-09  0.4836052E-09  0.5000000E-15
  1.000000000000000E-004
  CAR 
 unknown system                          
     17.54249118    -53.10323917  301      7.17268431      1.00000000
    -53.103  0.0000E+00  0.0000E+00  0.0000E+00  0.0000E+00
    -52.868  0.0000E+00  0.0000E+00  0.0000E+00  0.0000E+00
    -52.632  0.0000E+00  0.0000E+00  0.0000E+00  0.0000E+00
    -52.397  0.0000E+00  0.0000E+00  0.0000E+00  0.0000E+00
    -52.161  0.0000E+00  0.0000E+00  0.0000E+00  0.0000E+00
    -51.926  0.0000E+00  0.0000E+00  0.0000E+00  0.0000E+00
    -51.690  0.0000E+00  0.0000E+00  0.0000E+00  0.0000E+00
    -51.455  0.0000E+00  0.0000E+00  0.0000E+00  0.0000E+00
    -51.219  0.0000E+00  0.0000E+00  0.0000E+00  0.0000E+00
    -50.984  0.0000E+00  0.0000E+00  0.0000E+00  0.0000E+00
    -50.748  0.0000E+00  0.0000E+00  0.0000E+00  0.0000E+00
    -50.513  0.5477E-06  0.5506E-06  0.1290E-06  0.1297E-06
    -50.277  0.9435E-03  0.9486E-03  0.2223E-03  0.2235E-03
    -50.042  0.1022E+00  0.1027E+00  0.2429E-01  0.2442E-01
    -49.806  0.4541E+01  0.4551E+01  0.1094E+01  0.1096E+01
    -49.571  0.3782E+01  0.3772E+01  0.1984E+01  0.1984E+01
    -49.335  0.0000E+00  0.0000E+00  0.2000E+01  0.2000E+01
    -49.100  0.0000E+00  0.0000E+00  0.2000E+01  0.2000E+01
    -48.864  0.0000E+00  0.0000E+00  0.2000E+01  0.2000E+01
    -48.629  0.0000E+00  0.0000E+00  0.2000E+01  0.2000E+01
    -48.394  0.0000E+00  0.0000E+00  0.2000E+01  0.2000E+01
    -48.158  0.0000E+00  0.0000E+00  0.2000E+01  0.2000E+01
    -47.923  0.0000E+00  0.0000E+00  0.2000E+01  0.2000E+01
    -47.687  0.0000E+00  0.0000E+00  0.2000E+01  0.2000E+01
    -47.452  0.0000E+00  0.0000E+00  0.2000E+01  0.2000E+01
    -47.216  0.0000E+00  0.0000E+00  0.2000E+01  0.2000E+01
    -46.981  0.0000E+00  0.0000E+00  0.2000E+01  0.2000E+01
    -46.745  0.0000E+00  0.0000E+00  0.2000E+01  0.2000E+01
    -46.510  0.0000E+00  0.0000E+00  0.2000E+01  0.2000E+01
    -46.274  0.0000E+00  0.0000E+00  0.2000E+01  0.2000E+01
    -46.039  0.0000E+00  0.0000E+00  0.2000E+01  0.2000E+01
    -45.803  0.0000E+00  0.0000E+00  0.2000E+01  0.2000E+01
    -45.568  0.0000E+00  0.0000E+00  0.2000E+01  0.2000E+01
    -45.332  0.0000E+00  0.0000E+00  0.2000E+01  0.2000E+01
    -45.097  0.0000E+00  0.0000E+00  0.2000E+01  0.2000E+01
    -44.861  0.0000E+00  0.0000E+00  0.2000E+01  0.2000E+01
    -44.626  0.0000E+00  0.0000E+00  0.2000E+01  0.2000E+01
    -44.390  0.0000E+00  0.0000E+00  0.2000E+01  0.2000E+01
    -44.155  0.0000E+00  0.0000E+00  0.2000E+01  0.2000E+01
    -43.919  0.0000E+00  0.0000E+00  0.2000E+01  0.2000E+01
    -43.684  0.0000E+00  0.0000E+00  0.2000E+01  0.2000E+01
    -43.448  0.0000E+00  0.0000E+00  0.2000E+01  0.2000E+01
    -43.213  0.0000E+00  0.0000E+00  0.2000E+01  0.2000E+01
    -42.977  0.0000E+00  0.0000E+00  0.2000E+01  0.2000E+01
    -42.742  0.0000E+00  0.0000E+00  0.2000E+01  0.2000E+01
    -42.506  0.0000E+00  0.0000E+00  0.2000E+01  0.2000E+01
    -42.271  0.0000E+00  0.0000E+00  0.2000E+01  0.2000E+01
    -42.035  0.0000E+00  0.0000E+00  0.2000E+01  0.2000E+01
    -41.800  0.0000E+00  0.0000E+00  0.2000E+01  0.2000E+01
    -41.564  0.0000E+00  0.0000E+00  0.2000E+01  0.2000E+01
    -41.329  0.0000E+00  0.0000E+00  0.2000E+01  0.2000E+01
    -41.093  0.0000E+00  0.0000E+00  0.2000E+01  0.2000E+01
    -40.858  0.0000E+00  0.0000E+00  0.2000E+01  0.2000E+01
    -40.622  0.0000E+00  0.0000E+00  0.2000E+01  0.2000E+01
    -40.387  0.0000E+00  0.0000E+00  0.2000E+01  0.2000E+01
    -40.152  0.0000E+00  0.0000E+00  0.2000E+01  0.2000E+01
    -39.916  0.0000E+00  0.0000E+00  0.2000E+01  0.2000E+01
    -39.681  0.0000E+00  0.0000E+00  0.2000E+01  0.2000E+01
    -39.445  0.0000E+00  0.0000E+00  0.2000E+01  0.2000E+01
    -39.210  0.0000E+00  0.0000E+00  0.2000E+01  0.2000E+01
    -38.974  0.0000E+00  0.0000E+00  0.2000E+01  0.2000E+01
    -38.739  0.0000E+00  0.0000E+00  0.2000E+01  0.2000E+01
    -38.503  0.0000E+00  0.0000E+00  0.2000E+01  0.2000E+01
    -38.268  0.0000E+00  0.0000E+00  0.2000E+01  0.2000E+01
    -38.032  0.0000E+00  0.0000E+00  0.2000E+01  0.2000E+01
    -37.797  0.0000E+00  0.0000E+00  0.2000E+01  0.2000E+01
    -37.561  0.0000E+00  0.0000E+00  0.2000E+01  0.2000E+01
    -37.326  0.0000E+00  0.0000E+00  0.2000E+01  0.2000E+01
    -37.090  0.0000E+00  0.0000E+00  0.2000E+01  0.2000E+01
    -36.855  0.0000E+00  0.0000E+00  0.2000E+01  0.2000E+01
    -36.619  0.0000E+00  0.0000E+00  0.2000E+01  0.2000E+01
    -36.384  0.0000E+00  0.0000E+00  0.2000E+01  0.2000E+01
    -36.148  0.0000E+00  0.0000E+00  0.2000E+01  0.2000E+01
    -35.913  0.0000E+00  0.0000E+00  0.2000E+01  0.2000E+01
    -35.677  0.0000E+00  0.0000E+00  0.2000E+01  0.2000E+01
    -35.442  0.0000E+00  0.0000E+00  0.2000E+01  0.2000E+01
    -35.206  0.0000E+00  0.0000E+00  0.2000E+01  0.2000E+01
    -34.971  0.0000E+00  0.0000E+00  0.2000E+01  0.2000E+01
    -34.735  0.0000E+00  0.0000E+00  0.2000E+01  0.2000E+01
    -34.500  0.0000E+00  0.0000E+00  0.2000E+01  0.2000E+01
    -34.264  0.0000E+00  0.0000E+00  0.2000E+01  0.2000E+01
    -34.029  0.0000E+00  0.0000E+00  0.2000E+01  0.2000E+01
    -33.793  0.0000E+00  0.0000E+00  0.2000E+01  0.2000E+01
    -33.558  0.0000E+00  0.0000E+00  0.2000E+01  0.2000E+01
    -33.322  0.0000E+00  0.0000E+00  0.2000E+01  0.2000E+01
    -33.087  0.0000E+00  0.0000E+00  0.2000E+01  0.2000E+01
    -32.851  0.0000E+00  0.0000E+00  0.2000E+01  0.2000E+01
    -32.616  0.0000E+00  0.0000E+00  0.2000E+01  0.2000E+01
    -32.380  0.0000E+00  0.0000E+00  0.2000E+01  0.2000E+01
    -32.145  0.0000E+00  0.0000E+00  0.2000E+01  0.2000E+01
    -31.910  0.0000E+00  0.0000E+00  0.2000E+01  0.2000E+01
    -31.674  0.0000E+00  0.0000E+00  0.2000E+01  0.2000E+01
    -31.439  0.0000E+00  0.0000E+00  0.2000E+01  0.2000E+01
    -31.203  0.0000E+00  0.0000E+00  0.2000E+01  0.2000E+01
    -30.968  0.0000E+00  0.0000E+00  0.2000E+01  0.2000E+01
    -30.732  0.0000E+00  0.0000E+00  0.2000E+01  0.2000E+01
    -30.497  0.0000E+00  0.0000E+00  0.2000E+01  0.2000E+01
    -30.261  0.0000E+00  0.0000E+00  0.2000E+01  0.2000E+01
    -30.026  0.0000E+00  0.0000E+00  0.2000E+01  0.2000E+01
    -29.790  0.0000E+00  0.0000E+00  0.2000E+01  0.2000E+01
    -29.555  0.0000E+00  0.0000E+00  0.2000E+01  0.2000E+01
    -29.319  0.0000E+00  0.0000E+00  0.2000E+01  0.2000E+01
    -29.084  0.0000E+00  0.0000E+00  0.2000E+01  0.2000E+01
    -28.848  0.0000E+00  0.0000E+00  0.2000E+01  0.2000E+01
    -28.613  0.0000E+00  0.0000E+00  0.2000E+01  0.2000E+01
    -28.377  0.0000E+00  0.0000E+00  0.2000E+01  0.2000E+01
    -28.142  0.0000E+00  0.0000E+00  0.2000E+01  0.2000E+01
    -27.906  0.0000E+00  0.0000E+00  0.2000E+01  0.2000E+01
    -27.671  0.0000E+00  0.0000E+00  0.2000E+01  0.2000E+01
    -27.435  0.0000E+00  0.0000E+00  0.2000E+01  0.2000E+01
    -27.200  0.0000E+00  0.0000E+00  0.2000E+01  0.2000E+01
    -26.964  0.3910E-06  0.4946E-06  0.2000E+01  0.2000E+01
    -26.729  0.4264E-03  0.4285E-03  0.2000E+01  0.2000E+01
    -26.493  0.4720E-01  0.4744E-01  0.2011E+01  0.2011E+01
    -26.258  0.2617E+01  0.2625E+01  0.2628E+01  0.2629E+01
    -26.022  0.1058E+02  0.1058E+02  0.5118E+01  0.5122E+01
    -25.787  0.1143E+02  0.1142E+02  0.7827E+01  0.7828E+01
    -25.551  0.5830E+00  0.5793E+00  0.7999E+01  0.7999E+01
    -25.316  0.0000E+00  0.0000E+00  0.8000E+01  0.8000E+01
    -25.080  0.0000E+00  0.0000E+00  0.8000E+01  0.8000E+01
    -24.845  0.0000E+00  0.0000E+00  0.8000E+01  0.8000E+01
    -24.609  0.0000E+00  0.0000E+00  0.8000E+01  0.8000E+01
    -24.374  0.0000E+00  0.0000E+00  0.8000E+01  0.8000E+01
    -24.138  0.0000E+00  0.0000E+00  0.8000E+01  0.8000E+01
    -23.903  0.0000E+00  0.0000E+00  0.8000E+01  0.8000E+01
    -23.668  0.0000E+00  0.0000E+00  0.8000E+01  0.8000E+01
    -23.432  0.0000E+00  0.0000E+00  0.8000E+01  0.8000E+01
    -23.197  0.0000E+00  0.0000E+00  0.8000E+01  0.8000E+01
    -22.961  0.0000E+00  0.0000E+00  0.8000E+01  0.8000E+01
    -22.726  0.0000E+00  0.0000E+00  0.8000E+01  0.8000E+01
    -22.490  0.0000E+00  0.0000E+00  0.8000E+01  0.8000E+01
    -22.255  0.0000E+00  0.0000E+00  0.8000E+01  0.8000E+01
    -22.019  0.0000E+00  0.0000E+00  0.8000E+01  0.8000E+01
    -21.784  0.0000E+00  0.0000E+00  0.8000E+01  0.8000E+01
    -21.548  0.0000E+00  0.0000E+00  0.8000E+01  0.8000E+01
    -21.313  0.0000E+00  0.0000E+00  0.8000E+01  0.8000E+01
    -21.077  0.0000E+00  0.0000E+00  0.8000E+01  0.8000E+01
    -20.842  0.0000E+00  0.0000E+00  0.8000E+01  0.8000E+01
    -20.606  0.0000E+00  0.0000E+00  0.8000E+01  0.8000E+01
    -20.371  0.0000E+00  0.0000E+00  0.8000E+01  0.8000E+01
    -20.135  0.0000E+00  0.0000E+00  0.8000E+01  0.8000E+01
    -19.900  0.0000E+00  0.0000E+00  0.8000E+01  0.8000E+01
    -19.664  0.0000E+00  0.0000E+00  0.8000E+01  0.8000E+01
    -19.429  0.0000E+00  0.0000E+00  0.8000E+01  0.8000E+01
    -19.193  0.0000E+00  0.0000E+00  0.8000E+01  0.8000E+01
    -18.958  0.0000E+00  0.0000E+00  0.8000E+01  0.8000E+01
    -18.722  0.0000E+00  0.0000E+00  0.8000E+01  0.8000E+01
    -18.487  0.0000E+00  0.0000E+00  0.8000E+01  0.8000E+01
    -18.251  0.0000E+00  0.0000E+00  0.8000E+01  0.8000E+01
    -18.016  0.0000E+00  0.0000E+00  0.8000E+01  0.8000E+01
    -17.780  0.0000E+00  0.0000E+00  0.8000E+01  0.8000E+01
    -17.545  0.0000E+00  0.0000E+00  0.8000E+01  0.8000E+01
    -17.309  0.0000E+00  0.0000E+00  0.8000E+01  0.8000E+01
    -17.074  0.0000E+00  0.0000E+00  0.8000E+01  0.8000E+01
    -16.838  0.0000E+00  0.0000E+00  0.8000E+01  0.8000E+01
    -16.603  0.0000E+00  0.0000E+00  0.8000E+01  0.8000E+01
    -16.367  0.0000E+00  0.0000E+00  0.8000E+01  0.8000E+01
    -16.132  0.0000E+00  0.0000E+00  0.8000E+01  0.8000E+01
    -15.896  0.0000E+00  0.0000E+00  0.8000E+01  0.8000E+01
    -15.661  0.0000E+00  0.0000E+00  0.8000E+01  0.8000E+01
    -15.426  0.0000E+00  0.0000E+00  0.8000E+01  0.8000E+01
    -15.190  0.0000E+00  0.0000E+00  0.8000E+01  0.8000E+01
    -14.955  0.0000E+00  0.0000E+00  0.8000E+01  0.8000E+01
    -14.719  0.0000E+00  0.0000E+00  0.8000E+01  0.8000E+01
    -14.484  0.0000E+00  0.0000E+00  0.8000E+01  0.8000E+01
    -14.248  0.0000E+00  0.0000E+00  0.8000E+01  0.8000E+01
    -14.013  0.0000E+00  0.0000E+00  0.8000E+01  0.8000E+01
    -13.777  0.0000E+00  0.0000E+00  0.8000E+01  0.8000E+01
    -13.542  0.0000E+00  0.0000E+00  0.8000E+01  0.8000E+01
    -13.306  0.0000E+00  0.0000E+00  0.8000E+01  0.8000E+01
    -13.071  0.0000E+00  0.0000E+00  0.8000E+01  0.8000E+01
    -12.835  0.0000E+00  0.0000E+00  0.8000E+01  0.8000E+01
    -12.600  0.0000E+00  0.0000E+00  0.8000E+01  0.8000E+01
    -12.364  0.0000E+00  0.0000E+00  0.8000E+01  0.8000E+01
    -12.129  0.0000E+00  0.0000E+00  0.8000E+01  0.8000E+01
    -11.893  0.0000E+00  0.0000E+00  0.8000E+01  0.8000E+01
    -11.658  0.0000E+00  0.0000E+00  0.8000E+01  0.8000E+01
    -11.422  0.0000E+00  0.0000E+00  0.8000E+01  0.8000E+01
    -11.187  0.0000E+00  0.0000E+00  0.8000E+01  0.8000E+01
    -10.951  0.0000E+00  0.0000E+00  0.8000E+01  0.8000E+01
    -10.716  0.0000E+00  0.0000E+00  0.8000E+01  0.8000E+01
    -10.480  0.0000E+00  0.0000E+00  0.8000E+01  0.8000E+01
    -10.245  0.0000E+00  0.0000E+00  0.8000E+01  0.8000E+01
    -10.009  0.0000E+00  0.0000E+00  0.8000E+01  0.8000E+01
     -9.774  0.0000E+00  0.0000E+00  0.8000E+01  0.8000E+01
     -9.538  0.0000E+00  0.0000E+00  0.8000E+01  0.8000E+01
     -9.303  0.0000E+00  0.0000E+00  0.8000E+01  0.8000E+01
     -9.067  0.0000E+00  0.0000E+00  0.8000E+01  0.8000E+01
     -8.832  0.0000E+00  0.0000E+00  0.8000E+01  0.8000E+01
     -8.596  0.0000E+00  0.0000E+00  0.8000E+01  0.8000E+01
     -8.361  0.0000E+00  0.0000E+00  0.8000E+01  0.8000E+01
     -8.125  0.0000E+00  0.0000E+00  0.8000E+01  0.8000E+01
     -7.890  0.0000E+00  0.0000E+00  0.8000E+01  0.8000E+01
     -7.654  0.0000E+00  0.0000E+00  0.8000E+01  0.8000E+01
     -7.419  0.0000E+00  0.0000E+00  0.8000E+01  0.8000E+01
     -7.184  0.0000E+00  0.0000E+00  0.8000E+01  0.8000E+01
     -6.948  0.0000E+00  0.0000E+00  0.8000E+01  0.8000E+01
     -6.713  0.0000E+00  0.0000E+00  0.8000E+01  0.8000E+01
     -6.477  0.0000E+00  0.0000E+00  0.8000E+01  0.8000E+01
     -6.242  0.0000E+00  0.0000E+00  0.8000E+01  0.8000E+01
     -6.006  0.0000E+00  0.0000E+00  0.8000E+01  0.8000E+01
     -5.771  0.0000E+00  0.0000E+00  0.8000E+01  0.8000E+01
     -5.535  0.0000E+00  0.0000E+00  0.8000E+01  0.8000E+01
     -5.300  0.0000E+00  0.0000E+00  0.8000E+01  0.8000E+01
     -5.064  0.0000E+00  0.0000E+00  0.8000E+01  0.8000E+01
     -4.829  0.0000E+00  0.0000E+00  0.8000E+01  0.8000E+01
     -4.593  0.0000E+00  0.0000E+00  0.8000E+01  0.8000E+01
     -4.358  0.0000E+00  0.0000E+00  0.8000E+01  0.8000E+01
     -4.122  0.0000E+00  0.0000E+00  0.8000E+01  0.8000E+01
     -3.887  0.0000E+00  0.0000E+00  0.8000E+01  0.8000E+01
     -3.651  0.0000E+00  0.0000E+00  0.8000E+01  0.8000E+01
     -3.416  0.0000E+00  0.0000E+00  0.8000E+01  0.8000E+01
     -3.180  0.0000E+00  0.0000E+00  0.8000E+01  0.8000E+01
     -2.945  0.0000E+00  0.0000E+00  0.8000E+01  0.8000E+01
     -2.709  0.0000E+00  0.0000E+00  0.8000E+01  0.8000E+01
     -2.474  0.0000E+00  0.0000E+00  0.8000E+01  0.8000E+01
     -2.238  0.0000E+00  0.0000E+00  0.8000E+01  0.8000E+01
     -2.003  0.0000E+00  0.0000E+00  0.8000E+01  0.8000E+01
     -1.767  0.0000E+00  0.0000E+00  0.8000E+01  0.8000E+01
     -1.532  0.0000E+00  0.0000E+00  0.8000E+01  0.8000E+01
     -1.296  0.0000E+00  0.0000E+00  0.8000E+01  0.8000E+01
     -1.061  0.0000E+00  0.0000E+00  0.8000E+01  0.8000E+01
     -0.825  0.0000E+00  0.0000E+00  0.8000E+01  0.8000E+01
     -0.590  0.0000E+00  0.0000E+00  0.8000E+01  0.8000E+01
     -0.354  0.0000E+00  0.0000E+00  0.8000E+01  0.8000E+01
     -0.119  0.0000E+00  0.0000E+00  0.8000E+01  0.8000E+01
      0.117  0.0000E+00  0.0000E+00  0.8000E+01  0.8000E+01
      0.352  0.0000E+00  0.0000E+00  0.8000E+01  0.8000E+01
      0.588  0.0000E+00  0.0000E+00  0.8000E+01  0.8000E+01
      0.823  0.7980E-06  0.7932E-06  0.8000E+01  0.8000E+01
      1.058  0.9192E-04  0.9137E-04  0.8000E+01  0.8000E+01
      1.294  0.5466E-02  0.5444E-02  0.8001E+01  0.8001E+01
      1.529  0.4191E-01  0.4187E-01  0.8011E+01  0.8011E+01
      1.765  0.6274E-01  0.6267E-01  0.8026E+01  0.8026E+01
      2.000  0.9126E-01  0.9131E-01  0.8048E+01  0.8047E+01
      2.236  0.1003E+00  0.1003E+00  0.8071E+01  0.8071E+01
      2.471  0.1271E+00  0.1271E+00  0.8102E+01  0.8102E+01
      2.707  0.1581E+00  0.1581E+00  0.8139E+01  0.8139E+01
      2.942  0.1236E+00  0.1235E+00  0.8168E+01  0.8168E+01
      3.178  0.2344E+00  0.2344E+00  0.8224E+01  0.8224E+01
      3.413  0.1842E+00  0.1842E+00  0.8268E+01  0.8268E+01
      3.649  0.2254E+00  0.2252E+00  0.8321E+01  0.8321E+01
      3.884  0.2693E+00  0.2693E+00  0.8385E+01  0.8384E+01
      4.120  0.3586E+00  0.3586E+00  0.8469E+01  0.8469E+01
      4.355  0.3395E+00  0.3396E+00  0.8550E+01  0.8550E+01
      4.591  0.4432E+00  0.4428E+00  0.8655E+01  0.8655E+01
      4.826  0.8199E+00  0.8201E+00  0.8848E+01  0.8848E+01
      5.062  0.8252E+00  0.8252E+00  0.9044E+01  0.9044E+01
      5.297  0.1028E+01  0.1028E+01  0.9287E+01  0.9287E+01
      5.533  0.1152E+01  0.1152E+01  0.9561E+01  0.9561E+01
      5.768  0.1394E+01  0.1394E+01  0.9891E+01  0.9891E+01
      6.004  0.1397E+01  0.1397E+01  0.1022E+02  0.1022E+02
      6.239  0.1450E+01  0.1449E+01  0.1057E+02  0.1057E+02
      6.475  0.1871E+01  0.1870E+01  0.1101E+02  0.1101E+02
      6.710  0.2019E+01  0.2020E+01  0.1149E+02  0.1149E+02
      6.946  0.1208E+01  0.1208E+01  0.1178E+02  0.1178E+02
      7.181  0.9772E+00  0.9773E+00  0.1201E+02  0.1201E+02
      7.417  0.1830E+01  0.1831E+01  0.1244E+02  0.1244E+02
      7.652  0.2462E+01  0.2462E+01  0.1302E+02  0.1302E+02
      7.888  0.2549E+01  0.2549E+01  0.1363E+02  0.1363E+02
      8.123  0.2859E+01  0.2859E+01  0.1431E+02  0.1431E+02
      8.359  0.2258E+01  0.2258E+01  0.1484E+02  0.1484E+02
      8.594  0.1502E+01  0.1502E+01  0.1520E+02  0.1520E+02
      8.830  0.1237E+01  0.1236E+01  0.1550E+02  0.1550E+02
      9.065  0.1271E+01  0.1270E+01  0.1580E+02  0.1580E+02
      9.300  0.1286E+01  0.1287E+01  0.1610E+02  0.1610E+02
      9.536  0.1535E+01  0.1535E+01  0.1647E+02  0.1647E+02
      9.771  0.2118E+01  0.2119E+01  0.1697E+02  0.1697E+02
     10.007  0.3349E+01  0.3350E+01  0.1776E+02  0.1776E+02
     10.242  0.3347E+01  0.3345E+01  0.1855E+02  0.1856E+02
     10.478  0.9892E+00  0.9882E+00  0.1879E+02  0.1880E+02
     10.713  0.7519E+00  0.7516E+00  0.1897E+02  0.1897E+02
     10.949  0.4607E+00  0.4604E+00  0.1908E+02  0.1908E+02
     11.184  0.6334E+00  0.6337E+00  0.1923E+02  0.1923E+02
     11.420  0.4000E+00  0.3997E+00  0.1933E+02  0.1933E+02
     11.655  0.4175E+00  0.4146E+00  0.1943E+02  0.1943E+02
     11.891  0.3862E+00  0.3876E+00  0.1952E+02  0.1952E+02
     12.126  0.4147E+00  0.4136E+00  0.1962E+02  0.1962E+02
     12.362  0.4031E+00  0.4058E+00  0.1971E+02  0.1971E+02
     12.597  0.3276E+00  0.3266E+00  0.1979E+02  0.1979E+02
     12.833  0.1981E+00  0.1969E+00  0.1984E+02  0.1984E+02
     13.068  0.3193E+00  0.3241E+00  0.1991E+02  0.1991E+02
     13.304  0.1659E+00  0.1650E+00  0.1995E+02  0.1995E+02
     13.539  0.6641E-01  0.6377E-01  0.1997E+02  0.1997E+02
     13.775  0.5092E-01  0.5184E-01  0.1998E+02  0.1998E+02
     14.010  0.4424E-01  0.4356E-01  0.1999E+02  0.1999E+02
     14.246  0.1886E-01  0.1950E-01  0.2000E+02  0.2000E+02
     14.481  0.1320E-01  0.1339E-01  0.2000E+02  0.2000E+02
     14.717  0.6993E-03  0.7891E-03  0.2000E+02  0.2000E+02
     14.952  0.0000E+00  0.0000E+00  0.2000E+02  0.2000E+02
     15.188  0.0000E+00  0.0000E+00  0.2000E+02  0.2000E+02
     15.423  0.0000E+00  0.0000E+00  0.2000E+02  0.2000E+02
     15.659  0.0000E+00  0.0000E+00  0.2000E+02  0.2000E+02
     15.894  0.0000E+00  0.0000E+00  0.2000E+02  0.2000E+02
     16.130  0.0000E+00  0.0000E+00  0.2000E+02  0.2000E+02
     16.365  0.0000E+00  0.0000E+00  0.2000E+02  0.2000E+02
     16.601  0.0000E+00  0.0000E+00  0.2000E+02  0.2000E+02
     16.836  0.0000E+00  0.0000E+00  0.2000E+02  0.2000E+02
     17.072  0.0000E+00  0.0000E+00  0.2000E+02  0.2000E+02
     17.307  0.0000E+00  0.0000E+00  0.2000E+02  0.2000E+02
     17.542  0.0000E+00  0.0000E+00  0.2000E+02  0.2000E+02
     17.54249118    -53.10323917  301      7.17268431      1.00000000
    -53.103  0.0000E+00  0.0000E+00  0.0000E+00  0.0000E+00  0.0000E+00  0.0000E+00  0.0000E+00  0.0000E+00  0.0000E+00  0.0000E+00  0.0000E+00  0.0000E+00  0.0000E+00  0.0000E+00  0.0000E+00  0.0000E+00  0.0000E+00  0.0000E+00
    -52.868  0.0000E+00  0.0000E+00  0.0000E+00  0.0000E+00  0.0000E+00  0.0000E+00  0.0000E+00  0.0000E+00  0.0000E+00  0.0000E+00  0.0000E+00  0.0000E+00  0.0000E+00  0.0000E+00  0.0000E+00  0.0000E+00  0.0000E+00  0.0000E+00
    -52.632  0.0000E+00  0.0000E+00  0.0000E+00  0.0000E+00  0.0000E+00  0.0000E+00  0.0000E+00  0.0000E+00  0.0000E+00  0.0000E+00  0.0000E+00  0.0000E+00  0.0000E+00  0.0000E+00  0.0000E+00  0.0000E+00  0.0000E+00  0.0000E+00
    -52.397  0.0000E+00  0.0000E+00  0.0000E+00  0.0000E+00  0.0000E+00  0.0000E+00  0.0000E+00  0.0000E+00  0.0000E+00  0.0000E+00  0.0000E+00  0.0000E+00  0.0000E+00  0.0000E+00  0.0000E+00  0.0000E+00  0.0000E+00  0.0000E+00
    -52.161  0.0000E+00  0.0000E+00  0.0000E+00  0.0000E+00  0.0000E+00  0.0000E+00  0.0000E+00  0.0000E+00  0.0000E+00  0.0000E+00  0.0000E+00  0.0000E+00  0.0000E+00  0.0000E+00  0.0000E+00  0.0000E+00  0.0000E+00  0.0000E+00
    -51.926  0.0000E+00  0.0000E+00  0.0000E+00  0.0000E+00  0.0000E+00  0.0000E+00  0.0000E+00  0.0000E+00  0.0000E+00  0.0000E+00  0.0000E+00  0.0000E+00  0.0000E+00  0.0000E+00  0.0000E+00  0.0000E+00  0.0000E+00  0.0000E+00
    -51.690  0.0000E+00  0.0000E+00  0.0000E+00  0.0000E+00  0.0000E+00  0.0000E+00  0.0000E+00  0.0000E+00  0.0000E+00  0.0000E+00  0.0000E+00  0.0000E+00  0.0000E+00  0.0000E+00  0.0000E+00  0.0000E+00  0.0000E+00  0.0000E+00
    -51.455  0.0000E+00  0.0000E+00  0.0000E+00  0.0000E+00  0.0000E+00  0.0000E+00  0.0000E+00  0.0000E+00  0.0000E+00  0.0000E+00  0.0000E+00  0.0000E+00  0.0000E+00  0.0000E+00  0.0000E+00  0.0000E+00  0.0000E+00  0.0000E+00
    -51.219  0.0000E+00  0.0000E+00  0.0000E+00  0.0000E+00  0.0000E+00  0.0000E+00  0.0000E+00  0.0000E+00  0.0000E+00  0.0000E+00  0.0000E+00  0.0000E+00  0.0000E+00  0.0000E+00  0.0000E+00  0.0000E+00  0.0000E+00  0.0000E+00
    -50.984  0.0000E+00  0.0000E+00  0.0000E+00  0.0000E+00  0.0000E+00  0.0000E+00  0.0000E+00  0.0000E+00  0.0000E+00  0.0000E+00  0.0000E+00  0.0000E+00  0.0000E+00  0.0000E+00  0.0000E+00  0.0000E+00  0.0000E+00  0.0000E+00
    -50.748  0.0000E+00  0.0000E+00  0.0000E+00  0.0000E+00  0.0000E+00  0.0000E+00  0.0000E+00  0.0000E+00  0.0000E+00  0.0000E+00  0.0000E+00  0.0000E+00  0.0000E+00  0.0000E+00  0.0000E+00  0.0000E+00  0.0000E+00  0.0000E+00
    -50.513  0.2719E-06  0.2733E-06  0.4053E-12  0.4082E-12  0.5043E-12  0.5079E-12  0.4053E-12  0.4082E-12  0.1346E-13  0.1352E-13  0.5627E-14  0.5651E-14  0.2533E-12  0.2552E-12  0.5627E-14  0.5651E-14  0.1346E-13  0.1352E-13
    -50.277  0.4692E-03  0.4717E-03  0.1009E-08  0.1014E-08  0.1312E-08  0.1320E-08  0.1009E-08  0.1014E-08  0.2794E-09  0.2809E-09  0.3060E-09  0.3077E-09  0.6799E-09  0.6843E-09  0.3060E-09  0.3077E-09  0.2794E-09  0.2809E-09
    -50.042  0.5083E-01  0.5110E-01  0.1090E-06  0.1096E-06  0.1418E-06  0.1427E-06  0.1090E-06  0.1096E-06  0.3034E-07  0.3050E-07  0.3329E-07  0.3346E-07  0.7372E-07  0.7420E-07  0.3329E-07  0.3346E-07  0.3034E-07  0.3050E-07
    -49.806  0.2259E+01  0.2264E+01  0.4221E-05  0.4230E-05  0.5658E-05  0.5673E-05  0.4221E-05  0.4230E-05  0.1435E-05  0.1439E-05  0.1684E-05  0.1689E-05  0.3354E-05  0.3366E-05  0.1684E-05  0.1689E-05  0.1435E-05  0.1439E-05
    -49.571  0.1882E+01  0.1877E+01  0.2726E-05  0.2718E-05  0.3810E-05  0.3801E-05  0.2726E-05  0.2718E-05  0.1191E-05  0.1188E-05  0.1543E-05  0.1539E-05  0.2759E-05  0.2754E-05  0.1543E-05  0.1539E-05  0.1191E-05  0.1188E-05
    -49.335  0.0000E+00  0.0000E+00  0.0000E+00  0.0000E+00  0.0000E+00  0.0000E+00  0.0000E+00  0.0000E+00  0.0000E+00  0.0000E+00  0.0000E+00  0.0000E+00  0.0000E+00  0.0000E+00  0.0000E+00  0.0000E+00  0.0000E+00  0.0000E+00
    -49.100  0.0000E+00  0.0000E+00  0.0000E+00  0.0000E+00  0.0000E+00  0.0000E+00  0.0000E+00  0.0000E+00  0.0000E+00  0.0000E+00  0.0000E+00  0.0000E+00  0.0000E+00  0.0000E+00  0.0000E+00  0.0000E+00  0.0000E+00  0.0000E+00
    -48.864  0.0000E+00  0.0000E+00  0.0000E+00  0.0000E+00  0.0000E+00  0.0000E+00  0.0000E+00  0.0000E+00  0.0000E+00  0.0000E+00  0.0000E+00  0.0000E+00  0.0000E+00  0.0000E+00  0.0000E+00  0.0000E+00  0.0000E+00  0.0000E+00
    -48.629  0.0000E+00  0.0000E+00  0.0000E+00  0.0000E+00  0.0000E+00  0.0000E+00  0.0000E+00  0.0000E+00  0.0000E+00  0.0000E+00  0.0000E+00  0.0000E+00  0.0000E+00  0.0000E+00  0.0000E+00  0.0000E+00  0.0000E+00  0.0000E+00
    -48.394  0.0000E+00  0.0000E+00  0.0000E+00  0.0000E+00  0.0000E+00  0.0000E+00  0.0000E+00  0.0000E+00  0.0000E+00  0.0000E+00  0.0000E+00  0.0000E+00  0.0000E+00  0.0000E+00  0.0000E+00  0.0000E+00  0.0000E+00  0.0000E+00
    -48.158  0.0000E+00  0.0000E+00  0.0000E+00  0.0000E+00  0.0000E+00  0.0000E+00  0.0000E+00  0.0000E+00  0.0000E+00  0.0000E+00  0.0000E+00  0.0000E+00  0.0000E+00  0.0000E+00  0.0000E+00  0.0000E+00  0.0000E+00  0.0000E+00
    -47.923  0.0000E+00  0.0000E+00  0.0000E+00  0.0000E+00  0.0000E+00  0.0000E+00  0.0000E+00  0.0000E+00  0.0000E+00  0.0000E+00  0.0000E+00  0.0000E+00  0.0000E+00  0.0000E+00  0.0000E+00  0.0000E+00  0.0000E+00  0.0000E+00
    -47.687  0.0000E+00  0.0000E+00  0.0000E+00  0.0000E+00  0.0000E+00  0.0000E+00  0.0000E+00  0.0000E+00  0.0000E+00  0.0000E+00  0.0000E+00  0.0000E+00  0.0000E+00  0.0000E+00  0.0000E+00  0.0000E+00  0.0000E+00  0.0000E+00
    -47.452  0.0000E+00  0.0000E+00  0.0000E+00  0.0000E+00  0.0000E+00  0.0000E+00  0.0000E+00  0.0000E+00  0.0000E+00  0.0000E+00  0.0000E+00  0.0000E+00  0.0000E+00  0.0000E+00  0.0000E+00  0.0000E+00  0.0000E+00  0.0000E+00
    -47.216  0.0000E+00  0.0000E+00  0.0000E+00  0.0000E+00  0.0000E+00  0.0000E+00  0.0000E+00  0.0000E+00  0.0000E+00  0.0000E+00  0.0000E+00  0.0000E+00  0.0000E+00  0.0000E+00  0.0000E+00  0.0000E+00  0.0000E+00  0.0000E+00
    -46.981  0.0000E+00  0.0000E+00  0.0000E+00  0.0000E+00  0.0000E+00  0.0000E+00  0.0000E+00  0.0000E+00  0.0000E+00  0.0000E+00  0.0000E+00  0.0000E+00  0.0000E+00  0.0000E+00  0.0000E+00  0.0000E+00  0.0000E+00  0.0000E+00
    -46.745  0.0000E+00  0.0000E+00  0.0000E+00  0.0000E+00  0.0000E+00  0.0000E+00  0.0000E+00  0.0000E+00  0.0000E+00  0.0000E+00  0.0000E+00  0.0000E+00  0.0000E+00  0.0000E+00  0.0000E+00  0.0000E+00  0.0000E+00  0.0000E+00
    -46.510  0.0000E+00  0.0000E+00  0.0000E+00  0.0000E+00  0.0000E+00  0.0000E+00  0.0000E+00  0.0000E+00  0.0000E+00  0.0000E+00  0.0000E+00  0.0000E+00  0.0000E+00  0.0000E+00  0.0000E+00  0.0000E+00  0.0000E+00  0.0000E+00
    -46.274  0.0000E+00  0.0000E+00  0.0000E+00  0.0000E+00  0.0000E+00  0.0000E+00  0.0000E+00  0.0000E+00  0.0000E+00  0.0000E+00  0.0000E+00  0.0000E+00  0.0000E+00  0.0000E+00  0.0000E+00  0.0000E+00  0.0000E+00  0.0000E+00
    -46.039  0.0000E+00  0.0000E+00  0.0000E+00  0.0000E+00  0.0000E+00  0.0000E+00  0.0000E+00  0.0000E+00  0.0000E+00  0.0000E+00  0.0000E+00  0.0000E+00  0.0000E+00  0.0000E+00  0.0000E+00  0.0000E+00  0.0000E+00  0.0000E+00
    -45.803  0.0000E+00  0.0000E+00  0.0000E+00  0.0000E+00  0.0000E+00  0.0000E+00  0.0000E+00  0.0000E+00  0.0000E+00  0.0000E+00  0.0000E+00  0.0000E+00  0.0000E+00  0.0000E+00  0.0000E+00  0.0000E+00  0.0000E+00  0.0000E+00
    -45.568  0.0000E+00  0.0000E+00  0.0000E+00  0.0000E+00  0.0000E+00  0.0000E+00  0.0000E+00  0.0000E+00  0.0000E+00  0.0000E+00  0.0000E+00  0.0000E+00  0.0000E+00  0.0000E+00  0.0000E+00  0.0000E+00  0.0000E+00  0.0000E+00
    -45.332  0.0000E+00  0.0000E+00  0.0000E+00  0.0000E+00  0.0000E+00  0.0000E+00  0.0000E+00  0.0000E+00  0.0000E+00  0.0000E+00  0.0000E+00  0.0000E+00  0.0000E+00  0.0000E+00  0.0000E+00  0.0000E+00  0.0000E+00  0.0000E+00
    -45.097  0.0000E+00  0.0000E+00  0.0000E+00  0.0000E+00  0.0000E+00  0.0000E+00  0.0000E+00  0.0000E+00  0.0000E+00  0.0000E+00  0.0000E+00  0.0000E+00  0.0000E+00  0.0000E+00  0.0000E+00  0.0000E+00  0.0000E+00  0.0000E+00
    -44.861  0.0000E+00  0.0000E+00  0.0000E+00  0.0000E+00  0.0000E+00  0.0000E+00  0.0000E+00  0.0000E+00  0.0000E+00  0.0000E+00  0.0000E+00  0.0000E+00  0.0000E+00  0.0000E+00  0.0000E+00  0.0000E+00  0.0000E+00  0.0000E+00
    -44.626  0.0000E+00  0.0000E+00  0.0000E+00  0.0000E+00  0.0000E+00  0.0000E+00  0.0000E+00  0.0000E+00  0.0000E+00  0.0000E+00  0.0000E+00  0.0000E+00  0.0000E+00  0.0000E+00  0.0000E+00  0.0000E+00  0.0000E+00  0.0000E+00
    -44.390  0.0000E+00  0.0000E+00  0.0000E+00  0.0000E+00  0.0000E+00  0.0000E+00  0.0000E+00  0.0000E+00  0.0000E+00  0.0000E+00  0.0000E+00  0.0000E+00  0.0000E+00  0.0000E+00  0.0000E+00  0.0000E+00  0.0000E+00  0.0000E+00
    -44.155  0.0000E+00  0.0000E+00  0.0000E+00  0.0000E+00  0.0000E+00  0.0000E+00  0.0000E+00  0.0000E+00  0.0000E+00  0.0000E+00  0.0000E+00  0.0000E+00  0.0000E+00  0.0000E+00  0.0000E+00  0.0000E+00  0.0000E+00  0.0000E+00
    -43.919  0.0000E+00  0.0000E+00  0.0000E+00  0.0000E+00  0.0000E+00  0.0000E+00  0.0000E+00  0.0000E+00  0.0000E+00  0.0000E+00  0.0000E+00  0.0000E+00  0.0000E+00  0.0000E+00  0.0000E+00  0.0000E+00  0.0000E+00  0.0000E+00
    -43.684  0.0000E+00  0.0000E+00  0.0000E+00  0.0000E+00  0.0000E+00  0.0000E+00  0.0000E+00  0.0000E+00  0.0000E+00  0.0000E+00  0.0000E+00  0.0000E+00  0.0000E+00  0.0000E+00  0.0000E+00  0.0000E+00  0.0000E+00  0.0000E+00
    -43.448  0.0000E+00  0.0000E+00  0.0000E+00  0.0000E+00  0.0000E+00  0.0000E+00  0.0000E+00  0.0000E+00  0.0000E+00  0.0000E+00  0.0000E+00  0.0000E+00  0.0000E+00  0.0000E+00  0.0000E+00  0.0000E+00  0.0000E+00  0.0000E+00
    -43.213  0.0000E+00  0.0000E+00  0.0000E+00  0.0000E+00  0.0000E+00  0.0000E+00  0.0000E+00  0.0000E+00  0.0000E+00  0.0000E+00  0.0000E+00  0.0000E+00  0.0000E+00  0.0000E+00  0.0000E+00  0.0000E+00  0.0000E+00  0.0000E+00
    -42.977  0.0000E+00  0.0000E+00  0.0000E+00  0.0000E+00  0.0000E+00  0.0000E+00  0.0000E+00  0.0000E+00  0.0000E+00  0.0000E+00  0.0000E+00  0.0000E+00  0.0000E+00  0.0000E+00  0.0000E+00  0.0000E+00  0.0000E+00  0.0000E+00
    -42.742  0.0000E+00  0.0000E+00  0.0000E+00  0.0000E+00  0.0000E+00  0.0000E+00  0.0000E+00  0.0000E+00  0.0000E+00  0.0000E+00  0.0000E+00  0.0000E+00  0.0000E+00  0.0000E+00  0.0000E+00  0.0000E+00  0.0000E+00  0.0000E+00
    -42.506  0.0000E+00  0.0000E+00  0.0000E+00  0.0000E+00  0.0000E+00  0.0000E+00  0.0000E+00  0.0000E+00  0.0000E+00  0.0000E+00  0.0000E+00  0.0000E+00  0.0000E+00  0.0000E+00  0.0000E+00  0.0000E+00  0.0000E+00  0.0000E+00
    -42.271  0.0000E+00  0.0000E+00  0.0000E+00  0.0000E+00  0.0000E+00  0.0000E+00  0.0000E+00  0.0000E+00  0.0000E+00  0.0000E+00  0.0000E+00  0.0000E+00  0.0000E+00  0.0000E+00  0.0000E+00  0.0000E+00  0.0000E+00  0.0000E+00
    -42.035  0.0000E+00  0.0000E+00  0.0000E+00  0.0000E+00  0.0000E+00  0.0000E+00  0.0000E+00  0.0000E+00  0.0000E+00  0.0000E+00  0.0000E+00  0.0000E+00  0.0000E+00  0.0000E+00  0.0000E+00  0.0000E+00  0.0000E+00  0.0000E+00
    -41.800  0.0000E+00  0.0000E+00  0.0000E+00  0.0000E+00  0.0000E+00  0.0000E+00  0.0000E+00  0.0000E+00  0.0000E+00  0.0000E+00  0.0000E+00  0.0000E+00  0.0000E+00  0.0000E+00  0.0000E+00  0.0000E+00  0.0000E+00  0.0000E+00
    -41.564  0.0000E+00  0.0000E+00  0.0000E+00  0.0000E+00  0.0000E+00  0.0000E+00  0.0000E+00  0.0000E+00  0.0000E+00  0.0000E+00  0.0000E+00  0.0000E+00  0.0000E+00  0.0000E+00  0.0000E+00  0.0000E+00  0.0000E+00  0.0000E+00
    -41.329  0.0000E+00  0.0000E+00  0.0000E+00  0.0000E+00  0.0000E+00  0.0000E+00  0.0000E+00  0.0000E+00  0.0000E+00  0.0000E+00  0.0000E+00  0.0000E+00  0.0000E+00  0.0000E+00  0.0000E+00  0.0000E+00  0.0000E+00  0.0000E+00