   2   2   1   0
  0.1262784E+02  0.2639759E-09  0.2639758E-09  0.4185045E-09  0.5000000E-15
  1.000000000000000E-004
  CAR 
 unknown system                          
     27.06427526    -47.73778811  301     12.17496548      1.00000000
    -47.738  0.0000E+00  0.0000E+00  0.0000E+00  0.0000E+00
    -47.488  0.0000E+00  0.0000E+00  0.0000E+00  0.0000E+00
    -47.239  0.0000E+00  0.0000E+00  0.0000E+00  0.0000E+00
    -46.990  0.0000E+00  0.0000E+00  0.0000E+00  0.0000E+00
    -46.740  0.0000E+00  0.0000E+00  0.0000E+00  0.0000E+00
    -46.491  0.0000E+00  0.0000E+00  0.0000E+00  0.0000E+00
    -46.242  0.0000E+00  0.0000E+00  0.0000E+00  0.0000E+00
    -45.992  0.0000E+00  0.0000E+00  0.0000E+00  0.0000E+00
    -45.743  0.0000E+00  0.0000E+00  0.0000E+00  0.0000E+00
    -45.494  0.0000E+00  0.0000E+00  0.0000E+00  0.0000E+00
    -45.244  0.0000E+00  0.0000E+00  0.0000E+00  0.0000E+00
    -44.995  0.0000E+00  0.0000E+00  0.0000E+00  0.0000E+00
    -44.746  0.2622E-04  0.2614E-04  0.6537E-05  0.6519E-05
    -44.496  0.3920E-02  0.3909E-02  0.9840E-03  0.9813E-03
    -44.247  0.2608E+00  0.2604E+00  0.6600E-01  0.6590E-01
    -43.998  0.1897E+01  0.1895E+01  0.5389E+00  0.5384E+00
    -43.748  0.5034E+01  0.5034E+01  0.1796E+01  0.1796E+01
    -43.499  0.7623E+00  0.7640E+00  0.1998E+01  0.1998E+01
    -43.250  0.0000E+00  0.0000E+00  0.2000E+01  0.2000E+01
    -43.000  0.0000E+00  0.0000E+00  0.2000E+01  0.2000E+01
    -42.751  0.0000E+00  0.0000E+00  0.2000E+01  0.2000E+01
    -42.502  0.0000E+00  0.0000E+00  0.2000E+01  0.2000E+01
    -42.252  0.0000E+00  0.0000E+00  0.2000E+01  0.2000E+01
    -42.003  0.0000E+00  0.0000E+00  0.2000E+01  0.2000E+01
    -41.754  0.0000E+00  0.0000E+00  0.2000E+01  0.2000E+01
    -41.504  0.0000E+00  0.0000E+00  0.2000E+01  0.2000E+01
    -41.255  0.0000E+00  0.0000E+00  0.2000E+01  0.2000E+01
    -41.006  0.0000E+00  0.0000E+00  0.2000E+01  0.2000E+01
    -40.756  0.0000E+00  0.0000E+00  0.2000E+01  0.2000E+01
    -40.507  0.0000E+00  0.0000E+00  0.2000E+01  0.2000E+01
    -40.258  0.0000E+00  0.0000E+00  0.2000E+01  0.2000E+01
    -40.008  0.0000E+00  0.0000E+00  0.2000E+01  0.2000E+01
    -39.759  0.0000E+00  0.0000E+00  0.2000E+01  0.2000E+01
    -39.510  0.0000E+00  0.0000E+00  0.2000E+01  0.2000E+01
    -39.260  0.0000E+00  0.0000E+00  0.2000E+01  0.2000E+01
    -39.011  0.0000E+00  0.0000E+00  0.2000E+01  0.2000E+01
    -38.762  0.0000E+00  0.0000E+00  0.2000E+01  0.2000E+01
    -38.512  0.0000E+00  0.0000E+00  0.2000E+01  0.2000E+01
    -38.263  0.0000E+00  0.0000E+00  0.2000E+01  0.2000E+01
    -38.014  0.0000E+00  0.0000E+00  0.2000E+01  0.2000E+01
    -37.764  0.0000E+00  0.0000E+00  0.2000E+01  0.2000E+01
    -37.515  0.0000E+00  0.0000E+00  0.2000E+01  0.2000E+01
    -37.265  0.0000E+00  0.0000E+00  0.2000E+01  0.2000E+01
    -37.016  0.0000E+00  0.0000E+00  0.2000E+01  0.2000E+01
    -36.767  0.0000E+00  0.0000E+00  0.2000E+01  0.2000E+01
    -36.517  0.0000E+00  0.0000E+00  0.2000E+01  0.2000E+01
    -36.268  0.0000E+00  0.0000E+00  0.2000E+01  0.2000E+01
    -36.019  0.0000E+00  0.0000E+00  0.2000E+01  0.2000E+01
    -35.769  0.0000E+00  0.0000E+00  0.2000E+01  0.2000E+01
    -35.520  0.0000E+00  0.0000E+00  0.2000E+01  0.2000E+01
    -35.271  0.0000E+00  0.0000E+00  0.2000E+01  0.2000E+01
    -35.021  0.0000E+00  0.0000E+00  0.2000E+01  0.2000E+01
    -34.772  0.0000E+00  0.0000E+00  0.2000E+01  0.2000E+01
    -34.523  0.0000E+00  0.0000E+00  0.2000E+01  0.2000E+01
    -34.273  0.0000E+00  0.0000E+00  0.2000E+01  0.2000E+01
    -34.024  0.0000E+00  0.0000E+00  0.2000E+01  0.2000E+01
    -33.775  0.0000E+00  0.0000E+00  0.2000E+01  0.2000E+01
    -33.525  0.0000E+00  0.0000E+00  0.2000E+01  0.2000E+01
    -33.276  0.0000E+00  0.0000E+00  0.2000E+01  0.2000E+01
    -33.027  0.0000E+00  0.0000E+00  0.2000E+01  0.2000E+01
    -32.777  0.0000E+00  0.0000E+00  0.2000E+01  0.2000E+01
    -32.528  0.0000E+00  0.0000E+00  0.2000E+01  0.2000E+01
    -32.279  0.0000E+00  0.0000E+00  0.2000E+01  0.2000E+01
    -32.029  0.0000E+00  0.0000E+00  0.2000E+01  0.2000E+01
    -31.780  0.0000E+00  0.0000E+00  0.2000E+01  0.2000E+01
    -31.531  0.0000E+00  0.0000E+00  0.2000E+01  0.2000E+01
    -31.281  0.0000E+00  0.0000E+00  0.2000E+01  0.2000E+01
    -31.032  0.0000E+00  0.0000E+00  0.2000E+01  0.2000E+01
    -30.783  0.0000E+00  0.0000E+00  0.2000E+01  0.2000E+01
    -30.533  0.0000E+00  0.0000E+00  0.2000E+01  0.2000E+01
    -30.284  0.0000E+00  0.0000E+00  0.2000E+01  0.2000E+01
    -30.035  0.0000E+00  0.0000E+00  0.2000E+01  0.2000E+01
    -29.785  0.0000E+00  0.0000E+00  0.2000E+01  0.2000E+01
    -29.536  0.0000E+00  0.0000E+00  0.2000E+01  0.2000E+01
    -29.287  0.0000E+00  0.0000E+00  0.2000E+01  0.2000E+01
    -29.037  0.0000E+00  0.0000E+00  0.2000E+01  0.2000E+01
    -28.788  0.0000E+00  0.0000E+00  0.2000E+01  0.2000E+01
    -28.539  0.0000E+00  0.0000E+00  0.2000E+01  0.2000E+01
    -28.289  0.0000E+00  0.0000E+00  0.2000E+01  0.2000E+01
    -28.040  0.0000E+00  0.0000E+00  0.2000E+01  0.2000E+01
    -27.791  0.0000E+00  0.0000E+00  0.2000E+01  0.2000E+01
    -27.541  0.0000E+00  0.0000E+00  0.2000E+01  0.2000E+01
    -27.292  0.0000E+00  0.0000E+00  0.2000E+01  0.2000E+01
    -27.043  0.0000E+00  0.0000E+00  0.2000E+01  0.2000E+01
    -26.793  0.0000E+00  0.0000E+00  0.2000E+01  0.2000E+01
    -26.544  0.0000E+00  0.0000E+00  0.2000E+01  0.2000E+01
    -26.295  0.0000E+00  0.0000E+00  0.2000E+01  0.2000E+01
    -26.045  0.0000E+00  0.0000E+00  0.2000E+01  0.2000E+01
    -25.796  0.0000E+00  0.0000E+00  0.2000E+01  0.2000E+01
    -25.547  0.0000E+00  0.0000E+00  0.2000E+01  0.2000E+01
    -25.297  0.0000E+00  0.0000E+00  0.2000E+01  0.2000E+01
    -25.048  0.0000E+00  0.0000E+00  0.2000E+01  0.2000E+01
    -24.798  0.0000E+00  0.0000E+00  0.2000E+01  0.2000E+01
    -24.549  0.0000E+00  0.0000E+00  0.2000E+01  0.2000E+01
    -24.300  0.0000E+00  0.0000E+00  0.2000E+01  0.2000E+01
    -24.050  0.0000E+00  0.0000E+00  0.2000E+01  0.2000E+01
    -23.801  0.0000E+00  0.0000E+00  0.2000E+01  0.2000E+01
    -23.552  0.0000E+00  0.0000E+00  0.2000E+01  0.2000E+01
    -23.302  0.0000E+00  0.0000E+00  0.2000E+01  0.2000E+01
    -23.053  0.0000E+00  0.0000E+00  0.2000E+01  0.2000E+01
    -22.804  0.0000E+00  0.0000E+00  0.2000E+01  0.2000E+01
    -22.554  0.0000E+00  0.0000E+00  0.2000E+01  0.2000E+01
    -22.305  0.0000E+00  0.0000E+00  0.2000E+01  0.2000E+01
    -22.056  0.8169E-08  0.8155E-08  0.2000E+01  0.2000E+01
    -21.806  0.1396E-04  0.1393E-04  0.2000E+01  0.2000E+01
    -21.557  0.2191E-02  0.2187E-02  0.2001E+01  0.2001E+01
    -21.308  0.1548E+00  0.1546E+00  0.2039E+01  0.2039E+01
    -21.058  0.1830E+01  0.1829E+01  0.2496E+01  0.2495E+01
    -20.809  0.3233E+01  0.3233E+01  0.3303E+01  0.3303E+01
    -20.560  0.2153E+01  0.2153E+01  0.3848E+01  0.3848E+01
    -20.310  0.2468E+01  0.2468E+01  0.4469E+01  0.4468E+01
    -20.061  0.3824E+01  0.3823E+01  0.5428E+01  0.5428E+01
    -19.812  0.5925E+01  0.5925E+01  0.6914E+01  0.6913E+01
    -19.562  0.3955E+01  0.3957E+01  0.7912E+01  0.7912E+01
    -19.313  0.2968E+00  0.2972E+00  0.7999E+01  0.7999E+01
    -19.064  0.0000E+00  0.0000E+00  0.8000E+01  0.8000E+01
    -18.814  0.0000E+00  0.0000E+00  0.8000E+01  0.8000E+01
    -18.565  0.0000E+00  0.0000E+00  0.8000E+01  0.8000E+01
    -18.316  0.0000E+00  0.0000E+00  0.8000E+01  0.8000E+01
    -18.066  0.0000E+00  0.0000E+00  0.8000E+01  0.8000E+01
    -17.817  0.0000E+00  0.0000E+00  0.8000E+01  0.8000E+01
    -17.568  0.0000E+00  0.0000E+00  0.8000E+01  0.8000E+01
    -17.318  0.0000E+00  0.0000E+00  0.8000E+01  0.8000E+01
    -17.069  0.0000E+00  0.0000E+00  0.8000E+01  0.8000E+01
    -16.820  0.0000E+00  0.0000E+00  0.8000E+01  0.8000E+01
    -16.570  0.0000E+00  0.0000E+00  0.8000E+01  0.8000E+01
    -16.321  0.0000E+00  0.0000E+00  0.8000E+01  0.8000E+01
    -16.072  0.0000E+00  0.0000E+00  0.8000E+01  0.8000E+01
    -15.822  0.0000E+00  0.0000E+00  0.8000E+01  0.8000E+01
    -15.573  0.0000E+00  0.0000E+00  0.8000E+01  0.8000E+01
    -15.324  0.0000E+00  0.0000E+00  0.8000E+01  0.8000E+01
    -15.074  0.0000E+00  0.0000E+00  0.8000E+01  0.8000E+01
    -14.825  0.0000E+00  0.0000E+00  0.8000E+01  0.8000E+01
    -14.576  0.0000E+00  0.0000E+00  0.8000E+01  0.8000E+01
    -14.326  0.0000E+00  0.0000E+00  0.8000E+01  0.8000E+01
    -14.077  0.0000E+00  0.0000E+00  0.8000E+01  0.8000E+01
    -13.828  0.0000E+00  0.0000E+00  0.8000E+01  0.8000E+01
    -13.578  0.0000E+00  0.0000E+00  0.8000E+01  0.8000E+01
    -13.329  0.0000E+00  0.0000E+00  0.8000E+01  0.8000E+01
    -13.079  0.0000E+00  0.0000E+00  0.8000E+01  0.8000E+01
    -12.830  0.0000E+00  0.0000E+00  0.8000E+01  0.8000E+01
    -12.581  0.0000E+00  0.0000E+00  0.8000E+01  0.8000E+01
    -12.331  0.0000E+00  0.0000E+00  0.8000E+01  0.8000E+01
    -12.082  0.0000E+00  0.0000E+00  0.8000E+01  0.8000E+01
    -11.833  0.0000E+00  0.0000E+00  0.8000E+01  0.8000E+01
    -11.583  0.0000E+00  0.0000E+00  0.8000E+01  0.8000E+01
    -11.334  0.0000E+00  0.0000E+00  0.8000E+01  0.8000E+01
    -11.085  0.0000E+00  0.0000E+00  0.8000E+01  0.8000E+01
    -10.835  0.0000E+00  0.0000E+00  0.8000E+01  0.8000E+01
    -10.586  0.0000E+00  0.0000E+00  0.8000E+01  0.8000E+01
    -10.337  0.0000E+00  0.0000E+00  0.8000E+01  0.8000E+01
    -10.087  0.0000E+00  0.0000E+00  0.8000E+01  0.8000E+01
     -9.838  0.0000E+00  0.0000E+00  0.8000E+01  0.8000E+01
     -9.589  0.0000E+00  0.0000E+00  0.8000E+01  0.8000E+01
     -9.339  0.0000E+00  0.0000E+00  0.8000E+01  0.8000E+01
     -9.090  0.0000E+00  0.0000E+00  0.8000E+01  0.8000E+01
     -8.841  0.0000E+00  0.0000E+00  0.8000E+01  0.8000E+01
     -8.591  0.0000E+00  0.0000E+00  0.8000E+01  0.8000E+01
     -8.342  0.0000E+00  0.0000E+00  0.8000E+01  0.8000E+01
     -8.093  0.0000E+00  0.0000E+00  0.8000E+01  0.8000E+01
     -7.843  0.0000E+00  0.0000E+00  0.8000E+01  0.8000E+01
     -7.594  0.0000E+00  0.0000E+00  0.8000E+01  0.8000E+01
     -7.345  0.0000E+00  0.0000E+00  0.8000E+01  0.8000E+01
     -7.095  0.0000E+00  0.0000E+00  0.8000E+01  0.8000E+01
     -6.846  0.0000E+00  0.0000E+00  0.8000E+01  0.8000E+01
     -6.597  0.0000E+00  0.0000E+00  0.8000E+01  0.8000E+01
     -6.347  0.0000E+00  0.0000E+00  0.8000E+01  0.8000E+01
     -6.098  0.0000E+00  0.0000E+00  0.8000E+01  0.8000E+01
     -5.849  0.0000E+00  0.0000E+00  0.8000E+01  0.8000E+01
     -5.599  0.0000E+00  0.0000E+00  0.8000E+01  0.8000E+01
     -5.350  0.0000E+00  0.0000E+00  0.8000E+01  0.8000E+01
     -5.101  0.0000E+00  0.0000E+00  0.8000E+01  0.8000E+01
     -4.851  0.0000E+00  0.0000E+00  0.8000E+01  0.8000E+01
     -4.602  0.0000E+00  0.0000E+00  0.8000E+01  0.8000E+01
     -4.353  0.0000E+00  0.0000E+00  0.8000E+01  0.8000E+01
     -4.103  0.0000E+00  0.0000E+00  0.8000E+01  0.8000E+01
     -3.854  0.0000E+00  0.0000E+00  0.8000E+01  0.8000E+01
     -3.605  0.0000E+00  0.0000E+00  0.8000E+01  0.8000E+01
     -3.355  0.0000E+00  0.0000E+00  0.8000E+01  0.8000E+01
     -3.106  0.0000E+00  0.0000E+00  0.8000E+01  0.8000E+01
     -2.857  0.0000E+00  0.0000E+00  0.8000E+01  0.8000E+01
     -2.607  0.0000E+00  0.0000E+00  0.8000E+01  0.8000E+01
     -2.358  0.0000E+00  0.0000E+00  0.8000E+01  0.8000E+01
     -2.109  0.0000E+00  0.0000E+00  0.8000E+01  0.8000E+01
     -1.859  0.0000E+00  0.0000E+00  0.8000E+01  0.8000E+01
     -1.610  0.0000E+00  0.0000E+00  0.8000E+01  0.8000E+01
     -1.361  0.0000E+00  0.0000E+00  0.8000E+01  0.8000E+01
     -1.111  0.0000E+00  0.0000E+00  0.8000E+01  0.8000E+01
     -0.862  0.0000E+00  0.0000E+00  0.8000E+01  0.8000E+01
     -0.612  0.0000E+00  0.0000E+00  0.8000E+01  0.8000E+01
     -0.363  0.0000E+00  0.0000E+00  0.8000E+01  0.8000E+01
     -0.114  0.0000E+00  0.0000E+00  0.8000E+01  0.8000E+01
      0.136  0.0000E+00  0.0000E+00  0.8000E+01  0.8000E+01
      0.385  0.0000E+00  0.0000E+00  0.8000E+01  0.8000E+01
      0.634  0.0000E+00  0.0000E+00  0.8000E+01  0.8000E+01
      0.884  0.0000E+00  0.0000E+00  0.8000E+01  0.8000E+01
      1.133  0.0000E+00  0.0000E+00  0.8000E+01  0.8000E+01
      1.382  0.0000E+00  0.0000E+00  0.8000E+01  0.8000E+01
      1.632  0.0000E+00  0.0000E+00  0.8000E+01  0.8000E+01
      1.881  0.0000E+00  0.0000E+00  0.8000E+01  0.8000E+01
      2.130  0.0000E+00  0.0000E+00  0.8000E+01  0.8000E+01
      2.380  0.0000E+00  0.0000E+00  0.8000E+01  0.8000E+01
      2.629  0.0000E+00  0.0000E+00  0.8000E+01  0.8000E+01
      2.878  0.0000E+00  0.0000E+00  0.8000E+01  0.8000E+01
      3.128  0.0000E+00  0.0000E+00  0.8000E+01  0.8000E+01
      3.377  0.0000E+00  0.0000E+00  0.8000E+01  0.8000E+01
      3.626  0.0000E+00  0.0000E+00  0.8000E+01  0.8000E+01
      3.876  0.0000E+00  0.0000E+00  0.8000E+01  0.8000E+01
      4.125  0.0000E+00  0.0000E+00  0.8000E+01  0.8000E+01
      4.374  0.0000E+00  0.0000E+00  0.8000E+01  0.8000E+01
      4.624  0.0000E+00  0.0000E+00  0.8000E+01  0.8000E+01
      4.873  0.4458E-07  0.4459E-07  0.8000E+01  0.8000E+01
      5.122  0.7580E-05  0.7582E-05  0.8000E+01  0.8000E+01
      5.372  0.8616E-03  0.8617E-03  0.8000E+01  0.8000E+01
      5.621  0.1205E-01  0.1205E-01  0.8003E+01  0.8003E+01
      5.870  0.3732E-01  0.3732E-01  0.8013E+01  0.8013E+01
      6.120  0.2872E-01  0.2872E-01  0.8020E+01  0.8020E+01
      6.369  0.7751E-01  0.7751E-01  0.8039E+01  0.8039E+01
      6.618  0.5074E-01  0.5075E-01  0.8052E+01  0.8052E+01
      6.868  0.7781E-01  0.7781E-01  0.8072E+01  0.8072E+01
      7.117  0.9655E-01  0.9655E-01  0.8096E+01  0.8096E+01
      7.366  0.1288E+00  0.1288E+00  0.8128E+01  0.8128E+01
      7.616  0.9162E-01  0.9162E-01  0.8151E+01  0.8151E+01
      7.865  0.1261E+00  0.1261E+00  0.8183E+01  0.8183E+01
      8.114  0.2372E+00  0.2371E+00  0.8242E+01  0.8242E+01
      8.364  0.2064E+00  0.2063E+00  0.8294E+01  0.8294E+01
      8.613  0.5615E+00  0.5615E+00  0.8435E+01  0.8435E+01
      8.862  0.9373E+00  0.9372E+00  0.8670E+01  0.8670E+01
      9.112  0.1013E+01  0.1013E+01  0.8925E+01  0.8925E+01
      9.361  0.1114E+01  0.1114E+01  0.9205E+01  0.9205E+01
      9.610  0.1252E+01  0.1252E+01  0.9519E+01  0.9519E+01
      9.860  0.1083E+01  0.1083E+01  0.9793E+01  0.9793E+01
     10.109  0.7984E+00  0.7984E+00  0.9995E+01  0.9995E+01
     10.358  0.8716E+00  0.8715E+00  0.1022E+02  0.1022E+02
     10.608  0.9255E+00  0.9254E+00  0.1045E+02  0.1045E+02
     10.857  0.1131E+01  0.1131E+01  0.1073E+02  0.1073E+02
     11.107  0.1173E+01  0.1173E+01  0.1103E+02  0.1103E+02
     11.356  0.1155E+01  0.1155E+01  0.1132E+02  0.1132E+02
     11.605  0.1392E+01  0.1392E+01  0.1167E+02  0.1167E+02
     11.855  0.5632E+00  0.5633E+00  0.1181E+02  0.1181E+02
     12.104  0.5110E+00  0.5110E+00  0.1194E+02  0.1194E+02
     12.353  0.1080E+01  0.1080E+01  0.1221E+02  0.1221E+02
     12.603  0.1553E+01  0.1553E+01  0.1260E+02  0.1260E+02
     12.852  0.1411E+01  0.1411E+01  0.1296E+02  0.1296E+02
     13.101  0.1177E+01  0.1177E+01  0.1325E+02  0.1325E+02
     13.351  0.1661E+01  0.1661E+01  0.1367E+02  0.1367E+02
     13.600  0.1760E+01  0.1760E+01  0.1411E+02  0.1411E+02
     13.849  0.1614E+01  0.1614E+01  0.1452E+02  0.1452E+02
     14.099  0.1297E+01  0.1297E+01  0.1485E+02  0.1485E+02
     14.348  0.1073E+01  0.1073E+01  0.1512E+02  0.1512E+02
     14.597  0.8652E+00  0.8652E+00  0.1534E+02  0.1534E+02
     14.847  0.6462E+00  0.6462E+00  0.1550E+02  0.1550E+02
     15.096  0.8459E+00  0.8459E+00  0.1571E+02  0.1571E+02
     15.345  0.6991E+00  0.6991E+00  0.1589E+02  0.1589E+02
     15.595  0.6510E+00  0.6509E+00  0.1606E+02  0.1606E+02
     15.844  0.8681E+00  0.8680E+00  0.1627E+02  0.1627E+02
     16.093  0.7781E+00  0.7782E+00  0.1647E+02  0.1647E+02
     16.343  0.1043E+01  0.1042E+01  0.1673E+02  0.1673E+02
     16.592  0.1267E+01  0.1267E+01  0.1705E+02  0.1705E+02
     16.841  0.1910E+01  0.1910E+01  0.1753E+02  0.1753E+02
     17.091  0.1992E+01  0.1992E+01  0.1803E+02  0.1803E+02
     17.340  0.1917E+01  0.1917E+01  0.1852E+02  0.1852E+02
     17.589  0.6341E+00  0.6342E+00  0.1868E+02  0.1868E+02
     17.839  0.2646E+00  0.2645E+00  0.1875E+02  0.1875E+02
     18.088  0.4790E+00  0.4790E+00  0.1887E+02  0.1887E+02
     18.337  0.4088E+00  0.4089E+00  0.1897E+02  0.1897E+02
     18.587  0.2410E+00  0.2409E+00  0.1903E+02  0.1903E+02
     18.836  0.2616E+00  0.2616E+00  0.1910E+02  0.1910E+02
     19.085  0.4190E+00  0.4189E+00  0.1920E+02  0.1920E+02
     19.335  0.2982E+00  0.2982E+00  0.1928E+02  0.1928E+02
     19.584  0.1747E+00  0.1750E+00  0.1932E+02  0.1932E+02
     19.833  0.3063E+00  0.3050E+00  0.1940E+02  0.1940E+02
     20.083  0.2243E+00  0.2238E+00  0.1946E+02  0.1946E+02
     20.332  0.2743E+00  0.2714E+00  0.1953E+02  0.1953E+02
     20.581  0.2920E+00  0.2955E+00  0.1960E+02  0.1960E+02
     20.831  0.1830E+00  0.1826E+00  0.1965E+02  0.1965E+02
     21.080  0.2762E+00  0.2764E+00  0.1972E+02  0.1972E+02
     21.329  0.2640E+00  0.2612E+00  0.1978E+02  0.1978E+02
     21.579  0.1366E+00  0.1399E+00  0.1982E+02  0.1982E+02
     21.828  0.2030E+00  0.2065E+00  0.1987E+02  0.1987E+02
     22.077  0.2081E+00  0.2044E+00  0.1992E+02  0.1992E+02
     22.327  0.1298E+00  0.1305E+00  0.1995E+02  0.1995E+02
     22.576  0.4628E-01  0.4512E-01  0.1997E+02  0.1997E+02
     22.825  0.3302E-01  0.3313E-01  0.1997E+02  0.1997E+02
     23.075  0.3348E-01  0.3370E-01  0.1998E+02  0.1998E+02
     23.324  0.3404E-01  0.3403E-01  0.1999E+02  0.1999E+02
     23.574  0.1931E-01  0.1929E-01  0.2000E+02  0.2000E+02
     23.823  0.1297E-01  0.1296E-01  0.2000E+02  0.2000E+02
     24.072  0.0000E+00  0.0000E+00  0.2000E+02  0.2000E+02
     24.322  0.0000E+00  0.0000E+00  0.2000E+02  0.2000E+02
     24.571  0.0000E+00  0.0000E+00  0.2000E+02  0.2000E+02
     24.820  0.0000E+00  0.0000E+00  0.2000E+02  0.2000E+02
     25.070  0.0000E+00  0.0000E+00  0.2000E+02  0.2000E+02
     25.319  0.0000E+00  0.0000E+00  0.2000E+02  0.2000E+02
     25.568  0.0000E+00  0.0000E+00  0.2000E+02  0.2000E+02
     25.818  0.0000E+00  0.0000E+00  0.2000E+02  0.2000E+02
     26.067  0.0000E+00  0.0000E+00  0.2000E+02  0.2000E+02
     26.316  0.0000E+00  0.0000E+00  0.2000E+02  0.2000E+02
     26.566  0.0000E+00  0.0000E+00  0.2000E+02  0.2000E+02
     26.815  0.0000E+00  0.0000E+00  0.2000E+02  0.2000E+02
     27.064  0.0000E+00  0.0000E+00  0.2000E+02  0.2000E+02
     27.06427526    -47.73778811  301     12.17496548      1.00000000
    -47.738  0.0000E+00  0.0000E+00  0.0000E+00  0.0000E+00  0.0000E+00  0.0000E+00  0.0000E+00  0.0000E+00  0.0000E+00  0.0000E+00  0.0000E+00  0.0000E+00  0.0000E+00  0.0000E+00  0.0000E+00  0.0000E+00  0.0000E+00  0.0000E+00
    -47.488  0.0000E+00  0.0000E+00  0.0000E+00  0.0000E+00  0.0000E+00  0.0000E+00  0.0000E+00  0.0000E+00  0.0000E+00  0.0000E+00  0.0000E+00  0.0000E+00  0.0000E+00  0.0000E+00  0.0000E+00  0.0000E+00  0.0000E+00  0.0000E+00
    -47.239  0.0000E+00  0.0000E+00  0.0000E+00  0.0000E+00  0.0000E+00  0.0000E+00  0.0000E+00  0.0000E+00  0.0000E+00  0.0000E+00  0.0000E+00  0.0000E+00  0.0000E+00  0.0000E+00  0.0000E+00  0.0000E+00  0.0000E+00  0.0000E+00
    -46.990  0.0000E+00  0.0000E+00  0.0000E+00  0.0000E+00  0.0000E+00  0.0000E+00  0.0000E+00  0.0000E+00  0.0000E+00  0.0000E+00  0.0000E+00  0.0000E+00  0.0000E+00  0.0000E+00  0.0000E+00  0.0000E+00  0.0000E+00  0.0000E+00
    -46.740  0.0000E+00  0.0000E+00  0.0000E+00  0.0000E+00  0.0000E+00  0.0000E+00  0.0000E+00  0.0000E+00  0.0000E+00  0.0000E+00  0.0000E+00  0.0000E+00  0.0000E+00  0.0000E+00  0.0000E+00  0.0000E+00  0.0000E+00  0.0000E+00
    -46.491  0.0000E+00  0.0000E+00  0.0000E+00  0.0000E+00  0.0000E+00  0.0000E+00  0.0000E+00  0.0000E+00  0.0000E+00  0.0000E+00  0.0000E+00  0.0000E+00  0.0000E+00  0.0000E+00  0.0000E+00  0.0000E+00  0.0000E+00  0.0000E+00
    -46.242  0.0000E+00  0.0000E+00  0.0000E+00  0.0000E+00  0.0000E+00  0.0000E+00  0.0000E+00  0.0000E+00  0.0000E+00  0.0000E+00  0.0000E+00  0.0000E+00  0.0000E+00  0.0000E+00  0.0000E+00  0.0000E+00  0.0000E+00  0.0000E+00
    -45.992  0.0000E+00  0.0000E+00  0.0000E+00  0.0000E+00  0.0000E+00  0.0000E+00  0.0000E+00  0.0000E+00  0.0000E+00  0.0000E+00  0.0000E+00  0.0000E+00  0.0000E+00  0.0000E+00  0.0000E+00  0.0000E+00  0.0000E+00  0.0000E+00
    -45.743  0.0000E+00  0.0000E+00  0.0000E+00  0.0000E+00  0.0000E+00  0.0000E+00  0.0000E+00  0.0000E+00  0.0000E+00  0.0000E+00  0.0000E+00  0.0000E+00  0.0000E+00  0.0000E+00  0.0000E+00  0.0000E+00  0.0000E+00  0.0000E+00
    -45.494  0.0000E+00  0.0000E+00  0.0000E+00  0.0000E+00  0.0000E+00  0.0000E+00  0.0000E+00  0.0000E+00  0.0000E+00  0.0000E+00  0.0000E+00  0.0000E+00  0.0000E+00  0.0000E+00  0.0000E+00  0.0000E+00  0.0000E+00  0.0000E+00
    -45.244  0.0000E+00  0.0000E+00  0.0000E+00  0.0000E+00  0.0000E+00  0.0000E+00  0.0000E+00  0.0000E+00  0.0000E+00  0.0000E+00  0.0000E+00  0.0000E+00  0.0000E+00  0.0000E+00  0.0000E+00  0.0000E+00  0.0000E+00  0.0000E+00
    -44.995  0.0000E+00  0.0000E+00  0.0000E+00  0.0000E+00  0.0000E+00  0.0000E+00  0.0000E+00  0.0000E+00  0.0000E+00  0.0000E+00  0.0000E+00  0.0000E+00  0.0000E+00  0.0000E+00  0.0000E+00  0.0000E+00  0.0000E+00  0.0000E+00
    -44.746  0.1295E-04  0.1291E-04  0.7985E-09  0.7970E-09  0.9092E-09  0.9074E-09  0.7985E-09  0.7970E-09  0.4041E-10  0.4030E-10  0.2332E-10  0.2326E-10  0.1041E-09  0.1038E-09  0.2332E-10  0.2326E-10  0.4041E-10  0.4030E-10
    -44.496  0.1936E-02  0.1931E-02  0.1239E-06  0.1236E-06  0.1420E-06  0.1417E-06  0.1239E-06  0.1236E-06  0.7644E-08  0.7622E-08  0.4787E-08  0.4772E-08  0.1720E-07  0.1714E-07  0.4787E-08  0.4772E-08  0.7644E-08  0.7622E-08
    -44.247  0.1289E+00  0.1287E+00  0.1063E-04  0.1062E-04  0.1225E-04  0.1224E-04  0.1063E-04  0.1062E-04  0.8237E-06  0.8219E-06  0.5527E-06  0.5514E-06  0.1453E-05  0.1450E-05  0.5527E-06  0.5514E-06  0.8237E-06  0.8219E-06
    -43.998  0.9405E+00  0.9397E+00  0.9258E-04  0.9261E-04  0.1112E-03  0.1112E-03  0.9258E-04  0.9261E-04  0.1943E-04  0.1941E-04  0.1576E-04  0.1573E-04  0.2521E-04  0.2518E-04  0.1576E-04  0.1573E-04  0.1943E-04  0.1941E-04
    -43.748  0.2505E+01  0.2505E+01  0.1045E-03  0.1047E-03  0.1468E-03  0.1470E-03  0.1045E-03  0.1047E-03  0.5730E-04  0.5731E-04  0.7157E-04  0.7157E-04  0.8334E-04  0.8335E-04  0.7157E-04  0.7157E-04  0.5730E-04  0.5731E-04
    -43.499  0.3798E+00  0.3806E+00  0.7513E-05  0.7530E-05  0.9752E-05  0.9775E-05  0.7513E-05  0.7530E-05  0.5721E-05  0.5733E-05  0.9068E-05  0.9088E-05  0.8228E-05  0.8246E-05  0.9068E-05  0.9088E-05  0.5721E-05  0.5733E-05
    -43.250  0.0000E+00  0.0000E+00  0.0000E+00  0.0000E+00  0.0000E+00  0.0000E+00  0.0000E+00  0.0000E+00  0.0000E+00  0.0000E+00  0.0000E+00  0.0000E+00  0.0000E+00  0.0000E+00  0.0000E+00  0.0000E+00  0.0000E+00  0.0000E+00
    -43.000  0.0000E+00  0.0000E+00  0.0000E+00  0.0000E+00  0.0000E+00  0.0000E+00  0.0000E+00  0.0000E+00  0.0000E+00  0.0000E+00  0.0000E+00  0.0000E+00  0.0000E+00  0.0000E+00  0.0000E+00  0.0000E+00  0.0000E+00  0.0000E+00
    -42.751  0.0000E+00  0.0000E+00  0.0000E+00  0.0000E+00  0.0000E+00  0.0000E+00  0.0000E+00  0.0000E+00  0.0000E+00  0.0000E+00  0.0000E+00  0.0000E+00  0.0000E+00  0.0000E+00  0.0000E+00  0.0000E+00  0.0000E+00  0.0000E+00
    -42.502  0.0000E+00  0.0000E+00  0.0000E+00  0.0000E+00  0.0000E+00  0.0000E+00  0.0000E+00  0.0000E+00  0.0000E+00  0.0000E+00  0.0000E+00  0.0000E+00  0.0000E+00  0.0000E+00  0.0000E+00  0.0000E+00  0.0000E+00  0.0000E+00
    -42.252  0.0000E+00  0.0000E+00  0.0000E+00  0.0000E+00  0.0000E+00  0.0000E+00  0.0000E+00  0.0000E+00  0.0000E+00  0.0000E+00  0.0000E+00  0.0000E+00  0.0000E+00  0.0000E+00  0.0000E+00  0.0000E+00  0.0000E+00  0.0000E+00
    -42.003  0.0000E+00  0.0000E+00  0.0000E+00  0.0000E+00  0.0000E+00  0.0000E+00  0.0000E+00  0.0000E+00  0.0000E+00  0.0000E+00  0.0000E+00  0.0000E+00  0.0000E+00  0.0000E+00  0.0000E+00  0.0000E+00  0.0000E+00  0.0000E+00
    -41.754  0.0000E+00  0.0000E+00  0.0000E+00  0.0000E+00  0.0000E+00  0.0000E+00  0.0000E+00  0.0000E+00  0.0000E+00  0.0000E+00  0.0000E+00  0.0000E+00  0.0000E+00  0.0000E+00  0.0000E+00  0.0000E+00  0.0000E+00  0.0000E+00
    -41.504  0.0000E+00  0.0000E+00  0.0000E+00  0.0000E+00  0.0000E+00  0.0000E+00  0.0000E+00  0.0000E+00  0.0000E+00  0.0000E+00  0.0000E+00  0.0000E+00  0.0000E+00  0.0000E+00  0.0000E+00  0.0000E+00  0.0000E+00  0.0000E+00
    -41.255  0.0000E+00  0.0000E+00  0.0000E+00  0.0000E+00  0.0000E+00  0.0000E+00  0.0000E+00  0.0000E+00  0.0000E+00  0.0000E+00  0.0000E+00  0.0000E+00  0.0000E+00  0.0000E+00  0.0000E+00  0.0000E+00  0.0000E+00  0.0000E+00
    -41.006  0.0000E+00  0.0000E+00  0.0000E+00  0.0000E+00  0.0000E+00  0.0000E+00  0.0000E+00  0.0000E+00  0.0000E+00  0.0000E+00  0.0000E+00  0.0000E+00  0.0000E+00  0.0000E+00  0.0000E+00  0.0000E+00  0.0000E+00  0.0000E+00
    -40.756  0.0000E+00  0.0000E+00  0.0000E+00  0.0000E+00  0.0000E+00  0.0000E+00  0.0000E+00  0.0000E+00  0.0000E+00  0.0000E+00  0.0000E+00  0.0000E+00  0.0000E+00  0.0000E+00  0.0000E+00  0.0000E+00  0.0000E+00  0.0000E+00
    -40.507  0.0000E+00  0.0000E+00  0.0000E+00  0.0000E+00  0.0000E+00  0.0000E+00  0.0000E+00  0.0000E+00  0.0000E+00  0.0000E+00  0.0000E+00  0.0000E+00  0.0000E+00  0.0000E+00  0.0000E+00  0.0000E+00  0.0000E+00  0.0000E+00
    -40.258  0.0000E+00  0.0000E+00  0.0000E+00  0.0000E+00  0.0000E+00  0.0000E+00  0.0000E+00  0.0000E+00  0.0000E+00  0.0000E+00  0.0000E+00  0.0000E+00  0.0000E+00  0.0000E+00  0.0000E+00  0.0000E+00  0.0000E+00  0.0000E+00
    -40.008  0.0000E+00  0.0000E+00  0.0000E+00  0.0000E+00  0.0000E+00  0.0000E+00  0.0000E+00  0.0000E+00  0.0000E+00  0.0000E+00  0.0000E+00  0.0000E+00  0.0000E+00  0.0000E+00  0.0000E+00  0.0000E+00  0.0000E+00  0.0000E+00
    -39.759  0.0000E+00  0.0000E+00  0.0000E+00  0.0000E+00  0.0000E+00  0.0000E+00  0.0000E+00  0.0000E+00  0.0000E+00  0.0000E+00  0.0000E+00  0.0000E+00  0.0000E+00  0.0000E+00  0.0000E+00  0.0000E+00  0.0000E+00  0.0000E+00
    -39.510  0.0000E+00  0.0000E+00  0.0000E+00  0.0000E+00  0.0000E+00  0.0000E+00  0.0000E+00  0.0000E+00  0.0000E+00  0.0000E+00  0.0000E+00  0.0000E+00  0.0000E+00  0.0000E+00  0.0000E+00  0.0000E+00  0.0000E+00  0.0000E+00
    -39.260  0.0000E+00  0.0000E+00  0.0000E+00  0.0000E+00  0.0000E+00  0.0000E+00  0.0000E+00  0.0000E+00  0.0000E+00  0.0000E+00  0.0000E+00  0.0000E+00  0.0000E+00  0.0000E+00  0.0000E+00  0.0000E+00  0.0000E+00  0.0000E+00
    -39.011  0.0000E+00  0.0000E+00  0.0000E+00  0.0000E+00  0.0000E+00  0.0000E+00  0.0000E+00  0.0000E+00  0.0000E+00  0.0000E+00  0.0000E+00  0.0000E+00  0.0000E+00  0.0000E+00  0.0000E+00  0.0000E+00  0.0000E+00  0.0000E+00
    -38.762  0.0000E+00  0.0000E+00  0.0000E+00  0.0000E+00  0.0000E+00  0.0000E+00  0.0000E+00  0.0000E+00  0.0000E+00  0.0000E+00  0.0000E+00  0.0000E+00  0.0000E+00  0.0000E+00  0.0000E+00  0.0000E+00  0.0000E+00  0.0000E+00
    -38.512  0.0000E+00  0.0000E+00  0.0000E+00  0.0000E+00  0.0000E+00  0.0000E+00  0.0000E+00  0.0000E+00  0.0000E+00  0.0000E+00  0.0000E+00  0.0000E+00  0.0000E+00  0.0000E+00  0.0000E+00  0.0000E+00  0.0000E+00  0.0000E+00
    -38.263  0.0000E+00  0.0000E+00  0.0000E+00  0.0000E+00  0.0000E+00  0.0000E+00  0.0000E+00  0.0000E+00  0.0000E+00  0.0000E+00  0.0000E+00  0.0000E+00  0.0000E+00  0.0000E+00  0.0000E+00  0.0000E+00  0.0000E+00  0.0000E+00
    -38.014  0.0000E+00  0.0000E+00  0.0000E+00  0.0000E+00  0.0000E+00  0.0000E+00  0.0000E+00  0.0000E+00  0.0000E+00  0.0000E+00  0.0000E+00  0.0000E+00  0.0000E+00  0.0000E+00  0.0000E+00  0.0000E+00  0.0000E+00  0.0000E+00
    -37.764  0.0000E+00  0.0000E+00  0.0000E+00  0.0000E+00  0.0000E+00  0.0000E+00  0.0000E+00  0.0000E+00  0.0000E+00  0.0000E+00  0.0000E+00  0.0000E+00  0.0000E+00  0.0000E+00  0.0000E+00  0.0000E+00  0.0000E+00  0.0000E+00
    -37.515  0.0000E+00  0.0000E+00  0.0000E+00  0.0000E+00  0.0000E+00  0.0000E+00  0.0000E+00  0.0000E+00  0.0000E+00  0.0000E+00  0.0000E+00  0.0000E+00  0.0000E+00  0.0000E+00  0.0000E+00  0.0000E+00  0.0000E+00  0.0000E+00
    -37.265  0.0000E+00  0.0000E+00  0.0000E+00  0.0000E+00  0.0000E+00  0.0000E+00  0.0000E+00  0.0000E+00  0.0000E+00  0.0000E+00  0.0000E+00  0.0000E+00  0.0000E+00  0.0000E+00  0.0000E+00  0.0000E+00  0.0000E+00  0.0000E+00
    -37.016  0.0000E+00  0.0000E+00  0.0000E+00  0.0000E+00  0.0000E+00  0.0000E+00  0.0000E+00  0.0000E+00  0.0000E+00  0.0000E+00  0.0000E+00  0.0000E+00  0.0000E+00  0.0000E+00  0.0000E+00  0.0000E+00  0.0000E+00  0.0000E+00
    -36.767  0.0000E+00  0.0000E+00  0.0000E+00  0.0000E+00  0.0000E+00  0.0000E+00  0.0000E+00  0.0000E+00  0.0000E+00  0.0000E+00  0.0000E+00  0.0000E+00  0.0000E+00  0.0000E+00  0.0000E+00  0.0000E+00  0.0000E+00  0.0000E+00
    -36.517  0.0000E+00  0.0000E+00  0.0000E+00  0.0000E+00  0.0000E+00  0.0000E+00  0.0000E+00  0.0000E+00  0.0000E+00  0.0000E+00  0.0000E+00  0.0000E+00  0.0000E+00  0.0000E+00  0.0000E+00  0.0000E+00  0.0000E+00  0.0000E+00
    -36.268  0.0000E+00  0.0000E+00  0.0000E+00  0.0000E+00  0.0000E+00  0.0000E+00  0.0000E+00  0.0000E+00  0.0000E+00  0.0000E+00  0.0000E+00  0.0000E+00  0.0000E+00  0.0000E+00  0.0000E+00  0.0000E+00  0.0000E+00  0.0000E+00
    -36.019  0.0000E+00  0.0000E+00  0.0000E+00  0.0000E+00  0.0000E+00  0.0000E+00  0.0000E+00  0.0000E+00  0.0000E+00  0.0000E+00  0.0000E+00  0.0000E+00  0.0000E+00  0.0000E+00  0.0000E+00  0.0000E+00  0.0000E+00  0.0000E+00
    -35.769  0.0000E+00  0.0000E+00  0.0000E+00  0.0000E+00  0.0000E+00  0.0000E+00  0.0000E+00  0.0000E+00  0.0000E+00  0.0000E+00  0.0000E+00  0.0000E+00  0.0000E+00  0.0000E+00  0.0000E+00  0.0000E+00  0.0000E+00  0.0000E+00
    -35.520  0.0000E+00  0.0000E+00  0.0000E+00  0.0000E+00  0.0000E+00  0.0000E+00  0.0000E+00  0.0000E+00  0.0000E+00  0.0000E+00  0.0000E+00  0.0000E+00  0.0000E+00  0.0000E+00  0.0000E+00  0.0000E+00  0.0000E+00  0.0000E+00
    -35.271  0.0000E+00  0.0000E+00  0.0000E+00  0.0000E+00  0.0000E+00  0.0000E+00  0.0000E+00  0.0000E+00  0.0000E+00  0.0000E+00  0.0000E+00  0.0000E+00  0.0000E+00  0.0000E+00  0.0000E+00  0.0000E+00  0.0000E+00  0.0000E+00