   2   2   1   0
  0.1485157E+02  0.2786412E-09  0.2786412E-09  0.4417547E-09  0.5000000E-15
  1.000000000000000E-004
  CAR 
 unknown system                          
     23.03206253    -49.83680357  301     10.12255818      1.00000000
    -49.837  0.0000E+00  0.0000E+00  0.0000E+00  0.0000E+00
    -49.594  0.0000E+00  0.0000E+00  0.0000E+00  0.0000E+00
    -49.351  0.0000E+00  0.0000E+00  0.0000E+00  0.0000E+00
    -49.108  0.0000E+00  0.0000E+00  0.0000E+00  0.0000E+00
    -48.865  0.0000E+00  0.0000E+00  0.0000E+00  0.0000E+00
    -48.622  0.0000E+00  0.0000E+00  0.0000E+00  0.0000E+00
    -48.379  0.0000E+00  0.0000E+00  0.0000E+00  0.0000E+00
    -48.137  0.0000E+00  0.0000E+00  0.0000E+00  0.0000E+00
    -47.894  0.0000E+00  0.0000E+00  0.0000E+00  0.0000E+00
    -47.651  0.0000E+00  0.0000E+00  0.0000E+00  0.0000E+00
    -47.408  0.0000E+00  0.0000E+00  0.0000E+00  0.0000E+00
    -47.165  0.7419E-08  0.7372E-08  0.1802E-08  0.1791E-08
    -46.922  0.9991E-04  0.9919E-04  0.2427E-04  0.2410E-04
    -46.679  0.1336E-01  0.1327E-01  0.3268E-02  0.3248E-02
    -46.436  0.8913E+00  0.8876E+00  0.2198E+00  0.2189E+00
    -46.193  0.5993E+01  0.5990E+01  0.1675E+01  0.1674E+01
    -45.950  0.1291E+01  0.1302E+01  0.1997E+01  0.1997E+01
    -45.708  0.0000E+00  0.0000E+00  0.2000E+01  0.2000E+01
    -45.465  0.0000E+00  0.0000E+00  0.2000E+01  0.2000E+01
    -45.222  0.0000E+00  0.0000E+00  0.2000E+01  0.2000E+01
    -44.979  0.0000E+00  0.0000E+00  0.2000E+01  0.2000E+01
    -44.736  0.0000E+00  0.0000E+00  0.2000E+01  0.2000E+01
    -44.493  0.0000E+00  0.0000E+00  0.2000E+01  0.2000E+01
    -44.250  0.0000E+00  0.0000E+00  0.2000E+01  0.2000E+01
    -44.007  0.0000E+00  0.0000E+00  0.2000E+01  0.2000E+01
    -43.764  0.0000E+00  0.0000E+00  0.2000E+01  0.2000E+01
    -43.522  0.0000E+00  0.0000E+00  0.2000E+01  0.2000E+01
    -43.279  0.0000E+00  0.0000E+00  0.2000E+01  0.2000E+01
    -43.036  0.0000E+00  0.0000E+00  0.2000E+01  0.2000E+01
    -42.793  0.0000E+00  0.0000E+00  0.2000E+01  0.2000E+01
    -42.550  0.0000E+00  0.0000E+00  0.2000E+01  0.2000E+01
    -42.307  0.0000E+00  0.0000E+00  0.2000E+01  0.2000E+01
    -42.064  0.0000E+00  0.0000E+00  0.2000E+01  0.2000E+01
    -41.821  0.0000E+00  0.0000E+00  0.2000E+01  0.2000E+01
    -41.578  0.0000E+00  0.0000E+00  0.2000E+01  0.2000E+01
    -41.335  0.0000E+00  0.0000E+00  0.2000E+01  0.2000E+01
    -41.093  0.0000E+00  0.0000E+00  0.2000E+01  0.2000E+01
    -40.850  0.0000E+00  0.0000E+00  0.2000E+01  0.2000E+01
    -40.607  0.0000E+00  0.0000E+00  0.2000E+01  0.2000E+01
    -40.364  0.0000E+00  0.0000E+00  0.2000E+01  0.2000E+01
    -40.121  0.0000E+00  0.0000E+00  0.2000E+01  0.2000E+01
    -39.878  0.0000E+00  0.0000E+00  0.2000E+01  0.2000E+01
    -39.635  0.0000E+00  0.0000E+00  0.2000E+01  0.2000E+01
    -39.392  0.0000E+00  0.0000E+00  0.2000E+01  0.2000E+01
    -39.149  0.0000E+00  0.0000E+00  0.2000E+01  0.2000E+01
    -38.906  0.0000E+00  0.0000E+00  0.2000E+01  0.2000E+01
    -38.664  0.0000E+00  0.0000E+00  0.2000E+01  0.2000E+01
    -38.421  0.0000E+00  0.0000E+00  0.2000E+01  0.2000E+01
    -38.178  0.0000E+00  0.0000E+00  0.2000E+01  0.2000E+01
    -37.935  0.0000E+00  0.0000E+00  0.2000E+01  0.2000E+01
    -37.692  0.0000E+00  0.0000E+00  0.2000E+01  0.2000E+01
    -37.449  0.0000E+00  0.0000E+00  0.2000E+01  0.2000E+01
    -37.206  0.0000E+00  0.0000E+00  0.2000E+01  0.2000E+01
    -36.963  0.0000E+00  0.0000E+00  0.2000E+01  0.2000E+01
    -36.720  0.0000E+00  0.0000E+00  0.2000E+01  0.2000E+01
    -36.478  0.0000E+00  0.0000E+00  0.2000E+01  0.2000E+01
    -36.235  0.0000E+00  0.0000E+00  0.2000E+01  0.2000E+01
    -35.992  0.0000E+00  0.0000E+00  0.2000E+01  0.2000E+01
    -35.749  0.0000E+00  0.0000E+00  0.2000E+01  0.2000E+01
    -35.506  0.0000E+00  0.0000E+00  0.2000E+01  0.2000E+01
    -35.263  0.0000E+00  0.0000E+00  0.2000E+01  0.2000E+01
    -35.020  0.0000E+00  0.0000E+00  0.2000E+01  0.2000E+01
    -34.777  0.0000E+00  0.0000E+00  0.2000E+01  0.2000E+01
    -34.534  0.0000E+00  0.0000E+00  0.2000E+01  0.2000E+01
    -34.291  0.0000E+00  0.0000E+00  0.2000E+01  0.2000E+01
    -34.049  0.0000E+00  0.0000E+00  0.2000E+01  0.2000E+01
    -33.806  0.0000E+00  0.0000E+00  0.2000E+01  0.2000E+01
    -33.563  0.0000E+00  0.0000E+00  0.2000E+01  0.2000E+01
    -33.320  0.0000E+00  0.0000E+00  0.2000E+01  0.2000E+01
    -33.077  0.0000E+00  0.0000E+00  0.2000E+01  0.2000E+01
    -32.834  0.0000E+00  0.0000E+00  0.2000E+01  0.2000E+01
    -32.591  0.0000E+00  0.0000E+00  0.2000E+01  0.2000E+01
    -32.348  0.0000E+00  0.0000E+00  0.2000E+01  0.2000E+01
    -32.105  0.0000E+00  0.0000E+00  0.2000E+01  0.2000E+01
    -31.862  0.0000E+00  0.0000E+00  0.2000E+01  0.2000E+01
    -31.620  0.0000E+00  0.0000E+00  0.2000E+01  0.2000E+01
    -31.377  0.0000E+00  0.0000E+00  0.2000E+01  0.2000E+01
    -31.134  0.0000E+00  0.0000E+00  0.2000E+01  0.2000E+01
    -30.891  0.0000E+00  0.0000E+00  0.2000E+01  0.2000E+01
    -30.648  0.0000E+00  0.0000E+00  0.2000E+01  0.2000E+01
    -30.405  0.0000E+00  0.0000E+00  0.2000E+01  0.2000E+01
    -30.162  0.0000E+00  0.0000E+00  0.2000E+01  0.2000E+01
    -29.919  0.0000E+00  0.0000E+00  0.2000E+01  0.2000E+01
    -29.676  0.0000E+00  0.0000E+00  0.2000E+01  0.2000E+01
    -29.434  0.0000E+00  0.0000E+00  0.2000E+01  0.2000E+01
    -29.191  0.0000E+00  0.0000E+00  0.2000E+01  0.2000E+01
    -28.948  0.0000E+00  0.0000E+00  0.2000E+01  0.2000E+01
    -28.705  0.0000E+00  0.0000E+00  0.2000E+01  0.2000E+01
    -28.462  0.0000E+00  0.0000E+00  0.2000E+01  0.2000E+01
    -28.219  0.0000E+00  0.0000E+00  0.2000E+01  0.2000E+01
    -27.976  0.0000E+00  0.0000E+00  0.2000E+01  0.2000E+01
    -27.733  0.0000E+00  0.0000E+00  0.2000E+01  0.2000E+01
    -27.490  0.0000E+00  0.0000E+00  0.2000E+01  0.2000E+01
    -27.247  0.0000E+00  0.0000E+00  0.2000E+01  0.2000E+01
    -27.005  0.0000E+00  0.0000E+00  0.2000E+01  0.2000E+01
    -26.762  0.0000E+00  0.0000E+00  0.2000E+01  0.2000E+01
    -26.519  0.0000E+00  0.0000E+00  0.2000E+01  0.2000E+01
    -26.276  0.0000E+00  0.0000E+00  0.2000E+01  0.2000E+01
    -26.033  0.0000E+00  0.0000E+00  0.2000E+01  0.2000E+01
    -25.790  0.0000E+00  0.0000E+00  0.2000E+01  0.2000E+01
    -25.547  0.0000E+00  0.0000E+00  0.2000E+01  0.2000E+01
    -25.304  0.0000E+00  0.0000E+00  0.2000E+01  0.2000E+01
    -25.061  0.0000E+00  0.0000E+00  0.2000E+01  0.2000E+01
    -24.818  0.0000E+00  0.0000E+00  0.2000E+01  0.2000E+01
    -24.576  0.0000E+00  0.0000E+00  0.2000E+01  0.2000E+01
    -24.333  0.0000E+00  0.0000E+00  0.2000E+01  0.2000E+01
    -24.090  0.0000E+00  0.0000E+00  0.2000E+01  0.2000E+01
    -23.847  0.1161E-05  0.1154E-05  0.2000E+01  0.2000E+01
    -23.604  0.3209E-03  0.3188E-03  0.2000E+01  0.2000E+01
    -23.361  0.3832E-01  0.3809E-01  0.2009E+01  0.2009E+01
    -23.118  0.1454E+01  0.1449E+01  0.2363E+01  0.2361E+01
    -22.875  0.4498E+01  0.4498E+01  0.3455E+01  0.3454E+01
    -22.632  0.3875E+01  0.3873E+01  0.4409E+01  0.4408E+01
    -22.390  0.6927E+01  0.6920E+01  0.6099E+01  0.6096E+01
    -22.147  0.7087E+01  0.7097E+01  0.7832E+01  0.7831E+01
    -21.904  0.5846E+00  0.5912E+00  0.7998E+01  0.7998E+01
    -21.661  0.0000E+00  0.0000E+00  0.8000E+01  0.8000E+01
    -21.418  0.0000E+00  0.0000E+00  0.8000E+01  0.8000E+01
    -21.175  0.0000E+00  0.0000E+00  0.8000E+01  0.8000E+01
    -20.932  0.0000E+00  0.0000E+00  0.8000E+01  0.8000E+01
    -20.689  0.0000E+00  0.0000E+00  0.8000E+01  0.8000E+01
    -20.446  0.0000E+00  0.0000E+00  0.8000E+01  0.8000E+01
    -20.203  0.0000E+00  0.0000E+00  0.8000E+01  0.8000E+01
    -19.961  0.0000E+00  0.0000E+00  0.8000E+01  0.8000E+01
    -19.718  0.0000E+00  0.0000E+00  0.8000E+01  0.8000E+01
    -19.475  0.0000E+00  0.0000E+00  0.8000E+01  0.8000E+01
    -19.232  0.0000E+00  0.0000E+00  0.8000E+01  0.8000E+01
    -18.989  0.0000E+00  0.0000E+00  0.8000E+01  0.8000E+01
    -18.746  0.0000E+00  0.0000E+00  0.8000E+01  0.8000E+01
    -18.503  0.0000E+00  0.0000E+00  0.8000E+01  0.8000E+01
    -18.260  0.0000E+00  0.0000E+00  0.8000E+01  0.8000E+01
    -18.017  0.0000E+00  0.0000E+00  0.8000E+01  0.8000E+01
    -17.775  0.0000E+00  0.0000E+00  0.8000E+01  0.8000E+01
    -17.532  0.0000E+00  0.0000E+00  0.8000E+01  0.8000E+01
    -17.289  0.0000E+00  0.0000E+00  0.8000E+01  0.8000E+01
    -17.046  0.0000E+00  0.0000E+00  0.8000E+01  0.8000E+01
    -16.803  0.0000E+00  0.0000E+00  0.8000E+01  0.8000E+01
    -16.560  0.0000E+00  0.0000E+00  0.8000E+01  0.8000E+01
    -16.317  0.0000E+00  0.0000E+00  0.8000E+01  0.8000E+01
    -16.074  0.0000E+00  0.0000E+00  0.8000E+01  0.8000E+01
    -15.831  0.0000E+00  0.0000E+00  0.8000E+01  0.8000E+01
    -15.588  0.0000E+00  0.0000E+00  0.8000E+01  0.8000E+01
    -15.346  0.0000E+00  0.0000E+00  0.8000E+01  0.8000E+01
    -15.103  0.0000E+00  0.0000E+00  0.8000E+01  0.8000E+01
    -14.860  0.0000E+00  0.0000E+00  0.8000E+01  0.8000E+01
    -14.617  0.0000E+00  0.0000E+00  0.8000E+01  0.8000E+01
    -14.374  0.0000E+00  0.0000E+00  0.8000E+01  0.8000E+01
    -14.131  0.0000E+00  0.0000E+00  0.8000E+01  0.8000E+01
    -13.888  0.0000E+00  0.0000E+00  0.8000E+01  0.8000E+01
    -13.645  0.0000E+00  0.0000E+00  0.8000E+01  0.8000E+01
    -13.402  0.0000E+00  0.0000E+00  0.8000E+01  0.8000E+01
    -13.159  0.0000E+00  0.0000E+00  0.8000E+01  0.8000E+01
    -12.917  0.0000E+00  0.0000E+00  0.8000E+01  0.8000E+01
    -12.674  0.0000E+00  0.0000E+00  0.8000E+01  0.8000E+01
    -12.431  0.0000E+00  0.0000E+00  0.8000E+01  0.8000E+01
    -12.188  0.0000E+00  0.0000E+00  0.8000E+01  0.8000E+01
    -11.945  0.0000E+00  0.0000E+00  0.8000E+01  0.8000E+01
    -11.702  0.0000E+00  0.0000E+00  0.8000E+01  0.8000E+01
    -11.459  0.0000E+00  0.0000E+00  0.8000E+01  0.8000E+01
    -11.216  0.0000E+00  0.0000E+00  0.8000E+01  0.8000E+01
    -10.973  0.0000E+00  0.0000E+00  0.8000E+01  0.8000E+01
    -10.731  0.0000E+00  0.0000E+00  0.8000E+01  0.8000E+01
    -10.488  0.0000E+00  0.0000E+00  0.8000E+01  0.8000E+01
    -10.245  0.0000E+00  0.0000E+00  0.8000E+01  0.8000E+01
    -10.002  0.0000E+00  0.0000E+00  0.8000E+01  0.8000E+01
     -9.759  0.0000E+00  0.0000E+00  0.8000E+01  0.8000E+01
     -9.516  0.0000E+00  0.0000E+00  0.8000E+01  0.8000E+01
     -9.273  0.0000E+00  0.0000E+00  0.8000E+01  0.8000E+01
     -9.030  0.0000E+00  0.0000E+00  0.8000E+01  0.8000E+01
     -8.787  0.0000E+00  0.0000E+00  0.8000E+01  0.8000E+01
     -8.544  0.0000E+00  0.0000E+00  0.8000E+01  0.8000E+01
     -8.302  0.0000E+00  0.0000E+00  0.8000E+01  0.8000E+01
     -8.059  0.0000E+00  0.0000E+00  0.8000E+01  0.8000E+01
     -7.816  0.0000E+00  0.0000E+00  0.8000E+01  0.8000E+01
     -7.573  0.0000E+00  0.0000E+00  0.8000E+01  0.8000E+01
     -7.330  0.0000E+00  0.0000E+00  0.8000E+01  0.8000E+01
     -7.087  0.0000E+00  0.0000E+00  0.8000E+01  0.8000E+01
     -6.844  0.0000E+00  0.0000E+00  0.8000E+01  0.8000E+01
     -6.601  0.0000E+00  0.0000E+00  0.8000E+01  0.8000E+01
     -6.358  0.0000E+00  0.0000E+00  0.8000E+01  0.8000E+01
     -6.115  0.0000E+00  0.0000E+00  0.8000E+01  0.8000E+01
     -5.873  0.0000E+00  0.0000E+00  0.8000E+01  0.8000E+01
     -5.630  0.0000E+00  0.0000E+00  0.8000E+01  0.8000E+01
     -5.387  0.0000E+00  0.0000E+00  0.8000E+01  0.8000E+01
     -5.144  0.0000E+00  0.0000E+00  0.8000E+01  0.8000E+01
     -4.901  0.0000E+00  0.0000E+00  0.8000E+01  0.8000E+01
     -4.658  0.0000E+00  0.0000E+00  0.8000E+01  0.8000E+01
     -4.415  0.0000E+00  0.0000E+00  0.8000E+01  0.8000E+01
     -4.172  0.0000E+00  0.0000E+00  0.8000E+01  0.8000E+01
     -3.929  0.0000E+00  0.0000E+00  0.8000E+01  0.8000E+01
     -3.687  0.0000E+00  0.0000E+00  0.8000E+01  0.8000E+01
     -3.444  0.0000E+00  0.0000E+00  0.8000E+01  0.8000E+01
     -3.201  0.0000E+00  0.0000E+00  0.8000E+01  0.8000E+01
     -2.958  0.0000E+00  0.0000E+00  0.8000E+01  0.8000E+01
     -2.715  0.0000E+00  0.0000E+00  0.8000E+01  0.8000E+01
     -2.472  0.0000E+00  0.0000E+00  0.8000E+01  0.8000E+01
     -2.229  0.0000E+00  0.0000E+00  0.8000E+01  0.8000E+01
     -1.986  0.0000E+00  0.0000E+00  0.8000E+01  0.8000E+01
     -1.743  0.0000E+00  0.0000E+00  0.8000E+01  0.8000E+01
     -1.500  0.0000E+00  0.0000E+00  0.8000E+01  0.8000E+01
     -1.258  0.0000E+00  0.0000E+00  0.8000E+01  0.8000E+01
     -1.015  0.0000E+00  0.0000E+00  0.8000E+01  0.8000E+01
     -0.772  0.0000E+00  0.0000E+00  0.8000E+01  0.8000E+01
     -0.529  0.0000E+00  0.0000E+00  0.8000E+01  0.8000E+01
     -0.286  0.0000E+00  0.0000E+00  0.8000E+01  0.8000E+01
     -0.043  0.0000E+00  0.0000E+00  0.8000E+01  0.8000E+01
      0.200  0.0000E+00  0.0000E+00  0.8000E+01  0.8000E+01
      0.443  0.0000E+00  0.0000E+00  0.8000E+01  0.8000E+01
      0.686  0.0000E+00  0.0000E+00  0.8000E+01  0.8000E+01
      0.929  0.0000E+00  0.0000E+00  0.8000E+01  0.8000E+01
      1.171  0.0000E+00  0.0000E+00  0.8000E+01  0.8000E+01
      1.414  0.0000E+00  0.0000E+00  0.8000E+01  0.8000E+01
      1.657  0.0000E+00  0.0000E+00  0.8000E+01  0.8000E+01
      1.900  0.0000E+00  0.0000E+00  0.8000E+01  0.8000E+01
      2.143  0.0000E+00  0.0000E+00  0.8000E+01  0.8000E+01
      2.386  0.0000E+00  0.0000E+00  0.8000E+01  0.8000E+01
      2.629  0.0000E+00  0.0000E+00  0.8000E+01  0.8000E+01
      2.872  0.0000E+00  0.0000E+00  0.8000E+01  0.8000E+01
      3.115  0.3886E-06  0.3962E-06  0.8000E+01  0.8000E+01
      3.357  0.5519E-04  0.5626E-04  0.8000E+01  0.8000E+01
      3.600  0.3347E-02  0.3386E-02  0.8001E+01  0.8001E+01
      3.843  0.2910E-01  0.2925E-01  0.8008E+01  0.8008E+01
      4.086  0.3541E-01  0.3516E-01  0.8016E+01  0.8017E+01
      4.329  0.7927E-01  0.7943E-01  0.8036E+01  0.8036E+01
      4.572  0.6134E-01  0.6128E-01  0.8051E+01  0.8051E+01
      4.815  0.8802E-01  0.8825E-01  0.8072E+01  0.8072E+01
      5.058  0.1049E+00  0.1048E+00  0.8098E+01  0.8098E+01
      5.301  0.1437E+00  0.1439E+00  0.8133E+01  0.8133E+01
      5.544  0.8787E-01  0.8772E-01  0.8154E+01  0.8154E+01
      5.786  0.1789E+00  0.1794E+00  0.8198E+01  0.8198E+01
      6.029  0.1999E+00  0.1997E+00  0.8247E+01  0.8247E+01
      6.272  0.1737E+00  0.1739E+00  0.8289E+01  0.8289E+01
      6.515  0.2263E+00  0.2262E+00  0.8344E+01  0.8345E+01
      6.758  0.3698E+00  0.3704E+00  0.8435E+01  0.8435E+01
      7.001  0.5890E+00  0.5893E+00  0.8578E+01  0.8579E+01
      7.244  0.7525E+00  0.7529E+00  0.8762E+01  0.8762E+01
      7.487  0.1064E+01  0.1064E+01  0.9022E+01  0.9023E+01
      7.730  0.1006E+01  0.1006E+01  0.9269E+01  0.9269E+01
      7.972  0.1364E+01  0.1364E+01  0.9602E+01  0.9603E+01
      8.215  0.1184E+01  0.1184E+01  0.9893E+01  0.9894E+01
      8.458  0.1021E+01  0.1021E+01  0.1014E+02  0.1014E+02
      8.701  0.9108E+00  0.9107E+00  0.1037E+02  0.1037E+02
      8.944  0.1210E+01  0.1210E+01  0.1066E+02  0.1066E+02
      9.187  0.1343E+01  0.1343E+01  0.1099E+02  0.1099E+02
      9.430  0.1604E+01  0.1604E+01  0.1138E+02  0.1138E+02
      9.673  0.1317E+01  0.1316E+01  0.1171E+02  0.1171E+02
      9.916  0.6047E+00  0.6046E+00  0.1186E+02  0.1186E+02
     10.159  0.7374E+00  0.7374E+00  0.1204E+02  0.1204E+02
     10.401  0.1628E+01  0.1628E+01  0.1243E+02  0.1243E+02
     10.644  0.1683E+01  0.1683E+01  0.1284E+02  0.1284E+02
     10.887  0.1621E+01  0.1621E+01  0.1324E+02  0.1324E+02
     11.130  0.1960E+01  0.1960E+01  0.1372E+02  0.1372E+02
     11.373  0.2113E+01  0.2113E+01  0.1424E+02  0.1424E+02
     11.616  0.1858E+01  0.1858E+01  0.1469E+02  0.1469E+02
     11.859  0.1341E+01  0.1341E+01  0.1503E+02  0.1503E+02
     12.102  0.9815E+00  0.9813E+00  0.1527E+02  0.1527E+02
     12.345  0.8902E+00  0.8903E+00  0.1548E+02  0.1548E+02
     12.588  0.9050E+00  0.9045E+00  0.1571E+02  0.1571E+02
     12.830  0.8305E+00  0.8306E+00  0.1591E+02  0.1591E+02
     13.073  0.8892E+00  0.8887E+00  0.1613E+02  0.1613E+02
     13.316  0.1083E+01  0.1083E+01  0.1639E+02  0.1639E+02
     13.559  0.1118E+01  0.1118E+01  0.1667E+02  0.1667E+02
     13.802  0.1635E+01  0.1634E+01  0.1706E+02  0.1706E+02
     14.045  0.2365E+01  0.2364E+01  0.1764E+02  0.1764E+02
     14.288  0.2569E+01  0.2569E+01  0.1827E+02  0.1827E+02
     14.531  0.1587E+01  0.1591E+01  0.1866E+02  0.1866E+02
     14.774  0.4158E+00  0.4158E+00  0.1877E+02  0.1877E+02
     15.016  0.5878E+00  0.5878E+00  0.1891E+02  0.1891E+02
     15.259  0.4104E+00  0.4108E+00  0.1901E+02  0.1901E+02
     15.502  0.3058E+00  0.3055E+00  0.1909E+02  0.1909E+02
     15.745  0.4837E+00  0.4839E+00  0.1921E+02  0.1921E+02
     15.988  0.3449E+00  0.3450E+00  0.1929E+02  0.1929E+02
     16.231  0.2700E+00  0.2705E+00  0.1936E+02  0.1936E+02
     16.474  0.3265E+00  0.3231E+00  0.1944E+02  0.1944E+02
     16.717  0.2752E+00  0.2761E+00  0.1950E+02  0.1950E+02
     16.960  0.3758E+00  0.3731E+00  0.1960E+02  0.1959E+02
     17.203  0.2206E+00  0.2243E+00  0.1965E+02  0.1965E+02
     17.445  0.3402E+00  0.3418E+00  0.1973E+02  0.1973E+02
     17.688  0.2566E+00  0.2551E+00  0.1980E+02  0.1980E+02
     17.931  0.1571E+00  0.1571E+00  0.1983E+02  0.1983E+02
     18.174  0.2837E+00  0.2854E+00  0.1990E+02  0.1990E+02
     18.417  0.1562E+00  0.1555E+00  0.1994E+02  0.1994E+02
     18.660  0.8436E-01  0.8486E-01  0.1996E+02  0.1996E+02
     18.903  0.4235E-01  0.4227E-01  0.1997E+02  0.1997E+02
     19.146  0.3768E-01  0.3780E-01  0.1998E+02  0.1998E+02
     19.389  0.3613E-01  0.3625E-01  0.1999E+02  0.1999E+02
     19.632  0.2037E-01  0.2031E-01  0.2000E+02  0.2000E+02
     19.874  0.1316E-01  0.1309E-01  0.2000E+02  0.2000E+02
     20.117  0.7001E-03  0.0000E+00  0.2000E+02  0.2000E+02
     20.360  0.0000E+00  0.0000E+00  0.2000E+02  0.2000E+02
     20.603  0.0000E+00  0.0000E+00  0.2000E+02  0.2000E+02
     20.846  0.0000E+00  0.0000E+00  0.2000E+02  0.2000E+02
     21.089  0.0000E+00  0.0000E+00  0.2000E+02  0.2000E+02
     21.332  0.0000E+00  0.0000E+00  0.2000E+02  0.2000E+02
     21.575  0.0000E+00  0.0000E+00  0.2000E+02  0.2000E+02
     21.818  0.0000E+00  0.0000E+00  0.2000E+02  0.2000E+02
     22.060  0.0000E+00  0.0000E+00  0.2000E+02  0.2000E+02
     22.303  0.0000E+00  0.0000E+00  0.2000E+02  0.2000E+02
     22.546  0.0000E+00  0.0000E+00  0.2000E+02  0.2000E+02
     22.789  0.0000E+00  0.0000E+00  0.2000E+02  0.2000E+02
     23.032  0.0000E+00  0.0000E+00  0.2000E+02  0.2000E+02
     23.03206253    -49.83680357  301     10.12255818      1.00000000
    -49.837  0.0000E+00  0.0000E+00  0.0000E+00  0.0000E+00  0.0000E+00  0.0000E+00  0.0000E+00  0.0000E+00  0.0000E+00  0.0000E+00  0.0000E+00  0.0000E+00  0.0000E+00  0.0000E+00  0.0000E+00  0.0000E+00  0.0000E+00  0.0000E+00
    -49.594  0.0000E+00  0.0000E+00  0.0000E+00  0.0000E+00  0.0000E+00  0.0000E+00  0.0000E+00  0.0000E+00  0.0000E+00  0.0000E+00  0.0000E+00  0.0000E+00  0.0000E+00  0.0000E+00  0.0000E+00  0.0000E+00  0.0000E+00  0.0000E+00
    -49.351  0.0000E+00  0.0000E+00  0.0000E+00  0.0000E+00  0.0000E+00  0.0000E+00  0.0000E+00  0.0000E+00  0.0000E+00  0.0000E+00  0.0000E+00  0.0000E+00  0.0000E+00  0.0000E+00  0.0000E+00  0.0000E+00  0.0000E+00  0.0000E+00
    -49.108  0.0000E+00  0.0000E+00  0.0000E+00  0.0000E+00  0.0000E+00  0.0000E+00  0.0000E+00  0.0000E+00  0.0000E+00  0.0000E+00  0.0000E+00  0.0000E+00  0.0000E+00  0.0000E+00  0.0000E+00  0.0000E+00  0.0000E+00  0.0000E+00
    -48.865  0.0000E+00  0.0000E+00  0.0000E+00  0.0000E+00  0.0000E+00  0.0000E+00  0.0000E+00  0.0000E+00  0.0000E+00  0.0000E+00  0.0000E+00  0.0000E+00  0.0000E+00  0.0000E+00  0.0000E+00  0.0000E+00  0.0000E+00  0.0000E+00
    -48.622  0.0000E+00  0.0000E+00  0.0000E+00  0.0000E+00  0.0000E+00  0.0000E+00  0.0000E+00  0.0000E+00  0.0000E+00  0.0000E+00  0.0000E+00  0.0000E+00  0.0000E+00  0.0000E+00  0.0000E+00  0.0000E+00  0.0000E+00  0.0000E+00
    -48.379  0.0000E+00  0.0000E+00  0.0000E+00  0.0000E+00  0.0000E+00  0.0000E+00  0.0000E+00  0.0000E+00  0.0000E+00  0.0000E+00  0.0000E+00  0.0000E+00  0.0000E+00  0.0000E+00  0.0000E+00  0.0000E+00  0.0000E+00  0.0000E+00
    -48.137  0.0000E+00  0.0000E+00  0.0000E+00  0.0000E+00  0.0000E+00  0.0000E+00  0.0000E+00  0.0000E+00  0.0000E+00  0.0000E+00  0.0000E+00  0.0000E+00  0.0000E+00  0.0000E+00  0.0000E+00  0.0000E+00  0.0000E+00  0.0000E+00
    -47.894  0.0000E+00  0.0000E+00  0.0000E+00  0.0000E+00  0.0000E+00  0.0000E+00  0.0000E+00  0.0000E+00  0.0000E+00  0.0000E+00  0.0000E+00  0.0000E+00  0.0000E+00  0.0000E+00  0.0000E+00  0.0000E+00  0.0000E+00  0.0000E+00
    -47.651  0.0000E+00  0.0000E+00  0.0000E+00  0.0000E+00  0.0000E+00  0.0000E+00  0.0000E+00  0.0000E+00  0.0000E+00  0.0000E+00  0.0000E+00  0.0000E+00  0.0000E+00  0.0000E+00  0.0000E+00  0.0000E+00  0.0000E+00  0.0000E+00
    -47.408  0.0000E+00  0.0000E+00  0.0000E+00  0.0000E+00  0.0000E+00  0.0000E+00  0.0000E+00  0.0000E+00  0.0000E+00  0.0000E+00  0.0000E+00  0.0000E+00  0.0000E+00  0.0000E+00  0.0000E+00  0.0000E+00  0.0000E+00  0.0000E+00
    -47.165  0.3669E-08  0.3646E-08  0.6277E-19  0.1558E-18  0.1163E-19  0.1074E-20  0.6277E-19  0.1558E-18  0.3102E-21  0.1683E-21  0.5810E-22  0.3107E-23  0.1044E-13  0.1038E-13  0.5810E-22  0.3107E-23  0.3102E-21  0.1683E-21
    -46.922  0.4952E-04  0.4916E-04  0.1237E-08  0.1229E-08  0.1454E-08  0.1443E-08  0.1237E-08  0.1229E-08  0.1471E-09  0.1461E-09  0.1043E-09  0.1033E-09  0.2690E-09  0.2665E-09  0.1043E-09  0.1033E-09  0.1471E-09  0.1461E-09
    -46.679  0.6621E-02  0.6580E-02  0.1589E-06  0.1579E-06  0.1887E-06  0.1876E-06  0.1589E-06  0.1579E-06  0.2058E-07  0.2045E-07  0.1690E-07  0.1680E-07  0.3785E-07  0.3762E-07  0.1690E-07  0.1680E-07  0.2058E-07  0.2045E-07
    -46.436  0.4422E+00  0.4405E+00  0.1143E-04  0.1139E-04  0.1381E-04  0.1376E-04  0.1143E-04  0.1139E-04  0.1991E-05  0.1980E-05  0.1737E-05  0.1727E-05  0.3191E-05  0.3176E-05  0.1737E-05  0.1727E-05  0.1991E-05  0.1980E-05
    -46.193  0.2981E+01  0.2979E+01  0.4704E-04  0.4706E-04  0.6301E-04  0.6303E-04  0.4704E-04  0.4706E-04  0.1894E-04  0.1893E-04  0.2226E-04  0.2225E-04  0.2899E-04  0.2898E-04  0.2226E-04  0.2225E-04  0.1894E-04  0.1893E-04
    -45.950  0.6430E+00  0.6480E+00  0.5200E-05  0.5292E-05  0.7434E-05  0.7560E-05  0.5200E-05  0.5292E-05  0.3432E-05  0.3459E-05  0.4960E-05  0.4995E-05  0.5429E-05  0.5477E-05  0.4960E-05  0.4995E-05  0.3432E-05  0.3459E-05
    -45.708  0.0000E+00  0.0000E+00  0.0000E+00  0.0000E+00  0.0000E+00  0.0000E+00  0.0000E+00  0.0000E+00  0.0000E+00  0.0000E+00  0.0000E+00  0.0000E+00  0.0000E+00  0.0000E+00  0.0000E+00  0.0000E+00  0.0000E+00  0.0000E+00
    -45.465  0.0000E+00  0.0000E+00  0.0000E+00  0.0000E+00  0.0000E+00  0.0000E+00  0.0000E+00  0.0000E+00  0.0000E+00  0.0000E+00  0.0000E+00  0.0000E+00  0.0000E+00  0.0000E+00  0.0000E+00  0.0000E+00  0.0000E+00  0.0000E+00
    -45.222  0.0000E+00  0.0000E+00  0.0000E+00  0.0000E+00  0.0000E+00  0.0000E+00  0.0000E+00  0.0000E+00  0.0000E+00  0.0000E+00  0.0000E+00  0.0000E+00  0.0000E+00  0.0000E+00  0.0000E+00  0.0000E+00  0.0000E+00  0.0000E+00
    -44.979  0.0000E+00  0.0000E+00  0.0000E+00  0.0000E+00  0.0000E+00  0.0000E+00  0.0000E+00  0.0000E+00  0.0000E+00  0.0000E+00  0.0000E+00  0.0000E+00  0.0000E+00  0.0000E+00  0.0000E+00  0.0000E+00  0.0000E+00  0.0000E+00
    -44.736  0.0000E+00  0.0000E+00  0.0000E+00  0.0000E+00  0.0000E+00  0.0000E+00  0.0000E+00  0.0000E+00  0.0000E+00  0.0000E+00  0.0000E+00  0.0000E+00  0.0000E+00  0.0000E+00  0.0000E+00  0.0000E+00  0.0000E+00  0.0000E+00
    -44.493  0.0000E+00  0.0000E+00  0.0000E+00  0.0000E+00  0.0000E+00  0.0000E+00  0.0000E+00  0.0000E+00  0.0000E+00  0.0000E+00  0.0000E+00  0.0000E+00  0.0000E+00  0.0000E+00  0.0000E+00  0.0000E+00  0.0000E+00  0.0000E+00
    -44.250  0.0000E+00  0.0000E+00  0.0000E+00  0.0000E+00  0.0000E+00  0.0000E+00  0.0000E+00  0.0000E+00  0.0000E+00  0.0000E+00  0.0000E+00  0.0000E+00  0.0000E+00  0.0000E+00  0.0000E+00  0.0000E+00  0.0000E+00  0.0000E+00
    -44.007  0.0000E+00  0.0000E+00  0.0000E+00  0.0000E+00  0.0000E+00  0.0000E+00  0.0000E+00  0.0000E+00  0.0000E+00  0.0000E+00  0.0000E+00  0.0000E+00  0.0000E+00  0.0000E+00  0.0000E+00  0.0000E+00  0.0000E+00  0.0000E+00
    -43.764  0.0000E+00  0.0000E+00  0.0000E+00  0.0000E+00  0.0000E+00  0.0000E+00  0.0000E+00  0.0000E+00  0.0000E+00  0.0000E+00  0.0000E+00  0.0000E+00  0.0000E+00  0.0000E+00  0.0000E+00  0.0000E+00  0.0000E+00  0.0000E+00
    -43.522  0.0000E+00  0.0000E+00  0.0000E+00  0.0000E+00  0.0000E+00  0.0000E+00  0.0000E+00  0.0000E+00  0.0000E+00  0.0000E+00  0.0000E+00  0.0000E+00  0.0000E+00  0.0000E+00  0.0000E+00  0.0000E+00  0.0000E+00  0.0000E+00
    -43.279  0.0000E+00  0.0000E+00  0.0000E+00  0.0000E+00  0.0000E+00  0.0000E+00  0.0000E+00  0.0000E+00  0.0000E+00  0.0000E+00  0.0000E+00  0.0000E+00  0.0000E+00  0.0000E+00  0.0000E+00  0.0000E+00  0.0000E+00  0.0000E+00
    -43.036  0.0000E+00  0.0000E+00  0.0000E+00  0.0000E+00  0.0000E+00  0.0000E+00  0.0000E+00  0.0000E+00  0.0000E+00  0.0000E+00  0.0000E+00  0.0000E+00  0.0000E+00  0.0000E+00  0.0000E+00  0.0000E+00  0.0000E+00  0.0000E+00
    -42.793  0.0000E+00  0.0000E+00  0.0000E+00  0.0000E+00  0.0000E+00  0.0000E+00  0.0000E+00  0.0000E+00  0.0000E+00  0.0000E+00  0.0000E+00  0.0000E+00  0.0000E+00  0.0000E+00  0.0000E+00  0.0000E+00  0.0000E+00  0.0000E+00
    -42.550  0.0000E+00  0.0000E+00  0.0000E+00  0.0000E+00  0.0000E+00  0.0000E+00  0.0000E+00  0.0000E+00  0.0000E+00  0.0000E+00  0.0000E+00  0.0000E+00  0.0000E+00  0.0000E+00  0.0000E+00  0.0000E+00  0.0000E+00  0.0000E+00
    -42.307  0.0000E+00  0.0000E+00  0.0000E+00  0.0000E+00  0.0000E+00  0.0000E+00  0.0000E+00  0.0000E+00  0.0000E+00  0.0000E+00  0.0000E+00  0.0000E+00  0.0000E+00  0.0000E+00  0.0000E+00  0.0000E+00  0.0000E+00  0.0000E+00
    -42.064  0.0000E+00  0.0000E+00  0.0000E+00  0.0000E+00  0.0000E+00  0.0000E+00  0.0000E+00  0.0000E+00  0.0000E+00  0.0000E+00  0.0000E+00  0.0000E+00  0.0000E+00  0.0000E+00  0.0000E+00  0.0000E+00  0.0000E+00  0.0000E+00
    -41.821  0.0000E+00  0.0000E+00  0.0000E+00  0.0000E+00  0.0000E+00  0.0000E+00  0.0000E+00  0.0000E+00  0.0000E+00  0.0000E+00  0.0000E+00  0.0000E+00  0.0000E+00  0.0000E+00  0.0000E+00  0.0000E+00  0.0000E+00  0.0000E+00
    -41.578  0.0000E+00  0.0000E+00  0.0000E+00  0.0000E+00  0.0000E+00  0.0000E+00  0.0000E+00  0.0000E+00  0.0000E+00  0.0000E+00  0.0000E+00  0.0000E+00  0.0000E+00  0.0000E+00  0.0000E+00  0.0000E+00  0.0000E+00  0.0000E+00
    -41.335  0.0000E+00  0.0000E+00  0.0000E+00  0.0000E+00  0.0000E+00  0.0000E+00  0.0000E+00  0.0000E+00  0.0000E+00  0.0000E+00  0.0000E+00  0.0000E+00  0.0000E+00  0.0000E+00  0.0000E+00  0.0000E+00  0.0000E+00  0.0000E+00
    -41.093  0.0000E+00  0.0000E+00  0.0000E+00  0.0000E+00  0.0000E+00  0.0000E+00  0.0000E+00  0.0000E+00  0.0000E+00  0.0000E+00  0.0000E+00  0.0000E+00  0.0000E+00  0.0000E+00  0.0000E+00  0.0000E+00  0.0000E+00  0.0000E+00
    -40.850  0.0000E+00  0.0000E+00  0.0000E+00  0.0000E+00  0.0000E+00  0.0000E+00  0.0000E+00  0.0000E+00  0.0000E+00  0.0000E+00  0.0000E+00  0.0000E+00  0.0000E+00  0.0000E+00  0.0000E+00  0.0000E+00  0.0000E+00  0.0000E+00
    -40.607  0.0000E+00  0.0000E+00  0.0000E+00  0.0000E+00  0.0000E+00  0.0000E+00  0.0000E+00  0.0000E+00  0.0000E+00  0.0000E+00  0.0000E+00  0.0000E+00  0.0000E+00  0.0000E+00  0.0000E+00  0.0000E+00  0.0000E+00  0.0000E+00
    -40.364  0.0000E+00  0.0000E+00  0.0000E+00  0.0000E+00  0.0000E+00  0.0000E+00  0.0000E+00  0.0000E+00  0.0000E+00  0.0000E+00  0.0000E+00  0.0000E+00  0.0000E+00  0.0000E+00  0.0000E+00  0.0000E+00  0.0000E+00  0.0000E+00
    -40.121  0.0000E+00  0.0000E+00  0.0000E+00  0.0000E+00  0.0000E+00  0.0000E+00  0.0000E+00  0.0000E+00  0.0000E+00  0.0000E+00  0.0000E+00  0.0000E+00  0.0000E+00  0.0000E+00  0.0000E+00  0.0000E+00  0.0000E+00  0.0000E+00
    -39.878  0.0000E+00  0.0000E+00  0.0000E+00  0.0000E+00  0.0000E+00  0.0000E+00  0.0000E+00  0.0000E+00  0.0000E+00  0.0000E+00  0.0000E+00  0.0000E+00  0.0000E+00  0.0000E+00  0.0000E+00  0.0000E+00  0.0000E+00  0.0000E+00
    -39.635  0.0000E+00  0.0000E+00  0.0000E+00  0.0000E+00  0.0000E+00  0.0000E+00  0.0000E+00  0.0000E+00  0.0000E+00  0.0000E+00  0.0000E+00  0.0000E+00  0.0000E+00  0.0000E+00  0.0000E+00  0.0000E+00  0.0000E+00  0.0000E+00
    -39.392  0.0000E+00  0.0000E+00  0.0000E+00  0.0000E+00  0.0000E+00  0.0000E+00  0.0000E+00  0.0000E+00  0.0000E+00  0.0000E+00  0.0000E+00  0.0000E+00  0.0000E+00  0.0000E+00  0.0000E+00  0.0000E+00  0.0000E+00  0.0000E+00
    -39.149  0.0000E+00  0.0000E+00  0.0000E+00  0.0000E+00  0.0000E+00  0.0000E+00  0.0000E+00  0.0000E+00  0.0000E+00  0.0000E+00  0.0000E+00  0.0000E+00  0.0000E+00  0.0000E+00  0.0000E+00  0.0000E+00  0.0000E+00  0.0000E+00
    -38.906  0.0000E+00  0.0000E+00  0.0000E+00  0.0000E+00  0.0000E+00  0.0000E+00  0.0000E+00  0.0000E+00  0.0000E+00  0.0000E+00  0.0000E+00  0.0000E+00  0.0000E+00  0.0000E+00  0.0000E+00  0.0000E+00  0.0000E+00  0.0000E+00
    -38.664  0.0000E+00  0.0000E+00  0.0000E+00  0.0000E+00  0.0000E+00  0.0000E+00  0.0000E+00  0.0000E+00  0.0000E+00  0.0000E+00  0.0000E+00  0.0000E+00  0.0000E+00  0.0000E+00  0.0000E+00  0.0000E+00  0.0000E+00  0.0000E+00
    -38.421  0.0000E+00  0.0000E+00  0.0000E+00  0.0000E+00  0.0000E+00  0.0000E+00  0.0000E+00  0.0000E+00  0.0000E+00  0.0000E+00  0.0000E+00  0.0000E+00  0.0000E+00  0.0000E+00  0.0000E+00  0.0000E+00  0.0000E+00  0.0000E+00
    -38.178  0.0000E+00  0.0000E+00  0.0000E+00  0.0000E+00  0.0000E+00  0.0000E+00  0.0000E+00  0.0000E+00  0.0000E+00  0.0000E+00  0.0000E+00  0.0000E+00  0.0000E+00  0.0000E+00  0.0000E+00  0.0000E+00  0.0000E+00  0.0000E+00
    -37.935  0.0000E+00  0.0000E+00  0.0000E+00  0.0000E+00  0.0000E+00  0.0000E+00  0.0000E+00  0.0000E+00  0.0000E+00  0.0000E+00  0.0000E+00  0.0000E+00  0.0000E+00  0.0000E+00  0.0000E+00  0.0000E+00  0.0000E+00  0.0000E+00
    -37.692  0.0000E+00  0.0000E+00  0.0000E+00  0.0000E+00  0.0000E+00  0.0000E+00  0.0000E+00  0.0000E+00  0.0000E+00  0.0000E+00  0.0000E+00  0.0000E+00  0.0000E+00  0.0000E+00  0.0000E+00  0.0000E+00  0.0000E+00  0.0000E+00