   2   2   1   0
  0.1580945E+02  0.2845073E-09  0.2845073E-09  0.4510548E-09  0.5000000E-15
  1.000000000000000E-004
  CAR 
 unknown system                          
     21.63452027    -50.62515557  301      9.38608522      1.00000000
    -50.625  0.0000E+00  0.0000E+00  0.0000E+00  0.0000E+00
    -50.384  0.0000E+00  0.0000E+00  0.0000E+00  0.0000E+00
    -50.143  0.0000E+00  0.0000E+00  0.0000E+00  0.0000E+00
    -49.903  0.0000E+00  0.0000E+00  0.0000E+00  0.0000E+00
    -49.662  0.0000E+00  0.0000E+00  0.0000E+00  0.0000E+00
    -49.421  0.0000E+00  0.0000E+00  0.0000E+00  0.0000E+00
    -49.180  0.0000E+00  0.0000E+00  0.0000E+00  0.0000E+00
    -48.939  0.0000E+00  0.0000E+00  0.0000E+00  0.0000E+00
    -48.698  0.0000E+00  0.0000E+00  0.0000E+00  0.0000E+00
    -48.457  0.0000E+00  0.0000E+00  0.0000E+00  0.0000E+00
    -48.216  0.0000E+00  0.0000E+00  0.0000E+00  0.0000E+00
    -47.976  0.8327E-08  0.8231E-08  0.2006E-08  0.1983E-08
    -47.735  0.1857E-03  0.1835E-03  0.4472E-04  0.4421E-04
    -47.494  0.2250E-01  0.2224E-01  0.5464E-02  0.5402E-02
    -47.253  0.1487E+01  0.1476E+01  0.3637E+00  0.3609E+00
    -47.012  0.6259E+01  0.6264E+01  0.1871E+01  0.1870E+01
    -46.771  0.4761E+00  0.4851E+00  0.1999E+01  0.1999E+01
    -46.530  0.0000E+00  0.0000E+00  0.2000E+01  0.2000E+01
    -46.290  0.0000E+00  0.0000E+00  0.2000E+01  0.2000E+01
    -46.049  0.0000E+00  0.0000E+00  0.2000E+01  0.2000E+01
    -45.808  0.0000E+00  0.0000E+00  0.2000E+01  0.2000E+01
    -45.567  0.0000E+00  0.0000E+00  0.2000E+01  0.2000E+01
    -45.326  0.0000E+00  0.0000E+00  0.2000E+01  0.2000E+01
    -45.085  0.0000E+00  0.0000E+00  0.2000E+01  0.2000E+01
    -44.844  0.0000E+00  0.0000E+00  0.2000E+01  0.2000E+01
    -44.604  0.0000E+00  0.0000E+00  0.2000E+01  0.2000E+01
    -44.363  0.0000E+00  0.0000E+00  0.2000E+01  0.2000E+01
    -44.122  0.0000E+00  0.0000E+00  0.2000E+01  0.2000E+01
    -43.881  0.0000E+00  0.0000E+00  0.2000E+01  0.2000E+01
    -43.640  0.0000E+00  0.0000E+00  0.2000E+01  0.2000E+01
    -43.399  0.0000E+00  0.0000E+00  0.2000E+01  0.2000E+01
    -43.158  0.0000E+00  0.0000E+00  0.2000E+01  0.2000E+01
    -42.917  0.0000E+00  0.0000E+00  0.2000E+01  0.2000E+01
    -42.677  0.0000E+00  0.0000E+00  0.2000E+01  0.2000E+01
    -42.436  0.0000E+00  0.0000E+00  0.2000E+01  0.2000E+01
    -42.195  0.0000E+00  0.0000E+00  0.2000E+01  0.2000E+01
    -41.954  0.0000E+00  0.0000E+00  0.2000E+01  0.2000E+01
    -41.713  0.0000E+00  0.0000E+00  0.2000E+01  0.2000E+01
    -41.472  0.0000E+00  0.0000E+00  0.2000E+01  0.2000E+01
    -41.231  0.0000E+00  0.0000E+00  0.2000E+01  0.2000E+01
    -40.991  0.0000E+00  0.0000E+00  0.2000E+01  0.2000E+01
    -40.750  0.0000E+00  0.0000E+00  0.2000E+01  0.2000E+01
    -40.509  0.0000E+00  0.0000E+00  0.2000E+01  0.2000E+01
    -40.268  0.0000E+00  0.0000E+00  0.2000E+01  0.2000E+01
    -40.027  0.0000E+00  0.0000E+00  0.2000E+01  0.2000E+01
    -39.786  0.0000E+00  0.0000E+00  0.2000E+01  0.2000E+01
    -39.545  0.0000E+00  0.0000E+00  0.2000E+01  0.2000E+01
    -39.304  0.0000E+00  0.0000E+00  0.2000E+01  0.2000E+01
    -39.064  0.0000E+00  0.0000E+00  0.2000E+01  0.2000E+01
    -38.823  0.0000E+00  0.0000E+00  0.2000E+01  0.2000E+01
    -38.582  0.0000E+00  0.0000E+00  0.2000E+01  0.2000E+01
    -38.341  0.0000E+00  0.0000E+00  0.2000E+01  0.2000E+01
    -38.100  0.0000E+00  0.0000E+00  0.2000E+01  0.2000E+01
    -37.859  0.0000E+00  0.0000E+00  0.2000E+01  0.2000E+01
    -37.618  0.0000E+00  0.0000E+00  0.2000E+01  0.2000E+01
    -37.378  0.0000E+00  0.0000E+00  0.2000E+01  0.2000E+01
    -37.137  0.0000E+00  0.0000E+00  0.2000E+01  0.2000E+01
    -36.896  0.0000E+00  0.0000E+00  0.2000E+01  0.2000E+01
    -36.655  0.0000E+00  0.0000E+00  0.2000E+01  0.2000E+01
    -36.414  0.0000E+00  0.0000E+00  0.2000E+01  0.2000E+01
    -36.173  0.0000E+00  0.0000E+00  0.2000E+01  0.2000E+01
    -35.932  0.0000E+00  0.0000E+00  0.2000E+01  0.2000E+01
    -35.691  0.0000E+00  0.0000E+00  0.2000E+01  0.2000E+01
    -35.451  0.0000E+00  0.0000E+00  0.2000E+01  0.2000E+01
    -35.210  0.0000E+00  0.0000E+00  0.2000E+01  0.2000E+01
    -34.969  0.0000E+00  0.0000E+00  0.2000E+01  0.2000E+01
    -34.728  0.0000E+00  0.0000E+00  0.2000E+01  0.2000E+01
    -34.487  0.0000E+00  0.0000E+00  0.2000E+01  0.2000E+01
    -34.246  0.0000E+00  0.0000E+00  0.2000E+01  0.2000E+01
    -34.005  0.0000E+00  0.0000E+00  0.2000E+01  0.2000E+01
    -33.765  0.0000E+00  0.0000E+00  0.2000E+01  0.2000E+01
    -33.524  0.0000E+00  0.0000E+00  0.2000E+01  0.2000E+01
    -33.283  0.0000E+00  0.0000E+00  0.2000E+01  0.2000E+01
    -33.042  0.0000E+00  0.0000E+00  0.2000E+01  0.2000E+01
    -32.801  0.0000E+00  0.0000E+00  0.2000E+01  0.2000E+01
    -32.560  0.0000E+00  0.0000E+00  0.2000E+01  0.2000E+01
    -32.319  0.0000E+00  0.0000E+00  0.2000E+01  0.2000E+01
    -32.079  0.0000E+00  0.0000E+00  0.2000E+01  0.2000E+01
    -31.838  0.0000E+00  0.0000E+00  0.2000E+01  0.2000E+01
    -31.597  0.0000E+00  0.0000E+00  0.2000E+01  0.2000E+01
    -31.356  0.0000E+00  0.0000E+00  0.2000E+01  0.2000E+01
    -31.115  0.0000E+00  0.0000E+00  0.2000E+01  0.2000E+01
    -30.874  0.0000E+00  0.0000E+00  0.2000E+01  0.2000E+01
    -30.633  0.0000E+00  0.0000E+00  0.2000E+01  0.2000E+01
    -30.392  0.0000E+00  0.0000E+00  0.2000E+01  0.2000E+01
    -30.152  0.0000E+00  0.0000E+00  0.2000E+01  0.2000E+01
    -29.911  0.0000E+00  0.0000E+00  0.2000E+01  0.2000E+01
    -29.670  0.0000E+00  0.0000E+00  0.2000E+01  0.2000E+01
    -29.429  0.0000E+00  0.0000E+00  0.2000E+01  0.2000E+01
    -29.188  0.0000E+00  0.0000E+00  0.2000E+01  0.2000E+01
    -28.947  0.0000E+00  0.0000E+00  0.2000E+01  0.2000E+01
    -28.706  0.0000E+00  0.0000E+00  0.2000E+01  0.2000E+01
    -28.466  0.0000E+00  0.0000E+00  0.2000E+01  0.2000E+01
    -28.225  0.0000E+00  0.0000E+00  0.2000E+01  0.2000E+01
    -27.984  0.0000E+00  0.0000E+00  0.2000E+01  0.2000E+01
    -27.743  0.0000E+00  0.0000E+00  0.2000E+01  0.2000E+01
    -27.502  0.0000E+00  0.0000E+00  0.2000E+01  0.2000E+01
    -27.261  0.0000E+00  0.0000E+00  0.2000E+01  0.2000E+01
    -27.020  0.0000E+00  0.0000E+00  0.2000E+01  0.2000E+01
    -26.779  0.0000E+00  0.0000E+00  0.2000E+01  0.2000E+01
    -26.539  0.0000E+00  0.0000E+00  0.2000E+01  0.2000E+01
    -26.298  0.0000E+00  0.0000E+00  0.2000E+01  0.2000E+01
    -26.057  0.0000E+00  0.0000E+00  0.2000E+01  0.2000E+01
    -25.816  0.0000E+00  0.0000E+00  0.2000E+01  0.2000E+01
    -25.575  0.0000E+00  0.0000E+00  0.2000E+01  0.2000E+01
    -25.334  0.0000E+00  0.0000E+00  0.2000E+01  0.2000E+01
    -25.093  0.0000E+00  0.0000E+00  0.2000E+01  0.2000E+01
    -24.853  0.0000E+00  0.0000E+00  0.2000E+01  0.2000E+01
    -24.612  0.4885E-06  0.4820E-06  0.2000E+01  0.2000E+01
    -24.371  0.2136E-03  0.2104E-03  0.2000E+01  0.2000E+01
    -24.130  0.2571E-01  0.2539E-01  0.2006E+01  0.2006E+01
    -23.889  0.1330E+01  0.1320E+01  0.2327E+01  0.2324E+01
    -23.648  0.5098E+01  0.5096E+01  0.3554E+01  0.3551E+01
    -23.407  0.5357E+01  0.5350E+01  0.4858E+01  0.4854E+01
    -23.166  0.9644E+01  0.9639E+01  0.7190E+01  0.7184E+01
    -22.926  0.3225E+01  0.3247E+01  0.7984E+01  0.7984E+01
    -22.685  0.9974E-02  0.1010E-01  0.8000E+01  0.8000E+01
    -22.444  0.0000E+00  0.0000E+00  0.8000E+01  0.8000E+01
    -22.203  0.0000E+00  0.0000E+00  0.8000E+01  0.8000E+01
    -21.962  0.0000E+00  0.0000E+00  0.8000E+01  0.8000E+01
    -21.721  0.0000E+00  0.0000E+00  0.8000E+01  0.8000E+01
    -21.480  0.0000E+00  0.0000E+00  0.8000E+01  0.8000E+01
    -21.240  0.0000E+00  0.0000E+00  0.8000E+01  0.8000E+01
    -20.999  0.0000E+00  0.0000E+00  0.8000E+01  0.8000E+01
    -20.758  0.0000E+00  0.0000E+00  0.8000E+01  0.8000E+01
    -20.517  0.0000E+00  0.0000E+00  0.8000E+01  0.8000E+01
    -20.276  0.0000E+00  0.0000E+00  0.8000E+01  0.8000E+01
    -20.035  0.0000E+00  0.0000E+00  0.8000E+01  0.8000E+01
    -19.794  0.0000E+00  0.0000E+00  0.8000E+01  0.8000E+01
    -19.553  0.0000E+00  0.0000E+00  0.8000E+01  0.8000E+01
    -19.313  0.0000E+00  0.0000E+00  0.8000E+01  0.8000E+01
    -19.072  0.0000E+00  0.0000E+00  0.8000E+01  0.8000E+01
    -18.831  0.0000E+00  0.0000E+00  0.8000E+01  0.8000E+01
    -18.590  0.0000E+00  0.0000E+00  0.8000E+01  0.8000E+01
    -18.349  0.0000E+00  0.0000E+00  0.8000E+01  0.8000E+01
    -18.108  0.0000E+00  0.0000E+00  0.8000E+01  0.8000E+01
    -17.867  0.0000E+00  0.0000E+00  0.8000E+01  0.8000E+01
    -17.627  0.0000E+00  0.0000E+00  0.8000E+01  0.8000E+01
    -17.386  0.0000E+00  0.0000E+00  0.8000E+01  0.8000E+01
    -17.145  0.0000E+00  0.0000E+00  0.8000E+01  0.8000E+01
    -16.904  0.0000E+00  0.0000E+00  0.8000E+01  0.8000E+01
    -16.663  0.0000E+00  0.0000E+00  0.8000E+01  0.8000E+01
    -16.422  0.0000E+00  0.0000E+00  0.8000E+01  0.8000E+01
    -16.181  0.0000E+00  0.0000E+00  0.8000E+01  0.8000E+01
    -15.941  0.0000E+00  0.0000E+00  0.8000E+01  0.8000E+01
    -15.700  0.0000E+00  0.0000E+00  0.8000E+01  0.8000E+01
    -15.459  0.0000E+00  0.0000E+00  0.8000E+01  0.8000E+01
    -15.218  0.0000E+00  0.0000E+00  0.8000E+01  0.8000E+01
    -14.977  0.0000E+00  0.0000E+00  0.8000E+01  0.8000E+01
    -14.736  0.0000E+00  0.0000E+00  0.8000E+01  0.8000E+01
    -14.495  0.0000E+00  0.0000E+00  0.8000E+01  0.8000E+01
    -14.254  0.0000E+00  0.0000E+00  0.8000E+01  0.8000E+01
    -14.014  0.0000E+00  0.0000E+00  0.8000E+01  0.8000E+01
    -13.773  0.0000E+00  0.0000E+00  0.8000E+01  0.8000E+01
    -13.532  0.0000E+00  0.0000E+00  0.8000E+01  0.8000E+01
    -13.291  0.0000E+00  0.0000E+00  0.8000E+01  0.8000E+01
    -13.050  0.0000E+00  0.0000E+00  0.8000E+01  0.8000E+01
    -12.809  0.0000E+00  0.0000E+00  0.8000E+01  0.8000E+01
    -12.568  0.0000E+00  0.0000E+00  0.8000E+01  0.8000E+01
    -12.328  0.0000E+00  0.0000E+00  0.8000E+01  0.8000E+01
    -12.087  0.0000E+00  0.0000E+00  0.8000E+01  0.8000E+01
    -11.846  0.0000E+00  0.0000E+00  0.8000E+01  0.8000E+01
    -11.605  0.0000E+00  0.0000E+00  0.8000E+01  0.8000E+01
    -11.364  0.0000E+00  0.0000E+00  0.8000E+01  0.8000E+01
    -11.123  0.0000E+00  0.0000E+00  0.8000E+01  0.8000E+01
    -10.882  0.0000E+00  0.0000E+00  0.8000E+01  0.8000E+01
    -10.641  0.0000E+00  0.0000E+00  0.8000E+01  0.8000E+01
    -10.401  0.0000E+00  0.0000E+00  0.8000E+01  0.8000E+01
    -10.160  0.0000E+00  0.0000E+00  0.8000E+01  0.8000E+01
     -9.919  0.0000E+00  0.0000E+00  0.8000E+01  0.8000E+01
     -9.678  0.0000E+00  0.0000E+00  0.8000E+01  0.8000E+01
     -9.437  0.0000E+00  0.0000E+00  0.8000E+01  0.8000E+01
     -9.196  0.0000E+00  0.0000E+00  0.8000E+01  0.8000E+01
     -8.955  0.0000E+00  0.0000E+00  0.8000E+01  0.8000E+01
     -8.715  0.0000E+00  0.0000E+00  0.8000E+01  0.8000E+01
     -8.474  0.0000E+00  0.0000E+00  0.8000E+01  0.8000E+01
     -8.233  0.0000E+00  0.0000E+00  0.8000E+01  0.8000E+01
     -7.992  0.0000E+00  0.0000E+00  0.8000E+01  0.8000E+01
     -7.751  0.0000E+00  0.0000E+00  0.8000E+01  0.8000E+01
     -7.510  0.0000E+00  0.0000E+00  0.8000E+01  0.8000E+01
     -7.269  0.0000E+00  0.0000E+00  0.8000E+01  0.8000E+01
     -7.028  0.0000E+00  0.0000E+00  0.8000E+01  0.8000E+01
     -6.788  0.0000E+00  0.0000E+00  0.8000E+01  0.8000E+01
     -6.547  0.0000E+00  0.0000E+00  0.8000E+01  0.8000E+01
     -6.306  0.0000E+00  0.0000E+00  0.8000E+01  0.8000E+01
     -6.065  0.0000E+00  0.0000E+00  0.8000E+01  0.8000E+01
     -5.824  0.0000E+00  0.0000E+00  0.8000E+01  0.8000E+01
     -5.583  0.0000E+00  0.0000E+00  0.8000E+01  0.8000E+01
     -5.342  0.0000E+00  0.0000E+00  0.8000E+01  0.8000E+01
     -5.102  0.0000E+00  0.0000E+00  0.8000E+01  0.8000E+01
     -4.861  0.0000E+00  0.0000E+00  0.8000E+01  0.8000E+01
     -4.620  0.0000E+00  0.0000E+00  0.8000E+01  0.8000E+01
     -4.379  0.0000E+00  0.0000E+00  0.8000E+01  0.8000E+01
     -4.138  0.0000E+00  0.0000E+00  0.8000E+01  0.8000E+01
     -3.897  0.0000E+00  0.0000E+00  0.8000E+01  0.8000E+01
     -3.656  0.0000E+00  0.0000E+00  0.8000E+01  0.8000E+01
     -3.416  0.0000E+00  0.0000E+00  0.8000E+01  0.8000E+01
     -3.175  0.0000E+00  0.0000E+00  0.8000E+01  0.8000E+01
     -2.934  0.0000E+00  0.0000E+00  0.8000E+01  0.8000E+01
     -2.693  0.0000E+00  0.0000E+00  0.8000E+01  0.8000E+01
     -2.452  0.0000E+00  0.0000E+00  0.8000E+01  0.8000E+01
     -2.211  0.0000E+00  0.0000E+00  0.8000E+01  0.8000E+01
     -1.970  0.0000E+00  0.0000E+00  0.8000E+01  0.8000E+01
     -1.729  0.0000E+00  0.0000E+00  0.8000E+01  0.8000E+01
     -1.489  0.0000E+00  0.0000E+00  0.8000E+01  0.8000E+01
     -1.248  0.0000E+00  0.0000E+00  0.8000E+01  0.8000E+01
     -1.007  0.0000E+00  0.0000E+00  0.8000E+01  0.8000E+01
     -0.766  0.0000E+00  0.0000E+00  0.8000E+01  0.8000E+01
     -0.525  0.0000E+00  0.0000E+00  0.8000E+01  0.8000E+01
     -0.284  0.0000E+00  0.0000E+00  0.8000E+01  0.8000E+01
     -0.043  0.0000E+00  0.0000E+00  0.8000E+01  0.8000E+01
      0.197  0.0000E+00  0.0000E+00  0.8000E+01  0.8000E+01
      0.438  0.0000E+00  0.0000E+00  0.8000E+01  0.8000E+01
      0.679  0.0000E+00  0.0000E+00  0.8000E+01  0.8000E+01
      0.920  0.0000E+00  0.0000E+00  0.8000E+01  0.8000E+01
      1.161  0.0000E+00  0.0000E+00  0.8000E+01  0.8000E+01
      1.402  0.0000E+00  0.0000E+00  0.8000E+01  0.8000E+01
      1.643  0.0000E+00  0.0000E+00  0.8000E+01  0.8000E+01
      1.884  0.0000E+00  0.0000E+00  0.8000E+01  0.8000E+01
      2.124  0.0000E+00  0.0000E+00  0.8000E+01  0.8000E+01
      2.365  0.2069E-07  0.2133E-07  0.8000E+01  0.8000E+01
      2.606  0.3454E-05  0.3561E-05  0.8000E+01  0.8000E+01
      2.847  0.4033E-03  0.4148E-03  0.8000E+01  0.8000E+01
      3.088  0.1110E-01  0.1127E-01  0.8003E+01  0.8003E+01
      3.329  0.4192E-01  0.4194E-01  0.8013E+01  0.8013E+01
      3.570  0.5225E-01  0.5268E-01  0.8026E+01  0.8026E+01
      3.810  0.8100E-01  0.8074E-01  0.8045E+01  0.8045E+01
      4.051  0.6951E-01  0.6980E-01  0.8062E+01  0.8062E+01
      4.292  0.1197E+00  0.1197E+00  0.8091E+01  0.8091E+01
      4.533  0.1232E+00  0.1238E+00  0.8121E+01  0.8121E+01
      4.774  0.1138E+00  0.1132E+00  0.8148E+01  0.8148E+01
      5.015  0.1462E+00  0.1470E+00  0.8184E+01  0.8184E+01
      5.256  0.2141E+00  0.2137E+00  0.8236E+01  0.8236E+01
      5.497  0.1709E+00  0.1708E+00  0.8277E+01  0.8277E+01
      5.737  0.2200E+00  0.2201E+00  0.8331E+01  0.8331E+01
      5.978  0.2873E+00  0.2879E+00  0.8400E+01  0.8401E+01
      6.219  0.4229E+00  0.4234E+00  0.8503E+01  0.8503E+01
      6.460  0.4983E+00  0.4985E+00  0.8623E+01  0.8624E+01
      6.701  0.9455E+00  0.9468E+00  0.8852E+01  0.8853E+01
      6.942  0.9654E+00  0.9645E+00  0.9086E+01  0.9086E+01
      7.183  0.1013E+01  0.1014E+01  0.9332E+01  0.9332E+01
      7.423  0.1377E+01  0.1375E+01  0.9665E+01  0.9666E+01
      7.664  0.1272E+01  0.1272E+01  0.9974E+01  0.9975E+01
      7.905  0.1021E+01  0.1018E+01  0.1022E+02  0.1022E+02
      8.146  0.1053E+01  0.1053E+01  0.1048E+02  0.1048E+02
      8.387  0.1319E+01  0.1319E+01  0.1080E+02  0.1080E+02
      8.628  0.1631E+01  0.1632E+01  0.1119E+02  0.1119E+02
      8.869  0.1652E+01  0.1651E+01  0.1160E+02  0.1160E+02
      9.110  0.8267E+00  0.8264E+00  0.1180E+02  0.1180E+02
      9.350  0.7023E+00  0.7024E+00  0.1197E+02  0.1197E+02
      9.591  0.1386E+01  0.1385E+01  0.1230E+02  0.1230E+02
      9.832  0.1819E+01  0.1819E+01  0.1274E+02  0.1274E+02
     10.073  0.1828E+01  0.1828E+01  0.1319E+02  0.1319E+02
     10.314  0.2032E+01  0.2032E+01  0.1368E+02  0.1368E+02
     10.555  0.2251E+01  0.2251E+01  0.1423E+02  0.1423E+02
     10.796  0.1998E+01  0.1998E+01  0.1471E+02  0.1471E+02
     11.036  0.1369E+01  0.1368E+01  0.1505E+02  0.1505E+02
     11.277  0.1059E+01  0.1059E+01  0.1531E+02  0.1531E+02
     11.518  0.8888E+00  0.8886E+00  0.1552E+02  0.1552E+02
     11.759  0.1007E+01  0.1007E+01  0.1577E+02  0.1577E+02
     12.000  0.8733E+00  0.8730E+00  0.1598E+02  0.1598E+02
     12.241  0.1096E+01  0.1095E+01  0.1625E+02  0.1625E+02
     12.482  0.1109E+01  0.1109E+01  0.1652E+02  0.1652E+02
     12.722  0.1579E+01  0.1577E+01  0.1690E+02  0.1690E+02
     12.963  0.2316E+01  0.2313E+01  0.1746E+02  0.1746E+02
     13.204  0.2786E+01  0.2785E+01  0.1813E+02  0.1813E+02
     13.445  0.2070E+01  0.2076E+01  0.1864E+02  0.1864E+02
     13.686  0.5234E+00  0.5244E+00  0.1877E+02  0.1877E+02
     13.927  0.6311E+00  0.6311E+00  0.1892E+02  0.1892E+02
     14.168  0.4206E+00  0.4212E+00  0.1902E+02  0.1902E+02
     14.409  0.3532E+00  0.3530E+00  0.1911E+02  0.1911E+02
     14.649  0.5335E+00  0.5337E+00  0.1924E+02  0.1924E+02
     14.890  0.2913E+00  0.2913E+00  0.1931E+02  0.1931E+02
     15.131  0.3514E+00  0.3512E+00  0.1940E+02  0.1940E+02
     15.372  0.2823E+00  0.2817E+00  0.1946E+02  0.1946E+02
     15.613  0.3853E+00  0.3844E+00  0.1956E+02  0.1956E+02
     15.854  0.2800E+00  0.2797E+00  0.1963E+02  0.1963E+02
     16.095  0.3291E+00  0.3311E+00  0.1971E+02  0.1971E+02
     16.335  0.3151E+00  0.3119E+00  0.1978E+02  0.1978E+02
     16.576  0.1524E+00  0.1555E+00  0.1982E+02  0.1982E+02
     16.817  0.2886E+00  0.2919E+00  0.1989E+02  0.1989E+02
     17.058  0.1810E+00  0.1768E+00  0.1993E+02  0.1993E+02
     17.299  0.1080E+00  0.1099E+00  0.1996E+02  0.1996E+02
     17.540  0.4646E-01  0.4646E-01  0.1997E+02  0.1997E+02
     17.781  0.3603E-01  0.3965E-01  0.1998E+02  0.1998E+02
     18.022  0.4224E-01  0.3851E-01  0.1999E+02  0.1999E+02
     18.262  0.1996E-01  0.2072E-01  0.2000E+02  0.2000E+02
     18.503  0.1320E-01  0.1323E-01  0.2000E+02  0.2000E+02
     18.744  0.7115E-03  0.7234E-03  0.2000E+02  0.2000E+02
     18.985  0.0000E+00  0.0000E+00  0.2000E+02  0.2000E+02
     19.226  0.0000E+00  0.0000E+00  0.2000E+02  0.2000E+02
     19.467  0.0000E+00  0.0000E+00  0.2000E+02  0.2000E+02
     19.708  0.0000E+00  0.0000E+00  0.2000E+02  0.2000E+02
     19.948  0.0000E+00  0.0000E+00  0.2000E+02  0.2000E+02
     20.189  0.0000E+00  0.0000E+00  0.2000E+02  0.2000E+02
     20.430  0.0000E+00  0.0000E+00  0.2000E+02  0.2000E+02
     20.671  0.0000E+00  0.0000E+00  0.2000E+02  0.2000E+02
     20.912  0.0000E+00  0.0000E+00  0.2000E+02  0.2000E+02
     21.153  0.0000E+00  0.0000E+00  0.2000E+02  0.2000E+02
     21.394  0.0000E+00  0.0000E+00  0.2000E+02  0.2000E+02
     21.635  0.0000E+00  0.0000E+00  0.2000E+02  0.2000E+02
     21.63452027    -50.62515557  301      9.38608522      1.00000000
    -50.625  0.0000E+00  0.0000E+00  0.0000E+00  0.0000E+00  0.0000E+00  0.0000E+00  0.0000E+00  0.0000E+00  0.0000E+00  0.0000E+00  0.0000E+00  0.0000E+00  0.0000E+00  0.0000E+00  0.0000E+00  0.0000E+00  0.0000E+00  0.0000E+00
    -50.384  0.0000E+00  0.0000E+00  0.0000E+00  0.0000E+00  0.0000E+00  0.0000E+00  0.0000E+00  0.0000E+00  0.0000E+00  0.0000E+00  0.0000E+00  0.0000E+00  0.0000E+00  0.0000E+00  0.0000E+00  0.0000E+00  0.0000E+00  0.0000E+00
    -50.143  0.0000E+00  0.0000E+00  0.0000E+00  0.0000E+00  0.0000E+00  0.0000E+00  0.0000E+00  0.0000E+00  0.0000E+00  0.0000E+00  0.0000E+00  0.0000E+00  0.0000E+00  0.0000E+00  0.0000E+00  0.0000E+00  0.0000E+00  0.0000E+00
    -49.903  0.0000E+00  0.0000E+00  0.0000E+00  0.0000E+00  0.0000E+00  0.0000E+00  0.0000E+00  0.0000E+00  0.0000E+00  0.0000E+00  0.0000E+00  0.0000E+00  0.0000E+00  0.0000E+00  0.0000E+00  0.0000E+00  0.0000E+00  0.0000E+00
    -49.662  0.0000E+00  0.0000E+00  0.0000E+00  0.0000E+00  0.0000E+00  0.0000E+00  0.0000E+00  0.0000E+00  0.0000E+00  0.0000E+00  0.0000E+00  0.0000E+00  0.0000E+00  0.0000E+00  0.0000E+00  0.0000E+00  0.0000E+00  0.0000E+00
    -49.421  0.0000E+00  0.0000E+00  0.0000E+00  0.0000E+00  0.0000E+00  0.0000E+00  0.0000E+00  0.0000E+00  0.0000E+00  0.0000E+00  0.0000E+00  0.0000E+00  0.0000E+00  0.0000E+00  0.0000E+00  0.0000E+00  0.0000E+00  0.0000E+00
    -49.180  0.0000E+00  0.0000E+00  0.0000E+00  0.0000E+00  0.0000E+00  0.0000E+00  0.0000E+00  0.0000E+00  0.0000E+00  0.0000E+00  0.0000E+00  0.0000E+00  0.0000E+00  0.0000E+00  0.0000E+00  0.0000E+00  0.0000E+00  0.0000E+00
    -48.939  0.0000E+00  0.0000E+00  0.0000E+00  0.0000E+00  0.0000E+00  0.0000E+00  0.0000E+00  0.0000E+00  0.0000E+00  0.0000E+00  0.0000E+00  0.0000E+00  0.0000E+00  0.0000E+00  0.0000E+00  0.0000E+00  0.0000E+00  0.0000E+00
    -48.698  0.0000E+00  0.0000E+00  0.0000E+00  0.0000E+00  0.0000E+00  0.0000E+00  0.0000E+00  0.0000E+00  0.0000E+00  0.0000E+00  0.0000E+00  0.0000E+00  0.0000E+00  0.0000E+00  0.0000E+00  0.0000E+00  0.0000E+00  0.0000E+00
    -48.457  0.0000E+00  0.0000E+00  0.0000E+00  0.0000E+00  0.0000E+00  0.0000E+00  0.0000E+00  0.0000E+00  0.0000E+00  0.0000E+00  0.0000E+00  0.0000E+00  0.0000E+00  0.0000E+00  0.0000E+00  0.0000E+00  0.0000E+00  0.0000E+00
    -48.216  0.0000E+00  0.0000E+00  0.0000E+00  0.0000E+00  0.0000E+00  0.0000E+00  0.0000E+00  0.0000E+00  0.0000E+00  0.0000E+00  0.0000E+00  0.0000E+00  0.0000E+00  0.0000E+00  0.0000E+00  0.0000E+00  0.0000E+00  0.0000E+00
    -47.976  0.4122E-08  0.4075E-08  0.5971E-19  0.2882E-19  0.8378E-20  0.1016E-20  0.5971E-19  0.2882E-19  0.3270E-22  0.2738E-22  0.8895E-23  0.2824E-23  0.8988E-14  0.8869E-14  0.8895E-23  0.2824E-23  0.3270E-22  0.2738E-22
    -47.735  0.9216E-04  0.9109E-04  0.1346E-08  0.1330E-08  0.1630E-08  0.1611E-08  0.1346E-08  0.1330E-08  0.2219E-09  0.2193E-09  0.1991E-09  0.1968E-09  0.4100E-09  0.4050E-09  0.1991E-09  0.1968E-09  0.2219E-09  0.2193E-09
    -47.494  0.1117E-01  0.1104E-01  0.1633E-06  0.1614E-06  0.1979E-06  0.1956E-06  0.1633E-06  0.1614E-06  0.2708E-07  0.2678E-07  0.2433E-07  0.2405E-07  0.4989E-07  0.4929E-07  0.2433E-07  0.2405E-07  0.2708E-07  0.2678E-07
    -47.253  0.7387E+00  0.7332E+00  0.1062E-04  0.1055E-04  0.1319E-04  0.1310E-04  0.1062E-04  0.1055E-04  0.2381E-05  0.2360E-05  0.2290E-05  0.2269E-05  0.3953E-05  0.3918E-05  0.2290E-05  0.2269E-05  0.2381E-05  0.2360E-05
    -47.012  0.3114E+01  0.3117E+01  0.2722E-04  0.2727E-04  0.3705E-04  0.3712E-04  0.2722E-04  0.2727E-04  0.1166E-04  0.1167E-04  0.1432E-04  0.1433E-04  0.1895E-04  0.1896E-04  0.1432E-04  0.1433E-04  0.1166E-04  0.1167E-04
    -46.771  0.2371E+00  0.2415E+00  0.1011E-05  0.1045E-05  0.1522E-05  0.1593E-05  0.1011E-05  0.1045E-05  0.7378E-06  0.7506E-06  0.1127E-05  0.1155E-05  0.1258E-05  0.1275E-05  0.1127E-05  0.1155E-05  0.7378E-06  0.7506E-06
    -46.530  0.0000E+00  0.0000E+00  0.0000E+00  0.0000E+00  0.0000E+00  0.0000E+00  0.0000E+00  0.0000E+00  0.0000E+00  0.0000E+00  0.0000E+00  0.0000E+00  0.0000E+00  0.0000E+00  0.0000E+00  0.0000E+00  0.0000E+00  0.0000E+00
    -46.290  0.0000E+00  0.0000E+00  0.0000E+00  0.0000E+00  0.0000E+00  0.0000E+00  0.0000E+00  0.0000E+00  0.0000E+00  0.0000E+00  0.0000E+00  0.0000E+00  0.0000E+00  0.0000E+00  0.0000E+00  0.0000E+00  0.0000E+00  0.0000E+00
    -46.049  0.0000E+00  0.0000E+00  0.0000E+00  0.0000E+00  0.0000E+00  0.0000E+00  0.0000E+00  0.0000E+00  0.0000E+00  0.0000E+00  0.0000E+00  0.0000E+00  0.0000E+00  0.0000E+00  0.0000E+00  0.0000E+00  0.0000E+00  0.0000E+00
    -45.808  0.0000E+00  0.0000E+00  0.0000E+00  0.0000E+00  0.0000E+00  0.0000E+00  0.0000E+00  0.0000E+00  0.0000E+00  0.0000E+00  0.0000E+00  0.0000E+00  0.0000E+00  0.0000E+00  0.0000E+00  0.0000E+00  0.0000E+00  0.0000E+00
    -45.567  0.0000E+00  0.0000E+00  0.0000E+00  0.0000E+00  0.0000E+00  0.0000E+00  0.0000E+00  0.0000E+00  0.0000E+00  0.0000E+00  0.0000E+00  0.0000E+00  0.0000E+00  0.0000E+00  0.0000E+00  0.0000E+00  0.0000E+00  0.0000E+00
    -45.326  0.0000E+00  0.0000E+00  0.0000E+00  0.0000E+00  0.0000E+00  0.0000E+00  0.0000E+00  0.0000E+00  0.0000E+00  0.0000E+00  0.0000E+00  0.0000E+00  0.0000E+00  0.0000E+00  0.0000E+00  0.0000E+00  0.0000E+00  0.0000E+00
    -45.085  0.0000E+00  0.0000E+00  0.0000E+00  0.0000E+00  0.0000E+00  0.0000E+00  0.0000E+00  0.0000E+00  0.0000E+00  0.0000E+00  0.0000E+00  0.0000E+00  0.0000E+00  0.0000E+00  0.0000E+00  0.0000E+00  0.0000E+00  0.0000E+00
    -44.844  0.0000E+00  0.0000E+00  0.0000E+00  0.0000E+00  0.0000E+00  0.0000E+00  0.0000E+00  0.0000E+00  0.0000E+00  0.0000E+00  0.0000E+00  0.0000E+00  0.0000E+00  0.0000E+00  0.0000E+00  0.0000E+00  0.0000E+00  0.0000E+00
    -44.604  0.0000E+00  0.0000E+00  0.0000E+00  0.0000E+00  0.0000E+00  0.0000E+00  0.0000E+00  0.0000E+00  0.0000E+00  0.0000E+00  0.0000E+00  0.0000E+00  0.0000E+00  0.0000E+00  0.0000E+00  0.0000E+00  0.0000E+00  0.0000E+00
    -44.363  0.0000E+00  0.0000E+00  0.0000E+00  0.0000E+00  0.0000E+00  0.0000E+00  0.0000E+00  0.0000E+00  0.0000E+00  0.0000E+00  0.0000E+00  0.0000E+00  0.0000E+00  0.0000E+00  0.0000E+00  0.0000E+00  0.0000E+00  0.0000E+00
    -44.122  0.0000E+00  0.0000E+00  0.0000E+00  0.0000E+00  0.0000E+00  0.0000E+00  0.0000E+00  0.0000E+00  0.0000E+00  0.0000E+00  0.0000E+00  0.0000E+00  0.0000E+00  0.0000E+00  0.0000E+00  0.0000E+00  0.0000E+00  0.0000E+00
    -43.881  0.0000E+00  0.0000E+00  0.0000E+00  0.0000E+00  0.0000E+00  0.0000E+00  0.0000E+00  0.0000E+00  0.0000E+00  0.0000E+00  0.0000E+00  0.0000E+00  0.0000E+00  0.0000E+00  0.0000E+00  0.0000E+00  0.0000E+00  0.0000E+00
    -43.640  0.0000E+00  0.0000E+00  0.0000E+00  0.0000E+00  0.0000E+00  0.0000E+00  0.0000E+00  0.0000E+00  0.0000E+00  0.0000E+00  0.0000E+00  0.0000E+00  0.0000E+00  0.0000E+00  0.0000E+00  0.0000E+00  0.0000E+00  0.0000E+00
    -43.399  0.0000E+00  0.0000E+00  0.0000E+00  0.0000E+00  0.0000E+00  0.0000E+00  0.0000E+00  0.0000E+00  0.0000E+00  0.0000E+00  0.0000E+00  0.0000E+00  0.0000E+00  0.0000E+00  0.0000E+00  0.0000E+00  0.0000E+00  0.0000E+00
    -43.158  0.0000E+00  0.0000E+00  0.0000E+00  0.0000E+00  0.0000E+00  0.0000E+00  0.0000E+00  0.0000E+00  0.0000E+00  0.0000E+00  0.0000E+00  0.0000E+00  0.0000E+00  0.0000E+00  0.0000E+00  0.0000E+00  0.0000E+00  0.0000E+00
    -42.917  0.0000E+00  0.0000E+00  0.0000E+00  0.0000E+00  0.0000E+00  0.0000E+00  0.0000E+00  0.0000E+00  0.0000E+00  0.0000E+00  0.0000E+00  0.0000E+00  0.0000E+00  0.0000E+00  0.0000E+00  0.0000E+00  0.0000E+00  0.0000E+00
    -42.677  0.0000E+00  0.0000E+00  0.0000E+00  0.0000E+00  0.0000E+00  0.0000E+00  0.0000E+00  0.0000E+00  0.0000E+00  0.0000E+00  0.0000E+00  0.0000E+00  0.0000E+00  0.0000E+00  0.0000E+00  0.0000E+00  0.0000E+00  0.0000E+00
    -42.436  0.0000E+00  0.0000E+00  0.0000E+00  0.0000E+00  0.0000E+00  0.0000E+00  0.0000E+00  0.0000E+00  0.0000E+00  0.0000E+00  0.0000E+00  0.0000E+00  0.0000E+00  0.0000E+00  0.0000E+00  0.0000E+00  0.0000E+00  0.0000E+00
    -42.195  0.0000E+00  0.0000E+00  0.0000E+00  0.0000E+00  0.0000E+00  0.0000E+00  0.0000E+00  0.0000E+00  0.0000E+00  0.0000E+00  0.0000E+00  0.0000E+00  0.0000E+00  0.0000E+00  0.0000E+00  0.0000E+00  0.0000E+00  0.0000E+00
    -41.954  0.0000E+00  0.0000E+00  0.0000E+00  0.0000E+00  0.0000E+00  0.0000E+00  0.0000E+00  0.0000E+00  0.0000E+00  0.0000E+00  0.0000E+00  0.0000E+00  0.0000E+00  0.0000E+00  0.0000E+00  0.0000E+00  0.0000E+00  0.0000E+00
    -41.713  0.0000E+00  0.0000E+00  0.0000E+00  0.0000E+00  0.0000E+00  0.0000E+00  0.0000E+00  0.0000E+00  0.0000E+00  0.0000E+00  0.0000E+00  0.0000E+00  0.0000E+00  0.0000E+00  0.0000E+00  0.0000E+00  0.0000E+00  0.0000E+00
    -41.472  0.0000E+00  0.0000E+00  0.0000E+00  0.0000E+00  0.0000E+00  0.0000E+00  0.0000E+00  0.0000E+00  0.0000E+00  0.0000E+00  0.0000E+00  0.0000E+00  0.0000E+00  0.0000E+00  0.0000E+00  0.0000E+00  0.0000E+00  0.0000E+00
    -41.231  0.0000E+00  0.0000E+00  0.0000E+00  0.0000E+00  0.0000E+00  0.0000E+00  0.0000E+00  0.0000E+00  0.0000E+00  0.0000E+00  0.0000E+00  0.0000E+00  0.0000E+00  0.0000E+00  0.0000E+00  0.0000E+00  0.0000E+00  0.0000E+00
    -40.991  0.0000E+00  0.0000E+00  0.0000E+00  0.0000E+00  0.0000E+00  0.0000E+00  0.0000E+00  0.0000E+00  0.0000E+00  0.0000E+00  0.0000E+00  0.0000E+00  0.0000E+00  0.0000E+00  0.0000E+00  0.0000E+00  0.0000E+00  0.0000E+00
    -40.750  0.0000E+00  0.0000E+00  0.0000E+00  0.0000E+00  0.0000E+00  0.0000E+00  0.0000E+00  0.0000E+00  0.0000E+00  0.0000E+00  0.0000E+00  0.0000E+00  0.0000E+00  0.0000E+00  0.0000E+00  0.0000E+00  0.0000E+00  0.0000E+00
    -40.509  0.0000E+00  0.0000E+00  0.0000E+00  0.0000E+00  0.0000E+00  0.0000E+00  0.0000E+00  0.0000E+00  0.0000E+00  0.0000E+00  0.0000E+00  0.0000E+00  0.0000E+00  0.0000E+00  0.0000E+00  0.0000E+00  0.0000E+00  0.0000E+00
    -40.268  0.0000E+00  0.0000E+00  0.0000E+00  0.0000E+00  0.0000E+00  0.0000E+00  0.0000E+00  0.0000E+00  0.0000E+00  0.0000E+00  0.0000E+00  0.0000E+00  0.0000E+00  0.0000E+00  0.0000E+00  0.0000E+00  0.0000E+00  0.0000E+00
    -40.027  0.0000E+00  0.0000E+00  0.0000E+00  0.0000E+00  0.0000E+00  0.0000E+00  0.0000E+00  0.0000E+00  0.0000E+00  0.0000E+00  0.0000E+00  0.0000E+00  0.0000E+00  0.0000E+00  0.0000E+00  0.0000E+00  0.0000E+00  0.0000E+00
    -39.786  0.0000E+00  0.0000E+00  0.0000E+00  0.0000E+00  0.0000E+00  0.0000E+00  0.0000E+00  0.0000E+00  0.0000E+00  0.0000E+00  0.0000E+00  0.0000E+00  0.0000E+00  0.0000E+00  0.0000E+00  0.0000E+00  0.0000E+00  0.0000E+00
    -39.545  0.0000E+00  0.0000E+00  0.0000E+00  0.0000E+00  0.0000E+00  0.0000E+00  0.0000E+00  0.0000E+00  0.0000E+00  0.0000E+00  0.0000E+00  0.0000E+00  0.0000E+00  0.0000E+00  0.0000E+00  0.0000E+00  0.0000E+00  0.0000E+00
    -39.304  0.0000E+00  0.0000E+00  0.0000E+00  0.0000E+00  0.0000E+00  0.0000E+00  0.0000E+00  0.0000E+00  0.0000E+00  0.0000E+00  0.0000E+00  0.0000E+00  0.0000E+00  0.0000E+00  0.0000E+00  0.0000E+00  0.0000E+00  0.0000E+00
    -39.064  0.0000E+00  0.0000E+00  0.0000E+00  0.0000E+00  0.0000E+00  0.0000E+00  0.0000E+00  0.0000E+00  0.0000E+00  0.0000E+00  0.0000E+00  0.0000E+00  0.0000E+00  0.0000E+00  0.0000E+00  0.0000E+00  0.0000E+00  0.0000E+00
    -38.823  0.0000E+00  0.0000E+00  0.0000E+00  0.0000E+00  0.0000E+00  0.0000E+00  0.0000E+00  0.0000E+00  0.0000E+00  0.0000E+00  0.0000E+00  0.0000E+00  0.0000E+00  0.0000E+00  0.0000E+00  0.0000E+00  0.0000E+00  0.0000E+00
    -38.582  0.0000E+00  0.0000E+00  0.0000E+00  0.0000E+00  0.0000E+00  0.0000E+00  0.0000E+00  0.0000E+00  0.0000E+00  0.0000E+00  0.0000E+00  0.0000E+00  0.0000E+00  0.0000E+00  0.0000E+00  0.0000E+00  0.0000E+00  0.0000E+00