   2   2   1   0
  0.1393319E+02  0.2727751E-09  0.2727750E-09  0.4324546E-09  0.5000000E-15
  1.000000000000000E-004
  CAR 
 unknown system                          
     24.54544294    -49.01676473  301     10.90681626      1.00000000
    -49.017  0.0000E+00  0.0000E+00  0.0000E+00  0.0000E+00
    -48.772  0.0000E+00  0.0000E+00  0.0000E+00  0.0000E+00
    -48.526  0.0000E+00  0.0000E+00  0.0000E+00  0.0000E+00
    -48.281  0.0000E+00  0.0000E+00  0.0000E+00  0.0000E+00
    -48.036  0.0000E+00  0.0000E+00  0.0000E+00  0.0000E+00
    -47.791  0.0000E+00  0.0000E+00  0.0000E+00  0.0000E+00
    -47.546  0.0000E+00  0.0000E+00  0.0000E+00  0.0000E+00
    -47.300  0.0000E+00  0.0000E+00  0.0000E+00  0.0000E+00
    -47.055  0.0000E+00  0.0000E+00  0.0000E+00  0.0000E+00
    -46.810  0.0000E+00  0.0000E+00  0.0000E+00  0.0000E+00
    -46.565  0.0000E+00  0.0000E+00  0.0000E+00  0.0000E+00
    -46.319  0.0000E+00  0.0000E+00  0.0000E+00  0.0000E+00
    -46.074  0.5686E-04  0.5658E-04  0.1394E-04  0.1387E-04
    -45.829  0.8016E-02  0.7976E-02  0.1979E-02  0.1970E-02
    -45.584  0.5293E+00  0.5276E+00  0.1318E+00  0.1314E+00
    -45.339  0.4525E+01  0.4520E+01  0.1241E+01  0.1240E+01
    -45.093  0.3020E+01  0.3027E+01  0.1986E+01  0.1986E+01
    -44.848  0.0000E+00  0.0000E+00  0.2000E+01  0.2000E+01
    -44.603  0.0000E+00  0.0000E+00  0.2000E+01  0.2000E+01
    -44.358  0.0000E+00  0.0000E+00  0.2000E+01  0.2000E+01
    -44.113  0.0000E+00  0.0000E+00  0.2000E+01  0.2000E+01
    -43.867  0.0000E+00  0.0000E+00  0.2000E+01  0.2000E+01
    -43.622  0.0000E+00  0.0000E+00  0.2000E+01  0.2000E+01
    -43.377  0.0000E+00  0.0000E+00  0.2000E+01  0.2000E+01
    -43.132  0.0000E+00  0.0000E+00  0.2000E+01  0.2000E+01
    -42.887  0.0000E+00  0.0000E+00  0.2000E+01  0.2000E+01
    -42.641  0.0000E+00  0.0000E+00  0.2000E+01  0.2000E+01
    -42.396  0.0000E+00  0.0000E+00  0.2000E+01  0.2000E+01
    -42.151  0.0000E+00  0.0000E+00  0.2000E+01  0.2000E+01
    -41.906  0.0000E+00  0.0000E+00  0.2000E+01  0.2000E+01
    -41.661  0.0000E+00  0.0000E+00  0.2000E+01  0.2000E+01
    -41.415  0.0000E+00  0.0000E+00  0.2000E+01  0.2000E+01
    -41.170  0.0000E+00  0.0000E+00  0.2000E+01  0.2000E+01
    -40.925  0.0000E+00  0.0000E+00  0.2000E+01  0.2000E+01
    -40.680  0.0000E+00  0.0000E+00  0.2000E+01  0.2000E+01
    -40.435  0.0000E+00  0.0000E+00  0.2000E+01  0.2000E+01
    -40.189  0.0000E+00  0.0000E+00  0.2000E+01  0.2000E+01
    -39.944  0.0000E+00  0.0000E+00  0.2000E+01  0.2000E+01
    -39.699  0.0000E+00  0.0000E+00  0.2000E+01  0.2000E+01
    -39.454  0.0000E+00  0.0000E+00  0.2000E+01  0.2000E+01
    -39.208  0.0000E+00  0.0000E+00  0.2000E+01  0.2000E+01
    -38.963  0.0000E+00  0.0000E+00  0.2000E+01  0.2000E+01
    -38.718  0.0000E+00  0.0000E+00  0.2000E+01  0.2000E+01
    -38.473  0.0000E+00  0.0000E+00  0.2000E+01  0.2000E+01
    -38.228  0.0000E+00  0.0000E+00  0.2000E+01  0.2000E+01
    -37.982  0.0000E+00  0.0000E+00  0.2000E+01  0.2000E+01
    -37.737  0.0000E+00  0.0000E+00  0.2000E+01  0.2000E+01
    -37.492  0.0000E+00  0.0000E+00  0.2000E+01  0.2000E+01
    -37.247  0.0000E+00  0.0000E+00  0.2000E+01  0.2000E+01
    -37.002  0.0000E+00  0.0000E+00  0.2000E+01  0.2000E+01
    -36.756  0.0000E+00  0.0000E+00  0.2000E+01  0.2000E+01
    -36.511  0.0000E+00  0.0000E+00  0.2000E+01  0.2000E+01
    -36.266  0.0000E+00  0.0000E+00  0.2000E+01  0.2000E+01
    -36.021  0.0000E+00  0.0000E+00  0.2000E+01  0.2000E+01
    -35.776  0.0000E+00  0.0000E+00  0.2000E+01  0.2000E+01
    -35.530  0.0000E+00  0.0000E+00  0.2000E+01  0.2000E+01
    -35.285  0.0000E+00  0.0000E+00  0.2000E+01  0.2000E+01
    -35.040  0.0000E+00  0.0000E+00  0.2000E+01  0.2000E+01
    -34.795  0.0000E+00  0.0000E+00  0.2000E+01  0.2000E+01
    -34.550  0.0000E+00  0.0000E+00  0.2000E+01  0.2000E+01
    -34.304  0.0000E+00  0.0000E+00  0.2000E+01  0.2000E+01
    -34.059  0.0000E+00  0.0000E+00  0.2000E+01  0.2000E+01
    -33.814  0.0000E+00  0.0000E+00  0.2000E+01  0.2000E+01
    -33.569  0.0000E+00  0.0000E+00  0.2000E+01  0.2000E+01
    -33.323  0.0000E+00  0.0000E+00  0.2000E+01  0.2000E+01
    -33.078  0.0000E+00  0.0000E+00  0.2000E+01  0.2000E+01
    -32.833  0.0000E+00  0.0000E+00  0.2000E+01  0.2000E+01
    -32.588  0.0000E+00  0.0000E+00  0.2000E+01  0.2000E+01
    -32.343  0.0000E+00  0.0000E+00  0.2000E+01  0.2000E+01
    -32.097  0.0000E+00  0.0000E+00  0.2000E+01  0.2000E+01
    -31.852  0.0000E+00  0.0000E+00  0.2000E+01  0.2000E+01
    -31.607  0.0000E+00  0.0000E+00  0.2000E+01  0.2000E+01
    -31.362  0.0000E+00  0.0000E+00  0.2000E+01  0.2000E+01
    -31.117  0.0000E+00  0.0000E+00  0.2000E+01  0.2000E+01
    -30.871  0.0000E+00  0.0000E+00  0.2000E+01  0.2000E+01
    -30.626  0.0000E+00  0.0000E+00  0.2000E+01  0.2000E+01
    -30.381  0.0000E+00  0.0000E+00  0.2000E+01  0.2000E+01
    -30.136  0.0000E+00  0.0000E+00  0.2000E+01  0.2000E+01
    -29.891  0.0000E+00  0.0000E+00  0.2000E+01  0.2000E+01
    -29.645  0.0000E+00  0.0000E+00  0.2000E+01  0.2000E+01
    -29.400  0.0000E+00  0.0000E+00  0.2000E+01  0.2000E+01
    -29.155  0.0000E+00  0.0000E+00  0.2000E+01  0.2000E+01
    -28.910  0.0000E+00  0.0000E+00  0.2000E+01  0.2000E+01
    -28.665  0.0000E+00  0.0000E+00  0.2000E+01  0.2000E+01
    -28.419  0.0000E+00  0.0000E+00  0.2000E+01  0.2000E+01
    -28.174  0.0000E+00  0.0000E+00  0.2000E+01  0.2000E+01
    -27.929  0.0000E+00  0.0000E+00  0.2000E+01  0.2000E+01
    -27.684  0.0000E+00  0.0000E+00  0.2000E+01  0.2000E+01
    -27.439  0.0000E+00  0.0000E+00  0.2000E+01  0.2000E+01
    -27.193  0.0000E+00  0.0000E+00  0.2000E+01  0.2000E+01
    -26.948  0.0000E+00  0.0000E+00  0.2000E+01  0.2000E+01
    -26.703  0.0000E+00  0.0000E+00  0.2000E+01  0.2000E+01
    -26.458  0.0000E+00  0.0000E+00  0.2000E+01  0.2000E+01
    -26.212  0.0000E+00  0.0000E+00  0.2000E+01  0.2000E+01
    -25.967  0.0000E+00  0.0000E+00  0.2000E+01  0.2000E+01
    -25.722  0.0000E+00  0.0000E+00  0.2000E+01  0.2000E+01
    -25.477  0.0000E+00  0.0000E+00  0.2000E+01  0.2000E+01
    -25.232  0.0000E+00  0.0000E+00  0.2000E+01  0.2000E+01
    -24.986  0.0000E+00  0.0000E+00  0.2000E+01  0.2000E+01
    -24.741  0.0000E+00  0.0000E+00  0.2000E+01  0.2000E+01
    -24.496  0.0000E+00  0.0000E+00  0.2000E+01  0.2000E+01
    -24.251  0.0000E+00  0.0000E+00  0.2000E+01  0.2000E+01
    -24.006  0.0000E+00  0.0000E+00  0.2000E+01  0.2000E+01
    -23.760  0.0000E+00  0.0000E+00  0.2000E+01  0.2000E+01
    -23.515  0.0000E+00  0.0000E+00  0.2000E+01  0.2000E+01
    -23.270  0.0000E+00  0.0000E+00  0.2000E+01  0.2000E+01
    -23.025  0.5542E-05  0.5515E-05  0.2000E+01  0.2000E+01
    -22.780  0.9871E-03  0.9821E-03  0.2000E+01  0.2000E+01
    -22.534  0.9985E-01  0.9943E-01  0.2025E+01  0.2025E+01
    -22.289  0.1991E+01  0.1987E+01  0.2513E+01  0.2512E+01
    -22.044  0.3875E+01  0.3876E+01  0.3464E+01  0.3463E+01
    -21.799  0.3007E+01  0.3006E+01  0.4214E+01  0.4213E+01
    -21.554  0.4685E+01  0.4682E+01  0.5368E+01  0.5367E+01
    -21.308  0.7572E+01  0.7571E+01  0.7232E+01  0.7230E+01
    -21.063  0.2983E+01  0.2991E+01  0.7978E+01  0.7978E+01
    -20.818  0.4141E-01  0.4162E-01  0.8000E+01  0.8000E+01
    -20.573  0.0000E+00  0.0000E+00  0.8000E+01  0.8000E+01
    -20.328  0.0000E+00  0.0000E+00  0.8000E+01  0.8000E+01
    -20.082  0.0000E+00  0.0000E+00  0.8000E+01  0.8000E+01
    -19.837  0.0000E+00  0.0000E+00  0.8000E+01  0.8000E+01
    -19.592  0.0000E+00  0.0000E+00  0.8000E+01  0.8000E+01
    -19.347  0.0000E+00  0.0000E+00  0.8000E+01  0.8000E+01
    -19.101  0.0000E+00  0.0000E+00  0.8000E+01  0.8000E+01
    -18.856  0.0000E+00  0.0000E+00  0.8000E+01  0.8000E+01
    -18.611  0.0000E+00  0.0000E+00  0.8000E+01  0.8000E+01
    -18.366  0.0000E+00  0.0000E+00  0.8000E+01  0.8000E+01
    -18.121  0.0000E+00  0.0000E+00  0.8000E+01  0.8000E+01
    -17.875  0.0000E+00  0.0000E+00  0.8000E+01  0.8000E+01
    -17.630  0.0000E+00  0.0000E+00  0.8000E+01  0.8000E+01
    -17.385  0.0000E+00  0.0000E+00  0.8000E+01  0.8000E+01
    -17.140  0.0000E+00  0.0000E+00  0.8000E+01  0.8000E+01
    -16.895  0.0000E+00  0.0000E+00  0.8000E+01  0.8000E+01
    -16.649  0.0000E+00  0.0000E+00  0.8000E+01  0.8000E+01
    -16.404  0.0000E+00  0.0000E+00  0.8000E+01  0.8000E+01
    -16.159  0.0000E+00  0.0000E+00  0.8000E+01  0.8000E+01
    -15.914  0.0000E+00  0.0000E+00  0.8000E+01  0.8000E+01
    -15.669  0.0000E+00  0.0000E+00  0.8000E+01  0.8000E+01
    -15.423  0.0000E+00  0.0000E+00  0.8000E+01  0.8000E+01
    -15.178  0.0000E+00  0.0000E+00  0.8000E+01  0.8000E+01
    -14.933  0.0000E+00  0.0000E+00  0.8000E+01  0.8000E+01
    -14.688  0.0000E+00  0.0000E+00  0.8000E+01  0.8000E+01
    -14.443  0.0000E+00  0.0000E+00  0.8000E+01  0.8000E+01
    -14.197  0.0000E+00  0.0000E+00  0.8000E+01  0.8000E+01
    -13.952  0.0000E+00  0.0000E+00  0.8000E+01  0.8000E+01
    -13.707  0.0000E+00  0.0000E+00  0.8000E+01  0.8000E+01
    -13.462  0.0000E+00  0.0000E+00  0.8000E+01  0.8000E+01
    -13.216  0.0000E+00  0.0000E+00  0.8000E+01  0.8000E+01
    -12.971  0.0000E+00  0.0000E+00  0.8000E+01  0.8000E+01
    -12.726  0.0000E+00  0.0000E+00  0.8000E+01  0.8000E+01
    -12.481  0.0000E+00  0.0000E+00  0.8000E+01  0.8000E+01
    -12.236  0.0000E+00  0.0000E+00  0.8000E+01  0.8000E+01
    -11.990  0.0000E+00  0.0000E+00  0.8000E+01  0.8000E+01
    -11.745  0.0000E+00  0.0000E+00  0.8000E+01  0.8000E+01
    -11.500  0.0000E+00  0.0000E+00  0.8000E+01  0.8000E+01
    -11.255  0.0000E+00  0.0000E+00  0.8000E+01  0.8000E+01
    -11.010  0.0000E+00  0.0000E+00  0.8000E+01  0.8000E+01
    -10.764  0.0000E+00  0.0000E+00  0.8000E+01  0.8000E+01
    -10.519  0.0000E+00  0.0000E+00  0.8000E+01  0.8000E+01
    -10.274  0.0000E+00  0.0000E+00  0.8000E+01  0.8000E+01
    -10.029  0.0000E+00  0.0000E+00  0.8000E+01  0.8000E+01
     -9.784  0.0000E+00  0.0000E+00  0.8000E+01  0.8000E+01
     -9.538  0.0000E+00  0.0000E+00  0.8000E+01  0.8000E+01
     -9.293  0.0000E+00  0.0000E+00  0.8000E+01  0.8000E+01
     -9.048  0.0000E+00  0.0000E+00  0.8000E+01  0.8000E+01
     -8.803  0.0000E+00  0.0000E+00  0.8000E+01  0.8000E+01
     -8.558  0.0000E+00  0.0000E+00  0.8000E+01  0.8000E+01
     -8.312  0.0000E+00  0.0000E+00  0.8000E+01  0.8000E+01
     -8.067  0.0000E+00  0.0000E+00  0.8000E+01  0.8000E+01
     -7.822  0.0000E+00  0.0000E+00  0.8000E+01  0.8000E+01
     -7.577  0.0000E+00  0.0000E+00  0.8000E+01  0.8000E+01
     -7.332  0.0000E+00  0.0000E+00  0.8000E+01  0.8000E+01
     -7.086  0.0000E+00  0.0000E+00  0.8000E+01  0.8000E+01
     -6.841  0.0000E+00  0.0000E+00  0.8000E+01  0.8000E+01
     -6.596  0.0000E+00  0.0000E+00  0.8000E+01  0.8000E+01
     -6.351  0.0000E+00  0.0000E+00  0.8000E+01  0.8000E+01
     -6.105  0.0000E+00  0.0000E+00  0.8000E+01  0.8000E+01
     -5.860  0.0000E+00  0.0000E+00  0.8000E+01  0.8000E+01
     -5.615  0.0000E+00  0.0000E+00  0.8000E+01  0.8000E+01
     -5.370  0.0000E+00  0.0000E+00  0.8000E+01  0.8000E+01
     -5.125  0.0000E+00  0.0000E+00  0.8000E+01  0.8000E+01
     -4.879  0.0000E+00  0.0000E+00  0.8000E+01  0.8000E+01
     -4.634  0.0000E+00  0.0000E+00  0.8000E+01  0.8000E+01
     -4.389  0.0000E+00  0.0000E+00  0.8000E+01  0.8000E+01
     -4.144  0.0000E+00  0.0000E+00  0.8000E+01  0.8000E+01
     -3.899  0.0000E+00  0.0000E+00  0.8000E+01  0.8000E+01
     -3.653  0.0000E+00  0.0000E+00  0.8000E+01  0.8000E+01
     -3.408  0.0000E+00  0.0000E+00  0.8000E+01  0.8000E+01
     -3.163  0.0000E+00  0.0000E+00  0.8000E+01  0.8000E+01
     -2.918  0.0000E+00  0.0000E+00  0.8000E+01  0.8000E+01
     -2.673  0.0000E+00  0.0000E+00  0.8000E+01  0.8000E+01
     -2.427  0.0000E+00  0.0000E+00  0.8000E+01  0.8000E+01
     -2.182  0.0000E+00  0.0000E+00  0.8000E+01  0.8000E+01
     -1.937  0.0000E+00  0.0000E+00  0.8000E+01  0.8000E+01
     -1.692  0.0000E+00  0.0000E+00  0.8000E+01  0.8000E+01
     -1.447  0.0000E+00  0.0000E+00  0.8000E+01  0.8000E+01
     -1.201  0.0000E+00  0.0000E+00  0.8000E+01  0.8000E+01
     -0.956  0.0000E+00  0.0000E+00  0.8000E+01  0.8000E+01
     -0.711  0.0000E+00  0.0000E+00  0.8000E+01  0.8000E+01
     -0.466  0.0000E+00  0.0000E+00  0.8000E+01  0.8000E+01
     -0.221  0.0000E+00  0.0000E+00  0.8000E+01  0.8000E+01
      0.025  0.0000E+00  0.0000E+00  0.8000E+01  0.8000E+01
      0.270  0.0000E+00  0.0000E+00  0.8000E+01  0.8000E+01
      0.515  0.0000E+00  0.0000E+00  0.8000E+01  0.8000E+01
      0.760  0.0000E+00  0.0000E+00  0.8000E+01  0.8000E+01
      1.006  0.0000E+00  0.0000E+00  0.8000E+01  0.8000E+01
      1.251  0.0000E+00  0.0000E+00  0.8000E+01  0.8000E+01
      1.496  0.0000E+00  0.0000E+00  0.8000E+01  0.8000E+01
      1.741  0.0000E+00  0.0000E+00  0.8000E+01  0.8000E+01
      1.986  0.0000E+00  0.0000E+00  0.8000E+01  0.8000E+01
      2.232  0.0000E+00  0.0000E+00  0.8000E+01  0.8000E+01
      2.477  0.0000E+00  0.0000E+00  0.8000E+01  0.8000E+01
      2.722  0.0000E+00  0.0000E+00  0.8000E+01  0.8000E+01
      2.967  0.0000E+00  0.0000E+00  0.8000E+01  0.8000E+01
      3.212  0.0000E+00  0.0000E+00  0.8000E+01  0.8000E+01
      3.458  0.0000E+00  0.0000E+00  0.8000E+01  0.8000E+01
      3.703  0.4996E-07  0.5070E-07  0.8000E+01  0.8000E+01
      3.948  0.8410E-05  0.8534E-05  0.8000E+01  0.8000E+01
      4.193  0.9010E-03  0.9116E-03  0.8000E+01  0.8000E+01
      4.438  0.1433E-01  0.1442E-01  0.8004E+01  0.8004E+01
      4.684  0.3895E-01  0.3893E-01  0.8013E+01  0.8013E+01
      4.929  0.4378E-01  0.4398E-01  0.8024E+01  0.8024E+01
      5.174  0.7751E-01  0.7742E-01  0.8043E+01  0.8043E+01
      5.419  0.5612E-01  0.5616E-01  0.8057E+01  0.8057E+01
      5.664  0.1044E+00  0.1046E+00  0.8083E+01  0.8083E+01
      5.910  0.9459E-01  0.9464E-01  0.8106E+01  0.8106E+01
      6.155  0.1384E+00  0.1382E+00  0.8140E+01  0.8141E+01
      6.400  0.8482E-01  0.8220E-01  0.8161E+01  0.8161E+01
      6.645  0.2099E+00  0.2101E+00  0.8213E+01  0.8213E+01
      6.891  0.1900E+00  0.1898E+00  0.8260E+01  0.8260E+01
      7.136  0.1955E+00  0.1957E+00  0.8308E+01  0.8309E+01
      7.381  0.2585E+00  0.2587E+00  0.8372E+01  0.8372E+01
      7.626  0.7108E+00  0.7114E+00  0.8547E+01  0.8547E+01
      7.871  0.7700E+00  0.7698E+00  0.8737E+01  0.8738E+01
      8.117  0.1030E+01  0.1031E+01  0.8992E+01  0.8993E+01
      8.362  0.1091E+01  0.1091E+01  0.9261E+01  0.9262E+01
      8.607  0.1345E+01  0.1346E+01  0.9594E+01  0.9594E+01
      8.852  0.1057E+01  0.1057E+01  0.9856E+01  0.9856E+01
      9.097  0.1014E+01  0.1014E+01  0.1011E+02  0.1011E+02
      9.343  0.8445E+00  0.8442E+00  0.1032E+02  0.1032E+02
      9.588  0.1131E+01  0.1131E+01  0.1060E+02  0.1060E+02
      9.833  0.1179E+01  0.1179E+01  0.1089E+02  0.1089E+02
     10.078  0.1391E+01  0.1391E+01  0.1123E+02  0.1123E+02
     10.323  0.1518E+01  0.1518E+01  0.1160E+02  0.1161E+02
     10.569  0.7548E+00  0.7547E+00  0.1179E+02  0.1179E+02
     10.814  0.5506E+00  0.5505E+00  0.1193E+02  0.1193E+02
     11.059  0.1087E+01  0.1086E+01  0.1220E+02  0.1220E+02
     11.304  0.1649E+01  0.1649E+01  0.1261E+02  0.1260E+02
     11.549  0.1580E+01  0.1580E+01  0.1300E+02  0.1300E+02
     11.795  0.1438E+01  0.1438E+01  0.1335E+02  0.1335E+02
     12.040  0.1934E+01  0.1934E+01  0.1383E+02  0.1383E+02
     12.285  0.1992E+01  0.1992E+01  0.1432E+02  0.1432E+02
     12.530  0.1612E+01  0.1612E+01  0.1472E+02  0.1472E+02
     12.775  0.1280E+01  0.1280E+01  0.1504E+02  0.1504E+02
     13.021  0.9242E+00  0.9240E+00  0.1527E+02  0.1527E+02
     13.266  0.8315E+00  0.8319E+00  0.1547E+02  0.1547E+02
     13.511  0.8477E+00  0.8471E+00  0.1568E+02  0.1568E+02
     13.756  0.7957E+00  0.7960E+00  0.1588E+02  0.1588E+02
     14.002  0.7552E+00  0.7549E+00  0.1607E+02  0.1607E+02
     14.247  0.9969E+00  0.9965E+00  0.1631E+02  0.1631E+02
     14.492  0.8941E+00  0.8941E+00  0.1653E+02  0.1653E+02
     14.737  0.1338E+01  0.1337E+01  0.1686E+02  0.1686E+02
     14.982  0.1800E+01  0.1799E+01  0.1731E+02  0.1731E+02
     15.228  0.2265E+01  0.2265E+01  0.1786E+02  0.1786E+02
     15.473  0.2316E+01  0.2317E+01  0.1844E+02  0.1844E+02
     15.718  0.9741E+00  0.9767E+00  0.1868E+02  0.1868E+02
     15.963  0.3758E+00  0.3755E+00  0.1878E+02  0.1878E+02
     16.208  0.5419E+00  0.5419E+00  0.1891E+02  0.1891E+02
     16.454  0.3807E+00  0.3813E+00  0.1901E+02  0.1901E+02
     16.699  0.2682E+00  0.2678E+00  0.1907E+02  0.1907E+02
     16.944  0.4128E+00  0.4124E+00  0.1917E+02  0.1917E+02
     17.189  0.3931E+00  0.3937E+00  0.1927E+02  0.1927E+02
     17.434  0.2112E+00  0.2109E+00  0.1932E+02  0.1932E+02
     17.680  0.3338E+00  0.3334E+00  0.1941E+02  0.1941E+02
     17.925  0.2397E+00  0.2409E+00  0.1947E+02  0.1947E+02
     18.170  0.3376E+00  0.3243E+00  0.1955E+02  0.1955E+02
     18.415  0.2617E+00  0.2716E+00  0.1961E+02  0.1961E+02
     18.660  0.2556E+00  0.2569E+00  0.1968E+02  0.1968E+02
     18.906  0.3062E+00  0.3079E+00  0.1975E+02  0.1975E+02
     19.151  0.2041E+00  0.2033E+00  0.1980E+02  0.1980E+02
     19.396  0.1758E+00  0.1747E+00  0.1985E+02  0.1985E+02
     19.641  0.2600E+00  0.2551E+00  0.1991E+02  0.1991E+02
     19.887  0.1450E+00  0.1488E+00  0.1995E+02  0.1995E+02
     20.132  0.6587E-01  0.6715E-01  0.1996E+02  0.1996E+02
     20.377  0.3850E-01  0.3920E-01  0.1997E+02  0.1997E+02
     20.622  0.3442E-01  0.3468E-01  0.1998E+02  0.1998E+02
     20.867  0.3601E-01  0.3544E-01  0.1999E+02  0.1999E+02
     21.113  0.1992E-01  0.2008E-01  0.2000E+02  0.2000E+02
     21.358  0.1303E-01  0.1309E-01  0.2000E+02  0.2000E+02
     21.603  0.0000E+00  0.0000E+00  0.2000E+02  0.2000E+02
     21.848  0.0000E+00  0.0000E+00  0.2000E+02  0.2000E+02
     22.093  0.0000E+00  0.0000E+00  0.2000E+02  0.2000E+02
     22.339  0.0000E+00  0.0000E+00  0.2000E+02  0.2000E+02
     22.584  0.0000E+00  0.0000E+00  0.2000E+02  0.2000E+02
     22.829  0.0000E+00  0.0000E+00  0.2000E+02  0.2000E+02
     23.074  0.0000E+00  0.0000E+00  0.2000E+02  0.2000E+02
     23.319  0.0000E+00  0.0000E+00  0.2000E+02  0.2000E+02
     23.565  0.0000E+00  0.0000E+00  0.2000E+02  0.2000E+02
     23.810  0.0000E+00  0.0000E+00  0.2000E+02  0.2000E+02
     24.055  0.0000E+00  0.0000E+00  0.2000E+02  0.2000E+02
     24.300  0.0000E+00  0.0000E+00  0.2000E+02  0.2000E+02
     24.545  0.0000E+00  0.0000E+00  0.2000E+02  0.2000E+02
     24.54544294    -49.01676473  301     10.90681626      1.00000000
    -49.017  0.0000E+00  0.0000E+00  0.0000E+00  0.0000E+00  0.0000E+00  0.0000E+00  0.0000E+00  0.0000E+00  0.0000E+00  0.0000E+00  0.0000E+00  0.0000E+00  0.0000E+00  0.0000E+00  0.0000E+00  0.0000E+00  0.0000E+00  0.0000E+00
    -48.772  0.0000E+00  0.0000E+00  0.0000E+00  0.0000E+00  0.0000E+00  0.0000E+00  0.0000E+00  0.0000E+00  0.0000E+00  0.0000E+00  0.0000E+00  0.0000E+00  0.0000E+00  0.0000E+00  0.0000E+00  0.0000E+00  0.0000E+00  0.0000E+00
    -48.526  0.0000E+00  0.0000E+00  0.0000E+00  0.0000E+00  0.0000E+00  0.0000E+00  0.0000E+00  0.0000E+00  0.0000E+00  0.0000E+00  0.0000E+00  0.0000E+00  0.0000E+00  0.0000E+00  0.0000E+00  0.0000E+00  0.0000E+00  0.0000E+00
    -48.281  0.0000E+00  0.0000E+00  0.0000E+00  0.0000E+00  0.0000E+00  0.0000E+00  0.0000E+00  0.0000E+00  0.0000E+00  0.0000E+00  0.0000E+00  0.0000E+00  0.0000E+00  0.0000E+00  0.0000E+00  0.0000E+00  0.0000E+00  0.0000E+00
    -48.036  0.0000E+00  0.0000E+00  0.0000E+00  0.0000E+00  0.0000E+00  0.0000E+00  0.0000E+00  0.0000E+00  0.0000E+00  0.0000E+00  0.0000E+00  0.0000E+00  0.0000E+00  0.0000E+00  0.0000E+00  0.0000E+00  0.0000E+00  0.0000E+00
    -47.791  0.0000E+00  0.0000E+00  0.0000E+00  0.0000E+00  0.0000E+00  0.0000E+00  0.0000E+00  0.0000E+00  0.0000E+00  0.0000E+00  0.0000E+00  0.0000E+00  0.0000E+00  0.0000E+00  0.0000E+00  0.0000E+00  0.0000E+00  0.0000E+00
    -47.546  0.0000E+00  0.0000E+00  0.0000E+00  0.0000E+00  0.0000E+00  0.0000E+00  0.0000E+00  0.0000E+00  0.0000E+00  0.0000E+00  0.0000E+00  0.0000E+00  0.0000E+00  0.0000E+00  0.0000E+00  0.0000E+00  0.0000E+00  0.0000E+00
    -47.300  0.0000E+00  0.0000E+00  0.0000E+00  0.0000E+00  0.0000E+00  0.0000E+00  0.0000E+00  0.0000E+00  0.0000E+00  0.0000E+00  0.0000E+00  0.0000E+00  0.0000E+00  0.0000E+00  0.0000E+00  0.0000E+00  0.0000E+00  0.0000E+00
    -47.055  0.0000E+00  0.0000E+00  0.0000E+00  0.0000E+00  0.0000E+00  0.0000E+00  0.0000E+00  0.0000E+00  0.0000E+00  0.0000E+00  0.0000E+00  0.0000E+00  0.0000E+00  0.0000E+00  0.0000E+00  0.0000E+00  0.0000E+00  0.0000E+00
    -46.810  0.0000E+00  0.0000E+00  0.0000E+00  0.0000E+00  0.0000E+00  0.0000E+00  0.0000E+00  0.0000E+00  0.0000E+00  0.0000E+00  0.0000E+00  0.0000E+00  0.0000E+00  0.0000E+00  0.0000E+00  0.0000E+00  0.0000E+00  0.0000E+00
    -46.565  0.0000E+00  0.0000E+00  0.0000E+00  0.0000E+00  0.0000E+00  0.0000E+00  0.0000E+00  0.0000E+00  0.0000E+00  0.0000E+00  0.0000E+00  0.0000E+00  0.0000E+00  0.0000E+00  0.0000E+00  0.0000E+00  0.0000E+00  0.0000E+00
    -46.319  0.0000E+00  0.0000E+00  0.0000E+00  0.0000E+00  0.0000E+00  0.0000E+00  0.0000E+00  0.0000E+00  0.0000E+00  0.0000E+00  0.0000E+00  0.0000E+00  0.0000E+00  0.0000E+00  0.0000E+00  0.0000E+00  0.0000E+00  0.0000E+00
    -46.074  0.2814E-04  0.2800E-04  0.1058E-08  0.1053E-08  0.1229E-08  0.1223E-08  0.1058E-08  0.1053E-08  0.8108E-10  0.8067E-10  0.5393E-10  0.5367E-10  0.1718E-09  0.1710E-09  0.5393E-10  0.5367E-10  0.8108E-10  0.8067E-10
    -45.829  0.3968E-02  0.3949E-02  0.1474E-06  0.1467E-06  0.1722E-06  0.1713E-06  0.1474E-06  0.1467E-06  0.1430E-07  0.1423E-07  0.1058E-07  0.1053E-07  0.2760E-07  0.2747E-07  0.1058E-07  0.1053E-07  0.1430E-07  0.1423E-07
    -45.584  0.2623E+00  0.2614E+00  0.1147E-04  0.1143E-04  0.1353E-04  0.1349E-04  0.1147E-04  0.1143E-04  0.1463E-05  0.1457E-05  0.1146E-05  0.1141E-05  0.2362E-05  0.2353E-05  0.1146E-05  0.1141E-05  0.1463E-05  0.1457E-05
    -45.339  0.2249E+01  0.2247E+01  0.7082E-04  0.7078E-04  0.9200E-04  0.9194E-04  0.7082E-04  0.7078E-04  0.2470E-04  0.2467E-04  0.2624E-04  0.2620E-04  0.3553E-04  0.3549E-04  0.2624E-04  0.2620E-04  0.2470E-04  0.2467E-04
    -45.093  0.1503E+01  0.1507E+01  0.2172E-04  0.2178E-04  0.3113E-04  0.3122E-04  0.2172E-04  0.2178E-04  0.1376E-04  0.1379E-04  0.1957E-04  0.1962E-04  0.2124E-04  0.2130E-04  0.1957E-04  0.1962E-04  0.1376E-04  0.1379E-04
    -44.848  0.0000E+00  0.0000E+00  0.0000E+00  0.0000E+00  0.0000E+00  0.0000E+00  0.0000E+00  0.0000E+00  0.0000E+00  0.0000E+00  0.0000E+00  0.0000E+00  0.0000E+00  0.0000E+00  0.0000E+00  0.0000E+00  0.0000E+00  0.0000E+00
    -44.603  0.0000E+00  0.0000E+00  0.0000E+00  0.0000E+00  0.0000E+00  0.0000E+00  0.0000E+00  0.0000E+00  0.0000E+00  0.0000E+00  0.0000E+00  0.0000E+00  0.0000E+00  0.0000E+00  0.0000E+00  0.0000E+00  0.0000E+00  0.0000E+00
    -44.358  0.0000E+00  0.0000E+00  0.0000E+00  0.0000E+00  0.0000E+00  0.0000E+00  0.0000E+00  0.0000E+00  0.0000E+00  0.0000E+00  0.0000E+00  0.0000E+00  0.0000E+00  0.0000E+00  0.0000E+00  0.0000E+00  0.0000E+00  0.0000E+00
    -44.113  0.0000E+00  0.0000E+00  0.0000E+00  0.0000E+00  0.0000E+00  0.0000E+00  0.0000E+00  0.0000E+00  0.0000E+00  0.0000E+00  0.0000E+00  0.0000E+00  0.0000E+00  0.0000E+00  0.0000E+00  0.0000E+00  0.0000E+00  0.0000E+00
    -43.867  0.0000E+00  0.0000E+00  0.0000E+00  0.0000E+00  0.0000E+00  0.0000E+00  0.0000E+00  0.0000E+00  0.0000E+00  0.0000E+00  0.0000E+00  0.0000E+00  0.0000E+00  0.0000E+00  0.0000E+00  0.0000E+00  0.0000E+00  0.0000E+00
    -43.622  0.0000E+00  0.0000E+00  0.0000E+00  0.0000E+00  0.0000E+00  0.0000E+00  0.0000E+00  0.0000E+00  0.0000E+00  0.0000E+00  0.0000E+00  0.0000E+00  0.0000E+00  0.0000E+00  0.0000E+00  0.0000E+00  0.0000E+00  0.0000E+00
    -43.377  0.0000E+00  0.0000E+00  0.0000E+00  0.0000E+00  0.0000E+00  0.0000E+00  0.0000E+00  0.0000E+00  0.0000E+00  0.0000E+00  0.0000E+00  0.0000E+00  0.0000E+00  0.0000E+00  0.0000E+00  0.0000E+00  0.0000E+00  0.0000E+00
    -43.132  0.0000E+00  0.0000E+00  0.0000E+00  0.0000E+00  0.0000E+00  0.0000E+00  0.0000E+00  0.0000E+00  0.0000E+00  0.0000E+00  0.0000E+00  0.0000E+00  0.0000E+00  0.0000E+00  0.0000E+00  0.0000E+00  0.0000E+00  0.0000E+00
    -42.887  0.0000E+00  0.0000E+00  0.0000E+00  0.0000E+00  0.0000E+00  0.0000E+00  0.0000E+00  0.0000E+00  0.0000E+00  0.0000E+00  0.0000E+00  0.0000E+00  0.0000E+00  0.0000E+00  0.0000E+00  0.0000E+00  0.0000E+00  0.0000E+00
    -42.641  0.0000E+00  0.0000E+00  0.0000E+00  0.0000E+00  0.0000E+00  0.0000E+00  0.0000E+00  0.0000E+00  0.0000E+00  0.0000E+00  0.0000E+00  0.0000E+00  0.0000E+00  0.0000E+00  0.0000E+00  0.0000E+00  0.0000E+00  0.0000E+00
    -42.396  0.0000E+00  0.0000E+00  0.0000E+00  0.0000E+00  0.0000E+00  0.0000E+00  0.0000E+00  0.0000E+00  0.0000E+00  0.0000E+00  0.0000E+00  0.0000E+00  0.0000E+00  0.0000E+00  0.0000E+00  0.0000E+00  0.0000E+00  0.0000E+00
    -42.151  0.0000E+00  0.0000E+00  0.0000E+00  0.0000E+00  0.0000E+00  0.0000E+00  0.0000E+00  0.0000E+00  0.0000E+00  0.0000E+00  0.0000E+00  0.0000E+00  0.0000E+00  0.0000E+00  0.0000E+00  0.0000E+00  0.0000E+00  0.0000E+00
    -41.906  0.0000E+00  0.0000E+00  0.0000E+00  0.0000E+00  0.0000E+00  0.0000E+00  0.0000E+00  0.0000E+00  0.0000E+00  0.0000E+00  0.0000E+00  0.0000E+00  0.0000E+00  0.0000E+00  0.0000E+00  0.0000E+00  0.0000E+00  0.0000E+00
    -41.661  0.0000E+00  0.0000E+00  0.0000E+00  0.0000E+00  0.0000E+00  0.0000E+00  0.0000E+00  0.0000E+00  0.0000E+00  0.0000E+00  0.0000E+00  0.0000E+00  0.0000E+00  0.0000E+00  0.0000E+00  0.0000E+00  0.0000E+00  0.0000E+00
    -41.415  0.0000E+00  0.0000E+00  0.0000E+00  0.0000E+00  0.0000E+00  0.0000E+00  0.0000E+00  0.0000E+00  0.0000E+00  0.0000E+00  0.0000E+00  0.0000E+00  0.0000E+00  0.0000E+00  0.0000E+00  0.0000E+00  0.0000E+00  0.0000E+00
    -41.170  0.0000E+00  0.0000E+00  0.0000E+00  0.0000E+00  0.0000E+00  0.0000E+00  0.0000E+00  0.0000E+00  0.0000E+00  0.0000E+00  0.0000E+00  0.0000E+00  0.0000E+00  0.0000E+00  0.0000E+00  0.0000E+00  0.0000E+00  0.0000E+00
    -40.925  0.0000E+00  0.0000E+00  0.0000E+00  0.0000E+00  0.0000E+00  0.0000E+00  0.0000E+00  0.0000E+00  0.0000E+00  0.0000E+00  0.0000E+00  0.0000E+00  0.0000E+00  0.0000E+00  0.0000E+00  0.0000E+00  0.0000E+00  0.0000E+00
    -40.680  0.0000E+00  0.0000E+00  0.0000E+00  0.0000E+00  0.0000E+00  0.0000E+00  0.0000E+00  0.0000E+00  0.0000E+00  0.0000E+00  0.0000E+00  0.0000E+00  0.0000E+00  0.0000E+00  0.0000E+00  0.0000E+00  0.0000E+00  0.0000E+00
    -40.435  0.0000E+00  0.0000E+00  0.0000E+00  0.0000E+00  0.0000E+00  0.0000E+00  0.0000E+00  0.0000E+00  0.0000E+00  0.0000E+00  0.0000E+00  0.0000E+00  0.0000E+00  0.0000E+00  0.0000E+00  0.0000E+00  0.0000E+00  0.0000E+00
    -40.189  0.0000E+00  0.0000E+00  0.0000E+00  0.0000E+00  0.0000E+00  0.0000E+00  0.0000E+00  0.0000E+00  0.0000E+00  0.0000E+00  0.0000E+00  0.0000E+00  0.0000E+00  0.0000E+00  0.0000E+00  0.0000E+00  0.0000E+00  0.0000E+00
    -39.944  0.0000E+00  0.0000E+00  0.0000E+00  0.0000E+00  0.0000E+00  0.0000E+00  0.0000E+00  0.0000E+00  0.0000E+00  0.0000E+00  0.0000E+00  0.0000E+00  0.0000E+00  0.0000E+00  0.0000E+00  0.0000E+00  0.0000E+00  0.0000E+00
    -39.699  0.0000E+00  0.0000E+00  0.0000E+00  0.0000E+00  0.0000E+00  0.0000E+00  0.0000E+00  0.0000E+00  0.0000E+00  0.0000E+00  0.0000E+00  0.0000E+00  0.0000E+00  0.0000E+00  0.0000E+00  0.0000E+00  0.0000E+00  0.0000E+00
    -39.454  0.0000E+00  0.0000E+00  0.0000E+00  0.0000E+00  0.0000E+00  0.0000E+00  0.0000E+00  0.0000E+00  0.0000E+00  0.0000E+00  0.0000E+00  0.0000E+00  0.0000E+00  0.0000E+00  0.0000E+00  0.0000E+00  0.0000E+00  0.0000E+00
    -39.208  0.0000E+00  0.0000E+00  0.0000E+00  0.0000E+00  0.0000E+00  0.0000E+00  0.0000E+00  0.0000E+00  0.0000E+00  0.0000E+00  0.0000E+00  0.0000E+00  0.0000E+00  0.0000E+00  0.0000E+00  0.0000E+00  0.0000E+00  0.0000E+00
    -38.963  0.0000E+00  0.0000E+00  0.0000E+00  0.0000E+00  0.0000E+00  0.0000E+00  0.0000E+00  0.0000E+00  0.0000E+00  0.0000E+00  0.0000E+00  0.0000E+00  0.0000E+00  0.0000E+00  0.0000E+00  0.0000E+00  0.0000E+00  0.0000E+00
    -38.718  0.0000E+00  0.0000E+00  0.0000E+00  0.0000E+00  0.0000E+00  0.0000E+00  0.0000E+00  0.0000E+00  0.0000E+00  0.0000E+00  0.0000E+00  0.0000E+00  0.0000E+00  0.0000E+00  0.0000E+00  0.0000E+00  0.0000E+00  0.0000E+00
    -38.473  0.0000E+00  0.0000E+00  0.0000E+00  0.0000E+00  0.0000E+00  0.0000E+00  0.0000E+00  0.0000E+00  0.0000E+00  0.0000E+00  0.0000E+00  0.0000E+00  0.0000E+00  0.0000E+00  0.0000E+00  0.0000E+00  0.0000E+00  0.0000E+00
    -38.228  0.0000E+00  0.0000E+00  0.0000E+00  0.0000E+00  0.0000E+00  0.0000E+00  0.0000E+00  0.0000E+00  0.0000E+00  0.0000E+00  0.0000E+00  0.0000E+00  0.0000E+00  0.0000E+00  0.0000E+00  0.0000E+00  0.0000E+00  0.0000E+00
    -37.982  0.0000E+00  0.0000E+00  0.0000E+00  0.0000E+00  0.0000E+00  0.0000E+00  0.0000E+00  0.0000E+00  0.0000E+00  0.0000E+00  0.0000E+00  0.0000E+00  0.0000E+00  0.0000E+00  0.0000E+00  0.0000E+00  0.0000E+00  0.0000E+00
    -37.737  0.0000E+00  0.0000E+00  0.0000E+00  0.0000E+00  0.0000E+00  0.0000E+00  0.0000E+00  0.0000E+00  0.0000E+00  0.0000E+00  0.0000E+00  0.0000E+00  0.0000E+00  0.0000E+00  0.0000E+00  0.0000E+00  0.0000E+00  0.0000E+00
    -37.492  0.0000E+00  0.0000E+00  0.0000E+00  0.0000E+00  0.0000E+00  0.0000E+00  0.0000E+00  0.0000E+00  0.0000E+00  0.0000E+00  0.0000E+00  0.0000E+00  0.0000E+00  0.0000E+00  0.0000E+00  0.0000E+00  0.0000E+00  0.0000E+00
    -37.247  0.0000E+00  0.0000E+00  0.0000E+00  0.0000E+00  0.0000E+00  0.0000E+00  0.0000E+00  0.0000E+00  0.0000E+00  0.0000E+00  0.0000E+00  0.0000E+00  0.0000E+00  0.0000E+00  0.0000E+00  0.0000E+00  0.0000E+00  0.0000E+00
    -37.002  0.0000E+00  0.0000E+00  0.0000E+00  0.0000E+00  0.0000E+00  0.0000E+00  0.0000E+00  0.0000E+00  0.0000E+00  0.0000E+00  0.0000E+00  0.0000E+00  0.0000E+00  0.0000E+00  0.0000E+00  0.0000E+00  0.0000E+00  0.0000E+00
    -36.756  0.0000E+00  0.0000E+00  0.0000E+00  0.0000E+00  0.0000E+00  0.0000E+00  0.0000E+00  0.0000E+00  0.0000E+00  0.0000E+00  0.0000E+00  0.0000E+00  0.0000E+00  0.0000E+00  0.0000E+00  0.0000E+00  0.0000E+00  0.0000E+00