   2   2   1   0
  0.1630347E+02  0.2874404E-09  0.2874404E-09  0.4557049E-09  0.5000000E-15
  1.000000000000000E-004
  CAR 
 unknown system                          
     20.97441801    -51.00696564  301      9.03344104      1.00000000
    -51.007  0.0000E+00  0.0000E+00  0.0000E+00  0.0000E+00
    -50.767  0.0000E+00  0.0000E+00  0.0000E+00  0.0000E+00
    -50.527  0.0000E+00  0.0000E+00  0.0000E+00  0.0000E+00
    -50.287  0.0000E+00  0.0000E+00  0.0000E+00  0.0000E+00
    -50.047  0.0000E+00  0.0000E+00  0.0000E+00  0.0000E+00
    -49.807  0.0000E+00  0.0000E+00  0.0000E+00  0.0000E+00
    -49.567  0.0000E+00  0.0000E+00  0.0000E+00  0.0000E+00
    -49.327  0.0000E+00  0.0000E+00  0.0000E+00  0.0000E+00
    -49.087  0.0000E+00  0.0000E+00  0.0000E+00  0.0000E+00
    -48.848  0.0000E+00  0.0000E+00  0.0000E+00  0.0000E+00
    -48.608  0.0000E+00  0.0000E+00  0.0000E+00  0.0000E+00
    -48.368  0.2458E-07  0.2460E-07  0.5898E-08  0.5902E-08
    -48.128  0.2441E-03  0.2443E-03  0.5857E-04  0.5862E-04
    -47.888  0.2903E-01  0.2906E-01  0.7025E-02  0.7031E-02
    -47.648  0.1878E+01  0.1879E+01  0.4576E+00  0.4578E+00
    -47.408  0.6075E+01  0.6074E+01  0.1915E+01  0.1915E+01
    -47.168  0.2733E+00  0.2730E+00  0.1999E+01  0.1999E+01
    -46.928  0.0000E+00  0.0000E+00  0.2000E+01  0.2000E+01
    -46.688  0.0000E+00  0.0000E+00  0.2000E+01  0.2000E+01
    -46.448  0.0000E+00  0.0000E+00  0.2000E+01  0.2000E+01
    -46.208  0.0000E+00  0.0000E+00  0.2000E+01  0.2000E+01
    -45.968  0.0000E+00  0.0000E+00  0.2000E+01  0.2000E+01
    -45.728  0.0000E+00  0.0000E+00  0.2000E+01  0.2000E+01
    -45.488  0.0000E+00  0.0000E+00  0.2000E+01  0.2000E+01
    -45.248  0.0000E+00  0.0000E+00  0.2000E+01  0.2000E+01
    -45.009  0.0000E+00  0.0000E+00  0.2000E+01  0.2000E+01
    -44.769  0.0000E+00  0.0000E+00  0.2000E+01  0.2000E+01
    -44.529  0.0000E+00  0.0000E+00  0.2000E+01  0.2000E+01
    -44.289  0.0000E+00  0.0000E+00  0.2000E+01  0.2000E+01
    -44.049  0.0000E+00  0.0000E+00  0.2000E+01  0.2000E+01
    -43.809  0.0000E+00  0.0000E+00  0.2000E+01  0.2000E+01
    -43.569  0.0000E+00  0.0000E+00  0.2000E+01  0.2000E+01
    -43.329  0.0000E+00  0.0000E+00  0.2000E+01  0.2000E+01
    -43.089  0.0000E+00  0.0000E+00  0.2000E+01  0.2000E+01
    -42.849  0.0000E+00  0.0000E+00  0.2000E+01  0.2000E+01
    -42.609  0.0000E+00  0.0000E+00  0.2000E+01  0.2000E+01
    -42.369  0.0000E+00  0.0000E+00  0.2000E+01  0.2000E+01
    -42.129  0.0000E+00  0.0000E+00  0.2000E+01  0.2000E+01
    -41.889  0.0000E+00  0.0000E+00  0.2000E+01  0.2000E+01
    -41.649  0.0000E+00  0.0000E+00  0.2000E+01  0.2000E+01
    -41.409  0.0000E+00  0.0000E+00  0.2000E+01  0.2000E+01
    -41.170  0.0000E+00  0.0000E+00  0.2000E+01  0.2000E+01
    -40.930  0.0000E+00  0.0000E+00  0.2000E+01  0.2000E+01
    -40.690  0.0000E+00  0.0000E+00  0.2000E+01  0.2000E+01
    -40.450  0.0000E+00  0.0000E+00  0.2000E+01  0.2000E+01
    -40.210  0.0000E+00  0.0000E+00  0.2000E+01  0.2000E+01
    -39.970  0.0000E+00  0.0000E+00  0.2000E+01  0.2000E+01
    -39.730  0.0000E+00  0.0000E+00  0.2000E+01  0.2000E+01
    -39.490  0.0000E+00  0.0000E+00  0.2000E+01  0.2000E+01
    -39.250  0.0000E+00  0.0000E+00  0.2000E+01  0.2000E+01
    -39.010  0.0000E+00  0.0000E+00  0.2000E+01  0.2000E+01
    -38.770  0.0000E+00  0.0000E+00  0.2000E+01  0.2000E+01
    -38.530  0.0000E+00  0.0000E+00  0.2000E+01  0.2000E+01
    -38.290  0.0000E+00  0.0000E+00  0.2000E+01  0.2000E+01
    -38.050  0.0000E+00  0.0000E+00  0.2000E+01  0.2000E+01
    -37.810  0.0000E+00  0.0000E+00  0.2000E+01  0.2000E+01
    -37.570  0.0000E+00  0.0000E+00  0.2000E+01  0.2000E+01
    -37.331  0.0000E+00  0.0000E+00  0.2000E+01  0.2000E+01
    -37.091  0.0000E+00  0.0000E+00  0.2000E+01  0.2000E+01
    -36.851  0.0000E+00  0.0000E+00  0.2000E+01  0.2000E+01
    -36.611  0.0000E+00  0.0000E+00  0.2000E+01  0.2000E+01
    -36.371  0.0000E+00  0.0000E+00  0.2000E+01  0.2000E+01
    -36.131  0.0000E+00  0.0000E+00  0.2000E+01  0.2000E+01
    -35.891  0.0000E+00  0.0000E+00  0.2000E+01  0.2000E+01
    -35.651  0.0000E+00  0.0000E+00  0.2000E+01  0.2000E+01
    -35.411  0.0000E+00  0.0000E+00  0.2000E+01  0.2000E+01
    -35.171  0.0000E+00  0.0000E+00  0.2000E+01  0.2000E+01
    -34.931  0.0000E+00  0.0000E+00  0.2000E+01  0.2000E+01
    -34.691  0.0000E+00  0.0000E+00  0.2000E+01  0.2000E+01
    -34.451  0.0000E+00  0.0000E+00  0.2000E+01  0.2000E+01
    -34.211  0.0000E+00  0.0000E+00  0.2000E+01  0.2000E+01
    -33.971  0.0000E+00  0.0000E+00  0.2000E+01  0.2000E+01
    -33.731  0.0000E+00  0.0000E+00  0.2000E+01  0.2000E+01
    -33.491  0.0000E+00  0.0000E+00  0.2000E+01  0.2000E+01
    -33.252  0.0000E+00  0.0000E+00  0.2000E+01  0.2000E+01
    -33.012  0.0000E+00  0.0000E+00  0.2000E+01  0.2000E+01
    -32.772  0.0000E+00  0.0000E+00  0.2000E+01  0.2000E+01
    -32.532  0.0000E+00  0.0000E+00  0.2000E+01  0.2000E+01
    -32.292  0.0000E+00  0.0000E+00  0.2000E+01  0.2000E+01
    -32.052  0.0000E+00  0.0000E+00  0.2000E+01  0.2000E+01
    -31.812  0.0000E+00  0.0000E+00  0.2000E+01  0.2000E+01
    -31.572  0.0000E+00  0.0000E+00  0.2000E+01  0.2000E+01
    -31.332  0.0000E+00  0.0000E+00  0.2000E+01  0.2000E+01
    -31.092  0.0000E+00  0.0000E+00  0.2000E+01  0.2000E+01
    -30.852  0.0000E+00  0.0000E+00  0.2000E+01  0.2000E+01
    -30.612  0.0000E+00  0.0000E+00  0.2000E+01  0.2000E+01
    -30.372  0.0000E+00  0.0000E+00  0.2000E+01  0.2000E+01
    -30.132  0.0000E+00  0.0000E+00  0.2000E+01  0.2000E+01
    -29.892  0.0000E+00  0.0000E+00  0.2000E+01  0.2000E+01
    -29.652  0.0000E+00  0.0000E+00  0.2000E+01  0.2000E+01
    -29.413  0.0000E+00  0.0000E+00  0.2000E+01  0.2000E+01
    -29.173  0.0000E+00  0.0000E+00  0.2000E+01  0.2000E+01
    -28.933  0.0000E+00  0.0000E+00  0.2000E+01  0.2000E+01
    -28.693  0.0000E+00  0.0000E+00  0.2000E+01  0.2000E+01
    -28.453  0.0000E+00  0.0000E+00  0.2000E+01  0.2000E+01
    -28.213  0.0000E+00  0.0000E+00  0.2000E+01  0.2000E+01
    -27.973  0.0000E+00  0.0000E+00  0.2000E+01  0.2000E+01
    -27.733  0.0000E+00  0.0000E+00  0.2000E+01  0.2000E+01
    -27.493  0.0000E+00  0.0000E+00  0.2000E+01  0.2000E+01
    -27.253  0.0000E+00  0.0000E+00  0.2000E+01  0.2000E+01
    -27.013  0.0000E+00  0.0000E+00  0.2000E+01  0.2000E+01
    -26.773  0.0000E+00  0.0000E+00  0.2000E+01  0.2000E+01
    -26.533  0.0000E+00  0.0000E+00  0.2000E+01  0.2000E+01
    -26.293  0.0000E+00  0.0000E+00  0.2000E+01  0.2000E+01
    -26.053  0.0000E+00  0.0000E+00  0.2000E+01  0.2000E+01
    -25.813  0.0000E+00  0.0000E+00  0.2000E+01  0.2000E+01
    -25.574  0.0000E+00  0.0000E+00  0.2000E+01  0.2000E+01
    -25.334  0.0000E+00  0.0000E+00  0.2000E+01  0.2000E+01
    -25.094  0.0000E+00  0.0000E+00  0.2000E+01  0.2000E+01
    -24.854  0.1544E-04  0.1543E-04  0.2000E+01  0.2000E+01
    -24.614  0.2440E-02  0.2437E-02  0.2001E+01  0.2001E+01
    -24.374  0.2422E+00  0.2420E+00  0.2059E+01  0.2059E+01
    -24.134  0.3961E+01  0.3960E+01  0.3009E+01  0.3009E+01
    -23.894  0.5472E+01  0.5472E+01  0.4323E+01  0.4322E+01
    -23.654  0.9333E+01  0.9332E+01  0.6573E+01  0.6572E+01
    -23.414  0.5701E+01  0.5703E+01  0.7953E+01  0.7953E+01
    -23.174  0.8994E-01  0.9002E-01  0.8000E+01  0.8000E+01
    -22.934  0.0000E+00  0.0000E+00  0.8000E+01  0.8000E+01
    -22.694  0.0000E+00  0.0000E+00  0.8000E+01  0.8000E+01
    -22.454  0.0000E+00  0.0000E+00  0.8000E+01  0.8000E+01
    -22.214  0.0000E+00  0.0000E+00  0.8000E+01  0.8000E+01
    -21.974  0.0000E+00  0.0000E+00  0.8000E+01  0.8000E+01
    -21.735  0.0000E+00  0.0000E+00  0.8000E+01  0.8000E+01
    -21.495  0.0000E+00  0.0000E+00  0.8000E+01  0.8000E+01
    -21.255  0.0000E+00  0.0000E+00  0.8000E+01  0.8000E+01
    -21.015  0.0000E+00  0.0000E+00  0.8000E+01  0.8000E+01
    -20.775  0.0000E+00  0.0000E+00  0.8000E+01  0.8000E+01
    -20.535  0.0000E+00  0.0000E+00  0.8000E+01  0.8000E+01
    -20.295  0.0000E+00  0.0000E+00  0.8000E+01  0.8000E+01
    -20.055  0.0000E+00  0.0000E+00  0.8000E+01  0.8000E+01
    -19.815  0.0000E+00  0.0000E+00  0.8000E+01  0.8000E+01
    -19.575  0.0000E+00  0.0000E+00  0.8000E+01  0.8000E+01
    -19.335  0.0000E+00  0.0000E+00  0.8000E+01  0.8000E+01
    -19.095  0.0000E+00  0.0000E+00  0.8000E+01  0.8000E+01
    -18.855  0.0000E+00  0.0000E+00  0.8000E+01  0.8000E+01
    -18.615  0.0000E+00  0.0000E+00  0.8000E+01  0.8000E+01
    -18.375  0.0000E+00  0.0000E+00  0.8000E+01  0.8000E+01
    -18.135  0.0000E+00  0.0000E+00  0.8000E+01  0.8000E+01
    -17.896  0.0000E+00  0.0000E+00  0.8000E+01  0.8000E+01
    -17.656  0.0000E+00  0.0000E+00  0.8000E+01  0.8000E+01
    -17.416  0.0000E+00  0.0000E+00  0.8000E+01  0.8000E+01
    -17.176  0.0000E+00  0.0000E+00  0.8000E+01  0.8000E+01
    -16.936  0.0000E+00  0.0000E+00  0.8000E+01  0.8000E+01
    -16.696  0.0000E+00  0.0000E+00  0.8000E+01  0.8000E+01
    -16.456  0.0000E+00  0.0000E+00  0.8000E+01  0.8000E+01
    -16.216  0.0000E+00  0.0000E+00  0.8000E+01  0.8000E+01
    -15.976  0.0000E+00  0.0000E+00  0.8000E+01  0.8000E+01
    -15.736  0.0000E+00  0.0000E+00  0.8000E+01  0.8000E+01
    -15.496  0.0000E+00  0.0000E+00  0.8000E+01  0.8000E+01
    -15.256  0.0000E+00  0.0000E+00  0.8000E+01  0.8000E+01
    -15.016  0.0000E+00  0.0000E+00  0.8000E+01  0.8000E+01
    -14.776  0.0000E+00  0.0000E+00  0.8000E+01  0.8000E+01
    -14.536  0.0000E+00  0.0000E+00  0.8000E+01  0.8000E+01
    -14.296  0.0000E+00  0.0000E+00  0.8000E+01  0.8000E+01
    -14.057  0.0000E+00  0.0000E+00  0.8000E+01  0.8000E+01
    -13.817  0.0000E+00  0.0000E+00  0.8000E+01  0.8000E+01
    -13.577  0.0000E+00  0.0000E+00  0.8000E+01  0.8000E+01
    -13.337  0.0000E+00  0.0000E+00  0.8000E+01  0.8000E+01
    -13.097  0.0000E+00  0.0000E+00  0.8000E+01  0.8000E+01
    -12.857  0.0000E+00  0.0000E+00  0.8000E+01  0.8000E+01
    -12.617  0.0000E+00  0.0000E+00  0.8000E+01  0.8000E+01
    -12.377  0.0000E+00  0.0000E+00  0.8000E+01  0.8000E+01
    -12.137  0.0000E+00  0.0000E+00  0.8000E+01  0.8000E+01
    -11.897  0.0000E+00  0.0000E+00  0.8000E+01  0.8000E+01
    -11.657  0.0000E+00  0.0000E+00  0.8000E+01  0.8000E+01
    -11.417  0.0000E+00  0.0000E+00  0.8000E+01  0.8000E+01
    -11.177  0.0000E+00  0.0000E+00  0.8000E+01  0.8000E+01
    -10.937  0.0000E+00  0.0000E+00  0.8000E+01  0.8000E+01
    -10.697  0.0000E+00  0.0000E+00  0.8000E+01  0.8000E+01
    -10.457  0.0000E+00  0.0000E+00  0.8000E+01  0.8000E+01
    -10.218  0.0000E+00  0.0000E+00  0.8000E+01  0.8000E+01
     -9.978  0.0000E+00  0.0000E+00  0.8000E+01  0.8000E+01
     -9.738  0.0000E+00  0.0000E+00  0.8000E+01  0.8000E+01
     -9.498  0.0000E+00  0.0000E+00  0.8000E+01  0.8000E+01
     -9.258  0.0000E+00  0.0000E+00  0.8000E+01  0.8000E+01
     -9.018  0.0000E+00  0.0000E+00  0.8000E+01  0.8000E+01
     -8.778  0.0000E+00  0.0000E+00  0.8000E+01  0.8000E+01
     -8.538  0.0000E+00  0.0000E+00  0.8000E+01  0.8000E+01
     -8.298  0.0000E+00  0.0000E+00  0.8000E+01  0.8000E+01
     -8.058  0.0000E+00  0.0000E+00  0.8000E+01  0.8000E+01
     -7.818  0.0000E+00  0.0000E+00  0.8000E+01  0.8000E+01
     -7.578  0.0000E+00  0.0000E+00  0.8000E+01  0.8000E+01
     -7.338  0.0000E+00  0.0000E+00  0.8000E+01  0.8000E+01
     -7.098  0.0000E+00  0.0000E+00  0.8000E+01  0.8000E+01
     -6.858  0.0000E+00  0.0000E+00  0.8000E+01  0.8000E+01
     -6.618  0.0000E+00  0.0000E+00  0.8000E+01  0.8000E+01
     -6.379  0.0000E+00  0.0000E+00  0.8000E+01  0.8000E+01
     -6.139  0.0000E+00  0.0000E+00  0.8000E+01  0.8000E+01
     -5.899  0.0000E+00  0.0000E+00  0.8000E+01  0.8000E+01
     -5.659  0.0000E+00  0.0000E+00  0.8000E+01  0.8000E+01
     -5.419  0.0000E+00  0.0000E+00  0.8000E+01  0.8000E+01
     -5.179  0.0000E+00  0.0000E+00  0.8000E+01  0.8000E+01
     -4.939  0.0000E+00  0.0000E+00  0.8000E+01  0.8000E+01
     -4.699  0.0000E+00  0.0000E+00  0.8000E+01  0.8000E+01
     -4.459  0.0000E+00  0.0000E+00  0.8000E+01  0.8000E+01
     -4.219  0.0000E+00  0.0000E+00  0.8000E+01  0.8000E+01
     -3.979  0.0000E+00  0.0000E+00  0.8000E+01  0.8000E+01
     -3.739  0.0000E+00  0.0000E+00  0.8000E+01  0.8000E+01
     -3.499  0.0000E+00  0.0000E+00  0.8000E+01  0.8000E+01
     -3.259  0.0000E+00  0.0000E+00  0.8000E+01  0.8000E+01
     -3.019  0.0000E+00  0.0000E+00  0.8000E+01  0.8000E+01
     -2.779  0.0000E+00  0.0000E+00  0.8000E+01  0.8000E+01
     -2.540  0.0000E+00  0.0000E+00  0.8000E+01  0.8000E+01
     -2.300  0.0000E+00  0.0000E+00  0.8000E+01  0.8000E+01
     -2.060  0.0000E+00  0.0000E+00  0.8000E+01  0.8000E+01
     -1.820  0.0000E+00  0.0000E+00  0.8000E+01  0.8000E+01
     -1.580  0.0000E+00  0.0000E+00  0.8000E+01  0.8000E+01
     -1.340  0.0000E+00  0.0000E+00  0.8000E+01  0.8000E+01
     -1.100  0.0000E+00  0.0000E+00  0.8000E+01  0.8000E+01
     -0.860  0.0000E+00  0.0000E+00  0.8000E+01  0.8000E+01
     -0.620  0.0000E+00  0.0000E+00  0.8000E+01  0.8000E+01
     -0.380  0.0000E+00  0.0000E+00  0.8000E+01  0.8000E+01
     -0.140  0.0000E+00  0.0000E+00  0.8000E+01  0.8000E+01
      0.100  0.0000E+00  0.0000E+00  0.8000E+01  0.8000E+01
      0.340  0.0000E+00  0.0000E+00  0.8000E+01  0.8000E+01
      0.580  0.0000E+00  0.0000E+00  0.8000E+01  0.8000E+01
      0.820  0.0000E+00  0.0000E+00  0.8000E+01  0.8000E+01
      1.060  0.0000E+00  0.0000E+00  0.8000E+01  0.8000E+01
      1.300  0.0000E+00  0.0000E+00  0.8000E+01  0.8000E+01
      1.539  0.0000E+00  0.0000E+00  0.8000E+01  0.8000E+01
      1.779  0.0000E+00  0.0000E+00  0.8000E+01  0.8000E+01
      2.019  0.0000E+00  0.0000E+00  0.8000E+01  0.8000E+01
      2.259  0.1072E-05  0.1080E-05  0.8000E+01  0.8000E+01
      2.499  0.1296E-03  0.1305E-03  0.8000E+01  0.8000E+01
      2.739  0.5993E-02  0.6017E-02  0.8001E+01  0.8001E+01
      2.979  0.3870E-01  0.3874E-01  0.8011E+01  0.8011E+01
      3.219  0.4385E-01  0.4389E-01  0.8021E+01  0.8021E+01
      3.459  0.8797E-01  0.8795E-01  0.8042E+01  0.8042E+01
      3.699  0.6545E-01  0.6548E-01  0.8059E+01  0.8059E+01
      3.939  0.1196E+00  0.1196E+00  0.8087E+01  0.8087E+01
      4.179  0.1155E+00  0.1156E+00  0.8116E+01  0.8116E+01
      4.419  0.1260E+00  0.1259E+00  0.8146E+01  0.8146E+01
      4.659  0.1343E+00  0.1345E+00  0.8179E+01  0.8179E+01
      4.899  0.2191E+00  0.2190E+00  0.8232E+01  0.8232E+01
      5.139  0.1718E+00  0.1717E+00  0.8273E+01  0.8273E+01
      5.378  0.2191E+00  0.2190E+00  0.8326E+01  0.8326E+01
      5.618  0.2716E+00  0.2716E+00  0.8392E+01  0.8392E+01
      5.858  0.3900E+00  0.3902E+00  0.8486E+01  0.8486E+01
      6.098  0.4082E+00  0.4082E+00  0.8584E+01  0.8584E+01
      6.338  0.8630E+00  0.8633E+00  0.8793E+01  0.8793E+01
      6.578  0.9487E+00  0.9486E+00  0.9022E+01  0.9022E+01
      6.818  0.9391E+00  0.9391E+00  0.9249E+01  0.9249E+01
      7.058  0.1289E+01  0.1289E+01  0.9560E+01  0.9560E+01
      7.298  0.1352E+01  0.1352E+01  0.9886E+01  0.9886E+01
      7.538  0.1121E+01  0.1120E+01  0.1016E+02  0.1016E+02
      7.778  0.1023E+01  0.1023E+01  0.1040E+02  0.1040E+02
      8.018  0.1326E+01  0.1326E+01  0.1073E+02  0.1073E+02
      8.258  0.1626E+01  0.1626E+01  0.1112E+02  0.1112E+02
      8.498  0.1752E+01  0.1752E+01  0.1154E+02  0.1154E+02
      8.738  0.9434E+00  0.9434E+00  0.1177E+02  0.1177E+02
      8.978  0.7306E+00  0.7305E+00  0.1195E+02  0.1195E+02
      9.217  0.1296E+01  0.1295E+01  0.1226E+02  0.1226E+02
      9.457  0.1894E+01  0.1894E+01  0.1272E+02  0.1272E+02
      9.697  0.1927E+01  0.1927E+01  0.1319E+02  0.1318E+02
      9.937  0.2088E+01  0.2088E+01  0.1369E+02  0.1369E+02
     10.177  0.2351E+01  0.2351E+01  0.1426E+02  0.1426E+02
     10.417  0.2004E+01  0.2004E+01  0.1474E+02  0.1474E+02
     10.657  0.1367E+01  0.1367E+01  0.1508E+02  0.1508E+02
     10.897  0.1082E+01  0.1082E+01  0.1534E+02  0.1534E+02
     11.137  0.9173E+00  0.9173E+00  0.1556E+02  0.1556E+02
     11.377  0.1036E+01  0.1036E+01  0.1581E+02  0.1581E+02
     11.617  0.9381E+00  0.9381E+00  0.1604E+02  0.1604E+02
     11.857  0.1197E+01  0.1197E+01  0.1633E+02  0.1633E+02
     12.097  0.1232E+01  0.1232E+01  0.1663E+02  0.1663E+02
     12.337  0.1863E+01  0.1862E+01  0.1708E+02  0.1708E+02
     12.577  0.2692E+01  0.2692E+01  0.1773E+02  0.1773E+02
     12.817  0.2877E+01  0.2877E+01  0.1842E+02  0.1842E+02
     13.056  0.1153E+01  0.1154E+01  0.1870E+02  0.1870E+02
     13.296  0.6016E+00  0.6015E+00  0.1885E+02  0.1885E+02
     13.536  0.5648E+00  0.5648E+00  0.1899E+02  0.1899E+02
     13.776  0.3453E+00  0.3453E+00  0.1907E+02  0.1907E+02
     14.016  0.5140E+00  0.5137E+00  0.1920E+02  0.1920E+02
     14.256  0.3946E+00  0.3947E+00  0.1929E+02  0.1929E+02
     14.496  0.3221E+00  0.3206E+00  0.1937E+02  0.1937E+02
     14.736  0.3239E+00  0.3241E+00  0.1945E+02  0.1945E+02
     14.976  0.3510E+00  0.3504E+00  0.1953E+02  0.1953E+02
     15.216  0.3372E+00  0.3368E+00  0.1962E+02  0.1961E+02
     15.456  0.3096E+00  0.3092E+00  0.1969E+02  0.1969E+02
     15.696  0.3468E+00  0.3488E+00  0.1977E+02  0.1977E+02
     15.936  0.1679E+00  0.1688E+00  0.1982E+02  0.1981E+02
     16.176  0.2786E+00  0.2777E+00  0.1988E+02  0.1988E+02
     16.416  0.1964E+00  0.1976E+00  0.1993E+02  0.1993E+02
     16.656  0.1220E+00  0.1205E+00  0.1996E+02  0.1996E+02
     16.895  0.4789E-01  0.4903E-01  0.1997E+02  0.1997E+02
     17.135  0.4043E-01  0.4060E-01  0.1998E+02  0.1998E+02
     17.375  0.3937E-01  0.4029E-01  0.1999E+02  0.1999E+02
     17.615  0.2066E-01  0.1999E-01  0.2000E+02  0.2000E+02
     17.855  0.1323E-01  0.1326E-01  0.2000E+02  0.2000E+02
     18.095  0.7219E-03  0.7344E-03  0.2000E+02  0.2000E+02
     18.335  0.0000E+00  0.0000E+00  0.2000E+02  0.2000E+02
     18.575  0.0000E+00  0.0000E+00  0.2000E+02  0.2000E+02
     18.815  0.0000E+00  0.0000E+00  0.2000E+02  0.2000E+02
     19.055  0.0000E+00  0.0000E+00  0.2000E+02  0.2000E+02
     19.295  0.0000E+00  0.0000E+00  0.2000E+02  0.2000E+02
     19.535  0.0000E+00  0.0000E+00  0.2000E+02  0.2000E+02
     19.775  0.0000E+00  0.0000E+00  0.2000E+02  0.2000E+02
     20.015  0.0000E+00  0.0000E+00  0.2000E+02  0.2000E+02
     20.255  0.0000E+00  0.0000E+00  0.2000E+02  0.2000E+02
     20.495  0.0000E+00  0.0000E+00  0.2000E+02  0.2000E+02
     20.734  0.0000E+00  0.0000E+00  0.2000E+02  0.2000E+02
     20.974  0.0000E+00  0.0000E+00  0.2000E+02  0.2000E+02
     20.97441801    -51.00696564  301      9.03344104      1.00000000
    -51.007  0.0000E+00  0.0000E+00  0.0000E+00  0.0000E+00  0.0000E+00  0.0000E+00  0.0000E+00  0.0000E+00  0.0000E+00  0.0000E+00  0.0000E+00  0.0000E+00  0.0000E+00  0.0000E+00  0.0000E+00  0.0000E+00  0.0000E+00  0.0000E+00
    -50.767  0.0000E+00  0.0000E+00  0.0000E+00  0.0000E+00  0.0000E+00  0.0000E+00  0.0000E+00  0.0000E+00  0.0000E+00  0.0000E+00  0.0000E+00  0.0000E+00  0.0000E+00  0.0000E+00  0.0000E+00  0.0000E+00  0.0000E+00  0.0000E+00
    -50.527  0.0000E+00  0.0000E+00  0.0000E+00  0.0000E+00  0.0000E+00  0.0000E+00  0.0000E+00  0.0000E+00  0.0000E+00  0.0000E+00  0.0000E+00  0.0000E+00  0.0000E+00  0.0000E+00  0.0000E+00  0.0000E+00  0.0000E+00  0.0000E+00
    -50.287  0.0000E+00  0.0000E+00  0.0000E+00  0.0000E+00  0.0000E+00  0.0000E+00  0.0000E+00  0.0000E+00  0.0000E+00  0.0000E+00  0.0000E+00  0.0000E+00  0.0000E+00  0.0000E+00  0.0000E+00  0.0000E+00  0.0000E+00  0.0000E+00
    -50.047  0.0000E+00  0.0000E+00  0.0000E+00  0.0000E+00  0.0000E+00  0.0000E+00  0.0000E+00  0.0000E+00  0.0000E+00  0.0000E+00  0.0000E+00  0.0000E+00  0.0000E+00  0.0000E+00  0.0000E+00  0.0000E+00  0.0000E+00  0.0000E+00
    -49.807  0.0000E+00  0.0000E+00  0.0000E+00  0.0000E+00  0.0000E+00  0.0000E+00  0.0000E+00  0.0000E+00  0.0000E+00  0.0000E+00  0.0000E+00  0.0000E+00  0.0000E+00  0.0000E+00  0.0000E+00  0.0000E+00  0.0000E+00  0.0000E+00
    -49.567  0.0000E+00  0.0000E+00  0.0000E+00  0.0000E+00  0.0000E+00  0.0000E+00  0.0000E+00  0.0000E+00  0.0000E+00  0.0000E+00  0.0000E+00  0.0000E+00  0.0000E+00  0.0000E+00  0.0000E+00  0.0000E+00  0.0000E+00  0.0000E+00
    -49.327  0.0000E+00  0.0000E+00  0.0000E+00  0.0000E+00  0.0000E+00  0.0000E+00  0.0000E+00  0.0000E+00  0.0000E+00  0.0000E+00  0.0000E+00  0.0000E+00  0.0000E+00  0.0000E+00  0.0000E+00  0.0000E+00  0.0000E+00  0.0000E+00
    -49.087  0.0000E+00  0.0000E+00  0.0000E+00  0.0000E+00  0.0000E+00  0.0000E+00  0.0000E+00  0.0000E+00  0.0000E+00  0.0000E+00  0.0000E+00  0.0000E+00  0.0000E+00  0.0000E+00  0.0000E+00  0.0000E+00  0.0000E+00  0.0000E+00
    -48.848  0.0000E+00  0.0000E+00  0.0000E+00  0.0000E+00  0.0000E+00  0.0000E+00  0.0000E+00  0.0000E+00  0.0000E+00  0.0000E+00  0.0000E+00  0.0000E+00  0.0000E+00  0.0000E+00  0.0000E+00  0.0000E+00  0.0000E+00  0.0000E+00
    -48.608  0.0000E+00  0.0000E+00  0.0000E+00  0.0000E+00  0.0000E+00  0.0000E+00  0.0000E+00  0.0000E+00  0.0000E+00  0.0000E+00  0.0000E+00  0.0000E+00  0.0000E+00  0.0000E+00  0.0000E+00  0.0000E+00  0.0000E+00  0.0000E+00
    -48.368  0.1217E-07  0.1218E-07  0.3989E-16  0.3360E-17  0.5500E-13  0.5184E-13  0.3989E-16  0.3360E-17  0.1718E-19  0.1792E-21  0.7818E-21  0.6993E-22  0.1963E-13  0.1967E-13  0.7818E-21  0.6993E-22  0.1718E-19  0.1792E-21
    -48.128  0.1212E-03  0.1213E-03  0.1357E-08  0.1352E-08  0.1660E-08  0.1650E-08  0.1357E-08  0.1352E-08  0.2495E-09  0.2498E-09  0.2326E-09  0.2329E-09  0.4674E-09  0.4684E-09  0.2326E-09  0.2329E-09  0.2495E-09  0.2498E-09
    -47.888  0.1442E-01  0.1443E-01  0.1615E-06  0.1609E-06  0.1977E-06  0.1965E-06  0.1615E-06  0.1609E-06  0.2987E-07  0.2991E-07  0.2789E-07  0.2792E-07  0.5581E-07  0.5593E-07  0.2789E-07  0.2792E-07  0.2987E-07  0.2991E-07
    -47.648  0.9331E+00  0.9336E+00  0.9873E-05  0.9847E-05  0.1242E-04  0.1236E-04  0.9873E-05  0.9847E-05  0.2459E-05  0.2461E-05  0.2467E-05  0.2469E-05  0.4200E-05  0.4206E-05  0.2467E-05  0.2469E-05  0.2459E-05  0.2461E-05
    -47.408  0.3022E+01  0.3022E+01  0.1995E-04  0.1994E-04  0.2728E-04  0.2724E-04  0.1995E-04  0.1994E-04  0.8740E-05  0.8737E-05  0.1088E-04  0.1088E-04  0.1469E-04  0.1470E-04  0.1088E-04  0.1088E-04  0.8740E-05  0.8737E-05
    -47.168  0.1361E+00  0.1360E+00  0.3798E-06  0.3786E-06  0.5942E-06  0.5951E-06  0.3798E-06  0.3786E-06  0.2834E-06  0.2830E-06  0.5090E-06  0.5084E-06  0.5456E-06  0.5456E-06  0.5090E-06  0.5084E-06  0.2834E-06  0.2830E-06
    -46.928  0.0000E+00  0.0000E+00  0.0000E+00  0.0000E+00  0.0000E+00  0.0000E+00  0.0000E+00  0.0000E+00  0.0000E+00  0.0000E+00  0.0000E+00  0.0000E+00  0.0000E+00  0.0000E+00  0.0000E+00  0.0000E+00  0.0000E+00  0.0000E+00
    -46.688  0.0000E+00  0.0000E+00  0.0000E+00  0.0000E+00  0.0000E+00  0.0000E+00  0.0000E+00  0.0000E+00  0.0000E+00  0.0000E+00  0.0000E+00  0.0000E+00  0.0000E+00  0.0000E+00  0.0000E+00  0.0000E+00  0.0000E+00  0.0000E+00
    -46.448  0.0000E+00  0.0000E+00  0.0000E+00  0.0000E+00  0.0000E+00  0.0000E+00  0.0000E+00  0.0000E+00  0.0000E+00  0.0000E+00  0.0000E+00  0.0000E+00  0.0000E+00  0.0000E+00  0.0000E+00  0.0000E+00  0.0000E+00  0.0000E+00
    -46.208  0.0000E+00  0.0000E+00  0.0000E+00  0.0000E+00  0.0000E+00  0.0000E+00  0.0000E+00  0.0000E+00  0.0000E+00  0.0000E+00  0.0000E+00  0.0000E+00  0.0000E+00  0.0000E+00  0.0000E+00  0.0000E+00  0.0000E+00  0.0000E+00
    -45.968  0.0000E+00  0.0000E+00  0.0000E+00  0.0000E+00  0.0000E+00  0.0000E+00  0.0000E+00  0.0000E+00  0.0000E+00  0.0000E+00  0.0000E+00  0.0000E+00  0.0000E+00  0.0000E+00  0.0000E+00  0.0000E+00  0.0000E+00  0.0000E+00
    -45.728  0.0000E+00  0.0000E+00  0.0000E+00  0.0000E+00  0.0000E+00  0.0000E+00  0.0000E+00  0.0000E+00  0.0000E+00  0.0000E+00  0.0000E+00  0.0000E+00  0.0000E+00  0.0000E+00  0.0000E+00  0.0000E+00  0.0000E+00  0.0000E+00
    -45.488  0.0000E+00  0.0000E+00  0.0000E+00  0.0000E+00  0.0000E+00  0.0000E+00  0.0000E+00  0.0000E+00  0.0000E+00  0.0000E+00  0.0000E+00  0.0000E+00  0.0000E+00  0.0000E+00  0.0000E+00  0.0000E+00  0.0000E+00  0.0000E+00
    -45.248  0.0000E+00  0.0000E+00  0.0000E+00  0.0000E+00  0.0000E+00  0.0000E+00  0.0000E+00  0.0000E+00  0.0000E+00  0.0000E+00  0.0000E+00  0.0000E+00  0.0000E+00  0.0000E+00  0.0000E+00  0.0000E+00  0.0000E+00  0.0000E+00
    -45.009  0.0000E+00  0.0000E+00  0.0000E+00  0.0000E+00  0.0000E+00  0.0000E+00  0.0000E+00  0.0000E+00  0.0000E+00  0.0000E+00  0.0000E+00  0.0000E+00  0.0000E+00  0.0000E+00  0.0000E+00  0.0000E+00  0.0000E+00  0.0000E+00
    -44.769  0.0000E+00  0.0000E+00  0.0000E+00  0.0000E+00  0.0000E+00  0.0000E+00  0.0000E+00  0.0000E+00  0.0000E+00  0.0000E+00  0.0000E+00  0.0000E+00  0.0000E+00  0.0000E+00  0.0000E+00  0.0000E+00  0.0000E+00  0.0000E+00
    -44.529  0.0000E+00  0.0000E+00  0.0000E+00  0.0000E+00  0.0000E+00  0.0000E+00  0.0000E+00  0.0000E+00  0.0000E+00  0.0000E+00  0.0000E+00  0.0000E+00  0.0000E+00  0.0000E+00  0.0000E+00  0.0000E+00  0.0000E+00  0.0000E+00
    -44.289  0.0000E+00  0.0000E+00  0.0000E+00  0.0000E+00  0.0000E+00  0.0000E+00  0.0000E+00  0.0000E+00  0.0000E+00  0.0000E+00  0.0000E+00  0.0000E+00  0.0000E+00  0.0000E+00  0.0000E+00  0.0000E+00  0.0000E+00  0.0000E+00
    -44.049  0.0000E+00  0.0000E+00  0.0000E+00  0.0000E+00  0.0000E+00  0.0000E+00  0.0000E+00  0.0000E+00  0.0000E+00  0.0000E+00  0.0000E+00  0.0000E+00  0.0000E+00  0.0000E+00  0.0000E+00  0.0000E+00  0.0000E+00  0.0000E+00
    -43.809  0.0000E+00  0.0000E+00  0.0000E+00  0.0000E+00  0.0000E+00  0.0000E+00  0.0000E+00  0.0000E+00  0.0000E+00  0.0000E+00  0.0000E+00  0.0000E+00  0.0000E+00  0.0000E+00  0.0000E+00  0.0000E+00  0.0000E+00  0.0000E+00
    -43.569  0.0000E+00  0.0000E+00  0.0000E+00  0.0000E+00  0.0000E+00  0.0000E+00  0.0000E+00  0.0000E+00  0.0000E+00  0.0000E+00  0.0000E+00  0.0000E+00  0.0000E+00  0.0000E+00  0.0000E+00  0.0000E+00  0.0000E+00  0.0000E+00
    -43.329  0.0000E+00  0.0000E+00  0.0000E+00  0.0000E+00  0.0000E+00  0.0000E+00  0.0000E+00  0.0000E+00  0.0000E+00  0.0000E+00  0.0000E+00  0.0000E+00  0.0000E+00  0.0000E+00  0.0000E+00  0.0000E+00  0.0000E+00  0.0000E+00
    -43.089  0.0000E+00  0.0000E+00  0.0000E+00  0.0000E+00  0.0000E+00  0.0000E+00  0.0000E+00  0.0000E+00  0.0000E+00  0.0000E+00  0.0000E+00  0.0000E+00  0.0000E+00  0.0000E+00  0.0000E+00  0.0000E+00  0.0000E+00  0.0000E+00
    -42.849  0.0000E+00  0.0000E+00  0.0000E+00  0.0000E+00  0.0000E+00  0.0000E+00  0.0000E+00  0.0000E+00  0.0000E+00  0.0000E+00  0.0000E+00  0.0000E+00  0.0000E+00  0.0000E+00  0.0000E+00  0.0000E+00  0.0000E+00  0.0000E+00
    -42.609  0.0000E+00  0.0000E+00  0.0000E+00  0.0000E+00  0.0000E+00  0.0000E+00  0.0000E+00  0.0000E+00  0.0000E+00  0.0000E+00  0.0000E+00  0.0000E+00  0.0000E+00  0.0000E+00  0.0000E+00  0.0000E+00  0.0000E+00  0.0000E+00
    -42.369  0.0000E+00  0.0000E+00  0.0000E+00  0.0000E+00  0.0000E+00  0.0000E+00  0.0000E+00  0.0000E+00  0.0000E+00  0.0000E+00  0.0000E+00  0.0000E+00  0.0000E+00  0.0000E+00  0.0000E+00  0.0000E+00  0.0000E+00  0.0000E+00
    -42.129  0.0000E+00  0.0000E+00  0.0000E+00  0.0000E+00  0.0000E+00  0.0000E+00  0.0000E+00  0.0000E+00  0.0000E+00  0.0000E+00  0.0000E+00  0.0000E+00  0.0000E+00  0.0000E+00  0.0000E+00  0.0000E+00  0.0000E+00  0.0000E+00
    -41.889  0.0000E+00  0.0000E+00  0.0000E+00  0.0000E+00  0.0000E+00  0.0000E+00  0.0000E+00  0.0000E+00  0.0000E+00  0.0000E+00  0.0000E+00  0.0000E+00  0.0000E+00  0.0000E+00  0.0000E+00  0.0000E+00  0.0000E+00  0.0000E+00
    -41.649  0.0000E+00  0.0000E+00  0.0000E+00  0.0000E+00  0.0000E+00  0.0000E+00  0.0000E+00  0.0000E+00  0.0000E+00  0.0000E+00  0.0000E+00  0.0000E+00  0.0000E+00  0.0000E+00  0.0000E+00  0.0000E+00  0.0000E+00  0.0000E+00
    -41.409  0.0000E+00  0.0000E+00  0.0000E+00  0.0000E+00  0.0000E+00  0.0000E+00  0.0000E+00  0.0000E+00  0.0000E+00  0.0000E+00  0.0000E+00  0.0000E+00  0.0000E+00  0.0000E+00  0.0000E+00  0.0000E+00  0.0000E+00  0.0000E+00
    -41.170  0.0000E+00  0.0000E+00  0.0000E+00  0.0000E+00  0.0000E+00  0.0000E+00  0.0000E+00  0.0000E+00  0.0000E+00  0.0000E+00  0.0000E+00  0.0000E+00  0.0000E+00  0.0000E+00  0.0000E+00  0.0000E+00  0.0000E+00  0.0000E+00
    -40.930  0.0000E+00  0.0000E+00  0.0000E+00  0.0000E+00  0.0000E+00  0.0000E+00  0.0000E+00  0.0000E+00  0.0000E+00  0.0000E+00  0.0000E+00  0.0000E+00  0.0000E+00  0.0000E+00  0.0000E+00  0.0000E+00  0.0000E+00  0.0000E+00
    -40.690  0.0000E+00  0.0000E+00  0.0000E+00  0.0000E+00  0.0000E+00  0.0000E+00  0.0000E+00  0.0000E+00  0.0000E+00  0.0000E+00  0.0000E+00  0.0000E+00  0.0000E+00  0.0000E+00  0.0000E+00  0.0000E+00  0.0000E+00  0.0000E+00
    -40.450  0.0000E+00  0.0000E+00  0.0000E+00  0.0000E+00  0.0000E+00  0.0000E+00  0.0000E+00  0.0000E+00  0.0000E+00  0.0000E+00  0.0000E+00  0.0000E+00  0.0000E+00  0.0000E+00  0.0000E+00  0.0000E+00  0.0000E+00  0.0000E+00
    -40.210  0.0000E+00  0.0000E+00  0.0000E+00  0.0000E+00  0.0000E+00  0.0000E+00  0.0000E+00  0.0000E+00  0.0000E+00  0.0000E+00  0.0000E+00  0.0000E+00  0.0000E+00  0.0000E+00  0.0000E+00  0.0000E+00  0.0000E+00  0.0000E+00
    -39.970  0.0000E+00  0.0000E+00  0.0000E+00  0.0000E+00  0.0000E+00  0.0000E+00  0.0000E+00  0.0000E+00  0.0000E+00  0.0000E+00  0.0000E+00  0.0000E+00  0.0000E+00  0.0000E+00  0.0000E+00  0.0000E+00  0.0000E+00  0.0000E+00
    -39.730  0.0000E+00  0.0000E+00  0.0000E+00  0.0000E+00  0.0000E+00  0.0000E+00  0.0000E+00  0.0000E+00  0.0000E+00  0.0000E+00  0.0000E+00  0.0000E+00  0.0000E+00  0.0000E+00  0.0000E+00  0.0000E+00  0.0000E+00  0.0000E+00
    -39.490  0.0000E+00  0.0000E+00  0.0000E+00  0.0000E+00  0.0000E+00  0.0000E+00  0.0000E+00  0.0000E+00  0.0000E+00  0.0000E+00  0.0000E+00  0.0000E+00  0.0000E+00  0.0000E+00  0.0000E+00  0.0000E+00  0.0000E+00  0.0000E+00
    -39.250  0.0000E+00  0.0000E+00  0.0000E+00  0.0000E+00  0.0000E+00  0.0000E+00  0.0000E+00  0.0000E+00  0.0000E+00  0.0000E+00  0.0000E+00  0.0000E+00  0.0000E+00  0.0000E+00  0.0000E+00  0.0000E+00  0.0000E+00  0.0000E+00
    -39.010  0.0000E+00  0.0000E+00  0.0000E+00  0.0000E+00  0.0000E+00  0.0000E+00  0.0000E+00  0.0000E+00  0.0000E+00  0.0000E+00  0.0000E+00  0.0000E+00  0.0000E+00  0.0000E+00  0.0000E+00  0.0000E+00  0.0000E+00  0.0000E+00