   2   2   1   0
  0.2063095E+02  0.3109049E-09  0.3109049E-09  0.4929053E-09  0.5000000E-15
  1.000000000000000E-004
  CAR 
 unknown system                          
     16.56056100    -53.72929299  301      6.63178908      1.00000000
    -53.729  0.0000E+00  0.0000E+00  0.0000E+00  0.0000E+00
    -53.495  0.0000E+00  0.0000E+00  0.0000E+00  0.0000E+00
    -53.261  0.0000E+00  0.0000E+00  0.0000E+00  0.0000E+00
    -53.026  0.0000E+00  0.0000E+00  0.0000E+00  0.0000E+00
    -52.792  0.0000E+00  0.0000E+00  0.0000E+00  0.0000E+00
    -52.558  0.0000E+00  0.0000E+00  0.0000E+00  0.0000E+00
    -52.323  0.0000E+00  0.0000E+00  0.0000E+00  0.0000E+00
    -52.089  0.0000E+00  0.0000E+00  0.0000E+00  0.0000E+00
    -51.855  0.0000E+00  0.0000E+00  0.0000E+00  0.0000E+00
    -51.621  0.0000E+00  0.0000E+00  0.0000E+00  0.0000E+00
    -51.386  0.0000E+00  0.0000E+00  0.0000E+00  0.0000E+00
    -51.152  0.8307E-06  0.8515E-06  0.1946E-06  0.1995E-06
    -50.918  0.1309E-02  0.1314E-02  0.3069E-03  0.3081E-03
    -50.683  0.1380E+00  0.1386E+00  0.3264E-01  0.3277E-01
    -50.449  0.5188E+01  0.5195E+01  0.1248E+01  0.1250E+01
    -50.215  0.3160E+01  0.3153E+01  0.1989E+01  0.1989E+01
    -49.981  0.0000E+00  0.0000E+00  0.2000E+01  0.2000E+01
    -49.746  0.0000E+00  0.0000E+00  0.2000E+01  0.2000E+01
    -49.512  0.0000E+00  0.0000E+00  0.2000E+01  0.2000E+01
    -49.278  0.0000E+00  0.0000E+00  0.2000E+01  0.2000E+01
    -49.043  0.0000E+00  0.0000E+00  0.2000E+01  0.2000E+01
    -48.809  0.0000E+00  0.0000E+00  0.2000E+01  0.2000E+01
    -48.575  0.0000E+00  0.0000E+00  0.2000E+01  0.2000E+01
    -48.340  0.0000E+00  0.0000E+00  0.2000E+01  0.2000E+01
    -48.106  0.0000E+00  0.0000E+00  0.2000E+01  0.2000E+01
    -47.872  0.0000E+00  0.0000E+00  0.2000E+01  0.2000E+01
    -47.638  0.0000E+00  0.0000E+00  0.2000E+01  0.2000E+01
    -47.403  0.0000E+00  0.0000E+00  0.2000E+01  0.2000E+01
    -47.169  0.0000E+00  0.0000E+00  0.2000E+01  0.2000E+01
    -46.935  0.0000E+00  0.0000E+00  0.2000E+01  0.2000E+01
    -46.700  0.0000E+00  0.0000E+00  0.2000E+01  0.2000E+01
    -46.466  0.0000E+00  0.0000E+00  0.2000E+01  0.2000E+01
    -46.232  0.0000E+00  0.0000E+00  0.2000E+01  0.2000E+01
    -45.997  0.0000E+00  0.0000E+00  0.2000E+01  0.2000E+01
    -45.763  0.0000E+00  0.0000E+00  0.2000E+01  0.2000E+01
    -45.529  0.0000E+00  0.0000E+00  0.2000E+01  0.2000E+01
    -45.295  0.0000E+00  0.0000E+00  0.2000E+01  0.2000E+01
    -45.060  0.0000E+00  0.0000E+00  0.2000E+01  0.2000E+01
    -44.826  0.0000E+00  0.0000E+00  0.2000E+01  0.2000E+01
    -44.592  0.0000E+00  0.0000E+00  0.2000E+01  0.2000E+01
    -44.357  0.0000E+00  0.0000E+00  0.2000E+01  0.2000E+01
    -44.123  0.0000E+00  0.0000E+00  0.2000E+01  0.2000E+01
    -43.889  0.0000E+00  0.0000E+00  0.2000E+01  0.2000E+01
    -43.654  0.0000E+00  0.0000E+00  0.2000E+01  0.2000E+01
    -43.420  0.0000E+00  0.0000E+00  0.2000E+01  0.2000E+01
    -43.186  0.0000E+00  0.0000E+00  0.2000E+01  0.2000E+01
    -42.952  0.0000E+00  0.0000E+00  0.2000E+01  0.2000E+01
    -42.717  0.0000E+00  0.0000E+00  0.2000E+01  0.2000E+01
    -42.483  0.0000E+00  0.0000E+00  0.2000E+01  0.2000E+01
    -42.249  0.0000E+00  0.0000E+00  0.2000E+01  0.2000E+01
    -42.014  0.0000E+00  0.0000E+00  0.2000E+01  0.2000E+01
    -41.780  0.0000E+00  0.0000E+00  0.2000E+01  0.2000E+01
    -41.546  0.0000E+00  0.0000E+00  0.2000E+01  0.2000E+01
    -41.311  0.0000E+00  0.0000E+00  0.2000E+01  0.2000E+01
    -41.077  0.0000E+00  0.0000E+00  0.2000E+01  0.2000E+01
    -40.843  0.0000E+00  0.0000E+00  0.2000E+01  0.2000E+01
    -40.609  0.0000E+00  0.0000E+00  0.2000E+01  0.2000E+01
    -40.374  0.0000E+00  0.0000E+00  0.2000E+01  0.2000E+01
    -40.140  0.0000E+00  0.0000E+00  0.2000E+01  0.2000E+01
    -39.906  0.0000E+00  0.0000E+00  0.2000E+01  0.2000E+01
    -39.671  0.0000E+00  0.0000E+00  0.2000E+01  0.2000E+01
    -39.437  0.0000E+00  0.0000E+00  0.2000E+01  0.2000E+01
    -39.203  0.0000E+00  0.0000E+00  0.2000E+01  0.2000E+01
    -38.968  0.0000E+00  0.0000E+00  0.2000E+01  0.2000E+01
    -38.734  0.0000E+00  0.0000E+00  0.2000E+01  0.2000E+01
    -38.500  0.0000E+00  0.0000E+00  0.2000E+01  0.2000E+01
    -38.266  0.0000E+00  0.0000E+00  0.2000E+01  0.2000E+01
    -38.031  0.0000E+00  0.0000E+00  0.2000E+01  0.2000E+01
    -37.797  0.0000E+00  0.0000E+00  0.2000E+01  0.2000E+01
    -37.563  0.0000E+00  0.0000E+00  0.2000E+01  0.2000E+01
    -37.328  0.0000E+00  0.0000E+00  0.2000E+01  0.2000E+01
    -37.094  0.0000E+00  0.0000E+00  0.2000E+01  0.2000E+01
    -36.860  0.0000E+00  0.0000E+00  0.2000E+01  0.2000E+01
    -36.625  0.0000E+00  0.0000E+00  0.2000E+01  0.2000E+01
    -36.391  0.0000E+00  0.0000E+00  0.2000E+01  0.2000E+01
    -36.157  0.0000E+00  0.0000E+00  0.2000E+01  0.2000E+01
    -35.923  0.0000E+00  0.0000E+00  0.2000E+01  0.2000E+01
    -35.688  0.0000E+00  0.0000E+00  0.2000E+01  0.2000E+01
    -35.454  0.0000E+00  0.0000E+00  0.2000E+01  0.2000E+01
    -35.220  0.0000E+00  0.0000E+00  0.2000E+01  0.2000E+01
    -34.985  0.0000E+00  0.0000E+00  0.2000E+01  0.2000E+01
    -34.751  0.0000E+00  0.0000E+00  0.2000E+01  0.2000E+01
    -34.517  0.0000E+00  0.0000E+00  0.2000E+01  0.2000E+01
    -34.282  0.0000E+00  0.0000E+00  0.2000E+01  0.2000E+01
    -34.048  0.0000E+00  0.0000E+00  0.2000E+01  0.2000E+01
    -33.814  0.0000E+00  0.0000E+00  0.2000E+01  0.2000E+01
    -33.580  0.0000E+00  0.0000E+00  0.2000E+01  0.2000E+01
    -33.345  0.0000E+00  0.0000E+00  0.2000E+01  0.2000E+01
    -33.111  0.0000E+00  0.0000E+00  0.2000E+01  0.2000E+01
    -32.877  0.0000E+00  0.0000E+00  0.2000E+01  0.2000E+01
    -32.642  0.0000E+00  0.0000E+00  0.2000E+01  0.2000E+01
    -32.408  0.0000E+00  0.0000E+00  0.2000E+01  0.2000E+01
    -32.174  0.0000E+00  0.0000E+00  0.2000E+01  0.2000E+01
    -31.939  0.0000E+00  0.0000E+00  0.2000E+01  0.2000E+01
    -31.705  0.0000E+00  0.0000E+00  0.2000E+01  0.2000E+01
    -31.471  0.0000E+00  0.0000E+00  0.2000E+01  0.2000E+01
    -31.237  0.0000E+00  0.0000E+00  0.2000E+01  0.2000E+01
    -31.002  0.0000E+00  0.0000E+00  0.2000E+01  0.2000E+01
    -30.768  0.0000E+00  0.0000E+00  0.2000E+01  0.2000E+01
    -30.534  0.0000E+00  0.0000E+00  0.2000E+01  0.2000E+01
    -30.299  0.0000E+00  0.0000E+00  0.2000E+01  0.2000E+01
    -30.065  0.0000E+00  0.0000E+00  0.2000E+01  0.2000E+01
    -29.831  0.0000E+00  0.0000E+00  0.2000E+01  0.2000E+01
    -29.596  0.0000E+00  0.0000E+00  0.2000E+01  0.2000E+01
    -29.362  0.0000E+00  0.0000E+00  0.2000E+01  0.2000E+01
    -29.128  0.0000E+00  0.0000E+00  0.2000E+01  0.2000E+01
    -28.894  0.0000E+00  0.0000E+00  0.2000E+01  0.2000E+01
    -28.659  0.0000E+00  0.0000E+00  0.2000E+01  0.2000E+01
    -28.425  0.0000E+00  0.0000E+00  0.2000E+01  0.2000E+01
    -28.191  0.0000E+00  0.0000E+00  0.2000E+01  0.2000E+01
    -27.956  0.0000E+00  0.0000E+00  0.2000E+01  0.2000E+01
    -27.722  0.0000E+00  0.0000E+00  0.2000E+01  0.2000E+01
    -27.488  0.1593E-04  0.1620E-04  0.2000E+01  0.2000E+01
    -27.253  0.2631E-02  0.2639E-02  0.2001E+01  0.2001E+01
    -27.019  0.2691E+00  0.2699E+00  0.2064E+01  0.2064E+01
    -26.785  0.6537E+01  0.6543E+01  0.3595E+01  0.3597E+01
    -26.551  0.1528E+02  0.1528E+02  0.7176E+01  0.7178E+01
    -26.316  0.3390E+01  0.3384E+01  0.7989E+01  0.7989E+01
    -26.082  0.0000E+00  0.0000E+00  0.8000E+01  0.8000E+01
    -25.848  0.0000E+00  0.0000E+00  0.8000E+01  0.8000E+01
    -25.613  0.0000E+00  0.0000E+00  0.8000E+01  0.8000E+01
    -25.379  0.0000E+00  0.0000E+00  0.8000E+01  0.8000E+01
    -25.145  0.0000E+00  0.0000E+00  0.8000E+01  0.8000E+01
    -24.910  0.0000E+00  0.0000E+00  0.8000E+01  0.8000E+01
    -24.676  0.0000E+00  0.0000E+00  0.8000E+01  0.8000E+01
    -24.442  0.0000E+00  0.0000E+00  0.8000E+01  0.8000E+01
    -24.208  0.0000E+00  0.0000E+00  0.8000E+01  0.8000E+01
    -23.973  0.0000E+00  0.0000E+00  0.8000E+01  0.8000E+01
    -23.739  0.0000E+00  0.0000E+00  0.8000E+01  0.8000E+01
    -23.505  0.0000E+00  0.0000E+00  0.8000E+01  0.8000E+01
    -23.270  0.0000E+00  0.0000E+00  0.8000E+01  0.8000E+01
    -23.036  0.0000E+00  0.0000E+00  0.8000E+01  0.8000E+01
    -22.802  0.0000E+00  0.0000E+00  0.8000E+01  0.8000E+01
    -22.567  0.0000E+00  0.0000E+00  0.8000E+01  0.8000E+01
    -22.333  0.0000E+00  0.0000E+00  0.8000E+01  0.8000E+01
    -22.099  0.0000E+00  0.0000E+00  0.8000E+01  0.8000E+01
    -21.865  0.0000E+00  0.0000E+00  0.8000E+01  0.8000E+01
    -21.630  0.0000E+00  0.0000E+00  0.8000E+01  0.8000E+01
    -21.396  0.0000E+00  0.0000E+00  0.8000E+01  0.8000E+01
    -21.162  0.0000E+00  0.0000E+00  0.8000E+01  0.8000E+01
    -20.927  0.0000E+00  0.0000E+00  0.8000E+01  0.8000E+01
    -20.693  0.0000E+00  0.0000E+00  0.8000E+01  0.8000E+01
    -20.459  0.0000E+00  0.0000E+00  0.8000E+01  0.8000E+01
    -20.224  0.0000E+00  0.0000E+00  0.8000E+01  0.8000E+01
    -19.990  0.0000E+00  0.0000E+00  0.8000E+01  0.8000E+01
    -19.756  0.0000E+00  0.0000E+00  0.8000E+01  0.8000E+01
    -19.522  0.0000E+00  0.0000E+00  0.8000E+01  0.8000E+01
    -19.287  0.0000E+00  0.0000E+00  0.8000E+01  0.8000E+01
    -19.053  0.0000E+00  0.0000E+00  0.8000E+01  0.8000E+01
    -18.819  0.0000E+00  0.0000E+00  0.8000E+01  0.8000E+01
    -18.584  0.0000E+00  0.0000E+00  0.8000E+01  0.8000E+01
    -18.350  0.0000E+00  0.0000E+00  0.8000E+01  0.8000E+01
    -18.116  0.0000E+00  0.0000E+00  0.8000E+01  0.8000E+01
    -17.881  0.0000E+00  0.0000E+00  0.8000E+01  0.8000E+01
    -17.647  0.0000E+00  0.0000E+00  0.8000E+01  0.8000E+01
    -17.413  0.0000E+00  0.0000E+00  0.8000E+01  0.8000E+01
    -17.179  0.0000E+00  0.0000E+00  0.8000E+01  0.8000E+01
    -16.944  0.0000E+00  0.0000E+00  0.8000E+01  0.8000E+01
    -16.710  0.0000E+00  0.0000E+00  0.8000E+01  0.8000E+01
    -16.476  0.0000E+00  0.0000E+00  0.8000E+01  0.8000E+01
    -16.241  0.0000E+00  0.0000E+00  0.8000E+01  0.8000E+01
    -16.007  0.0000E+00  0.0000E+00  0.8000E+01  0.8000E+01
    -15.773  0.0000E+00  0.0000E+00  0.8000E+01  0.8000E+01
    -15.538  0.0000E+00  0.0000E+00  0.8000E+01  0.8000E+01
    -15.304  0.0000E+00  0.0000E+00  0.8000E+01  0.8000E+01
    -15.070  0.0000E+00  0.0000E+00  0.8000E+01  0.8000E+01
    -14.836  0.0000E+00  0.0000E+00  0.8000E+01  0.8000E+01
    -14.601  0.0000E+00  0.0000E+00  0.8000E+01  0.8000E+01
    -14.367  0.0000E+00  0.0000E+00  0.8000E+01  0.8000E+01
    -14.133  0.0000E+00  0.0000E+00  0.8000E+01  0.8000E+01
    -13.898  0.0000E+00  0.0000E+00  0.8000E+01  0.8000E+01
    -13.664  0.0000E+00  0.0000E+00  0.8000E+01  0.8000E+01
    -13.430  0.0000E+00  0.0000E+00  0.8000E+01  0.8000E+01
    -13.195  0.0000E+00  0.0000E+00  0.8000E+01  0.8000E+01
    -12.961  0.0000E+00  0.0000E+00  0.8000E+01  0.8000E+01
    -12.727  0.0000E+00  0.0000E+00  0.8000E+01  0.8000E+01
    -12.493  0.0000E+00  0.0000E+00  0.8000E+01  0.8000E+01
    -12.258  0.0000E+00  0.0000E+00  0.8000E+01  0.8000E+01
    -12.024  0.0000E+00  0.0000E+00  0.8000E+01  0.8000E+01
    -11.790  0.0000E+00  0.0000E+00  0.8000E+01  0.8000E+01
    -11.555  0.0000E+00  0.0000E+00  0.8000E+01  0.8000E+01
    -11.321  0.0000E+00  0.0000E+00  0.8000E+01  0.8000E+01
    -11.087  0.0000E+00  0.0000E+00  0.8000E+01  0.8000E+01
    -10.852  0.0000E+00  0.0000E+00  0.8000E+01  0.8000E+01
    -10.618  0.0000E+00  0.0000E+00  0.8000E+01  0.8000E+01
    -10.384  0.0000E+00  0.0000E+00  0.8000E+01  0.8000E+01
    -10.150  0.0000E+00  0.0000E+00  0.8000E+01  0.8000E+01
     -9.915  0.0000E+00  0.0000E+00  0.8000E+01  0.8000E+01
     -9.681  0.0000E+00  0.0000E+00  0.8000E+01  0.8000E+01
     -9.447  0.0000E+00  0.0000E+00  0.8000E+01  0.8000E+01
     -9.212  0.0000E+00  0.0000E+00  0.8000E+01  0.8000E+01
     -8.978  0.0000E+00  0.0000E+00  0.8000E+01  0.8000E+01
     -8.744  0.0000E+00  0.0000E+00  0.8000E+01  0.8000E+01
     -8.509  0.0000E+00  0.0000E+00  0.8000E+01  0.8000E+01
     -8.275  0.0000E+00  0.0000E+00  0.8000E+01  0.8000E+01
     -8.041  0.0000E+00  0.0000E+00  0.8000E+01  0.8000E+01
     -7.807  0.0000E+00  0.0000E+00  0.8000E+01  0.8000E+01
     -7.572  0.0000E+00  0.0000E+00  0.8000E+01  0.8000E+01
     -7.338  0.0000E+00  0.0000E+00  0.8000E+01  0.8000E+01
     -7.104  0.0000E+00  0.0000E+00  0.8000E+01  0.8000E+01
     -6.869  0.0000E+00  0.0000E+00  0.8000E+01  0.8000E+01
     -6.635  0.0000E+00  0.0000E+00  0.8000E+01  0.8000E+01
     -6.401  0.0000E+00  0.0000E+00  0.8000E+01  0.8000E+01
     -6.166  0.0000E+00  0.0000E+00  0.8000E+01  0.8000E+01
     -5.932  0.0000E+00  0.0000E+00  0.8000E+01  0.8000E+01
     -5.698  0.0000E+00  0.0000E+00  0.8000E+01  0.8000E+01
     -5.464  0.0000E+00  0.0000E+00  0.8000E+01  0.8000E+01
     -5.229  0.0000E+00  0.0000E+00  0.8000E+01  0.8000E+01
     -4.995  0.0000E+00  0.0000E+00  0.8000E+01  0.8000E+01
     -4.761  0.0000E+00  0.0000E+00  0.8000E+01  0.8000E+01
     -4.526  0.0000E+00  0.0000E+00  0.8000E+01  0.8000E+01
     -4.292  0.0000E+00  0.0000E+00  0.8000E+01  0.8000E+01
     -4.058  0.0000E+00  0.0000E+00  0.8000E+01  0.8000E+01
     -3.823  0.0000E+00  0.0000E+00  0.8000E+01  0.8000E+01
     -3.589  0.0000E+00  0.0000E+00  0.8000E+01  0.8000E+01
     -3.355  0.0000E+00  0.0000E+00  0.8000E+01  0.8000E+01
     -3.121  0.0000E+00  0.0000E+00  0.8000E+01  0.8000E+01
     -2.886  0.0000E+00  0.0000E+00  0.8000E+01  0.8000E+01
     -2.652  0.0000E+00  0.0000E+00  0.8000E+01  0.8000E+01
     -2.418  0.0000E+00  0.0000E+00  0.8000E+01  0.8000E+01
     -2.183  0.0000E+00  0.0000E+00  0.8000E+01  0.8000E+01
     -1.949  0.0000E+00  0.0000E+00  0.8000E+01  0.8000E+01
     -1.715  0.0000E+00  0.0000E+00  0.8000E+01  0.8000E+01
     -1.481  0.0000E+00  0.0000E+00  0.8000E+01  0.8000E+01
     -1.246  0.0000E+00  0.0000E+00  0.8000E+01  0.8000E+01
     -1.012  0.0000E+00  0.0000E+00  0.8000E+01  0.8000E+01
     -0.778  0.0000E+00  0.0000E+00  0.8000E+01  0.8000E+01
     -0.543  0.0000E+00  0.0000E+00  0.8000E+01  0.8000E+01
     -0.309  0.0000E+00  0.0000E+00  0.8000E+01  0.8000E+01
     -0.075  0.0000E+00  0.0000E+00  0.8000E+01  0.8000E+01
      0.160  0.0000E+00  0.0000E+00  0.8000E+01  0.8000E+01
      0.394  0.3336E-06  0.3317E-06  0.8000E+01  0.8000E+01
      0.628  0.3825E-04  0.3804E-04  0.8000E+01  0.8000E+01
      0.862  0.2978E-02  0.2965E-02  0.8001E+01  0.8001E+01
      1.097  0.3608E-01  0.3602E-01  0.8009E+01  0.8009E+01
      1.331  0.5992E-01  0.5986E-01  0.8023E+01  0.8023E+01
      1.565  0.9769E-01  0.9772E-01  0.8046E+01  0.8046E+01
      1.800  0.1008E+00  0.1007E+00  0.8070E+01  0.8070E+01
      2.034  0.1331E+00  0.1332E+00  0.8102E+01  0.8102E+01
      2.268  0.1611E+00  0.1611E+00  0.8140E+01  0.8140E+01
      2.503  0.1361E+00  0.1359E+00  0.8172E+01  0.8172E+01
      2.737  0.2387E+00  0.2387E+00  0.8228E+01  0.8228E+01
      2.971  0.1885E+00  0.1884E+00  0.8273E+01  0.8273E+01
      3.205  0.2421E+00  0.2420E+00  0.8330E+01  0.8329E+01
      3.440  0.2757E+00  0.2757E+00  0.8395E+01  0.8395E+01
      3.674  0.3625E+00  0.3625E+00  0.8480E+01  0.8480E+01
      3.908  0.3288E+00  0.3289E+00  0.8558E+01  0.8558E+01
      4.143  0.4964E+00  0.4959E+00  0.8675E+01  0.8674E+01
      4.377  0.7393E+00  0.7394E+00  0.8848E+01  0.8848E+01
      4.611  0.8381E+00  0.8379E+00  0.9046E+01  0.9046E+01
      4.846  0.1030E+01  0.1030E+01  0.9289E+01  0.9289E+01
      5.080  0.1122E+01  0.1122E+01  0.9554E+01  0.9554E+01
      5.314  0.1384E+01  0.1384E+01  0.9880E+01  0.9880E+01
      5.548  0.1515E+01  0.1515E+01  0.1024E+02  0.1024E+02
      5.783  0.1622E+01  0.1621E+01  0.1062E+02  0.1062E+02
      6.017  0.2059E+01  0.2059E+01  0.1110E+02  0.1110E+02
      6.251  0.1988E+01  0.1988E+01  0.1157E+02  0.1157E+02
      6.486  0.1127E+01  0.1128E+01  0.1184E+02  0.1184E+02
      6.720  0.1205E+01  0.1205E+01  0.1213E+02  0.1213E+02
      6.954  0.2363E+01  0.2363E+01  0.1268E+02  0.1268E+02
      7.189  0.2719E+01  0.2719E+01  0.1332E+02  0.1332E+02
      7.423  0.2926E+01  0.2926E+01  0.1401E+02  0.1401E+02
      7.657  0.2814E+01  0.2814E+01  0.1468E+02  0.1468E+02
      7.891  0.1813E+01  0.1814E+01  0.1511E+02  0.1511E+02
      8.126  0.1382E+01  0.1382E+01  0.1543E+02  0.1543E+02
      8.360  0.1361E+01  0.1361E+01  0.1576E+02  0.1576E+02
      8.594  0.1393E+01  0.1393E+01  0.1608E+02  0.1608E+02
      8.829  0.1668E+01  0.1668E+01  0.1648E+02  0.1648E+02
      9.063  0.2400E+01  0.2400E+01  0.1704E+02  0.1704E+02
      9.297  0.3769E+01  0.3770E+01  0.1793E+02  0.1793E+02
      9.532  0.3024E+01  0.3023E+01  0.1864E+02  0.1864E+02
      9.766  0.8985E+00  0.8982E+00  0.1886E+02  0.1886E+02
     10.000  0.6716E+00  0.6715E+00  0.1902E+02  0.1902E+02
     10.234  0.5380E+00  0.5375E+00  0.1915E+02  0.1915E+02
     10.469  0.5933E+00  0.5938E+00  0.1929E+02  0.1929E+02
     10.703  0.4175E+00  0.4173E+00  0.1939E+02  0.1939E+02
     10.937  0.3813E+00  0.3786E+00  0.1948E+02  0.1948E+02
     11.172  0.4913E+00  0.4932E+00  0.1959E+02  0.1959E+02
     11.406  0.3702E+00  0.3716E+00  0.1968E+02  0.1968E+02
     11.640  0.4149E+00  0.4127E+00  0.1978E+02  0.1978E+02
     11.875  0.1842E+00  0.1891E+00  0.1982E+02  0.1982E+02
     12.109  0.3490E+00  0.3550E+00  0.1991E+02  0.1991E+02
     12.343  0.1780E+00  0.1738E+00  0.1995E+02  0.1995E+02
     12.577  0.7733E-01  0.7420E-01  0.1997E+02  0.1997E+02
     12.812  0.5473E-01  0.5675E-01  0.1998E+02  0.1998E+02
     13.046  0.4656E-01  0.4389E-01  0.1999E+02  0.1999E+02
     13.280  0.1835E-01  0.2082E-01  0.2000E+02  0.2000E+02
     13.515  0.1339E-01  0.1343E-01  0.2000E+02  0.2000E+02
     13.749  0.7830E-03  0.8044E-03  0.2000E+02  0.2000E+02
     13.983  0.0000E+00  0.0000E+00  0.2000E+02  0.2000E+02
     14.218  0.0000E+00  0.0000E+00  0.2000E+02  0.2000E+02
     14.452  0.0000E+00  0.0000E+00  0.2000E+02  0.2000E+02
     14.686  0.0000E+00  0.0000E+00  0.2000E+02  0.2000E+02
     14.920  0.0000E+00  0.0000E+00  0.2000E+02  0.2000E+02
     15.155  0.0000E+00  0.0000E+00  0.2000E+02  0.2000E+02
     15.389  0.0000E+00  0.0000E+00  0.2000E+02  0.2000E+02
     15.623  0.0000E+00  0.0000E+00  0.2000E+02  0.2000E+02
     15.858  0.0000E+00  0.0000E+00  0.2000E+02  0.2000E+02
     16.092  0.0000E+00  0.0000E+00  0.2000E+02  0.2000E+02
     16.326  0.0000E+00  0.0000E+00  0.2000E+02  0.2000E+02
     16.561  0.0000E+00  0.0000E+00  0.2000E+02  0.2000E+02
     16.56056100    -53.72929299  301      6.63178908      1.00000000
    -53.729  0.0000E+00  0.0000E+00  0.0000E+00  0.0000E+00  0.0000E+00  0.0000E+00  0.0000E+00  0.0000E+00  0.0000E+00  0.0000E+00  0.0000E+00  0.0000E+00  0.0000E+00  0.0000E+00  0.0000E+00  0.0000E+00  0.0000E+00  0.0000E+00
    -53.495  0.0000E+00  0.0000E+00  0.0000E+00  0.0000E+00  0.0000E+00  0.0000E+00  0.0000E+00  0.0000E+00  0.0000E+00  0.0000E+00  0.0000E+00  0.0000E+00  0.0000E+00  0.0000E+00  0.0000E+00  0.0000E+00  0.0000E+00  0.0000E+00
    -53.261  0.0000E+00  0.0000E+00  0.0000E+00  0.0000E+00  0.0000E+00  0.0000E+00  0.0000E+00  0.0000E+00  0.0000E+00  0.0000E+00  0.0000E+00  0.0000E+00  0.0000E+00  0.0000E+00  0.0000E+00  0.0000E+00  0.0000E+00  0.0000E+00
    -53.026  0.0000E+00  0.0000E+00  0.0000E+00  0.0000E+00  0.0000E+00  0.0000E+00  0.0000E+00  0.0000E+00  0.0000E+00  0.0000E+00  0.0000E+00  0.0000E+00  0.0000E+00  0.0000E+00  0.0000E+00  0.0000E+00  0.0000E+00  0.0000E+00
    -52.792  0.0000E+00  0.0000E+00  0.0000E+00  0.0000E+00  0.0000E+00  0.0000E+00  0.0000E+00  0.0000E+00  0.0000E+00  0.0000E+00  0.0000E+00  0.0000E+00  0.0000E+00  0.0000E+00  0.0000E+00  0.0000E+00  0.0000E+00  0.0000E+00
    -52.558  0.0000E+00  0.0000E+00  0.0000E+00  0.0000E+00  0.0000E+00  0.0000E+00  0.0000E+00  0.0000E+00  0.0000E+00  0.0000E+00  0.0000E+00  0.0000E+00  0.0000E+00  0.0000E+00  0.0000E+00  0.0000E+00  0.0000E+00  0.0000E+00
    -52.323  0.0000E+00  0.0000E+00  0.0000E+00  0.0000E+00  0.0000E+00  0.0000E+00  0.0000E+00  0.0000E+00  0.0000E+00  0.0000E+00  0.0000E+00  0.0000E+00  0.0000E+00  0.0000E+00  0.0000E+00  0.0000E+00  0.0000E+00  0.0000E+00
    -52.089  0.0000E+00  0.0000E+00  0.0000E+00  0.0000E+00  0.0000E+00  0.0000E+00  0.0000E+00  0.0000E+00  0.0000E+00  0.0000E+00  0.0000E+00  0.0000E+00  0.0000E+00  0.0000E+00  0.0000E+00  0.0000E+00  0.0000E+00  0.0000E+00
    -51.855  0.0000E+00  0.0000E+00  0.0000E+00  0.0000E+00  0.0000E+00  0.0000E+00  0.0000E+00  0.0000E+00  0.0000E+00  0.0000E+00  0.0000E+00  0.0000E+00  0.0000E+00  0.0000E+00  0.0000E+00  0.0000E+00  0.0000E+00  0.0000E+00
    -51.621  0.0000E+00  0.0000E+00  0.0000E+00  0.0000E+00  0.0000E+00  0.0000E+00  0.0000E+00  0.0000E+00  0.0000E+00  0.0000E+00  0.0000E+00  0.0000E+00  0.0000E+00  0.0000E+00  0.0000E+00  0.0000E+00  0.0000E+00  0.0000E+00
    -51.386  0.0000E+00  0.0000E+00  0.0000E+00  0.0000E+00  0.0000E+00  0.0000E+00  0.0000E+00  0.0000E+00  0.0000E+00  0.0000E+00  0.0000E+00  0.0000E+00  0.0000E+00  0.0000E+00  0.0000E+00  0.0000E+00  0.0000E+00  0.0000E+00
    -51.152  0.4126E-06  0.4229E-06  0.4490E-12  0.4542E-12  0.5448E-12  0.6070E-12  0.4490E-12  0.4542E-12  0.1595E-13  0.1600E-13  0.1008E-13  0.1011E-13  0.3060E-12  0.3124E-12  0.1008E-13  0.1011E-13  0.1595E-13  0.1600E-13
    -50.918  0.6511E-03  0.6538E-03  0.8092E-09  0.8110E-09  0.1071E-08  0.1077E-08  0.8092E-09  0.8110E-09  0.2403E-09  0.2418E-09  0.2736E-09  0.2752E-09  0.6791E-09  0.6862E-09  0.2736E-09  0.2752E-09  0.2403E-09  0.2418E-09
    -50.683  0.6865E-01  0.6892E-01  0.8504E-07  0.8522E-07  0.1126E-06  0.1133E-06  0.8504E-07  0.8522E-07  0.2537E-07  0.2553E-07  0.2894E-07  0.2911E-07  0.7162E-07  0.7237E-07  0.2894E-07  0.2911E-07  0.2537E-07  0.2553E-07
    -50.449  0.2581E+01  0.2585E+01  0.2822E-05  0.2820E-05  0.3835E-05  0.3845E-05  0.2822E-05  0.2820E-05  0.9911E-06  0.9947E-06  0.1198E-05  0.1202E-05  0.2713E-05  0.2736E-05  0.1198E-05  0.1202E-05  0.9911E-06  0.9947E-06
    -50.215  0.1573E+01  0.1569E+01  0.1409E-05  0.1402E-05  0.1978E-05  0.1976E-05  0.1409E-05  0.1402E-05  0.6010E-06  0.6009E-06  0.7846E-06  0.7841E-06  0.1630E-05  0.1638E-05  0.7846E-06  0.7841E-06  0.6010E-06  0.6009E-06
    -49.981  0.0000E+00  0.0000E+00  0.0000E+00  0.0000E+00  0.0000E+00  0.0000E+00  0.0000E+00  0.0000E+00  0.0000E+00  0.0000E+00  0.0000E+00  0.0000E+00  0.0000E+00  0.0000E+00  0.0000E+00  0.0000E+00  0.0000E+00  0.0000E+00
    -49.746  0.0000E+00  0.0000E+00  0.0000E+00  0.0000E+00  0.0000E+00  0.0000E+00  0.0000E+00  0.0000E+00  0.0000E+00  0.0000E+00  0.0000E+00  0.0000E+00  0.0000E+00  0.0000E+00  0.0000E+00  0.0000E+00  0.0000E+00  0.0000E+00
    -49.512  0.0000E+00  0.0000E+00  0.0000E+00  0.0000E+00  0.0000E+00  0.0000E+00  0.0000E+00  0.0000E+00  0.0000E+00  0.0000E+00  0.0000E+00  0.0000E+00  0.0000E+00  0.0000E+00  0.0000E+00  0.0000E+00  0.0000E+00  0.0000E+00
    -49.278  0.0000E+00  0.0000E+00  0.0000E+00  0.0000E+00  0.0000E+00  0.0000E+00  0.0000E+00  0.0000E+00  0.0000E+00  0.0000E+00  0.0000E+00  0.0000E+00  0.0000E+00  0.0000E+00  0.0000E+00  0.0000E+00  0.0000E+00  0.0000E+00
    -49.043  0.0000E+00  0.0000E+00  0.0000E+00  0.0000E+00  0.0000E+00  0.0000E+00  0.0000E+00  0.0000E+00  0.0000E+00  0.0000E+00  0.0000E+00  0.0000E+00  0.0000E+00  0.0000E+00  0.0000E+00  0.0000E+00  0.0000E+00  0.0000E+00
    -48.809  0.0000E+00  0.0000E+00  0.0000E+00  0.0000E+00  0.0000E+00  0.0000E+00  0.0000E+00  0.0000E+00  0.0000E+00  0.0000E+00  0.0000E+00  0.0000E+00  0.0000E+00  0.0000E+00  0.0000E+00  0.0000E+00  0.0000E+00  0.0000E+00
    -48.575  0.0000E+00  0.0000E+00  0.0000E+00  0.0000E+00  0.0000E+00  0.0000E+00  0.0000E+00  0.0000E+00  0.0000E+00  0.0000E+00  0.0000E+00  0.0000E+00  0.0000E+00  0.0000E+00  0.0000E+00  0.0000E+00  0.0000E+00  0.0000E+00
    -48.340  0.0000E+00  0.0000E+00  0.0000E+00  0.0000E+00  0.0000E+00  0.0000E+00  0.0000E+00  0.0000E+00  0.0000E+00  0.0000E+00  0.0000E+00  0.0000E+00  0.0000E+00  0.0000E+00  0.0000E+00  0.0000E+00  0.0000E+00  0.0000E+00
    -48.106  0.0000E+00  0.0000E+00  0.0000E+00  0.0000E+00  0.0000E+00  0.0000E+00  0.0000E+00  0.0000E+00  0.0000E+00  0.0000E+00  0.0000E+00  0.0000E+00  0.0000E+00  0.0000E+00  0.0000E+00  0.0000E+00  0.0000E+00  0.0000E+00
    -47.872  0.0000E+00  0.0000E+00  0.0000E+00  0.0000E+00  0.0000E+00  0.0000E+00  0.0000E+00  0.0000E+00  0.0000E+00  0.0000E+00  0.0000E+00  0.0000E+00  0.0000E+00  0.0000E+00  0.0000E+00  0.0000E+00  0.0000E+00  0.0000E+00
    -47.638  0.0000E+00  0.0000E+00  0.0000E+00  0.0000E+00  0.0000E+00  0.0000E+00  0.0000E+00  0.0000E+00  0.0000E+00  0.0000E+00  0.0000E+00  0.0000E+00  0.0000E+00  0.0000E+00  0.0000E+00  0.0000E+00  0.0000E+00  0.0000E+00
    -47.403  0.0000E+00  0.0000E+00  0.0000E+00  0.0000E+00  0.0000E+00  0.0000E+00  0.0000E+00  0.0000E+00  0.0000E+00  0.0000E+00  0.0000E+00  0.0000E+00  0.0000E+00  0.0000E+00  0.0000E+00  0.0000E+00  0.0000E+00  0.0000E+00
    -47.169  0.0000E+00  0.0000E+00  0.0000E+00  0.0000E+00  0.0000E+00  0.0000E+00  0.0000E+00  0.0000E+00  0.0000E+00  0.0000E+00  0.0000E+00  0.0000E+00  0.0000E+00  0.0000E+00  0.0000E+00  0.0000E+00  0.0000E+00  0.0000E+00
    -46.935  0.0000E+00  0.0000E+00  0.0000E+00  0.0000E+00  0.0000E+00  0.0000E+00  0.0000E+00  0.0000E+00  0.0000E+00  0.0000E+00  0.0000E+00  0.0000E+00  0.0000E+00  0.0000E+00  0.0000E+00  0.0000E+00  0.0000E+00  0.0000E+00
    -46.700  0.0000E+00  0.0000E+00  0.0000E+00  0.0000E+00  0.0000E+00  0.0000E+00  0.0000E+00  0.0000E+00  0.0000E+00  0.0000E+00  0.0000E+00  0.0000E+00  0.0000E+00  0.0000E+00  0.0000E+00  0.0000E+00  0.0000E+00  0.0000E+00
    -46.466  0.0000E+00  0.0000E+00  0.0000E+00  0.0000E+00  0.0000E+00  0.0000E+00  0.0000E+00  0.0000E+00  0.0000E+00  0.0000E+00  0.0000E+00  0.0000E+00  0.0000E+00  0.0000E+00  0.0000E+00  0.0000E+00  0.0000E+00  0.0000E+00
    -46.232  0.0000E+00  0.0000E+00  0.0000E+00  0.0000E+00  0.0000E+00  0.0000E+00  0.0000E+00  0.0000E+00  0.0000E+00  0.0000E+00  0.0000E+00  0.0000E+00  0.0000E+00  0.0000E+00  0.0000E+00  0.0000E+00  0.0000E+00  0.0000E+00
    -45.997  0.0000E+00  0.0000E+00  0.0000E+00  0.0000E+00  0.0000E+00  0.0000E+00  0.0000E+00  0.0000E+00  0.0000E+00  0.0000E+00  0.0000E+00  0.0000E+00  0.0000E+00  0.0000E+00  0.0000E+00  0.0000E+00  0.0000E+00  0.0000E+00
    -45.763  0.0000E+00  0.0000E+00  0.0000E+00  0.0000E+00  0.0000E+00  0.0000E+00  0.0000E+00  0.0000E+00  0.0000E+00  0.0000E+00  0.0000E+00  0.0000E+00  0.0000E+00  0.0000E+00  0.0000E+00  0.0000E+00  0.0000E+00  0.0000E+00
    -45.529  0.0000E+00  0.0000E+00  0.0000E+00  0.0000E+00  0.0000E+00  0.0000E+00  0.0000E+00  0.0000E+00  0.0000E+00  0.0000E+00  0.0000E+00  0.0000E+00  0.0000E+00  0.0000E+00  0.0000E+00  0.0000E+00  0.0000E+00  0.0000E+00
    -45.295  0.0000E+00  0.0000E+00  0.0000E+00  0.0000E+00  0.0000E+00  0.0000E+00  0.0000E+00  0.0000E+00  0.0000E+00  0.0000E+00  0.0000E+00  0.0000E+00  0.0000E+00  0.0000E+00  0.0000E+00  0.0000E+00  0.0000E+00  0.0000E+00
    -45.060  0.0000E+00  0.0000E+00  0.0000E+00  0.0000E+00  0.0000E+00  0.0000E+00  0.0000E+00  0.0000E+00  0.0000E+00  0.0000E+00  0.0000E+00  0.0000E+00  0.0000E+00  0.0000E+00  0.0000E+00  0.0000E+00  0.0000E+00  0.0000E+00
    -44.826  0.0000E+00  0.0000E+00  0.0000E+00  0.0000E+00  0.0000E+00  0.0000E+00  0.0000E+00  0.0000E+00  0.0000E+00  0.0000E+00  0.0000E+00  0.0000E+00  0.0000E+00  0.0000E+00  0.0000E+00  0.0000E+00  0.0000E+00  0.0000E+00
    -44.592  0.0000E+00  0.0000E+00  0.0000E+00  0.0000E+00  0.0000E+00  0.0000E+00  0.0000E+00  0.0000E+00  0.0000E+00  0.0000E+00  0.0000E+00  0.0000E+00  0.0000E+00  0.0000E+00  0.0000E+00  0.0000E+00  0.0000E+00  0.0000E+00
    -44.357  0.0000E+00  0.0000E+00  0.0000E+00  0.0000E+00  0.0000E+00  0.0000E+00  0.0000E+00  0.0000E+00  0.0000E+00  0.0000E+00  0.0000E+00  0.0000E+00  0.0000E+00  0.0000E+00  0.0000E+00  0.0000E+00  0.0000E+00  0.0000E+00
    -44.123  0.0000E+00  0.0000E+00  0.0000E+00  0.0000E+00  0.0000E+00  0.0000E+00  0.0000E+00  0.0000E+00  0.0000E+00  0.0000E+00  0.0000E+00  0.0000E+00  0.0000E+00  0.0000E+00  0.0000E+00  0.0000E+00  0.0000E+00  0.0000E+00
    -43.889  0.0000E+00  0.0000E+00  0.0000E+00  0.0000E+00  0.0000E+00  0.0000E+00  0.0000E+00  0.0000E+00  0.0000E+00  0.0000E+00  0.0000E+00  0.0000E+00  0.0000E+00  0.0000E+00  0.0000E+00  0.0000E+00  0.0000E+00  0.0000E+00
    -43.654  0.0000E+00  0.0000E+00  0.0000E+00  0.0000E+00  0.0000E+00  0.0000E+00  0.0000E+00  0.0000E+00  0.0000E+00  0.0000E+00  0.0000E+00  0.0000E+00  0.0000E+00  0.0000E+00  0.0000E+00  0.0000E+00  0.0000E+00  0.0000E+00
    -43.420  0.0000E+00  0.0000E+00  0.0000E+00  0.0000E+00  0.0000E+00  0.0000E+00  0.0000E+00  0.0000E+00  0.0000E+00  0.0000E+00  0.0000E+00  0.0000E+00  0.0000E+00  0.0000E+00  0.0000E+00  0.0000E+00  0.0000E+00  0.0000E+00
    -43.186  0.0000E+00  0.0000E+00  0.0000E+00  0.0000E+00  0.0000E+00  0.0000E+00  0.0000E+00  0.0000E+00  0.0000E+00  0.0000E+00  0.0000E+00  0.0000E+00  0.0000E+00  0.0000E+00  0.0000E+00  0.0000E+00  0.0000E+00  0.0000E+00
    -42.952  0.0000E+00  0.0000E+00  0.0000E+00  0.0000E+00  0.0000E+00  0.0000E+00  0.0000E+00  0.0000E+00  0.0000E+00  0.0000E+00  0.0000E+00  0.0000E+00  0.0000E+00  0.0000E+00  0.0000E+00  0.0000E+00  0.0000E+00  0.0000E+00
    -42.717  0.0000E+00  0.0000E+00  0.0000E+00  0.0000E+00  0.0000E+00  0.0000E+00  0.0000E+00  0.0000E+00  0.0000E+00  0.0000E+00  0.0000E+00  0.0000E+00  0.0000E+00  0.0000E+00  0.0000E+00  0.0000E+00  0.0000E+00  0.0000E+00
    -42.483  0.0000E+00  0.0000E+00  0.0000E+00  0.0000E+00  0.0000E+00  0.0000E+00  0.0000E+00  0.0000E+00  0.0000E+00  0.0000E+00  0.0000E+00  0.0000E+00  0.0000E+00  0.0000E+00  0.0000E+00  0.0000E+00  0.0000E+00  0.0000E+00
    -42.249  0.0000E+00  0.0000E+00  0.0000E+00  0.0000E+00  0.0000E+00  0.0000E+00  0.0000E+00  0.0000E+00  0.0000E+00  0.0000E+00  0.0000E+00  0.0000E+00  0.0000E+00  0.0000E+00  0.0000E+00  0.0000E+00  0.0000E+00  0.0000E+00
    -42.014  0.0000E+00  0.0000E+00  0.0000E+00  0.0000E+00  0.0000E+00  0.0000E+00  0.0000E+00  0.0000E+00  0.0000E+00  0.0000E+00  0.0000E+00  0.0000E+00  0.0000E+00  0.0000E+00  0.0000E+00  0.0000E+00  0.0000E+00  0.0000E+00