   2   2   1   0
  0.1838240E+02  0.2991727E-09  0.2991726E-09  0.4743051E-09  0.5000000E-15
  1.000000000000000E-004
  CAR 
 unknown system                          
     18.59455987    -52.44077353  301      7.75023525      1.00000000
    -52.441  0.0000E+00  0.0000E+00  0.0000E+00  0.0000E+00
    -52.204  0.0000E+00  0.0000E+00  0.0000E+00  0.0000E+00
    -51.967  0.0000E+00  0.0000E+00  0.0000E+00  0.0000E+00
    -51.730  0.0000E+00  0.0000E+00  0.0000E+00  0.0000E+00
    -51.494  0.0000E+00  0.0000E+00  0.0000E+00  0.0000E+00
    -51.257  0.0000E+00  0.0000E+00  0.0000E+00  0.0000E+00
    -51.020  0.0000E+00  0.0000E+00  0.0000E+00  0.0000E+00
    -50.783  0.0000E+00  0.0000E+00  0.0000E+00  0.0000E+00
    -50.546  0.0000E+00  0.0000E+00  0.0000E+00  0.0000E+00
    -50.310  0.0000E+00  0.0000E+00  0.0000E+00  0.0000E+00
    -50.073  0.0000E+00  0.0000E+00  0.0000E+00  0.0000E+00
    -49.836  0.1951E-06  0.2120E-06  0.4620E-07  0.5020E-07
    -49.599  0.6418E-03  0.6435E-03  0.1520E-03  0.1524E-03
    -49.363  0.7151E-01  0.7171E-01  0.1709E-01  0.1713E-01
    -49.126  0.3724E+01  0.3729E+01  0.8988E+00  0.9001E+00
    -48.889  0.4549E+01  0.4544E+01  0.1976E+01  0.1976E+01
    -48.652  0.0000E+00  0.0000E+00  0.2000E+01  0.2000E+01
    -48.415  0.0000E+00  0.0000E+00  0.2000E+01  0.2000E+01
    -48.179  0.0000E+00  0.0000E+00  0.2000E+01  0.2000E+01
    -47.942  0.0000E+00  0.0000E+00  0.2000E+01  0.2000E+01
    -47.705  0.0000E+00  0.0000E+00  0.2000E+01  0.2000E+01
    -47.468  0.0000E+00  0.0000E+00  0.2000E+01  0.2000E+01
    -47.232  0.0000E+00  0.0000E+00  0.2000E+01  0.2000E+01
    -46.995  0.0000E+00  0.0000E+00  0.2000E+01  0.2000E+01
    -46.758  0.0000E+00  0.0000E+00  0.2000E+01  0.2000E+01
    -46.521  0.0000E+00  0.0000E+00  0.2000E+01  0.2000E+01
    -46.284  0.0000E+00  0.0000E+00  0.2000E+01  0.2000E+01
    -46.048  0.0000E+00  0.0000E+00  0.2000E+01  0.2000E+01
    -45.811  0.0000E+00  0.0000E+00  0.2000E+01  0.2000E+01
    -45.574  0.0000E+00  0.0000E+00  0.2000E+01  0.2000E+01
    -45.337  0.0000E+00  0.0000E+00  0.2000E+01  0.2000E+01
    -45.100  0.0000E+00  0.0000E+00  0.2000E+01  0.2000E+01
    -44.864  0.0000E+00  0.0000E+00  0.2000E+01  0.2000E+01
    -44.627  0.0000E+00  0.0000E+00  0.2000E+01  0.2000E+01
    -44.390  0.0000E+00  0.0000E+00  0.2000E+01  0.2000E+01
    -44.153  0.0000E+00  0.0000E+00  0.2000E+01  0.2000E+01
    -43.917  0.0000E+00  0.0000E+00  0.2000E+01  0.2000E+01
    -43.680  0.0000E+00  0.0000E+00  0.2000E+01  0.2000E+01
    -43.443  0.0000E+00  0.0000E+00  0.2000E+01  0.2000E+01
    -43.206  0.0000E+00  0.0000E+00  0.2000E+01  0.2000E+01
    -42.969  0.0000E+00  0.0000E+00  0.2000E+01  0.2000E+01
    -42.733  0.0000E+00  0.0000E+00  0.2000E+01  0.2000E+01
    -42.496  0.0000E+00  0.0000E+00  0.2000E+01  0.2000E+01
    -42.259  0.0000E+00  0.0000E+00  0.2000E+01  0.2000E+01
    -42.022  0.0000E+00  0.0000E+00  0.2000E+01  0.2000E+01
    -41.785  0.0000E+00  0.0000E+00  0.2000E+01  0.2000E+01
    -41.549  0.0000E+00  0.0000E+00  0.2000E+01  0.2000E+01
    -41.312  0.0000E+00  0.0000E+00  0.2000E+01  0.2000E+01
    -41.075  0.0000E+00  0.0000E+00  0.2000E+01  0.2000E+01
    -40.838  0.0000E+00  0.0000E+00  0.2000E+01  0.2000E+01
    -40.602  0.0000E+00  0.0000E+00  0.2000E+01  0.2000E+01
    -40.365  0.0000E+00  0.0000E+00  0.2000E+01  0.2000E+01
    -40.128  0.0000E+00  0.0000E+00  0.2000E+01  0.2000E+01
    -39.891  0.0000E+00  0.0000E+00  0.2000E+01  0.2000E+01
    -39.654  0.0000E+00  0.0000E+00  0.2000E+01  0.2000E+01
    -39.418  0.0000E+00  0.0000E+00  0.2000E+01  0.2000E+01
    -39.181  0.0000E+00  0.0000E+00  0.2000E+01  0.2000E+01
    -38.944  0.0000E+00  0.0000E+00  0.2000E+01  0.2000E+01
    -38.707  0.0000E+00  0.0000E+00  0.2000E+01  0.2000E+01
    -38.470  0.0000E+00  0.0000E+00  0.2000E+01  0.2000E+01
    -38.234  0.0000E+00  0.0000E+00  0.2000E+01  0.2000E+01
    -37.997  0.0000E+00  0.0000E+00  0.2000E+01  0.2000E+01
    -37.760  0.0000E+00  0.0000E+00  0.2000E+01  0.2000E+01
    -37.523  0.0000E+00  0.0000E+00  0.2000E+01  0.2000E+01
    -37.287  0.0000E+00  0.0000E+00  0.2000E+01  0.2000E+01
    -37.050  0.0000E+00  0.0000E+00  0.2000E+01  0.2000E+01
    -36.813  0.0000E+00  0.0000E+00  0.2000E+01  0.2000E+01
    -36.576  0.0000E+00  0.0000E+00  0.2000E+01  0.2000E+01
    -36.339  0.0000E+00  0.0000E+00  0.2000E+01  0.2000E+01
    -36.103  0.0000E+00  0.0000E+00  0.2000E+01  0.2000E+01
    -35.866  0.0000E+00  0.0000E+00  0.2000E+01  0.2000E+01
    -35.629  0.0000E+00  0.0000E+00  0.2000E+01  0.2000E+01
    -35.392  0.0000E+00  0.0000E+00  0.2000E+01  0.2000E+01
    -35.156  0.0000E+00  0.0000E+00  0.2000E+01  0.2000E+01
    -34.919  0.0000E+00  0.0000E+00  0.2000E+01  0.2000E+01
    -34.682  0.0000E+00  0.0000E+00  0.2000E+01  0.2000E+01
    -34.445  0.0000E+00  0.0000E+00  0.2000E+01  0.2000E+01
    -34.208  0.0000E+00  0.0000E+00  0.2000E+01  0.2000E+01
    -33.972  0.0000E+00  0.0000E+00  0.2000E+01  0.2000E+01
    -33.735  0.0000E+00  0.0000E+00  0.2000E+01  0.2000E+01
    -33.498  0.0000E+00  0.0000E+00  0.2000E+01  0.2000E+01
    -33.261  0.0000E+00  0.0000E+00  0.2000E+01  0.2000E+01
    -33.024  0.0000E+00  0.0000E+00  0.2000E+01  0.2000E+01
    -32.788  0.0000E+00  0.0000E+00  0.2000E+01  0.2000E+01
    -32.551  0.0000E+00  0.0000E+00  0.2000E+01  0.2000E+01
    -32.314  0.0000E+00  0.0000E+00  0.2000E+01  0.2000E+01
    -32.077  0.0000E+00  0.0000E+00  0.2000E+01  0.2000E+01
    -31.841  0.0000E+00  0.0000E+00  0.2000E+01  0.2000E+01
    -31.604  0.0000E+00  0.0000E+00  0.2000E+01  0.2000E+01
    -31.367  0.0000E+00  0.0000E+00  0.2000E+01  0.2000E+01
    -31.130  0.0000E+00  0.0000E+00  0.2000E+01  0.2000E+01
    -30.893  0.0000E+00  0.0000E+00  0.2000E+01  0.2000E+01
    -30.657  0.0000E+00  0.0000E+00  0.2000E+01  0.2000E+01
    -30.420  0.0000E+00  0.0000E+00  0.2000E+01  0.2000E+01
    -30.183  0.0000E+00  0.0000E+00  0.2000E+01  0.2000E+01
    -29.946  0.0000E+00  0.0000E+00  0.2000E+01  0.2000E+01
    -29.709  0.0000E+00  0.0000E+00  0.2000E+01  0.2000E+01
    -29.473  0.0000E+00  0.0000E+00  0.2000E+01  0.2000E+01
    -29.236  0.0000E+00  0.0000E+00  0.2000E+01  0.2000E+01
    -28.999  0.0000E+00  0.0000E+00  0.2000E+01  0.2000E+01
    -28.762  0.0000E+00  0.0000E+00  0.2000E+01  0.2000E+01
    -28.526  0.0000E+00  0.0000E+00  0.2000E+01  0.2000E+01
    -28.289  0.0000E+00  0.0000E+00  0.2000E+01  0.2000E+01
    -28.052  0.0000E+00  0.0000E+00  0.2000E+01  0.2000E+01
    -27.815  0.0000E+00  0.0000E+00  0.2000E+01  0.2000E+01
    -27.578  0.0000E+00  0.0000E+00  0.2000E+01  0.2000E+01
    -27.342  0.0000E+00  0.0000E+00  0.2000E+01  0.2000E+01
    -27.105  0.0000E+00  0.0000E+00  0.2000E+01  0.2000E+01
    -26.868  0.0000E+00  0.0000E+00  0.2000E+01  0.2000E+01
    -26.631  0.0000E+00  0.0000E+00  0.2000E+01  0.2000E+01
    -26.394  0.0000E+00  0.0000E+00  0.2000E+01  0.2000E+01
    -26.158  0.9282E-04  0.9311E-04  0.2000E+01  0.2000E+01
    -25.921  0.1095E-01  0.1098E-01  0.2003E+01  0.2003E+01
    -25.684  0.9048E+00  0.9069E+00  0.2217E+01  0.2217E+01
    -25.447  0.6913E+01  0.6916E+01  0.3854E+01  0.3855E+01
    -25.211  0.1196E+02  0.1196E+02  0.6693E+01  0.6695E+01
    -24.974  0.5350E+01  0.5342E+01  0.7973E+01  0.7973E+01
    -24.737  0.1337E-01  0.1273E-01  0.8000E+01  0.8000E+01
    -24.500  0.0000E+00  0.0000E+00  0.8000E+01  0.8000E+01
    -24.263  0.0000E+00  0.0000E+00  0.8000E+01  0.8000E+01
    -24.027  0.0000E+00  0.0000E+00  0.8000E+01  0.8000E+01
    -23.790  0.0000E+00  0.0000E+00  0.8000E+01  0.8000E+01
    -23.553  0.0000E+00  0.0000E+00  0.8000E+01  0.8000E+01
    -23.316  0.0000E+00  0.0000E+00  0.8000E+01  0.8000E+01
    -23.080  0.0000E+00  0.0000E+00  0.8000E+01  0.8000E+01
    -22.843  0.0000E+00  0.0000E+00  0.8000E+01  0.8000E+01
    -22.606  0.0000E+00  0.0000E+00  0.8000E+01  0.8000E+01
    -22.369  0.0000E+00  0.0000E+00  0.8000E+01  0.8000E+01
    -22.132  0.0000E+00  0.0000E+00  0.8000E+01  0.8000E+01
    -21.896  0.0000E+00  0.0000E+00  0.8000E+01  0.8000E+01
    -21.659  0.0000E+00  0.0000E+00  0.8000E+01  0.8000E+01
    -21.422  0.0000E+00  0.0000E+00  0.8000E+01  0.8000E+01
    -21.185  0.0000E+00  0.0000E+00  0.8000E+01  0.8000E+01
    -20.948  0.0000E+00  0.0000E+00  0.8000E+01  0.8000E+01
    -20.712  0.0000E+00  0.0000E+00  0.8000E+01  0.8000E+01
    -20.475  0.0000E+00  0.0000E+00  0.8000E+01  0.8000E+01
    -20.238  0.0000E+00  0.0000E+00  0.8000E+01  0.8000E+01
    -20.001  0.0000E+00  0.0000E+00  0.8000E+01  0.8000E+01
    -19.765  0.0000E+00  0.0000E+00  0.8000E+01  0.8000E+01
    -19.528  0.0000E+00  0.0000E+00  0.8000E+01  0.8000E+01
    -19.291  0.0000E+00  0.0000E+00  0.8000E+01  0.8000E+01
    -19.054  0.0000E+00  0.0000E+00  0.8000E+01  0.8000E+01
    -18.817  0.0000E+00  0.0000E+00  0.8000E+01  0.8000E+01
    -18.581  0.0000E+00  0.0000E+00  0.8000E+01  0.8000E+01
    -18.344  0.0000E+00  0.0000E+00  0.8000E+01  0.8000E+01
    -18.107  0.0000E+00  0.0000E+00  0.8000E+01  0.8000E+01
    -17.870  0.0000E+00  0.0000E+00  0.8000E+01  0.8000E+01
    -17.633  0.0000E+00  0.0000E+00  0.8000E+01  0.8000E+01
    -17.397  0.0000E+00  0.0000E+00  0.8000E+01  0.8000E+01
    -17.160  0.0000E+00  0.0000E+00  0.8000E+01  0.8000E+01
    -16.923  0.0000E+00  0.0000E+00  0.8000E+01  0.8000E+01
    -16.686  0.0000E+00  0.0000E+00  0.8000E+01  0.8000E+01
    -16.450  0.0000E+00  0.0000E+00  0.8000E+01  0.8000E+01
    -16.213  0.0000E+00  0.0000E+00  0.8000E+01  0.8000E+01
    -15.976  0.0000E+00  0.0000E+00  0.8000E+01  0.8000E+01
    -15.739  0.0000E+00  0.0000E+00  0.8000E+01  0.8000E+01
    -15.502  0.0000E+00  0.0000E+00  0.8000E+01  0.8000E+01
    -15.266  0.0000E+00  0.0000E+00  0.8000E+01  0.8000E+01
    -15.029  0.0000E+00  0.0000E+00  0.8000E+01  0.8000E+01
    -14.792  0.0000E+00  0.0000E+00  0.8000E+01  0.8000E+01
    -14.555  0.0000E+00  0.0000E+00  0.8000E+01  0.8000E+01
    -14.318  0.0000E+00  0.0000E+00  0.8000E+01  0.8000E+01
    -14.082  0.0000E+00  0.0000E+00  0.8000E+01  0.8000E+01
    -13.845  0.0000E+00  0.0000E+00  0.8000E+01  0.8000E+01
    -13.608  0.0000E+00  0.0000E+00  0.8000E+01  0.8000E+01
    -13.371  0.0000E+00  0.0000E+00  0.8000E+01  0.8000E+01
    -13.135  0.0000E+00  0.0000E+00  0.8000E+01  0.8000E+01
    -12.898  0.0000E+00  0.0000E+00  0.8000E+01  0.8000E+01
    -12.661  0.0000E+00  0.0000E+00  0.8000E+01  0.8000E+01
    -12.424  0.0000E+00  0.0000E+00  0.8000E+01  0.8000E+01
    -12.187  0.0000E+00  0.0000E+00  0.8000E+01  0.8000E+01
    -11.951  0.0000E+00  0.0000E+00  0.8000E+01  0.8000E+01
    -11.714  0.0000E+00  0.0000E+00  0.8000E+01  0.8000E+01
    -11.477  0.0000E+00  0.0000E+00  0.8000E+01  0.8000E+01
    -11.240  0.0000E+00  0.0000E+00  0.8000E+01  0.8000E+01
    -11.003  0.0000E+00  0.0000E+00  0.8000E+01  0.8000E+01
    -10.767  0.0000E+00  0.0000E+00  0.8000E+01  0.8000E+01
    -10.530  0.0000E+00  0.0000E+00  0.8000E+01  0.8000E+01
    -10.293  0.0000E+00  0.0000E+00  0.8000E+01  0.8000E+01
    -10.056  0.0000E+00  0.0000E+00  0.8000E+01  0.8000E+01
     -9.820  0.0000E+00  0.0000E+00  0.8000E+01  0.8000E+01
     -9.583  0.0000E+00  0.0000E+00  0.8000E+01  0.8000E+01
     -9.346  0.0000E+00  0.0000E+00  0.8000E+01  0.8000E+01
     -9.109  0.0000E+00  0.0000E+00  0.8000E+01  0.8000E+01
     -8.872  0.0000E+00  0.0000E+00  0.8000E+01  0.8000E+01
     -8.636  0.0000E+00  0.0000E+00  0.8000E+01  0.8000E+01
     -8.399  0.0000E+00  0.0000E+00  0.8000E+01  0.8000E+01
     -8.162  0.0000E+00  0.0000E+00  0.8000E+01  0.8000E+01
     -7.925  0.0000E+00  0.0000E+00  0.8000E+01  0.8000E+01
     -7.689  0.0000E+00  0.0000E+00  0.8000E+01  0.8000E+01
     -7.452  0.0000E+00  0.0000E+00  0.8000E+01  0.8000E+01
     -7.215  0.0000E+00  0.0000E+00  0.8000E+01  0.8000E+01
     -6.978  0.0000E+00  0.0000E+00  0.8000E+01  0.8000E+01
     -6.741  0.0000E+00  0.0000E+00  0.8000E+01  0.8000E+01
     -6.505  0.0000E+00  0.0000E+00  0.8000E+01  0.8000E+01
     -6.268  0.0000E+00  0.0000E+00  0.8000E+01  0.8000E+01
     -6.031  0.0000E+00  0.0000E+00  0.8000E+01  0.8000E+01
     -5.794  0.0000E+00  0.0000E+00  0.8000E+01  0.8000E+01
     -5.557  0.0000E+00  0.0000E+00  0.8000E+01  0.8000E+01
     -5.321  0.0000E+00  0.0000E+00  0.8000E+01  0.8000E+01
     -5.084  0.0000E+00  0.0000E+00  0.8000E+01  0.8000E+01
     -4.847  0.0000E+00  0.0000E+00  0.8000E+01  0.8000E+01
     -4.610  0.0000E+00  0.0000E+00  0.8000E+01  0.8000E+01
     -4.374  0.0000E+00  0.0000E+00  0.8000E+01  0.8000E+01
     -4.137  0.0000E+00  0.0000E+00  0.8000E+01  0.8000E+01
     -3.900  0.0000E+00  0.0000E+00  0.8000E+01  0.8000E+01
     -3.663  0.0000E+00  0.0000E+00  0.8000E+01  0.8000E+01
     -3.426  0.0000E+00  0.0000E+00  0.8000E+01  0.8000E+01
     -3.190  0.0000E+00  0.0000E+00  0.8000E+01  0.8000E+01
     -2.953  0.0000E+00  0.0000E+00  0.8000E+01  0.8000E+01
     -2.716  0.0000E+00  0.0000E+00  0.8000E+01  0.8000E+01
     -2.479  0.0000E+00  0.0000E+00  0.8000E+01  0.8000E+01
     -2.242  0.0000E+00  0.0000E+00  0.8000E+01  0.8000E+01
     -2.006  0.0000E+00  0.0000E+00  0.8000E+01  0.8000E+01
     -1.769  0.0000E+00  0.0000E+00  0.8000E+01  0.8000E+01
     -1.532  0.0000E+00  0.0000E+00  0.8000E+01  0.8000E+01
     -1.295  0.0000E+00  0.0000E+00  0.8000E+01  0.8000E+01
     -1.059  0.0000E+00  0.0000E+00  0.8000E+01  0.8000E+01
     -0.822  0.0000E+00  0.0000E+00  0.8000E+01  0.8000E+01
     -0.585  0.0000E+00  0.0000E+00  0.8000E+01  0.8000E+01
     -0.348  0.0000E+00  0.0000E+00  0.8000E+01  0.8000E+01
     -0.111  0.0000E+00  0.0000E+00  0.8000E+01  0.8000E+01
      0.125  0.0000E+00  0.0000E+00  0.8000E+01  0.8000E+01
      0.362  0.0000E+00  0.0000E+00  0.8000E+01  0.8000E+01
      0.599  0.0000E+00  0.0000E+00  0.8000E+01  0.8000E+01
      0.836  0.0000E+00  0.0000E+00  0.8000E+01  0.8000E+01
      1.073  0.1529E-07  0.1525E-07  0.8000E+01  0.8000E+01
      1.309  0.2777E-05  0.2768E-05  0.8000E+01  0.8000E+01
      1.546  0.3018E-03  0.3009E-03  0.8000E+01  0.8000E+01
      1.783  0.1099E-01  0.1098E-01  0.8003E+01  0.8003E+01
      2.020  0.4541E-01  0.4540E-01  0.8013E+01  0.8013E+01
      2.256  0.7150E-01  0.7145E-01  0.8030E+01  0.8030E+01
      2.493  0.8119E-01  0.8121E-01  0.8050E+01  0.8050E+01
      2.730  0.1034E+00  0.1033E+00  0.8074E+01  0.8074E+01
      2.967  0.1205E+00  0.1205E+00  0.8103E+01  0.8103E+01
      3.204  0.1540E+00  0.1540E+00  0.8140E+01  0.8140E+01
      3.440  0.1173E+00  0.1172E+00  0.8168E+01  0.8168E+01
      3.677  0.2300E+00  0.2300E+00  0.8222E+01  0.8222E+01
      3.914  0.1805E+00  0.1804E+00  0.8265E+01  0.8265E+01
      4.151  0.2153E+00  0.2151E+00  0.8317E+01  0.8317E+01
      4.387  0.2639E+00  0.2639E+00  0.8380E+01  0.8379E+01
      4.624  0.3542E+00  0.3543E+00  0.8464E+01  0.8464E+01
      4.861  0.3562E+00  0.3564E+00  0.8549E+01  0.8549E+01
      5.098  0.4379E+00  0.4377E+00  0.8653E+01  0.8653E+01
      5.335  0.9225E+00  0.9226E+00  0.8872E+01  0.8872E+01
      5.571  0.8266E+00  0.8266E+00  0.9069E+01  0.9069E+01
      5.808  0.1037E+01  0.1037E+01  0.9317E+01  0.9317E+01
      6.045  0.1214E+01  0.1215E+01  0.9606E+01  0.9606E+01
      6.282  0.1431E+01  0.1431E+01  0.9947E+01  0.9947E+01
      6.519  0.1244E+01  0.1244E+01  0.1024E+02  0.1024E+02
      6.755  0.1349E+01  0.1349E+01  0.1056E+02  0.1056E+02
      6.992  0.1720E+01  0.1719E+01  0.1097E+02  0.1097E+02
      7.229  0.1972E+01  0.1972E+01  0.1144E+02  0.1144E+02
      7.466  0.1241E+01  0.1241E+01  0.1174E+02  0.1174E+02
      7.702  0.8828E+00  0.8828E+00  0.1195E+02  0.1195E+02
      7.939  0.1422E+01  0.1422E+01  0.1229E+02  0.1229E+02
      8.176  0.2224E+01  0.2224E+01  0.1282E+02  0.1282E+02
      8.413  0.2320E+01  0.2320E+01  0.1337E+02  0.1337E+02
      8.650  0.2526E+01  0.2526E+01  0.1397E+02  0.1397E+02
      8.886  0.2598E+01  0.2598E+01  0.1459E+02  0.1459E+02
      9.123  0.1713E+01  0.1713E+01  0.1501E+02  0.1501E+02
      9.360  0.1269E+01  0.1269E+01  0.1531E+02  0.1531E+02
      9.597  0.1111E+01  0.1111E+01  0.1557E+02  0.1557E+02
      9.834  0.1175E+01  0.1175E+01  0.1585E+02  0.1585E+02
     10.070  0.1216E+01  0.1216E+01  0.1614E+02  0.1614E+02
     10.307  0.1413E+01  0.1414E+01  0.1648E+02  0.1648E+02
     10.544  0.1942E+01  0.1942E+01  0.1694E+02  0.1694E+02
     10.781  0.3017E+01  0.3018E+01  0.1766E+02  0.1766E+02
     11.017  0.3335E+01  0.3335E+01  0.1846E+02  0.1846E+02
     11.254  0.1182E+01  0.1181E+01  0.1874E+02  0.1874E+02
     11.491  0.7496E+00  0.7495E+00  0.1892E+02  0.1892E+02
     11.728  0.4898E+00  0.4897E+00  0.1904E+02  0.1904E+02
     11.965  0.5009E+00  0.5006E+00  0.1916E+02  0.1916E+02
     12.201  0.5247E+00  0.5246E+00  0.1928E+02  0.1928E+02
     12.438  0.3644E+00  0.3636E+00  0.1937E+02  0.1937E+02
     12.675  0.3524E+00  0.3522E+00  0.1946E+02  0.1946E+02
     12.912  0.4331E+00  0.4307E+00  0.1956E+02  0.1956E+02
     13.149  0.3236E+00  0.3258E+00  0.1964E+02  0.1964E+02
     13.385  0.4246E+00  0.4260E+00  0.1974E+02  0.1974E+02
     13.622  0.2576E+00  0.2561E+00  0.1980E+02  0.1980E+02
     13.859  0.2157E+00  0.2191E+00  0.1985E+02  0.1985E+02
     14.096  0.2704E+00  0.2826E+00  0.1992E+02  0.1992E+02
     14.332  0.1694E+00  0.1544E+00  0.1996E+02  0.1996E+02
     14.569  0.5605E-01  0.5693E-01  0.1997E+02  0.1997E+02
     14.806  0.4686E-01  0.4744E-01  0.1998E+02  0.1998E+02
     15.043  0.4229E-01  0.4214E-01  0.1999E+02  0.1999E+02
     15.280  0.2052E-01  0.2028E-01  0.2000E+02  0.2000E+02
     15.516  0.1333E-01  0.1335E-01  0.2000E+02  0.2000E+02
     15.753  0.7593E-03  0.7727E-03  0.2000E+02  0.2000E+02
     15.990  0.0000E+00  0.0000E+00  0.2000E+02  0.2000E+02
     16.227  0.0000E+00  0.0000E+00  0.2000E+02  0.2000E+02
     16.463  0.0000E+00  0.0000E+00  0.2000E+02  0.2000E+02
     16.700  0.0000E+00  0.0000E+00  0.2000E+02  0.2000E+02
     16.937  0.0000E+00  0.0000E+00  0.2000E+02  0.2000E+02
     17.174  0.0000E+00  0.0000E+00  0.2000E+02  0.2000E+02
     17.411  0.0000E+00  0.0000E+00  0.2000E+02  0.2000E+02
     17.647  0.0000E+00  0.0000E+00  0.2000E+02  0.2000E+02
     17.884  0.0000E+00  0.0000E+00  0.2000E+02  0.2000E+02
     18.121  0.0000E+00  0.0000E+00  0.2000E+02  0.2000E+02
     18.358  0.0000E+00  0.0000E+00  0.2000E+02  0.2000E+02
     18.595  0.0000E+00  0.0000E+00  0.2000E+02  0.2000E+02
     18.59455987    -52.44077353  301      7.75023525      1.00000000
    -52.441  0.0000E+00  0.0000E+00  0.0000E+00  0.0000E+00  0.0000E+00  0.0000E+00  0.0000E+00  0.0000E+00  0.0000E+00  0.0000E+00  0.0000E+00  0.0000E+00  0.0000E+00  0.0000E+00  0.0000E+00  0.0000E+00  0.0000E+00  0.0000E+00
    -52.204  0.0000E+00  0.0000E+00  0.0000E+00  0.0000E+00  0.0000E+00  0.0000E+00  0.0000E+00  0.0000E+00  0.0000E+00  0.0000E+00  0.0000E+00  0.0000E+00  0.0000E+00  0.0000E+00  0.0000E+00  0.0000E+00  0.0000E+00  0.0000E+00
    -51.967  0.0000E+00  0.0000E+00  0.0000E+00  0.0000E+00  0.0000E+00  0.0000E+00  0.0000E+00  0.0000E+00  0.0000E+00  0.0000E+00  0.0000E+00  0.0000E+00  0.0000E+00  0.0000E+00  0.0000E+00  0.0000E+00  0.0000E+00  0.0000E+00
    -51.730  0.0000E+00  0.0000E+00  0.0000E+00  0.0000E+00  0.0000E+00  0.0000E+00  0.0000E+00  0.0000E+00  0.0000E+00  0.0000E+00  0.0000E+00  0.0000E+00  0.0000E+00  0.0000E+00  0.0000E+00  0.0000E+00  0.0000E+00  0.0000E+00
    -51.494  0.0000E+00  0.0000E+00  0.0000E+00  0.0000E+00  0.0000E+00  0.0000E+00  0.0000E+00  0.0000E+00  0.0000E+00  0.0000E+00  0.0000E+00  0.0000E+00  0.0000E+00  0.0000E+00  0.0000E+00  0.0000E+00  0.0000E+00  0.0000E+00
    -51.257  0.0000E+00  0.0000E+00  0.0000E+00  0.0000E+00  0.0000E+00  0.0000E+00  0.0000E+00  0.0000E+00  0.0000E+00  0.0000E+00  0.0000E+00  0.0000E+00  0.0000E+00  0.0000E+00  0.0000E+00  0.0000E+00  0.0000E+00  0.0000E+00
    -51.020  0.0000E+00  0.0000E+00  0.0000E+00  0.0000E+00  0.0000E+00  0.0000E+00  0.0000E+00  0.0000E+00  0.0000E+00  0.0000E+00  0.0000E+00  0.0000E+00  0.0000E+00  0.0000E+00  0.0000E+00  0.0000E+00  0.0000E+00  0.0000E+00
    -50.783  0.0000E+00  0.0000E+00  0.0000E+00  0.0000E+00  0.0000E+00  0.0000E+00  0.0000E+00  0.0000E+00  0.0000E+00  0.0000E+00  0.0000E+00  0.0000E+00  0.0000E+00  0.0000E+00  0.0000E+00  0.0000E+00  0.0000E+00  0.0000E+00
    -50.546  0.0000E+00  0.0000E+00  0.0000E+00  0.0000E+00  0.0000E+00  0.0000E+00  0.0000E+00  0.0000E+00  0.0000E+00  0.0000E+00  0.0000E+00  0.0000E+00  0.0000E+00  0.0000E+00  0.0000E+00  0.0000E+00  0.0000E+00  0.0000E+00
    -50.310  0.0000E+00  0.0000E+00  0.0000E+00  0.0000E+00  0.0000E+00  0.0000E+00  0.0000E+00  0.0000E+00  0.0000E+00  0.0000E+00  0.0000E+00  0.0000E+00  0.0000E+00  0.0000E+00  0.0000E+00  0.0000E+00  0.0000E+00  0.0000E+00
    -50.073  0.0000E+00  0.0000E+00  0.0000E+00  0.0000E+00  0.0000E+00  0.0000E+00  0.0000E+00  0.0000E+00  0.0000E+00  0.0000E+00  0.0000E+00  0.0000E+00  0.0000E+00  0.0000E+00  0.0000E+00  0.0000E+00  0.0000E+00  0.0000E+00
    -49.836  0.9680E-07  0.1052E-06  0.1261E-12  0.1267E-12  0.1566E-12  0.2324E-12  0.1261E-12  0.1267E-12  0.2735E-14  0.2742E-14  0.1201E-14  0.1204E-14  0.1107E-12  0.1160E-12  0.1201E-14  0.1204E-14  0.2735E-14  0.2742E-14
    -49.599  0.3191E-03  0.3199E-03  0.1193E-08  0.1197E-08  0.1522E-08  0.1528E-08  0.1193E-08  0.1197E-08  0.2988E-09  0.2996E-09  0.3130E-09  0.3139E-09  0.6456E-09  0.6477E-09  0.3130E-09  0.3139E-09  0.2988E-09  0.2996E-09
    -49.363  0.3555E-01  0.3565E-01  0.1326E-06  0.1331E-06  0.1694E-06  0.1700E-06  0.1326E-06  0.1331E-06  0.3342E-07  0.3351E-07  0.3507E-07  0.3516E-07  0.7207E-07  0.7230E-07  0.3507E-07  0.3516E-07  0.3342E-07  0.3351E-07
    -49.126  0.1852E+01  0.1855E+01  0.6028E-05  0.6040E-05  0.7953E-05  0.7968E-05  0.6028E-05  0.6040E-05  0.1927E-05  0.1930E-05  0.2179E-05  0.2182E-05  0.3951E-05  0.3959E-05  0.2179E-05  0.2182E-05  0.1927E-05  0.1930E-05
    -48.889  0.2264E+01  0.2261E+01  0.5345E-05  0.5342E-05  0.7436E-05  0.7432E-05  0.5345E-05  0.5342E-05  0.2364E-05  0.2361E-05  0.3036E-05  0.3033E-05  0.4803E-05  0.4800E-05  0.3036E-05  0.3033E-05  0.2364E-05  0.2361E-05
    -48.652  0.0000E+00  0.0000E+00  0.0000E+00  0.0000E+00  0.0000E+00  0.0000E+00  0.0000E+00  0.0000E+00  0.0000E+00  0.0000E+00  0.0000E+00  0.0000E+00  0.0000E+00  0.0000E+00  0.0000E+00  0.0000E+00  0.0000E+00  0.0000E+00
    -48.415  0.0000E+00  0.0000E+00  0.0000E+00  0.0000E+00  0.0000E+00  0.0000E+00  0.0000E+00  0.0000E+00  0.0000E+00  0.0000E+00  0.0000E+00  0.0000E+00  0.0000E+00  0.0000E+00  0.0000E+00  0.0000E+00  0.0000E+00  0.0000E+00
    -48.179  0.0000E+00  0.0000E+00  0.0000E+00  0.0000E+00  0.0000E+00  0.0000E+00  0.0000E+00  0.0000E+00  0.0000E+00  0.0000E+00  0.0000E+00  0.0000E+00  0.0000E+00  0.0000E+00  0.0000E+00  0.0000E+00  0.0000E+00  0.0000E+00
    -47.942  0.0000E+00  0.0000E+00  0.0000E+00  0.0000E+00  0.0000E+00  0.0000E+00  0.0000E+00  0.0000E+00  0.0000E+00  0.0000E+00  0.0000E+00  0.0000E+00  0.0000E+00  0.0000E+00  0.0000E+00  0.0000E+00  0.0000E+00  0.0000E+00
    -47.705  0.0000E+00  0.0000E+00  0.0000E+00  0.0000E+00  0.0000E+00  0.0000E+00  0.0000E+00  0.0000E+00  0.0000E+00  0.0000E+00  0.0000E+00  0.0000E+00  0.0000E+00  0.0000E+00  0.0000E+00  0.0000E+00  0.0000E+00  0.0000E+00
    -47.468  0.0000E+00  0.0000E+00  0.0000E+00  0.0000E+00  0.0000E+00  0.0000E+00  0.0000E+00  0.0000E+00  0.0000E+00  0.0000E+00  0.0000E+00  0.0000E+00  0.0000E+00  0.0000E+00  0.0000E+00  0.0000E+00  0.0000E+00  0.0000E+00
    -47.232  0.0000E+00  0.0000E+00  0.0000E+00  0.0000E+00  0.0000E+00  0.0000E+00  0.0000E+00  0.0000E+00  0.0000E+00  0.0000E+00  0.0000E+00  0.0000E+00  0.0000E+00  0.0000E+00  0.0000E+00  0.0000E+00  0.0000E+00  0.0000E+00
    -46.995  0.0000E+00  0.0000E+00  0.0000E+00  0.0000E+00  0.0000E+00  0.0000E+00  0.0000E+00  0.0000E+00  0.0000E+00  0.0000E+00  0.0000E+00  0.0000E+00  0.0000E+00  0.0000E+00  0.0000E+00  0.0000E+00  0.0000E+00  0.0000E+00
    -46.758  0.0000E+00  0.0000E+00  0.0000E+00  0.0000E+00  0.0000E+00  0.0000E+00  0.0000E+00  0.0000E+00  0.0000E+00  0.0000E+00  0.0000E+00  0.0000E+00  0.0000E+00  0.0000E+00  0.0000E+00  0.0000E+00  0.0000E+00  0.0000E+00
    -46.521  0.0000E+00  0.0000E+00  0.0000E+00  0.0000E+00  0.0000E+00  0.0000E+00  0.0000E+00  0.0000E+00  0.0000E+00  0.0000E+00  0.0000E+00  0.0000E+00  0.0000E+00  0.0000E+00  0.0000E+00  0.0000E+00  0.0000E+00  0.0000E+00
    -46.284  0.0000E+00  0.0000E+00  0.0000E+00  0.0000E+00  0.0000E+00  0.0000E+00  0.0000E+00  0.0000E+00  0.0000E+00  0.0000E+00  0.0000E+00  0.0000E+00  0.0000E+00  0.0000E+00  0.0000E+00  0.0000E+00  0.0000E+00  0.0000E+00
    -46.048  0.0000E+00  0.0000E+00  0.0000E+00  0.0000E+00  0.0000E+00  0.0000E+00  0.0000E+00  0.0000E+00  0.0000E+00  0.0000E+00  0.0000E+00  0.0000E+00  0.0000E+00  0.0000E+00  0.0000E+00  0.0000E+00  0.0000E+00  0.0000E+00
    -45.811  0.0000E+00  0.0000E+00  0.0000E+00  0.0000E+00  0.0000E+00  0.0000E+00  0.0000E+00  0.0000E+00  0.0000E+00  0.0000E+00  0.0000E+00  0.0000E+00  0.0000E+00  0.0000E+00  0.0000E+00  0.0000E+00  0.0000E+00  0.0000E+00
    -45.574  0.0000E+00  0.0000E+00  0.0000E+00  0.0000E+00  0.0000E+00  0.0000E+00  0.0000E+00  0.0000E+00  0.0000E+00  0.0000E+00  0.0000E+00  0.0000E+00  0.0000E+00  0.0000E+00  0.0000E+00  0.0000E+00  0.0000E+00  0.0000E+00
    -45.337  0.0000E+00  0.0000E+00  0.0000E+00  0.0000E+00  0.0000E+00  0.0000E+00  0.0000E+00  0.0000E+00  0.0000E+00  0.0000E+00  0.0000E+00  0.0000E+00  0.0000E+00  0.0000E+00  0.0000E+00  0.0000E+00  0.0000E+00  0.0000E+00
    -45.100  0.0000E+00  0.0000E+00  0.0000E+00  0.0000E+00  0.0000E+00  0.0000E+00  0.0000E+00  0.0000E+00  0.0000E+00  0.0000E+00  0.0000E+00  0.0000E+00  0.0000E+00  0.0000E+00  0.0000E+00  0.0000E+00  0.0000E+00  0.0000E+00
    -44.864  0.0000E+00  0.0000E+00  0.0000E+00  0.0000E+00  0.0000E+00  0.0000E+00  0.0000E+00  0.0000E+00  0.0000E+00  0.0000E+00  0.0000E+00  0.0000E+00  0.0000E+00  0.0000E+00  0.0000E+00  0.0000E+00  0.0000E+00  0.0000E+00
    -44.627  0.0000E+00  0.0000E+00  0.0000E+00  0.0000E+00  0.0000E+00  0.0000E+00  0.0000E+00  0.0000E+00  0.0000E+00  0.0000E+00  0.0000E+00  0.0000E+00  0.0000E+00  0.0000E+00  0.0000E+00  0.0000E+00  0.0000E+00  0.0000E+00
    -44.390  0.0000E+00  0.0000E+00  0.0000E+00  0.0000E+00  0.0000E+00  0.0000E+00  0.0000E+00  0.0000E+00  0.0000E+00  0.0000E+00  0.0000E+00  0.0000E+00  0.0000E+00  0.0000E+00  0.0000E+00  0.0000E+00  0.0000E+00  0.0000E+00
    -44.153  0.0000E+00  0.0000E+00  0.0000E+00  0.0000E+00  0.0000E+00  0.0000E+00  0.0000E+00  0.0000E+00  0.0000E+00  0.0000E+00  0.0000E+00  0.0000E+00  0.0000E+00  0.0000E+00  0.0000E+00  0.0000E+00  0.0000E+00  0.0000E+00
    -43.917  0.0000E+00  0.0000E+00  0.0000E+00  0.0000E+00  0.0000E+00  0.0000E+00  0.0000E+00  0.0000E+00  0.0000E+00  0.0000E+00  0.0000E+00  0.0000E+00  0.0000E+00  0.0000E+00  0.0000E+00  0.0000E+00  0.0000E+00  0.0000E+00
    -43.680  0.0000E+00  0.0000E+00  0.0000E+00  0.0000E+00  0.0000E+00  0.0000E+00  0.0000E+00  0.0000E+00  0.0000E+00  0.0000E+00  0.0000E+00  0.0000E+00  0.0000E+00  0.0000E+00  0.0000E+00  0.0000E+00  0.0000E+00  0.0000E+00
    -43.443  0.0000E+00  0.0000E+00  0.0000E+00  0.0000E+00  0.0000E+00  0.0000E+00  0.0000E+00  0.0000E+00  0.0000E+00  0.0000E+00  0.0000E+00  0.0000E+00  0.0000E+00  0.0000E+00  0.0000E+00  0.0000E+00  0.0000E+00  0.0000E+00
    -43.206  0.0000E+00  0.0000E+00  0.0000E+00  0.0000E+00  0.0000E+00  0.0000E+00  0.0000E+00  0.0000E+00  0.0000E+00  0.0000E+00  0.0000E+00  0.0000E+00  0.0000E+00  0.0000E+00  0.0000E+00  0.0000E+00  0.0000E+00  0.0000E+00
    -42.969  0.0000E+00  0.0000E+00  0.0000E+00  0.0000E+00  0.0000E+00  0.0000E+00  0.0000E+00  0.0000E+00  0.0000E+00  0.0000E+00  0.0000E+00  0.0000E+00  0.0000E+00  0.0000E+00  0.0000E+00  0.0000E+00  0.0000E+00  0.0000E+00
    -42.733  0.0000E+00  0.0000E+00  0.0000E+00  0.0000E+00  0.0000E+00  0.0000E+00  0.0000E+00  0.0000E+00  0.0000E+00  0.0000E+00  0.0000E+00  0.0000E+00  0.0000E+00  0.0000E+00  0.0000E+00  0.0000E+00  0.0000E+00  0.0000E+00
    -42.496  0.0000E+00  0.0000E+00  0.0000E+00  0.0000E+00  0.0000E+00  0.0000E+00  0.0000E+00  0.0000E+00  0.0000E+00  0.0000E+00  0.0000E+00  0.0000E+00  0.0000E+00  0.0000E+00  0.0000E+00  0.0000E+00  0.0000E+00  0.0000E+00
    -42.259  0.0000E+00  0.0000E+00  0.0000E+00  0.0000E+00  0.0000E+00  0.0000E+00  0.0000E+00  0.0000E+00  0.0000E+00  0.0000E+00  0.0000E+00  0.0000E+00  0.0000E+00  0.0000E+00  0.0000E+00  0.0000E+00  0.0000E+00  0.0000E+00
    -42.022  0.0000E+00  0.0000E+00  0.0000E+00  0.0000E+00  0.0000E+00  0.0000E+00  0.0000E+00  0.0000E+00  0.0000E+00  0.0000E+00  0.0000E+00  0.0000E+00  0.0000E+00  0.0000E+00  0.0000E+00  0.0000E+00  0.0000E+00  0.0000E+00
    -41.785  0.0000E+00  0.0000E+00  0.0000E+00  0.0000E+00  0.0000E+00  0.0000E+00  0.0000E+00  0.0000E+00  0.0000E+00  0.0000E+00  0.0000E+00  0.0000E+00  0.0000E+00  0.0000E+00  0.0000E+00  0.0000E+00  0.0000E+00  0.0000E+00
    -41.549  0.0000E+00  0.0000E+00  0.0000E+00  0.0000E+00  0.0000E+00  0.0000E+00  0.0000E+00  0.0000E+00  0.0000E+00  0.0000E+00  0.0000E+00  0.0000E+00  0.0000E+00  0.0000E+00  0.0000E+00  0.0000E+00  0.0000E+00  0.0000E+00
    -41.312  0.0000E+00  0.0000E+00  0.0000E+00  0.0000E+00  0.0000E+00  0.0000E+00  0.0000E+00  0.0000E+00  0.0000E+00  0.0000E+00  0.0000E+00  0.0000E+00  0.0000E+00  0.0000E+00  0.0000E+00  0.0000E+00  0.0000E+00  0.0000E+00
    -41.075  0.0000E+00  0.0000E+00  0.0000E+00  0.0000E+00  0.0000E+00  0.0000E+00  0.0000E+00  0.0000E+00  0.0000E+00  0.0000E+00  0.0000E+00  0.0000E+00  0.0000E+00  0.0000E+00  0.0000E+00  0.0000E+00  0.0000E+00  0.0000E+00
    -40.838  0.0000E+00  0.0000E+00  0.0000E+00  0.0000E+00  0.0000E+00  0.0000E+00  0.0000E+00  0.0000E+00  0.0000E+00  0.0000E+00  0.0000E+00  0.0000E+00  0.0000E+00  0.0000E+00  0.0000E+00  0.0000E+00  0.0000E+00  0.0000E+00
    -40.602  0.0000E+00  0.0000E+00  0.0000E+00  0.0000E+00  0.0000E+00  0.0000E+00  0.0000E+00  0.0000E+00  0.0000E+00  0.0000E+00  0.0000E+00  0.0000E+00  0.0000E+00  0.0000E+00  0.0000E+00  0.0000E+00  0.0000E+00  0.0000E+00