   2   2   1   0
  0.2122037E+02  0.3138380E-09  0.3138380E-09  0.4975553E-09  0.5000000E-15
  1.000000000000000E-004
  CAR 
 unknown system                          
     16.11012126    -54.01671789  301      6.37949980      1.00000000
    -54.017  0.0000E+00  0.0000E+00  0.0000E+00  0.0000E+00
    -53.783  0.0000E+00  0.0000E+00  0.0000E+00  0.0000E+00
    -53.549  0.0000E+00  0.0000E+00  0.0000E+00  0.0000E+00
    -53.315  0.0000E+00  0.0000E+00  0.0000E+00  0.0000E+00
    -53.082  0.0000E+00  0.0000E+00  0.0000E+00  0.0000E+00
    -52.848  0.0000E+00  0.0000E+00  0.0000E+00  0.0000E+00
    -52.614  0.0000E+00  0.0000E+00  0.0000E+00  0.0000E+00
    -52.380  0.0000E+00  0.0000E+00  0.0000E+00  0.0000E+00
    -52.147  0.0000E+00  0.0000E+00  0.0000E+00  0.0000E+00
    -51.913  0.0000E+00  0.0000E+00  0.0000E+00  0.0000E+00
    -51.679  0.0000E+00  0.0000E+00  0.0000E+00  0.0000E+00
    -51.445  0.1435E-05  0.1085E-05  0.3353E-06  0.2535E-06
    -51.212  0.1511E-02  0.1469E-02  0.3536E-03  0.3438E-03
    -50.978  0.1574E+00  0.1531E+00  0.3714E-01  0.3612E-01
    -50.744  0.5449E+01  0.5400E+01  0.1311E+01  0.1298E+01
    -50.510  0.2905E+01  0.2958E+01  0.1990E+01  0.1990E+01
    -50.277  0.0000E+00  0.0000E+00  0.2000E+01  0.2000E+01
    -50.043  0.0000E+00  0.0000E+00  0.2000E+01  0.2000E+01
    -49.809  0.0000E+00  0.0000E+00  0.2000E+01  0.2000E+01
    -49.575  0.0000E+00  0.0000E+00  0.2000E+01  0.2000E+01
    -49.342  0.0000E+00  0.0000E+00  0.2000E+01  0.2000E+01
    -49.108  0.0000E+00  0.0000E+00  0.2000E+01  0.2000E+01
    -48.874  0.0000E+00  0.0000E+00  0.2000E+01  0.2000E+01
    -48.640  0.0000E+00  0.0000E+00  0.2000E+01  0.2000E+01
    -48.407  0.0000E+00  0.0000E+00  0.2000E+01  0.2000E+01
    -48.173  0.0000E+00  0.0000E+00  0.2000E+01  0.2000E+01
    -47.939  0.0000E+00  0.0000E+00  0.2000E+01  0.2000E+01
    -47.705  0.0000E+00  0.0000E+00  0.2000E+01  0.2000E+01
    -47.472  0.0000E+00  0.0000E+00  0.2000E+01  0.2000E+01
    -47.238  0.0000E+00  0.0000E+00  0.2000E+01  0.2000E+01
    -47.004  0.0000E+00  0.0000E+00  0.2000E+01  0.2000E+01
    -46.770  0.0000E+00  0.0000E+00  0.2000E+01  0.2000E+01
    -46.537  0.0000E+00  0.0000E+00  0.2000E+01  0.2000E+01
    -46.303  0.0000E+00  0.0000E+00  0.2000E+01  0.2000E+01
    -46.069  0.0000E+00  0.0000E+00  0.2000E+01  0.2000E+01
    -45.835  0.0000E+00  0.0000E+00  0.2000E+01  0.2000E+01
    -45.601  0.0000E+00  0.0000E+00  0.2000E+01  0.2000E+01
    -45.368  0.0000E+00  0.0000E+00  0.2000E+01  0.2000E+01
    -45.134  0.0000E+00  0.0000E+00  0.2000E+01  0.2000E+01
    -44.900  0.0000E+00  0.0000E+00  0.2000E+01  0.2000E+01
    -44.666  0.0000E+00  0.0000E+00  0.2000E+01  0.2000E+01
    -44.433  0.0000E+00  0.0000E+00  0.2000E+01  0.2000E+01
    -44.199  0.0000E+00  0.0000E+00  0.2000E+01  0.2000E+01
    -43.965  0.0000E+00  0.0000E+00  0.2000E+01  0.2000E+01
    -43.731  0.0000E+00  0.0000E+00  0.2000E+01  0.2000E+01
    -43.498  0.0000E+00  0.0000E+00  0.2000E+01  0.2000E+01
    -43.264  0.0000E+00  0.0000E+00  0.2000E+01  0.2000E+01
    -43.030  0.0000E+00  0.0000E+00  0.2000E+01  0.2000E+01
    -42.796  0.0000E+00  0.0000E+00  0.2000E+01  0.2000E+01
    -42.563  0.0000E+00  0.0000E+00  0.2000E+01  0.2000E+01
    -42.329  0.0000E+00  0.0000E+00  0.2000E+01  0.2000E+01
    -42.095  0.0000E+00  0.0000E+00  0.2000E+01  0.2000E+01
    -41.861  0.0000E+00  0.0000E+00  0.2000E+01  0.2000E+01
    -41.628  0.0000E+00  0.0000E+00  0.2000E+01  0.2000E+01
    -41.394  0.0000E+00  0.0000E+00  0.2000E+01  0.2000E+01
    -41.160  0.0000E+00  0.0000E+00  0.2000E+01  0.2000E+01
    -40.926  0.0000E+00  0.0000E+00  0.2000E+01  0.2000E+01
    -40.693  0.0000E+00  0.0000E+00  0.2000E+01  0.2000E+01
    -40.459  0.0000E+00  0.0000E+00  0.2000E+01  0.2000E+01
    -40.225  0.0000E+00  0.0000E+00  0.2000E+01  0.2000E+01
    -39.991  0.0000E+00  0.0000E+00  0.2000E+01  0.2000E+01
    -39.758  0.0000E+00  0.0000E+00  0.2000E+01  0.2000E+01
    -39.524  0.0000E+00  0.0000E+00  0.2000E+01  0.2000E+01
    -39.290  0.0000E+00  0.0000E+00  0.2000E+01  0.2000E+01
    -39.056  0.0000E+00  0.0000E+00  0.2000E+01  0.2000E+01
    -38.823  0.0000E+00  0.0000E+00  0.2000E+01  0.2000E+01
    -38.589  0.0000E+00  0.0000E+00  0.2000E+01  0.2000E+01
    -38.355  0.0000E+00  0.0000E+00  0.2000E+01  0.2000E+01
    -38.121  0.0000E+00  0.0000E+00  0.2000E+01  0.2000E+01
    -37.888  0.0000E+00  0.0000E+00  0.2000E+01  0.2000E+01
    -37.654  0.0000E+00  0.0000E+00  0.2000E+01  0.2000E+01
    -37.420  0.0000E+00  0.0000E+00  0.2000E+01  0.2000E+01
    -37.186  0.0000E+00  0.0000E+00  0.2000E+01  0.2000E+01
    -36.953  0.0000E+00  0.0000E+00  0.2000E+01  0.2000E+01
    -36.719  0.0000E+00  0.0000E+00  0.2000E+01  0.2000E+01
    -36.485  0.0000E+00  0.0000E+00  0.2000E+01  0.2000E+01
    -36.251  0.0000E+00  0.0000E+00  0.2000E+01  0.2000E+01
    -36.017  0.0000E+00  0.0000E+00  0.2000E+01  0.2000E+01
    -35.784  0.0000E+00  0.0000E+00  0.2000E+01  0.2000E+01
    -35.550  0.0000E+00  0.0000E+00  0.2000E+01  0.2000E+01
    -35.316  0.0000E+00  0.0000E+00  0.2000E+01  0.2000E+01
    -35.082  0.0000E+00  0.0000E+00  0.2000E+01  0.2000E+01
    -34.849  0.0000E+00  0.0000E+00  0.2000E+01  0.2000E+01
    -34.615  0.0000E+00  0.0000E+00  0.2000E+01  0.2000E+01
    -34.381  0.0000E+00  0.0000E+00  0.2000E+01  0.2000E+01
    -34.147  0.0000E+00  0.0000E+00  0.2000E+01  0.2000E+01
    -33.914  0.0000E+00  0.0000E+00  0.2000E+01  0.2000E+01
    -33.680  0.0000E+00  0.0000E+00  0.2000E+01  0.2000E+01
    -33.446  0.0000E+00  0.0000E+00  0.2000E+01  0.2000E+01
    -33.212  0.0000E+00  0.0000E+00  0.2000E+01  0.2000E+01
    -32.979  0.0000E+00  0.0000E+00  0.2000E+01  0.2000E+01
    -32.745  0.0000E+00  0.0000E+00  0.2000E+01  0.2000E+01
    -32.511  0.0000E+00  0.0000E+00  0.2000E+01  0.2000E+01
    -32.277  0.0000E+00  0.0000E+00  0.2000E+01  0.2000E+01
    -32.044  0.0000E+00  0.0000E+00  0.2000E+01  0.2000E+01
    -31.810  0.0000E+00  0.0000E+00  0.2000E+01  0.2000E+01
    -31.576  0.0000E+00  0.0000E+00  0.2000E+01  0.2000E+01
    -31.342  0.0000E+00  0.0000E+00  0.2000E+01  0.2000E+01
    -31.109  0.0000E+00  0.0000E+00  0.2000E+01  0.2000E+01
    -30.875  0.0000E+00  0.0000E+00  0.2000E+01  0.2000E+01
    -30.641  0.0000E+00  0.0000E+00  0.2000E+01  0.2000E+01
    -30.407  0.0000E+00  0.0000E+00  0.2000E+01  0.2000E+01
    -30.174  0.0000E+00  0.0000E+00  0.2000E+01  0.2000E+01
    -29.940  0.0000E+00  0.0000E+00  0.2000E+01  0.2000E+01
    -29.706  0.0000E+00  0.0000E+00  0.2000E+01  0.2000E+01
    -29.472  0.0000E+00  0.0000E+00  0.2000E+01  0.2000E+01
    -29.239  0.0000E+00  0.0000E+00  0.2000E+01  0.2000E+01
    -29.005  0.0000E+00  0.0000E+00  0.2000E+01  0.2000E+01
    -28.771  0.0000E+00  0.0000E+00  0.2000E+01  0.2000E+01
    -28.537  0.0000E+00  0.0000E+00  0.2000E+01  0.2000E+01
    -28.304  0.0000E+00  0.0000E+00  0.2000E+01  0.2000E+01
    -28.070  0.0000E+00  0.0000E+00  0.2000E+01  0.2000E+01
    -27.836  0.6949E-06  0.6769E-06  0.2000E+01  0.2000E+01
    -27.602  0.7260E-03  0.7074E-03  0.2000E+01  0.2000E+01
    -27.369  0.7783E-01  0.7590E-01  0.2018E+01  0.2018E+01
    -27.135  0.3903E+01  0.3849E+01  0.2931E+01  0.2918E+01
    -26.901  0.1544E+02  0.1541E+02  0.6540E+01  0.6520E+01
    -26.667  0.6044E+01  0.6130E+01  0.7974E+01  0.7973E+01
    -26.433  0.0000E+00  0.0000E+00  0.8000E+01  0.8000E+01
    -26.200  0.0000E+00  0.0000E+00  0.8000E+01  0.8000E+01
    -25.966  0.0000E+00  0.0000E+00  0.8000E+01  0.8000E+01
    -25.732  0.0000E+00  0.0000E+00  0.8000E+01  0.8000E+01
    -25.498  0.0000E+00  0.0000E+00  0.8000E+01  0.8000E+01
    -25.265  0.0000E+00  0.0000E+00  0.8000E+01  0.8000E+01
    -25.031  0.0000E+00  0.0000E+00  0.8000E+01  0.8000E+01
    -24.797  0.0000E+00  0.0000E+00  0.8000E+01  0.8000E+01
    -24.563  0.0000E+00  0.0000E+00  0.8000E+01  0.8000E+01
    -24.330  0.0000E+00  0.0000E+00  0.8000E+01  0.8000E+01
    -24.096  0.0000E+00  0.0000E+00  0.8000E+01  0.8000E+01
    -23.862  0.0000E+00  0.0000E+00  0.8000E+01  0.8000E+01
    -23.628  0.0000E+00  0.0000E+00  0.8000E+01  0.8000E+01
    -23.395  0.0000E+00  0.0000E+00  0.8000E+01  0.8000E+01
    -23.161  0.0000E+00  0.0000E+00  0.8000E+01  0.8000E+01
    -22.927  0.0000E+00  0.0000E+00  0.8000E+01  0.8000E+01
    -22.693  0.0000E+00  0.0000E+00  0.8000E+01  0.8000E+01
    -22.460  0.0000E+00  0.0000E+00  0.8000E+01  0.8000E+01
    -22.226  0.0000E+00  0.0000E+00  0.8000E+01  0.8000E+01
    -21.992  0.0000E+00  0.0000E+00  0.8000E+01  0.8000E+01
    -21.758  0.0000E+00  0.0000E+00  0.8000E+01  0.8000E+01
    -21.525  0.0000E+00  0.0000E+00  0.8000E+01  0.8000E+01
    -21.291  0.0000E+00  0.0000E+00  0.8000E+01  0.8000E+01
    -21.057  0.0000E+00  0.0000E+00  0.8000E+01  0.8000E+01
    -20.823  0.0000E+00  0.0000E+00  0.8000E+01  0.8000E+01
    -20.590  0.0000E+00  0.0000E+00  0.8000E+01  0.8000E+01
    -20.356  0.0000E+00  0.0000E+00  0.8000E+01  0.8000E+01
    -20.122  0.0000E+00  0.0000E+00  0.8000E+01  0.8000E+01
    -19.888  0.0000E+00  0.0000E+00  0.8000E+01  0.8000E+01
    -19.655  0.0000E+00  0.0000E+00  0.8000E+01  0.8000E+01
    -19.421  0.0000E+00  0.0000E+00  0.8000E+01  0.8000E+01
    -19.187  0.0000E+00  0.0000E+00  0.8000E+01  0.8000E+01
    -18.953  0.0000E+00  0.0000E+00  0.8000E+01  0.8000E+01
    -18.720  0.0000E+00  0.0000E+00  0.8000E+01  0.8000E+01
    -18.486  0.0000E+00  0.0000E+00  0.8000E+01  0.8000E+01
    -18.252  0.0000E+00  0.0000E+00  0.8000E+01  0.8000E+01
    -18.018  0.0000E+00  0.0000E+00  0.8000E+01  0.8000E+01
    -17.785  0.0000E+00  0.0000E+00  0.8000E+01  0.8000E+01
    -17.551  0.0000E+00  0.0000E+00  0.8000E+01  0.8000E+01
    -17.317  0.0000E+00  0.0000E+00  0.8000E+01  0.8000E+01
    -17.083  0.0000E+00  0.0000E+00  0.8000E+01  0.8000E+01
    -16.849  0.0000E+00  0.0000E+00  0.8000E+01  0.8000E+01
    -16.616  0.0000E+00  0.0000E+00  0.8000E+01  0.8000E+01
    -16.382  0.0000E+00  0.0000E+00  0.8000E+01  0.8000E+01
    -16.148  0.0000E+00  0.0000E+00  0.8000E+01  0.8000E+01
    -15.914  0.0000E+00  0.0000E+00  0.8000E+01  0.8000E+01
    -15.681  0.0000E+00  0.0000E+00  0.8000E+01  0.8000E+01
    -15.447  0.0000E+00  0.0000E+00  0.8000E+01  0.8000E+01
    -15.213  0.0000E+00  0.0000E+00  0.8000E+01  0.8000E+01
    -14.979  0.0000E+00  0.0000E+00  0.8000E+01  0.8000E+01
    -14.746  0.0000E+00  0.0000E+00  0.8000E+01  0.8000E+01
    -14.512  0.0000E+00  0.0000E+00  0.8000E+01  0.8000E+01
    -14.278  0.0000E+00  0.0000E+00  0.8000E+01  0.8000E+01
    -14.044  0.0000E+00  0.0000E+00  0.8000E+01  0.8000E+01
    -13.811  0.0000E+00  0.0000E+00  0.8000E+01  0.8000E+01
    -13.577  0.0000E+00  0.0000E+00  0.8000E+01  0.8000E+01
    -13.343  0.0000E+00  0.0000E+00  0.8000E+01  0.8000E+01
    -13.109  0.0000E+00  0.0000E+00  0.8000E+01  0.8000E+01
    -12.876  0.0000E+00  0.0000E+00  0.8000E+01  0.8000E+01
    -12.642  0.0000E+00  0.0000E+00  0.8000E+01  0.8000E+01
    -12.408  0.0000E+00  0.0000E+00  0.8000E+01  0.8000E+01
    -12.174  0.0000E+00  0.0000E+00  0.8000E+01  0.8000E+01
    -11.941  0.0000E+00  0.0000E+00  0.8000E+01  0.8000E+01
    -11.707  0.0000E+00  0.0000E+00  0.8000E+01  0.8000E+01
    -11.473  0.0000E+00  0.0000E+00  0.8000E+01  0.8000E+01
    -11.239  0.0000E+00  0.0000E+00  0.8000E+01  0.8000E+01
    -11.006  0.0000E+00  0.0000E+00  0.8000E+01  0.8000E+01
    -10.772  0.0000E+00  0.0000E+00  0.8000E+01  0.8000E+01
    -10.538  0.0000E+00  0.0000E+00  0.8000E+01  0.8000E+01
    -10.304  0.0000E+00  0.0000E+00  0.8000E+01  0.8000E+01
    -10.071  0.0000E+00  0.0000E+00  0.8000E+01  0.8000E+01
     -9.837  0.0000E+00  0.0000E+00  0.8000E+01  0.8000E+01
     -9.603  0.0000E+00  0.0000E+00  0.8000E+01  0.8000E+01
     -9.369  0.0000E+00  0.0000E+00  0.8000E+01  0.8000E+01
     -9.136  0.0000E+00  0.0000E+00  0.8000E+01  0.8000E+01
     -8.902  0.0000E+00  0.0000E+00  0.8000E+01  0.8000E+01
     -8.668  0.0000E+00  0.0000E+00  0.8000E+01  0.8000E+01
     -8.434  0.0000E+00  0.0000E+00  0.8000E+01  0.8000E+01
     -8.201  0.0000E+00  0.0000E+00  0.8000E+01  0.8000E+01
     -7.967  0.0000E+00  0.0000E+00  0.8000E+01  0.8000E+01
     -7.733  0.0000E+00  0.0000E+00  0.8000E+01  0.8000E+01
     -7.499  0.0000E+00  0.0000E+00  0.8000E+01  0.8000E+01
     -7.265  0.0000E+00  0.0000E+00  0.8000E+01  0.8000E+01
     -7.032  0.0000E+00  0.0000E+00  0.8000E+01  0.8000E+01
     -6.798  0.0000E+00  0.0000E+00  0.8000E+01  0.8000E+01
     -6.564  0.0000E+00  0.0000E+00  0.8000E+01  0.8000E+01
     -6.330  0.0000E+00  0.0000E+00  0.8000E+01  0.8000E+01
     -6.097  0.0000E+00  0.0000E+00  0.8000E+01  0.8000E+01
     -5.863  0.0000E+00  0.0000E+00  0.8000E+01  0.8000E+01
     -5.629  0.0000E+00  0.0000E+00  0.8000E+01  0.8000E+01
     -5.395  0.0000E+00  0.0000E+00  0.8000E+01  0.8000E+01
     -5.162  0.0000E+00  0.0000E+00  0.8000E+01  0.8000E+01
     -4.928  0.0000E+00  0.0000E+00  0.8000E+01  0.8000E+01
     -4.694  0.0000E+00  0.0000E+00  0.8000E+01  0.8000E+01
     -4.460  0.0000E+00  0.0000E+00  0.8000E+01  0.8000E+01
     -4.227  0.0000E+00  0.0000E+00  0.8000E+01  0.8000E+01
     -3.993  0.0000E+00  0.0000E+00  0.8000E+01  0.8000E+01
     -3.759  0.0000E+00  0.0000E+00  0.8000E+01  0.8000E+01
     -3.525  0.0000E+00  0.0000E+00  0.8000E+01  0.8000E+01
     -3.292  0.0000E+00  0.0000E+00  0.8000E+01  0.8000E+01
     -3.058  0.0000E+00  0.0000E+00  0.8000E+01  0.8000E+01
     -2.824  0.0000E+00  0.0000E+00  0.8000E+01  0.8000E+01
     -2.590  0.0000E+00  0.0000E+00  0.8000E+01  0.8000E+01
     -2.357  0.0000E+00  0.0000E+00  0.8000E+01  0.8000E+01
     -2.123  0.0000E+00  0.0000E+00  0.8000E+01  0.8000E+01
     -1.889  0.0000E+00  0.0000E+00  0.8000E+01  0.8000E+01
     -1.655  0.0000E+00  0.0000E+00  0.8000E+01  0.8000E+01
     -1.422  0.0000E+00  0.0000E+00  0.8000E+01  0.8000E+01
     -1.188  0.0000E+00  0.0000E+00  0.8000E+01  0.8000E+01
     -0.954  0.0000E+00  0.0000E+00  0.8000E+01  0.8000E+01
     -0.720  0.0000E+00  0.0000E+00  0.8000E+01  0.8000E+01
     -0.487  0.0000E+00  0.0000E+00  0.8000E+01  0.8000E+01
     -0.253  0.0000E+00  0.0000E+00  0.8000E+01  0.8000E+01
     -0.019  0.0000E+00  0.0000E+00  0.8000E+01  0.8000E+01
      0.215  0.3334E-06  0.3386E-06  0.8000E+01  0.8000E+01
      0.448  0.3806E-04  0.3864E-04  0.8000E+01  0.8000E+01
      0.682  0.2983E-02  0.3019E-02  0.8001E+01  0.8001E+01
      0.916  0.3676E-01  0.3691E-01  0.8009E+01  0.8009E+01
      1.150  0.6300E-01  0.6316E-01  0.8024E+01  0.8024E+01
      1.383  0.9841E-01  0.9833E-01  0.8047E+01  0.8047E+01
      1.617  0.1078E+00  0.1080E+00  0.8073E+01  0.8073E+01
      1.851  0.1357E+00  0.1358E+00  0.8105E+01  0.8105E+01
      2.085  0.1599E+00  0.1598E+00  0.8142E+01  0.8142E+01
      2.319  0.1549E+00  0.1553E+00  0.8178E+01  0.8179E+01
      2.552  0.2366E+00  0.2364E+00  0.8234E+01  0.8234E+01
      2.786  0.1933E+00  0.1934E+00  0.8280E+01  0.8280E+01
      3.020  0.2580E+00  0.2580E+00  0.8340E+01  0.8340E+01
      3.254  0.2865E+00  0.2866E+00  0.8407E+01  0.8407E+01
      3.487  0.3576E+00  0.3575E+00  0.8492E+01  0.8492E+01
      3.721  0.3218E+00  0.3217E+00  0.8567E+01  0.8567E+01
      3.955  0.5630E+00  0.5639E+00  0.8700E+01  0.8700E+01
      4.189  0.7061E+00  0.7055E+00  0.8865E+01  0.8865E+01
      4.422  0.8748E+00  0.8750E+00  0.9071E+01  0.9071E+01
      4.656  0.1016E+01  0.1016E+01  0.9310E+01  0.9311E+01
      4.890  0.1137E+01  0.1136E+01  0.9578E+01  0.9578E+01
      5.124  0.1417E+01  0.1417E+01  0.9911E+01  0.9911E+01
      5.357  0.1562E+01  0.1561E+01  0.1028E+02  0.1028E+02
      5.591  0.1757E+01  0.1756E+01  0.1069E+02  0.1069E+02
      5.825  0.2172E+01  0.2172E+01  0.1120E+02  0.1120E+02
      6.059  0.1862E+01  0.1863E+01  0.1164E+02  0.1164E+02
      6.292  0.1091E+01  0.1092E+01  0.1190E+02  0.1190E+02
      6.526  0.1488E+01  0.1485E+01  0.1225E+02  0.1225E+02
      6.760  0.2641E+01  0.2639E+01  0.1287E+02  0.1287E+02
      6.994  0.2865E+01  0.2864E+01  0.1354E+02  0.1354E+02
      7.227  0.3106E+01  0.3104E+01  0.1428E+02  0.1428E+02
      7.461  0.2496E+01  0.2499E+01  0.1487E+02  0.1486E+02
      7.695  0.1629E+01  0.1630E+01  0.1525E+02  0.1525E+02
      7.929  0.1386E+01  0.1385E+01  0.1558E+02  0.1558E+02
      8.162  0.1414E+01  0.1413E+01  0.1591E+02  0.1591E+02
      8.396  0.1638E+01  0.1637E+01  0.1630E+02  0.1630E+02
      8.630  0.2018E+01  0.2015E+01  0.1677E+02  0.1677E+02
      8.864  0.3410E+01  0.3402E+01  0.1757E+02  0.1757E+02
      9.097  0.3916E+01  0.3924E+01  0.1849E+02  0.1849E+02
      9.331  0.1288E+01  0.1296E+01  0.1880E+02  0.1880E+02
      9.565  0.7988E+00  0.8003E+00  0.1899E+02  0.1899E+02
      9.799  0.5212E+00  0.5209E+00  0.1911E+02  0.1911E+02
     10.032  0.6626E+00  0.6637E+00  0.1927E+02  0.1927E+02
     10.266  0.4258E+00  0.4258E+00  0.1937E+02  0.1937E+02
     10.500  0.4009E+00  0.3984E+00  0.1946E+02  0.1946E+02
     10.734  0.5031E+00  0.5019E+00  0.1958E+02  0.1958E+02
     10.967  0.3773E+00  0.3772E+00  0.1967E+02  0.1967E+02
     11.201  0.4386E+00  0.4404E+00  0.1977E+02  0.1977E+02
     11.435  0.1928E+00  0.1961E+00  0.1982E+02  0.1982E+02
     11.669  0.3632E+00  0.3592E+00  0.1991E+02  0.1991E+02
     11.903  0.1784E+00  0.1814E+00  0.1995E+02  0.1995E+02
     12.136  0.8009E-01  0.8105E-01  0.1997E+02  0.1997E+02
     12.370  0.5698E-01  0.5676E-01  0.1998E+02  0.1998E+02
     12.604  0.4529E-01  0.4654E-01  0.1999E+02  0.1999E+02
     12.838  0.1885E-01  0.1823E-01  0.2000E+02  0.2000E+02
     13.071  0.1341E-01  0.1345E-01  0.2000E+02  0.2000E+02
     13.305  0.7918E-03  0.8115E-03  0.2000E+02  0.2000E+02
     13.539  0.0000E+00  0.0000E+00  0.2000E+02  0.2000E+02
     13.773  0.0000E+00  0.0000E+00  0.2000E+02  0.2000E+02
     14.006  0.0000E+00  0.0000E+00  0.2000E+02  0.2000E+02
     14.240  0.0000E+00  0.0000E+00  0.2000E+02  0.2000E+02
     14.474  0.0000E+00  0.0000E+00  0.2000E+02  0.2000E+02
     14.708  0.0000E+00  0.0000E+00  0.2000E+02  0.2000E+02
     14.941  0.0000E+00  0.0000E+00  0.2000E+02  0.2000E+02
     15.175  0.0000E+00  0.0000E+00  0.2000E+02  0.2000E+02
     15.409  0.0000E+00  0.0000E+00  0.2000E+02  0.2000E+02
     15.643  0.0000E+00  0.0000E+00  0.2000E+02  0.2000E+02
     15.876  0.0000E+00  0.0000E+00  0.2000E+02  0.2000E+02
     16.110  0.0000E+00  0.0000E+00  0.2000E+02  0.2000E+02
     16.11012126    -54.01671789  301      6.37949980      1.00000000
    -54.017  0.0000E+00  0.0000E+00  0.0000E+00  0.0000E+00  0.0000E+00  0.0000E+00  0.0000E+00  0.0000E+00  0.0000E+00  0.0000E+00  0.0000E+00  0.0000E+00  0.0000E+00  0.0000E+00  0.0000E+00  0.0000E+00  0.0000E+00  0.0000E+00
    -53.783  0.0000E+00  0.0000E+00  0.0000E+00  0.0000E+00  0.0000E+00  0.0000E+00  0.0000E+00  0.0000E+00  0.0000E+00  0.0000E+00  0.0000E+00  0.0000E+00  0.0000E+00  0.0000E+00  0.0000E+00  0.0000E+00  0.0000E+00  0.0000E+00
    -53.549  0.0000E+00  0.0000E+00  0.0000E+00  0.0000E+00  0.0000E+00  0.0000E+00  0.0000E+00  0.0000E+00  0.0000E+00  0.0000E+00  0.0000E+00  0.0000E+00  0.0000E+00  0.0000E+00  0.0000E+00  0.0000E+00  0.0000E+00  0.0000E+00
    -53.315  0.0000E+00  0.0000E+00  0.0000E+00  0.0000E+00  0.0000E+00  0.0000E+00  0.0000E+00  0.0000E+00  0.0000E+00  0.0000E+00  0.0000E+00  0.0000E+00  0.0000E+00  0.0000E+00  0.0000E+00  0.0000E+00  0.0000E+00  0.0000E+00
    -53.082  0.0000E+00  0.0000E+00  0.0000E+00  0.0000E+00  0.0000E+00  0.0000E+00  0.0000E+00  0.0000E+00  0.0000E+00  0.0000E+00  0.0000E+00  0.0000E+00  0.0000E+00  0.0000E+00  0.0000E+00  0.0000E+00  0.0000E+00  0.0000E+00
    -52.848  0.0000E+00  0.0000E+00  0.0000E+00  0.0000E+00  0.0000E+00  0.0000E+00  0.0000E+00  0.0000E+00  0.0000E+00  0.0000E+00  0.0000E+00  0.0000E+00  0.0000E+00  0.0000E+00  0.0000E+00  0.0000E+00  0.0000E+00  0.0000E+00
    -52.614  0.0000E+00  0.0000E+00  0.0000E+00  0.0000E+00  0.0000E+00  0.0000E+00  0.0000E+00  0.0000E+00  0.0000E+00  0.0000E+00  0.0000E+00  0.0000E+00  0.0000E+00  0.0000E+00  0.0000E+00  0.0000E+00  0.0000E+00  0.0000E+00
    -52.380  0.0000E+00  0.0000E+00  0.0000E+00  0.0000E+00  0.0000E+00  0.0000E+00  0.0000E+00  0.0000E+00  0.0000E+00  0.0000E+00  0.0000E+00  0.0000E+00  0.0000E+00  0.0000E+00  0.0000E+00  0.0000E+00  0.0000E+00  0.0000E+00
    -52.147  0.0000E+00  0.0000E+00  0.0000E+00  0.0000E+00  0.0000E+00  0.0000E+00  0.0000E+00  0.0000E+00  0.0000E+00  0.0000E+00  0.0000E+00  0.0000E+00  0.0000E+00  0.0000E+00  0.0000E+00  0.0000E+00  0.0000E+00  0.0000E+00
    -51.913  0.0000E+00  0.0000E+00  0.0000E+00  0.0000E+00  0.0000E+00  0.0000E+00  0.0000E+00  0.0000E+00  0.0000E+00  0.0000E+00  0.0000E+00  0.0000E+00  0.0000E+00  0.0000E+00  0.0000E+00  0.0000E+00  0.0000E+00  0.0000E+00
    -51.679  0.0000E+00  0.0000E+00  0.0000E+00  0.0000E+00  0.0000E+00  0.0000E+00  0.0000E+00  0.0000E+00  0.0000E+00  0.0000E+00  0.0000E+00  0.0000E+00  0.0000E+00  0.0000E+00  0.0000E+00  0.0000E+00  0.0000E+00  0.0000E+00
    -51.445  0.7127E-06  0.5388E-06  0.8052E-12  0.5499E-12  0.9270E-12  0.6049E-12  0.8052E-12  0.5499E-12  0.3892E-13  0.2348E-13  0.1955E-13  0.1264E-13  0.4978E-12  0.3690E-12  0.1955E-13  0.1264E-13  0.3892E-13  0.2348E-13
    -51.212  0.7518E-03  0.7310E-03  0.7157E-09  0.6957E-09  0.9524E-09  0.9265E-09  0.7157E-09  0.6957E-09  0.2174E-09  0.2112E-09  0.2520E-09  0.2449E-09  0.6722E-09  0.6525E-09  0.2520E-09  0.2449E-09  0.2174E-09  0.2112E-09
    -50.978  0.7828E-01  0.7614E-01  0.7429E-07  0.7224E-07  0.9892E-07  0.9626E-07  0.7429E-07  0.7224E-07  0.2266E-07  0.2202E-07  0.2631E-07  0.2558E-07  0.7001E-07  0.6798E-07  0.2631E-07  0.2558E-07  0.2266E-07  0.2202E-07
    -50.744  0.2711E+01  0.2687E+01  0.2287E-05  0.2268E-05  0.3117E-05  0.3093E-05  0.2287E-05  0.2268E-05  0.8086E-06  0.8007E-06  0.9902E-06  0.9805E-06  0.2433E-05  0.2407E-05  0.9902E-06  0.9805E-06  0.8086E-06  0.8007E-06
    -50.510  0.1446E+01  0.1472E+01  0.1020E-05  0.1040E-05  0.1433E-05  0.1461E-05  0.1020E-05  0.1040E-05  0.4292E-06  0.4368E-06  0.5628E-06  0.5728E-06  0.1281E-05  0.1302E-05  0.5628E-06  0.5728E-06  0.4292E-06  0.4368E-06
    -50.277  0.0000E+00  0.0000E+00  0.0000E+00  0.0000E+00  0.0000E+00  0.0000E+00  0.0000E+00  0.0000E+00  0.0000E+00  0.0000E+00  0.0000E+00  0.0000E+00  0.0000E+00  0.0000E+00  0.0000E+00  0.0000E+00  0.0000E+00  0.0000E+00
    -50.043  0.0000E+00  0.0000E+00  0.0000E+00  0.0000E+00  0.0000E+00  0.0000E+00  0.0000E+00  0.0000E+00  0.0000E+00  0.0000E+00  0.0000E+00  0.0000E+00  0.0000E+00  0.0000E+00  0.0000E+00  0.0000E+00  0.0000E+00  0.0000E+00
    -49.809  0.0000E+00  0.0000E+00  0.0000E+00  0.0000E+00  0.0000E+00  0.0000E+00  0.0000E+00  0.0000E+00  0.0000E+00  0.0000E+00  0.0000E+00  0.0000E+00  0.0000E+00  0.0000E+00  0.0000E+00  0.0000E+00  0.0000E+00  0.0000E+00
    -49.575  0.0000E+00  0.0000E+00  0.0000E+00  0.0000E+00  0.0000E+00  0.0000E+00  0.0000E+00  0.0000E+00  0.0000E+00  0.0000E+00  0.0000E+00  0.0000E+00  0.0000E+00  0.0000E+00  0.0000E+00  0.0000E+00  0.0000E+00  0.0000E+00
    -49.342  0.0000E+00  0.0000E+00  0.0000E+00  0.0000E+00  0.0000E+00  0.0000E+00  0.0000E+00  0.0000E+00  0.0000E+00  0.0000E+00  0.0000E+00  0.0000E+00  0.0000E+00  0.0000E+00  0.0000E+00  0.0000E+00  0.0000E+00  0.0000E+00
    -49.108  0.0000E+00  0.0000E+00  0.0000E+00  0.0000E+00  0.0000E+00  0.0000E+00  0.0000E+00  0.0000E+00  0.0000E+00  0.0000E+00  0.0000E+00  0.0000E+00  0.0000E+00  0.0000E+00  0.0000E+00  0.0000E+00  0.0000E+00  0.0000E+00
    -48.874  0.0000E+00  0.0000E+00  0.0000E+00  0.0000E+00  0.0000E+00  0.0000E+00  0.0000E+00  0.0000E+00  0.0000E+00  0.0000E+00  0.0000E+00  0.0000E+00  0.0000E+00  0.0000E+00  0.0000E+00  0.0000E+00  0.0000E+00  0.0000E+00
    -48.640  0.0000E+00  0.0000E+00  0.0000E+00  0.0000E+00  0.0000E+00  0.0000E+00  0.0000E+00  0.0000E+00  0.0000E+00  0.0000E+00  0.0000E+00  0.0000E+00  0.0000E+00  0.0000E+00  0.0000E+00  0.0000E+00  0.0000E+00  0.0000E+00
    -48.407  0.0000E+00  0.0000E+00  0.0000E+00  0.0000E+00  0.0000E+00  0.0000E+00  0.0000E+00  0.0000E+00  0.0000E+00  0.0000E+00  0.0000E+00  0.0000E+00  0.0000E+00  0.0000E+00  0.0000E+00  0.0000E+00  0.0000E+00  0.0000E+00
    -48.173  0.0000E+00  0.0000E+00  0.0000E+00  0.0000E+00  0.0000E+00  0.0000E+00  0.0000E+00  0.0000E+00  0.0000E+00  0.0000E+00  0.0000E+00  0.0000E+00  0.0000E+00  0.0000E+00  0.0000E+00  0.0000E+00  0.0000E+00  0.0000E+00
    -47.939  0.0000E+00  0.0000E+00  0.0000E+00  0.0000E+00  0.0000E+00  0.0000E+00  0.0000E+00  0.0000E+00  0.0000E+00  0.0000E+00  0.0000E+00  0.0000E+00  0.0000E+00  0.0000E+00  0.0000E+00  0.0000E+00  0.0000E+00  0.0000E+00
    -47.705  0.0000E+00  0.0000E+00  0.0000E+00  0.0000E+00  0.0000E+00  0.0000E+00  0.0000E+00  0.0000E+00  0.0000E+00  0.0000E+00  0.0000E+00  0.0000E+00  0.0000E+00  0.0000E+00  0.0000E+00  0.0000E+00  0.0000E+00  0.0000E+00
    -47.472  0.0000E+00  0.0000E+00  0.0000E+00  0.0000E+00  0.0000E+00  0.0000E+00  0.0000E+00  0.0000E+00  0.0000E+00  0.0000E+00  0.0000E+00  0.0000E+00  0.0000E+00  0.0000E+00  0.0000E+00  0.0000E+00  0.0000E+00  0.0000E+00
    -47.238  0.0000E+00  0.0000E+00  0.0000E+00  0.0000E+00  0.0000E+00  0.0000E+00  0.0000E+00  0.0000E+00  0.0000E+00  0.0000E+00  0.0000E+00  0.0000E+00  0.0000E+00  0.0000E+00  0.0000E+00  0.0000E+00  0.0000E+00  0.0000E+00
    -47.004  0.0000E+00  0.0000E+00  0.0000E+00  0.0000E+00  0.0000E+00  0.0000E+00  0.0000E+00  0.0000E+00  0.0000E+00  0.0000E+00  0.0000E+00  0.0000E+00  0.0000E+00  0.0000E+00  0.0000E+00  0.0000E+00  0.0000E+00  0.0000E+00
    -46.770  0.0000E+00  0.0000E+00  0.0000E+00  0.0000E+00  0.0000E+00  0.0000E+00  0.0000E+00  0.0000E+00  0.0000E+00  0.0000E+00  0.0000E+00  0.0000E+00  0.0000E+00  0.0000E+00  0.0000E+00  0.0000E+00  0.0000E+00  0.0000E+00
    -46.537  0.0000E+00  0.0000E+00  0.0000E+00  0.0000E+00  0.0000E+00  0.0000E+00  0.0000E+00  0.0000E+00  0.0000E+00  0.0000E+00  0.0000E+00  0.0000E+00  0.0000E+00  0.0000E+00  0.0000E+00  0.0000E+00  0.0000E+00  0.0000E+00
    -46.303  0.0000E+00  0.0000E+00  0.0000E+00  0.0000E+00  0.0000E+00  0.0000E+00  0.0000E+00  0.0000E+00  0.0000E+00  0.0000E+00  0.0000E+00  0.0000E+00  0.0000E+00  0.0000E+00  0.0000E+00  0.0000E+00  0.0000E+00  0.0000E+00
    -46.069  0.0000E+00  0.0000E+00  0.0000E+00  0.0000E+00  0.0000E+00  0.0000E+00  0.0000E+00  0.0000E+00  0.0000E+00  0.0000E+00  0.0000E+00  0.0000E+00  0.0000E+00  0.0000E+00  0.0000E+00  0.0000E+00  0.0000E+00  0.0000E+00
    -45.835  0.0000E+00  0.0000E+00  0.0000E+00  0.0000E+00  0.0000E+00  0.0000E+00  0.0000E+00  0.0000E+00  0.0000E+00  0.0000E+00  0.0000E+00  0.0000E+00  0.0000E+00  0.0000E+00  0.0000E+00  0.0000E+00  0.0000E+00  0.0000E+00
    -45.601  0.0000E+00  0.0000E+00  0.0000E+00  0.0000E+00  0.0000E+00  0.0000E+00  0.0000E+00  0.0000E+00  0.0000E+00  0.0000E+00  0.0000E+00  0.0000E+00  0.0000E+00  0.0000E+00  0.0000E+00  0.0000E+00  0.0000E+00  0.0000E+00
    -45.368  0.0000E+00  0.0000E+00  0.0000E+00  0.0000E+00  0.0000E+00  0.0000E+00  0.0000E+00  0.0000E+00  0.0000E+00  0.0000E+00  0.0000E+00  0.0000E+00  0.0000E+00  0.0000E+00  0.0000E+00  0.0000E+00  0.0000E+00  0.0000E+00
    -45.134  0.0000E+00  0.0000E+00  0.0000E+00  0.0000E+00  0.0000E+00  0.0000E+00  0.0000E+00  0.0000E+00  0.0000E+00  0.0000E+00  0.0000E+00  0.0000E+00  0.0000E+00  0.0000E+00  0.0000E+00  0.0000E+00  0.0000E+00  0.0000E+00
    -44.900  0.0000E+00  0.0000E+00  0.0000E+00  0.0000E+00  0.0000E+00  0.0000E+00  0.0000E+00  0.0000E+00  0.0000E+00  0.0000E+00  0.0000E+00  0.0000E+00  0.0000E+00  0.0000E+00  0.0000E+00  0.0000E+00  0.0000E+00  0.0000E+00
    -44.666  0.0000E+00  0.0000E+00  0.0000E+00  0.0000E+00  0.0000E+00  0.0000E+00  0.0000E+00  0.0000E+00  0.0000E+00  0.0000E+00  0.0000E+00  0.0000E+00  0.0000E+00  0.0000E+00  0.0000E+00  0.0000E+00  0.0000E+00  0.0000E+00
    -44.433  0.0000E+00  0.0000E+00  0.0000E+00  0.0000E+00  0.0000E+00  0.0000E+00  0.0000E+00  0.0000E+00  0.0000E+00  0.0000E+00  0.0000E+00  0.0000E+00  0.0000E+00  0.0000E+00  0.0000E+00  0.0000E+00  0.0000E+00  0.0000E+00
    -44.199  0.0000E+00  0.0000E+00  0.0000E+00  0.0000E+00  0.0000E+00  0.0000E+00  0.0000E+00  0.0000E+00  0.0000E+00  0.0000E+00  0.0000E+00  0.0000E+00  0.0000E+00  0.0000E+00  0.0000E+00  0.0000E+00  0.0000E+00  0.0000E+00
    -43.965  0.0000E+00  0.0000E+00  0.0000E+00  0.0000E+00  0.0000E+00  0.0000E+00  0.0000E+00  0.0000E+00  0.0000E+00  0.0000E+00  0.0000E+00  0.0000E+00  0.0000E+00  0.0000E+00  0.0000E+00  0.0000E+00  0.0000E+00  0.0000E+00
    -43.731  0.0000E+00  0.0000E+00  0.0000E+00  0.0000E+00  0.0000E+00  0.0000E+00  0.0000E+00  0.0000E+00  0.0000E+00  0.0000E+00  0.0000E+00  0.0000E+00  0.0000E+00  0.0000E+00  0.0000E+00  0.0000E+00  0.0000E+00  0.0000E+00
    -43.498  0.0000E+00  0.0000E+00  0.0000E+00  0.0000E+00  0.0000E+00  0.0000E+00  0.0000E+00  0.0000E+00  0.0000E+00  0.0000E+00  0.0000E+00  0.0000E+00  0.0000E+00  0.0000E+00  0.0000E+00  0.0000E+00  0.0000E+00  0.0000E+00
    -43.264  0.0000E+00  0.0000E+00  0.0000E+00  0.0000E+00  0.0000E+00  0.0000E+00  0.0000E+00  0.0000E+00  0.0000E+00  0.0000E+00  0.0000E+00  0.0000E+00  0.0000E+00  0.0000E+00  0.0000E+00  0.0000E+00  0.0000E+00  0.0000E+00
    -43.030  0.0000E+00  0.0000E+00  0.0000E+00  0.0000E+00  0.0000E+00  0.0000E+00  0.0000E+00  0.0000E+00  0.0000E+00  0.0000E+00  0.0000E+00  0.0000E+00  0.0000E+00  0.0000E+00  0.0000E+00  0.0000E+00  0.0000E+00  0.0000E+00
    -42.796  0.0000E+00  0.0000E+00  0.0000E+00  0.0000E+00  0.0000E+00  0.0000E+00  0.0000E+00  0.0000E+00  0.0000E+00  0.0000E+00  0.0000E+00  0.0000E+00  0.0000E+00  0.0000E+00  0.0000E+00  0.0000E+00  0.0000E+00  0.0000E+00
    -42.563  0.0000E+00  0.0000E+00  0.0000E+00  0.0000E+00  0.0000E+00  0.0000E+00  0.0000E+00  0.0000E+00  0.0000E+00  0.0000E+00  0.0000E+00  0.0000E+00  0.0000E+00  0.0000E+00  0.0000E+00  0.0000E+00  0.0000E+00  0.0000E+00
    -42.329  0.0000E+00  0.0000E+00  0.0000E+00  0.0000E+00  0.0000E+00  0.0000E+00  0.0000E+00  0.0000E+00  0.0000E+00  0.0000E+00  0.0000E+00  0.0000E+00  0.0000E+00  0.0000E+00  0.0000E+00  0.0000E+00  0.0000E+00  0.0000E+00