   2   2   1   0
  0.1680766E+02  0.2903735E-09  0.2903734E-09  0.4603549E-09  0.5000000E-15
  1.000000000000000E-004
  CAR 
 unknown system                          
     20.34470779    -51.37982130  301      8.69433934      1.00000000
    -51.380  0.0000E+00  0.0000E+00  0.0000E+00  0.0000E+00
    -51.141  0.0000E+00  0.0000E+00  0.0000E+00  0.0000E+00
    -50.902  0.0000E+00  0.0000E+00  0.0000E+00  0.0000E+00
    -50.663  0.0000E+00  0.0000E+00  0.0000E+00  0.0000E+00
    -50.423  0.0000E+00  0.0000E+00  0.0000E+00  0.0000E+00
    -50.184  0.0000E+00  0.0000E+00  0.0000E+00  0.0000E+00
    -49.945  0.0000E+00  0.0000E+00  0.0000E+00  0.0000E+00
    -49.706  0.0000E+00  0.0000E+00  0.0000E+00  0.0000E+00
    -49.467  0.0000E+00  0.0000E+00  0.0000E+00  0.0000E+00
    -49.228  0.0000E+00  0.0000E+00  0.0000E+00  0.0000E+00
    -48.989  0.0000E+00  0.0000E+00  0.0000E+00  0.0000E+00
    -48.750  0.7396E-07  0.7443E-07  0.1768E-07  0.1779E-07
    -48.511  0.3158E-03  0.3178E-03  0.7552E-04  0.7600E-04
    -48.272  0.3692E-01  0.3716E-01  0.8903E-02  0.8960E-02
    -48.033  0.2310E+01  0.2319E+01  0.5611E+00  0.5634E+00
    -47.794  0.5773E+01  0.5765E+01  0.1941E+01  0.1942E+01
    -47.555  0.1320E+00  0.1299E+00  0.2000E+01  0.2000E+01
    -47.315  0.0000E+00  0.0000E+00  0.2000E+01  0.2000E+01
    -47.076  0.0000E+00  0.0000E+00  0.2000E+01  0.2000E+01
    -46.837  0.0000E+00  0.0000E+00  0.2000E+01  0.2000E+01
    -46.598  0.0000E+00  0.0000E+00  0.2000E+01  0.2000E+01
    -46.359  0.0000E+00  0.0000E+00  0.2000E+01  0.2000E+01
    -46.120  0.0000E+00  0.0000E+00  0.2000E+01  0.2000E+01
    -45.881  0.0000E+00  0.0000E+00  0.2000E+01  0.2000E+01
    -45.642  0.0000E+00  0.0000E+00  0.2000E+01  0.2000E+01
    -45.403  0.0000E+00  0.0000E+00  0.2000E+01  0.2000E+01
    -45.164  0.0000E+00  0.0000E+00  0.2000E+01  0.2000E+01
    -44.925  0.0000E+00  0.0000E+00  0.2000E+01  0.2000E+01
    -44.686  0.0000E+00  0.0000E+00  0.2000E+01  0.2000E+01
    -44.446  0.0000E+00  0.0000E+00  0.2000E+01  0.2000E+01
    -44.207  0.0000E+00  0.0000E+00  0.2000E+01  0.2000E+01
    -43.968  0.0000E+00  0.0000E+00  0.2000E+01  0.2000E+01
    -43.729  0.0000E+00  0.0000E+00  0.2000E+01  0.2000E+01
    -43.490  0.0000E+00  0.0000E+00  0.2000E+01  0.2000E+01
    -43.251  0.0000E+00  0.0000E+00  0.2000E+01  0.2000E+01
    -43.012  0.0000E+00  0.0000E+00  0.2000E+01  0.2000E+01
    -42.773  0.0000E+00  0.0000E+00  0.2000E+01  0.2000E+01
    -42.534  0.0000E+00  0.0000E+00  0.2000E+01  0.2000E+01
    -42.295  0.0000E+00  0.0000E+00  0.2000E+01  0.2000E+01
    -42.056  0.0000E+00  0.0000E+00  0.2000E+01  0.2000E+01
    -41.817  0.0000E+00  0.0000E+00  0.2000E+01  0.2000E+01
    -41.577  0.0000E+00  0.0000E+00  0.2000E+01  0.2000E+01
    -41.338  0.0000E+00  0.0000E+00  0.2000E+01  0.2000E+01
    -41.099  0.0000E+00  0.0000E+00  0.2000E+01  0.2000E+01
    -40.860  0.0000E+00  0.0000E+00  0.2000E+01  0.2000E+01
    -40.621  0.0000E+00  0.0000E+00  0.2000E+01  0.2000E+01
    -40.382  0.0000E+00  0.0000E+00  0.2000E+01  0.2000E+01
    -40.143  0.0000E+00  0.0000E+00  0.2000E+01  0.2000E+01
    -39.904  0.0000E+00  0.0000E+00  0.2000E+01  0.2000E+01
    -39.665  0.0000E+00  0.0000E+00  0.2000E+01  0.2000E+01
    -39.426  0.0000E+00  0.0000E+00  0.2000E+01  0.2000E+01
    -39.187  0.0000E+00  0.0000E+00  0.2000E+01  0.2000E+01
    -38.948  0.0000E+00  0.0000E+00  0.2000E+01  0.2000E+01
    -38.708  0.0000E+00  0.0000E+00  0.2000E+01  0.2000E+01
    -38.469  0.0000E+00  0.0000E+00  0.2000E+01  0.2000E+01
    -38.230  0.0000E+00  0.0000E+00  0.2000E+01  0.2000E+01
    -37.991  0.0000E+00  0.0000E+00  0.2000E+01  0.2000E+01
    -37.752  0.0000E+00  0.0000E+00  0.2000E+01  0.2000E+01
    -37.513  0.0000E+00  0.0000E+00  0.2000E+01  0.2000E+01
    -37.274  0.0000E+00  0.0000E+00  0.2000E+01  0.2000E+01
    -37.035  0.0000E+00  0.0000E+00  0.2000E+01  0.2000E+01
    -36.796  0.0000E+00  0.0000E+00  0.2000E+01  0.2000E+01
    -36.557  0.0000E+00  0.0000E+00  0.2000E+01  0.2000E+01
    -36.318  0.0000E+00  0.0000E+00  0.2000E+01  0.2000E+01
    -36.079  0.0000E+00  0.0000E+00  0.2000E+01  0.2000E+01
    -35.840  0.0000E+00  0.0000E+00  0.2000E+01  0.2000E+01
    -35.600  0.0000E+00  0.0000E+00  0.2000E+01  0.2000E+01
    -35.361  0.0000E+00  0.0000E+00  0.2000E+01  0.2000E+01
    -35.122  0.0000E+00  0.0000E+00  0.2000E+01  0.2000E+01
    -34.883  0.0000E+00  0.0000E+00  0.2000E+01  0.2000E+01
    -34.644  0.0000E+00  0.0000E+00  0.2000E+01  0.2000E+01
    -34.405  0.0000E+00  0.0000E+00  0.2000E+01  0.2000E+01
    -34.166  0.0000E+00  0.0000E+00  0.2000E+01  0.2000E+01
    -33.927  0.0000E+00  0.0000E+00  0.2000E+01  0.2000E+01
    -33.688  0.0000E+00  0.0000E+00  0.2000E+01  0.2000E+01
    -33.449  0.0000E+00  0.0000E+00  0.2000E+01  0.2000E+01
    -33.210  0.0000E+00  0.0000E+00  0.2000E+01  0.2000E+01
    -32.971  0.0000E+00  0.0000E+00  0.2000E+01  0.2000E+01
    -32.731  0.0000E+00  0.0000E+00  0.2000E+01  0.2000E+01
    -32.492  0.0000E+00  0.0000E+00  0.2000E+01  0.2000E+01
    -32.253  0.0000E+00  0.0000E+00  0.2000E+01  0.2000E+01
    -32.014  0.0000E+00  0.0000E+00  0.2000E+01  0.2000E+01
    -31.775  0.0000E+00  0.0000E+00  0.2000E+01  0.2000E+01
    -31.536  0.0000E+00  0.0000E+00  0.2000E+01  0.2000E+01
    -31.297  0.0000E+00  0.0000E+00  0.2000E+01  0.2000E+01
    -31.058  0.0000E+00  0.0000E+00  0.2000E+01  0.2000E+01
    -30.819  0.0000E+00  0.0000E+00  0.2000E+01  0.2000E+01
    -30.580  0.0000E+00  0.0000E+00  0.2000E+01  0.2000E+01
    -30.341  0.0000E+00  0.0000E+00  0.2000E+01  0.2000E+01
    -30.102  0.0000E+00  0.0000E+00  0.2000E+01  0.2000E+01
    -29.862  0.0000E+00  0.0000E+00  0.2000E+01  0.2000E+01
    -29.623  0.0000E+00  0.0000E+00  0.2000E+01  0.2000E+01
    -29.384  0.0000E+00  0.0000E+00  0.2000E+01  0.2000E+01
    -29.145  0.0000E+00  0.0000E+00  0.2000E+01  0.2000E+01
    -28.906  0.0000E+00  0.0000E+00  0.2000E+01  0.2000E+01
    -28.667  0.0000E+00  0.0000E+00  0.2000E+01  0.2000E+01
    -28.428  0.0000E+00  0.0000E+00  0.2000E+01  0.2000E+01
    -28.189  0.0000E+00  0.0000E+00  0.2000E+01  0.2000E+01
    -27.950  0.0000E+00  0.0000E+00  0.2000E+01  0.2000E+01
    -27.711  0.0000E+00  0.0000E+00  0.2000E+01  0.2000E+01
    -27.472  0.0000E+00  0.0000E+00  0.2000E+01  0.2000E+01
    -27.233  0.0000E+00  0.0000E+00  0.2000E+01  0.2000E+01
    -26.993  0.0000E+00  0.0000E+00  0.2000E+01  0.2000E+01
    -26.754  0.0000E+00  0.0000E+00  0.2000E+01  0.2000E+01
    -26.515  0.0000E+00  0.0000E+00  0.2000E+01  0.2000E+01
    -26.276  0.0000E+00  0.0000E+00  0.2000E+01  0.2000E+01
    -26.037  0.0000E+00  0.0000E+00  0.2000E+01  0.2000E+01
    -25.798  0.0000E+00  0.0000E+00  0.2000E+01  0.2000E+01
    -25.559  0.0000E+00  0.0000E+00  0.2000E+01  0.2000E+01
    -25.320  0.5704E-06  0.5753E-06  0.2000E+01  0.2000E+01
    -25.081  0.2676E-03  0.2698E-03  0.2000E+01  0.2000E+01
    -24.842  0.3134E-01  0.3159E-01  0.2008E+01  0.2008E+01
    -24.603  0.1675E+01  0.1683E+01  0.2408E+01  0.2410E+01
    -24.364  0.5948E+01  0.5950E+01  0.3830E+01  0.3833E+01
    -24.125  0.8372E+01  0.8383E+01  0.5849E+01  0.5854E+01
    -23.885  0.8413E+01  0.8397E+01  0.7872E+01  0.7873E+01
    -23.646  0.4018E+00  0.3989E+00  0.7999E+01  0.7999E+01
    -23.407  0.0000E+00  0.0000E+00  0.8000E+01  0.8000E+01
    -23.168  0.0000E+00  0.0000E+00  0.8000E+01  0.8000E+01
    -22.929  0.0000E+00  0.0000E+00  0.8000E+01  0.8000E+01
    -22.690  0.0000E+00  0.0000E+00  0.8000E+01  0.8000E+01
    -22.451  0.0000E+00  0.0000E+00  0.8000E+01  0.8000E+01
    -22.212  0.0000E+00  0.0000E+00  0.8000E+01  0.8000E+01
    -21.973  0.0000E+00  0.0000E+00  0.8000E+01  0.8000E+01
    -21.734  0.0000E+00  0.0000E+00  0.8000E+01  0.8000E+01
    -21.495  0.0000E+00  0.0000E+00  0.8000E+01  0.8000E+01
    -21.256  0.0000E+00  0.0000E+00  0.8000E+01  0.8000E+01
    -21.016  0.0000E+00  0.0000E+00  0.8000E+01  0.8000E+01
    -20.777  0.0000E+00  0.0000E+00  0.8000E+01  0.8000E+01
    -20.538  0.0000E+00  0.0000E+00  0.8000E+01  0.8000E+01
    -20.299  0.0000E+00  0.0000E+00  0.8000E+01  0.8000E+01
    -20.060  0.0000E+00  0.0000E+00  0.8000E+01  0.8000E+01
    -19.821  0.0000E+00  0.0000E+00  0.8000E+01  0.8000E+01
    -19.582  0.0000E+00  0.0000E+00  0.8000E+01  0.8000E+01
    -19.343  0.0000E+00  0.0000E+00  0.8000E+01  0.8000E+01
    -19.104  0.0000E+00  0.0000E+00  0.8000E+01  0.8000E+01
    -18.865  0.0000E+00  0.0000E+00  0.8000E+01  0.8000E+01
    -18.626  0.0000E+00  0.0000E+00  0.8000E+01  0.8000E+01
    -18.387  0.0000E+00  0.0000E+00  0.8000E+01  0.8000E+01
    -18.147  0.0000E+00  0.0000E+00  0.8000E+01  0.8000E+01
    -17.908  0.0000E+00  0.0000E+00  0.8000E+01  0.8000E+01
    -17.669  0.0000E+00  0.0000E+00  0.8000E+01  0.8000E+01
    -17.430  0.0000E+00  0.0000E+00  0.8000E+01  0.8000E+01
    -17.191  0.0000E+00  0.0000E+00  0.8000E+01  0.8000E+01
    -16.952  0.0000E+00  0.0000E+00  0.8000E+01  0.8000E+01
    -16.713  0.0000E+00  0.0000E+00  0.8000E+01  0.8000E+01
    -16.474  0.0000E+00  0.0000E+00  0.8000E+01  0.8000E+01
    -16.235  0.0000E+00  0.0000E+00  0.8000E+01  0.8000E+01
    -15.996  0.0000E+00  0.0000E+00  0.8000E+01  0.8000E+01
    -15.757  0.0000E+00  0.0000E+00  0.8000E+01  0.8000E+01
    -15.518  0.0000E+00  0.0000E+00  0.8000E+01  0.8000E+01
    -15.278  0.0000E+00  0.0000E+00  0.8000E+01  0.8000E+01
    -15.039  0.0000E+00  0.0000E+00  0.8000E+01  0.8000E+01
    -14.800  0.0000E+00  0.0000E+00  0.8000E+01  0.8000E+01
    -14.561  0.0000E+00  0.0000E+00  0.8000E+01  0.8000E+01
    -14.322  0.0000E+00  0.0000E+00  0.8000E+01  0.8000E+01
    -14.083  0.0000E+00  0.0000E+00  0.8000E+01  0.8000E+01
    -13.844  0.0000E+00  0.0000E+00  0.8000E+01  0.8000E+01
    -13.605  0.0000E+00  0.0000E+00  0.8000E+01  0.8000E+01
    -13.366  0.0000E+00  0.0000E+00  0.8000E+01  0.8000E+01
    -13.127  0.0000E+00  0.0000E+00  0.8000E+01  0.8000E+01
    -12.888  0.0000E+00  0.0000E+00  0.8000E+01  0.8000E+01
    -12.649  0.0000E+00  0.0000E+00  0.8000E+01  0.8000E+01
    -12.409  0.0000E+00  0.0000E+00  0.8000E+01  0.8000E+01
    -12.170  0.0000E+00  0.0000E+00  0.8000E+01  0.8000E+01
    -11.931  0.0000E+00  0.0000E+00  0.8000E+01  0.8000E+01
    -11.692  0.0000E+00  0.0000E+00  0.8000E+01  0.8000E+01
    -11.453  0.0000E+00  0.0000E+00  0.8000E+01  0.8000E+01
    -11.214  0.0000E+00  0.0000E+00  0.8000E+01  0.8000E+01
    -10.975  0.0000E+00  0.0000E+00  0.8000E+01  0.8000E+01
    -10.736  0.0000E+00  0.0000E+00  0.8000E+01  0.8000E+01
    -10.497  0.0000E+00  0.0000E+00  0.8000E+01  0.8000E+01
    -10.258  0.0000E+00  0.0000E+00  0.8000E+01  0.8000E+01
    -10.019  0.0000E+00  0.0000E+00  0.8000E+01  0.8000E+01
     -9.780  0.0000E+00  0.0000E+00  0.8000E+01  0.8000E+01
     -9.541  0.0000E+00  0.0000E+00  0.8000E+01  0.8000E+01
     -9.301  0.0000E+00  0.0000E+00  0.8000E+01  0.8000E+01
     -9.062  0.0000E+00  0.0000E+00  0.8000E+01  0.8000E+01
     -8.823  0.0000E+00  0.0000E+00  0.8000E+01  0.8000E+01
     -8.584  0.0000E+00  0.0000E+00  0.8000E+01  0.8000E+01
     -8.345  0.0000E+00  0.0000E+00  0.8000E+01  0.8000E+01
     -8.106  0.0000E+00  0.0000E+00  0.8000E+01  0.8000E+01
     -7.867  0.0000E+00  0.0000E+00  0.8000E+01  0.8000E+01
     -7.628  0.0000E+00  0.0000E+00  0.8000E+01  0.8000E+01
     -7.389  0.0000E+00  0.0000E+00  0.8000E+01  0.8000E+01
     -7.150  0.0000E+00  0.0000E+00  0.8000E+01  0.8000E+01
     -6.911  0.0000E+00  0.0000E+00  0.8000E+01  0.8000E+01
     -6.672  0.0000E+00  0.0000E+00  0.8000E+01  0.8000E+01
     -6.432  0.0000E+00  0.0000E+00  0.8000E+01  0.8000E+01
     -6.193  0.0000E+00  0.0000E+00  0.8000E+01  0.8000E+01
     -5.954  0.0000E+00  0.0000E+00  0.8000E+01  0.8000E+01
     -5.715  0.0000E+00  0.0000E+00  0.8000E+01  0.8000E+01
     -5.476  0.0000E+00  0.0000E+00  0.8000E+01  0.8000E+01
     -5.237  0.0000E+00  0.0000E+00  0.8000E+01  0.8000E+01
     -4.998  0.0000E+00  0.0000E+00  0.8000E+01  0.8000E+01
     -4.759  0.0000E+00  0.0000E+00  0.8000E+01  0.8000E+01
     -4.520  0.0000E+00  0.0000E+00  0.8000E+01  0.8000E+01
     -4.281  0.0000E+00  0.0000E+00  0.8000E+01  0.8000E+01
     -4.042  0.0000E+00  0.0000E+00  0.8000E+01  0.8000E+01
     -3.803  0.0000E+00  0.0000E+00  0.8000E+01  0.8000E+01
     -3.563  0.0000E+00  0.0000E+00  0.8000E+01  0.8000E+01
     -3.324  0.0000E+00  0.0000E+00  0.8000E+01  0.8000E+01
     -3.085  0.0000E+00  0.0000E+00  0.8000E+01  0.8000E+01
     -2.846  0.0000E+00  0.0000E+00  0.8000E+01  0.8000E+01
     -2.607  0.0000E+00  0.0000E+00  0.8000E+01  0.8000E+01
     -2.368  0.0000E+00  0.0000E+00  0.8000E+01  0.8000E+01
     -2.129  0.0000E+00  0.0000E+00  0.8000E+01  0.8000E+01
     -1.890  0.0000E+00  0.0000E+00  0.8000E+01  0.8000E+01
     -1.651  0.0000E+00  0.0000E+00  0.8000E+01  0.8000E+01
     -1.412  0.0000E+00  0.0000E+00  0.8000E+01  0.8000E+01
     -1.173  0.0000E+00  0.0000E+00  0.8000E+01  0.8000E+01
     -0.934  0.0000E+00  0.0000E+00  0.8000E+01  0.8000E+01
     -0.694  0.0000E+00  0.0000E+00  0.8000E+01  0.8000E+01
     -0.455  0.0000E+00  0.0000E+00  0.8000E+01  0.8000E+01
     -0.216  0.0000E+00  0.0000E+00  0.8000E+01  0.8000E+01
      0.023  0.0000E+00  0.0000E+00  0.8000E+01  0.8000E+01
      0.262  0.0000E+00  0.0000E+00  0.8000E+01  0.8000E+01
      0.501  0.0000E+00  0.0000E+00  0.8000E+01  0.8000E+01
      0.740  0.0000E+00  0.0000E+00  0.8000E+01  0.8000E+01
      0.979  0.0000E+00  0.0000E+00  0.8000E+01  0.8000E+01
      1.218  0.0000E+00  0.0000E+00  0.8000E+01  0.8000E+01
      1.457  0.0000E+00  0.0000E+00  0.8000E+01  0.8000E+01
      1.696  0.0000E+00  0.0000E+00  0.8000E+01  0.8000E+01
      1.935  0.3758E-06  0.3705E-06  0.8000E+01  0.8000E+01
      2.174  0.4556E-04  0.4492E-04  0.8000E+01  0.8000E+01
      2.414  0.3164E-02  0.3134E-02  0.8001E+01  0.8001E+01
      2.653  0.3173E-01  0.3161E-01  0.8008E+01  0.8008E+01
      2.892  0.4204E-01  0.4202E-01  0.8018E+01  0.8018E+01
      3.131  0.8908E-01  0.8903E-01  0.8040E+01  0.8040E+01
      3.370  0.6790E-01  0.6789E-01  0.8056E+01  0.8056E+01
      3.609  0.1163E+00  0.1162E+00  0.8084E+01  0.8084E+01
      3.848  0.1151E+00  0.1150E+00  0.8112E+01  0.8111E+01
      4.087  0.1352E+00  0.1354E+00  0.8144E+01  0.8144E+01
      4.326  0.1255E+00  0.1252E+00  0.8175E+01  0.8175E+01
      4.565  0.2225E+00  0.2225E+00  0.8229E+01  0.8228E+01
      4.804  0.1730E+00  0.1728E+00  0.8271E+01  0.8270E+01
      5.043  0.2173E+00  0.2170E+00  0.8323E+01  0.8322E+01
      5.283  0.2668E+00  0.2666E+00  0.8387E+01  0.8386E+01
      5.522  0.3731E+00  0.3731E+00  0.8476E+01  0.8476E+01
      5.761  0.3794E+00  0.3798E+00  0.8568E+01  0.8568E+01
      6.000  0.7205E+00  0.7193E+00  0.8741E+01  0.8740E+01
      6.239  0.9529E+00  0.9536E+00  0.8969E+01  0.8969E+01
      6.478  0.8994E+00  0.8995E+00  0.9186E+01  0.9186E+01
      6.717  0.1198E+01  0.1198E+01  0.9475E+01  0.9474E+01
      6.956  0.1340E+01  0.1341E+01  0.9798E+01  0.9798E+01
      7.195  0.1256E+01  0.1256E+01  0.1010E+02  0.1010E+02
      7.434  0.1037E+01  0.1037E+01  0.1035E+02  0.1035E+02
      7.673  0.1331E+01  0.1331E+01  0.1067E+02  0.1067E+02
      7.912  0.1628E+01  0.1628E+01  0.1106E+02  0.1106E+02
      8.152  0.1825E+01  0.1825E+01  0.1150E+02  0.1150E+02
      8.391  0.1053E+01  0.1053E+01  0.1176E+02  0.1176E+02
      8.630  0.7655E+00  0.7655E+00  0.1194E+02  0.1194E+02
      8.869  0.1261E+01  0.1261E+01  0.1225E+02  0.1225E+02
      9.108  0.1969E+01  0.1969E+01  0.1272E+02  0.1272E+02
      9.347  0.2019E+01  0.2019E+01  0.1320E+02  0.1320E+02
      9.586  0.2162E+01  0.2162E+01  0.1373E+02  0.1373E+02
      9.825  0.2466E+01  0.2466E+01  0.1432E+02  0.1432E+02
     10.064  0.1959E+01  0.1960E+01  0.1479E+02  0.1479E+02
     10.303  0.1349E+01  0.1349E+01  0.1512E+02  0.1512E+02
     10.542  0.1094E+01  0.1094E+01  0.1538E+02  0.1538E+02
     10.781  0.9753E+00  0.9756E+00  0.1562E+02  0.1562E+02
     11.021  0.1029E+01  0.1029E+01  0.1587E+02  0.1587E+02
     11.260  0.1049E+01  0.1050E+01  0.1612E+02  0.1612E+02
     11.499  0.1253E+01  0.1253E+01  0.1642E+02  0.1642E+02
     11.738  0.1505E+01  0.1506E+01  0.1678E+02  0.1679E+02
     11.977  0.2309E+01  0.2311E+01  0.1734E+02  0.1734E+02
     12.216  0.2995E+01  0.2996E+01  0.1806E+02  0.1806E+02
     12.455  0.2365E+01  0.2363E+01  0.1863E+02  0.1863E+02
     12.694  0.6198E+00  0.6192E+00  0.1878E+02  0.1878E+02
     12.933  0.6650E+00  0.6648E+00  0.1894E+02  0.1894E+02
     13.172  0.4083E+00  0.4080E+00  0.1904E+02  0.1904E+02
     13.411  0.4438E+00  0.4436E+00  0.1915E+02  0.1915E+02
     13.650  0.5124E+00  0.5120E+00  0.1927E+02  0.1927E+02
     13.890  0.3029E+00  0.3022E+00  0.1935E+02  0.1935E+02
     14.129  0.3657E+00  0.3663E+00  0.1943E+02  0.1943E+02
     14.368  0.3215E+00  0.3194E+00  0.1951E+02  0.1951E+02
     14.607  0.3879E+00  0.3869E+00  0.1961E+02  0.1960E+02
     14.846  0.2872E+00  0.2889E+00  0.1968E+02  0.1967E+02
     15.085  0.3779E+00  0.3809E+00  0.1977E+02  0.1977E+02
     15.324  0.1795E+00  0.1804E+00  0.1981E+02  0.1981E+02
     15.563  0.2704E+00  0.2649E+00  0.1988E+02  0.1988E+02
     15.802  0.2150E+00  0.2162E+00  0.1993E+02  0.1993E+02
     16.041  0.1281E+00  0.1307E+00  0.1996E+02  0.1996E+02
     16.280  0.4843E-01  0.4958E-01  0.1997E+02  0.1997E+02
     16.519  0.4186E-01  0.4202E-01  0.1998E+02  0.1998E+02
     16.758  0.4050E-01  0.4053E-01  0.1999E+02  0.1999E+02
     16.998  0.2013E-01  0.2033E-01  0.2000E+02  0.2000E+02
     17.237  0.1322E-01  0.1328E-01  0.2000E+02  0.2000E+02
     17.476  0.7145E-03  0.7446E-03  0.2000E+02  0.2000E+02
     17.715  0.0000E+00  0.0000E+00  0.2000E+02  0.2000E+02
     17.954  0.0000E+00  0.0000E+00  0.2000E+02  0.2000E+02
     18.193  0.0000E+00  0.0000E+00  0.2000E+02  0.2000E+02
     18.432  0.0000E+00  0.0000E+00  0.2000E+02  0.2000E+02
     18.671  0.0000E+00  0.0000E+00  0.2000E+02  0.2000E+02
     18.910  0.0000E+00  0.0000E+00  0.2000E+02  0.2000E+02
     19.149  0.0000E+00  0.0000E+00  0.2000E+02  0.2000E+02
     19.388  0.0000E+00  0.0000E+00  0.2000E+02  0.2000E+02
     19.627  0.0000E+00  0.0000E+00  0.2000E+02  0.2000E+02
     19.867  0.0000E+00  0.0000E+00  0.2000E+02  0.2000E+02
     20.106  0.0000E+00  0.0000E+00  0.2000E+02  0.2000E+02
     20.345  0.0000E+00  0.0000E+00  0.2000E+02  0.2000E+02
     20.34470779    -51.37982130  301      8.69433934      1.00000000
    -51.380  0.0000E+00  0.0000E+00  0.0000E+00  0.0000E+00  0.0000E+00  0.0000E+00  0.0000E+00  0.0000E+00  0.0000E+00  0.0000E+00  0.0000E+00  0.0000E+00  0.0000E+00  0.0000E+00  0.0000E+00  0.0000E+00  0.0000E+00  0.0000E+00
    -51.141  0.0000E+00  0.0000E+00  0.0000E+00  0.0000E+00  0.0000E+00  0.0000E+00  0.0000E+00  0.0000E+00  0.0000E+00  0.0000E+00  0.0000E+00  0.0000E+00  0.0000E+00  0.0000E+00  0.0000E+00  0.0000E+00  0.0000E+00  0.0000E+00
    -50.902  0.0000E+00  0.0000E+00  0.0000E+00  0.0000E+00  0.0000E+00  0.0000E+00  0.0000E+00  0.0000E+00  0.0000E+00  0.0000E+00  0.0000E+00  0.0000E+00  0.0000E+00  0.0000E+00  0.0000E+00  0.0000E+00  0.0000E+00  0.0000E+00
    -50.663  0.0000E+00  0.0000E+00  0.0000E+00  0.0000E+00  0.0000E+00  0.0000E+00  0.0000E+00  0.0000E+00  0.0000E+00  0.0000E+00  0.0000E+00  0.0000E+00  0.0000E+00  0.0000E+00  0.0000E+00  0.0000E+00  0.0000E+00  0.0000E+00
    -50.423  0.0000E+00  0.0000E+00  0.0000E+00  0.0000E+00  0.0000E+00  0.0000E+00  0.0000E+00  0.0000E+00  0.0000E+00  0.0000E+00  0.0000E+00  0.0000E+00  0.0000E+00  0.0000E+00  0.0000E+00  0.0000E+00  0.0000E+00  0.0000E+00
    -50.184  0.0000E+00  0.0000E+00  0.0000E+00  0.0000E+00  0.0000E+00  0.0000E+00  0.0000E+00  0.0000E+00  0.0000E+00  0.0000E+00  0.0000E+00  0.0000E+00  0.0000E+00  0.0000E+00  0.0000E+00  0.0000E+00  0.0000E+00  0.0000E+00
    -49.945  0.0000E+00  0.0000E+00  0.0000E+00  0.0000E+00  0.0000E+00  0.0000E+00  0.0000E+00  0.0000E+00  0.0000E+00  0.0000E+00  0.0000E+00  0.0000E+00  0.0000E+00  0.0000E+00  0.0000E+00  0.0000E+00  0.0000E+00  0.0000E+00
    -49.706  0.0000E+00  0.0000E+00  0.0000E+00  0.0000E+00  0.0000E+00  0.0000E+00  0.0000E+00  0.0000E+00  0.0000E+00  0.0000E+00  0.0000E+00  0.0000E+00  0.0000E+00  0.0000E+00  0.0000E+00  0.0000E+00  0.0000E+00  0.0000E+00
    -49.467  0.0000E+00  0.0000E+00  0.0000E+00  0.0000E+00  0.0000E+00  0.0000E+00  0.0000E+00  0.0000E+00  0.0000E+00  0.0000E+00  0.0000E+00  0.0000E+00  0.0000E+00  0.0000E+00  0.0000E+00  0.0000E+00  0.0000E+00  0.0000E+00
    -49.228  0.0000E+00  0.0000E+00  0.0000E+00  0.0000E+00  0.0000E+00  0.0000E+00  0.0000E+00  0.0000E+00  0.0000E+00  0.0000E+00  0.0000E+00  0.0000E+00  0.0000E+00  0.0000E+00  0.0000E+00  0.0000E+00  0.0000E+00  0.0000E+00
    -48.989  0.0000E+00  0.0000E+00  0.0000E+00  0.0000E+00  0.0000E+00  0.0000E+00  0.0000E+00  0.0000E+00  0.0000E+00  0.0000E+00  0.0000E+00  0.0000E+00  0.0000E+00  0.0000E+00  0.0000E+00  0.0000E+00  0.0000E+00  0.0000E+00
    -48.750  0.3665E-07  0.3688E-07  0.7957E-13  0.7990E-13  0.4497E-13  0.4508E-13  0.7957E-13  0.7990E-13  0.1745E-14  0.1752E-14  0.8115E-20  0.1930E-20  0.6412E-13  0.6457E-13  0.8115E-20  0.1930E-20  0.1745E-14  0.1752E-14
    -48.511  0.1569E-03  0.1579E-03  0.1342E-08  0.1351E-08  0.1660E-08  0.1673E-08  0.1342E-08  0.1351E-08  0.2707E-09  0.2725E-09  0.2611E-09  0.2628E-09  0.5192E-09  0.5229E-09  0.2611E-09  0.2628E-09  0.2707E-09  0.2725E-09
    -48.272  0.1834E-01  0.1846E-01  0.1569E-06  0.1580E-06  0.1942E-06  0.1956E-06  0.1569E-06  0.1580E-06  0.3184E-07  0.3205E-07  0.3075E-07  0.3094E-07  0.6090E-07  0.6134E-07  0.3075E-07  0.3094E-07  0.3184E-07  0.3205E-07
    -48.033  0.1148E+01  0.1153E+01  0.8997E-05  0.9039E-05  0.1148E-04  0.1154E-04  0.8997E-05  0.9039E-05  0.2430E-05  0.2441E-05  0.2530E-05  0.2541E-05  0.4303E-05  0.4324E-05  0.2530E-05  0.2541E-05  0.2430E-05  0.2441E-05
    -47.794  0.2872E+01  0.2869E+01  0.1457E-04  0.1456E-04  0.2005E-04  0.2006E-04  0.1457E-04  0.1456E-04  0.6421E-05  0.6412E-05  0.8082E-05  0.8071E-05  0.1123E-04  0.1122E-04  0.8082E-05  0.8071E-05  0.6421E-05  0.6412E-05
    -47.555  0.6571E-01  0.6468E-01  0.1206E-06  0.1198E-06  0.1456E-06  0.1420E-06  0.1206E-06  0.1198E-06  0.9050E-07  0.8769E-07  0.1588E-06  0.1534E-06  0.1636E-06  0.1611E-06  0.1588E-06  0.1534E-06  0.9050E-07  0.8769E-07
    -47.315  0.0000E+00  0.0000E+00  0.0000E+00  0.0000E+00  0.0000E+00  0.0000E+00  0.0000E+00  0.0000E+00  0.0000E+00  0.0000E+00  0.0000E+00  0.0000E+00  0.0000E+00  0.0000E+00  0.0000E+00  0.0000E+00  0.0000E+00  0.0000E+00
    -47.076  0.0000E+00  0.0000E+00  0.0000E+00  0.0000E+00  0.0000E+00  0.0000E+00  0.0000E+00  0.0000E+00  0.0000E+00  0.0000E+00  0.0000E+00  0.0000E+00  0.0000E+00  0.0000E+00  0.0000E+00  0.0000E+00  0.0000E+00  0.0000E+00
    -46.837  0.0000E+00  0.0000E+00  0.0000E+00  0.0000E+00  0.0000E+00  0.0000E+00  0.0000E+00  0.0000E+00  0.0000E+00  0.0000E+00  0.0000E+00  0.0000E+00  0.0000E+00  0.0000E+00  0.0000E+00  0.0000E+00  0.0000E+00  0.0000E+00
    -46.598  0.0000E+00  0.0000E+00  0.0000E+00  0.0000E+00  0.0000E+00  0.0000E+00  0.0000E+00  0.0000E+00  0.0000E+00  0.0000E+00  0.0000E+00  0.0000E+00  0.0000E+00  0.0000E+00  0.0000E+00  0.0000E+00  0.0000E+00  0.0000E+00
    -46.359  0.0000E+00  0.0000E+00  0.0000E+00  0.0000E+00  0.0000E+00  0.0000E+00  0.0000E+00  0.0000E+00  0.0000E+00  0.0000E+00  0.0000E+00  0.0000E+00  0.0000E+00  0.0000E+00  0.0000E+00  0.0000E+00  0.0000E+00  0.0000E+00
    -46.120  0.0000E+00  0.0000E+00  0.0000E+00  0.0000E+00  0.0000E+00  0.0000E+00  0.0000E+00  0.0000E+00  0.0000E+00  0.0000E+00  0.0000E+00  0.0000E+00  0.0000E+00  0.0000E+00  0.0000E+00  0.0000E+00  0.0000E+00  0.0000E+00
    -45.881  0.0000E+00  0.0000E+00  0.0000E+00  0.0000E+00  0.0000E+00  0.0000E+00  0.0000E+00  0.0000E+00  0.0000E+00  0.0000E+00  0.0000E+00  0.0000E+00  0.0000E+00  0.0000E+00  0.0000E+00  0.0000E+00  0.0000E+00  0.0000E+00
    -45.642  0.0000E+00  0.0000E+00  0.0000E+00  0.0000E+00  0.0000E+00  0.0000E+00  0.0000E+00  0.0000E+00  0.0000E+00  0.0000E+00  0.0000E+00  0.0000E+00  0.0000E+00  0.0000E+00  0.0000E+00  0.0000E+00  0.0000E+00  0.0000E+00
    -45.403  0.0000E+00  0.0000E+00  0.0000E+00  0.0000E+00  0.0000E+00  0.0000E+00  0.0000E+00  0.0000E+00  0.0000E+00  0.0000E+00  0.0000E+00  0.0000E+00  0.0000E+00  0.0000E+00  0.0000E+00  0.0000E+00  0.0000E+00  0.0000E+00
    -45.164  0.0000E+00  0.0000E+00  0.0000E+00  0.0000E+00  0.0000E+00  0.0000E+00  0.0000E+00  0.0000E+00  0.0000E+00  0.0000E+00  0.0000E+00  0.0000E+00  0.0000E+00  0.0000E+00  0.0000E+00  0.0000E+00  0.0000E+00  0.0000E+00
    -44.925  0.0000E+00  0.0000E+00  0.0000E+00  0.0000E+00  0.0000E+00  0.0000E+00  0.0000E+00  0.0000E+00  0.0000E+00  0.0000E+00  0.0000E+00  0.0000E+00  0.0000E+00  0.0000E+00  0.0000E+00  0.0000E+00  0.0000E+00  0.0000E+00
    -44.686  0.0000E+00  0.0000E+00  0.0000E+00  0.0000E+00  0.0000E+00  0.0000E+00  0.0000E+00  0.0000E+00  0.0000E+00  0.0000E+00  0.0000E+00  0.0000E+00  0.0000E+00  0.0000E+00  0.0000E+00  0.0000E+00  0.0000E+00  0.0000E+00
    -44.446  0.0000E+00  0.0000E+00  0.0000E+00  0.0000E+00  0.0000E+00  0.0000E+00  0.0000E+00  0.0000E+00  0.0000E+00  0.0000E+00  0.0000E+00  0.0000E+00  0.0000E+00  0.0000E+00  0.0000E+00  0.0000E+00  0.0000E+00  0.0000E+00
    -44.207  0.0000E+00  0.0000E+00  0.0000E+00  0.0000E+00  0.0000E+00  0.0000E+00  0.0000E+00  0.0000E+00  0.0000E+00  0.0000E+00  0.0000E+00  0.0000E+00  0.0000E+00  0.0000E+00  0.0000E+00  0.0000E+00  0.0000E+00  0.0000E+00
    -43.968  0.0000E+00  0.0000E+00  0.0000E+00  0.0000E+00  0.0000E+00  0.0000E+00  0.0000E+00  0.0000E+00  0.0000E+00  0.0000E+00  0.0000E+00  0.0000E+00  0.0000E+00  0.0000E+00  0.0000E+00  0.0000E+00  0.0000E+00  0.0000E+00
    -43.729  0.0000E+00  0.0000E+00  0.0000E+00  0.0000E+00  0.0000E+00  0.0000E+00  0.0000E+00  0.0000E+00  0.0000E+00  0.0000E+00  0.0000E+00  0.0000E+00  0.0000E+00  0.0000E+00  0.0000E+00  0.0000E+00  0.0000E+00  0.0000E+00
    -43.490  0.0000E+00  0.0000E+00  0.0000E+00  0.0000E+00  0.0000E+00  0.0000E+00  0.0000E+00  0.0000E+00  0.0000E+00  0.0000E+00  0.0000E+00  0.0000E+00  0.0000E+00  0.0000E+00  0.0000E+00  0.0000E+00  0.0000E+00  0.0000E+00
    -43.251  0.0000E+00  0.0000E+00  0.0000E+00  0.0000E+00  0.0000E+00  0.0000E+00  0.0000E+00  0.0000E+00  0.0000E+00  0.0000E+00  0.0000E+00  0.0000E+00  0.0000E+00  0.0000E+00  0.0000E+00  0.0000E+00  0.0000E+00  0.0000E+00
    -43.012  0.0000E+00  0.0000E+00  0.0000E+00  0.0000E+00  0.0000E+00  0.0000E+00  0.0000E+00  0.0000E+00  0.0000E+00  0.0000E+00  0.0000E+00  0.0000E+00  0.0000E+00  0.0000E+00  0.0000E+00  0.0000E+00  0.0000E+00  0.0000E+00
    -42.773  0.0000E+00  0.0000E+00  0.0000E+00  0.0000E+00  0.0000E+00  0.0000E+00  0.0000E+00  0.0000E+00  0.0000E+00  0.0000E+00  0.0000E+00  0.0000E+00  0.0000E+00  0.0000E+00  0.0000E+00  0.0000E+00  0.0000E+00  0.0000E+00
    -42.534  0.0000E+00  0.0000E+00  0.0000E+00  0.0000E+00  0.0000E+00  0.0000E+00  0.0000E+00  0.0000E+00  0.0000E+00  0.0000E+00  0.0000E+00  0.0000E+00  0.0000E+00  0.0000E+00  0.0000E+00  0.0000E+00  0.0000E+00  0.0000E+00
    -42.295  0.0000E+00  0.0000E+00  0.0000E+00  0.0000E+00  0.0000E+00  0.0000E+00  0.0000E+00  0.0000E+00  0.0000E+00  0.0000E+00  0.0000E+00  0.0000E+00  0.0000E+00  0.0000E+00  0.0000E+00  0.0000E+00  0.0000E+00  0.0000E+00
    -42.056  0.0000E+00  0.0000E+00  0.0000E+00  0.0000E+00  0.0000E+00  0.0000E+00  0.0000E+00  0.0000E+00  0.0000E+00  0.0000E+00  0.0000E+00  0.0000E+00  0.0000E+00  0.0000E+00  0.0000E+00  0.0000E+00  0.0000E+00  0.0000E+00
    -41.817  0.0000E+00  0.0000E+00  0.0000E+00  0.0000E+00  0.0000E+00  0.0000E+00  0.0000E+00  0.0000E+00  0.0000E+00  0.0000E+00  0.0000E+00  0.0000E+00  0.0000E+00  0.0000E+00  0.0000E+00  0.0000E+00  0.0000E+00  0.0000E+00
    -41.577  0.0000E+00  0.0000E+00  0.0000E+00  0.0000E+00  0.0000E+00  0.0000E+00  0.0000E+00  0.0000E+00  0.0000E+00  0.0000E+00  0.0000E+00  0.0000E+00  0.0000E+00  0.0000E+00  0.0000E+00  0.0000E+00  0.0000E+00  0.0000E+00
    -41.338  0.0000E+00  0.0000E+00  0.0000E+00  0.0000E+00  0.0000E+00  0.0000E+00  0.0000E+00  0.0000E+00  0.0000E+00  0.0000E+00  0.0000E+00  0.0000E+00  0.0000E+00  0.0000E+00  0.0000E+00  0.0000E+00  0.0000E+00  0.0000E+00
    -41.099  0.0000E+00  0.0000E+00  0.0000E+00  0.0000E+00  0.0000E+00  0.0000E+00  0.0000E+00  0.0000E+00  0.0000E+00  0.0000E+00  0.0000E+00  0.0000E+00  0.0000E+00  0.0000E+00  0.0000E+00  0.0000E+00  0.0000E+00  0.0000E+00
    -40.860  0.0000E+00  0.0000E+00  0.0000E+00  0.0000E+00  0.0000E+00  0.0000E+00  0.0000E+00  0.0000E+00  0.0000E+00  0.0000E+00  0.0000E+00  0.0000E+00  0.0000E+00  0.0000E+00  0.0000E+00  0.0000E+00  0.0000E+00  0.0000E+00
    -40.621  0.0000E+00  0.0000E+00  0.0000E+00  0.0000E+00  0.0000E+00  0.0000E+00  0.0000E+00  0.0000E+00  0.0000E+00  0.0000E+00  0.0000E+00  0.0000E+00  0.0000E+00  0.0000E+00  0.0000E+00  0.0000E+00  0.0000E+00  0.0000E+00
    -40.382  0.0000E+00  0.0000E+00  0.0000E+00  0.0000E+00  0.0000E+00  0.0000E+00  0.0000E+00  0.0000E+00  0.0000E+00  0.0000E+00  0.0000E+00  0.0000E+00  0.0000E+00  0.0000E+00  0.0000E+00  0.0000E+00  0.0000E+00  0.0000E+00
    -40.143  0.0000E+00  0.0000E+00  0.0000E+00  0.0000E+00  0.0000E+00  0.0000E+00  0.0000E+00  0.0000E+00  0.0000E+00  0.0000E+00  0.0000E+00  0.0000E+00  0.0000E+00  0.0000E+00  0.0000E+00  0.0000E+00  0.0000E+00  0.0000E+00
    -39.904  0.0000E+00  0.0000E+00  0.0000E+00  0.0000E+00  0.0000E+00  0.0000E+00  0.0000E+00  0.0000E+00  0.0000E+00  0.0000E+00  0.0000E+00  0.0000E+00  0.0000E+00  0.0000E+00  0.0000E+00  0.0000E+00  0.0000E+00  0.0000E+00
    -39.665  0.0000E+00  0.0000E+00  0.0000E+00  0.0000E+00  0.0000E+00  0.0000E+00  0.0000E+00  0.0000E+00  0.0000E+00  0.0000E+00  0.0000E+00  0.0000E+00  0.0000E+00  0.0000E+00  0.0000E+00  0.0000E+00  0.0000E+00  0.0000E+00
    -39.426  0.0000E+00  0.0000E+00  0.0000E+00  0.0000E+00  0.0000E+00  0.0000E+00  0.0000E+00  0.0000E+00  0.0000E+00  0.0000E+00  0.0000E+00  0.0000E+00  0.0000E+00  0.0000E+00  0.0000E+00  0.0000E+00  0.0000E+00  0.0000E+00