   2   2   1   0
  0.2152844E+02  0.3125823E-09  0.3125822E-09  0.5088423E-09  0.5000000E-15
  1.000000000000000E-004
  CAR 
 unknown system                          
     17.05738746     -5.24979145  301      3.04832306      1.00000000
     -5.250  0.0000E+00  0.0000E+00  0.0000E+00  0.0000E+00
     -5.175  0.0000E+00  0.0000E+00  0.0000E+00  0.0000E+00
     -5.101  0.0000E+00  0.0000E+00  0.0000E+00  0.0000E+00
     -5.027  0.0000E+00  0.0000E+00  0.0000E+00  0.0000E+00
     -4.952  0.0000E+00  0.0000E+00  0.0000E+00  0.0000E+00
     -4.878  0.0000E+00  0.0000E+00  0.0000E+00  0.0000E+00
     -4.804  0.0000E+00  0.0000E+00  0.0000E+00  0.0000E+00
     -4.729  0.0000E+00  0.0000E+00  0.0000E+00  0.0000E+00
     -4.655  0.1996E-05  0.2024E-05  0.1484E-06  0.1505E-06
     -4.581  0.1564E-04  0.1586E-04  0.1312E-05  0.1330E-05
     -4.506  0.6998E-04  0.7097E-04  0.6515E-05  0.6607E-05
     -4.432  0.2971E-03  0.3012E-03  0.2860E-04  0.2900E-04
     -4.358  0.1268E-02  0.1285E-02  0.1229E-03  0.1245E-03
     -4.283  0.4866E-02  0.4923E-02  0.4847E-03  0.4906E-03
     -4.209  0.1479E-01  0.1493E-01  0.1584E-02  0.1600E-02
     -4.134  0.3415E-01  0.3437E-01  0.4123E-02  0.4156E-02
     -4.060  0.5605E-01  0.5620E-01  0.8291E-02  0.8335E-02
     -3.986  0.6130E-01  0.6126E-01  0.1285E-01  0.1289E-01
     -3.911  0.6205E-01  0.6219E-01  0.1746E-01  0.1751E-01
     -3.837  0.9340E-01  0.9378E-01  0.2441E-01  0.2449E-01
     -3.763  0.1189E+00  0.1189E+00  0.3325E-01  0.3333E-01
     -3.688  0.1075E+00  0.1074E+00  0.4125E-01  0.4132E-01
     -3.614  0.9796E-01  0.9793E-01  0.4854E-01  0.4861E-01
     -3.540  0.1013E+00  0.1014E+00  0.5607E-01  0.5615E-01
     -3.465  0.1205E+00  0.1208E+00  0.6504E-01  0.6514E-01
     -3.391  0.1405E+00  0.1406E+00  0.7550E-01  0.7561E-01
     -3.317  0.1483E+00  0.1483E+00  0.8653E-01  0.8664E-01
     -3.242  0.1443E+00  0.1443E+00  0.9727E-01  0.9737E-01
     -3.168  0.1501E+00  0.1504E+00  0.1084E+00  0.1086E+00
     -3.093  0.1934E+00  0.1937E+00  0.1228E+00  0.1230E+00
     -3.019  0.1796E+00  0.1791E+00  0.1362E+00  0.1363E+00
     -2.945  0.1206E+00  0.1202E+00  0.1452E+00  0.1452E+00
     -2.870  0.1046E+00  0.1047E+00  0.1529E+00  0.1530E+00
     -2.796  0.1446E+00  0.1452E+00  0.1637E+00  0.1638E+00
     -2.722  0.2189E+00  0.2195E+00  0.1800E+00  0.1802E+00
     -2.647  0.2446E+00  0.2446E+00  0.1982E+00  0.1984E+00
     -2.573  0.2300E+00  0.2298E+00  0.2153E+00  0.2155E+00
     -2.499  0.1979E+00  0.1976E+00  0.2300E+00  0.2302E+00
     -2.424  0.1721E+00  0.1720E+00  0.2428E+00  0.2429E+00
     -2.350  0.1848E+00  0.1850E+00  0.2566E+00  0.2567E+00
     -2.276  0.2052E+00  0.2053E+00  0.2718E+00  0.2720E+00
     -2.201  0.2020E+00  0.2018E+00  0.2869E+00  0.2870E+00
     -2.127  0.1859E+00  0.1860E+00  0.3007E+00  0.3008E+00
     -2.052  0.2230E+00  0.2236E+00  0.3173E+00  0.3175E+00
     -1.978  0.2670E+00  0.2670E+00  0.3372E+00  0.3374E+00
     -1.904  0.2289E+00  0.2283E+00  0.3542E+00  0.3543E+00
     -1.829  0.1673E+00  0.1668E+00  0.3667E+00  0.3668E+00
     -1.755  0.1595E+00  0.1601E+00  0.3785E+00  0.3787E+00
     -1.681  0.2797E+00  0.2813E+00  0.3993E+00  0.3996E+00
     -1.606  0.3866E+00  0.3868E+00  0.4281E+00  0.4284E+00
     -1.532  0.3266E+00  0.3257E+00  0.4524E+00  0.4526E+00
     -1.458  0.2378E+00  0.2372E+00  0.4701E+00  0.4703E+00
     -1.383  0.2181E+00  0.2182E+00  0.4863E+00  0.4865E+00
     -1.309  0.2251E+00  0.2251E+00  0.5031E+00  0.5033E+00
     -1.234  0.2127E+00  0.2126E+00  0.5190E+00  0.5191E+00
     -1.160  0.2091E+00  0.2091E+00  0.5345E+00  0.5347E+00
     -1.086  0.2090E+00  0.2090E+00  0.5501E+00  0.5502E+00
     -1.011  0.2280E+00  0.2283E+00  0.5670E+00  0.5672E+00
     -0.937  0.2890E+00  0.2898E+00  0.5885E+00  0.5888E+00
     -0.863  0.3721E+00  0.3726E+00  0.6162E+00  0.6165E+00
     -0.788  0.3636E+00  0.3629E+00  0.6433E+00  0.6435E+00
     -0.714  0.2803E+00  0.2798E+00  0.6641E+00  0.6643E+00
     -0.640  0.3022E+00  0.3030E+00  0.6866E+00  0.6868E+00
     -0.565  0.3640E+00  0.3641E+00  0.7137E+00  0.7139E+00
     -0.491  0.3073E+00  0.3065E+00  0.7365E+00  0.7367E+00
     -0.417  0.2476E+00  0.2472E+00  0.7550E+00  0.7552E+00
     -0.342  0.2428E+00  0.2431E+00  0.7731E+00  0.7732E+00
     -0.268  0.3153E+00  0.3161E+00  0.7965E+00  0.7968E+00
     -0.193  0.3521E+00  0.3518E+00  0.8227E+00  0.8230E+00
     -0.119  0.2788E+00  0.2778E+00  0.8435E+00  0.8436E+00
     -0.045  0.2109E+00  0.2108E+00  0.8592E+00  0.8593E+00
      0.030  0.2720E+00  0.2732E+00  0.8794E+00  0.8797E+00
      0.104  0.3643E+00  0.3647E+00  0.9065E+00  0.9068E+00
      0.178  0.3705E+00  0.3705E+00  0.9341E+00  0.9344E+00
      0.253  0.3562E+00  0.3558E+00  0.9606E+00  0.9608E+00
      0.327  0.3029E+00  0.3024E+00  0.9831E+00  0.9833E+00
      0.401  0.2957E+00  0.2961E+00  0.1005E+01  0.1005E+01
      0.476  0.3504E+00  0.3510E+00  0.1031E+01  0.1031E+01
      0.550  0.3831E+00  0.3832E+00  0.1060E+01  0.1060E+01
      0.624  0.3999E+00  0.4000E+00  0.1089E+01  0.1090E+01
      0.699  0.4373E+00  0.4377E+00  0.1122E+01  0.1122E+01
      0.773  0.4639E+00  0.4638E+00  0.1156E+01  0.1157E+01
      0.848  0.3898E+00  0.3888E+00  0.1185E+01  0.1186E+01
      0.922  0.2841E+00  0.2836E+00  0.1207E+01  0.1207E+01
      0.996  0.2725E+00  0.2728E+00  0.1227E+01  0.1227E+01
      1.071  0.3269E+00  0.3273E+00  0.1251E+01  0.1252E+01
      1.145  0.3498E+00  0.3499E+00  0.1277E+01  0.1278E+01
      1.219  0.3238E+00  0.3233E+00  0.1301E+01  0.1302E+01
      1.294  0.2779E+00  0.2773E+00  0.1322E+01  0.1322E+01
      1.368  0.2729E+00  0.2735E+00  0.1342E+01  0.1343E+01
      1.442  0.3816E+00  0.3830E+00  0.1371E+01  0.1371E+01
      1.517  0.4689E+00  0.4693E+00  0.1406E+01  0.1406E+01
      1.591  0.4952E+00  0.4954E+00  0.1443E+01  0.1443E+01
      1.665  0.4952E+00  0.4951E+00  0.1479E+01  0.1480E+01
      1.740  0.4739E+00  0.4741E+00  0.1515E+01  0.1515E+01
      1.814  0.4981E+00  0.4990E+00  0.1552E+01  0.1552E+01
      1.889  0.4993E+00  0.4988E+00  0.1589E+01  0.1589E+01
      1.963  0.4576E+00  0.4569E+00  0.1623E+01  0.1623E+01
      2.037  0.4252E+00  0.4248E+00  0.1655E+01  0.1655E+01
      2.112  0.3672E+00  0.3666E+00  0.1682E+01  0.1682E+01
      2.186  0.2747E+00  0.2738E+00  0.1702E+01  0.1703E+01
      2.260  0.2387E+00  0.2391E+00  0.1720E+01  0.1720E+01
      2.335  0.3241E+00  0.3256E+00  0.1744E+01  0.1745E+01
      2.409  0.4836E+00  0.4854E+00  0.1780E+01  0.1781E+01
      2.483  0.5344E+00  0.5337E+00  0.1820E+01  0.1820E+01
      2.558  0.4022E+00  0.3999E+00  0.1850E+01  0.1850E+01
      2.632  0.2670E+00  0.2653E+00  0.1870E+01  0.1870E+01
      2.706  0.2035E+00  0.2034E+00  0.1885E+01  0.1885E+01
      2.781  0.2459E+00  0.2468E+00  0.1903E+01  0.1903E+01
      2.855  0.3121E+00  0.3130E+00  0.1926E+01  0.1927E+01
      2.930  0.3358E+00  0.3362E+00  0.1951E+01  0.1952E+01
      3.004  0.3597E+00  0.3610E+00  0.1978E+01  0.1979E+01
      3.078  0.5356E+00  0.5383E+00  0.2018E+01  0.2019E+01
      3.153  0.7256E+00  0.7258E+00  0.2072E+01  0.2073E+01
      3.227  0.6502E+00  0.6472E+00  0.2120E+01  0.2121E+01
      3.301  0.4340E+00  0.4316E+00  0.2153E+01  0.2153E+01
      3.376  0.3535E+00  0.3536E+00  0.2179E+01  0.2179E+01
      3.450  0.3774E+00  0.3777E+00  0.2207E+01  0.2207E+01
      3.524  0.3626E+00  0.3625E+00  0.2234E+01  0.2234E+01
      3.599  0.3636E+00  0.3642E+00  0.2261E+01  0.2261E+01
      3.673  0.3987E+00  0.3992E+00  0.2291E+01  0.2291E+01
      3.747  0.4169E+00  0.4166E+00  0.2322E+01  0.2322E+01
      3.822  0.4536E+00  0.4531E+00  0.2356E+01  0.2356E+01
      3.896  0.4793E+00  0.4791E+00  0.2391E+01  0.2392E+01
      3.971  0.4564E+00  0.4561E+00  0.2425E+01  0.2425E+01
      4.045  0.3898E+00  0.3901E+00  0.2454E+01  0.2454E+01
      4.119  0.3928E+00  0.3940E+00  0.2483E+01  0.2484E+01
      4.194  0.5363E+00  0.5382E+00  0.2523E+01  0.2524E+01
      4.268  0.7164E+00  0.7172E+00  0.2577E+01  0.2577E+01
      4.342  0.6688E+00  0.6674E+00  0.2626E+01  0.2627E+01
      4.417  0.4828E+00  0.4810E+00  0.2662E+01  0.2663E+01
      4.491  0.3163E+00  0.3151E+00  0.2686E+01  0.2686E+01
      4.565  0.2758E+00  0.2759E+00  0.2706E+01  0.2707E+01
      4.640  0.3319E+00  0.3325E+00  0.2731E+01  0.2731E+01
      4.714  0.3818E+00  0.3819E+00  0.2760E+01  0.2760E+01
      4.788  0.3660E+00  0.3658E+00  0.2787E+01  0.2787E+01
      4.863  0.4567E+00  0.4584E+00  0.2821E+01  0.2821E+01
      4.937  0.6877E+00  0.6890E+00  0.2872E+01  0.2872E+01
      5.012  0.6810E+00  0.6798E+00  0.2923E+01  0.2923E+01
      5.086  0.5152E+00  0.5143E+00  0.2961E+01  0.2961E+01
      5.160  0.4573E+00  0.4567E+00  0.2995E+01  0.2995E+01
      5.235  0.4044E+00  0.4039E+00  0.3025E+01  0.3025E+01
      5.309  0.3622E+00  0.3624E+00  0.3052E+01  0.3052E+01
      5.383  0.3967E+00  0.3980E+00  0.3082E+01  0.3082E+01
      5.458  0.4880E+00  0.4883E+00  0.3118E+01  0.3118E+01
      5.532  0.4695E+00  0.4685E+00  0.3153E+01  0.3153E+01
      5.606  0.3862E+00  0.3859E+00  0.3181E+01  0.3182E+01
      5.681  0.4098E+00  0.4110E+00  0.3212E+01  0.3212E+01
      5.755  0.5745E+00  0.5757E+00  0.3255E+01  0.3255E+01
      5.829  0.6709E+00  0.6706E+00  0.3305E+01  0.3305E+01
      5.904  0.6519E+00  0.6517E+00  0.3353E+01  0.3354E+01
      5.978  0.6155E+00  0.6150E+00  0.3399E+01  0.3399E+01
      6.053  0.5375E+00  0.5362E+00  0.3439E+01  0.3439E+01
      6.127  0.3895E+00  0.3879E+00  0.3468E+01  0.3468E+01
      6.201  0.2643E+00  0.2641E+00  0.3488E+01  0.3488E+01
      6.276  0.2948E+00  0.2958E+00  0.3510E+01  0.3510E+01
      6.350  0.4166E+00  0.4184E+00  0.3541E+01  0.3541E+01
      6.424  0.6045E+00  0.6060E+00  0.3586E+01  0.3586E+01
      6.499  0.7374E+00  0.7383E+00  0.3640E+01  0.3641E+01
      6.573  0.7934E+00  0.7932E+00  0.3699E+01  0.3700E+01
      6.647  0.6944E+00  0.6930E+00  0.3751E+01  0.3751E+01
      6.722  0.5537E+00  0.5524E+00  0.3792E+01  0.3793E+01
      6.796  0.4649E+00  0.4644E+00  0.3827E+01  0.3827E+01
      6.870  0.5067E+00  0.5070E+00  0.3865E+01  0.3865E+01
      6.945  0.5114E+00  0.5106E+00  0.3903E+01  0.3903E+01
      7.019  0.4751E+00  0.4753E+00  0.3938E+01  0.3938E+01
      7.094  0.4737E+00  0.4740E+00  0.3973E+01  0.3974E+01
      7.168  0.4596E+00  0.4603E+00  0.4007E+01  0.4008E+01
      7.242  0.5439E+00  0.5450E+00  0.4048E+01  0.4048E+01
      7.317  0.5687E+00  0.5683E+00  0.4090E+01  0.4091E+01
      7.391  0.4733E+00  0.4724E+00  0.4125E+01  0.4126E+01
      7.465  0.5125E+00  0.5135E+00  0.4164E+01  0.4164E+01
      7.540  0.6708E+00  0.6710E+00  0.4214E+01  0.4214E+01
      7.614  0.6520E+00  0.6512E+00  0.4262E+01  0.4262E+01
      7.688  0.5862E+00  0.5861E+00  0.4306E+01  0.4306E+01
      7.763  0.5396E+00  0.5395E+00  0.4346E+01  0.4346E+01
      7.837  0.5610E+00  0.5614E+00  0.4388E+01  0.4388E+01
      7.911  0.5314E+00  0.5310E+00  0.4427E+01  0.4427E+01
      7.986  0.4399E+00  0.4393E+00  0.4460E+01  0.4460E+01
      8.060  0.4528E+00  0.4535E+00  0.4494E+01  0.4494E+01
      8.135  0.5847E+00  0.5852E+00  0.4537E+01  0.4537E+01
      8.209  0.6114E+00  0.6103E+00  0.4583E+01  0.4583E+01
      8.283  0.4777E+00  0.4764E+00  0.4618E+01  0.4618E+01
      8.358  0.3537E+00  0.3535E+00  0.4644E+01  0.4645E+01
      8.432  0.3446E+00  0.3452E+00  0.4670E+01  0.4670E+01
      8.506  0.3667E+00  0.3673E+00  0.4697E+01  0.4698E+01
      8.581  0.4687E+00  0.4702E+00  0.4732E+01  0.4733E+01
      8.655  0.6621E+00  0.6632E+00  0.4782E+01  0.4782E+01
      8.729  0.7574E+00  0.7574E+00  0.4838E+01  0.4838E+01
      8.804  0.6507E+00  0.6487E+00  0.4886E+01  0.4887E+01
      8.878  0.4723E+00  0.4707E+00  0.4921E+01  0.4922E+01
      8.952  0.4034E+00  0.4031E+00  0.4951E+01  0.4952E+01
      9.027  0.4070E+00  0.4075E+00  0.4982E+01  0.4982E+01
      9.101  0.4911E+00  0.4932E+00  0.5018E+01  0.5019E+01
      9.176  0.7127E+00  0.7155E+00  0.5071E+01  0.5072E+01
      9.250  0.9220E+00  0.9234E+00  0.5140E+01  0.5141E+01
      9.324  0.9339E+00  0.9324E+00  0.5209E+01  0.5210E+01
      9.399  0.7114E+00  0.7085E+00  0.5262E+01  0.5263E+01
      9.473  0.4353E+00  0.4334E+00  0.5295E+01  0.5295E+01
      9.547  0.2977E+00  0.2968E+00  0.5317E+01  0.5317E+01
      9.622  0.3231E+00  0.3235E+00  0.5341E+01  0.5341E+01
      9.696  0.4584E+00  0.4588E+00  0.5375E+01  0.5375E+01
      9.770  0.5377E+00  0.5387E+00  0.5415E+01  0.5416E+01
      9.845  0.6529E+00  0.6552E+00  0.5464E+01  0.5464E+01
      9.919  0.7705E+00  0.7710E+00  0.5521E+01  0.5522E+01
      9.993  0.7090E+00  0.7080E+00  0.5574E+01  0.5574E+01
     10.068  0.5584E+00  0.5570E+00  0.5615E+01  0.5616E+01
     10.142  0.5306E+00  0.5314E+00  0.5655E+01  0.5655E+01
     10.217  0.7053E+00  0.7066E+00  0.5707E+01  0.5708E+01
     10.291  0.7551E+00  0.7550E+00  0.5764E+01  0.5764E+01
     10.365  0.6958E+00  0.6956E+00  0.5815E+01  0.5816E+01
     10.440  0.6434E+00  0.6426E+00  0.5863E+01  0.5864E+01
     10.514  0.5900E+00  0.5893E+00  0.5907E+01  0.5907E+01
     10.588  0.5114E+00  0.5110E+00  0.5945E+01  0.5945E+01
     10.663  0.4489E+00  0.4487E+00  0.5979E+01  0.5979E+01
     10.737  0.4955E+00  0.4958E+00  0.6015E+01  0.6016E+01
     10.811  0.5639E+00  0.5641E+00  0.6057E+01  0.6058E+01
     10.886  0.6080E+00  0.6085E+00  0.6103E+01  0.6103E+01
     10.960  0.6392E+00  0.6395E+00  0.6150E+01  0.6151E+01
     11.034  0.6156E+00  0.6154E+00  0.6196E+01  0.6196E+01
     11.109  0.6169E+00  0.6172E+00  0.6242E+01  0.6242E+01
     11.183  0.7007E+00  0.7012E+00  0.6294E+01  0.6295E+01
     11.258  0.7433E+00  0.7427E+00  0.6349E+01  0.6350E+01
     11.332  0.6693E+00  0.6679E+00  0.6399E+01  0.6399E+01
     11.406  0.5203E+00  0.5191E+00  0.6438E+01  0.6438E+01
     11.481  0.3946E+00  0.3947E+00  0.6467E+01  0.6468E+01
     11.555  0.4528E+00  0.4543E+00  0.6501E+01  0.6501E+01
     11.629  0.6156E+00  0.6167E+00  0.6547E+01  0.6547E+01
     11.704  0.7544E+00  0.7556E+00  0.6603E+01  0.6603E+01
     11.778  0.8466E+00  0.8472E+00  0.6666E+01  0.6666E+01
     11.852  0.8577E+00  0.8570E+00  0.6730E+01  0.6730E+01
     11.927  0.7548E+00  0.7536E+00  0.6786E+01  0.6786E+01
     12.001  0.6447E+00  0.6436E+00  0.6834E+01  0.6834E+01
     12.075  0.5103E+00  0.5089E+00  0.6872E+01  0.6872E+01
     12.150  0.4278E+00  0.4275E+00  0.6904E+01  0.6904E+01
     12.224  0.4304E+00  0.4305E+00  0.6936E+01  0.6936E+01
     12.299  0.4552E+00  0.4554E+00  0.6970E+01  0.6970E+01
     12.373  0.4947E+00  0.4952E+00  0.7006E+01  0.7007E+01
     12.447  0.5527E+00  0.5536E+00  0.7047E+01  0.7048E+01
     12.522  0.5991E+00  0.5994E+00  0.7092E+01  0.7092E+01
     12.596  0.5678E+00  0.5672E+00  0.7134E+01  0.7135E+01
     12.670  0.5167E+00  0.5167E+00  0.7173E+01  0.7173E+01
     12.745  0.5286E+00  0.5287E+00  0.7212E+01  0.7212E+01
     12.819  0.5079E+00  0.5074E+00  0.7250E+01  0.7250E+01
     12.893  0.4851E+00  0.4850E+00  0.7286E+01  0.7286E+01
     12.968  0.5442E+00  0.5450E+00  0.7326E+01  0.7327E+01
     13.042  0.6138E+00  0.6140E+00  0.7372E+01  0.7373E+01
     13.116  0.5488E+00  0.5482E+00  0.7413E+01  0.7413E+01
     13.191  0.4516E+00  0.4506E+00  0.7447E+01  0.7447E+01
     13.265  0.4082E+00  0.4047E+00  0.7477E+01  0.7477E+01
     13.340  0.4294E+00  0.4268E+00  0.7509E+01  0.7509E+01
     13.414  0.3937E+00  0.3956E+00  0.7538E+01  0.7538E+01
     13.488  0.3297E+00  0.3303E+00  0.7563E+01  0.7563E+01
     13.563  0.3178E+00  0.3142E+00  0.7586E+01  0.7586E+01
     13.637  0.3990E+00  0.3885E+00  0.7616E+01  0.7615E+01
     13.711  0.4470E+00  0.4383E+00  0.7649E+01  0.7648E+01
     13.786  0.3367E+00  0.3402E+00  0.7674E+01  0.7673E+01
     13.860  0.2176E+00  0.2294E+00  0.7691E+01  0.7690E+01
     13.934  0.2342E+00  0.2418E+00  0.7708E+01  0.7708E+01
     14.009  0.2834E+00  0.2855E+00  0.7729E+01  0.7729E+01
     14.083  0.2779E+00  0.2776E+00  0.7750E+01  0.7750E+01
     14.157  0.2647E+00  0.2629E+00  0.7770E+01  0.7770E+01
     14.232  0.2742E+00  0.2732E+00  0.7790E+01  0.7790E+01
     14.306  0.2725E+00  0.2800E+00  0.7810E+01  0.7811E+01
     14.381  0.2297E+00  0.2380E+00  0.7827E+01  0.7829E+01
     14.455  0.1956E+00  0.1906E+00  0.7842E+01  0.7843E+01
     14.529  0.1984E+00  0.1929E+00  0.7857E+01  0.7857E+01
     14.604  0.2144E+00  0.2126E+00  0.7873E+01  0.7873E+01
     14.678  0.2161E+00  0.2158E+00  0.7889E+01  0.7889E+01
     14.752  0.1863E+00  0.1858E+00  0.7903E+01  0.7903E+01
     14.827  0.1256E+00  0.1250E+00  0.7912E+01  0.7912E+01
     14.901  0.1061E+00  0.1058E+00  0.7920E+01  0.7920E+01
     14.975  0.1266E+00  0.1252E+00  0.7929E+01  0.7929E+01
     15.050  0.1432E+00  0.1401E+00  0.7940E+01  0.7940E+01
     15.124  0.1294E+00  0.1297E+00  0.7950E+01  0.7949E+01
     15.198  0.8789E-01  0.9029E-01  0.7956E+01  0.7956E+01
     15.273  0.4265E-01  0.4345E-01  0.7959E+01  0.7959E+01
     15.347  0.1526E-01  0.1542E-01  0.7960E+01  0.7960E+01
     15.422  0.1231E-01  0.1243E-01  0.7961E+01  0.7961E+01
     15.496  0.3448E-01  0.3473E-01  0.7964E+01  0.7964E+01
     15.570  0.8469E-01  0.8474E-01  0.7970E+01  0.7970E+01
     15.645  0.1101E+00  0.1099E+00  0.7978E+01  0.7978E+01
     15.719  0.8342E-01  0.8360E-01  0.7985E+01  0.7985E+01
     15.793  0.7112E-01  0.7139E-01  0.7990E+01  0.7990E+01
     15.868  0.5480E-01  0.5447E-01  0.7994E+01  0.7994E+01
     15.942  0.2617E-01  0.2592E-01  0.7996E+01  0.7996E+01
     16.016  0.1909E-01  0.1911E-01  0.7997E+01  0.7997E+01
     16.091  0.2001E-01  0.1995E-01  0.7999E+01  0.7999E+01
     16.165  0.1085E-01  0.1073E-01  0.8000E+01  0.8000E+01
     16.239  0.3247E-02  0.3197E-02  0.8000E+01  0.8000E+01
     16.314  0.7948E-03  0.7814E-03  0.8000E+01  0.8000E+01
     16.388  0.1830E-03  0.1799E-03  0.8000E+01  0.8000E+01
     16.463  0.0000E+00  0.0000E+00  0.8000E+01  0.8000E+01
     16.537  0.0000E+00  0.0000E+00  0.8000E+01  0.8000E+01
     16.611  0.0000E+00  0.0000E+00  0.8000E+01  0.8000E+01
     16.686  0.0000E+00  0.0000E+00  0.8000E+01  0.8000E+01
     16.760  0.0000E+00  0.0000E+00  0.8000E+01  0.8000E+01
     16.834  0.0000E+00  0.0000E+00  0.8000E+01  0.8000E+01
     16.909  0.0000E+00  0.0000E+00  0.8000E+01  0.8000E+01
     16.983  0.0000E+00  0.0000E+00  0.8000E+01  0.8000E+01
     17.057  0.0000E+00  0.0000E+00  0.8000E+01  0.8000E+01
     17.05738746     -5.24979145  301      3.04832306      1.00000000
     -5.250  0.0000E+00  0.0000E+00  0.0000E+00  0.0000E+00  0.0000E+00  0.0000E+00  0.0000E+00  0.0000E+00  0.0000E+00  0.0000E+00  0.0000E+00  0.0000E+00  0.0000E+00  0.0000E+00  0.0000E+00  0.0000E+00  0.0000E+00  0.0000E+00
     -5.175  0.0000E+00  0.0000E+00  0.0000E+00  0.0000E+00  0.0000E+00  0.0000E+00  0.0000E+00  0.0000E+00  0.0000E+00  0.0000E+00  0.0000E+00  0.0000E+00  0.0000E+00  0.0000E+00  0.0000E+00  0.0000E+00  0.0000E+00  0.0000E+00
     -5.101  0.0000E+00  0.0000E+00  0.0000E+00  0.0000E+00  0.0000E+00  0.0000E+00  0.0000E+00  0.0000E+00  0.0000E+00  0.0000E+00  0.0000E+00  0.0000E+00  0.0000E+00  0.0000E+00  0.0000E+00  0.0000E+00  0.0000E+00  0.0000E+00
     -5.027  0.0000E+00  0.0000E+00  0.0000E+00  0.0000E+00  0.0000E+00  0.0000E+00  0.0000E+00  0.0000E+00  0.0000E+00  0.0000E+00  0.0000E+00  0.0000E+00  0.0000E+00  0.0000E+00  0.0000E+00  0.0000E+00  0.0000E+00  0.0000E+00
     -4.952  0.0000E+00  0.0000E+00  0.0000E+00  0.0000E+00  0.0000E+00  0.0000E+00  0.0000E+00  0.0000E+00  0.0000E+00  0.0000E+00  0.0000E+00  0.0000E+00  0.0000E+00  0.0000E+00  0.0000E+00  0.0000E+00  0.0000E+00  0.0000E+00
     -4.878  0.0000E+00  0.0000E+00  0.0000E+00  0.0000E+00  0.0000E+00  0.0000E+00  0.0000E+00  0.0000E+00  0.0000E+00  0.0000E+00  0.0000E+00  0.0000E+00  0.0000E+00  0.0000E+00  0.0000E+00  0.0000E+00  0.0000E+00  0.0000E+00
     -4.804  0.0000E+00  0.0000E+00  0.0000E+00  0.0000E+00  0.0000E+00  0.0000E+00  0.0000E+00  0.0000E+00  0.0000E+00  0.0000E+00  0.0000E+00  0.0000E+00  0.0000E+00  0.0000E+00  0.0000E+00  0.0000E+00  0.0000E+00  0.0000E+00
     -4.729  0.0000E+00  0.0000E+00  0.0000E+00  0.0000E+00  0.0000E+00  0.0000E+00  0.0000E+00  0.0000E+00  0.0000E+00  0.0000E+00  0.0000E+00  0.0000E+00  0.0000E+00  0.0000E+00  0.0000E+00  0.0000E+00  0.0000E+00  0.0000E+00
     -4.655  0.1861E-06  0.1887E-06  0.1656E-21  0.1612E-21  0.1717E-23  0.8518E-24  0.1656E-21  0.1612E-21  0.4497E-21  0.5707E-21  0.4204E-24  0.3462E-24  0.2657E-13  0.2212E-13  0.4204E-24  0.3462E-24  0.4497E-21  0.5707E-21
     -4.581  0.1451E-05  0.1472E-05  0.2375E-08  0.2409E-08  0.2547E-08  0.2583E-08  0.2375E-08  0.2409E-08  0.4031E-11  0.4092E-11  0.1449E-21  0.1652E-20  0.5728E-11  0.5794E-11  0.1449E-21  0.1652E-20  0.4031E-11  0.4092E-11
     -4.506  0.6484E-05  0.6576E-05  0.1311E-07  0.1330E-07  0.1462E-07  0.1482E-07  0.1311E-07  0.1330E-07  0.2227E-10  0.2261E-10  0.1694E-10  0.1721E-10  0.1969E-10  0.1991E-10  0.1694E-10  0.1721E-10  0.2227E-10  0.2261E-10
     -4.432  0.2753E-04  0.2792E-04  0.5296E-07  0.5371E-07  0.5860E-07  0.5941E-07  0.5296E-07  0.5371E-07  0.8994E-10  0.9131E-10  0.5800E-10  0.5892E-10  0.8686E-10  0.8781E-10  0.5800E-10  0.5892E-10  0.8994E-10  0.9131E-10
     -4.358  0.1175E-03  0.1191E-03  0.2331E-06  0.2363E-06  0.2676E-06  0.2713E-06  0.2331E-06  0.2363E-06  0.3958E-09  0.4018E-09  0.2562E-09  0.2602E-09  0.4332E-09  0.4384E-09  0.2562E-09  0.2602E-09  0.3958E-09  0.4018E-09
     -4.283  0.4505E-03  0.4558E-03  0.1034E-05  0.1048E-05  0.1139E-05  0.1153E-05  0.1034E-05  0.1048E-05  0.1819E-08  0.1846E-08  0.1204E-08  0.1223E-08  0.1921E-08  0.1943E-08  0.1204E-08  0.1223E-08  0.1819E-08  0.1846E-08
     -4.209  0.1366E-02  0.1379E-02  0.4189E-05  0.4242E-05  0.4154E-05  0.4200E-05  0.4189E-05  0.4242E-05  0.7516E-08  0.7618E-08  0.5239E-08  0.5319E-08  0.7136E-08  0.7200E-08  0.5239E-08  0.5319E-08  0.7516E-08  0.7618E-08
     -4.134  0.3145E-02  0.3166E-02  0.1334E-04  0.1346E-04  0.1153E-04  0.1162E-04  0.1334E-04  0.1346E-04  0.2434E-07  0.2459E-07  0.2038E-07  0.2066E-07  0.1982E-07  0.1989E-07  0.2038E-07  0.2066E-07  0.2434E-07  0.2459E-07
     -4.060  0.5146E-02  0.5160E-02  0.2694E-04  0.2705E-04  0.2543E-04  0.2559E-04  0.2694E-04  0.2705E-04  0.5305E-07  0.5338E-07  0.5824E-07  0.5876E-07  0.4157E-07  0.4174E-07  0.5824E-07  0.5876E-07  0.5305E-07  0.5338E-07
     -3.986  0.5603E-02  0.5600E-02  0.3490E-04  0.3495E-04  0.4173E-04  0.4186E-04  0.3490E-04  0.3495E-04  0.8985E-07  0.9039E-07  0.9789E-07  0.9834E-07  0.1011E-06  0.1020E-06  0.9789E-07  0.9834E-07  0.8985E-07  0.9039E-07
     -3.911  0.5620E-02  0.5633E-02  0.5108E-04  0.5139E-04  0.6167E-04  0.6194E-04  0.5108E-04  0.5139E-04  0.1964E-06  0.1982E-06  0.1654E-06  0.1668E-06  0.2510E-06  0.2526E-06  0.1654E-06  0.1668E-06  0.1964E-06  0.1982E-06
     -3.837  0.8394E-02  0.8428E-02  0.1027E-03  0.1033E-03  0.1061E-03  0.1065E-03  0.1027E-03  0.1033E-03  0.4572E-06  0.4603E-06  0.3838E-06  0.3866E-06  0.4830E-06  0.4843E-06  0.3838E-06  0.3866E-06  0.4572E-06  0.4603E-06
     -3.763  0.1064E-01  0.1065E-01  0.1547E-03  0.1550E-03  0.1290E-03  0.1288E-03  0.1547E-03  0.1550E-03  0.7625E-06  0.7651E-06  0.5879E-06  0.5892E-06  0.6382E-06  0.6369E-06  0.5879E-06  0.5892E-06  0.7625E-06  0.7651E-06
     -3.688  0.9572E-02  0.9559E-02  0.1679E-03  0.1679E-03  0.1123E-03  0.1124E-03  0.1679E-03  0.1679E-03  0.9294E-06  0.9304E-06  0.6876E-06  0.6895E-06  0.6651E-06  0.6632E-06  0.6876E-06  0.6895E-06  0.9294E-06  0.9304E-06
     -3.614  0.8651E-02  0.8648E-02  0.1594E-03  0.1593E-03  0.1563E-03  0.1570E-03  0.1594E-03  0.1593E-03  0.9213E-06  0.9209E-06  0.1042E-05  0.1047E-05  0.8393E-06  0.8418E-06  0.1042E-05  0.1047E-05  0.9213E-06  0.9209E-06
     -3.540  0.8868E-02  0.8876E-02  0.1554E-03  0.1555E-03  0.2538E-03  0.2547E-03  0.1554E-03  0.1555E-03  0.9380E-06  0.9399E-06  0.1581E-05  0.1586E-05  0.1393E-05  0.1403E-05  0.1581E-05  0.1586E-05  0.9380E-06  0.9399E-06
     -3.465  0.1047E-01  0.1049E-01  0.2040E-03  0.2049E-03  0.3456E-03  0.3461E-03  0.2040E-03  0.2049E-03  0.1500E-05  0.1510E-05  0.2092E-05  0.2095E-05  0.2436E-05  0.2448E-05  0.2092E-05  0.2095E-05  0.1500E-05  0.1510E-05
     -3.391  0.1213E-01  0.1214E-01  0.3181E-03  0.3193E-03  0.3157E-03  0.3146E-03  0.3181E-03  0.3193E-03  0.2915E-05  0.2931E-05  0.2144E-05  0.2141E-05  0.3199E-05  0.3197E-05  0.2144E-05  0.2141E-05  0.2915E-05  0.2931E-05
     -3.317  0.1272E-01  0.1272E-01  0.4284E-03  0.4290E-03  0.2287E-03  0.2284E-03  0.4284E-03  0.4290E-03  0.4386E-05  0.4395E-05  0.2206E-05  0.2212E-05  0.3381E-05  0.3370E-05  0.2206E-05  0.2212E-05  0.4386E-05  0.4395E-05
     -3.242  0.1229E-01  0.1228E-01  0.4244E-03  0.4239E-03  0.2897E-03  0.2908E-03  0.4244E-03  0.4239E-03  0.4382E-05  0.4377E-05  0.3235E-05  0.3248E-05  0.3431E-05  0.3423E-05  0.3235E-05  0.3248E-05  0.4382E-05  0.4377E-05
     -3.168  0.1267E-01  0.1269E-01  0.4340E-03  0.4350E-03  0.4296E-03  0.4309E-03  0.4340E-03  0.4350E-03  0.4602E-05  0.4616E-05  0.5010E-05  0.5030E-05  0.3973E-05  0.3979E-05  0.5010E-05  0.5030E-05  0.4602E-05  0.4616E-05
     -3.093  0.1620E-01  0.1623E-01  0.5942E-03  0.5954E-03  0.5893E-03  0.5904E-03  0.5942E-03  0.5954E-03  0.6694E-05  0.6709E-05  0.7331E-05  0.7344E-05  0.5668E-05  0.5682E-05  0.7331E-05  0.7344E-05  0.6694E-05  0.6709E-05
     -3.019  0.1499E-01  0.1495E-01  0.5395E-03  0.5374E-03  0.6250E-03  0.6244E-03  0.5395E-03  0.5374E-03  0.6254E-05  0.6230E-05  0.6771E-05  0.6746E-05  0.7433E-05  0.7445E-05  0.6771E-05  0.6746E-05  0.6254E-05  0.6230E-05
     -2.945  0.9992E-02  0.9958E-02  0.3187E-03  0.3174E-03  0.5721E-03  0.5713E-03  0.3187E-03  0.3174E-03  0.3838E-05  0.3826E-05  0.4641E-05  0.4630E-05  0.8417E-05  0.8420E-05  0.4641E-05  0.4630E-05  0.3838E-05  0.3826E-05
     -2.870  0.8560E-02  0.8569E-02  0.3301E-03  0.3314E-03  0.4883E-03  0.4877E-03  0.3301E-03  0.3314E-03  0.4537E-05  0.4561E-05  0.5253E-05  0.5273E-05  0.6949E-05  0.6935E-05  0.5253E-05  0.5273E-05  0.4537E-05  0.4561E-05
     -2.796  0.1171E-01  0.1176E-01  0.5648E-03  0.5677E-03  0.5793E-03  0.5816E-03  0.5648E-03  0.5677E-03  0.8392E-05  0.8438E-05  0.9102E-05  0.9150E-05  0.7494E-05  0.7522E-05  0.9102E-05  0.9150E-05  0.8392E-05  0.8438E-05
     -2.722  0.1762E-01  0.1767E-01  0.8973E-03  0.9002E-03  0.8915E-03  0.8935E-03  0.8973E-03  0.9002E-03  0.1401E-04  0.1406E-04  0.1436E-04  0.1438E-04  0.1278E-04  0.1282E-04  0.1436E-04  0.1438E-04  0.1401E-04  0.1406E-04
     -2.647  0.1959E-01  0.1959E-01  0.1092E-02  0.1093E-02  0.9092E-03  0.9077E-03  0.1092E-02  0.1093E-02  0.1862E-04  0.1865E-04  0.1441E-04  0.1439E-04  0.1715E-04  0.1716E-04  0.1441E-04  0.1439E-04  0.1862E-04  0.1865E-04
     -2.573  0.1830E-01  0.1828E-01  0.1119E-02  0.1118E-02  0.7851E-03  0.7840E-03  0.1119E-02  0.1118E-02  0.2031E-04  0.2031E-04  0.1348E-04  0.1348E-04  0.1735E-04  0.1730E-04  0.1348E-04  0.1348E-04  0.2031E-04  0.2031E-04
     -2.499  0.1563E-01  0.1560E-01  0.9945E-03  0.9929E-03  0.7182E-03  0.7177E-03  0.9945E-03  0.9929E-03  0.1829E-04  0.1826E-04  0.1439E-04  0.1439E-04  0.1375E-04  0.1370E-04  0.1439E-04  0.1439E-04  0.1829E-04  0.1826E-04
     -2.424  0.1346E-01  0.1346E-01  0.8616E-03  0.8611E-03  0.7470E-03  0.7478E-03  0.8616E-03  0.8611E-03  0.1629E-04  0.1629E-04  0.1448E-04  0.1447E-04  0.1436E-04  0.1440E-04  0.1448E-04  0.1447E-04  0.1629E-04  0.1629E-04
     -2.350  0.1431E-01  0.1433E-01  0.8957E-03  0.8964E-03  0.9899E-03  0.9929E-03  0.8957E-03  0.8964E-03  0.1778E-04  0.1779E-04  0.1595E-04  0.1597E-04  0.2271E-04  0.2281E-04  0.1595E-04  0.1597E-04  0.1778E-04  0.1779E-04
     -2.276  0.1577E-01  0.1578E-01  0.9529E-03  0.9534E-03  0.1294E-02  0.1295E-02  0.9529E-03  0.9534E-03  0.1898E-04  0.1899E-04  0.2041E-04  0.2046E-04  0.2890E-04  0.2890E-04  0.2041E-04  0.2046E-04  0.1898E-04  0.1899E-04
     -2.201  0.1541E-01  0.1540E-01  0.9693E-03  0.9688E-03  0.1311E-02  0.1310E-02  0.9693E-03  0.9688E-03  0.1912E-04  0.1911E-04  0.2500E-04  0.2501E-04  0.2453E-04  0.2447E-04  0.2500E-04  0.2501E-04  0.1912E-04  0.1911E-04
     -2.127  0.1405E-01  0.1405E-01  0.9163E-03  0.9166E-03  0.1282E-02  0.1284E-02  0.9163E-03  0.9166E-03  0.1821E-04  0.1822E-04  0.2734E-04  0.2738E-04  0.2158E-04  0.2161E-04  0.2734E-04  0.2738E-04  0.1821E-04  0.1822E-04
     -2.052  0.1667E-01  0.1672E-01  0.1151E-02  0.1155E-02  0.1592E-02  0.1595E-02  0.1151E-02  0.1155E-02  0.2403E-04  0.2413E-04  0.3593E-04  0.3602E-04  0.2726E-04  0.2733E-04  0.3593E-04  0.3602E-04  0.2403E-04  0.2413E-04
     -1.978  0.1984E-01  0.1985E-01  0.1527E-02  0.1529E-02  0.1714E-02  0.1712E-02  0.1527E-02  0.1529E-02  0.3488E-04  0.3496E-04  0.4102E-04  0.4095E-04  0.3381E-04  0.3386E-04  0.4102E-04  0.4095E-04  0.3488E-04  0.3496E-04
     -1.904  0.1692E-01  0.1687E-01  0.1511E-02  0.1509E-02  0.1147E-02  0.1140E-02  0.1511E-02  0.1509E-02  0.3940E-04  0.3941E-04  0.2694E-04  0.2676E-04  0.3536E-04  0.3530E-04  0.2694E-04  0.2676E-04  0.3940E-04  0.3941E-04
     -1.829  0.1226E-01  0.1223E-01  0.1293E-02  0.1291E-02  0.5538E-03  0.5507E-03  0.1293E-02  0.1291E-02  0.3742E-04  0.3737E-04  0.1430E-04  0.1424E-04  0.2897E-04  0.2887E-04  0.1430E-04  0.1424E-04  0.3742E-04  0.3737E-04
     -1.755  0.1151E-01  0.1154E-01  0.1282E-02  0.1286E-02  0.5940E-03  0.5979E-03  0.1282E-02  0.1286E-02  0.3822E-04  0.3834E-04  0.1775E-04  0.1787E-04  0.2861E-04  0.2868E-04  0.1775E-04  0.1787E-04  0.3822E-04  0.3834E-04
     -1.681  0.1996E-01  0.2007E-01  0.2135E-02  0.2146E-02  0.1455E-02  0.1466E-02  0.2135E-02  0.2146E-02  0.6256E-04  0.6285E-04  0.4282E-04  0.4311E-04  0.5135E-04  0.5162E-04  0.4282E-04  0.4311E-04  0.6256E-04  0.6285E-04
     -1.606  0.2747E-01  0.2748E-01  0.2690E-02  0.2688E-02  0.2632E-02  0.2639E-02  0.2690E-02  0.2688E-02  0.7568E-04  0.7560E-04  0.7011E-04  0.7021E-04  0.7866E-04  0.7878E-04  0.7011E-04  0.7021E-04  0.7568E-04  0.7560E-04
     -1.532  0.2308E-01  0.2301E-01  0.2029E-02  0.2022E-02  0.2820E-02  0.2814E-02  0.2029E-02  0.2022E-02  0.5416E-04  0.5395E-04  0.6898E-04  0.6883E-04  0.7592E-04  0.7576E-04  0.6898E-04  0.6883E-04  0.5416E-04  0.5395E-04