   2   2   1   0
  0.2219422E+02  0.3157719E-09  0.3157718E-09  0.5140346E-09  0.5000000E-15
  1.000000000000000E-004
  CAR 
 unknown system                          
     16.67330103     -5.26390622  301      2.88232369      1.00000000
     -5.264  0.0000E+00  0.0000E+00  0.0000E+00  0.0000E+00
     -5.191  0.0000E+00  0.0000E+00  0.0000E+00  0.0000E+00
     -5.118  0.0000E+00  0.0000E+00  0.0000E+00  0.0000E+00
     -5.045  0.0000E+00  0.0000E+00  0.0000E+00  0.0000E+00
     -4.971  0.0000E+00  0.0000E+00  0.0000E+00  0.0000E+00
     -4.898  0.0000E+00  0.0000E+00  0.0000E+00  0.0000E+00
     -4.825  0.0000E+00  0.0000E+00  0.0000E+00  0.0000E+00
     -4.752  0.0000E+00  0.0000E+00  0.0000E+00  0.0000E+00
     -4.679  0.2328E-05  0.2365E-05  0.1703E-06  0.1729E-06
     -4.606  0.1816E-04  0.1844E-04  0.1498E-05  0.1521E-05
     -4.533  0.7945E-04  0.8069E-04  0.7307E-05  0.7422E-05
     -4.460  0.3280E-03  0.3331E-03  0.3129E-04  0.3178E-04
     -4.386  0.1365E-02  0.1385E-02  0.1311E-03  0.1331E-03
     -4.313  0.5122E-02  0.5189E-02  0.5056E-03  0.5125E-03
     -4.240  0.1532E-01  0.1548E-01  0.1626E-02  0.1644E-02
     -4.167  0.3496E-01  0.3521E-01  0.4182E-02  0.4219E-02
     -4.094  0.5691E-01  0.5708E-01  0.8343E-02  0.8393E-02
     -4.021  0.6242E-01  0.6238E-01  0.1291E-01  0.1295E-01
     -3.948  0.6425E-01  0.6442E-01  0.1761E-01  0.1766E-01
     -3.875  0.9582E-01  0.9624E-01  0.2461E-01  0.2470E-01
     -3.801  0.1205E+00  0.1205E+00  0.3342E-01  0.3352E-01
     -3.728  0.1094E+00  0.1092E+00  0.4143E-01  0.4151E-01
     -3.655  0.1002E+00  0.1002E+00  0.4876E-01  0.4884E-01
     -3.582  0.1041E+00  0.1042E+00  0.5637E-01  0.5646E-01
     -3.509  0.1239E+00  0.1242E+00  0.6544E-01  0.6554E-01
     -3.436  0.1434E+00  0.1436E+00  0.7594E-01  0.7606E-01
     -3.363  0.1512E+00  0.1512E+00  0.8700E-01  0.8712E-01
     -3.290  0.1471E+00  0.1470E+00  0.9777E-01  0.9788E-01
     -3.216  0.1554E+00  0.1557E+00  0.1091E+00  0.1093E+00
     -3.143  0.1975E+00  0.1978E+00  0.1236E+00  0.1237E+00
     -3.070  0.1790E+00  0.1784E+00  0.1367E+00  0.1368E+00
     -2.997  0.1217E+00  0.1213E+00  0.1456E+00  0.1457E+00
     -2.924  0.1089E+00  0.1091E+00  0.1536E+00  0.1537E+00
     -2.851  0.1526E+00  0.1533E+00  0.1647E+00  0.1649E+00
     -2.778  0.2260E+00  0.2266E+00  0.1813E+00  0.1814E+00
     -2.705  0.2480E+00  0.2480E+00  0.1994E+00  0.1996E+00
     -2.631  0.2323E+00  0.2321E+00  0.2164E+00  0.2166E+00
     -2.558  0.1994E+00  0.1990E+00  0.2310E+00  0.2311E+00
     -2.485  0.1759E+00  0.1758E+00  0.2439E+00  0.2440E+00
     -2.412  0.1906E+00  0.1908E+00  0.2578E+00  0.2579E+00
     -2.339  0.2096E+00  0.2097E+00  0.2731E+00  0.2733E+00
     -2.266  0.2040E+00  0.2037E+00  0.2881E+00  0.2882E+00
     -2.193  0.1915E+00  0.1916E+00  0.3021E+00  0.3022E+00
     -2.120  0.2329E+00  0.2336E+00  0.3191E+00  0.3193E+00
     -2.046  0.2702E+00  0.2701E+00  0.3389E+00  0.3391E+00
     -1.973  0.2268E+00  0.2261E+00  0.3555E+00  0.3556E+00
     -1.900  0.1674E+00  0.1669E+00  0.3678E+00  0.3679E+00
     -1.827  0.1718E+00  0.1725E+00  0.3803E+00  0.3805E+00
     -1.754  0.3007E+00  0.3023E+00  0.4023E+00  0.4026E+00
     -1.681  0.3908E+00  0.3908E+00  0.4309E+00  0.4312E+00
     -1.608  0.3212E+00  0.3201E+00  0.4544E+00  0.4546E+00
     -1.535  0.2381E+00  0.2376E+00  0.4718E+00  0.4720E+00
     -1.461  0.2236E+00  0.2237E+00  0.4882E+00  0.4884E+00
     -1.388  0.2287E+00  0.2287E+00  0.5049E+00  0.5051E+00
     -1.315  0.2156E+00  0.2155E+00  0.5207E+00  0.5209E+00
     -1.242  0.2132E+00  0.2132E+00  0.5363E+00  0.5365E+00
     -1.169  0.2143E+00  0.2145E+00  0.5520E+00  0.5522E+00
     -1.096  0.2379E+00  0.2383E+00  0.5694E+00  0.5696E+00
     -1.023  0.3054E+00  0.3064E+00  0.5918E+00  0.5921E+00
     -0.950  0.3828E+00  0.3833E+00  0.6198E+00  0.6201E+00
     -0.876  0.3590E+00  0.3581E+00  0.6460E+00  0.6463E+00
     -0.803  0.2824E+00  0.2821E+00  0.6667E+00  0.6669E+00
     -0.730  0.3191E+00  0.3200E+00  0.6900E+00  0.6903E+00
     -0.657  0.3671E+00  0.3670E+00  0.7169E+00  0.7172E+00
     -0.584  0.3025E+00  0.3017E+00  0.7390E+00  0.7393E+00
     -0.511  0.2491E+00  0.2488E+00  0.7573E+00  0.7575E+00
     -0.438  0.2542E+00  0.2547E+00  0.7759E+00  0.7761E+00
     -0.365  0.3315E+00  0.3323E+00  0.8001E+00  0.8004E+00
     -0.291  0.3510E+00  0.3506E+00  0.8259E+00  0.8261E+00
     -0.218  0.2711E+00  0.2701E+00  0.8457E+00  0.8459E+00
     -0.145  0.2171E+00  0.2172E+00  0.8616E+00  0.8618E+00
     -0.072  0.2934E+00  0.2946E+00  0.8831E+00  0.8833E+00
      0.001  0.3741E+00  0.3745E+00  0.9104E+00  0.9107E+00
      0.074  0.3755E+00  0.3754E+00  0.9379E+00  0.9382E+00
      0.147  0.3558E+00  0.3553E+00  0.9639E+00  0.9642E+00
      0.220  0.3024E+00  0.3020E+00  0.9861E+00  0.9863E+00
      0.294  0.3083E+00  0.3088E+00  0.1009E+01  0.1009E+01
      0.367  0.3632E+00  0.3637E+00  0.1035E+01  0.1035E+01
      0.440  0.3914E+00  0.3915E+00  0.1064E+01  0.1064E+01
      0.513  0.4100E+00  0.4102E+00  0.1094E+01  0.1094E+01
      0.586  0.4504E+00  0.4509E+00  0.1127E+01  0.1127E+01
      0.659  0.4649E+00  0.4646E+00  0.1161E+01  0.1161E+01
      0.732  0.3799E+00  0.3788E+00  0.1189E+01  0.1189E+01
      0.805  0.2862E+00  0.2857E+00  0.1210E+01  0.1210E+01
      0.879  0.2821E+00  0.2824E+00  0.1230E+01  0.1230E+01
      0.952  0.3356E+00  0.3361E+00  0.1255E+01  0.1255E+01
      1.025  0.3561E+00  0.3561E+00  0.1281E+01  0.1281E+01
      1.098  0.3201E+00  0.3194E+00  0.1304E+01  0.1304E+01
      1.171  0.2731E+00  0.2726E+00  0.1324E+01  0.1324E+01
      1.244  0.2880E+00  0.2890E+00  0.1345E+01  0.1346E+01
      1.317  0.4065E+00  0.4080E+00  0.1375E+01  0.1375E+01
      1.390  0.4806E+00  0.4809E+00  0.1410E+01  0.1411E+01
      1.464  0.5071E+00  0.5073E+00  0.1447E+01  0.1448E+01
      1.537  0.4997E+00  0.4995E+00  0.1484E+01  0.1484E+01
      1.610  0.4814E+00  0.4820E+00  0.1519E+01  0.1519E+01
      1.683  0.5152E+00  0.5159E+00  0.1557E+01  0.1557E+01
      1.756  0.4963E+00  0.4954E+00  0.1593E+01  0.1594E+01
      1.829  0.4541E+00  0.4537E+00  0.1626E+01  0.1627E+01
      1.902  0.4329E+00  0.4326E+00  0.1658E+01  0.1658E+01
      1.975  0.3698E+00  0.3688E+00  0.1685E+01  0.1685E+01
      2.048  0.2672E+00  0.2661E+00  0.1705E+01  0.1705E+01
      2.122  0.2402E+00  0.2408E+00  0.1722E+01  0.1722E+01
      2.195  0.3421E+00  0.3440E+00  0.1747E+01  0.1748E+01
      2.268  0.5049E+00  0.5069E+00  0.1784E+01  0.1785E+01
      2.341  0.5397E+00  0.5387E+00  0.1824E+01  0.1824E+01
      2.414  0.3932E+00  0.3904E+00  0.1852E+01  0.1853E+01
      2.487  0.2682E+00  0.2667E+00  0.1872E+01  0.1872E+01
      2.560  0.2334E+00  0.2336E+00  0.1889E+01  0.1889E+01
      2.633  0.2688E+00  0.2696E+00  0.1909E+01  0.1909E+01
      2.707  0.3044E+00  0.3054E+00  0.1931E+01  0.1931E+01
      2.780  0.3319E+00  0.3324E+00  0.1955E+01  0.1956E+01
      2.853  0.3924E+00  0.3943E+00  0.1984E+01  0.1985E+01
      2.926  0.6054E+00  0.6084E+00  0.2028E+01  0.2029E+01
      2.999  0.7502E+00  0.7497E+00  0.2083E+01  0.2084E+01
      3.072  0.6082E+00  0.6047E+00  0.2128E+01  0.2128E+01
      3.145  0.4066E+00  0.4046E+00  0.2158E+01  0.2158E+01
      3.218  0.3683E+00  0.3687E+00  0.2185E+01  0.2185E+01
      3.292  0.3872E+00  0.3872E+00  0.2213E+01  0.2213E+01
      3.365  0.3698E+00  0.3698E+00  0.2240E+01  0.2240E+01
      3.438  0.3835E+00  0.3843E+00  0.2268E+01  0.2268E+01
      3.511  0.4098E+00  0.4102E+00  0.2298E+01  0.2298E+01
      3.584  0.4245E+00  0.4241E+00  0.2329E+01  0.2329E+01
      3.657  0.4652E+00  0.4648E+00  0.2363E+01  0.2363E+01
      3.730  0.4879E+00  0.4876E+00  0.2399E+01  0.2399E+01
      3.803  0.4441E+00  0.4437E+00  0.2431E+01  0.2432E+01
      3.877  0.3835E+00  0.3839E+00  0.2459E+01  0.2460E+01
      3.950  0.4107E+00  0.4122E+00  0.2489E+01  0.2490E+01
      4.023  0.5791E+00  0.5811E+00  0.2532E+01  0.2532E+01
      4.096  0.7323E+00  0.7326E+00  0.2585E+01  0.2586E+01
      4.169  0.6474E+00  0.6460E+00  0.2633E+01  0.2633E+01
      4.242  0.4626E+00  0.4607E+00  0.2667E+01  0.2667E+01
      4.315  0.3099E+00  0.3088E+00  0.2689E+01  0.2690E+01
      4.388  0.2821E+00  0.2823E+00  0.2710E+01  0.2710E+01
      4.462  0.3431E+00  0.3438E+00  0.2735E+01  0.2735E+01
      4.535  0.3962E+00  0.3963E+00  0.2764E+01  0.2764E+01
      4.608  0.3954E+00  0.3957E+00  0.2793E+01  0.2793E+01
      4.681  0.5465E+00  0.5489E+00  0.2833E+01  0.2834E+01
      4.754  0.7424E+00  0.7428E+00  0.2887E+01  0.2888E+01
      4.827  0.6401E+00  0.6385E+00  0.2934E+01  0.2935E+01
      4.900  0.4886E+00  0.4877E+00  0.2970E+01  0.2970E+01
      4.973  0.4374E+00  0.4367E+00  0.3002E+01  0.3002E+01
      5.047  0.3896E+00  0.3893E+00  0.3030E+01  0.3031E+01
      5.120  0.3836E+00  0.3844E+00  0.3059E+01  0.3059E+01
      5.193  0.4585E+00  0.4600E+00  0.3092E+01  0.3093E+01
      5.266  0.5187E+00  0.5180E+00  0.3130E+01  0.3130E+01
      5.339  0.4455E+00  0.4444E+00  0.3163E+01  0.3163E+01
      5.412  0.3820E+00  0.3823E+00  0.3191E+01  0.3191E+01
      5.485  0.4516E+00  0.4532E+00  0.3224E+01  0.3224E+01
      5.558  0.6039E+00  0.6048E+00  0.3268E+01  0.3268E+01
      5.632  0.6739E+00  0.6737E+00  0.3317E+01  0.3318E+01
      5.705  0.6764E+00  0.6766E+00  0.3367E+01  0.3367E+01
      5.778  0.6475E+00  0.6464E+00  0.3414E+01  0.3414E+01
      5.851  0.5005E+00  0.4985E+00  0.3451E+01  0.3451E+01
      5.924  0.3282E+00  0.3268E+00  0.3475E+01  0.3475E+01
      5.997  0.2718E+00  0.2723E+00  0.3495E+01  0.3495E+01
      6.070  0.3383E+00  0.3395E+00  0.3519E+01  0.3520E+01
      6.143  0.4859E+00  0.4882E+00  0.3555E+01  0.3555E+01
      6.217  0.6816E+00  0.6831E+00  0.3605E+01  0.3605E+01
      6.290  0.7728E+00  0.7732E+00  0.3661E+01  0.3662E+01
      6.363  0.7655E+00  0.7648E+00  0.3717E+01  0.3718E+01
      6.436  0.6439E+00  0.6425E+00  0.3764E+01  0.3765E+01
      6.509  0.5265E+00  0.5254E+00  0.3803E+01  0.3803E+01
      6.582  0.5082E+00  0.5083E+00  0.3840E+01  0.3840E+01
      6.655  0.5418E+00  0.5415E+00  0.3880E+01  0.3880E+01
      6.728  0.4819E+00  0.4812E+00  0.3915E+01  0.3915E+01
      6.802  0.4739E+00  0.4743E+00  0.3950E+01  0.3950E+01
      6.875  0.4728E+00  0.4729E+00  0.3984E+01  0.3985E+01
      6.948  0.4896E+00  0.4909E+00  0.4020E+01  0.4021E+01
      7.021  0.5862E+00  0.5871E+00  0.4063E+01  0.4064E+01
      7.094  0.5512E+00  0.5501E+00  0.4103E+01  0.4104E+01
      7.167  0.4632E+00  0.4628E+00  0.4137E+01  0.4138E+01
      7.240  0.5693E+00  0.5708E+00  0.4179E+01  0.4179E+01
      7.313  0.6903E+00  0.6900E+00  0.4229E+01  0.4230E+01
      7.387  0.6530E+00  0.6523E+00  0.4277E+01  0.4278E+01
      7.460  0.5789E+00  0.5785E+00  0.4320E+01  0.4320E+01
      7.533  0.5405E+00  0.5404E+00  0.4359E+01  0.4360E+01
      7.606  0.5554E+00  0.5556E+00  0.4400E+01  0.4400E+01
      7.679  0.4984E+00  0.4980E+00  0.4436E+01  0.4437E+01
      7.752  0.4548E+00  0.4547E+00  0.4470E+01  0.4470E+01
      7.825  0.5343E+00  0.5353E+00  0.4509E+01  0.4509E+01
      7.898  0.6255E+00  0.6251E+00  0.4554E+01  0.4555E+01
      7.972  0.5564E+00  0.5549E+00  0.4595E+01  0.4595E+01
      8.045  0.4284E+00  0.4272E+00  0.4627E+01  0.4627E+01
      8.118  0.3464E+00  0.3464E+00  0.4652E+01  0.4652E+01
      8.191  0.3557E+00  0.3566E+00  0.4678E+01  0.4678E+01
      8.264  0.4090E+00  0.4106E+00  0.4708E+01  0.4708E+01
      8.337  0.5829E+00  0.5850E+00  0.4751E+01  0.4751E+01
      8.410  0.7596E+00  0.7595E+00  0.4806E+01  0.4807E+01
      8.483  0.7523E+00  0.7512E+00  0.4861E+01  0.4862E+01
      8.557  0.5889E+00  0.5870E+00  0.4904E+01  0.4905E+01
      8.630  0.4474E+00  0.4464E+00  0.4937E+01  0.4937E+01
      8.703  0.4169E+00  0.4168E+00  0.4967E+01  0.4968E+01
      8.776  0.4378E+00  0.4393E+00  0.4999E+01  0.5000E+01
      8.849  0.6161E+00  0.6194E+00  0.5045E+01  0.5045E+01
      8.922  0.8332E+00  0.8346E+00  0.5106E+01  0.5106E+01
      8.995  0.9286E+00  0.9286E+00  0.5173E+01  0.5174E+01
      9.068  0.8642E+00  0.8624E+00  0.5237E+01  0.5237E+01
      9.142  0.6093E+00  0.6065E+00  0.5281E+01  0.5282E+01
      9.215  0.3661E+00  0.3640E+00  0.5308E+01  0.5308E+01
      9.288  0.2848E+00  0.2844E+00  0.5329E+01  0.5329E+01
      9.361  0.4089E+00  0.4101E+00  0.5359E+01  0.5359E+01
      9.434  0.5190E+00  0.5196E+00  0.5397E+01  0.5397E+01
      9.507  0.5931E+00  0.5950E+00  0.5440E+01  0.5441E+01
      9.580  0.7392E+00  0.7410E+00  0.5494E+01  0.5495E+01
      9.653  0.7591E+00  0.7580E+00  0.5550E+01  0.5550E+01
      9.727  0.6253E+00  0.6237E+00  0.5596E+01  0.5596E+01
      9.800  0.5523E+00  0.5524E+00  0.5636E+01  0.5636E+01
      9.873  0.6624E+00  0.6640E+00  0.5684E+01  0.5685E+01
      9.946  0.7684E+00  0.7691E+00  0.5741E+01  0.5741E+01
     10.019  0.7398E+00  0.7390E+00  0.5795E+01  0.5795E+01
     10.092  0.6803E+00  0.6798E+00  0.5845E+01  0.5845E+01
     10.165  0.6349E+00  0.6341E+00  0.5891E+01  0.5892E+01
     10.238  0.5306E+00  0.5292E+00  0.5930E+01  0.5930E+01
     10.312  0.4349E+00  0.4347E+00  0.5962E+01  0.5962E+01
     10.385  0.4841E+00  0.4852E+00  0.5997E+01  0.5998E+01
     10.458  0.5789E+00  0.5790E+00  0.6040E+01  0.6040E+01
     10.531  0.5962E+00  0.5963E+00  0.6083E+01  0.6084E+01
     10.604  0.6250E+00  0.6257E+00  0.6129E+01  0.6129E+01
     10.677  0.6360E+00  0.6358E+00  0.6175E+01  0.6176E+01
     10.750  0.5999E+00  0.5996E+00  0.6219E+01  0.6220E+01
     10.823  0.6538E+00  0.6548E+00  0.6267E+01  0.6268E+01
     10.897  0.7437E+00  0.7439E+00  0.6322E+01  0.6322E+01
     10.970  0.6949E+00  0.6936E+00  0.6372E+01  0.6373E+01
     11.043  0.5991E+00  0.5978E+00  0.6416E+01  0.6417E+01
     11.116  0.5041E+00  0.5036E+00  0.6453E+01  0.6454E+01
     11.189  0.4602E+00  0.4610E+00  0.6487E+01  0.6487E+01
     11.262  0.5563E+00  0.5576E+00  0.6528E+01  0.6528E+01
     11.335  0.7105E+00  0.7120E+00  0.6580E+01  0.6580E+01
     11.408  0.8384E+00  0.8395E+00  0.6641E+01  0.6642E+01
     11.481  0.8872E+00  0.8872E+00  0.6706E+01  0.6707E+01
     11.555  0.8207E+00  0.8193E+00  0.6766E+01  0.6766E+01
     11.628  0.6864E+00  0.6855E+00  0.6816E+01  0.6817E+01
     11.701  0.5814E+00  0.5799E+00  0.6859E+01  0.6859E+01
     11.774  0.4790E+00  0.4778E+00  0.6894E+01  0.6894E+01
     11.847  0.4537E+00  0.4536E+00  0.6927E+01  0.6927E+01
     11.920  0.4362E+00  0.4363E+00  0.6959E+01  0.6959E+01
     11.993  0.4378E+00  0.4379E+00  0.6991E+01  0.6991E+01
     12.066  0.4922E+00  0.4932E+00  0.7027E+01  0.7027E+01
     12.140  0.5890E+00  0.5901E+00  0.7070E+01  0.7071E+01
     12.213  0.6140E+00  0.6135E+00  0.7115E+01  0.7115E+01
     12.286  0.5561E+00  0.5555E+00  0.7156E+01  0.7156E+01
     12.359  0.5507E+00  0.5509E+00  0.7196E+01  0.7196E+01
     12.432  0.5398E+00  0.5397E+00  0.7235E+01  0.7236E+01
     12.505  0.5017E+00  0.5015E+00  0.7272E+01  0.7273E+01
     12.578  0.5044E+00  0.5050E+00  0.7309E+01  0.7310E+01
     12.651  0.5681E+00  0.5696E+00  0.7351E+01  0.7351E+01
     12.725  0.6083E+00  0.6105E+00  0.7395E+01  0.7396E+01
     12.798  0.5439E+00  0.5472E+00  0.7435E+01  0.7436E+01
     12.871  0.4474E+00  0.4510E+00  0.7468E+01  0.7469E+01
     12.944  0.4271E+00  0.4295E+00  0.7499E+01  0.7500E+01
     13.017  0.4073E+00  0.4002E+00  0.7529E+01  0.7530E+01
     13.090  0.3269E+00  0.3173E+00  0.7553E+01  0.7553E+01
     13.163  0.2862E+00  0.2763E+00  0.7574E+01  0.7573E+01
     13.236  0.3358E+00  0.3341E+00  0.7598E+01  0.7598E+01
     13.310  0.4484E+00  0.4693E+00  0.7631E+01  0.7632E+01
     13.383  0.4310E+00  0.4370E+00  0.7663E+01  0.7664E+01
     13.456  0.2735E+00  0.2646E+00  0.7683E+01  0.7683E+01
     13.529  0.2091E+00  0.2049E+00  0.7698E+01  0.7698E+01
     13.602  0.2691E+00  0.2686E+00  0.7718E+01  0.7718E+01
     13.675  0.3027E+00  0.3026E+00  0.7740E+01  0.7740E+01
     13.748  0.2793E+00  0.2798E+00  0.7760E+01  0.7761E+01
     13.821  0.2518E+00  0.2542E+00  0.7779E+01  0.7779E+01
     13.895  0.2736E+00  0.2798E+00  0.7799E+01  0.7800E+01
     13.968  0.2571E+00  0.2759E+00  0.7818E+01  0.7820E+01
     14.041  0.2079E+00  0.2346E+00  0.7833E+01  0.7837E+01
     14.114  0.2010E+00  0.1981E+00  0.7847E+01  0.7852E+01
     14.187  0.2239E+00  0.1958E+00  0.7864E+01  0.7866E+01
     14.260  0.2227E+00  0.2049E+00  0.7880E+01  0.7881E+01
     14.333  0.1973E+00  0.1916E+00  0.7895E+01  0.7895E+01
     14.406  0.1534E+00  0.1516E+00  0.7906E+01  0.7906E+01
     14.480  0.1168E+00  0.1158E+00  0.7914E+01  0.7914E+01
     14.553  0.1074E+00  0.1058E+00  0.7922E+01  0.7922E+01
     14.626  0.1196E+00  0.1138E+00  0.7931E+01  0.7931E+01
     14.699  0.1403E+00  0.1273E+00  0.7941E+01  0.7940E+01
     14.772  0.1268E+00  0.1238E+00  0.7951E+01  0.7949E+01
     14.845  0.8390E-01  0.9621E-01  0.7957E+01  0.7956E+01
     14.918  0.3942E-01  0.4676E-01  0.7960E+01  0.7959E+01
     14.991  0.1775E-01  0.2001E-01  0.7961E+01  0.7961E+01
     15.065  0.2550E-01  0.2637E-01  0.7963E+01  0.7963E+01
     15.138  0.5941E-01  0.6005E-01  0.7967E+01  0.7967E+01
     15.211  0.8903E-01  0.8907E-01  0.7974E+01  0.7974E+01
     15.284  0.9144E-01  0.9135E-01  0.7980E+01  0.7980E+01
     15.357  0.7675E-01  0.7683E-01  0.7986E+01  0.7986E+01
     15.430  0.7113E-01  0.7110E-01  0.7991E+01  0.7991E+01
     15.503  0.4714E-01  0.4667E-01  0.7995E+01  0.7995E+01
     15.576  0.2103E-01  0.2083E-01  0.7996E+01  0.7996E+01
     15.650  0.1770E-01  0.1775E-01  0.7997E+01  0.7997E+01
     15.723  0.1970E-01  0.1964E-01  0.7999E+01  0.7999E+01
     15.796  0.1097E-01  0.1083E-01  0.8000E+01  0.8000E+01
     15.869  0.3397E-02  0.3336E-02  0.8000E+01  0.8000E+01
     15.942  0.8547E-03  0.8381E-03  0.8000E+01  0.8000E+01
     16.015  0.2020E-03  0.1980E-03  0.8000E+01  0.8000E+01
     16.088  0.0000E+00  0.0000E+00  0.8000E+01  0.8000E+01
     16.161  0.0000E+00  0.0000E+00  0.8000E+01  0.8000E+01
     16.235  0.0000E+00  0.0000E+00  0.8000E+01  0.8000E+01
     16.308  0.0000E+00  0.0000E+00  0.8000E+01  0.8000E+01
     16.381  0.0000E+00  0.0000E+00  0.8000E+01  0.8000E+01
     16.454  0.0000E+00  0.0000E+00  0.8000E+01  0.8000E+01
     16.527  0.0000E+00  0.0000E+00  0.8000E+01  0.8000E+01
     16.600  0.0000E+00  0.0000E+00  0.8000E+01  0.8000E+01
     16.673  0.0000E+00  0.0000E+00  0.8000E+01  0.8000E+01
     16.67330103     -5.26390622  301      2.88232369      1.00000000
     -5.264  0.0000E+00  0.0000E+00  0.0000E+00  0.0000E+00  0.0000E+00  0.0000E+00  0.0000E+00  0.0000E+00  0.0000E+00  0.0000E+00  0.0000E+00  0.0000E+00  0.0000E+00  0.0000E+00  0.0000E+00  0.0000E+00  0.0000E+00  0.0000E+00
     -5.191  0.0000E+00  0.0000E+00  0.0000E+00  0.0000E+00  0.0000E+00  0.0000E+00  0.0000E+00  0.0000E+00  0.0000E+00  0.0000E+00  0.0000E+00  0.0000E+00  0.0000E+00  0.0000E+00  0.0000E+00  0.0000E+00  0.0000E+00  0.0000E+00
     -5.118  0.0000E+00  0.0000E+00  0.0000E+00  0.0000E+00  0.0000E+00  0.0000E+00  0.0000E+00  0.0000E+00  0.0000E+00  0.0000E+00  0.0000E+00  0.0000E+00  0.0000E+00  0.0000E+00  0.0000E+00  0.0000E+00  0.0000E+00  0.0000E+00
     -5.045  0.0000E+00  0.0000E+00  0.0000E+00  0.0000E+00  0.0000E+00  0.0000E+00  0.0000E+00  0.0000E+00  0.0000E+00  0.0000E+00  0.0000E+00  0.0000E+00  0.0000E+00  0.0000E+00  0.0000E+00  0.0000E+00  0.0000E+00  0.0000E+00
     -4.971  0.0000E+00  0.0000E+00  0.0000E+00  0.0000E+00  0.0000E+00  0.0000E+00  0.0000E+00  0.0000E+00  0.0000E+00  0.0000E+00  0.0000E+00  0.0000E+00  0.0000E+00  0.0000E+00  0.0000E+00  0.0000E+00  0.0000E+00  0.0000E+00
     -4.898  0.0000E+00  0.0000E+00  0.0000E+00  0.0000E+00  0.0000E+00  0.0000E+00  0.0000E+00  0.0000E+00  0.0000E+00  0.0000E+00  0.0000E+00  0.0000E+00  0.0000E+00  0.0000E+00  0.0000E+00  0.0000E+00  0.0000E+00  0.0000E+00
     -4.825  0.0000E+00  0.0000E+00  0.0000E+00  0.0000E+00  0.0000E+00  0.0000E+00  0.0000E+00  0.0000E+00  0.0000E+00  0.0000E+00  0.0000E+00  0.0000E+00  0.0000E+00  0.0000E+00  0.0000E+00  0.0000E+00  0.0000E+00  0.0000E+00
     -4.752  0.0000E+00  0.0000E+00  0.0000E+00  0.0000E+00  0.0000E+00  0.0000E+00  0.0000E+00  0.0000E+00  0.0000E+00  0.0000E+00  0.0000E+00  0.0000E+00  0.0000E+00  0.0000E+00  0.0000E+00  0.0000E+00  0.0000E+00  0.0000E+00
     -4.679  0.2121E-06  0.2154E-06  0.2098E-21  0.2042E-21  0.2336E-23  0.2570E-23  0.2098E-21  0.2042E-21  0.5749E-21  0.7327E-21  0.1084E-23  0.2471E-23  0.3312E-13  0.2766E-13  0.1084E-23  0.2471E-23  0.5749E-21  0.7327E-21
     -4.606  0.1646E-05  0.1672E-05  0.2711E-08  0.2753E-08  0.2848E-08  0.2892E-08  0.2711E-08  0.2753E-08  0.4550E-11  0.4626E-11  0.6004E-21  0.7201E-20  0.6409E-11  0.6486E-11  0.6004E-21  0.7201E-20  0.4550E-11  0.4626E-11
     -4.533  0.7192E-05  0.7305E-05  0.1470E-07  0.1493E-07  0.1621E-07  0.1646E-07  0.1470E-07  0.1493E-07  0.2469E-10  0.2510E-10  0.1904E-10  0.1936E-10  0.2135E-10  0.2159E-10  0.1904E-10  0.1936E-10  0.2469E-10  0.2510E-10
     -4.460  0.2970E-04  0.3016E-04  0.5765E-07  0.5855E-07  0.6298E-07  0.6395E-07  0.5765E-07  0.5855E-07  0.9685E-10  0.9846E-10  0.6311E-10  0.6417E-10  0.9185E-10  0.9288E-10  0.6311E-10  0.6417E-10  0.9685E-10  0.9846E-10
     -4.386  0.1236E-03  0.1254E-03  0.2474E-06  0.2512E-06  0.2814E-06  0.2857E-06  0.2474E-06  0.2512E-06  0.4156E-09  0.4225E-09  0.2719E-09  0.2765E-09  0.4508E-09  0.4566E-09  0.2719E-09  0.2765E-09  0.4156E-09  0.4225E-09
     -4.313  0.4633E-03  0.4694E-03  0.1072E-05  0.1089E-05  0.1169E-05  0.1186E-05  0.1072E-05  0.1089E-05  0.1873E-08  0.1903E-08  0.1254E-08  0.1275E-08  0.1961E-08  0.1984E-08  0.1254E-08  0.1275E-08  0.1873E-08  0.1903E-08
     -4.240  0.1383E-02  0.1397E-02  0.4232E-05  0.4290E-05  0.4168E-05  0.4218E-05  0.4232E-05  0.4290E-05  0.7554E-08  0.7666E-08  0.5321E-08  0.5406E-08  0.7111E-08  0.7177E-08  0.5321E-08  0.5406E-08  0.7554E-08  0.7666E-08
     -4.167  0.3147E-02  0.3169E-02  0.1314E-04  0.1327E-04  0.1143E-04  0.1153E-04  0.1314E-04  0.1327E-04  0.2390E-07  0.2417E-07  0.2012E-07  0.2040E-07  0.1953E-07  0.1960E-07  0.2012E-07  0.2040E-07  0.2390E-07  0.2417E-07
     -4.094  0.5106E-02  0.5122E-02  0.2623E-04  0.2636E-04  0.2499E-04  0.2516E-04  0.2623E-04  0.2636E-04  0.5178E-07  0.5214E-07  0.5626E-07  0.5678E-07  0.4134E-07  0.4154E-07  0.5626E-07  0.5678E-07  0.5178E-07  0.5214E-07
     -4.021  0.5576E-02  0.5573E-02  0.3429E-04  0.3436E-04  0.4089E-04  0.4104E-04  0.3429E-04  0.3436E-04  0.8882E-07  0.8942E-07  0.9451E-07  0.9496E-07  0.1001E-06  0.1011E-06  0.9451E-07  0.9496E-07  0.8882E-07  0.8942E-07
     -3.948  0.5689E-02  0.5704E-02  0.5103E-04  0.5139E-04  0.6100E-04  0.6131E-04  0.5103E-04  0.5139E-04  0.1947E-06  0.1965E-06  0.1631E-06  0.1646E-06  0.2450E-06  0.2469E-06  0.1631E-06  0.1646E-06  0.1947E-06  0.1965E-06
     -3.875  0.8421E-02  0.8458E-02  0.1010E-03  0.1016E-03  0.1036E-03  0.1041E-03  0.1010E-03  0.1016E-03  0.4447E-06  0.4480E-06  0.3704E-06  0.3732E-06  0.4652E-06  0.4668E-06  0.3704E-06  0.3732E-06  0.4447E-06  0.4480E-06
     -3.801  0.1055E-01  0.1055E-01  0.1503E-03  0.1507E-03  0.1245E-03  0.1244E-03  0.1503E-03  0.1507E-03  0.7329E-06  0.7355E-06  0.5609E-06  0.5620E-06  0.6115E-06  0.6103E-06  0.5609E-06  0.5620E-06  0.7329E-06  0.7355E-06
     -3.728  0.9523E-02  0.9509E-02  0.1630E-03  0.1630E-03  0.1110E-03  0.1111E-03  0.1630E-03  0.1630E-03  0.8891E-06  0.8900E-06  0.6667E-06  0.6687E-06  0.6450E-06  0.6432E-06  0.6667E-06  0.6687E-06  0.8891E-06  0.8900E-06
     -3.655  0.8656E-02  0.8653E-02  0.1552E-03  0.1550E-03  0.1557E-03  0.1565E-03  0.1552E-03  0.1550E-03  0.8835E-06  0.8831E-06  0.1011E-05  0.1016E-05  0.8243E-06  0.8273E-06  0.1011E-05  0.1016E-05  0.8835E-06  0.8831E-06
     -3.582  0.8915E-02  0.8924E-02  0.1532E-03  0.1534E-03  0.2499E-03  0.2509E-03  0.1532E-03  0.1534E-03  0.9200E-06  0.9224E-06  0.1523E-05  0.1528E-05  0.1370E-05  0.1381E-05  0.1523E-05  0.1528E-05  0.9200E-06  0.9224E-06
     -3.509  0.1054E-01  0.1055E-01  0.2034E-03  0.2042E-03  0.3355E-03  0.3360E-03  0.2034E-03  0.2042E-03  0.1492E-05  0.1502E-05  0.1998E-05  0.2001E-05  0.2364E-05  0.2377E-05  0.1998E-05  0.2001E-05  0.1492E-05  0.1502E-05
     -3.436  0.1212E-01  0.1213E-01  0.3143E-03  0.3156E-03  0.3025E-03  0.3013E-03  0.3143E-03  0.3156E-03  0.2853E-05  0.2870E-05  0.2040E-05  0.2037E-05  0.3070E-05  0.3069E-05  0.2040E-05  0.2037E-05  0.2853E-05  0.2870E-05
     -3.363  0.1269E-01  0.1269E-01  0.4172E-03  0.4178E-03  0.2257E-03  0.2255E-03  0.4172E-03  0.4178E-03  0.4201E-05  0.4209E-05  0.2151E-05  0.2157E-05  0.3249E-05  0.3239E-05  0.2151E-05  0.2157E-05  0.4201E-05  0.4209E-05
     -3.290  0.1227E-01  0.1226E-01  0.4117E-03  0.4113E-03  0.2895E-03  0.2907E-03  0.4117E-03  0.4113E-03  0.4181E-05  0.4177E-05  0.3163E-05  0.3177E-05  0.3315E-05  0.3308E-05  0.3163E-05  0.3177E-05  0.4181E-05  0.4177E-05
     -3.216  0.1284E-01  0.1286E-01  0.4309E-03  0.4321E-03  0.4259E-03  0.4273E-03  0.4309E-03  0.4321E-03  0.4514E-05  0.4529E-05  0.4888E-05  0.4909E-05  0.3892E-05  0.3901E-05  0.4888E-05  0.4909E-05  0.4514E-05  0.4529E-05
     -3.143  0.1621E-01  0.1623E-01  0.5793E-03  0.5804E-03  0.5773E-03  0.5784E-03  0.5793E-03  0.5804E-03  0.6428E-05  0.6442E-05  0.6997E-05  0.7008E-05  0.5535E-05  0.5551E-05  0.6997E-05  0.7008E-05  0.6428E-05  0.6442E-05
     -3.070  0.1464E-01  0.1459E-01  0.5106E-03  0.5083E-03  0.6045E-03  0.6038E-03  0.5106E-03  0.5083E-03  0.5828E-05  0.5802E-05  0.6307E-05  0.6280E-05  0.7187E-05  0.7203E-05  0.6307E-05  0.6280E-05  0.5828E-05  0.5802E-05
     -2.997  0.9880E-02  0.9846E-02  0.3093E-03  0.3082E-03  0.5529E-03  0.5521E-03  0.3093E-03  0.3082E-03  0.3691E-05  0.3680E-05  0.4445E-05  0.4435E-05  0.8004E-05  0.8007E-05  0.4445E-05  0.4435E-05  0.3691E-05  0.3680E-05
     -2.924  0.8736E-02  0.8749E-02  0.3358E-03  0.3374E-03  0.4776E-03  0.4771E-03  0.3358E-03  0.3374E-03  0.4573E-05  0.4601E-05  0.5221E-05  0.5244E-05  0.6632E-05  0.6621E-05  0.5221E-05  0.5244E-05  0.4573E-05  0.4601E-05
     -2.851  0.1211E-01  0.1217E-01  0.5715E-03  0.5748E-03  0.5851E-03  0.5877E-03  0.5715E-03  0.5748E-03  0.8378E-05  0.8429E-05  0.9028E-05  0.9079E-05  0.7506E-05  0.7541E-05  0.9028E-05  0.9079E-05  0.8378E-05  0.8429E-05
     -2.778  0.1784E-01  0.1789E-01  0.8897E-03  0.8927E-03  0.8755E-03  0.8773E-03  0.8897E-03  0.8927E-03  0.1374E-04  0.1380E-04  0.1377E-04  0.1379E-04  0.1260E-04  0.1265E-04  0.1377E-04  0.1379E-04  0.1374E-04  0.1380E-04
     -2.705  0.1948E-01  0.1947E-01  0.1066E-02  0.1067E-02  0.8739E-03  0.8723E-03  0.1066E-02  0.1067E-02  0.1796E-04  0.1799E-04  0.1360E-04  0.1358E-04  0.1651E-04  0.1652E-04  0.1360E-04  0.1358E-04  0.1796E-04  0.1799E-04
     -2.631  0.1813E-01  0.1811E-01  0.1082E-02  0.1082E-02  0.7600E-03  0.7588E-03  0.1082E-02  0.1082E-02  0.1933E-04  0.1933E-04  0.1292E-04  0.1292E-04  0.1641E-04  0.1636E-04  0.1292E-04  0.1292E-04  0.1933E-04  0.1933E-04
     -2.558  0.1545E-01  0.1542E-01  0.9568E-03  0.9551E-03  0.7007E-03  0.7003E-03  0.9568E-03  0.9551E-03  0.1730E-04  0.1727E-04  0.1376E-04  0.1376E-04  0.1311E-04  0.1307E-04  0.1376E-04  0.1376E-04  0.1730E-04  0.1727E-04
     -2.485  0.1350E-01  0.1349E-01  0.8399E-03  0.8396E-03  0.7420E-03  0.7431E-03  0.8399E-03  0.8396E-03  0.1568E-04  0.1568E-04  0.1386E-04  0.1385E-04  0.1433E-04  0.1438E-04  0.1386E-04  0.1385E-04  0.1568E-04  0.1568E-04
     -2.412  0.1448E-01  0.1450E-01  0.8786E-03  0.8794E-03  0.9923E-03  0.9955E-03  0.8786E-03  0.8794E-03  0.1716E-04  0.1717E-04  0.1551E-04  0.1554E-04  0.2249E-04  0.2259E-04  0.1551E-04  0.1554E-04  0.1716E-04  0.1717E-04
     -2.339  0.1581E-01  0.1582E-01  0.9319E-03  0.9324E-03  0.1268E-02  0.1269E-02  0.9319E-03  0.9324E-03  0.1822E-04  0.1823E-04  0.1991E-04  0.1996E-04  0.2749E-04  0.2749E-04  0.1991E-04  0.1996E-04  0.1822E-04  0.1823E-04
     -2.266  0.1528E-01  0.1526E-01  0.9389E-03  0.9383E-03  0.1268E-02  0.1266E-02  0.9389E-03  0.9384E-03  0.1822E-04  0.1820E-04  0.2397E-04  0.2398E-04  0.2308E-04  0.2303E-04  0.2397E-04  0.2398E-04  0.1822E-04  0.1820E-04
     -2.193  0.1420E-01  0.1421E-01  0.9040E-03  0.9048E-03  0.1271E-02  0.1273E-02  0.9040E-03  0.9048E-03  0.1772E-04  0.1774E-04  0.2661E-04  0.2665E-04  0.2112E-04  0.2116E-04  0.2661E-04  0.2665E-04  0.1772E-04  0.1774E-04
     -2.120  0.1711E-01  0.1716E-01  0.1161E-02  0.1165E-02  0.1575E-02  0.1578E-02  0.1161E-02  0.1165E-02  0.2403E-04  0.2414E-04  0.3505E-04  0.3513E-04  0.2678E-04  0.2686E-04  0.3505E-04  0.3513E-04  0.2403E-04  0.2414E-04
     -2.046  0.1973E-01  0.1973E-01  0.1494E-02  0.1496E-02  0.1632E-02  0.1628E-02  0.1494E-02  0.1496E-02  0.3394E-04  0.3401E-04  0.3814E-04  0.3804E-04  0.3281E-04  0.3286E-04  0.3814E-04  0.3804E-04  0.3394E-04  0.3401E-04
     -1.973  0.1648E-01  0.1643E-01  0.1454E-02  0.1452E-02  0.1051E-02  0.1043E-02  0.1454E-02  0.1452E-02  0.3768E-04  0.3769E-04  0.2420E-04  0.2401E-04  0.3347E-04  0.3341E-04  0.2420E-04  0.2401E-04  0.3768E-04  0.3769E-04
     -1.900  0.1205E-01  0.1202E-01  0.1244E-02  0.1242E-02  0.5287E-03  0.5260E-03  0.1244E-02  0.1242E-02  0.3548E-04  0.3544E-04  0.1358E-04  0.1354E-04  0.2740E-04  0.2730E-04  0.1358E-04  0.1354E-04  0.3548E-04  0.3544E-04
     -1.827  0.1217E-01  0.1223E-01  0.1312E-02  0.1317E-02  0.6444E-03  0.6496E-03  0.1312E-02  0.1317E-02  0.3837E-04  0.3852E-04  0.1883E-04  0.1899E-04  0.2911E-04  0.2920E-04  0.1883E-04  0.1899E-04  0.3837E-04  0.3852E-04
     -1.754  0.2111E-01  0.2123E-01  0.2174E-02  0.2184E-02  0.1545E-02  0.1558E-02  0.2174E-02  0.2184E-02  0.6234E-04  0.6261E-04  0.4402E-04  0.4433E-04  0.5245E-04  0.5274E-04  0.4402E-04  0.4433E-04  0.6234E-04  0.6261E-04
     -1.681  0.2733E-01  0.2733E-01  0.2567E-02  0.2564E-02  0.2619E-02  0.2626E-02  0.2567E-02  0.2564E-02  0.7062E-04  0.7049E-04  0.6736E-04  0.6743E-04  0.7619E-04  0.7630E-04  0.6736E-04  0.6743E-04  0.7062E-04  0.7049E-04
     -1.608  0.2233E-01  0.2226E-01  0.1904E-02  0.1897E-02  0.2675E-02  0.2668E-02  0.1904E-02  0.1897E-02  0.4991E-04  0.4970E-04  0.6420E-04  0.6404E-04  0.7050E-04  0.7031E-04  0.6420E-04  0.6404E-04  0.4991E-04  0.4970E-04