   2   2   1   0
  0.1839853E+02  0.2966342E-09  0.2966341E-09  0.4828810E-09  0.5000000E-15
  1.000000000000000E-004
  CAR 
 unknown system                          
     19.16096809     -5.14657930  301      3.96409910      1.00000000
     -5.147  0.0000E+00  0.0000E+00  0.0000E+00  0.0000E+00
     -5.066  0.0000E+00  0.0000E+00  0.0000E+00  0.0000E+00
     -4.985  0.0000E+00  0.0000E+00  0.0000E+00  0.0000E+00
     -4.904  0.0000E+00  0.0000E+00  0.0000E+00  0.0000E+00
     -4.822  0.0000E+00  0.0000E+00  0.0000E+00  0.0000E+00
     -4.741  0.0000E+00  0.0000E+00  0.0000E+00  0.0000E+00
     -4.660  0.0000E+00  0.0000E+00  0.0000E+00  0.0000E+00
     -4.579  0.0000E+00  0.0000E+00  0.0000E+00  0.0000E+00
     -4.498  0.8053E-06  0.8759E-06  0.6525E-07  0.7097E-07
     -4.417  0.4907E-05  0.5338E-05  0.4629E-06  0.5034E-06
     -4.336  0.3135E-04  0.3409E-04  0.3003E-05  0.3266E-05
     -4.255  0.1660E-03  0.1804E-03  0.1645E-04  0.1788E-04
     -4.174  0.7968E-03  0.8636E-03  0.8101E-04  0.8785E-04
     -4.093  0.3492E-02  0.3748E-02  0.3640E-03  0.3915E-03
     -4.012  0.1170E-01  0.1235E-01  0.1312E-02  0.1392E-02
     -3.931  0.2907E-01  0.3022E-01  0.3667E-02  0.3841E-02
     -3.850  0.5098E-01  0.5188E-01  0.7798E-02  0.8044E-02
     -3.769  0.5659E-01  0.5620E-01  0.1238E-01  0.1260E-01
     -3.688  0.5114E-01  0.5155E-01  0.1653E-01  0.1677E-01
     -3.607  0.7877E-01  0.8102E-01  0.2291E-01  0.2334E-01
     -3.526  0.1109E+00  0.1113E+00  0.3190E-01  0.3236E-01
     -3.445  0.9972E-01  0.9875E-01  0.3998E-01  0.4036E-01
     -3.364  0.8763E-01  0.8739E-01  0.4708E-01  0.4745E-01
     -3.283  0.8811E-01  0.8840E-01  0.5422E-01  0.5461E-01
     -3.202  0.1023E+00  0.1037E+00  0.6252E-01  0.6301E-01
     -3.121  0.1256E+00  0.1263E+00  0.7271E-01  0.7326E-01
     -3.040  0.1333E+00  0.1337E+00  0.8351E-01  0.8409E-01
     -2.959  0.1331E+00  0.1325E+00  0.9430E-01  0.9483E-01
     -2.878  0.1254E+00  0.1260E+00  0.1045E+00  0.1050E+00
     -2.797  0.1648E+00  0.1678E+00  0.1178E+00  0.1186E+00
     -2.716  0.1849E+00  0.1828E+00  0.1328E+00  0.1335E+00
     -2.635  0.1216E+00  0.1186E+00  0.1427E+00  0.1431E+00
     -2.554  0.8771E-01  0.8735E-01  0.1498E+00  0.1502E+00
     -2.473  0.1058E+00  0.1082E+00  0.1584E+00  0.1589E+00
     -2.392  0.1740E+00  0.1783E+00  0.1725E+00  0.1734E+00
     -2.311  0.2264E+00  0.2269E+00  0.1908E+00  0.1918E+00
     -2.230  0.2174E+00  0.2167E+00  0.2085E+00  0.2093E+00
     -2.149  0.1941E+00  0.1923E+00  0.2242E+00  0.2249E+00
     -2.068  0.1602E+00  0.1588E+00  0.2372E+00  0.2378E+00
     -1.987  0.1544E+00  0.1552E+00  0.2497E+00  0.2504E+00
     -1.906  0.1803E+00  0.1813E+00  0.2643E+00  0.2651E+00
     -1.825  0.1912E+00  0.1910E+00  0.2798E+00  0.2806E+00
     -1.744  0.1703E+00  0.1690E+00  0.2936E+00  0.2943E+00
     -1.662  0.1725E+00  0.1747E+00  0.3076E+00  0.3085E+00
     -1.581  0.2330E+00  0.2360E+00  0.3265E+00  0.3276E+00
     -1.500  0.2415E+00  0.2390E+00  0.3461E+00  0.3470E+00
     -1.419  0.1794E+00  0.1761E+00  0.3606E+00  0.3613E+00
     -1.338  0.1272E+00  0.1258E+00  0.3709E+00  0.3715E+00
     -1.257  0.1667E+00  0.1732E+00  0.3845E+00  0.3855E+00
     -1.176  0.3226E+00  0.3298E+00  0.4106E+00  0.4123E+00
     -1.095  0.3573E+00  0.3535E+00  0.4396E+00  0.4409E+00
     -1.014  0.2571E+00  0.2519E+00  0.4605E+00  0.4614E+00
     -0.933  0.1948E+00  0.1940E+00  0.4763E+00  0.4771E+00
     -0.852  0.2010E+00  0.2017E+00  0.4925E+00  0.4934E+00
     -0.771  0.2039E+00  0.2031E+00  0.5091E+00  0.5099E+00
     -0.690  0.1888E+00  0.1887E+00  0.5244E+00  0.5252E+00
     -0.609  0.1894E+00  0.1892E+00  0.5398E+00  0.5406E+00
     -0.528  0.1897E+00  0.1904E+00  0.5552E+00  0.5560E+00
     -0.447  0.2157E+00  0.2182E+00  0.5727E+00  0.5737E+00
     -0.366  0.2907E+00  0.2957E+00  0.5962E+00  0.5977E+00
     -0.285  0.3618E+00  0.3627E+00  0.6255E+00  0.6271E+00
     -0.204  0.3097E+00  0.3040E+00  0.6506E+00  0.6517E+00
     -0.123  0.2351E+00  0.2351E+00  0.6697E+00  0.6708E+00
     -0.042  0.3006E+00  0.3059E+00  0.6941E+00  0.6956E+00
      0.039  0.3371E+00  0.3344E+00  0.7214E+00  0.7227E+00
      0.120  0.2581E+00  0.2541E+00  0.7424E+00  0.7433E+00
      0.201  0.2137E+00  0.2126E+00  0.7597E+00  0.7606E+00
      0.282  0.2256E+00  0.2289E+00  0.7780E+00  0.7791E+00
      0.363  0.3145E+00  0.3186E+00  0.8035E+00  0.8050E+00
      0.444  0.3195E+00  0.3160E+00  0.8294E+00  0.8306E+00
      0.525  0.2293E+00  0.2243E+00  0.8480E+00  0.8488E+00
      0.606  0.1819E+00  0.1836E+00  0.8628E+00  0.8637E+00
      0.687  0.2782E+00  0.2847E+00  0.8853E+00  0.8867E+00
      0.768  0.3471E+00  0.3474E+00  0.9135E+00  0.9149E+00
      0.849  0.3393E+00  0.3392E+00  0.9410E+00  0.9424E+00
      0.930  0.3233E+00  0.3204E+00  0.9672E+00  0.9684E+00
      1.011  0.2647E+00  0.2627E+00  0.9886E+00  0.9897E+00
      1.092  0.2756E+00  0.2787E+00  0.1011E+01  0.1012E+01
      1.173  0.3328E+00  0.3351E+00  0.1038E+01  0.1039E+01
      1.254  0.3589E+00  0.3596E+00  0.1067E+01  0.1069E+01
      1.335  0.3760E+00  0.3773E+00  0.1098E+01  0.1099E+01
      1.416  0.4231E+00  0.4257E+00  0.1132E+01  0.1134E+01
      1.497  0.4404E+00  0.4374E+00  0.1168E+01  0.1169E+01
      1.579  0.3180E+00  0.3099E+00  0.1193E+01  0.1194E+01
      1.660  0.2070E+00  0.2072E+00  0.1210E+01  0.1211E+01
      1.741  0.2705E+00  0.2761E+00  0.1232E+01  0.1234E+01
      1.822  0.3279E+00  0.3276E+00  0.1259E+01  0.1260E+01
      1.903  0.3052E+00  0.3048E+00  0.1283E+01  0.1285E+01
      1.984  0.3043E+00  0.3038E+00  0.1308E+01  0.1309E+01
      2.065  0.2697E+00  0.2659E+00  0.1330E+01  0.1331E+01
      2.146  0.2717E+00  0.2754E+00  0.1352E+01  0.1353E+01
      2.227  0.3819E+00  0.3875E+00  0.1383E+01  0.1385E+01
      2.308  0.4295E+00  0.4317E+00  0.1418E+01  0.1420E+01
      2.389  0.4431E+00  0.4450E+00  0.1454E+01  0.1456E+01
      2.470  0.4600E+00  0.4601E+00  0.1491E+01  0.1493E+01
      2.551  0.4408E+00  0.4401E+00  0.1527E+01  0.1529E+01
      2.632  0.4333E+00  0.4363E+00  0.1562E+01  0.1564E+01
      2.713  0.4602E+00  0.4615E+00  0.1599E+01  0.1602E+01
      2.794  0.4504E+00  0.4462E+00  0.1636E+01  0.1638E+01
      2.875  0.3658E+00  0.3588E+00  0.1665E+01  0.1667E+01
      2.956  0.2657E+00  0.2622E+00  0.1687E+01  0.1688E+01
      3.037  0.2188E+00  0.2203E+00  0.1705E+01  0.1706E+01
      3.118  0.2687E+00  0.2738E+00  0.1726E+01  0.1728E+01
      3.199  0.3970E+00  0.4060E+00  0.1759E+01  0.1761E+01
      3.280  0.5156E+00  0.5166E+00  0.1800E+01  0.1803E+01
      3.361  0.4311E+00  0.4208E+00  0.1835E+01  0.1837E+01
      3.442  0.2778E+00  0.2693E+00  0.1858E+01  0.1859E+01
      3.523  0.1712E+00  0.1668E+00  0.1872E+01  0.1873E+01
      3.604  0.1273E+00  0.1263E+00  0.1882E+01  0.1883E+01
      3.685  0.1953E+00  0.2015E+00  0.1898E+01  0.1899E+01
      3.766  0.3231E+00  0.3302E+00  0.1924E+01  0.1926E+01
      3.847  0.3577E+00  0.3605E+00  0.1953E+01  0.1955E+01
      3.928  0.3681E+00  0.3736E+00  0.1983E+01  0.1985E+01
      4.009  0.4709E+00  0.4776E+00  0.2021E+01  0.2024E+01
      4.090  0.5785E+00  0.5770E+00  0.2068E+01  0.2071E+01
      4.171  0.5801E+00  0.5725E+00  0.2115E+01  0.2117E+01
      4.252  0.4581E+00  0.4496E+00  0.2152E+01  0.2154E+01
      4.333  0.3514E+00  0.3483E+00  0.2181E+01  0.2182E+01
      4.414  0.3071E+00  0.3066E+00  0.2206E+01  0.2207E+01
      4.495  0.2832E+00  0.2854E+00  0.2229E+01  0.2230E+01
      4.576  0.3224E+00  0.3260E+00  0.2255E+01  0.2257E+01
      4.657  0.3859E+00  0.3871E+00  0.2286E+01  0.2288E+01
      4.738  0.4109E+00  0.4107E+00  0.2320E+01  0.2321E+01
      4.820  0.4374E+00  0.4373E+00  0.2355E+01  0.2357E+01
      4.901  0.4620E+00  0.4610E+00  0.2392E+01  0.2394E+01
      4.982  0.4345E+00  0.4321E+00  0.2428E+01  0.2429E+01
      5.063  0.3780E+00  0.3788E+00  0.2458E+01  0.2460E+01
      5.144  0.4004E+00  0.4082E+00  0.2491E+01  0.2493E+01
      5.225  0.5501E+00  0.5590E+00  0.2535E+01  0.2538E+01
      5.306  0.6324E+00  0.6332E+00  0.2587E+01  0.2590E+01
      5.387  0.5820E+00  0.5752E+00  0.2634E+01  0.2636E+01
      5.468  0.4101E+00  0.3982E+00  0.2667E+01  0.2668E+01
      5.549  0.2710E+00  0.2685E+00  0.2689E+01  0.2690E+01
      5.630  0.2862E+00  0.2904E+00  0.2712E+01  0.2714E+01
      5.711  0.3359E+00  0.3375E+00  0.2740E+01  0.2741E+01
      5.792  0.3430E+00  0.3396E+00  0.2767E+01  0.2769E+01
      5.873  0.2992E+00  0.2971E+00  0.2792E+01  0.2793E+01
      5.954  0.3569E+00  0.3647E+00  0.2821E+01  0.2822E+01
      6.035  0.5566E+00  0.5659E+00  0.2866E+01  0.2868E+01
      6.116  0.5894E+00  0.5819E+00  0.2913E+01  0.2915E+01
      6.197  0.4635E+00  0.4603E+00  0.2951E+01  0.2953E+01
      6.278  0.4512E+00  0.4523E+00  0.2988E+01  0.2989E+01
      6.359  0.4022E+00  0.3995E+00  0.3020E+01  0.3022E+01
      6.440  0.3462E+00  0.3463E+00  0.3048E+01  0.3050E+01
      6.521  0.3727E+00  0.3756E+00  0.3079E+01  0.3080E+01
      6.602  0.3610E+00  0.3566E+00  0.3108E+01  0.3109E+01
      6.683  0.2845E+00  0.2826E+00  0.3131E+01  0.3132E+01
      6.764  0.3318E+00  0.3371E+00  0.3158E+01  0.3160E+01
      6.845  0.4433E+00  0.4489E+00  0.3194E+01  0.3196E+01
      6.926  0.5852E+00  0.5911E+00  0.3241E+01  0.3244E+01
      7.007  0.6729E+00  0.6719E+00  0.3296E+01  0.3298E+01
      7.088  0.5976E+00  0.5916E+00  0.3344E+01  0.3346E+01
      7.169  0.4861E+00  0.4824E+00  0.3384E+01  0.3385E+01
      7.250  0.3852E+00  0.3805E+00  0.3415E+01  0.3416E+01
      7.331  0.3087E+00  0.3071E+00  0.3440E+01  0.3441E+01
      7.412  0.3192E+00  0.3203E+00  0.3466E+01  0.3467E+01
      7.493  0.3397E+00  0.3428E+00  0.3493E+01  0.3495E+01
      7.574  0.3988E+00  0.4034E+00  0.3526E+01  0.3528E+01
      7.655  0.4894E+00  0.4939E+00  0.3565E+01  0.3568E+01
      7.736  0.5607E+00  0.5622E+00  0.3611E+01  0.3613E+01
      7.817  0.5551E+00  0.5537E+00  0.3656E+01  0.3658E+01
      7.898  0.6477E+00  0.6551E+00  0.3708E+01  0.3711E+01
      7.979  0.6973E+00  0.6902E+00  0.3765E+01  0.3767E+01
      8.061  0.4691E+00  0.4558E+00  0.3803E+01  0.3804E+01
      8.142  0.3321E+00  0.3317E+00  0.3830E+01  0.3831E+01
      8.223  0.4244E+00  0.4319E+00  0.3864E+01  0.3866E+01
      8.304  0.5617E+00  0.5655E+00  0.3910E+01  0.3912E+01
      8.385  0.5355E+00  0.5328E+00  0.3953E+01  0.3955E+01
      8.466  0.4260E+00  0.4230E+00  0.3988E+01  0.3990E+01
      8.547  0.4110E+00  0.4142E+00  0.4021E+01  0.4023E+01
      8.628  0.4530E+00  0.4518E+00  0.4058E+01  0.4060E+01
      8.709  0.4621E+00  0.4651E+00  0.4095E+01  0.4098E+01
      8.790  0.5519E+00  0.5548E+00  0.4140E+01  0.4143E+01
      8.871  0.5320E+00  0.5268E+00  0.4183E+01  0.4185E+01
      8.952  0.5250E+00  0.5269E+00  0.4226E+01  0.4228E+01
      9.033  0.5706E+00  0.5719E+00  0.4272E+01  0.4274E+01
      9.114  0.5702E+00  0.5709E+00  0.4318E+01  0.4321E+01
      9.195  0.5540E+00  0.5555E+00  0.4363E+01  0.4366E+01
      9.276  0.5764E+00  0.5783E+00  0.4410E+01  0.4413E+01
      9.357  0.5515E+00  0.5459E+00  0.4455E+01  0.4457E+01
      9.438  0.4443E+00  0.4395E+00  0.4491E+01  0.4493E+01
      9.519  0.4065E+00  0.4068E+00  0.4524E+01  0.4526E+01
      9.600  0.3975E+00  0.3941E+00  0.4556E+01  0.4558E+01
      9.681  0.3486E+00  0.3464E+00  0.4584E+01  0.4586E+01
      9.762  0.3927E+00  0.3982E+00  0.4616E+01  0.4618E+01
      9.843  0.4664E+00  0.4682E+00  0.4654E+01  0.4656E+01
      9.924  0.4252E+00  0.4243E+00  0.4688E+01  0.4690E+01
     10.005  0.4023E+00  0.4013E+00  0.4721E+01  0.4723E+01
     10.086  0.4017E+00  0.4022E+00  0.4754E+01  0.4755E+01
     10.167  0.5100E+00  0.5170E+00  0.4795E+01  0.4797E+01
     10.248  0.5893E+00  0.5865E+00  0.4843E+01  0.4845E+01
     10.329  0.4384E+00  0.4273E+00  0.4878E+01  0.4880E+01
     10.410  0.2906E+00  0.2866E+00  0.4902E+01  0.4903E+01
     10.491  0.3014E+00  0.3074E+00  0.4926E+01  0.4928E+01
     10.572  0.4861E+00  0.4994E+00  0.4966E+01  0.4968E+01
     10.653  0.6712E+00  0.6751E+00  0.5020E+01  0.5023E+01
     10.734  0.7219E+00  0.7281E+00  0.5079E+01  0.5082E+01
     10.815  0.8300E+00  0.8348E+00  0.5146E+01  0.5150E+01
     10.896  0.6971E+00  0.6795E+00  0.5202E+01  0.5205E+01
     10.977  0.3750E+00  0.3607E+00  0.5233E+01  0.5234E+01
     11.058  0.2810E+00  0.2805E+00  0.5256E+01  0.5257E+01
     11.139  0.2928E+00  0.2932E+00  0.5280E+01  0.5281E+01
     11.221  0.2892E+00  0.2927E+00  0.5303E+01  0.5304E+01
     11.302  0.3625E+00  0.3685E+00  0.5332E+01  0.5334E+01
     11.383  0.5176E+00  0.5246E+00  0.5374E+01  0.5377E+01
     11.464  0.7234E+00  0.7299E+00  0.5433E+01  0.5436E+01
     11.545  0.7900E+00  0.7876E+00  0.5497E+01  0.5500E+01
     11.626  0.6193E+00  0.6098E+00  0.5547E+01  0.5549E+01
     11.707  0.4548E+00  0.4509E+00  0.5584E+01  0.5586E+01
     11.788  0.4195E+00  0.4236E+00  0.5618E+01  0.5620E+01
     11.869  0.5107E+00  0.5178E+00  0.5660E+01  0.5662E+01
     11.950  0.6273E+00  0.6313E+00  0.5710E+01  0.5713E+01
     12.031  0.6781E+00  0.6745E+00  0.5765E+01  0.5768E+01
     12.112  0.6191E+00  0.6141E+00  0.5816E+01  0.5818E+01
     12.193  0.5058E+00  0.5006E+00  0.5857E+01  0.5858E+01
     12.274  0.4610E+00  0.4607E+00  0.5894E+01  0.5896E+01
     12.355  0.4866E+00  0.4863E+00  0.5934E+01  0.5935E+01
     12.436  0.4890E+00  0.4912E+00  0.5973E+01  0.5975E+01
     12.517  0.5197E+00  0.5232E+00  0.6015E+01  0.6018E+01
     12.598  0.5664E+00  0.5712E+00  0.6061E+01  0.6064E+01
     12.679  0.6410E+00  0.6459E+00  0.6113E+01  0.6116E+01
     12.760  0.6790E+00  0.6746E+00  0.6168E+01  0.6171E+01
     12.841  0.5883E+00  0.5838E+00  0.6216E+01  0.6218E+01
     12.922  0.6378E+00  0.6423E+00  0.6268E+01  0.6270E+01
     13.003  0.7352E+00  0.7338E+00  0.6327E+01  0.6330E+01
     13.084  0.5937E+00  0.5847E+00  0.6375E+01  0.6377E+01
     13.165  0.4480E+00  0.4461E+00  0.6412E+01  0.6413E+01
     13.246  0.4318E+00  0.4343E+00  0.6447E+01  0.6449E+01
     13.327  0.4639E+00  0.4659E+00  0.6484E+01  0.6486E+01
     13.408  0.4273E+00  0.4234E+00  0.6519E+01  0.6521E+01
     13.489  0.3781E+00  0.3786E+00  0.6550E+01  0.6552E+01
     13.570  0.5169E+00  0.5286E+00  0.6592E+01  0.6594E+01
     13.651  0.7618E+00  0.7684E+00  0.6653E+01  0.6657E+01
     13.732  0.8023E+00  0.7947E+00  0.6718E+01  0.6721E+01
     13.813  0.6518E+00  0.6471E+00  0.6771E+01  0.6774E+01
     13.894  0.5978E+00  0.5972E+00  0.6820E+01  0.6822E+01
     13.975  0.5293E+00  0.5264E+00  0.6863E+01  0.6865E+01
     14.056  0.4645E+00  0.4624E+00  0.6900E+01  0.6902E+01
     14.137  0.4059E+00  0.4043E+00  0.6933E+01  0.6935E+01
     14.218  0.4202E+00  0.4220E+00  0.6967E+01  0.6969E+01
     14.299  0.4614E+00  0.4612E+00  0.7005E+01  0.7007E+01
     14.380  0.4768E+00  0.4795E+00  0.7044E+01  0.7046E+01
     14.462  0.5847E+00  0.5929E+00  0.7091E+01  0.7094E+01
     14.543  0.6556E+00  0.6528E+00  0.7144E+01  0.7147E+01
     14.624  0.4918E+00  0.4807E+00  0.7184E+01  0.7186E+01
     14.705  0.3848E+00  0.3837E+00  0.7215E+01  0.7217E+01
     14.786  0.4528E+00  0.4577E+00  0.7252E+01  0.7254E+01
     14.867  0.5363E+00  0.5401E+00  0.7295E+01  0.7298E+01
     14.948  0.5608E+00  0.5599E+00  0.7341E+01  0.7343E+01
     15.029  0.5338E+00  0.5314E+00  0.7384E+01  0.7386E+01
     15.110  0.4163E+00  0.4092E+00  0.7418E+01  0.7419E+01
     15.191  0.2663E+00  0.2666E+00  0.7440E+01  0.7441E+01
     15.272  0.2691E+00  0.2751E+00  0.7461E+01  0.7463E+01
     15.353  0.3747E+00  0.3771E+00  0.7492E+01  0.7494E+01
     15.434  0.4857E+00  0.4859E+00  0.7531E+01  0.7533E+01
     15.515  0.4906E+00  0.4867E+00  0.7571E+01  0.7573E+01
     15.596  0.4384E+00  0.4327E+00  0.7606E+01  0.7608E+01
     15.677  0.3532E+00  0.3517E+00  0.7635E+01  0.7636E+01
     15.758  0.3677E+00  0.3733E+00  0.7665E+01  0.7667E+01
     15.839  0.3569E+00  0.3527E+00  0.7694E+01  0.7695E+01
     15.920  0.2251E+00  0.2202E+00  0.7712E+01  0.7713E+01
     16.001  0.2104E+00  0.2131E+00  0.7729E+01  0.7730E+01
     16.082  0.2709E+00  0.2718E+00  0.7751E+01  0.7752E+01
     16.163  0.2485E+00  0.2444E+00  0.7771E+01  0.7772E+01
     16.244  0.1812E+00  0.1783E+00  0.7786E+01  0.7787E+01
     16.325  0.1647E+00  0.1653E+00  0.7799E+01  0.7800E+01
     16.406  0.1955E+00  0.1996E+00  0.7815E+01  0.7816E+01
     16.487  0.2150E+00  0.2155E+00  0.7833E+01  0.7834E+01
     16.568  0.2385E+00  0.2401E+00  0.7852E+01  0.7853E+01
     16.649  0.2461E+00  0.2438E+00  0.7872E+01  0.7873E+01
     16.730  0.1576E+00  0.1521E+00  0.7885E+01  0.7885E+01
     16.811  0.9580E-01  0.9554E-01  0.7893E+01  0.7893E+01
     16.892  0.1266E+00  0.1308E+00  0.7903E+01  0.7904E+01
     16.973  0.2107E+00  0.2134E+00  0.7920E+01  0.7921E+01
     17.054  0.2282E+00  0.2249E+00  0.7938E+01  0.7939E+01
     17.135  0.1418E+00  0.1384E+00  0.7950E+01  0.7950E+01
     17.216  0.8274E-01  0.8024E-01  0.7957E+01  0.7957E+01
     17.297  0.3597E-01  0.3356E-01  0.7960E+01  0.7960E+01
     17.378  0.1031E-01  0.9574E-02  0.7960E+01  0.7960E+01
     17.459  0.6384E-02  0.6712E-02  0.7961E+01  0.7961E+01
     17.540  0.1984E-01  0.2153E-01  0.7963E+01  0.7963E+01
     17.621  0.5311E-01  0.5523E-01  0.7967E+01  0.7967E+01
     17.703  0.7503E-01  0.7516E-01  0.7973E+01  0.7973E+01
     17.784  0.7617E-01  0.7622E-01  0.7979E+01  0.7980E+01
     17.865  0.7598E-01  0.7662E-01  0.7985E+01  0.7986E+01
     17.946  0.7444E-01  0.7364E-01  0.7991E+01  0.7992E+01
     18.027  0.5596E-01  0.5435E-01  0.7996E+01  0.7996E+01
     18.108  0.3353E-01  0.3204E-01  0.7999E+01  0.7999E+01
     18.189  0.1306E-01  0.1206E-01  0.8000E+01  0.8000E+01
     18.270  0.3147E-02  0.2853E-02  0.8000E+01  0.8000E+01
     18.351  0.6224E-03  0.5619E-03  0.8000E+01  0.8000E+01
     18.432  0.1074E-03  0.9685E-04  0.8000E+01  0.8000E+01
     18.513  0.0000E+00  0.0000E+00  0.8000E+01  0.8000E+01
     18.594  0.0000E+00  0.0000E+00  0.8000E+01  0.8000E+01
     18.675  0.0000E+00  0.0000E+00  0.8000E+01  0.8000E+01
     18.756  0.0000E+00  0.0000E+00  0.8000E+01  0.8000E+01
     18.837  0.0000E+00  0.0000E+00  0.8000E+01  0.8000E+01
     18.918  0.0000E+00  0.0000E+00  0.8000E+01  0.8000E+01
     18.999  0.0000E+00  0.0000E+00  0.8000E+01  0.8000E+01
     19.080  0.0000E+00  0.0000E+00  0.8000E+01  0.8000E+01
     19.161  0.0000E+00  0.0000E+00  0.8000E+01  0.8000E+01
     19.16096809     -5.14657930  301      3.96409910      1.00000000
     -5.147  0.0000E+00  0.0000E+00  0.0000E+00  0.0000E+00  0.0000E+00  0.0000E+00  0.0000E+00  0.0000E+00  0.0000E+00  0.0000E+00  0.0000E+00  0.0000E+00  0.0000E+00  0.0000E+00  0.0000E+00  0.0000E+00  0.0000E+00  0.0000E+00
     -5.066  0.0000E+00  0.0000E+00  0.0000E+00  0.0000E+00  0.0000E+00  0.0000E+00  0.0000E+00  0.0000E+00  0.0000E+00  0.0000E+00  0.0000E+00  0.0000E+00  0.0000E+00  0.0000E+00  0.0000E+00  0.0000E+00  0.0000E+00  0.0000E+00
     -4.985  0.0000E+00  0.0000E+00  0.0000E+00  0.0000E+00  0.0000E+00  0.0000E+00  0.0000E+00  0.0000E+00  0.0000E+00  0.0000E+00  0.0000E+00  0.0000E+00  0.0000E+00  0.0000E+00  0.0000E+00  0.0000E+00  0.0000E+00  0.0000E+00
     -4.904  0.0000E+00  0.0000E+00  0.0000E+00  0.0000E+00  0.0000E+00  0.0000E+00  0.0000E+00  0.0000E+00  0.0000E+00  0.0000E+00  0.0000E+00  0.0000E+00  0.0000E+00  0.0000E+00  0.0000E+00  0.0000E+00  0.0000E+00  0.0000E+00
     -4.822  0.0000E+00  0.0000E+00  0.0000E+00  0.0000E+00  0.0000E+00  0.0000E+00  0.0000E+00  0.0000E+00  0.0000E+00  0.0000E+00  0.0000E+00  0.0000E+00  0.0000E+00  0.0000E+00  0.0000E+00  0.0000E+00  0.0000E+00  0.0000E+00
     -4.741  0.0000E+00  0.0000E+00  0.0000E+00  0.0000E+00  0.0000E+00  0.0000E+00  0.0000E+00  0.0000E+00  0.0000E+00  0.0000E+00  0.0000E+00  0.0000E+00  0.0000E+00  0.0000E+00  0.0000E+00  0.0000E+00  0.0000E+00  0.0000E+00
     -4.660  0.0000E+00  0.0000E+00  0.0000E+00  0.0000E+00  0.0000E+00  0.0000E+00  0.0000E+00  0.0000E+00  0.0000E+00  0.0000E+00  0.0000E+00  0.0000E+00  0.0000E+00  0.0000E+00  0.0000E+00  0.0000E+00  0.0000E+00  0.0000E+00
     -4.579  0.0000E+00  0.0000E+00  0.0000E+00  0.0000E+00  0.0000E+00  0.0000E+00  0.0000E+00  0.0000E+00  0.0000E+00  0.0000E+00  0.0000E+00  0.0000E+00  0.0000E+00  0.0000E+00  0.0000E+00  0.0000E+00  0.0000E+00  0.0000E+00
     -4.498  0.8547E-07  0.9296E-07  0.3782E-22  0.5504E-22  0.3387E-25  0.6132E-25  0.3782E-22  0.5504E-22  0.1398E-21  0.3628E-21  0.5349E-24  0.1513E-23  0.1038E-13  0.9687E-14  0.5349E-24  0.1513E-23  0.1398E-21  0.3628E-21
     -4.417  0.5195E-06  0.5651E-06  0.3200E-21  0.3285E-21  0.1277E-08  0.1389E-08  0.3200E-21  0.3285E-21  0.9082E-21  0.4561E-20  0.4498E-23  0.1155E-21  0.1376E-11  0.1520E-11  0.4498E-23  0.1155E-21  0.9082E-21  0.4561E-20
     -4.336  0.3311E-05  0.3601E-05  0.5386E-08  0.5859E-08  0.5177E-08  0.5630E-08  0.5386E-08  0.5859E-08  0.9642E-11  0.1053E-10  0.1230E-21  0.8441E-21  0.1336E-10  0.1445E-10  0.1230E-21  0.8441E-21  0.9642E-11  0.1053E-10
     -4.255  0.1751E-04  0.1903E-04  0.3282E-07  0.3570E-07  0.3914E-07  0.4256E-07  0.3282E-07  0.3570E-07  0.5882E-10  0.6423E-10  0.4155E-10  0.4513E-10  0.5974E-10  0.6472E-10  0.4155E-10  0.4513E-10  0.5882E-10  0.6423E-10
     -4.174  0.8406E-04  0.9111E-04  0.1544E-06  0.1679E-06  0.1886E-06  0.2049E-06  0.1544E-06  0.1679E-06  0.2767E-09  0.3021E-09  0.1684E-09  0.1829E-09  0.3266E-09  0.3539E-09  0.1684E-09  0.1829E-09  0.2767E-09  0.3021E-09
     -4.093  0.3682E-03  0.3950E-03  0.7778E-06  0.8445E-06  0.9076E-06  0.9825E-06  0.7778E-06  0.8445E-06  0.1425E-08  0.1553E-08  0.8477E-09  0.9203E-09  0.1595E-08  0.1722E-08  0.8477E-09  0.9203E-09  0.1425E-08  0.1553E-08
     -4.012  0.1230E-02  0.1298E-02  0.3667E-05  0.3958E-05  0.3869E-05  0.4135E-05  0.3667E-05  0.3958E-05  0.6761E-08  0.7326E-08  0.4449E-08  0.4821E-08  0.7003E-08  0.7475E-08  0.4449E-08  0.4821E-08  0.6761E-08  0.7326E-08
     -3.931  0.3045E-02  0.3166E-02  0.1365E-04  0.1444E-04  0.1158E-04  0.1215E-04  0.1365E-04  0.1444E-04  0.2547E-07  0.2708E-07  0.2017E-07  0.2168E-07  0.2129E-07  0.2212E-07  0.2017E-07  0.2168E-07  0.2547E-07  0.2708E-07
     -3.850  0.5322E-02  0.5414E-02  0.3050E-04  0.3128E-04  0.2705E-04  0.2811E-04  0.3050E-04  0.3128E-04  0.5982E-07  0.6188E-07  0.6832E-07  0.7150E-07  0.4232E-07  0.4358E-07  0.6832E-07  0.7150E-07  0.5982E-07  0.6188E-07
     -3.769  0.5880E-02  0.5838E-02  0.3870E-04  0.3879E-04  0.4604E-04  0.4678E-04  0.3870E-04  0.3879E-04  0.9416E-07  0.9662E-07  0.1178E-06  0.1189E-06  0.9963E-07  0.1054E-06  0.1178E-06  0.1189E-06  0.9416E-07  0.9662E-07
     -3.688  0.5262E-02  0.5301E-02  0.4927E-04  0.5092E-04  0.6350E-04  0.6502E-04  0.4927E-04  0.5092E-04  0.1932E-06  0.2037E-06  0.1688E-06  0.1753E-06  0.2689E-06  0.2819E-06  0.1688E-06  0.1753E-06  0.1932E-06  0.2037E-06
     -3.607  0.8025E-02  0.8251E-02  0.1070E-03  0.1110E-03  0.1150E-03  0.1186E-03  0.1070E-03  0.1110E-03  0.5028E-06  0.5244E-06  0.4361E-06  0.4554E-06  0.5653E-06  0.5828E-06  0.4361E-06  0.4554E-06  0.5028E-06  0.5244E-06
     -3.526  0.1125E-01  0.1129E-01  0.1770E-03  0.1794E-03  0.1570E-03  0.1563E-03  0.1770E-03  0.1794E-03  0.9155E-06  0.9345E-06  0.7528E-06  0.7575E-06  0.7993E-06  0.8024E-06  0.7528E-06  0.7575E-06  0.9155E-06  0.9345E-06
     -3.445  0.1006E-01  0.9956E-02  0.1962E-03  0.1962E-03  0.1222E-03  0.1211E-03  0.1962E-03  0.1962E-03  0.1163E-05  0.1170E-05  0.8048E-06  0.8100E-06  0.7944E-06  0.7906E-06  0.8048E-06  0.8100E-06  0.1163E-05  0.1170E-05
     -3.364  0.8762E-02  0.8733E-02  0.1864E-03  0.1854E-03  0.1533E-03  0.1578E-03  0.1864E-03  0.1854E-03  0.1168E-05  0.1161E-05  0.1178E-05  0.1207E-05  0.9124E-06  0.9271E-06  0.1178E-05  0.1207E-05  0.1168E-05  0.1161E-05
     -3.283  0.8728E-02  0.8753E-02  0.1701E-03  0.1700E-03  0.2669E-03  0.2731E-03  0.1701E-03  0.1700E-03  0.1059E-05  0.1061E-05  0.1881E-05  0.1913E-05  0.1461E-05  0.1509E-05  0.1881E-05  0.1913E-05  0.1059E-05  0.1061E-05
     -3.202  0.1004E-01  0.1017E-01  0.2031E-03  0.2075E-03  0.3899E-03  0.3959E-03  0.2031E-03  0.2075E-03  0.1482E-05  0.1534E-05  0.2589E-05  0.2622E-05  0.2713E-05  0.2804E-05  0.2589E-05  0.2622E-05  0.1482E-05  0.1534E-05
     -3.121  0.1224E-01  0.1230E-01  0.3268E-03  0.3348E-03  0.4070E-03  0.4003E-03  0.3268E-03  0.3348E-03  0.3072E-05  0.3186E-05  0.2860E-05  0.2833E-05  0.3941E-05  0.3975E-05  0.2860E-05  0.2833E-05  0.3072E-05  0.3186E-05
     -3.040  0.1289E-01  0.1293E-01  0.4799E-03  0.4864E-03  0.2567E-03  0.2520E-03  0.4799E-03  0.4864E-03  0.5310E-05  0.5404E-05  0.2530E-05  0.2540E-05  0.4173E-05  0.4174E-05  0.2530E-05  0.2540E-05  0.5310E-05  0.5404E-05
     -2.959  0.1278E-01  0.1272E-01  0.5114E-03  0.5074E-03  0.2807E-03  0.2874E-03  0.5114E-03  0.5074E-03  0.5785E-05  0.5733E-05  0.3548E-05  0.3624E-05  0.4177E-05  0.4170E-05  0.3548E-05  0.3624E-05  0.5785E-05  0.5733E-05
     -2.878  0.1193E-01  0.1198E-01  0.4498E-03  0.4521E-03  0.4398E-03  0.4483E-03  0.4498E-03  0.4521E-03  0.5050E-05  0.5090E-05  0.5520E-05  0.5637E-05  0.4413E-05  0.4460E-05  0.5520E-05  0.5637E-05  0.5050E-05  0.5090E-05
     -2.797  0.1551E-01  0.1579E-01  0.6368E-03  0.6508E-03  0.6295E-03  0.6408E-03  0.6368E-03  0.6508E-03  0.7715E-05  0.7907E-05  0.8810E-05  0.8987E-05  0.6178E-05  0.6316E-05  0.8810E-05  0.8987E-05  0.7715E-05  0.7907E-05
     -2.716  0.1733E-01  0.1713E-01  0.7282E-03  0.7182E-03  0.7494E-03  0.7473E-03  0.7282E-03  0.7182E-03  0.9149E-05  0.9032E-05  0.1002E-04  0.9866E-05  0.8660E-05  0.8769E-05  0.1002E-04  0.9866E-05  0.9149E-05  0.9032E-05
     -2.635  0.1134E-01  0.1105E-01  0.4148E-03  0.3997E-03  0.6827E-03  0.6798E-03  0.4148E-03  0.3997E-03  0.5299E-05  0.5112E-05  0.6303E-05  0.6138E-05  0.1059E-04  0.1068E-04  0.6303E-05  0.6138E-05  0.5299E-05  0.5112E-05
     -2.554  0.8075E-02  0.8036E-02  0.2993E-03  0.3036E-03  0.5835E-03  0.5755E-03  0.2993E-03  0.3036E-03  0.4232E-05  0.4331E-05  0.5441E-05  0.5509E-05  0.9533E-05  0.9367E-05  0.5441E-05  0.5509E-05  0.4232E-05  0.4331E-05
     -2.473  0.9606E-02  0.9819E-02  0.5050E-03  0.5212E-03  0.5399E-03  0.5481E-03  0.5050E-03  0.5212E-03  0.8013E-05  0.8298E-05  0.8931E-05  0.9216E-05  0.7474E-05  0.7553E-05  0.8931E-05  0.9216E-05  0.8013E-05  0.8298E-05
     -2.392  0.1566E-01  0.1604E-01  0.8865E-03  0.9091E-03  0.9015E-03  0.9260E-03  0.8865E-03  0.9091E-03  0.1466E-04  0.1508E-04  0.1655E-04  0.1695E-04  0.1266E-04  0.1310E-04  0.1655E-04  0.1695E-04  0.1466E-04  0.1508E-04
     -2.311  0.2027E-01  0.2031E-01  0.1223E-02  0.1232E-02  0.1133E-02  0.1127E-02  0.1223E-02  0.1232E-02  0.2183E-04  0.2213E-04  0.2001E-04  0.1985E-04  0.2018E-04  0.2046E-04  0.2001E-04  0.1985E-04  0.2183E-04  0.2213E-04
     -2.230  0.1932E-01  0.1925E-01  0.1311E-02  0.1312E-02  0.9434E-03  0.9359E-03  0.1311E-02  0.1312E-02  0.2570E-04  0.2580E-04  0.1703E-04  0.1695E-04  0.2273E-04  0.2274E-04  0.1703E-04  0.1695E-04  0.2570E-04  0.2580E-04
     -2.149  0.1712E-01  0.1695E-01  0.1235E-02  0.1225E-02  0.8364E-03  0.8320E-03  0.1235E-02  0.1225E-02  0.2485E-04  0.2465E-04  0.1784E-04  0.1791E-04  0.1901E-04  0.1868E-04  0.1784E-04  0.1791E-04  0.2485E-04  0.2465E-04
     -2.068  0.1399E-01  0.1386E-01  0.1023E-02  0.1014E-02  0.8005E-03  0.8013E-03  0.1023E-02  0.1014E-02  0.2068E-04  0.2052E-04  0.1873E-04  0.1866E-04  0.1503E-04  0.1509E-04  0.1873E-04  0.1866E-04  0.2068E-04  0.2052E-04
     -1.987  0.1333E-01  0.1339E-01  0.9734E-03  0.9775E-03  0.9405E-03  0.9557E-03  0.9734E-03  0.9775E-03  0.2081E-04  0.2097E-04  0.1859E-04  0.1863E-04  0.2182E-04  0.2251E-04  0.1859E-04  0.1863E-04  0.2081E-04  0.2097E-04
     -1.906  0.1541E-01  0.1550E-01  0.1068E-02  0.1070E-02  0.1368E-02  0.1388E-02  0.1068E-02  0.1070E-02  0.2343E-04  0.2348E-04  0.2266E-04  0.2294E-04  0.3520E-04  0.3570E-04  0.2266E-04  0.2294E-04  0.2343E-04  0.2348E-04
     -1.825  0.1621E-01  0.1619E-01  0.1130E-02  0.1132E-02  0.1574E-02  0.1571E-02  0.1130E-02  0.1132E-02  0.2439E-04  0.2441E-04  0.3030E-04  0.3061E-04  0.3484E-04  0.3446E-04  0.3030E-04  0.3061E-04  0.2439E-04  0.2441E-04
     -1.744  0.1432E-01  0.1420E-01  0.1057E-02  0.1049E-02  0.1412E-02  0.1405E-02  0.1057E-02  0.1049E-02  0.2275E-04  0.2259E-04  0.3286E-04  0.3284E-04  0.2603E-04  0.2581E-04  0.3286E-04  0.3284E-04  0.2275E-04  0.2259E-04
     -1.662  0.1432E-01  0.1449E-01  0.1072E-02  0.1088E-02  0.1591E-02  0.1615E-02  0.1072E-02  0.1088E-02  0.2345E-04  0.2385E-04  0.3863E-04  0.3924E-04  0.2866E-04  0.2918E-04  0.3863E-04  0.3924E-04  0.2345E-04  0.2385E-04
     -1.581  0.1915E-01  0.1939E-01  0.1581E-02  0.1611E-02  0.2044E-02  0.2056E-02  0.1581E-02  0.1611E-02  0.3720E-04  0.3809E-04  0.5415E-04  0.5466E-04  0.3795E-04  0.3846E-04  0.5415E-04  0.5466E-04  0.3720E-04  0.3809E-04
     -1.500  0.1973E-01  0.1953E-01  0.1839E-02  0.1834E-02  0.1816E-02  0.1774E-02  0.1839E-02  0.1834E-02  0.4852E-04  0.4879E-04  0.4846E-04  0.4715E-04  0.4526E-04  0.4546E-04  0.4846E-04  0.4715E-04  0.4852E-04  0.4879E-04
     -1.419  0.1455E-01  0.1428E-01  0.1645E-02  0.1631E-02  0.8875E-03  0.8456E-03  0.1645E-02  0.1631E-02  0.5035E-04  0.5022E-04  0.2355E-04  0.2253E-04  0.4121E-04  0.4070E-04  0.2355E-04  0.2253E-04  0.5035E-04  0.5022E-04
     -1.338  0.1019E-01  0.1007E-01  0.1312E-02  0.1301E-02  0.4468E-03  0.4457E-03  0.1312E-02  0.1301E-02  0.4296E-04  0.4266E-04  0.1436E-04  0.1444E-04  0.3072E-04  0.3044E-04  0.1436E-04  0.1444E-04  0.4296E-04  0.4266E-04
     -1.257  0.1309E-01  0.1359E-01  0.1688E-02  0.1748E-02  0.8766E-03  0.9288E-03  0.1688E-02  0.1748E-02  0.5531E-04  0.5722E-04  0.3026E-04  0.3199E-04  0.4073E-04  0.4233E-04  0.3026E-04  0.3199E-04  0.5531E-04  0.5722E-04
     -1.176  0.2517E-01  0.2572E-01  0.3035E-02  0.3087E-02  0.2310E-02  0.2396E-02  0.3035E-02  0.3087E-02  0.9635E-04  0.9779E-04  0.7492E-04  0.7717E-04  0.8169E-04  0.8400E-04  0.7492E-04  0.7717E-04  0.9635E-04  0.9779E-04
     -1.095  0.2774E-01  0.2744E-01  0.2965E-02  0.2911E-02  0.3457E-02  0.3473E-02  0.2965E-02  0.2911E-02  0.8911E-04  0.8717E-04  0.9794E-04  0.9763E-04  0.1060E-03  0.1061E-03  0.9794E-04  0.9763E-04  0.8911E-04  0.8717E-04