   2   2   1   0
  0.2427363E+02  0.3253407E-09  0.3253407E-09  0.5296114E-09  0.5000000E-15
  1.000000000000000E-004
  CAR 
 unknown system                          
     15.58495034     -5.29534919  301      2.41370916      1.00000000
     -5.295  0.0000E+00  0.0000E+00  0.0000E+00  0.0000E+00
     -5.226  0.0000E+00  0.0000E+00  0.0000E+00  0.0000E+00
     -5.156  0.0000E+00  0.0000E+00  0.0000E+00  0.0000E+00
     -5.087  0.0000E+00  0.0000E+00  0.0000E+00  0.0000E+00
     -5.017  0.0000E+00  0.0000E+00  0.0000E+00  0.0000E+00
     -4.947  0.0000E+00  0.0000E+00  0.0000E+00  0.0000E+00
     -4.878  0.0000E+00  0.0000E+00  0.0000E+00  0.0000E+00
     -4.808  0.9045E-06  0.9188E-06  0.6296E-07  0.6395E-07
     -4.739  0.4661E-05  0.4735E-05  0.3874E-06  0.3935E-06
     -4.669  0.2608E-04  0.2649E-04  0.2203E-05  0.2237E-05
     -4.599  0.1151E-03  0.1169E-03  0.1022E-04  0.1038E-04
     -4.530  0.4408E-03  0.4476E-03  0.4089E-04  0.4153E-04
     -4.460  0.1704E-02  0.1729E-02  0.1595E-03  0.1619E-03
     -4.391  0.5979E-02  0.6058E-02  0.5756E-03  0.5835E-03
     -4.321  0.1702E-01  0.1720E-01  0.1760E-02  0.1780E-02
     -4.251  0.3748E-01  0.3775E-01  0.4369E-02  0.4408E-02
     -4.182  0.5953E-01  0.5972E-01  0.8512E-02  0.8564E-02
     -4.112  0.6600E-01  0.6599E-01  0.1311E-01  0.1316E-01
     -4.043  0.7106E-01  0.7127E-01  0.1805E-01  0.1812E-01
     -3.973  0.1030E+00  0.1035E+00  0.2522E-01  0.2532E-01
     -3.903  0.1253E+00  0.1253E+00  0.3394E-01  0.3404E-01
     -3.834  0.1152E+00  0.1150E+00  0.4196E-01  0.4205E-01
     -3.764  0.1072E+00  0.1072E+00  0.4943E-01  0.4952E-01
     -3.695  0.1128E+00  0.1130E+00  0.5729E-01  0.5738E-01
     -3.625  0.1341E+00  0.1344E+00  0.6662E-01  0.6673E-01
     -3.555  0.1526E+00  0.1528E+00  0.7725E-01  0.7738E-01
     -3.486  0.1598E+00  0.1598E+00  0.8839E-01  0.8851E-01
     -3.416  0.1564E+00  0.1564E+00  0.9928E-01  0.9940E-01
     -3.347  0.1717E+00  0.1721E+00  0.1112E+00  0.1114E+00
     -3.277  0.2076E+00  0.2078E+00  0.1257E+00  0.1258E+00
     -3.207  0.1779E+00  0.1772E+00  0.1381E+00  0.1382E+00
     -3.138  0.1266E+00  0.1262E+00  0.1469E+00  0.1470E+00
     -3.068  0.1239E+00  0.1242E+00  0.1555E+00  0.1556E+00
     -2.999  0.1771E+00  0.1780E+00  0.1679E+00  0.1680E+00
     -2.929  0.2454E+00  0.2459E+00  0.1849E+00  0.1852E+00
     -2.859  0.2583E+00  0.2582E+00  0.2029E+00  0.2031E+00
     -2.790  0.2387E+00  0.2384E+00  0.2196E+00  0.2197E+00
     -2.720  0.2049E+00  0.2045E+00  0.2338E+00  0.2340E+00
     -2.651  0.1891E+00  0.1892E+00  0.2470E+00  0.2471E+00
     -2.581  0.2076E+00  0.2079E+00  0.2614E+00  0.2616E+00
     -2.511  0.2218E+00  0.2219E+00  0.2769E+00  0.2771E+00
     -2.442  0.2110E+00  0.2108E+00  0.2916E+00  0.2918E+00
     -2.372  0.2117E+00  0.2120E+00  0.3063E+00  0.3065E+00
     -2.303  0.2605E+00  0.2611E+00  0.3245E+00  0.3247E+00
     -2.233  0.2756E+00  0.2750E+00  0.3437E+00  0.3439E+00
     -2.163  0.2217E+00  0.2210E+00  0.3591E+00  0.3593E+00
     -2.094  0.1737E+00  0.1736E+00  0.3712E+00  0.3714E+00
     -2.024  0.2175E+00  0.2188E+00  0.3864E+00  0.3866E+00
     -1.955  0.3561E+00  0.3575E+00  0.4112E+00  0.4115E+00
     -1.885  0.3937E+00  0.3931E+00  0.4386E+00  0.4389E+00
     -1.815  0.3076E+00  0.3066E+00  0.4600E+00  0.4602E+00
     -1.746  0.2441E+00  0.2438E+00  0.4770E+00  0.4772E+00
     -1.676  0.2397E+00  0.2398E+00  0.4937E+00  0.4939E+00
     -1.606  0.2379E+00  0.2378E+00  0.5103E+00  0.5105E+00
     -1.537  0.2265E+00  0.2265E+00  0.5261E+00  0.5263E+00
     -1.467  0.2258E+00  0.2258E+00  0.5418E+00  0.5420E+00
     -1.398  0.2340E+00  0.2342E+00  0.5581E+00  0.5583E+00
     -1.328  0.2735E+00  0.2742E+00  0.5772E+00  0.5774E+00
     -1.258  0.3546E+00  0.3556E+00  0.6018E+00  0.6022E+00
     -1.189  0.4034E+00  0.4033E+00  0.6299E+00  0.6302E+00
     -1.119  0.3445E+00  0.3436E+00  0.6539E+00  0.6542E+00
     -1.050  0.3038E+00  0.3041E+00  0.6751E+00  0.6753E+00
     -0.980  0.3648E+00  0.3655E+00  0.7005E+00  0.7008E+00
     -0.910  0.3647E+00  0.3640E+00  0.7259E+00  0.7261E+00
     -0.841  0.2936E+00  0.2929E+00  0.7463E+00  0.7465E+00
     -0.771  0.2604E+00  0.2603E+00  0.7645E+00  0.7647E+00
     -0.702  0.2975E+00  0.2984E+00  0.7852E+00  0.7855E+00
     -0.632  0.3676E+00  0.3680E+00  0.8108E+00  0.8111E+00
     -0.562  0.3384E+00  0.3376E+00  0.8344E+00  0.8346E+00
     -0.493  0.2555E+00  0.2548E+00  0.8522E+00  0.8524E+00
     -0.423  0.2542E+00  0.2550E+00  0.8699E+00  0.8701E+00
     -0.354  0.3528E+00  0.3538E+00  0.8945E+00  0.8948E+00
     -0.284  0.3965E+00  0.3966E+00  0.9221E+00  0.9224E+00
     -0.214  0.3884E+00  0.3882E+00  0.9491E+00  0.9494E+00
     -0.145  0.3500E+00  0.3493E+00  0.9735E+00  0.9738E+00
     -0.075  0.3141E+00  0.3141E+00  0.9954E+00  0.9956E+00
     -0.006  0.3510E+00  0.3516E+00  0.1020E+01  0.1020E+01
      0.064  0.3959E+00  0.3962E+00  0.1047E+01  0.1048E+01
      0.134  0.4176E+00  0.4178E+00  0.1076E+01  0.1077E+01
      0.203  0.4466E+00  0.4471E+00  0.1108E+01  0.1108E+01
      0.273  0.4863E+00  0.4865E+00  0.1141E+01  0.1142E+01
      0.342  0.4575E+00  0.4566E+00  0.1173E+01  0.1174E+01
      0.412  0.3526E+00  0.3515E+00  0.1198E+01  0.1198E+01
      0.482  0.2907E+00  0.2905E+00  0.1218E+01  0.1218E+01
      0.551  0.3148E+00  0.3153E+00  0.1240E+01  0.1240E+01
      0.621  0.3652E+00  0.3655E+00  0.1266E+01  0.1266E+01
      0.690  0.3585E+00  0.3580E+00  0.1290E+01  0.1291E+01
      0.760  0.3074E+00  0.3066E+00  0.1312E+01  0.1312E+01
      0.830  0.2786E+00  0.2787E+00  0.1331E+01  0.1332E+01
      0.899  0.3553E+00  0.3568E+00  0.1356E+01  0.1356E+01
      0.969  0.4690E+00  0.4699E+00  0.1389E+01  0.1389E+01
      1.038  0.5128E+00  0.5130E+00  0.1424E+01  0.1425E+01
      1.108  0.5338E+00  0.5339E+00  0.1462E+01  0.1462E+01
      1.178  0.5148E+00  0.5147E+00  0.1497E+01  0.1498E+01
      1.247  0.5167E+00  0.5172E+00  0.1533E+01  0.1534E+01
      1.317  0.5334E+00  0.5334E+00  0.1571E+01  0.1571E+01
      1.386  0.4887E+00  0.4881E+00  0.1605E+01  0.1605E+01
      1.456  0.4668E+00  0.4666E+00  0.1637E+01  0.1637E+01
      1.526  0.4513E+00  0.4507E+00  0.1669E+01  0.1669E+01
      1.595  0.3501E+00  0.3484E+00  0.1693E+01  0.1693E+01
      1.665  0.2397E+00  0.2390E+00  0.1710E+01  0.1710E+01
      1.734  0.2728E+00  0.2743E+00  0.1729E+01  0.1729E+01
      1.804  0.4241E+00  0.4266E+00  0.1758E+01  0.1759E+01
      1.874  0.5634E+00  0.5642E+00  0.1797E+01  0.1798E+01
      1.943  0.5210E+00  0.5189E+00  0.1834E+01  0.1834E+01
      2.013  0.3853E+00  0.3835E+00  0.1861E+01  0.1861E+01
      2.082  0.3288E+00  0.3283E+00  0.1883E+01  0.1884E+01
      2.152  0.3018E+00  0.3016E+00  0.1904E+01  0.1905E+01
      2.222  0.2634E+00  0.2638E+00  0.1923E+01  0.1923E+01
      2.291  0.2963E+00  0.2975E+00  0.1943E+01  0.1944E+01
      2.361  0.3927E+00  0.3943E+00  0.1971E+01  0.1971E+01
      2.430  0.5731E+00  0.5758E+00  0.2011E+01  0.2011E+01
      2.500  0.7478E+00  0.7486E+00  0.2063E+01  0.2063E+01
      2.570  0.6824E+00  0.6801E+00  0.2110E+01  0.2111E+01
      2.639  0.4971E+00  0.4948E+00  0.2145E+01  0.2145E+01
      2.709  0.4118E+00  0.4112E+00  0.2174E+01  0.2174E+01
      2.778  0.4067E+00  0.4068E+00  0.2202E+01  0.2202E+01
      2.848  0.4000E+00  0.4000E+00  0.2230E+01  0.2230E+01
      2.918  0.4179E+00  0.4183E+00  0.2259E+01  0.2259E+01
      2.987  0.4434E+00  0.4441E+00  0.2290E+01  0.2290E+01
      3.057  0.4402E+00  0.4401E+00  0.2320E+01  0.2321E+01
      3.126  0.4596E+00  0.4593E+00  0.2352E+01  0.2353E+01
      3.196  0.5029E+00  0.5027E+00  0.2388E+01  0.2388E+01
      3.266  0.4776E+00  0.4769E+00  0.2421E+01  0.2421E+01
      3.335  0.4003E+00  0.4001E+00  0.2449E+01  0.2449E+01
      3.405  0.4020E+00  0.4030E+00  0.2477E+01  0.2477E+01
      3.474  0.5163E+00  0.5181E+00  0.2513E+01  0.2513E+01
      3.544  0.6817E+00  0.6826E+00  0.2560E+01  0.2561E+01
      3.614  0.6952E+00  0.6942E+00  0.2608E+01  0.2609E+01
      3.683  0.5774E+00  0.5760E+00  0.2649E+01  0.2649E+01
      3.753  0.4211E+00  0.4195E+00  0.2678E+01  0.2678E+01
      3.822  0.3129E+00  0.3123E+00  0.2700E+01  0.2700E+01
      3.892  0.3152E+00  0.3157E+00  0.2722E+01  0.2722E+01
      3.962  0.4169E+00  0.4183E+00  0.2751E+01  0.2751E+01
      4.031  0.5049E+00  0.5058E+00  0.2786E+01  0.2786E+01
      4.101  0.5949E+00  0.5964E+00  0.2827E+01  0.2828E+01
      4.170  0.7533E+00  0.7542E+00  0.2880E+01  0.2881E+01
      4.240  0.6843E+00  0.6825E+00  0.2928E+01  0.2928E+01
      4.310  0.4925E+00  0.4909E+00  0.2962E+01  0.2962E+01
      4.379  0.4121E+00  0.4117E+00  0.2991E+01  0.2991E+01
      4.449  0.4254E+00  0.4259E+00  0.3020E+01  0.3021E+01
      4.518  0.4877E+00  0.4887E+00  0.3054E+01  0.3055E+01
      4.588  0.5468E+00  0.5468E+00  0.3092E+01  0.3093E+01
      4.658  0.5226E+00  0.5216E+00  0.3129E+01  0.3129E+01
      4.727  0.4408E+00  0.4399E+00  0.3159E+01  0.3160E+01
      4.797  0.4278E+00  0.4282E+00  0.3189E+01  0.3190E+01
      4.866  0.4659E+00  0.4673E+00  0.3222E+01  0.3222E+01
      4.936  0.5831E+00  0.5851E+00  0.3262E+01  0.3263E+01
      5.006  0.7166E+00  0.7174E+00  0.3312E+01  0.3313E+01
      5.075  0.7481E+00  0.7476E+00  0.3364E+01  0.3365E+01
      5.145  0.6865E+00  0.6851E+00  0.3412E+01  0.3413E+01
      5.214  0.5154E+00  0.5133E+00  0.3448E+01  0.3448E+01
      5.284  0.3673E+00  0.3668E+00  0.3474E+01  0.3474E+01
      5.354  0.3572E+00  0.3582E+00  0.3498E+01  0.3499E+01
      5.423  0.4250E+00  0.4256E+00  0.3528E+01  0.3528E+01
      5.493  0.5027E+00  0.5036E+00  0.3563E+01  0.3564E+01
      5.562  0.6406E+00  0.6421E+00  0.3608E+01  0.3608E+01
      5.632  0.7489E+00  0.7498E+00  0.3660E+01  0.3660E+01
      5.702  0.7720E+00  0.7718E+00  0.3714E+01  0.3714E+01
      5.771  0.6746E+00  0.6732E+00  0.3761E+01  0.3761E+01
      5.841  0.5788E+00  0.5781E+00  0.3801E+01  0.3801E+01
      5.910  0.5963E+00  0.5969E+00  0.3842E+01  0.3843E+01
      5.980  0.5918E+00  0.5910E+00  0.3884E+01  0.3884E+01
      6.050  0.4895E+00  0.4882E+00  0.3918E+01  0.3918E+01
      6.119  0.4493E+00  0.4493E+00  0.3949E+01  0.3949E+01
      6.189  0.5019E+00  0.5027E+00  0.3984E+01  0.3984E+01
      6.258  0.5556E+00  0.5564E+00  0.4023E+01  0.4023E+01
      6.328  0.5809E+00  0.5813E+00  0.4063E+01  0.4064E+01
      6.398  0.5699E+00  0.5697E+00  0.4103E+01  0.4103E+01
      6.467  0.5408E+00  0.5407E+00  0.4141E+01  0.4141E+01
      6.537  0.5785E+00  0.5790E+00  0.4181E+01  0.4181E+01
      6.606  0.6648E+00  0.6655E+00  0.4227E+01  0.4228E+01
      6.676  0.6937E+00  0.6930E+00  0.4275E+01  0.4276E+01
      6.746  0.6297E+00  0.6289E+00  0.4319E+01  0.4320E+01
      6.815  0.5774E+00  0.5768E+00  0.4359E+01  0.4360E+01
      6.885  0.5393E+00  0.5392E+00  0.4397E+01  0.4397E+01
      6.954  0.5455E+00  0.5463E+00  0.4435E+01  0.4435E+01
      7.024  0.5896E+00  0.5899E+00  0.4476E+01  0.4477E+01
      7.094  0.5843E+00  0.5836E+00  0.4517E+01  0.4517E+01
      7.163  0.5607E+00  0.5606E+00  0.4556E+01  0.4556E+01
      7.233  0.5496E+00  0.5494E+00  0.4594E+01  0.4595E+01
      7.302  0.4861E+00  0.4849E+00  0.4628E+01  0.4628E+01
      7.372  0.3949E+00  0.3939E+00  0.4656E+01  0.4656E+01
      7.442  0.3820E+00  0.3824E+00  0.4682E+01  0.4682E+01
      7.511  0.4538E+00  0.4556E+00  0.4714E+01  0.4714E+01
      7.581  0.6359E+00  0.6388E+00  0.4758E+01  0.4759E+01
      7.650  0.8500E+00  0.8512E+00  0.4817E+01  0.4818E+01
      7.720  0.8242E+00  0.8227E+00  0.4875E+01  0.4875E+01
      7.790  0.6755E+00  0.6748E+00  0.4922E+01  0.4922E+01
      7.859  0.6123E+00  0.6119E+00  0.4964E+01  0.4965E+01
      7.929  0.5485E+00  0.5473E+00  0.5002E+01  0.5003E+01
      7.998  0.5155E+00  0.5152E+00  0.5038E+01  0.5039E+01
      8.068  0.5913E+00  0.5931E+00  0.5080E+01  0.5080E+01
      8.138  0.7814E+00  0.7840E+00  0.5134E+01  0.5135E+01
      8.207  0.8775E+00  0.8772E+00  0.5195E+01  0.5196E+01
      8.277  0.7449E+00  0.7425E+00  0.5247E+01  0.5248E+01
      8.346  0.5595E+00  0.5574E+00  0.5286E+01  0.5286E+01
      8.416  0.4763E+00  0.4763E+00  0.5319E+01  0.5320E+01
      8.486  0.5173E+00  0.5182E+00  0.5355E+01  0.5356E+01
      8.555  0.5420E+00  0.5420E+00  0.5393E+01  0.5393E+01
      8.625  0.5343E+00  0.5338E+00  0.5430E+01  0.5431E+01
      8.694  0.5504E+00  0.5503E+00  0.5469E+01  0.5469E+01
      8.764  0.6571E+00  0.6583E+00  0.5514E+01  0.5515E+01
      8.834  0.7476E+00  0.7483E+00  0.5566E+01  0.5567E+01
      8.903  0.7682E+00  0.7691E+00  0.5620E+01  0.5620E+01
      8.973  0.8180E+00  0.8186E+00  0.5677E+01  0.5678E+01
      9.042  0.7836E+00  0.7831E+00  0.5731E+01  0.5732E+01
      9.112  0.7101E+00  0.7100E+00  0.5781E+01  0.5781E+01
      9.182  0.7013E+00  0.7016E+00  0.5830E+01  0.5830E+01
      9.251  0.6995E+00  0.6984E+00  0.5878E+01  0.5879E+01
      9.321  0.5765E+00  0.5740E+00  0.5919E+01  0.5919E+01
      9.390  0.4285E+00  0.4275E+00  0.5948E+01  0.5949E+01
      9.460  0.4533E+00  0.4544E+00  0.5980E+01  0.5980E+01
      9.530  0.5845E+00  0.5858E+00  0.6021E+01  0.6021E+01
      9.599  0.6543E+00  0.6548E+00  0.6066E+01  0.6067E+01
      9.669  0.6706E+00  0.6708E+00  0.6113E+01  0.6114E+01
      9.738  0.6450E+00  0.6448E+00  0.6158E+01  0.6158E+01
      9.808  0.6247E+00  0.6248E+00  0.6201E+01  0.6202E+01
      9.878  0.6385E+00  0.6388E+00  0.6246E+01  0.6246E+01
      9.947  0.7018E+00  0.7021E+00  0.6295E+01  0.6295E+01
     10.017  0.6964E+00  0.6960E+00  0.6343E+01  0.6344E+01
     10.086  0.6466E+00  0.6467E+00  0.6388E+01  0.6389E+01
     10.156  0.6357E+00  0.6354E+00  0.6433E+01  0.6433E+01
     10.226  0.6581E+00  0.6580E+00  0.6478E+01  0.6479E+01
     10.295  0.6970E+00  0.6970E+00  0.6527E+01  0.6528E+01
     10.365  0.6916E+00  0.6916E+00  0.6575E+01  0.6576E+01
     10.434  0.7225E+00  0.7238E+00  0.6626E+01  0.6626E+01
     10.504  0.8619E+00  0.8633E+00  0.6686E+01  0.6686E+01
     10.574  0.9041E+00  0.9038E+00  0.6748E+01  0.6749E+01
     10.643  0.8633E+00  0.8632E+00  0.6809E+01  0.6809E+01
     10.713  0.7516E+00  0.7498E+00  0.6861E+01  0.6862E+01
     10.782  0.5214E+00  0.5184E+00  0.6897E+01  0.6898E+01
     10.852  0.3554E+00  0.3543E+00  0.6922E+01  0.6922E+01
     10.922  0.3730E+00  0.3734E+00  0.6948E+01  0.6948E+01
     10.991  0.4451E+00  0.4456E+00  0.6979E+01  0.6979E+01
     11.061  0.4999E+00  0.5006E+00  0.7014E+01  0.7014E+01
     11.130  0.5817E+00  0.5828E+00  0.7054E+01  0.7055E+01
     11.200  0.6534E+00  0.6540E+00  0.7100E+01  0.7100E+01
     11.270  0.6403E+00  0.6401E+00  0.7145E+01  0.7145E+01
     11.339  0.6023E+00  0.6023E+00  0.7186E+01  0.7187E+01
     11.409  0.6029E+00  0.6026E+00  0.7228E+01  0.7229E+01
     11.478  0.5434E+00  0.5427E+00  0.7266E+01  0.7267E+01
     11.548  0.5149E+00  0.5155E+00  0.7302E+01  0.7303E+01
     11.618  0.5672E+00  0.5677E+00  0.7342E+01  0.7342E+01
     11.687  0.5781E+00  0.5778E+00  0.7382E+01  0.7382E+01
     11.757  0.5798E+00  0.5798E+00  0.7422E+01  0.7423E+01
     11.826  0.5905E+00  0.5905E+00  0.7463E+01  0.7464E+01
     11.896  0.5462E+00  0.5453E+00  0.7501E+01  0.7502E+01
     11.966  0.4229E+00  0.4215E+00  0.7531E+01  0.7531E+01
     12.035  0.3049E+00  0.3049E+00  0.7552E+01  0.7553E+01
     12.105  0.2833E+00  0.2856E+00  0.7572E+01  0.7572E+01
     12.175  0.3328E+00  0.3346E+00  0.7595E+01  0.7596E+01
     12.244  0.4014E+00  0.4000E+00  0.7623E+01  0.7624E+01
     12.314  0.4402E+00  0.4386E+00  0.7654E+01  0.7654E+01
     12.383  0.3617E+00  0.3596E+00  0.7679E+01  0.7679E+01
     12.453  0.2468E+00  0.2456E+00  0.7696E+01  0.7696E+01
     12.523  0.2272E+00  0.2275E+00  0.7712E+01  0.7712E+01
     12.592  0.2795E+00  0.2804E+00  0.7731E+01  0.7732E+01
     12.662  0.3245E+00  0.3248E+00  0.7754E+01  0.7754E+01
     12.731  0.3178E+00  0.3177E+00  0.7776E+01  0.7777E+01
     12.801  0.2974E+00  0.2981E+00  0.7797E+01  0.7797E+01
     12.871  0.2854E+00  0.2880E+00  0.7817E+01  0.7817E+01
     12.940  0.2523E+00  0.2540E+00  0.7834E+01  0.7835E+01
     13.010  0.2060E+00  0.2029E+00  0.7849E+01  0.7849E+01
     13.079  0.1992E+00  0.1963E+00  0.7863E+01  0.7863E+01
     13.149  0.1777E+00  0.1764E+00  0.7875E+01  0.7875E+01
     13.219  0.1456E+00  0.1452E+00  0.7885E+01  0.7885E+01
     13.288  0.1346E+00  0.1346E+00  0.7895E+01  0.7895E+01
     13.358  0.1352E+00  0.1358E+00  0.7904E+01  0.7904E+01
     13.427  0.1513E+00  0.1523E+00  0.7914E+01  0.7915E+01
     13.497  0.1473E+00  0.1475E+00  0.7925E+01  0.7925E+01
     13.567  0.1250E+00  0.1242E+00  0.7933E+01  0.7934E+01
     13.636  0.1190E+00  0.1184E+00  0.7942E+01  0.7942E+01
     13.706  0.1095E+00  0.1091E+00  0.7949E+01  0.7949E+01
     13.775  0.9166E-01  0.9132E-01  0.7956E+01  0.7956E+01
     13.845  0.6994E-01  0.6961E-01  0.7961E+01  0.7961E+01
     13.915  0.4937E-01  0.4898E-01  0.7964E+01  0.7964E+01
     13.984  0.4450E-01  0.4417E-01  0.7967E+01  0.7967E+01
     14.054  0.4855E-01  0.4758E-01  0.7971E+01  0.7971E+01
     14.123  0.4516E-01  0.4212E-01  0.7974E+01  0.7973E+01
     14.193  0.5875E-01  0.5236E-01  0.7978E+01  0.7977E+01
     14.263  0.8191E-01  0.7924E-01  0.7984E+01  0.7983E+01
     14.332  0.8723E-01  0.9366E-01  0.7990E+01  0.7989E+01
     14.402  0.6019E-01  0.6479E-01  0.7994E+01  0.7994E+01
     14.471  0.2551E-01  0.2693E-01  0.7996E+01  0.7996E+01
     14.541  0.1233E-01  0.1278E-01  0.7996E+01  0.7996E+01
     14.611  0.1571E-01  0.1596E-01  0.7997E+01  0.7998E+01
     14.680  0.1922E-01  0.1917E-01  0.7999E+01  0.7999E+01
     14.750  0.1128E-01  0.1112E-01  0.8000E+01  0.8000E+01
     14.819  0.3861E-02  0.3784E-02  0.8000E+01  0.8000E+01
     14.889  0.1052E-02  0.1028E-02  0.8000E+01  0.8000E+01
     14.959  0.2676E-03  0.2616E-03  0.8000E+01  0.8000E+01
     15.028  0.6692E-04  0.6540E-04  0.8000E+01  0.8000E+01
     15.098  0.0000E+00  0.0000E+00  0.8000E+01  0.8000E+01
     15.167  0.0000E+00  0.0000E+00  0.8000E+01  0.8000E+01
     15.237  0.0000E+00  0.0000E+00  0.8000E+01  0.8000E+01
     15.307  0.0000E+00  0.0000E+00  0.8000E+01  0.8000E+01
     15.376  0.0000E+00  0.0000E+00  0.8000E+01  0.8000E+01
     15.446  0.0000E+00  0.0000E+00  0.8000E+01  0.8000E+01
     15.515  0.0000E+00  0.0000E+00  0.8000E+01  0.8000E+01
     15.585  0.0000E+00  0.0000E+00  0.8000E+01  0.8000E+01
     15.58495034     -5.29534919  301      2.41370916      1.00000000
     -5.295  0.0000E+00  0.0000E+00  0.0000E+00  0.0000E+00  0.0000E+00  0.0000E+00  0.0000E+00  0.0000E+00  0.0000E+00  0.0000E+00  0.0000E+00  0.0000E+00  0.0000E+00  0.0000E+00  0.0000E+00  0.0000E+00  0.0000E+00  0.0000E+00
     -5.226  0.0000E+00  0.0000E+00  0.0000E+00  0.0000E+00  0.0000E+00  0.0000E+00  0.0000E+00  0.0000E+00  0.0000E+00  0.0000E+00  0.0000E+00  0.0000E+00  0.0000E+00  0.0000E+00  0.0000E+00  0.0000E+00  0.0000E+00  0.0000E+00
     -5.156  0.0000E+00  0.0000E+00  0.0000E+00  0.0000E+00  0.0000E+00  0.0000E+00  0.0000E+00  0.0000E+00  0.0000E+00  0.0000E+00  0.0000E+00  0.0000E+00  0.0000E+00  0.0000E+00  0.0000E+00  0.0000E+00  0.0000E+00  0.0000E+00
     -5.087  0.0000E+00  0.0000E+00  0.0000E+00  0.0000E+00  0.0000E+00  0.0000E+00  0.0000E+00  0.0000E+00  0.0000E+00  0.0000E+00  0.0000E+00  0.0000E+00  0.0000E+00  0.0000E+00  0.0000E+00  0.0000E+00  0.0000E+00  0.0000E+00
     -5.017  0.0000E+00  0.0000E+00  0.0000E+00  0.0000E+00  0.0000E+00  0.0000E+00  0.0000E+00  0.0000E+00  0.0000E+00  0.0000E+00  0.0000E+00  0.0000E+00  0.0000E+00  0.0000E+00  0.0000E+00  0.0000E+00  0.0000E+00  0.0000E+00
     -4.947  0.0000E+00  0.0000E+00  0.0000E+00  0.0000E+00  0.0000E+00  0.0000E+00  0.0000E+00  0.0000E+00  0.0000E+00  0.0000E+00  0.0000E+00  0.0000E+00  0.0000E+00  0.0000E+00  0.0000E+00  0.0000E+00  0.0000E+00  0.0000E+00
     -4.878  0.0000E+00  0.0000E+00  0.0000E+00  0.0000E+00  0.0000E+00  0.0000E+00  0.0000E+00  0.0000E+00  0.0000E+00  0.0000E+00  0.0000E+00  0.0000E+00  0.0000E+00  0.0000E+00  0.0000E+00  0.0000E+00  0.0000E+00  0.0000E+00
     -4.808  0.7725E-07  0.7847E-07  0.8324E-22  0.7717E-22  0.2573E-23  0.1239E-23  0.8324E-22  0.7717E-22  0.1690E-21  0.1627E-21  0.2833E-23  0.1204E-22  0.1135E-13  0.9654E-14  0.2833E-23  0.1204E-22  0.1690E-21  0.1627E-21
     -4.739  0.3971E-06  0.4034E-06  0.4107E-21  0.3947E-21  0.9772E-09  0.9923E-09  0.4107E-21  0.3947E-21  0.8693E-21  0.9042E-21  0.1156E-22  0.3925E-22  0.8500E-12  0.8867E-12  0.1156E-22  0.3925E-22  0.8693E-21  0.9042E-21
     -4.669  0.2217E-05  0.2252E-05  0.3958E-08  0.4020E-08  0.2953E-08  0.2999E-08  0.3958E-08  0.4020E-08  0.6457E-11  0.6561E-11  0.8007E-22  0.1405E-18  0.7942E-11  0.7991E-11  0.8007E-22  0.1405E-18  0.6457E-11  0.6561E-11
     -4.599  0.9770E-05  0.9924E-05  0.2039E-07  0.2071E-07  0.2187E-07  0.2221E-07  0.2039E-07  0.2071E-07  0.3329E-10  0.3382E-10  0.2649E-10  0.2689E-10  0.2658E-10  0.2684E-10  0.2649E-10  0.2689E-10  0.3329E-10  0.3382E-10
     -4.530  0.3741E-04  0.3800E-04  0.7346E-07  0.7462E-07  0.8238E-07  0.8365E-07  0.7346E-07  0.7462E-07  0.1199E-09  0.1218E-09  0.8002E-10  0.8124E-10  0.1268E-09  0.1283E-09  0.8002E-10  0.8124E-10  0.1199E-09  0.1218E-09
     -4.460  0.1446E-03  0.1467E-03  0.3020E-06  0.3067E-06  0.3217E-06  0.3266E-06  0.3020E-06  0.3067E-06  0.5173E-09  0.5255E-09  0.3211E-09  0.3259E-09  0.5112E-09  0.5168E-09  0.3211E-09  0.3259E-09  0.5173E-09  0.5255E-09
     -4.391  0.5070E-03  0.5137E-03  0.1201E-05  0.1219E-05  0.1277E-05  0.1295E-05  0.1201E-05  0.1219E-05  0.2086E-08  0.2118E-08  0.1466E-08  0.1488E-08  0.2073E-08  0.2096E-08  0.1466E-08  0.1488E-08  0.2086E-08  0.2118E-08
     -4.321  0.1441E-02  0.1456E-02  0.4345E-05  0.4404E-05  0.4223E-05  0.4274E-05  0.4345E-05  0.4404E-05  0.7630E-08  0.7737E-08  0.5499E-08  0.5578E-08  0.7011E-08  0.7068E-08  0.5499E-08  0.5578E-08  0.7630E-08  0.7737E-08
     -4.251  0.3164E-02  0.3187E-02  0.1261E-04  0.1274E-04  0.1118E-04  0.1128E-04  0.1261E-04  0.1274E-04  0.2284E-07  0.2308E-07  0.1936E-07  0.1960E-07  0.1868E-07  0.1875E-07  0.1936E-07  0.1960E-07  0.2284E-07  0.2308E-07
     -4.182  0.5012E-02  0.5028E-02  0.2435E-04  0.2447E-04  0.2376E-04  0.2392E-04  0.2435E-04  0.2447E-04  0.4855E-07  0.4888E-07  0.5071E-07  0.5110E-07  0.4058E-07  0.4083E-07  0.5071E-07  0.5110E-07  0.4855E-07  0.4888E-07
     -4.112  0.5533E-02  0.5531E-02  0.3280E-04  0.3289E-04  0.3874E-04  0.3890E-04  0.3280E-04  0.3289E-04  0.8651E-07  0.8712E-07  0.8640E-07  0.8676E-07  0.9748E-07  0.9860E-07  0.8640E-07  0.8676E-07  0.8651E-07  0.8712E-07
     -4.043  0.5908E-02  0.5925E-02  0.5080E-04  0.5117E-04  0.5910E-04  0.5941E-04  0.5080E-04  0.5117E-04  0.1893E-06  0.1910E-06  0.1563E-06  0.1575E-06  0.2287E-06  0.2308E-06  0.1563E-06  0.1575E-06  0.1893E-06  0.1910E-06
     -3.973  0.8510E-02  0.8545E-02  0.9611E-04  0.9670E-04  0.9660E-04  0.9700E-04  0.9611E-04  0.9670E-04  0.4100E-06  0.4127E-06  0.3337E-06  0.3357E-06  0.4170E-06  0.4188E-06  0.3337E-06  0.3357E-06  0.4100E-06  0.4127E-06
     -3.903  0.1031E-01  0.1031E-01  0.1384E-03  0.1387E-03  0.1131E-03  0.1130E-03  0.1384E-03  0.1387E-03  0.6533E-06  0.6552E-06  0.4917E-06  0.4923E-06  0.5403E-06  0.5396E-06  0.4917E-06  0.4923E-06  0.6533E-06  0.6552E-06
     -3.834  0.9429E-02  0.9412E-02  0.1496E-03  0.1495E-03  0.1078E-03  0.1079E-03  0.1496E-03  0.1495E-03  0.7825E-06  0.7828E-06  0.6107E-06  0.6124E-06  0.5900E-06  0.5889E-06  0.6107E-06  0.6124E-06  0.7825E-06  0.7828E-06
     -3.764  0.8713E-02  0.8711E-02  0.1439E-03  0.1438E-03  0.1537E-03  0.1545E-03  0.1439E-03  0.1438E-03  0.7879E-06  0.7874E-06  0.9262E-06  0.9301E-06  0.7835E-06  0.7874E-06  0.9262E-06  0.9301E-06  0.7879E-06  0.7874E-06
     -3.695  0.9098E-02  0.9110E-02  0.1477E-03  0.1480E-03  0.2385E-03  0.2395E-03  0.1477E-03  0.1480E-03  0.8758E-06  0.8785E-06  0.1363E-05  0.1366E-05  0.1307E-05  0.1318E-05  0.1363E-05  0.1366E-05  0.8758E-06  0.8785E-06
     -3.625  0.1074E-01  0.1076E-01  0.2009E-03  0.2019E-03  0.3066E-03  0.3068E-03  0.2009E-03  0.2019E-03  0.1461E-05  0.1471E-05  0.1744E-05  0.1745E-05  0.2161E-05  0.2174E-05  0.1744E-05  0.1745E-05  0.1461E-05  0.1471E-05
     -3.555  0.1215E-01  0.1216E-01  0.3027E-03  0.3039E-03  0.2688E-03  0.2678E-03  0.3027E-03  0.3039E-03  0.2664E-05  0.2678E-05  0.1779E-05  0.1776E-05  0.2720E-05  0.2721E-05  0.1779E-05  0.1776E-05  0.2664E-05  0.2678E-05
     -3.486  0.1265E-01  0.1265E-01  0.3850E-03  0.3855E-03  0.2189E-03  0.2190E-03  0.3850E-03  0.3855E-03  0.3693E-05  0.3697E-05  0.2003E-05  0.2008E-05  0.2886E-05  0.2879E-05  0.2003E-05  0.2008E-05  0.3693E-05  0.3697E-05
     -3.416  0.1230E-01  0.1230E-01  0.3799E-03  0.3798E-03  0.2882E-03  0.2894E-03  0.3799E-03  0.3798E-03  0.3683E-05  0.3680E-05  0.2961E-05  0.2973E-05  0.3006E-05  0.3004E-05  0.2961E-05  0.2973E-05  0.3683E-05  0.3680E-05
     -3.347  0.1339E-01  0.1342E-01  0.4209E-03  0.4222E-03  0.4147E-03  0.4161E-03  0.4209E-03  0.4222E-03  0.4248E-05  0.4262E-05  0.4519E-05  0.4536E-05  0.3668E-05  0.3680E-05  0.4519E-05  0.4536E-05  0.4248E-05  0.4262E-05
     -3.277  0.1610E-01  0.1611E-01  0.5313E-03  0.5318E-03  0.5402E-03  0.5409E-03  0.5313E-03  0.5318E-03  0.5639E-05  0.5644E-05  0.6028E-05  0.6030E-05  0.5139E-05  0.5156E-05  0.6028E-05  0.6030E-05  0.5639E-05  0.5644E-05
     -3.207  0.1374E-01  0.1369E-01  0.4366E-03  0.4345E-03  0.5496E-03  0.5490E-03  0.4366E-03  0.4345E-03  0.4766E-05  0.4743E-05  0.5155E-05  0.5131E-05  0.6498E-05  0.6514E-05  0.5155E-05  0.5131E-05  0.4766E-05  0.4743E-05
     -3.138  0.9709E-02  0.9682E-02  0.2901E-03  0.2896E-03  0.5014E-03  0.5005E-03  0.2901E-03  0.2896E-03  0.3378E-05  0.3375E-05  0.3980E-05  0.3975E-05  0.6902E-05  0.6904E-05  0.3980E-05  0.3975E-05  0.3378E-05  0.3375E-05
     -3.068  0.9392E-02  0.9414E-02  0.3530E-03  0.3549E-03  0.4556E-03  0.4557E-03  0.3530E-03  0.3549E-03  0.4668E-05  0.4697E-05  0.5131E-05  0.5155E-05  0.5929E-05  0.5928E-05  0.5131E-05  0.5155E-05  0.4668E-05  0.4697E-05
     -2.999  0.1331E-01  0.1338E-01  0.5870E-03  0.5903E-03  0.5977E-03  0.6004E-03  0.5870E-03  0.5903E-03  0.8277E-05  0.8325E-05  0.8686E-05  0.8728E-05  0.7525E-05  0.7565E-05  0.8686E-05  0.8728E-05  0.8277E-05  0.8325E-05
     -2.929  0.1836E-01  0.1839E-01  0.8599E-03  0.8624E-03  0.8189E-03  0.8197E-03  0.8599E-03  0.8624E-03  0.1286E-04  0.1291E-04  0.1201E-04  0.1202E-04  0.1194E-04  0.1198E-04  0.1201E-04  0.1202E-04  0.1286E-04  0.1291E-04
     -2.859  0.1923E-01  0.1922E-01  0.9894E-03  0.9900E-03  0.7821E-03  0.7807E-03  0.9894E-03  0.9900E-03  0.1608E-04  0.1610E-04  0.1157E-04  0.1155E-04  0.1467E-04  0.1467E-04  0.1157E-04  0.1155E-04  0.1608E-04  0.1610E-04
     -2.790  0.1766E-01  0.1764E-01  0.9788E-03  0.9780E-03  0.6933E-03  0.6923E-03  0.9788E-03  0.9780E-03  0.1665E-04  0.1664E-04  0.1142E-04  0.1141E-04  0.1390E-04  0.1386E-04  0.1142E-04  0.1141E-04  0.1665E-04  0.1664E-04
     -2.720  0.1505E-01  0.1503E-01  0.8584E-03  0.8570E-03  0.6577E-03  0.6576E-03  0.8584E-03  0.8570E-03  0.1481E-04  0.1479E-04  0.1205E-04  0.1204E-04  0.1168E-04  0.1166E-04  0.1205E-04  0.1204E-04  0.1481E-04  0.1479E-04
     -2.651  0.1377E-01  0.1378E-01  0.7855E-03  0.7856E-03  0.7352E-03  0.7369E-03  0.7855E-03  0.7856E-03  0.1410E-04  0.1411E-04  0.1230E-04  0.1230E-04  0.1430E-04  0.1436E-04  0.1230E-04  0.1230E-04  0.1410E-04  0.1411E-04
     -2.581  0.1500E-01  0.1501E-01  0.8285E-03  0.8291E-03  0.9887E-03  0.9916E-03  0.8285E-03  0.8291E-03  0.1541E-04  0.1542E-04  0.1434E-04  0.1436E-04  0.2140E-04  0.2148E-04  0.1434E-04  0.1436E-04  0.1541E-04  0.1542E-04
     -2.511  0.1592E-01  0.1592E-01  0.8707E-03  0.8711E-03  0.1184E-02  0.1185E-02  0.8707E-03  0.8711E-03  0.1615E-04  0.1615E-04  0.1834E-04  0.1837E-04  0.2352E-04  0.2351E-04  0.1834E-04  0.1837E-04  0.1615E-04  0.1615E-04
     -2.442  0.1503E-01  0.1502E-01  0.8589E-03  0.8585E-03  0.1161E-02  0.1160E-02  0.8589E-03  0.8585E-03  0.1590E-04  0.1589E-04  0.2124E-04  0.2125E-04  0.1968E-04  0.1966E-04  0.2124E-04  0.2125E-04  0.1590E-04  0.1589E-04
     -2.372  0.1494E-01  0.1496E-01  0.8861E-03  0.8880E-03  0.1247E-02  0.1249E-02  0.8861E-03  0.8880E-03  0.1676E-04  0.1680E-04  0.2475E-04  0.2480E-04  0.2002E-04  0.2008E-04  0.2475E-04  0.2480E-04  0.1676E-04  0.1680E-04
     -2.303  0.1824E-01  0.1828E-01  0.1174E-02  0.1178E-02  0.1498E-02  0.1499E-02  0.1174E-02  0.1178E-02  0.2374E-04  0.2384E-04  0.3179E-04  0.3183E-04  0.2528E-04  0.2535E-04  0.3179E-04  0.3183E-04  0.2374E-04  0.2384E-04
     -2.233  0.1921E-01  0.1917E-01  0.1385E-02  0.1384E-02  0.1381E-02  0.1375E-02  0.1385E-02  0.1384E-02  0.3097E-04  0.3099E-04  0.3005E-04  0.2991E-04  0.2965E-04  0.2967E-04  0.3005E-04  0.2991E-04  0.3097E-04  0.3099E-04
     -2.163  0.1537E-01  0.1532E-01  0.1298E-02  0.1297E-02  0.8196E-03  0.8132E-03  0.1298E-02  0.1297E-02  0.3287E-04  0.3286E-04  0.1798E-04  0.1785E-04  0.2834E-04  0.2826E-04  0.1798E-04  0.1785E-04  0.3287E-04  0.3286E-04
     -2.094  0.1192E-01  0.1191E-01  0.1142E-02  0.1142E-02  0.5023E-03  0.5019E-03  0.1142E-02  0.1142E-02  0.3114E-04  0.3113E-04  0.1264E-04  0.1265E-04  0.2409E-04  0.2405E-04  0.1264E-04  0.1265E-04  0.3114E-04  0.3113E-04
     -2.024  0.1472E-01  0.1481E-01  0.1427E-02  0.1435E-02  0.8184E-03  0.8257E-03  0.1427E-02  0.1435E-02  0.3939E-04  0.3959E-04  0.2220E-04  0.2239E-04  0.3124E-04  0.3140E-04  0.2220E-04  0.2239E-04  0.3939E-04  0.3959E-04
     -1.955  0.2395E-01  0.2405E-01  0.2193E-02  0.2200E-02  0.1759E-02  0.1770E-02  0.2193E-02  0.2200E-02  0.5902E-04  0.5916E-04  0.4538E-04  0.4560E-04  0.5381E-04  0.5405E-04  0.4538E-04  0.4560E-04  0.5902E-04  0.5916E-04
     -1.885  0.2638E-01  0.2634E-01  0.2193E-02  0.2188E-02  0.2496E-02  0.2498E-02  0.2193E-02  0.2188E-02  0.5649E-04  0.5630E-04  0.5831E-04  0.5828E-04  0.6738E-04  0.6740E-04  0.5831E-04  0.5828E-04  0.5649E-04  0.5630E-04
     -1.815  0.2048E-01  0.2041E-01  0.1612E-02  0.1607E-02  0.2264E-02  0.2256E-02  0.1612E-02  0.1607E-02  0.4042E-04  0.4030E-04  0.5189E-04  0.5174E-04  0.5646E-04  0.5629E-04  0.5189E-04  0.5174E-04  0.4042E-04  0.4030E-04