   2   2   1   0
  0.1899843E+02  0.2998238E-09  0.2998238E-09  0.4880733E-09  0.5000000E-15
  1.000000000000000E-004
  CAR 
 unknown system                          
     18.71234118     -5.17087830  301      3.76809455      1.00000000
     -5.171  0.0000E+00  0.0000E+00  0.0000E+00  0.0000E+00
     -5.091  0.0000E+00  0.0000E+00  0.0000E+00  0.0000E+00
     -5.012  0.0000E+00  0.0000E+00  0.0000E+00  0.0000E+00
     -4.932  0.0000E+00  0.0000E+00  0.0000E+00  0.0000E+00
     -4.852  0.0000E+00  0.0000E+00  0.0000E+00  0.0000E+00
     -4.773  0.0000E+00  0.0000E+00  0.0000E+00  0.0000E+00
     -4.693  0.0000E+00  0.0000E+00  0.0000E+00  0.0000E+00
     -4.614  0.0000E+00  0.0000E+00  0.0000E+00  0.0000E+00
     -4.534  0.1038E-05  0.1046E-05  0.8266E-07  0.8324E-07
     -4.454  0.6194E-05  0.6237E-05  0.5757E-06  0.5797E-06
     -4.375  0.3886E-04  0.3913E-04  0.3670E-05  0.3695E-05
     -4.295  0.2007E-03  0.2021E-03  0.1965E-04  0.1978E-04
     -4.216  0.9317E-03  0.9379E-03  0.9382E-04  0.9445E-04
     -4.136  0.3939E-02  0.3962E-02  0.4074E-03  0.4099E-03
     -4.056  0.1278E-01  0.1284E-01  0.1425E-02  0.1432E-02
     -3.977  0.3094E-01  0.3104E-01  0.3889E-02  0.3903E-02
     -3.897  0.5267E-01  0.5274E-01  0.8082E-02  0.8102E-02
     -3.817  0.5717E-01  0.5714E-01  0.1263E-01  0.1265E-01
     -3.738  0.5355E-01  0.5359E-01  0.1690E-01  0.1692E-01
     -3.658  0.8342E-01  0.8361E-01  0.2354E-01  0.2357E-01
     -3.579  0.1128E+00  0.1128E+00  0.3252E-01  0.3256E-01
     -3.499  0.1005E+00  0.1004E+00  0.4052E-01  0.4055E-01
     -3.419  0.8944E-01  0.8942E-01  0.4765E-01  0.4768E-01
     -3.340  0.9081E-01  0.9083E-01  0.5488E-01  0.5491E-01
     -3.260  0.1070E+00  0.1071E+00  0.6339E-01  0.6344E-01
     -3.181  0.1290E+00  0.1291E+00  0.7368E-01  0.7372E-01
     -3.101  0.1366E+00  0.1367E+00  0.8456E-01  0.8461E-01
     -3.021  0.1347E+00  0.1346E+00  0.9528E-01  0.9533E-01
     -2.942  0.1304E+00  0.1305E+00  0.1057E+00  0.1057E+00
     -2.862  0.1734E+00  0.1737E+00  0.1195E+00  0.1195E+00
     -2.783  0.1825E+00  0.1822E+00  0.1340E+00  0.1341E+00
     -2.703  0.1187E+00  0.1185E+00  0.1435E+00  0.1435E+00
     -2.623  0.9018E-01  0.9018E-01  0.1507E+00  0.1507E+00
     -2.544  0.1147E+00  0.1149E+00  0.1598E+00  0.1598E+00
     -2.464  0.1867E+00  0.1871E+00  0.1747E+00  0.1747E+00
     -2.385  0.2306E+00  0.2306E+00  0.1930E+00  0.1931E+00
     -2.305  0.2196E+00  0.2196E+00  0.2105E+00  0.2106E+00
     -2.225  0.1934E+00  0.1933E+00  0.2259E+00  0.2260E+00
     -2.146  0.1608E+00  0.1607E+00  0.2387E+00  0.2388E+00
     -2.066  0.1609E+00  0.1610E+00  0.2516E+00  0.2516E+00
     -1.986  0.1862E+00  0.1863E+00  0.2664E+00  0.2665E+00
     -1.907  0.1937E+00  0.1937E+00  0.2818E+00  0.2819E+00
     -1.827  0.1710E+00  0.1710E+00  0.2955E+00  0.2955E+00
     -1.748  0.1834E+00  0.1837E+00  0.3101E+00  0.3101E+00
     -1.668  0.2441E+00  0.2443E+00  0.3295E+00  0.3296E+00
     -1.588  0.2376E+00  0.2373E+00  0.3485E+00  0.3485E+00
     -1.509  0.1739E+00  0.1736E+00  0.3623E+00  0.3624E+00
     -1.429  0.1289E+00  0.1289E+00  0.3726E+00  0.3726E+00
     -1.350  0.1924E+00  0.1930E+00  0.3879E+00  0.3880E+00
     -1.270  0.3458E+00  0.3463E+00  0.4155E+00  0.4156E+00
     -1.190  0.3495E+00  0.3491E+00  0.4433E+00  0.4434E+00
     -1.111  0.2476E+00  0.2472E+00  0.4631E+00  0.4631E+00
     -1.031  0.1980E+00  0.1980E+00  0.4788E+00  0.4789E+00
     -0.952  0.2071E+00  0.2072E+00  0.4953E+00  0.4954E+00
     -0.872  0.2047E+00  0.2046E+00  0.5117E+00  0.5117E+00
     -0.792  0.1926E+00  0.1926E+00  0.5270E+00  0.5271E+00
     -0.713  0.1925E+00  0.1925E+00  0.5423E+00  0.5424E+00
     -0.633  0.1965E+00  0.1966E+00  0.5580E+00  0.5581E+00
     -0.553  0.2297E+00  0.2300E+00  0.5763E+00  0.5764E+00
     -0.474  0.3124E+00  0.3128E+00  0.6012E+00  0.6013E+00
     -0.394  0.3675E+00  0.3675E+00  0.6304E+00  0.6306E+00
     -0.315  0.2966E+00  0.2961E+00  0.6541E+00  0.6542E+00
     -0.235  0.2439E+00  0.2440E+00  0.6735E+00  0.6736E+00
     -0.155  0.3223E+00  0.3227E+00  0.6992E+00  0.6993E+00
     -0.076  0.3307E+00  0.3304E+00  0.7255E+00  0.7256E+00
      0.004  0.2514E+00  0.2511E+00  0.7456E+00  0.7457E+00
      0.083  0.2156E+00  0.2155E+00  0.7627E+00  0.7628E+00
      0.163  0.2440E+00  0.2443E+00  0.7822E+00  0.7823E+00
      0.243  0.3306E+00  0.3309E+00  0.8085E+00  0.8087E+00
      0.322  0.3105E+00  0.3102E+00  0.8333E+00  0.8334E+00
      0.402  0.2177E+00  0.2173E+00  0.8506E+00  0.8507E+00
      0.481  0.1960E+00  0.1962E+00  0.8663E+00  0.8663E+00
      0.561  0.3039E+00  0.3044E+00  0.8904E+00  0.8906E+00
      0.641  0.3523E+00  0.3523E+00  0.9185E+00  0.9187E+00
      0.720  0.3447E+00  0.3447E+00  0.9460E+00  0.9461E+00
      0.800  0.3174E+00  0.3171E+00  0.9713E+00  0.9714E+00
      0.880  0.2647E+00  0.2646E+00  0.9923E+00  0.9924E+00
      0.959  0.2924E+00  0.2927E+00  0.1016E+01  0.1016E+01
      1.039  0.3456E+00  0.3457E+00  0.1043E+01  0.1043E+01
      1.118  0.3673E+00  0.3673E+00  0.1072E+01  0.1073E+01
      1.198  0.3872E+00  0.3873E+00  0.1103E+01  0.1103E+01
      1.278  0.4368E+00  0.4370E+00  0.1138E+01  0.1138E+01
      1.357  0.4320E+00  0.4316E+00  0.1172E+01  0.1173E+01
      1.437  0.2991E+00  0.2987E+00  0.1196E+01  0.1196E+01
      1.516  0.2184E+00  0.2187E+00  0.1214E+01  0.1214E+01
      1.596  0.2915E+00  0.2919E+00  0.1237E+01  0.1237E+01
      1.676  0.3294E+00  0.3293E+00  0.1263E+01  0.1263E+01
      1.755  0.3103E+00  0.3104E+00  0.1288E+01  0.1288E+01
      1.835  0.3043E+00  0.3041E+00  0.1312E+01  0.1312E+01
      1.914  0.2602E+00  0.2598E+00  0.1333E+01  0.1333E+01
      1.994  0.2901E+00  0.2905E+00  0.1356E+01  0.1356E+01
      2.074  0.4044E+00  0.4049E+00  0.1388E+01  0.1388E+01
      2.153  0.4452E+00  0.4456E+00  0.1424E+01  0.1424E+01
      2.233  0.4566E+00  0.4568E+00  0.1460E+01  0.1460E+01
      2.313  0.4645E+00  0.4644E+00  0.1497E+01  0.1497E+01
      2.392  0.4453E+00  0.4455E+00  0.1533E+01  0.1533E+01
      2.472  0.4503E+00  0.4508E+00  0.1568E+01  0.1569E+01
      2.551  0.4709E+00  0.4709E+00  0.1606E+01  0.1606E+01
      2.631  0.4408E+00  0.4401E+00  0.1641E+01  0.1641E+01
      2.711  0.3537E+00  0.3530E+00  0.1669E+01  0.1669E+01
      2.790  0.2676E+00  0.2676E+00  0.1691E+01  0.1691E+01
      2.870  0.2285E+00  0.2287E+00  0.1709E+01  0.1709E+01
      2.949  0.2821E+00  0.2825E+00  0.1731E+01  0.1731E+01
      3.029  0.4172E+00  0.4180E+00  0.1765E+01  0.1765E+01
      3.109  0.5187E+00  0.5187E+00  0.1806E+01  0.1806E+01
      3.188  0.4151E+00  0.4141E+00  0.1839E+01  0.1839E+01
      3.268  0.2737E+00  0.2729E+00  0.1861E+01  0.1861E+01
      3.347  0.1732E+00  0.1727E+00  0.1875E+01  0.1875E+01
      3.427  0.1353E+00  0.1352E+00  0.1885E+01  0.1885E+01
      3.507  0.2288E+00  0.2295E+00  0.1904E+01  0.1904E+01
      3.586  0.3497E+00  0.3505E+00  0.1931E+01  0.1932E+01
      3.666  0.3542E+00  0.3547E+00  0.1960E+01  0.1960E+01
      3.746  0.3756E+00  0.3764E+00  0.1990E+01  0.1990E+01
      3.825  0.5127E+00  0.5133E+00  0.2030E+01  0.2031E+01
      3.905  0.6223E+00  0.6214E+00  0.2080E+01  0.2080E+01
      3.984  0.5768E+00  0.5756E+00  0.2126E+01  0.2126E+01
      4.064  0.4164E+00  0.4155E+00  0.2159E+01  0.2159E+01
      4.144  0.3383E+00  0.3382E+00  0.2186E+01  0.2186E+01
      4.223  0.3183E+00  0.3186E+00  0.2211E+01  0.2211E+01
      4.303  0.3029E+00  0.3032E+00  0.2236E+01  0.2236E+01
      4.382  0.3389E+00  0.3391E+00  0.2263E+01  0.2263E+01
      4.462  0.3954E+00  0.3953E+00  0.2294E+01  0.2294E+01
      4.542  0.4171E+00  0.4169E+00  0.2327E+01  0.2327E+01
      4.621  0.4439E+00  0.4436E+00  0.2363E+01  0.2363E+01
      4.701  0.4640E+00  0.4638E+00  0.2400E+01  0.2400E+01
      4.780  0.4273E+00  0.4271E+00  0.2434E+01  0.2434E+01
      4.860  0.3755E+00  0.3759E+00  0.2464E+01  0.2464E+01
      4.940  0.4208E+00  0.4217E+00  0.2497E+01  0.2497E+01
      5.019  0.5847E+00  0.5855E+00  0.2544E+01  0.2544E+01
      5.099  0.6580E+00  0.6581E+00  0.2596E+01  0.2596E+01
      5.179  0.5691E+00  0.5683E+00  0.2641E+01  0.2642E+01
      5.258  0.3796E+00  0.3785E+00  0.2672E+01  0.2672E+01
      5.338  0.2659E+00  0.2658E+00  0.2693E+01  0.2693E+01
      5.417  0.2971E+00  0.2975E+00  0.2717E+01  0.2717E+01
      5.497  0.3440E+00  0.3441E+00  0.2744E+01  0.2744E+01
      5.577  0.3422E+00  0.3418E+00  0.2771E+01  0.2771E+01
      5.656  0.3059E+00  0.3057E+00  0.2796E+01  0.2796E+01
      5.736  0.4083E+00  0.4091E+00  0.2828E+01  0.2828E+01
      5.815  0.6028E+00  0.6033E+00  0.2876E+01  0.2876E+01
      5.895  0.5716E+00  0.5709E+00  0.2922E+01  0.2922E+01
      5.975  0.4794E+00  0.4793E+00  0.2960E+01  0.2960E+01
      6.054  0.4679E+00  0.4681E+00  0.2997E+01  0.2997E+01
      6.134  0.3853E+00  0.3853E+00  0.3028E+01  0.3028E+01
      6.213  0.3449E+00  0.3451E+00  0.3055E+01  0.3056E+01
      6.293  0.3787E+00  0.3788E+00  0.3086E+01  0.3086E+01
      6.373  0.3529E+00  0.3526E+00  0.3114E+01  0.3114E+01
      6.452  0.3304E+00  0.3304E+00  0.3140E+01  0.3140E+01
      6.532  0.3736E+00  0.3739E+00  0.3170E+01  0.3170E+01
      6.612  0.4559E+00  0.4562E+00  0.3206E+01  0.3206E+01
      6.691  0.6043E+00  0.6044E+00  0.3254E+01  0.3254E+01
      6.771  0.6749E+00  0.6748E+00  0.3308E+01  0.3308E+01
      6.850  0.5915E+00  0.5911E+00  0.3355E+01  0.3355E+01
      6.930  0.4828E+00  0.4826E+00  0.3394E+01  0.3394E+01
      7.010  0.3869E+00  0.3867E+00  0.3424E+01  0.3424E+01
      7.089  0.3437E+00  0.3435E+00  0.3452E+01  0.3452E+01
      7.169  0.3072E+00  0.3071E+00  0.3476E+01  0.3476E+01
      7.248  0.3233E+00  0.3237E+00  0.3502E+01  0.3502E+01
      7.328  0.4292E+00  0.4296E+00  0.3536E+01  0.3536E+01
      7.408  0.5235E+00  0.5238E+00  0.3578E+01  0.3578E+01
      7.487  0.5697E+00  0.5699E+00  0.3623E+01  0.3624E+01
      7.567  0.6099E+00  0.6099E+00  0.3672E+01  0.3672E+01
      7.646  0.7461E+00  0.7461E+00  0.3731E+01  0.3731E+01
      7.726  0.6551E+00  0.6542E+00  0.3783E+01  0.3784E+01
      7.806  0.3839E+00  0.3831E+00  0.3814E+01  0.3814E+01
      7.885  0.3519E+00  0.3519E+00  0.3842E+01  0.3842E+01
      7.965  0.4997E+00  0.5000E+00  0.3882E+01  0.3882E+01
      8.045  0.5566E+00  0.5569E+00  0.3926E+01  0.3926E+01
      8.124  0.4824E+00  0.4829E+00  0.3965E+01  0.3965E+01
      8.204  0.4227E+00  0.4228E+00  0.3998E+01  0.3999E+01
      8.283  0.4470E+00  0.4472E+00  0.4034E+01  0.4034E+01
      8.363  0.4697E+00  0.4693E+00  0.4071E+01  0.4072E+01
      8.443  0.4869E+00  0.4873E+00  0.4110E+01  0.4110E+01
      8.522  0.5613E+00  0.5614E+00  0.4155E+01  0.4155E+01
      8.602  0.5427E+00  0.5421E+00  0.4198E+01  0.4198E+01
      8.681  0.5713E+00  0.5711E+00  0.4244E+01  0.4244E+01
      8.761  0.5670E+00  0.5671E+00  0.4289E+01  0.4289E+01
      8.841  0.5552E+00  0.5557E+00  0.4333E+01  0.4333E+01
      8.920  0.5601E+00  0.5606E+00  0.4378E+01  0.4378E+01
      9.000  0.5777E+00  0.5776E+00  0.4424E+01  0.4424E+01
      9.079  0.4931E+00  0.4925E+00  0.4463E+01  0.4463E+01
      9.159  0.4204E+00  0.4203E+00  0.4497E+01  0.4497E+01
      9.239  0.4355E+00  0.4355E+00  0.4531E+01  0.4531E+01
      9.318  0.4221E+00  0.4218E+00  0.4565E+01  0.4565E+01
      9.398  0.4014E+00  0.4014E+00  0.4597E+01  0.4597E+01
      9.477  0.4402E+00  0.4405E+00  0.4632E+01  0.4632E+01
      9.557  0.4266E+00  0.4266E+00  0.4666E+01  0.4666E+01
      9.637  0.3926E+00  0.3929E+00  0.4697E+01  0.4697E+01
      9.716  0.4127E+00  0.4124E+00  0.4730E+01  0.4730E+01
      9.796  0.4418E+00  0.4415E+00  0.4765E+01  0.4765E+01
      9.876  0.5764E+00  0.5766E+00  0.4811E+01  0.4811E+01
      9.955  0.5740E+00  0.5736E+00  0.4857E+01  0.4857E+01
     10.035  0.3928E+00  0.3922E+00  0.4888E+01  0.4888E+01
     10.114  0.2960E+00  0.2962E+00  0.4912E+01  0.4912E+01
     10.194  0.3699E+00  0.3708E+00  0.4941E+01  0.4942E+01
     10.274  0.5798E+00  0.5810E+00  0.4988E+01  0.4988E+01
     10.353  0.7052E+00  0.7054E+00  0.5044E+01  0.5044E+01
     10.433  0.7547E+00  0.7549E+00  0.5104E+01  0.5104E+01
     10.512  0.8045E+00  0.8043E+00  0.5168E+01  0.5168E+01
     10.592  0.5797E+00  0.5784E+00  0.5214E+01  0.5214E+01
     10.672  0.3580E+00  0.3574E+00  0.5243E+01  0.5243E+01
     10.751  0.3574E+00  0.3581E+00  0.5271E+01  0.5271E+01
     10.831  0.3753E+00  0.3755E+00  0.5301E+01  0.5301E+01
     10.910  0.3131E+00  0.3126E+00  0.5326E+01  0.5326E+01
     10.990  0.3861E+00  0.3866E+00  0.5357E+01  0.5357E+01
     11.070  0.6379E+00  0.6386E+00  0.5408E+01  0.5408E+01
     11.149  0.7747E+00  0.7743E+00  0.5469E+01  0.5470E+01
     11.229  0.6688E+00  0.6685E+00  0.5523E+01  0.5523E+01
     11.309  0.5272E+00  0.5271E+00  0.5565E+01  0.5565E+01
     11.388  0.4569E+00  0.4573E+00  0.5601E+01  0.5601E+01
     11.468  0.5204E+00  0.5211E+00  0.5642E+01  0.5643E+01
     11.547  0.6076E+00  0.6079E+00  0.5691E+01  0.5691E+01
     11.627  0.6836E+00  0.6833E+00  0.5745E+01  0.5746E+01
     11.707  0.6342E+00  0.6334E+00  0.5796E+01  0.5796E+01
     11.786  0.5618E+00  0.5618E+00  0.5841E+01  0.5841E+01
     11.866  0.5296E+00  0.5297E+00  0.5883E+01  0.5883E+01
     11.945  0.5300E+00  0.5299E+00  0.5925E+01  0.5925E+01
     12.025  0.4673E+00  0.4672E+00  0.5962E+01  0.5962E+01
     12.105  0.4638E+00  0.4638E+00  0.5999E+01  0.5999E+01
     12.184  0.5204E+00  0.5207E+00  0.6041E+01  0.6041E+01
     12.264  0.6128E+00  0.6134E+00  0.6090E+01  0.6090E+01
     12.343  0.6830E+00  0.6832E+00  0.6144E+01  0.6144E+01
     12.423  0.6261E+00  0.6254E+00  0.6194E+01  0.6194E+01
     12.503  0.5741E+00  0.5742E+00  0.6240E+01  0.6240E+01
     12.582  0.7353E+00  0.7356E+00  0.6298E+01  0.6298E+01
     12.662  0.7236E+00  0.7228E+00  0.6356E+01  0.6356E+01
     12.742  0.5266E+00  0.5263E+00  0.6398E+01  0.6398E+01
     12.821  0.4294E+00  0.4295E+00  0.6432E+01  0.6432E+01
     12.901  0.4245E+00  0.4247E+00  0.6466E+01  0.6466E+01
     12.980  0.4427E+00  0.4429E+00  0.6501E+01  0.6501E+01
     13.060  0.4208E+00  0.4208E+00  0.6535E+01  0.6535E+01
     13.140  0.5015E+00  0.5021E+00  0.6575E+01  0.6575E+01
     13.219  0.7031E+00  0.7036E+00  0.6631E+01  0.6631E+01
     13.299  0.8175E+00  0.8174E+00  0.6696E+01  0.6696E+01
     13.378  0.7466E+00  0.7461E+00  0.6755E+01  0.6755E+01
     13.458  0.6409E+00  0.6405E+00  0.6806E+01  0.6806E+01
     13.538  0.5324E+00  0.5319E+00  0.6849E+01  0.6849E+01
     13.617  0.4406E+00  0.4403E+00  0.6884E+01  0.6884E+01
     13.697  0.4305E+00  0.4305E+00  0.6918E+01  0.6918E+01
     13.776  0.4545E+00  0.4547E+00  0.6954E+01  0.6955E+01
     13.856  0.4672E+00  0.4671E+00  0.6992E+01  0.6992E+01
     13.936  0.4569E+00  0.4569E+00  0.7028E+01  0.7028E+01
     14.015  0.5105E+00  0.5110E+00  0.7069E+01  0.7069E+01
     14.095  0.6455E+00  0.6459E+00  0.7120E+01  0.7120E+01
     14.175  0.6243E+00  0.6238E+00  0.7170E+01  0.7170E+01
     14.254  0.4610E+00  0.4604E+00  0.7207E+01  0.7207E+01
     14.334  0.4044E+00  0.4042E+00  0.7239E+01  0.7239E+01
     14.413  0.4512E+00  0.4515E+00  0.7275E+01  0.7275E+01
     14.493  0.5383E+00  0.5387E+00  0.7318E+01  0.7318E+01
     14.573  0.5841E+00  0.5839E+00  0.7364E+01  0.7364E+01
     14.652  0.5180E+00  0.5174E+00  0.7405E+01  0.7406E+01
     14.732  0.3631E+00  0.3626E+00  0.7434E+01  0.7434E+01
     14.811  0.2698E+00  0.2699E+00  0.7456E+01  0.7456E+01
     14.891  0.3019E+00  0.3023E+00  0.7480E+01  0.7480E+01
     14.971  0.4480E+00  0.4486E+00  0.7516E+01  0.7516E+01
     15.050  0.4911E+00  0.4910E+00  0.7555E+01  0.7555E+01
     15.130  0.4583E+00  0.4582E+00  0.7591E+01  0.7591E+01
     15.209  0.4143E+00  0.4141E+00  0.7624E+01  0.7624E+01
     15.289  0.3440E+00  0.3440E+00  0.7652E+01  0.7652E+01
     15.369  0.3430E+00  0.3430E+00  0.7679E+01  0.7679E+01
     15.448  0.2783E+00  0.2779E+00  0.7701E+01  0.7701E+01
     15.528  0.2023E+00  0.2021E+00  0.7717E+01  0.7717E+01
     15.608  0.2408E+00  0.2410E+00  0.7737E+01  0.7737E+01
     15.687  0.2762E+00  0.2762E+00  0.7759E+01  0.7759E+01
     15.767  0.2346E+00  0.2348E+00  0.7777E+01  0.7777E+01
     15.846  0.1950E+00  0.1963E+00  0.7793E+01  0.7793E+01
     15.926  0.1937E+00  0.1950E+00  0.7808E+01  0.7809E+01
     16.006  0.2037E+00  0.2022E+00  0.7825E+01  0.7825E+01
     16.085  0.2020E+00  0.2009E+00  0.7841E+01  0.7841E+01
     16.165  0.2331E+00  0.2330E+00  0.7859E+01  0.7859E+01
     16.244  0.2294E+00  0.2292E+00  0.7877E+01  0.7878E+01
     16.324  0.1444E+00  0.1441E+00  0.7889E+01  0.7889E+01
     16.404  0.1078E+00  0.1080E+00  0.7898E+01  0.7898E+01
     16.483  0.1730E+00  0.1735E+00  0.7911E+01  0.7911E+01
     16.563  0.2305E+00  0.2303E+00  0.7930E+01  0.7930E+01
     16.642  0.1747E+00  0.1742E+00  0.7944E+01  0.7944E+01
     16.722  0.1071E+00  0.1070E+00  0.7952E+01  0.7952E+01
     16.802  0.6919E-01  0.6900E-01  0.7958E+01  0.7958E+01
     16.881  0.2702E-01  0.2685E-01  0.7960E+01  0.7960E+01
     16.961  0.7634E-02  0.7593E-02  0.7961E+01  0.7961E+01
     17.041  0.7065E-02  0.7108E-02  0.7961E+01  0.7961E+01
     17.120  0.2385E-01  0.2402E-01  0.7963E+01  0.7963E+01
     17.200  0.6273E-01  0.6294E-01  0.7968E+01  0.7968E+01
     17.279  0.8725E-01  0.8725E-01  0.7975E+01  0.7975E+01
     17.359  0.7889E-01  0.7890E-01  0.7981E+01  0.7981E+01
     17.439  0.8114E-01  0.8124E-01  0.7988E+01  0.7988E+01
     17.518  0.7206E-01  0.7184E-01  0.7993E+01  0.7993E+01
     17.598  0.4134E-01  0.4114E-01  0.7997E+01  0.7997E+01
     17.677  0.2586E-01  0.2578E-01  0.7999E+01  0.7999E+01
     17.757  0.1133E-01  0.1128E-01  0.8000E+01  0.8000E+01
     17.837  0.2907E-02  0.2893E-02  0.8000E+01  0.8000E+01
     17.916  0.5827E-03  0.5799E-03  0.8000E+01  0.8000E+01
     17.996  0.1203E-03  0.1197E-03  0.8000E+01  0.8000E+01
     18.075  0.0000E+00  0.0000E+00  0.8000E+01  0.8000E+01
     18.155  0.0000E+00  0.0000E+00  0.8000E+01  0.8000E+01
     18.235  0.0000E+00  0.0000E+00  0.8000E+01  0.8000E+01
     18.314  0.0000E+00  0.0000E+00  0.8000E+01  0.8000E+01
     18.394  0.0000E+00  0.0000E+00  0.8000E+01  0.8000E+01
     18.474  0.0000E+00  0.0000E+00  0.8000E+01  0.8000E+01
     18.553  0.0000E+00  0.0000E+00  0.8000E+01  0.8000E+01
     18.633  0.0000E+00  0.0000E+00  0.8000E+01  0.8000E+01
     18.712  0.0000E+00  0.0000E+00  0.8000E+01  0.8000E+01
     18.71234118     -5.17087830  301      3.76809455      1.00000000
     -5.171  0.0000E+00  0.0000E+00  0.0000E+00  0.0000E+00  0.0000E+00  0.0000E+00  0.0000E+00  0.0000E+00  0.0000E+00  0.0000E+00  0.0000E+00  0.0000E+00  0.0000E+00  0.0000E+00  0.0000E+00  0.0000E+00  0.0000E+00  0.0000E+00
     -5.091  0.0000E+00  0.0000E+00  0.0000E+00  0.0000E+00  0.0000E+00  0.0000E+00  0.0000E+00  0.0000E+00  0.0000E+00  0.0000E+00  0.0000E+00  0.0000E+00  0.0000E+00  0.0000E+00  0.0000E+00  0.0000E+00  0.0000E+00  0.0000E+00
     -5.012  0.0000E+00  0.0000E+00  0.0000E+00  0.0000E+00  0.0000E+00  0.0000E+00  0.0000E+00  0.0000E+00  0.0000E+00  0.0000E+00  0.0000E+00  0.0000E+00  0.0000E+00  0.0000E+00  0.0000E+00  0.0000E+00  0.0000E+00  0.0000E+00
     -4.932  0.0000E+00  0.0000E+00  0.0000E+00  0.0000E+00  0.0000E+00  0.0000E+00  0.0000E+00  0.0000E+00  0.0000E+00  0.0000E+00  0.0000E+00  0.0000E+00  0.0000E+00  0.0000E+00  0.0000E+00  0.0000E+00  0.0000E+00  0.0000E+00
     -4.852  0.0000E+00  0.0000E+00  0.0000E+00  0.0000E+00  0.0000E+00  0.0000E+00  0.0000E+00  0.0000E+00  0.0000E+00  0.0000E+00  0.0000E+00  0.0000E+00  0.0000E+00  0.0000E+00  0.0000E+00  0.0000E+00  0.0000E+00  0.0000E+00
     -4.773  0.0000E+00  0.0000E+00  0.0000E+00  0.0000E+00  0.0000E+00  0.0000E+00  0.0000E+00  0.0000E+00  0.0000E+00  0.0000E+00  0.0000E+00  0.0000E+00  0.0000E+00  0.0000E+00  0.0000E+00  0.0000E+00  0.0000E+00  0.0000E+00
     -4.693  0.0000E+00  0.0000E+00  0.0000E+00  0.0000E+00  0.0000E+00  0.0000E+00  0.0000E+00  0.0000E+00  0.0000E+00  0.0000E+00  0.0000E+00  0.0000E+00  0.0000E+00  0.0000E+00  0.0000E+00  0.0000E+00  0.0000E+00  0.0000E+00
     -4.614  0.0000E+00  0.0000E+00  0.0000E+00  0.0000E+00  0.0000E+00  0.0000E+00  0.0000E+00  0.0000E+00  0.0000E+00  0.0000E+00  0.0000E+00  0.0000E+00  0.0000E+00  0.0000E+00  0.0000E+00  0.0000E+00  0.0000E+00  0.0000E+00
     -4.534  0.1072E-06  0.1079E-06  0.6076E-22  0.6099E-22  0.9353E-24  0.1026E-23  0.6076E-22  0.6099E-22  0.2436E-21  0.2522E-21  0.1090E-23  0.1319E-23  0.1333E-13  0.1071E-13  0.1090E-23  0.1319E-23  0.2436E-21  0.2522E-21
     -4.454  0.6377E-06  0.6422E-06  0.3563E-21  0.3663E-21  0.1575E-08  0.1586E-08  0.3563E-21  0.3663E-21  0.1286E-20  0.1448E-20  0.6569E-23  0.7712E-23  0.1668E-11  0.1691E-11  0.6569E-23  0.7712E-23  0.1286E-20  0.1448E-20
     -4.375  0.3992E-05  0.4020E-05  0.6613E-08  0.6659E-08  0.6163E-08  0.6205E-08  0.6613E-08  0.6659E-08  0.1173E-10  0.1183E-10  0.1225E-20  0.2648E-20  0.1595E-10  0.1601E-10  0.1225E-20  0.2648E-20  0.1173E-10  0.1183E-10
     -4.295  0.2059E-04  0.2073E-04  0.3944E-07  0.3971E-07  0.4629E-07  0.4661E-07  0.3944E-07  0.3971E-07  0.7004E-10  0.7059E-10  0.5021E-10  0.5073E-10  0.6891E-10  0.6921E-10  0.5021E-10  0.5073E-10  0.7004E-10  0.7059E-10
     -4.216  0.9560E-04  0.9624E-04  0.1796E-06  0.1808E-06  0.2160E-06  0.2175E-06  0.1796E-06  0.1808E-06  0.3189E-09  0.3213E-09  0.1963E-09  0.1984E-09  0.3689E-09  0.3707E-09  0.1963E-09  0.1984E-09  0.3189E-09  0.3213E-09
     -4.136  0.4038E-03  0.4062E-03  0.8782E-06  0.8841E-06  0.1005E-05  0.1011E-05  0.8782E-06  0.8841E-06  0.1598E-08  0.1610E-08  0.9600E-09  0.9699E-09  0.1745E-08  0.1753E-08  0.9600E-09  0.9699E-09  0.1598E-08  0.1610E-08
     -4.056  0.1307E-02  0.1313E-02  0.3994E-05  0.4019E-05  0.4128E-05  0.4151E-05  0.3994E-05  0.4019E-05  0.7324E-08  0.7376E-08  0.4915E-08  0.4964E-08  0.7390E-08  0.7421E-08  0.4915E-08  0.4964E-08  0.7324E-08  0.7376E-08
     -3.977  0.3153E-02  0.3164E-02  0.1417E-04  0.1424E-04  0.1198E-04  0.1203E-04  0.1417E-04  0.1424E-04  0.2635E-07  0.2650E-07  0.2137E-07  0.2157E-07  0.2159E-07  0.2161E-07  0.2137E-07  0.2157E-07  0.2635E-07  0.2650E-07
     -3.897  0.5348E-02  0.5356E-02  0.3028E-04  0.3034E-04  0.2748E-04  0.2757E-04  0.3028E-04  0.3034E-04  0.5971E-07  0.5991E-07  0.6843E-07  0.6890E-07  0.4313E-07  0.4311E-07  0.6843E-07  0.6890E-07  0.5971E-07  0.5991E-07
     -3.817  0.5778E-02  0.5775E-02  0.3786E-04  0.3787E-04  0.4560E-04  0.4566E-04  0.3786E-04  0.3787E-04  0.9481E-07  0.9508E-07  0.1139E-06  0.1144E-06  0.1044E-06  0.1046E-06  0.1139E-06  0.1144E-06  0.9481E-07  0.9508E-07
     -3.738  0.5358E-02  0.5363E-02  0.5092E-04  0.5106E-04  0.6424E-04  0.6436E-04  0.5092E-04  0.5106E-04  0.2019E-06  0.2029E-06  0.1731E-06  0.1742E-06  0.2748E-06  0.2750E-06  0.1731E-06  0.1742E-06  0.2019E-06  0.2029E-06
     -3.658  0.8271E-02  0.8290E-02  0.1092E-03  0.1095E-03  0.1160E-03  0.1162E-03  0.1092E-03  0.1095E-03  0.5093E-06  0.5113E-06  0.4400E-06  0.4426E-06  0.5609E-06  0.5605E-06  0.4400E-06  0.4426E-06  0.5093E-06  0.5113E-06
     -3.579  0.1114E-01  0.1114E-01  0.1739E-03  0.1741E-03  0.1501E-03  0.1500E-03  0.1739E-03  0.1741E-03  0.8956E-06  0.8976E-06  0.7183E-06  0.7203E-06  0.7657E-06  0.7639E-06  0.7183E-06  0.7203E-06  0.8956E-06  0.8976E-06
     -3.499  0.9864E-02  0.9857E-02  0.1900E-03  0.1900E-03  0.1190E-03  0.1190E-03  0.1900E-03  0.1900E-03  0.1116E-05  0.1117E-05  0.7828E-06  0.7845E-06  0.7636E-06  0.7619E-06  0.7828E-06  0.7845E-06  0.1116E-05  0.1117E-05
     -3.419  0.8704E-02  0.8702E-02  0.1796E-03  0.1795E-03  0.1575E-03  0.1579E-03  0.1796E-03  0.1795E-03  0.1106E-05  0.1106E-05  0.1172E-05  0.1176E-05  0.9078E-06  0.9083E-06  0.1172E-05  0.1176E-05  0.1106E-05  0.1106E-05
     -3.340  0.8756E-02  0.8760E-02  0.1664E-03  0.1664E-03  0.2689E-03  0.2693E-03  0.1664E-03  0.1664E-03  0.1030E-05  0.1031E-05  0.1839E-05  0.1844E-05  0.1482E-05  0.1485E-05  0.1839E-05  0.1844E-05  0.1030E-05  0.1031E-05
     -3.260  0.1022E-01  0.1023E-01  0.2066E-03  0.2069E-03  0.3858E-03  0.3862E-03  0.2066E-03  0.2069E-03  0.1526E-05  0.1530E-05  0.2509E-05  0.2513E-05  0.2725E-05  0.2730E-05  0.2509E-05  0.2513E-05  0.1526E-05  0.1530E-05
     -3.181  0.1224E-01  0.1225E-01  0.3313E-03  0.3319E-03  0.3812E-03  0.3806E-03  0.3313E-03  0.3319E-03  0.3131E-05  0.3141E-05  0.2673E-05  0.2673E-05  0.3801E-05  0.3796E-05  0.2673E-05  0.2673E-05  0.3131E-05  0.3141E-05
     -3.101  0.1287E-01  0.1288E-01  0.4744E-03  0.4749E-03  0.2461E-03  0.2458E-03  0.4744E-03  0.4749E-03  0.5185E-05  0.5194E-05  0.2464E-05  0.2467E-05  0.4000E-05  0.3988E-05  0.2464E-05  0.2467E-05  0.5185E-05  0.5194E-05
     -3.021  0.1259E-01  0.1259E-01  0.4881E-03  0.4878E-03  0.2879E-03  0.2885E-03  0.4881E-03  0.4878E-03  0.5412E-05  0.5410E-05  0.3540E-05  0.3549E-05  0.4005E-05  0.3993E-05  0.3540E-05  0.3549E-05  0.5412E-05  0.5410E-05
     -2.942  0.1208E-01  0.1208E-01  0.4474E-03  0.4476E-03  0.4439E-03  0.4445E-03  0.4474E-03  0.4476E-03  0.4975E-05  0.4980E-05  0.5503E-05  0.5517E-05  0.4348E-05  0.4344E-05  0.5503E-05  0.5517E-05  0.4975E-05  0.4980E-05
     -2.862  0.1592E-01  0.1594E-01  0.6418E-03  0.6428E-03  0.6314E-03  0.6322E-03  0.6418E-03  0.6428E-03  0.7680E-05  0.7694E-05  0.8666E-05  0.8684E-05  0.6188E-05  0.6190E-05  0.8666E-05  0.8684E-05  0.7680E-05  0.7694E-05
     -2.783  0.1668E-01  0.1666E-01  0.6788E-03  0.6778E-03  0.7201E-03  0.7198E-03  0.6788E-03  0.6778E-03  0.8395E-05  0.8385E-05  0.9151E-05  0.9143E-05  0.8480E-05  0.8479E-05  0.9151E-05  0.9143E-05  0.8395E-05  0.8385E-05
     -2.703  0.1078E-01  0.1076E-01  0.3789E-03  0.3778E-03  0.6571E-03  0.6567E-03  0.3789E-03  0.3778E-03  0.4777E-05  0.4765E-05  0.5766E-05  0.5758E-05  0.1021E-04  0.1020E-04  0.5766E-05  0.5758E-05  0.4777E-05  0.4765E-05
     -2.623  0.8089E-02  0.8089E-02  0.3078E-03  0.3083E-03  0.5535E-03  0.5529E-03  0.3078E-03  0.3083E-03  0.4362E-05  0.4371E-05  0.5436E-05  0.5446E-05  0.8764E-05  0.8747E-05  0.5436E-05  0.5446E-05  0.4362E-05  0.4371E-05
     -2.544  0.1015E-01  0.1018E-01  0.5298E-03  0.5311E-03  0.5525E-03  0.5533E-03  0.5298E-03  0.5311E-03  0.8315E-05  0.8338E-05  0.9206E-05  0.9233E-05  0.7494E-05  0.7497E-05  0.9206E-05  0.9233E-05  0.8315E-05  0.8338E-05
     -2.464  0.1640E-01  0.1643E-01  0.9091E-03  0.9109E-03  0.9251E-03  0.9268E-03  0.9091E-03  0.9109E-03  0.1487E-04  0.1491E-04  0.1650E-04  0.1653E-04  0.1309E-04  0.1311E-04  0.1650E-04  0.1653E-04  0.1487E-04  0.1491E-04
     -2.385  0.2015E-01  0.2015E-01  0.1203E-02  0.1204E-02  0.1079E-02  0.1078E-02  0.1203E-02  0.1204E-02  0.2138E-04  0.2140E-04  0.1858E-04  0.1857E-04  0.1978E-04  0.1977E-04  0.1858E-04  0.1857E-04  0.2138E-04  0.2140E-04
     -2.305  0.1905E-01  0.1904E-01  0.1272E-02  0.1272E-02  0.9021E-03  0.9015E-03  0.1272E-02  0.1272E-02  0.2462E-04  0.2463E-04  0.1615E-04  0.1615E-04  0.2158E-04  0.2155E-04  0.1615E-04  0.1615E-04  0.2462E-04  0.2463E-04
     -2.225  0.1665E-01  0.1664E-01  0.1174E-02  0.1173E-02  0.8056E-03  0.8051E-03  0.1174E-02  0.1173E-02  0.2318E-04  0.2316E-04  0.1716E-04  0.1717E-04  0.1745E-04  0.1740E-04  0.1716E-04  0.1717E-04  0.2318E-04  0.2316E-04
     -2.146  0.1371E-01  0.1370E-01  0.9770E-03  0.9763E-03  0.7858E-03  0.7859E-03  0.9770E-03  0.9763E-03  0.1949E-04  0.1948E-04  0.1768E-04  0.1768E-04  0.1481E-04  0.1480E-04  0.1768E-04  0.1768E-04  0.1949E-04  0.1948E-04
     -2.066  0.1355E-01  0.1356E-01  0.9608E-03  0.9612E-03  0.9621E-03  0.9635E-03  0.9608E-03  0.9612E-03  0.2030E-04  0.2031E-04  0.1800E-04  0.1801E-04  0.2264E-04  0.2268E-04  0.1800E-04  0.1801E-04  0.2030E-04  0.2031E-04
     -1.986  0.1555E-01  0.1556E-01  0.1045E-02  0.1045E-02  0.1374E-02  0.1375E-02  0.1045E-02  0.1045E-02  0.2246E-04  0.2247E-04  0.2239E-04  0.2242E-04  0.3443E-04  0.3443E-04  0.2239E-04  0.2242E-04  0.2246E-04  0.2247E-04
     -1.907  0.1605E-01  0.1605E-01  0.1099E-02  0.1099E-02  0.1516E-02  0.1515E-02  0.1099E-02  0.1099E-02  0.2327E-04  0.2327E-04  0.2948E-04  0.2951E-04  0.3212E-04  0.3207E-04  0.2948E-04  0.2951E-04  0.2327E-04  0.2327E-04
     -1.827  0.1405E-01  0.1404E-01  0.1012E-02  0.1012E-02  0.1368E-02  0.1368E-02  0.1012E-02  0.1012E-02  0.2142E-04  0.2141E-04  0.3143E-04  0.3144E-04  0.2461E-04  0.2458E-04  0.3143E-04  0.3144E-04  0.2142E-04  0.2141E-04
     -1.748  0.1487E-01  0.1489E-01  0.1096E-02  0.1098E-02  0.1615E-02  0.1617E-02  0.1096E-02  0.1098E-02  0.2377E-04  0.2380E-04  0.3862E-04  0.3868E-04  0.2882E-04  0.2885E-04  0.3862E-04  0.3868E-04  0.2377E-04  0.2380E-04
     -1.668  0.1962E-01  0.1964E-01  0.1606E-02  0.1608E-02  0.2001E-02  0.2001E-02  0.1606E-02  0.1608E-02  0.3765E-04  0.3771E-04  0.5224E-04  0.5228E-04  0.3750E-04  0.3752E-04  0.5224E-04  0.5228E-04  0.3765E-04  0.3771E-04
     -1.588  0.1899E-01  0.1898E-01  0.1765E-02  0.1765E-02  0.1637E-02  0.1633E-02  0.1765E-02  0.1765E-02  0.4677E-04  0.4679E-04  0.4233E-04  0.4223E-04  0.4342E-04  0.4340E-04  0.4233E-04  0.4223E-04  0.4677E-04  0.4679E-04
     -1.509  0.1379E-01  0.1377E-01  0.1556E-02  0.1554E-02  0.7648E-03  0.7618E-03  0.1556E-02  0.1554E-02  0.4736E-04  0.4735E-04  0.2020E-04  0.2013E-04  0.3791E-04  0.3783E-04  0.2020E-04  0.2013E-04  0.4736E-04  0.4735E-04
     -1.429  0.1009E-01  0.1008E-01  0.1269E-02  0.1268E-02  0.4578E-03  0.4582E-03  0.1269E-02  0.1268E-02  0.4083E-04  0.4083E-04  0.1467E-04  0.1469E-04  0.2932E-04  0.2929E-04  0.1467E-04  0.1469E-04  0.4083E-04  0.4083E-04
     -1.350  0.1478E-01  0.1483E-01  0.1835E-02  0.1840E-02  0.1030E-02  0.1035E-02  0.1835E-02  0.1840E-02  0.5874E-04  0.5891E-04  0.3443E-04  0.3458E-04  0.4423E-04  0.4433E-04  0.3443E-04  0.3458E-04  0.5874E-04  0.5891E-04
     -1.270  0.2642E-01  0.2646E-01  0.3049E-02  0.3052E-02  0.2479E-02  0.2485E-02  0.3049E-02  0.3052E-02  0.9432E-04  0.9440E-04  0.7689E-04  0.7705E-04  0.8389E-04  0.8400E-04  0.7689E-04  0.7705E-04  0.9432E-04  0.9440E-04
     -1.190  0.2657E-01  0.2655E-01  0.2707E-02  0.2702E-02  0.3363E-02  0.3363E-02  0.2707E-02  0.2702E-02  0.7905E-04  0.7890E-04  0.9147E-04  0.9144E-04  0.9996E-04  0.9989E-04  0.9147E-04  0.9144E-04  0.7905E-04  0.7890E-04