   2   2   1   0
  0.1961124E+02  0.3030134E-09  0.3030134E-09  0.4932655E-09  0.5000000E-15
  1.000000000000000E-004
  CAR 
 unknown system                          
     18.27983782     -5.19439213  301      3.57902288      1.00000000
     -5.194  0.0000E+00  0.0000E+00  0.0000E+00  0.0000E+00
     -5.116  0.0000E+00  0.0000E+00  0.0000E+00  0.0000E+00
     -5.038  0.0000E+00  0.0000E+00  0.0000E+00  0.0000E+00
     -4.960  0.0000E+00  0.0000E+00  0.0000E+00  0.0000E+00
     -4.881  0.0000E+00  0.0000E+00  0.0000E+00  0.0000E+00
     -4.803  0.0000E+00  0.0000E+00  0.0000E+00  0.0000E+00
     -4.725  0.0000E+00  0.0000E+00  0.0000E+00  0.0000E+00
     -4.647  0.0000E+00  0.0000E+00  0.0000E+00  0.0000E+00
     -4.568  0.1230E-05  0.1240E-05  0.9625E-07  0.9706E-07
     -4.490  0.7189E-05  0.7250E-05  0.6588E-06  0.6644E-06
     -4.412  0.4437E-04  0.4474E-04  0.4130E-05  0.4165E-05
     -4.334  0.2239E-03  0.2257E-03  0.2165E-04  0.2183E-04
     -4.255  0.1009E-02  0.1017E-02  0.1006E-03  0.1014E-03
     -4.177  0.4155E-02  0.4185E-02  0.4257E-03  0.4288E-03
     -4.099  0.1327E-01  0.1334E-01  0.1464E-02  0.1473E-02
     -4.021  0.3174E-01  0.3187E-01  0.3948E-02  0.3967E-02
     -3.942  0.5352E-01  0.5361E-01  0.8136E-02  0.8162E-02
     -3.864  0.5814E-01  0.5811E-01  0.1269E-01  0.1271E-01
     -3.786  0.5563E-01  0.5569E-01  0.1704E-01  0.1707E-01
     -3.708  0.8597E-01  0.8620E-01  0.2377E-01  0.2381E-01
     -3.629  0.1143E+00  0.1143E+00  0.3271E-01  0.3276E-01
     -3.551  0.1022E+00  0.1021E+00  0.4071E-01  0.4075E-01
     -3.473  0.9150E-01  0.9148E-01  0.4788E-01  0.4791E-01
     -3.395  0.9333E-01  0.9337E-01  0.5518E-01  0.5522E-01
     -3.316  0.1104E+00  0.1105E+00  0.6382E-01  0.6387E-01
     -3.238  0.1319E+00  0.1319E+00  0.7415E-01  0.7421E-01
     -3.160  0.1396E+00  0.1396E+00  0.8507E-01  0.8513E-01
     -3.082  0.1369E+00  0.1368E+00  0.9579E-01  0.9584E-01
     -3.003  0.1351E+00  0.1352E+00  0.1064E+00  0.1064E+00
     -2.925  0.1790E+00  0.1793E+00  0.1204E+00  0.1205E+00
     -2.847  0.1817E+00  0.1814E+00  0.1346E+00  0.1347E+00
     -2.769  0.1187E+00  0.1184E+00  0.1439E+00  0.1439E+00
     -2.690  0.9331E-01  0.9332E-01  0.1512E+00  0.1512E+00
     -2.612  0.1218E+00  0.1221E+00  0.1607E+00  0.1608E+00
     -2.534  0.1954E+00  0.1958E+00  0.1760E+00  0.1761E+00
     -2.456  0.2342E+00  0.2342E+00  0.1944E+00  0.1945E+00
     -2.377  0.2224E+00  0.2223E+00  0.2118E+00  0.2119E+00
     -2.299  0.1944E+00  0.1942E+00  0.2270E+00  0.2271E+00
     -2.221  0.1630E+00  0.1629E+00  0.2398E+00  0.2398E+00
     -2.143  0.1668E+00  0.1669E+00  0.2528E+00  0.2529E+00
     -2.064  0.1912E+00  0.1913E+00  0.2678E+00  0.2679E+00
     -1.986  0.1960E+00  0.1959E+00  0.2832E+00  0.2832E+00
     -1.908  0.1736E+00  0.1736E+00  0.2968E+00  0.2968E+00
     -1.830  0.1931E+00  0.1934E+00  0.3119E+00  0.3120E+00
     -1.752  0.2515E+00  0.2517E+00  0.3316E+00  0.3317E+00
     -1.673  0.2355E+00  0.2352E+00  0.3500E+00  0.3501E+00
     -1.595  0.1715E+00  0.1711E+00  0.3635E+00  0.3635E+00
     -1.517  0.1337E+00  0.1337E+00  0.3739E+00  0.3740E+00
     -1.439  0.2140E+00  0.2148E+00  0.3907E+00  0.3908E+00
     -1.360  0.3602E+00  0.3607E+00  0.4189E+00  0.4191E+00
     -1.282  0.3440E+00  0.3435E+00  0.4458E+00  0.4459E+00
     -1.204  0.2433E+00  0.2429E+00  0.4649E+00  0.4650E+00
     -1.126  0.2025E+00  0.2025E+00  0.4807E+00  0.4808E+00
     -1.047  0.2123E+00  0.2123E+00  0.4973E+00  0.4974E+00
     -0.969  0.2063E+00  0.2062E+00  0.5135E+00  0.5136E+00
     -0.891  0.1967E+00  0.1968E+00  0.5289E+00  0.5290E+00
     -0.813  0.1960E+00  0.1959E+00  0.5443E+00  0.5444E+00
     -0.734  0.2033E+00  0.2035E+00  0.5602E+00  0.5603E+00
     -0.656  0.2431E+00  0.2435E+00  0.5792E+00  0.5794E+00
     -0.578  0.3294E+00  0.3298E+00  0.6050E+00  0.6052E+00
     -0.500  0.3697E+00  0.3696E+00  0.6340E+00  0.6341E+00
     -0.421  0.2892E+00  0.2886E+00  0.6566E+00  0.6567E+00
     -0.343  0.2557E+00  0.2560E+00  0.6766E+00  0.6767E+00
     -0.265  0.3374E+00  0.3378E+00  0.7030E+00  0.7032E+00
     -0.187  0.3249E+00  0.3245E+00  0.7285E+00  0.7286E+00
     -0.108  0.2489E+00  0.2486E+00  0.7480E+00  0.7481E+00
     -0.030  0.2198E+00  0.2197E+00  0.7652E+00  0.7653E+00
      0.048  0.2614E+00  0.2619E+00  0.7857E+00  0.7858E+00
      0.126  0.3407E+00  0.3409E+00  0.8124E+00  0.8125E+00
      0.205  0.3031E+00  0.3027E+00  0.8361E+00  0.8362E+00
      0.283  0.2117E+00  0.2113E+00  0.8527E+00  0.8528E+00
      0.361  0.2120E+00  0.2124E+00  0.8693E+00  0.8694E+00
      0.439  0.3225E+00  0.3231E+00  0.8945E+00  0.8947E+00
      0.518  0.3568E+00  0.3567E+00  0.9225E+00  0.9226E+00
      0.596  0.3495E+00  0.3495E+00  0.9499E+00  0.9500E+00
      0.674  0.3129E+00  0.3125E+00  0.9743E+00  0.9745E+00
      0.752  0.2689E+00  0.2689E+00  0.9954E+00  0.9955E+00
      0.831  0.3075E+00  0.3078E+00  0.1019E+01  0.1020E+01
      0.909  0.3559E+00  0.3561E+00  0.1047E+01  0.1048E+01
      0.987  0.3747E+00  0.3747E+00  0.1077E+01  0.1077E+01
      1.065  0.3987E+00  0.3988E+00  0.1108E+01  0.1108E+01
      1.144  0.4469E+00  0.4470E+00  0.1143E+01  0.1143E+01
      1.222  0.4226E+00  0.4221E+00  0.1176E+01  0.1176E+01
      1.300  0.2897E+00  0.2892E+00  0.1199E+01  0.1199E+01
      1.378  0.2328E+00  0.2331E+00  0.1217E+01  0.1217E+01
      1.457  0.3043E+00  0.3045E+00  0.1241E+01  0.1241E+01
      1.535  0.3313E+00  0.3313E+00  0.1267E+01  0.1267E+01
      1.613  0.3171E+00  0.3172E+00  0.1292E+01  0.1292E+01
      1.691  0.3002E+00  0.2997E+00  0.1315E+01  0.1315E+01
      1.770  0.2564E+00  0.2561E+00  0.1335E+01  0.1335E+01
      1.848  0.3098E+00  0.3105E+00  0.1359E+01  0.1360E+01
      1.926  0.4230E+00  0.4234E+00  0.1392E+01  0.1393E+01
      2.004  0.4585E+00  0.4588E+00  0.1428E+01  0.1429E+01
      2.083  0.4685E+00  0.4687E+00  0.1465E+01  0.1465E+01
      2.161  0.4673E+00  0.4671E+00  0.1502E+01  0.1502E+01
      2.239  0.4529E+00  0.4531E+00  0.1537E+01  0.1537E+01
      2.317  0.4675E+00  0.4680E+00  0.1574E+01  0.1574E+01
      2.396  0.4755E+00  0.4752E+00  0.1611E+01  0.1611E+01
      2.474  0.4309E+00  0.4301E+00  0.1645E+01  0.1645E+01
      2.552  0.3513E+00  0.3509E+00  0.1672E+01  0.1672E+01
      2.630  0.2738E+00  0.2737E+00  0.1694E+01  0.1694E+01
      2.709  0.2340E+00  0.2342E+00  0.1712E+01  0.1712E+01
      2.787  0.2917E+00  0.2923E+00  0.1735E+01  0.1735E+01
      2.865  0.4316E+00  0.4326E+00  0.1769E+01  0.1769E+01
      2.943  0.5211E+00  0.5210E+00  0.1809E+01  0.1810E+01
      3.022  0.4086E+00  0.4072E+00  0.1841E+01  0.1842E+01
      3.100  0.2768E+00  0.2759E+00  0.1863E+01  0.1863E+01
      3.178  0.1734E+00  0.1727E+00  0.1877E+01  0.1877E+01
      3.256  0.1520E+00  0.1522E+00  0.1889E+01  0.1889E+01
      3.335  0.2628E+00  0.2637E+00  0.1909E+01  0.1909E+01
      3.413  0.3599E+00  0.3606E+00  0.1937E+01  0.1938E+01
      3.491  0.3452E+00  0.3456E+00  0.1964E+01  0.1965E+01
      3.569  0.3926E+00  0.3937E+00  0.1995E+01  0.1995E+01
      3.648  0.5637E+00  0.5644E+00  0.2039E+01  0.2040E+01
      3.726  0.6581E+00  0.6571E+00  0.2091E+01  0.2091E+01
      3.804  0.5565E+00  0.5549E+00  0.2134E+01  0.2135E+01
      3.882  0.3816E+00  0.3807E+00  0.2164E+01  0.2164E+01
      3.961  0.3385E+00  0.3386E+00  0.2191E+01  0.2191E+01
      4.039  0.3330E+00  0.3333E+00  0.2217E+01  0.2217E+01
      4.117  0.3182E+00  0.3185E+00  0.2242E+01  0.2242E+01
      4.195  0.3535E+00  0.3538E+00  0.2269E+01  0.2270E+01
      4.274  0.4022E+00  0.4021E+00  0.2301E+01  0.2301E+01
      4.352  0.4247E+00  0.4244E+00  0.2334E+01  0.2334E+01
      4.430  0.4509E+00  0.4505E+00  0.2370E+01  0.2370E+01
      4.508  0.4664E+00  0.4662E+00  0.2406E+01  0.2406E+01
      4.587  0.4194E+00  0.4192E+00  0.2439E+01  0.2439E+01
      4.665  0.3748E+00  0.3754E+00  0.2468E+01  0.2468E+01
      4.743  0.4411E+00  0.4421E+00  0.2503E+01  0.2503E+01
      4.821  0.6186E+00  0.6196E+00  0.2551E+01  0.2551E+01
      4.900  0.6771E+00  0.6770E+00  0.2604E+01  0.2604E+01
      4.978  0.5514E+00  0.5503E+00  0.2647E+01  0.2648E+01
      5.056  0.3577E+00  0.3566E+00  0.2675E+01  0.2676E+01
      5.134  0.2654E+00  0.2654E+00  0.2696E+01  0.2696E+01
      5.213  0.3058E+00  0.3063E+00  0.2720E+01  0.2720E+01
      5.291  0.3519E+00  0.3519E+00  0.2748E+01  0.2748E+01
      5.369  0.3437E+00  0.3432E+00  0.2775E+01  0.2775E+01
      5.447  0.3216E+00  0.3216E+00  0.2800E+01  0.2800E+01
      5.526  0.4659E+00  0.4669E+00  0.2836E+01  0.2837E+01
      5.604  0.6363E+00  0.6364E+00  0.2886E+01  0.2886E+01
      5.682  0.5680E+00  0.5673E+00  0.2931E+01  0.2931E+01
      5.760  0.4963E+00  0.4963E+00  0.2969E+01  0.2970E+01
      5.838  0.4557E+00  0.4556E+00  0.3005E+01  0.3005E+01
      5.917  0.3730E+00  0.3730E+00  0.3034E+01  0.3034E+01
      5.995  0.3509E+00  0.3511E+00  0.3062E+01  0.3062E+01
      6.073  0.3760E+00  0.3761E+00  0.3091E+01  0.3091E+01
      6.151  0.3757E+00  0.3756E+00  0.3121E+01  0.3121E+01
      6.230  0.3823E+00  0.3823E+00  0.3151E+01  0.3151E+01
      6.308  0.3850E+00  0.3852E+00  0.3181E+01  0.3181E+01
      6.386  0.4684E+00  0.4687E+00  0.3217E+01  0.3218E+01
      6.464  0.6277E+00  0.6280E+00  0.3267E+01  0.3267E+01
      6.543  0.6742E+00  0.6740E+00  0.3319E+01  0.3320E+01
      6.621  0.5831E+00  0.5826E+00  0.3365E+01  0.3365E+01
      6.699  0.4805E+00  0.4802E+00  0.3403E+01  0.3403E+01
      6.777  0.4169E+00  0.4167E+00  0.3435E+01  0.3435E+01
      6.856  0.3520E+00  0.3515E+00  0.3463E+01  0.3463E+01
      6.934  0.2779E+00  0.2779E+00  0.3485E+01  0.3485E+01
      7.012  0.3348E+00  0.3356E+00  0.3511E+01  0.3511E+01
      7.090  0.4578E+00  0.4583E+00  0.3547E+01  0.3547E+01
      7.169  0.5472E+00  0.5474E+00  0.3590E+01  0.3590E+01
      7.247  0.6029E+00  0.6032E+00  0.3637E+01  0.3637E+01
      7.325  0.7118E+00  0.7120E+00  0.3693E+01  0.3693E+01
      7.403  0.7705E+00  0.7702E+00  0.3753E+01  0.3753E+01
      7.482  0.5539E+00  0.5527E+00  0.3796E+01  0.3796E+01
      7.560  0.3537E+00  0.3530E+00  0.3824E+01  0.3824E+01
      7.638  0.4151E+00  0.4153E+00  0.3856E+01  0.3857E+01
      7.716  0.5424E+00  0.5426E+00  0.3899E+01  0.3899E+01
      7.795  0.5146E+00  0.5149E+00  0.3939E+01  0.3939E+01
      7.873  0.4566E+00  0.4571E+00  0.3975E+01  0.3975E+01
      7.951  0.4379E+00  0.4381E+00  0.4009E+01  0.4009E+01
      8.029  0.4807E+00  0.4808E+00  0.4047E+01  0.4047E+01
      8.108  0.4908E+00  0.4905E+00  0.4085E+01  0.4086E+01
      8.186  0.5018E+00  0.5021E+00  0.4125E+01  0.4125E+01
      8.264  0.5550E+00  0.5548E+00  0.4168E+01  0.4168E+01
      8.342  0.5854E+00  0.5850E+00  0.4214E+01  0.4214E+01
      8.421  0.5924E+00  0.5922E+00  0.4260E+01  0.4260E+01
      8.499  0.5565E+00  0.5567E+00  0.4304E+01  0.4304E+01
      8.577  0.5490E+00  0.5496E+00  0.4347E+01  0.4347E+01
      8.655  0.5713E+00  0.5717E+00  0.4392E+01  0.4392E+01
      8.734  0.5543E+00  0.5540E+00  0.4435E+01  0.4435E+01
      8.812  0.4404E+00  0.4399E+00  0.4470E+01  0.4470E+01
      8.890  0.4224E+00  0.4225E+00  0.4503E+01  0.4503E+01
      8.968  0.4722E+00  0.4722E+00  0.4540E+01  0.4540E+01
      9.047  0.4740E+00  0.4738E+00  0.4577E+01  0.4577E+01
      9.125  0.4568E+00  0.4567E+00  0.4613E+01  0.4613E+01
      9.203  0.4142E+00  0.4142E+00  0.4645E+01  0.4645E+01
      9.281  0.3790E+00  0.3793E+00  0.4675E+01  0.4675E+01
      9.360  0.3917E+00  0.3920E+00  0.4705E+01  0.4706E+01
      9.438  0.4281E+00  0.4277E+00  0.4739E+01  0.4739E+01
      9.516  0.5105E+00  0.5106E+00  0.4779E+01  0.4779E+01
      9.594  0.6235E+00  0.6236E+00  0.4828E+01  0.4828E+01
      9.673  0.5410E+00  0.5402E+00  0.4870E+01  0.4870E+01
      9.751  0.3722E+00  0.3717E+00  0.4899E+01  0.4899E+01
      9.829  0.3503E+00  0.3510E+00  0.4927E+01  0.4927E+01
      9.907  0.4723E+00  0.4734E+00  0.4964E+01  0.4964E+01
      9.986  0.6158E+00  0.6164E+00  0.5012E+01  0.5012E+01
     10.064  0.6657E+00  0.6657E+00  0.5064E+01  0.5064E+01
     10.142  0.7708E+00  0.7714E+00  0.5124E+01  0.5125E+01
     10.220  0.7695E+00  0.7690E+00  0.5184E+01  0.5185E+01
     10.299  0.5571E+00  0.5562E+00  0.5228E+01  0.5228E+01
     10.377  0.4591E+00  0.4592E+00  0.5264E+01  0.5264E+01
     10.455  0.4003E+00  0.3997E+00  0.5295E+01  0.5296E+01
     10.533  0.3072E+00  0.3065E+00  0.5320E+01  0.5320E+01
     10.612  0.3248E+00  0.3252E+00  0.5345E+01  0.5345E+01
     10.690  0.5173E+00  0.5184E+00  0.5386E+01  0.5386E+01
     10.768  0.7053E+00  0.7054E+00  0.5441E+01  0.5441E+01
     10.846  0.6858E+00  0.6855E+00  0.5494E+01  0.5495E+01
     10.925  0.6184E+00  0.6185E+00  0.5543E+01  0.5543E+01
     11.003  0.5347E+00  0.5348E+00  0.5585E+01  0.5585E+01
     11.081  0.5125E+00  0.5130E+00  0.5625E+01  0.5625E+01
     11.159  0.5927E+00  0.5929E+00  0.5671E+01  0.5671E+01
     11.238  0.6616E+00  0.6617E+00  0.5723E+01  0.5723E+01
     11.316  0.6837E+00  0.6833E+00  0.5777E+01  0.5777E+01
     11.394  0.5810E+00  0.5805E+00  0.5822E+01  0.5822E+01
     11.472  0.5646E+00  0.5650E+00  0.5866E+01  0.5866E+01
     11.551  0.5999E+00  0.6001E+00  0.5913E+01  0.5913E+01
     11.629  0.5080E+00  0.5073E+00  0.5953E+01  0.5953E+01
     11.707  0.4235E+00  0.4233E+00  0.5986E+01  0.5986E+01
     11.785  0.4686E+00  0.4688E+00  0.6023E+01  0.6023E+01
     11.864  0.5684E+00  0.5690E+00  0.6067E+01  0.6068E+01
     11.942  0.6645E+00  0.6650E+00  0.6119E+01  0.6120E+01
     12.020  0.6545E+00  0.6542E+00  0.6171E+01  0.6171E+01
     12.098  0.5788E+00  0.5785E+00  0.6216E+01  0.6216E+01
     12.177  0.6535E+00  0.6541E+00  0.6267E+01  0.6267E+01
     12.255  0.7683E+00  0.7679E+00  0.6327E+01  0.6328E+01
     12.333  0.6740E+00  0.6731E+00  0.6380E+01  0.6380E+01
     12.411  0.4981E+00  0.4977E+00  0.6419E+01  0.6419E+01
     12.490  0.3942E+00  0.3941E+00  0.6450E+01  0.6450E+01
     12.568  0.4060E+00  0.4064E+00  0.6482E+01  0.6482E+01
     12.646  0.4507E+00  0.4510E+00  0.6517E+01  0.6517E+01
     12.724  0.5108E+00  0.5113E+00  0.6557E+01  0.6557E+01
     12.803  0.6751E+00  0.6757E+00  0.6610E+01  0.6610E+01
     12.881  0.7967E+00  0.7970E+00  0.6672E+01  0.6673E+01
     12.959  0.8012E+00  0.8010E+00  0.6735E+01  0.6735E+01
     13.037  0.6995E+00  0.6984E+00  0.6790E+01  0.6790E+01
     13.116  0.5840E+00  0.5833E+00  0.6835E+01  0.6836E+01
     13.194  0.4619E+00  0.4616E+00  0.6872E+01  0.6872E+01
     13.272  0.4242E+00  0.4241E+00  0.6905E+01  0.6905E+01
     13.350  0.4553E+00  0.4555E+00  0.6941E+01  0.6941E+01
     13.428  0.4495E+00  0.4495E+00  0.6976E+01  0.6976E+01
     13.507  0.4576E+00  0.4577E+00  0.7012E+01  0.7012E+01
     13.585  0.5090E+00  0.5094E+00  0.7051E+01  0.7052E+01
     13.663  0.6281E+00  0.6287E+00  0.7101E+01  0.7101E+01
     13.741  0.6584E+00  0.6582E+00  0.7152E+01  0.7152E+01
     13.820  0.5288E+00  0.5281E+00  0.7194E+01  0.7194E+01
     13.898  0.4005E+00  0.4000E+00  0.7225E+01  0.7225E+01
     13.976  0.4046E+00  0.4045E+00  0.7257E+01  0.7257E+01
     14.054  0.4850E+00  0.4856E+00  0.7295E+01  0.7295E+01
     14.133  0.6121E+00  0.6126E+00  0.7343E+01  0.7343E+01
     14.211  0.6063E+00  0.6058E+00  0.7390E+01  0.7390E+01
     14.289  0.4440E+00  0.4431E+00  0.7425E+01  0.7425E+01
     14.367  0.3072E+00  0.3069E+00  0.7449E+01  0.7449E+01
     14.446  0.2960E+00  0.2966E+00  0.7472E+01  0.7472E+01
     14.524  0.3967E+00  0.3976E+00  0.7503E+01  0.7503E+01
     14.602  0.4787E+00  0.4785E+00  0.7541E+01  0.7541E+01
     14.680  0.4526E+00  0.4522E+00  0.7576E+01  0.7576E+01
     14.759  0.4251E+00  0.4251E+00  0.7609E+01  0.7610E+01
     14.837  0.3709E+00  0.3708E+00  0.7638E+01  0.7639E+01
     14.915  0.3389E+00  0.3388E+00  0.7665E+01  0.7665E+01
     14.993  0.2982E+00  0.2979E+00  0.7688E+01  0.7688E+01
     15.072  0.2326E+00  0.2324E+00  0.7707E+01  0.7707E+01
     15.150  0.2229E+00  0.2229E+00  0.7724E+01  0.7724E+01
     15.228  0.2667E+00  0.2665E+00  0.7745E+01  0.7745E+01
     15.306  0.2606E+00  0.2590E+00  0.7765E+01  0.7765E+01
     15.385  0.2421E+00  0.2353E+00  0.7784E+01  0.7784E+01
     15.463  0.2141E+00  0.2013E+00  0.7801E+01  0.7799E+01
     15.541  0.2077E+00  0.2104E+00  0.7817E+01  0.7816E+01
     15.619  0.2029E+00  0.2150E+00  0.7833E+01  0.7833E+01
     15.698  0.2035E+00  0.2085E+00  0.7849E+01  0.7849E+01
     15.776  0.2144E+00  0.2159E+00  0.7866E+01  0.7866E+01
     15.854  0.2043E+00  0.2046E+00  0.7882E+01  0.7882E+01
     15.932  0.1626E+00  0.1624E+00  0.7895E+01  0.7895E+01
     16.011  0.1482E+00  0.1482E+00  0.7906E+01  0.7906E+01
     16.089  0.1746E+00  0.1749E+00  0.7920E+01  0.7920E+01
     16.167  0.1871E+00  0.1868E+00  0.7935E+01  0.7935E+01
     16.245  0.1426E+00  0.1422E+00  0.7946E+01  0.7946E+01
     16.324  0.9977E-01  0.9969E-01  0.7954E+01  0.7954E+01
     16.402  0.6072E-01  0.6047E-01  0.7958E+01  0.7958E+01
     16.480  0.2164E-01  0.2146E-01  0.7960E+01  0.7960E+01
     16.558  0.6682E-02  0.6652E-02  0.7961E+01  0.7961E+01
     16.637  0.8643E-02  0.8713E-02  0.7961E+01  0.7961E+01
     16.715  0.3029E-01  0.3055E-01  0.7964E+01  0.7964E+01
     16.793  0.7687E-01  0.7717E-01  0.7970E+01  0.7970E+01
     16.871  0.9654E-01  0.9649E-01  0.7977E+01  0.7977E+01
     16.950  0.8285E-01  0.8291E-01  0.7984E+01  0.7984E+01
     17.028  0.8429E-01  0.8425E-01  0.7990E+01  0.7990E+01
     17.106  0.5626E-01  0.5592E-01  0.7995E+01  0.7995E+01
     17.184  0.2996E-01  0.2981E-01  0.7997E+01  0.7997E+01
     17.263  0.2256E-01  0.2250E-01  0.7999E+01  0.7999E+01
     17.341  0.1084E-01  0.1078E-01  0.8000E+01  0.8000E+01
     17.419  0.2896E-02  0.2876E-02  0.8000E+01  0.8000E+01
     17.497  0.6316E-03  0.6270E-03  0.8000E+01  0.8000E+01
     17.576  0.1341E-03  0.1331E-03  0.8000E+01  0.8000E+01
     17.654  0.0000E+00  0.0000E+00  0.8000E+01  0.8000E+01
     17.732  0.0000E+00  0.0000E+00  0.8000E+01  0.8000E+01
     17.810  0.0000E+00  0.0000E+00  0.8000E+01  0.8000E+01
     17.889  0.0000E+00  0.0000E+00  0.8000E+01  0.8000E+01
     17.967  0.0000E+00  0.0000E+00  0.8000E+01  0.8000E+01
     18.045  0.0000E+00  0.0000E+00  0.8000E+01  0.8000E+01
     18.123  0.0000E+00  0.0000E+00  0.8000E+01  0.8000E+01
     18.202  0.0000E+00  0.0000E+00  0.8000E+01  0.8000E+01
     18.280  0.0000E+00  0.0000E+00  0.8000E+01  0.8000E+01
     18.27983782     -5.19439213  301      3.57902288      1.00000000
     -5.194  0.0000E+00  0.0000E+00  0.0000E+00  0.0000E+00  0.0000E+00  0.0000E+00  0.0000E+00  0.0000E+00  0.0000E+00  0.0000E+00  0.0000E+00  0.0000E+00  0.0000E+00  0.0000E+00  0.0000E+00  0.0000E+00  0.0000E+00  0.0000E+00
     -5.116  0.0000E+00  0.0000E+00  0.0000E+00  0.0000E+00  0.0000E+00  0.0000E+00  0.0000E+00  0.0000E+00  0.0000E+00  0.0000E+00  0.0000E+00  0.0000E+00  0.0000E+00  0.0000E+00  0.0000E+00  0.0000E+00  0.0000E+00  0.0000E+00
     -5.038  0.0000E+00  0.0000E+00  0.0000E+00  0.0000E+00  0.0000E+00  0.0000E+00  0.0000E+00  0.0000E+00  0.0000E+00  0.0000E+00  0.0000E+00  0.0000E+00  0.0000E+00  0.0000E+00  0.0000E+00  0.0000E+00  0.0000E+00  0.0000E+00
     -4.960  0.0000E+00  0.0000E+00  0.0000E+00  0.0000E+00  0.0000E+00  0.0000E+00  0.0000E+00  0.0000E+00  0.0000E+00  0.0000E+00  0.0000E+00  0.0000E+00  0.0000E+00  0.0000E+00  0.0000E+00  0.0000E+00  0.0000E+00  0.0000E+00
     -4.881  0.0000E+00  0.0000E+00  0.0000E+00  0.0000E+00  0.0000E+00  0.0000E+00  0.0000E+00  0.0000E+00  0.0000E+00  0.0000E+00  0.0000E+00  0.0000E+00  0.0000E+00  0.0000E+00  0.0000E+00  0.0000E+00  0.0000E+00  0.0000E+00
     -4.803  0.0000E+00  0.0000E+00  0.0000E+00  0.0000E+00  0.0000E+00  0.0000E+00  0.0000E+00  0.0000E+00  0.0000E+00  0.0000E+00  0.0000E+00  0.0000E+00  0.0000E+00  0.0000E+00  0.0000E+00  0.0000E+00  0.0000E+00  0.0000E+00
     -4.725  0.0000E+00  0.0000E+00  0.0000E+00  0.0000E+00  0.0000E+00  0.0000E+00  0.0000E+00  0.0000E+00  0.0000E+00  0.0000E+00  0.0000E+00  0.0000E+00  0.0000E+00  0.0000E+00  0.0000E+00  0.0000E+00  0.0000E+00  0.0000E+00
     -4.647  0.0000E+00  0.0000E+00  0.0000E+00  0.0000E+00  0.0000E+00  0.0000E+00  0.0000E+00  0.0000E+00  0.0000E+00  0.0000E+00  0.0000E+00  0.0000E+00  0.0000E+00  0.0000E+00  0.0000E+00  0.0000E+00  0.0000E+00  0.0000E+00
     -4.568  0.1236E-06  0.1247E-06  0.7372E-22  0.7422E-22  0.1126E-23  0.1136E-23  0.7372E-22  0.7422E-22  0.2471E-21  0.3052E-21  0.8293E-24  0.9599E-24  0.1595E-13  0.1311E-13  0.8293E-24  0.9599E-24  0.2471E-21  0.3052E-21
     -4.490  0.7207E-06  0.7268E-06  0.4295E-21  0.4132E-21  0.1786E-08  0.1801E-08  0.4295E-21  0.4132E-21  0.1661E-20  0.2033E-20  0.1050E-22  0.9747E-23  0.1841E-11  0.1871E-11  0.1050E-22  0.9747E-23  0.1661E-20  0.2033E-20
     -4.412  0.4437E-05  0.4474E-05  0.7467E-08  0.7529E-08  0.6751E-08  0.6807E-08  0.7467E-08  0.7529E-08  0.1310E-10  0.1322E-10  0.3772E-21  0.1991E-21  0.1754E-10  0.1763E-10  0.3772E-21  0.1991E-21  0.1310E-10  0.1322E-10
     -4.334  0.2236E-04  0.2255E-04  0.4363E-07  0.4399E-07  0.5046E-07  0.5088E-07  0.4363E-07  0.4399E-07  0.7662E-10  0.7733E-10  0.5583E-10  0.5648E-10  0.7322E-10  0.7368E-10  0.5583E-10  0.5648E-10  0.7662E-10  0.7733E-10
     -4.255  0.1007E-03  0.1016E-03  0.1924E-06  0.1940E-06  0.2284E-06  0.2303E-06  0.1924E-06  0.1940E-06  0.3379E-09  0.3410E-09  0.2109E-09  0.2134E-09  0.3846E-09  0.3871E-09  0.2109E-09  0.2134E-09  0.3379E-09  0.3410E-09
     -4.177  0.4147E-03  0.4176E-03  0.9161E-06  0.9236E-06  0.1032E-05  0.1040E-05  0.9161E-06  0.9236E-06  0.1652E-08  0.1668E-08  0.1003E-08  0.1015E-08  0.1769E-08  0.1781E-08  0.1003E-08  0.1015E-08  0.1652E-08  0.1668E-08
     -4.099  0.1321E-02  0.1329E-02  0.4047E-05  0.4078E-05  0.4140E-05  0.4167E-05  0.4047E-05  0.4078E-05  0.7365E-08  0.7427E-08  0.5025E-08  0.5081E-08  0.7320E-08  0.7361E-08  0.5025E-08  0.5081E-08  0.7365E-08  0.7427E-08
     -4.021  0.3150E-02  0.3162E-02  0.1396E-04  0.1403E-04  0.1186E-04  0.1192E-04  0.1396E-04  0.1403E-04  0.2580E-07  0.2597E-07  0.2113E-07  0.2135E-07  0.2107E-07  0.2112E-07  0.2113E-07  0.2135E-07  0.2580E-07  0.2597E-07
     -3.942  0.5292E-02  0.5301E-02  0.2938E-04  0.2945E-04  0.2695E-04  0.2704E-04  0.2938E-04  0.2945E-04  0.5789E-07  0.5811E-07  0.6569E-07  0.6618E-07  0.4267E-07  0.4271E-07  0.6569E-07  0.6618E-07  0.5789E-07  0.5811E-07
     -3.864  0.5723E-02  0.5720E-02  0.3702E-04  0.3703E-04  0.4454E-04  0.4461E-04  0.3702E-04  0.3703E-04  0.9340E-07  0.9372E-07  0.1094E-06  0.1098E-06  0.1037E-06  0.1040E-06  0.1094E-06  0.1098E-06  0.9340E-07  0.9372E-07
     -3.786  0.5422E-02  0.5428E-02  0.5102E-04  0.5119E-04  0.6362E-04  0.6378E-04  0.5102E-04  0.5119E-04  0.2009E-06  0.2020E-06  0.1715E-06  0.1726E-06  0.2691E-06  0.2696E-06  0.1715E-06  0.1726E-06  0.2009E-06  0.2020E-06
     -3.708  0.8305E-02  0.8328E-02  0.1076E-03  0.1080E-03  0.1135E-03  0.1138E-03  0.1076E-03  0.1080E-03  0.4961E-06  0.4984E-06  0.4258E-06  0.4285E-06  0.5403E-06  0.5402E-06  0.4258E-06  0.4285E-06  0.4961E-06  0.4984E-06
     -3.629  0.1100E-01  0.1100E-01  0.1688E-03  0.1690E-03  0.1442E-03  0.1441E-03  0.1688E-03  0.1690E-03  0.8601E-06  0.8623E-06  0.6819E-06  0.6837E-06  0.7307E-06  0.7291E-06  0.6819E-06  0.6837E-06  0.8601E-06  0.8623E-06
     -3.551  0.9775E-02  0.9767E-02  0.1841E-03  0.1841E-03  0.1171E-03  0.1170E-03  0.1841E-03  0.1841E-03  0.1066E-05  0.1067E-05  0.7570E-06  0.7588E-06  0.7366E-06  0.7348E-06  0.7570E-06  0.7588E-06  0.1066E-05  0.1067E-05
     -3.473  0.8679E-02  0.8677E-02  0.1740E-03  0.1739E-03  0.1574E-03  0.1579E-03  0.1740E-03  0.1739E-03  0.1054E-05  0.1054E-05  0.1139E-05  0.1143E-05  0.8897E-06  0.8907E-06  0.1139E-05  0.1143E-05  0.1054E-05  0.1054E-05
     -3.395  0.8773E-02  0.8777E-02  0.1633E-03  0.1633E-03  0.2652E-03  0.2658E-03  0.1633E-03  0.1633E-03  0.1004E-05  0.1005E-05  0.1772E-05  0.1776E-05  0.1460E-05  0.1464E-05  0.1772E-05  0.1776E-05  0.1004E-05  0.1005E-05
     -3.316  0.1028E-01  0.1030E-01  0.2060E-03  0.2065E-03  0.3758E-03  0.3762E-03  0.2060E-03  0.2065E-03  0.1521E-05  0.1527E-05  0.2398E-05  0.2402E-05  0.2655E-05  0.2661E-05  0.2398E-05  0.2402E-05  0.1521E-05  0.1527E-05
     -3.238  0.1220E-01  0.1221E-01  0.3283E-03  0.3291E-03  0.3627E-03  0.3620E-03  0.3283E-03  0.3291E-03  0.3083E-05  0.3094E-05  0.2521E-05  0.2520E-05  0.3637E-05  0.3633E-05  0.2521E-05  0.2520E-05  0.3083E-05  0.3094E-05
     -3.160  0.1283E-01  0.1283E-01  0.4629E-03  0.4634E-03  0.2406E-03  0.2403E-03  0.4629E-03  0.4634E-03  0.4977E-05  0.4986E-05  0.2392E-05  0.2396E-05  0.3832E-05  0.3820E-05  0.2392E-05  0.2396E-05  0.4977E-05  0.4986E-05
     -3.082  0.1249E-01  0.1248E-01  0.4700E-03  0.4695E-03  0.2889E-03  0.2895E-03  0.4700E-03  0.4695E-03  0.5114E-05  0.5111E-05  0.3462E-05  0.3472E-05  0.3845E-05  0.3833E-05  0.3462E-05  0.3472E-05  0.5114E-05  0.5111E-05
     -3.003  0.1220E-01  0.1221E-01  0.4435E-03  0.4439E-03  0.4404E-03  0.4412E-03  0.4435E-03  0.4439E-03  0.4874E-05  0.4881E-05  0.5379E-05  0.5394E-05  0.4246E-05  0.4245E-05  0.5379E-05  0.5394E-05  0.4874E-05  0.4881E-05
     -2.925  0.1604E-01  0.1606E-01  0.6323E-03  0.6334E-03  0.6221E-03  0.6230E-03  0.6323E-03  0.6334E-03  0.7454E-05  0.7469E-05  0.8342E-05  0.8360E-05  0.6065E-05  0.6069E-05  0.8342E-05  0.8360E-05  0.7454E-05  0.7469E-05
     -2.847  0.1621E-01  0.1619E-01  0.6403E-03  0.6391E-03  0.6941E-03  0.6938E-03  0.6403E-03  0.6391E-03  0.7789E-05  0.7775E-05  0.8468E-05  0.8456E-05  0.8209E-05  0.8211E-05  0.8468E-05  0.8456E-05  0.7789E-05  0.7775E-05
     -2.769  0.1052E-01  0.1050E-01  0.3595E-03  0.3583E-03  0.6345E-03  0.6341E-03  0.3595E-03  0.3583E-03  0.4473E-05  0.4460E-05  0.5421E-05  0.5412E-05  0.9743E-05  0.9744E-05  0.5421E-05  0.5412E-05  0.4473E-05  0.4460E-05
     -2.690  0.8169E-02  0.8170E-02  0.3132E-03  0.3138E-03  0.5333E-03  0.5326E-03  0.3132E-03  0.3138E-03  0.4408E-05  0.4421E-05  0.5381E-05  0.5392E-05  0.8213E-05  0.8196E-05  0.5381E-05  0.5392E-05  0.4408E-05  0.4421E-05
     -2.612  0.1053E-01  0.1056E-01  0.5398E-03  0.5415E-03  0.5590E-03  0.5601E-03  0.5398E-03  0.5415E-03  0.8355E-05  0.8383E-05  0.9209E-05  0.9241E-05  0.7476E-05  0.7484E-05  0.9209E-05  0.9241E-05  0.8355E-05  0.8383E-05
     -2.534  0.1677E-01  0.1680E-01  0.9096E-03  0.9117E-03  0.9226E-03  0.9245E-03  0.9096E-03  0.9117E-03  0.1470E-04  0.1474E-04  0.1602E-04  0.1606E-04  0.1309E-04  0.1312E-04  0.1602E-04  0.1606E-04  0.1470E-04  0.1474E-04
     -2.456  0.1999E-01  0.1999E-01  0.1175E-02  0.1175E-02  0.1032E-02  0.1031E-02  0.1175E-02  0.1175E-02  0.2068E-04  0.2070E-04  0.1738E-04  0.1737E-04  0.1912E-04  0.1912E-04  0.1738E-04  0.1737E-04  0.2068E-04  0.2070E-04
     -2.377  0.1885E-01  0.1884E-01  0.1233E-02  0.1233E-02  0.8695E-03  0.8688E-03  0.1233E-02  0.1233E-02  0.2349E-04  0.2349E-04  0.1541E-04  0.1541E-04  0.2046E-04  0.2042E-04  0.1541E-04  0.1541E-04  0.2349E-04  0.2349E-04
     -2.299  0.1635E-01  0.1633E-01  0.1124E-02  0.1123E-02  0.7805E-03  0.7801E-03  0.1124E-02  0.1123E-02  0.2179E-04  0.2177E-04  0.1643E-04  0.1643E-04  0.1633E-04  0.1628E-04  0.1643E-04  0.1643E-04  0.2179E-04  0.2177E-04
     -2.221  0.1358E-01  0.1357E-01  0.9429E-03  0.9421E-03  0.7728E-03  0.7729E-03  0.9429E-03  0.9421E-03  0.1855E-04  0.1854E-04  0.1676E-04  0.1676E-04  0.1462E-04  0.1462E-04  0.1676E-04  0.1676E-04  0.1855E-04  0.1854E-04
     -2.143  0.1374E-01  0.1375E-01  0.9447E-03  0.9451E-03  0.9707E-03  0.9725E-03  0.9447E-03  0.9451E-03  0.1966E-04  0.1968E-04  0.1742E-04  0.1744E-04  0.2281E-04  0.2287E-04  0.1742E-04  0.1744E-04  0.1966E-04  0.1968E-04
     -2.064  0.1562E-01  0.1562E-01  0.1020E-02  0.1020E-02  0.1359E-02  0.1360E-02  0.1020E-02  0.1020E-02  0.2151E-04  0.2152E-04  0.2189E-04  0.2193E-04  0.3313E-04  0.3314E-04  0.2189E-04  0.2193E-04  0.2151E-04  0.2152E-04
     -1.986  0.1589E-01  0.1588E-01  0.1066E-02  0.1066E-02  0.1461E-02  0.1460E-02  0.1066E-02  0.1066E-02  0.2216E-04  0.2216E-04  0.2835E-04  0.2837E-04  0.2993E-04  0.2987E-04  0.2835E-04  0.2837E-04  0.2216E-04  0.2216E-04
     -1.908  0.1394E-01  0.1394E-01  0.9803E-03  0.9799E-03  0.1338E-02  0.1338E-02  0.9803E-03  0.9799E-03  0.2040E-04  0.2039E-04  0.3019E-04  0.3020E-04  0.2361E-04  0.2359E-04  0.3019E-04  0.3020E-04  0.2040E-04  0.2039E-04
     -1.830  0.1531E-01  0.1534E-01  0.1110E-02  0.1112E-02  0.1616E-02  0.1618E-02  0.1110E-02  0.1112E-02  0.2382E-04  0.2387E-04  0.3805E-04  0.3812E-04  0.2850E-04  0.2854E-04  0.3805E-04  0.3812E-04  0.2382E-04  0.2387E-04
     -1.752  0.1980E-01  0.1981E-01  0.1597E-02  0.1599E-02  0.1939E-02  0.1939E-02  0.1597E-02  0.1599E-02  0.3717E-04  0.3724E-04  0.4962E-04  0.4964E-04  0.3663E-04  0.3666E-04  0.4962E-04  0.4964E-04  0.3717E-04  0.3724E-04
     -1.673  0.1843E-01  0.1841E-01  0.1697E-02  0.1697E-02  0.1499E-02  0.1494E-02  0.1697E-02  0.1697E-02  0.4485E-04  0.4487E-04  0.3774E-04  0.3762E-04  0.4137E-04  0.4134E-04  0.3774E-04  0.3762E-04  0.4485E-04  0.4487E-04
     -1.595  0.1331E-01  0.1329E-01  0.1482E-02  0.1480E-02  0.6923E-03  0.6891E-03  0.1482E-02  0.1480E-02  0.4459E-04  0.4457E-04  0.1816E-04  0.1809E-04  0.3528E-04  0.3519E-04  0.1816E-04  0.1809E-04  0.4459E-04  0.4457E-04
     -1.517  0.1023E-01  0.1024E-01  0.1251E-02  0.1252E-02  0.4798E-03  0.4807E-03  0.1251E-02  0.1252E-02  0.3952E-04  0.3953E-04  0.1517E-04  0.1521E-04  0.2861E-04  0.2859E-04  0.1517E-04  0.1521E-04  0.3952E-04  0.3953E-04
     -1.439  0.1611E-01  0.1618E-01  0.1928E-02  0.1935E-02  0.1142E-02  0.1148E-02  0.1928E-02  0.1935E-02  0.6035E-04  0.6056E-04  0.3700E-04  0.3719E-04  0.4635E-04  0.4649E-04  0.3700E-04  0.3719E-04  0.6035E-04  0.6056E-04
     -1.360  0.2699E-01  0.2703E-01  0.2990E-02  0.2992E-02  0.2553E-02  0.2560E-02  0.2990E-02  0.2992E-02  0.9028E-04  0.9033E-04  0.7612E-04  0.7628E-04  0.8348E-04  0.8360E-04  0.7612E-04  0.7628E-04  0.9028E-04  0.9033E-04
     -1.282  0.2564E-01  0.2561E-01  0.2509E-02  0.2503E-02  0.3239E-02  0.3238E-02  0.2509E-02  0.2503E-02  0.7147E-04  0.7129E-04  0.8537E-04  0.8531E-04  0.9376E-04  0.9367E-04  0.8537E-04  0.8531E-04  0.7147E-04  0.7129E-04