   2   2   1   0
  0.2499459E+02  0.3285303E-09  0.3285303E-09  0.5348037E-09  0.5000000E-15
  1.000000000000000E-004
  CAR 
 unknown system                          
     15.24213360     -5.30267030  301      2.26671458      1.00000000
     -5.303  0.0000E+00  0.0000E+00  0.0000E+00  0.0000E+00
     -5.234  0.0000E+00  0.0000E+00  0.0000E+00  0.0000E+00
     -5.166  0.0000E+00  0.0000E+00  0.0000E+00  0.0000E+00
     -5.097  0.0000E+00  0.0000E+00  0.0000E+00  0.0000E+00
     -5.029  0.0000E+00  0.0000E+00  0.0000E+00  0.0000E+00
     -4.960  0.0000E+00  0.0000E+00  0.0000E+00  0.0000E+00
     -4.892  0.0000E+00  0.0000E+00  0.0000E+00  0.0000E+00
     -4.823  0.1068E-05  0.1083E-05  0.7313E-07  0.7418E-07
     -4.755  0.5415E-05  0.5494E-05  0.4440E-06  0.4504E-06
     -4.686  0.2994E-04  0.3037E-04  0.2494E-05  0.2530E-05
     -4.618  0.1299E-03  0.1318E-03  0.1139E-04  0.1155E-04
     -4.549  0.4846E-03  0.4915E-03  0.4458E-04  0.4521E-04
     -4.481  0.1831E-02  0.1856E-02  0.1700E-03  0.1723E-03
     -4.412  0.6294E-02  0.6370E-02  0.6010E-03  0.6085E-03
     -4.344  0.1763E-01  0.1780E-01  0.1808E-02  0.1827E-02
     -4.275  0.3835E-01  0.3860E-01  0.4434E-02  0.4471E-02
     -4.207  0.6044E-01  0.6061E-01  0.8574E-02  0.8622E-02
     -4.138  0.6728E-01  0.6728E-01  0.1318E-01  0.1323E-01
     -4.070  0.7338E-01  0.7359E-01  0.1821E-01  0.1827E-01
     -4.001  0.1054E+00  0.1058E+00  0.2543E-01  0.2552E-01
     -3.933  0.1269E+00  0.1269E+00  0.3412E-01  0.3421E-01
     -3.865  0.1172E+00  0.1170E+00  0.4214E-01  0.4222E-01
     -3.796  0.1098E+00  0.1097E+00  0.4966E-01  0.4974E-01
     -3.728  0.1159E+00  0.1160E+00  0.5760E-01  0.5769E-01
     -3.659  0.1375E+00  0.1377E+00  0.6702E-01  0.6712E-01
     -3.591  0.1557E+00  0.1559E+00  0.7769E-01  0.7781E-01
     -3.522  0.1627E+00  0.1627E+00  0.8884E-01  0.8896E-01
     -3.454  0.1599E+00  0.1598E+00  0.9980E-01  0.9992E-01
     -3.385  0.1771E+00  0.1775E+00  0.1119E+00  0.1121E+00
     -3.317  0.2104E+00  0.2105E+00  0.1263E+00  0.1265E+00
     -3.248  0.1777E+00  0.1771E+00  0.1385E+00  0.1386E+00
     -3.180  0.1287E+00  0.1284E+00  0.1473E+00  0.1474E+00
     -3.111  0.1294E+00  0.1298E+00  0.1562E+00  0.1563E+00
     -3.043  0.1855E+00  0.1862E+00  0.1689E+00  0.1691E+00
     -2.974  0.2513E+00  0.2518E+00  0.1862E+00  0.1863E+00
     -2.906  0.2616E+00  0.2615E+00  0.2041E+00  0.2043E+00
     -2.837  0.2407E+00  0.2404E+00  0.2206E+00  0.2207E+00
     -2.769  0.2071E+00  0.2068E+00  0.2348E+00  0.2349E+00
     -2.700  0.1941E+00  0.1941E+00  0.2481E+00  0.2482E+00
     -2.632  0.2132E+00  0.2134E+00  0.2627E+00  0.2628E+00
     -2.563  0.2256E+00  0.2256E+00  0.2781E+00  0.2783E+00
     -2.495  0.2140E+00  0.2138E+00  0.2928E+00  0.2929E+00
     -2.426  0.2194E+00  0.2198E+00  0.3078E+00  0.3080E+00
     -2.358  0.2688E+00  0.2693E+00  0.3262E+00  0.3264E+00
     -2.289  0.2763E+00  0.2759E+00  0.3452E+00  0.3453E+00
     -2.221  0.2204E+00  0.2198E+00  0.3603E+00  0.3604E+00
     -2.152  0.1783E+00  0.1782E+00  0.3725E+00  0.3726E+00
     -2.084  0.2352E+00  0.2364E+00  0.3886E+00  0.3888E+00
     -2.016  0.3714E+00  0.3726E+00  0.4141E+00  0.4144E+00
     -1.947  0.3924E+00  0.3917E+00  0.4410E+00  0.4412E+00
     -1.879  0.3042E+00  0.3033E+00  0.4618E+00  0.4620E+00
     -1.810  0.2475E+00  0.2473E+00  0.4788E+00  0.4789E+00
     -1.742  0.2449E+00  0.2449E+00  0.4955E+00  0.4957E+00
     -1.673  0.2408E+00  0.2407E+00  0.5120E+00  0.5122E+00
     -1.605  0.2306E+00  0.2306E+00  0.5279E+00  0.5280E+00
     -1.536  0.2304E+00  0.2305E+00  0.5437E+00  0.5438E+00
     -1.468  0.2418E+00  0.2421E+00  0.5602E+00  0.5604E+00
     -1.399  0.2872E+00  0.2880E+00  0.5799E+00  0.5802E+00
     -1.331  0.3700E+00  0.3709E+00  0.6053E+00  0.6056E+00
     -1.262  0.4064E+00  0.4062E+00  0.6331E+00  0.6334E+00
     -1.194  0.3413E+00  0.3405E+00  0.6565E+00  0.6567E+00
     -1.125  0.3152E+00  0.3156E+00  0.6781E+00  0.6783E+00
     -1.057  0.3766E+00  0.3771E+00  0.7039E+00  0.7042E+00
     -0.988  0.3616E+00  0.3609E+00  0.7287E+00  0.7289E+00
     -0.920  0.2924E+00  0.2919E+00  0.7487E+00  0.7489E+00
     -0.851  0.2668E+00  0.2669E+00  0.7670E+00  0.7672E+00
     -0.783  0.3138E+00  0.3146E+00  0.7885E+00  0.7888E+00
     -0.714  0.3748E+00  0.3750E+00  0.8142E+00  0.8145E+00
     -0.646  0.3324E+00  0.3315E+00  0.8370E+00  0.8372E+00
     -0.577  0.2543E+00  0.2538E+00  0.8544E+00  0.8546E+00
     -0.509  0.2717E+00  0.2725E+00  0.8730E+00  0.8733E+00
     -0.440  0.3698E+00  0.3706E+00  0.8984E+00  0.8987E+00
     -0.372  0.4027E+00  0.4027E+00  0.9260E+00  0.9262E+00
     -0.303  0.3915E+00  0.3912E+00  0.9528E+00  0.9531E+00
     -0.235  0.3482E+00  0.3476E+00  0.9767E+00  0.9769E+00
     -0.166  0.3224E+00  0.3225E+00  0.9987E+00  0.9990E+00
     -0.098  0.3651E+00  0.3657E+00  0.1024E+01  0.1024E+01
     -0.030  0.4058E+00  0.4060E+00  0.1052E+01  0.1052E+01
      0.039  0.4277E+00  0.4279E+00  0.1081E+01  0.1081E+01
      0.107  0.4610E+00  0.4614E+00  0.1112E+01  0.1113E+01
      0.176  0.4963E+00  0.4964E+00  0.1146E+01  0.1147E+01
      0.244  0.4513E+00  0.4504E+00  0.1177E+01  0.1178E+01
      0.313  0.3422E+00  0.3413E+00  0.1201E+01  0.1201E+01
      0.381  0.2935E+00  0.2936E+00  0.1221E+01  0.1221E+01
      0.450  0.3295E+00  0.3299E+00  0.1244E+01  0.1244E+01
      0.518  0.3713E+00  0.3715E+00  0.1269E+01  0.1269E+01
      0.587  0.3554E+00  0.3550E+00  0.1293E+01  0.1294E+01
      0.655  0.3059E+00  0.3053E+00  0.1314E+01  0.1315E+01
      0.724  0.2887E+00  0.2889E+00  0.1334E+01  0.1334E+01
      0.792  0.3813E+00  0.3827E+00  0.1360E+01  0.1361E+01
      0.861  0.4854E+00  0.4862E+00  0.1394E+01  0.1394E+01
      0.929  0.5231E+00  0.5233E+00  0.1429E+01  0.1430E+01
      0.998  0.5398E+00  0.5398E+00  0.1466E+01  0.1467E+01
      1.066  0.5225E+00  0.5224E+00  0.1502E+01  0.1503E+01
      1.135  0.5243E+00  0.5247E+00  0.1538E+01  0.1538E+01
      1.203  0.5352E+00  0.5353E+00  0.1575E+01  0.1575E+01
      1.272  0.4919E+00  0.4914E+00  0.1608E+01  0.1609E+01
      1.340  0.4722E+00  0.4719E+00  0.1641E+01  0.1641E+01
      1.409  0.4503E+00  0.4495E+00  0.1672E+01  0.1672E+01
      1.477  0.3362E+00  0.3348E+00  0.1695E+01  0.1695E+01
      1.546  0.2387E+00  0.2384E+00  0.1711E+01  0.1711E+01
      1.614  0.2954E+00  0.2970E+00  0.1731E+01  0.1732E+01
      1.683  0.4561E+00  0.4581E+00  0.1763E+01  0.1763E+01
      1.751  0.5690E+00  0.5692E+00  0.1802E+01  0.1802E+01
      1.820  0.5144E+00  0.5128E+00  0.1837E+01  0.1837E+01
      1.888  0.4017E+00  0.4005E+00  0.1864E+01  0.1865E+01
      1.956  0.3508E+00  0.3502E+00  0.1888E+01  0.1889E+01
      2.025  0.2990E+00  0.2985E+00  0.1909E+01  0.1909E+01
      2.093  0.2596E+00  0.2600E+00  0.1927E+01  0.1927E+01
      2.162  0.3128E+00  0.3141E+00  0.1948E+01  0.1948E+01
      2.230  0.4415E+00  0.4434E+00  0.1978E+01  0.1979E+01
      2.299  0.6344E+00  0.6365E+00  0.2022E+01  0.2022E+01
      2.367  0.7436E+00  0.7435E+00  0.2073E+01  0.2073E+01
      2.436  0.6425E+00  0.6406E+00  0.2117E+01  0.2117E+01
      2.504  0.4891E+00  0.4876E+00  0.2150E+01  0.2151E+01
      2.573  0.4238E+00  0.4234E+00  0.2179E+01  0.2180E+01
      2.641  0.4086E+00  0.4087E+00  0.2207E+01  0.2208E+01
      2.710  0.4125E+00  0.4127E+00  0.2236E+01  0.2236E+01
      2.778  0.4401E+00  0.4405E+00  0.2266E+01  0.2266E+01
      2.847  0.4598E+00  0.4603E+00  0.2297E+01  0.2298E+01
      2.915  0.4543E+00  0.4542E+00  0.2329E+01  0.2329E+01
      2.984  0.4743E+00  0.4741E+00  0.2361E+01  0.2361E+01
      3.052  0.5091E+00  0.5089E+00  0.2396E+01  0.2396E+01
      3.121  0.4604E+00  0.4596E+00  0.2427E+01  0.2428E+01
      3.189  0.3941E+00  0.3941E+00  0.2454E+01  0.2455E+01
      3.258  0.4273E+00  0.4284E+00  0.2484E+01  0.2484E+01
      3.326  0.5596E+00  0.5612E+00  0.2522E+01  0.2523E+01
      3.395  0.6866E+00  0.6869E+00  0.2569E+01  0.2570E+01
      3.463  0.6676E+00  0.6666E+00  0.2615E+01  0.2615E+01
      3.532  0.5591E+00  0.5579E+00  0.2653E+01  0.2654E+01
      3.600  0.4150E+00  0.4139E+00  0.2682E+01  0.2682E+01
      3.669  0.3233E+00  0.3230E+00  0.2704E+01  0.2704E+01
      3.737  0.3427E+00  0.3435E+00  0.2727E+01  0.2728E+01
      3.806  0.4661E+00  0.4676E+00  0.2759E+01  0.2760E+01
      3.874  0.5526E+00  0.5533E+00  0.2797E+01  0.2798E+01
      3.942  0.6617E+00  0.6634E+00  0.2842E+01  0.2843E+01
      4.011  0.7710E+00  0.7710E+00  0.2895E+01  0.2896E+01
      4.079  0.6166E+00  0.6144E+00  0.2938E+01  0.2938E+01
      4.148  0.4496E+00  0.4485E+00  0.2968E+01  0.2969E+01
      4.216  0.4182E+00  0.4184E+00  0.2997E+01  0.2997E+01
      4.285  0.4715E+00  0.4725E+00  0.3029E+01  0.3030E+01
      4.353  0.5470E+00  0.5473E+00  0.3067E+01  0.3067E+01
      4.422  0.5533E+00  0.5525E+00  0.3105E+01  0.3105E+01
      4.490  0.4874E+00  0.4866E+00  0.3138E+01  0.3138E+01
      4.559  0.4364E+00  0.4360E+00  0.3168E+01  0.3168E+01
      4.627  0.4486E+00  0.4492E+00  0.3199E+01  0.3199E+01
      4.696  0.5122E+00  0.5140E+00  0.3234E+01  0.3234E+01
      4.764  0.6471E+00  0.6490E+00  0.3278E+01  0.3279E+01
      4.833  0.7471E+00  0.7473E+00  0.3329E+01  0.3330E+01
      4.901  0.7320E+00  0.7310E+00  0.3380E+01  0.3380E+01
      4.970  0.6388E+00  0.6373E+00  0.3423E+01  0.3424E+01
      5.038  0.4815E+00  0.4802E+00  0.3456E+01  0.3457E+01
      5.107  0.3961E+00  0.3966E+00  0.3483E+01  0.3484E+01
      5.175  0.4081E+00  0.4085E+00  0.3511E+01  0.3512E+01
      5.244  0.4359E+00  0.4357E+00  0.3541E+01  0.3542E+01
      5.312  0.5370E+00  0.5384E+00  0.3578E+01  0.3579E+01
      5.381  0.6775E+00  0.6788E+00  0.3625E+01  0.3625E+01
      5.449  0.7631E+00  0.7638E+00  0.3677E+01  0.3677E+01
      5.518  0.7536E+00  0.7528E+00  0.3728E+01  0.3729E+01
      5.586  0.6553E+00  0.6543E+00  0.3773E+01  0.3774E+01
      5.655  0.5976E+00  0.5975E+00  0.3814E+01  0.3815E+01
      5.723  0.6253E+00  0.6256E+00  0.3857E+01  0.3858E+01
      5.792  0.5760E+00  0.5748E+00  0.3897E+01  0.3897E+01
      5.860  0.4640E+00  0.4629E+00  0.3928E+01  0.3929E+01
      5.928  0.4577E+00  0.4581E+00  0.3960E+01  0.3960E+01
      5.997  0.5398E+00  0.5407E+00  0.3997E+01  0.3997E+01
      6.065  0.5838E+00  0.5839E+00  0.4037E+01  0.4037E+01
      6.134  0.5730E+00  0.5732E+00  0.4076E+01  0.4077E+01
      6.202  0.5737E+00  0.5739E+00  0.4115E+01  0.4116E+01
      6.271  0.5781E+00  0.5781E+00  0.4155E+01  0.4156E+01
      6.339  0.6052E+00  0.6055E+00  0.4197E+01  0.4197E+01
      6.408  0.6762E+00  0.6767E+00  0.4243E+01  0.4243E+01
      6.476  0.6784E+00  0.6777E+00  0.4289E+01  0.4290E+01
      6.545  0.6337E+00  0.6330E+00  0.4333E+01  0.4333E+01
      6.613  0.5837E+00  0.5832E+00  0.4373E+01  0.4373E+01
      6.682  0.5539E+00  0.5542E+00  0.4411E+01  0.4411E+01
      6.750  0.5872E+00  0.5879E+00  0.4451E+01  0.4451E+01
      6.819  0.6065E+00  0.6064E+00  0.4493E+01  0.4493E+01
      6.887  0.5851E+00  0.5846E+00  0.4533E+01  0.4533E+01
      6.956  0.5674E+00  0.5673E+00  0.4572E+01  0.4572E+01
      7.024  0.5392E+00  0.5384E+00  0.4608E+01  0.4609E+01
      7.093  0.4450E+00  0.4434E+00  0.4639E+01  0.4639E+01
      7.161  0.3654E+00  0.3651E+00  0.4664E+01  0.4664E+01
      7.230  0.3992E+00  0.4004E+00  0.4691E+01  0.4692E+01
      7.298  0.5367E+00  0.5393E+00  0.4728E+01  0.4729E+01
      7.367  0.7714E+00  0.7743E+00  0.4781E+01  0.4782E+01
      7.435  0.9045E+00  0.9047E+00  0.4843E+01  0.4844E+01
      7.504  0.8217E+00  0.8206E+00  0.4899E+01  0.4900E+01
      7.572  0.7132E+00  0.7122E+00  0.4948E+01  0.4949E+01
      7.641  0.6118E+00  0.6105E+00  0.4990E+01  0.4991E+01
      7.709  0.5246E+00  0.5235E+00  0.5026E+01  0.5026E+01
      7.778  0.5240E+00  0.5247E+00  0.5062E+01  0.5062E+01
      7.846  0.6506E+00  0.6525E+00  0.5107E+01  0.5107E+01
      7.914  0.7892E+00  0.7900E+00  0.5161E+01  0.5161E+01
      7.983  0.7905E+00  0.7898E+00  0.5215E+01  0.5215E+01
      8.051  0.6745E+00  0.6731E+00  0.5261E+01  0.5262E+01
      8.120  0.5851E+00  0.5846E+00  0.5301E+01  0.5302E+01
      8.188  0.5962E+00  0.5969E+00  0.5342E+01  0.5342E+01
      8.257  0.5804E+00  0.5797E+00  0.5382E+01  0.5382E+01
      8.325  0.4985E+00  0.4973E+00  0.5416E+01  0.5416E+01
      8.394  0.4710E+00  0.4708E+00  0.5448E+01  0.5449E+01
      8.462  0.5561E+00  0.5573E+00  0.5486E+01  0.5487E+01
      8.531  0.7248E+00  0.7264E+00  0.5536E+01  0.5537E+01
      8.599  0.8380E+00  0.8391E+00  0.5593E+01  0.5594E+01
      8.668  0.8711E+00  0.8718E+00  0.5653E+01  0.5654E+01
      8.736  0.8367E+00  0.8362E+00  0.5710E+01  0.5711E+01
      8.805  0.7291E+00  0.7286E+00  0.5760E+01  0.5761E+01
      8.873  0.6981E+00  0.6984E+00  0.5808E+01  0.5809E+01
      8.942  0.7112E+00  0.7106E+00  0.5857E+01  0.5858E+01
      9.010  0.6388E+00  0.6370E+00  0.5901E+01  0.5901E+01
      9.079  0.4890E+00  0.4872E+00  0.5934E+01  0.5935E+01
      9.147  0.4382E+00  0.4382E+00  0.5964E+01  0.5965E+01
      9.216  0.5292E+00  0.5303E+00  0.6001E+01  0.6001E+01
      9.284  0.6286E+00  0.6296E+00  0.6044E+01  0.6044E+01
      9.353  0.6831E+00  0.6835E+00  0.6091E+01  0.6091E+01
      9.421  0.6690E+00  0.6688E+00  0.6136E+01  0.6137E+01
      9.490  0.6399E+00  0.6402E+00  0.6180E+01  0.6181E+01
      9.558  0.6481E+00  0.6484E+00  0.6225E+01  0.6225E+01
      9.627  0.6745E+00  0.6747E+00  0.6271E+01  0.6271E+01
      9.695  0.7053E+00  0.7052E+00  0.6319E+01  0.6320E+01
      9.764  0.6772E+00  0.6771E+00  0.6366E+01  0.6366E+01
      9.832  0.6745E+00  0.6748E+00  0.6412E+01  0.6412E+01
      9.900  0.6917E+00  0.6912E+00  0.6459E+01  0.6460E+01
      9.969  0.7107E+00  0.7106E+00  0.6508E+01  0.6508E+01
     10.037  0.7132E+00  0.7128E+00  0.6557E+01  0.6557E+01
     10.106  0.6886E+00  0.6890E+00  0.6604E+01  0.6605E+01
     10.174  0.7799E+00  0.7816E+00  0.6657E+01  0.6658E+01
     10.243  0.9160E+00  0.9168E+00  0.6720E+01  0.6721E+01
     10.311  0.9397E+00  0.9396E+00  0.6785E+01  0.6785E+01
     10.380  0.8392E+00  0.8380E+00  0.6842E+01  0.6843E+01
     10.448  0.6129E+00  0.6101E+00  0.6884E+01  0.6885E+01
     10.517  0.3944E+00  0.3925E+00  0.6911E+01  0.6911E+01
     10.585  0.3511E+00  0.3513E+00  0.6935E+01  0.6936E+01
     10.654  0.4323E+00  0.4330E+00  0.6965E+01  0.6965E+01
     10.722  0.5082E+00  0.5086E+00  0.7000E+01  0.7000E+01
     10.791  0.5500E+00  0.5505E+00  0.7037E+01  0.7038E+01
     10.859  0.6176E+00  0.6182E+00  0.7080E+01  0.7080E+01
     10.928  0.6538E+00  0.6540E+00  0.7125E+01  0.7125E+01
     10.996  0.6426E+00  0.6428E+00  0.7169E+01  0.7169E+01
     11.065  0.6429E+00  0.6429E+00  0.7213E+01  0.7213E+01
     11.133  0.5874E+00  0.5863E+00  0.7253E+01  0.7253E+01
     11.202  0.5053E+00  0.5052E+00  0.7288E+01  0.7288E+01
     11.270  0.5460E+00  0.5470E+00  0.7325E+01  0.7325E+01
     11.339  0.5867E+00  0.5866E+00  0.7365E+01  0.7366E+01
     11.407  0.5696E+00  0.5693E+00  0.7404E+01  0.7405E+01
     11.476  0.5952E+00  0.5957E+00  0.7445E+01  0.7445E+01
     11.544  0.6062E+00  0.6058E+00  0.7487E+01  0.7487E+01
     11.613  0.5088E+00  0.5072E+00  0.7521E+01  0.7522E+01
     11.681  0.3653E+00  0.3644E+00  0.7546E+01  0.7547E+01
     11.750  0.3039E+00  0.3046E+00  0.7567E+01  0.7568E+01
     11.818  0.3138E+00  0.3143E+00  0.7589E+01  0.7589E+01
     11.886  0.3359E+00  0.3355E+00  0.7612E+01  0.7612E+01
     11.955  0.4081E+00  0.4084E+00  0.7640E+01  0.7640E+01
     12.023  0.4148E+00  0.4143E+00  0.7668E+01  0.7669E+01
     12.092  0.3146E+00  0.3133E+00  0.7690E+01  0.7690E+01
     12.160  0.2408E+00  0.2404E+00  0.7706E+01  0.7706E+01
     12.229  0.2540E+00  0.2549E+00  0.7724E+01  0.7724E+01
     12.297  0.3130E+00  0.3135E+00  0.7745E+01  0.7745E+01
     12.366  0.3210E+00  0.3208E+00  0.7767E+01  0.7767E+01
     12.434  0.3145E+00  0.3147E+00  0.7789E+01  0.7789E+01
     12.503  0.2975E+00  0.2979E+00  0.7809E+01  0.7809E+01
     12.571  0.2642E+00  0.2644E+00  0.7827E+01  0.7828E+01
     12.640  0.2322E+00  0.2309E+00  0.7843E+01  0.7843E+01
     12.708  0.2050E+00  0.2039E+00  0.7857E+01  0.7857E+01
     12.777  0.1842E+00  0.1835E+00  0.7870E+01  0.7870E+01
     12.845  0.1475E+00  0.1470E+00  0.7880E+01  0.7880E+01
     12.914  0.1292E+00  0.1291E+00  0.7889E+01  0.7889E+01
     12.982  0.1332E+00  0.1335E+00  0.7898E+01  0.7898E+01
     13.051  0.1557E+00  0.1564E+00  0.7909E+01  0.7909E+01
     13.119  0.1693E+00  0.1693E+00  0.7920E+01  0.7920E+01
     13.188  0.1308E+00  0.1300E+00  0.7929E+01  0.7929E+01
     13.256  0.1035E+00  0.1028E+00  0.7936E+01  0.7936E+01
     13.325  0.1091E+00  0.1071E+00  0.7944E+01  0.7944E+01
     13.393  0.1107E+00  0.1065E+00  0.7951E+01  0.7951E+01
     13.462  0.1003E+00  0.9883E-01  0.7958E+01  0.7958E+01
     13.530  0.6761E-01  0.7118E-01  0.7963E+01  0.7963E+01
     13.599  0.4660E-01  0.4929E-01  0.7966E+01  0.7966E+01
     13.667  0.4869E-01  0.4961E-01  0.7969E+01  0.7969E+01
     13.736  0.4533E-01  0.4548E-01  0.7972E+01  0.7972E+01
     13.804  0.5158E-01  0.5174E-01  0.7976E+01  0.7976E+01
     13.872  0.7305E-01  0.7328E-01  0.7981E+01  0.7981E+01
     13.941  0.7894E-01  0.7914E-01  0.7986E+01  0.7986E+01
     14.009  0.7305E-01  0.7296E-01  0.7991E+01  0.7991E+01
     14.078  0.4508E-01  0.4467E-01  0.7995E+01  0.7995E+01
     14.146  0.1817E-01  0.1797E-01  0.7996E+01  0.7996E+01
     14.215  0.1027E-01  0.1029E-01  0.7996E+01  0.7996E+01
     14.283  0.1523E-01  0.1536E-01  0.7998E+01  0.7998E+01
     14.352  0.1914E-01  0.1910E-01  0.7999E+01  0.7999E+01
     14.420  0.1145E-01  0.1130E-01  0.8000E+01  0.8000E+01
     14.489  0.4020E-02  0.3944E-02  0.8000E+01  0.8000E+01
     14.557  0.1123E-02  0.1099E-02  0.8000E+01  0.8000E+01
     14.626  0.2926E-03  0.2864E-03  0.8000E+01  0.8000E+01
     14.694  0.7486E-04  0.7325E-04  0.8000E+01  0.8000E+01
     14.763  0.0000E+00  0.0000E+00  0.8000E+01  0.8000E+01
     14.831  0.0000E+00  0.0000E+00  0.8000E+01  0.8000E+01
     14.900  0.0000E+00  0.0000E+00  0.8000E+01  0.8000E+01
     14.968  0.0000E+00  0.0000E+00  0.8000E+01  0.8000E+01
     15.037  0.0000E+00  0.0000E+00  0.8000E+01  0.8000E+01
     15.105  0.0000E+00  0.0000E+00  0.8000E+01  0.8000E+01
     15.174  0.0000E+00  0.0000E+00  0.8000E+01  0.8000E+01
     15.242  0.0000E+00  0.0000E+00  0.8000E+01  0.8000E+01
     15.24213360     -5.30267030  301      2.26671458      1.00000000
     -5.303  0.0000E+00  0.0000E+00  0.0000E+00  0.0000E+00  0.0000E+00  0.0000E+00  0.0000E+00  0.0000E+00  0.0000E+00  0.0000E+00  0.0000E+00  0.0000E+00  0.0000E+00  0.0000E+00  0.0000E+00  0.0000E+00  0.0000E+00  0.0000E+00
     -5.234  0.0000E+00  0.0000E+00  0.0000E+00  0.0000E+00  0.0000E+00  0.0000E+00  0.0000E+00  0.0000E+00  0.0000E+00  0.0000E+00  0.0000E+00  0.0000E+00  0.0000E+00  0.0000E+00  0.0000E+00  0.0000E+00  0.0000E+00  0.0000E+00
     -5.166  0.0000E+00  0.0000E+00  0.0000E+00  0.0000E+00  0.0000E+00  0.0000E+00  0.0000E+00  0.0000E+00  0.0000E+00  0.0000E+00  0.0000E+00  0.0000E+00  0.0000E+00  0.0000E+00  0.0000E+00  0.0000E+00  0.0000E+00  0.0000E+00
     -5.097  0.0000E+00  0.0000E+00  0.0000E+00  0.0000E+00  0.0000E+00  0.0000E+00  0.0000E+00  0.0000E+00  0.0000E+00  0.0000E+00  0.0000E+00  0.0000E+00  0.0000E+00  0.0000E+00  0.0000E+00  0.0000E+00  0.0000E+00  0.0000E+00
     -5.029  0.0000E+00  0.0000E+00  0.0000E+00  0.0000E+00  0.0000E+00  0.0000E+00  0.0000E+00  0.0000E+00  0.0000E+00  0.0000E+00  0.0000E+00  0.0000E+00  0.0000E+00  0.0000E+00  0.0000E+00  0.0000E+00  0.0000E+00  0.0000E+00
     -4.960  0.0000E+00  0.0000E+00  0.0000E+00  0.0000E+00  0.0000E+00  0.0000E+00  0.0000E+00  0.0000E+00  0.0000E+00  0.0000E+00  0.0000E+00  0.0000E+00  0.0000E+00  0.0000E+00  0.0000E+00  0.0000E+00  0.0000E+00  0.0000E+00
     -4.892  0.0000E+00  0.0000E+00  0.0000E+00  0.0000E+00  0.0000E+00  0.0000E+00  0.0000E+00  0.0000E+00  0.0000E+00  0.0000E+00  0.0000E+00  0.0000E+00  0.0000E+00  0.0000E+00  0.0000E+00  0.0000E+00  0.0000E+00  0.0000E+00
     -4.823  0.8939E-07  0.9069E-07  0.1116E-21  0.1096E-21  0.1416E-23  0.2215E-23  0.1116E-21  0.1096E-21  0.1918E-21  0.2501E-21  0.2085E-23  0.7571E-23  0.1257E-13  0.1089E-13  0.2085E-23  0.7571E-23  0.1918E-21  0.2501E-21
     -4.755  0.4523E-06  0.4588E-06  0.5551E-21  0.5350E-21  0.1107E-08  0.1123E-08  0.5551E-21  0.5350E-21  0.9444E-21  0.1184E-20  0.1914E-22  0.2773E-22  0.9495E-12  0.9892E-12  0.1914E-22  0.2773E-22  0.9444E-21  0.1184E-20
     -4.686  0.2494E-05  0.2530E-05  0.4465E-08  0.4530E-08  0.3248E-08  0.3294E-08  0.4465E-08  0.4530E-08  0.7213E-11  0.7317E-11  0.2970E-20  0.8264E-21  0.8757E-11  0.8801E-11  0.2970E-20  0.8264E-21  0.7213E-11  0.7317E-11
     -4.618  0.1080E-04  0.1096E-04  0.2264E-07  0.2297E-07  0.2409E-07  0.2443E-07  0.2264E-07  0.2297E-07  0.3660E-10  0.3712E-10  0.2943E-10  0.2983E-10  0.2848E-10  0.2872E-10  0.2943E-10  0.2983E-10  0.3660E-10  0.3712E-10
     -4.549  0.4033E-04  0.4090E-04  0.7935E-07  0.8050E-07  0.8848E-07  0.8972E-07  0.7935E-07  0.8050E-07  0.1283E-09  0.1301E-09  0.8628E-10  0.8744E-10  0.1344E-09  0.1359E-09  0.8628E-10  0.8744E-10  0.1283E-09  0.1301E-09
     -4.481  0.1523E-03  0.1544E-03  0.3196E-06  0.3242E-06  0.3372E-06  0.3418E-06  0.3196E-06  0.3242E-06  0.5442E-09  0.5519E-09  0.3384E-09  0.3430E-09  0.5306E-09  0.5358E-09  0.3384E-09  0.3430E-09  0.5442E-09  0.5519E-09
     -4.412  0.5231E-03  0.5294E-03  0.1244E-05  0.1261E-05  0.1314E-05  0.1331E-05  0.1244E-05  0.1261E-05  0.2150E-08  0.2180E-08  0.1527E-08  0.1548E-08  0.2116E-08  0.2137E-08  0.1527E-08  0.1548E-08  0.2150E-08  0.2180E-08
     -4.344  0.1463E-02  0.1477E-02  0.4387E-05  0.4442E-05  0.4249E-05  0.4296E-05  0.4387E-05  0.4442E-05  0.7678E-08  0.7774E-08  0.5572E-08  0.5643E-08  0.6998E-08  0.7049E-08  0.5572E-08  0.5643E-08  0.7678E-08  0.7774E-08
     -4.275  0.3175E-02  0.3196E-02  0.1246E-04  0.1257E-04  0.1111E-04  0.1120E-04  0.1246E-04  0.1257E-04  0.2255E-07  0.2276E-07  0.1913E-07  0.1934E-07  0.1846E-07  0.1852E-07  0.1913E-07  0.1934E-07  0.2255E-07  0.2276E-07
     -4.207  0.4990E-02  0.5004E-02  0.2380E-04  0.2391E-04  0.2340E-04  0.2354E-04  0.2380E-04  0.2391E-04  0.4766E-07  0.4795E-07  0.4915E-07  0.4948E-07  0.4039E-07  0.4064E-07  0.4915E-07  0.4948E-07  0.4766E-07  0.4795E-07
     -4.138  0.5530E-02  0.5530E-02  0.3239E-04  0.3248E-04  0.3816E-04  0.3831E-04  0.3239E-04  0.3248E-04  0.8590E-07  0.8645E-07  0.8426E-07  0.8457E-07  0.9702E-07  0.9807E-07  0.8426E-07  0.8457E-07  0.8590E-07  0.8645E-07
     -4.070  0.5985E-02  0.6001E-02  0.5070E-04  0.5104E-04  0.5844E-04  0.5872E-04  0.5070E-04  0.5104E-04  0.1875E-06  0.1890E-06  0.1538E-06  0.1549E-06  0.2233E-06  0.2252E-06  0.1538E-06  0.1549E-06  0.1875E-06  0.1890E-06
     -4.001  0.8545E-02  0.8576E-02  0.9460E-04  0.9513E-04  0.9440E-04  0.9474E-04  0.9460E-04  0.9513E-04  0.3998E-06  0.4021E-06  0.3225E-06  0.3241E-06  0.4027E-06  0.4043E-06  0.3225E-06  0.3241E-06  0.3998E-06  0.4021E-06
     -3.933  0.1025E-01  0.1025E-01  0.1347E-03  0.1350E-03  0.1098E-03  0.1097E-03  0.1347E-03  0.1350E-03  0.6289E-06  0.6304E-06  0.4715E-06  0.4720E-06  0.5191E-06  0.5185E-06  0.4715E-06  0.4720E-06  0.6289E-06  0.6304E-06
     -3.865  0.9412E-02  0.9401E-02  0.1455E-03  0.1455E-03  0.1068E-03  0.1070E-03  0.1455E-03  0.1455E-03  0.7512E-06  0.7513E-06  0.5937E-06  0.5952E-06  0.5738E-06  0.5730E-06  0.5937E-06  0.5952E-06  0.7512E-06  0.7513E-06
     -3.796  0.8754E-02  0.8754E-02  0.1406E-03  0.1405E-03  0.1529E-03  0.1537E-03  0.1406E-03  0.1405E-03  0.7609E-06  0.7605E-06  0.8996E-06  0.9028E-06  0.7714E-06  0.7752E-06  0.8996E-06  0.9028E-06  0.7609E-06  0.7605E-06
     -3.728  0.9173E-02  0.9185E-02  0.1462E-03  0.1465E-03  0.2348E-03  0.2356E-03  0.1462E-03  0.1465E-03  0.8642E-06  0.8667E-06  0.1314E-05  0.1317E-05  0.1286E-05  0.1296E-05  0.1314E-05  0.1317E-05  0.8642E-06  0.8667E-06
     -3.659  0.1081E-01  0.1083E-01  0.2001E-03  0.2010E-03  0.2974E-03  0.2975E-03  0.2001E-03  0.2010E-03  0.1450E-05  0.1459E-05  0.1667E-05  0.1668E-05  0.2096E-05  0.2108E-05  0.1667E-05  0.1668E-05  0.1450E-05  0.1459E-05
     -3.591  0.1218E-01  0.1219E-01  0.2987E-03  0.2998E-03  0.2594E-03  0.2585E-03  0.2987E-03  0.2998E-03  0.2602E-05  0.2613E-05  0.1706E-05  0.1704E-05  0.2616E-05  0.2617E-05  0.1706E-05  0.1704E-05  0.2602E-05  0.2613E-05
     -3.522  0.1265E-01  0.1265E-01  0.3749E-03  0.3753E-03  0.2171E-03  0.2172E-03  0.3749E-03  0.3753E-03  0.3540E-05  0.3543E-05  0.1957E-05  0.1962E-05  0.2777E-05  0.2772E-05  0.1957E-05  0.1962E-05  0.3540E-05  0.3543E-05
     -3.454  0.1235E-01  0.1234E-01  0.3711E-03  0.3710E-03  0.2875E-03  0.2886E-03  0.3711E-03  0.3710E-03  0.3546E-05  0.3543E-05  0.2897E-05  0.2907E-05  0.2917E-05  0.2916E-05  0.2897E-05  0.2907E-05  0.3546E-05  0.3543E-05
     -3.385  0.1357E-01  0.1360E-01  0.4169E-03  0.4181E-03  0.4109E-03  0.4121E-03  0.4169E-03  0.4181E-03  0.4157E-05  0.4169E-05  0.4394E-05  0.4409E-05  0.3598E-05  0.3610E-05  0.4394E-05  0.4409E-05  0.4157E-05  0.4169E-05
     -3.317  0.1604E-01  0.1605E-01  0.5148E-03  0.5151E-03  0.5277E-03  0.5282E-03  0.5148E-03  0.5151E-03  0.5386E-05  0.5388E-05  0.5725E-05  0.5724E-05  0.5010E-05  0.5025E-05  0.5725E-05  0.5724E-05  0.5386E-05  0.5388E-05
     -3.248  0.1350E-01  0.1345E-01  0.4158E-03  0.4139E-03  0.5331E-03  0.5326E-03  0.4158E-03  0.4139E-03  0.4478E-05  0.4458E-05  0.4840E-05  0.4819E-05  0.6279E-05  0.6294E-05  0.4840E-05  0.4819E-05  0.4478E-05  0.4458E-05
     -3.180  0.9703E-02  0.9680E-02  0.2861E-03  0.2858E-03  0.4862E-03  0.4854E-03  0.2861E-03  0.2858E-03  0.3308E-05  0.3307E-05  0.3860E-05  0.3857E-05  0.6577E-05  0.6578E-05  0.3860E-05  0.3857E-05  0.3308E-05  0.3307E-05
     -3.111  0.9649E-02  0.9673E-02  0.3586E-03  0.3604E-03  0.4510E-03  0.4512E-03  0.3586E-03  0.3604E-03  0.4694E-05  0.4720E-05  0.5101E-05  0.5123E-05  0.5759E-05  0.5761E-05  0.5101E-05  0.5123E-05  0.4694E-05  0.4720E-05
     -3.043  0.1371E-01  0.1377E-01  0.5906E-03  0.5936E-03  0.5997E-03  0.6021E-03  0.5906E-03  0.5936E-03  0.8227E-05  0.8270E-05  0.8538E-05  0.8574E-05  0.7515E-05  0.7552E-05  0.8538E-05  0.8574E-05  0.8227E-05  0.8270E-05
     -2.974  0.1850E-01  0.1853E-01  0.8484E-03  0.8505E-03  0.7983E-03  0.7989E-03  0.8484E-03  0.8505E-03  0.1256E-04  0.1260E-04  0.1146E-04  0.1146E-04  0.1168E-04  0.1172E-04  0.1146E-04  0.1146E-04  0.1256E-04  0.1260E-04
     -2.906  0.1916E-01  0.1915E-01  0.9648E-03  0.9653E-03  0.7555E-03  0.7542E-03  0.9648E-03  0.9653E-03  0.1548E-04  0.1550E-04  0.1100E-04  0.1099E-04  0.1408E-04  0.1408E-04  0.1100E-04  0.1099E-04  0.1548E-04  0.1550E-04
     -2.837  0.1753E-01  0.1750E-01  0.9465E-03  0.9457E-03  0.6738E-03  0.6730E-03  0.9465E-03  0.9457E-03  0.1585E-04  0.1583E-04  0.1096E-04  0.1096E-04  0.1318E-04  0.1314E-04  0.1096E-04  0.1096E-04  0.1585E-04  0.1583E-04
     -2.769  0.1497E-01  0.1495E-01  0.8301E-03  0.8290E-03  0.6461E-03  0.6461E-03  0.8301E-03  0.8290E-03  0.1412E-04  0.1410E-04  0.1153E-04  0.1153E-04  0.1133E-04  0.1133E-04  0.1153E-04  0.1153E-04  0.1412E-04  0.1410E-04
     -2.700  0.1391E-01  0.1392E-01  0.7698E-03  0.7700E-03  0.7348E-03  0.7364E-03  0.7698E-03  0.7700E-03  0.1364E-04  0.1365E-04  0.1187E-04  0.1187E-04  0.1428E-04  0.1434E-04  0.1187E-04  0.1187E-04  0.1364E-04  0.1365E-04
     -2.632  0.1516E-01  0.1518E-01  0.8124E-03  0.8129E-03  0.9841E-03  0.9865E-03  0.8124E-03  0.8129E-03  0.1486E-04  0.1487E-04  0.1398E-04  0.1401E-04  0.2091E-04  0.2098E-04  0.1398E-04  0.1401E-04  0.1486E-04  0.1487E-04
     -2.563  0.1594E-01  0.1594E-01  0.8508E-03  0.8511E-03  0.1156E-02  0.1156E-02  0.8508E-03  0.8511E-03  0.1552E-04  0.1552E-04  0.1780E-04  0.1783E-04  0.2231E-04  0.2230E-04  0.1780E-04  0.1783E-04  0.1552E-04  0.1552E-04
     -2.495  0.1502E-01  0.1500E-01  0.8367E-03  0.8364E-03  0.1133E-02  0.1133E-02  0.8367E-03  0.8364E-03  0.1526E-04  0.1525E-04  0.2047E-04  0.2048E-04  0.1880E-04  0.1879E-04  0.2047E-04  0.2048E-04  0.1526E-04  0.1525E-04
     -2.426  0.1526E-01  0.1528E-01  0.8848E-03  0.8867E-03  0.1239E-02  0.1241E-02  0.8848E-03  0.8867E-03  0.1656E-04  0.1660E-04  0.2419E-04  0.2423E-04  0.1971E-04  0.1976E-04  0.2419E-04  0.2423E-04  0.1656E-04  0.1660E-04
     -2.358  0.1856E-01  0.1859E-01  0.1172E-02  0.1176E-02  0.1464E-02  0.1465E-02  0.1172E-02  0.1176E-02  0.2353E-04  0.2361E-04  0.3054E-04  0.3057E-04  0.2475E-04  0.2482E-04  0.3054E-04  0.3057E-04  0.2353E-04  0.2361E-04
     -2.289  0.1899E-01  0.1896E-01  0.1347E-02  0.1347E-02  0.1300E-02  0.1295E-02  0.1347E-02  0.1347E-02  0.2996E-04  0.2999E-04  0.2763E-04  0.2751E-04  0.2857E-04  0.2858E-04  0.2763E-04  0.2751E-04  0.2996E-04  0.2999E-04
     -2.221  0.1507E-01  0.1502E-01  0.1252E-02  0.1250E-02  0.7604E-03  0.7551E-03  0.1252E-02  0.1250E-02  0.3139E-04  0.3137E-04  0.1646E-04  0.1635E-04  0.2683E-04  0.2676E-04  0.1646E-04  0.1635E-04  0.3139E-04  0.3137E-04
     -2.152  0.1206E-01  0.1206E-01  0.1123E-02  0.1124E-02  0.5074E-03  0.5076E-03  0.1123E-02  0.1124E-02  0.3015E-04  0.3016E-04  0.1264E-04  0.1266E-04  0.2343E-04  0.2340E-04  0.1264E-04  0.1266E-04  0.3015E-04  0.3016E-04
     -2.084  0.1570E-01  0.1579E-01  0.1468E-02  0.1475E-02  0.8808E-03  0.8879E-03  0.1468E-02  0.1475E-02  0.3973E-04  0.3991E-04  0.2326E-04  0.2344E-04  0.3204E-04  0.3220E-04  0.2326E-04  0.2344E-04  0.3973E-04  0.3991E-04
     -2.016  0.2467E-01  0.2474E-01  0.2170E-02  0.2175E-02  0.1808E-02  0.1817E-02  0.2170E-02  0.2175E-02  0.5719E-04  0.5728E-04  0.4514E-04  0.4532E-04  0.5365E-04  0.5385E-04  0.4514E-04  0.4532E-04  0.5719E-04  0.5728E-04
     -1.947  0.2596E-01  0.2592E-01  0.2075E-02  0.2070E-02  0.2433E-02  0.2434E-02  0.2075E-02  0.2070E-02  0.5233E-04  0.5216E-04  0.5525E-04  0.5521E-04  0.6420E-04  0.6420E-04  0.5525E-04  0.5521E-04  0.5233E-04  0.5216E-04
     -1.879  0.2000E-01  0.1994E-01  0.1537E-02  0.1533E-02  0.2140E-02  0.2133E-02  0.1537E-02  0.1533E-02  0.3810E-04  0.3801E-04  0.4845E-04  0.4832E-04  0.5257E-04  0.5242E-04  0.4845E-04  0.4832E-04  0.3810E-04  0.3801E-04