   2   2   1   0
  0.1667484E+02  0.2870653E-09  0.2870653E-09  0.4673042E-09  0.5000000E-15
  1.000000000000000E-004
  CAR 
 unknown system                          
     20.69027722     -5.05283822  301      4.59939807      1.00000000
     -5.053  0.0000E+00  0.0000E+00  0.0000E+00  0.0000E+00
     -4.967  0.0000E+00  0.0000E+00  0.0000E+00  0.0000E+00
     -4.881  0.0000E+00  0.0000E+00  0.0000E+00  0.0000E+00
     -4.795  0.0000E+00  0.0000E+00  0.0000E+00  0.0000E+00
     -4.710  0.0000E+00  0.0000E+00  0.0000E+00  0.0000E+00
     -4.624  0.0000E+00  0.0000E+00  0.0000E+00  0.0000E+00
     -4.538  0.0000E+00  0.0000E+00  0.0000E+00  0.0000E+00
     -4.452  0.0000E+00  0.0000E+00  0.0000E+00  0.0000E+00
     -4.366  0.0000E+00  0.4823E-06  0.0000E+00  0.4138E-07
     -4.281  0.2399E-05  0.3170E-05  0.2059E-06  0.3134E-06
     -4.195  0.2018E-04  0.2159E-04  0.1937E-05  0.2166E-05
     -4.109  0.1113E-03  0.1244E-03  0.1149E-04  0.1284E-04
     -4.023  0.5923E-03  0.6605E-03  0.6231E-04  0.6951E-04
     -3.937  0.2860E-02  0.3141E-02  0.3078E-03  0.3390E-03
     -3.851  0.1020E-01  0.1094E-01  0.1183E-02  0.1278E-02
     -3.766  0.2645E-01  0.2786E-01  0.3453E-02  0.3668E-02
     -3.680  0.4820E-01  0.4935E-01  0.7589E-02  0.7903E-02
     -3.594  0.5408E-01  0.5350E-01  0.1223E-01  0.1249E-01
     -3.508  0.4551E-01  0.4579E-01  0.1613E-01  0.1642E-01
     -3.422  0.7091E-01  0.7379E-01  0.2222E-01  0.2276E-01
     -3.337  0.1062E+00  0.1068E+00  0.3133E-01  0.3193E-01
     -3.251  0.9487E-01  0.9339E-01  0.3948E-01  0.3995E-01
     -3.165  0.8174E-01  0.8141E-01  0.4649E-01  0.4694E-01
     -3.079  0.8139E-01  0.8166E-01  0.5348E-01  0.5395E-01
     -2.993  0.9268E-01  0.9415E-01  0.6143E-01  0.6204E-01
     -2.908  0.1177E+00  0.1185E+00  0.7154E-01  0.7222E-01
     -2.822  0.1245E+00  0.1250E+00  0.8222E-01  0.8294E-01
     -2.736  0.1268E+00  0.1261E+00  0.9311E-01  0.9377E-01
     -2.650  0.1143E+00  0.1145E+00  0.1029E+00  0.1036E+00
     -2.564  0.1471E+00  0.1511E+00  0.1156E+00  0.1166E+00
     -2.479  0.1834E+00  0.1817E+00  0.1313E+00  0.1322E+00
     -2.393  0.1213E+00  0.1170E+00  0.1417E+00  0.1422E+00
     -2.307  0.8081E-01  0.7990E-01  0.1487E+00  0.1491E+00
     -2.221  0.9015E-01  0.9253E-01  0.1564E+00  0.1570E+00
     -2.135  0.1505E+00  0.1557E+00  0.1693E+00  0.1704E+00
     -2.049  0.2145E+00  0.2157E+00  0.1877E+00  0.1890E+00
     -1.964  0.2074E+00  0.2066E+00  0.2056E+00  0.2067E+00
     -1.878  0.1889E+00  0.1868E+00  0.2218E+00  0.2227E+00
     -1.792  0.1543E+00  0.1523E+00  0.2350E+00  0.2358E+00
     -1.706  0.1396E+00  0.1405E+00  0.2470E+00  0.2479E+00
     -1.620  0.1661E+00  0.1676E+00  0.2613E+00  0.2623E+00
     -1.535  0.1809E+00  0.1813E+00  0.2768E+00  0.2779E+00
     -1.449  0.1654E+00  0.1632E+00  0.2910E+00  0.2919E+00
     -1.363  0.1525E+00  0.1542E+00  0.3041E+00  0.3051E+00
     -1.277  0.2081E+00  0.2128E+00  0.3220E+00  0.3234E+00
     -1.191  0.2395E+00  0.2375E+00  0.3426E+00  0.3438E+00
     -1.106  0.1818E+00  0.1776E+00  0.3582E+00  0.3591E+00
     -1.020  0.1231E+00  0.1201E+00  0.3688E+00  0.3694E+00
     -0.934  0.1278E+00  0.1335E+00  0.3798E+00  0.3808E+00
     -0.848  0.2754E+00  0.2866E+00  0.4034E+00  0.4055E+00
     -0.762  0.3574E+00  0.3547E+00  0.4341E+00  0.4359E+00
     -0.677  0.2644E+00  0.2573E+00  0.4568E+00  0.4580E+00
     -0.591  0.1850E+00  0.1829E+00  0.4727E+00  0.4737E+00
     -0.505  0.1854E+00  0.1864E+00  0.4886E+00  0.4897E+00
     -0.419  0.1959E+00  0.1953E+00  0.5055E+00  0.5065E+00
     -0.333  0.1786E+00  0.1779E+00  0.5208E+00  0.5218E+00
     -0.247  0.1793E+00  0.1792E+00  0.5362E+00  0.5372E+00
     -0.162  0.1755E+00  0.1759E+00  0.5513E+00  0.5523E+00
     -0.076  0.1924E+00  0.1945E+00  0.5678E+00  0.5690E+00
      0.010  0.2523E+00  0.2583E+00  0.5895E+00  0.5912E+00
      0.096  0.3391E+00  0.3425E+00  0.6186E+00  0.6206E+00
      0.182  0.3193E+00  0.3128E+00  0.6460E+00  0.6474E+00
      0.267  0.2211E+00  0.2182E+00  0.6650E+00  0.6662E+00
      0.353  0.2591E+00  0.2662E+00  0.6872E+00  0.6890E+00
      0.439  0.3328E+00  0.3319E+00  0.7158E+00  0.7175E+00
      0.525  0.2608E+00  0.2552E+00  0.7382E+00  0.7395E+00
      0.611  0.2057E+00  0.2036E+00  0.7559E+00  0.7570E+00
      0.696  0.1979E+00  0.2003E+00  0.7729E+00  0.7742E+00
      0.782  0.2797E+00  0.2863E+00  0.7969E+00  0.7988E+00
      0.868  0.3192E+00  0.3162E+00  0.8243E+00  0.8259E+00
      0.954  0.2380E+00  0.2314E+00  0.8448E+00  0.8458E+00
      1.040  0.1636E+00  0.1630E+00  0.8588E+00  0.8598E+00
      1.126  0.2366E+00  0.2452E+00  0.8791E+00  0.8809E+00
      1.211  0.3306E+00  0.3321E+00  0.9075E+00  0.9094E+00
      1.297  0.3226E+00  0.3222E+00  0.9352E+00  0.9371E+00
      1.383  0.3189E+00  0.3167E+00  0.9626E+00  0.9642E+00
      1.469  0.2600E+00  0.2561E+00  0.9849E+00  0.9862E+00
      1.555  0.2490E+00  0.2518E+00  0.1006E+01  0.1008E+01
      1.640  0.3065E+00  0.3099E+00  0.1033E+01  0.1034E+01
      1.726  0.3383E+00  0.3398E+00  0.1062E+01  0.1064E+01
      1.812  0.3569E+00  0.3579E+00  0.1092E+01  0.1094E+01
      1.898  0.3996E+00  0.4031E+00  0.1127E+01  0.1129E+01
      1.984  0.4355E+00  0.4332E+00  0.1164E+01  0.1166E+01
      2.069  0.3219E+00  0.3107E+00  0.1192E+01  0.1193E+01
      2.155  0.1841E+00  0.1816E+00  0.1207E+01  0.1209E+01
      2.241  0.2342E+00  0.2420E+00  0.1228E+01  0.1229E+01
      2.327  0.3116E+00  0.3135E+00  0.1254E+01  0.1256E+01
      2.413  0.2971E+00  0.2950E+00  0.1280E+01  0.1282E+01
      2.498  0.2887E+00  0.2892E+00  0.1305E+01  0.1306E+01
      2.584  0.2787E+00  0.2750E+00  0.1329E+01  0.1330E+01
      2.670  0.2620E+00  0.2644E+00  0.1351E+01  0.1353E+01
      2.756  0.3584E+00  0.3641E+00  0.1382E+01  0.1384E+01
      2.842  0.3837E+00  0.3856E+00  0.1415E+01  0.1417E+01
      2.928  0.4104E+00  0.4151E+00  0.1450E+01  0.1453E+01
      3.013  0.4473E+00  0.4464E+00  0.1488E+01  0.1491E+01
      3.099  0.4092E+00  0.4086E+00  0.1524E+01  0.1526E+01
      3.185  0.4081E+00  0.4110E+00  0.1559E+01  0.1561E+01
      3.271  0.4249E+00  0.4267E+00  0.1595E+01  0.1598E+01
      3.357  0.4413E+00  0.4389E+00  0.1633E+01  0.1636E+01
      3.442  0.3619E+00  0.3522E+00  0.1664E+01  0.1666E+01
      3.528  0.2422E+00  0.2360E+00  0.1685E+01  0.1686E+01
      3.614  0.1873E+00  0.1900E+00  0.1701E+01  0.1703E+01
      3.700  0.2636E+00  0.2720E+00  0.1724E+01  0.1726E+01
      3.786  0.4030E+00  0.4139E+00  0.1758E+01  0.1762E+01
      3.871  0.5100E+00  0.5103E+00  0.1802E+01  0.1805E+01
      3.957  0.4172E+00  0.4042E+00  0.1838E+01  0.1840E+01
      4.043  0.2463E+00  0.2340E+00  0.1859E+01  0.1860E+01
      4.129  0.1235E+00  0.1179E+00  0.1870E+01  0.1870E+01
      4.215  0.1027E+00  0.1057E+00  0.1879E+01  0.1879E+01
      4.300  0.1848E+00  0.1910E+00  0.1895E+01  0.1896E+01
      4.386  0.2764E+00  0.2817E+00  0.1918E+01  0.1920E+01
      4.472  0.3226E+00  0.3305E+00  0.1946E+01  0.1948E+01
      4.558  0.3947E+00  0.4032E+00  0.1980E+01  0.1983E+01
      4.644  0.4587E+00  0.4620E+00  0.2019E+01  0.2023E+01
      4.730  0.4893E+00  0.4838E+00  0.2061E+01  0.2064E+01
      4.815  0.4962E+00  0.4920E+00  0.2104E+01  0.2106E+01
      4.901  0.4841E+00  0.4805E+00  0.2145E+01  0.2148E+01
      4.987  0.3892E+00  0.3814E+00  0.2179E+01  0.2181E+01
      5.073  0.2724E+00  0.2679E+00  0.2202E+01  0.2204E+01
      5.159  0.2319E+00  0.2347E+00  0.2222E+01  0.2224E+01
      5.244  0.2967E+00  0.3045E+00  0.2248E+01  0.2250E+01
      5.330  0.3797E+00  0.3807E+00  0.2280E+01  0.2283E+01
      5.416  0.4020E+00  0.4016E+00  0.2315E+01  0.2317E+01
      5.502  0.4389E+00  0.4408E+00  0.2352E+01  0.2355E+01
      5.588  0.4643E+00  0.4621E+00  0.2392E+01  0.2395E+01
      5.673  0.4244E+00  0.4204E+00  0.2429E+01  0.2431E+01
      5.759  0.3619E+00  0.3628E+00  0.2460E+01  0.2462E+01
      5.845  0.4046E+00  0.4158E+00  0.2495E+01  0.2498E+01
      5.931  0.5326E+00  0.5388E+00  0.2540E+01  0.2544E+01
      6.017  0.5554E+00  0.5551E+00  0.2588E+01  0.2591E+01
      6.103  0.5340E+00  0.5278E+00  0.2634E+01  0.2637E+01
      6.188  0.3931E+00  0.3799E+00  0.2668E+01  0.2669E+01
      6.274  0.2657E+00  0.2631E+00  0.2691E+01  0.2692E+01
      6.360  0.2815E+00  0.2870E+00  0.2715E+01  0.2717E+01
      6.446  0.3352E+00  0.3358E+00  0.2744E+01  0.2746E+01
      6.532  0.3248E+00  0.3199E+00  0.2771E+01  0.2773E+01
      6.617  0.2816E+00  0.2794E+00  0.2796E+01  0.2797E+01
      6.703  0.3131E+00  0.3218E+00  0.2823E+01  0.2825E+01
      6.789  0.5237E+00  0.5387E+00  0.2867E+01  0.2871E+01
      6.875  0.5899E+00  0.5796E+00  0.2918E+01  0.2921E+01
      6.961  0.4294E+00  0.4228E+00  0.2955E+01  0.2957E+01
      7.046  0.3467E+00  0.3454E+00  0.2985E+01  0.2987E+01
      7.132  0.3295E+00  0.3318E+00  0.3013E+01  0.3015E+01
      7.218  0.3672E+00  0.3699E+00  0.3045E+01  0.3047E+01
      7.304  0.3918E+00  0.3928E+00  0.3078E+01  0.3081E+01
      7.390  0.3282E+00  0.3201E+00  0.3107E+01  0.3108E+01
      7.475  0.2217E+00  0.2174E+00  0.3126E+01  0.3127E+01
      7.561  0.2466E+00  0.2539E+00  0.3147E+01  0.3149E+01
      7.647  0.4473E+00  0.4619E+00  0.3185E+01  0.3188E+01
      7.733  0.6395E+00  0.6438E+00  0.3240E+01  0.3244E+01
      7.819  0.6262E+00  0.6210E+00  0.3294E+01  0.3297E+01
      7.905  0.5244E+00  0.5166E+00  0.3339E+01  0.3341E+01
      7.990  0.4273E+00  0.4245E+00  0.3375E+01  0.3378E+01
      8.076  0.3585E+00  0.3538E+00  0.3406E+01  0.3408E+01
      8.162  0.2556E+00  0.2508E+00  0.3428E+01  0.3430E+01
      8.248  0.2587E+00  0.2657E+00  0.3451E+01  0.3453E+01
      8.334  0.3845E+00  0.3905E+00  0.3484E+01  0.3486E+01
      8.419  0.4452E+00  0.4488E+00  0.3522E+01  0.3525E+01
      8.505  0.4984E+00  0.5020E+00  0.3565E+01  0.3568E+01
      8.591  0.5149E+00  0.5121E+00  0.3609E+01  0.3612E+01
      8.677  0.4502E+00  0.4449E+00  0.3647E+01  0.3650E+01
      8.763  0.4826E+00  0.4898E+00  0.3689E+01  0.3692E+01
      8.848  0.5993E+00  0.6015E+00  0.3740E+01  0.3744E+01
      8.934  0.5080E+00  0.4936E+00  0.3784E+01  0.3786E+01
      9.020  0.3370E+00  0.3315E+00  0.3813E+01  0.3814E+01
      9.106  0.3732E+00  0.3809E+00  0.3845E+01  0.3847E+01
      9.192  0.5071E+00  0.5138E+00  0.3888E+01  0.3891E+01
      9.277  0.5708E+00  0.5712E+00  0.3938E+01  0.3940E+01
      9.363  0.4889E+00  0.4835E+00  0.3980E+01  0.3982E+01
      9.449  0.3739E+00  0.3702E+00  0.4012E+01  0.4014E+01
      9.535  0.3817E+00  0.3858E+00  0.4044E+01  0.4047E+01
      9.621  0.4792E+00  0.4861E+00  0.4086E+01  0.4089E+01
      9.707  0.5234E+00  0.5195E+00  0.4131E+01  0.4133E+01
      9.792  0.4262E+00  0.4193E+00  0.4167E+01  0.4169E+01
      9.878  0.4371E+00  0.4432E+00  0.4205E+01  0.4207E+01
      9.964  0.5581E+00  0.5644E+00  0.4253E+01  0.4256E+01
     10.050  0.6231E+00  0.6246E+00  0.4306E+01  0.4309E+01
     10.136  0.5855E+00  0.5843E+00  0.4356E+01  0.4360E+01
     10.221  0.5722E+00  0.5764E+00  0.4406E+01  0.4409E+01
     10.307  0.5895E+00  0.5850E+00  0.4456E+01  0.4459E+01
     10.393  0.4651E+00  0.4541E+00  0.4496E+01  0.4498E+01
     10.479  0.3668E+00  0.3658E+00  0.4528E+01  0.4530E+01
     10.565  0.3300E+00  0.3243E+00  0.4556E+01  0.4558E+01
     10.650  0.2643E+00  0.2627E+00  0.4579E+01  0.4580E+01
     10.736  0.3342E+00  0.3419E+00  0.4607E+01  0.4610E+01
     10.822  0.4201E+00  0.4249E+00  0.4644E+01  0.4646E+01
     10.908  0.4352E+00  0.4335E+00  0.4681E+01  0.4683E+01
     10.994  0.3894E+00  0.3845E+00  0.4714E+01  0.4716E+01
     11.080  0.3705E+00  0.3736E+00  0.4746E+01  0.4748E+01
     11.165  0.4677E+00  0.4748E+00  0.4786E+01  0.4789E+01
     11.251  0.5553E+00  0.5533E+00  0.4834E+01  0.4837E+01
     11.337  0.4330E+00  0.4210E+00  0.4871E+01  0.4873E+01
     11.423  0.2831E+00  0.2781E+00  0.4895E+01  0.4897E+01
     11.509  0.2715E+00  0.2774E+00  0.4919E+01  0.4921E+01
     11.594  0.4355E+00  0.4503E+00  0.4956E+01  0.4959E+01
     11.680  0.6339E+00  0.6418E+00  0.5011E+01  0.5014E+01
     11.766  0.6967E+00  0.7005E+00  0.5071E+01  0.5075E+01
     11.852  0.7326E+00  0.7339E+00  0.5133E+01  0.5138E+01
     11.938  0.6372E+00  0.6227E+00  0.5188E+01  0.5191E+01
     12.023  0.4045E+00  0.3893E+00  0.5223E+01  0.5224E+01
     12.109  0.2552E+00  0.2498E+00  0.5245E+01  0.5246E+01
     12.195  0.2060E+00  0.2062E+00  0.5263E+01  0.5264E+01
     12.281  0.2308E+00  0.2329E+00  0.5282E+01  0.5284E+01
     12.367  0.2610E+00  0.2630E+00  0.5305E+01  0.5306E+01
     12.452  0.3279E+00  0.3337E+00  0.5333E+01  0.5335E+01
     12.538  0.4970E+00  0.5090E+00  0.5376E+01  0.5379E+01
     12.624  0.6869E+00  0.6965E+00  0.5435E+01  0.5438E+01
     12.710  0.7335E+00  0.7285E+00  0.5498E+01  0.5501E+01
     12.796  0.6162E+00  0.6104E+00  0.5550E+01  0.5553E+01
     12.882  0.5285E+00  0.5267E+00  0.5596E+01  0.5599E+01
     12.967  0.4657E+00  0.4647E+00  0.5636E+01  0.5639E+01
     13.053  0.4604E+00  0.4620E+00  0.5675E+01  0.5678E+01
     13.139  0.4915E+00  0.4919E+00  0.5718E+01  0.5721E+01
     13.225  0.5225E+00  0.5214E+00  0.5763E+01  0.5765E+01
     13.311  0.4918E+00  0.4859E+00  0.5805E+01  0.5807E+01
     13.396  0.4001E+00  0.3962E+00  0.5839E+01  0.5841E+01
     13.482  0.4190E+00  0.4226E+00  0.5875E+01  0.5877E+01
     13.568  0.5676E+00  0.5779E+00  0.5924E+01  0.5927E+01
     13.654  0.6402E+00  0.6396E+00  0.5979E+01  0.5982E+01
     13.740  0.5361E+00  0.5336E+00  0.6025E+01  0.6028E+01
     13.825  0.5268E+00  0.5342E+00  0.6070E+01  0.6074E+01
     13.911  0.6116E+00  0.6143E+00  0.6123E+01  0.6126E+01
     13.997  0.6357E+00  0.6304E+00  0.6177E+01  0.6180E+01
     14.083  0.6177E+00  0.6145E+00  0.6230E+01  0.6233E+01
     14.169  0.6300E+00  0.6290E+00  0.6284E+01  0.6287E+01
     14.254  0.5752E+00  0.5728E+00  0.6334E+01  0.6336E+01
     14.340  0.5398E+00  0.5398E+00  0.6380E+01  0.6383E+01
     14.426  0.4763E+00  0.4741E+00  0.6421E+01  0.6424E+01
     14.512  0.4398E+00  0.4402E+00  0.6459E+01  0.6461E+01
     14.598  0.4189E+00  0.4155E+00  0.6495E+01  0.6497E+01
     14.684  0.3635E+00  0.3599E+00  0.6526E+01  0.6528E+01
     14.769  0.3731E+00  0.3794E+00  0.6558E+01  0.6561E+01
     14.855  0.5056E+00  0.5138E+00  0.6602E+01  0.6605E+01
     14.941  0.6089E+00  0.6100E+00  0.6654E+01  0.6657E+01
     15.027  0.6339E+00  0.6289E+00  0.6708E+01  0.6711E+01
     15.113  0.5747E+00  0.5728E+00  0.6758E+01  0.6760E+01
     15.198  0.6330E+00  0.6422E+00  0.6812E+01  0.6815E+01
     15.284  0.6925E+00  0.6917E+00  0.6871E+01  0.6875E+01
     15.370  0.5378E+00  0.5266E+00  0.6918E+01  0.6920E+01
     15.456  0.3654E+00  0.3595E+00  0.6949E+01  0.6951E+01
     15.542  0.3202E+00  0.3189E+00  0.6977E+01  0.6978E+01
     15.627  0.3855E+00  0.3931E+00  0.7010E+01  0.7012E+01
     15.713  0.5320E+00  0.5410E+00  0.7055E+01  0.7059E+01
     15.799  0.6466E+00  0.6495E+00  0.7111E+01  0.7114E+01
     15.885  0.5940E+00  0.5824E+00  0.7162E+01  0.7164E+01
     15.971  0.4009E+00  0.3917E+00  0.7196E+01  0.7198E+01
     16.057  0.3398E+00  0.3420E+00  0.7226E+01  0.7227E+01
     16.142  0.4241E+00  0.4307E+00  0.7262E+01  0.7264E+01
     16.228  0.4976E+00  0.4982E+00  0.7305E+01  0.7307E+01
     16.314  0.4694E+00  0.4629E+00  0.7345E+01  0.7347E+01
     16.400  0.3857E+00  0.3791E+00  0.7378E+01  0.7379E+01
     16.486  0.3832E+00  0.3841E+00  0.7411E+01  0.7412E+01
     16.571  0.3726E+00  0.3751E+00  0.7443E+01  0.7445E+01
     16.657  0.3719E+00  0.3763E+00  0.7475E+01  0.7477E+01
     16.743  0.4285E+00  0.4319E+00  0.7512E+01  0.7514E+01
     16.829  0.4410E+00  0.4408E+00  0.7550E+01  0.7552E+01
     16.915  0.4158E+00  0.4137E+00  0.7585E+01  0.7587E+01
     17.000  0.3749E+00  0.3747E+00  0.7618E+01  0.7620E+01
     17.086  0.3809E+00  0.3831E+00  0.7650E+01  0.7653E+01
     17.172  0.3522E+00  0.3446E+00  0.7681E+01  0.7682E+01
     17.258  0.2592E+00  0.2569E+00  0.7703E+01  0.7704E+01
     17.344  0.2678E+00  0.2686E+00  0.7726E+01  0.7727E+01
     17.429  0.2393E+00  0.2355E+00  0.7746E+01  0.7748E+01
     17.515  0.2338E+00  0.2335E+00  0.7767E+01  0.7768E+01
     17.601  0.1990E+00  0.1935E+00  0.7784E+01  0.7784E+01
     17.687  0.1162E+00  0.1154E+00  0.7794E+01  0.7794E+01
     17.773  0.1499E+00  0.1562E+00  0.7806E+01  0.7808E+01
     17.859  0.2446E+00  0.2512E+00  0.7827E+01  0.7829E+01
     17.944  0.3237E+00  0.3250E+00  0.7855E+01  0.7857E+01
     18.030  0.2525E+00  0.2418E+00  0.7877E+01  0.7878E+01
     18.116  0.1088E+00  0.1033E+00  0.7886E+01  0.7887E+01
     18.202  0.8279E-01  0.8511E-01  0.7893E+01  0.7894E+01
     18.288  0.1217E+00  0.1238E+00  0.7904E+01  0.7905E+01
     18.373  0.1403E+00  0.1413E+00  0.7916E+01  0.7917E+01
     18.459  0.1412E+00  0.1409E+00  0.7928E+01  0.7929E+01
     18.545  0.1316E+00  0.1310E+00  0.7939E+01  0.7940E+01
     18.631  0.1151E+00  0.1163E+00  0.7949E+01  0.7950E+01
     18.717  0.8483E-01  0.8173E-01  0.7957E+01  0.7957E+01
     18.802  0.3935E-01  0.3447E-01  0.7960E+01  0.7960E+01
     18.888  0.2393E-01  0.2376E-01  0.7962E+01  0.7962E+01
     18.974  0.4497E-01  0.4668E-01  0.7966E+01  0.7966E+01
     19.060  0.5293E-01  0.5196E-01  0.7970E+01  0.7971E+01
     19.146  0.4482E-01  0.4535E-01  0.7974E+01  0.7975E+01
     19.232  0.6939E-01  0.7196E-01  0.7980E+01  0.7981E+01
     19.317  0.8076E-01  0.7983E-01  0.7987E+01  0.7988E+01
     19.403  0.6130E-01  0.5971E-01  0.7992E+01  0.7993E+01
     19.489  0.4477E-01  0.4352E-01  0.7996E+01  0.7997E+01
     19.575  0.2900E-01  0.2761E-01  0.7999E+01  0.7999E+01
     19.661  0.1113E-01  0.9955E-02  0.8000E+01  0.8000E+01
     19.746  0.2504E-02  0.2144E-02  0.8000E+01  0.8000E+01
     19.832  0.4036E-03  0.3545E-03  0.8000E+01  0.8000E+01
     19.918  0.7330E-04  0.0000E+00  0.8000E+01  0.8000E+01
     20.004  0.0000E+00  0.0000E+00  0.8000E+01  0.8000E+01
     20.090  0.0000E+00  0.0000E+00  0.8000E+01  0.8000E+01
     20.175  0.0000E+00  0.0000E+00  0.8000E+01  0.8000E+01
     20.261  0.0000E+00  0.0000E+00  0.8000E+01  0.8000E+01
     20.347  0.0000E+00  0.0000E+00  0.8000E+01  0.8000E+01
     20.433  0.0000E+00  0.0000E+00  0.8000E+01  0.8000E+01
     20.519  0.0000E+00  0.0000E+00  0.8000E+01  0.8000E+01
     20.604  0.0000E+00  0.0000E+00  0.8000E+01  0.8000E+01
     20.690  0.0000E+00  0.0000E+00  0.8000E+01  0.8000E+01
     20.69027722     -5.05283822  301      4.59939807      1.00000000
     -5.053  0.0000E+00  0.0000E+00  0.0000E+00  0.0000E+00  0.0000E+00  0.0000E+00  0.0000E+00  0.0000E+00  0.0000E+00  0.0000E+00  0.0000E+00  0.0000E+00  0.0000E+00  0.0000E+00  0.0000E+00  0.0000E+00  0.0000E+00  0.0000E+00
     -4.967  0.0000E+00  0.0000E+00  0.0000E+00  0.0000E+00  0.0000E+00  0.0000E+00  0.0000E+00  0.0000E+00  0.0000E+00  0.0000E+00  0.0000E+00  0.0000E+00  0.0000E+00  0.0000E+00  0.0000E+00  0.0000E+00  0.0000E+00  0.0000E+00
     -4.881  0.0000E+00  0.0000E+00  0.0000E+00  0.0000E+00  0.0000E+00  0.0000E+00  0.0000E+00  0.0000E+00  0.0000E+00  0.0000E+00  0.0000E+00  0.0000E+00  0.0000E+00  0.0000E+00  0.0000E+00  0.0000E+00  0.0000E+00  0.0000E+00
     -4.795  0.0000E+00  0.0000E+00  0.0000E+00  0.0000E+00  0.0000E+00  0.0000E+00  0.0000E+00  0.0000E+00  0.0000E+00  0.0000E+00  0.0000E+00  0.0000E+00  0.0000E+00  0.0000E+00  0.0000E+00  0.0000E+00  0.0000E+00  0.0000E+00
     -4.710  0.0000E+00  0.0000E+00  0.0000E+00  0.0000E+00  0.0000E+00  0.0000E+00  0.0000E+00  0.0000E+00  0.0000E+00  0.0000E+00  0.0000E+00  0.0000E+00  0.0000E+00  0.0000E+00  0.0000E+00  0.0000E+00  0.0000E+00  0.0000E+00
     -4.624  0.0000E+00  0.0000E+00  0.0000E+00  0.0000E+00  0.0000E+00  0.0000E+00  0.0000E+00  0.0000E+00  0.0000E+00  0.0000E+00  0.0000E+00  0.0000E+00  0.0000E+00  0.0000E+00  0.0000E+00  0.0000E+00  0.0000E+00  0.0000E+00
     -4.538  0.0000E+00  0.0000E+00  0.0000E+00  0.0000E+00  0.0000E+00  0.0000E+00  0.0000E+00  0.0000E+00  0.0000E+00  0.0000E+00  0.0000E+00  0.0000E+00  0.0000E+00  0.0000E+00  0.0000E+00  0.0000E+00  0.0000E+00  0.0000E+00
     -4.452  0.0000E+00  0.0000E+00  0.0000E+00  0.0000E+00  0.0000E+00  0.0000E+00  0.0000E+00  0.0000E+00  0.0000E+00  0.0000E+00  0.0000E+00  0.0000E+00  0.0000E+00  0.0000E+00  0.0000E+00  0.0000E+00  0.0000E+00  0.0000E+00
     -4.366  0.0000E+00  0.5596E-07  0.0000E+00  0.1964E-22  0.0000E+00  0.1882E-24  0.0000E+00  0.1964E-22  0.0000E+00  0.6809E-22  0.0000E+00  0.6954E-24  0.0000E+00  0.6659E-14  0.0000E+00  0.6954E-24  0.0000E+00  0.6809E-22
     -4.281  0.2783E-06  0.3669E-06  0.8083E-22  0.1602E-21  0.2326E-23  0.8810E-09  0.8083E-22  0.1602E-21  0.3516E-21  0.9344E-21  0.1834E-22  0.2335E-22  0.3547E-13  0.1010E-11  0.1834E-22  0.2335E-22  0.3516E-21  0.9344E-21
     -4.195  0.2330E-05  0.2493E-05  0.3390E-08  0.3789E-08  0.4383E-08  0.4019E-08  0.3390E-08  0.3789E-08  0.6296E-11  0.7070E-11  0.7048E-21  0.8258E-21  0.1007E-10  0.1027E-10  0.7048E-21  0.8258E-21  0.6296E-11  0.7070E-11
     -4.109  0.1284E-04  0.1435E-04  0.2228E-07  0.2491E-07  0.2805E-07  0.3135E-07  0.2228E-07  0.2491E-07  0.4141E-10  0.4650E-10  0.2750E-10  0.3071E-10  0.4610E-10  0.5146E-10  0.2750E-10  0.3071E-10  0.4141E-10  0.4650E-10
     -4.023  0.6833E-04  0.7620E-04  0.1169E-06  0.1306E-06  0.1469E-06  0.1676E-06  0.1169E-06  0.1306E-06  0.2172E-09  0.2438E-09  0.1254E-09  0.1401E-09  0.2547E-09  0.3031E-09  0.1254E-09  0.1401E-09  0.2172E-09  0.2438E-09
     -3.937  0.3298E-03  0.3620E-03  0.6422E-06  0.7166E-06  0.8040E-06  0.8905E-06  0.6422E-06  0.7166E-06  0.1194E-08  0.1338E-08  0.6956E-09  0.7768E-09  0.1461E-08  0.1605E-08  0.6956E-09  0.7768E-09  0.1194E-08  0.1338E-08
     -3.851  0.1173E-02  0.1258E-02  0.3381E-05  0.3746E-05  0.3745E-05  0.4092E-05  0.3381E-05  0.3746E-05  0.6390E-08  0.7111E-08  0.3923E-08  0.4373E-08  0.7067E-08  0.7739E-08  0.3923E-08  0.4373E-08  0.6390E-08  0.7111E-08
     -3.766  0.3029E-02  0.3189E-02  0.1403E-04  0.1514E-04  0.1184E-04  0.1258E-04  0.1403E-04  0.1514E-04  0.2685E-07  0.2913E-07  0.2021E-07  0.2232E-07  0.2310E-07  0.2440E-07  0.2021E-07  0.2232E-07  0.2685E-07  0.2913E-07
     -3.680  0.5496E-02  0.5625E-02  0.3341E-04  0.3454E-04  0.2848E-04  0.2998E-04  0.3341E-04  0.3454E-04  0.6619E-07  0.6907E-07  0.7660E-07  0.8166E-07  0.4445E-07  0.4600E-07  0.7660E-07  0.8166E-07  0.6619E-07  0.6907E-07
     -3.594  0.6138E-02  0.6071E-02  0.4217E-04  0.4210E-04  0.4989E-04  0.5083E-04  0.4217E-04  0.4210E-04  0.1002E-06  0.1029E-06  0.1362E-06  0.1375E-06  0.1004E-06  0.1079E-06  0.1362E-06  0.1375E-06  0.1002E-06  0.1029E-06
     -3.508  0.5114E-02  0.5141E-02  0.4880E-04  0.5075E-04  0.6568E-04  0.6749E-04  0.4880E-04  0.5075E-04  0.1942E-06  0.2080E-06  0.1738E-06  0.1817E-06  0.2863E-06  0.3041E-06  0.1738E-06  0.1817E-06  0.1942E-06  0.2080E-06
     -3.422  0.7878E-02  0.8194E-02  0.1109E-03  0.1168E-03  0.1213E-03  0.1268E-03  0.1109E-03  0.1168E-03  0.5421E-06  0.5741E-06  0.4755E-06  0.5066E-06  0.6299E-06  0.6567E-06  0.4755E-06  0.5066E-06  0.5421E-06  0.5741E-06
     -3.337  0.1174E-01  0.1180E-01  0.1942E-03  0.1977E-03  0.1785E-03  0.1778E-03  0.1942E-03  0.1977E-03  0.1038E-05  0.1068E-05  0.8919E-06  0.9010E-06  0.9301E-06  0.9363E-06  0.8919E-06  0.9010E-06  0.1038E-05  0.1068E-05
     -3.251  0.1043E-01  0.1026E-01  0.2168E-03  0.2165E-03  0.1310E-03  0.1284E-03  0.2168E-03  0.2165E-03  0.1344E-05  0.1356E-05  0.9049E-06  0.9087E-06  0.9033E-06  0.8982E-06  0.9049E-06  0.9087E-06  0.1344E-05  0.1356E-05
     -3.165  0.8904E-02  0.8862E-02  0.2063E-03  0.2048E-03  0.1535E-03  0.1595E-03  0.2063E-03  0.2048E-03  0.1367E-05  0.1357E-05  0.1291E-05  0.1334E-05  0.9857E-06  0.1005E-05  0.1291E-05  0.1334E-05  0.1367E-05  0.1357E-05
     -3.079  0.8779E-02  0.8803E-02  0.1831E-03  0.1824E-03  0.2798E-03  0.2886E-03  0.1831E-03  0.1824E-03  0.1178E-05  0.1175E-05  0.2128E-05  0.2179E-05  0.1546E-05  0.1606E-05  0.2128E-05  0.2179E-05  0.1178E-05  0.1175E-05
     -2.993  0.9895E-02  0.1005E-01  0.2067E-03  0.2119E-03  0.4187E-03  0.4279E-03  0.2067E-03  0.2119E-03  0.1515E-05  0.1579E-05  0.2959E-05  0.3015E-05  0.2927E-05  0.3057E-05  0.2959E-05  0.3015E-05  0.1515E-05  0.1579E-05
     -2.908  0.1247E-01  0.1255E-01  0.3377E-03  0.3487E-03  0.4726E-03  0.4641E-03  0.3377E-03  0.3487E-03  0.3230E-05  0.3396E-05  0.3450E-05  0.3414E-05  0.4538E-05  0.4592E-05  0.3450E-05  0.3414E-05  0.3230E-05  0.3396E-05
     -2.822  0.1308E-01  0.1313E-01  0.5156E-03  0.5261E-03  0.2813E-03  0.2723E-03  0.5156E-03  0.5261E-03  0.5991E-05  0.6157E-05  0.2826E-05  0.2825E-05  0.4792E-05  0.4799E-05  0.2826E-05  0.2825E-05  0.5991E-05  0.6157E-05
     -2.736  0.1323E-01  0.1315E-01  0.5775E-03  0.5720E-03  0.2797E-03  0.2884E-03  0.5775E-03  0.5720E-03  0.6935E-05  0.6862E-05  0.3851E-05  0.3963E-05  0.4795E-05  0.4785E-05  0.3851E-05  0.3963E-05  0.6935E-05  0.6862E-05
     -2.650  0.1181E-01  0.1181E-01  0.4731E-03  0.4726E-03  0.4570E-03  0.4686E-03  0.4731E-03  0.4726E-03  0.5534E-05  0.5542E-05  0.6034E-05  0.6196E-05  0.4857E-05  0.4906E-05  0.6034E-05  0.6196E-05  0.5534E-05  0.5542E-05
     -2.564  0.1502E-01  0.1542E-01  0.6565E-03  0.6786E-03  0.6557E-03  0.6723E-03  0.6565E-03  0.6786E-03  0.8337E-05  0.8664E-05  0.9779E-05  0.1009E-04  0.6614E-05  0.6817E-05  0.9779E-05  0.1009E-04  0.8337E-05  0.8664E-05
     -2.479  0.1863E-01  0.1846E-01  0.8507E-03  0.8412E-03  0.8385E-03  0.8373E-03  0.8507E-03  0.8412E-03  0.1127E-04  0.1117E-04  0.1250E-04  0.1233E-04  0.9684E-05  0.9844E-05  0.1250E-04  0.1233E-04  0.1127E-04  0.1117E-04
     -2.393  0.1226E-01  0.1182E-01  0.4930E-03  0.4672E-03  0.7546E-03  0.7510E-03  0.4930E-03  0.4672E-03  0.6627E-05  0.6284E-05  0.7754E-05  0.7450E-05  0.1206E-04  0.1223E-04  0.7754E-05  0.7450E-05  0.6627E-05  0.6284E-05
     -2.307  0.8068E-02  0.7969E-02  0.2941E-03  0.2968E-03  0.6622E-03  0.6497E-03  0.2941E-03  0.2968E-03  0.4253E-05  0.4345E-05  0.5836E-05  0.5892E-05  0.1170E-04  0.1143E-04  0.5836E-05  0.5892E-05  0.4253E-05  0.4345E-05
     -2.221  0.8866E-02  0.9093E-02  0.4879E-03  0.5086E-03  0.5430E-03  0.5485E-03  0.4879E-03  0.5086E-03  0.8098E-05  0.8486E-05  0.9171E-05  0.9550E-05  0.7973E-05  0.7969E-05  0.9171E-05  0.9550E-05  0.8098E-05  0.8486E-05
     -2.135  0.1465E-01  0.1515E-01  0.8897E-03  0.9206E-03  0.8953E-03  0.9328E-03  0.8897E-03  0.9206E-03  0.1540E-04  0.1599E-04  0.1788E-04  0.1856E-04  0.1274E-04  0.1338E-04  0.1788E-04  0.1856E-04  0.1540E-04  0.1599E-04
     -2.049  0.2076E-01  0.2087E-01  0.1318E-02  0.1334E-02  0.1285E-02  0.1281E-02  0.1318E-02  0.1334E-02  0.2435E-04  0.2484E-04  0.2442E-04  0.2426E-04  0.2244E-04  0.2293E-04  0.2442E-04  0.2426E-04  0.2435E-04  0.2484E-04
     -1.964  0.1992E-01  0.1983E-01  0.1437E-02  0.1440E-02  0.1056E-02  0.1043E-02  0.1437E-02  0.1440E-02  0.2955E-04  0.2978E-04  0.1999E-04  0.1980E-04  0.2643E-04  0.2653E-04  0.1999E-04  0.1980E-04  0.2955E-04  0.2978E-04
     -1.878  0.1799E-01  0.1778E-01  0.1396E-02  0.1383E-02  0.9262E-03  0.9187E-03  0.1396E-02  0.1383E-02  0.2979E-04  0.2954E-04  0.2046E-04  0.2058E-04  0.2333E-04  0.2282E-04  0.2046E-04  0.2058E-04  0.2979E-04  0.2954E-04
     -1.792  0.1456E-01  0.1436E-01  0.1150E-02  0.1134E-02  0.8620E-03  0.8614E-03  0.1150E-02  0.1134E-02  0.2444E-04  0.2413E-04  0.2219E-04  0.2213E-04  0.1655E-04  0.1647E-04  0.2219E-04  0.2213E-04  0.2444E-04  0.2413E-04
     -1.706  0.1300E-01  0.1308E-01  0.1031E-02  0.1037E-02  0.9444E-03  0.9627E-03  0.1031E-02  0.1037E-02  0.2311E-04  0.2335E-04  0.2107E-04  0.2112E-04  0.2189E-04  0.2277E-04  0.2107E-04  0.2112E-04  0.2311E-04  0.2335E-04
     -1.620  0.1531E-01  0.1543E-01  0.1157E-02  0.1160E-02  0.1413E-02  0.1447E-02  0.1157E-02  0.1160E-02  0.2695E-04  0.2704E-04  0.2505E-04  0.2541E-04  0.3880E-04  0.3981E-04  0.2505E-04  0.2541E-04  0.2695E-04  0.2704E-04
     -1.535  0.1652E-01  0.1655E-01  0.1224E-02  0.1230E-02  0.1741E-02  0.1744E-02  0.1224E-02  0.1230E-02  0.2805E-04  0.2816E-04  0.3399E-04  0.3463E-04  0.4240E-04  0.4190E-04  0.3399E-04  0.3463E-04  0.2805E-04  0.2816E-04
     -1.449  0.1498E-01  0.1477E-01  0.1188E-02  0.1175E-02  0.1565E-02  0.1547E-02  0.1188E-02  0.1175E-02  0.2703E-04  0.2674E-04  0.3850E-04  0.3837E-04  0.3081E-04  0.3020E-04  0.3850E-04  0.3837E-04  0.2703E-04  0.2674E-04
     -1.363  0.1362E-01  0.1376E-01  0.1090E-02  0.1101E-02  0.1616E-02  0.1646E-02  0.1090E-02  0.1101E-02  0.2490E-04  0.2521E-04  0.4185E-04  0.4260E-04  0.3019E-04  0.3089E-04  0.4185E-04  0.4260E-04  0.2490E-04  0.2521E-04
     -1.277  0.1838E-01  0.1878E-01  0.1592E-02  0.1641E-02  0.2187E-02  0.2218E-02  0.1592E-02  0.1641E-02  0.3875E-04  0.4019E-04  0.6109E-04  0.6240E-04  0.4153E-04  0.4225E-04  0.6109E-04  0.6240E-04  0.3875E-04  0.4019E-04
     -1.191  0.2101E-01  0.2083E-01  0.2050E-02  0.2050E-02  0.2195E-02  0.2150E-02  0.2050E-02  0.2050E-02  0.5538E-04  0.5592E-04  0.6391E-04  0.6229E-04  0.5141E-04  0.5197E-04  0.6391E-04  0.6229E-04  0.5538E-04  0.5592E-04
     -1.106  0.1583E-01  0.1546E-01  0.1867E-02  0.1850E-02  0.1151E-02  0.1081E-02  0.1867E-02  0.1850E-02  0.5931E-04  0.5934E-04  0.3210E-04  0.3021E-04  0.5012E-04  0.4949E-04  0.3210E-04  0.3021E-04  0.5931E-04  0.5934E-04
     -1.020  0.1060E-01  0.1033E-01  0.1476E-02  0.1445E-02  0.4590E-03  0.4442E-03  0.1476E-02  0.1445E-02  0.5116E-04  0.5027E-04  0.1535E-04  0.1507E-04  0.3619E-04  0.3538E-04  0.1535E-04  0.1507E-04  0.5116E-04  0.5027E-04
     -0.934  0.1076E-01  0.1123E-01  0.1532E-02  0.1594E-02  0.6811E-03  0.7349E-03  0.1532E-02  0.1594E-02  0.5366E-04  0.5580E-04  0.2569E-04  0.2768E-04  0.3794E-04  0.3966E-04  0.2569E-04  0.2768E-04  0.5366E-04  0.5580E-04
     -0.848  0.2297E-01  0.2389E-01  0.3082E-02  0.3188E-02  0.2105E-02  0.2232E-02  0.3082E-02  0.3188E-02  0.1049E-03  0.1083E-03  0.7596E-04  0.8000E-04  0.8253E-04  0.8632E-04  0.7597E-04  0.8000E-04  0.1049E-03  0.1083E-03
     -0.762  0.2967E-01  0.2944E-01  0.3551E-02  0.3487E-02  0.3737E-02  0.3790E-02  0.3551E-02  0.3487E-02  0.1148E-03  0.1123E-03  0.1176E-03  0.1179E-03  0.1235E-03  0.1245E-03  0.1176E-03  0.1179E-03  0.1148E-03  0.1123E-03