 vasp.6.1.0 28Jan20 (build Jun 11 2020 16:13:15) complex                        
  
 executed on             LinuxIFC date 2021.04.16  00:03:13
 running on    4 total cores
 distrk:  each k-point on    4 cores,    1 groups
 distr:  one band on NCORE=   1 cores,    4 groups


--------------------------------------------------------------------------------------------------------


 INCAR:
 POTCAR:    PAW_PBE Mg 13Apr2007                  
 POTCAR:    PAW_PBE Mg 13Apr2007                  
   SHA256 =  a90315392b5cf46bd986ff2010bfd53a40dec98e36f8d1f6277412e9d0e81a9f Mg/POTCAR             
   COPYR  = (c) Copyright 13Apr2007 Georg Kresse                                                    
   COPYR  = This file is part of the software VASP. Any use, copying, and all other rights are regul
   COPYR  = If you do not have a valid VASP license, you may not use, copy or distribute this file. 
   VRHFIN =Mg: s2p0                                                                                 
   LEXCH  = PE                                                                                      
   EATOM  =    23.0369 eV,    1.6932 Ry                                                             
                                                                                                    
   TITEL  = PAW_PBE Mg 13Apr2007                                                                    
   LULTRA =        F    use ultrasoft PP ?                                                          
   IUNSCR =        1    unscreen: 0-lin 1-nonlin 2-no                                               
   RPACOR =    1.500    partial core radius                                                         
   POMASS =   24.305; ZVAL   =    2.000    mass and valenz                                          
   RCORE  =    2.000    outmost cutoff radius                                                       
   RWIGS  =    2.880; RWIGS  =    1.524    wigner-seitz radius (au A)                               
   ENMAX  =  200.000; ENMIN  =  100.000 eV                                                          
   RCLOC  =    1.506    cutoff for local pot                                                        
   LCOR   =        T    correct aug charges                                                         
   LPAW   =        T    paw PP                                                                      
   EAUG   =  454.734                                                                                
   DEXC   =    0.000                                                                                
   RMAX   =    2.045    core radius for proj-oper                                                   
   RAUG   =    1.300    factor for augmentation sphere                                              
   RDEP   =    2.025    radius for radial grids                                                     
   RDEPT  =    1.942    core radius for aug-charge                                                  
                                                                                                    
   Atomic configuration                                                                             
    6 entries                                                                                       
     n  l   j            E        occ.                                                              
     1  0  0.50     -1259.6230   2.0000                                                             
     2  0  0.50       -79.8442   2.0000                                                             
     2  1  1.50       -46.6121   6.0000                                                             
     3  0  0.50        -4.7055   2.0000                                                             
     3  1  0.50        -1.3660   0.0000                                                             
     3  2  1.50        -1.3606   0.0000                                                             
   Description                                                                                      
     l       E           TYP  RCUT    TYP  RCUT                                                     
     0     -4.7054661     23  2.000                                                                 
     0     27.2116520     23  2.000                                                                 
     1      1.3605826     23  2.000                                                                 
     1     27.2116520     23  2.000                                                                 
     2     -1.3605826     23  2.000                                                                 
  local pseudopotential read in
  partial core-charges read in
  partial kinetic energy density read in
  atomic valenz-charges read in
  non local Contribution for L=           0  read in
    real space projection operators read in
  non local Contribution for L=           0  read in
    real space projection operators read in
  non local Contribution for L=           1  read in
    real space projection operators read in
  non local Contribution for L=           1  read in
    real space projection operators read in
  non local Contribution for L=           2  read in
    real space projection operators read in
    PAW grid and wavefunctions read in
 
   number of l-projection  operators is LMAX  =           5
   number of lm-projection operators is LMMAX =          13
 
  PAW_PBE Mg 13Apr2007                  :
 energy of atom  1       EATOM=  -23.0369
 kinetic energy error for atom=    0.0000 (will be added to EATOM!!)
 
 
 POSCAR: Mg2
  positions in direct lattice
  velocities in cartesian coordinates
 exchange correlation table for  LEXCH =        8
   RHO(1)=    0.500       N(1)  =     2000
   RHO(2)=  100.500       N(2)  =     4000
 


--------------------------------------------------------------------------------------------------------


 ion  position               nearest neighbor table
   1  0.333  0.667  0.250-   2 3.18   2 3.18   2 3.18   2 3.18   2 3.18   2 3.18
   2  0.667  0.333  0.750-   1 3.18   1 3.18   1 3.18   1 3.18   1 3.18   1 3.18
 
 -----------------------------------------------------------------------------
|                                                                             |
|           W    W    AA    RRRRR   N    N  II  N    N   GGGG   !!!           |
|           W    W   A  A   R    R  NN   N  II  NN   N  G    G  !!!           |
|           W    W  A    A  R    R  N N  N  II  N N  N  G       !!!           |
|           W WW W  AAAAAA  RRRRR   N  N N  II  N  N N  G  GGG   !            |
|           WW  WW  A    A  R   R   N   NN  II  N   NN  G    G                |
|           W    W  A    A  R    R  N    N  II  N    N   GGGG   !!!           |
|                                                                             |
|     The determination of the symmetry of your systems shows a strong        |
|     dependence on the tolerance parameter SYMPREC. This is often the        |
|     result of "noise" in the structural parameters (lattice vectors         |
|     and/or ionic positions). Set NWRITE=3 for more details.                 |
|                                                                             |
 -----------------------------------------------------------------------------

  LATTYP: Found a hexagonal cell.
 ALAT       =     3.1896149453
 C/A-ratio  =     1.6278669349
  
  Lattice vectors:
  
 A1 = (   3.1896149533,   0.0000000011,   0.0000000000)
 A2 = (  -1.5948069748,   2.7622872778,   0.0000000000)
 A3 = (   0.0000000000,   0.0000000000,   5.1922687046)


Analysis of symmetry for initial positions (statically):
=====================================================================
 Subroutine PRICEL returns:
 Original cell was already a primitive cell.
 

 Routine SETGRP: Setting up the symmetry group for a 
 hexagonal supercell.


 Subroutine GETGRP returns: Found 24 space group operations
 (whereof 12 operations were pure point group operations)
 out of a pool of 24 trial point group operations.


The static configuration has the point symmetry D_3d.
 The point group associated with its full space group is D_6h.


Analysis of symmetry for dynamics (positions and initial velocities):
=====================================================================
 Subroutine PRICEL returns:
 Original cell was already a primitive cell.
 

 Routine SETGRP: Setting up the symmetry group for a 
 hexagonal supercell.


 Subroutine GETGRP returns: Found 24 space group operations
 (whereof 12 operations were pure point group operations)
 out of a pool of 24 trial point group operations.


The dynamic configuration has the point symmetry D_3d.
 The point group associated with its full space group is D_6h.


 Subroutine INISYM returns: Found 24 space group operations
 (whereof 12 operations are pure point group operations),
 and found     1 'primitive' translations


----------------------------------------------------------------------------------------

                                     Primitive cell                                     

  volume of cell :      45.7472

  direct lattice vectors                    reciprocal lattice vectors
     3.189614953  0.000000001  0.000000000     0.313517467  0.181009356  0.000000000
    -1.594806975  2.762287278  0.000000000    -0.000000000  0.362018827  0.000000000
     0.000000000  0.000000000  5.192268705     0.000000000  0.000000000  0.192594039

  length of vectors
     3.189614953  3.189614443  5.192268705     0.362018769  0.362018827  0.192594039

  position of ions in fractional coordinates (direct lattice)
     0.333333000  0.666667000  0.250000000
     0.666667000  0.333333000  0.750000000

  ion indices of the primitive-cell ions
   primitive index   ion index
                 1           1
                 2           2

----------------------------------------------------------------------------------------

 
 
 KPOINTS: k points                                

Automatic generation of k-mesh.
Space group operators:
 irot       det(A)        alpha          n_x          n_y          n_z        tau_x        tau_y        tau_z
    1     1.000000     0.000000     1.000000     0.000000     0.000000     0.000000     0.000000     0.000000
    2    -1.000000     0.000000     1.000000     0.000000     0.000000     0.000000     0.000000     0.000000
    3     1.000000   120.000000     0.000000     0.000000    -1.000000     0.000000     0.000000     0.000000
    4    -1.000000   120.000000     0.000000     0.000000    -1.000000     0.000000     0.000000     0.000000
    5     1.000000   120.000000     0.000000     0.000000     1.000000     0.000000     0.000000     0.000000
    6    -1.000000   120.000000     0.000000     0.000000     1.000000     0.000000     0.000000     0.000000
    7     1.000000   180.000000     1.000000    -0.000000     0.000000     0.000000     0.000000     0.000000
    8    -1.000000   180.000000     1.000000    -0.000000     0.000000     0.000000     0.000000     0.000000
    9     1.000000   180.000000     0.500000    -0.866025     0.000000     0.000000     0.000000     0.000000
   10    -1.000000   180.000000     0.500000    -0.866025     0.000000     0.000000     0.000000     0.000000
   11     1.000000   180.000000    -0.500000    -0.866025     0.000000     0.000000     0.000000     0.000000
   12    -1.000000   180.000000    -0.500000    -0.866025     0.000000     0.000000     0.000000     0.000000
   13     1.000000    60.000000     0.000000     0.000000    -1.000000     0.000001     0.000000    -0.500000
   14    -1.000000    60.000000     0.000000     0.000000    -1.000000     0.000001     0.000000    -0.500000
   15     1.000000   180.000000     0.000000     0.000000     1.000000     0.000000     0.000000    -0.500000
   16    -1.000000   180.000000     0.000000     0.000000     1.000000     0.000000     0.000000    -0.500000
   17     1.000000    60.000000     0.000000     0.000000     1.000000     0.000000     0.000000    -0.500000
   18    -1.000000    60.000000     0.000000     0.000000     1.000000     0.000000     0.000000    -0.500000
   19     1.000000   180.000000     0.866025    -0.500000     0.000000     0.000000     0.000000    -0.500000
   20    -1.000000   180.000000     0.866025    -0.500000     0.000000     0.000000     0.000000    -0.500000
   21     1.000000   179.999999     0.000000    -1.000000     0.000000     0.000000     0.000000    -0.500000
   22    -1.000000   179.999999     0.000000    -1.000000     0.000000     0.000000     0.000000    -0.500000
   23     1.000000   180.000000     0.866025     0.500000     0.000000     0.000000     0.000001    -0.500000
   24    -1.000000   180.000000     0.866025     0.500000     0.000000     0.000000     0.000001    -0.500000
 
 Subroutine IBZKPT returns following result:
 ===========================================
 
 Found    105 irreducible k-points:
 
 Following reciprocal coordinates:
            Coordinates               Weight
  0.000000  0.000000  0.000000      1.000000
  0.076923  0.000000  0.000000      6.000000
  0.153846  0.000000  0.000000      6.000000
  0.230769  0.000000  0.000000      6.000000
  0.307692  0.000000  0.000000      6.000000
  0.384615  0.000000  0.000000      6.000000
  0.461538 -0.000000  0.000000      6.000000
  0.076923  0.076923  0.000000      6.000000
  0.153846  0.076923  0.000000     12.000000
  0.230769  0.076923  0.000000     12.000000
  0.307692  0.076923  0.000000     12.000000
  0.384615  0.076923  0.000000     12.000000
  0.461538  0.076923  0.000000      6.000000
  0.153846  0.153846  0.000000      6.000000
  0.230769  0.153846  0.000000     12.000000
  0.307692  0.153846  0.000000     12.000000
  0.384615  0.153846  0.000000     12.000000
  0.230769  0.230769  0.000000      6.000000
  0.307692  0.230769  0.000000     12.000000
  0.384615  0.230769  0.000000      6.000000
  0.307692  0.307692  0.000000      6.000000
  0.000000  0.000000  0.111111      2.000000
  0.076923  0.000000  0.111111     12.000000
  0.153846  0.000000  0.111111     12.000000
  0.230769  0.000000  0.111111     12.000000
  0.307692  0.000000  0.111111     12.000000
  0.384615  0.000000  0.111111     12.000000
  0.461538 -0.000000  0.111111     12.000000
  0.076923  0.076923  0.111111     12.000000
  0.153846  0.076923  0.111111     24.000000
  0.230769  0.076923  0.111111     24.000000
  0.307692  0.076923  0.111111     24.000000
  0.384615  0.076923  0.111111     24.000000
  0.461538  0.076923  0.111111     12.000000
  0.153846  0.153846  0.111111     12.000000
  0.230769  0.153846  0.111111     24.000000
  0.307692  0.153846  0.111111     24.000000
  0.384615  0.153846  0.111111     24.000000
  0.230769  0.230769  0.111111     12.000000
  0.307692  0.230769  0.111111     24.000000
  0.384615  0.230769  0.111111     12.000000
  0.307692  0.307692  0.111111     12.000000
  0.000000  0.000000  0.222222      2.000000
  0.076923  0.000000  0.222222     12.000000
  0.153846  0.000000  0.222222     12.000000
  0.230769  0.000000  0.222222     12.000000
  0.307692  0.000000  0.222222     12.000000
  0.384615  0.000000  0.222222     12.000000
  0.461538 -0.000000  0.222222     12.000000
  0.076923  0.076923  0.222222     12.000000
  0.153846  0.076923  0.222222     24.000000
  0.230769  0.076923  0.222222     24.000000
  0.307692  0.076923  0.222222     24.000000
  0.384615  0.076923  0.222222     24.000000
  0.461538  0.076923  0.222222     12.000000
  0.153846  0.153846  0.222222     12.000000
  0.230769  0.153846  0.222222     24.000000
  0.307692  0.153846  0.222222     24.000000
  0.384615  0.153846  0.222222     24.000000
  0.230769  0.230769  0.222222     12.000000
  0.307692  0.230769  0.222222     24.000000
  0.384615  0.230769  0.222222     12.000000
  0.307692  0.307692  0.222222     12.000000
  0.000000  0.000000  0.333333      2.000000
  0.076923  0.000000  0.333333     12.000000
  0.153846  0.000000  0.333333     12.000000
  0.230769  0.000000  0.333333     12.000000
  0.307692  0.000000  0.333333     12.000000
  0.384615  0.000000  0.333333     12.000000
  0.461538 -0.000000  0.333333     12.000000
  0.076923  0.076923  0.333333     12.000000
  0.153846  0.076923  0.333333     24.000000
  0.230769  0.076923  0.333333     24.000000
  0.307692  0.076923  0.333333     24.000000
  0.384615  0.076923  0.333333     24.000000
  0.461538  0.076923  0.333333     12.000000
  0.153846  0.153846  0.333333     12.000000
  0.230769  0.153846  0.333333     24.000000
  0.307692  0.153846  0.333333     24.000000
  0.384615  0.153846  0.333333     24.000000
  0.230769  0.230769  0.333333     12.000000
  0.307692  0.230769  0.333333     24.000000
  0.384615  0.230769  0.333333     12.000000
  0.307692  0.307692  0.333333     12.000000
  0.000000  0.000000  0.444444      2.000000
  0.076923  0.000000  0.444444     12.000000
  0.153846  0.000000  0.444444     12.000000
  0.230769  0.000000  0.444444     12.000000
  0.307692  0.000000  0.444444     12.000000
  0.384615  0.000000  0.444444     12.000000
  0.461538 -0.000000  0.444444     12.000000
  0.076923  0.076923  0.444444     12.000000
  0.153846  0.076923  0.444444     24.000000
  0.230769  0.076923  0.444444     24.000000
  0.307692  0.076923  0.444444     24.000000
  0.384615  0.076923  0.444444     24.000000
  0.461538  0.076923  0.444444     12.000000
  0.153846  0.153846  0.444444     12.000000
  0.230769  0.153846  0.444444     24.000000
  0.307692  0.153846  0.444444     24.000000
  0.384615  0.153846  0.444444     24.000000
  0.230769  0.230769  0.444444     12.000000
  0.307692  0.230769  0.444444     24.000000
  0.384615  0.230769  0.444444     12.000000
  0.307692  0.307692  0.444444     12.000000
 
 Following cartesian coordinates:
            Coordinates               Weight
  0.000000  0.000000  0.000000      1.000000
  0.024117  0.013924  0.000000      6.000000
  0.048233  0.027848  0.000000      6.000000
  0.072350  0.041771  0.000000      6.000000
  0.096467  0.055695  0.000000      6.000000
  0.120584  0.069619  0.000000      6.000000
  0.144700  0.083543  0.000000      6.000000
  0.024117  0.041771  0.000000      6.000000
  0.048233  0.055695  0.000000     12.000000
  0.072350  0.069619  0.000000     12.000000
  0.096467  0.083543  0.000000     12.000000
  0.120584  0.097467  0.000000     12.000000
  0.144700  0.111390  0.000000      6.000000
  0.048233  0.083543  0.000000      6.000000
  0.072350  0.097467  0.000000     12.000000
  0.096467  0.111390  0.000000     12.000000
  0.120584  0.125314  0.000000     12.000000
  0.072350  0.125314  0.000000      6.000000
  0.096467  0.139238  0.000000     12.000000
  0.120584  0.153162  0.000000      6.000000
  0.096467  0.167086  0.000000      6.000000
  0.000000  0.000000  0.021399      2.000000
  0.024117  0.013924  0.021399     12.000000
  0.048233  0.027848  0.021399     12.000000
  0.072350  0.041771  0.021399     12.000000
  0.096467  0.055695  0.021399     12.000000
  0.120584  0.069619  0.021399     12.000000
  0.144700  0.083543  0.021399     12.000000
  0.024117  0.041771  0.021399     12.000000
  0.048233  0.055695  0.021399     24.000000
  0.072350  0.069619  0.021399     24.000000
  0.096467  0.083543  0.021399     24.000000
  0.120584  0.097467  0.021399     24.000000
  0.144700  0.111390  0.021399     12.000000
  0.048233  0.083543  0.021399     12.000000
  0.072350  0.097467  0.021399     24.000000
  0.096467  0.111390  0.021399     24.000000
  0.120584  0.125314  0.021399     24.000000
  0.072350  0.125314  0.021399     12.000000
  0.096467  0.139238  0.021399     24.000000
  0.120584  0.153162  0.021399     12.000000
  0.096467  0.167086  0.021399     12.000000
  0.000000  0.000000  0.042799      2.000000
  0.024117  0.013924  0.042799     12.000000
  0.048233  0.027848  0.042799     12.000000
  0.072350  0.041771  0.042799     12.000000
  0.096467  0.055695  0.042799     12.000000
  0.120584  0.069619  0.042799     12.000000
  0.144700  0.083543  0.042799     12.000000
  0.024117  0.041771  0.042799     12.000000
  0.048233  0.055695  0.042799     24.000000
  0.072350  0.069619  0.042799     24.000000
  0.096467  0.083543  0.042799     24.000000
  0.120584  0.097467  0.042799     24.000000
  0.144700  0.111390  0.042799     12.000000
  0.048233  0.083543  0.042799     12.000000
  0.072350  0.097467  0.042799     24.000000
  0.096467  0.111390  0.042799     24.000000
  0.120584  0.125314  0.042799     24.000000
  0.072350  0.125314  0.042799     12.000000
  0.096467  0.139238  0.042799     24.000000
  0.120584  0.153162  0.042799     12.000000
  0.096467  0.167086  0.042799     12.000000
  0.000000  0.000000  0.064198      2.000000
  0.024117  0.013924  0.064198     12.000000
  0.048233  0.027848  0.064198     12.000000
  0.072350  0.041771  0.064198     12.000000
  0.096467  0.055695  0.064198     12.000000
  0.120584  0.069619  0.064198     12.000000
  0.144700  0.083543  0.064198     12.000000
  0.024117  0.041771  0.064198     12.000000
  0.048233  0.055695  0.064198     24.000000
  0.072350  0.069619  0.064198     24.000000
  0.096467  0.083543  0.064198     24.000000
  0.120584  0.097467  0.064198     24.000000
  0.144700  0.111390  0.064198     12.000000
  0.048233  0.083543  0.064198     12.000000
  0.072350  0.097467  0.064198     24.000000
  0.096467  0.111390  0.064198     24.000000
  0.120584  0.125314  0.064198     24.000000
  0.072350  0.125314  0.064198     12.000000
  0.096467  0.139238  0.064198     24.000000
  0.120584  0.153162  0.064198     12.000000
  0.096467  0.167086  0.064198     12.000000
  0.000000  0.000000  0.085597      2.000000
  0.024117  0.013924  0.085597     12.000000
  0.048233  0.027848  0.085597     12.000000
  0.072350  0.041771  0.085597     12.000000
  0.096467  0.055695  0.085597     12.000000
  0.120584  0.069619  0.085597     12.000000
  0.144700  0.083543  0.085597     12.000000
  0.024117  0.041771  0.085597     12.000000
  0.048233  0.055695  0.085597     24.000000
  0.072350  0.069619  0.085597     24.000000
  0.096467  0.083543  0.085597     24.000000
  0.120584  0.097467  0.085597     24.000000
  0.144700  0.111390  0.085597     12.000000
  0.048233  0.083543  0.085597     12.000000
  0.072350  0.097467  0.085597     24.000000
  0.096467  0.111390  0.085597     24.000000
  0.120584  0.125314  0.085597     24.000000
  0.072350  0.125314  0.085597     12.000000
  0.096467  0.139238  0.085597     24.000000
  0.120584  0.153162  0.085597     12.000000
  0.096467  0.167086  0.085597     12.000000
 
 
 Subroutine IBZKPT_HF returns following result:
 ==============================================
 
 Found   1521 k-points in 1st BZ
 the following   1521 k-points will be used (e.g. in the exchange kernel)
 Following reciprocal coordinates:   # in IRBZ
  0.000000  0.000000  0.000000    0.00065746   1 t-inv F
  0.076923  0.000000  0.000000    0.00065746   2 t-inv F
  0.153846  0.000000  0.000000    0.00065746   3 t-inv F
  0.230769  0.000000  0.000000    0.00065746   4 t-inv F
  0.307692  0.000000  0.000000    0.00065746   5 t-inv F
  0.384615  0.000000  0.000000    0.00065746   6 t-inv F
  0.461538 -0.000000  0.000000    0.00065746   7 t-inv F
  0.076923  0.076923  0.000000    0.00065746   8 t-inv F
  0.153846  0.076923  0.000000    0.00065746   9 t-inv F
  0.230769  0.076923  0.000000    0.00065746  10 t-inv F
  0.307692  0.076923  0.000000    0.00065746  11 t-inv F
  0.384615  0.076923  0.000000    0.00065746  12 t-inv F
  0.461538  0.076923  0.000000    0.00065746  13 t-inv F
  0.153846  0.153846  0.000000    0.00065746  14 t-inv F
  0.230769  0.153846  0.000000    0.00065746  15 t-inv F
  0.307692  0.153846  0.000000    0.00065746  16 t-inv F
  0.384615  0.153846  0.000000    0.00065746  17 t-inv F
  0.230769  0.230769  0.000000    0.00065746  18 t-inv F
  0.307692  0.230769  0.000000    0.00065746  19 t-inv F
  0.384615  0.230769  0.000000    0.00065746  20 t-inv F
  0.307692  0.307692  0.000000    0.00065746  21 t-inv F
  0.000000  0.000000  0.111111    0.00065746  22 t-inv F
  0.076923  0.000000  0.111111    0.00065746  23 t-inv F
  0.153846  0.000000  0.111111    0.00065746  24 t-inv F
  0.230769  0.000000  0.111111    0.00065746  25 t-inv F
  0.307692  0.000000  0.111111    0.00065746  26 t-inv F
  0.384615  0.000000  0.111111    0.00065746  27 t-inv F
  0.461538 -0.000000  0.111111    0.00065746  28 t-inv F
  0.076923  0.076923  0.111111    0.00065746  29 t-inv F
  0.153846  0.076923  0.111111    0.00065746  30 t-inv F
  0.230769  0.076923  0.111111    0.00065746  31 t-inv F
  0.307692  0.076923  0.111111    0.00065746  32 t-inv F
  0.384615  0.076923  0.111111    0.00065746  33 t-inv F
  0.461538  0.076923  0.111111    0.00065746  34 t-inv F
  0.153846  0.153846  0.111111    0.00065746  35 t-inv F
  0.230769  0.153846  0.111111    0.00065746  36 t-inv F
  0.307692  0.153846  0.111111    0.00065746  37 t-inv F
  0.384615  0.153846  0.111111    0.00065746  38 t-inv F
  0.230769  0.230769  0.111111    0.00065746  39 t-inv F
  0.307692  0.230769  0.111111    0.00065746  40 t-inv F
  0.384615  0.230769  0.111111    0.00065746  41 t-inv F
  0.307692  0.307692  0.111111    0.00065746  42 t-inv F
  0.000000  0.000000  0.222222    0.00065746  43 t-inv F
  0.076923  0.000000  0.222222    0.00065746  44 t-inv F
  0.153846  0.000000  0.222222    0.00065746  45 t-inv F
  0.230769  0.000000  0.222222    0.00065746  46 t-inv F
  0.307692  0.000000  0.222222    0.00065746  47 t-inv F
  0.384615  0.000000  0.222222    0.00065746  48 t-inv F
  0.461538 -0.000000  0.222222    0.00065746  49 t-inv F
  0.076923  0.076923  0.222222    0.00065746  50 t-inv F
  0.153846  0.076923  0.222222    0.00065746  51 t-inv F
  0.230769  0.076923  0.222222    0.00065746  52 t-inv F
  0.307692  0.076923  0.222222    0.00065746  53 t-inv F
  0.384615  0.076923  0.222222    0.00065746  54 t-inv F
  0.461538  0.076923  0.222222    0.00065746  55 t-inv F
  0.153846  0.153846  0.222222    0.00065746  56 t-inv F
  0.230769  0.153846  0.222222    0.00065746  57 t-inv F
  0.307692  0.153846  0.222222    0.00065746  58 t-inv F
  0.384615  0.153846  0.222222    0.00065746  59 t-inv F
  0.230769  0.230769  0.222222    0.00065746  60 t-inv F
  0.307692  0.230769  0.222222    0.00065746  61 t-inv F
  0.384615  0.230769  0.222222    0.00065746  62 t-inv F
  0.307692  0.307692  0.222222    0.00065746  63 t-inv F
  0.000000  0.000000  0.333333    0.00065746  64 t-inv F
  0.076923  0.000000  0.333333    0.00065746  65 t-inv F
  0.153846  0.000000  0.333333    0.00065746  66 t-inv F
  0.230769  0.000000  0.333333    0.00065746  67 t-inv F
  0.307692  0.000000  0.333333    0.00065746  68 t-inv F
  0.384615  0.000000  0.333333    0.00065746  69 t-inv F
  0.461538 -0.000000  0.333333    0.00065746  70 t-inv F
  0.076923  0.076923  0.333333    0.00065746  71 t-inv F
  0.153846  0.076923  0.333333    0.00065746  72 t-inv F
  0.230769  0.076923  0.333333    0.00065746  73 t-inv F
  0.307692  0.076923  0.333333    0.00065746  74 t-inv F
  0.384615  0.076923  0.333333    0.00065746  75 t-inv F
  0.461538  0.076923  0.333333    0.00065746  76 t-inv F
  0.153846  0.153846  0.333333    0.00065746  77 t-inv F
  0.230769  0.153846  0.333333    0.00065746  78 t-inv F
  0.307692  0.153846  0.333333    0.00065746  79 t-inv F
  0.384615  0.153846  0.333333    0.00065746  80 t-inv F
  0.230769  0.230769  0.333333    0.00065746  81 t-inv F
  0.307692  0.230769  0.333333    0.00065746  82 t-inv F
  0.384615  0.230769  0.333333    0.00065746  83 t-inv F
  0.307692  0.307692  0.333333    0.00065746  84 t-inv F
  0.000000  0.000000  0.444444    0.00065746  85 t-inv F
  0.076923  0.000000  0.444444    0.00065746  86 t-inv F
  0.153846  0.000000  0.444444    0.00065746  87 t-inv F
  0.230769  0.000000  0.444444    0.00065746  88 t-inv F
  0.307692  0.000000  0.444444    0.00065746  89 t-inv F
  0.384615  0.000000  0.444444    0.00065746  90 t-inv F
  0.461538 -0.000000  0.444444    0.00065746  91 t-inv F
  0.076923  0.076923  0.444444    0.00065746  92 t-inv F
  0.153846  0.076923  0.444444    0.00065746  93 t-inv F
  0.230769  0.076923  0.444444    0.00065746  94 t-inv F
  0.307692  0.076923  0.444444    0.00065746  95 t-inv F
  0.384615  0.076923  0.444444    0.00065746  96 t-inv F
  0.461538  0.076923  0.444444    0.00065746  97 t-inv F
  0.153846  0.153846  0.444444    0.00065746  98 t-inv F
  0.230769  0.153846  0.444444    0.00065746  99 t-inv F
  0.307692  0.153846  0.444444    0.00065746 100 t-inv F
  0.384615  0.153846  0.444444    0.00065746 101 t-inv F
  0.230769  0.230769  0.444444    0.00065746 102 t-inv F
  0.307692  0.230769  0.444444    0.00065746 103 t-inv F
  0.384615  0.230769  0.444444    0.00065746 104 t-inv F
  0.307692  0.307692  0.444444    0.00065746 105 t-inv F
 -0.076923 -0.000000  0.000000    0.00065746   2 t-inv F
 -0.076923  0.076923  0.000000    0.00065746   2 t-inv F
  0.076923 -0.076923  0.000000    0.00065746   2 t-inv F
  0.000000 -0.076923  0.000000    0.00065746   2 t-inv F
 -0.000000  0.076923  0.000000    0.00065746   2 t-inv F
 -0.153846 -0.000000  0.000000    0.00065746   3 t-inv F
 -0.153846  0.153846  0.000000    0.00065746   3 t-inv F
  0.153846 -0.153846  0.000000    0.00065746   3 t-inv F
  0.000000 -0.153846  0.000000    0.00065746   3 t-inv F
 -0.000000  0.153846  0.000000    0.00065746   3 t-inv F
 -0.230769 -0.000000  0.000000    0.00065746   4 t-inv F
 -0.230769  0.230769  0.000000    0.00065746   4 t-inv F
  0.230769 -0.230769  0.000000    0.00065746   4 t-inv F
  0.000000 -0.230769  0.000000    0.00065746   4 t-inv F
 -0.000000  0.230769  0.000000    0.00065746   4 t-inv F
 -0.307692 -0.000000  0.000000    0.00065746   5 t-inv F
 -0.307692  0.307692  0.000000    0.00065746   5 t-inv F
  0.307692 -0.307692  0.000000    0.00065746   5 t-inv F
  0.000000 -0.307692  0.000000    0.00065746   5 t-inv F
 -0.000000  0.307692  0.000000    0.00065746   5 t-inv F
 -0.384615 -0.000000  0.000000    0.00065746   6 t-inv F
 -0.384615  0.384615  0.000000    0.00065746   6 t-inv F
  0.384615 -0.384615  0.000000    0.00065746   6 t-inv F
  0.000000 -0.384615  0.000000    0.00065746   6 t-inv F
 -0.000000  0.384615  0.000000    0.00065746   6 t-inv F
 -0.461538  0.000000  0.000000    0.00065746   7 t-inv F
 -0.461538  0.461538  0.000000    0.00065746   7 t-inv F
  0.461538 -0.461538  0.000000    0.00065746   7 t-inv F
 -0.000000 -0.461538  0.000000    0.00065746   7 t-inv F
  0.000000  0.461538  0.000000    0.00065746   7 t-inv F
 -0.076923 -0.076923  0.000000    0.00065746   8 t-inv F
 -0.153846  0.076923  0.000000    0.00065746   8 t-inv F
  0.153846 -0.076923  0.000000    0.00065746   8 t-inv F
  0.076923 -0.153846  0.000000    0.00065746   8 t-inv F
 -0.076923  0.153846  0.000000    0.00065746   8 t-inv F
 -0.153846 -0.076923  0.000000    0.00065746   9 t-inv F
 -0.230769  0.153846  0.000000    0.00065746   9 t-inv F
  0.230769 -0.153846  0.000000    0.00065746   9 t-inv F
  0.076923 -0.230769  0.000000    0.00065746   9 t-inv F
 -0.076923  0.230769  0.000000    0.00065746   9 t-inv F
  0.153846 -0.230769  0.000000    0.00065746   9 t-inv F
 -0.153846  0.230769  0.000000    0.00065746   9 t-inv F
 -0.230769  0.076923  0.000000    0.00065746   9 t-inv F
  0.230769 -0.076923  0.000000    0.00065746   9 t-inv F
  0.076923  0.153846  0.000000    0.00065746   9 t-inv F
 -0.076923 -0.153846  0.000000    0.00065746   9 t-inv F
 -0.230769 -0.076923  0.000000    0.00065746  10 t-inv F
 -0.307692  0.230769  0.000000    0.00065746  10 t-inv F
  0.307692 -0.230769  0.000000    0.00065746  10 t-inv F
  0.076923 -0.307692  0.000000    0.00065746  10 t-inv F
 -0.076923  0.307692  0.000000    0.00065746  10 t-inv F
  0.230769 -0.307692  0.000000    0.00065746  10 t-inv F
 -0.230769  0.307692  0.000000    0.00065746  10 t-inv F
 -0.307692  0.076923  0.000000    0.00065746  10 t-inv F
  0.307692 -0.076923  0.000000    0.00065746  10 t-inv F
  0.076923  0.230769  0.000000    0.00065746  10 t-inv F
 -0.076923 -0.230769  0.000000    0.00065746  10 t-inv F
 -0.307692 -0.076923  0.000000    0.00065746  11 t-inv F
 -0.384615  0.307692  0.000000    0.00065746  11 t-inv F
  0.384615 -0.307692  0.000000    0.00065746  11 t-inv F
  0.076923 -0.384615  0.000000    0.00065746  11 t-inv F
 -0.076923  0.384615  0.000000    0.00065746  11 t-inv F
  0.307692 -0.384615  0.000000    0.00065746  11 t-inv F
 -0.307692  0.384615  0.000000    0.00065746  11 t-inv F
 -0.384615  0.076923  0.000000    0.00065746  11 t-inv F
  0.384615 -0.076923  0.000000    0.00065746  11 t-inv F
  0.076923  0.307692  0.000000    0.00065746  11 t-inv F
 -0.076923 -0.307692  0.000000    0.00065746  11 t-inv F
 -0.384615 -0.076923  0.000000    0.00065746  12 t-inv F
 -0.461538  0.384615  0.000000    0.00065746  12 t-inv F
  0.461538 -0.384615  0.000000    0.00065746  12 t-inv F
  0.076923 -0.461538  0.000000    0.00065746  12 t-inv F
 -0.076923  0.461538  0.000000    0.00065746  12 t-inv F
  0.384615 -0.461538  0.000000    0.00065746  12 t-inv F
 -0.384615  0.461538  0.000000    0.00065746  12 t-inv F
 -0.461538  0.076923  0.000000    0.00065746  12 t-inv F
  0.461538 -0.076923  0.000000    0.00065746  12 t-inv F
  0.076923  0.384615  0.000000    0.00065746  12 t-inv F
 -0.076923 -0.384615  0.000000    0.00065746  12 t-inv F
 -0.461538 -0.076923  0.000000    0.00065746  13 t-inv F
 -0.538462  0.461538  0.000000    0.00065746  13 t-inv F
  0.538462 -0.461538  0.000000    0.00065746  13 t-inv F
  0.076923 -0.538462  0.000000    0.00065746  13 t-inv F
 -0.076923  0.538462  0.000000    0.00065746  13 t-inv F
 -0.153846 -0.153846  0.000000    0.00065746  14 t-inv F
 -0.307692  0.153846  0.000000    0.00065746  14 t-inv F
  0.307692 -0.153846  0.000000    0.00065746  14 t-inv F
  0.153846 -0.307692  0.000000    0.00065746  14 t-inv F
 -0.153846  0.307692  0.000000    0.00065746  14 t-inv F
 -0.230769 -0.153846  0.000000    0.00065746  15 t-inv F
 -0.384615  0.230769  0.000000    0.00065746  15 t-inv F
  0.384615 -0.230769  0.000000    0.00065746  15 t-inv F
  0.153846 -0.384615  0.000000    0.00065746  15 t-inv F
 -0.153846  0.384615  0.000000    0.00065746  15 t-inv F
  0.230769 -0.384615  0.000000    0.00065746  15 t-inv F
 -0.230769  0.384615  0.000000    0.00065746  15 t-inv F
 -0.384615  0.153846  0.000000    0.00065746  15 t-inv F
  0.384615 -0.153846  0.000000    0.00065746  15 t-inv F
  0.153846  0.230769  0.000000    0.00065746  15 t-inv F
 -0.153846 -0.230769  0.000000    0.00065746  15 t-inv F
 -0.307692 -0.153846  0.000000    0.00065746  16 t-inv F
 -0.461538  0.307692  0.000000    0.00065746  16 t-inv F
  0.461538 -0.307692  0.000000    0.00065746  16 t-inv F
  0.153846 -0.461538  0.000000    0.00065746  16 t-inv F
 -0.153846  0.461538  0.000000    0.00065746  16 t-inv F
  0.307692 -0.461538  0.000000    0.00065746  16 t-inv F
 -0.307692  0.461538  0.000000    0.00065746  16 t-inv F
 -0.461538  0.153846  0.000000    0.00065746  16 t-inv F
  0.461538 -0.153846  0.000000    0.00065746  16 t-inv F
  0.153846  0.307692  0.000000    0.00065746  16 t-inv F
 -0.153846 -0.307692  0.000000    0.00065746  16 t-inv F
 -0.384615 -0.153846  0.000000    0.00065746  17 t-inv F
 -0.538462  0.384615  0.000000    0.00065746  17 t-inv F
  0.538462 -0.384615  0.000000    0.00065746  17 t-inv F
  0.153846 -0.538462  0.000000    0.00065746  17 t-inv F
 -0.153846  0.538462  0.000000    0.00065746  17 t-inv F
  0.384615 -0.538462  0.000000    0.00065746  17 t-inv F
 -0.384615  0.538462  0.000000    0.00065746  17 t-inv F
 -0.538462  0.153846  0.000000    0.00065746  17 t-inv F
  0.538462 -0.153846  0.000000    0.00065746  17 t-inv F
  0.153846  0.384615  0.000000    0.00065746  17 t-inv F
 -0.153846 -0.384615  0.000000    0.00065746  17 t-inv F
 -0.230769 -0.230769  0.000000    0.00065746  18 t-inv F
 -0.461538  0.230769  0.000000    0.00065746  18 t-inv F
  0.461538 -0.230769  0.000000    0.00065746  18 t-inv F
  0.230769 -0.461538  0.000000    0.00065746  18 t-inv F
 -0.230769  0.461538  0.000000    0.00065746  18 t-inv F
 -0.307692 -0.230769  0.000000    0.00065746  19 t-inv F
 -0.538462  0.307692  0.000000    0.00065746  19 t-inv F
  0.538462 -0.307692  0.000000    0.00065746  19 t-inv F
  0.230769 -0.538462  0.000000    0.00065746  19 t-inv F
 -0.230769  0.538462  0.000000    0.00065746  19 t-inv F
  0.307692 -0.538462  0.000000    0.00065746  19 t-inv F
 -0.307692  0.538462  0.000000    0.00065746  19 t-inv F
 -0.538462  0.230769  0.000000    0.00065746  19 t-inv F
  0.538462 -0.230769  0.000000    0.00065746  19 t-inv F
  0.230769  0.307692  0.000000    0.00065746  19 t-inv F
 -0.230769 -0.307692  0.000000    0.00065746  19 t-inv F
 -0.384615 -0.230769  0.000000    0.00065746  20 t-inv F
 -0.615385  0.384615  0.000000    0.00065746  20 t-inv F
  0.615385 -0.384615  0.000000    0.00065746  20 t-inv F
  0.230769 -0.615385  0.000000    0.00065746  20 t-inv F
 -0.230769  0.615385  0.000000    0.00065746  20 t-inv F
 -0.307692 -0.307692  0.000000    0.00065746  21 t-inv F
 -0.615385  0.307692  0.000000    0.00065746  21 t-inv F
  0.615385 -0.307692  0.000000    0.00065746  21 t-inv F
  0.307692 -0.615385  0.000000    0.00065746  21 t-inv F
 -0.307692  0.615385  0.000000    0.00065746  21 t-inv F
  0.000000  0.000000 -0.111111    0.00065746  22 t-inv F
 -0.076923 -0.000000 -0.111111    0.00065746  23 t-inv F
 -0.076923  0.076923  0.111111    0.00065746  23 t-inv F
  0.076923 -0.076923 -0.111111    0.00065746  23 t-inv F
  0.000000 -0.076923  0.111111    0.00065746  23 t-inv F
 -0.000000  0.076923 -0.111111    0.00065746  23 t-inv F
 -0.000000  0.076923  0.111111    0.00065746  23 t-inv F
  0.000000 -0.076923 -0.111111    0.00065746  23 t-inv F
 -0.076923 -0.000000  0.111111    0.00065746  23 t-inv F
  0.076923  0.000000 -0.111111    0.00065746  23 t-inv F
  0.076923 -0.076923  0.111111    0.00065746  23 t-inv F
 -0.076923  0.076923 -0.111111    0.00065746  23 t-inv F
 -0.153846 -0.000000 -0.111111    0.00065746  24 t-inv F
 -0.153846  0.153846  0.111111    0.00065746  24 t-inv F
  0.153846 -0.153846 -0.111111    0.00065746  24 t-inv F
  0.000000 -0.153846  0.111111    0.00065746  24 t-inv F
 -0.000000  0.153846 -0.111111    0.00065746  24 t-inv F
 -0.000000  0.153846  0.111111    0.00065746  24 t-inv F
  0.000000 -0.153846 -0.111111    0.00065746  24 t-inv F
 -0.153846 -0.000000  0.111111    0.00065746  24 t-inv F
  0.153846  0.000000 -0.111111    0.00065746  24 t-inv F
  0.153846 -0.153846  0.111111    0.00065746  24 t-inv F
 -0.153846  0.153846 -0.111111    0.00065746  24 t-inv F
 -0.230769 -0.000000 -0.111111    0.00065746  25 t-inv F
 -0.230769  0.230769  0.111111    0.00065746  25 t-inv F
  0.230769 -0.230769 -0.111111    0.00065746  25 t-inv F
  0.000000 -0.230769  0.111111    0.00065746  25 t-inv F
 -0.000000  0.230769 -0.111111    0.00065746  25 t-inv F
 -0.000000  0.230769  0.111111    0.00065746  25 t-inv F
  0.000000 -0.230769 -0.111111    0.00065746  25 t-inv F
 -0.230769 -0.000000  0.111111    0.00065746  25 t-inv F
  0.230769  0.000000 -0.111111    0.00065746  25 t-inv F
  0.230769 -0.230769  0.111111    0.00065746  25 t-inv F
 -0.230769  0.230769 -0.111111    0.00065746  25 t-inv F
 -0.307692 -0.000000 -0.111111    0.00065746  26 t-inv F
 -0.307692  0.307692  0.111111    0.00065746  26 t-inv F
  0.307692 -0.307692 -0.111111    0.00065746  26 t-inv F
  0.000000 -0.307692  0.111111    0.00065746  26 t-inv F
 -0.000000  0.307692 -0.111111    0.00065746  26 t-inv F
 -0.000000  0.307692  0.111111    0.00065746  26 t-inv F
  0.000000 -0.307692 -0.111111    0.00065746  26 t-inv F
 -0.307692 -0.000000  0.111111    0.00065746  26 t-inv F
  0.307692  0.000000 -0.111111    0.00065746  26 t-inv F
  0.307692 -0.307692  0.111111    0.00065746  26 t-inv F
 -0.307692  0.307692 -0.111111    0.00065746  26 t-inv F
 -0.384615 -0.000000 -0.111111    0.00065746  27 t-inv F
 -0.384615  0.384615  0.111111    0.00065746  27 t-inv F
  0.384615 -0.384615 -0.111111    0.00065746  27 t-inv F
  0.000000 -0.384615  0.111111    0.00065746  27 t-inv F
 -0.000000  0.384615 -0.111111    0.00065746  27 t-inv F
 -0.000000  0.384615  0.111111    0.00065746  27 t-inv F
  0.000000 -0.384615 -0.111111    0.00065746  27 t-inv F
 -0.384615 -0.000000  0.111111    0.00065746  27 t-inv F
  0.384615  0.000000 -0.111111    0.00065746  27 t-inv F
  0.384615 -0.384615  0.111111    0.00065746  27 t-inv F
 -0.384615  0.384615 -0.111111    0.00065746  27 t-inv F
 -0.461538  0.000000 -0.111111    0.00065746  28 t-inv F
 -0.461538  0.461538  0.111111    0.00065746  28 t-inv F
  0.461538 -0.461538 -0.111111    0.00065746  28 t-inv F
 -0.000000 -0.461538  0.111111    0.00065746  28 t-inv F
  0.000000  0.461538 -0.111111    0.00065746  28 t-inv F
  0.000000  0.461538  0.111111    0.00065746  28 t-inv F
 -0.000000 -0.461538 -0.111111    0.00065746  28 t-inv F
 -0.461538  0.000000  0.111111    0.00065746  28 t-inv F
  0.461538 -0.000000 -0.111111    0.00065746  28 t-inv F
  0.461538 -0.461538  0.111111    0.00065746  28 t-inv F
 -0.461538  0.461538 -0.111111    0.00065746  28 t-inv F
 -0.076923 -0.076923 -0.111111    0.00065746  29 t-inv F
 -0.153846  0.076923  0.111111    0.00065746  29 t-inv F
  0.153846 -0.076923 -0.111111    0.00065746  29 t-inv F
  0.076923 -0.153846  0.111111    0.00065746  29 t-inv F
 -0.076923  0.153846 -0.111111    0.00065746  29 t-inv F
  0.076923 -0.153846 -0.111111    0.00065746  29 t-inv F
 -0.076923  0.153846  0.111111    0.00065746  29 t-inv F
 -0.153846  0.076923 -0.111111    0.00065746  29 t-inv F
  0.153846 -0.076923  0.111111    0.00065746  29 t-inv F
  0.076923  0.076923 -0.111111    0.00065746  29 t-inv F
 -0.076923 -0.076923  0.111111    0.00065746  29 t-inv F
 -0.153846 -0.076923 -0.111111    0.00065746  30 t-inv F
 -0.230769  0.153846  0.111111    0.00065746  30 t-inv F
  0.230769 -0.153846 -0.111111    0.00065746  30 t-inv F
  0.076923 -0.230769  0.111111    0.00065746  30 t-inv F
 -0.076923  0.230769 -0.111111    0.00065746  30 t-inv F
  0.153846 -0.230769 -0.111111    0.00065746  30 t-inv F
 -0.153846  0.230769  0.111111    0.00065746  30 t-inv F
 -0.230769  0.076923 -0.111111    0.00065746  30 t-inv F
  0.230769 -0.076923  0.111111    0.00065746  30 t-inv F
  0.076923  0.153846 -0.111111    0.00065746  30 t-inv F
 -0.076923 -0.153846  0.111111    0.00065746  30 t-inv F
 -0.076923  0.230769  0.111111    0.00065746  30 t-inv F
  0.076923 -0.230769 -0.111111    0.00065746  30 t-inv F
 -0.153846 -0.076923  0.111111    0.00065746  30 t-inv F
  0.153846  0.076923 -0.111111    0.00065746  30 t-inv F
  0.230769 -0.153846  0.111111    0.00065746  30 t-inv F
 -0.230769  0.153846 -0.111111    0.00065746  30 t-inv F
 -0.076923 -0.153846 -0.111111    0.00065746  30 t-inv F
  0.076923  0.153846  0.111111    0.00065746  30 t-inv F
 -0.153846  0.230769 -0.111111    0.00065746  30 t-inv F
  0.153846 -0.230769  0.111111    0.00065746  30 t-inv F
  0.230769 -0.076923 -0.111111    0.00065746  30 t-inv F
 -0.230769  0.076923  0.111111    0.00065746  30 t-inv F
 -0.230769 -0.076923 -0.111111    0.00065746  31 t-inv F
 -0.307692  0.230769  0.111111    0.00065746  31 t-inv F
  0.307692 -0.230769 -0.111111    0.00065746  31 t-inv F
  0.076923 -0.307692  0.111111    0.00065746  31 t-inv F
 -0.076923  0.307692 -0.111111    0.00065746  31 t-inv F
  0.230769 -0.307692 -0.111111    0.00065746  31 t-inv F
 -0.230769  0.307692  0.111111    0.00065746  31 t-inv F
 -0.307692  0.076923 -0.111111    0.00065746  31 t-inv F
  0.307692 -0.076923  0.111111    0.00065746  31 t-inv F
  0.076923  0.230769 -0.111111    0.00065746  31 t-inv F
 -0.076923 -0.230769  0.111111    0.00065746  31 t-inv F
 -0.076923  0.307692  0.111111    0.00065746  31 t-inv F
  0.076923 -0.307692 -0.111111    0.00065746  31 t-inv F
 -0.230769 -0.076923  0.111111    0.00065746  31 t-inv F
  0.230769  0.076923 -0.111111    0.00065746  31 t-inv F
  0.307692 -0.230769  0.111111    0.00065746  31 t-inv F
 -0.307692  0.230769 -0.111111    0.00065746  31 t-inv F
 -0.076923 -0.230769 -0.111111    0.00065746  31 t-inv F
  0.076923  0.230769  0.111111    0.00065746  31 t-inv F
 -0.230769  0.307692 -0.111111    0.00065746  31 t-inv F
  0.230769 -0.307692  0.111111    0.00065746  31 t-inv F
  0.307692 -0.076923 -0.111111    0.00065746  31 t-inv F
 -0.307692  0.076923  0.111111    0.00065746  31 t-inv F
 -0.307692 -0.076923 -0.111111    0.00065746  32 t-inv F
 -0.384615  0.307692  0.111111    0.00065746  32 t-inv F
  0.384615 -0.307692 -0.111111    0.00065746  32 t-inv F
  0.076923 -0.384615  0.111111    0.00065746  32 t-inv F
 -0.076923  0.384615 -0.111111    0.00065746  32 t-inv F
  0.307692 -0.384615 -0.111111    0.00065746  32 t-inv F
 -0.307692  0.384615  0.111111    0.00065746  32 t-inv F
 -0.384615  0.076923 -0.111111    0.00065746  32 t-inv F
  0.384615 -0.076923  0.111111    0.00065746  32 t-inv F
  0.076923  0.307692 -0.111111    0.00065746  32 t-inv F
 -0.076923 -0.307692  0.111111    0.00065746  32 t-inv F
 -0.076923  0.384615  0.111111    0.00065746  32 t-inv F
  0.076923 -0.384615 -0.111111    0.00065746  32 t-inv F
 -0.307692 -0.076923  0.111111    0.00065746  32 t-inv F
  0.307692  0.076923 -0.111111    0.00065746  32 t-inv F
  0.384615 -0.307692  0.111111    0.00065746  32 t-inv F
 -0.384615  0.307692 -0.111111    0.00065746  32 t-inv F
 -0.076923 -0.307692 -0.111111    0.00065746  32 t-inv F
  0.076923  0.307692  0.111111    0.00065746  32 t-inv F
 -0.307692  0.384615 -0.111111    0.00065746  32 t-inv F
  0.307692 -0.384615  0.111111    0.00065746  32 t-inv F
  0.384615 -0.076923 -0.111111    0.00065746  32 t-inv F
 -0.384615  0.076923  0.111111    0.00065746  32 t-inv F
 -0.384615 -0.076923 -0.111111    0.00065746  33 t-inv F
 -0.461538  0.384615  0.111111    0.00065746  33 t-inv F
  0.461538 -0.384615 -0.111111    0.00065746  33 t-inv F
  0.076923 -0.461538  0.111111    0.00065746  33 t-inv F
 -0.076923  0.461538 -0.111111    0.00065746  33 t-inv F
  0.384615 -0.461538 -0.111111    0.00065746  33 t-inv F
 -0.384615  0.461538  0.111111    0.00065746  33 t-inv F
 -0.461538  0.076923 -0.111111    0.00065746  33 t-inv F
  0.461538 -0.076923  0.111111    0.00065746  33 t-inv F
  0.076923  0.384615 -0.111111    0.00065746  33 t-inv F
 -0.076923 -0.384615  0.111111    0.00065746  33 t-inv F
 -0.076923  0.461538  0.111111    0.00065746  33 t-inv F
  0.076923 -0.461538 -0.111111    0.00065746  33 t-inv F
 -0.384615 -0.076923  0.111111    0.00065746  33 t-inv F
  0.384615  0.076923 -0.111111    0.00065746  33 t-inv F
  0.461538 -0.384615  0.111111    0.00065746  33 t-inv F
 -0.461538  0.384615 -0.111111    0.00065746  33 t-inv F
 -0.076923 -0.384615 -0.111111    0.00065746  33 t-inv F
  0.076923  0.384615  0.111111    0.00065746  33 t-inv F
 -0.384615  0.461538 -0.111111    0.00065746  33 t-inv F
  0.384615 -0.461538  0.111111    0.00065746  33 t-inv F
  0.461538 -0.076923 -0.111111    0.00065746  33 t-inv F
 -0.461538  0.076923  0.111111    0.00065746  33 t-inv F
 -0.461538 -0.076923 -0.111111    0.00065746  34 t-inv F
 -0.538462  0.461538  0.111111    0.00065746  34 t-inv F
  0.538462 -0.461538 -0.111111    0.00065746  34 t-inv F
  0.076923 -0.538462  0.111111    0.00065746  34 t-inv F
 -0.076923  0.538462 -0.111111    0.00065746  34 t-inv F
  0.461538 -0.538462 -0.111111    0.00065746  34 t-inv F
 -0.461538  0.538462  0.111111    0.00065746  34 t-inv F
 -0.538462  0.076923 -0.111111    0.00065746  34 t-inv F
  0.538462 -0.076923  0.111111    0.00065746  34 t-inv F
  0.076923  0.461538 -0.111111    0.00065746  34 t-inv F
 -0.076923 -0.461538  0.111111    0.00065746  34 t-inv F
 -0.153846 -0.153846 -0.111111    0.00065746  35 t-inv F
 -0.307692  0.153846  0.111111    0.00065746  35 t-inv F
  0.307692 -0.153846 -0.111111    0.00065746  35 t-inv F
  0.153846 -0.307692  0.111111    0.00065746  35 t-inv F
 -0.153846  0.307692 -0.111111    0.00065746  35 t-inv F
  0.153846 -0.307692 -0.111111    0.00065746  35 t-inv F
 -0.153846  0.307692  0.111111    0.00065746  35 t-inv F
 -0.307692  0.153846 -0.111111    0.00065746  35 t-inv F
  0.307692 -0.153846  0.111111    0.00065746  35 t-inv F
  0.153846  0.153846 -0.111111    0.00065746  35 t-inv F
 -0.153846 -0.153846  0.111111    0.00065746  35 t-inv F
 -0.230769 -0.153846 -0.111111    0.00065746  36 t-inv F
 -0.384615  0.230769  0.111111    0.00065746  36 t-inv F
  0.384615 -0.230769 -0.111111    0.00065746  36 t-inv F
  0.153846 -0.384615  0.111111    0.00065746  36 t-inv F
 -0.153846  0.384615 -0.111111    0.00065746  36 t-inv F
  0.230769 -0.384615 -0.111111    0.00065746  36 t-inv F
 -0.230769  0.384615  0.111111    0.00065746  36 t-inv F
 -0.384615  0.153846 -0.111111    0.00065746  36 t-inv F
  0.384615 -0.153846  0.111111    0.00065746  36 t-inv F
  0.153846  0.230769 -0.111111    0.00065746  36 t-inv F
 -0.153846 -0.230769  0.111111    0.00065746  36 t-inv F
 -0.153846  0.384615  0.111111    0.00065746  36 t-inv F
  0.153846 -0.384615 -0.111111    0.00065746  36 t-inv F
 -0.230769 -0.153846  0.111111    0.00065746  36 t-inv F
  0.230769  0.153846 -0.111111    0.00065746  36 t-inv F
  0.384615 -0.230769  0.111111    0.00065746  36 t-inv F
 -0.384615  0.230769 -0.111111    0.00065746  36 t-inv F
 -0.153846 -0.230769 -0.111111    0.00065746  36 t-inv F
  0.153846  0.230769  0.111111    0.00065746  36 t-inv F
 -0.230769  0.384615 -0.111111    0.00065746  36 t-inv F
  0.230769 -0.384615  0.111111    0.00065746  36 t-inv F
  0.384615 -0.153846 -0.111111    0.00065746  36 t-inv F
 -0.384615  0.153846  0.111111    0.00065746  36 t-inv F
 -0.307692 -0.153846 -0.111111    0.00065746  37 t-inv F
 -0.461538  0.307692  0.111111    0.00065746  37 t-inv F
  0.461538 -0.307692 -0.111111    0.00065746  37 t-inv F
  0.153846 -0.461538  0.111111    0.00065746  37 t-inv F
 -0.153846  0.461538 -0.111111    0.00065746  37 t-inv F
  0.307692 -0.461538 -0.111111    0.00065746  37 t-inv F
 -0.307692  0.461538  0.111111    0.00065746  37 t-inv F
 -0.461538  0.153846 -0.111111    0.00065746  37 t-inv F
  0.461538 -0.153846  0.111111    0.00065746  37 t-inv F
  0.153846  0.307692 -0.111111    0.00065746  37 t-inv F
 -0.153846 -0.307692  0.111111    0.00065746  37 t-inv F
 -0.153846  0.461538  0.111111    0.00065746  37 t-inv F
  0.153846 -0.461538 -0.111111    0.00065746  37 t-inv F
 -0.307692 -0.153846  0.111111    0.00065746  37 t-inv F
  0.307692  0.153846 -0.111111    0.00065746  37 t-inv F
  0.461538 -0.307692  0.111111    0.00065746  37 t-inv F
 -0.461538  0.307692 -0.111111    0.00065746  37 t-inv F
 -0.153846 -0.307692 -0.111111    0.00065746  37 t-inv F
  0.153846  0.307692  0.111111    0.00065746  37 t-inv F
 -0.307692  0.461538 -0.111111    0.00065746  37 t-inv F
  0.307692 -0.461538  0.111111    0.00065746  37 t-inv F
  0.461538 -0.153846 -0.111111    0.00065746  37 t-inv F
 -0.461538  0.153846  0.111111    0.00065746  37 t-inv F
 -0.384615 -0.153846 -0.111111    0.00065746  38 t-inv F
 -0.538462  0.384615  0.111111    0.00065746  38 t-inv F
  0.538462 -0.384615 -0.111111    0.00065746  38 t-inv F
  0.153846 -0.538462  0.111111    0.00065746  38 t-inv F
 -0.153846  0.538462 -0.111111    0.00065746  38 t-inv F
  0.384615 -0.538462 -0.111111    0.00065746  38 t-inv F
 -0.384615  0.538462  0.111111    0.00065746  38 t-inv F
 -0.538462  0.153846 -0.111111    0.00065746  38 t-inv F
  0.538462 -0.153846  0.111111    0.00065746  38 t-inv F
  0.153846  0.384615 -0.111111    0.00065746  38 t-inv F
 -0.153846 -0.384615  0.111111    0.00065746  38 t-inv F
 -0.153846  0.538462  0.111111    0.00065746  38 t-inv F
  0.153846 -0.538462 -0.111111    0.00065746  38 t-inv F
 -0.384615 -0.153846  0.111111    0.00065746  38 t-inv F
  0.384615  0.153846 -0.111111    0.00065746  38 t-inv F
  0.538462 -0.384615  0.111111    0.00065746  38 t-inv F
 -0.538462  0.384615 -0.111111    0.00065746  38 t-inv F
 -0.153846 -0.384615 -0.111111    0.00065746  38 t-inv F
  0.153846  0.384615  0.111111    0.00065746  38 t-inv F
 -0.384615  0.538462 -0.111111    0.00065746  38 t-inv F
  0.384615 -0.538462  0.111111    0.00065746  38 t-inv F
  0.538462 -0.153846 -0.111111    0.00065746  38 t-inv F
 -0.538462  0.153846  0.111111    0.00065746  38 t-inv F
 -0.230769 -0.230769 -0.111111    0.00065746  39 t-inv F
 -0.461538  0.230769  0.111111    0.00065746  39 t-inv F
  0.461538 -0.230769 -0.111111    0.00065746  39 t-inv F
  0.230769 -0.461538  0.111111    0.00065746  39 t-inv F
 -0.230769  0.461538 -0.111111    0.00065746  39 t-inv F
  0.230769 -0.461538 -0.111111    0.00065746  39 t-inv F
 -0.230769  0.461538  0.111111    0.00065746  39 t-inv F
 -0.461538  0.230769 -0.111111    0.00065746  39 t-inv F
  0.461538 -0.230769  0.111111    0.00065746  39 t-inv F
  0.230769  0.230769 -0.111111    0.00065746  39 t-inv F
 -0.230769 -0.230769  0.111111    0.00065746  39 t-inv F
 -0.307692 -0.230769 -0.111111    0.00065746  40 t-inv F
 -0.538462  0.307692  0.111111    0.00065746  40 t-inv F
  0.538462 -0.307692 -0.111111    0.00065746  40 t-inv F
  0.230769 -0.538462  0.111111    0.00065746  40 t-inv F
 -0.230769  0.538462 -0.111111    0.00065746  40 t-inv F
  0.307692 -0.538462 -0.111111    0.00065746  40 t-inv F
 -0.307692  0.538462  0.111111    0.00065746  40 t-inv F
 -0.538462  0.230769 -0.111111    0.00065746  40 t-inv F
  0.538462 -0.230769  0.111111    0.00065746  40 t-inv F
  0.230769  0.307692 -0.111111    0.00065746  40 t-inv F
 -0.230769 -0.307692  0.111111    0.00065746  40 t-inv F
 -0.230769  0.538462  0.111111    0.00065746  40 t-inv F
  0.230769 -0.538462 -0.111111    0.00065746  40 t-inv F
 -0.307692 -0.230769  0.111111    0.00065746  40 t-inv F
  0.307692  0.230769 -0.111111    0.00065746  40 t-inv F
  0.538462 -0.307692  0.111111    0.00065746  40 t-inv F
 -0.538462  0.307692 -0.111111    0.00065746  40 t-inv F
 -0.230769 -0.307692 -0.111111    0.00065746  40 t-inv F
  0.230769  0.307692  0.111111    0.00065746  40 t-inv F
 -0.307692  0.538462 -0.111111    0.00065746  40 t-inv F
  0.307692 -0.538462  0.111111    0.00065746  40 t-inv F
  0.538462 -0.230769 -0.111111    0.00065746  40 t-inv F
 -0.538462  0.230769  0.111111    0.00065746  40 t-inv F
 -0.384615 -0.230769 -0.111111    0.00065746  41 t-inv F
 -0.615385  0.384615  0.111111    0.00065746  41 t-inv F
  0.615385 -0.384615 -0.111111    0.00065746  41 t-inv F
  0.230769 -0.615385  0.111111    0.00065746  41 t-inv F
 -0.230769  0.615385 -0.111111    0.00065746  41 t-inv F
  0.384615 -0.615385 -0.111111    0.00065746  41 t-inv F
 -0.384615  0.615385  0.111111    0.00065746  41 t-inv F
 -0.615385  0.230769 -0.111111    0.00065746  41 t-inv F
  0.615385 -0.230769  0.111111    0.00065746  41 t-inv F
  0.230769  0.384615 -0.111111    0.00065746  41 t-inv F
 -0.230769 -0.384615  0.111111    0.00065746  41 t-inv F
 -0.307692 -0.307692 -0.111111    0.00065746  42 t-inv F
 -0.615385  0.307692  0.111111    0.00065746  42 t-inv F
  0.615385 -0.307692 -0.111111    0.00065746  42 t-inv F
  0.307692 -0.615385  0.111111    0.00065746  42 t-inv F
 -0.307692  0.615385 -0.111111    0.00065746  42 t-inv F
  0.307692 -0.615385 -0.111111    0.00065746  42 t-inv F
 -0.307692  0.615385  0.111111    0.00065746  42 t-inv F
 -0.615385  0.307692 -0.111111    0.00065746  42 t-inv F
  0.615385 -0.307692  0.111111    0.00065746  42 t-inv F
  0.307692  0.307692 -0.111111    0.00065746  42 t-inv F
 -0.307692 -0.307692  0.111111    0.00065746  42 t-inv F
  0.000000  0.000000 -0.222222    0.00065746  43 t-inv F
 -0.076923 -0.000000 -0.222222    0.00065746  44 t-inv F
 -0.076923  0.076923  0.222222    0.00065746  44 t-inv F
  0.076923 -0.076923 -0.222222    0.00065746  44 t-inv F
  0.000000 -0.076923  0.222222    0.00065746  44 t-inv F
 -0.000000  0.076923 -0.222222    0.00065746  44 t-inv F
 -0.000000  0.076923  0.222222    0.00065746  44 t-inv F
  0.000000 -0.076923 -0.222222    0.00065746  44 t-inv F
 -0.076923 -0.000000  0.222222    0.00065746  44 t-inv F
  0.076923  0.000000 -0.222222    0.00065746  44 t-inv F
  0.076923 -0.076923  0.222222    0.00065746  44 t-inv F
 -0.076923  0.076923 -0.222222    0.00065746  44 t-inv F
 -0.153846 -0.000000 -0.222222    0.00065746  45 t-inv F
 -0.153846  0.153846  0.222222    0.00065746  45 t-inv F
  0.153846 -0.153846 -0.222222    0.00065746  45 t-inv F
  0.000000 -0.153846  0.222222    0.00065746  45 t-inv F
 -0.000000  0.153846 -0.222222    0.00065746  45 t-inv F
 -0.000000  0.153846  0.222222    0.00065746  45 t-inv F
  0.000000 -0.153846 -0.222222    0.00065746  45 t-inv F
 -0.153846 -0.000000  0.222222    0.00065746  45 t-inv F
  0.153846  0.000000 -0.222222    0.00065746  45 t-inv F
  0.153846 -0.153846  0.222222    0.00065746  45 t-inv F
 -0.153846  0.153846 -0.222222    0.00065746  45 t-inv F
 -0.230769 -0.000000 -0.222222    0.00065746  46 t-inv F
 -0.230769  0.230769  0.222222    0.00065746  46 t-inv F
  0.230769 -0.230769 -0.222222    0.00065746  46 t-inv F
  0.000000 -0.230769  0.222222    0.00065746  46 t-inv F
 -0.000000  0.230769 -0.222222    0.00065746  46 t-inv F
 -0.000000  0.230769  0.222222    0.00065746  46 t-inv F
  0.000000 -0.230769 -0.222222    0.00065746  46 t-inv F
 -0.230769 -0.000000  0.222222    0.00065746  46 t-inv F
  0.230769  0.000000 -0.222222    0.00065746  46 t-inv F
  0.230769 -0.230769  0.222222    0.00065746  46 t-inv F
 -0.230769  0.230769 -0.222222    0.00065746  46 t-inv F
 -0.307692 -0.000000 -0.222222    0.00065746  47 t-inv F
 -0.307692  0.307692  0.222222    0.00065746  47 t-inv F
  0.307692 -0.307692 -0.222222    0.00065746  47 t-inv F
  0.000000 -0.307692  0.222222    0.00065746  47 t-inv F
 -0.000000  0.307692 -0.222222    0.00065746  47 t-inv F
 -0.000000  0.307692  0.222222    0.00065746  47 t-inv F
  0.000000 -0.307692 -0.222222    0.00065746  47 t-inv F
 -0.307692 -0.000000  0.222222    0.00065746  47 t-inv F
  0.307692  0.000000 -0.222222    0.00065746  47 t-inv F
  0.307692 -0.307692  0.222222    0.00065746  47 t-inv F
 -0.307692  0.307692 -0.222222    0.00065746  47 t-inv F
 -0.384615 -0.000000 -0.222222    0.00065746  48 t-inv F
 -0.384615  0.384615  0.222222    0.00065746  48 t-inv F
  0.384615 -0.384615 -0.222222    0.00065746  48 t-inv F
  0.000000 -0.384615  0.222222    0.00065746  48 t-inv F
 -0.000000  0.384615 -0.222222    0.00065746  48 t-inv F
 -0.000000  0.384615  0.222222    0.00065746  48 t-inv F
  0.000000 -0.384615 -0.222222    0.00065746  48 t-inv F
 -0.384615 -0.000000  0.222222    0.00065746  48 t-inv F
  0.384615  0.000000 -0.222222    0.00065746  48 t-inv F
  0.384615 -0.384615  0.222222    0.00065746  48 t-inv F
 -0.384615  0.384615 -0.222222    0.00065746  48 t-inv F
 -0.461538  0.000000 -0.222222    0.00065746  49 t-inv F
 -0.461538  0.461538  0.222222    0.00065746  49 t-inv F
  0.461538 -0.461538 -0.222222    0.00065746  49 t-inv F
 -0.000000 -0.461538  0.222222    0.00065746  49 t-inv F
  0.000000  0.461538 -0.222222    0.00065746  49 t-inv F
  0.000000  0.461538  0.222222    0.00065746  49 t-inv F
 -0.000000 -0.461538 -0.222222    0.00065746  49 t-inv F
 -0.461538  0.000000  0.222222    0.00065746  49 t-inv F
  0.461538 -0.000000 -0.222222    0.00065746  49 t-inv F
  0.461538 -0.461538  0.222222    0.00065746  49 t-inv F
 -0.461538  0.461538 -0.222222    0.00065746  49 t-inv F
 -0.076923 -0.076923 -0.222222    0.00065746  50 t-inv F
 -0.153846  0.076923  0.222222    0.00065746  50 t-inv F
  0.153846 -0.076923 -0.222222    0.00065746  50 t-inv F
  0.076923 -0.153846  0.222222    0.00065746  50 t-inv F
 -0.076923  0.153846 -0.222222    0.00065746  50 t-inv F
  0.076923 -0.153846 -0.222222    0.00065746  50 t-inv F
 -0.076923  0.153846  0.222222    0.00065746  50 t-inv F
 -0.153846  0.076923 -0.222222    0.00065746  50 t-inv F
  0.153846 -0.076923  0.222222    0.00065746  50 t-inv F
  0.076923  0.076923 -0.222222    0.00065746  50 t-inv F
 -0.076923 -0.076923  0.222222    0.00065746  50 t-inv F
 -0.153846 -0.076923 -0.222222    0.00065746  51 t-inv F
 -0.230769  0.153846  0.222222    0.00065746  51 t-inv F
  0.230769 -0.153846 -0.222222    0.00065746  51 t-inv F
  0.076923 -0.230769  0.222222    0.00065746  51 t-inv F
 -0.076923  0.230769 -0.222222    0.00065746  51 t-inv F
  0.153846 -0.230769 -0.222222    0.00065746  51 t-inv F
 -0.153846  0.230769  0.222222    0.00065746  51 t-inv F
 -0.230769  0.076923 -0.222222    0.00065746  51 t-inv F
  0.230769 -0.076923  0.222222    0.00065746  51 t-inv F
  0.076923  0.153846 -0.222222    0.00065746  51 t-inv F
 -0.076923 -0.153846  0.222222    0.00065746  51 t-inv F
 -0.076923  0.230769  0.222222    0.00065746  51 t-inv F
  0.076923 -0.230769 -0.222222    0.00065746  51 t-inv F
 -0.153846 -0.076923  0.222222    0.00065746  51 t-inv F
  0.153846  0.076923 -0.222222    0.00065746  51 t-inv F
  0.230769 -0.153846  0.222222    0.00065746  51 t-inv F
 -0.230769  0.153846 -0.222222    0.00065746  51 t-inv F
 -0.076923 -0.153846 -0.222222    0.00065746  51 t-inv F
  0.076923  0.153846  0.222222    0.00065746  51 t-inv F
 -0.153846  0.230769 -0.222222    0.00065746  51 t-inv F
  0.153846 -0.230769  0.222222    0.00065746  51 t-inv F
  0.230769 -0.076923 -0.222222    0.00065746  51 t-inv F
 -0.230769  0.076923  0.222222    0.00065746  51 t-inv F
 -0.230769 -0.076923 -0.222222    0.00065746  52 t-inv F
 -0.307692  0.230769  0.222222    0.00065746  52 t-inv F
  0.307692 -0.230769 -0.222222    0.00065746  52 t-inv F
  0.076923 -0.307692  0.222222    0.00065746  52 t-inv F
 -0.076923  0.307692 -0.222222    0.00065746  52 t-inv F
  0.230769 -0.307692 -0.222222    0.00065746  52 t-inv F
 -0.230769  0.307692  0.222222    0.00065746  52 t-inv F
 -0.307692  0.076923 -0.222222    0.00065746  52 t-inv F
  0.307692 -0.076923  0.222222    0.00065746  52 t-inv F
  0.076923  0.230769 -0.222222    0.00065746  52 t-inv F
 -0.076923 -0.230769  0.222222    0.00065746  52 t-inv F
 -0.076923  0.307692  0.222222    0.00065746  52 t-inv F
  0.076923 -0.307692 -0.222222    0.00065746  52 t-inv F
 -0.230769 -0.076923  0.222222    0.00065746  52 t-inv F
  0.230769  0.076923 -0.222222    0.00065746  52 t-inv F
  0.307692 -0.230769  0.222222    0.00065746  52 t-inv F
 -0.307692  0.230769 -0.222222    0.00065746  52 t-inv F
 -0.076923 -0.230769 -0.222222    0.00065746  52 t-inv F
  0.076923  0.230769  0.222222    0.00065746  52 t-inv F
 -0.230769  0.307692 -0.222222    0.00065746  52 t-inv F
  0.230769 -0.307692  0.222222    0.00065746  52 t-inv F
  0.307692 -0.076923 -0.222222    0.00065746  52 t-inv F
 -0.307692  0.076923  0.222222    0.00065746  52 t-inv F
 -0.307692 -0.076923 -0.222222    0.00065746  53 t-inv F
 -0.384615  0.307692  0.222222    0.00065746  53 t-inv F
  0.384615 -0.307692 -0.222222    0.00065746  53 t-inv F
  0.076923 -0.384615  0.222222    0.00065746  53 t-inv F
 -0.076923  0.384615 -0.222222    0.00065746  53 t-inv F
  0.307692 -0.384615 -0.222222    0.00065746  53 t-inv F
 -0.307692  0.384615  0.222222    0.00065746  53 t-inv F
 -0.384615  0.076923 -0.222222    0.00065746  53 t-inv F
  0.384615 -0.076923  0.222222    0.00065746  53 t-inv F
  0.076923  0.307692 -0.222222    0.00065746  53 t-inv F
 -0.076923 -0.307692  0.222222    0.00065746  53 t-inv F
 -0.076923  0.384615  0.222222    0.00065746  53 t-inv F
  0.076923 -0.384615 -0.222222    0.00065746  53 t-inv F
 -0.307692 -0.076923  0.222222    0.00065746  53 t-inv F
  0.307692  0.076923 -0.222222    0.00065746  53 t-inv F
  0.384615 -0.307692  0.222222    0.00065746  53 t-inv F
 -0.384615  0.307692 -0.222222    0.00065746  53 t-inv F
 -0.076923 -0.307692 -0.222222    0.00065746  53 t-inv F
  0.076923  0.307692  0.222222    0.00065746  53 t-inv F
 -0.307692  0.384615 -0.222222    0.00065746  53 t-inv F
  0.307692 -0.384615  0.222222    0.00065746  53 t-inv F
  0.384615 -0.076923 -0.222222    0.00065746  53 t-inv F
 -0.384615  0.076923  0.222222    0.00065746  53 t-inv F
 -0.384615 -0.076923 -0.222222    0.00065746  54 t-inv F
 -0.461538  0.384615  0.222222    0.00065746  54 t-inv F
  0.461538 -0.384615 -0.222222    0.00065746  54 t-inv F
  0.076923 -0.461538  0.222222    0.00065746  54 t-inv F
 -0.076923  0.461538 -0.222222    0.00065746  54 t-inv F
  0.384615 -0.461538 -0.222222    0.00065746  54 t-inv F
 -0.384615  0.461538  0.222222    0.00065746  54 t-inv F
 -0.461538  0.076923 -0.222222    0.00065746  54 t-inv F
  0.461538 -0.076923  0.222222    0.00065746  54 t-inv F
  0.076923  0.384615 -0.222222    0.00065746  54 t-inv F
 -0.076923 -0.384615  0.222222    0.00065746  54 t-inv F
 -0.076923  0.461538  0.222222    0.00065746  54 t-inv F
  0.076923 -0.461538 -0.222222    0.00065746  54 t-inv F
 -0.384615 -0.076923  0.222222    0.00065746  54 t-inv F
  0.384615  0.076923 -0.222222    0.00065746  54 t-inv F
  0.461538 -0.384615  0.222222    0.00065746  54 t-inv F
 -0.461538  0.384615 -0.222222    0.00065746  54 t-inv F
 -0.076923 -0.384615 -0.222222    0.00065746  54 t-inv F
  0.076923  0.384615  0.222222    0.00065746  54 t-inv F
 -0.384615  0.461538 -0.222222    0.00065746  54 t-inv F
  0.384615 -0.461538  0.222222    0.00065746  54 t-inv F
  0.461538 -0.076923 -0.222222    0.00065746  54 t-inv F
 -0.461538  0.076923  0.222222    0.00065746  54 t-inv F
 -0.461538 -0.076923 -0.222222    0.00065746  55 t-inv F
 -0.538462  0.461538  0.222222    0.00065746  55 t-inv F
  0.538462 -0.461538 -0.222222    0.00065746  55 t-inv F
  0.076923 -0.538462  0.222222    0.00065746  55 t-inv F
 -0.076923  0.538462 -0.222222    0.00065746  55 t-inv F
  0.461538 -0.538462 -0.222222    0.00065746  55 t-inv F
 -0.461538  0.538462  0.222222    0.00065746  55 t-inv F
 -0.538462  0.076923 -0.222222    0.00065746  55 t-inv F
  0.538462 -0.076923  0.222222    0.00065746  55 t-inv F
  0.076923  0.461538 -0.222222    0.00065746  55 t-inv F
 -0.076923 -0.461538  0.222222    0.00065746  55 t-inv F
 -0.153846 -0.153846 -0.222222    0.00065746  56 t-inv F
 -0.307692  0.153846  0.222222    0.00065746  56 t-inv F
  0.307692 -0.153846 -0.222222    0.00065746  56 t-inv F
  0.153846 -0.307692  0.222222    0.00065746  56 t-inv F
 -0.153846  0.307692 -0.222222    0.00065746  56 t-inv F
  0.153846 -0.307692 -0.222222    0.00065746  56 t-inv F
 -0.153846  0.307692  0.222222    0.00065746  56 t-inv F
 -0.307692  0.153846 -0.222222    0.00065746  56 t-inv F
  0.307692 -0.153846  0.222222    0.00065746  56 t-inv F
  0.153846  0.153846 -0.222222    0.00065746  56 t-inv F
 -0.153846 -0.153846  0.222222    0.00065746  56 t-inv F
 -0.230769 -0.153846 -0.222222    0.00065746  57 t-inv F
 -0.384615  0.230769  0.222222    0.00065746  57 t-inv F
  0.384615 -0.230769 -0.222222    0.00065746  57 t-inv F
  0.153846 -0.384615  0.222222    0.00065746  57 t-inv F
 -0.153846  0.384615 -0.222222    0.00065746  57 t-inv F
  0.230769 -0.384615 -0.222222    0.00065746  57 t-inv F
 -0.230769  0.384615  0.222222    0.00065746  57 t-inv F
 -0.384615  0.153846 -0.222222    0.00065746  57 t-inv F
  0.384615 -0.153846  0.222222    0.00065746  57 t-inv F
  0.153846  0.230769 -0.222222    0.00065746  57 t-inv F
 -0.153846 -0.230769  0.222222    0.00065746  57 t-inv F
 -0.153846  0.384615  0.222222    0.00065746  57 t-inv F
  0.153846 -0.384615 -0.222222    0.00065746  57 t-inv F
 -0.230769 -0.153846  0.222222    0.00065746  57 t-inv F
  0.230769  0.153846 -0.222222    0.00065746  57 t-inv F
  0.384615 -0.230769  0.222222    0.00065746  57 t-inv F
 -0.384615  0.230769 -0.222222    0.00065746  57 t-inv F
 -0.153846 -0.230769 -0.222222    0.00065746  57 t-inv F
  0.153846  0.230769  0.222222    0.00065746  57 t-inv F
 -0.230769  0.384615 -0.222222    0.00065746  57 t-inv F
  0.230769 -0.384615  0.222222    0.00065746  57 t-inv F
  0.384615 -0.153846 -0.222222    0.00065746  57 t-inv F
 -0.384615  0.153846  0.222222    0.00065746  57 t-inv F
 -0.307692 -0.153846 -0.222222    0.00065746  58 t-inv F
 -0.461538  0.307692  0.222222    0.00065746  58 t-inv F
  0.461538 -0.307692 -0.222222    0.00065746  58 t-inv F
  0.153846 -0.461538  0.222222    0.00065746  58 t-inv F
 -0.153846  0.461538 -0.222222    0.00065746  58 t-inv F
  0.307692 -0.461538 -0.222222    0.00065746  58 t-inv F
 -0.307692  0.461538  0.222222    0.00065746  58 t-inv F
 -0.461538  0.153846 -0.222222    0.00065746  58 t-inv F
  0.461538 -0.153846  0.222222    0.00065746  58 t-inv F
  0.153846  0.307692 -0.222222    0.00065746  58 t-inv F
 -0.153846 -0.307692  0.222222    0.00065746  58 t-inv F
 -0.153846  0.461538  0.222222    0.00065746  58 t-inv F
  0.153846 -0.461538 -0.222222    0.00065746  58 t-inv F
 -0.307692 -0.153846  0.222222    0.00065746  58 t-inv F
  0.307692  0.153846 -0.222222    0.00065746  58 t-inv F
  0.461538 -0.307692  0.222222    0.00065746  58 t-inv F
 -0.461538  0.307692 -0.222222    0.00065746  58 t-inv F
 -0.153846 -0.307692 -0.222222    0.00065746  58 t-inv F
  0.153846  0.307692  0.222222    0.00065746  58 t-inv F
 -0.307692  0.461538 -0.222222    0.00065746  58 t-inv F
  0.307692 -0.461538  0.222222    0.00065746  58 t-inv F
  0.461538 -0.153846 -0.222222    0.00065746  58 t-inv F
 -0.461538  0.153846  0.222222    0.00065746  58 t-inv F
 -0.384615 -0.153846 -0.222222    0.00065746  59 t-inv F
 -0.538462  0.384615  0.222222    0.00065746  59 t-inv F
  0.538462 -0.384615 -0.222222    0.00065746  59 t-inv F
  0.153846 -0.538462  0.222222    0.00065746  59 t-inv F
 -0.153846  0.538462 -0.222222    0.00065746  59 t-inv F
  0.384615 -0.538462 -0.222222    0.00065746  59 t-inv F
 -0.384615  0.538462  0.222222    0.00065746  59 t-inv F
 -0.538462  0.153846 -0.222222    0.00065746  59 t-inv F
  0.538462 -0.153846  0.222222    0.00065746  59 t-inv F
  0.153846  0.384615 -0.222222    0.00065746  59 t-inv F
 -0.153846 -0.384615  0.222222    0.00065746  59 t-inv F
 -0.153846  0.538462  0.222222    0.00065746  59 t-inv F
  0.153846 -0.538462 -0.222222    0.00065746  59 t-inv F
 -0.384615 -0.153846  0.222222    0.00065746  59 t-inv F
  0.384615  0.153846 -0.222222    0.00065746  59 t-inv F
  0.538462 -0.384615  0.222222    0.00065746  59 t-inv F
 -0.538462  0.384615 -0.222222    0.00065746  59 t-inv F
 -0.153846 -0.384615 -0.222222    0.00065746  59 t-inv F
  0.153846  0.384615  0.222222    0.00065746  59 t-inv F
 -0.384615  0.538462 -0.222222    0.00065746  59 t-inv F
  0.384615 -0.538462  0.222222    0.00065746  59 t-inv F
  0.538462 -0.153846 -0.222222    0.00065746  59 t-inv F
 -0.538462  0.153846  0.222222    0.00065746  59 t-inv F
 -0.230769 -0.230769 -0.222222    0.00065746  60 t-inv F
 -0.461538  0.230769  0.222222    0.00065746  60 t-inv F
  0.461538 -0.230769 -0.222222    0.00065746  60 t-inv F
  0.230769 -0.461538  0.222222    0.00065746  60 t-inv F
 -0.230769  0.461538 -0.222222    0.00065746  60 t-inv F
  0.230769 -0.461538 -0.222222    0.00065746  60 t-inv F
 -0.230769  0.461538  0.222222    0.00065746  60 t-inv F
 -0.461538  0.230769 -0.222222    0.00065746  60 t-inv F
  0.461538 -0.230769  0.222222    0.00065746  60 t-inv F
  0.230769  0.230769 -0.222222    0.00065746  60 t-inv F
 -0.230769 -0.230769  0.222222    0.00065746  60 t-inv F
 -0.307692 -0.230769 -0.222222    0.00065746  61 t-inv F
 -0.538462  0.307692  0.222222    0.00065746  61 t-inv F
  0.538462 -0.307692 -0.222222    0.00065746  61 t-inv F
  0.230769 -0.538462  0.222222    0.00065746  61 t-inv F
 -0.230769  0.538462 -0.222222    0.00065746  61 t-inv F
  0.307692 -0.538462 -0.222222    0.00065746  61 t-inv F
 -0.307692  0.538462  0.222222    0.00065746  61 t-inv F
 -0.538462  0.230769 -0.222222    0.00065746  61 t-inv F
  0.538462 -0.230769  0.222222    0.00065746  61 t-inv F
  0.230769  0.307692 -0.222222    0.00065746  61 t-inv F
 -0.230769 -0.307692  0.222222    0.00065746  61 t-inv F
 -0.230769  0.538462  0.222222    0.00065746  61 t-inv F
  0.230769 -0.538462 -0.222222    0.00065746  61 t-inv F
 -0.307692 -0.230769  0.222222    0.00065746  61 t-inv F
  0.307692  0.230769 -0.222222    0.00065746  61 t-inv F
  0.538462 -0.307692  0.222222    0.00065746  61 t-inv F
 -0.538462  0.307692 -0.222222    0.00065746  61 t-inv F
 -0.230769 -0.307692 -0.222222    0.00065746  61 t-inv F
  0.230769  0.307692  0.222222    0.00065746  61 t-inv F
 -0.307692  0.538462 -0.222222    0.00065746  61 t-inv F
  0.307692 -0.538462  0.222222    0.00065746  61 t-inv F
  0.538462 -0.230769 -0.222222    0.00065746  61 t-inv F
 -0.538462  0.230769  0.222222    0.00065746  61 t-inv F
 -0.384615 -0.230769 -0.222222    0.00065746  62 t-inv F
 -0.615385  0.384615  0.222222    0.00065746  62 t-inv F
  0.615385 -0.384615 -0.222222    0.00065746  62 t-inv F
  0.230769 -0.615385  0.222222    0.00065746  62 t-inv F
 -0.230769  0.615385 -0.222222    0.00065746  62 t-inv F
  0.384615 -0.615385 -0.222222    0.00065746  62 t-inv F
 -0.384615  0.615385  0.222222    0.00065746  62 t-inv F
 -0.615385  0.230769 -0.222222    0.00065746  62 t-inv F
  0.615385 -0.230769  0.222222    0.00065746  62 t-inv F
  0.230769  0.384615 -0.222222    0.00065746  62 t-inv F
 -0.230769 -0.384615  0.222222    0.00065746  62 t-inv F
 -0.307692 -0.307692 -0.222222    0.00065746  63 t-inv F
 -0.615385  0.307692  0.222222    0.00065746  63 t-inv F
  0.615385 -0.307692 -0.222222    0.00065746  63 t-inv F
  0.307692 -0.615385  0.222222    0.00065746  63 t-inv F
 -0.307692  0.615385 -0.222222    0.00065746  63 t-inv F
  0.307692 -0.615385 -0.222222    0.00065746  63 t-inv F
 -0.307692  0.615385  0.222222    0.00065746  63 t-inv F
 -0.615385  0.307692 -0.222222    0.00065746  63 t-inv F
  0.615385 -0.307692  0.222222    0.00065746  63 t-inv F
  0.307692  0.307692 -0.222222    0.00065746  63 t-inv F
 -0.307692 -0.307692  0.222222    0.00065746  63 t-inv F
  0.000000  0.000000 -0.333333    0.00065746  64 t-inv F
 -0.076923 -0.000000 -0.333333    0.00065746  65 t-inv F
 -0.076923  0.076923  0.333333    0.00065746  65 t-inv F
  0.076923 -0.076923 -0.333333    0.00065746  65 t-inv F
  0.000000 -0.076923  0.333333    0.00065746  65 t-inv F
 -0.000000  0.076923 -0.333333    0.00065746  65 t-inv F
 -0.000000  0.076923  0.333333    0.00065746  65 t-inv F
  0.000000 -0.076923 -0.333333    0.00065746  65 t-inv F
 -0.076923 -0.000000  0.333333    0.00065746  65 t-inv F
  0.076923  0.000000 -0.333333    0.00065746  65 t-inv F
  0.076923 -0.076923  0.333333    0.00065746  65 t-inv F
 -0.076923  0.076923 -0.333333    0.00065746  65 t-inv F
 -0.153846 -0.000000 -0.333333    0.00065746  66 t-inv F
 -0.153846  0.153846  0.333333    0.00065746  66 t-inv F
  0.153846 -0.153846 -0.333333    0.00065746  66 t-inv F
  0.000000 -0.153846  0.333333    0.00065746  66 t-inv F
 -0.000000  0.153846 -0.333333    0.00065746  66 t-inv F
 -0.000000  0.153846  0.333333    0.00065746  66 t-inv F
  0.000000 -0.153846 -0.333333    0.00065746  66 t-inv F
 -0.153846 -0.000000  0.333333    0.00065746  66 t-inv F
  0.153846  0.000000 -0.333333    0.00065746  66 t-inv F
  0.153846 -0.153846  0.333333    0.00065746  66 t-inv F
 -0.153846  0.153846 -0.333333    0.00065746  66 t-inv F
 -0.230769 -0.000000 -0.333333    0.00065746  67 t-inv F
 -0.230769  0.230769  0.333333    0.00065746  67 t-inv F
  0.230769 -0.230769 -0.333333    0.00065746  67 t-inv F
  0.000000 -0.230769  0.333333    0.00065746  67 t-inv F
 -0.000000  0.230769 -0.333333    0.00065746  67 t-inv F
 -0.000000  0.230769  0.333333    0.00065746  67 t-inv F
  0.000000 -0.230769 -0.333333    0.00065746  67 t-inv F
 -0.230769 -0.000000  0.333333    0.00065746  67 t-inv F
  0.230769  0.000000 -0.333333    0.00065746  67 t-inv F
  0.230769 -0.230769  0.333333    0.00065746  67 t-inv F
 -0.230769  0.230769 -0.333333    0.00065746  67 t-inv F
 -0.307692 -0.000000 -0.333333    0.00065746  68 t-inv F
 -0.307692  0.307692  0.333333    0.00065746  68 t-inv F
  0.307692 -0.307692 -0.333333    0.00065746  68 t-inv F
  0.000000 -0.307692  0.333333    0.00065746  68 t-inv F
 -0.000000  0.307692 -0.333333    0.00065746  68 t-inv F
 -0.000000  0.307692  0.333333    0.00065746  68 t-inv F
  0.000000 -0.307692 -0.333333    0.00065746  68 t-inv F
 -0.307692 -0.000000  0.333333    0.00065746  68 t-inv F
  0.307692  0.000000 -0.333333    0.00065746  68 t-inv F
  0.307692 -0.307692  0.333333    0.00065746  68 t-inv F
 -0.307692  0.307692 -0.333333    0.00065746  68 t-inv F
 -0.384615 -0.000000 -0.333333    0.00065746  69 t-inv F
 -0.384615  0.384615  0.333333    0.00065746  69 t-inv F
  0.384615 -0.384615 -0.333333    0.00065746  69 t-inv F
  0.000000 -0.384615  0.333333    0.00065746  69 t-inv F
 -0.000000  0.384615 -0.333333    0.00065746  69 t-inv F
 -0.000000  0.384615  0.333333    0.00065746  69 t-inv F
  0.000000 -0.384615 -0.333333    0.00065746  69 t-inv F
 -0.384615 -0.000000  0.333333    0.00065746  69 t-inv F
  0.384615  0.000000 -0.333333    0.00065746  69 t-inv F
  0.384615 -0.384615  0.333333    0.00065746  69 t-inv F
 -0.384615  0.384615 -0.333333    0.00065746  69 t-inv F
 -0.461538  0.000000 -0.333333    0.00065746  70 t-inv F
 -0.461538  0.461538  0.333333    0.00065746  70 t-inv F
  0.461538 -0.461538 -0.333333    0.00065746  70 t-inv F
 -0.000000 -0.461538  0.333333    0.00065746  70 t-inv F
  0.000000  0.461538 -0.333333    0.00065746  70 t-inv F
  0.000000  0.461538  0.333333    0.00065746  70 t-inv F
 -0.000000 -0.461538 -0.333333    0.00065746  70 t-inv F
 -0.461538  0.000000  0.333333    0.00065746  70 t-inv F
  0.461538 -0.000000 -0.333333    0.00065746  70 t-inv F
  0.461538 -0.461538  0.333333    0.00065746  70 t-inv F
 -0.461538  0.461538 -0.333333    0.00065746  70 t-inv F
 -0.076923 -0.076923 -0.333333    0.00065746  71 t-inv F
 -0.153846  0.076923  0.333333    0.00065746  71 t-inv F
  0.153846 -0.076923 -0.333333    0.00065746  71 t-inv F
  0.076923 -0.153846  0.333333    0.00065746  71 t-inv F
 -0.076923  0.153846 -0.333333    0.00065746  71 t-inv F
  0.076923 -0.153846 -0.333333    0.00065746  71 t-inv F
 -0.076923  0.153846  0.333333    0.00065746  71 t-inv F
 -0.153846  0.076923 -0.333333    0.00065746  71 t-inv F
  0.153846 -0.076923  0.333333    0.00065746  71 t-inv F
  0.076923  0.076923 -0.333333    0.00065746  71 t-inv F
 -0.076923 -0.076923  0.333333    0.00065746  71 t-inv F
 -0.153846 -0.076923 -0.333333    0.00065746  72 t-inv F
 -0.230769  0.153846  0.333333    0.00065746  72 t-inv F
  0.230769 -0.153846 -0.333333    0.00065746  72 t-inv F
  0.076923 -0.230769  0.333333    0.00065746  72 t-inv F
 -0.076923  0.230769 -0.333333    0.00065746  72 t-inv F
  0.153846 -0.230769 -0.333333    0.00065746  72 t-inv F
 -0.153846  0.230769  0.333333    0.00065746  72 t-inv F
 -0.230769  0.076923 -0.333333    0.00065746  72 t-inv F
  0.230769 -0.076923  0.333333    0.00065746  72 t-inv F
  0.076923  0.153846 -0.333333    0.00065746  72 t-inv F
 -0.076923 -0.153846  0.333333    0.00065746  72 t-inv F
 -0.076923  0.230769  0.333333    0.00065746  72 t-inv F
  0.076923 -0.230769 -0.333333    0.00065746  72 t-inv F
 -0.153846 -0.076923  0.333333    0.00065746  72 t-inv F
  0.153846  0.076923 -0.333333    0.00065746  72 t-inv F
  0.230769 -0.153846  0.333333    0.00065746  72 t-inv F
 -0.230769  0.153846 -0.333333    0.00065746  72 t-inv F
 -0.076923 -0.153846 -0.333333    0.00065746  72 t-inv F
  0.076923  0.153846  0.333333    0.00065746  72 t-inv F
 -0.153846  0.230769 -0.333333    0.00065746  72 t-inv F
  0.153846 -0.230769  0.333333    0.00065746  72 t-inv F
  0.230769 -0.076923 -0.333333    0.00065746  72 t-inv F
 -0.230769  0.076923  0.333333    0.00065746  72 t-inv F
 -0.230769 -0.076923 -0.333333    0.00065746  73 t-inv F
 -0.307692  0.230769  0.333333    0.00065746  73 t-inv F
  0.307692 -0.230769 -0.333333    0.00065746  73 t-inv F
  0.076923 -0.307692  0.333333    0.00065746  73 t-inv F
 -0.076923  0.307692 -0.333333    0.00065746  73 t-inv F
  0.230769 -0.307692 -0.333333    0.00065746  73 t-inv F
 -0.230769  0.307692  0.333333    0.00065746  73 t-inv F
 -0.307692  0.076923 -0.333333    0.00065746  73 t-inv F
  0.307692 -0.076923  0.333333    0.00065746  73 t-inv F
  0.076923  0.230769 -0.333333    0.00065746  73 t-inv F
 -0.076923 -0.230769  0.333333    0.00065746  73 t-inv F
 -0.076923  0.307692  0.333333    0.00065746  73 t-inv F
  0.076923 -0.307692 -0.333333    0.00065746  73 t-inv F
[...]
          X           Y           Z          XY          YZ          ZX
  --------------------------------------------------------------------------------
  x    -0.00000     0.00000     0.00000    -0.81199     0.00000     0.00000
  y    -0.81199     0.81199     0.00000     0.00000     0.00000     0.00000
  z     0.00000     0.00000     0.00000    -0.00000     0.00000     0.00000

 INTERNAL STRAIN TENSOR FOR ION    2 for displacements in x,y,z  (eV/Angst):
          X           Y           Z          XY          YZ          ZX
  --------------------------------------------------------------------------------
  x     0.00000    -0.00000     0.00000     0.81199     0.00000     0.00000
  y     0.81199    -0.81199    -0.00000    -0.00000     0.00000     0.00000
  z    -0.00000    -0.00000     0.00000     0.00000    -0.00000     0.00000


--------------------------------------------------------------------------------------------------------


 
 Eigenvectors and eigenvalues of the dynamical matrix
 ----------------------------------------------------
 
 
   1 f  =    7.424755 THz    46.651109 2PiTHz  247.663146 cm-1    30.706328 meV
             X         Y         Z           dx          dy          dz
     -0.000001  1.841526  1.298067    -0.000000   -0.000000    0.707107  
      1.594809  0.920762  3.894202     0.000000   -0.000000   -0.707107  
 
   2 f  =    3.729676 THz    23.434243 2PiTHz  124.408584 cm-1    15.424704 meV
             X         Y         Z           dx          dy          dz
     -0.000001  1.841526  1.298067    -0.614780   -0.349350   -0.000000  
      1.594809  0.920762  3.894202     0.614780    0.349350   -0.000000  
 
   3 f  =    3.729675 THz    23.434238 2PiTHz  124.408557 cm-1    15.424701 meV
             X         Y         Z           dx          dy          dz
     -0.000001  1.841526  1.298067    -0.349350    0.614780    0.000000  
      1.594809  0.920762  3.894202     0.349350   -0.614780    0.000000  
 
   4 f  =    0.000000 THz     0.000000 2PiTHz    0.000001 cm-1     0.000000 meV
             X         Y         Z           dx          dy          dz
     -0.000001  1.841526  1.298067     0.026902   -0.141658   -0.692249  
      1.594809  0.920762  3.894202     0.026902   -0.141658   -0.692249  
 
   5 f/i=    0.000000 THz     0.000000 2PiTHz    0.000001 cm-1     0.000000 meV
             X         Y         Z           dx          dy          dz
     -0.000001  1.841526  1.298067     0.670159   -0.214469    0.069931  
      1.594809  0.920762  3.894202     0.670159   -0.214469    0.069931  
 
   6 f/i=    0.000000 THz     0.000000 2PiTHz    0.000002 cm-1     0.000000 meV
             X         Y         Z           dx          dy          dz
     -0.000001  1.841526  1.298067    -0.223972   -0.658738    0.126096  
      1.594809  0.920762  3.894202    -0.223972   -0.658738    0.126096  
 


--------------------------------------------------------------------------------------------------------



 ELASTIC MODULI CONTR FROM IONIC RELAXATION (kBar)
 Direction    XX          YY          ZZ          XY          YZ          ZX
 --------------------------------------------------------------------------------
 XX         -33.3843     33.3843      0.0000     -0.0000      0.0000      0.0000
 YY          33.3843    -33.3843     -0.0000     -0.0000     -0.0000      0.0000
 ZZ           0.0000     -0.0000     -0.0000     -0.0000     -0.0000      0.0000
 XY          -0.0000     -0.0000     -0.0000    -33.3843     -0.0000      0.0000
 YZ           0.0000     -0.0000     -0.0000     -0.0000     -0.0000      0.0000
 ZX           0.0000      0.0000      0.0000      0.0000      0.0000      0.0000
 --------------------------------------------------------------------------------


 TOTAL ELASTIC MODULI (kBar)
 Direction    XX          YY          ZZ          XY          YZ          ZX
 --------------------------------------------------------------------------------
 XX         582.8076    298.6049    233.3881      0.0001     -0.0000     -0.0000
 YY         298.6049    582.8073    233.3881      0.0001      0.0000      0.0000
 ZZ         233.3881    233.3881    609.0689      0.0000      0.0000      0.0000
 XY           0.0001      0.0001      0.0000    142.1013     -0.0000      0.0000
 YZ          -0.0000     -0.0000     -0.0000     -0.0000    180.3946      0.0000
 ZX          -0.0000      0.0000      0.0000      0.0000      0.0000    180.3947
 --------------------------------------------------------------------------------



--------------------------------------------------------------------------------------------------------


  LATTYP: Found a hexagonal cell.
 ALAT       =     3.1896149453
 C/A-ratio  =     1.6278669349
  
  Lattice vectors:
  
 A1 = (   3.1896149533,   0.0000000011,   0.0000000000)
 A2 = (  -1.5948069748,   2.7622872778,   0.0000000000)
 A3 = (   0.0000000000,   0.0000000000,   5.1922687046)


Analysis of symmetry for initial positions (statically):
=====================================================================
 Subroutine PRICEL returns:
 Original cell was already a primitive cell.
 

 Routine SETGRP: Setting up the symmetry group for a 
 hexagonal supercell.


 Subroutine GETGRP returns: Found 24 space group operations
 (whereof 12 operations were pure point group operations)
 out of a pool of 24 trial point group operations.


The static configuration has the point symmetry D_3d.
 The point group associated with its full space group is D_6h.


Analysis of symmetry for dynamics (positions and initial velocities):
=====================================================================
 Subroutine PRICEL returns:
 Original cell was already a primitive cell.
 

 Routine SETGRP: Setting up the symmetry group for a 
 hexagonal supercell.


 Subroutine GETGRP returns: Found 24 space group operations
 (whereof 12 operations were pure point group operations)
 out of a pool of 24 trial point group operations.


The dynamic configuration has the point symmetry D_3d.
 The point group associated with its full space group is D_6h.


 Subroutine INISYM returns: Found 24 space group operations
 (whereof 12 operations are pure point group operations),
 and found     1 'primitive' translations

 
 KPOINTS: k points                                

Automatic generation of k-mesh.
Space group operators:
 irot       det(A)        alpha          n_x          n_y          n_z        tau_x        tau_y        tau_z
    1     1.000000     0.000000     1.000000     0.000000     0.000000     0.000000     0.000000     0.000000
    2    -1.000000     0.000000     1.000000     0.000000     0.000000     0.000000     0.000000     0.000000
    3     1.000000   120.000000     0.000000     0.000000    -1.000000     0.000000     0.000000     0.000000
    4    -1.000000   120.000000     0.000000     0.000000    -1.000000     0.000000     0.000000     0.000000
    5     1.000000   120.000000     0.000000     0.000000     1.000000     0.000000     0.000000     0.000000
    6    -1.000000   120.000000     0.000000     0.000000     1.000000     0.000000     0.000000     0.000000
    7     1.000000   180.000000     1.000000    -0.000000     0.000000     0.000000     0.000000     0.000000
    8    -1.000000   180.000000     1.000000    -0.000000     0.000000     0.000000     0.000000     0.000000
    9     1.000000   180.000000     0.500000    -0.866025     0.000000     0.000000     0.000000     0.000000
   10    -1.000000   180.000000     0.500000    -0.866025     0.000000     0.000000     0.000000     0.000000
   11     1.000000   180.000000    -0.500000    -0.866025     0.000000     0.000000     0.000000     0.000000
   12    -1.000000   180.000000    -0.500000    -0.866025     0.000000     0.000000     0.000000     0.000000
   13     1.000000    60.000000     0.000000     0.000000    -1.000000     0.000001     0.000000    -0.500000
   14    -1.000000    60.000000     0.000000     0.000000    -1.000000     0.000001     0.000000    -0.500000
   15     1.000000   180.000000     0.000000     0.000000     1.000000     0.000000     0.000000    -0.500000
   16    -1.000000   180.000000     0.000000     0.000000     1.000000     0.000000     0.000000    -0.500000
   17     1.000000    60.000000     0.000000     0.000000     1.000000     0.000000     0.000000    -0.500000
   18    -1.000000    60.000000     0.000000     0.000000     1.000000     0.000000     0.000000    -0.500000
   19     1.000000   180.000000     0.866025    -0.500000     0.000000     0.000000     0.000000    -0.500000
   20    -1.000000   180.000000     0.866025    -0.500000     0.000000     0.000000     0.000000    -0.500000
   21     1.000000   179.999999     0.000000    -1.000000     0.000000     0.000000     0.000000    -0.500000
   22    -1.000000   179.999999     0.000000    -1.000000     0.000000     0.000000     0.000000    -0.500000
   23     1.000000   180.000000     0.866025     0.500000     0.000000     0.000000     0.000001    -0.500000
   24    -1.000000   180.000000     0.866025     0.500000     0.000000     0.000000     0.000001    -0.500000
 
 Subroutine IBZKPT returns following result:
 ===========================================
 
 Found    105 irreducible k-points:
 
 Following reciprocal coordinates:
            Coordinates               Weight
  0.000000  0.000000  0.000000      1.000000
  0.076923  0.000000  0.000000      6.000000
  0.153846  0.000000  0.000000      6.000000
  0.230769  0.000000  0.000000      6.000000
  0.307692  0.000000  0.000000      6.000000
  0.384615  0.000000  0.000000      6.000000
  0.461538 -0.000000  0.000000      6.000000
  0.076923  0.076923  0.000000      6.000000
  0.153846  0.076923  0.000000     12.000000
  0.230769  0.076923  0.000000     12.000000
  0.307692  0.076923  0.000000     12.000000
  0.384615  0.076923  0.000000     12.000000
  0.461538  0.076923  0.000000      6.000000
  0.153846  0.153846  0.000000      6.000000
  0.230769  0.153846  0.000000     12.000000
  0.307692  0.153846  0.000000     12.000000
  0.384615  0.153846  0.000000     12.000000
  0.230769  0.230769  0.000000      6.000000
  0.307692  0.230769  0.000000     12.000000
  0.384615  0.230769  0.000000      6.000000
  0.307692  0.307692  0.000000      6.000000
  0.000000  0.000000  0.111111      2.000000
  0.076923  0.000000  0.111111     12.000000
  0.153846  0.000000  0.111111     12.000000
  0.230769  0.000000  0.111111     12.000000
  0.307692  0.000000  0.111111     12.000000
  0.384615  0.000000  0.111111     12.000000
  0.461538 -0.000000  0.111111     12.000000
  0.076923  0.076923  0.111111     12.000000
  0.153846  0.076923  0.111111     24.000000
  0.230769  0.076923  0.111111     24.000000
  0.307692  0.076923  0.111111     24.000000
  0.384615  0.076923  0.111111     24.000000
  0.461538  0.076923  0.111111     12.000000
  0.153846  0.153846  0.111111     12.000000
  0.230769  0.153846  0.111111     24.000000
  0.307692  0.153846  0.111111     24.000000
  0.384615  0.153846  0.111111     24.000000
  0.230769  0.230769  0.111111     12.000000
  0.307692  0.230769  0.111111     24.000000
  0.384615  0.230769  0.111111     12.000000
  0.307692  0.307692  0.111111     12.000000
  0.000000  0.000000  0.222222      2.000000
  0.076923  0.000000  0.222222     12.000000
  0.153846  0.000000  0.222222     12.000000
  0.230769  0.000000  0.222222     12.000000
  0.307692  0.000000  0.222222     12.000000
  0.384615  0.000000  0.222222     12.000000
  0.461538 -0.000000  0.222222     12.000000
  0.076923  0.076923  0.222222     12.000000
  0.153846  0.076923  0.222222     24.000000
  0.230769  0.076923  0.222222     24.000000
  0.307692  0.076923  0.222222     24.000000
  0.384615  0.076923  0.222222     24.000000
  0.461538  0.076923  0.222222     12.000000
  0.153846  0.153846  0.222222     12.000000
  0.230769  0.153846  0.222222     24.000000
  0.307692  0.153846  0.222222     24.000000
  0.384615  0.153846  0.222222     24.000000
  0.230769  0.230769  0.222222     12.000000
  0.307692  0.230769  0.222222     24.000000
  0.384615  0.230769  0.222222     12.000000
  0.307692  0.307692  0.222222     12.000000
  0.000000  0.000000  0.333333      2.000000
  0.076923  0.000000  0.333333     12.000000
  0.153846  0.000000  0.333333     12.000000
  0.230769  0.000000  0.333333     12.000000
  0.307692  0.000000  0.333333     12.000000
  0.384615  0.000000  0.333333     12.000000
  0.461538 -0.000000  0.333333     12.000000
  0.076923  0.076923  0.333333     12.000000
  0.153846  0.076923  0.333333     24.000000
  0.230769  0.076923  0.333333     24.000000
  0.307692  0.076923  0.333333     24.000000
  0.384615  0.076923  0.333333     24.000000
  0.461538  0.076923  0.333333     12.000000
  0.153846  0.153846  0.333333     12.000000
  0.230769  0.153846  0.333333     24.000000
  0.307692  0.153846  0.333333     24.000000
  0.384615  0.153846  0.333333     24.000000
  0.230769  0.230769  0.333333     12.000000
  0.307692  0.230769  0.333333     24.000000
  0.384615  0.230769  0.333333     12.000000
  0.307692  0.307692  0.333333     12.000000
  0.000000  0.000000  0.444444      2.000000
  0.076923  0.000000  0.444444     12.000000
  0.153846  0.000000  0.444444     12.000000
  0.230769  0.000000  0.444444     12.000000
  0.307692  0.000000  0.444444     12.000000
  0.384615  0.000000  0.444444     12.000000
  0.461538 -0.000000  0.444444     12.000000
  0.076923  0.076923  0.444444     12.000000
  0.153846  0.076923  0.444444     24.000000
  0.230769  0.076923  0.444444     24.000000
  0.307692  0.076923  0.444444     24.000000
  0.384615  0.076923  0.444444     24.000000
  0.461538  0.076923  0.444444     12.000000
  0.153846  0.153846  0.444444     12.000000
  0.230769  0.153846  0.444444     24.000000
  0.307692  0.153846  0.444444     24.000000
  0.384615  0.153846  0.444444     24.000000
  0.230769  0.230769  0.444444     12.000000
  0.307692  0.230769  0.444444     24.000000
  0.384615  0.230769  0.444444     12.000000
  0.307692  0.307692  0.444444     12.000000
 
 Following cartesian coordinates:
            Coordinates               Weight
  0.000000  0.000000  0.000000      1.000000
  0.024117  0.013924  0.000000      6.000000
  0.048233  0.027848  0.000000      6.000000
  0.072350  0.041771  0.000000      6.000000
  0.096467  0.055695  0.000000      6.000000
  0.120584  0.069619  0.000000      6.000000
  0.144700  0.083543  0.000000      6.000000
  0.024117  0.041771  0.000000      6.000000
  0.048233  0.055695  0.000000     12.000000
  0.072350  0.069619  0.000000     12.000000
  0.096467  0.083543  0.000000     12.000000
  0.120584  0.097467  0.000000     12.000000
  0.144700  0.111390  0.000000      6.000000
  0.048233  0.083543  0.000000      6.000000
  0.072350  0.097467  0.000000     12.000000
  0.096467  0.111390  0.000000     12.000000
  0.120584  0.125314  0.000000     12.000000
  0.072350  0.125314  0.000000      6.000000
  0.096467  0.139238  0.000000     12.000000
  0.120584  0.153162  0.000000      6.000000
  0.096467  0.167086  0.000000      6.000000
  0.000000  0.000000  0.021399      2.000000
  0.024117  0.013924  0.021399     12.000000
  0.048233  0.027848  0.021399     12.000000
  0.072350  0.041771  0.021399     12.000000
  0.096467  0.055695  0.021399     12.000000
  0.120584  0.069619  0.021399     12.000000
  0.144700  0.083543  0.021399     12.000000
  0.024117  0.041771  0.021399     12.000000
  0.048233  0.055695  0.021399     24.000000
  0.072350  0.069619  0.021399     24.000000
  0.096467  0.083543  0.021399     24.000000
  0.120584  0.097467  0.021399     24.000000
  0.144700  0.111390  0.021399     12.000000
  0.048233  0.083543  0.021399     12.000000
  0.072350  0.097467  0.021399     24.000000
  0.096467  0.111390  0.021399     24.000000
  0.120584  0.125314  0.021399     24.000000
  0.072350  0.125314  0.021399     12.000000
  0.096467  0.139238  0.021399     24.000000
  0.120584  0.153162  0.021399     12.000000
  0.096467  0.167086  0.021399     12.000000
  0.000000  0.000000  0.042799      2.000000
  0.024117  0.013924  0.042799     12.000000
  0.048233  0.027848  0.042799     12.000000
  0.072350  0.041771  0.042799     12.000000
  0.096467  0.055695  0.042799     12.000000
  0.120584  0.069619  0.042799     12.000000
  0.144700  0.083543  0.042799     12.000000
  0.024117  0.041771  0.042799     12.000000
  0.048233  0.055695  0.042799     24.000000
  0.072350  0.069619  0.042799     24.000000
  0.096467  0.083543  0.042799     24.000000
  0.120584  0.097467  0.042799     24.000000
  0.144700  0.111390  0.042799     12.000000
  0.048233  0.083543  0.042799     12.000000
  0.072350  0.097467  0.042799     24.000000
  0.096467  0.111390  0.042799     24.000000
  0.120584  0.125314  0.042799     24.000000
  0.072350  0.125314  0.042799     12.000000
  0.096467  0.139238  0.042799     24.000000
  0.120584  0.153162  0.042799     12.000000
  0.096467  0.167086  0.042799     12.000000
  0.000000  0.000000  0.064198      2.000000
  0.024117  0.013924  0.064198     12.000000
  0.048233  0.027848  0.064198     12.000000
  0.072350  0.041771  0.064198     12.000000
  0.096467  0.055695  0.064198     12.000000
  0.120584  0.069619  0.064198     12.000000
  0.144700  0.083543  0.064198     12.000000
  0.024117  0.041771  0.064198     12.000000
  0.048233  0.055695  0.064198     24.000000
  0.072350  0.069619  0.064198     24.000000
  0.096467  0.083543  0.064198     24.000000
  0.120584  0.097467  0.064198     24.000000
  0.144700  0.111390  0.064198     12.000000
  0.048233  0.083543  0.064198     12.000000
  0.072350  0.097467  0.064198     24.000000
  0.096467  0.111390  0.064198     24.000000
  0.120584  0.125314  0.064198     24.000000
  0.072350  0.125314  0.064198     12.000000
  0.096467  0.139238  0.064198     24.000000
  0.120584  0.153162  0.064198     12.000000
  0.096467  0.167086  0.064198     12.000000
  0.000000  0.000000  0.085597      2.000000
  0.024117  0.013924  0.085597     12.000000
  0.048233  0.027848  0.085597     12.000000
  0.072350  0.041771  0.085597     12.000000
  0.096467  0.055695  0.085597     12.000000
  0.120584  0.069619  0.085597     12.000000
  0.144700  0.083543  0.085597     12.000000
  0.024117  0.041771  0.085597     12.000000
  0.048233  0.055695  0.085597     24.000000
  0.072350  0.069619  0.085597     24.000000
  0.096467  0.083543  0.085597     24.000000
  0.120584  0.097467  0.085597     24.000000
  0.144700  0.111390  0.085597     12.000000
  0.048233  0.083543  0.085597     12.000000
  0.072350  0.097467  0.085597     24.000000
  0.096467  0.111390  0.085597     24.000000
  0.120584  0.125314  0.085597     24.000000
  0.072350  0.125314  0.085597     12.000000
  0.096467  0.139238  0.085597     24.000000
  0.120584  0.153162  0.085597     12.000000
  0.096467  0.167086  0.085597     12.000000
 
 writing wavefunctions
     LOOP+:  cpu time   27.7640: real time   27.8265
    4ORBIT:  cpu time    0.0000: real time    0.0000

 total amount of memory used by VASP MPI-rank0    50088. kBytes
=======================================================================

   base      :      30000. kBytes
   nonl-proj :      13711. kBytes
   fftplans  :        714. kBytes
   grid      :       1347. kBytes
   one-center:         16. kBytes
   wavefun   :       4300. kBytes
 
  
  
 General timing and accounting informations for this job:
 ========================================================
  
                  Total CPU time used (sec):      704.865
                            User time (sec):      266.353
                          System time (sec):      438.512
                         Elapsed time (sec):      707.934
  
                   Maximum memory used (kb):      231532.
                   Average memory used (kb):           0.
  
                          Minor page faults:       114562
                          Major page faults:          371
                 Voluntary context switches:         1848
