  16  16   1   0
  0.1316906E+02  0.3748147E-09  0.3748147E-09  0.1499827E-08  0.5000000E-15
  1.000000000000000E-004
  CAR 
 unknown system                          
     16.65456404     -3.77829878  301      8.33973074      1.00000000
     -3.778  0.0000E+00  0.0000E+00  0.0000E+00  0.0000E+00
     -3.710  0.0000E+00  0.0000E+00  0.0000E+00  0.0000E+00
     -3.642  0.0000E+00  0.0000E+00  0.0000E+00  0.0000E+00
     -3.574  0.0000E+00  0.0000E+00  0.0000E+00  0.0000E+00
     -3.506  0.0000E+00  0.0000E+00  0.0000E+00  0.0000E+00
     -3.438  0.0000E+00  0.0000E+00  0.0000E+00  0.0000E+00
     -3.370  0.0000E+00  0.0000E+00  0.0000E+00  0.0000E+00
     -3.302  0.3433E-05  0.3416E-05  0.2338E-06  0.2326E-06
     -3.233  0.3447E-04  0.3429E-04  0.2581E-05  0.2568E-05
     -3.165  0.1680E-03  0.1672E-03  0.1403E-04  0.1396E-04
     -3.097  0.6422E-03  0.6389E-03  0.5776E-04  0.5747E-04
     -3.029  0.2502E-02  0.2490E-02  0.2282E-03  0.2270E-03
     -2.961  0.9516E-02  0.9470E-02  0.8763E-03  0.8720E-03
     -2.893  0.3278E-01  0.3264E-01  0.3109E-02  0.3095E-02
     -2.825  0.9268E-01  0.9237E-01  0.9422E-02  0.9387E-02
     -2.757  0.1911E+00  0.1907E+00  0.2244E-01  0.2237E-01
     -2.689  0.2808E+00  0.2806E+00  0.4156E-01  0.4148E-01
     -2.620  0.3499E+00  0.3496E+00  0.6539E-01  0.6529E-01
     -2.552  0.4563E+00  0.4558E+00  0.9647E-01  0.9634E-01
     -2.484  0.5246E+00  0.5246E+00  0.1322E+00  0.1321E+00
     -2.416  0.4903E+00  0.4904E+00  0.1656E+00  0.1655E+00
     -2.348  0.5460E+00  0.5455E+00  0.2028E+00  0.2026E+00
     -2.280  0.6864E+00  0.6860E+00  0.2495E+00  0.2494E+00
     -2.212  0.7133E+00  0.7134E+00  0.2981E+00  0.2980E+00
     -2.144  0.6877E+00  0.6877E+00  0.3450E+00  0.3448E+00
     -2.076  0.7418E+00  0.7415E+00  0.3956E+00  0.3954E+00
     -2.007  0.8046E+00  0.8046E+00  0.4504E+00  0.4502E+00
     -1.939  0.7646E+00  0.7647E+00  0.5025E+00  0.5023E+00
     -1.871  0.8039E+00  0.8035E+00  0.5573E+00  0.5571E+00
     -1.803  0.9415E+00  0.9411E+00  0.6215E+00  0.6212E+00
     -1.735  0.1015E+01  0.1015E+01  0.6906E+00  0.6904E+00
     -1.667  0.1027E+01  0.1027E+01  0.7606E+00  0.7604E+00
     -1.599  0.9610E+00  0.9613E+00  0.8261E+00  0.8259E+00
     -1.531  0.9115E+00  0.9115E+00  0.8882E+00  0.8880E+00
     -1.463  0.9546E+00  0.9542E+00  0.9533E+00  0.9530E+00
     -1.394  0.1110E+01  0.1109E+01  0.1029E+01  0.1029E+01
     -1.326  0.1253E+01  0.1253E+01  0.1114E+01  0.1114E+01
     -1.258  0.1294E+01  0.1294E+01  0.1203E+01  0.1202E+01
     -1.190  0.1311E+01  0.1311E+01  0.1292E+01  0.1291E+01
     -1.122  0.1248E+01  0.1249E+01  0.1377E+01  0.1377E+01
     -1.054  0.1138E+01  0.1138E+01  0.1454E+01  0.1454E+01
     -0.986  0.1210E+01  0.1209E+01  0.1537E+01  0.1537E+01
     -0.918  0.1494E+01  0.1493E+01  0.1639E+01  0.1638E+01
     -0.850  0.1724E+01  0.1724E+01  0.1756E+01  0.1756E+01
     -0.781  0.1719E+01  0.1720E+01  0.1873E+01  0.1873E+01
     -0.713  0.1616E+01  0.1617E+01  0.1984E+01  0.1983E+01
     -0.645  0.1368E+01  0.1369E+01  0.2077E+01  0.2077E+01
     -0.577  0.1173E+01  0.1173E+01  0.2157E+01  0.2156E+01
     -0.509  0.1229E+01  0.1229E+01  0.2241E+01  0.2240E+01
     -0.441  0.1429E+01  0.1429E+01  0.2338E+01  0.2338E+01
     -0.373  0.1453E+01  0.1453E+01  0.2437E+01  0.2437E+01
     -0.305  0.1278E+01  0.1278E+01  0.2524E+01  0.2524E+01
     -0.237  0.1130E+01  0.1131E+01  0.2601E+01  0.2601E+01
     -0.168  0.9584E+00  0.9589E+00  0.2667E+01  0.2666E+01
     -0.100  0.9494E+00  0.9489E+00  0.2731E+01  0.2731E+01
     -0.032  0.1192E+01  0.1191E+01  0.2813E+01  0.2812E+01
      0.036  0.1390E+01  0.1389E+01  0.2907E+01  0.2907E+01
      0.104  0.1384E+01  0.1385E+01  0.3002E+01  0.3001E+01
      0.172  0.1224E+01  0.1225E+01  0.3085E+01  0.3085E+01
      0.240  0.9986E+00  0.9994E+00  0.3153E+01  0.3153E+01
      0.308  0.8171E+00  0.8174E+00  0.3209E+01  0.3209E+01
      0.376  0.8535E+00  0.8528E+00  0.3267E+01  0.3267E+01
      0.444  0.1084E+01  0.1084E+01  0.3341E+01  0.3341E+01
      0.513  0.1152E+01  0.1152E+01  0.3419E+01  0.3419E+01
      0.581  0.1069E+01  0.1069E+01  0.3492E+01  0.3492E+01
      0.649  0.1025E+01  0.1025E+01  0.3562E+01  0.3562E+01
      0.717  0.1041E+01  0.1041E+01  0.3633E+01  0.3633E+01
      0.785  0.1069E+01  0.1068E+01  0.3706E+01  0.3706E+01
      0.853  0.1239E+01  0.1238E+01  0.3790E+01  0.3790E+01
      0.921  0.1422E+01  0.1422E+01  0.3887E+01  0.3887E+01
      0.989  0.1562E+01  0.1562E+01  0.3994E+01  0.3993E+01
      1.057  0.1672E+01  0.1672E+01  0.4108E+01  0.4107E+01
      1.126  0.1841E+01  0.1840E+01  0.4233E+01  0.4233E+01
      1.194  0.2059E+01  0.2057E+01  0.4373E+01  0.4373E+01
      1.262  0.2184E+01  0.2184E+01  0.4522E+01  0.4522E+01
      1.330  0.2017E+01  0.2018E+01  0.4660E+01  0.4659E+01
      1.398  0.1903E+01  0.1903E+01  0.4789E+01  0.4789E+01
      1.466  0.1714E+01  0.1715E+01  0.4906E+01  0.4906E+01
      1.534  0.1411E+01  0.1411E+01  0.5002E+01  0.5002E+01
      1.602  0.1403E+01  0.1402E+01  0.5098E+01  0.5097E+01
      1.670  0.1536E+01  0.1536E+01  0.5203E+01  0.5202E+01
      1.739  0.1483E+01  0.1483E+01  0.5304E+01  0.5303E+01
      1.807  0.1586E+01  0.1585E+01  0.5412E+01  0.5411E+01
      1.875  0.2010E+01  0.2008E+01  0.5549E+01  0.5548E+01
      1.943  0.2283E+01  0.2283E+01  0.5704E+01  0.5704E+01
      2.011  0.2089E+01  0.2090E+01  0.5847E+01  0.5846E+01
      2.079  0.1892E+01  0.1892E+01  0.5976E+01  0.5975E+01
      2.147  0.1778E+01  0.1779E+01  0.6097E+01  0.6096E+01
      2.215  0.1437E+01  0.1438E+01  0.6195E+01  0.6194E+01
      2.283  0.1171E+01  0.1172E+01  0.6275E+01  0.6274E+01
      2.352  0.1122E+01  0.1122E+01  0.6351E+01  0.6351E+01
      2.420  0.1283E+01  0.1282E+01  0.6439E+01  0.6438E+01
      2.488  0.1481E+01  0.1480E+01  0.6540E+01  0.6539E+01
      2.556  0.1624E+01  0.1624E+01  0.6650E+01  0.6650E+01
      2.624  0.1620E+01  0.1620E+01  0.6761E+01  0.6760E+01
      2.692  0.1596E+01  0.1596E+01  0.6869E+01  0.6869E+01
      2.760  0.1814E+01  0.1813E+01  0.6993E+01  0.6992E+01
      2.828  0.2101E+01  0.2100E+01  0.7136E+01  0.7136E+01
      2.896  0.2218E+01  0.2218E+01  0.7287E+01  0.7287E+01
      2.965  0.2121E+01  0.2121E+01  0.7432E+01  0.7431E+01
      3.033  0.2118E+01  0.2117E+01  0.7576E+01  0.7576E+01
      3.101  0.2250E+01  0.2250E+01  0.7729E+01  0.7729E+01
      3.169  0.2195E+01  0.2195E+01  0.7879E+01  0.7879E+01
      3.237  0.2202E+01  0.2201E+01  0.8029E+01  0.8029E+01
      3.305  0.2077E+01  0.2079E+01  0.8171E+01  0.8170E+01
      3.373  0.1900E+01  0.1901E+01  0.8300E+01  0.8300E+01
      3.441  0.1912E+01  0.1912E+01  0.8431E+01  0.8430E+01
      3.509  0.1997E+01  0.1996E+01  0.8567E+01  0.8566E+01
      3.578  0.2238E+01  0.2236E+01  0.8719E+01  0.8719E+01
      3.646  0.2417E+01  0.2417E+01  0.8884E+01  0.8883E+01
      3.714  0.2237E+01  0.2238E+01  0.9036E+01  0.9036E+01
      3.782  0.1885E+01  0.1886E+01  0.9165E+01  0.9164E+01
      3.850  0.1800E+01  0.1799E+01  0.9288E+01  0.9287E+01
      3.918  0.1782E+01  0.1782E+01  0.9409E+01  0.9409E+01
      3.986  0.1667E+01  0.1667E+01  0.9523E+01  0.9522E+01
      4.054  0.1855E+01  0.1853E+01  0.9649E+01  0.9649E+01
      4.122  0.2240E+01  0.2238E+01  0.9802E+01  0.9801E+01
      4.191  0.2624E+01  0.2623E+01  0.9981E+01  0.9980E+01
      4.259  0.2653E+01  0.2653E+01  0.1016E+02  0.1016E+02
      4.327  0.2454E+01  0.2455E+01  0.1033E+02  0.1033E+02
      4.395  0.2361E+01  0.2361E+01  0.1049E+02  0.1049E+02
      4.463  0.2567E+01  0.2565E+01  0.1066E+02  0.1066E+02
      4.531  0.2892E+01  0.2891E+01  0.1086E+02  0.1086E+02
      4.599  0.2706E+01  0.2708E+01  0.1105E+02  0.1105E+02
      4.667  0.2254E+01  0.2256E+01  0.1120E+02  0.1120E+02
      4.735  0.2137E+01  0.2137E+01  0.1135E+02  0.1134E+02
      4.804  0.2422E+01  0.2420E+01  0.1151E+02  0.1151E+02
      4.872  0.2733E+01  0.2732E+01  0.1170E+02  0.1170E+02
      4.940  0.2716E+01  0.2717E+01  0.1188E+02  0.1188E+02
      5.008  0.2393E+01  0.2394E+01  0.1204E+02  0.1204E+02
      5.076  0.2118E+01  0.2119E+01  0.1219E+02  0.1219E+02
      5.144  0.2046E+01  0.2046E+01  0.1233E+02  0.1233E+02
      5.212  0.2237E+01  0.2235E+01  0.1248E+02  0.1248E+02
      5.280  0.2467E+01  0.2467E+01  0.1265E+02  0.1265E+02
      5.348  0.2305E+01  0.2307E+01  0.1281E+02  0.1281E+02
      5.416  0.1839E+01  0.1841E+01  0.1293E+02  0.1293E+02
      5.485  0.1709E+01  0.1708E+01  0.1305E+02  0.1305E+02
      5.553  0.2084E+01  0.2081E+01  0.1319E+02  0.1319E+02
      5.621  0.2725E+01  0.2722E+01  0.1338E+02  0.1338E+02
      5.689  0.3308E+01  0.3306E+01  0.1360E+02  0.1360E+02
      5.757  0.3386E+01  0.3388E+01  0.1383E+02  0.1383E+02
      5.825  0.2971E+01  0.2974E+01  0.1403E+02  0.1403E+02
      5.893  0.2502E+01  0.2503E+01  0.1421E+02  0.1420E+02
      5.961  0.2296E+01  0.2296E+01  0.1436E+02  0.1436E+02
      6.029  0.2307E+01  0.2307E+01  0.1452E+02  0.1452E+02
      6.098  0.2270E+01  0.2270E+01  0.1467E+02  0.1467E+02
      6.166  0.2294E+01  0.2294E+01  0.1483E+02  0.1483E+02
      6.234  0.2398E+01  0.2398E+01  0.1499E+02  0.1499E+02
      6.302  0.2462E+01  0.2462E+01  0.1516E+02  0.1516E+02
      6.370  0.2575E+01  0.2575E+01  0.1534E+02  0.1534E+02
      6.438  0.2632E+01  0.2632E+01  0.1552E+02  0.1552E+02
      6.506  0.2570E+01  0.2570E+01  0.1569E+02  0.1569E+02
      6.574  0.2665E+01  0.2664E+01  0.1587E+02  0.1587E+02
      6.642  0.2791E+01  0.2791E+01  0.1606E+02  0.1606E+02
      6.711  0.2532E+01  0.2534E+01  0.1624E+02  0.1624E+02
      6.779  0.2057E+01  0.2059E+01  0.1638E+02  0.1638E+02
      6.847  0.1872E+01  0.1872E+01  0.1650E+02  0.1650E+02
      6.915  0.2043E+01  0.2042E+01  0.1664E+02  0.1664E+02
      6.983  0.2265E+01  0.2265E+01  0.1680E+02  0.1680E+02
      7.051  0.2371E+01  0.2371E+01  0.1696E+02  0.1696E+02
      7.119  0.2552E+01  0.2551E+01  0.1713E+02  0.1713E+02
      7.187  0.2509E+01  0.2510E+01  0.1730E+02  0.1730E+02
      7.255  0.2208E+01  0.2209E+01  0.1745E+02  0.1745E+02
      7.324  0.2050E+01  0.2051E+01  0.1759E+02  0.1759E+02
      7.392  0.1942E+01  0.1942E+01  0.1773E+02  0.1773E+02
      7.460  0.1992E+01  0.1992E+01  0.1786E+02  0.1786E+02
      7.528  0.2196E+01  0.2196E+01  0.1801E+02  0.1801E+02
      7.596  0.2433E+01  0.2432E+01  0.1818E+02  0.1818E+02
      7.664  0.2740E+01  0.2739E+01  0.1836E+02  0.1836E+02
      7.732  0.2759E+01  0.2759E+01  0.1855E+02  0.1855E+02
      7.800  0.2334E+01  0.2336E+01  0.1871E+02  0.1871E+02
      7.868  0.1971E+01  0.1971E+01  0.1885E+02  0.1885E+02
      7.937  0.1911E+01  0.1911E+01  0.1898E+02  0.1898E+02
      8.005  0.2137E+01  0.2135E+01  0.1912E+02  0.1912E+02
      8.073  0.2567E+01  0.2565E+01  0.1930E+02  0.1930E+02
      8.141  0.2780E+01  0.2780E+01  0.1949E+02  0.1949E+02
      8.209  0.2723E+01  0.2724E+01  0.1967E+02  0.1967E+02
      8.277  0.2550E+01  0.2550E+01  0.1985E+02  0.1985E+02
      8.345  0.2475E+01  0.2474E+01  0.2001E+02  0.2001E+02
      8.413  0.2737E+01  0.2735E+01  0.2020E+02  0.2020E+02
      8.481  0.2984E+01  0.2984E+01  0.2040E+02  0.2040E+02
      8.550  0.2826E+01  0.2827E+01  0.2060E+02  0.2060E+02
      8.618  0.2642E+01  0.2642E+01  0.2078E+02  0.2078E+02
      8.686  0.2736E+01  0.2735E+01  0.2096E+02  0.2096E+02
      8.754  0.2841E+01  0.2840E+01  0.2116E+02  0.2116E+02
      8.822  0.2801E+01  0.2802E+01  0.2135E+02  0.2135E+02
      8.890  0.2548E+01  0.2550E+01  0.2152E+02  0.2152E+02
      8.958  0.2414E+01  0.2414E+01  0.2169E+02  0.2169E+02
      9.026  0.2595E+01  0.2594E+01  0.2186E+02  0.2186E+02
      9.094  0.2783E+01  0.2783E+01  0.2205E+02  0.2205E+02
      9.163  0.2637E+01  0.2638E+01  0.2223E+02  0.2223E+02
      9.231  0.2533E+01  0.2532E+01  0.2241E+02  0.2240E+02
      9.299  0.2992E+01  0.2989E+01  0.2261E+02  0.2261E+02
      9.367  0.3484E+01  0.3483E+01  0.2285E+02  0.2285E+02
      9.435  0.3348E+01  0.3350E+01  0.2307E+02  0.2307E+02
      9.503  0.2917E+01  0.2919E+01  0.2327E+02  0.2327E+02
      9.571  0.2532E+01  0.2533E+01  0.2345E+02  0.2345E+02
      9.639  0.2463E+01  0.2463E+01  0.2361E+02  0.2361E+02
      9.707  0.2619E+01  0.2619E+01  0.2379E+02  0.2379E+02
      9.776  0.2550E+01  0.2551E+01  0.2397E+02  0.2397E+02
      9.844  0.2361E+01  0.2361E+01  0.2413E+02  0.2413E+02
      9.912  0.2203E+01  0.2204E+01  0.2428E+02  0.2428E+02
      9.980  0.2000E+01  0.2001E+01  0.2441E+02  0.2441E+02
     10.048  0.1974E+01  0.1973E+01  0.2455E+02  0.2455E+02
     10.116  0.2063E+01  0.2063E+01  0.2469E+02  0.2469E+02
     10.184  0.2211E+01  0.2211E+01  0.2484E+02  0.2484E+02
     10.252  0.2414E+01  0.2414E+01  0.2500E+02  0.2500E+02
     10.320  0.2690E+01  0.2688E+01  0.2519E+02  0.2519E+02
     10.388  0.2912E+01  0.2912E+01  0.2539E+02  0.2539E+02
     10.457  0.2937E+01  0.2937E+01  0.2559E+02  0.2559E+02
     10.525  0.3282E+01  0.3279E+01  0.2581E+02  0.2581E+02
     10.593  0.3993E+01  0.3990E+01  0.2608E+02  0.2608E+02
     10.661  0.4318E+01  0.4318E+01  0.2638E+02  0.2637E+02
     10.729  0.3862E+01  0.3865E+01  0.2664E+02  0.2664E+02
     10.797  0.3194E+01  0.3196E+01  0.2686E+02  0.2686E+02
     10.865  0.2862E+01  0.2862E+01  0.2705E+02  0.2705E+02
     10.933  0.2916E+01  0.2916E+01  0.2725E+02  0.2725E+02
     11.001  0.2903E+01  0.2903E+01  0.2745E+02  0.2745E+02
     11.070  0.2889E+01  0.2888E+01  0.2765E+02  0.2764E+02
     11.138  0.2925E+01  0.2925E+01  0.2785E+02  0.2784E+02
     11.206  0.2938E+01  0.2938E+01  0.2805E+02  0.2804E+02
     11.274  0.3012E+01  0.3011E+01  0.2825E+02  0.2825E+02
     11.342  0.3079E+01  0.3079E+01  0.2846E+02  0.2846E+02
     11.410  0.2841E+01  0.2843E+01  0.2865E+02  0.2865E+02
     11.478  0.2820E+01  0.2819E+01  0.2885E+02  0.2885E+02
     11.546  0.3382E+01  0.3380E+01  0.2908E+02  0.2908E+02
     11.614  0.3508E+01  0.3509E+01  0.2932E+02  0.2932E+02
     11.683  0.3275E+01  0.3275E+01  0.2954E+02  0.2954E+02
     11.751  0.3175E+01  0.3174E+01  0.2976E+02  0.2975E+02
     11.819  0.3047E+01  0.3047E+01  0.2996E+02  0.2996E+02
     11.887  0.2870E+01  0.2871E+01  0.3016E+02  0.3016E+02
     11.955  0.2753E+01  0.2755E+01  0.3035E+02  0.3035E+02
     12.023  0.2585E+01  0.2586E+01  0.3052E+02  0.3052E+02
     12.091  0.2520E+01  0.2520E+01  0.3069E+02  0.3069E+02
     12.159  0.2778E+01  0.2776E+01  0.3088E+02  0.3088E+02
     12.227  0.3068E+01  0.3067E+01  0.3109E+02  0.3109E+02
     12.296  0.3244E+01  0.3243E+01  0.3131E+02  0.3131E+02
     12.364  0.3312E+01  0.3312E+01  0.3154E+02  0.3154E+02
     12.432  0.3178E+01  0.3179E+01  0.3176E+02  0.3176E+02
     12.500  0.2974E+01  0.2976E+01  0.3196E+02  0.3196E+02
     12.568  0.2980E+01  0.2981E+01  0.3216E+02  0.3216E+02
     12.636  0.3169E+01  0.3172E+01  0.3238E+02  0.3238E+02
     12.704  0.3246E+01  0.3252E+01  0.3260E+02  0.3260E+02
     12.772  0.3189E+01  0.3194E+01  0.3282E+02  0.3282E+02
     12.840  0.2863E+01  0.2856E+01  0.3301E+02  0.3301E+02
     12.909  0.2576E+01  0.2574E+01  0.3319E+02  0.3319E+02
     12.977  0.2458E+01  0.2471E+01  0.3336E+02  0.3336E+02
     13.045  0.2430E+01  0.2466E+01  0.3352E+02  0.3352E+02
     13.113  0.2645E+01  0.2705E+01  0.3370E+02  0.3371E+02
     13.181  0.2893E+01  0.2924E+01  0.3390E+02  0.3391E+02
     13.249  0.2650E+01  0.2649E+01  0.3408E+02  0.3409E+02
     13.317  0.2116E+01  0.2137E+01  0.3422E+02  0.3423E+02
     13.385  0.1993E+01  0.2069E+01  0.3436E+02  0.3437E+02
     13.453  0.2181E+01  0.2262E+01  0.3451E+02  0.3453E+02
     13.522  0.2294E+01  0.2264E+01  0.3466E+02  0.3468E+02
     13.590  0.2242E+01  0.2156E+01  0.3482E+02  0.3483E+02
     13.658  0.2058E+01  0.1977E+01  0.3496E+02  0.3497E+02
     13.726  0.1685E+01  0.1617E+01  0.3507E+02  0.3508E+02
     13.794  0.1425E+01  0.1394E+01  0.3517E+02  0.3517E+02
     13.862  0.1209E+01  0.1231E+01  0.3525E+02  0.3525E+02
     13.930  0.9106E+00  0.9448E+00  0.3531E+02  0.3532E+02
     13.998  0.7403E+00  0.7443E+00  0.3536E+02  0.3537E+02
     14.066  0.7335E+00  0.7331E+00  0.3541E+02  0.3542E+02
     14.135  0.6520E+00  0.6915E+00  0.3546E+02  0.3547E+02
     14.203  0.6444E+00  0.6803E+00  0.3550E+02  0.3551E+02
     14.271  0.7172E+00  0.6660E+00  0.3555E+02  0.3556E+02
     14.339  0.7158E+00  0.6520E+00  0.3560E+02  0.3560E+02
     14.407  0.7089E+00  0.6801E+00  0.3565E+02  0.3565E+02
     14.475  0.7591E+00  0.7490E+00  0.3570E+02  0.3570E+02
     14.543  0.7591E+00  0.7579E+00  0.3575E+02  0.3575E+02
     14.611  0.5338E+00  0.5316E+00  0.3579E+02  0.3579E+02
     14.679  0.3107E+00  0.3083E+00  0.3581E+02  0.3581E+02
     14.747  0.2261E+00  0.2298E+00  0.3583E+02  0.3583E+02
     14.816  0.2202E+00  0.2236E+00  0.3584E+02  0.3584E+02
     14.884  0.2862E+00  0.2872E+00  0.3586E+02  0.3586E+02
     14.952  0.3293E+00  0.3308E+00  0.3588E+02  0.3588E+02
     15.020  0.3553E+00  0.3562E+00  0.3591E+02  0.3591E+02
     15.088  0.3714E+00  0.3700E+00  0.3593E+02  0.3593E+02
     15.156  0.3162E+00  0.3146E+00  0.3595E+02  0.3595E+02
     15.224  0.2074E+00  0.2085E+00  0.3597E+02  0.3597E+02
     15.292  0.8778E-01  0.8935E-01  0.3597E+02  0.3597E+02
     15.360  0.2853E-01  0.2910E-01  0.3598E+02  0.3598E+02
     15.429  0.1342E-01  0.1326E-01  0.3598E+02  0.3598E+02
     15.497  0.2417E-01  0.2304E-01  0.3598E+02  0.3598E+02
     15.565  0.5991E-01  0.5696E-01  0.3598E+02  0.3598E+02
     15.633  0.9221E-01  0.8704E-01  0.3599E+02  0.3599E+02
     15.701  0.8211E-01  0.7706E-01  0.3599E+02  0.3599E+02
     15.769  0.5152E-01  0.5547E-01  0.3600E+02  0.3600E+02
     15.837  0.2137E-01  0.2807E-01  0.3600E+02  0.3600E+02
     15.905  0.6501E-02  0.9480E-02  0.3600E+02  0.3600E+02
     15.973  0.1749E-02  0.2639E-02  0.3600E+02  0.3600E+02
     16.042  0.3688E-03  0.6029E-03  0.3600E+02  0.3600E+02
     16.110  0.0000E+00  0.1554E-03  0.3600E+02  0.3600E+02
     16.178  0.0000E+00  0.0000E+00  0.3600E+02  0.3600E+02
     16.246  0.0000E+00  0.0000E+00  0.3600E+02  0.3600E+02
     16.314  0.0000E+00  0.0000E+00  0.3600E+02  0.3600E+02
     16.382  0.0000E+00  0.0000E+00  0.3600E+02  0.3600E+02
     16.450  0.0000E+00  0.0000E+00  0.3600E+02  0.3600E+02
     16.518  0.0000E+00  0.0000E+00  0.3600E+02  0.3600E+02
     16.586  0.0000E+00  0.0000E+00  0.3600E+02  0.3600E+02
     16.655  0.0000E+00  0.0000E+00  0.3600E+02  0.3600E+02
     16.65456404     -3.77829878  301      8.33973074      1.00000000
     -3.778  0.0000E+00  0.0000E+00  0.0000E+00  0.0000E+00  0.0000E+00  0.0000E+00  0.0000E+00  0.0000E+00  0.0000E+00  0.0000E+00  0.0000E+00  0.0000E+00  0.0000E+00  0.0000E+00  0.0000E+00  0.0000E+00  0.0000E+00  0.0000E+00
     -3.710  0.0000E+00  0.0000E+00  0.0000E+00  0.0000E+00  0.0000E+00  0.0000E+00  0.0000E+00  0.0000E+00  0.0000E+00  0.0000E+00  0.0000E+00  0.0000E+00  0.0000E+00  0.0000E+00  0.0000E+00  0.0000E+00  0.0000E+00  0.0000E+00
     -3.642  0.0000E+00  0.0000E+00  0.0000E+00  0.0000E+00  0.0000E+00  0.0000E+00  0.0000E+00  0.0000E+00  0.0000E+00  0.0000E+00  0.0000E+00  0.0000E+00  0.0000E+00  0.0000E+00  0.0000E+00  0.0000E+00  0.0000E+00  0.0000E+00
     -3.574  0.0000E+00  0.0000E+00  0.0000E+00  0.0000E+00  0.0000E+00  0.0000E+00  0.0000E+00  0.0000E+00  0.0000E+00  0.0000E+00  0.0000E+00  0.0000E+00  0.0000E+00  0.0000E+00  0.0000E+00  0.0000E+00  0.0000E+00  0.0000E+00
     -3.506  0.0000E+00  0.0000E+00  0.0000E+00  0.0000E+00  0.0000E+00  0.0000E+00  0.0000E+00  0.0000E+00  0.0000E+00  0.0000E+00  0.0000E+00  0.0000E+00  0.0000E+00  0.0000E+00  0.0000E+00  0.0000E+00  0.0000E+00  0.0000E+00
     -3.438  0.0000E+00  0.0000E+00  0.0000E+00  0.0000E+00  0.0000E+00  0.0000E+00  0.0000E+00  0.0000E+00  0.0000E+00  0.0000E+00  0.0000E+00  0.0000E+00  0.0000E+00  0.0000E+00  0.0000E+00  0.0000E+00  0.0000E+00  0.0000E+00
     -3.370  0.0000E+00  0.0000E+00  0.0000E+00  0.0000E+00  0.0000E+00  0.0000E+00  0.0000E+00  0.0000E+00  0.0000E+00  0.0000E+00  0.0000E+00  0.0000E+00  0.0000E+00  0.0000E+00  0.0000E+00  0.0000E+00  0.0000E+00  0.0000E+00
     -3.302  0.2928E-07  0.2910E-07  0.3276E-22  0.1153E-22  0.9470E-11  0.9499E-11  0.3276E-22  0.1153E-22  0.0000E+00  0.0000E+00  0.0000E+00  0.0000E+00  0.0000E+00  0.0000E+00  0.0000E+00  0.0000E+00  0.0000E+00  0.0000E+00
     -3.233  0.2908E-06  0.2890E-06  0.1044E-08  0.1039E-08  0.1233E-08  0.1228E-08  0.1044E-08  0.1039E-08  0.0000E+00  0.0000E+00  0.0000E+00  0.0000E+00  0.0000E+00  0.0000E+00  0.0000E+00  0.0000E+00  0.0000E+00  0.0000E+00
     -3.165  0.1409E-05  0.1401E-05  0.7810E-08  0.7770E-08  0.9434E-08  0.9392E-08  0.7810E-08  0.7770E-08  0.0000E+00  0.0000E+00  0.0000E+00  0.0000E+00  0.0000E+00  0.0000E+00  0.0000E+00  0.0000E+00  0.0000E+00  0.0000E+00
     -3.097  0.5381E-05  0.5348E-05  0.3111E-07  0.3095E-07  0.3815E-07  0.3798E-07  0.3111E-07  0.3095E-07  0.0000E+00  0.0000E+00  0.0000E+00  0.0000E+00  0.0000E+00  0.0000E+00  0.0000E+00  0.0000E+00  0.0000E+00  0.0000E+00
     -3.029  0.2095E-04  0.2082E-04  0.1306E-06  0.1299E-06  0.1470E-06  0.1464E-06  0.1306E-06  0.1299E-06  0.0000E+00  0.0000E+00  0.0000E+00  0.0000E+00  0.0000E+00  0.0000E+00  0.0000E+00  0.0000E+00  0.0000E+00  0.0000E+00
     -2.961  0.7958E-04  0.7911E-04  0.5212E-06  0.5186E-06  0.6064E-06  0.6037E-06  0.5212E-06  0.5186E-06  0.0000E+00  0.0000E+00  0.0000E+00  0.0000E+00  0.0000E+00  0.0000E+00  0.0000E+00  0.0000E+00  0.0000E+00  0.0000E+00
     -2.893  0.2738E-03  0.2723E-03  0.1900E-05  0.1891E-05  0.2238E-05  0.2228E-05  0.1900E-05  0.1891E-05  0.0000E+00  0.0000E+00  0.0000E+00  0.0000E+00  0.0000E+00  0.0000E+00  0.0000E+00  0.0000E+00  0.0000E+00  0.0000E+00
     -2.825  0.7714E-03  0.7680E-03  0.6235E-05  0.6210E-05  0.7386E-05  0.7359E-05  0.6235E-05  0.6210E-05  0.0000E+00  0.0000E+00  0.0000E+00  0.0000E+00  0.0000E+00  0.0000E+00  0.0000E+00  0.0000E+00  0.0000E+00  0.0000E+00
     -2.757  0.1580E-02  0.1575E-02  0.1615E-04  0.1610E-04  0.1917E-04  0.1912E-04  0.1615E-04  0.1610E-04  0.0000E+00  0.0000E+00  0.0000E+00  0.0000E+00  0.0000E+00  0.0000E+00  0.0000E+00  0.0000E+00  0.0000E+00  0.0000E+00
     -2.689  0.2297E-02  0.2292E-02  0.3220E-04  0.3213E-04  0.3658E-04  0.3652E-04  0.3220E-04  0.3213E-04  0.0000E+00  0.0000E+00  0.0000E+00  0.0000E+00  0.0000E+00  0.0000E+00  0.0000E+00  0.0000E+00  0.0000E+00  0.0000E+00
     -2.620  0.2813E-02  0.2808E-02  0.5658E-04  0.5647E-04  0.6128E-04  0.6117E-04  0.5658E-04  0.5647E-04  0.0000E+00  0.0000E+00  0.0000E+00  0.0000E+00  0.0000E+00  0.0000E+00  0.0000E+00  0.0000E+00  0.0000E+00  0.0000E+00
     -2.552  0.3605E-02  0.3598E-02  0.9228E-04  0.9214E-04  0.1068E-03  0.1066E-03  0.9228E-04  0.9214E-04  0.0000E+00  0.0000E+00  0.0000E+00  0.0000E+00  0.0000E+00  0.0000E+00  0.0000E+00  0.0000E+00  0.0000E+00  0.0000E+00
     -2.484  0.4088E-02  0.4084E-02  0.1194E-03  0.1193E-03  0.1510E-03  0.1509E-03  0.1194E-03  0.1193E-03  0.0000E+00  0.0000E+00  0.0000E+00  0.0000E+00  0.0000E+00  0.0000E+00  0.0000E+00  0.0000E+00  0.0000E+00  0.0000E+00
     -2.416  0.3751E-02  0.3749E-02  0.1356E-03  0.1355E-03  0.1619E-03  0.1619E-03  0.1356E-03  0.1355E-03  0.0000E+00  0.0000E+00  0.0000E+00  0.0000E+00  0.0000E+00  0.0000E+00  0.0000E+00  0.0000E+00  0.0000E+00  0.0000E+00
     -2.348  0.4071E-02  0.4063E-02  0.1937E-03  0.1933E-03  0.2007E-03  0.2004E-03  0.1937E-03  0.1933E-03  0.0000E+00  0.0000E+00  0.0000E+00  0.0000E+00  0.0000E+00  0.0000E+00  0.0000E+00  0.0000E+00  0.0000E+00  0.0000E+00
     -2.280  0.5020E-02  0.5013E-02  0.2746E-03  0.2743E-03  0.2835E-03  0.2832E-03  0.2746E-03  0.2743E-03  0.0000E+00  0.0000E+00  0.0000E+00  0.0000E+00  0.0000E+00  0.0000E+00  0.0000E+00  0.0000E+00  0.0000E+00  0.0000E+00
     -2.212  0.5122E-02  0.5118E-02  0.3005E-03  0.3005E-03  0.3524E-03  0.3522E-03  0.3005E-03  0.3005E-03  0.0000E+00  0.0000E+00  0.0000E+00  0.0000E+00  0.0000E+00  0.0000E+00  0.0000E+00  0.0000E+00  0.0000E+00  0.0000E+00
     -2.144  0.4830E-02  0.4827E-02  0.3081E-03  0.3079E-03  0.4060E-03  0.4058E-03  0.3081E-03  0.3079E-03  0.0000E+00  0.0000E+00  0.0000E+00  0.0000E+00  0.0000E+00  0.0000E+00  0.0000E+00  0.0000E+00  0.0000E+00  0.0000E+00
     -2.076  0.5097E-02  0.5091E-02  0.3746E-03  0.3742E-03  0.4637E-03  0.4634E-03  0.3746E-03  0.3742E-03  0.0000E+00  0.0000E+00  0.0000E+00  0.0000E+00  0.0000E+00  0.0000E+00  0.0000E+00  0.0000E+00  0.0000E+00  0.0000E+00
     -2.007  0.5417E-02  0.5413E-02  0.4436E-03  0.4434E-03  0.5320E-03  0.5318E-03  0.4436E-03  0.4434E-03  0.0000E+00  0.0000E+00  0.0000E+00  0.0000E+00  0.0000E+00  0.0000E+00  0.0000E+00  0.0000E+00  0.0000E+00  0.0000E+00
     -1.939  0.5018E-02  0.5016E-02  0.4757E-03  0.4754E-03  0.5166E-03  0.5167E-03  0.4757E-03  0.4754E-03  0.0000E+00  0.0000E+00  0.0000E+00  0.0000E+00  0.0000E+00  0.0000E+00  0.0000E+00  0.0000E+00  0.0000E+00  0.0000E+00
     -1.871  0.5111E-02  0.5106E-02  0.5838E-03  0.5831E-03  0.5294E-03  0.5289E-03  0.5838E-03  0.5831E-03  0.0000E+00  0.0000E+00  0.0000E+00  0.0000E+00  0.0000E+00  0.0000E+00  0.0000E+00  0.0000E+00  0.0000E+00  0.0000E+00
     -1.803  0.5823E-02  0.5818E-02  0.6946E-03  0.6942E-03  0.7387E-03  0.7377E-03  0.6946E-03  0.6942E-03  0.0000E+00  0.0000E+00  0.0000E+00  0.0000E+00  0.0000E+00  0.0000E+00  0.0000E+00  0.0000E+00  0.0000E+00  0.0000E+00
     -1.735  0.6111E-02  0.6108E-02  0.7337E-03  0.7333E-03  0.9662E-03  0.9657E-03  0.7337E-03  0.7333E-03  0.0000E+00  0.0000E+00  0.0000E+00  0.0000E+00  0.0000E+00  0.0000E+00  0.0000E+00  0.0000E+00  0.0000E+00  0.0000E+00
     -1.667  0.6040E-02  0.6037E-02  0.7815E-03  0.7813E-03  0.1028E-02  0.1028E-02  0.7815E-03  0.7813E-03  0.0000E+00  0.0000E+00  0.0000E+00  0.0000E+00  0.0000E+00  0.0000E+00  0.0000E+00  0.0000E+00  0.0000E+00  0.0000E+00
     -1.599  0.5502E-02  0.5501E-02  0.7543E-03  0.7544E-03  0.1041E-02  0.1041E-02  0.7543E-03  0.7544E-03  0.0000E+00  0.0000E+00  0.0000E+00  0.0000E+00  0.0000E+00  0.0000E+00  0.0000E+00  0.0000E+00  0.0000E+00  0.0000E+00
     -1.531  0.5045E-02  0.5043E-02  0.7456E-03  0.7452E-03  0.1073E-02  0.1073E-02  0.7456E-03  0.7452E-03  0.0000E+00  0.0000E+00  0.0000E+00  0.0000E+00  0.0000E+00  0.0000E+00  0.0000E+00  0.0000E+00  0.0000E+00  0.0000E+00
     -1.463  0.5089E-02  0.5085E-02  0.9512E-03  0.9500E-03  0.9593E-03  0.9597E-03  0.9512E-03  0.9500E-03  0.0000E+00  0.0000E+00  0.0000E+00  0.0000E+00  0.0000E+00  0.0000E+00  0.0000E+00  0.0000E+00  0.0000E+00  0.0000E+00
     -1.394  0.5650E-02  0.5644E-02  0.1246E-02  0.1245E-02  0.1056E-02  0.1055E-02  0.1246E-02  0.1245E-02  0.0000E+00  0.0000E+00  0.0000E+00  0.0000E+00  0.0000E+00  0.0000E+00  0.0000E+00  0.0000E+00  0.0000E+00  0.0000E+00
     -1.326  0.6067E-02  0.6064E-02  0.1344E-02  0.1344E-02  0.1548E-02  0.1546E-02  0.1344E-02  0.1344E-02  0.0000E+00  0.0000E+00  0.0000E+00  0.0000E+00  0.0000E+00  0.0000E+00  0.0000E+00  0.0000E+00  0.0000E+00  0.0000E+00
     -1.258  0.5955E-02  0.5952E-02  0.1325E-02  0.1324E-02  0.1944E-02  0.1943E-02  0.1325E-02  0.1324E-02  0.0000E+00  0.0000E+00  0.0000E+00  0.0000E+00  0.0000E+00  0.0000E+00  0.0000E+00  0.0000E+00  0.0000E+00  0.0000E+00
     -1.190  0.5827E-02  0.5826E-02  0.1442E-02  0.1442E-02  0.1936E-02  0.1936E-02  0.1442E-02  0.1442E-02  0.0000E+00  0.0000E+00  0.0000E+00  0.0000E+00  0.0000E+00  0.0000E+00  0.0000E+00  0.0000E+00  0.0000E+00  0.0000E+00
     -1.122  0.5309E-02  0.5310E-02  0.1385E-02  0.1385E-02  0.1995E-02  0.1994E-02  0.1385E-02  0.1385E-02  0.0000E+00  0.0000E+00  0.0000E+00  0.0000E+00  0.0000E+00  0.0000E+00  0.0000E+00  0.0000E+00  0.0000E+00  0.0000E+00
     -1.054  0.4400E-02  0.4401E-02  0.1228E-02  0.1228E-02  0.2182E-02  0.2182E-02  0.1228E-02  0.1228E-02  0.0000E+00  0.0000E+00  0.0000E+00  0.0000E+00  0.0000E+00  0.0000E+00  0.0000E+00  0.0000E+00  0.0000E+00  0.0000E+00
     -0.986  0.4224E-02  0.4222E-02  0.1571E-02  0.1569E-02  0.2128E-02  0.2128E-02  0.1571E-02  0.1569E-02  0.0000E+00  0.0000E+00  0.0000E+00  0.0000E+00  0.0000E+00  0.0000E+00  0.0000E+00  0.0000E+00  0.0000E+00  0.0000E+00
     -0.918  0.4909E-02  0.4905E-02  0.2239E-02  0.2237E-02  0.2277E-02  0.2276E-02  0.2239E-02  0.2237E-02  0.0000E+00  0.0000E+00  0.0000E+00  0.0000E+00  0.0000E+00  0.0000E+00  0.0000E+00  0.0000E+00  0.0000E+00  0.0000E+00
     -0.850  0.5412E-02  0.5410E-02  0.2603E-02  0.2602E-02  0.2771E-02  0.2769E-02  0.2603E-02  0.2602E-02  0.0000E+00  0.0000E+00  0.0000E+00  0.0000E+00  0.0000E+00  0.0000E+00  0.0000E+00  0.0000E+00  0.0000E+00  0.0000E+00
     -0.781  0.4949E-02  0.4949E-02  0.2590E-02  0.2590E-02  0.3057E-02  0.3057E-02  0.2590E-02  0.2590E-02  0.0000E+00  0.0000E+00  0.0000E+00  0.0000E+00  0.0000E+00  0.0000E+00  0.0000E+00  0.0000E+00  0.0000E+00  0.0000E+00
     -0.713  0.4221E-02  0.4221E-02  0.2653E-02  0.2653E-02  0.2726E-02  0.2728E-02  0.2653E-02  0.2653E-02  0.0000E+00  0.0000E+00  0.0000E+00  0.0000E+00  0.0000E+00  0.0000E+00  0.0000E+00  0.0000E+00  0.0000E+00  0.0000E+00
     -0.645  0.3369E-02  0.3370E-02  0.2416E-02  0.2417E-02  0.2110E-02  0.2111E-02  0.2416E-02  0.2417E-02  0.0000E+00  0.0000E+00  0.0000E+00  0.0000E+00  0.0000E+00  0.0000E+00  0.0000E+00  0.0000E+00  0.0000E+00  0.0000E+00
     -0.577  0.2716E-02  0.2716E-02  0.2034E-02  0.2034E-02  0.1978E-02  0.1978E-02  0.2034E-02  0.2034E-02  0.0000E+00  0.0000E+00  0.0000E+00  0.0000E+00  0.0000E+00  0.0000E+00  0.0000E+00  0.0000E+00  0.0000E+00  0.0000E+00
     -0.509  0.2832E-02  0.2829E-02  0.2069E-02  0.2068E-02  0.2191E-02  0.2190E-02  0.2069E-02  0.2068E-02  0.0000E+00  0.0000E+00  0.0000E+00  0.0000E+00  0.0000E+00  0.0000E+00  0.0000E+00  0.0000E+00  0.0000E+00  0.0000E+00
     -0.441  0.3377E-02  0.3375E-02  0.2342E-02  0.2341E-02  0.2623E-02  0.2621E-02  0.2342E-02  0.2341E-02  0.0000E+00  0.0000E+00  0.0000E+00  0.0000E+00  0.0000E+00  0.0000E+00  0.0000E+00  0.0000E+00  0.0000E+00  0.0000E+00
     -0.373  0.3487E-02  0.3487E-02  0.2323E-02  0.2323E-02  0.2756E-02  0.2756E-02  0.2323E-02  0.2323E-02  0.0000E+00  0.0000E+00  0.0000E+00  0.0000E+00  0.0000E+00  0.0000E+00  0.0000E+00  0.0000E+00  0.0000E+00  0.0000E+00