  16  16   1   0
  0.2062420E+02  0.4352687E-09  0.4352687E-09  0.1741735E-08  0.5000000E-15
  1.000000000000000E-004
  CAR 
 unknown system                          
     10.37019131     -4.92409315  301      4.36767164      1.00000000
     -4.924  0.0000E+00  0.0000E+00  0.0000E+00  0.0000E+00
     -4.873  0.0000E+00  0.0000E+00  0.0000E+00  0.0000E+00
     -4.822  0.0000E+00  0.0000E+00  0.0000E+00  0.0000E+00
     -4.771  0.0000E+00  0.0000E+00  0.0000E+00  0.0000E+00
     -4.720  0.0000E+00  0.0000E+00  0.0000E+00  0.0000E+00
     -4.669  0.5797E-05  0.5780E-05  0.2955E-06  0.2947E-06
     -4.618  0.4958E-04  0.4944E-04  0.2823E-05  0.2815E-05
     -4.567  0.1868E-03  0.1862E-03  0.1234E-04  0.1231E-04
     -4.516  0.4951E-03  0.4937E-03  0.3758E-04  0.3748E-04
     -4.465  0.1399E-02  0.1395E-02  0.1089E-03  0.1086E-03
     -4.414  0.3987E-02  0.3976E-02  0.3122E-03  0.3113E-03
     -4.363  0.1067E-01  0.1064E-01  0.8561E-03  0.8537E-03
     -4.312  0.2802E-01  0.2795E-01  0.2285E-02  0.2279E-02
     -4.261  0.6841E-01  0.6826E-01  0.5772E-02  0.5758E-02
     -4.210  0.1452E+00  0.1450E+00  0.1318E-01  0.1315E-01
     -4.159  0.2537E+00  0.2534E+00  0.2611E-01  0.2607E-01
     -4.108  0.3645E+00  0.3642E+00  0.4469E-01  0.4464E-01
     -4.057  0.4687E+00  0.4685E+00  0.6859E-01  0.6852E-01
     -4.006  0.5790E+00  0.5787E+00  0.9811E-01  0.9802E-01
     -3.955  0.6555E+00  0.6554E+00  0.1315E+00  0.1314E+00
     -3.904  0.6823E+00  0.6822E+00  0.1663E+00  0.1662E+00
     -3.853  0.7491E+00  0.7489E+00  0.2045E+00  0.2044E+00
     -3.803  0.8604E+00  0.8602E+00  0.2484E+00  0.2483E+00
     -3.752  0.9187E+00  0.9187E+00  0.2952E+00  0.2951E+00
     -3.701  0.9356E+00  0.9356E+00  0.3429E+00  0.3428E+00
     -3.650  0.9813E+00  0.9812E+00  0.3930E+00  0.3928E+00
     -3.599  0.1032E+01  0.1032E+01  0.4456E+00  0.4455E+00
     -3.548  0.1046E+01  0.1046E+01  0.4989E+00  0.4988E+00
     -3.497  0.1097E+01  0.1097E+01  0.5549E+00  0.5548E+00
     -3.446  0.1209E+01  0.1209E+01  0.6165E+00  0.6164E+00
     -3.395  0.1298E+01  0.1298E+01  0.6828E+00  0.6826E+00
     -3.344  0.1325E+01  0.1325E+01  0.7503E+00  0.7502E+00
     -3.293  0.1292E+01  0.1293E+01  0.8162E+00  0.8161E+00
     -3.242  0.1263E+01  0.1263E+01  0.8806E+00  0.8805E+00
     -3.191  0.1308E+01  0.1308E+01  0.9474E+00  0.9473E+00
     -3.140  0.1442E+01  0.1442E+01  0.1021E+01  0.1021E+01
     -3.089  0.1589E+01  0.1589E+01  0.1102E+01  0.1102E+01
     -3.038  0.1674E+01  0.1674E+01  0.1187E+01  0.1187E+01
     -2.987  0.1701E+01  0.1701E+01  0.1274E+01  0.1274E+01
     -2.936  0.1663E+01  0.1664E+01  0.1359E+01  0.1359E+01
     -2.885  0.1605E+01  0.1606E+01  0.1441E+01  0.1441E+01
     -2.834  0.1670E+01  0.1670E+01  0.1526E+01  0.1526E+01
     -2.783  0.1899E+01  0.1900E+01  0.1623E+01  0.1623E+01
     -2.732  0.2134E+01  0.2134E+01  0.1732E+01  0.1732E+01
     -2.681  0.2201E+01  0.2201E+01  0.1844E+01  0.1844E+01
     -2.630  0.2113E+01  0.2113E+01  0.1952E+01  0.1952E+01
     -2.579  0.1914E+01  0.1914E+01  0.2049E+01  0.2049E+01
     -2.528  0.1720E+01  0.1720E+01  0.2137E+01  0.2137E+01
     -2.477  0.1696E+01  0.1696E+01  0.2224E+01  0.2224E+01
     -2.426  0.1809E+01  0.1809E+01  0.2316E+01  0.2316E+01
     -2.375  0.1859E+01  0.1859E+01  0.2411E+01  0.2411E+01
     -2.324  0.1742E+01  0.1742E+01  0.2500E+01  0.2500E+01
     -2.273  0.1568E+01  0.1567E+01  0.2579E+01  0.2580E+01
     -2.222  0.1411E+01  0.1411E+01  0.2652E+01  0.2652E+01
     -2.171  0.1379E+01  0.1379E+01  0.2722E+01  0.2722E+01
     -2.120  0.1532E+01  0.1532E+01  0.2800E+01  0.2800E+01
     -2.069  0.1719E+01  0.1719E+01  0.2888E+01  0.2888E+01
     -2.018  0.1765E+01  0.1765E+01  0.2978E+01  0.2978E+01
     -1.967  0.1642E+01  0.1642E+01  0.3061E+01  0.3062E+01
     -1.916  0.1427E+01  0.1426E+01  0.3134E+01  0.3134E+01
     -1.865  0.1241E+01  0.1240E+01  0.3198E+01  0.3198E+01
     -1.814  0.1210E+01  0.1210E+01  0.3259E+01  0.3259E+01
     -1.763  0.1327E+01  0.1327E+01  0.3327E+01  0.3327E+01
     -1.712  0.1424E+01  0.1424E+01  0.3400E+01  0.3400E+01
     -1.661  0.1421E+01  0.1420E+01  0.3472E+01  0.3472E+01
     -1.610  0.1374E+01  0.1373E+01  0.3542E+01  0.3542E+01
     -1.559  0.1367E+01  0.1366E+01  0.3612E+01  0.3612E+01
     -1.508  0.1419E+01  0.1417E+01  0.3684E+01  0.3684E+01
     -1.457  0.1568E+01  0.1567E+01  0.3764E+01  0.3764E+01
     -1.406  0.1777E+01  0.1776E+01  0.3855E+01  0.3855E+01
     -1.355  0.1990E+01  0.1989E+01  0.3956E+01  0.3956E+01
     -1.304  0.2199E+01  0.2198E+01  0.4069E+01  0.4068E+01
     -1.253  0.2415E+01  0.2413E+01  0.4192E+01  0.4191E+01
     -1.202  0.2631E+01  0.2629E+01  0.4326E+01  0.4325E+01
     -1.152  0.2784E+01  0.2784E+01  0.4468E+01  0.4467E+01
     -1.101  0.2758E+01  0.2759E+01  0.4609E+01  0.4608E+01
     -1.050  0.2597E+01  0.2598E+01  0.4741E+01  0.4740E+01
     -0.999  0.2378E+01  0.2379E+01  0.4862E+01  0.4862E+01
     -0.948  0.2098E+01  0.2098E+01  0.4969E+01  0.4969E+01
     -0.897  0.1950E+01  0.1950E+01  0.5069E+01  0.5068E+01
     -0.846  0.1981E+01  0.1981E+01  0.5170E+01  0.5169E+01
     -0.795  0.2047E+01  0.2047E+01  0.5274E+01  0.5274E+01
     -0.744  0.2178E+01  0.2177E+01  0.5385E+01  0.5385E+01
     -0.693  0.2475E+01  0.2474E+01  0.5512E+01  0.5511E+01
     -0.642  0.2744E+01  0.2744E+01  0.5652E+01  0.5651E+01
     -0.591  0.2764E+01  0.2765E+01  0.5793E+01  0.5792E+01
     -0.540  0.2641E+01  0.2643E+01  0.5927E+01  0.5927E+01
     -0.489  0.2457E+01  0.2459E+01  0.6053E+01  0.6052E+01
     -0.438  0.2116E+01  0.2118E+01  0.6161E+01  0.6160E+01
     -0.387  0.1734E+01  0.1736E+01  0.6249E+01  0.6249E+01
     -0.336  0.1553E+01  0.1554E+01  0.6328E+01  0.6328E+01
     -0.285  0.1589E+01  0.1589E+01  0.6409E+01  0.6409E+01
     -0.234  0.1708E+01  0.1708E+01  0.6497E+01  0.6496E+01
     -0.183  0.1793E+01  0.1793E+01  0.6588E+01  0.6588E+01
     -0.132  0.1823E+01  0.1822E+01  0.6681E+01  0.6681E+01
     -0.081  0.1831E+01  0.1829E+01  0.6775E+01  0.6774E+01
     -0.030  0.1925E+01  0.1923E+01  0.6873E+01  0.6872E+01
      0.021  0.2242E+01  0.2239E+01  0.6987E+01  0.6986E+01
      0.072  0.2671E+01  0.2668E+01  0.7123E+01  0.7123E+01
      0.123  0.2963E+01  0.2961E+01  0.7274E+01  0.7274E+01
      0.174  0.3050E+01  0.3050E+01  0.7430E+01  0.7429E+01
      0.225  0.3028E+01  0.3028E+01  0.7584E+01  0.7584E+01
      0.276  0.2926E+01  0.2926E+01  0.7734E+01  0.7733E+01
      0.327  0.2750E+01  0.2750E+01  0.7874E+01  0.7873E+01
      0.378  0.2627E+01  0.2626E+01  0.8008E+01  0.8007E+01
      0.429  0.2692E+01  0.2691E+01  0.8145E+01  0.8144E+01
      0.480  0.2841E+01  0.2840E+01  0.8290E+01  0.8289E+01
      0.531  0.2980E+01  0.2980E+01  0.8442E+01  0.8441E+01
      0.582  0.3012E+01  0.3013E+01  0.8596E+01  0.8595E+01
      0.633  0.2894E+01  0.2897E+01  0.8743E+01  0.8743E+01
      0.684  0.2716E+01  0.2720E+01  0.8882E+01  0.8881E+01
      0.735  0.2582E+01  0.2584E+01  0.9014E+01  0.9013E+01
      0.786  0.2493E+01  0.2494E+01  0.9141E+01  0.9140E+01
      0.837  0.2350E+01  0.2350E+01  0.9261E+01  0.9260E+01
      0.888  0.2169E+01  0.2170E+01  0.9371E+01  0.9371E+01
      0.939  0.2079E+01  0.2079E+01  0.9477E+01  0.9477E+01
      0.990  0.2103E+01  0.2103E+01  0.9585E+01  0.9584E+01
      1.041  0.2130E+01  0.2130E+01  0.9693E+01  0.9693E+01
      1.092  0.2065E+01  0.2066E+01  0.9799E+01  0.9798E+01
      1.143  0.1930E+01  0.1931E+01  0.9897E+01  0.9897E+01
      1.194  0.1778E+01  0.1778E+01  0.9988E+01  0.9988E+01
      1.245  0.1700E+01  0.1699E+01  0.1007E+02  0.1007E+02
      1.296  0.1843E+01  0.1840E+01  0.1017E+02  0.1017E+02
      1.347  0.2192E+01  0.2188E+01  0.1028E+02  0.1028E+02
      1.398  0.2513E+01  0.2512E+01  0.1041E+02  0.1041E+02
      1.449  0.2704E+01  0.2705E+01  0.1055E+02  0.1055E+02
      1.500  0.2882E+01  0.2882E+01  0.1069E+02  0.1069E+02
      1.550  0.3025E+01  0.3023E+01  0.1085E+02  0.1085E+02
      1.601  0.3015E+01  0.3013E+01  0.1100E+02  0.1100E+02
      1.652  0.2890E+01  0.2889E+01  0.1115E+02  0.1115E+02
      1.703  0.2749E+01  0.2750E+01  0.1129E+02  0.1129E+02
      1.754  0.2662E+01  0.2664E+01  0.1143E+02  0.1142E+02
      1.805  0.2578E+01  0.2580E+01  0.1156E+02  0.1156E+02
      1.856  0.2448E+01  0.2448E+01  0.1168E+02  0.1168E+02
      1.907  0.2435E+01  0.2432E+01  0.1181E+02  0.1180E+02
      1.958  0.2701E+01  0.2697E+01  0.1194E+02  0.1194E+02
      2.009  0.3042E+01  0.3040E+01  0.1210E+02  0.1210E+02
      2.060  0.3216E+01  0.3217E+01  0.1226E+02  0.1226E+02
      2.111  0.3322E+01  0.3323E+01  0.1243E+02  0.1243E+02
      2.162  0.3421E+01  0.3422E+01  0.1261E+02  0.1261E+02
      2.213  0.3348E+01  0.3348E+01  0.1278E+02  0.1278E+02
      2.264  0.3280E+01  0.3278E+01  0.1294E+02  0.1294E+02
      2.315  0.3432E+01  0.3429E+01  0.1312E+02  0.1312E+02
      2.366  0.3530E+01  0.3529E+01  0.1330E+02  0.1330E+02
      2.417  0.3400E+01  0.3402E+01  0.1347E+02  0.1347E+02
      2.468  0.3275E+01  0.3276E+01  0.1364E+02  0.1364E+02
      2.519  0.3269E+01  0.3268E+01  0.1381E+02  0.1381E+02
      2.570  0.3329E+01  0.3327E+01  0.1398E+02  0.1398E+02
      2.621  0.3392E+01  0.3392E+01  0.1415E+02  0.1415E+02
      2.672  0.3399E+01  0.3399E+01  0.1432E+02  0.1432E+02
      2.723  0.3524E+01  0.3524E+01  0.1450E+02  0.1450E+02
      2.774  0.3824E+01  0.3824E+01  0.1470E+02  0.1470E+02
      2.825  0.3917E+01  0.3920E+01  0.1490E+02  0.1490E+02
      2.876  0.3650E+01  0.3653E+01  0.1508E+02  0.1508E+02
      2.927  0.3411E+01  0.3411E+01  0.1526E+02  0.1526E+02
      2.978  0.3337E+01  0.3336E+01  0.1543E+02  0.1543E+02
      3.029  0.3259E+01  0.3259E+01  0.1559E+02  0.1559E+02
      3.080  0.3181E+01  0.3181E+01  0.1576E+02  0.1576E+02
      3.131  0.3117E+01  0.3117E+01  0.1592E+02  0.1591E+02
      3.182  0.3089E+01  0.3088E+01  0.1607E+02  0.1607E+02
      3.233  0.3249E+01  0.3245E+01  0.1624E+02  0.1624E+02
      3.284  0.3672E+01  0.3667E+01  0.1643E+02  0.1642E+02
      3.335  0.4101E+01  0.4100E+01  0.1664E+02  0.1663E+02
      3.386  0.4109E+01  0.4112E+01  0.1685E+02  0.1684E+02
      3.437  0.3629E+01  0.3635E+01  0.1703E+02  0.1703E+02
      3.488  0.3179E+01  0.3182E+01  0.1719E+02  0.1719E+02
      3.539  0.3090E+01  0.3092E+01  0.1735E+02  0.1735E+02
      3.590  0.3122E+01  0.3124E+01  0.1751E+02  0.1751E+02
      3.641  0.3070E+01  0.3071E+01  0.1767E+02  0.1767E+02
      3.692  0.3042E+01  0.3041E+01  0.1782E+02  0.1782E+02
      3.743  0.3129E+01  0.3126E+01  0.1798E+02  0.1798E+02
      3.794  0.3264E+01  0.3261E+01  0.1815E+02  0.1815E+02
      3.845  0.3353E+01  0.3350E+01  0.1832E+02  0.1832E+02
      3.896  0.3271E+01  0.3272E+01  0.1849E+02  0.1848E+02
      3.947  0.3079E+01  0.3082E+01  0.1864E+02  0.1864E+02
      3.998  0.2940E+01  0.2941E+01  0.1879E+02  0.1879E+02
      4.049  0.2884E+01  0.2884E+01  0.1894E+02  0.1894E+02
      4.100  0.2955E+01  0.2953E+01  0.1909E+02  0.1909E+02
      4.151  0.3206E+01  0.3204E+01  0.1925E+02  0.1925E+02
      4.201  0.3471E+01  0.3470E+01  0.1943E+02  0.1943E+02
      4.252  0.3541E+01  0.3542E+01  0.1961E+02  0.1961E+02
      4.303  0.3458E+01  0.3459E+01  0.1979E+02  0.1979E+02
      4.354  0.3337E+01  0.3337E+01  0.1996E+02  0.1996E+02
      4.405  0.3154E+01  0.3155E+01  0.2012E+02  0.2012E+02
      4.456  0.2967E+01  0.2968E+01  0.2027E+02  0.2027E+02
      4.507  0.2920E+01  0.2920E+01  0.2042E+02  0.2042E+02
      4.558  0.3054E+01  0.3053E+01  0.2057E+02  0.2057E+02
      4.609  0.3243E+01  0.3241E+01  0.2074E+02  0.2074E+02
      4.660  0.3399E+01  0.3394E+01  0.2091E+02  0.2091E+02
      4.711  0.3560E+01  0.3555E+01  0.2110E+02  0.2109E+02
      4.762  0.3709E+01  0.3707E+01  0.2128E+02  0.2128E+02
      4.813  0.3749E+01  0.3751E+01  0.2148E+02  0.2147E+02
      4.864  0.3623E+01  0.3626E+01  0.2166E+02  0.2166E+02
      4.915  0.3341E+01  0.3344E+01  0.2183E+02  0.2183E+02
      4.966  0.2992E+01  0.2995E+01  0.2198E+02  0.2198E+02
      5.017  0.2773E+01  0.2775E+01  0.2212E+02  0.2212E+02
      5.068  0.2917E+01  0.2914E+01  0.2227E+02  0.2227E+02
      5.119  0.3433E+01  0.3426E+01  0.2245E+02  0.2245E+02
      5.170  0.4036E+01  0.4030E+01  0.2265E+02  0.2265E+02
      5.221  0.4438E+01  0.4436E+01  0.2288E+02  0.2288E+02
      5.272  0.4478E+01  0.4481E+01  0.2311E+02  0.2311E+02
      5.323  0.4232E+01  0.4237E+01  0.2333E+02  0.2332E+02
      5.374  0.3914E+01  0.3918E+01  0.2353E+02  0.2352E+02
      5.425  0.3633E+01  0.3637E+01  0.2371E+02  0.2371E+02
      5.476  0.3338E+01  0.3340E+01  0.2388E+02  0.2388E+02
      5.527  0.3087E+01  0.3088E+01  0.2404E+02  0.2404E+02
      5.578  0.3099E+01  0.3097E+01  0.2420E+02  0.2419E+02
      5.629  0.3375E+01  0.3373E+01  0.2437E+02  0.2437E+02
      5.680  0.3631E+01  0.3630E+01  0.2455E+02  0.2455E+02
      5.731  0.3712E+01  0.3711E+01  0.2474E+02  0.2474E+02
      5.782  0.3740E+01  0.3738E+01  0.2493E+02  0.2493E+02
      5.833  0.3906E+01  0.3903E+01  0.2513E+02  0.2513E+02
      5.884  0.4017E+01  0.4018E+01  0.2534E+02  0.2534E+02
      5.935  0.3897E+01  0.3899E+01  0.2554E+02  0.2553E+02
      5.986  0.3733E+01  0.3735E+01  0.2573E+02  0.2573E+02
      6.037  0.3637E+01  0.3639E+01  0.2591E+02  0.2591E+02
      6.088  0.3584E+01  0.3585E+01  0.2610E+02  0.2609E+02
      6.139  0.3579E+01  0.3577E+01  0.2628E+02  0.2628E+02
      6.190  0.3713E+01  0.3709E+01  0.2647E+02  0.2647E+02
      6.241  0.3945E+01  0.3942E+01  0.2667E+02  0.2667E+02
      6.292  0.4010E+01  0.4011E+01  0.2687E+02  0.2687E+02
      6.343  0.3941E+01  0.3941E+01  0.2707E+02  0.2707E+02
      6.394  0.3929E+01  0.3928E+01  0.2727E+02  0.2727E+02
      6.445  0.3809E+01  0.3808E+01  0.2747E+02  0.2747E+02
      6.496  0.3498E+01  0.3497E+01  0.2765E+02  0.2765E+02
      6.547  0.3312E+01  0.3310E+01  0.2782E+02  0.2781E+02
      6.598  0.3464E+01  0.3459E+01  0.2799E+02  0.2799E+02
      6.649  0.3818E+01  0.3813E+01  0.2819E+02  0.2819E+02
      6.700  0.4166E+01  0.4164E+01  0.2840E+02  0.2840E+02
      6.751  0.4390E+01  0.4392E+01  0.2862E+02  0.2862E+02
      6.802  0.4446E+01  0.4449E+01  0.2885E+02  0.2885E+02
      6.853  0.4416E+01  0.4418E+01  0.2908E+02  0.2907E+02
      6.903  0.4380E+01  0.4380E+01  0.2930E+02  0.2930E+02
      6.954  0.4414E+01  0.4413E+01  0.2952E+02  0.2952E+02
      7.005  0.4395E+01  0.4394E+01  0.2975E+02  0.2975E+02
      7.056  0.4161E+01  0.4161E+01  0.2996E+02  0.2996E+02
      7.107  0.3845E+01  0.3846E+01  0.3016E+02  0.3015E+02
      7.158  0.3704E+01  0.3703E+01  0.3035E+02  0.3034E+02
      7.209  0.3800E+01  0.3799E+01  0.3054E+02  0.3054E+02
      7.260  0.4114E+01  0.4112E+01  0.3075E+02  0.3075E+02
      7.311  0.4607E+01  0.4602E+01  0.3099E+02  0.3098E+02
      7.362  0.4953E+01  0.4952E+01  0.3124E+02  0.3123E+02
      7.413  0.4872E+01  0.4873E+01  0.3149E+02  0.3148E+02
      7.464  0.4540E+01  0.4543E+01  0.3172E+02  0.3172E+02
      7.515  0.4245E+01  0.4248E+01  0.3193E+02  0.3193E+02
      7.566  0.4127E+01  0.4130E+01  0.3214E+02  0.3214E+02
      7.617  0.4150E+01  0.4155E+01  0.3236E+02  0.3235E+02
      7.668  0.4247E+01  0.4253E+01  0.3257E+02  0.3257E+02
      7.719  0.4291E+01  0.4295E+01  0.3279E+02  0.3279E+02
      7.770  0.4190E+01  0.4182E+01  0.3301E+02  0.3300E+02
      7.821  0.4020E+01  0.4003E+01  0.3321E+02  0.3321E+02
      7.872  0.3737E+01  0.3713E+01  0.3340E+02  0.3340E+02
      7.923  0.3538E+01  0.3498E+01  0.3358E+02  0.3358E+02
      7.974  0.3682E+01  0.3633E+01  0.3377E+02  0.3376E+02
      8.025  0.3839E+01  0.3825E+01  0.3397E+02  0.3396E+02
      8.076  0.3796E+01  0.3847E+01  0.3416E+02  0.3415E+02
      8.127  0.3734E+01  0.3806E+01  0.3435E+02  0.3435E+02
      8.178  0.3609E+01  0.3644E+01  0.3453E+02  0.3453E+02
      8.229  0.3230E+01  0.3232E+01  0.3470E+02  0.3470E+02
      8.280  0.2722E+01  0.2719E+01  0.3484E+02  0.3484E+02
      8.331  0.2265E+01  0.2266E+01  0.3495E+02  0.3495E+02
      8.382  0.1902E+01  0.1889E+01  0.3505E+02  0.3505E+02
      8.433  0.1650E+01  0.1637E+01  0.3513E+02  0.3513E+02
      8.484  0.1534E+01  0.1543E+01  0.3521E+02  0.3521E+02
      8.535  0.1544E+01  0.1562E+01  0.3529E+02  0.3529E+02
      8.586  0.1533E+01  0.1543E+01  0.3537E+02  0.3537E+02
      8.637  0.1423E+01  0.1423E+01  0.3544E+02  0.3544E+02
      8.688  0.1269E+01  0.1258E+01  0.3551E+02  0.3551E+02
      8.739  0.1105E+01  0.1094E+01  0.3556E+02  0.3556E+02
      8.790  0.9500E+00  0.9526E+00  0.3561E+02  0.3561E+02
      8.841  0.8198E+00  0.8328E+00  0.3565E+02  0.3565E+02
      8.892  0.6587E+00  0.6779E+00  0.3569E+02  0.3569E+02
      8.943  0.5009E+00  0.5251E+00  0.3571E+02  0.3571E+02
      8.994  0.4278E+00  0.4464E+00  0.3574E+02  0.3574E+02
      9.045  0.4484E+00  0.4421E+00  0.3576E+02  0.3576E+02
      9.096  0.5214E+00  0.4963E+00  0.3578E+02  0.3579E+02
      9.147  0.5663E+00  0.5477E+00  0.3581E+02  0.3581E+02
      9.198  0.5154E+00  0.5130E+00  0.3584E+02  0.3584E+02
      9.249  0.4430E+00  0.4478E+00  0.3586E+02  0.3586E+02
      9.300  0.4042E+00  0.4079E+00  0.3588E+02  0.3588E+02
      9.351  0.3290E+00  0.3301E+00  0.3590E+02  0.3590E+02
      9.402  0.2335E+00  0.2327E+00  0.3591E+02  0.3591E+02
      9.453  0.2041E+00  0.2025E+00  0.3592E+02  0.3592E+02
      9.504  0.2484E+00  0.2473E+00  0.3593E+02  0.3593E+02
      9.554  0.3136E+00  0.3174E+00  0.3595E+02  0.3595E+02
      9.605  0.3400E+00  0.3515E+00  0.3597E+02  0.3597E+02
      9.656  0.2850E+00  0.2942E+00  0.3598E+02  0.3598E+02
      9.707  0.1815E+00  0.1791E+00  0.3599E+02  0.3599E+02
      9.758  0.9251E-01  0.8496E-01  0.3600E+02  0.3600E+02
      9.809  0.3987E-01  0.3461E-01  0.3600E+02  0.3600E+02
      9.860  0.1554E-01  0.1310E-01  0.3600E+02  0.3600E+02
      9.911  0.5686E-02  0.4719E-02  0.3600E+02  0.3600E+02
      9.962  0.1964E-02  0.1602E-02  0.3600E+02  0.3600E+02
     10.013  0.3145E-03  0.1859E-03  0.3600E+02  0.3600E+02
     10.064  0.1138E-03  0.0000E+00  0.3600E+02  0.3600E+02
     10.115  0.0000E+00  0.0000E+00  0.3600E+02  0.3600E+02
     10.166  0.0000E+00  0.0000E+00  0.3600E+02  0.3600E+02
     10.217  0.0000E+00  0.0000E+00  0.3600E+02  0.3600E+02
     10.268  0.0000E+00  0.0000E+00  0.3600E+02  0.3600E+02
     10.319  0.0000E+00  0.0000E+00  0.3600E+02  0.3600E+02
     10.370  0.0000E+00  0.0000E+00  0.3600E+02  0.3600E+02
     10.37019131     -4.92409315  301      4.36767164      1.00000000
     -4.924  0.0000E+00  0.0000E+00  0.0000E+00  0.0000E+00  0.0000E+00  0.0000E+00  0.0000E+00  0.0000E+00  0.0000E+00  0.0000E+00  0.0000E+00  0.0000E+00  0.0000E+00  0.0000E+00  0.0000E+00  0.0000E+00  0.0000E+00  0.0000E+00
     -4.873  0.0000E+00  0.0000E+00  0.0000E+00  0.0000E+00  0.0000E+00  0.0000E+00  0.0000E+00  0.0000E+00  0.0000E+00  0.0000E+00  0.0000E+00  0.0000E+00  0.0000E+00  0.0000E+00  0.0000E+00  0.0000E+00  0.0000E+00  0.0000E+00
     -4.822  0.0000E+00  0.0000E+00  0.0000E+00  0.0000E+00  0.0000E+00  0.0000E+00  0.0000E+00  0.0000E+00  0.0000E+00  0.0000E+00  0.0000E+00  0.0000E+00  0.0000E+00  0.0000E+00  0.0000E+00  0.0000E+00  0.0000E+00  0.0000E+00
     -4.771  0.0000E+00  0.0000E+00  0.0000E+00  0.0000E+00  0.0000E+00  0.0000E+00  0.0000E+00  0.0000E+00  0.0000E+00  0.0000E+00  0.0000E+00  0.0000E+00  0.0000E+00  0.0000E+00  0.0000E+00  0.0000E+00  0.0000E+00  0.0000E+00
     -4.720  0.0000E+00  0.0000E+00  0.0000E+00  0.0000E+00  0.0000E+00  0.0000E+00  0.0000E+00  0.0000E+00  0.0000E+00  0.0000E+00  0.0000E+00  0.0000E+00  0.0000E+00  0.0000E+00  0.0000E+00  0.0000E+00  0.0000E+00  0.0000E+00
     -4.669  0.2344E-07  0.2330E-07  0.4093E-21  0.5303E-21  0.4124E-11  0.4011E-11  0.4093E-21  0.5303E-21  0.0000E+00  0.0000E+00  0.0000E+00  0.0000E+00  0.0000E+00  0.0000E+00  0.0000E+00  0.0000E+00  0.0000E+00  0.0000E+00
     -4.618  0.1981E-06  0.1970E-06  0.6961E-09  0.6933E-09  0.8157E-09  0.8112E-09  0.6961E-09  0.6933E-09  0.0000E+00  0.0000E+00  0.0000E+00  0.0000E+00  0.0000E+00  0.0000E+00  0.0000E+00  0.0000E+00  0.0000E+00  0.0000E+00
     -4.567  0.7402E-06  0.7361E-06  0.4283E-08  0.4266E-08  0.5165E-08  0.5140E-08  0.4283E-08  0.4266E-08  0.0000E+00  0.0000E+00  0.0000E+00  0.0000E+00  0.0000E+00  0.0000E+00  0.0000E+00  0.0000E+00  0.0000E+00  0.0000E+00
     -4.516  0.1959E-05  0.1948E-05  0.1214E-07  0.1209E-07  0.1491E-07  0.1484E-07  0.1214E-07  0.1209E-07  0.0000E+00  0.0000E+00  0.0000E+00  0.0000E+00  0.0000E+00  0.0000E+00  0.0000E+00  0.0000E+00  0.0000E+00  0.0000E+00
     -4.465  0.5525E-05  0.5494E-05  0.3976E-07  0.3961E-07  0.4062E-07  0.4043E-07  0.3976E-07  0.3961E-07  0.0000E+00  0.0000E+00  0.0000E+00  0.0000E+00  0.0000E+00  0.0000E+00  0.0000E+00  0.0000E+00  0.0000E+00  0.0000E+00
     -4.414  0.1571E-04  0.1562E-04  0.1213E-06  0.1208E-06  0.1362E-06  0.1356E-06  0.1213E-06  0.1208E-06  0.0000E+00  0.0000E+00  0.0000E+00  0.0000E+00  0.0000E+00  0.0000E+00  0.0000E+00  0.0000E+00  0.0000E+00  0.0000E+00
     -4.363  0.4205E-04  0.4182E-04  0.3157E-06  0.3145E-06  0.3660E-06  0.3644E-06  0.3157E-06  0.3145E-06  0.0000E+00  0.0000E+00  0.0000E+00  0.0000E+00  0.0000E+00  0.0000E+00  0.0000E+00  0.0000E+00  0.0000E+00  0.0000E+00
     -4.312  0.1104E-03  0.1098E-03  0.8586E-06  0.8554E-06  0.9796E-06  0.9752E-06  0.8586E-06  0.8554E-06  0.0000E+00  0.0000E+00  0.0000E+00  0.0000E+00  0.0000E+00  0.0000E+00  0.0000E+00  0.0000E+00  0.0000E+00  0.0000E+00
     -4.261  0.2689E-03  0.2676E-03  0.2248E-05  0.2240E-05  0.2561E-05  0.2550E-05  0.2248E-05  0.2240E-05  0.0000E+00  0.0000E+00  0.0000E+00  0.0000E+00  0.0000E+00  0.0000E+00  0.0000E+00  0.0000E+00  0.0000E+00  0.0000E+00
     -4.210  0.5688E-03  0.5662E-03  0.5369E-05  0.5352E-05  0.6115E-05  0.6091E-05  0.5369E-05  0.5352E-05  0.0000E+00  0.0000E+00  0.0000E+00  0.0000E+00  0.0000E+00  0.0000E+00  0.0000E+00  0.0000E+00  0.0000E+00  0.0000E+00
     -4.159  0.9872E-03  0.9833E-03  0.1124E-04  0.1120E-04  0.1271E-04  0.1267E-04  0.1124E-04  0.1120E-04  0.0000E+00  0.0000E+00  0.0000E+00  0.0000E+00  0.0000E+00  0.0000E+00  0.0000E+00  0.0000E+00  0.0000E+00  0.0000E+00
     -4.108  0.1404E-02  0.1399E-02  0.2047E-04  0.2042E-04  0.2273E-04  0.2266E-04  0.2047E-04  0.2042E-04  0.0000E+00  0.0000E+00  0.0000E+00  0.0000E+00  0.0000E+00  0.0000E+00  0.0000E+00  0.0000E+00  0.0000E+00  0.0000E+00
     -4.057  0.1780E-02  0.1774E-02  0.3378E-04  0.3371E-04  0.3737E-04  0.3726E-04  0.3378E-04  0.3371E-04  0.0000E+00  0.0000E+00  0.0000E+00  0.0000E+00  0.0000E+00  0.0000E+00  0.0000E+00  0.0000E+00  0.0000E+00  0.0000E+00
     -4.006  0.2165E-02  0.2159E-02  0.5040E-04  0.5031E-04  0.5796E-04  0.5781E-04  0.5040E-04  0.5031E-04  0.0000E+00  0.0000E+00  0.0000E+00  0.0000E+00  0.0000E+00  0.0000E+00  0.0000E+00  0.0000E+00  0.0000E+00  0.0000E+00
     -3.955  0.2416E-02  0.2410E-02  0.6620E-04  0.6610E-04  0.7835E-04  0.7818E-04  0.6620E-04  0.6610E-04  0.0000E+00  0.0000E+00  0.0000E+00  0.0000E+00  0.0000E+00  0.0000E+00  0.0000E+00  0.0000E+00  0.0000E+00  0.0000E+00
     -3.904  0.2469E-02  0.2462E-02  0.8279E-04  0.8265E-04  0.9403E-04  0.9383E-04  0.8279E-04  0.8265E-04  0.0000E+00  0.0000E+00  0.0000E+00  0.0000E+00  0.0000E+00  0.0000E+00  0.0000E+00  0.0000E+00  0.0000E+00  0.0000E+00
     -3.853  0.2651E-02  0.2643E-02  0.1101E-03  0.1099E-03  0.1171E-03  0.1168E-03  0.1101E-03  0.1099E-03  0.0000E+00  0.0000E+00  0.0000E+00  0.0000E+00  0.0000E+00  0.0000E+00  0.0000E+00  0.0000E+00  0.0000E+00  0.0000E+00
     -3.803  0.2986E-02  0.2977E-02  0.1429E-03  0.1426E-03  0.1526E-03  0.1522E-03  0.1429E-03  0.1426E-03  0.0000E+00  0.0000E+00  0.0000E+00  0.0000E+00  0.0000E+00  0.0000E+00  0.0000E+00  0.0000E+00  0.0000E+00  0.0000E+00
     -3.752  0.3130E-02  0.3122E-02  0.1642E-03  0.1640E-03  0.1886E-03  0.1883E-03  0.1642E-03  0.1640E-03  0.0000E+00  0.0000E+00  0.0000E+00  0.0000E+00  0.0000E+00  0.0000E+00  0.0000E+00  0.0000E+00  0.0000E+00  0.0000E+00
     -3.701  0.3122E-02  0.3114E-02  0.1805E-03  0.1802E-03  0.2210E-03  0.2207E-03  0.1805E-03  0.1802E-03  0.0000E+00  0.0000E+00  0.0000E+00  0.0000E+00  0.0000E+00  0.0000E+00  0.0000E+00  0.0000E+00  0.0000E+00  0.0000E+00
     -3.650  0.3204E-02  0.3196E-02  0.2090E-03  0.2087E-03  0.2524E-03  0.2519E-03  0.2090E-03  0.2087E-03  0.0000E+00  0.0000E+00  0.0000E+00  0.0000E+00  0.0000E+00  0.0000E+00  0.0000E+00  0.0000E+00  0.0000E+00  0.0000E+00
     -3.599  0.3298E-02  0.3290E-02  0.2426E-03  0.2423E-03  0.2804E-03  0.2799E-03  0.2426E-03  0.2423E-03  0.0000E+00  0.0000E+00  0.0000E+00  0.0000E+00  0.0000E+00  0.0000E+00  0.0000E+00  0.0000E+00  0.0000E+00  0.0000E+00
     -3.548  0.3259E-02  0.3251E-02  0.2746E-03  0.2742E-03  0.2945E-03  0.2940E-03  0.2746E-03  0.2742E-03  0.0000E+00  0.0000E+00  0.0000E+00  0.0000E+00  0.0000E+00  0.0000E+00  0.0000E+00  0.0000E+00  0.0000E+00  0.0000E+00
     -3.497  0.3320E-02  0.3311E-02  0.3213E-03  0.3208E-03  0.3217E-03  0.3211E-03  0.3213E-03  0.3208E-03  0.0000E+00  0.0000E+00  0.0000E+00  0.0000E+00  0.0000E+00  0.0000E+00  0.0000E+00  0.0000E+00  0.0000E+00  0.0000E+00
     -3.446  0.3559E-02  0.3548E-02  0.3710E-03  0.3704E-03  0.3995E-03  0.3986E-03  0.3710E-03  0.3704E-03  0.0000E+00  0.0000E+00  0.0000E+00  0.0000E+00  0.0000E+00  0.0000E+00  0.0000E+00  0.0000E+00  0.0000E+00  0.0000E+00
     -3.395  0.3723E-02  0.3712E-02  0.4031E-03  0.4026E-03  0.4932E-03  0.4922E-03  0.4031E-03  0.4026E-03  0.0000E+00  0.0000E+00  0.0000E+00  0.0000E+00  0.0000E+00  0.0000E+00  0.0000E+00  0.0000E+00  0.0000E+00  0.0000E+00
     -3.344  0.3707E-02  0.3697E-02  0.4247E-03  0.4241E-03  0.5480E-03  0.5470E-03  0.4247E-03  0.4241E-03  0.0000E+00  0.0000E+00  0.0000E+00  0.0000E+00  0.0000E+00  0.0000E+00  0.0000E+00  0.0000E+00  0.0000E+00  0.0000E+00
     -3.293  0.3520E-02  0.3510E-02  0.4327E-03  0.4321E-03  0.5708E-03  0.5697E-03  0.4327E-03  0.4321E-03  0.0000E+00  0.0000E+00  0.0000E+00  0.0000E+00  0.0000E+00  0.0000E+00  0.0000E+00  0.0000E+00  0.0000E+00  0.0000E+00
     -3.242  0.3326E-02  0.3316E-02  0.4530E-03  0.4523E-03  0.5825E-03  0.5814E-03  0.4530E-03  0.4523E-03  0.0000E+00  0.0000E+00  0.0000E+00  0.0000E+00  0.0000E+00  0.0000E+00  0.0000E+00  0.0000E+00  0.0000E+00  0.0000E+00
     -3.191  0.3311E-02  0.3302E-02  0.5325E-03  0.5317E-03  0.5787E-03  0.5776E-03  0.5325E-03  0.5317E-03  0.0000E+00  0.0000E+00  0.0000E+00  0.0000E+00  0.0000E+00  0.0000E+00  0.0000E+00  0.0000E+00  0.0000E+00  0.0000E+00
     -3.140  0.3492E-02  0.3482E-02  0.6464E-03  0.6454E-03  0.6337E-03  0.6324E-03  0.6464E-03  0.6454E-03  0.0000E+00  0.0000E+00  0.0000E+00  0.0000E+00  0.0000E+00  0.0000E+00  0.0000E+00  0.0000E+00  0.0000E+00  0.0000E+00
     -3.089  0.3675E-02  0.3664E-02  0.7194E-03  0.7183E-03  0.8020E-03  0.8004E-03  0.7194E-03  0.7183E-03  0.0000E+00  0.0000E+00  0.0000E+00  0.0000E+00  0.0000E+00  0.0000E+00  0.0000E+00  0.0000E+00  0.0000E+00  0.0000E+00
     -3.038  0.3696E-02  0.3685E-02  0.7472E-03  0.7462E-03  0.9795E-03  0.9776E-03  0.7472E-03  0.7462E-03  0.0000E+00  0.0000E+00  0.0000E+00  0.0000E+00  0.0000E+00  0.0000E+00  0.0000E+00  0.0000E+00  0.0000E+00  0.0000E+00
     -2.987  0.3598E-02  0.3588E-02  0.7781E-03  0.7771E-03  0.1060E-02  0.1058E-02  0.7781E-03  0.7771E-03  0.0000E+00  0.0000E+00  0.0000E+00  0.0000E+00  0.0000E+00  0.0000E+00  0.0000E+00  0.0000E+00  0.0000E+00  0.0000E+00
     -2.936  0.3350E-02  0.3341E-02  0.7816E-03  0.7807E-03  0.1103E-02  0.1102E-02  0.7816E-03  0.7807E-03  0.0000E+00  0.0000E+00  0.0000E+00  0.0000E+00  0.0000E+00  0.0000E+00  0.0000E+00  0.0000E+00  0.0000E+00  0.0000E+00
     -2.885  0.2996E-02  0.2988E-02  0.7763E-03  0.7756E-03  0.1168E-02  0.1166E-02  0.7763E-03  0.7756E-03  0.0000E+00  0.0000E+00  0.0000E+00  0.0000E+00  0.0000E+00  0.0000E+00  0.0000E+00  0.0000E+00  0.0000E+00  0.0000E+00
     -2.834  0.2842E-02  0.2834E-02  0.8972E-03  0.8966E-03  0.1212E-02  0.1210E-02  0.8972E-03  0.8966E-03  0.0000E+00  0.0000E+00  0.0000E+00  0.0000E+00  0.0000E+00  0.0000E+00  0.0000E+00  0.0000E+00  0.0000E+00  0.0000E+00
     -2.783  0.2999E-02  0.2990E-02  0.1142E-02  0.1141E-02  0.1291E-02  0.1289E-02  0.1142E-02  0.1141E-02  0.0000E+00  0.0000E+00  0.0000E+00  0.0000E+00  0.0000E+00  0.0000E+00  0.0000E+00  0.0000E+00  0.0000E+00  0.0000E+00
     -2.732  0.3176E-02  0.3166E-02  0.1344E-02  0.1343E-02  0.1449E-02  0.1447E-02  0.1344E-02  0.1343E-02  0.0000E+00  0.0000E+00  0.0000E+00  0.0000E+00  0.0000E+00  0.0000E+00  0.0000E+00  0.0000E+00  0.0000E+00  0.0000E+00
     -2.681  0.3053E-02  0.3044E-02  0.1416E-02  0.1415E-02  0.1561E-02  0.1559E-02  0.1416E-02  0.1415E-02  0.0000E+00  0.0000E+00  0.0000E+00  0.0000E+00  0.0000E+00  0.0000E+00  0.0000E+00  0.0000E+00  0.0000E+00  0.0000E+00
     -2.630  0.2701E-02  0.2694E-02  0.1427E-02  0.1426E-02  0.1497E-02  0.1495E-02  0.1427E-02  0.1426E-02  0.0000E+00  0.0000E+00  0.0000E+00  0.0000E+00  0.0000E+00  0.0000E+00  0.0000E+00  0.0000E+00  0.0000E+00  0.0000E+00
     -2.579  0.2285E-02  0.2278E-02  0.1366E-02  0.1364E-02  0.1305E-02  0.1303E-02  0.1366E-02  0.1364E-02  0.0000E+00  0.0000E+00  0.0000E+00  0.0000E+00  0.0000E+00  0.0000E+00  0.0000E+00  0.0000E+00  0.0000E+00  0.0000E+00
     -2.528  0.1940E-02  0.1935E-02  0.1247E-02  0.1245E-02  0.1192E-02  0.1190E-02  0.1247E-02  0.1245E-02  0.0000E+00  0.0000E+00  0.0000E+00  0.0000E+00  0.0000E+00  0.0000E+00  0.0000E+00  0.0000E+00  0.0000E+00  0.0000E+00
     -2.477  0.1860E-02  0.1855E-02  0.1210E-02  0.1208E-02  0.1234E-02  0.1232E-02  0.1210E-02  0.1208E-02  0.0000E+00  0.0000E+00  0.0000E+00  0.0000E+00  0.0000E+00  0.0000E+00  0.0000E+00  0.0000E+00  0.0000E+00  0.0000E+00
     -2.426  0.1989E-02  0.1983E-02  0.1261E-02  0.1259E-02  0.1367E-02  0.1365E-02  0.1261E-02  0.1259E-02  0.0000E+00  0.0000E+00  0.0000E+00  0.0000E+00  0.0000E+00  0.0000E+00  0.0000E+00  0.0000E+00  0.0000E+00  0.0000E+00
     -2.375  0.2051E-02  0.2045E-02  0.1272E-02  0.1270E-02  0.1446E-02  0.1444E-02  0.1272E-02  0.1270E-02  0.0000E+00  0.0000E+00  0.0000E+00  0.0000E+00  0.0000E+00  0.0000E+00  0.0000E+00  0.0000E+00  0.0000E+00  0.0000E+00