  16  16   1   0
  0.1403707E+02  0.3828753E-09  0.3828753E-09  0.1532082E-08  0.5000000E-15
  1.000000000000000E-004
  CAR 
 unknown system                          
     15.68082528     -3.99612625  301      7.68900298      1.00000000
     -3.996  0.0000E+00  0.0000E+00  0.0000E+00  0.0000E+00
     -3.931  0.0000E+00  0.0000E+00  0.0000E+00  0.0000E+00
     -3.865  0.0000E+00  0.0000E+00  0.0000E+00  0.0000E+00
     -3.799  0.0000E+00  0.0000E+00  0.0000E+00  0.0000E+00
     -3.734  0.0000E+00  0.0000E+00  0.0000E+00  0.0000E+00
     -3.668  0.0000E+00  0.0000E+00  0.0000E+00  0.0000E+00
     -3.603  0.0000E+00  0.0000E+00  0.0000E+00  0.0000E+00
     -3.537  0.4981E-05  0.4957E-05  0.3267E-06  0.3251E-06
     -3.471  0.4883E-04  0.4860E-04  0.3530E-05  0.3513E-05
     -3.406  0.2291E-03  0.2280E-03  0.1855E-04  0.1847E-04
     -3.340  0.8429E-03  0.8389E-03  0.7384E-04  0.7349E-04
     -3.275  0.3090E-02  0.3075E-02  0.2765E-03  0.2752E-03
     -3.209  0.1109E-01  0.1104E-01  0.1004E-02  0.9995E-03
     -3.143  0.3637E-01  0.3622E-01  0.3389E-02  0.3375E-02
     -3.078  0.9857E-01  0.9826E-01  0.9854E-02  0.9820E-02
     -3.012  0.1983E+00  0.1980E+00  0.2286E-01  0.2280E-01
     -2.947  0.2907E+00  0.2904E+00  0.4193E-01  0.4185E-01
     -2.881  0.3650E+00  0.3647E+00  0.6587E-01  0.6577E-01
     -2.816  0.4717E+00  0.4713E+00  0.9681E-01  0.9669E-01
     -2.750  0.5397E+00  0.5396E+00  0.1322E+00  0.1321E+00
     -2.684  0.5136E+00  0.5137E+00  0.1659E+00  0.1658E+00
     -2.619  0.5713E+00  0.5708E+00  0.2034E+00  0.2032E+00
     -2.553  0.7070E+00  0.7067E+00  0.2498E+00  0.2496E+00
     -2.488  0.7378E+00  0.7379E+00  0.2982E+00  0.2980E+00
     -2.422  0.7181E+00  0.7181E+00  0.3453E+00  0.3451E+00
     -2.356  0.7710E+00  0.7707E+00  0.3959E+00  0.3957E+00
     -2.291  0.8305E+00  0.8304E+00  0.4504E+00  0.4502E+00
     -2.225  0.7980E+00  0.7981E+00  0.5027E+00  0.5026E+00
     -2.160  0.8399E+00  0.8395E+00  0.5579E+00  0.5577E+00
     -2.094  0.9738E+00  0.9734E+00  0.6218E+00  0.6216E+00
     -2.028  0.1050E+01  0.1050E+01  0.6907E+00  0.6905E+00
     -1.963  0.1062E+01  0.1062E+01  0.7604E+00  0.7602E+00
     -1.897  0.9986E+00  0.9989E+00  0.8260E+00  0.8257E+00
     -1.832  0.9516E+00  0.9517E+00  0.8884E+00  0.8882E+00
     -1.766  0.9971E+00  0.9967E+00  0.9538E+00  0.9536E+00
     -1.700  0.1150E+01  0.1149E+01  0.1029E+01  0.1029E+01
     -1.635  0.1294E+01  0.1293E+01  0.1114E+01  0.1114E+01
     -1.569  0.1340E+01  0.1340E+01  0.1202E+01  0.1202E+01
     -1.504  0.1357E+01  0.1357E+01  0.1291E+01  0.1291E+01
     -1.438  0.1293E+01  0.1294E+01  0.1376E+01  0.1376E+01
     -1.373  0.1190E+01  0.1190E+01  0.1454E+01  0.1454E+01
     -1.307  0.1265E+01  0.1264E+01  0.1537E+01  0.1537E+01
     -1.241  0.1546E+01  0.1545E+01  0.1639E+01  0.1638E+01
     -1.176  0.1775E+01  0.1775E+01  0.1755E+01  0.1755E+01
     -1.110  0.1777E+01  0.1777E+01  0.1872E+01  0.1871E+01
     -1.045  0.1671E+01  0.1672E+01  0.1981E+01  0.1981E+01
     -0.979  0.1428E+01  0.1429E+01  0.2075E+01  0.2075E+01
     -0.913  0.1234E+01  0.1235E+01  0.2156E+01  0.2156E+01
     -0.848  0.1286E+01  0.1285E+01  0.2240E+01  0.2240E+01
     -0.782  0.1476E+01  0.1475E+01  0.2337E+01  0.2337E+01
     -0.717  0.1501E+01  0.1501E+01  0.2436E+01  0.2436E+01
     -0.651  0.1330E+01  0.1330E+01  0.2523E+01  0.2523E+01
     -0.585  0.1175E+01  0.1175E+01  0.2600E+01  0.2600E+01
     -0.520  0.1007E+01  0.1008E+01  0.2666E+01  0.2666E+01
     -0.454  0.1002E+01  0.1002E+01  0.2732E+01  0.2732E+01
     -0.389  0.1237E+01  0.1237E+01  0.2813E+01  0.2813E+01
     -0.323  0.1432E+01  0.1432E+01  0.2907E+01  0.2907E+01
     -0.258  0.1429E+01  0.1429E+01  0.3001E+01  0.3001E+01
     -0.192  0.1268E+01  0.1269E+01  0.3084E+01  0.3084E+01
     -0.126  0.1041E+01  0.1042E+01  0.3153E+01  0.3152E+01
     -0.061  0.8624E+00  0.8626E+00  0.3209E+01  0.3209E+01
      0.005  0.8999E+00  0.8993E+00  0.3268E+01  0.3268E+01
      0.070  0.1119E+01  0.1118E+01  0.3342E+01  0.3342E+01
      0.136  0.1189E+01  0.1189E+01  0.3420E+01  0.3420E+01
      0.202  0.1115E+01  0.1115E+01  0.3493E+01  0.3493E+01
      0.267  0.1073E+01  0.1073E+01  0.3564E+01  0.3563E+01
      0.333  0.1086E+01  0.1085E+01  0.3635E+01  0.3634E+01
      0.398  0.1122E+01  0.1121E+01  0.3708E+01  0.3708E+01
      0.464  0.1289E+01  0.1289E+01  0.3793E+01  0.3793E+01
      0.530  0.1473E+01  0.1473E+01  0.3890E+01  0.3889E+01
      0.595  0.1621E+01  0.1621E+01  0.3996E+01  0.3996E+01
      0.661  0.1745E+01  0.1744E+01  0.4111E+01  0.4110E+01
      0.726  0.1924E+01  0.1923E+01  0.4237E+01  0.4236E+01
      0.792  0.2140E+01  0.2139E+01  0.4377E+01  0.4377E+01
      0.858  0.2247E+01  0.2247E+01  0.4525E+01  0.4524E+01
      0.923  0.2088E+01  0.2089E+01  0.4662E+01  0.4661E+01
      0.989  0.1968E+01  0.1968E+01  0.4791E+01  0.4790E+01
      1.054  0.1767E+01  0.1768E+01  0.4907E+01  0.4906E+01
      1.120  0.1472E+01  0.1473E+01  0.5003E+01  0.5003E+01
      1.185  0.1465E+01  0.1465E+01  0.5100E+01  0.5099E+01
      1.251  0.1585E+01  0.1585E+01  0.5204E+01  0.5203E+01
      1.317  0.1547E+01  0.1547E+01  0.5305E+01  0.5305E+01
      1.382  0.1665E+01  0.1664E+01  0.5415E+01  0.5414E+01
      1.448  0.2080E+01  0.2078E+01  0.5551E+01  0.5550E+01
      1.513  0.2343E+01  0.2343E+01  0.5705E+01  0.5704E+01
      1.579  0.2159E+01  0.2160E+01  0.5846E+01  0.5846E+01
      1.645  0.1966E+01  0.1967E+01  0.5976E+01  0.5975E+01
      1.710  0.1838E+01  0.1839E+01  0.6096E+01  0.6096E+01
      1.776  0.1493E+01  0.1494E+01  0.6194E+01  0.6194E+01
      1.841  0.1219E+01  0.1219E+01  0.6274E+01  0.6274E+01
      1.907  0.1163E+01  0.1163E+01  0.6351E+01  0.6350E+01
      1.973  0.1306E+01  0.1306E+01  0.6436E+01  0.6436E+01
      2.038  0.1503E+01  0.1502E+01  0.6535E+01  0.6535E+01
      2.104  0.1660E+01  0.1659E+01  0.6644E+01  0.6644E+01
      2.169  0.1671E+01  0.1671E+01  0.6754E+01  0.6753E+01
      2.235  0.1639E+01  0.1639E+01  0.6861E+01  0.6861E+01
      2.300  0.1836E+01  0.1834E+01  0.6982E+01  0.6981E+01
      2.366  0.2137E+01  0.2136E+01  0.7122E+01  0.7121E+01
      2.432  0.2281E+01  0.2281E+01  0.7272E+01  0.7271E+01
      2.497  0.2217E+01  0.2217E+01  0.7417E+01  0.7416E+01
      2.563  0.2180E+01  0.2180E+01  0.7560E+01  0.7559E+01
      2.628  0.2294E+01  0.2294E+01  0.7711E+01  0.7710E+01
      2.694  0.2286E+01  0.2286E+01  0.7861E+01  0.7860E+01
      2.760  0.2274E+01  0.2274E+01  0.8010E+01  0.8009E+01
      2.825  0.2171E+01  0.2172E+01  0.8152E+01  0.8152E+01
      2.891  0.1978E+01  0.1979E+01  0.8282E+01  0.8282E+01
      2.956  0.1964E+01  0.1963E+01  0.8411E+01  0.8411E+01
      3.022  0.2042E+01  0.2041E+01  0.8545E+01  0.8545E+01
      3.088  0.2255E+01  0.2254E+01  0.8693E+01  0.8693E+01
      3.153  0.2447E+01  0.2447E+01  0.8854E+01  0.8853E+01
      3.219  0.2343E+01  0.2344E+01  0.9008E+01  0.9007E+01
      3.284  0.2008E+01  0.2009E+01  0.9139E+01  0.9139E+01
      3.350  0.1855E+01  0.1855E+01  0.9261E+01  0.9261E+01
      3.416  0.1869E+01  0.1870E+01  0.9384E+01  0.9383E+01
      3.481  0.1723E+01  0.1724E+01  0.9497E+01  0.9497E+01
      3.547  0.1730E+01  0.1729E+01  0.9611E+01  0.9610E+01
      3.612  0.1949E+01  0.1947E+01  0.9738E+01  0.9738E+01
      3.678  0.2408E+01  0.2406E+01  0.9897E+01  0.9896E+01
      3.743  0.2743E+01  0.2742E+01  0.1008E+02  0.1008E+02
      3.809  0.2637E+01  0.2637E+01  0.1025E+02  0.1025E+02
      3.875  0.2483E+01  0.2484E+01  0.1041E+02  0.1041E+02
      3.940  0.2509E+01  0.2509E+01  0.1058E+02  0.1058E+02
      4.006  0.2824E+01  0.2823E+01  0.1076E+02  0.1076E+02
      4.071  0.2855E+01  0.2856E+01  0.1095E+02  0.1095E+02
      4.137  0.2541E+01  0.2542E+01  0.1112E+02  0.1112E+02
      4.203  0.2338E+01  0.2338E+01  0.1127E+02  0.1127E+02
      4.268  0.2405E+01  0.2404E+01  0.1143E+02  0.1143E+02
      4.334  0.2624E+01  0.2623E+01  0.1160E+02  0.1160E+02
      4.399  0.2716E+01  0.2716E+01  0.1178E+02  0.1178E+02
      4.465  0.2618E+01  0.2620E+01  0.1195E+02  0.1195E+02
      4.531  0.2350E+01  0.2351E+01  0.1210E+02  0.1210E+02
      4.596  0.2225E+01  0.2225E+01  0.1225E+02  0.1225E+02
      4.662  0.2340E+01  0.2340E+01  0.1240E+02  0.1240E+02
      4.727  0.2517E+01  0.2516E+01  0.1257E+02  0.1257E+02
      4.793  0.2546E+01  0.2547E+01  0.1274E+02  0.1274E+02
      4.859  0.2227E+01  0.2229E+01  0.1288E+02  0.1288E+02
      4.924  0.1875E+01  0.1876E+01  0.1301E+02  0.1301E+02
      4.990  0.1893E+01  0.1892E+01  0.1313E+02  0.1313E+02
      5.055  0.2302E+01  0.2299E+01  0.1328E+02  0.1328E+02
      5.121  0.3075E+01  0.3072E+01  0.1348E+02  0.1348E+02
      5.186  0.3638E+01  0.3637E+01  0.1372E+02  0.1372E+02
      5.252  0.3418E+01  0.3421E+01  0.1395E+02  0.1395E+02
      5.318  0.2821E+01  0.2824E+01  0.1413E+02  0.1413E+02
      5.383  0.2487E+01  0.2488E+01  0.1429E+02  0.1429E+02
      5.449  0.2385E+01  0.2385E+01  0.1445E+02  0.1445E+02
      5.514  0.2448E+01  0.2447E+01  0.1461E+02  0.1461E+02
      5.580  0.2584E+01  0.2584E+01  0.1478E+02  0.1478E+02
      5.646  0.2584E+01  0.2584E+01  0.1495E+02  0.1495E+02
      5.711  0.2469E+01  0.2469E+01  0.1511E+02  0.1511E+02
      5.777  0.2519E+01  0.2518E+01  0.1528E+02  0.1528E+02
      5.842  0.2675E+01  0.2675E+01  0.1545E+02  0.1545E+02
      5.908  0.2717E+01  0.2717E+01  0.1563E+02  0.1563E+02
      5.974  0.2734E+01  0.2734E+01  0.1581E+02  0.1581E+02
      6.039  0.2805E+01  0.2805E+01  0.1600E+02  0.1599E+02
      6.105  0.2726E+01  0.2727E+01  0.1617E+02  0.1617E+02
      6.170  0.2419E+01  0.2421E+01  0.1633E+02  0.1633E+02
      6.236  0.2203E+01  0.2204E+01  0.1648E+02  0.1648E+02
      6.301  0.2174E+01  0.2174E+01  0.1662E+02  0.1662E+02
      6.367  0.2341E+01  0.2340E+01  0.1677E+02  0.1677E+02
      6.433  0.2618E+01  0.2617E+01  0.1695E+02  0.1695E+02
      6.498  0.2748E+01  0.2749E+01  0.1713E+02  0.1713E+02
      6.564  0.2468E+01  0.2470E+01  0.1729E+02  0.1729E+02
      6.629  0.2092E+01  0.2092E+01  0.1743E+02  0.1743E+02
      6.695  0.2095E+01  0.2094E+01  0.1756E+02  0.1756E+02
      6.761  0.2130E+01  0.2130E+01  0.1770E+02  0.1770E+02
      6.826  0.2092E+01  0.2092E+01  0.1784E+02  0.1784E+02
      6.892  0.2276E+01  0.2275E+01  0.1799E+02  0.1799E+02
      6.957  0.2594E+01  0.2593E+01  0.1816E+02  0.1816E+02
      7.023  0.2868E+01  0.2867E+01  0.1835E+02  0.1835E+02
      7.089  0.2807E+01  0.2808E+01  0.1853E+02  0.1853E+02
      7.154  0.2367E+01  0.2369E+01  0.1869E+02  0.1869E+02
      7.220  0.2020E+01  0.2021E+01  0.1882E+02  0.1882E+02
      7.285  0.1934E+01  0.1934E+01  0.1895E+02  0.1895E+02
      7.351  0.2101E+01  0.2100E+01  0.1909E+02  0.1908E+02
      7.417  0.2526E+01  0.2524E+01  0.1925E+02  0.1925E+02
      7.482  0.2816E+01  0.2816E+01  0.1944E+02  0.1944E+02
      7.548  0.2890E+01  0.2890E+01  0.1963E+02  0.1962E+02
      7.613  0.2754E+01  0.2754E+01  0.1981E+02  0.1981E+02
      7.679  0.2562E+01  0.2561E+01  0.1997E+02  0.1997E+02
      7.744  0.2617E+01  0.2616E+01  0.2015E+02  0.2015E+02
      7.810  0.2765E+01  0.2764E+01  0.2033E+02  0.2033E+02
      7.876  0.2826E+01  0.2825E+01  0.2051E+02  0.2051E+02
      7.941  0.2742E+01  0.2742E+01  0.2069E+02  0.2069E+02
      8.007  0.2818E+01  0.2817E+01  0.2088E+02  0.2088E+02
      8.072  0.2979E+01  0.2978E+01  0.2107E+02  0.2107E+02
      8.138  0.2972E+01  0.2973E+01  0.2127E+02  0.2127E+02
      8.204  0.2720E+01  0.2722E+01  0.2145E+02  0.2145E+02
      8.269  0.2444E+01  0.2445E+01  0.2161E+02  0.2161E+02
      8.335  0.2469E+01  0.2468E+01  0.2177E+02  0.2177E+02
      8.400  0.2735E+01  0.2733E+01  0.2195E+02  0.2195E+02
      8.466  0.2804E+01  0.2804E+01  0.2213E+02  0.2213E+02
      8.532  0.2707E+01  0.2707E+01  0.2231E+02  0.2231E+02
      8.597  0.2871E+01  0.2870E+01  0.2250E+02  0.2250E+02
      8.663  0.3294E+01  0.3293E+01  0.2272E+02  0.2271E+02
      8.728  0.3465E+01  0.3465E+01  0.2294E+02  0.2294E+02
      8.794  0.3215E+01  0.3216E+01  0.2315E+02  0.2315E+02
      8.859  0.2831E+01  0.2833E+01  0.2334E+02  0.2334E+02
      8.925  0.2517E+01  0.2518E+01  0.2350E+02  0.2350E+02
      8.991  0.2539E+01  0.2539E+01  0.2367E+02  0.2367E+02
      9.056  0.2753E+01  0.2752E+01  0.2385E+02  0.2385E+02
      9.122  0.2684E+01  0.2685E+01  0.2403E+02  0.2403E+02
      9.187  0.2422E+01  0.2423E+01  0.2419E+02  0.2419E+02
      9.253  0.2191E+01  0.2191E+01  0.2433E+02  0.2433E+02
      9.319  0.2122E+01  0.2121E+01  0.2447E+02  0.2447E+02
      9.384  0.2271E+01  0.2270E+01  0.2462E+02  0.2462E+02
      9.450  0.2589E+01  0.2588E+01  0.2479E+02  0.2479E+02
      9.515  0.2765E+01  0.2765E+01  0.2497E+02  0.2497E+02
      9.581  0.2779E+01  0.2779E+01  0.2515E+02  0.2515E+02
      9.647  0.2750E+01  0.2750E+01  0.2533E+02  0.2533E+02
      9.712  0.2929E+01  0.2928E+01  0.2553E+02  0.2553E+02
      9.778  0.3359E+01  0.3357E+01  0.2575E+02  0.2575E+02
      9.843  0.3886E+01  0.3884E+01  0.2600E+02  0.2600E+02
      9.909  0.4094E+01  0.4094E+01  0.2627E+02  0.2627E+02
      9.975  0.3860E+01  0.3861E+01  0.2652E+02  0.2652E+02
     10.040  0.3550E+01  0.3551E+01  0.2676E+02  0.2676E+02
     10.106  0.3268E+01  0.3269E+01  0.2697E+02  0.2697E+02
     10.171  0.2951E+01  0.2952E+01  0.2716E+02  0.2716E+02
     10.237  0.2732E+01  0.2732E+01  0.2734E+02  0.2734E+02
     10.302  0.2801E+01  0.2800E+01  0.2753E+02  0.2753E+02
     10.368  0.3129E+01  0.3128E+01  0.2773E+02  0.2773E+02
     10.434  0.3312E+01  0.3311E+01  0.2795E+02  0.2795E+02
     10.499  0.3333E+01  0.3333E+01  0.2817E+02  0.2817E+02
     10.565  0.3308E+01  0.3308E+01  0.2839E+02  0.2839E+02
     10.630  0.3147E+01  0.3148E+01  0.2859E+02  0.2859E+02
     10.696  0.2808E+01  0.2810E+01  0.2878E+02  0.2878E+02
     10.762  0.2949E+01  0.2947E+01  0.2897E+02  0.2897E+02
     10.827  0.3496E+01  0.3495E+01  0.2920E+02  0.2920E+02
     10.893  0.3650E+01  0.3650E+01  0.2944E+02  0.2944E+02
     10.958  0.3447E+01  0.3448E+01  0.2967E+02  0.2967E+02
     11.024  0.3249E+01  0.3250E+01  0.2988E+02  0.2988E+02
     11.090  0.3040E+01  0.3041E+01  0.3008E+02  0.3008E+02
     11.155  0.3002E+01  0.3001E+01  0.3028E+02  0.3028E+02
     11.221  0.3056E+01  0.3057E+01  0.3048E+02  0.3048E+02
     11.286  0.2768E+01  0.2771E+01  0.3066E+02  0.3066E+02
     11.352  0.2580E+01  0.2580E+01  0.3083E+02  0.3083E+02
     11.417  0.2855E+01  0.2854E+01  0.3102E+02  0.3101E+02
     11.483  0.3127E+01  0.3126E+01  0.3122E+02  0.3122E+02
     11.549  0.3345E+01  0.3344E+01  0.3144E+02  0.3144E+02
     11.614  0.3452E+01  0.3453E+01  0.3167E+02  0.3167E+02
     11.680  0.3327E+01  0.3330E+01  0.3188E+02  0.3188E+02
     11.745  0.3171E+01  0.3173E+01  0.3209E+02  0.3209E+02
     11.811  0.3061E+01  0.3061E+01  0.3229E+02  0.3229E+02
     11.877  0.3128E+01  0.3131E+01  0.3250E+02  0.3250E+02
     11.942  0.3231E+01  0.3246E+01  0.3271E+02  0.3271E+02
     12.008  0.3213E+01  0.3254E+01  0.3292E+02  0.3293E+02
     12.073  0.3120E+01  0.3194E+01  0.3313E+02  0.3314E+02
     12.139  0.3108E+01  0.3181E+01  0.3333E+02  0.3334E+02
     12.205  0.3081E+01  0.3050E+01  0.3353E+02  0.3354E+02
     12.270  0.2977E+01  0.2882E+01  0.3373E+02  0.3373E+02
     12.336  0.3047E+01  0.2994E+01  0.3393E+02  0.3393E+02
     12.401  0.2899E+01  0.2881E+01  0.3412E+02  0.3412E+02
     12.467  0.2450E+01  0.2446E+01  0.3428E+02  0.3428E+02
     12.533  0.2115E+01  0.2135E+01  0.3442E+02  0.3442E+02
     12.598  0.1938E+01  0.1960E+01  0.3455E+02  0.3455E+02
     12.664  0.1773E+01  0.1760E+01  0.3466E+02  0.3466E+02
     12.729  0.1775E+01  0.1766E+01  0.3478E+02  0.3478E+02
     12.795  0.1923E+01  0.1934E+01  0.3491E+02  0.3491E+02
     12.860  0.1927E+01  0.1939E+01  0.3503E+02  0.3503E+02
     12.926  0.1696E+01  0.1688E+01  0.3514E+02  0.3515E+02
     12.992  0.1417E+01  0.1386E+01  0.3524E+02  0.3524E+02
     13.057  0.1063E+01  0.1043E+01  0.3531E+02  0.3530E+02
     13.123  0.7493E+00  0.7508E+00  0.3535E+02  0.3535E+02
     13.188  0.6781E+00  0.6909E+00  0.3540E+02  0.3540E+02
     13.254  0.7787E+00  0.7707E+00  0.3545E+02  0.3545E+02
     13.320  0.8404E+00  0.8019E+00  0.3551E+02  0.3550E+02
     13.385  0.7864E+00  0.7432E+00  0.3556E+02  0.3555E+02
     13.451  0.6361E+00  0.6365E+00  0.3560E+02  0.3559E+02
     13.516  0.6436E+00  0.6485E+00  0.3564E+02  0.3564E+02
     13.582  0.7403E+00  0.6944E+00  0.3569E+02  0.3568E+02
     13.648  0.7519E+00  0.6925E+00  0.3574E+02  0.3573E+02
     13.713  0.6246E+00  0.5858E+00  0.3578E+02  0.3577E+02
     13.779  0.4083E+00  0.3979E+00  0.3581E+02  0.3579E+02
     13.844  0.2553E+00  0.2699E+00  0.3582E+02  0.3581E+02
     13.910  0.2068E+00  0.2476E+00  0.3584E+02  0.3583E+02
     13.975  0.2386E+00  0.3102E+00  0.3585E+02  0.3585E+02
     14.041  0.3466E+00  0.4111E+00  0.3588E+02  0.3587E+02
     14.107  0.4571E+00  0.4884E+00  0.3591E+02  0.3590E+02
     14.172  0.4009E+00  0.4165E+00  0.3593E+02  0.3593E+02
     14.238  0.2746E+00  0.2835E+00  0.3595E+02  0.3595E+02
     14.303  0.2084E+00  0.2098E+00  0.3596E+02  0.3596E+02
     14.369  0.1217E+00  0.1189E+00  0.3597E+02  0.3597E+02
     14.435  0.4870E-01  0.4613E-01  0.3598E+02  0.3598E+02
     14.500  0.2407E-01  0.2027E-01  0.3598E+02  0.3598E+02
     14.566  0.3631E-01  0.2764E-01  0.3598E+02  0.3598E+02
     14.631  0.7131E-01  0.6124E-01  0.3598E+02  0.3598E+02
     14.697  0.8356E-01  0.8844E-01  0.3599E+02  0.3599E+02
     14.763  0.6677E-01  0.7846E-01  0.3599E+02  0.3599E+02
     14.828  0.5086E-01  0.5620E-01  0.3600E+02  0.3600E+02
     14.894  0.2759E-01  0.2865E-01  0.3600E+02  0.3600E+02
     14.959  0.9955E-02  0.1007E-01  0.3600E+02  0.3600E+02
     15.025  0.2941E-02  0.2951E-02  0.3600E+02  0.3600E+02
     15.091  0.7373E-03  0.7008E-03  0.3600E+02  0.3600E+02
     15.156  0.2001E-03  0.1902E-03  0.3600E+02  0.3600E+02
     15.222  0.0000E+00  0.0000E+00  0.3600E+02  0.3600E+02
     15.287  0.0000E+00  0.0000E+00  0.3600E+02  0.3600E+02
     15.353  0.0000E+00  0.0000E+00  0.3600E+02  0.3600E+02
     15.418  0.0000E+00  0.0000E+00  0.3600E+02  0.3600E+02
     15.484  0.0000E+00  0.0000E+00  0.3600E+02  0.3600E+02
     15.550  0.0000E+00  0.0000E+00  0.3600E+02  0.3600E+02
     15.615  0.0000E+00  0.0000E+00  0.3600E+02  0.3600E+02
     15.681  0.0000E+00  0.0000E+00  0.3600E+02  0.3600E+02
     15.68082528     -3.99612625  301      7.68900298      1.00000000
     -3.996  0.0000E+00  0.0000E+00  0.0000E+00  0.0000E+00  0.0000E+00  0.0000E+00  0.0000E+00  0.0000E+00  0.0000E+00  0.0000E+00  0.0000E+00  0.0000E+00  0.0000E+00  0.0000E+00  0.0000E+00  0.0000E+00  0.0000E+00  0.0000E+00
     -3.931  0.0000E+00  0.0000E+00  0.0000E+00  0.0000E+00  0.0000E+00  0.0000E+00  0.0000E+00  0.0000E+00  0.0000E+00  0.0000E+00  0.0000E+00  0.0000E+00  0.0000E+00  0.0000E+00  0.0000E+00  0.0000E+00  0.0000E+00  0.0000E+00
     -3.865  0.0000E+00  0.0000E+00  0.0000E+00  0.0000E+00  0.0000E+00  0.0000E+00  0.0000E+00  0.0000E+00  0.0000E+00  0.0000E+00  0.0000E+00  0.0000E+00  0.0000E+00  0.0000E+00  0.0000E+00  0.0000E+00  0.0000E+00  0.0000E+00
     -3.799  0.0000E+00  0.0000E+00  0.0000E+00  0.0000E+00  0.0000E+00  0.0000E+00  0.0000E+00  0.0000E+00  0.0000E+00  0.0000E+00  0.0000E+00  0.0000E+00  0.0000E+00  0.0000E+00  0.0000E+00  0.0000E+00  0.0000E+00  0.0000E+00
     -3.734  0.0000E+00  0.0000E+00  0.0000E+00  0.0000E+00  0.0000E+00  0.0000E+00  0.0000E+00  0.0000E+00  0.0000E+00  0.0000E+00  0.0000E+00  0.0000E+00  0.0000E+00  0.0000E+00  0.0000E+00  0.0000E+00  0.0000E+00  0.0000E+00
     -3.668  0.0000E+00  0.0000E+00  0.0000E+00  0.0000E+00  0.0000E+00  0.0000E+00  0.0000E+00  0.0000E+00  0.0000E+00  0.0000E+00  0.0000E+00  0.0000E+00  0.0000E+00  0.0000E+00  0.0000E+00  0.0000E+00  0.0000E+00  0.0000E+00
     -3.603  0.0000E+00  0.0000E+00  0.0000E+00  0.0000E+00  0.0000E+00  0.0000E+00  0.0000E+00  0.0000E+00  0.0000E+00  0.0000E+00  0.0000E+00  0.0000E+00  0.0000E+00  0.0000E+00  0.0000E+00  0.0000E+00  0.0000E+00  0.0000E+00
     -3.537  0.3817E-07  0.3794E-07  0.1503E-22  0.3366E-23  0.1094E-10  0.1097E-10  0.1503E-22  0.3366E-23  0.0000E+00  0.0000E+00  0.0000E+00  0.0000E+00  0.0000E+00  0.0000E+00  0.0000E+00  0.0000E+00  0.0000E+00  0.0000E+00
     -3.471  0.3701E-06  0.3679E-06  0.1325E-08  0.1319E-08  0.1557E-08  0.1551E-08  0.1325E-08  0.1319E-08  0.0000E+00  0.0000E+00  0.0000E+00  0.0000E+00  0.0000E+00  0.0000E+00  0.0000E+00  0.0000E+00  0.0000E+00  0.0000E+00
     -3.406  0.1725E-05  0.1715E-05  0.9628E-08  0.9583E-08  0.1160E-07  0.1155E-07  0.9628E-08  0.9583E-08  0.0000E+00  0.0000E+00  0.0000E+00  0.0000E+00  0.0000E+00  0.0000E+00  0.0000E+00  0.0000E+00  0.0000E+00  0.0000E+00
     -3.340  0.6338E-05  0.6300E-05  0.3930E-07  0.3912E-07  0.4468E-07  0.4449E-07  0.3930E-07  0.3912E-07  0.0000E+00  0.0000E+00  0.0000E+00  0.0000E+00  0.0000E+00  0.0000E+00  0.0000E+00  0.0000E+00  0.0000E+00  0.0000E+00
     -3.275  0.2322E-04  0.2308E-04  0.1501E-06  0.1494E-06  0.1671E-06  0.1664E-06  0.1501E-06  0.1494E-06  0.0000E+00  0.0000E+00  0.0000E+00  0.0000E+00  0.0000E+00  0.0000E+00  0.0000E+00  0.0000E+00  0.0000E+00  0.0000E+00
     -3.209  0.8329E-04  0.8280E-04  0.5547E-06  0.5522E-06  0.6440E-06  0.6413E-06  0.5547E-06  0.5522E-06  0.0000E+00  0.0000E+00  0.0000E+00  0.0000E+00  0.0000E+00  0.0000E+00  0.0000E+00  0.0000E+00  0.0000E+00  0.0000E+00
     -3.143  0.2726E-03  0.2712E-03  0.1932E-05  0.1924E-05  0.2266E-05  0.2257E-05  0.1932E-05  0.1924E-05  0.0000E+00  0.0000E+00  0.0000E+00  0.0000E+00  0.0000E+00  0.0000E+00  0.0000E+00  0.0000E+00  0.0000E+00  0.0000E+00
     -3.078  0.7364E-03  0.7331E-03  0.6053E-05  0.6030E-05  0.7116E-05  0.7092E-05  0.6053E-05  0.6030E-05  0.0000E+00  0.0000E+00  0.0000E+00  0.0000E+00  0.0000E+00  0.0000E+00  0.0000E+00  0.0000E+00  0.0000E+00  0.0000E+00
     -3.012  0.1472E-02  0.1467E-02  0.1521E-04  0.1517E-04  0.1787E-04  0.1783E-04  0.1521E-04  0.1517E-04  0.0000E+00  0.0000E+00  0.0000E+00  0.0000E+00  0.0000E+00  0.0000E+00  0.0000E+00  0.0000E+00  0.0000E+00  0.0000E+00
     -2.947  0.2135E-02  0.2130E-02  0.2998E-04  0.2992E-04  0.3385E-04  0.3380E-04  0.2998E-04  0.2992E-04  0.0000E+00  0.0000E+00  0.0000E+00  0.0000E+00  0.0000E+00  0.0000E+00  0.0000E+00  0.0000E+00  0.0000E+00  0.0000E+00
     -2.881  0.2636E-02  0.2630E-02  0.5240E-04  0.5231E-04  0.5691E-04  0.5681E-04  0.5240E-04  0.5231E-04  0.0000E+00  0.0000E+00  0.0000E+00  0.0000E+00  0.0000E+00  0.0000E+00  0.0000E+00  0.0000E+00  0.0000E+00  0.0000E+00
     -2.816  0.3349E-02  0.3342E-02  0.8427E-04  0.8415E-04  0.9747E-04  0.9733E-04  0.8427E-04  0.8415E-04  0.0000E+00  0.0000E+00  0.0000E+00  0.0000E+00  0.0000E+00  0.0000E+00  0.0000E+00  0.0000E+00  0.0000E+00  0.0000E+00
     -2.750  0.3779E-02  0.3774E-02  0.1091E-03  0.1090E-03  0.1365E-03  0.1365E-03  0.1091E-03  0.1090E-03  0.0000E+00  0.0000E+00  0.0000E+00  0.0000E+00  0.0000E+00  0.0000E+00  0.0000E+00  0.0000E+00  0.0000E+00  0.0000E+00
     -2.684  0.3531E-02  0.3527E-02  0.1262E-03  0.1261E-03  0.1492E-03  0.1492E-03  0.1262E-03  0.1261E-03  0.0000E+00  0.0000E+00  0.0000E+00  0.0000E+00  0.0000E+00  0.0000E+00  0.0000E+00  0.0000E+00  0.0000E+00  0.0000E+00
     -2.619  0.3829E-02  0.3822E-02  0.1785E-03  0.1782E-03  0.1853E-03  0.1851E-03  0.1785E-03  0.1782E-03  0.0000E+00  0.0000E+00  0.0000E+00  0.0000E+00  0.0000E+00  0.0000E+00  0.0000E+00  0.0000E+00  0.0000E+00  0.0000E+00
     -2.553  0.4649E-02  0.4641E-02  0.2492E-03  0.2490E-03  0.2582E-03  0.2580E-03  0.2492E-03  0.2490E-03  0.0000E+00  0.0000E+00  0.0000E+00  0.0000E+00  0.0000E+00  0.0000E+00  0.0000E+00  0.0000E+00  0.0000E+00  0.0000E+00
     -2.488  0.4764E-02  0.4759E-02  0.2745E-03  0.2745E-03  0.3212E-03  0.3211E-03  0.2745E-03  0.2745E-03  0.0000E+00  0.0000E+00  0.0000E+00  0.0000E+00  0.0000E+00  0.0000E+00  0.0000E+00  0.0000E+00  0.0000E+00  0.0000E+00
     -2.422  0.4536E-02  0.4531E-02  0.2849E-03  0.2848E-03  0.3713E-03  0.3711E-03  0.2849E-03  0.2848E-03  0.0000E+00  0.0000E+00  0.0000E+00  0.0000E+00  0.0000E+00  0.0000E+00  0.0000E+00  0.0000E+00  0.0000E+00  0.0000E+00
     -2.356  0.4765E-02  0.4758E-02  0.3435E-03  0.3433E-03  0.4243E-03  0.4241E-03  0.3435E-03  0.3433E-03  0.0000E+00  0.0000E+00  0.0000E+00  0.0000E+00  0.0000E+00  0.0000E+00  0.0000E+00  0.0000E+00  0.0000E+00  0.0000E+00
     -2.291  0.5029E-02  0.5023E-02  0.4049E-03  0.4048E-03  0.4828E-03  0.4827E-03  0.4049E-03  0.4048E-03  0.0000E+00  0.0000E+00  0.0000E+00  0.0000E+00  0.0000E+00  0.0000E+00  0.0000E+00  0.0000E+00  0.0000E+00  0.0000E+00
     -2.225  0.4712E-02  0.4708E-02  0.4392E-03  0.4390E-03  0.4740E-03  0.4741E-03  0.4392E-03  0.4390E-03  0.0000E+00  0.0000E+00  0.0000E+00  0.0000E+00  0.0000E+00  0.0000E+00  0.0000E+00  0.0000E+00  0.0000E+00  0.0000E+00
     -2.160  0.4806E-02  0.4799E-02  0.5353E-03  0.5348E-03  0.4922E-03  0.4919E-03  0.5353E-03  0.5348E-03  0.0000E+00  0.0000E+00  0.0000E+00  0.0000E+00  0.0000E+00  0.0000E+00  0.0000E+00  0.0000E+00  0.0000E+00  0.0000E+00
     -2.094  0.5420E-02  0.5413E-02  0.6331E-03  0.6329E-03  0.6751E-03  0.6743E-03  0.6331E-03  0.6329E-03  0.0000E+00  0.0000E+00  0.0000E+00  0.0000E+00  0.0000E+00  0.0000E+00  0.0000E+00  0.0000E+00  0.0000E+00  0.0000E+00
     -2.028  0.5692E-02  0.5687E-02  0.6722E-03  0.6720E-03  0.8757E-03  0.8753E-03  0.6722E-03  0.6720E-03  0.0000E+00  0.0000E+00  0.0000E+00  0.0000E+00  0.0000E+00  0.0000E+00  0.0000E+00  0.0000E+00  0.0000E+00  0.0000E+00
     -1.963  0.5621E-02  0.5618E-02  0.7129E-03  0.7127E-03  0.9374E-03  0.9373E-03  0.7129E-03  0.7127E-03  0.0000E+00  0.0000E+00  0.0000E+00  0.0000E+00  0.0000E+00  0.0000E+00  0.0000E+00  0.0000E+00  0.0000E+00  0.0000E+00
     -1.897  0.5146E-02  0.5144E-02  0.6926E-03  0.6927E-03  0.9532E-03  0.9530E-03  0.6926E-03  0.6927E-03  0.0000E+00  0.0000E+00  0.0000E+00  0.0000E+00  0.0000E+00  0.0000E+00  0.0000E+00  0.0000E+00  0.0000E+00  0.0000E+00
     -1.832  0.4742E-02  0.4739E-02  0.6933E-03  0.6929E-03  0.9767E-03  0.9767E-03  0.6933E-03  0.6929E-03  0.0000E+00  0.0000E+00  0.0000E+00  0.0000E+00  0.0000E+00  0.0000E+00  0.0000E+00  0.0000E+00  0.0000E+00  0.0000E+00
     -1.766  0.4783E-02  0.4779E-02  0.8755E-03  0.8744E-03  0.8881E-03  0.8883E-03  0.8755E-03  0.8744E-03  0.0000E+00  0.0000E+00  0.0000E+00  0.0000E+00  0.0000E+00  0.0000E+00  0.0000E+00  0.0000E+00  0.0000E+00  0.0000E+00
     -1.700  0.5272E-02  0.5266E-02  0.1132E-02  0.1132E-02  0.9803E-03  0.9792E-03  0.1132E-02  0.1132E-02  0.0000E+00  0.0000E+00  0.0000E+00  0.0000E+00  0.0000E+00  0.0000E+00  0.0000E+00  0.0000E+00  0.0000E+00  0.0000E+00
     -1.635  0.5644E-02  0.5640E-02  0.1226E-02  0.1225E-02  0.1406E-02  0.1404E-02  0.1226E-02  0.1225E-02  0.0000E+00  0.0000E+00  0.0000E+00  0.0000E+00  0.0000E+00  0.0000E+00  0.0000E+00  0.0000E+00  0.0000E+00  0.0000E+00
     -1.569  0.5565E-02  0.5561E-02  0.1219E-02  0.1219E-02  0.1757E-02  0.1757E-02  0.1219E-02  0.1219E-02  0.0000E+00  0.0000E+00  0.0000E+00  0.0000E+00  0.0000E+00  0.0000E+00  0.0000E+00  0.0000E+00  0.0000E+00  0.0000E+00
     -1.504  0.5434E-02  0.5431E-02  0.1315E-02  0.1314E-02  0.1774E-02  0.1774E-02  0.1315E-02  0.1314E-02  0.0000E+00  0.0000E+00  0.0000E+00  0.0000E+00  0.0000E+00  0.0000E+00  0.0000E+00  0.0000E+00  0.0000E+00  0.0000E+00
     -1.438  0.4952E-02  0.4951E-02  0.1267E-02  0.1267E-02  0.1825E-02  0.1824E-02  0.1267E-02  0.1267E-02  0.0000E+00  0.0000E+00  0.0000E+00  0.0000E+00  0.0000E+00  0.0000E+00  0.0000E+00  0.0000E+00  0.0000E+00  0.0000E+00
     -1.373  0.4154E-02  0.4153E-02  0.1147E-02  0.1147E-02  0.1981E-02  0.1981E-02  0.1147E-02  0.1147E-02  0.0000E+00  0.0000E+00  0.0000E+00  0.0000E+00  0.0000E+00  0.0000E+00  0.0000E+00  0.0000E+00  0.0000E+00  0.0000E+00
     -1.307  0.3995E-02  0.3991E-02  0.1449E-02  0.1447E-02  0.1958E-02  0.1958E-02  0.1449E-02  0.1447E-02  0.0000E+00  0.0000E+00  0.0000E+00  0.0000E+00  0.0000E+00  0.0000E+00  0.0000E+00  0.0000E+00  0.0000E+00  0.0000E+00
     -1.241  0.4586E-02  0.4581E-02  0.2032E-02  0.2030E-02  0.2103E-02  0.2102E-02  0.2032E-02  0.2030E-02  0.0000E+00  0.0000E+00  0.0000E+00  0.0000E+00  0.0000E+00  0.0000E+00  0.0000E+00  0.0000E+00  0.0000E+00  0.0000E+00
     -1.176  0.5020E-02  0.5016E-02  0.2364E-02  0.2364E-02  0.2523E-02  0.2521E-02  0.2364E-02  0.2364E-02  0.0000E+00  0.0000E+00  0.0000E+00  0.0000E+00  0.0000E+00  0.0000E+00  0.0000E+00  0.0000E+00  0.0000E+00  0.0000E+00
     -1.110  0.4619E-02  0.4618E-02  0.2372E-02  0.2372E-02  0.2768E-02  0.2768E-02  0.2372E-02  0.2372E-02  0.0000E+00  0.0000E+00  0.0000E+00  0.0000E+00  0.0000E+00  0.0000E+00  0.0000E+00  0.0000E+00  0.0000E+00  0.0000E+00
     -1.045  0.3947E-02  0.3947E-02  0.2416E-02  0.2416E-02  0.2495E-02  0.2496E-02  0.2416E-02  0.2416E-02  0.0000E+00  0.0000E+00  0.0000E+00  0.0000E+00  0.0000E+00  0.0000E+00  0.0000E+00  0.0000E+00  0.0000E+00  0.0000E+00
     -0.979  0.3173E-02  0.3174E-02  0.2217E-02  0.2218E-02  0.1963E-02  0.1964E-02  0.2217E-02  0.2218E-02  0.0000E+00  0.0000E+00  0.0000E+00  0.0000E+00  0.0000E+00  0.0000E+00  0.0000E+00  0.0000E+00  0.0000E+00  0.0000E+00
     -0.913  0.2586E-02  0.2585E-02  0.1894E-02  0.1894E-02  0.1828E-02  0.1827E-02  0.1894E-02  0.1894E-02  0.0000E+00  0.0000E+00  0.0000E+00  0.0000E+00  0.0000E+00  0.0000E+00  0.0000E+00  0.0000E+00  0.0000E+00  0.0000E+00
     -0.848  0.2674E-02  0.2671E-02  0.1915E-02  0.1914E-02  0.2017E-02  0.2016E-02  0.1915E-02  0.1914E-02  0.0000E+00  0.0000E+00  0.0000E+00  0.0000E+00  0.0000E+00  0.0000E+00  0.0000E+00  0.0000E+00  0.0000E+00  0.0000E+00
     -0.782  0.3138E-02  0.3134E-02  0.2138E-02  0.2137E-02  0.2391E-02  0.2390E-02  0.2138E-02  0.2137E-02  0.0000E+00  0.0000E+00  0.0000E+00  0.0000E+00  0.0000E+00  0.0000E+00  0.0000E+00  0.0000E+00  0.0000E+00  0.0000E+00
     -0.717  0.3234E-02  0.3233E-02  0.2123E-02  0.2124E-02  0.2512E-02  0.2512E-02  0.2123E-02  0.2124E-02  0.0000E+00  0.0000E+00  0.0000E+00  0.0000E+00  0.0000E+00  0.0000E+00  0.0000E+00  0.0000E+00  0.0000E+00  0.0000E+00