  16  16   1   0
  0.1789029E+02  0.4151174E-09  0.4151174E-09  0.1661099E-08  0.5000000E-15
  1.000000000000000E-004
  CAR 
 unknown system                          
     12.17647311     -4.64575139  301      5.49014893      1.00000000
     -4.646  0.0000E+00  0.0000E+00  0.0000E+00  0.0000E+00
     -4.590  0.0000E+00  0.0000E+00  0.0000E+00  0.0000E+00
     -4.534  0.0000E+00  0.0000E+00  0.0000E+00  0.0000E+00
     -4.478  0.0000E+00  0.0000E+00  0.0000E+00  0.0000E+00
     -4.421  0.0000E+00  0.0000E+00  0.0000E+00  0.0000E+00
     -4.365  0.0000E+00  0.0000E+00  0.0000E+00  0.0000E+00
     -4.309  0.6712E-05  0.6354E-05  0.3764E-06  0.3563E-06
     -4.253  0.6003E-04  0.5684E-04  0.3743E-05  0.3543E-05
     -4.197  0.2435E-03  0.2306E-03  0.1740E-04  0.1647E-04
     -4.141  0.7391E-03  0.6999E-03  0.5884E-04  0.5572E-04
     -4.085  0.2255E-02  0.2136E-02  0.1853E-03  0.1755E-03
     -4.029  0.6878E-02  0.6521E-02  0.5710E-03  0.5412E-03
     -3.973  0.2005E-01  0.1905E-01  0.1695E-02  0.1609E-02
     -3.917  0.5420E-01  0.5177E-01  0.4734E-02  0.4513E-02
     -3.861  0.1254E+00  0.1210E+00  0.1176E-01  0.1130E-01
     -3.805  0.2300E+00  0.2246E+00  0.2466E-01  0.2389E-01
     -3.749  0.3334E+00  0.3289E+00  0.4336E-01  0.4233E-01
     -3.692  0.4266E+00  0.4219E+00  0.6728E-01  0.6599E-01
     -3.636  0.5346E+00  0.5295E+00  0.9726E-01  0.9568E-01
     -3.580  0.6068E+00  0.6053E+00  0.1313E+00  0.1296E+00
     -3.524  0.6139E+00  0.6134E+00  0.1657E+00  0.1640E+00
     -3.468  0.6751E+00  0.6699E+00  0.2036E+00  0.2016E+00
     -3.412  0.7945E+00  0.7897E+00  0.2481E+00  0.2459E+00
     -3.356  0.8445E+00  0.8442E+00  0.2955E+00  0.2932E+00
     -3.300  0.8472E+00  0.8467E+00  0.3430E+00  0.3407E+00
     -3.244  0.8930E+00  0.8901E+00  0.3931E+00  0.3906E+00
     -3.188  0.9464E+00  0.9455E+00  0.4462E+00  0.4437E+00
     -3.132  0.9445E+00  0.9451E+00  0.4992E+00  0.4967E+00
     -3.076  0.9880E+00  0.9838E+00  0.5546E+00  0.5519E+00
     -3.020  0.1107E+01  0.1102E+01  0.6167E+00  0.6137E+00
     -2.964  0.1195E+01  0.1193E+01  0.6838E+00  0.6806E+00
     -2.907  0.1218E+01  0.1218E+01  0.7521E+00  0.7490E+00
     -2.851  0.1173E+01  0.1176E+01  0.8179E+00  0.8149E+00
     -2.795  0.1132E+01  0.1133E+01  0.8814E+00  0.8785E+00
     -2.739  0.1174E+01  0.1170E+01  0.9473E+00  0.9442E+00
     -2.683  0.1311E+01  0.1304E+01  0.1021E+01  0.1017E+01
     -2.627  0.1460E+01  0.1456E+01  0.1103E+01  0.1099E+01
     -2.571  0.1536E+01  0.1534E+01  0.1189E+01  0.1185E+01
     -2.515  0.1558E+01  0.1559E+01  0.1276E+01  0.1273E+01
     -2.459  0.1512E+01  0.1517E+01  0.1361E+01  0.1358E+01
     -2.403  0.1432E+01  0.1435E+01  0.1442E+01  0.1438E+01
     -2.347  0.1487E+01  0.1481E+01  0.1525E+01  0.1521E+01
     -2.291  0.1730E+01  0.1718E+01  0.1622E+01  0.1618E+01
     -2.235  0.1975E+01  0.1968E+01  0.1733E+01  0.1728E+01
     -2.178  0.2031E+01  0.2033E+01  0.1847E+01  0.1842E+01
     -2.122  0.1940E+01  0.1947E+01  0.1956E+01  0.1951E+01
     -2.066  0.1732E+01  0.1743E+01  0.2053E+01  0.2049E+01
     -2.010  0.1526E+01  0.1531E+01  0.2138E+01  0.2135E+01
     -1.954  0.1514E+01  0.1511E+01  0.2223E+01  0.2220E+01
     -1.898  0.1656E+01  0.1649E+01  0.2316E+01  0.2312E+01
     -1.842  0.1718E+01  0.1719E+01  0.2413E+01  0.2409E+01
     -1.786  0.1589E+01  0.1595E+01  0.2502E+01  0.2498E+01
     -1.730  0.1415E+01  0.1422E+01  0.2581E+01  0.2578E+01
     -1.674  0.1252E+01  0.1258E+01  0.2651E+01  0.2649E+01
     -1.618  0.1211E+01  0.1208E+01  0.2719E+01  0.2716E+01
     -1.562  0.1381E+01  0.1372E+01  0.2797E+01  0.2793E+01
     -1.506  0.1587E+01  0.1581E+01  0.2886E+01  0.2882E+01
     -1.450  0.1634E+01  0.1636E+01  0.2978E+01  0.2974E+01
     -1.393  0.1510E+01  0.1518E+01  0.3062E+01  0.3059E+01
     -1.337  0.1289E+01  0.1298E+01  0.3135E+01  0.3132E+01
     -1.281  0.1095E+01  0.1100E+01  0.3196E+01  0.3194E+01
     -1.225  0.1067E+01  0.1063E+01  0.3256E+01  0.3253E+01
     -1.169  0.1218E+01  0.1211E+01  0.3324E+01  0.3321E+01
     -1.113  0.1331E+01  0.1329E+01  0.3399E+01  0.3396E+01
     -1.057  0.1315E+01  0.1316E+01  0.3473E+01  0.3470E+01
     -1.001  0.1261E+01  0.1261E+01  0.3544E+01  0.3540E+01
     -0.945  0.1259E+01  0.1256E+01  0.3614E+01  0.3611E+01
     -0.889  0.1296E+01  0.1290E+01  0.3687E+01  0.3683E+01
     -0.833  0.1436E+01  0.1426E+01  0.3767E+01  0.3763E+01
     -0.777  0.1633E+01  0.1623E+01  0.3859E+01  0.3854E+01
     -0.721  0.1822E+01  0.1814E+01  0.3961E+01  0.3956E+01
     -0.664  0.1997E+01  0.1987E+01  0.4073E+01  0.4068E+01
     -0.608  0.2195E+01  0.2184E+01  0.4196E+01  0.4190E+01
     -0.552  0.2408E+01  0.2396E+01  0.4332E+01  0.4325E+01
     -0.496  0.2553E+01  0.2551E+01  0.4475E+01  0.4468E+01
     -0.440  0.2491E+01  0.2500E+01  0.4614E+01  0.4608E+01
     -0.384  0.2337E+01  0.2345E+01  0.4746E+01  0.4739E+01
     -0.328  0.2145E+01  0.2158E+01  0.4866E+01  0.4860E+01
     -0.272  0.1857E+01  0.1869E+01  0.4970E+01  0.4965E+01
     -0.216  0.1723E+01  0.1723E+01  0.5067E+01  0.5062E+01
     -0.160  0.1791E+01  0.1788E+01  0.5167E+01  0.5162E+01
     -0.104  0.1834E+01  0.1834E+01  0.5270E+01  0.5265E+01
     -0.048  0.1926E+01  0.1916E+01  0.5378E+01  0.5373E+01
      0.008  0.2243E+01  0.2224E+01  0.5504E+01  0.5497E+01
      0.064  0.2559E+01  0.2551E+01  0.5648E+01  0.5641E+01
      0.121  0.2550E+01  0.2558E+01  0.5791E+01  0.5784E+01
      0.177  0.2374E+01  0.2383E+01  0.5924E+01  0.5918E+01
      0.233  0.2224E+01  0.2235E+01  0.6049E+01  0.6043E+01
      0.289  0.1920E+01  0.1939E+01  0.6156E+01  0.6152E+01
      0.345  0.1547E+01  0.1561E+01  0.6243E+01  0.6239E+01
      0.401  0.1370E+01  0.1374E+01  0.6320E+01  0.6316E+01
      0.457  0.1406E+01  0.1402E+01  0.6399E+01  0.6395E+01
      0.513  0.1552E+01  0.1544E+01  0.6486E+01  0.6482E+01
      0.569  0.1702E+01  0.1693E+01  0.6582E+01  0.6577E+01
      0.625  0.1798E+01  0.1791E+01  0.6683E+01  0.6677E+01
      0.681  0.1801E+01  0.1799E+01  0.6784E+01  0.6778E+01
      0.737  0.1834E+01  0.1824E+01  0.6886E+01  0.6881E+01
      0.793  0.2100E+01  0.2079E+01  0.7004E+01  0.6997E+01
      0.850  0.2472E+01  0.2453E+01  0.7143E+01  0.7135E+01
      0.906  0.2664E+01  0.2659E+01  0.7292E+01  0.7284E+01
      0.962  0.2656E+01  0.2659E+01  0.7441E+01  0.7433E+01
      1.018  0.2628E+01  0.2629E+01  0.7589E+01  0.7581E+01
      1.074  0.2630E+01  0.2628E+01  0.7736E+01  0.7728E+01
      1.130  0.2573E+01  0.2576E+01  0.7881E+01  0.7873E+01
      1.186  0.2474E+01  0.2475E+01  0.8019E+01  0.8012E+01
      1.242  0.2427E+01  0.2427E+01  0.8156E+01  0.8148E+01
      1.298  0.2401E+01  0.2399E+01  0.8290E+01  0.8282E+01
      1.354  0.2499E+01  0.2494E+01  0.8431E+01  0.8422E+01
      1.410  0.2585E+01  0.2588E+01  0.8576E+01  0.8568E+01
      1.466  0.2530E+01  0.2539E+01  0.8718E+01  0.8710E+01
      1.522  0.2441E+01  0.2450E+01  0.8855E+01  0.8847E+01
      1.578  0.2391E+01  0.2397E+01  0.8989E+01  0.8982E+01
      1.635  0.2349E+01  0.2353E+01  0.9121E+01  0.9114E+01
      1.691  0.2310E+01  0.2313E+01  0.9250E+01  0.9244E+01
      1.747  0.2187E+01  0.2198E+01  0.9373E+01  0.9367E+01
      1.803  0.1950E+01  0.1960E+01  0.9482E+01  0.9477E+01
      1.859  0.1836E+01  0.1836E+01  0.9585E+01  0.9580E+01
      1.915  0.1905E+01  0.1898E+01  0.9692E+01  0.9687E+01
      1.971  0.2029E+01  0.2022E+01  0.9806E+01  0.9800E+01
      2.027  0.2030E+01  0.2029E+01  0.9920E+01  0.9914E+01
      2.083  0.1983E+01  0.1976E+01  0.1003E+02  0.1002E+02
      2.139  0.2165E+01  0.2140E+01  0.1015E+02  0.1014E+02
      2.195  0.2600E+01  0.2571E+01  0.1030E+02  0.1029E+02
      2.251  0.2889E+01  0.2882E+01  0.1046E+02  0.1045E+02
      2.307  0.2869E+01  0.2875E+01  0.1062E+02  0.1061E+02
      2.364  0.2781E+01  0.2785E+01  0.1078E+02  0.1077E+02
      2.420  0.2744E+01  0.2742E+01  0.1093E+02  0.1092E+02
      2.476  0.2908E+01  0.2892E+01  0.1109E+02  0.1108E+02
      2.532  0.3088E+01  0.3083E+01  0.1127E+02  0.1126E+02
      2.588  0.2969E+01  0.2982E+01  0.1143E+02  0.1142E+02
      2.644  0.2697E+01  0.2714E+01  0.1159E+02  0.1158E+02
      2.700  0.2489E+01  0.2496E+01  0.1173E+02  0.1172E+02
      2.756  0.2464E+01  0.2457E+01  0.1186E+02  0.1185E+02
      2.812  0.2602E+01  0.2587E+01  0.1201E+02  0.1200E+02
      2.868  0.2886E+01  0.2870E+01  0.1217E+02  0.1216E+02
      2.924  0.3123E+01  0.3118E+01  0.1235E+02  0.1234E+02
      2.980  0.3051E+01  0.3062E+01  0.1252E+02  0.1251E+02
      3.036  0.2822E+01  0.2832E+01  0.1268E+02  0.1267E+02
      3.092  0.2704E+01  0.2703E+01  0.1283E+02  0.1282E+02
      3.149  0.2734E+01  0.2728E+01  0.1298E+02  0.1297E+02
      3.205  0.2812E+01  0.2811E+01  0.1314E+02  0.1313E+02
      3.261  0.2935E+01  0.2933E+01  0.1330E+02  0.1329E+02
      3.317  0.3131E+01  0.3123E+01  0.1348E+02  0.1347E+02
      3.373  0.3282E+01  0.3274E+01  0.1366E+02  0.1365E+02
      3.429  0.3363E+01  0.3355E+01  0.1385E+02  0.1384E+02
      3.485  0.3398E+01  0.3397E+01  0.1404E+02  0.1403E+02
      3.541  0.3277E+01  0.3286E+01  0.1423E+02  0.1422E+02
      3.597  0.3253E+01  0.3249E+01  0.1441E+02  0.1440E+02
      3.653  0.3393E+01  0.3391E+01  0.1460E+02  0.1459E+02
      3.709  0.3266E+01  0.3285E+01  0.1478E+02  0.1477E+02
      3.765  0.3011E+01  0.3022E+01  0.1495E+02  0.1494E+02
      3.821  0.3008E+01  0.3002E+01  0.1512E+02  0.1511E+02
      3.878  0.3138E+01  0.3134E+01  0.1530E+02  0.1529E+02
      3.934  0.3221E+01  0.3221E+01  0.1548E+02  0.1547E+02
      3.990  0.3174E+01  0.3182E+01  0.1566E+02  0.1565E+02
      4.046  0.2973E+01  0.2984E+01  0.1582E+02  0.1581E+02
      4.102  0.2815E+01  0.2818E+01  0.1598E+02  0.1597E+02
      4.158  0.2761E+01  0.2758E+01  0.1614E+02  0.1613E+02
      4.214  0.2866E+01  0.2850E+01  0.1630E+02  0.1629E+02
      4.270  0.3256E+01  0.3229E+01  0.1648E+02  0.1647E+02
      4.326  0.3615E+01  0.3605E+01  0.1668E+02  0.1667E+02
      4.382  0.3593E+01  0.3611E+01  0.1688E+02  0.1687E+02
      4.438  0.3136E+01  0.3173E+01  0.1706E+02  0.1705E+02
      4.494  0.2633E+01  0.2655E+01  0.1721E+02  0.1720E+02
      4.550  0.2500E+01  0.2499E+01  0.1735E+02  0.1734E+02
      4.606  0.2575E+01  0.2575E+01  0.1749E+02  0.1748E+02
      4.663  0.2621E+01  0.2621E+01  0.1764E+02  0.1763E+02
      4.719  0.2708E+01  0.2700E+01  0.1779E+02  0.1778E+02
      4.775  0.2822E+01  0.2812E+01  0.1795E+02  0.1794E+02
      4.831  0.2946E+01  0.2934E+01  0.1811E+02  0.1810E+02
      4.887  0.3110E+01  0.3099E+01  0.1829E+02  0.1828E+02
      4.943  0.3112E+01  0.3117E+01  0.1846E+02  0.1845E+02
      4.999  0.2849E+01  0.2866E+01  0.1862E+02  0.1861E+02
      5.055  0.2543E+01  0.2559E+01  0.1877E+02  0.1876E+02
      5.111  0.2359E+01  0.2365E+01  0.1890E+02  0.1889E+02
      5.167  0.2415E+01  0.2401E+01  0.1903E+02  0.1903E+02
      5.223  0.2763E+01  0.2736E+01  0.1919E+02  0.1918E+02
      5.279  0.3199E+01  0.3179E+01  0.1937E+02  0.1936E+02
      5.335  0.3342E+01  0.3349E+01  0.1956E+02  0.1954E+02
      5.392  0.3051E+01  0.3072E+01  0.1973E+02  0.1972E+02
      5.448  0.2812E+01  0.2814E+01  0.1988E+02  0.1988E+02
      5.504  0.2829E+01  0.2823E+01  0.2004E+02  0.2003E+02
      5.560  0.2820E+01  0.2823E+01  0.2020E+02  0.2019E+02
      5.616  0.2779E+01  0.2780E+01  0.2036E+02  0.2035E+02
      5.672  0.2906E+01  0.2895E+01  0.2052E+02  0.2051E+02
      5.728  0.3120E+01  0.3105E+01  0.2070E+02  0.2068E+02
      5.784  0.3252E+01  0.3239E+01  0.2088E+02  0.2087E+02
      5.840  0.3278E+01  0.3269E+01  0.2106E+02  0.2105E+02
      5.896  0.3220E+01  0.3226E+01  0.2124E+02  0.2123E+02
      5.952  0.3056E+01  0.3073E+01  0.2141E+02  0.2140E+02
      6.008  0.3009E+01  0.3011E+01  0.2158E+02  0.2157E+02
      6.064  0.3119E+01  0.3113E+01  0.2176E+02  0.2175E+02
      6.120  0.3116E+01  0.3122E+01  0.2193E+02  0.2192E+02
      6.177  0.2959E+01  0.2968E+01  0.2210E+02  0.2209E+02
      6.233  0.2866E+01  0.2864E+01  0.2226E+02  0.2225E+02
      6.289  0.2953E+01  0.2937E+01  0.2243E+02  0.2241E+02
      6.345  0.3293E+01  0.3263E+01  0.2261E+02  0.2260E+02
      6.401  0.3752E+01  0.3727E+01  0.2282E+02  0.2281E+02
      6.457  0.3937E+01  0.3945E+01  0.2304E+02  0.2303E+02
      6.513  0.3737E+01  0.3764E+01  0.2325E+02  0.2324E+02
      6.569  0.3393E+01  0.3418E+01  0.2344E+02  0.2343E+02
      6.625  0.3087E+01  0.3101E+01  0.2361E+02  0.2360E+02
      6.681  0.2964E+01  0.2965E+01  0.2378E+02  0.2377E+02
      6.737  0.3056E+01  0.3046E+01  0.2395E+02  0.2394E+02
      6.793  0.3228E+01  0.3221E+01  0.2413E+02  0.2412E+02
      6.849  0.3267E+01  0.3268E+01  0.2432E+02  0.2431E+02
      6.906  0.3199E+01  0.3202E+01  0.2450E+02  0.2449E+02
      6.962  0.3195E+01  0.3191E+01  0.2468E+02  0.2466E+02
      7.018  0.3379E+01  0.3363E+01  0.2487E+02  0.2485E+02
      7.074  0.3595E+01  0.3581E+01  0.2507E+02  0.2505E+02
      7.130  0.3748E+01  0.3744E+01  0.2528E+02  0.2526E+02
      7.186  0.3742E+01  0.3756E+01  0.2549E+02  0.2547E+02
      7.242  0.3498E+01  0.3516E+01  0.2568E+02  0.2567E+02
      7.298  0.3318E+01  0.3319E+01  0.2587E+02  0.2586E+02
      7.354  0.3337E+01  0.3330E+01  0.2606E+02  0.2605E+02
      7.410  0.3350E+01  0.3350E+01  0.2625E+02  0.2623E+02
      7.466  0.3300E+01  0.3301E+01  0.2643E+02  0.2642E+02
      7.522  0.3510E+01  0.3490E+01  0.2663E+02  0.2661E+02
      7.578  0.3978E+01  0.3949E+01  0.2685E+02  0.2684E+02
      7.634  0.4214E+01  0.4201E+01  0.2709E+02  0.2707E+02
      7.691  0.4021E+01  0.4040E+01  0.2731E+02  0.2730E+02
      7.747  0.3560E+01  0.3596E+01  0.2751E+02  0.2750E+02
      7.803  0.3195E+01  0.3211E+01  0.2769E+02  0.2768E+02
      7.859  0.3224E+01  0.3200E+01  0.2787E+02  0.2786E+02
      7.915  0.3618E+01  0.3580E+01  0.2808E+02  0.2806E+02
      7.971  0.3865E+01  0.3859E+01  0.2829E+02  0.2828E+02
      8.027  0.3662E+01  0.3690E+01  0.2850E+02  0.2848E+02
      8.083  0.3334E+01  0.3356E+01  0.2868E+02  0.2867E+02
      8.139  0.3448E+01  0.3431E+01  0.2888E+02  0.2886E+02
      8.195  0.3973E+01  0.3937E+01  0.2910E+02  0.2909E+02
      8.251  0.4372E+01  0.4356E+01  0.2935E+02  0.2933E+02
      8.307  0.4235E+01  0.4254E+01  0.2958E+02  0.2957E+02
      8.363  0.3773E+01  0.3800E+01  0.2980E+02  0.2978E+02
      8.420  0.3411E+01  0.3426E+01  0.2999E+02  0.2997E+02
      8.476  0.3279E+01  0.3280E+01  0.3017E+02  0.3016E+02
      8.532  0.3366E+01  0.3354E+01  0.3036E+02  0.3035E+02
      8.588  0.3631E+01  0.3614E+01  0.3056E+02  0.3055E+02
      8.644  0.3971E+01  0.3956E+01  0.3079E+02  0.3077E+02
      8.700  0.4108E+01  0.4113E+01  0.3102E+02  0.3100E+02
      8.756  0.3865E+01  0.3885E+01  0.3123E+02  0.3122E+02
      8.812  0.3600E+01  0.3609E+01  0.3144E+02  0.3142E+02
      8.868  0.3751E+01  0.3736E+01  0.3165E+02  0.3163E+02
      8.924  0.4190E+01  0.4179E+01  0.3188E+02  0.3187E+02
      8.980  0.4398E+01  0.4414E+01  0.3213E+02  0.3211E+02
      9.036  0.4161E+01  0.4216E+01  0.3236E+02  0.3235E+02
      9.092  0.3635E+01  0.3708E+01  0.3257E+02  0.3256E+02
      9.148  0.3392E+01  0.3414E+01  0.3276E+02  0.3275E+02
      9.205  0.3674E+01  0.3645E+01  0.3296E+02  0.3295E+02
      9.261  0.4094E+01  0.4081E+01  0.3319E+02  0.3318E+02
      9.317  0.4236E+01  0.4263E+01  0.3343E+02  0.3342E+02
      9.373  0.3938E+01  0.3994E+01  0.3365E+02  0.3365E+02
      9.429  0.3488E+01  0.3541E+01  0.3385E+02  0.3385E+02
      9.485  0.3176E+01  0.3201E+01  0.3402E+02  0.3403E+02
      9.541  0.2935E+01  0.2917E+01  0.3419E+02  0.3419E+02
      9.597  0.2838E+01  0.2799E+01  0.3435E+02  0.3435E+02
      9.653  0.2772E+01  0.2762E+01  0.3450E+02  0.3450E+02
      9.709  0.2537E+01  0.2577E+01  0.3465E+02  0.3465E+02
      9.765  0.2203E+01  0.2266E+01  0.3477E+02  0.3477E+02
      9.821  0.1896E+01  0.1938E+01  0.3488E+02  0.3488E+02
      9.877  0.1739E+01  0.1731E+01  0.3497E+02  0.3498E+02
      9.934  0.1702E+01  0.1674E+01  0.3507E+02  0.3507E+02
      9.990  0.1663E+01  0.1633E+01  0.3516E+02  0.3516E+02
     10.046  0.1524E+01  0.1508E+01  0.3525E+02  0.3525E+02
     10.102  0.1259E+01  0.1267E+01  0.3532E+02  0.3532E+02
     10.158  0.1091E+01  0.1087E+01  0.3538E+02  0.3538E+02
     10.214  0.1116E+01  0.1099E+01  0.3544E+02  0.3544E+02
     10.270  0.1135E+01  0.1133E+01  0.3551E+02  0.3551E+02
     10.326  0.1060E+01  0.1058E+01  0.3557E+02  0.3557E+02
     10.382  0.9904E+00  0.9803E+00  0.3562E+02  0.3562E+02
     10.438  0.8183E+00  0.8158E+00  0.3567E+02  0.3567E+02
     10.494  0.5357E+00  0.5392E+00  0.3570E+02  0.3570E+02
     10.550  0.3394E+00  0.3434E+00  0.3572E+02  0.3572E+02
     10.606  0.3056E+00  0.3113E+00  0.3573E+02  0.3573E+02
     10.662  0.4301E+00  0.4409E+00  0.3576E+02  0.3576E+02
     10.719  0.5874E+00  0.6052E+00  0.3579E+02  0.3579E+02
     10.775  0.5766E+00  0.5821E+00  0.3582E+02  0.3583E+02
     10.831  0.4673E+00  0.4448E+00  0.3585E+02  0.3585E+02
     10.887  0.3886E+00  0.3595E+00  0.3587E+02  0.3587E+02
     10.943  0.3392E+00  0.3272E+00  0.3589E+02  0.3589E+02
     10.999  0.2659E+00  0.2650E+00  0.3591E+02  0.3590E+02
     11.055  0.2096E+00  0.1955E+00  0.3592E+02  0.3591E+02
     11.111  0.2482E+00  0.2173E+00  0.3593E+02  0.3593E+02
     11.167  0.3254E+00  0.3147E+00  0.3595E+02  0.3594E+02
     11.223  0.3082E+00  0.3394E+00  0.3597E+02  0.3596E+02
     11.279  0.2218E+00  0.2588E+00  0.3598E+02  0.3598E+02
     11.335  0.1480E+00  0.1711E+00  0.3599E+02  0.3599E+02
     11.391  0.9672E-01  0.1077E+00  0.3599E+02  0.3599E+02
     11.448  0.6431E-01  0.6254E-01  0.3600E+02  0.3600E+02
     11.504  0.3605E-01  0.2937E-01  0.3600E+02  0.3600E+02
     11.560  0.1537E-01  0.1110E-01  0.3600E+02  0.3600E+02
     11.616  0.5374E-02  0.3586E-02  0.3600E+02  0.3600E+02
     11.672  0.1821E-02  0.1195E-02  0.3600E+02  0.3600E+02
     11.728  0.5197E-03  0.3135E-03  0.3600E+02  0.3600E+02
     11.784  0.1702E-03  0.1024E-03  0.3600E+02  0.3600E+02
     11.840  0.0000E+00  0.0000E+00  0.3600E+02  0.3600E+02
     11.896  0.0000E+00  0.0000E+00  0.3600E+02  0.3600E+02
     11.952  0.0000E+00  0.0000E+00  0.3600E+02  0.3600E+02
     12.008  0.0000E+00  0.0000E+00  0.3600E+02  0.3600E+02
     12.064  0.0000E+00  0.0000E+00  0.3600E+02  0.3600E+02
     12.120  0.0000E+00  0.0000E+00  0.3600E+02  0.3600E+02
     12.176  0.0000E+00  0.0000E+00  0.3600E+02  0.3600E+02
     12.17647311     -4.64575139  301      5.49014893      1.00000000
     -4.646  0.0000E+00  0.0000E+00  0.0000E+00  0.0000E+00  0.0000E+00  0.0000E+00  0.0000E+00  0.0000E+00  0.0000E+00  0.0000E+00  0.0000E+00  0.0000E+00  0.0000E+00  0.0000E+00  0.0000E+00  0.0000E+00  0.0000E+00  0.0000E+00
     -4.590  0.0000E+00  0.0000E+00  0.0000E+00  0.0000E+00  0.0000E+00  0.0000E+00  0.0000E+00  0.0000E+00  0.0000E+00  0.0000E+00  0.0000E+00  0.0000E+00  0.0000E+00  0.0000E+00  0.0000E+00  0.0000E+00  0.0000E+00  0.0000E+00
     -4.534  0.0000E+00  0.0000E+00  0.0000E+00  0.0000E+00  0.0000E+00  0.0000E+00  0.0000E+00  0.0000E+00  0.0000E+00  0.0000E+00  0.0000E+00  0.0000E+00  0.0000E+00  0.0000E+00  0.0000E+00  0.0000E+00  0.0000E+00  0.0000E+00
     -4.478  0.0000E+00  0.0000E+00  0.0000E+00  0.0000E+00  0.0000E+00  0.0000E+00  0.0000E+00  0.0000E+00  0.0000E+00  0.0000E+00  0.0000E+00  0.0000E+00  0.0000E+00  0.0000E+00  0.0000E+00  0.0000E+00  0.0000E+00  0.0000E+00
     -4.421  0.0000E+00  0.0000E+00  0.0000E+00  0.0000E+00  0.0000E+00  0.0000E+00  0.0000E+00  0.0000E+00  0.0000E+00  0.0000E+00  0.0000E+00  0.0000E+00  0.0000E+00  0.0000E+00  0.0000E+00  0.0000E+00  0.0000E+00  0.0000E+00
     -4.365  0.0000E+00  0.0000E+00  0.0000E+00  0.0000E+00  0.0000E+00  0.0000E+00  0.0000E+00  0.0000E+00  0.0000E+00  0.0000E+00  0.0000E+00  0.0000E+00  0.0000E+00  0.0000E+00  0.0000E+00  0.0000E+00  0.0000E+00  0.0000E+00
     -4.309  0.3437E-07  0.3242E-07  0.4969E-21  0.4661E-21  0.6868E-11  0.5980E-11  0.4969E-21  0.4661E-21  0.0000E+00  0.0000E+00  0.0000E+00  0.0000E+00  0.0000E+00  0.0000E+00  0.0000E+00  0.0000E+00  0.0000E+00  0.0000E+00
     -4.253  0.3039E-06  0.2867E-06  0.1076E-08  0.1016E-08  0.1257E-08  0.1182E-08  0.1076E-08  0.1016E-08  0.0000E+00  0.0000E+00  0.0000E+00  0.0000E+00  0.0000E+00  0.0000E+00  0.0000E+00  0.0000E+00  0.0000E+00  0.0000E+00
     -4.197  0.1224E-05  0.1155E-05  0.6997E-08  0.6606E-08  0.8414E-08  0.7924E-08  0.6997E-08  0.6606E-08  0.0000E+00  0.0000E+00  0.0000E+00  0.0000E+00  0.0000E+00  0.0000E+00  0.0000E+00  0.0000E+00  0.0000E+00  0.0000E+00
     -4.141  0.3706E-05  0.3497E-05  0.2441E-07  0.2305E-07  0.2688E-07  0.2532E-07  0.2441E-07  0.2305E-07  0.0000E+00  0.0000E+00  0.0000E+00  0.0000E+00  0.0000E+00  0.0000E+00  0.0000E+00  0.0000E+00  0.0000E+00  0.0000E+00
     -4.085  0.1130E-04  0.1066E-04  0.7934E-07  0.7494E-07  0.8426E-07  0.7938E-07  0.7934E-07  0.7494E-07  0.0000E+00  0.0000E+00  0.0000E+00  0.0000E+00  0.0000E+00  0.0000E+00  0.0000E+00  0.0000E+00  0.0000E+00  0.0000E+00
     -4.029  0.3441E-04  0.3251E-04  0.2467E-06  0.2331E-06  0.2820E-06  0.2658E-06  0.2467E-06  0.2331E-06  0.0000E+00  0.0000E+00  0.0000E+00  0.0000E+00  0.0000E+00  0.0000E+00  0.0000E+00  0.0000E+00  0.0000E+00  0.0000E+00
     -3.973  0.1003E-03  0.9494E-04  0.7290E-06  0.6896E-06  0.8447E-06  0.7972E-06  0.7290E-06  0.6896E-06  0.0000E+00  0.0000E+00  0.0000E+00  0.0000E+00  0.0000E+00  0.0000E+00  0.0000E+00  0.0000E+00  0.0000E+00  0.0000E+00
     -3.917  0.2706E-03  0.2576E-03  0.2112E-05  0.2000E-05  0.2423E-05  0.2294E-05  0.2112E-05  0.2000E-05  0.0000E+00  0.0000E+00  0.0000E+00  0.0000E+00  0.0000E+00  0.0000E+00  0.0000E+00  0.0000E+00  0.0000E+00  0.0000E+00
     -3.861  0.6237E-03  0.5998E-03  0.5563E-05  0.5317E-05  0.6392E-05  0.6091E-05  0.5563E-05  0.5317E-05  0.0000E+00  0.0000E+00  0.0000E+00  0.0000E+00  0.0000E+00  0.0000E+00  0.0000E+00  0.0000E+00  0.0000E+00  0.0000E+00
     -3.805  0.1137E-02  0.1107E-02  0.1238E-04  0.1193E-04  0.1415E-04  0.1362E-04  0.1238E-04  0.1193E-04  0.0000E+00  0.0000E+00  0.0000E+00  0.0000E+00  0.0000E+00  0.0000E+00  0.0000E+00  0.0000E+00  0.0000E+00  0.0000E+00
     -3.749  0.1631E-02  0.1604E-02  0.2328E-04  0.2259E-04  0.2594E-04  0.2516E-04  0.2328E-04  0.2259E-04  0.0000E+00  0.0000E+00  0.0000E+00  0.0000E+00  0.0000E+00  0.0000E+00  0.0000E+00  0.0000E+00  0.0000E+00  0.0000E+00
     -3.692  0.2056E-02  0.2027E-02  0.3938E-04  0.3836E-04  0.4329E-04  0.4208E-04  0.3938E-04  0.3836E-04  0.0000E+00  0.0000E+00  0.0000E+00  0.0000E+00  0.0000E+00  0.0000E+00  0.0000E+00  0.0000E+00  0.0000E+00  0.0000E+00
     -3.636  0.2536E-02  0.2505E-02  0.6031E-04  0.5912E-04  0.6950E-04  0.6781E-04  0.6031E-04  0.5912E-04  0.0000E+00  0.0000E+00  0.0000E+00  0.0000E+00  0.0000E+00  0.0000E+00  0.0000E+00  0.0000E+00  0.0000E+00  0.0000E+00
     -3.580  0.2838E-02  0.2824E-02  0.7876E-04  0.7781E-04  0.9507E-04  0.9377E-04  0.7876E-04  0.7781E-04  0.0000E+00  0.0000E+00  0.0000E+00  0.0000E+00  0.0000E+00  0.0000E+00  0.0000E+00  0.0000E+00  0.0000E+00  0.0000E+00
     -3.524  0.2820E-02  0.2811E-02  0.9622E-04  0.9488E-04  0.1108E-03  0.1096E-03  0.9622E-04  0.9488E-04  0.0000E+00  0.0000E+00  0.0000E+00  0.0000E+00  0.0000E+00  0.0000E+00  0.0000E+00  0.0000E+00  0.0000E+00  0.0000E+00
     -3.468  0.3030E-02  0.2999E-02  0.1305E-03  0.1281E-03  0.1375E-03  0.1351E-03  0.1305E-03  0.1281E-03  0.0000E+00  0.0000E+00  0.0000E+00  0.0000E+00  0.0000E+00  0.0000E+00  0.0000E+00  0.0000E+00  0.0000E+00  0.0000E+00
     -3.412  0.3497E-02  0.3466E-02  0.1737E-03  0.1715E-03  0.1831E-03  0.1802E-03  0.1737E-03  0.1715E-03  0.0000E+00  0.0000E+00  0.0000E+00  0.0000E+00  0.0000E+00  0.0000E+00  0.0000E+00  0.0000E+00  0.0000E+00  0.0000E+00
     -3.356  0.3651E-02  0.3639E-02  0.1973E-03  0.1962E-03  0.2278E-03  0.2251E-03  0.1973E-03  0.1962E-03  0.0000E+00  0.0000E+00  0.0000E+00  0.0000E+00  0.0000E+00  0.0000E+00  0.0000E+00  0.0000E+00  0.0000E+00  0.0000E+00
     -3.300  0.3587E-02  0.3575E-02  0.2126E-03  0.2111E-03  0.2659E-03  0.2634E-03  0.2126E-03  0.2111E-03  0.0000E+00  0.0000E+00  0.0000E+00  0.0000E+00  0.0000E+00  0.0000E+00  0.0000E+00  0.0000E+00  0.0000E+00  0.0000E+00
     -3.244  0.3700E-02  0.3678E-02  0.2485E-03  0.2460E-03  0.3038E-03  0.3009E-03  0.2485E-03  0.2460E-03  0.0000E+00  0.0000E+00  0.0000E+00  0.0000E+00  0.0000E+00  0.0000E+00  0.0000E+00  0.0000E+00  0.0000E+00  0.0000E+00
     -3.188  0.3840E-02  0.3825E-02  0.2902E-03  0.2880E-03  0.3395E-03  0.3373E-03  0.2902E-03  0.2880E-03  0.0000E+00  0.0000E+00  0.0000E+00  0.0000E+00  0.0000E+00  0.0000E+00  0.0000E+00  0.0000E+00  0.0000E+00  0.0000E+00
     -3.132  0.3740E-02  0.3732E-02  0.3245E-03  0.3220E-03  0.3490E-03  0.3482E-03  0.3245E-03  0.3220E-03  0.0000E+00  0.0000E+00  0.0000E+00  0.0000E+00  0.0000E+00  0.0000E+00  0.0000E+00  0.0000E+00  0.0000E+00  0.0000E+00
     -3.076  0.3797E-02  0.3772E-02  0.3839E-03  0.3799E-03  0.3733E-03  0.3696E-03  0.3839E-03  0.3799E-03  0.0000E+00  0.0000E+00  0.0000E+00  0.0000E+00  0.0000E+00  0.0000E+00  0.0000E+00  0.0000E+00  0.0000E+00  0.0000E+00
     -3.020  0.4139E-02  0.4108E-02  0.4482E-03  0.4450E-03  0.4771E-03  0.4698E-03  0.4482E-03  0.4450E-03  0.0000E+00  0.0000E+00  0.0000E+00  0.0000E+00  0.0000E+00  0.0000E+00  0.0000E+00  0.0000E+00  0.0000E+00  0.0000E+00
     -2.964  0.4354E-02  0.4333E-02  0.4843E-03  0.4821E-03  0.6030E-03  0.5969E-03  0.4843E-03  0.4821E-03  0.0000E+00  0.0000E+00  0.0000E+00  0.0000E+00  0.0000E+00  0.0000E+00  0.0000E+00  0.0000E+00  0.0000E+00  0.0000E+00
     -2.907  0.4330E-02  0.4320E-02  0.5105E-03  0.5087E-03  0.6655E-03  0.6625E-03  0.5105E-03  0.5087E-03  0.0000E+00  0.0000E+00  0.0000E+00  0.0000E+00  0.0000E+00  0.0000E+00  0.0000E+00  0.0000E+00  0.0000E+00  0.0000E+00
     -2.851  0.4064E-02  0.4063E-02  0.5122E-03  0.5116E-03  0.6864E-03  0.6837E-03  0.5122E-03  0.5116E-03  0.0000E+00  0.0000E+00  0.0000E+00  0.0000E+00  0.0000E+00  0.0000E+00  0.0000E+00  0.0000E+00  0.0000E+00  0.0000E+00
     -2.795  0.3793E-02  0.3787E-02  0.5256E-03  0.5225E-03  0.6994E-03  0.6980E-03  0.5256E-03  0.5225E-03  0.0000E+00  0.0000E+00  0.0000E+00  0.0000E+00  0.0000E+00  0.0000E+00  0.0000E+00  0.0000E+00  0.0000E+00  0.0000E+00
     -2.739  0.3784E-02  0.3764E-02  0.6294E-03  0.6218E-03  0.6756E-03  0.6749E-03  0.6294E-03  0.6218E-03  0.0000E+00  0.0000E+00  0.0000E+00  0.0000E+00  0.0000E+00  0.0000E+00  0.0000E+00  0.0000E+00  0.0000E+00  0.0000E+00
     -2.683  0.4046E-02  0.4016E-02  0.7843E-03  0.7766E-03  0.7326E-03  0.7243E-03  0.7843E-03  0.7766E-03  0.0000E+00  0.0000E+00  0.0000E+00  0.0000E+00  0.0000E+00  0.0000E+00  0.0000E+00  0.0000E+00  0.0000E+00  0.0000E+00
     -2.627  0.4299E-02  0.4276E-02  0.8711E-03  0.8678E-03  0.9638E-03  0.9493E-03  0.8711E-03  0.8678E-03  0.0000E+00  0.0000E+00  0.0000E+00  0.0000E+00  0.0000E+00  0.0000E+00  0.0000E+00  0.0000E+00  0.0000E+00  0.0000E+00
     -2.571  0.4313E-02  0.4299E-02  0.8920E-03  0.8892E-03  0.1201E-02  0.1191E-02  0.8920E-03  0.8892E-03  0.0000E+00  0.0000E+00  0.0000E+00  0.0000E+00  0.0000E+00  0.0000E+00  0.0000E+00  0.0000E+00  0.0000E+00  0.0000E+00
     -2.515  0.4203E-02  0.4194E-02  0.9354E-03  0.9318E-03  0.1280E-02  0.1276E-02  0.9354E-03  0.9318E-03  0.0000E+00  0.0000E+00  0.0000E+00  0.0000E+00  0.0000E+00  0.0000E+00  0.0000E+00  0.0000E+00  0.0000E+00  0.0000E+00
     -2.459  0.3897E-02  0.3902E-02  0.9312E-03  0.9319E-03  0.1318E-02  0.1311E-02  0.9312E-03  0.9319E-03  0.0000E+00  0.0000E+00  0.0000E+00  0.0000E+00  0.0000E+00  0.0000E+00  0.0000E+00  0.0000E+00  0.0000E+00  0.0000E+00
     -2.403  0.3412E-02  0.3418E-02  0.8924E-03  0.8905E-03  0.1403E-02  0.1397E-02  0.8924E-03  0.8905E-03  0.0000E+00  0.0000E+00  0.0000E+00  0.0000E+00  0.0000E+00  0.0000E+00  0.0000E+00  0.0000E+00  0.0000E+00  0.0000E+00
     -2.347  0.3219E-02  0.3205E-02  0.1044E-02  0.1031E-02  0.1441E-02  0.1437E-02  0.1044E-02  0.1031E-02  0.0000E+00  0.0000E+00  0.0000E+00  0.0000E+00  0.0000E+00  0.0000E+00  0.0000E+00  0.0000E+00  0.0000E+00  0.0000E+00
     -2.291  0.3482E-02  0.3453E-02  0.1379E-02  0.1363E-02  0.1531E-02  0.1520E-02  0.1379E-02  0.1363E-02  0.0000E+00  0.0000E+00  0.0000E+00  0.0000E+00  0.0000E+00  0.0000E+00  0.0000E+00  0.0000E+00  0.0000E+00  0.0000E+00
     -2.235  0.3764E-02  0.3744E-02  0.1641E-02  0.1631E-02  0.1755E-02  0.1740E-02  0.1641E-02  0.1631E-02  0.0000E+00  0.0000E+00  0.0000E+00  0.0000E+00  0.0000E+00  0.0000E+00  0.0000E+00  0.0000E+00  0.0000E+00  0.0000E+00
     -2.178  0.3602E-02  0.3603E-02  0.1709E-02  0.1706E-02  0.1920E-02  0.1912E-02  0.1709E-02  0.1706E-02  0.0000E+00  0.0000E+00  0.0000E+00  0.0000E+00  0.0000E+00  0.0000E+00  0.0000E+00  0.0000E+00  0.0000E+00  0.0000E+00
     -2.122  0.3152E-02  0.3161E-02  0.1725E-02  0.1723E-02  0.1826E-02  0.1831E-02  0.1725E-02  0.1723E-02  0.0000E+00  0.0000E+00  0.0000E+00  0.0000E+00  0.0000E+00  0.0000E+00  0.0000E+00  0.0000E+00  0.0000E+00  0.0000E+00
     -2.066  0.2627E-02  0.2638E-02  0.1644E-02  0.1647E-02  0.1540E-02  0.1547E-02  0.1644E-02  0.1647E-02  0.0000E+00  0.0000E+00  0.0000E+00  0.0000E+00  0.0000E+00  0.0000E+00  0.0000E+00  0.0000E+00  0.0000E+00  0.0000E+00
     -2.010  0.2185E-02  0.2188E-02  0.1467E-02  0.1469E-02  0.1387E-02  0.1385E-02  0.1467E-02  0.1469E-02  0.0000E+00  0.0000E+00  0.0000E+00  0.0000E+00  0.0000E+00  0.0000E+00  0.0000E+00  0.0000E+00  0.0000E+00  0.0000E+00
     -1.954  0.2117E-02  0.2103E-02  0.1424E-02  0.1419E-02  0.1460E-02  0.1450E-02  0.1424E-02  0.1419E-02  0.0000E+00  0.0000E+00  0.0000E+00  0.0000E+00  0.0000E+00  0.0000E+00  0.0000E+00  0.0000E+00  0.0000E+00  0.0000E+00
     -1.898  0.2337E-02  0.2316E-02  0.1517E-02  0.1509E-02  0.1658E-02  0.1644E-02  0.1517E-02  0.1509E-02  0.0000E+00  0.0000E+00  0.0000E+00  0.0000E+00  0.0000E+00  0.0000E+00  0.0000E+00  0.0000E+00  0.0000E+00  0.0000E+00
     -1.842  0.2445E-02  0.2435E-02  0.1541E-02  0.1539E-02  0.1776E-02  0.1770E-02  0.1541E-02  0.1539E-02  0.0000E+00  0.0000E+00  0.0000E+00  0.0000E+00  0.0000E+00  0.0000E+00  0.0000E+00  0.0000E+00  0.0000E+00  0.0000E+00