  16  16   1   0
  0.1737426E+02  0.4110871E-09  0.4110871E-09  0.1644972E-08  0.5000000E-15
  1.000000000000000E-004
  CAR 
 unknown system                          
     12.63783388     -4.58314738  301      5.73536142      1.00000000
     -4.583  0.0000E+00  0.0000E+00  0.0000E+00  0.0000E+00
     -4.526  0.0000E+00  0.0000E+00  0.0000E+00  0.0000E+00
     -4.468  0.0000E+00  0.0000E+00  0.0000E+00  0.0000E+00
     -4.411  0.0000E+00  0.0000E+00  0.0000E+00  0.0000E+00
     -4.354  0.0000E+00  0.0000E+00  0.0000E+00  0.0000E+00
     -4.296  0.0000E+00  0.0000E+00  0.0000E+00  0.0000E+00
     -4.239  0.5352E-05  0.5059E-05  0.3072E-06  0.2904E-06
     -4.181  0.4862E-04  0.4596E-04  0.3098E-05  0.2929E-05
     -4.124  0.2016E-03  0.1906E-03  0.1467E-04  0.1387E-04
     -4.067  0.6292E-03  0.5809E-03  0.5079E-04  0.4722E-04
     -4.009  0.1972E-02  0.1850E-02  0.1640E-03  0.1534E-03
     -3.952  0.6178E-02  0.5877E-02  0.5187E-03  0.4908E-03
     -3.894  0.1853E-01  0.1758E-01  0.1582E-02  0.1500E-02
     -3.837  0.5145E-01  0.4909E-01  0.4536E-02  0.4318E-02
     -3.780  0.1217E+00  0.1173E+00  0.1152E-01  0.1105E-01
     -3.722  0.2261E+00  0.2207E+00  0.2450E-01  0.2372E-01
     -3.665  0.3284E+00  0.3239E+00  0.4335E-01  0.4231E-01
     -3.607  0.4198E+00  0.4150E+00  0.6745E-01  0.6614E-01
     -3.550  0.5280E+00  0.5228E+00  0.9776E-01  0.9615E-01
     -3.492  0.5982E+00  0.5969E+00  0.1321E+00  0.1304E+00
     -3.435  0.6011E+00  0.6007E+00  0.1666E+00  0.1649E+00
     -3.378  0.6645E+00  0.6590E+00  0.2047E+00  0.2027E+00
     -3.320  0.7856E+00  0.7809E+00  0.2499E+00  0.2476E+00
     -3.263  0.8306E+00  0.8306E+00  0.2975E+00  0.2953E+00
     -3.205  0.8310E+00  0.8304E+00  0.3453E+00  0.3429E+00
     -3.148  0.8796E+00  0.8763E+00  0.3958E+00  0.3933E+00
     -3.091  0.9317E+00  0.9310E+00  0.4493E+00  0.4467E+00
     -3.033  0.9251E+00  0.9257E+00  0.5024E+00  0.4999E+00
     -2.976  0.9737E+00  0.9690E+00  0.5583E+00  0.5555E+00
     -2.918  0.1096E+01  0.1091E+01  0.6213E+00  0.6182E+00
     -2.861  0.1179E+01  0.1177E+01  0.6890E+00  0.6858E+00
     -2.804  0.1196E+01  0.1197E+01  0.7576E+00  0.7545E+00
     -2.746  0.1146E+01  0.1149E+01  0.8234E+00  0.8205E+00
     -2.689  0.1108E+01  0.1108E+01  0.8871E+00  0.8841E+00
     -2.631  0.1158E+01  0.1153E+01  0.9536E+00  0.9504E+00
     -2.574  0.1303E+01  0.1296E+01  0.1028E+01  0.1025E+01
     -2.517  0.1447E+01  0.1443E+01  0.1111E+01  0.1108E+01
     -2.459  0.1514E+01  0.1512E+01  0.1198E+01  0.1194E+01
     -2.402  0.1531E+01  0.1532E+01  0.1286E+01  0.1282E+01
     -2.344  0.1474E+01  0.1479E+01  0.1371E+01  0.1367E+01
     -2.287  0.1396E+01  0.1398E+01  0.1451E+01  0.1448E+01
     -2.230  0.1474E+01  0.1467E+01  0.1536E+01  0.1532E+01
     -2.172  0.1735E+01  0.1723E+01  0.1635E+01  0.1631E+01
     -2.115  0.1964E+01  0.1959E+01  0.1748E+01  0.1743E+01
     -2.057  0.1992E+01  0.1996E+01  0.1863E+01  0.1858E+01
     -2.000  0.1886E+01  0.1894E+01  0.1971E+01  0.1967E+01
     -1.943  0.1663E+01  0.1673E+01  0.2066E+01  0.2063E+01
     -1.885  0.1473E+01  0.1477E+01  0.2151E+01  0.2148E+01
     -1.828  0.1496E+01  0.1491E+01  0.2237E+01  0.2233E+01
     -1.770  0.1650E+01  0.1644E+01  0.2332E+01  0.2328E+01
     -1.713  0.1681E+01  0.1683E+01  0.2428E+01  0.2425E+01
     -1.656  0.1531E+01  0.1537E+01  0.2516E+01  0.2513E+01
     -1.598  0.1357E+01  0.1365E+01  0.2594E+01  0.2591E+01
     -1.541  0.1201E+01  0.1206E+01  0.2663E+01  0.2661E+01
     -1.483  0.1197E+01  0.1192E+01  0.2732E+01  0.2729E+01
     -1.426  0.1398E+01  0.1388E+01  0.2812E+01  0.2809E+01
     -1.369  0.1586E+01  0.1581E+01  0.2903E+01  0.2899E+01
     -1.311  0.1597E+01  0.1600E+01  0.2995E+01  0.2991E+01
     -1.254  0.1445E+01  0.1454E+01  0.3078E+01  0.3075E+01
     -1.196  0.1217E+01  0.1226E+01  0.3148E+01  0.3145E+01
     -1.139  0.1044E+01  0.1048E+01  0.3208E+01  0.3206E+01
     -1.082  0.1064E+01  0.1058E+01  0.3269E+01  0.3266E+01
     -1.024  0.1233E+01  0.1227E+01  0.3340E+01  0.3337E+01
     -0.967  0.1318E+01  0.1317E+01  0.3416E+01  0.3413E+01
     -0.909  0.1278E+01  0.1279E+01  0.3489E+01  0.3486E+01
     -0.852  0.1234E+01  0.1233E+01  0.3560E+01  0.3557E+01
     -0.795  0.1241E+01  0.1238E+01  0.3631E+01  0.3628E+01
     -0.737  0.1293E+01  0.1286E+01  0.3706E+01  0.3702E+01
     -0.680  0.1456E+01  0.1446E+01  0.3789E+01  0.3785E+01
     -0.622  0.1652E+01  0.1643E+01  0.3884E+01  0.3879E+01
     -0.565  0.1833E+01  0.1825E+01  0.3989E+01  0.3984E+01
     -0.508  0.2003E+01  0.1994E+01  0.4105E+01  0.4099E+01
     -0.450  0.2208E+01  0.2196E+01  0.4231E+01  0.4225E+01
     -0.393  0.2416E+01  0.2406E+01  0.4370E+01  0.4363E+01
     -0.335  0.2515E+01  0.2516E+01  0.4514E+01  0.4507E+01
     -0.278  0.2399E+01  0.2409E+01  0.4652E+01  0.4646E+01
     -0.220  0.2249E+01  0.2257E+01  0.4781E+01  0.4775E+01
     -0.163  0.2026E+01  0.2040E+01  0.4898E+01  0.4892E+01
     -0.106  0.1747E+01  0.1757E+01  0.4998E+01  0.4993E+01
     -0.048  0.1695E+01  0.1691E+01  0.5095E+01  0.5090E+01
      0.009  0.1779E+01  0.1777E+01  0.5198E+01  0.5193E+01
      0.067  0.1803E+01  0.1801E+01  0.5301E+01  0.5296E+01
      0.124  0.1952E+01  0.1938E+01  0.5413E+01  0.5407E+01
      0.181  0.2319E+01  0.2300E+01  0.5547E+01  0.5540E+01
      0.239  0.2561E+01  0.2557E+01  0.5694E+01  0.5686E+01
      0.296  0.2451E+01  0.2462E+01  0.5834E+01  0.5828E+01
      0.354  0.2279E+01  0.2287E+01  0.5965E+01  0.5959E+01
      0.411  0.2108E+01  0.2121E+01  0.6086E+01  0.6081E+01
      0.468  0.1751E+01  0.1771E+01  0.6187E+01  0.6183E+01
      0.526  0.1427E+01  0.1438E+01  0.6269E+01  0.6265E+01
      0.583  0.1333E+01  0.1333E+01  0.6345E+01  0.6342E+01
      0.641  0.1423E+01  0.1417E+01  0.6427E+01  0.6423E+01
      0.698  0.1587E+01  0.1578E+01  0.6518E+01  0.6514E+01
      0.755  0.1734E+01  0.1725E+01  0.6618E+01  0.6613E+01
      0.813  0.1801E+01  0.1797E+01  0.6722E+01  0.6716E+01
      0.870  0.1779E+01  0.1776E+01  0.6824E+01  0.6818E+01
      0.928  0.1888E+01  0.1874E+01  0.6932E+01  0.6926E+01
      0.985  0.2223E+01  0.2201E+01  0.7060E+01  0.7052E+01
      1.042  0.2534E+01  0.2521E+01  0.7205E+01  0.7197E+01
      1.100  0.2613E+01  0.2613E+01  0.7355E+01  0.7347E+01
      1.157  0.2570E+01  0.2573E+01  0.7503E+01  0.7495E+01
      1.215  0.2563E+01  0.2561E+01  0.7650E+01  0.7642E+01
      1.272  0.2575E+01  0.2574E+01  0.7798E+01  0.7790E+01
      1.329  0.2502E+01  0.2505E+01  0.7942E+01  0.7934E+01
      1.387  0.2427E+01  0.2428E+01  0.8081E+01  0.8073E+01
      1.444  0.2350E+01  0.2353E+01  0.8216E+01  0.8208E+01
      1.502  0.2344E+01  0.2339E+01  0.8351E+01  0.8343E+01
      1.559  0.2463E+01  0.2459E+01  0.8492E+01  0.8484E+01
      1.616  0.2509E+01  0.2514E+01  0.8636E+01  0.8628E+01
      1.674  0.2457E+01  0.2464E+01  0.8777E+01  0.8770E+01
      1.731  0.2400E+01  0.2406E+01  0.8915E+01  0.8908E+01
      1.789  0.2356E+01  0.2362E+01  0.9051E+01  0.9044E+01
      1.846  0.2294E+01  0.2298E+01  0.9182E+01  0.9176E+01
      1.903  0.2229E+01  0.2235E+01  0.9311E+01  0.9304E+01
      1.961  0.2049E+01  0.2062E+01  0.9428E+01  0.9423E+01
      2.018  0.1841E+01  0.1847E+01  0.9534E+01  0.9529E+01
      2.076  0.1805E+01  0.1801E+01  0.9638E+01  0.9632E+01
      2.133  0.1924E+01  0.1914E+01  0.9748E+01  0.9742E+01
      2.190  0.2076E+01  0.2067E+01  0.9868E+01  0.9861E+01
      2.248  0.2096E+01  0.2090E+01  0.9988E+01  0.9981E+01
      2.305  0.2192E+01  0.2172E+01  0.1011E+02  0.1011E+02
      2.363  0.2541E+01  0.2514E+01  0.1026E+02  0.1025E+02
      2.420  0.2838E+01  0.2830E+01  0.1042E+02  0.1041E+02
      2.477  0.2849E+01  0.2854E+01  0.1059E+02  0.1058E+02
      2.535  0.2784E+01  0.2788E+01  0.1075E+02  0.1074E+02
      2.592  0.2722E+01  0.2723E+01  0.1090E+02  0.1089E+02
      2.650  0.2845E+01  0.2831E+01  0.1107E+02  0.1106E+02
      2.707  0.3044E+01  0.3038E+01  0.1124E+02  0.1123E+02
      2.764  0.2981E+01  0.2991E+01  0.1141E+02  0.1140E+02
      2.822  0.2746E+01  0.2762E+01  0.1157E+02  0.1156E+02
      2.879  0.2539E+01  0.2548E+01  0.1172E+02  0.1171E+02
      2.937  0.2478E+01  0.2475E+01  0.1186E+02  0.1185E+02
      2.994  0.2530E+01  0.2521E+01  0.1200E+02  0.1199E+02
      3.051  0.2759E+01  0.2742E+01  0.1216E+02  0.1215E+02
      3.109  0.3041E+01  0.3032E+01  0.1234E+02  0.1233E+02
      3.166  0.3030E+01  0.3039E+01  0.1251E+02  0.1250E+02
      3.224  0.2801E+01  0.2811E+01  0.1267E+02  0.1266E+02
      3.281  0.2664E+01  0.2664E+01  0.1282E+02  0.1281E+02
      3.339  0.2657E+01  0.2655E+01  0.1298E+02  0.1297E+02
      3.396  0.2641E+01  0.2645E+01  0.1313E+02  0.1312E+02
      3.453  0.2748E+01  0.2741E+01  0.1329E+02  0.1328E+02
      3.511  0.3058E+01  0.3042E+01  0.1346E+02  0.1345E+02
      3.568  0.3297E+01  0.3286E+01  0.1365E+02  0.1364E+02
      3.626  0.3390E+01  0.3381E+01  0.1385E+02  0.1383E+02
      3.683  0.3421E+01  0.3422E+01  0.1404E+02  0.1403E+02
      3.740  0.3256E+01  0.3269E+01  0.1423E+02  0.1422E+02
      3.798  0.3165E+01  0.3164E+01  0.1441E+02  0.1440E+02
      3.855  0.3276E+01  0.3275E+01  0.1460E+02  0.1459E+02
      3.913  0.3154E+01  0.3171E+01  0.1478E+02  0.1477E+02
      3.970  0.2910E+01  0.2919E+01  0.1495E+02  0.1494E+02
      4.027  0.2914E+01  0.2907E+01  0.1512E+02  0.1510E+02
      4.085  0.3068E+01  0.3062E+01  0.1529E+02  0.1528E+02
      4.142  0.3155E+01  0.3155E+01  0.1547E+02  0.1546E+02
      4.200  0.3107E+01  0.3113E+01  0.1565E+02  0.1564E+02
      4.257  0.2958E+01  0.2966E+01  0.1582E+02  0.1581E+02
      4.314  0.2830E+01  0.2833E+01  0.1598E+02  0.1597E+02
      4.372  0.2758E+01  0.2757E+01  0.1614E+02  0.1613E+02
      4.429  0.2830E+01  0.2816E+01  0.1630E+02  0.1629E+02
      4.487  0.3125E+01  0.3105E+01  0.1648E+02  0.1647E+02
      4.544  0.3410E+01  0.3400E+01  0.1668E+02  0.1667E+02
      4.601  0.3463E+01  0.3474E+01  0.1688E+02  0.1687E+02
      4.659  0.3115E+01  0.3149E+01  0.1706E+02  0.1705E+02
      4.716  0.2612E+01  0.2635E+01  0.1721E+02  0.1720E+02
      4.774  0.2416E+01  0.2418E+01  0.1735E+02  0.1734E+02
      4.831  0.2452E+01  0.2452E+01  0.1749E+02  0.1748E+02
      4.888  0.2496E+01  0.2496E+01  0.1763E+02  0.1762E+02
      4.946  0.2621E+01  0.2611E+01  0.1778E+02  0.1777E+02
      5.003  0.2779E+01  0.2768E+01  0.1794E+02  0.1793E+02
      5.061  0.2907E+01  0.2897E+01  0.1811E+02  0.1810E+02
      5.118  0.3071E+01  0.3059E+01  0.1828E+02  0.1827E+02
      5.175  0.3103E+01  0.3106E+01  0.1846E+02  0.1845E+02
      5.233  0.2823E+01  0.2843E+01  0.1862E+02  0.1862E+02
      5.290  0.2446E+01  0.2466E+01  0.1877E+02  0.1876E+02
      5.348  0.2222E+01  0.2228E+01  0.1889E+02  0.1889E+02
      5.405  0.2303E+01  0.2285E+01  0.1903E+02  0.1902E+02
      5.462  0.2709E+01  0.2679E+01  0.1918E+02  0.1917E+02
      5.520  0.3183E+01  0.3161E+01  0.1936E+02  0.1935E+02
      5.577  0.3331E+01  0.3339E+01  0.1955E+02  0.1954E+02
      5.635  0.3011E+01  0.3034E+01  0.1973E+02  0.1972E+02
      5.692  0.2740E+01  0.2741E+01  0.1989E+02  0.1988E+02
      5.749  0.2773E+01  0.2766E+01  0.2004E+02  0.2003E+02
      5.807  0.2761E+01  0.2765E+01  0.2020E+02  0.2019E+02
      5.864  0.2733E+01  0.2732E+01  0.2036E+02  0.2035E+02
      5.922  0.2917E+01  0.2904E+01  0.2053E+02  0.2052E+02
      5.979  0.3159E+01  0.3145E+01  0.2071E+02  0.2070E+02
      6.036  0.3215E+01  0.3209E+01  0.2089E+02  0.2088E+02
      6.094  0.3196E+01  0.3187E+01  0.2108E+02  0.2106E+02
      6.151  0.3162E+01  0.3168E+01  0.2126E+02  0.2125E+02
      6.209  0.2980E+01  0.2999E+01  0.2143E+02  0.2142E+02
      6.266  0.2881E+01  0.2885E+01  0.2160E+02  0.2158E+02
      6.323  0.2992E+01  0.2983E+01  0.2177E+02  0.2176E+02
      6.381  0.3063E+01  0.3065E+01  0.2194E+02  0.2193E+02
      6.438  0.2979E+01  0.2985E+01  0.2211E+02  0.2210E+02
      6.496  0.2921E+01  0.2920E+01  0.2228E+02  0.2227E+02
      6.553  0.2991E+01  0.2977E+01  0.2245E+02  0.2244E+02
      6.610  0.3299E+01  0.3270E+01  0.2264E+02  0.2263E+02
      6.668  0.3707E+01  0.3688E+01  0.2286E+02  0.2284E+02
      6.725  0.3758E+01  0.3774E+01  0.2307E+02  0.2306E+02
      6.783  0.3471E+01  0.3497E+01  0.2327E+02  0.2326E+02
      6.840  0.3202E+01  0.3219E+01  0.2346E+02  0.2344E+02
      6.898  0.3016E+01  0.3027E+01  0.2363E+02  0.2362E+02
      6.955  0.2914E+01  0.2913E+01  0.2380E+02  0.2379E+02
      7.012  0.3023E+01  0.3010E+01  0.2397E+02  0.2396E+02
      7.070  0.3210E+01  0.3203E+01  0.2415E+02  0.2414E+02
      7.127  0.3251E+01  0.3254E+01  0.2434E+02  0.2433E+02
      7.185  0.3108E+01  0.3119E+01  0.2452E+02  0.2451E+02
      7.242  0.3059E+01  0.3053E+01  0.2470E+02  0.2468E+02
      7.299  0.3310E+01  0.3289E+01  0.2489E+02  0.2487E+02
      7.357  0.3525E+01  0.3516E+01  0.2509E+02  0.2507E+02
      7.414  0.3630E+01  0.3629E+01  0.2530E+02  0.2528E+02
      7.472  0.3664E+01  0.3672E+01  0.2551E+02  0.2549E+02
      7.529  0.3538E+01  0.3546E+01  0.2571E+02  0.2570E+02
      7.586  0.3428E+01  0.3426E+01  0.2591E+02  0.2589E+02
      7.644  0.3385E+01  0.3385E+01  0.2610E+02  0.2609E+02
      7.701  0.3254E+01  0.3266E+01  0.2629E+02  0.2628E+02
      7.759  0.3140E+01  0.3142E+01  0.2647E+02  0.2646E+02
      7.816  0.3456E+01  0.3424E+01  0.2667E+02  0.2665E+02
      7.873  0.4025E+01  0.3988E+01  0.2690E+02  0.2688E+02
      7.931  0.4205E+01  0.4204E+01  0.2714E+02  0.2712E+02
      7.988  0.3865E+01  0.3897E+01  0.2736E+02  0.2735E+02
      8.046  0.3351E+01  0.3384E+01  0.2755E+02  0.2754E+02
      8.103  0.3120E+01  0.3118E+01  0.2773E+02  0.2772E+02
      8.160  0.3401E+01  0.3365E+01  0.2793E+02  0.2791E+02
      8.218  0.3825E+01  0.3798E+01  0.2815E+02  0.2813E+02
      8.275  0.3838E+01  0.3852E+01  0.2837E+02  0.2835E+02
      8.333  0.3448E+01  0.3480E+01  0.2857E+02  0.2855E+02
      8.390  0.3167E+01  0.3177E+01  0.2875E+02  0.2874E+02
      8.447  0.3397E+01  0.3372E+01  0.2894E+02  0.2893E+02
      8.505  0.3987E+01  0.3951E+01  0.2917E+02  0.2916E+02
      8.562  0.4324E+01  0.4318E+01  0.2942E+02  0.2941E+02
      8.620  0.4098E+01  0.4121E+01  0.2966E+02  0.2964E+02
      8.677  0.3611E+01  0.3637E+01  0.2986E+02  0.2985E+02
      8.734  0.3258E+01  0.3267E+01  0.3005E+02  0.3004E+02
      8.792  0.3245E+01  0.3237E+01  0.3024E+02  0.3022E+02
      8.849  0.3384E+01  0.3376E+01  0.3043E+02  0.3042E+02
      8.907  0.3550E+01  0.3540E+01  0.3064E+02  0.3062E+02
      8.964  0.3837E+01  0.3826E+01  0.3086E+02  0.3084E+02
      9.021  0.3941E+01  0.3951E+01  0.3108E+02  0.3107E+02
      9.079  0.3665E+01  0.3685E+01  0.3129E+02  0.3128E+02
      9.136  0.3438E+01  0.3439E+01  0.3149E+02  0.3148E+02
      9.194  0.3647E+01  0.3627E+01  0.3170E+02  0.3169E+02
      9.251  0.4073E+01  0.4057E+01  0.3193E+02  0.3192E+02
      9.308  0.4333E+01  0.4331E+01  0.3218E+02  0.3217E+02
      9.366  0.4134E+01  0.4154E+01  0.3242E+02  0.3241E+02
      9.423  0.3660E+01  0.3677E+01  0.3263E+02  0.3262E+02
      9.481  0.3486E+01  0.3481E+01  0.3283E+02  0.3282E+02
      9.538  0.3703E+01  0.3690E+01  0.3304E+02  0.3303E+02
      9.595  0.4022E+01  0.4014E+01  0.3327E+02  0.3326E+02
      9.653  0.4177E+01  0.4163E+01  0.3351E+02  0.3350E+02
      9.710  0.3934E+01  0.3917E+01  0.3374E+02  0.3372E+02
      9.768  0.3439E+01  0.3453E+01  0.3394E+02  0.3392E+02
      9.825  0.2957E+01  0.3006E+01  0.3411E+02  0.3410E+02
      9.882  0.2710E+01  0.2752E+01  0.3426E+02  0.3425E+02
      9.940  0.2608E+01  0.2644E+01  0.3441E+02  0.3441E+02
      9.997  0.2483E+01  0.2503E+01  0.3456E+02  0.3455E+02
     10.055  0.2280E+01  0.2269E+01  0.3469E+02  0.3468E+02
     10.112  0.1979E+01  0.1950E+01  0.3480E+02  0.3479E+02
     10.169  0.1803E+01  0.1787E+01  0.3490E+02  0.3489E+02
     10.227  0.1781E+01  0.1787E+01  0.3501E+02  0.3500E+02
     10.284  0.1750E+01  0.1767E+01  0.3511E+02  0.3510E+02
     10.342  0.1622E+01  0.1623E+01  0.3520E+02  0.3519E+02
     10.399  0.1370E+01  0.1362E+01  0.3528E+02  0.3527E+02
     10.457  0.1092E+01  0.1098E+01  0.3534E+02  0.3533E+02
     10.514  0.9926E+00  0.1020E+01  0.3540E+02  0.3539E+02
     10.571  0.1088E+01  0.1103E+01  0.3546E+02  0.3546E+02
     10.629  0.1125E+01  0.1134E+01  0.3553E+02  0.3552E+02
     10.686  0.1026E+01  0.1023E+01  0.3559E+02  0.3558E+02
     10.744  0.9239E+00  0.9139E+00  0.3564E+02  0.3563E+02
     10.801  0.7133E+00  0.7423E+00  0.3568E+02  0.3567E+02
     10.858  0.4533E+00  0.4896E+00  0.3571E+02  0.3570E+02
     10.916  0.3246E+00  0.3302E+00  0.3572E+02  0.3572E+02
     10.973  0.3612E+00  0.3366E+00  0.3574E+02  0.3574E+02
     11.031  0.5009E+00  0.4813E+00  0.3577E+02  0.3577E+02
     11.088  0.5477E+00  0.5725E+00  0.3581E+02  0.3580E+02
     11.145  0.4638E+00  0.4941E+00  0.3583E+02  0.3583E+02
     11.203  0.4008E+00  0.4098E+00  0.3585E+02  0.3585E+02
     11.260  0.3775E+00  0.3808E+00  0.3588E+02  0.3588E+02
     11.318  0.3290E+00  0.3367E+00  0.3590E+02  0.3589E+02
     11.375  0.2412E+00  0.2549E+00  0.3591E+02  0.3591E+02
     11.432  0.2071E+00  0.2232E+00  0.3592E+02  0.3592E+02
     11.490  0.2775E+00  0.2897E+00  0.3594E+02  0.3594E+02
     11.547  0.3311E+00  0.3299E+00  0.3596E+02  0.3596E+02
     11.605  0.2630E+00  0.2542E+00  0.3597E+02  0.3597E+02
     11.662  0.1745E+00  0.1733E+00  0.3598E+02  0.3598E+02
     11.719  0.1126E+00  0.1245E+00  0.3599E+02  0.3599E+02
     11.777  0.6725E-01  0.8696E-01  0.3599E+02  0.3599E+02
     11.834  0.5076E-01  0.5566E-01  0.3599E+02  0.3600E+02
     11.892  0.4495E-01  0.2736E-01  0.3600E+02  0.3600E+02
     11.949  0.2826E-01  0.1029E-01  0.3600E+02  0.3600E+02
     12.006  0.1244E-01  0.3514E-02  0.3600E+02  0.3600E+02
     12.064  0.4273E-02  0.9556E-03  0.3600E+02  0.3600E+02
     12.121  0.1414E-02  0.3060E-03  0.3600E+02  0.3600E+02
     12.179  0.4549E-03  0.0000E+00  0.3600E+02  0.3600E+02
     12.236  0.1449E-03  0.0000E+00  0.3600E+02  0.3600E+02
     12.293  0.0000E+00  0.0000E+00  0.3600E+02  0.3600E+02
     12.351  0.0000E+00  0.0000E+00  0.3600E+02  0.3600E+02
     12.408  0.0000E+00  0.0000E+00  0.3600E+02  0.3600E+02
     12.466  0.0000E+00  0.0000E+00  0.3600E+02  0.3600E+02
     12.523  0.0000E+00  0.0000E+00  0.3600E+02  0.3600E+02
     12.580  0.0000E+00  0.0000E+00  0.3600E+02  0.3600E+02
     12.638  0.0000E+00  0.0000E+00  0.3600E+02  0.3600E+02
     12.63783388     -4.58314738  301      5.73536142      1.00000000
     -4.583  0.0000E+00  0.0000E+00  0.0000E+00  0.0000E+00  0.0000E+00  0.0000E+00  0.0000E+00  0.0000E+00  0.0000E+00  0.0000E+00  0.0000E+00  0.0000E+00  0.0000E+00  0.0000E+00  0.0000E+00  0.0000E+00  0.0000E+00  0.0000E+00
     -4.526  0.0000E+00  0.0000E+00  0.0000E+00  0.0000E+00  0.0000E+00  0.0000E+00  0.0000E+00  0.0000E+00  0.0000E+00  0.0000E+00  0.0000E+00  0.0000E+00  0.0000E+00  0.0000E+00  0.0000E+00  0.0000E+00  0.0000E+00  0.0000E+00
     -4.468  0.0000E+00  0.0000E+00  0.0000E+00  0.0000E+00  0.0000E+00  0.0000E+00  0.0000E+00  0.0000E+00  0.0000E+00  0.0000E+00  0.0000E+00  0.0000E+00  0.0000E+00  0.0000E+00  0.0000E+00  0.0000E+00  0.0000E+00  0.0000E+00
     -4.411  0.0000E+00  0.0000E+00  0.0000E+00  0.0000E+00  0.0000E+00  0.0000E+00  0.0000E+00  0.0000E+00  0.0000E+00  0.0000E+00  0.0000E+00  0.0000E+00  0.0000E+00  0.0000E+00  0.0000E+00  0.0000E+00  0.0000E+00  0.0000E+00
     -4.354  0.0000E+00  0.0000E+00  0.0000E+00  0.0000E+00  0.0000E+00  0.0000E+00  0.0000E+00  0.0000E+00  0.0000E+00  0.0000E+00  0.0000E+00  0.0000E+00  0.0000E+00  0.0000E+00  0.0000E+00  0.0000E+00  0.0000E+00  0.0000E+00
     -4.296  0.0000E+00  0.0000E+00  0.0000E+00  0.0000E+00  0.0000E+00  0.0000E+00  0.0000E+00  0.0000E+00  0.0000E+00  0.0000E+00  0.0000E+00  0.0000E+00  0.0000E+00  0.0000E+00  0.0000E+00  0.0000E+00  0.0000E+00  0.0000E+00
     -4.239  0.2877E-07  0.2710E-07  0.6399E-21  0.1118E-20  0.5988E-11  0.5249E-11  0.6399E-21  0.1118E-20  0.0000E+00  0.0000E+00  0.0000E+00  0.0000E+00  0.0000E+00  0.0000E+00  0.0000E+00  0.0000E+00  0.0000E+00  0.0000E+00
     -4.181  0.2584E-06  0.2434E-06  0.9160E-09  0.8635E-09  0.1070E-08  0.1005E-08  0.9160E-09  0.8635E-09  0.0000E+00  0.0000E+00  0.0000E+00  0.0000E+00  0.0000E+00  0.0000E+00  0.0000E+00  0.0000E+00  0.0000E+00  0.0000E+00
     -4.124  0.1064E-05  0.1002E-05  0.6063E-08  0.5716E-08  0.7289E-08  0.6855E-08  0.6063E-08  0.5716E-08  0.0000E+00  0.0000E+00  0.0000E+00  0.0000E+00  0.0000E+00  0.0000E+00  0.0000E+00  0.0000E+00  0.0000E+00  0.0000E+00
     -4.067  0.3313E-05  0.3051E-05  0.2165E-07  0.1843E-07  0.2393E-07  0.2249E-07  0.2165E-07  0.1843E-07  0.0000E+00  0.0000E+00  0.0000E+00  0.0000E+00  0.0000E+00  0.0000E+00  0.0000E+00  0.0000E+00  0.0000E+00  0.0000E+00
     -4.009  0.1037E-04  0.9703E-05  0.7201E-07  0.6578E-07  0.7694E-07  0.6982E-07  0.7201E-07  0.6578E-07  0.0000E+00  0.0000E+00  0.0000E+00  0.0000E+00  0.0000E+00  0.0000E+00  0.0000E+00  0.0000E+00  0.0000E+00  0.0000E+00
     -3.952  0.3246E-04  0.3077E-04  0.2298E-06  0.2209E-06  0.2630E-06  0.2501E-06  0.2298E-06  0.2209E-06  0.0000E+00  0.0000E+00  0.0000E+00  0.0000E+00  0.0000E+00  0.0000E+00  0.0000E+00  0.0000E+00  0.0000E+00  0.0000E+00
     -3.894  0.9731E-04  0.9201E-04  0.6991E-06  0.6603E-06  0.8102E-06  0.7636E-06  0.6991E-06  0.6603E-06  0.0000E+00  0.0000E+00  0.0000E+00  0.0000E+00  0.0000E+00  0.0000E+00  0.0000E+00  0.0000E+00  0.0000E+00  0.0000E+00
     -3.837  0.2698E-03  0.2566E-03  0.2076E-05  0.1967E-05  0.2390E-05  0.2260E-05  0.2076E-05  0.1967E-05  0.0000E+00  0.0000E+00  0.0000E+00  0.0000E+00  0.0000E+00  0.0000E+00  0.0000E+00  0.0000E+00  0.0000E+00  0.0000E+00
     -3.780  0.6359E-03  0.6108E-03  0.5606E-05  0.5346E-05  0.6459E-05  0.6148E-05  0.5606E-05  0.5346E-05  0.0000E+00  0.0000E+00  0.0000E+00  0.0000E+00  0.0000E+00  0.0000E+00  0.0000E+00  0.0000E+00  0.0000E+00  0.0000E+00
     -3.722  0.1174E-02  0.1143E-02  0.1270E-04  0.1223E-04  0.1455E-04  0.1400E-04  0.1270E-04  0.1223E-04  0.0000E+00  0.0000E+00  0.0000E+00  0.0000E+00  0.0000E+00  0.0000E+00  0.0000E+00  0.0000E+00  0.0000E+00  0.0000E+00
     -3.665  0.1687E-02  0.1659E-02  0.2407E-04  0.2334E-04  0.2683E-04  0.2603E-04  0.2407E-04  0.2334E-04  0.0000E+00  0.0000E+00  0.0000E+00  0.0000E+00  0.0000E+00  0.0000E+00  0.0000E+00  0.0000E+00  0.0000E+00  0.0000E+00
     -3.607  0.2124E-02  0.2094E-02  0.4095E-04  0.3988E-04  0.4495E-04  0.4369E-04  0.4095E-04  0.3988E-04  0.0000E+00  0.0000E+00  0.0000E+00  0.0000E+00  0.0000E+00  0.0000E+00  0.0000E+00  0.0000E+00  0.0000E+00  0.0000E+00
     -3.550  0.2629E-02  0.2596E-02  0.6303E-04  0.6179E-04  0.7274E-04  0.7098E-04  0.6303E-04  0.6179E-04  0.0000E+00  0.0000E+00  0.0000E+00  0.0000E+00  0.0000E+00  0.0000E+00  0.0000E+00  0.0000E+00  0.0000E+00  0.0000E+00
     -3.492  0.2937E-02  0.2923E-02  0.8210E-04  0.8113E-04  0.9953E-04  0.9818E-04  0.8210E-04  0.8113E-04  0.0000E+00  0.0000E+00  0.0000E+00  0.0000E+00  0.0000E+00  0.0000E+00  0.0000E+00  0.0000E+00  0.0000E+00  0.0000E+00
     -3.435  0.2897E-02  0.2889E-02  0.9995E-04  0.9855E-04  0.1151E-03  0.1139E-03  0.9995E-04  0.9855E-04  0.0000E+00  0.0000E+00  0.0000E+00  0.0000E+00  0.0000E+00  0.0000E+00  0.0000E+00  0.0000E+00  0.0000E+00  0.0000E+00
     -3.378  0.3129E-02  0.3095E-02  0.1367E-03  0.1341E-03  0.1435E-03  0.1410E-03  0.1367E-03  0.1341E-03  0.0000E+00  0.0000E+00  0.0000E+00  0.0000E+00  0.0000E+00  0.0000E+00  0.0000E+00  0.0000E+00  0.0000E+00  0.0000E+00
     -3.320  0.3628E-02  0.3597E-02  0.1823E-03  0.1801E-03  0.1921E-03  0.1890E-03  0.1823E-03  0.1801E-03  0.0000E+00  0.0000E+00  0.0000E+00  0.0000E+00  0.0000E+00  0.0000E+00  0.0000E+00  0.0000E+00  0.0000E+00  0.0000E+00
     -3.263  0.3767E-02  0.3757E-02  0.2056E-03  0.2045E-03  0.2386E-03  0.2359E-03  0.2056E-03  0.2045E-03  0.0000E+00  0.0000E+00  0.0000E+00  0.0000E+00  0.0000E+00  0.0000E+00  0.0000E+00  0.0000E+00  0.0000E+00  0.0000E+00
     -3.205  0.3690E-02  0.3678E-02  0.2211E-03  0.2195E-03  0.2780E-03  0.2755E-03  0.2211E-03  0.2195E-03  0.0000E+00  0.0000E+00  0.0000E+00  0.0000E+00  0.0000E+00  0.0000E+00  0.0000E+00  0.0000E+00  0.0000E+00  0.0000E+00
     -3.148  0.3822E-02  0.3798E-02  0.2602E-03  0.2574E-03  0.3177E-03  0.3148E-03  0.2602E-03  0.2574E-03  0.0000E+00  0.0000E+00  0.0000E+00  0.0000E+00  0.0000E+00  0.0000E+00  0.0000E+00  0.0000E+00  0.0000E+00  0.0000E+00
     -3.091  0.3964E-02  0.3951E-02  0.3034E-03  0.3011E-03  0.3548E-03  0.3527E-03  0.3034E-03  0.3011E-03  0.0000E+00  0.0000E+00  0.0000E+00  0.0000E+00  0.0000E+00  0.0000E+00  0.0000E+00  0.0000E+00  0.0000E+00  0.0000E+00
     -3.033  0.3839E-02  0.3832E-02  0.3387E-03  0.3360E-03  0.3618E-03  0.3610E-03  0.3387E-03  0.3360E-03  0.0000E+00  0.0000E+00  0.0000E+00  0.0000E+00  0.0000E+00  0.0000E+00  0.0000E+00  0.0000E+00  0.0000E+00  0.0000E+00
     -2.976  0.3921E-02  0.3893E-02  0.4034E-03  0.3990E-03  0.3893E-03  0.3851E-03  0.4034E-03  0.3990E-03  0.0000E+00  0.0000E+00  0.0000E+00  0.0000E+00  0.0000E+00  0.0000E+00  0.0000E+00  0.0000E+00  0.0000E+00  0.0000E+00
     -2.918  0.4293E-02  0.4261E-02  0.4697E-03  0.4665E-03  0.5049E-03  0.4969E-03  0.4697E-03  0.4665E-03  0.0000E+00  0.0000E+00  0.0000E+00  0.0000E+00  0.0000E+00  0.0000E+00  0.0000E+00  0.0000E+00  0.0000E+00  0.0000E+00
     -2.861  0.4501E-02  0.4481E-02  0.5054E-03  0.5030E-03  0.6364E-03  0.6302E-03  0.5054E-03  0.5030E-03  0.0000E+00  0.0000E+00  0.0000E+00  0.0000E+00  0.0000E+00  0.0000E+00  0.0000E+00  0.0000E+00  0.0000E+00  0.0000E+00
     -2.804  0.4456E-02  0.4449E-02  0.5320E-03  0.5303E-03  0.6950E-03  0.6922E-03  0.5320E-03  0.5303E-03  0.0000E+00  0.0000E+00  0.0000E+00  0.0000E+00  0.0000E+00  0.0000E+00  0.0000E+00  0.0000E+00  0.0000E+00  0.0000E+00
     -2.746  0.4157E-02  0.4157E-02  0.5300E-03  0.5295E-03  0.7151E-03  0.7122E-03  0.5300E-03  0.5295E-03  0.0000E+00  0.0000E+00  0.0000E+00  0.0000E+00  0.0000E+00  0.0000E+00  0.0000E+00  0.0000E+00  0.0000E+00  0.0000E+00
     -2.689  0.3885E-02  0.3878E-02  0.5475E-03  0.5438E-03  0.7263E-03  0.7253E-03  0.5475E-03  0.5438E-03  0.0000E+00  0.0000E+00  0.0000E+00  0.0000E+00  0.0000E+00  0.0000E+00  0.0000E+00  0.0000E+00  0.0000E+00  0.0000E+00
     -2.631  0.3905E-02  0.3883E-02  0.6664E-03  0.6579E-03  0.6966E-03  0.6958E-03  0.6664E-03  0.6579E-03  0.0000E+00  0.0000E+00  0.0000E+00  0.0000E+00  0.0000E+00  0.0000E+00  0.0000E+00  0.0000E+00  0.0000E+00  0.0000E+00
     -2.574  0.4203E-02  0.4172E-02  0.8302E-03  0.8224E-03  0.7714E-03  0.7616E-03  0.8302E-03  0.8224E-03  0.0000E+00  0.0000E+00  0.0000E+00  0.0000E+00  0.0000E+00  0.0000E+00  0.0000E+00  0.0000E+00  0.0000E+00  0.0000E+00
     -2.517  0.4452E-02  0.4431E-02  0.9100E-03  0.9071E-03  0.1031E-02  0.1016E-02  0.9100E-03  0.9071E-03  0.0000E+00  0.0000E+00  0.0000E+00  0.0000E+00  0.0000E+00  0.0000E+00  0.0000E+00  0.0000E+00  0.0000E+00  0.0000E+00
     -2.459  0.4442E-02  0.4430E-02  0.9286E-03  0.9256E-03  0.1270E-02  0.1260E-02  0.9286E-03  0.9256E-03  0.0000E+00  0.0000E+00  0.0000E+00  0.0000E+00  0.0000E+00  0.0000E+00  0.0000E+00  0.0000E+00  0.0000E+00  0.0000E+00
     -2.402  0.4318E-02  0.4311E-02  0.9770E-03  0.9735E-03  0.1333E-02  0.1329E-02  0.9770E-03  0.9735E-03  0.0000E+00  0.0000E+00  0.0000E+00  0.0000E+00  0.0000E+00  0.0000E+00  0.0000E+00  0.0000E+00  0.0000E+00  0.0000E+00
     -2.344  0.3965E-02  0.3973E-02  0.9596E-03  0.9611E-03  0.1376E-02  0.1369E-02  0.9596E-03  0.9611E-03  0.0000E+00  0.0000E+00  0.0000E+00  0.0000E+00  0.0000E+00  0.0000E+00  0.0000E+00  0.0000E+00  0.0000E+00  0.0000E+00
     -2.287  0.3453E-02  0.3459E-02  0.9230E-03  0.9201E-03  0.1467E-02  0.1461E-02  0.9230E-03  0.9201E-03  0.0000E+00  0.0000E+00  0.0000E+00  0.0000E+00  0.0000E+00  0.0000E+00  0.0000E+00  0.0000E+00  0.0000E+00  0.0000E+00
     -2.230  0.3314E-02  0.3296E-02  0.1115E-02  0.1100E-02  0.1498E-02  0.1493E-02  0.1115E-02  0.1100E-02  0.0000E+00  0.0000E+00  0.0000E+00  0.0000E+00  0.0000E+00  0.0000E+00  0.0000E+00  0.0000E+00  0.0000E+00  0.0000E+00
     -2.172  0.3643E-02  0.3611E-02  0.1481E-02  0.1464E-02  0.1610E-02  0.1597E-02  0.1481E-02  0.1464E-02  0.0000E+00  0.0000E+00  0.0000E+00  0.0000E+00  0.0000E+00  0.0000E+00  0.0000E+00  0.0000E+00  0.0000E+00  0.0000E+00
     -2.115  0.3905E-02  0.3888E-02  0.1729E-02  0.1721E-02  0.1859E-02  0.1844E-02  0.1729E-02  0.1721E-02  0.0000E+00  0.0000E+00  0.0000E+00  0.0000E+00  0.0000E+00  0.0000E+00  0.0000E+00  0.0000E+00  0.0000E+00  0.0000E+00
     -2.057  0.3668E-02  0.3672E-02  0.1780E-02  0.1777E-02  0.2008E-02  0.2003E-02  0.1780E-02  0.1777E-02  0.0000E+00  0.0000E+00  0.0000E+00  0.0000E+00  0.0000E+00  0.0000E+00  0.0000E+00  0.0000E+00  0.0000E+00  0.0000E+00
     -2.000  0.3180E-02  0.3191E-02  0.1793E-02  0.1791E-02  0.1865E-02  0.1873E-02  0.1793E-02  0.1791E-02  0.0000E+00  0.0000E+00  0.0000E+00  0.0000E+00  0.0000E+00  0.0000E+00  0.0000E+00  0.0000E+00  0.0000E+00  0.0000E+00
     -1.943  0.2623E-02  0.2636E-02  0.1682E-02  0.1686E-02  0.1554E-02  0.1561E-02  0.1682E-02  0.1686E-02  0.0000E+00  0.0000E+00  0.0000E+00  0.0000E+00  0.0000E+00  0.0000E+00  0.0000E+00  0.0000E+00  0.0000E+00  0.0000E+00
     -1.885  0.2199E-02  0.2200E-02  0.1497E-02  0.1498E-02  0.1430E-02  0.1426E-02  0.1497E-02  0.1498E-02  0.0000E+00  0.0000E+00  0.0000E+00  0.0000E+00  0.0000E+00  0.0000E+00  0.0000E+00  0.0000E+00  0.0000E+00  0.0000E+00
     -1.828  0.2197E-02  0.2180E-02  0.1483E-02  0.1476E-02  0.1538E-02  0.1527E-02  0.1483E-02  0.1476E-02  0.0000E+00  0.0000E+00  0.0000E+00  0.0000E+00  0.0000E+00  0.0000E+00  0.0000E+00  0.0000E+00  0.0000E+00  0.0000E+00
     -1.770  0.2453E-02  0.2432E-02  0.1592E-02  0.1584E-02  0.1759E-02  0.1746E-02  0.1592E-02  0.1584E-02  0.0000E+00  0.0000E+00  0.0000E+00  0.0000E+00  0.0000E+00  0.0000E+00  0.0000E+00  0.0000E+00  0.0000E+00  0.0000E+00
     -1.713  0.2518E-02  0.2511E-02  0.1590E-02  0.1589E-02  0.1849E-02  0.1845E-02  0.1590E-02  0.1589E-02  0.0000E+00  0.0000E+00  0.0000E+00  0.0000E+00  0.0000E+00  0.0000E+00  0.0000E+00  0.0000E+00  0.0000E+00  0.0000E+00