  16  16   1   0
  0.2005659E+02  0.4312385E-09  0.4312385E-09  0.1725608E-08  0.5000000E-15
  1.000000000000000E-004
  CAR 
 unknown system                          
     10.68825579     -4.87375041  301      4.57763310      1.00000000
     -4.874  0.0000E+00  0.0000E+00  0.0000E+00  0.0000E+00
     -4.822  0.0000E+00  0.0000E+00  0.0000E+00  0.0000E+00
     -4.770  0.0000E+00  0.0000E+00  0.0000E+00  0.0000E+00
     -4.718  0.0000E+00  0.0000E+00  0.0000E+00  0.0000E+00
     -4.666  0.0000E+00  0.0000E+00  0.0000E+00  0.0000E+00
     -4.614  0.4884E-05  0.4646E-05  0.2533E-06  0.2410E-06
     -4.563  0.4204E-04  0.4000E-04  0.2434E-05  0.2316E-05
     -4.511  0.1603E-03  0.1525E-03  0.1075E-04  0.1023E-04
     -4.459  0.4333E-03  0.4123E-03  0.3323E-04  0.3161E-04
     -4.407  0.1213E-02  0.1154E-02  0.9615E-04  0.9149E-04
     -4.355  0.3571E-02  0.3399E-02  0.2814E-03  0.2678E-03
     -4.303  0.9905E-02  0.9439E-02  0.7952E-03  0.7574E-03
     -4.251  0.2630E-01  0.2512E-01  0.2160E-02  0.2061E-02
     -4.199  0.6549E-01  0.6280E-01  0.5557E-02  0.5318E-02
     -4.148  0.1410E+00  0.1366E+00  0.1287E-01  0.1240E-01
     -4.096  0.2485E+00  0.2431E+00  0.2576E-01  0.2501E-01
     -4.044  0.3577E+00  0.3528E+00  0.4432E-01  0.4332E-01
     -3.992  0.4595E+00  0.4545E+00  0.6816E-01  0.6689E-01
     -3.940  0.5691E+00  0.5642E+00  0.9768E-01  0.9616E-01
     -3.888  0.6450E+00  0.6430E+00  0.1311E+00  0.1295E+00
     -3.836  0.6680E+00  0.6669E+00  0.1658E+00  0.1641E+00
     -3.784  0.7326E+00  0.7279E+00  0.2038E+00  0.2019E+00
     -3.733  0.8452E+00  0.8407E+00  0.2476E+00  0.2455E+00
     -3.681  0.9029E+00  0.9021E+00  0.2945E+00  0.2923E+00
     -3.629  0.9166E+00  0.9161E+00  0.3420E+00  0.3398E+00
     -3.577  0.9618E+00  0.9592E+00  0.3919E+00  0.3896E+00
     -3.525  0.1014E+01  0.1012E+01  0.4445E+00  0.4421E+00
     -3.473  0.1024E+01  0.1024E+01  0.4977E+00  0.4953E+00
     -3.421  0.1072E+01  0.1068E+01  0.5533E+00  0.5507E+00
     -3.369  0.1185E+01  0.1180E+01  0.6148E+00  0.6119E+00
     -3.318  0.1275E+01  0.1272E+01  0.6810E+00  0.6780E+00
     -3.266  0.1303E+01  0.1303E+01  0.7486E+00  0.7456E+00
     -3.214  0.1269E+01  0.1271E+01  0.8144E+00  0.8116E+00
     -3.162  0.1235E+01  0.1236E+01  0.8785E+00  0.8757E+00
     -3.110  0.1277E+01  0.1273E+01  0.9448E+00  0.9418E+00
     -3.058  0.1408E+01  0.1402E+01  0.1018E+01  0.1015E+01
     -3.006  0.1557E+01  0.1553E+01  0.1099E+01  0.1095E+01
     -2.954  0.1643E+01  0.1641E+01  0.1184E+01  0.1180E+01
     -2.903  0.1671E+01  0.1671E+01  0.1271E+01  0.1267E+01
     -2.851  0.1634E+01  0.1638E+01  0.1355E+01  0.1352E+01
     -2.799  0.1570E+01  0.1572E+01  0.1437E+01  0.1434E+01
     -2.747  0.1623E+01  0.1619E+01  0.1521E+01  0.1518E+01
     -2.695  0.1849E+01  0.1839E+01  0.1617E+01  0.1613E+01
     -2.643  0.2092E+01  0.2085E+01  0.1726E+01  0.1721E+01
     -2.591  0.2166E+01  0.2168E+01  0.1838E+01  0.1834E+01
     -2.539  0.2085E+01  0.2092E+01  0.1946E+01  0.1942E+01
     -2.488  0.1890E+01  0.1899E+01  0.2044E+01  0.2041E+01
     -2.436  0.1687E+01  0.1693E+01  0.2132E+01  0.2129E+01
     -2.384  0.1653E+01  0.1651E+01  0.2218E+01  0.2214E+01
     -2.332  0.1769E+01  0.1763E+01  0.2310E+01  0.2306E+01
     -2.280  0.1832E+01  0.1832E+01  0.2405E+01  0.2401E+01
     -2.228  0.1722E+01  0.1728E+01  0.2494E+01  0.2491E+01
     -2.176  0.1548E+01  0.1554E+01  0.2574E+01  0.2572E+01
     -2.124  0.1386E+01  0.1391E+01  0.2646E+01  0.2644E+01
     -2.073  0.1339E+01  0.1337E+01  0.2716E+01  0.2713E+01
     -2.021  0.1484E+01  0.1476E+01  0.2793E+01  0.2790E+01
     -1.969  0.1681E+01  0.1675E+01  0.2880E+01  0.2877E+01
     -1.917  0.1741E+01  0.1742E+01  0.2971E+01  0.2967E+01
     -1.865  0.1630E+01  0.1636E+01  0.3055E+01  0.3052E+01
     -1.813  0.1416E+01  0.1425E+01  0.3129E+01  0.3126E+01
     -1.761  0.1221E+01  0.1226E+01  0.3192E+01  0.3190E+01
     -1.709  0.1175E+01  0.1173E+01  0.3253E+01  0.3251E+01
     -1.658  0.1292E+01  0.1286E+01  0.3320E+01  0.3317E+01
     -1.606  0.1401E+01  0.1398E+01  0.3393E+01  0.3390E+01
     -1.554  0.1404E+01  0.1404E+01  0.3466E+01  0.3463E+01
     -1.502  0.1355E+01  0.1354E+01  0.3536E+01  0.3533E+01
     -1.450  0.1345E+01  0.1342E+01  0.3606E+01  0.3603E+01
     -1.398  0.1386E+01  0.1380E+01  0.3678E+01  0.3674E+01
     -1.346  0.1523E+01  0.1513E+01  0.3757E+01  0.3753E+01
     -1.294  0.1727E+01  0.1717E+01  0.3847E+01  0.3842E+01
     -1.243  0.1935E+01  0.1925E+01  0.3947E+01  0.3942E+01
     -1.191  0.2137E+01  0.2127E+01  0.4058E+01  0.4052E+01
     -1.139  0.2347E+01  0.2336E+01  0.4180E+01  0.4174E+01
     -1.087  0.2564E+01  0.2552E+01  0.4313E+01  0.4306E+01
     -1.035  0.2726E+01  0.2722E+01  0.4454E+01  0.4447E+01
     -0.983  0.2714E+01  0.2721E+01  0.4595E+01  0.4588E+01
     -0.931  0.2560E+01  0.2570E+01  0.4728E+01  0.4722E+01
     -0.880  0.2356E+01  0.2368E+01  0.4850E+01  0.4845E+01
     -0.828  0.2075E+01  0.2087E+01  0.4958E+01  0.4953E+01
     -0.776  0.1905E+01  0.1908E+01  0.5057E+01  0.5052E+01
     -0.724  0.1930E+01  0.1928E+01  0.5157E+01  0.5152E+01
     -0.672  0.1993E+01  0.1991E+01  0.5260E+01  0.5256E+01
     -0.620  0.2101E+01  0.2092E+01  0.5370E+01  0.5364E+01
     -0.568  0.2385E+01  0.2368E+01  0.5493E+01  0.5487E+01
     -0.516  0.2683E+01  0.2674E+01  0.5633E+01  0.5626E+01
     -0.465  0.2729E+01  0.2734E+01  0.5774E+01  0.5768E+01
     -0.413  0.2603E+01  0.2612E+01  0.5909E+01  0.5903E+01
     -0.361  0.2438E+01  0.2450E+01  0.6036E+01  0.6030E+01
     -0.309  0.2127E+01  0.2146E+01  0.6146E+01  0.6142E+01
     -0.257  0.1737E+01  0.1752E+01  0.6236E+01  0.6233E+01
     -0.205  0.1521E+01  0.1526E+01  0.6315E+01  0.6312E+01
     -0.153  0.1533E+01  0.1531E+01  0.6395E+01  0.6392E+01
     -0.101  0.1653E+01  0.1648E+01  0.6481E+01  0.6477E+01
     -0.050  0.1763E+01  0.1757E+01  0.6572E+01  0.6568E+01
      0.002  0.1817E+01  0.1810E+01  0.6667E+01  0.6662E+01
      0.054  0.1830E+01  0.1824E+01  0.6762E+01  0.6757E+01
      0.106  0.1884E+01  0.1874E+01  0.6859E+01  0.6854E+01
      0.158  0.2147E+01  0.2127E+01  0.6971E+01  0.6965E+01
      0.210  0.2567E+01  0.2544E+01  0.7104E+01  0.7097E+01
      0.262  0.2875E+01  0.2863E+01  0.7253E+01  0.7245E+01
      0.314  0.2963E+01  0.2962E+01  0.7407E+01  0.7399E+01
      0.365  0.2950E+01  0.2951E+01  0.7560E+01  0.7552E+01
      0.417  0.2885E+01  0.2887E+01  0.7710E+01  0.7702E+01
      0.469  0.2739E+01  0.2745E+01  0.7852E+01  0.7844E+01
      0.521  0.2593E+01  0.2595E+01  0.7987E+01  0.7979E+01
      0.573  0.2614E+01  0.2607E+01  0.8122E+01  0.8114E+01
      0.625  0.2730E+01  0.2723E+01  0.8264E+01  0.8256E+01
      0.677  0.2860E+01  0.2855E+01  0.8412E+01  0.8404E+01
      0.729  0.2917E+01  0.2922E+01  0.8564E+01  0.8556E+01
      0.780  0.2824E+01  0.2837E+01  0.8710E+01  0.8703E+01
      0.832  0.2668E+01  0.2684E+01  0.8849E+01  0.8842E+01
      0.884  0.2550E+01  0.2561E+01  0.8981E+01  0.8975E+01
      0.936  0.2488E+01  0.2494E+01  0.9110E+01  0.9104E+01
      0.988  0.2391E+01  0.2397E+01  0.9235E+01  0.9229E+01
      1.040  0.2201E+01  0.2210E+01  0.9349E+01  0.9344E+01
      1.092  0.2041E+01  0.2047E+01  0.9455E+01  0.9450E+01
      1.144  0.2039E+01  0.2038E+01  0.9561E+01  0.9556E+01
      1.195  0.2114E+01  0.2112E+01  0.9670E+01  0.9665E+01
      1.247  0.2096E+01  0.2099E+01  0.9779E+01  0.9774E+01
      1.299  0.1954E+01  0.1959E+01  0.9881E+01  0.9876E+01
      1.351  0.1806E+01  0.1809E+01  0.9974E+01  0.9970E+01
      1.403  0.1747E+01  0.1742E+01  0.1007E+02  0.1006E+02
      1.455  0.1900E+01  0.1880E+01  0.1016E+02  0.1016E+02
      1.507  0.2259E+01  0.2233E+01  0.1028E+02  0.1027E+02
      1.559  0.2584E+01  0.2566E+01  0.1041E+02  0.1041E+02
      1.610  0.2763E+01  0.2754E+01  0.1056E+02  0.1055E+02
      1.662  0.2896E+01  0.2890E+01  0.1071E+02  0.1070E+02
      1.714  0.2987E+01  0.2984E+01  0.1086E+02  0.1085E+02
      1.766  0.2999E+01  0.2998E+01  0.1102E+02  0.1101E+02
      1.818  0.2921E+01  0.2923E+01  0.1117E+02  0.1116E+02
      1.870  0.2815E+01  0.2817E+01  0.1132E+02  0.1131E+02
      1.922  0.2734E+01  0.2738E+01  0.1146E+02  0.1145E+02
      1.974  0.2593E+01  0.2603E+01  0.1159E+02  0.1159E+02
      2.025  0.2443E+01  0.2444E+01  0.1172E+02  0.1171E+02
      2.077  0.2494E+01  0.2476E+01  0.1185E+02  0.1184E+02
      2.129  0.2802E+01  0.2775E+01  0.1200E+02  0.1198E+02
      2.181  0.3086E+01  0.3074E+01  0.1216E+02  0.1214E+02
      2.233  0.3188E+01  0.3188E+01  0.1232E+02  0.1231E+02
      2.285  0.3250E+01  0.3249E+01  0.1249E+02  0.1248E+02
      2.337  0.3252E+01  0.3257E+01  0.1266E+02  0.1265E+02
      2.389  0.3140E+01  0.3145E+01  0.1282E+02  0.1281E+02
      2.440  0.3165E+01  0.3152E+01  0.1299E+02  0.1297E+02
      2.492  0.3416E+01  0.3400E+01  0.1316E+02  0.1315E+02
      2.544  0.3496E+01  0.3503E+01  0.1334E+02  0.1333E+02
      2.596  0.3314E+01  0.3329E+01  0.1352E+02  0.1351E+02
      2.648  0.3221E+01  0.3223E+01  0.1368E+02  0.1367E+02
      2.700  0.3268E+01  0.3262E+01  0.1385E+02  0.1384E+02
      2.752  0.3359E+01  0.3350E+01  0.1403E+02  0.1402E+02
      2.804  0.3405E+01  0.3401E+01  0.1420E+02  0.1419E+02
      2.855  0.3407E+01  0.3401E+01  0.1438E+02  0.1437E+02
      2.907  0.3569E+01  0.3554E+01  0.1457E+02  0.1455E+02
      2.959  0.3772E+01  0.3770E+01  0.1476E+02  0.1475E+02
      3.011  0.3690E+01  0.3711E+01  0.1495E+02  0.1494E+02
      3.063  0.3433E+01  0.3451E+01  0.1513E+02  0.1512E+02
      3.115  0.3355E+01  0.3356E+01  0.1531E+02  0.1529E+02
      3.167  0.3343E+01  0.3346E+01  0.1548E+02  0.1547E+02
      3.218  0.3227E+01  0.3234E+01  0.1565E+02  0.1564E+02
      3.270  0.3089E+01  0.3096E+01  0.1581E+02  0.1580E+02
      3.322  0.2981E+01  0.2985E+01  0.1596E+02  0.1595E+02
      3.374  0.2991E+01  0.2983E+01  0.1612E+02  0.1611E+02
      3.426  0.3225E+01  0.3197E+01  0.1628E+02  0.1627E+02
      3.478  0.3705E+01  0.3669E+01  0.1648E+02  0.1646E+02
      3.530  0.4098E+01  0.4087E+01  0.1669E+02  0.1668E+02
      3.582  0.3950E+01  0.3982E+01  0.1689E+02  0.1688E+02
      3.633  0.3378E+01  0.3419E+01  0.1707E+02  0.1706E+02
      3.685  0.3000E+01  0.3016E+01  0.1723E+02  0.1722E+02
      3.737  0.2997E+01  0.3000E+01  0.1738E+02  0.1737E+02
      3.789  0.3033E+01  0.3039E+01  0.1754E+02  0.1753E+02
      3.841  0.2987E+01  0.2990E+01  0.1769E+02  0.1768E+02
      3.893  0.2981E+01  0.2975E+01  0.1785E+02  0.1784E+02
      3.945  0.3062E+01  0.3051E+01  0.1801E+02  0.1800E+02
      3.997  0.3203E+01  0.3187E+01  0.1817E+02  0.1816E+02
      4.048  0.3301E+01  0.3293E+01  0.1834E+02  0.1833E+02
      4.100  0.3214E+01  0.3224E+01  0.1851E+02  0.1850E+02
      4.152  0.3003E+01  0.3018E+01  0.1867E+02  0.1866E+02
      4.204  0.2843E+01  0.2849E+01  0.1882E+02  0.1881E+02
      4.256  0.2801E+01  0.2798E+01  0.1896E+02  0.1895E+02
      4.308  0.2876E+01  0.2863E+01  0.1911E+02  0.1910E+02
      4.360  0.3118E+01  0.3100E+01  0.1927E+02  0.1926E+02
      4.412  0.3378E+01  0.3370E+01  0.1945E+02  0.1944E+02
      4.463  0.3457E+01  0.3461E+01  0.1963E+02  0.1961E+02
      4.515  0.3397E+01  0.3402E+01  0.1980E+02  0.1979E+02
      4.567  0.3272E+01  0.3279E+01  0.1997E+02  0.1996E+02
      4.619  0.3056E+01  0.3071E+01  0.2013E+02  0.2012E+02
      4.671  0.2849E+01  0.2860E+01  0.2028E+02  0.2027E+02
      4.723  0.2830E+01  0.2827E+01  0.2043E+02  0.2042E+02
      4.775  0.3040E+01  0.3023E+01  0.2058E+02  0.2057E+02
      4.827  0.3300E+01  0.3279E+01  0.2075E+02  0.2074E+02
      4.878  0.3430E+01  0.3411E+01  0.2093E+02  0.2092E+02
      4.930  0.3501E+01  0.3485E+01  0.2111E+02  0.2110E+02
      4.982  0.3573E+01  0.3570E+01  0.2130E+02  0.2129E+02
      5.034  0.3572E+01  0.3584E+01  0.2149E+02  0.2147E+02
      5.086  0.3521E+01  0.3532E+01  0.2167E+02  0.2166E+02
      5.138  0.3366E+01  0.3382E+01  0.2184E+02  0.2183E+02
      5.190  0.3008E+01  0.3034E+01  0.2200E+02  0.2199E+02
      5.242  0.2690E+01  0.2701E+01  0.2214E+02  0.2213E+02
      5.293  0.2811E+01  0.2784E+01  0.2228E+02  0.2227E+02
      5.345  0.3400E+01  0.3347E+01  0.2246E+02  0.2245E+02
      5.397  0.4050E+01  0.4008E+01  0.2267E+02  0.2266E+02
      5.449  0.4385E+01  0.4376E+01  0.2290E+02  0.2288E+02
      5.501  0.4332E+01  0.4352E+01  0.2312E+02  0.2311E+02
      5.553  0.4067E+01  0.4094E+01  0.2333E+02  0.2332E+02
      5.605  0.3791E+01  0.3813E+01  0.2353E+02  0.2352E+02
      5.657  0.3494E+01  0.3517E+01  0.2371E+02  0.2370E+02
      5.708  0.3240E+01  0.3254E+01  0.2388E+02  0.2387E+02
      5.760  0.3114E+01  0.3113E+01  0.2404E+02  0.2403E+02
      5.812  0.3168E+01  0.3154E+01  0.2421E+02  0.2420E+02
      5.864  0.3377E+01  0.3364E+01  0.2438E+02  0.2437E+02
      5.916  0.3556E+01  0.3549E+01  0.2457E+02  0.2455E+02
      5.968  0.3643E+01  0.3637E+01  0.2476E+02  0.2474E+02
      6.020  0.3758E+01  0.3740E+01  0.2495E+02  0.2494E+02
      6.072  0.3908E+01  0.3895E+01  0.2515E+02  0.2514E+02
      6.123  0.3872E+01  0.3882E+01  0.2535E+02  0.2534E+02
      6.175  0.3741E+01  0.3752E+01  0.2555E+02  0.2554E+02
      6.227  0.3623E+01  0.3634E+01  0.2574E+02  0.2572E+02
      6.279  0.3488E+01  0.3501E+01  0.2592E+02  0.2591E+02
      6.331  0.3450E+01  0.3453E+01  0.2610E+02  0.2609E+02
      6.383  0.3567E+01  0.3554E+01  0.2628E+02  0.2627E+02
      6.435  0.3841E+01  0.3815E+01  0.2648E+02  0.2647E+02
      6.487  0.4096E+01  0.4082E+01  0.2669E+02  0.2668E+02
      6.538  0.4068E+01  0.4077E+01  0.2691E+02  0.2689E+02
      6.590  0.3902E+01  0.3909E+01  0.2711E+02  0.2709E+02
      6.642  0.3845E+01  0.3842E+01  0.2731E+02  0.2729E+02
      6.694  0.3732E+01  0.3740E+01  0.2750E+02  0.2749E+02
      6.746  0.3437E+01  0.3450E+01  0.2768E+02  0.2767E+02
      6.798  0.3259E+01  0.3254E+01  0.2785E+02  0.2784E+02
      6.850  0.3417E+01  0.3390E+01  0.2803E+02  0.2801E+02
      6.902  0.3791E+01  0.3760E+01  0.2822E+02  0.2821E+02
      6.953  0.4118E+01  0.4102E+01  0.2844E+02  0.2842E+02
      7.005  0.4243E+01  0.4251E+01  0.2866E+02  0.2864E+02
      7.057  0.4212E+01  0.4225E+01  0.2888E+02  0.2886E+02
      7.109  0.4255E+01  0.4254E+01  0.2910E+02  0.2908E+02
      7.161  0.4361E+01  0.4353E+01  0.2932E+02  0.2931E+02
      7.213  0.4423E+01  0.4418E+01  0.2955E+02  0.2954E+02
      7.265  0.4327E+01  0.4335E+01  0.2978E+02  0.2976E+02
      7.316  0.4052E+01  0.4071E+01  0.2999E+02  0.2997E+02
      7.368  0.3736E+01  0.3752E+01  0.3018E+02  0.3017E+02
      7.420  0.3598E+01  0.3598E+01  0.3037E+02  0.3035E+02
      7.472  0.3719E+01  0.3702E+01  0.3056E+02  0.3055E+02
      7.524  0.4118E+01  0.4085E+01  0.3077E+02  0.3076E+02
      7.576  0.4603E+01  0.4578E+01  0.3101E+02  0.3099E+02
      7.628  0.4792E+01  0.4795E+01  0.3126E+02  0.3124E+02
      7.680  0.4654E+01  0.4671E+01  0.3150E+02  0.3149E+02
      7.731  0.4429E+01  0.4444E+01  0.3173E+02  0.3172E+02
      7.783  0.4229E+01  0.4244E+01  0.3195E+02  0.3194E+02
      7.835  0.4083E+01  0.4100E+01  0.3216E+02  0.3215E+02
      7.887  0.4008E+01  0.4028E+01  0.3237E+02  0.3236E+02
      7.939  0.4037E+01  0.4056E+01  0.3258E+02  0.3257E+02
      7.991  0.4154E+01  0.4167E+01  0.3280E+02  0.3279E+02
      8.043  0.4190E+01  0.4183E+01  0.3302E+02  0.3300E+02
      8.095  0.4060E+01  0.4036E+01  0.3323E+02  0.3321E+02
      8.146  0.3781E+01  0.3745E+01  0.3342E+02  0.3341E+02
      8.198  0.3599E+01  0.3543E+01  0.3361E+02  0.3359E+02
      8.250  0.3645E+01  0.3594E+01  0.3380E+02  0.3378E+02
      8.302  0.3669E+01  0.3652E+01  0.3399E+02  0.3397E+02
      8.354  0.3609E+01  0.3616E+01  0.3418E+02  0.3415E+02
      8.406  0.3593E+01  0.3605E+01  0.3436E+02  0.3434E+02
      8.458  0.3486E+01  0.3539E+01  0.3454E+02  0.3453E+02
      8.510  0.3094E+01  0.3218E+01  0.3470E+02  0.3469E+02
      8.561  0.2569E+01  0.2701E+01  0.3484E+02  0.3483E+02
      8.613  0.2135E+01  0.2188E+01  0.3495E+02  0.3495E+02
      8.665  0.1831E+01  0.1817E+01  0.3504E+02  0.3504E+02
      8.717  0.1652E+01  0.1633E+01  0.3513E+02  0.3513E+02
      8.769  0.1577E+01  0.1567E+01  0.3521E+02  0.3521E+02
      8.821  0.1554E+01  0.1548E+01  0.3529E+02  0.3529E+02
      8.873  0.1477E+01  0.1475E+01  0.3537E+02  0.3536E+02
      8.925  0.1355E+01  0.1346E+01  0.3544E+02  0.3543E+02
      8.976  0.1234E+01  0.1203E+01  0.3550E+02  0.3550E+02
      9.028  0.1127E+01  0.1078E+01  0.3556E+02  0.3555E+02
      9.080  0.1014E+01  0.9834E+00  0.3561E+02  0.3560E+02
      9.132  0.8539E+00  0.8819E+00  0.3566E+02  0.3565E+02
      9.184  0.6253E+00  0.6965E+00  0.3569E+02  0.3569E+02
      9.236  0.4427E+00  0.5005E+00  0.3571E+02  0.3571E+02
      9.288  0.3799E+00  0.4094E+00  0.3573E+02  0.3573E+02
      9.340  0.3964E+00  0.4069E+00  0.3575E+02  0.3575E+02
      9.391  0.4630E+00  0.4680E+00  0.3578E+02  0.3578E+02
      9.443  0.5351E+00  0.5451E+00  0.3581E+02  0.3581E+02
      9.495  0.5417E+00  0.5457E+00  0.3583E+02  0.3583E+02
      9.547  0.4851E+00  0.4756E+00  0.3586E+02  0.3586E+02
      9.599  0.4170E+00  0.4094E+00  0.3588E+02  0.3588E+02
      9.651  0.3277E+00  0.3299E+00  0.3590E+02  0.3590E+02
      9.703  0.2265E+00  0.2318E+00  0.3591E+02  0.3591E+02
      9.755  0.1869E+00  0.1906E+00  0.3592E+02  0.3592E+02
      9.806  0.2264E+00  0.2307E+00  0.3593E+02  0.3593E+02
      9.858  0.3052E+00  0.3093E+00  0.3595E+02  0.3595E+02
      9.910  0.3574E+00  0.3545E+00  0.3597E+02  0.3597E+02
      9.962  0.3078E+00  0.3016E+00  0.3598E+02  0.3598E+02
     10.014  0.1902E+00  0.1893E+00  0.3599E+02  0.3599E+02
     10.066  0.9164E-01  0.9441E-01  0.3600E+02  0.3600E+02
     10.118  0.3750E-01  0.3978E-01  0.3600E+02  0.3600E+02
     10.170  0.1409E-01  0.1518E-01  0.3600E+02  0.3600E+02
     10.221  0.5011E-02  0.5432E-02  0.3600E+02  0.3600E+02
     10.273  0.1632E-02  0.1780E-02  0.3600E+02  0.3600E+02
     10.325  0.2235E-03  0.2824E-03  0.3600E+02  0.3600E+02
     10.377  0.0000E+00  0.1003E-03  0.3600E+02  0.3600E+02
     10.429  0.0000E+00  0.0000E+00  0.3600E+02  0.3600E+02
     10.481  0.0000E+00  0.0000E+00  0.3600E+02  0.3600E+02
     10.533  0.0000E+00  0.0000E+00  0.3600E+02  0.3600E+02
     10.585  0.0000E+00  0.0000E+00  0.3600E+02  0.3600E+02
     10.636  0.0000E+00  0.0000E+00  0.3600E+02  0.3600E+02
     10.688  0.0000E+00  0.0000E+00  0.3600E+02  0.3600E+02
     10.68825579     -4.87375041  301      4.57763310      1.00000000
     -4.874  0.0000E+00  0.0000E+00  0.0000E+00  0.0000E+00  0.0000E+00  0.0000E+00  0.0000E+00  0.0000E+00  0.0000E+00  0.0000E+00  0.0000E+00  0.0000E+00  0.0000E+00  0.0000E+00  0.0000E+00  0.0000E+00  0.0000E+00  0.0000E+00
     -4.822  0.0000E+00  0.0000E+00  0.0000E+00  0.0000E+00  0.0000E+00  0.0000E+00  0.0000E+00  0.0000E+00  0.0000E+00  0.0000E+00  0.0000E+00  0.0000E+00  0.0000E+00  0.0000E+00  0.0000E+00  0.0000E+00  0.0000E+00  0.0000E+00
     -4.770  0.0000E+00  0.0000E+00  0.0000E+00  0.0000E+00  0.0000E+00  0.0000E+00  0.0000E+00  0.0000E+00  0.0000E+00  0.0000E+00  0.0000E+00  0.0000E+00  0.0000E+00  0.0000E+00  0.0000E+00  0.0000E+00  0.0000E+00  0.0000E+00
     -4.718  0.0000E+00  0.0000E+00  0.0000E+00  0.0000E+00  0.0000E+00  0.0000E+00  0.0000E+00  0.0000E+00  0.0000E+00  0.0000E+00  0.0000E+00  0.0000E+00  0.0000E+00  0.0000E+00  0.0000E+00  0.0000E+00  0.0000E+00  0.0000E+00
     -4.666  0.0000E+00  0.0000E+00  0.0000E+00  0.0000E+00  0.0000E+00  0.0000E+00  0.0000E+00  0.0000E+00  0.0000E+00  0.0000E+00  0.0000E+00  0.0000E+00  0.0000E+00  0.0000E+00  0.0000E+00  0.0000E+00  0.0000E+00  0.0000E+00
     -4.614  0.2071E-07  0.1962E-07  0.2771E-20  0.4855E-20  0.3870E-11  0.3344E-11  0.2771E-20  0.4855E-20  0.0000E+00  0.0000E+00  0.0000E+00  0.0000E+00  0.0000E+00  0.0000E+00  0.0000E+00  0.0000E+00  0.0000E+00  0.0000E+00
     -4.563  0.1762E-06  0.1670E-06  0.6201E-09  0.5879E-09  0.7272E-09  0.6861E-09  0.6201E-09  0.5879E-09  0.0000E+00  0.0000E+00  0.0000E+00  0.0000E+00  0.0000E+00  0.0000E+00  0.0000E+00  0.0000E+00  0.0000E+00  0.0000E+00
     -4.511  0.6666E-06  0.6316E-06  0.3848E-08  0.3648E-08  0.4642E-08  0.4388E-08  0.3848E-08  0.3648E-08  0.0000E+00  0.0000E+00  0.0000E+00  0.0000E+00  0.0000E+00  0.0000E+00  0.0000E+00  0.0000E+00  0.0000E+00  0.0000E+00
     -4.459  0.1799E-05  0.1705E-05  0.1110E-07  0.1053E-07  0.1363E-07  0.1289E-07  0.1110E-07  0.1053E-07  0.0000E+00  0.0000E+00  0.0000E+00  0.0000E+00  0.0000E+00  0.0000E+00  0.0000E+00  0.0000E+00  0.0000E+00  0.0000E+00
     -4.407  0.5034E-05  0.4771E-05  0.3247E-07  0.3079E-07  0.3779E-07  0.3573E-07  0.3247E-07  0.3079E-07  0.0000E+00  0.0000E+00  0.0000E+00  0.0000E+00  0.0000E+00  0.0000E+00  0.0000E+00  0.0000E+00  0.0000E+00  0.0000E+00
     -4.355  0.1478E-04  0.1401E-04  0.1090E-06  0.1034E-06  0.1234E-06  0.1167E-06  0.1090E-06  0.1034E-06  0.0000E+00  0.0000E+00  0.0000E+00  0.0000E+00  0.0000E+00  0.0000E+00  0.0000E+00  0.0000E+00  0.0000E+00  0.0000E+00
     -4.303  0.4096E-04  0.3887E-04  0.3107E-06  0.2949E-06  0.3546E-06  0.3356E-06  0.3107E-06  0.2949E-06  0.0000E+00  0.0000E+00  0.0000E+00  0.0000E+00  0.0000E+00  0.0000E+00  0.0000E+00  0.0000E+00  0.0000E+00  0.0000E+00
     -4.251  0.1087E-03  0.1034E-03  0.8327E-06  0.7912E-06  0.9468E-06  0.8971E-06  0.8327E-06  0.7912E-06  0.0000E+00  0.0000E+00  0.0000E+00  0.0000E+00  0.0000E+00  0.0000E+00  0.0000E+00  0.0000E+00  0.0000E+00  0.0000E+00
     -4.199  0.2702E-03  0.2581E-03  0.2230E-05  0.2116E-05  0.2551E-05  0.2405E-05  0.2230E-05  0.2116E-05  0.0000E+00  0.0000E+00  0.0000E+00  0.0000E+00  0.0000E+00  0.0000E+00  0.0000E+00  0.0000E+00  0.0000E+00  0.0000E+00
     -4.148  0.5798E-03  0.5593E-03  0.5404E-05  0.5187E-05  0.6160E-05  0.5907E-05  0.5404E-05  0.5187E-05  0.0000E+00  0.0000E+00  0.0000E+00  0.0000E+00  0.0000E+00  0.0000E+00  0.0000E+00  0.0000E+00  0.0000E+00  0.0000E+00
     -4.096  0.1015E-02  0.9894E-03  0.1144E-04  0.1104E-04  0.1298E-04  0.1251E-04  0.1144E-04  0.1104E-04  0.0000E+00  0.0000E+00  0.0000E+00  0.0000E+00  0.0000E+00  0.0000E+00  0.0000E+00  0.0000E+00  0.0000E+00  0.0000E+00
     -4.044  0.1446E-02  0.1421E-02  0.2096E-04  0.2035E-04  0.2329E-04  0.2259E-04  0.2096E-04  0.2035E-04  0.0000E+00  0.0000E+00  0.0000E+00  0.0000E+00  0.0000E+00  0.0000E+00  0.0000E+00  0.0000E+00  0.0000E+00  0.0000E+00
     -3.992  0.1831E-02  0.1805E-02  0.3473E-04  0.3386E-04  0.3839E-04  0.3733E-04  0.3473E-04  0.3386E-04  0.0000E+00  0.0000E+00  0.0000E+00  0.0000E+00  0.0000E+00  0.0000E+00  0.0000E+00  0.0000E+00  0.0000E+00  0.0000E+00
     -3.940  0.2234E-02  0.2207E-02  0.5210E-04  0.5109E-04  0.5994E-04  0.5854E-04  0.5210E-04  0.5109E-04  0.0000E+00  0.0000E+00  0.0000E+00  0.0000E+00  0.0000E+00  0.0000E+00  0.0000E+00  0.0000E+00  0.0000E+00  0.0000E+00
     -3.888  0.2496E-02  0.2480E-02  0.6839E-04  0.6745E-04  0.8129E-04  0.8004E-04  0.6839E-04  0.6745E-04  0.0000E+00  0.0000E+00  0.0000E+00  0.0000E+00  0.0000E+00  0.0000E+00  0.0000E+00  0.0000E+00  0.0000E+00  0.0000E+00
     -3.836  0.2538E-02  0.2526E-02  0.8514E-04  0.8390E-04  0.9703E-04  0.9578E-04  0.8514E-04  0.8390E-04  0.0000E+00  0.0000E+00  0.0000E+00  0.0000E+00  0.0000E+00  0.0000E+00  0.0000E+00  0.0000E+00  0.0000E+00  0.0000E+00
     -3.784  0.2722E-02  0.2695E-02  0.1135E-03  0.1116E-03  0.1206E-03  0.1186E-03  0.1135E-03  0.1116E-03  0.0000E+00  0.0000E+00  0.0000E+00  0.0000E+00  0.0000E+00  0.0000E+00  0.0000E+00  0.0000E+00  0.0000E+00  0.0000E+00
     -3.733  0.3079E-02  0.3052E-02  0.1481E-03  0.1462E-03  0.1577E-03  0.1551E-03  0.1481E-03  0.1462E-03  0.0000E+00  0.0000E+00  0.0000E+00  0.0000E+00  0.0000E+00  0.0000E+00  0.0000E+00  0.0000E+00  0.0000E+00  0.0000E+00
     -3.681  0.3230E-02  0.3216E-02  0.1701E-03  0.1689E-03  0.1953E-03  0.1929E-03  0.1701E-03  0.1689E-03  0.0000E+00  0.0000E+00  0.0000E+00  0.0000E+00  0.0000E+00  0.0000E+00  0.0000E+00  0.0000E+00  0.0000E+00  0.0000E+00
     -3.629  0.3212E-02  0.3199E-02  0.1861E-03  0.1846E-03  0.2287E-03  0.2264E-03  0.1861E-03  0.1846E-03  0.0000E+00  0.0000E+00  0.0000E+00  0.0000E+00  0.0000E+00  0.0000E+00  0.0000E+00  0.0000E+00  0.0000E+00  0.0000E+00
     -3.577  0.3299E-02  0.3278E-02  0.2156E-03  0.2134E-03  0.2613E-03  0.2588E-03  0.2156E-03  0.2134E-03  0.0000E+00  0.0000E+00  0.0000E+00  0.0000E+00  0.0000E+00  0.0000E+00  0.0000E+00  0.0000E+00  0.0000E+00  0.0000E+00
     -3.525  0.3403E-02  0.3387E-02  0.2506E-03  0.2485E-03  0.2907E-03  0.2885E-03  0.2506E-03  0.2485E-03  0.0000E+00  0.0000E+00  0.0000E+00  0.0000E+00  0.0000E+00  0.0000E+00  0.0000E+00  0.0000E+00  0.0000E+00  0.0000E+00
     -3.473  0.3355E-02  0.3344E-02  0.2830E-03  0.2806E-03  0.3042E-03  0.3027E-03  0.2830E-03  0.2806E-03  0.0000E+00  0.0000E+00  0.0000E+00  0.0000E+00  0.0000E+00  0.0000E+00  0.0000E+00  0.0000E+00  0.0000E+00  0.0000E+00
     -3.421  0.3411E-02  0.3387E-02  0.3314E-03  0.3280E-03  0.3300E-03  0.3265E-03  0.3314E-03  0.3280E-03  0.0000E+00  0.0000E+00  0.0000E+00  0.0000E+00  0.0000E+00  0.0000E+00  0.0000E+00  0.0000E+00  0.0000E+00  0.0000E+00
     -3.369  0.3667E-02  0.3638E-02  0.3839E-03  0.3810E-03  0.4108E-03  0.4049E-03  0.3839E-03  0.3810E-03  0.0000E+00  0.0000E+00  0.0000E+00  0.0000E+00  0.0000E+00  0.0000E+00  0.0000E+00  0.0000E+00  0.0000E+00  0.0000E+00
     -3.318  0.3845E-02  0.3823E-02  0.4171E-03  0.4149E-03  0.5104E-03  0.5049E-03  0.4171E-03  0.4149E-03  0.0000E+00  0.0000E+00  0.0000E+00  0.0000E+00  0.0000E+00  0.0000E+00  0.0000E+00  0.0000E+00  0.0000E+00  0.0000E+00
     -3.266  0.3834E-02  0.3821E-02  0.4397E-03  0.4380E-03  0.5683E-03  0.5650E-03  0.4397E-03  0.4380E-03  0.0000E+00  0.0000E+00  0.0000E+00  0.0000E+00  0.0000E+00  0.0000E+00  0.0000E+00  0.0000E+00  0.0000E+00  0.0000E+00
     -3.214  0.3636E-02  0.3630E-02  0.4470E-03  0.4459E-03  0.5911E-03  0.5882E-03  0.4470E-03  0.4459E-03  0.0000E+00  0.0000E+00  0.0000E+00  0.0000E+00  0.0000E+00  0.0000E+00  0.0000E+00  0.0000E+00  0.0000E+00  0.0000E+00
     -3.162  0.3425E-02  0.3415E-02  0.4648E-03  0.4619E-03  0.6034E-03  0.6014E-03  0.4648E-03  0.4619E-03  0.0000E+00  0.0000E+00  0.0000E+00  0.0000E+00  0.0000E+00  0.0000E+00  0.0000E+00  0.0000E+00  0.0000E+00  0.0000E+00
     -3.110  0.3403E-02  0.3383E-02  0.5461E-03  0.5400E-03  0.5963E-03  0.5943E-03  0.5461E-03  0.5400E-03  0.0000E+00  0.0000E+00  0.0000E+00  0.0000E+00  0.0000E+00  0.0000E+00  0.0000E+00  0.0000E+00  0.0000E+00  0.0000E+00
     -3.058  0.3594E-02  0.3566E-02  0.6670E-03  0.6607E-03  0.6473E-03  0.6405E-03  0.6670E-03  0.6607E-03  0.0000E+00  0.0000E+00  0.0000E+00  0.0000E+00  0.0000E+00  0.0000E+00  0.0000E+00  0.0000E+00  0.0000E+00  0.0000E+00
     -3.006  0.3795E-02  0.3770E-02  0.7451E-03  0.7414E-03  0.8226E-03  0.8109E-03  0.7451E-03  0.7414E-03  0.0000E+00  0.0000E+00  0.0000E+00  0.0000E+00  0.0000E+00  0.0000E+00  0.0000E+00  0.0000E+00  0.0000E+00  0.0000E+00
     -2.954  0.3822E-02  0.3805E-02  0.7728E-03  0.7699E-03  0.1013E-02  0.1004E-02  0.7728E-03  0.7699E-03  0.0000E+00  0.0000E+00  0.0000E+00  0.0000E+00  0.0000E+00  0.0000E+00  0.0000E+00  0.0000E+00  0.0000E+00  0.0000E+00
     -2.903  0.3725E-02  0.3713E-02  0.8052E-03  0.8020E-03  0.1098E-02  0.1093E-02  0.8052E-03  0.8020E-03  0.0000E+00  0.0000E+00  0.0000E+00  0.0000E+00  0.0000E+00  0.0000E+00  0.0000E+00  0.0000E+00  0.0000E+00  0.0000E+00
     -2.851  0.3475E-02  0.3472E-02  0.8096E-03  0.8087E-03  0.1140E-02  0.1134E-02  0.8096E-03  0.8087E-03  0.0000E+00  0.0000E+00  0.0000E+00  0.0000E+00  0.0000E+00  0.0000E+00  0.0000E+00  0.0000E+00  0.0000E+00  0.0000E+00
     -2.799  0.3097E-02  0.3097E-02  0.7962E-03  0.7937E-03  0.1207E-02  0.1201E-02  0.7962E-03  0.7937E-03  0.0000E+00  0.0000E+00  0.0000E+00  0.0000E+00  0.0000E+00  0.0000E+00  0.0000E+00  0.0000E+00  0.0000E+00  0.0000E+00
     -2.747  0.2919E-02  0.2906E-02  0.9135E-03  0.9040E-03  0.1252E-02  0.1246E-02  0.9135E-03  0.9040E-03  0.0000E+00  0.0000E+00  0.0000E+00  0.0000E+00  0.0000E+00  0.0000E+00  0.0000E+00  0.0000E+00  0.0000E+00  0.0000E+00
     -2.695  0.3083E-02  0.3058E-02  0.1171E-02  0.1158E-02  0.1329E-02  0.1319E-02  0.1171E-02  0.1158E-02  0.0000E+00  0.0000E+00  0.0000E+00  0.0000E+00  0.0000E+00  0.0000E+00  0.0000E+00  0.0000E+00  0.0000E+00  0.0000E+00
     -2.643  0.3289E-02  0.3269E-02  0.1390E-02  0.1381E-02  0.1496E-02  0.1483E-02  0.1390E-02  0.1381E-02  0.0000E+00  0.0000E+00  0.0000E+00  0.0000E+00  0.0000E+00  0.0000E+00  0.0000E+00  0.0000E+00  0.0000E+00  0.0000E+00
     -2.591  0.3178E-02  0.3173E-02  0.1468E-02  0.1464E-02  0.1624E-02  0.1616E-02  0.1468E-02  0.1464E-02  0.0000E+00  0.0000E+00  0.0000E+00  0.0000E+00  0.0000E+00  0.0000E+00  0.0000E+00  0.0000E+00  0.0000E+00  0.0000E+00
     -2.539  0.2815E-02  0.2819E-02  0.1482E-02  0.1479E-02  0.1567E-02  0.1568E-02  0.1482E-02  0.1479E-02  0.0000E+00  0.0000E+00  0.0000E+00  0.0000E+00  0.0000E+00  0.0000E+00  0.0000E+00  0.0000E+00  0.0000E+00  0.0000E+00
     -2.488  0.2380E-02  0.2386E-02  0.1424E-02  0.1425E-02  0.1361E-02  0.1364E-02  0.1424E-02  0.1425E-02  0.0000E+00  0.0000E+00  0.0000E+00  0.0000E+00  0.0000E+00  0.0000E+00  0.0000E+00  0.0000E+00  0.0000E+00  0.0000E+00
     -2.436  0.2007E-02  0.2008E-02  0.1295E-02  0.1295E-02  0.1230E-02  0.1228E-02  0.1295E-02  0.1295E-02  0.0000E+00  0.0000E+00  0.0000E+00  0.0000E+00  0.0000E+00  0.0000E+00  0.0000E+00  0.0000E+00  0.0000E+00  0.0000E+00
     -2.384  0.1909E-02  0.1898E-02  0.1249E-02  0.1244E-02  0.1269E-02  0.1261E-02  0.1249E-02  0.1244E-02  0.0000E+00  0.0000E+00  0.0000E+00  0.0000E+00  0.0000E+00  0.0000E+00  0.0000E+00  0.0000E+00  0.0000E+00  0.0000E+00
     -2.332  0.2048E-02  0.2031E-02  0.1305E-02  0.1298E-02  0.1411E-02  0.1400E-02  0.1305E-02  0.1298E-02  0.0000E+00  0.0000E+00  0.0000E+00  0.0000E+00  0.0000E+00  0.0000E+00  0.0000E+00  0.0000E+00  0.0000E+00  0.0000E+00
     -2.280  0.2133E-02  0.2122E-02  0.1325E-02  0.1322E-02  0.1507E-02  0.1500E-02  0.1325E-02  0.1322E-02  0.0000E+00  0.0000E+00  0.0000E+00  0.0000E+00  0.0000E+00  0.0000E+00  0.0000E+00  0.0000E+00  0.0000E+00  0.0000E+00