  16  16   1   0
  0.1588588E+02  0.3989963E-09  0.3989963E-09  0.1596591E-08  0.5000000E-15
  1.000000000000000E-004
  CAR 
 unknown system                          
     13.86871459     -4.36056612  301      6.51608062      1.00000000
     -4.361  0.0000E+00  0.0000E+00  0.0000E+00  0.0000E+00
     -4.300  0.0000E+00  0.0000E+00  0.0000E+00  0.0000E+00
     -4.239  0.0000E+00  0.0000E+00  0.0000E+00  0.0000E+00
     -4.178  0.0000E+00  0.0000E+00  0.0000E+00  0.0000E+00
     -4.118  0.0000E+00  0.0000E+00  0.0000E+00  0.0000E+00
     -4.057  0.0000E+00  0.0000E+00  0.0000E+00  0.0000E+00
     -3.996  0.0000E+00  0.0000E+00  0.0000E+00  0.0000E+00
     -3.935  0.2501E-04  0.2389E-04  0.1520E-05  0.1451E-05
     -3.874  0.1300E-03  0.1241E-03  0.9417E-05  0.8993E-05
     -3.814  0.4050E-03  0.3868E-03  0.3403E-04  0.3250E-04
     -3.753  0.1357E-02  0.1296E-02  0.1165E-03  0.1112E-03
     -3.692  0.4637E-02  0.4432E-02  0.3982E-03  0.3806E-03
     -3.631  0.1500E-01  0.1436E-01  0.1309E-02  0.1253E-02
     -3.571  0.4446E-01  0.4277E-01  0.4011E-02  0.3852E-02
     -3.510  0.1112E+00  0.1079E+00  0.1077E-01  0.1041E-01
     -3.449  0.2136E+00  0.2095E+00  0.2375E-01  0.2314E-01
     -3.388  0.3116E+00  0.3084E+00  0.4268E-01  0.4188E-01
     -3.328  0.3958E+00  0.3923E+00  0.6673E-01  0.6571E-01
     -3.267  0.5031E+00  0.4990E+00  0.9730E-01  0.9604E-01
     -3.206  0.5720E+00  0.5713E+00  0.1321E+00  0.1308E+00
     -3.145  0.5626E+00  0.5627E+00  0.1662E+00  0.1649E+00
     -3.085  0.6233E+00  0.6188E+00  0.2041E+00  0.2025E+00
     -3.024  0.7503E+00  0.7466E+00  0.2497E+00  0.2479E+00
     -2.963  0.7894E+00  0.7897E+00  0.2977E+00  0.2959E+00
     -2.902  0.7813E+00  0.7810E+00  0.3452E+00  0.3434E+00
     -2.841  0.8313E+00  0.8285E+00  0.3957E+00  0.3938E+00
     -2.781  0.8860E+00  0.8856E+00  0.4496E+00  0.4476E+00
     -2.720  0.8687E+00  0.8696E+00  0.5024E+00  0.5005E+00
     -2.659  0.9140E+00  0.9101E+00  0.5579E+00  0.5558E+00
     -2.598  0.1041E+01  0.1037E+01  0.6212E+00  0.6188E+00
     -2.538  0.1122E+01  0.1120E+01  0.6894E+00  0.6869E+00
     -2.477  0.1137E+01  0.1138E+01  0.7585E+00  0.7561E+00
     -2.416  0.1080E+01  0.1083E+01  0.8242E+00  0.8220E+00
     -2.355  0.1038E+01  0.1038E+01  0.8873E+00  0.8851E+00
     -2.295  0.1085E+01  0.1082E+01  0.9533E+00  0.9508E+00
     -2.234  0.1233E+01  0.1227E+01  0.1028E+01  0.1025E+01
     -2.173  0.1378E+01  0.1375E+01  0.1112E+01  0.1109E+01
     -2.112  0.1436E+01  0.1436E+01  0.1199E+01  0.1196E+01
     -2.052  0.1453E+01  0.1454E+01  0.1288E+01  0.1285E+01
     -1.991  0.1394E+01  0.1398E+01  0.1372E+01  0.1370E+01
     -1.930  0.1303E+01  0.1305E+01  0.1452E+01  0.1449E+01
     -1.869  0.1378E+01  0.1372E+01  0.1535E+01  0.1532E+01
     -1.808  0.1647E+01  0.1637E+01  0.1636E+01  0.1632E+01
     -1.748  0.1879E+01  0.1875E+01  0.1750E+01  0.1746E+01
     -1.687  0.1897E+01  0.1900E+01  0.1865E+01  0.1861E+01
     -1.626  0.1792E+01  0.1798E+01  0.1974E+01  0.1971E+01
     -1.565  0.1562E+01  0.1571E+01  0.2069E+01  0.2066E+01
     -1.505  0.1368E+01  0.1371E+01  0.2152E+01  0.2150E+01
     -1.444  0.1401E+01  0.1396E+01  0.2237E+01  0.2234E+01
     -1.383  0.1570E+01  0.1565E+01  0.2333E+01  0.2330E+01
     -1.322  0.1604E+01  0.1606E+01  0.2430E+01  0.2427E+01
     -1.262  0.1445E+01  0.1450E+01  0.2518E+01  0.2515E+01
     -1.201  0.1277E+01  0.1282E+01  0.2596E+01  0.2594E+01
     -1.140  0.1116E+01  0.1120E+01  0.2664E+01  0.2662E+01
     -1.079  0.1108E+01  0.1104E+01  0.2731E+01  0.2729E+01
     -1.019  0.1322E+01  0.1313E+01  0.2811E+01  0.2809E+01
     -0.958  0.1516E+01  0.1512E+01  0.2904E+01  0.2901E+01
     -0.897  0.1525E+01  0.1527E+01  0.2996E+01  0.2993E+01
     -0.836  0.1371E+01  0.1377E+01  0.3080E+01  0.3077E+01
     -0.775  0.1142E+01  0.1149E+01  0.3149E+01  0.3147E+01
     -0.715  0.9644E+00  0.9674E+00  0.3208E+01  0.3206E+01
     -0.654  0.9891E+00  0.9843E+00  0.3268E+01  0.3266E+01
     -0.593  0.1179E+01  0.1174E+01  0.3340E+01  0.3337E+01
     -0.532  0.1263E+01  0.1263E+01  0.3417E+01  0.3414E+01
     -0.472  0.1211E+01  0.1212E+01  0.3490E+01  0.3488E+01
     -0.411  0.1166E+01  0.1165E+01  0.3561E+01  0.3558E+01
     -0.350  0.1174E+01  0.1172E+01  0.3632E+01  0.3630E+01
     -0.289  0.1219E+01  0.1214E+01  0.3707E+01  0.3703E+01
     -0.229  0.1381E+01  0.1373E+01  0.3790E+01  0.3787E+01
     -0.168  0.1570E+01  0.1564E+01  0.3886E+01  0.3882E+01
     -0.107  0.1737E+01  0.1732E+01  0.3992E+01  0.3987E+01
     -0.046  0.1888E+01  0.1881E+01  0.4106E+01  0.4102E+01
      0.014  0.2081E+01  0.2072E+01  0.4233E+01  0.4228E+01
      0.075  0.2292E+01  0.2284E+01  0.4372E+01  0.4366E+01
      0.136  0.2392E+01  0.2394E+01  0.4518E+01  0.4512E+01
      0.197  0.2259E+01  0.2267E+01  0.4655E+01  0.4650E+01
      0.258  0.2122E+01  0.2127E+01  0.4784E+01  0.4779E+01
      0.318  0.1910E+01  0.1921E+01  0.4900E+01  0.4896E+01
      0.379  0.1624E+01  0.1632E+01  0.4999E+01  0.4995E+01
      0.440  0.1589E+01  0.1585E+01  0.5095E+01  0.5092E+01
      0.501  0.1689E+01  0.1688E+01  0.5198E+01  0.5194E+01
      0.561  0.1687E+01  0.1687E+01  0.5301E+01  0.5297E+01
      0.622  0.1817E+01  0.1806E+01  0.5411E+01  0.5407E+01
      0.683  0.2203E+01  0.2187E+01  0.5545E+01  0.5540E+01
      0.744  0.2464E+01  0.2462E+01  0.5695E+01  0.5689E+01
      0.804  0.2326E+01  0.2336E+01  0.5836E+01  0.5831E+01
      0.865  0.2138E+01  0.2144E+01  0.5966E+01  0.5962E+01
      0.926  0.1990E+01  0.2000E+01  0.6087E+01  0.6083E+01
      0.987  0.1644E+01  0.1659E+01  0.6187E+01  0.6184E+01
      1.047  0.1335E+01  0.1343E+01  0.6269E+01  0.6266E+01
      1.108  0.1253E+01  0.1252E+01  0.6345E+01  0.6342E+01
      1.169  0.1356E+01  0.1351E+01  0.6427E+01  0.6424E+01
      1.230  0.1538E+01  0.1530E+01  0.6521E+01  0.6517E+01
      1.291  0.1704E+01  0.1697E+01  0.6624E+01  0.6620E+01
      1.351  0.1761E+01  0.1760E+01  0.6732E+01  0.6727E+01
      1.412  0.1722E+01  0.1719E+01  0.6836E+01  0.6832E+01
      1.473  0.1855E+01  0.1843E+01  0.6949E+01  0.6944E+01
      1.534  0.2178E+01  0.2163E+01  0.7081E+01  0.7075E+01
      1.594  0.2419E+01  0.2413E+01  0.7229E+01  0.7222E+01
      1.655  0.2435E+01  0.2438E+01  0.7377E+01  0.7370E+01
      1.716  0.2377E+01  0.2379E+01  0.7521E+01  0.7515E+01
      1.777  0.2409E+01  0.2405E+01  0.7667E+01  0.7661E+01
      1.837  0.2450E+01  0.2449E+01  0.7816E+01  0.7810E+01
      1.898  0.2414E+01  0.2414E+01  0.7963E+01  0.7957E+01
      1.959  0.2341E+01  0.2345E+01  0.8106E+01  0.8099E+01
      2.020  0.2186E+01  0.2190E+01  0.8238E+01  0.8233E+01
      2.080  0.2142E+01  0.2140E+01  0.8369E+01  0.8363E+01
      2.141  0.2227E+01  0.2225E+01  0.8504E+01  0.8498E+01
      2.202  0.2332E+01  0.2332E+01  0.8646E+01  0.8640E+01
      2.263  0.2425E+01  0.2426E+01  0.8793E+01  0.8787E+01
      2.324  0.2418E+01  0.2422E+01  0.8940E+01  0.8934E+01
      2.384  0.2290E+01  0.2298E+01  0.9080E+01  0.9074E+01
      2.445  0.2128E+01  0.2133E+01  0.9209E+01  0.9204E+01
      2.506  0.2026E+01  0.2031E+01  0.9332E+01  0.9327E+01
      2.567  0.1880E+01  0.1887E+01  0.9447E+01  0.9442E+01
      2.627  0.1773E+01  0.1775E+01  0.9554E+01  0.9550E+01
      2.688  0.1767E+01  0.1763E+01  0.9662E+01  0.9657E+01
      2.749  0.1915E+01  0.1901E+01  0.9778E+01  0.9773E+01
      2.810  0.2252E+01  0.2233E+01  0.9915E+01  0.9909E+01
      2.870  0.2549E+01  0.2534E+01  0.1007E+02  0.1006E+02
      2.931  0.2682E+01  0.2677E+01  0.1023E+02  0.1023E+02
      2.992  0.2689E+01  0.2690E+01  0.1040E+02  0.1039E+02
      3.053  0.2690E+01  0.2688E+01  0.1056E+02  0.1055E+02
      3.113  0.2764E+01  0.2761E+01  0.1073E+02  0.1072E+02
      3.174  0.2771E+01  0.2773E+01  0.1090E+02  0.1089E+02
      3.235  0.2703E+01  0.2705E+01  0.1106E+02  0.1105E+02
      3.296  0.2778E+01  0.2773E+01  0.1123E+02  0.1122E+02
      3.356  0.2859E+01  0.2862E+01  0.1140E+02  0.1140E+02
      3.417  0.2714E+01  0.2723E+01  0.1157E+02  0.1156E+02
      3.478  0.2618E+01  0.2619E+01  0.1173E+02  0.1172E+02
      3.539  0.2583E+01  0.2585E+01  0.1189E+02  0.1188E+02
      3.600  0.2472E+01  0.2474E+01  0.1204E+02  0.1203E+02
      3.660  0.2503E+01  0.2496E+01  0.1219E+02  0.1218E+02
      3.721  0.2725E+01  0.2716E+01  0.1235E+02  0.1235E+02
      3.782  0.2822E+01  0.2823E+01  0.1252E+02  0.1252E+02
      3.843  0.2678E+01  0.2684E+01  0.1269E+02  0.1268E+02
      3.903  0.2579E+01  0.2582E+01  0.1284E+02  0.1284E+02
      3.964  0.2412E+01  0.2426E+01  0.1299E+02  0.1298E+02
      4.025  0.2180E+01  0.2187E+01  0.1312E+02  0.1312E+02
      4.086  0.2363E+01  0.2344E+01  0.1327E+02  0.1326E+02
      4.146  0.2982E+01  0.2953E+01  0.1345E+02  0.1344E+02
      4.207  0.3415E+01  0.3401E+01  0.1366E+02  0.1365E+02
      4.268  0.3464E+01  0.3463E+01  0.1387E+02  0.1386E+02
      4.329  0.3308E+01  0.3322E+01  0.1407E+02  0.1406E+02
      4.389  0.3011E+01  0.3027E+01  0.1425E+02  0.1424E+02
      4.450  0.2879E+01  0.2882E+01  0.1443E+02  0.1442E+02
      4.511  0.2912E+01  0.2912E+01  0.1460E+02  0.1460E+02
      4.572  0.2897E+01  0.2901E+01  0.1478E+02  0.1477E+02
      4.633  0.2730E+01  0.2739E+01  0.1495E+02  0.1494E+02
      4.693  0.2620E+01  0.2620E+01  0.1510E+02  0.1510E+02
      4.754  0.2807E+01  0.2796E+01  0.1528E+02  0.1527E+02
      4.815  0.2973E+01  0.2971E+01  0.1546E+02  0.1545E+02
      4.876  0.2898E+01  0.2900E+01  0.1563E+02  0.1562E+02
      4.936  0.2883E+01  0.2881E+01  0.1581E+02  0.1580E+02
      4.997  0.2846E+01  0.2850E+01  0.1598E+02  0.1597E+02
      5.058  0.2763E+01  0.2763E+01  0.1615E+02  0.1614E+02
      5.119  0.2784E+01  0.2782E+01  0.1632E+02  0.1631E+02
      5.179  0.2739E+01  0.2743E+01  0.1648E+02  0.1648E+02
      5.240  0.2737E+01  0.2732E+01  0.1665E+02  0.1664E+02
      5.301  0.2937E+01  0.2929E+01  0.1683E+02  0.1682E+02
      5.362  0.3047E+01  0.3052E+01  0.1701E+02  0.1701E+02
      5.422  0.2769E+01  0.2789E+01  0.1718E+02  0.1718E+02
      5.483  0.2331E+01  0.2346E+01  0.1732E+02  0.1732E+02
      5.544  0.2154E+01  0.2158E+01  0.1746E+02  0.1745E+02
      5.605  0.2195E+01  0.2193E+01  0.1759E+02  0.1758E+02
      5.666  0.2344E+01  0.2334E+01  0.1773E+02  0.1773E+02
      5.726  0.2530E+01  0.2523E+01  0.1789E+02  0.1788E+02
      5.787  0.2671E+01  0.2665E+01  0.1805E+02  0.1804E+02
      5.848  0.2916E+01  0.2903E+01  0.1823E+02  0.1822E+02
      5.909  0.3081E+01  0.3078E+01  0.1841E+02  0.1840E+02
      5.969  0.2833E+01  0.2851E+01  0.1859E+02  0.1858E+02
      6.030  0.2355E+01  0.2375E+01  0.1873E+02  0.1872E+02
      6.091  0.2034E+01  0.2042E+01  0.1885E+02  0.1885E+02
      6.152  0.2024E+01  0.2015E+01  0.1898E+02  0.1897E+02
      6.212  0.2358E+01  0.2334E+01  0.1912E+02  0.1911E+02
      6.273  0.2889E+01  0.2870E+01  0.1929E+02  0.1929E+02
      6.334  0.3133E+01  0.3134E+01  0.1948E+02  0.1948E+02
      6.395  0.2967E+01  0.2978E+01  0.1967E+02  0.1966E+02
      6.455  0.2779E+01  0.2778E+01  0.1983E+02  0.1983E+02
      6.516  0.2807E+01  0.2801E+01  0.2000E+02  0.2000E+02
      6.577  0.2714E+01  0.2724E+01  0.2017E+02  0.2016E+02
      6.638  0.2560E+01  0.2563E+01  0.2033E+02  0.2032E+02
      6.699  0.2702E+01  0.2690E+01  0.2049E+02  0.2048E+02
      6.759  0.2977E+01  0.2965E+01  0.2067E+02  0.2066E+02
      6.820  0.3146E+01  0.3137E+01  0.2086E+02  0.2085E+02
      6.881  0.3186E+01  0.3180E+01  0.2106E+02  0.2105E+02
      6.942  0.3098E+01  0.3104E+01  0.2124E+02  0.2123E+02
      7.002  0.2835E+01  0.2853E+01  0.2142E+02  0.2141E+02
      7.063  0.2607E+01  0.2615E+01  0.2157E+02  0.2157E+02
      7.124  0.2628E+01  0.2620E+01  0.2173E+02  0.2173E+02
      7.185  0.2869E+01  0.2858E+01  0.2191E+02  0.2190E+02
      7.245  0.2975E+01  0.2978E+01  0.2209E+02  0.2208E+02
      7.306  0.2888E+01  0.2890E+01  0.2227E+02  0.2226E+02
      7.367  0.2962E+01  0.2950E+01  0.2245E+02  0.2244E+02
      7.428  0.3275E+01  0.3256E+01  0.2264E+02  0.2263E+02
      7.488  0.3562E+01  0.3554E+01  0.2286E+02  0.2285E+02
      7.549  0.3461E+01  0.3479E+01  0.2307E+02  0.2306E+02
      7.610  0.3124E+01  0.3142E+01  0.2326E+02  0.2325E+02
      7.671  0.2901E+01  0.2913E+01  0.2344E+02  0.2343E+02
      7.732  0.2717E+01  0.2726E+01  0.2360E+02  0.2360E+02
      7.792  0.2672E+01  0.2665E+01  0.2377E+02  0.2376E+02
      7.853  0.2848E+01  0.2839E+01  0.2394E+02  0.2393E+02
      7.914  0.2910E+01  0.2912E+01  0.2412E+02  0.2411E+02
      7.975  0.2866E+01  0.2868E+01  0.2429E+02  0.2428E+02
      8.035  0.2918E+01  0.2918E+01  0.2447E+02  0.2446E+02
      8.096  0.2966E+01  0.2966E+01  0.2465E+02  0.2464E+02
      8.157  0.2943E+01  0.2943E+01  0.2483E+02  0.2482E+02
      8.218  0.2929E+01  0.2925E+01  0.2501E+02  0.2500E+02
      8.278  0.3066E+01  0.3059E+01  0.2519E+02  0.2518E+02
      8.339  0.3276E+01  0.3268E+01  0.2539E+02  0.2538E+02
      8.400  0.3613E+01  0.3595E+01  0.2561E+02  0.2560E+02
      8.461  0.3948E+01  0.3938E+01  0.2585E+02  0.2584E+02
      8.521  0.3707E+01  0.3730E+01  0.2608E+02  0.2607E+02
      8.582  0.3090E+01  0.3116E+01  0.2626E+02  0.2626E+02
      8.643  0.2955E+01  0.2942E+01  0.2644E+02  0.2643E+02
      8.704  0.3440E+01  0.3407E+01  0.2665E+02  0.2664E+02
      8.765  0.3868E+01  0.3857E+01  0.2689E+02  0.2688E+02
      8.825  0.3735E+01  0.3756E+01  0.2711E+02  0.2710E+02
      8.886  0.3292E+01  0.3313E+01  0.2732E+02  0.2731E+02
      8.947  0.3061E+01  0.3065E+01  0.2750E+02  0.2749E+02
      9.008  0.3231E+01  0.3213E+01  0.2770E+02  0.2769E+02
      9.068  0.3637E+01  0.3618E+01  0.2792E+02  0.2791E+02
      9.129  0.3829E+01  0.3827E+01  0.2815E+02  0.2814E+02
      9.190  0.3647E+01  0.3659E+01  0.2837E+02  0.2836E+02
      9.251  0.3295E+01  0.3314E+01  0.2857E+02  0.2856E+02
      9.311  0.2980E+01  0.2994E+01  0.2875E+02  0.2875E+02
      9.372  0.3056E+01  0.3042E+01  0.2894E+02  0.2893E+02
      9.433  0.3549E+01  0.3524E+01  0.2916E+02  0.2915E+02
      9.494  0.3928E+01  0.3916E+01  0.2940E+02  0.2938E+02
      9.554  0.3970E+01  0.3976E+01  0.2964E+02  0.2963E+02
      9.615  0.3625E+01  0.3644E+01  0.2986E+02  0.2985E+02
      9.676  0.3235E+01  0.3246E+01  0.3005E+02  0.3004E+02
      9.737  0.3098E+01  0.3096E+01  0.3024E+02  0.3023E+02
      9.798  0.3205E+01  0.3198E+01  0.3044E+02  0.3043E+02
      9.858  0.3257E+01  0.3260E+01  0.3064E+02  0.3063E+02
      9.919  0.3195E+01  0.3203E+01  0.3083E+02  0.3082E+02
      9.980  0.3234E+01  0.3236E+01  0.3103E+02  0.3102E+02
     10.041  0.3365E+01  0.3361E+01  0.3123E+02  0.3122E+02
     10.101  0.3431E+01  0.3427E+01  0.3144E+02  0.3143E+02
     10.162  0.3474E+01  0.3468E+01  0.3165E+02  0.3164E+02
     10.223  0.3547E+01  0.3549E+01  0.3187E+02  0.3186E+02
     10.284  0.3482E+01  0.3493E+01  0.3208E+02  0.3207E+02
     10.344  0.3347E+01  0.3352E+01  0.3228E+02  0.3227E+02
     10.405  0.3471E+01  0.3467E+01  0.3249E+02  0.3248E+02
     10.466  0.3832E+01  0.3840E+01  0.3273E+02  0.3272E+02
     10.527  0.4050E+01  0.4060E+01  0.3297E+02  0.3296E+02
     10.587  0.4051E+01  0.4031E+01  0.3322E+02  0.3321E+02
     10.648  0.3867E+01  0.3804E+01  0.3345E+02  0.3344E+02
     10.709  0.3646E+01  0.3536E+01  0.3367E+02  0.3365E+02
     10.770  0.3363E+01  0.3339E+01  0.3388E+02  0.3386E+02
     10.831  0.3062E+01  0.3192E+01  0.3407E+02  0.3405E+02
     10.891  0.2736E+01  0.2853E+01  0.3423E+02  0.3423E+02
     10.952  0.2325E+01  0.2379E+01  0.3437E+02  0.3437E+02
     11.013  0.2083E+01  0.2122E+01  0.3450E+02  0.3450E+02
     11.074  0.1898E+01  0.1932E+01  0.3462E+02  0.3462E+02
     11.134  0.1662E+01  0.1655E+01  0.3472E+02  0.3472E+02
     11.195  0.1708E+01  0.1664E+01  0.3482E+02  0.3482E+02
     11.256  0.1972E+01  0.1954E+01  0.3494E+02  0.3494E+02
     11.317  0.1989E+01  0.2034E+01  0.3506E+02  0.3506E+02
     11.377  0.1709E+01  0.1768E+01  0.3517E+02  0.3517E+02
     11.438  0.1319E+01  0.1343E+01  0.3525E+02  0.3525E+02
     11.499  0.1014E+01  0.9861E+00  0.3531E+02  0.3531E+02
     11.560  0.8920E+00  0.8427E+00  0.3536E+02  0.3536E+02
     11.620  0.9149E+00  0.8864E+00  0.3542E+02  0.3542E+02
     11.681  0.9928E+00  0.9840E+00  0.3548E+02  0.3548E+02
     11.742  0.9869E+00  0.9869E+00  0.3554E+02  0.3554E+02
     11.803  0.8353E+00  0.8368E+00  0.3559E+02  0.3559E+02
     11.863  0.7158E+00  0.7166E+00  0.3563E+02  0.3563E+02
     11.924  0.6550E+00  0.6466E+00  0.3567E+02  0.3567E+02
     11.985  0.6175E+00  0.5761E+00  0.3571E+02  0.3570E+02
     12.046  0.5676E+00  0.4948E+00  0.3574E+02  0.3573E+02
     12.107  0.4908E+00  0.4341E+00  0.3577E+02  0.3576E+02
     12.167  0.3905E+00  0.3745E+00  0.3580E+02  0.3578E+02
     12.228  0.3228E+00  0.3427E+00  0.3582E+02  0.3580E+02
     12.289  0.3174E+00  0.3802E+00  0.3584E+02  0.3583E+02
     12.350  0.3404E+00  0.4229E+00  0.3586E+02  0.3585E+02
     12.410  0.3682E+00  0.4446E+00  0.3588E+02  0.3588E+02
     12.471  0.3150E+00  0.4254E+00  0.3590E+02  0.3591E+02
     12.532  0.2037E+00  0.3677E+00  0.3591E+02  0.3593E+02
     12.593  0.1707E+00  0.3090E+00  0.3592E+02  0.3595E+02
     12.653  0.2261E+00  0.2429E+00  0.3594E+02  0.3596E+02
     12.714  0.2677E+00  0.1531E+00  0.3595E+02  0.3597E+02
     12.775  0.2458E+00  0.8603E-01  0.3597E+02  0.3598E+02
     12.836  0.1834E+00  0.7698E-01  0.3598E+02  0.3598E+02
     12.896  0.1334E+00  0.8767E-01  0.3599E+02  0.3599E+02
     12.957  0.9054E-01  0.7129E-01  0.3599E+02  0.3599E+02
     13.018  0.6420E-01  0.5479E-01  0.3600E+02  0.3599E+02
     13.079  0.4407E-01  0.4636E-01  0.3600E+02  0.3600E+02
     13.140  0.2111E-01  0.2794E-01  0.3600E+02  0.3600E+02
     13.200  0.7669E-02  0.1134E-01  0.3600E+02  0.3600E+02
     13.261  0.2433E-02  0.3752E-02  0.3600E+02  0.3600E+02
     13.322  0.6709E-03  0.1083E-02  0.3600E+02  0.3600E+02
     13.383  0.2004E-03  0.3247E-03  0.3600E+02  0.3600E+02
     13.443  0.0000E+00  0.0000E+00  0.3600E+02  0.3600E+02
     13.504  0.0000E+00  0.0000E+00  0.3600E+02  0.3600E+02
     13.565  0.0000E+00  0.0000E+00  0.3600E+02  0.3600E+02
     13.626  0.0000E+00  0.0000E+00  0.3600E+02  0.3600E+02
     13.686  0.0000E+00  0.0000E+00  0.3600E+02  0.3600E+02
     13.747  0.0000E+00  0.0000E+00  0.3600E+02  0.3600E+02
     13.808  0.0000E+00  0.0000E+00  0.3600E+02  0.3600E+02
     13.869  0.0000E+00  0.0000E+00  0.3600E+02  0.3600E+02
     13.86871459     -4.36056612  301      6.51608062      1.00000000
     -4.361  0.0000E+00  0.0000E+00  0.0000E+00  0.0000E+00  0.0000E+00  0.0000E+00  0.0000E+00  0.0000E+00  0.0000E+00  0.0000E+00  0.0000E+00  0.0000E+00  0.0000E+00  0.0000E+00  0.0000E+00  0.0000E+00  0.0000E+00  0.0000E+00
     -4.300  0.0000E+00  0.0000E+00  0.0000E+00  0.0000E+00  0.0000E+00  0.0000E+00  0.0000E+00  0.0000E+00  0.0000E+00  0.0000E+00  0.0000E+00  0.0000E+00  0.0000E+00  0.0000E+00  0.0000E+00  0.0000E+00  0.0000E+00  0.0000E+00
     -4.239  0.0000E+00  0.0000E+00  0.0000E+00  0.0000E+00  0.0000E+00  0.0000E+00  0.0000E+00  0.0000E+00  0.0000E+00  0.0000E+00  0.0000E+00  0.0000E+00  0.0000E+00  0.0000E+00  0.0000E+00  0.0000E+00  0.0000E+00  0.0000E+00
     -4.178  0.0000E+00  0.0000E+00  0.0000E+00  0.0000E+00  0.0000E+00  0.0000E+00  0.0000E+00  0.0000E+00  0.0000E+00  0.0000E+00  0.0000E+00  0.0000E+00  0.0000E+00  0.0000E+00  0.0000E+00  0.0000E+00  0.0000E+00  0.0000E+00
     -4.118  0.0000E+00  0.0000E+00  0.0000E+00  0.0000E+00  0.0000E+00  0.0000E+00  0.0000E+00  0.0000E+00  0.0000E+00  0.0000E+00  0.0000E+00  0.0000E+00  0.0000E+00  0.0000E+00  0.0000E+00  0.0000E+00  0.0000E+00  0.0000E+00
     -4.057  0.0000E+00  0.0000E+00  0.0000E+00  0.0000E+00  0.0000E+00  0.0000E+00  0.0000E+00  0.0000E+00  0.0000E+00  0.0000E+00  0.0000E+00  0.0000E+00  0.0000E+00  0.0000E+00  0.0000E+00  0.0000E+00  0.0000E+00  0.0000E+00
     -3.996  0.0000E+00  0.0000E+00  0.0000E+00  0.0000E+00  0.0000E+00  0.0000E+00  0.0000E+00  0.0000E+00  0.0000E+00  0.0000E+00  0.0000E+00  0.0000E+00  0.0000E+00  0.0000E+00  0.0000E+00  0.0000E+00  0.0000E+00  0.0000E+00
     -3.935  0.1548E-06  0.1474E-06  0.6223E-09  0.5930E-09  0.3903E-10  0.3547E-10  0.6223E-09  0.5930E-09  0.0000E+00  0.0000E+00  0.0000E+00  0.0000E+00  0.0000E+00  0.0000E+00  0.0000E+00  0.0000E+00  0.0000E+00  0.0000E+00
     -3.874  0.7961E-06  0.7581E-06  0.4278E-08  0.4076E-08  0.5846E-08  0.5561E-08  0.4278E-08  0.4076E-08  0.0000E+00  0.0000E+00  0.0000E+00  0.0000E+00  0.0000E+00  0.0000E+00  0.0000E+00  0.0000E+00  0.0000E+00  0.0000E+00
     -3.814  0.2478E-05  0.2360E-05  0.1475E-07  0.1405E-07  0.1805E-07  0.1717E-07  0.1475E-07  0.1405E-07  0.0000E+00  0.0000E+00  0.0000E+00  0.0000E+00  0.0000E+00  0.0000E+00  0.0000E+00  0.0000E+00  0.0000E+00  0.0000E+00
     -3.753  0.8298E-05  0.7905E-05  0.5113E-07  0.4873E-07  0.6001E-07  0.5709E-07  0.5113E-07  0.4873E-07  0.0000E+00  0.0000E+00  0.0000E+00  0.0000E+00  0.0000E+00  0.0000E+00  0.0000E+00  0.0000E+00  0.0000E+00  0.0000E+00
     -3.692  0.2831E-04  0.2699E-04  0.1917E-06  0.1828E-06  0.2201E-06  0.2094E-06  0.1917E-06  0.1828E-06  0.0000E+00  0.0000E+00  0.0000E+00  0.0000E+00  0.0000E+00  0.0000E+00  0.0000E+00  0.0000E+00  0.0000E+00  0.0000E+00
     -3.631  0.9149E-04  0.8736E-04  0.6415E-06  0.6121E-06  0.7404E-06  0.7053E-06  0.6415E-06  0.6121E-06  0.0000E+00  0.0000E+00  0.0000E+00  0.0000E+00  0.0000E+00  0.0000E+00  0.0000E+00  0.0000E+00  0.0000E+00  0.0000E+00
     -3.571  0.2709E-03  0.2599E-03  0.2010E-05  0.1922E-05  0.2323E-05  0.2219E-05  0.2010E-05  0.1922E-05  0.0000E+00  0.0000E+00  0.0000E+00  0.0000E+00  0.0000E+00  0.0000E+00  0.0000E+00  0.0000E+00  0.0000E+00  0.0000E+00
     -3.510  0.6752E-03  0.6534E-03  0.5757E-05  0.5538E-05  0.6695E-05  0.6431E-05  0.5757E-05  0.5538E-05  0.0000E+00  0.0000E+00  0.0000E+00  0.0000E+00  0.0000E+00  0.0000E+00  0.0000E+00  0.0000E+00  0.0000E+00  0.0000E+00
     -3.449  0.1289E-02  0.1261E-02  0.1364E-04  0.1323E-04  0.1580E-04  0.1531E-04  0.1364E-04  0.1323E-04  0.0000E+00  0.0000E+00  0.0000E+00  0.0000E+00  0.0000E+00  0.0000E+00  0.0000E+00  0.0000E+00  0.0000E+00  0.0000E+00
     -3.388  0.1860E-02  0.1836E-02  0.2631E-04  0.2569E-04  0.2948E-04  0.2880E-04  0.2631E-04  0.2569E-04  0.0000E+00  0.0000E+00  0.0000E+00  0.0000E+00  0.0000E+00  0.0000E+00  0.0000E+00  0.0000E+00  0.0000E+00  0.0000E+00
     -3.328  0.2325E-02  0.2300E-02  0.4532E-04  0.4437E-04  0.4955E-04  0.4844E-04  0.4532E-04  0.4437E-04  0.0000E+00  0.0000E+00  0.0000E+00  0.0000E+00  0.0000E+00  0.0000E+00  0.0000E+00  0.0000E+00  0.0000E+00  0.0000E+00
     -3.267  0.2908E-02  0.2878E-02  0.7098E-04  0.6986E-04  0.8205E-04  0.8044E-04  0.7098E-04  0.6986E-04  0.0000E+00  0.0000E+00  0.0000E+00  0.0000E+00  0.0000E+00  0.0000E+00  0.0000E+00  0.0000E+00  0.0000E+00  0.0000E+00
     -3.206  0.3260E-02  0.3249E-02  0.9219E-04  0.9140E-04  0.1133E-03  0.1122E-03  0.9219E-04  0.9140E-04  0.0000E+00  0.0000E+00  0.0000E+00  0.0000E+00  0.0000E+00  0.0000E+00  0.0000E+00  0.0000E+00  0.0000E+00  0.0000E+00
     -3.145  0.3148E-02  0.3143E-02  0.1101E-03  0.1089E-03  0.1282E-03  0.1272E-03  0.1101E-03  0.1089E-03  0.0000E+00  0.0000E+00  0.0000E+00  0.0000E+00  0.0000E+00  0.0000E+00  0.0000E+00  0.0000E+00  0.0000E+00  0.0000E+00
     -3.085  0.3404E-02  0.3373E-02  0.1526E-03  0.1503E-03  0.1595E-03  0.1572E-03  0.1526E-03  0.1503E-03  0.0000E+00  0.0000E+00  0.0000E+00  0.0000E+00  0.0000E+00  0.0000E+00  0.0000E+00  0.0000E+00  0.0000E+00  0.0000E+00
     -3.024  0.4020E-02  0.3991E-02  0.2073E-03  0.2053E-03  0.2170E-03  0.2141E-03  0.2073E-03  0.2053E-03  0.0000E+00  0.0000E+00  0.0000E+00  0.0000E+00  0.0000E+00  0.0000E+00  0.0000E+00  0.0000E+00  0.0000E+00  0.0000E+00
     -2.963  0.4153E-02  0.4146E-02  0.2316E-03  0.2308E-03  0.2698E-03  0.2673E-03  0.2316E-03  0.2308E-03  0.0000E+00  0.0000E+00  0.0000E+00  0.0000E+00  0.0000E+00  0.0000E+00  0.0000E+00  0.0000E+00  0.0000E+00  0.0000E+00
     -2.902  0.4024E-02  0.4014E-02  0.2457E-03  0.2442E-03  0.3134E-03  0.3111E-03  0.2457E-03  0.2442E-03  0.0000E+00  0.0000E+00  0.0000E+00  0.0000E+00  0.0000E+00  0.0000E+00  0.0000E+00  0.0000E+00  0.0000E+00  0.0000E+00
     -2.841  0.4189E-02  0.4166E-02  0.2917E-03  0.2890E-03  0.3582E-03  0.3554E-03  0.2917E-03  0.2890E-03  0.0000E+00  0.0000E+00  0.0000E+00  0.0000E+00  0.0000E+00  0.0000E+00  0.0000E+00  0.0000E+00  0.0000E+00  0.0000E+00
     -2.781  0.4374E-02  0.4362E-02  0.3415E-03  0.3396E-03  0.4029E-03  0.4008E-03  0.3415E-03  0.3396E-03  0.0000E+00  0.0000E+00  0.0000E+00  0.0000E+00  0.0000E+00  0.0000E+00  0.0000E+00  0.0000E+00  0.0000E+00  0.0000E+00
     -2.720  0.4183E-02  0.4179E-02  0.3772E-03  0.3748E-03  0.4045E-03  0.4040E-03  0.3772E-03  0.3748E-03  0.0000E+00  0.0000E+00  0.0000E+00  0.0000E+00  0.0000E+00  0.0000E+00  0.0000E+00  0.0000E+00  0.0000E+00  0.0000E+00
     -2.659  0.4268E-02  0.4242E-02  0.4532E-03  0.4491E-03  0.4290E-03  0.4251E-03  0.4532E-03  0.4491E-03  0.0000E+00  0.0000E+00  0.0000E+00  0.0000E+00  0.0000E+00  0.0000E+00  0.0000E+00  0.0000E+00  0.0000E+00  0.0000E+00
     -2.598  0.4729E-02  0.4701E-02  0.5313E-03  0.5285E-03  0.5684E-03  0.5609E-03  0.5313E-03  0.5285E-03  0.0000E+00  0.0000E+00  0.0000E+00  0.0000E+00  0.0000E+00  0.0000E+00  0.0000E+00  0.0000E+00  0.0000E+00  0.0000E+00
     -2.538  0.4966E-02  0.4949E-02  0.5689E-03  0.5668E-03  0.7259E-03  0.7202E-03  0.5689E-03  0.5668E-03  0.0000E+00  0.0000E+00  0.0000E+00  0.0000E+00  0.0000E+00  0.0000E+00  0.0000E+00  0.0000E+00  0.0000E+00  0.0000E+00
     -2.477  0.4911E-02  0.4905E-02  0.6000E-03  0.5985E-03  0.7871E-03  0.7849E-03  0.6000E-03  0.5985E-03  0.0000E+00  0.0000E+00  0.0000E+00  0.0000E+00  0.0000E+00  0.0000E+00  0.0000E+00  0.0000E+00  0.0000E+00  0.0000E+00
     -2.416  0.4547E-02  0.4549E-02  0.5917E-03  0.5917E-03  0.8057E-03  0.8031E-03  0.5917E-03  0.5917E-03  0.0000E+00  0.0000E+00  0.0000E+00  0.0000E+00  0.0000E+00  0.0000E+00  0.0000E+00  0.0000E+00  0.0000E+00  0.0000E+00
     -2.355  0.4224E-02  0.4217E-02  0.6031E-03  0.6000E-03  0.8204E-03  0.8196E-03  0.6031E-03  0.6000E-03  0.0000E+00  0.0000E+00  0.0000E+00  0.0000E+00  0.0000E+00  0.0000E+00  0.0000E+00  0.0000E+00  0.0000E+00  0.0000E+00
     -2.295  0.4251E-02  0.4231E-02  0.7447E-03  0.7368E-03  0.7702E-03  0.7703E-03  0.7447E-03  0.7368E-03  0.0000E+00  0.0000E+00  0.0000E+00  0.0000E+00  0.0000E+00  0.0000E+00  0.0000E+00  0.0000E+00  0.0000E+00  0.0000E+00
     -2.234  0.4618E-02  0.4589E-02  0.9426E-03  0.9356E-03  0.8497E-03  0.8407E-03  0.9426E-03  0.9356E-03  0.0000E+00  0.0000E+00  0.0000E+00  0.0000E+00  0.0000E+00  0.0000E+00  0.0000E+00  0.0000E+00  0.0000E+00  0.0000E+00
     -2.173  0.4917E-02  0.4898E-02  0.1029E-02  0.1028E-02  0.1168E-02  0.1153E-02  0.1029E-02  0.1028E-02  0.0000E+00  0.0000E+00  0.0000E+00  0.0000E+00  0.0000E+00  0.0000E+00  0.0000E+00  0.0000E+00  0.0000E+00  0.0000E+00
     -2.112  0.4885E-02  0.4875E-02  0.1040E-02  0.1037E-02  0.1451E-02  0.1443E-02  0.1040E-02  0.1037E-02  0.0000E+00  0.0000E+00  0.0000E+00  0.0000E+00  0.0000E+00  0.0000E+00  0.0000E+00  0.0000E+00  0.0000E+00  0.0000E+00
     -2.052  0.4757E-02  0.4751E-02  0.1103E-02  0.1100E-02  0.1502E-02  0.1500E-02  0.1103E-02  0.1100E-02  0.0000E+00  0.0000E+00  0.0000E+00  0.0000E+00  0.0000E+00  0.0000E+00  0.0000E+00  0.0000E+00  0.0000E+00  0.0000E+00
     -1.991  0.4357E-02  0.4366E-02  0.1076E-02  0.1079E-02  0.1545E-02  0.1539E-02  0.1076E-02  0.1079E-02  0.0000E+00  0.0000E+00  0.0000E+00  0.0000E+00  0.0000E+00  0.0000E+00  0.0000E+00  0.0000E+00  0.0000E+00  0.0000E+00
     -1.930  0.3737E-02  0.3744E-02  0.1009E-02  0.1007E-02  0.1658E-02  0.1653E-02  0.1009E-02  0.1007E-02  0.0000E+00  0.0000E+00  0.0000E+00  0.0000E+00  0.0000E+00  0.0000E+00  0.0000E+00  0.0000E+00  0.0000E+00  0.0000E+00
     -1.869  0.3583E-02  0.3567E-02  0.1236E-02  0.1223E-02  0.1674E-02  0.1671E-02  0.1236E-02  0.1223E-02  0.0000E+00  0.0000E+00  0.0000E+00  0.0000E+00  0.0000E+00  0.0000E+00  0.0000E+00  0.0000E+00  0.0000E+00  0.0000E+00
     -1.808  0.4007E-02  0.3977E-02  0.1682E-02  0.1666E-02  0.1797E-02  0.1786E-02  0.1682E-02  0.1666E-02  0.0000E+00  0.0000E+00  0.0000E+00  0.0000E+00  0.0000E+00  0.0000E+00  0.0000E+00  0.0000E+00  0.0000E+00  0.0000E+00
     -1.748  0.4344E-02  0.4327E-02  0.1968E-02  0.1961E-02  0.2107E-02  0.2093E-02  0.1968E-02  0.1961E-02  0.0000E+00  0.0000E+00  0.0000E+00  0.0000E+00  0.0000E+00  0.0000E+00  0.0000E+00  0.0000E+00  0.0000E+00  0.0000E+00
     -1.687  0.4051E-02  0.4055E-02  0.2005E-02  0.2003E-02  0.2294E-02  0.2289E-02  0.2005E-02  0.2003E-02  0.0000E+00  0.0000E+00  0.0000E+00  0.0000E+00  0.0000E+00  0.0000E+00  0.0000E+00  0.0000E+00  0.0000E+00  0.0000E+00
     -1.626  0.3490E-02  0.3498E-02  0.2028E-02  0.2026E-02  0.2112E-02  0.2120E-02  0.2028E-02  0.2026E-02  0.0000E+00  0.0000E+00  0.0000E+00  0.0000E+00  0.0000E+00  0.0000E+00  0.0000E+00  0.0000E+00  0.0000E+00  0.0000E+00
     -1.565  0.2851E-02  0.2863E-02  0.1891E-02  0.1896E-02  0.1719E-02  0.1726E-02  0.1891E-02  0.1896E-02  0.0000E+00  0.0000E+00  0.0000E+00  0.0000E+00  0.0000E+00  0.0000E+00  0.0000E+00  0.0000E+00  0.0000E+00  0.0000E+00
     -1.505  0.2359E-02  0.2361E-02  0.1655E-02  0.1656E-02  0.1581E-02  0.1578E-02  0.1655E-02  0.1656E-02  0.0000E+00  0.0000E+00  0.0000E+00  0.0000E+00  0.0000E+00  0.0000E+00  0.0000E+00  0.0000E+00  0.0000E+00  0.0000E+00
     -1.444  0.2384E-02  0.2368E-02  0.1649E-02  0.1642E-02  0.1719E-02  0.1708E-02  0.1649E-02  0.1642E-02  0.0000E+00  0.0000E+00  0.0000E+00  0.0000E+00  0.0000E+00  0.0000E+00  0.0000E+00  0.0000E+00  0.0000E+00  0.0000E+00
     -1.383  0.2718E-02  0.2699E-02  0.1798E-02  0.1790E-02  0.1997E-02  0.1984E-02  0.1798E-02  0.1790E-02  0.0000E+00  0.0000E+00  0.0000E+00  0.0000E+00  0.0000E+00  0.0000E+00  0.0000E+00  0.0000E+00  0.0000E+00  0.0000E+00
     -1.322  0.2803E-02  0.2799E-02  0.1797E-02  0.1797E-02  0.2104E-02  0.2102E-02  0.1797E-02  0.1797E-02  0.0000E+00  0.0000E+00  0.0000E+00  0.0000E+00  0.0000E+00  0.0000E+00  0.0000E+00  0.0000E+00  0.0000E+00  0.0000E+00