  16  16   1   0
  0.1637215E+02  0.4030266E-09  0.4030266E-09  0.1612718E-08  0.5000000E-15
  1.000000000000000E-004
  CAR 
 unknown system                          
     13.42268255     -4.43789001  301      6.24744516      1.00000000
     -4.438  0.0000E+00  0.0000E+00  0.0000E+00  0.0000E+00
     -4.378  0.0000E+00  0.0000E+00  0.0000E+00  0.0000E+00
     -4.319  0.0000E+00  0.0000E+00  0.0000E+00  0.0000E+00
     -4.259  0.0000E+00  0.0000E+00  0.0000E+00  0.0000E+00
     -4.200  0.0000E+00  0.0000E+00  0.0000E+00  0.0000E+00
     -4.140  0.0000E+00  0.0000E+00  0.0000E+00  0.0000E+00
     -4.081  0.3726E-05  0.3544E-05  0.2218E-06  0.2110E-06
     -4.021  0.3446E-04  0.3278E-04  0.2274E-05  0.2163E-05
     -3.962  0.1474E-03  0.1402E-03  0.1105E-04  0.1051E-04
     -3.902  0.4704E-03  0.4475E-03  0.3905E-04  0.3715E-04
     -3.843  0.1536E-02  0.1462E-02  0.1305E-03  0.1242E-03
     -3.783  0.5132E-02  0.4886E-02  0.4360E-03  0.4151E-03
     -3.723  0.1618E-01  0.1543E-01  0.1399E-02  0.1334E-02
     -3.664  0.4674E-01  0.4482E-01  0.4182E-02  0.4002E-02
     -3.604  0.1146E+00  0.1109E+00  0.1101E-01  0.1061E-01
     -3.545  0.2175E+00  0.2129E+00  0.2395E-01  0.2328E-01
     -3.485  0.3168E+00  0.3132E+00  0.4282E-01  0.4193E-01
     -3.426  0.4032E+00  0.3993E+00  0.6682E-01  0.6570E-01
     -3.366  0.5106E+00  0.5061E+00  0.9722E-01  0.9583E-01
     -3.307  0.5804E+00  0.5795E+00  0.1318E+00  0.1303E+00
     -3.247  0.5752E+00  0.5752E+00  0.1660E+00  0.1646E+00
     -3.188  0.6356E+00  0.6308E+00  0.2039E+00  0.2021E+00
     -3.128  0.7607E+00  0.7566E+00  0.2492E+00  0.2472E+00
     -3.069  0.8029E+00  0.8033E+00  0.2970E+00  0.2950E+00
     -3.009  0.7973E+00  0.7970E+00  0.3445E+00  0.3425E+00
     -2.950  0.8461E+00  0.8431E+00  0.3949E+00  0.3927E+00
     -2.890  0.9005E+00  0.9000E+00  0.4485E+00  0.4463E+00
     -2.830  0.8875E+00  0.8884E+00  0.5013E+00  0.4992E+00
     -2.771  0.9312E+00  0.9273E+00  0.5568E+00  0.5544E+00
     -2.711  0.1056E+01  0.1052E+01  0.6197E+00  0.6171E+00
     -2.652  0.1140E+01  0.1138E+01  0.6876E+00  0.6849E+00
     -2.592  0.1156E+01  0.1157E+01  0.7565E+00  0.7538E+00
     -2.533  0.1104E+01  0.1106E+01  0.8222E+00  0.8197E+00
     -2.473  0.1061E+01  0.1061E+01  0.8854E+00  0.8829E+00
     -2.414  0.1106E+01  0.1102E+01  0.9513E+00  0.9486E+00
     -2.354  0.1250E+01  0.1244E+01  0.1026E+01  0.1023E+01
     -2.295  0.1397E+01  0.1393E+01  0.1109E+01  0.1106E+01
     -2.235  0.1460E+01  0.1459E+01  0.1196E+01  0.1193E+01
     -2.176  0.1479E+01  0.1480E+01  0.1284E+01  0.1281E+01
     -2.116  0.1424E+01  0.1428E+01  0.1369E+01  0.1366E+01
     -2.056  0.1334E+01  0.1337E+01  0.1448E+01  0.1445E+01
     -1.997  0.1402E+01  0.1396E+01  0.1532E+01  0.1529E+01
     -1.937  0.1663E+01  0.1653E+01  0.1631E+01  0.1627E+01
     -1.878  0.1901E+01  0.1896E+01  0.1744E+01  0.1740E+01
     -1.818  0.1931E+01  0.1933E+01  0.1859E+01  0.1855E+01
     -1.759  0.1830E+01  0.1837E+01  0.1968E+01  0.1965E+01
     -1.699  0.1607E+01  0.1617E+01  0.2064E+01  0.2061E+01
     -1.640  0.1407E+01  0.1410E+01  0.2148E+01  0.2145E+01
     -1.580  0.1426E+01  0.1421E+01  0.2233E+01  0.2229E+01
     -1.521  0.1589E+01  0.1583E+01  0.2327E+01  0.2324E+01
     -1.461  0.1634E+01  0.1636E+01  0.2425E+01  0.2421E+01
     -1.402  0.1483E+01  0.1489E+01  0.2513E+01  0.2510E+01
     -1.342  0.1312E+01  0.1318E+01  0.2591E+01  0.2589E+01
     -1.283  0.1151E+01  0.1156E+01  0.2660E+01  0.2657E+01
     -1.223  0.1130E+01  0.1126E+01  0.2727E+01  0.2724E+01
     -1.163  0.1331E+01  0.1322E+01  0.2806E+01  0.2803E+01
     -1.104  0.1531E+01  0.1527E+01  0.2898E+01  0.2894E+01
     -1.044  0.1553E+01  0.1556E+01  0.2990E+01  0.2987E+01
     -0.985  0.1409E+01  0.1416E+01  0.3074E+01  0.3071E+01
     -0.925  0.1181E+01  0.1190E+01  0.3145E+01  0.3142E+01
     -0.866  0.9976E+00  0.1001E+01  0.3204E+01  0.3202E+01
     -0.806  0.1004E+01  0.9992E+00  0.3264E+01  0.3261E+01
     -0.747  0.1185E+01  0.1179E+01  0.3334E+01  0.3332E+01
     -0.687  0.1281E+01  0.1280E+01  0.3411E+01  0.3408E+01
     -0.628  0.1239E+01  0.1240E+01  0.3485E+01  0.3482E+01
     -0.568  0.1189E+01  0.1188E+01  0.3555E+01  0.3553E+01
     -0.509  0.1196E+01  0.1193E+01  0.3627E+01  0.3624E+01
     -0.449  0.1236E+01  0.1230E+01  0.3700E+01  0.3697E+01
     -0.389  0.1390E+01  0.1382E+01  0.3783E+01  0.3779E+01
     -0.330  0.1582E+01  0.1574E+01  0.3877E+01  0.3873E+01
     -0.270  0.1756E+01  0.1749E+01  0.3982E+01  0.3977E+01
     -0.211  0.1911E+01  0.1904E+01  0.4096E+01  0.4091E+01
     -0.151  0.2106E+01  0.2096E+01  0.4221E+01  0.4215E+01
     -0.092  0.2316E+01  0.2306E+01  0.4359E+01  0.4353E+01
     -0.032  0.2433E+01  0.2434E+01  0.4504E+01  0.4498E+01
      0.027  0.2319E+01  0.2328E+01  0.4642E+01  0.4636E+01
      0.087  0.2175E+01  0.2181E+01  0.4772E+01  0.4766E+01
      0.146  0.1974E+01  0.1986E+01  0.4889E+01  0.4885E+01
      0.206  0.1684E+01  0.1693E+01  0.4990E+01  0.4985E+01
      0.265  0.1615E+01  0.1612E+01  0.5086E+01  0.5081E+01
      0.325  0.1713E+01  0.1710E+01  0.5188E+01  0.5183E+01
      0.384  0.1724E+01  0.1724E+01  0.5291E+01  0.5286E+01
      0.444  0.1834E+01  0.1823E+01  0.5400E+01  0.5395E+01
      0.504  0.2199E+01  0.2181E+01  0.5531E+01  0.5525E+01
      0.563  0.2488E+01  0.2483E+01  0.5679E+01  0.5673E+01
      0.623  0.2391E+01  0.2401E+01  0.5821E+01  0.5816E+01
      0.682  0.2197E+01  0.2204E+01  0.5952E+01  0.5947E+01
      0.742  0.2053E+01  0.2063E+01  0.6075E+01  0.6070E+01
      0.801  0.1722E+01  0.1739E+01  0.6177E+01  0.6173E+01
      0.861  0.1389E+01  0.1399E+01  0.6260E+01  0.6257E+01
      0.920  0.1276E+01  0.1277E+01  0.6336E+01  0.6333E+01
      0.980  0.1359E+01  0.1354E+01  0.6417E+01  0.6414E+01
      1.039  0.1532E+01  0.1523E+01  0.6508E+01  0.6504E+01
      1.099  0.1698E+01  0.1690E+01  0.6609E+01  0.6605E+01
      1.158  0.1778E+01  0.1774E+01  0.6715E+01  0.6711E+01
      1.218  0.1743E+01  0.1742E+01  0.6819E+01  0.6814E+01
      1.277  0.1836E+01  0.1824E+01  0.6929E+01  0.6923E+01
      1.337  0.2149E+01  0.2132E+01  0.7057E+01  0.7050E+01
      1.397  0.2436E+01  0.2427E+01  0.7202E+01  0.7195E+01
      1.456  0.2498E+01  0.2499E+01  0.7350E+01  0.7343E+01
      1.516  0.2443E+01  0.2446E+01  0.7496E+01  0.7489E+01
      1.575  0.2447E+01  0.2444E+01  0.7642E+01  0.7635E+01
      1.635  0.2490E+01  0.2489E+01  0.7790E+01  0.7783E+01
      1.694  0.2453E+01  0.2454E+01  0.7936E+01  0.7929E+01
      1.754  0.2386E+01  0.2388E+01  0.8078E+01  0.8071E+01
      1.813  0.2257E+01  0.2262E+01  0.8213E+01  0.8206E+01
      1.873  0.2197E+01  0.2194E+01  0.8344E+01  0.8337E+01
      1.932  0.2284E+01  0.2281E+01  0.8480E+01  0.8473E+01
      1.992  0.2376E+01  0.2377E+01  0.8621E+01  0.8614E+01
      2.051  0.2423E+01  0.2425E+01  0.8766E+01  0.8759E+01
      2.111  0.2412E+01  0.2416E+01  0.8909E+01  0.8903E+01
      2.171  0.2340E+01  0.2346E+01  0.9049E+01  0.9042E+01
      2.230  0.2213E+01  0.2219E+01  0.9180E+01  0.9175E+01
      2.290  0.2113E+01  0.2118E+01  0.9306E+01  0.9301E+01
      2.349  0.1955E+01  0.1964E+01  0.9423E+01  0.9418E+01
      2.409  0.1805E+01  0.1809E+01  0.9530E+01  0.9526E+01
      2.468  0.1777E+01  0.1774E+01  0.9636E+01  0.9631E+01
      2.528  0.1862E+01  0.1852E+01  0.9747E+01  0.9742E+01
      2.587  0.2109E+01  0.2093E+01  0.9873E+01  0.9866E+01
      2.647  0.2351E+01  0.2336E+01  0.1001E+02  0.1001E+02
      2.706  0.2549E+01  0.2534E+01  0.1016E+02  0.1016E+02
      2.766  0.2704E+01  0.2698E+01  0.1033E+02  0.1032E+02
      2.825  0.2740E+01  0.2741E+01  0.1049E+02  0.1048E+02
      2.885  0.2756E+01  0.2755E+01  0.1065E+02  0.1064E+02
      2.944  0.2759E+01  0.2761E+01  0.1082E+02  0.1081E+02
      3.004  0.2731E+01  0.2730E+01  0.1098E+02  0.1097E+02
      3.064  0.2822E+01  0.2816E+01  0.1115E+02  0.1114E+02
      3.123  0.2940E+01  0.2939E+01  0.1132E+02  0.1131E+02
      3.183  0.2834E+01  0.2845E+01  0.1149E+02  0.1148E+02
      3.242  0.2640E+01  0.2648E+01  0.1165E+02  0.1164E+02
      3.302  0.2572E+01  0.2573E+01  0.1180E+02  0.1179E+02
      3.361  0.2506E+01  0.2508E+01  0.1195E+02  0.1194E+02
      3.421  0.2503E+01  0.2497E+01  0.1210E+02  0.1209E+02
      3.480  0.2709E+01  0.2697E+01  0.1226E+02  0.1225E+02
      3.540  0.2913E+01  0.2909E+01  0.1244E+02  0.1243E+02
      3.599  0.2815E+01  0.2824E+01  0.1260E+02  0.1260E+02
      3.659  0.2646E+01  0.2649E+01  0.1276E+02  0.1275E+02
      3.718  0.2587E+01  0.2591E+01  0.1292E+02  0.1291E+02
      3.778  0.2402E+01  0.2416E+01  0.1306E+02  0.1305E+02
      3.838  0.2322E+01  0.2319E+01  0.1320E+02  0.1319E+02
      3.897  0.2713E+01  0.2687E+01  0.1336E+02  0.1335E+02
      3.957  0.3222E+01  0.3201E+01  0.1355E+02  0.1354E+02
      4.016  0.3417E+01  0.3410E+01  0.1375E+02  0.1374E+02
      4.076  0.3431E+01  0.3432E+01  0.1396E+02  0.1395E+02
      4.135  0.3264E+01  0.3280E+01  0.1415E+02  0.1414E+02
      4.195  0.3026E+01  0.3036E+01  0.1433E+02  0.1432E+02
      4.254  0.3003E+01  0.3002E+01  0.1451E+02  0.1450E+02
      4.314  0.3024E+01  0.3027E+01  0.1469E+02  0.1468E+02
      4.373  0.2868E+01  0.2878E+01  0.1486E+02  0.1485E+02
      4.433  0.2705E+01  0.2710E+01  0.1502E+02  0.1502E+02
      4.492  0.2791E+01  0.2783E+01  0.1519E+02  0.1518E+02
      4.552  0.3007E+01  0.3000E+01  0.1537E+02  0.1536E+02
      4.611  0.3004E+01  0.3008E+01  0.1555E+02  0.1554E+02
      4.671  0.2923E+01  0.2924E+01  0.1572E+02  0.1571E+02
      4.731  0.2894E+01  0.2896E+01  0.1590E+02  0.1589E+02
      4.790  0.2805E+01  0.2809E+01  0.1606E+02  0.1605E+02
      4.850  0.2766E+01  0.2763E+01  0.1623E+02  0.1622E+02
      4.909  0.2832E+01  0.2829E+01  0.1640E+02  0.1639E+02
      4.969  0.2885E+01  0.2882E+01  0.1657E+02  0.1656E+02
      5.028  0.3040E+01  0.3033E+01  0.1675E+02  0.1674E+02
      5.088  0.3164E+01  0.3168E+01  0.1694E+02  0.1693E+02
      5.147  0.2936E+01  0.2958E+01  0.1711E+02  0.1710E+02
      5.207  0.2496E+01  0.2514E+01  0.1726E+02  0.1725E+02
      5.266  0.2261E+01  0.2267E+01  0.1740E+02  0.1739E+02
      5.326  0.2245E+01  0.2247E+01  0.1753E+02  0.1752E+02
      5.385  0.2325E+01  0.2319E+01  0.1767E+02  0.1766E+02
      5.445  0.2524E+01  0.2512E+01  0.1782E+02  0.1781E+02
      5.504  0.2695E+01  0.2688E+01  0.1798E+02  0.1797E+02
      5.564  0.2861E+01  0.2851E+01  0.1815E+02  0.1814E+02
      5.624  0.3059E+01  0.3049E+01  0.1833E+02  0.1832E+02
      5.683  0.3016E+01  0.3025E+01  0.1851E+02  0.1850E+02
      5.743  0.2626E+01  0.2649E+01  0.1867E+02  0.1866E+02
      5.802  0.2207E+01  0.2224E+01  0.1880E+02  0.1879E+02
      5.862  0.2024E+01  0.2024E+01  0.1892E+02  0.1891E+02
      5.921  0.2211E+01  0.2190E+01  0.1905E+02  0.1904E+02
      5.981  0.2728E+01  0.2699E+01  0.1921E+02  0.1920E+02
      6.040  0.3164E+01  0.3155E+01  0.1940E+02  0.1939E+02
      6.100  0.3148E+01  0.3160E+01  0.1959E+02  0.1958E+02
      6.159  0.2866E+01  0.2876E+01  0.1976E+02  0.1975E+02
      6.219  0.2757E+01  0.2750E+01  0.1992E+02  0.1992E+02
      6.278  0.2777E+01  0.2777E+01  0.2009E+02  0.2008E+02
      6.338  0.2639E+01  0.2649E+01  0.2025E+02  0.2024E+02
      6.398  0.2620E+01  0.2615E+01  0.2040E+02  0.2040E+02
      6.457  0.2905E+01  0.2888E+01  0.2058E+02  0.2057E+02
      6.517  0.3169E+01  0.3159E+01  0.2077E+02  0.2076E+02
      6.576  0.3196E+01  0.3191E+01  0.2096E+02  0.2095E+02
      6.636  0.3139E+01  0.3136E+01  0.2114E+02  0.2113E+02
      6.695  0.3017E+01  0.3029E+01  0.2132E+02  0.2131E+02
      6.755  0.2783E+01  0.2801E+01  0.2149E+02  0.2148E+02
      6.814  0.2661E+01  0.2661E+01  0.2165E+02  0.2164E+02
      6.874  0.2821E+01  0.2807E+01  0.2181E+02  0.2181E+02
      6.933  0.3001E+01  0.2997E+01  0.2199E+02  0.2198E+02
      6.993  0.2953E+01  0.2959E+01  0.2217E+02  0.2216E+02
      7.052  0.2898E+01  0.2894E+01  0.2234E+02  0.2233E+02
      7.112  0.3098E+01  0.3079E+01  0.2253E+02  0.2252E+02
      7.171  0.3460E+01  0.3438E+01  0.2273E+02  0.2272E+02
      7.231  0.3614E+01  0.3617E+01  0.2295E+02  0.2294E+02
      7.291  0.3385E+01  0.3407E+01  0.2315E+02  0.2314E+02
      7.350  0.3094E+01  0.3110E+01  0.2333E+02  0.2332E+02
      7.410  0.2904E+01  0.2916E+01  0.2351E+02  0.2350E+02
      7.469  0.2755E+01  0.2760E+01  0.2367E+02  0.2366E+02
      7.529  0.2824E+01  0.2814E+01  0.2384E+02  0.2383E+02
      7.588  0.2965E+01  0.2960E+01  0.2402E+02  0.2401E+02
      7.648  0.2997E+01  0.2996E+01  0.2419E+02  0.2418E+02
      7.707  0.3053E+01  0.3054E+01  0.2438E+02  0.2437E+02
      7.767  0.3053E+01  0.3058E+01  0.2456E+02  0.2455E+02
      7.826  0.2988E+01  0.2988E+01  0.2474E+02  0.2473E+02
      7.886  0.3025E+01  0.3019E+01  0.2492E+02  0.2491E+02
      7.945  0.3160E+01  0.3152E+01  0.2510E+02  0.2509E+02
      8.005  0.3343E+01  0.3335E+01  0.2530E+02  0.2529E+02
      8.065  0.3556E+01  0.3548E+01  0.2552E+02  0.2550E+02
      8.124  0.3764E+01  0.3755E+01  0.2574E+02  0.2573E+02
      8.184  0.3729E+01  0.3733E+01  0.2596E+02  0.2595E+02
      8.243  0.3365E+01  0.3388E+01  0.2616E+02  0.2615E+02
      8.303  0.2974E+01  0.2990E+01  0.2634E+02  0.2633E+02
      8.362  0.3054E+01  0.3032E+01  0.2652E+02  0.2651E+02
      8.422  0.3619E+01  0.3580E+01  0.2674E+02  0.2672E+02
      8.481  0.4013E+01  0.4004E+01  0.2698E+02  0.2696E+02
      8.541  0.3807E+01  0.3830E+01  0.2720E+02  0.2719E+02
      8.600  0.3394E+01  0.3416E+01  0.2741E+02  0.2739E+02
      8.660  0.3155E+01  0.3160E+01  0.2759E+02  0.2758E+02
      8.719  0.3278E+01  0.3257E+01  0.2779E+02  0.2778E+02
      8.779  0.3665E+01  0.3642E+01  0.2801E+02  0.2799E+02
      8.838  0.3858E+01  0.3858E+01  0.2824E+02  0.2822E+02
      8.898  0.3624E+01  0.3644E+01  0.2845E+02  0.2844E+02
      8.958  0.3224E+01  0.3245E+01  0.2864E+02  0.2863E+02
      9.017  0.3014E+01  0.3016E+01  0.2882E+02  0.2881E+02
      9.077  0.3310E+01  0.3285E+01  0.2902E+02  0.2901E+02
      9.136  0.3825E+01  0.3802E+01  0.2925E+02  0.2924E+02
      9.196  0.4086E+01  0.4082E+01  0.2949E+02  0.2948E+02
      9.255  0.3904E+01  0.3922E+01  0.2973E+02  0.2971E+02
      9.315  0.3442E+01  0.3461E+01  0.2993E+02  0.2992E+02
      9.374  0.3212E+01  0.3213E+01  0.3012E+02  0.3011E+02
      9.434  0.3249E+01  0.3243E+01  0.3032E+02  0.3030E+02
      9.493  0.3282E+01  0.3280E+01  0.3051E+02  0.3050E+02
      9.553  0.3293E+01  0.3294E+01  0.3071E+02  0.3070E+02
      9.612  0.3403E+01  0.3404E+01  0.3091E+02  0.3090E+02
      9.672  0.3490E+01  0.3497E+01  0.3112E+02  0.3111E+02
      9.731  0.3430E+01  0.3433E+01  0.3132E+02  0.3131E+02
      9.791  0.3422E+01  0.3414E+01  0.3153E+02  0.3151E+02
      9.851  0.3583E+01  0.3573E+01  0.3174E+02  0.3173E+02
      9.910  0.3662E+01  0.3664E+01  0.3196E+02  0.3195E+02
      9.970  0.3631E+01  0.3644E+01  0.3217E+02  0.3216E+02
     10.029  0.3641E+01  0.3668E+01  0.3239E+02  0.3238E+02
     10.089  0.3794E+01  0.3818E+01  0.3262E+02  0.3261E+02
     10.148  0.3974E+01  0.3977E+01  0.3285E+02  0.3285E+02
     10.208  0.3988E+01  0.3969E+01  0.3309E+02  0.3308E+02
     10.267  0.3900E+01  0.3903E+01  0.3332E+02  0.3331E+02
     10.327  0.3772E+01  0.3800E+01  0.3355E+02  0.3354E+02
     10.386  0.3715E+01  0.3732E+01  0.3377E+02  0.3376E+02
     10.446  0.3460E+01  0.3450E+01  0.3398E+02  0.3397E+02
     10.505  0.2930E+01  0.2920E+01  0.3415E+02  0.3414E+02
     10.565  0.2513E+01  0.2525E+01  0.3430E+02  0.3429E+02
     10.625  0.2295E+01  0.2330E+01  0.3444E+02  0.3443E+02
     10.684  0.2131E+01  0.2183E+01  0.3456E+02  0.3456E+02
     10.744  0.1854E+01  0.1912E+01  0.3467E+02  0.3468E+02
     10.803  0.1621E+01  0.1628E+01  0.3477E+02  0.3477E+02
     10.863  0.1731E+01  0.1670E+01  0.3487E+02  0.3487E+02
     10.922  0.1946E+01  0.1883E+01  0.3499E+02  0.3498E+02
     10.982  0.1881E+01  0.1867E+01  0.3510E+02  0.3510E+02
     11.041  0.1605E+01  0.1638E+01  0.3520E+02  0.3519E+02
     11.101  0.1261E+01  0.1313E+01  0.3527E+02  0.3527E+02
     11.160  0.1011E+01  0.1033E+01  0.3533E+02  0.3533E+02
     11.220  0.9520E+00  0.9171E+00  0.3539E+02  0.3539E+02
     11.279  0.1019E+01  0.9484E+00  0.3545E+02  0.3544E+02
     11.339  0.1064E+01  0.9675E+00  0.3551E+02  0.3550E+02
     11.398  0.9667E+00  0.8911E+00  0.3557E+02  0.3556E+02
     11.458  0.8109E+00  0.8587E+00  0.3562E+02  0.3561E+02
     11.518  0.7024E+00  0.8252E+00  0.3566E+02  0.3566E+02
     11.577  0.5906E+00  0.6583E+00  0.3570E+02  0.3570E+02
     11.637  0.4872E+00  0.4953E+00  0.3573E+02  0.3572E+02
     11.696  0.4702E+00  0.4603E+00  0.3575E+02  0.3575E+02
     11.756  0.4695E+00  0.4624E+00  0.3578E+02  0.3578E+02
     11.815  0.4022E+00  0.4038E+00  0.3581E+02  0.3580E+02
     11.875  0.3380E+00  0.3438E+00  0.3583E+02  0.3582E+02
     11.934  0.3389E+00  0.3498E+00  0.3585E+02  0.3585E+02
     11.994  0.3922E+00  0.3979E+00  0.3587E+02  0.3587E+02
     12.053  0.3999E+00  0.3987E+00  0.3589E+02  0.3589E+02
     12.113  0.3404E+00  0.3408E+00  0.3591E+02  0.3591E+02
     12.172  0.3071E+00  0.3086E+00  0.3593E+02  0.3593E+02
     12.232  0.2930E+00  0.2981E+00  0.3595E+02  0.3595E+02
     12.292  0.2402E+00  0.2458E+00  0.3596E+02  0.3596E+02
     12.351  0.1534E+00  0.1569E+00  0.3597E+02  0.3597E+02
     12.411  0.1013E+00  0.1042E+00  0.3598E+02  0.3598E+02
     12.470  0.1017E+00  0.9856E-01  0.3599E+02  0.3599E+02
     12.530  0.9959E-01  0.8522E-01  0.3599E+02  0.3599E+02
     12.589  0.7623E-01  0.6448E-01  0.3600E+02  0.3599E+02
     12.649  0.4528E-01  0.5034E-01  0.3600E+02  0.3600E+02
     12.708  0.1954E-01  0.2964E-01  0.3600E+02  0.3600E+02
     12.768  0.6822E-02  0.1223E-01  0.3600E+02  0.3600E+02
     12.827  0.2171E-02  0.4147E-02  0.3600E+02  0.3600E+02
     12.887  0.5377E-03  0.1194E-02  0.3600E+02  0.3600E+02
     12.946  0.1643E-03  0.3673E-03  0.3600E+02  0.3600E+02
     13.006  0.0000E+00  0.1121E-03  0.3600E+02  0.3600E+02
     13.065  0.0000E+00  0.0000E+00  0.3600E+02  0.3600E+02
     13.125  0.0000E+00  0.0000E+00  0.3600E+02  0.3600E+02
     13.185  0.0000E+00  0.0000E+00  0.3600E+02  0.3600E+02
     13.244  0.0000E+00  0.0000E+00  0.3600E+02  0.3600E+02
     13.304  0.0000E+00  0.0000E+00  0.3600E+02  0.3600E+02
     13.363  0.0000E+00  0.0000E+00  0.3600E+02  0.3600E+02
     13.423  0.0000E+00  0.0000E+00  0.3600E+02  0.3600E+02
     13.42268255     -4.43789001  301      6.24744516      1.00000000
     -4.438  0.0000E+00  0.0000E+00  0.0000E+00  0.0000E+00  0.0000E+00  0.0000E+00  0.0000E+00  0.0000E+00  0.0000E+00  0.0000E+00  0.0000E+00  0.0000E+00  0.0000E+00  0.0000E+00  0.0000E+00  0.0000E+00  0.0000E+00  0.0000E+00
     -4.378  0.0000E+00  0.0000E+00  0.0000E+00  0.0000E+00  0.0000E+00  0.0000E+00  0.0000E+00  0.0000E+00  0.0000E+00  0.0000E+00  0.0000E+00  0.0000E+00  0.0000E+00  0.0000E+00  0.0000E+00  0.0000E+00  0.0000E+00  0.0000E+00
     -4.319  0.0000E+00  0.0000E+00  0.0000E+00  0.0000E+00  0.0000E+00  0.0000E+00  0.0000E+00  0.0000E+00  0.0000E+00  0.0000E+00  0.0000E+00  0.0000E+00  0.0000E+00  0.0000E+00  0.0000E+00  0.0000E+00  0.0000E+00  0.0000E+00
     -4.259  0.0000E+00  0.0000E+00  0.0000E+00  0.0000E+00  0.0000E+00  0.0000E+00  0.0000E+00  0.0000E+00  0.0000E+00  0.0000E+00  0.0000E+00  0.0000E+00  0.0000E+00  0.0000E+00  0.0000E+00  0.0000E+00  0.0000E+00  0.0000E+00
     -4.200  0.0000E+00  0.0000E+00  0.0000E+00  0.0000E+00  0.0000E+00  0.0000E+00  0.0000E+00  0.0000E+00  0.0000E+00  0.0000E+00  0.0000E+00  0.0000E+00  0.0000E+00  0.0000E+00  0.0000E+00  0.0000E+00  0.0000E+00  0.0000E+00
     -4.140  0.0000E+00  0.0000E+00  0.0000E+00  0.0000E+00  0.0000E+00  0.0000E+00  0.0000E+00  0.0000E+00  0.0000E+00  0.0000E+00  0.0000E+00  0.0000E+00  0.0000E+00  0.0000E+00  0.0000E+00  0.0000E+00  0.0000E+00  0.0000E+00
     -4.081  0.2210E-07  0.2096E-07  0.3310E-21  0.1726E-21  0.5098E-11  0.4571E-11  0.3310E-21  0.1726E-21  0.0000E+00  0.0000E+00  0.0000E+00  0.0000E+00  0.0000E+00  0.0000E+00  0.0000E+00  0.0000E+00  0.0000E+00  0.0000E+00
     -4.021  0.2022E-06  0.1917E-06  0.7188E-09  0.6821E-09  0.8412E-09  0.7957E-09  0.7188E-09  0.6821E-09  0.0000E+00  0.0000E+00  0.0000E+00  0.0000E+00  0.0000E+00  0.0000E+00  0.0000E+00  0.0000E+00  0.0000E+00  0.0000E+00
     -3.962  0.8587E-06  0.8143E-06  0.4867E-08  0.4619E-08  0.5855E-08  0.5545E-08  0.4867E-08  0.4619E-08  0.0000E+00  0.0000E+00  0.0000E+00  0.0000E+00  0.0000E+00  0.0000E+00  0.0000E+00  0.0000E+00  0.0000E+00  0.0000E+00
     -3.902  0.2737E-05  0.2596E-05  0.1637E-07  0.1553E-07  0.2002E-07  0.1897E-07  0.1637E-07  0.1553E-07  0.0000E+00  0.0000E+00  0.0000E+00  0.0000E+00  0.0000E+00  0.0000E+00  0.0000E+00  0.0000E+00  0.0000E+00  0.0000E+00
     -3.843  0.8936E-05  0.8477E-05  0.5542E-07  0.5260E-07  0.6489E-07  0.6147E-07  0.5542E-07  0.5260E-07  0.0000E+00  0.0000E+00  0.0000E+00  0.0000E+00  0.0000E+00  0.0000E+00  0.0000E+00  0.0000E+00  0.0000E+00  0.0000E+00
     -3.783  0.2979E-04  0.2828E-04  0.2041E-06  0.1938E-06  0.2336E-06  0.2214E-06  0.2041E-06  0.1938E-06  0.0000E+00  0.0000E+00  0.0000E+00  0.0000E+00  0.0000E+00  0.0000E+00  0.0000E+00  0.0000E+00  0.0000E+00  0.0000E+00
     -3.723  0.9382E-04  0.8924E-04  0.6664E-06  0.6333E-06  0.7673E-06  0.7279E-06  0.6664E-06  0.6333E-06  0.0000E+00  0.0000E+00  0.0000E+00  0.0000E+00  0.0000E+00  0.0000E+00  0.0000E+00  0.0000E+00  0.0000E+00  0.0000E+00
     -3.664  0.2708E-03  0.2589E-03  0.2032E-05  0.1937E-05  0.2343E-05  0.2229E-05  0.2032E-05  0.1937E-05  0.0000E+00  0.0000E+00  0.0000E+00  0.0000E+00  0.0000E+00  0.0000E+00  0.0000E+00  0.0000E+00  0.0000E+00  0.0000E+00
     -3.604  0.6616E-03  0.6384E-03  0.5706E-05  0.5470E-05  0.6624E-05  0.6340E-05  0.5706E-05  0.5470E-05  0.0000E+00  0.0000E+00  0.0000E+00  0.0000E+00  0.0000E+00  0.0000E+00  0.0000E+00  0.0000E+00  0.0000E+00  0.0000E+00
     -3.545  0.1247E-02  0.1218E-02  0.1328E-04  0.1284E-04  0.1533E-04  0.1480E-04  0.1328E-04  0.1284E-04  0.0000E+00  0.0000E+00  0.0000E+00  0.0000E+00  0.0000E+00  0.0000E+00  0.0000E+00  0.0000E+00  0.0000E+00  0.0000E+00
     -3.485  0.1798E-02  0.1773E-02  0.2548E-04  0.2481E-04  0.2848E-04  0.2776E-04  0.2548E-04  0.2481E-04  0.0000E+00  0.0000E+00  0.0000E+00  0.0000E+00  0.0000E+00  0.0000E+00  0.0000E+00  0.0000E+00  0.0000E+00  0.0000E+00
     -3.426  0.2253E-02  0.2226E-02  0.4368E-04  0.4268E-04  0.4781E-04  0.4664E-04  0.4368E-04  0.4268E-04  0.0000E+00  0.0000E+00  0.0000E+00  0.0000E+00  0.0000E+00  0.0000E+00  0.0000E+00  0.0000E+00  0.0000E+00  0.0000E+00
     -3.366  0.2807E-02  0.2776E-02  0.6801E-04  0.6684E-04  0.7853E-04  0.7685E-04  0.6801E-04  0.6684E-04  0.0000E+00  0.0000E+00  0.0000E+00  0.0000E+00  0.0000E+00  0.0000E+00  0.0000E+00  0.0000E+00  0.0000E+00  0.0000E+00
     -3.307  0.3147E-02  0.3134E-02  0.8851E-04  0.8765E-04  0.1083E-03  0.1070E-03  0.8851E-04  0.8765E-04  0.0000E+00  0.0000E+00  0.0000E+00  0.0000E+00  0.0000E+00  0.0000E+00  0.0000E+00  0.0000E+00  0.0000E+00  0.0000E+00
     -3.247  0.3062E-02  0.3056E-02  0.1063E-03  0.1050E-03  0.1234E-03  0.1224E-03  0.1063E-03  0.1050E-03  0.0000E+00  0.0000E+00  0.0000E+00  0.0000E+00  0.0000E+00  0.0000E+00  0.0000E+00  0.0000E+00  0.0000E+00  0.0000E+00
     -3.188  0.3303E-02  0.3271E-02  0.1465E-03  0.1440E-03  0.1534E-03  0.1510E-03  0.1465E-03  0.1440E-03  0.0000E+00  0.0000E+00  0.0000E+00  0.0000E+00  0.0000E+00  0.0000E+00  0.0000E+00  0.0000E+00  0.0000E+00  0.0000E+00
     -3.128  0.3878E-02  0.3848E-02  0.1980E-03  0.1958E-03  0.2075E-03  0.2045E-03  0.1980E-03  0.1958E-03  0.0000E+00  0.0000E+00  0.0000E+00  0.0000E+00  0.0000E+00  0.0000E+00  0.0000E+00  0.0000E+00  0.0000E+00  0.0000E+00
     -3.069  0.4019E-02  0.4012E-02  0.2223E-03  0.2214E-03  0.2582E-03  0.2556E-03  0.2223E-03  0.2214E-03  0.0000E+00  0.0000E+00  0.0000E+00  0.0000E+00  0.0000E+00  0.0000E+00  0.0000E+00  0.0000E+00  0.0000E+00  0.0000E+00
     -3.009  0.3908E-02  0.3898E-02  0.2367E-03  0.2352E-03  0.3003E-03  0.2979E-03  0.2367E-03  0.2352E-03  0.0000E+00  0.0000E+00  0.0000E+00  0.0000E+00  0.0000E+00  0.0000E+00  0.0000E+00  0.0000E+00  0.0000E+00  0.0000E+00
     -2.950  0.4058E-02  0.4034E-02  0.2797E-03  0.2770E-03  0.3433E-03  0.3403E-03  0.2797E-03  0.2770E-03  0.0000E+00  0.0000E+00  0.0000E+00  0.0000E+00  0.0000E+00  0.0000E+00  0.0000E+00  0.0000E+00  0.0000E+00  0.0000E+00
     -2.890  0.4230E-02  0.4218E-02  0.3273E-03  0.3253E-03  0.3852E-03  0.3832E-03  0.3273E-03  0.3253E-03  0.0000E+00  0.0000E+00  0.0000E+00  0.0000E+00  0.0000E+00  0.0000E+00  0.0000E+00  0.0000E+00  0.0000E+00  0.0000E+00
     -2.830  0.4067E-02  0.4063E-02  0.3628E-03  0.3604E-03  0.3895E-03  0.3890E-03  0.3628E-03  0.3604E-03  0.0000E+00  0.0000E+00  0.0000E+00  0.0000E+00  0.0000E+00  0.0000E+00  0.0000E+00  0.0000E+00  0.0000E+00  0.0000E+00
     -2.771  0.4141E-02  0.4114E-02  0.4337E-03  0.4296E-03  0.4134E-03  0.4096E-03  0.4337E-03  0.4296E-03  0.0000E+00  0.0000E+00  0.0000E+00  0.0000E+00  0.0000E+00  0.0000E+00  0.0000E+00  0.0000E+00  0.0000E+00  0.0000E+00
     -2.711  0.4569E-02  0.4538E-02  0.5083E-03  0.5054E-03  0.5422E-03  0.5345E-03  0.5083E-03  0.5054E-03  0.0000E+00  0.0000E+00  0.0000E+00  0.0000E+00  0.0000E+00  0.0000E+00  0.0000E+00  0.0000E+00  0.0000E+00  0.0000E+00
     -2.652  0.4802E-02  0.4783E-02  0.5457E-03  0.5436E-03  0.6915E-03  0.6856E-03  0.5457E-03  0.5436E-03  0.0000E+00  0.0000E+00  0.0000E+00  0.0000E+00  0.0000E+00  0.0000E+00  0.0000E+00  0.0000E+00  0.0000E+00  0.0000E+00
     -2.592  0.4758E-02  0.4751E-02  0.5755E-03  0.5739E-03  0.7540E-03  0.7516E-03  0.5755E-03  0.5739E-03  0.0000E+00  0.0000E+00  0.0000E+00  0.0000E+00  0.0000E+00  0.0000E+00  0.0000E+00  0.0000E+00  0.0000E+00  0.0000E+00
     -2.533  0.4423E-02  0.4424E-02  0.5705E-03  0.5704E-03  0.7730E-03  0.7703E-03  0.5705E-03  0.5704E-03  0.0000E+00  0.0000E+00  0.0000E+00  0.0000E+00  0.0000E+00  0.0000E+00  0.0000E+00  0.0000E+00  0.0000E+00  0.0000E+00
     -2.473  0.4110E-02  0.4104E-02  0.5818E-03  0.5786E-03  0.7875E-03  0.7865E-03  0.5818E-03  0.5786E-03  0.0000E+00  0.0000E+00  0.0000E+00  0.0000E+00  0.0000E+00  0.0000E+00  0.0000E+00  0.0000E+00  0.0000E+00  0.0000E+00
     -2.414  0.4125E-02  0.4104E-02  0.7117E-03  0.7036E-03  0.7453E-03  0.7451E-03  0.7117E-03  0.7036E-03  0.0000E+00  0.0000E+00  0.0000E+00  0.0000E+00  0.0000E+00  0.0000E+00  0.0000E+00  0.0000E+00  0.0000E+00  0.0000E+00
     -2.354  0.4460E-02  0.4432E-02  0.8979E-03  0.8906E-03  0.8157E-03  0.8069E-03  0.8979E-03  0.8906E-03  0.0000E+00  0.0000E+00  0.0000E+00  0.0000E+00  0.0000E+00  0.0000E+00  0.0000E+00  0.0000E+00  0.0000E+00  0.0000E+00
     -2.295  0.4752E-02  0.4731E-02  0.9867E-03  0.9842E-03  0.1109E-02  0.1093E-02  0.9867E-03  0.9842E-03  0.0000E+00  0.0000E+00  0.0000E+00  0.0000E+00  0.0000E+00  0.0000E+00  0.0000E+00  0.0000E+00  0.0000E+00  0.0000E+00
     -2.235  0.4734E-02  0.4723E-02  0.9996E-03  0.9970E-03  0.1381E-02  0.1372E-02  0.9996E-03  0.9970E-03  0.0000E+00  0.0000E+00  0.0000E+00  0.0000E+00  0.0000E+00  0.0000E+00  0.0000E+00  0.0000E+00  0.0000E+00  0.0000E+00
     -2.176  0.4612E-02  0.4604E-02  0.1057E-02  0.1054E-02  0.1442E-02  0.1440E-02  0.1057E-02  0.1054E-02  0.0000E+00  0.0000E+00  0.0000E+00  0.0000E+00  0.0000E+00  0.0000E+00  0.0000E+00  0.0000E+00  0.0000E+00  0.0000E+00
     -2.116  0.4242E-02  0.4250E-02  0.1038E-02  0.1040E-02  0.1482E-02  0.1476E-02  0.1038E-02  0.1040E-02  0.0000E+00  0.0000E+00  0.0000E+00  0.0000E+00  0.0000E+00  0.0000E+00  0.0000E+00  0.0000E+00  0.0000E+00  0.0000E+00
     -2.056  0.3657E-02  0.3664E-02  0.9776E-03  0.9757E-03  0.1587E-02  0.1582E-02  0.9776E-03  0.9757E-03  0.0000E+00  0.0000E+00  0.0000E+00  0.0000E+00  0.0000E+00  0.0000E+00  0.0000E+00  0.0000E+00  0.0000E+00  0.0000E+00
     -1.997  0.3484E-02  0.3468E-02  0.1179E-02  0.1165E-02  0.1611E-02  0.1608E-02  0.1179E-02  0.1165E-02  0.0000E+00  0.0000E+00  0.0000E+00  0.0000E+00  0.0000E+00  0.0000E+00  0.0000E+00  0.0000E+00  0.0000E+00  0.0000E+00
     -1.937  0.3859E-02  0.3830E-02  0.1594E-02  0.1578E-02  0.1722E-02  0.1710E-02  0.1594E-02  0.1578E-02  0.0000E+00  0.0000E+00  0.0000E+00  0.0000E+00  0.0000E+00  0.0000E+00  0.0000E+00  0.0000E+00  0.0000E+00  0.0000E+00
     -1.878  0.4189E-02  0.4171E-02  0.1878E-02  0.1870E-02  0.2007E-02  0.1992E-02  0.1878E-02  0.1870E-02  0.0000E+00  0.0000E+00  0.0000E+00  0.0000E+00  0.0000E+00  0.0000E+00  0.0000E+00  0.0000E+00  0.0000E+00  0.0000E+00
     -1.818  0.3940E-02  0.3944E-02  0.1926E-02  0.1923E-02  0.2192E-02  0.2186E-02  0.1926E-02  0.1923E-02  0.0000E+00  0.0000E+00  0.0000E+00  0.0000E+00  0.0000E+00  0.0000E+00  0.0000E+00  0.0000E+00  0.0000E+00  0.0000E+00
     -1.759  0.3408E-02  0.3417E-02  0.1945E-02  0.1943E-02  0.2040E-02  0.2048E-02  0.1945E-02  0.1943E-02  0.0000E+00  0.0000E+00  0.0000E+00  0.0000E+00  0.0000E+00  0.0000E+00  0.0000E+00  0.0000E+00  0.0000E+00  0.0000E+00
     -1.699  0.2802E-02  0.2815E-02  0.1828E-02  0.1833E-02  0.1676E-02  0.1684E-02  0.1828E-02  0.1833E-02  0.0000E+00  0.0000E+00  0.0000E+00  0.0000E+00  0.0000E+00  0.0000E+00  0.0000E+00  0.0000E+00  0.0000E+00  0.0000E+00
     -1.640  0.2317E-02  0.2319E-02  0.1607E-02  0.1609E-02  0.1527E-02  0.1524E-02  0.1607E-02  0.1609E-02  0.0000E+00  0.0000E+00  0.0000E+00  0.0000E+00  0.0000E+00  0.0000E+00  0.0000E+00  0.0000E+00  0.0000E+00  0.0000E+00
     -1.580  0.2308E-02  0.2292E-02  0.1586E-02  0.1579E-02  0.1644E-02  0.1634E-02  0.1586E-02  0.1579E-02  0.0000E+00  0.0000E+00  0.0000E+00  0.0000E+00  0.0000E+00  0.0000E+00  0.0000E+00  0.0000E+00  0.0000E+00  0.0000E+00
     -1.521  0.2612E-02  0.2591E-02  0.1720E-02  0.1712E-02  0.1900E-02  0.1887E-02  0.1720E-02  0.1712E-02  0.0000E+00  0.0000E+00  0.0000E+00  0.0000E+00  0.0000E+00  0.0000E+00  0.0000E+00  0.0000E+00  0.0000E+00  0.0000E+00
     -1.461  0.2712E-02  0.2705E-02  0.1730E-02  0.1730E-02  0.2017E-02  0.2014E-02  0.1730E-02  0.1730E-02  0.0000E+00  0.0000E+00  0.0000E+00  0.0000E+00  0.0000E+00  0.0000E+00  0.0000E+00  0.0000E+00  0.0000E+00  0.0000E+00