  16  16   1   0
  0.1494242E+02  0.3909358E-09  0.3909358E-09  0.1564336E-08  0.5000000E-15
  1.000000000000000E-004
  CAR 
 unknown system                          
     14.72173996     -4.18816052  301      7.08222753      1.00000000
     -4.188  0.0000E+00  0.0000E+00  0.0000E+00  0.0000E+00
     -4.125  0.0000E+00  0.0000E+00  0.0000E+00  0.0000E+00
     -4.062  0.0000E+00  0.0000E+00  0.0000E+00  0.0000E+00
     -3.999  0.0000E+00  0.0000E+00  0.0000E+00  0.0000E+00
     -3.936  0.0000E+00  0.0000E+00  0.0000E+00  0.0000E+00
     -3.873  0.0000E+00  0.0000E+00  0.0000E+00  0.0000E+00
     -3.810  0.0000E+00  0.0000E+00  0.0000E+00  0.0000E+00
     -3.747  0.7277E-05  0.6959E-05  0.4587E-06  0.4386E-06
     -3.684  0.8203E-04  0.7845E-04  0.5629E-05  0.5384E-05
     -3.621  0.3271E-03  0.3128E-03  0.2624E-04  0.2510E-04
     -3.558  0.1067E-02  0.1021E-02  0.9353E-04  0.8947E-04
     -3.495  0.3831E-02  0.3666E-02  0.3350E-03  0.3206E-03
     -3.432  0.1297E-01  0.1243E-01  0.1153E-02  0.1104E-02
     -3.369  0.4030E-01  0.3881E-01  0.3693E-02  0.3551E-02
     -3.306  0.1047E+00  0.1017E+00  0.1029E-01  0.9960E-02
     -3.243  0.2056E+00  0.2018E+00  0.2325E-01  0.2268E-01
     -3.180  0.3007E+00  0.2978E+00  0.4220E-01  0.4145E-01
     -3.117  0.3797E+00  0.3766E+00  0.6614E-01  0.6519E-01
     -3.054  0.4864E+00  0.4825E+00  0.9680E-01  0.9561E-01
     -2.991  0.5554E+00  0.5549E+00  0.1318E+00  0.1306E+00
     -2.928  0.5378E+00  0.5382E+00  0.1657E+00  0.1645E+00
     -2.864  0.5953E+00  0.5910E+00  0.2032E+00  0.2018E+00
     -2.801  0.7268E+00  0.7232E+00  0.2491E+00  0.2474E+00
     -2.738  0.7633E+00  0.7639E+00  0.2972E+00  0.2955E+00
     -2.675  0.7490E+00  0.7489E+00  0.3444E+00  0.3428E+00
     -2.612  0.7994E+00  0.7966E+00  0.3948E+00  0.3930E+00
     -2.549  0.8573E+00  0.8569E+00  0.4489E+00  0.4470E+00
     -2.486  0.8333E+00  0.8344E+00  0.5014E+00  0.4996E+00
     -2.423  0.8735E+00  0.8702E+00  0.5565E+00  0.5545E+00
     -2.360  0.1004E+01  0.1000E+01  0.6199E+00  0.6176E+00
     -2.297  0.1084E+01  0.1083E+01  0.6882E+00  0.6859E+00
     -2.234  0.1099E+01  0.1100E+01  0.7576E+00  0.7553E+00
     -2.171  0.1041E+01  0.1044E+01  0.8232E+00  0.8211E+00
     -2.108  0.9938E+00  0.9943E+00  0.8859E+00  0.8838E+00
     -2.045  0.1037E+01  0.1034E+01  0.9513E+00  0.9490E+00
     -1.982  0.1184E+01  0.1178E+01  0.1026E+01  0.1023E+01
     -1.919  0.1331E+01  0.1328E+01  0.1110E+01  0.1107E+01
     -1.856  0.1386E+01  0.1386E+01  0.1197E+01  0.1194E+01
     -1.793  0.1404E+01  0.1405E+01  0.1286E+01  0.1283E+01
     -1.730  0.1347E+01  0.1351E+01  0.1371E+01  0.1368E+01
     -1.667  0.1247E+01  0.1249E+01  0.1449E+01  0.1447E+01
     -1.604  0.1311E+01  0.1306E+01  0.1532E+01  0.1529E+01
     -1.541  0.1580E+01  0.1571E+01  0.1632E+01  0.1628E+01
     -1.478  0.1820E+01  0.1816E+01  0.1747E+01  0.1743E+01
     -1.415  0.1839E+01  0.1841E+01  0.1863E+01  0.1859E+01
     -1.352  0.1738E+01  0.1744E+01  0.1972E+01  0.1969E+01
     -1.289  0.1509E+01  0.1517E+01  0.2067E+01  0.2065E+01
     -1.226  0.1305E+01  0.1308E+01  0.2150E+01  0.2147E+01
     -1.163  0.1334E+01  0.1330E+01  0.2234E+01  0.2231E+01
     -1.100  0.1513E+01  0.1507E+01  0.2329E+01  0.2326E+01
     -1.037  0.1558E+01  0.1560E+01  0.2428E+01  0.2425E+01
     -0.973  0.1397E+01  0.1403E+01  0.2516E+01  0.2513E+01
     -0.910  0.1234E+01  0.1239E+01  0.2594E+01  0.2591E+01
     -0.847  0.1069E+01  0.1073E+01  0.2661E+01  0.2659E+01
     -0.784  0.1046E+01  0.1042E+01  0.2727E+01  0.2725E+01
     -0.721  0.1261E+01  0.1253E+01  0.2806E+01  0.2804E+01
     -0.658  0.1466E+01  0.1462E+01  0.2899E+01  0.2896E+01
     -0.595  0.1482E+01  0.1484E+01  0.2992E+01  0.2990E+01
     -0.532  0.1334E+01  0.1340E+01  0.3077E+01  0.3074E+01
     -0.469  0.1107E+01  0.1114E+01  0.3146E+01  0.3144E+01
     -0.406  0.9204E+00  0.9238E+00  0.3204E+01  0.3203E+01
     -0.343  0.9324E+00  0.9273E+00  0.3263E+01  0.3261E+01
     -0.280  0.1135E+01  0.1129E+01  0.3335E+01  0.3332E+01
     -0.217  0.1227E+01  0.1227E+01  0.3412E+01  0.3410E+01
     -0.154  0.1170E+01  0.1172E+01  0.3486E+01  0.3484E+01
     -0.091  0.1120E+01  0.1119E+01  0.3557E+01  0.3554E+01
     -0.028  0.1130E+01  0.1128E+01  0.3628E+01  0.3625E+01
      0.035  0.1163E+01  0.1158E+01  0.3701E+01  0.3698E+01
      0.098  0.1319E+01  0.1311E+01  0.3784E+01  0.3781E+01
      0.161  0.1506E+01  0.1500E+01  0.3879E+01  0.3876E+01
      0.224  0.1666E+01  0.1661E+01  0.3985E+01  0.3981E+01
      0.287  0.1802E+01  0.1796E+01  0.4098E+01  0.4094E+01
      0.350  0.1984E+01  0.1976E+01  0.4223E+01  0.4218E+01
      0.413  0.2197E+01  0.2188E+01  0.4362E+01  0.4356E+01
      0.476  0.2319E+01  0.2320E+01  0.4508E+01  0.4503E+01
      0.539  0.2186E+01  0.2194E+01  0.4646E+01  0.4641E+01
      0.602  0.2053E+01  0.2057E+01  0.4775E+01  0.4771E+01
      0.665  0.1865E+01  0.1875E+01  0.4893E+01  0.4889E+01
      0.728  0.1566E+01  0.1575E+01  0.4992E+01  0.4988E+01
      0.791  0.1514E+01  0.1511E+01  0.5087E+01  0.5084E+01
      0.854  0.1630E+01  0.1627E+01  0.5190E+01  0.5186E+01
      0.918  0.1618E+01  0.1619E+01  0.5292E+01  0.5289E+01
      0.981  0.1710E+01  0.1701E+01  0.5400E+01  0.5396E+01
      1.044  0.2093E+01  0.2077E+01  0.5532E+01  0.5527E+01
      1.107  0.2397E+01  0.2393E+01  0.5683E+01  0.5678E+01
      1.170  0.2270E+01  0.2280E+01  0.5826E+01  0.5821E+01
      1.233  0.2062E+01  0.2067E+01  0.5956E+01  0.5952E+01
      1.296  0.1937E+01  0.1945E+01  0.6079E+01  0.6075E+01
      1.359  0.1611E+01  0.1625E+01  0.6180E+01  0.6177E+01
      1.422  0.1297E+01  0.1305E+01  0.6262E+01  0.6259E+01
      1.485  0.1202E+01  0.1202E+01  0.6338E+01  0.6335E+01
      1.548  0.1306E+01  0.1300E+01  0.6420E+01  0.6417E+01
      1.611  0.1496E+01  0.1489E+01  0.6515E+01  0.6511E+01
      1.674  0.1670E+01  0.1662E+01  0.6620E+01  0.6616E+01
      1.737  0.1726E+01  0.1725E+01  0.6729E+01  0.6725E+01
      1.800  0.1679E+01  0.1677E+01  0.6835E+01  0.6831E+01
      1.863  0.1811E+01  0.1799E+01  0.6949E+01  0.6944E+01
      1.926  0.2120E+01  0.2108E+01  0.7083E+01  0.7077E+01
      1.989  0.2338E+01  0.2333E+01  0.7230E+01  0.7224E+01
      2.052  0.2334E+01  0.2337E+01  0.7377E+01  0.7372E+01
      2.115  0.2266E+01  0.2267E+01  0.7520E+01  0.7515E+01
      2.178  0.2328E+01  0.2323E+01  0.7667E+01  0.7661E+01
      2.241  0.2375E+01  0.2374E+01  0.7817E+01  0.7811E+01
      2.304  0.2349E+01  0.2348E+01  0.7965E+01  0.7959E+01
      2.367  0.2286E+01  0.2291E+01  0.8109E+01  0.8103E+01
      2.430  0.2099E+01  0.2105E+01  0.8242E+01  0.8236E+01
      2.493  0.2036E+01  0.2035E+01  0.8370E+01  0.8365E+01
      2.556  0.2098E+01  0.2096E+01  0.8502E+01  0.8497E+01
      2.619  0.2239E+01  0.2234E+01  0.8644E+01  0.8638E+01
      2.682  0.2430E+01  0.2427E+01  0.8797E+01  0.8791E+01
      2.745  0.2430E+01  0.2435E+01  0.8950E+01  0.8944E+01
      2.809  0.2214E+01  0.2225E+01  0.9090E+01  0.9085E+01
      2.872  0.1982E+01  0.1986E+01  0.9215E+01  0.9210E+01
      2.935  0.1936E+01  0.1937E+01  0.9337E+01  0.9332E+01
      2.998  0.1832E+01  0.1838E+01  0.9453E+01  0.9448E+01
      3.061  0.1734E+01  0.1734E+01  0.9562E+01  0.9558E+01
      3.124  0.1757E+01  0.1751E+01  0.9673E+01  0.9668E+01
      3.187  0.2011E+01  0.1991E+01  0.9800E+01  0.9794E+01
      3.250  0.2512E+01  0.2489E+01  0.9958E+01  0.9951E+01
      3.313  0.2750E+01  0.2748E+01  0.1013E+02  0.1012E+02
      3.376  0.2644E+01  0.2649E+01  0.1030E+02  0.1029E+02
      3.439  0.2559E+01  0.2560E+01  0.1046E+02  0.1045E+02
      3.502  0.2669E+01  0.2660E+01  0.1063E+02  0.1062E+02
      3.565  0.2860E+01  0.2856E+01  0.1081E+02  0.1080E+02
      3.628  0.2743E+01  0.2753E+01  0.1098E+02  0.1097E+02
      3.691  0.2564E+01  0.2568E+01  0.1114E+02  0.1114E+02
      3.754  0.2589E+01  0.2589E+01  0.1131E+02  0.1130E+02
      3.817  0.2640E+01  0.2642E+01  0.1147E+02  0.1147E+02
      3.880  0.2658E+01  0.2656E+01  0.1164E+02  0.1163E+02
      3.943  0.2685E+01  0.2684E+01  0.1181E+02  0.1180E+02
      4.006  0.2579E+01  0.2587E+01  0.1197E+02  0.1197E+02
      4.069  0.2370E+01  0.2376E+01  0.1212E+02  0.1212E+02
      4.132  0.2410E+01  0.2402E+01  0.1227E+02  0.1227E+02
      4.195  0.2595E+01  0.2589E+01  0.1244E+02  0.1243E+02
      4.258  0.2642E+01  0.2642E+01  0.1260E+02  0.1260E+02
      4.321  0.2591E+01  0.2596E+01  0.1277E+02  0.1276E+02
      4.384  0.2346E+01  0.2362E+01  0.1292E+02  0.1291E+02
      4.447  0.2035E+01  0.2047E+01  0.1304E+02  0.1304E+02
      4.510  0.2006E+01  0.1998E+01  0.1317E+02  0.1317E+02
      4.573  0.2511E+01  0.2480E+01  0.1333E+02  0.1332E+02
      4.636  0.3282E+01  0.3252E+01  0.1354E+02  0.1353E+02
      4.699  0.3606E+01  0.3602E+01  0.1376E+02  0.1375E+02
      4.763  0.3366E+01  0.3384E+01  0.1398E+02  0.1397E+02
      4.826  0.2942E+01  0.2962E+01  0.1416E+02  0.1415E+02
      4.889  0.2658E+01  0.2667E+01  0.1433E+02  0.1432E+02
      4.952  0.2615E+01  0.2614E+01  0.1449E+02  0.1449E+02
      5.015  0.2730E+01  0.2727E+01  0.1467E+02  0.1466E+02
      5.078  0.2768E+01  0.2771E+01  0.1484E+02  0.1483E+02
      5.141  0.2597E+01  0.2605E+01  0.1500E+02  0.1500E+02
      5.204  0.2518E+01  0.2516E+01  0.1516E+02  0.1516E+02
      5.267  0.2691E+01  0.2682E+01  0.1533E+02  0.1533E+02
      5.330  0.2823E+01  0.2821E+01  0.1551E+02  0.1550E+02
      5.393  0.2819E+01  0.2817E+01  0.1569E+02  0.1568E+02
      5.456  0.2840E+01  0.2839E+01  0.1587E+02  0.1586E+02
      5.519  0.2787E+01  0.2790E+01  0.1604E+02  0.1604E+02
      5.582  0.2714E+01  0.2717E+01  0.1622E+02  0.1621E+02
      5.645  0.2627E+01  0.2635E+01  0.1638E+02  0.1637E+02
      5.708  0.2443E+01  0.2450E+01  0.1654E+02  0.1653E+02
      5.771  0.2428E+01  0.2422E+01  0.1669E+02  0.1668E+02
      5.834  0.2677E+01  0.2665E+01  0.1686E+02  0.1685E+02
      5.897  0.2918E+01  0.2916E+01  0.1704E+02  0.1703E+02
      5.960  0.2720E+01  0.2739E+01  0.1721E+02  0.1721E+02
      6.023  0.2224E+01  0.2241E+01  0.1735E+02  0.1735E+02
      6.086  0.2043E+01  0.2042E+01  0.1748E+02  0.1748E+02
      6.149  0.2158E+01  0.2152E+01  0.1762E+02  0.1761E+02
      6.212  0.2266E+01  0.2262E+01  0.1776E+02  0.1775E+02
      6.275  0.2340E+01  0.2337E+01  0.1791E+02  0.1790E+02
      6.338  0.2539E+01  0.2528E+01  0.1807E+02  0.1806E+02
      6.401  0.2885E+01  0.2872E+01  0.1825E+02  0.1824E+02
      6.464  0.3007E+01  0.3010E+01  0.1844E+02  0.1843E+02
      6.527  0.2678E+01  0.2696E+01  0.1861E+02  0.1860E+02
      6.590  0.2200E+01  0.2216E+01  0.1875E+02  0.1874E+02
      6.654  0.1955E+01  0.1957E+01  0.1887E+02  0.1887E+02
      6.717  0.2020E+01  0.2010E+01  0.1900E+02  0.1899E+02
      6.780  0.2351E+01  0.2332E+01  0.1915E+02  0.1914E+02
      6.843  0.2777E+01  0.2764E+01  0.1932E+02  0.1931E+02
      6.906  0.2970E+01  0.2968E+01  0.1951E+02  0.1950E+02
      6.969  0.2903E+01  0.2907E+01  0.1969E+02  0.1968E+02
      7.032  0.2760E+01  0.2761E+01  0.1987E+02  0.1986E+02
      7.095  0.2713E+01  0.2713E+01  0.2004E+02  0.2003E+02
      7.158  0.2659E+01  0.2663E+01  0.2021E+02  0.2020E+02
      7.221  0.2636E+01  0.2633E+01  0.2037E+02  0.2036E+02
      7.284  0.2757E+01  0.2751E+01  0.2055E+02  0.2054E+02
      7.347  0.2855E+01  0.2850E+01  0.2073E+02  0.2072E+02
      7.410  0.3011E+01  0.3000E+01  0.2092E+02  0.2091E+02
      7.473  0.3156E+01  0.3150E+01  0.2111E+02  0.2111E+02
      7.536  0.3029E+01  0.3042E+01  0.2131E+02  0.2130E+02
      7.599  0.2656E+01  0.2672E+01  0.2147E+02  0.2147E+02
      7.662  0.2469E+01  0.2471E+01  0.2163E+02  0.2162E+02
      7.725  0.2582E+01  0.2571E+01  0.2179E+02  0.2178E+02
      7.788  0.2821E+01  0.2815E+01  0.2197E+02  0.2196E+02
      7.851  0.2848E+01  0.2852E+01  0.2215E+02  0.2214E+02
      7.914  0.2843E+01  0.2838E+01  0.2233E+02  0.2232E+02
      7.977  0.3048E+01  0.3035E+01  0.2252E+02  0.2251E+02
      8.040  0.3339E+01  0.3325E+01  0.2273E+02  0.2272E+02
      8.103  0.3453E+01  0.3457E+01  0.2295E+02  0.2294E+02
      8.166  0.3244E+01  0.3259E+01  0.2315E+02  0.2314E+02
      8.229  0.2953E+01  0.2968E+01  0.2334E+02  0.2333E+02
      8.292  0.2667E+01  0.2679E+01  0.2351E+02  0.2350E+02
      8.355  0.2577E+01  0.2574E+01  0.2367E+02  0.2366E+02
      8.418  0.2714E+01  0.2708E+01  0.2384E+02  0.2383E+02
      8.481  0.2714E+01  0.2716E+01  0.2401E+02  0.2401E+02
      8.545  0.2664E+01  0.2667E+01  0.2418E+02  0.2417E+02
      8.608  0.2560E+01  0.2570E+01  0.2434E+02  0.2434E+02
      8.671  0.2461E+01  0.2462E+01  0.2450E+02  0.2449E+02
      8.734  0.2636E+01  0.2623E+01  0.2466E+02  0.2466E+02
      8.797  0.2944E+01  0.2935E+01  0.2485E+02  0.2484E+02
      8.860  0.2960E+01  0.2965E+01  0.2504E+02  0.2503E+02
      8.923  0.2773E+01  0.2779E+01  0.2521E+02  0.2520E+02
      8.986  0.2823E+01  0.2813E+01  0.2539E+02  0.2538E+02
      9.049  0.3403E+01  0.3371E+01  0.2560E+02  0.2559E+02
      9.112  0.4022E+01  0.4012E+01  0.2586E+02  0.2585E+02
      9.175  0.3829E+01  0.3853E+01  0.2610E+02  0.2609E+02
      9.238  0.3329E+01  0.3335E+01  0.2631E+02  0.2630E+02
      9.301  0.3415E+01  0.3395E+01  0.2652E+02  0.2651E+02
      9.364  0.3689E+01  0.3682E+01  0.2676E+02  0.2675E+02
      9.427  0.3553E+01  0.3568E+01  0.2698E+02  0.2697E+02
      9.490  0.3125E+01  0.3145E+01  0.2718E+02  0.2717E+02
      9.553  0.2771E+01  0.2779E+01  0.2735E+02  0.2735E+02
      9.616  0.2896E+01  0.2880E+01  0.2754E+02  0.2753E+02
      9.679  0.3388E+01  0.3369E+01  0.2775E+02  0.2774E+02
      9.742  0.3648E+01  0.3644E+01  0.2798E+02  0.2797E+02
      9.805  0.3658E+01  0.3659E+01  0.2821E+02  0.2820E+02
      9.868  0.3520E+01  0.3529E+01  0.2843E+02  0.2842E+02
      9.931  0.3127E+01  0.3148E+01  0.2863E+02  0.2862E+02
      9.994  0.2774E+01  0.2783E+01  0.2880E+02  0.2880E+02
     10.057  0.2974E+01  0.2954E+01  0.2899E+02  0.2898E+02
     10.120  0.3544E+01  0.3521E+01  0.2922E+02  0.2921E+02
     10.183  0.3838E+01  0.3832E+01  0.2946E+02  0.2945E+02
     10.246  0.3765E+01  0.3774E+01  0.2970E+02  0.2969E+02
     10.309  0.3489E+01  0.3503E+01  0.2992E+02  0.2991E+02
     10.372  0.3165E+01  0.3176E+01  0.3012E+02  0.3011E+02
     10.435  0.2998E+01  0.2995E+01  0.3030E+02  0.3030E+02
     10.499  0.3011E+01  0.3010E+01  0.3049E+02  0.3049E+02
     10.562  0.2883E+01  0.2898E+01  0.3068E+02  0.3067E+02
     10.625  0.2841E+01  0.2842E+01  0.3086E+02  0.3085E+02
     10.688  0.3176E+01  0.3162E+01  0.3106E+02  0.3105E+02
     10.751  0.3342E+01  0.3339E+01  0.3127E+02  0.3126E+02
     10.814  0.3322E+01  0.3318E+01  0.3148E+02  0.3147E+02
     10.877  0.3504E+01  0.3497E+01  0.3170E+02  0.3169E+02
     10.940  0.3481E+01  0.3490E+01  0.3192E+02  0.3191E+02
     11.003  0.3156E+01  0.3170E+01  0.3212E+02  0.3211E+02
     11.066  0.2973E+01  0.2972E+01  0.3230E+02  0.3229E+02
     11.129  0.3251E+01  0.3234E+01  0.3251E+02  0.3250E+02
     11.192  0.3655E+01  0.3651E+01  0.3274E+02  0.3273E+02
     11.255  0.3747E+01  0.3774E+01  0.3298E+02  0.3297E+02
     11.318  0.3616E+01  0.3659E+01  0.3320E+02  0.3320E+02
     11.381  0.3621E+01  0.3652E+01  0.3343E+02  0.3343E+02
     11.444  0.3595E+01  0.3585E+01  0.3366E+02  0.3365E+02
     11.507  0.3257E+01  0.3211E+01  0.3386E+02  0.3386E+02
     11.570  0.2934E+01  0.2898E+01  0.3405E+02  0.3404E+02
     11.633  0.2671E+01  0.2664E+01  0.3422E+02  0.3421E+02
     11.696  0.2291E+01  0.2296E+01  0.3436E+02  0.3435E+02
     11.759  0.1940E+01  0.1941E+01  0.3448E+02  0.3448E+02
     11.822  0.1754E+01  0.1736E+01  0.3459E+02  0.3458E+02
     11.885  0.1616E+01  0.1624E+01  0.3470E+02  0.3469E+02
     11.948  0.1687E+01  0.1717E+01  0.3480E+02  0.3480E+02
     12.011  0.1999E+01  0.2001E+01  0.3493E+02  0.3492E+02
     12.074  0.2134E+01  0.2143E+01  0.3506E+02  0.3506E+02
     12.137  0.1822E+01  0.1879E+01  0.3518E+02  0.3518E+02
     12.200  0.1270E+01  0.1314E+01  0.3526E+02  0.3526E+02
     12.263  0.8309E+00  0.8589E+00  0.3531E+02  0.3531E+02
     12.326  0.6928E+00  0.6964E+00  0.3536E+02  0.3536E+02
     12.390  0.7626E+00  0.7441E+00  0.3540E+02  0.3540E+02
     12.453  0.9227E+00  0.9127E+00  0.3546E+02  0.3546E+02
     12.516  0.9810E+00  0.9808E+00  0.3552E+02  0.3552E+02
     12.579  0.7985E+00  0.7950E+00  0.3557E+02  0.3557E+02
     12.642  0.6435E+00  0.6218E+00  0.3561E+02  0.3561E+02
     12.705  0.6874E+00  0.6432E+00  0.3566E+02  0.3565E+02
     12.768  0.7733E+00  0.7278E+00  0.3571E+02  0.3570E+02
     12.831  0.6914E+00  0.7106E+00  0.3575E+02  0.3574E+02
     12.894  0.5053E+00  0.5552E+00  0.3578E+02  0.3578E+02
     12.957  0.3479E+00  0.3680E+00  0.3580E+02  0.3580E+02
     13.020  0.2954E+00  0.2963E+00  0.3582E+02  0.3582E+02
     13.083  0.2806E+00  0.2878E+00  0.3584E+02  0.3584E+02
     13.146  0.2758E+00  0.2808E+00  0.3586E+02  0.3586E+02
     13.209  0.3807E+00  0.3762E+00  0.3588E+02  0.3588E+02
     13.272  0.4804E+00  0.4823E+00  0.3591E+02  0.3591E+02
     13.335  0.3829E+00  0.3939E+00  0.3594E+02  0.3594E+02
     13.398  0.2612E+00  0.2686E+00  0.3595E+02  0.3595E+02
     13.461  0.1980E+00  0.2008E+00  0.3597E+02  0.3597E+02
     13.524  0.1136E+00  0.1125E+00  0.3597E+02  0.3597E+02
     13.587  0.5258E-01  0.4504E-01  0.3598E+02  0.3598E+02
     13.650  0.4358E-01  0.2128E-01  0.3598E+02  0.3598E+02
     13.713  0.7130E-01  0.3059E-01  0.3598E+02  0.3598E+02
     13.776  0.8859E-01  0.6847E-01  0.3599E+02  0.3598E+02
     13.839  0.7418E-01  0.1058E+00  0.3599E+02  0.3599E+02
     13.902  0.5472E-01  0.9175E-01  0.3600E+02  0.3600E+02
     13.965  0.2958E-01  0.4697E-01  0.3600E+02  0.3600E+02
     14.028  0.1112E-01  0.1695E-01  0.3600E+02  0.3600E+02
     14.091  0.3462E-02  0.5204E-02  0.3600E+02  0.3600E+02
     14.154  0.8855E-03  0.1511E-02  0.3600E+02  0.3600E+02
     14.217  0.2533E-03  0.2586E-03  0.3600E+02  0.3600E+02
     14.281  0.0000E+00  0.0000E+00  0.3600E+02  0.3600E+02
     14.344  0.0000E+00  0.0000E+00  0.3600E+02  0.3600E+02
     14.407  0.0000E+00  0.0000E+00  0.3600E+02  0.3600E+02
     14.470  0.0000E+00  0.0000E+00  0.3600E+02  0.3600E+02
     14.533  0.0000E+00  0.0000E+00  0.3600E+02  0.3600E+02
     14.596  0.0000E+00  0.0000E+00  0.3600E+02  0.3600E+02
     14.659  0.0000E+00  0.0000E+00  0.3600E+02  0.3600E+02
     14.722  0.0000E+00  0.0000E+00  0.3600E+02  0.3600E+02
     14.72173996     -4.18816052  301      7.08222753      1.00000000
     -4.188  0.0000E+00  0.0000E+00  0.0000E+00  0.0000E+00  0.0000E+00  0.0000E+00  0.0000E+00  0.0000E+00  0.0000E+00  0.0000E+00  0.0000E+00  0.0000E+00  0.0000E+00  0.0000E+00  0.0000E+00  0.0000E+00  0.0000E+00  0.0000E+00
     -4.125  0.0000E+00  0.0000E+00  0.0000E+00  0.0000E+00  0.0000E+00  0.0000E+00  0.0000E+00  0.0000E+00  0.0000E+00  0.0000E+00  0.0000E+00  0.0000E+00  0.0000E+00  0.0000E+00  0.0000E+00  0.0000E+00  0.0000E+00  0.0000E+00
     -4.062  0.0000E+00  0.0000E+00  0.0000E+00  0.0000E+00  0.0000E+00  0.0000E+00  0.0000E+00  0.0000E+00  0.0000E+00  0.0000E+00  0.0000E+00  0.0000E+00  0.0000E+00  0.0000E+00  0.0000E+00  0.0000E+00  0.0000E+00  0.0000E+00
     -3.999  0.0000E+00  0.0000E+00  0.0000E+00  0.0000E+00  0.0000E+00  0.0000E+00  0.0000E+00  0.0000E+00  0.0000E+00  0.0000E+00  0.0000E+00  0.0000E+00  0.0000E+00  0.0000E+00  0.0000E+00  0.0000E+00  0.0000E+00  0.0000E+00
     -3.936  0.0000E+00  0.0000E+00  0.0000E+00  0.0000E+00  0.0000E+00  0.0000E+00  0.0000E+00  0.0000E+00  0.0000E+00  0.0000E+00  0.0000E+00  0.0000E+00  0.0000E+00  0.0000E+00  0.0000E+00  0.0000E+00  0.0000E+00  0.0000E+00
     -3.873  0.0000E+00  0.0000E+00  0.0000E+00  0.0000E+00  0.0000E+00  0.0000E+00  0.0000E+00  0.0000E+00  0.0000E+00  0.0000E+00  0.0000E+00  0.0000E+00  0.0000E+00  0.0000E+00  0.0000E+00  0.0000E+00  0.0000E+00  0.0000E+00
     -3.810  0.0000E+00  0.0000E+00  0.0000E+00  0.0000E+00  0.0000E+00  0.0000E+00  0.0000E+00  0.0000E+00  0.0000E+00  0.0000E+00  0.0000E+00  0.0000E+00  0.0000E+00  0.0000E+00  0.0000E+00  0.0000E+00  0.0000E+00  0.0000E+00
     -3.747  0.5026E-07  0.4794E-07  0.8257E-22  0.1048E-21  0.1349E-10  0.1235E-10  0.8257E-22  0.1048E-21  0.0000E+00  0.0000E+00  0.0000E+00  0.0000E+00  0.0000E+00  0.0000E+00  0.0000E+00  0.0000E+00  0.0000E+00  0.0000E+00
     -3.684  0.5590E-06  0.5333E-06  0.2868E-08  0.2738E-08  0.2017E-08  0.1919E-08  0.2868E-08  0.2738E-08  0.0000E+00  0.0000E+00  0.0000E+00  0.0000E+00  0.0000E+00  0.0000E+00  0.0000E+00  0.0000E+00  0.0000E+00  0.0000E+00
     -3.621  0.2215E-05  0.2114E-05  0.1321E-07  0.1261E-07  0.1757E-07  0.1675E-07  0.1321E-07  0.1261E-07  0.0000E+00  0.0000E+00  0.0000E+00  0.0000E+00  0.0000E+00  0.0000E+00  0.0000E+00  0.0000E+00  0.0000E+00  0.0000E+00
     -3.558  0.7236E-05  0.6905E-05  0.4424E-07  0.4224E-07  0.4951E-07  0.4719E-07  0.4424E-07  0.4224E-07  0.0000E+00  0.0000E+00  0.0000E+00  0.0000E+00  0.0000E+00  0.0000E+00  0.0000E+00  0.0000E+00  0.0000E+00  0.0000E+00
     -3.495  0.2592E-04  0.2475E-04  0.1714E-06  0.1636E-06  0.2001E-06  0.1908E-06  0.1714E-06  0.1636E-06  0.0000E+00  0.0000E+00  0.0000E+00  0.0000E+00  0.0000E+00  0.0000E+00  0.0000E+00  0.0000E+00  0.0000E+00  0.0000E+00
     -3.432  0.8770E-04  0.8387E-04  0.5997E-06  0.5732E-06  0.6949E-06  0.6631E-06  0.5997E-06  0.5732E-06  0.0000E+00  0.0000E+00  0.0000E+00  0.0000E+00  0.0000E+00  0.0000E+00  0.0000E+00  0.0000E+00  0.0000E+00  0.0000E+00
     -3.369  0.2721E-03  0.2614E-03  0.1974E-05  0.1891E-05  0.2293E-05  0.2193E-05  0.1974E-05  0.1891E-05  0.0000E+00  0.0000E+00  0.0000E+00  0.0000E+00  0.0000E+00  0.0000E+00  0.0000E+00  0.0000E+00  0.0000E+00  0.0000E+00
     -3.306  0.7046E-03  0.6826E-03  0.5896E-05  0.5680E-05  0.6896E-05  0.6633E-05  0.5896E-05  0.5680E-05  0.0000E+00  0.0000E+00  0.0000E+00  0.0000E+00  0.0000E+00  0.0000E+00  0.0000E+00  0.0000E+00  0.0000E+00  0.0000E+00
     -3.243  0.1375E-02  0.1346E-02  0.1435E-04  0.1394E-04  0.1675E-04  0.1626E-04  0.1435E-04  0.1394E-04  0.0000E+00  0.0000E+00  0.0000E+00  0.0000E+00  0.0000E+00  0.0000E+00  0.0000E+00  0.0000E+00  0.0000E+00  0.0000E+00
     -3.180  0.1989E-02  0.1966E-02  0.2799E-04  0.2736E-04  0.3148E-04  0.3079E-04  0.2799E-04  0.2736E-04  0.0000E+00  0.0000E+00  0.0000E+00  0.0000E+00  0.0000E+00  0.0000E+00  0.0000E+00  0.0000E+00  0.0000E+00  0.0000E+00
     -3.117  0.2472E-02  0.2447E-02  0.4855E-04  0.4758E-04  0.5293E-04  0.5183E-04  0.4855E-04  0.4758E-04  0.0000E+00  0.0000E+00  0.0000E+00  0.0000E+00  0.0000E+00  0.0000E+00  0.0000E+00  0.0000E+00  0.0000E+00  0.0000E+00
     -3.054  0.3114E-02  0.3083E-02  0.7702E-04  0.7587E-04  0.8905E-04  0.8739E-04  0.7702E-04  0.7587E-04  0.0000E+00  0.0000E+00  0.0000E+00  0.0000E+00  0.0000E+00  0.0000E+00  0.0000E+00  0.0000E+00  0.0000E+00  0.0000E+00
     -2.991  0.3506E-02  0.3497E-02  0.9999E-04  0.9926E-04  0.1240E-03  0.1229E-03  0.9999E-04  0.9926E-04  0.0000E+00  0.0000E+00  0.0000E+00  0.0000E+00  0.0000E+00  0.0000E+00  0.0000E+00  0.0000E+00  0.0000E+00  0.0000E+00
     -2.928  0.3334E-02  0.3331E-02  0.1175E-03  0.1164E-03  0.1380E-03  0.1372E-03  0.1175E-03  0.1164E-03  0.0000E+00  0.0000E+00  0.0000E+00  0.0000E+00  0.0000E+00  0.0000E+00  0.0000E+00  0.0000E+00  0.0000E+00  0.0000E+00
     -2.864  0.3601E-02  0.3569E-02  0.1642E-03  0.1617E-03  0.1711E-03  0.1688E-03  0.1642E-03  0.1617E-03  0.0000E+00  0.0000E+00  0.0000E+00  0.0000E+00  0.0000E+00  0.0000E+00  0.0000E+00  0.0000E+00  0.0000E+00  0.0000E+00
     -2.801  0.4312E-02  0.4283E-02  0.2263E-03  0.2243E-03  0.2355E-03  0.2327E-03  0.2263E-03  0.2243E-03  0.0000E+00  0.0000E+00  0.0000E+00  0.0000E+00  0.0000E+00  0.0000E+00  0.0000E+00  0.0000E+00  0.0000E+00  0.0000E+00
     -2.738  0.4447E-02  0.4443E-02  0.2517E-03  0.2511E-03  0.2932E-03  0.2910E-03  0.2517E-03  0.2511E-03  0.0000E+00  0.0000E+00  0.0000E+00  0.0000E+00  0.0000E+00  0.0000E+00  0.0000E+00  0.0000E+00  0.0000E+00  0.0000E+00
     -2.675  0.4271E-02  0.4263E-02  0.2639E-03  0.2625E-03  0.3399E-03  0.3378E-03  0.2639E-03  0.2625E-03  0.0000E+00  0.0000E+00  0.0000E+00  0.0000E+00  0.0000E+00  0.0000E+00  0.0000E+00  0.0000E+00  0.0000E+00  0.0000E+00
     -2.612  0.4460E-02  0.4437E-02  0.3150E-03  0.3123E-03  0.3885E-03  0.3858E-03  0.3150E-03  0.3123E-03  0.0000E+00  0.0000E+00  0.0000E+00  0.0000E+00  0.0000E+00  0.0000E+00  0.0000E+00  0.0000E+00  0.0000E+00  0.0000E+00
     -2.549  0.4686E-02  0.4676E-02  0.3706E-03  0.3688E-03  0.4397E-03  0.4378E-03  0.3706E-03  0.3688E-03  0.0000E+00  0.0000E+00  0.0000E+00  0.0000E+00  0.0000E+00  0.0000E+00  0.0000E+00  0.0000E+00  0.0000E+00  0.0000E+00
     -2.486  0.4443E-02  0.4442E-02  0.4055E-03  0.4033E-03  0.4376E-03  0.4377E-03  0.4055E-03  0.4033E-03  0.0000E+00  0.0000E+00  0.0000E+00  0.0000E+00  0.0000E+00  0.0000E+00  0.0000E+00  0.0000E+00  0.0000E+00  0.0000E+00
     -2.423  0.4516E-02  0.4492E-02  0.4895E-03  0.4853E-03  0.4570E-03  0.4535E-03  0.4895E-03  0.4853E-03  0.0000E+00  0.0000E+00  0.0000E+00  0.0000E+00  0.0000E+00  0.0000E+00  0.0000E+00  0.0000E+00  0.0000E+00  0.0000E+00
     -2.360  0.5050E-02  0.5022E-02  0.5780E-03  0.5752E-03  0.6135E-03  0.6058E-03  0.5780E-03  0.5752E-03  0.0000E+00  0.0000E+00  0.0000E+00  0.0000E+00  0.0000E+00  0.0000E+00  0.0000E+00  0.0000E+00  0.0000E+00  0.0000E+00
     -2.297  0.5311E-02  0.5295E-02  0.6168E-03  0.6148E-03  0.7927E-03  0.7871E-03  0.6168E-03  0.6148E-03  0.0000E+00  0.0000E+00  0.0000E+00  0.0000E+00  0.0000E+00  0.0000E+00  0.0000E+00  0.0000E+00  0.0000E+00  0.0000E+00
     -2.234  0.5259E-02  0.5254E-02  0.6526E-03  0.6510E-03  0.8578E-03  0.8561E-03  0.6526E-03  0.6510E-03  0.0000E+00  0.0000E+00  0.0000E+00  0.0000E+00  0.0000E+00  0.0000E+00  0.0000E+00  0.0000E+00  0.0000E+00  0.0000E+00
     -2.171  0.4851E-02  0.4855E-02  0.6403E-03  0.6407E-03  0.8744E-03  0.8720E-03  0.6403E-03  0.6407E-03  0.0000E+00  0.0000E+00  0.0000E+00  0.0000E+00  0.0000E+00  0.0000E+00  0.0000E+00  0.0000E+00  0.0000E+00  0.0000E+00
     -2.108  0.4479E-02  0.4474E-02  0.6437E-03  0.6407E-03  0.8944E-03  0.8939E-03  0.6437E-03  0.6407E-03  0.0000E+00  0.0000E+00  0.0000E+00  0.0000E+00  0.0000E+00  0.0000E+00  0.0000E+00  0.0000E+00  0.0000E+00  0.0000E+00
     -2.045  0.4499E-02  0.4480E-02  0.7989E-03  0.7906E-03  0.8279E-03  0.8288E-03  0.7989E-03  0.7906E-03  0.0000E+00  0.0000E+00  0.0000E+00  0.0000E+00  0.0000E+00  0.0000E+00  0.0000E+00  0.0000E+00  0.0000E+00  0.0000E+00
     -1.982  0.4913E-02  0.4883E-02  0.1025E-02  0.1018E-02  0.9025E-03  0.8936E-03  0.1025E-02  0.1018E-02  0.0000E+00  0.0000E+00  0.0000E+00  0.0000E+00  0.0000E+00  0.0000E+00  0.0000E+00  0.0000E+00  0.0000E+00  0.0000E+00
     -1.919  0.5262E-02  0.5243E-02  0.1121E-02  0.1120E-02  0.1264E-02  0.1248E-02  0.1121E-02  0.1120E-02  0.0000E+00  0.0000E+00  0.0000E+00  0.0000E+00  0.0000E+00  0.0000E+00  0.0000E+00  0.0000E+00  0.0000E+00  0.0000E+00
     -1.856  0.5218E-02  0.5208E-02  0.1123E-02  0.1121E-02  0.1588E-02  0.1580E-02  0.1123E-02  0.1121E-02  0.0000E+00  0.0000E+00  0.0000E+00  0.0000E+00  0.0000E+00  0.0000E+00  0.0000E+00  0.0000E+00  0.0000E+00  0.0000E+00
     -1.793  0.5092E-02  0.5084E-02  0.1200E-02  0.1196E-02  0.1632E-02  0.1631E-02  0.1200E-02  0.1196E-02  0.0000E+00  0.0000E+00  0.0000E+00  0.0000E+00  0.0000E+00  0.0000E+00  0.0000E+00  0.0000E+00  0.0000E+00  0.0000E+00
     -1.730  0.4673E-02  0.4682E-02  0.1171E-02  0.1174E-02  0.1671E-02  0.1665E-02  0.1171E-02  0.1174E-02  0.0000E+00  0.0000E+00  0.0000E+00  0.0000E+00  0.0000E+00  0.0000E+00  0.0000E+00  0.0000E+00  0.0000E+00  0.0000E+00
     -1.667  0.3965E-02  0.3974E-02  0.1073E-02  0.1072E-02  0.1806E-02  0.1801E-02  0.1073E-02  0.1072E-02  0.0000E+00  0.0000E+00  0.0000E+00  0.0000E+00  0.0000E+00  0.0000E+00  0.0000E+00  0.0000E+00  0.0000E+00  0.0000E+00
     -1.604  0.3772E-02  0.3756E-02  0.1315E-02  0.1301E-02  0.1809E-02  0.1807E-02  0.1315E-02  0.1301E-02  0.0000E+00  0.0000E+00  0.0000E+00  0.0000E+00  0.0000E+00  0.0000E+00  0.0000E+00  0.0000E+00  0.0000E+00  0.0000E+00
     -1.541  0.4258E-02  0.4225E-02  0.1822E-02  0.1806E-02  0.1929E-02  0.1918E-02  0.1822E-02  0.1806E-02  0.0000E+00  0.0000E+00  0.0000E+00  0.0000E+00  0.0000E+00  0.0000E+00  0.0000E+00  0.0000E+00  0.0000E+00  0.0000E+00
     -1.478  0.4670E-02  0.4652E-02  0.2148E-02  0.2142E-02  0.2286E-02  0.2271E-02  0.2148E-02  0.2142E-02  0.0000E+00  0.0000E+00  0.0000E+00  0.0000E+00  0.0000E+00  0.0000E+00  0.0000E+00  0.0000E+00  0.0000E+00  0.0000E+00
     -1.415  0.4355E-02  0.4361E-02  0.2178E-02  0.2176E-02  0.2515E-02  0.2510E-02  0.2178E-02  0.2176E-02  0.0000E+00  0.0000E+00  0.0000E+00  0.0000E+00  0.0000E+00  0.0000E+00  0.0000E+00  0.0000E+00  0.0000E+00  0.0000E+00
     -1.352  0.3743E-02  0.3754E-02  0.2210E-02  0.2208E-02  0.2316E-02  0.2326E-02  0.2210E-02  0.2208E-02  0.0000E+00  0.0000E+00  0.0000E+00  0.0000E+00  0.0000E+00  0.0000E+00  0.0000E+00  0.0000E+00  0.0000E+00  0.0000E+00
     -1.289  0.3048E-02  0.3062E-02  0.2062E-02  0.2068E-02  0.1856E-02  0.1865E-02  0.2062E-02  0.2068E-02  0.0000E+00  0.0000E+00  0.0000E+00  0.0000E+00  0.0000E+00  0.0000E+00  0.0000E+00  0.0000E+00  0.0000E+00  0.0000E+00
     -1.226  0.2486E-02  0.2489E-02  0.1779E-02  0.1782E-02  0.1695E-02  0.1692E-02  0.1779E-02  0.1782E-02  0.0000E+00  0.0000E+00  0.0000E+00  0.0000E+00  0.0000E+00  0.0000E+00  0.0000E+00  0.0000E+00  0.0000E+00  0.0000E+00
     -1.163  0.2507E-02  0.2492E-02  0.1768E-02  0.1761E-02  0.1845E-02  0.1835E-02  0.1768E-02  0.1761E-02  0.0000E+00  0.0000E+00  0.0000E+00  0.0000E+00  0.0000E+00  0.0000E+00  0.0000E+00  0.0000E+00  0.0000E+00  0.0000E+00
     -1.100  0.2899E-02  0.2879E-02  0.1949E-02  0.1941E-02  0.2165E-02  0.2151E-02  0.1949E-02  0.1941E-02  0.0000E+00  0.0000E+00  0.0000E+00  0.0000E+00  0.0000E+00  0.0000E+00  0.0000E+00  0.0000E+00  0.0000E+00  0.0000E+00
     -1.037  0.3023E-02  0.3018E-02  0.1962E-02  0.1963E-02  0.2303E-02  0.2301E-02  0.1962E-02  0.1963E-02  0.0000E+00  0.0000E+00  0.0000E+00  0.0000E+00  0.0000E+00  0.0000E+00  0.0000E+00  0.0000E+00  0.0000E+00  0.0000E+00