  16  16   1   0
  0.1657195E+02  0.3961984E-09  0.3961984E-09  0.1689150E-08  0.5000000E-15
  1.000000000000000E-004
  CAR 
 unknown system                          
     13.84076701    -44.01765324  301      7.21800304      1.00000000
    -44.018  0.0000E+00  0.0000E+00  0.0000E+00  0.0000E+00
    -43.825  0.0000E+00  0.0000E+00  0.0000E+00  0.0000E+00
    -43.632  0.0000E+00  0.0000E+00  0.0000E+00  0.0000E+00
    -43.439  0.0000E+00  0.0000E+00  0.0000E+00  0.0000E+00
    -43.246  0.0000E+00  0.0000E+00  0.0000E+00  0.0000E+00
    -43.053  0.0000E+00  0.0000E+00  0.0000E+00  0.0000E+00
    -42.860  0.0000E+00  0.0000E+00  0.0000E+00  0.0000E+00
    -42.668  0.0000E+00  0.0000E+00  0.0000E+00  0.0000E+00
    -42.475  0.0000E+00  0.0000E+00  0.0000E+00  0.0000E+00
    -42.282  0.0000E+00  0.0000E+00  0.0000E+00  0.0000E+00
    -42.089  0.0000E+00  0.0000E+00  0.0000E+00  0.0000E+00
    -41.896  0.7573E-03  0.7503E-03  0.1460E-03  0.1447E-03
    -41.703  0.3503E-01  0.3470E-01  0.6901E-02  0.6838E-02
    -41.510  0.1533E+01  0.1520E+01  0.3025E+00  0.2999E+00
    -41.318  0.1491E+02  0.1490E+02  0.3179E+01  0.3173E+01
    -41.125  0.4145E+01  0.4176E+01  0.3978E+01  0.3978E+01
    -40.932  0.0000E+00  0.0000E+00  0.4000E+01  0.4000E+01
    -40.739  0.0000E+00  0.0000E+00  0.4000E+01  0.4000E+01
    -40.546  0.0000E+00  0.0000E+00  0.4000E+01  0.4000E+01
    -40.353  0.0000E+00  0.0000E+00  0.4000E+01  0.4000E+01
    -40.160  0.0000E+00  0.0000E+00  0.4000E+01  0.4000E+01
    -39.968  0.0000E+00  0.0000E+00  0.4000E+01  0.4000E+01
    -39.775  0.0000E+00  0.0000E+00  0.4000E+01  0.4000E+01
    -39.582  0.0000E+00  0.0000E+00  0.4000E+01  0.4000E+01
    -39.389  0.0000E+00  0.0000E+00  0.4000E+01  0.4000E+01
    -39.196  0.0000E+00  0.0000E+00  0.4000E+01  0.4000E+01
    -39.003  0.0000E+00  0.0000E+00  0.4000E+01  0.4000E+01
    -38.810  0.0000E+00  0.0000E+00  0.4000E+01  0.4000E+01
    -38.618  0.0000E+00  0.0000E+00  0.4000E+01  0.4000E+01
    -38.425  0.0000E+00  0.0000E+00  0.4000E+01  0.4000E+01
    -38.232  0.0000E+00  0.0000E+00  0.4000E+01  0.4000E+01
    -38.039  0.0000E+00  0.0000E+00  0.4000E+01  0.4000E+01
    -37.846  0.0000E+00  0.0000E+00  0.4000E+01  0.4000E+01
    -37.653  0.0000E+00  0.0000E+00  0.4000E+01  0.4000E+01
    -37.460  0.0000E+00  0.0000E+00  0.4000E+01  0.4000E+01
    -37.268  0.0000E+00  0.0000E+00  0.4000E+01  0.4000E+01
    -37.075  0.0000E+00  0.0000E+00  0.4000E+01  0.4000E+01
    -36.882  0.0000E+00  0.0000E+00  0.4000E+01  0.4000E+01
    -36.689  0.0000E+00  0.0000E+00  0.4000E+01  0.4000E+01
    -36.496  0.0000E+00  0.0000E+00  0.4000E+01  0.4000E+01
    -36.303  0.0000E+00  0.0000E+00  0.4000E+01  0.4000E+01
    -36.110  0.0000E+00  0.0000E+00  0.4000E+01  0.4000E+01
    -35.917  0.0000E+00  0.0000E+00  0.4000E+01  0.4000E+01
    -35.725  0.0000E+00  0.0000E+00  0.4000E+01  0.4000E+01
    -35.532  0.0000E+00  0.0000E+00  0.4000E+01  0.4000E+01
    -35.339  0.0000E+00  0.0000E+00  0.4000E+01  0.4000E+01
    -35.146  0.0000E+00  0.0000E+00  0.4000E+01  0.4000E+01
    -34.953  0.0000E+00  0.0000E+00  0.4000E+01  0.4000E+01
    -34.760  0.0000E+00  0.0000E+00  0.4000E+01  0.4000E+01
    -34.567  0.0000E+00  0.0000E+00  0.4000E+01  0.4000E+01
    -34.375  0.0000E+00  0.0000E+00  0.4000E+01  0.4000E+01
    -34.182  0.0000E+00  0.0000E+00  0.4000E+01  0.4000E+01
    -33.989  0.0000E+00  0.0000E+00  0.4000E+01  0.4000E+01
    -33.796  0.0000E+00  0.0000E+00  0.4000E+01  0.4000E+01
    -33.603  0.0000E+00  0.0000E+00  0.4000E+01  0.4000E+01
    -33.410  0.0000E+00  0.0000E+00  0.4000E+01  0.4000E+01
    -33.217  0.0000E+00  0.0000E+00  0.4000E+01  0.4000E+01
    -33.025  0.0000E+00  0.0000E+00  0.4000E+01  0.4000E+01
    -32.832  0.0000E+00  0.0000E+00  0.4000E+01  0.4000E+01
    -32.639  0.0000E+00  0.0000E+00  0.4000E+01  0.4000E+01
    -32.446  0.0000E+00  0.0000E+00  0.4000E+01  0.4000E+01
    -32.253  0.0000E+00  0.0000E+00  0.4000E+01  0.4000E+01
    -32.060  0.0000E+00  0.0000E+00  0.4000E+01  0.4000E+01
    -31.867  0.0000E+00  0.0000E+00  0.4000E+01  0.4000E+01
    -31.675  0.0000E+00  0.0000E+00  0.4000E+01  0.4000E+01
    -31.482  0.0000E+00  0.0000E+00  0.4000E+01  0.4000E+01
    -31.289  0.0000E+00  0.0000E+00  0.4000E+01  0.4000E+01
    -31.096  0.0000E+00  0.0000E+00  0.4000E+01  0.4000E+01
    -30.903  0.0000E+00  0.0000E+00  0.4000E+01  0.4000E+01
    -30.710  0.0000E+00  0.0000E+00  0.4000E+01  0.4000E+01
    -30.517  0.0000E+00  0.0000E+00  0.4000E+01  0.4000E+01
    -30.324  0.0000E+00  0.0000E+00  0.4000E+01  0.4000E+01
    -30.132  0.0000E+00  0.0000E+00  0.4000E+01  0.4000E+01
    -29.939  0.0000E+00  0.0000E+00  0.4000E+01  0.4000E+01
    -29.746  0.0000E+00  0.0000E+00  0.4000E+01  0.4000E+01
    -29.553  0.0000E+00  0.0000E+00  0.4000E+01  0.4000E+01
    -29.360  0.0000E+00  0.0000E+00  0.4000E+01  0.4000E+01
    -29.167  0.0000E+00  0.0000E+00  0.4000E+01  0.4000E+01
    -28.974  0.0000E+00  0.0000E+00  0.4000E+01  0.4000E+01
    -28.782  0.0000E+00  0.0000E+00  0.4000E+01  0.4000E+01
    -28.589  0.0000E+00  0.0000E+00  0.4000E+01  0.4000E+01
    -28.396  0.0000E+00  0.0000E+00  0.4000E+01  0.4000E+01
    -28.203  0.0000E+00  0.0000E+00  0.4000E+01  0.4000E+01
    -28.010  0.0000E+00  0.0000E+00  0.4000E+01  0.4000E+01
    -27.817  0.0000E+00  0.0000E+00  0.4000E+01  0.4000E+01
    -27.624  0.0000E+00  0.0000E+00  0.4000E+01  0.4000E+01
    -27.432  0.0000E+00  0.0000E+00  0.4000E+01  0.4000E+01
    -27.239  0.0000E+00  0.0000E+00  0.4000E+01  0.4000E+01
    -27.046  0.0000E+00  0.0000E+00  0.4000E+01  0.4000E+01
    -26.853  0.0000E+00  0.0000E+00  0.4000E+01  0.4000E+01
    -26.660  0.0000E+00  0.0000E+00  0.4000E+01  0.4000E+01
    -26.467  0.0000E+00  0.0000E+00  0.4000E+01  0.4000E+01
    -26.274  0.0000E+00  0.0000E+00  0.4000E+01  0.4000E+01
    -26.082  0.0000E+00  0.0000E+00  0.4000E+01  0.4000E+01
    -25.889  0.0000E+00  0.0000E+00  0.4000E+01  0.4000E+01
    -25.696  0.0000E+00  0.0000E+00  0.4000E+01  0.4000E+01
    -25.503  0.0000E+00  0.0000E+00  0.4000E+01  0.4000E+01
    -25.310  0.0000E+00  0.0000E+00  0.4000E+01  0.4000E+01
    -25.117  0.0000E+00  0.0000E+00  0.4000E+01  0.4000E+01
    -24.924  0.0000E+00  0.0000E+00  0.4000E+01  0.4000E+01
    -24.732  0.0000E+00  0.0000E+00  0.4000E+01  0.4000E+01
    -24.539  0.0000E+00  0.0000E+00  0.4000E+01  0.4000E+01
    -24.346  0.0000E+00  0.0000E+00  0.4000E+01  0.4000E+01
    -24.153  0.0000E+00  0.0000E+00  0.4000E+01  0.4000E+01
    -23.960  0.0000E+00  0.0000E+00  0.4000E+01  0.4000E+01
    -23.767  0.0000E+00  0.0000E+00  0.4000E+01  0.4000E+01
    -23.574  0.0000E+00  0.0000E+00  0.4000E+01  0.4000E+01
    -23.381  0.0000E+00  0.0000E+00  0.4000E+01  0.4000E+01
    -23.189  0.0000E+00  0.0000E+00  0.4000E+01  0.4000E+01
    -22.996  0.0000E+00  0.0000E+00  0.4000E+01  0.4000E+01
    -22.803  0.0000E+00  0.0000E+00  0.4000E+01  0.4000E+01
    -22.610  0.0000E+00  0.0000E+00  0.4000E+01  0.4000E+01
    -22.417  0.0000E+00  0.0000E+00  0.4000E+01  0.4000E+01
    -22.224  0.0000E+00  0.0000E+00  0.4000E+01  0.4000E+01
    -22.031  0.0000E+00  0.0000E+00  0.4000E+01  0.4000E+01
    -21.839  0.0000E+00  0.0000E+00  0.4000E+01  0.4000E+01
    -21.646  0.0000E+00  0.0000E+00  0.4000E+01  0.4000E+01
    -21.453  0.0000E+00  0.0000E+00  0.4000E+01  0.4000E+01
    -21.260  0.0000E+00  0.0000E+00  0.4000E+01  0.4000E+01
    -21.067  0.0000E+00  0.0000E+00  0.4000E+01  0.4000E+01
    -20.874  0.0000E+00  0.0000E+00  0.4000E+01  0.4000E+01
    -20.681  0.7779E-03  0.7700E-03  0.4000E+01  0.4000E+01
    -20.489  0.3602E-01  0.3565E-01  0.4007E+01  0.4007E+01
    -20.296  0.1654E+01  0.1638E+01  0.4326E+01  0.4323E+01
    -20.103  0.3301E+02  0.3287E+02  0.1069E+02  0.1066E+02
    -19.910  0.2646E+02  0.2660E+02  0.1580E+02  0.1579E+02
    -19.717  0.7349E+00  0.7570E+00  0.1600E+02  0.1600E+02
    -19.524  0.0000E+00  0.0000E+00  0.1600E+02  0.1600E+02
    -19.331  0.0000E+00  0.0000E+00  0.1600E+02  0.1600E+02
    -19.139  0.0000E+00  0.0000E+00  0.1600E+02  0.1600E+02
    -18.946  0.0000E+00  0.0000E+00  0.1600E+02  0.1600E+02
    -18.753  0.0000E+00  0.0000E+00  0.1600E+02  0.1600E+02
    -18.560  0.0000E+00  0.0000E+00  0.1600E+02  0.1600E+02
    -18.367  0.0000E+00  0.0000E+00  0.1600E+02  0.1600E+02
    -18.174  0.0000E+00  0.0000E+00  0.1600E+02  0.1600E+02
    -17.981  0.0000E+00  0.0000E+00  0.1600E+02  0.1600E+02
    -17.789  0.0000E+00  0.0000E+00  0.1600E+02  0.1600E+02
    -17.596  0.0000E+00  0.0000E+00  0.1600E+02  0.1600E+02
    -17.403  0.0000E+00  0.0000E+00  0.1600E+02  0.1600E+02
    -17.210  0.0000E+00  0.0000E+00  0.1600E+02  0.1600E+02
    -17.017  0.0000E+00  0.0000E+00  0.1600E+02  0.1600E+02
    -16.824  0.0000E+00  0.0000E+00  0.1600E+02  0.1600E+02
    -16.631  0.0000E+00  0.0000E+00  0.1600E+02  0.1600E+02
    -16.438  0.0000E+00  0.0000E+00  0.1600E+02  0.1600E+02
    -16.246  0.0000E+00  0.0000E+00  0.1600E+02  0.1600E+02
    -16.053  0.0000E+00  0.0000E+00  0.1600E+02  0.1600E+02
    -15.860  0.0000E+00  0.0000E+00  0.1600E+02  0.1600E+02
    -15.667  0.0000E+00  0.0000E+00  0.1600E+02  0.1600E+02
    -15.474  0.0000E+00  0.0000E+00  0.1600E+02  0.1600E+02
    -15.281  0.0000E+00  0.0000E+00  0.1600E+02  0.1600E+02
    -15.088  0.0000E+00  0.0000E+00  0.1600E+02  0.1600E+02
    -14.896  0.0000E+00  0.0000E+00  0.1600E+02  0.1600E+02
    -14.703  0.0000E+00  0.0000E+00  0.1600E+02  0.1600E+02
    -14.510  0.0000E+00  0.0000E+00  0.1600E+02  0.1600E+02
    -14.317  0.0000E+00  0.0000E+00  0.1600E+02  0.1600E+02
    -14.124  0.0000E+00  0.0000E+00  0.1600E+02  0.1600E+02
    -13.931  0.0000E+00  0.0000E+00  0.1600E+02  0.1600E+02
    -13.738  0.0000E+00  0.0000E+00  0.1600E+02  0.1600E+02
    -13.546  0.0000E+00  0.0000E+00  0.1600E+02  0.1600E+02
    -13.353  0.0000E+00  0.0000E+00  0.1600E+02  0.1600E+02
    -13.160  0.0000E+00  0.0000E+00  0.1600E+02  0.1600E+02
    -12.967  0.0000E+00  0.0000E+00  0.1600E+02  0.1600E+02
    -12.774  0.0000E+00  0.0000E+00  0.1600E+02  0.1600E+02
    -12.581  0.0000E+00  0.0000E+00  0.1600E+02  0.1600E+02
    -12.388  0.0000E+00  0.0000E+00  0.1600E+02  0.1600E+02
    -12.196  0.0000E+00  0.0000E+00  0.1600E+02  0.1600E+02
    -12.003  0.0000E+00  0.0000E+00  0.1600E+02  0.1600E+02
    -11.810  0.0000E+00  0.0000E+00  0.1600E+02  0.1600E+02
    -11.617  0.0000E+00  0.0000E+00  0.1600E+02  0.1600E+02
    -11.424  0.0000E+00  0.0000E+00  0.1600E+02  0.1600E+02
    -11.231  0.0000E+00  0.0000E+00  0.1600E+02  0.1600E+02
    -11.038  0.0000E+00  0.0000E+00  0.1600E+02  0.1600E+02
    -10.845  0.0000E+00  0.0000E+00  0.1600E+02  0.1600E+02
    -10.653  0.0000E+00  0.0000E+00  0.1600E+02  0.1600E+02
    -10.460  0.0000E+00  0.0000E+00  0.1600E+02  0.1600E+02
    -10.267  0.0000E+00  0.0000E+00  0.1600E+02  0.1600E+02
    -10.074  0.0000E+00  0.0000E+00  0.1600E+02  0.1600E+02
     -9.881  0.0000E+00  0.0000E+00  0.1600E+02  0.1600E+02
     -9.688  0.0000E+00  0.0000E+00  0.1600E+02  0.1600E+02
     -9.495  0.0000E+00  0.0000E+00  0.1600E+02  0.1600E+02
     -9.303  0.0000E+00  0.0000E+00  0.1600E+02  0.1600E+02
     -9.110  0.0000E+00  0.0000E+00  0.1600E+02  0.1600E+02
     -8.917  0.0000E+00  0.0000E+00  0.1600E+02  0.1600E+02
     -8.724  0.0000E+00  0.0000E+00  0.1600E+02  0.1600E+02
     -8.531  0.0000E+00  0.0000E+00  0.1600E+02  0.1600E+02
     -8.338  0.0000E+00  0.0000E+00  0.1600E+02  0.1600E+02
     -8.145  0.0000E+00  0.0000E+00  0.1600E+02  0.1600E+02
     -7.953  0.0000E+00  0.0000E+00  0.1600E+02  0.1600E+02
     -7.760  0.0000E+00  0.0000E+00  0.1600E+02  0.1600E+02
     -7.567  0.0000E+00  0.0000E+00  0.1600E+02  0.1600E+02
     -7.374  0.0000E+00  0.0000E+00  0.1600E+02  0.1600E+02
     -7.181  0.0000E+00  0.0000E+00  0.1600E+02  0.1600E+02
     -6.988  0.0000E+00  0.0000E+00  0.1600E+02  0.1600E+02
     -6.795  0.0000E+00  0.0000E+00  0.1600E+02  0.1600E+02
     -6.603  0.0000E+00  0.0000E+00  0.1600E+02  0.1600E+02
     -6.410  0.0000E+00  0.0000E+00  0.1600E+02  0.1600E+02
     -6.217  0.0000E+00  0.0000E+00  0.1600E+02  0.1600E+02
     -6.024  0.0000E+00  0.0000E+00  0.1600E+02  0.1600E+02
     -5.831  0.0000E+00  0.0000E+00  0.1600E+02  0.1600E+02
     -5.638  0.0000E+00  0.0000E+00  0.1600E+02  0.1600E+02
     -5.445  0.0000E+00  0.0000E+00  0.1600E+02  0.1600E+02
     -5.253  0.0000E+00  0.0000E+00  0.1600E+02  0.1600E+02
     -5.060  0.0000E+00  0.0000E+00  0.1600E+02  0.1600E+02
     -4.867  0.0000E+00  0.0000E+00  0.1600E+02  0.1600E+02
     -4.674  0.0000E+00  0.0000E+00  0.1600E+02  0.1600E+02
     -4.481  0.0000E+00  0.0000E+00  0.1600E+02  0.1600E+02
     -4.288  0.0000E+00  0.0000E+00  0.1600E+02  0.1600E+02
     -4.095  0.0000E+00  0.0000E+00  0.1600E+02  0.1600E+02
     -3.902  0.0000E+00  0.0000E+00  0.1600E+02  0.1600E+02
     -3.710  0.0000E+00  0.0000E+00  0.1600E+02  0.1600E+02
     -3.517  0.0000E+00  0.0000E+00  0.1600E+02  0.1600E+02
     -3.324  0.0000E+00  0.0000E+00  0.1600E+02  0.1600E+02
     -3.131  0.1518E-05  0.1513E-05  0.1600E+02  0.1600E+02
     -2.938  0.1075E-03  0.1071E-03  0.1600E+02  0.1600E+02
     -2.745  0.4892E-02  0.4876E-02  0.1600E+02  0.1600E+02
     -2.552  0.1042E+00  0.1040E+00  0.1602E+02  0.1602E+02
     -2.360  0.3539E+00  0.3537E+00  0.1609E+02  0.1609E+02
     -2.167  0.5231E+00  0.5230E+00  0.1619E+02  0.1619E+02
     -1.974  0.7029E+00  0.7028E+00  0.1633E+02  0.1633E+02
     -1.781  0.7692E+00  0.7692E+00  0.1647E+02  0.1647E+02
     -1.588  0.9127E+00  0.9124E+00  0.1665E+02  0.1665E+02
     -1.395  0.1056E+01  0.1056E+01  0.1686E+02  0.1686E+02
     -1.202  0.1005E+01  0.1005E+01  0.1705E+02  0.1705E+02
     -1.010  0.1380E+01  0.1380E+01  0.1732E+02  0.1732E+02
     -0.817  0.1292E+01  0.1292E+01  0.1757E+02  0.1757E+02
     -0.624  0.1552E+01  0.1552E+01  0.1787E+02  0.1787E+02
     -0.431  0.1536E+01  0.1535E+01  0.1817E+02  0.1816E+02
     -0.238  0.1662E+01  0.1662E+01  0.1849E+02  0.1849E+02
     -0.045  0.1262E+01  0.1262E+01  0.1873E+02  0.1873E+02
      0.148  0.1544E+01  0.1544E+01  0.1903E+02  0.1903E+02
      0.340  0.1439E+01  0.1439E+01  0.1931E+02  0.1931E+02
      0.533  0.1678E+01  0.1677E+01  0.1963E+02  0.1963E+02
      0.726  0.1709E+01  0.1709E+01  0.1996E+02  0.1996E+02
      0.919  0.1613E+01  0.1612E+01  0.2028E+02  0.2028E+02
      1.112  0.2079E+01  0.2079E+01  0.2068E+02  0.2068E+02
      1.305  0.2203E+01  0.2203E+01  0.2110E+02  0.2110E+02
      1.498  0.2059E+01  0.2059E+01  0.2150E+02  0.2150E+02
      1.690  0.1965E+01  0.1965E+01  0.2188E+02  0.2188E+02
      1.883  0.1929E+01  0.1930E+01  0.2226E+02  0.2226E+02
      2.076  0.1829E+01  0.1828E+01  0.2261E+02  0.2261E+02
      2.269  0.2461E+01  0.2464E+01  0.2309E+02  0.2309E+02
      2.462  0.1956E+01  0.1956E+01  0.2347E+02  0.2347E+02
      2.655  0.2316E+01  0.2315E+01  0.2392E+02  0.2392E+02
      2.848  0.2587E+01  0.2587E+01  0.2442E+02  0.2442E+02
      3.041  0.3103E+01  0.3102E+01  0.2502E+02  0.2502E+02
      3.233  0.2621E+01  0.2622E+01  0.2552E+02  0.2552E+02
      3.426  0.2155E+01  0.2155E+01  0.2594E+02  0.2594E+02
      3.619  0.1930E+01  0.1930E+01  0.2632E+02  0.2631E+02
      3.812  0.2460E+01  0.2459E+01  0.2679E+02  0.2679E+02
      4.005  0.3062E+01  0.3062E+01  0.2738E+02  0.2738E+02
      4.198  0.2356E+01  0.2356E+01  0.2784E+02  0.2784E+02
      4.391  0.3149E+01  0.3149E+01  0.2845E+02  0.2845E+02
      4.583  0.3219E+01  0.3219E+01  0.2907E+02  0.2907E+02
      4.776  0.3787E+01  0.3787E+01  0.2980E+02  0.2980E+02
      4.969  0.3396E+01  0.3396E+01  0.3046E+02  0.3046E+02
      5.162  0.4183E+01  0.4182E+01  0.3127E+02  0.3127E+02
      5.355  0.4187E+01  0.4187E+01  0.3208E+02  0.3208E+02
      5.548  0.3473E+01  0.3474E+01  0.3275E+02  0.3275E+02
      5.741  0.3474E+01  0.3472E+01  0.3343E+02  0.3342E+02
      5.933  0.4128E+01  0.4127E+01  0.3422E+02  0.3422E+02
      6.126  0.4582E+01  0.4580E+01  0.3511E+02  0.3511E+02
      6.319  0.5116E+01  0.5116E+01  0.3610E+02  0.3610E+02
      6.512  0.5205E+01  0.5204E+01  0.3711E+02  0.3711E+02
      6.705  0.4452E+01  0.4456E+01  0.3797E+02  0.3797E+02
      6.898  0.4105E+01  0.4104E+01  0.3877E+02  0.3877E+02
      7.091  0.4066E+01  0.4066E+01  0.3956E+02  0.3955E+02
      7.283  0.3403E+01  0.3404E+01  0.4022E+02  0.4021E+02
      7.476  0.3060E+01  0.3062E+01  0.4081E+02  0.4081E+02
      7.669  0.2243E+01  0.2245E+01  0.4124E+02  0.4124E+02
      7.862  0.2100E+01  0.2113E+01  0.4165E+02  0.4165E+02
      8.055  0.2068E+01  0.2126E+01  0.4205E+02  0.4206E+02
      8.248  0.2781E+01  0.2784E+01  0.4259E+02  0.4260E+02
      8.441  0.3068E+01  0.3061E+01  0.4318E+02  0.4320E+02
      8.634  0.3269E+01  0.3280E+01  0.4382E+02  0.4383E+02
      8.826  0.3533E+01  0.3531E+01  0.4450E+02  0.4451E+02
      9.019  0.4933E+01  0.4921E+01  0.4545E+02  0.4547E+02
      9.212  0.5498E+01  0.5496E+01  0.4652E+02  0.4653E+02
      9.405  0.5749E+01  0.5747E+01  0.4763E+02  0.4764E+02
      9.598  0.5719E+01  0.5737E+01  0.4874E+02  0.4875E+02
      9.791  0.6258E+01  0.6398E+01  0.4995E+02  0.4999E+02
      9.984  0.6346E+01  0.6506E+01  0.5118E+02  0.5125E+02
     10.176  0.7165E+01  0.7233E+01  0.5256E+02  0.5265E+02
     10.369  0.6550E+01  0.6374E+01  0.5383E+02  0.5389E+02
     10.562  0.4426E+01  0.4788E+01  0.5469E+02  0.5482E+02
     10.755  0.3414E+01  0.3099E+01  0.5536E+02  0.5542E+02
     10.948  0.2169E+01  0.2027E+01  0.5578E+02  0.5581E+02
     11.141  0.1001E+01  0.7583E+00  0.5597E+02  0.5596E+02
     11.334  0.1288E+00  0.1694E+00  0.5600E+02  0.5600E+02
     11.526  0.1256E-02  0.1265E-01  0.5600E+02  0.5600E+02
     11.719  0.0000E+00  0.0000E+00  0.5600E+02  0.5600E+02
     11.912  0.0000E+00  0.0000E+00  0.5600E+02  0.5600E+02
     12.105  0.0000E+00  0.0000E+00  0.5600E+02  0.5600E+02
     12.298  0.0000E+00  0.0000E+00  0.5600E+02  0.5600E+02
     12.491  0.0000E+00  0.0000E+00  0.5600E+02  0.5600E+02
     12.684  0.0000E+00  0.0000E+00  0.5600E+02  0.5600E+02
     12.876  0.0000E+00  0.0000E+00  0.5600E+02  0.5600E+02
     13.069  0.0000E+00  0.0000E+00  0.5600E+02  0.5600E+02
     13.262  0.0000E+00  0.0000E+00  0.5600E+02  0.5600E+02
     13.455  0.0000E+00  0.0000E+00  0.5600E+02  0.5600E+02
     13.648  0.0000E+00  0.0000E+00  0.5600E+02  0.5600E+02
     13.841  0.0000E+00  0.0000E+00  0.5600E+02  0.5600E+02
     13.84076701    -44.01765324  301      7.21800304      1.00000000
    -44.018  0.0000E+00  0.0000E+00  0.0000E+00  0.0000E+00  0.0000E+00  0.0000E+00  0.0000E+00  0.0000E+00  0.0000E+00  0.0000E+00  0.0000E+00  0.0000E+00  0.0000E+00  0.0000E+00  0.0000E+00  0.0000E+00  0.0000E+00  0.0000E+00
    -43.825  0.0000E+00  0.0000E+00  0.0000E+00  0.0000E+00  0.0000E+00  0.0000E+00  0.0000E+00  0.0000E+00  0.0000E+00  0.0000E+00  0.0000E+00  0.0000E+00  0.0000E+00  0.0000E+00  0.0000E+00  0.0000E+00  0.0000E+00  0.0000E+00
    -43.632  0.0000E+00  0.0000E+00  0.0000E+00  0.0000E+00  0.0000E+00  0.0000E+00  0.0000E+00  0.0000E+00  0.0000E+00  0.0000E+00  0.0000E+00  0.0000E+00  0.0000E+00  0.0000E+00  0.0000E+00  0.0000E+00  0.0000E+00  0.0000E+00
    -43.439  0.0000E+00  0.0000E+00  0.0000E+00  0.0000E+00  0.0000E+00  0.0000E+00  0.0000E+00  0.0000E+00  0.0000E+00  0.0000E+00  0.0000E+00  0.0000E+00  0.0000E+00  0.0000E+00  0.0000E+00  0.0000E+00  0.0000E+00  0.0000E+00
    -43.246  0.0000E+00  0.0000E+00  0.0000E+00  0.0000E+00  0.0000E+00  0.0000E+00  0.0000E+00  0.0000E+00  0.0000E+00  0.0000E+00  0.0000E+00  0.0000E+00  0.0000E+00  0.0000E+00  0.0000E+00  0.0000E+00  0.0000E+00  0.0000E+00
    -43.053  0.0000E+00  0.0000E+00  0.0000E+00  0.0000E+00  0.0000E+00  0.0000E+00  0.0000E+00  0.0000E+00  0.0000E+00  0.0000E+00  0.0000E+00  0.0000E+00  0.0000E+00  0.0000E+00  0.0000E+00  0.0000E+00  0.0000E+00  0.0000E+00
    -42.860  0.0000E+00  0.0000E+00  0.0000E+00  0.0000E+00  0.0000E+00  0.0000E+00  0.0000E+00  0.0000E+00  0.0000E+00  0.0000E+00  0.0000E+00  0.0000E+00  0.0000E+00  0.0000E+00  0.0000E+00  0.0000E+00  0.0000E+00  0.0000E+00
    -42.668  0.0000E+00  0.0000E+00  0.0000E+00  0.0000E+00  0.0000E+00  0.0000E+00  0.0000E+00  0.0000E+00  0.0000E+00  0.0000E+00  0.0000E+00  0.0000E+00  0.0000E+00  0.0000E+00  0.0000E+00  0.0000E+00  0.0000E+00  0.0000E+00
    -42.475  0.0000E+00  0.0000E+00  0.0000E+00  0.0000E+00  0.0000E+00  0.0000E+00  0.0000E+00  0.0000E+00  0.0000E+00  0.0000E+00  0.0000E+00  0.0000E+00  0.0000E+00  0.0000E+00  0.0000E+00  0.0000E+00  0.0000E+00  0.0000E+00
    -42.282  0.0000E+00  0.0000E+00  0.0000E+00  0.0000E+00  0.0000E+00  0.0000E+00  0.0000E+00  0.0000E+00  0.0000E+00  0.0000E+00  0.0000E+00  0.0000E+00  0.0000E+00  0.0000E+00  0.0000E+00  0.0000E+00  0.0000E+00  0.0000E+00
    -42.089  0.0000E+00  0.0000E+00  0.0000E+00  0.0000E+00  0.0000E+00  0.0000E+00  0.0000E+00  0.0000E+00  0.0000E+00  0.0000E+00  0.0000E+00  0.0000E+00  0.0000E+00  0.0000E+00  0.0000E+00  0.0000E+00  0.0000E+00  0.0000E+00
    -41.896  0.1885E-03  0.1868E-03  0.1382E-11  0.1365E-11  0.5345E-09  0.5378E-09  0.1382E-11  0.1365E-11  0.3844E-13  0.1992E-13  0.3463E-13  0.1449E-13  0.1221E-10  0.1288E-10  0.3463E-13  0.1449E-13  0.9365E-12  0.9165E-12
    -41.703  0.8721E-02  0.8641E-02  0.6390E-10  0.6313E-10  0.2472E-07  0.2488E-07  0.6390E-10  0.6313E-10  0.1778E-11  0.9214E-12  0.1602E-11  0.6703E-12  0.5646E-09  0.5960E-09  0.1602E-11  0.6703E-12  0.4331E-10  0.4239E-10
    -41.510  0.3816E+00  0.3783E+00  0.2796E-08  0.2764E-08  0.1082E-05  0.1089E-05  0.2796E-08  0.2764E-08  0.7779E-10  0.4035E-10  0.7006E-10  0.2935E-10  0.2470E-07  0.2609E-07  0.7006E-10  0.2935E-10  0.1895E-08  0.1856E-08
    -41.318  0.3713E+01  0.3709E+01  0.2719E-07  0.2708E-07  0.1052E-04  0.1067E-04  0.2719E-07  0.2708E-07  0.7557E-09  0.3956E-09  0.6803E-09  0.2875E-09  0.2396E-06  0.2550E-06  0.6803E-09  0.2875E-09  0.1846E-07  0.1820E-07
    -41.125  0.1032E+01  0.1040E+01  0.7554E-08  0.7587E-08  0.2924E-05  0.2991E-05  0.7554E-08  0.7587E-08  0.2097E-09  0.1109E-09  0.1886E-09  0.8053E-10  0.6635E-07  0.7124E-07  0.1886E-09  0.8053E-10  0.5134E-08  0.5101E-08
    -40.932  0.0000E+00  0.0000E+00  0.0000E+00  0.0000E+00  0.0000E+00  0.0000E+00  0.0000E+00  0.0000E+00  0.0000E+00  0.0000E+00  0.0000E+00  0.0000E+00  0.0000E+00  0.0000E+00  0.0000E+00  0.0000E+00  0.0000E+00  0.0000E+00
    -40.739  0.0000E+00  0.0000E+00  0.0000E+00  0.0000E+00  0.0000E+00  0.0000E+00  0.0000E+00  0.0000E+00  0.0000E+00  0.0000E+00  0.0000E+00  0.0000E+00  0.0000E+00  0.0000E+00  0.0000E+00  0.0000E+00  0.0000E+00  0.0000E+00
    -40.546  0.0000E+00  0.0000E+00  0.0000E+00  0.0000E+00  0.0000E+00  0.0000E+00  0.0000E+00  0.0000E+00  0.0000E+00  0.0000E+00  0.0000E+00  0.0000E+00  0.0000E+00  0.0000E+00  0.0000E+00  0.0000E+00  0.0000E+00  0.0000E+00
    -40.353  0.0000E+00  0.0000E+00  0.0000E+00  0.0000E+00  0.0000E+00  0.0000E+00  0.0000E+00  0.0000E+00  0.0000E+00  0.0000E+00  0.0000E+00  0.0000E+00  0.0000E+00  0.0000E+00  0.0000E+00  0.0000E+00  0.0000E+00  0.0000E+00
    -40.160  0.0000E+00  0.0000E+00  0.0000E+00  0.0000E+00  0.0000E+00  0.0000E+00  0.0000E+00  0.0000E+00  0.0000E+00  0.0000E+00  0.0000E+00  0.0000E+00  0.0000E+00  0.0000E+00  0.0000E+00  0.0000E+00  0.0000E+00  0.0000E+00
    -39.968  0.0000E+00  0.0000E+00  0.0000E+00  0.0000E+00  0.0000E+00  0.0000E+00  0.0000E+00  0.0000E+00  0.0000E+00  0.0000E+00  0.0000E+00  0.0000E+00  0.0000E+00  0.0000E+00  0.0000E+00  0.0000E+00  0.0000E+00  0.0000E+00
    -39.775  0.0000E+00  0.0000E+00  0.0000E+00  0.0000E+00  0.0000E+00  0.0000E+00  0.0000E+00  0.0000E+00  0.0000E+00  0.0000E+00  0.0000E+00  0.0000E+00  0.0000E+00  0.0000E+00  0.0000E+00  0.0000E+00  0.0000E+00  0.0000E+00
    -39.582  0.0000E+00  0.0000E+00  0.0000E+00  0.0000E+00  0.0000E+00  0.0000E+00  0.0000E+00  0.0000E+00  0.0000E+00  0.0000E+00  0.0000E+00  0.0000E+00  0.0000E+00  0.0000E+00  0.0000E+00  0.0000E+00  0.0000E+00  0.0000E+00
    -39.389  0.0000E+00  0.0000E+00  0.0000E+00  0.0000E+00  0.0000E+00  0.0000E+00  0.0000E+00  0.0000E+00  0.0000E+00  0.0000E+00  0.0000E+00  0.0000E+00  0.0000E+00  0.0000E+00  0.0000E+00  0.0000E+00  0.0000E+00  0.0000E+00
    -39.196  0.0000E+00  0.0000E+00  0.0000E+00  0.0000E+00  0.0000E+00  0.0000E+00  0.0000E+00  0.0000E+00  0.0000E+00  0.0000E+00  0.0000E+00  0.0000E+00  0.0000E+00  0.0000E+00  0.0000E+00  0.0000E+00  0.0000E+00  0.0000E+00
    -39.003  0.0000E+00  0.0000E+00  0.0000E+00  0.0000E+00  0.0000E+00  0.0000E+00  0.0000E+00  0.0000E+00  0.0000E+00  0.0000E+00  0.0000E+00  0.0000E+00  0.0000E+00  0.0000E+00  0.0000E+00  0.0000E+00  0.0000E+00  0.0000E+00
    -38.810  0.0000E+00  0.0000E+00  0.0000E+00  0.0000E+00  0.0000E+00  0.0000E+00  0.0000E+00  0.0000E+00  0.0000E+00  0.0000E+00  0.0000E+00  0.0000E+00  0.0000E+00  0.0000E+00  0.0000E+00  0.0000E+00  0.0000E+00  0.0000E+00
    -38.618  0.0000E+00  0.0000E+00  0.0000E+00  0.0000E+00  0.0000E+00  0.0000E+00  0.0000E+00  0.0000E+00  0.0000E+00  0.0000E+00  0.0000E+00  0.0000E+00  0.0000E+00  0.0000E+00  0.0000E+00  0.0000E+00  0.0000E+00  0.0000E+00
    -38.425  0.0000E+00  0.0000E+00  0.0000E+00  0.0000E+00  0.0000E+00  0.0000E+00  0.0000E+00  0.0000E+00  0.0000E+00  0.0000E+00  0.0000E+00  0.0000E+00  0.0000E+00  0.0000E+00  0.0000E+00  0.0000E+00  0.0000E+00  0.0000E+00
    -38.232  0.0000E+00  0.0000E+00  0.0000E+00  0.0000E+00  0.0000E+00  0.0000E+00  0.0000E+00  0.0000E+00  0.0000E+00  0.0000E+00  0.0000E+00  0.0000E+00  0.0000E+00  0.0000E+00  0.0000E+00  0.0000E+00  0.0000E+00  0.0000E+00
    -38.039  0.0000E+00  0.0000E+00  0.0000E+00  0.0000E+00  0.0000E+00  0.0000E+00  0.0000E+00  0.0000E+00  0.0000E+00  0.0000E+00  0.0000E+00  0.0000E+00  0.0000E+00  0.0000E+00  0.0000E+00  0.0000E+00  0.0000E+00  0.0000E+00
    -37.846  0.0000E+00  0.0000E+00  0.0000E+00  0.0000E+00  0.0000E+00  0.0000E+00  0.0000E+00  0.0000E+00  0.0000E+00  0.0000E+00  0.0000E+00  0.0000E+00  0.0000E+00  0.0000E+00  0.0000E+00  0.0000E+00  0.0000E+00  0.0000E+00
    -37.653  0.0000E+00  0.0000E+00  0.0000E+00  0.0000E+00  0.0000E+00  0.0000E+00  0.0000E+00  0.0000E+00  0.0000E+00  0.0000E+00  0.0000E+00  0.0000E+00  0.0000E+00  0.0000E+00  0.0000E+00  0.0000E+00  0.0000E+00  0.0000E+00
    -37.460  0.0000E+00  0.0000E+00  0.0000E+00  0.0000E+00  0.0000E+00  0.0000E+00  0.0000E+00  0.0000E+00  0.0000E+00  0.0000E+00  0.0000E+00  0.0000E+00  0.0000E+00  0.0000E+00  0.0000E+00  0.0000E+00  0.0000E+00  0.0000E+00
    -37.268  0.0000E+00  0.0000E+00  0.0000E+00  0.0000E+00  0.0000E+00  0.0000E+00  0.0000E+00  0.0000E+00  0.0000E+00  0.0000E+00  0.0000E+00  0.0000E+00  0.0000E+00  0.0000E+00  0.0000E+00  0.0000E+00  0.0000E+00  0.0000E+00
    -37.075  0.0000E+00  0.0000E+00  0.0000E+00  0.0000E+00  0.0000E+00  0.0000E+00  0.0000E+00  0.0000E+00  0.0000E+00  0.0000E+00  0.0000E+00  0.0000E+00  0.0000E+00  0.0000E+00  0.0000E+00  0.0000E+00  0.0000E+00  0.0000E+00
    -36.882  0.0000E+00  0.0000E+00  0.0000E+00  0.0000E+00  0.0000E+00  0.0000E+00  0.0000E+00  0.0000E+00  0.0000E+00  0.0000E+00  0.0000E+00  0.0000E+00  0.0000E+00  0.0000E+00  0.0000E+00  0.0000E+00  0.0000E+00  0.0000E+00
    -36.689  0.0000E+00  0.0000E+00  0.0000E+00  0.0000E+00  0.0000E+00  0.0000E+00  0.0000E+00  0.0000E+00  0.0000E+00  0.0000E+00  0.0000E+00  0.0000E+00  0.0000E+00  0.0000E+00  0.0000E+00  0.0000E+00  0.0000E+00  0.0000E+00
    -36.496  0.0000E+00  0.0000E+00  0.0000E+00  0.0000E+00  0.0000E+00  0.0000E+00  0.0000E+00  0.0000E+00  0.0000E+00  0.0000E+00  0.0000E+00  0.0000E+00  0.0000E+00  0.0000E+00  0.0000E+00  0.0000E+00  0.0000E+00  0.0000E+00
    -36.303  0.0000E+00  0.0000E+00  0.0000E+00  0.0000E+00  0.0000E+00  0.0000E+00  0.0000E+00  0.0000E+00  0.0000E+00  0.0000E+00  0.0000E+00  0.0000E+00  0.0000E+00  0.0000E+00  0.0000E+00  0.0000E+00  0.0000E+00  0.0000E+00
    -36.110  0.0000E+00  0.0000E+00  0.0000E+00  0.0000E+00  0.0000E+00  0.0000E+00  0.0000E+00  0.0000E+00  0.0000E+00  0.0000E+00  0.0000E+00  0.0000E+00  0.0000E+00  0.0000E+00  0.0000E+00  0.0000E+00  0.0000E+00  0.0000E+00
    -35.917  0.0000E+00  0.0000E+00  0.0000E+00  0.0000E+00  0.0000E+00  0.0000E+00  0.0000E+00  0.0000E+00  0.0000E+00  0.0000E+00  0.0000E+00  0.0000E+00  0.0000E+00  0.0000E+00  0.0000E+00  0.0000E+00  0.0000E+00  0.0000E+00
    -35.725  0.0000E+00  0.0000E+00  0.0000E+00  0.0000E+00  0.0000E+00  0.0000E+00  0.0000E+00  0.0000E+00  0.0000E+00  0.0000E+00  0.0000E+00  0.0000E+00  0.0000E+00  0.0000E+00  0.0000E+00  0.0000E+00  0.0000E+00  0.0000E+00
    -35.532  0.0000E+00  0.0000E+00  0.0000E+00  0.0000E+00  0.0000E+00  0.0000E+00  0.0000E+00  0.0000E+00  0.0000E+00  0.0000E+00  0.0000E+00  0.0000E+00  0.0000E+00  0.0000E+00  0.0000E+00  0.0000E+00  0.0000E+00  0.0000E+00
    -35.339  0.0000E+00  0.0000E+00  0.0000E+00  0.0000E+00  0.0000E+00  0.0000E+00  0.0000E+00  0.0000E+00  0.0000E+00  0.0000E+00  0.0000E+00  0.0000E+00  0.0000E+00  0.0000E+00  0.0000E+00  0.0000E+00  0.0000E+00  0.0000E+00
    -35.146  0.0000E+00  0.0000E+00  0.0000E+00  0.0000E+00  0.0000E+00  0.0000E+00  0.0000E+00  0.0000E+00  0.0000E+00  0.0000E+00  0.0000E+00  0.0000E+00  0.0000E+00  0.0000E+00  0.0000E+00  0.0000E+00  0.0000E+00  0.0000E+00
    -34.953  0.0000E+00  0.0000E+00  0.0000E+00  0.0000E+00  0.0000E+00  0.0000E+00  0.0000E+00  0.0000E+00  0.0000E+00  0.0000E+00  0.0000E+00  0.0000E+00  0.0000E+00  0.0000E+00  0.0000E+00  0.0000E+00  0.0000E+00  0.0000E+00
    -34.760  0.0000E+00  0.0000E+00  0.0000E+00  0.0000E+00  0.0000E+00  0.0000E+00  0.0000E+00  0.0000E+00  0.0000E+00  0.0000E+00  0.0000E+00  0.0000E+00  0.0000E+00  0.0000E+00  0.0000E+00  0.0000E+00  0.0000E+00  0.0000E+00
    -34.567  0.0000E+00  0.0000E+00  0.0000E+00  0.0000E+00  0.0000E+00  0.0000E+00  0.0000E+00  0.0000E+00  0.0000E+00  0.0000E+00  0.0000E+00  0.0000E+00  0.0000E+00  0.0000E+00  0.0000E+00  0.0000E+00  0.0000E+00  0.0000E+00
    -34.375  0.0000E+00  0.0000E+00  0.0000E+00  0.0000E+00  0.0000E+00  0.0000E+00  0.0000E+00  0.0000E+00  0.0000E+00  0.0000E+00  0.0000E+00  0.0000E+00  0.0000E+00  0.0000E+00  0.0000E+00  0.0000E+00  0.0000E+00  0.0000E+00