  16  16   1   0
  0.1760740E+02  0.4042841E-09  0.4042841E-09  0.1723622E-08  0.5000000E-15
  1.000000000000000E-004
  CAR 
 unknown system                          
     13.16172624    -44.78339108  301      6.68453487      1.00000000
    -44.783  0.0000E+00  0.0000E+00  0.0000E+00  0.0000E+00
    -44.590  0.0000E+00  0.0000E+00  0.0000E+00  0.0000E+00
    -44.397  0.0000E+00  0.0000E+00  0.0000E+00  0.0000E+00
    -44.204  0.0000E+00  0.0000E+00  0.0000E+00  0.0000E+00
    -44.011  0.0000E+00  0.0000E+00  0.0000E+00  0.0000E+00
    -43.818  0.0000E+00  0.0000E+00  0.0000E+00  0.0000E+00
    -43.624  0.0000E+00  0.0000E+00  0.0000E+00  0.0000E+00
    -43.431  0.0000E+00  0.0000E+00  0.0000E+00  0.0000E+00
    -43.238  0.0000E+00  0.0000E+00  0.0000E+00  0.0000E+00
    -43.045  0.0000E+00  0.0000E+00  0.0000E+00  0.0000E+00
    -42.852  0.0000E+00  0.0000E+00  0.0000E+00  0.0000E+00
    -42.659  0.7554E-03  0.7456E-03  0.1459E-03  0.1440E-03
    -42.466  0.3515E-01  0.3469E-01  0.6934E-02  0.6845E-02
    -42.272  0.1546E+01  0.1527E+01  0.3055E+00  0.3018E+00
    -42.079  0.1493E+02  0.1491E+02  0.3190E+01  0.3181E+01
    -41.886  0.4086E+01  0.4128E+01  0.3979E+01  0.3978E+01
    -41.693  0.0000E+00  0.0000E+00  0.4000E+01  0.4000E+01
    -41.500  0.0000E+00  0.0000E+00  0.4000E+01  0.4000E+01
    -41.307  0.0000E+00  0.0000E+00  0.4000E+01  0.4000E+01
    -41.114  0.0000E+00  0.0000E+00  0.4000E+01  0.4000E+01
    -40.920  0.0000E+00  0.0000E+00  0.4000E+01  0.4000E+01
    -40.727  0.0000E+00  0.0000E+00  0.4000E+01  0.4000E+01
    -40.534  0.0000E+00  0.0000E+00  0.4000E+01  0.4000E+01
    -40.341  0.0000E+00  0.0000E+00  0.4000E+01  0.4000E+01
    -40.148  0.0000E+00  0.0000E+00  0.4000E+01  0.4000E+01
    -39.955  0.0000E+00  0.0000E+00  0.4000E+01  0.4000E+01
    -39.761  0.0000E+00  0.0000E+00  0.4000E+01  0.4000E+01
    -39.568  0.0000E+00  0.0000E+00  0.4000E+01  0.4000E+01
    -39.375  0.0000E+00  0.0000E+00  0.4000E+01  0.4000E+01
    -39.182  0.0000E+00  0.0000E+00  0.4000E+01  0.4000E+01
    -38.989  0.0000E+00  0.0000E+00  0.4000E+01  0.4000E+01
    -38.796  0.0000E+00  0.0000E+00  0.4000E+01  0.4000E+01
    -38.603  0.0000E+00  0.0000E+00  0.4000E+01  0.4000E+01
    -38.409  0.0000E+00  0.0000E+00  0.4000E+01  0.4000E+01
    -38.216  0.0000E+00  0.0000E+00  0.4000E+01  0.4000E+01
    -38.023  0.0000E+00  0.0000E+00  0.4000E+01  0.4000E+01
    -37.830  0.0000E+00  0.0000E+00  0.4000E+01  0.4000E+01
    -37.637  0.0000E+00  0.0000E+00  0.4000E+01  0.4000E+01
    -37.444  0.0000E+00  0.0000E+00  0.4000E+01  0.4000E+01
    -37.251  0.0000E+00  0.0000E+00  0.4000E+01  0.4000E+01
    -37.057  0.0000E+00  0.0000E+00  0.4000E+01  0.4000E+01
    -36.864  0.0000E+00  0.0000E+00  0.4000E+01  0.4000E+01
    -36.671  0.0000E+00  0.0000E+00  0.4000E+01  0.4000E+01
    -36.478  0.0000E+00  0.0000E+00  0.4000E+01  0.4000E+01
    -36.285  0.0000E+00  0.0000E+00  0.4000E+01  0.4000E+01
    -36.092  0.0000E+00  0.0000E+00  0.4000E+01  0.4000E+01
    -35.898  0.0000E+00  0.0000E+00  0.4000E+01  0.4000E+01
    -35.705  0.0000E+00  0.0000E+00  0.4000E+01  0.4000E+01
    -35.512  0.0000E+00  0.0000E+00  0.4000E+01  0.4000E+01
    -35.319  0.0000E+00  0.0000E+00  0.4000E+01  0.4000E+01
    -35.126  0.0000E+00  0.0000E+00  0.4000E+01  0.4000E+01
    -34.933  0.0000E+00  0.0000E+00  0.4000E+01  0.4000E+01
    -34.740  0.0000E+00  0.0000E+00  0.4000E+01  0.4000E+01
    -34.546  0.0000E+00  0.0000E+00  0.4000E+01  0.4000E+01
    -34.353  0.0000E+00  0.0000E+00  0.4000E+01  0.4000E+01
    -34.160  0.0000E+00  0.0000E+00  0.4000E+01  0.4000E+01
    -33.967  0.0000E+00  0.0000E+00  0.4000E+01  0.4000E+01
    -33.774  0.0000E+00  0.0000E+00  0.4000E+01  0.4000E+01
    -33.581  0.0000E+00  0.0000E+00  0.4000E+01  0.4000E+01
    -33.388  0.0000E+00  0.0000E+00  0.4000E+01  0.4000E+01
    -33.194  0.0000E+00  0.0000E+00  0.4000E+01  0.4000E+01
    -33.001  0.0000E+00  0.0000E+00  0.4000E+01  0.4000E+01
    -32.808  0.0000E+00  0.0000E+00  0.4000E+01  0.4000E+01
    -32.615  0.0000E+00  0.0000E+00  0.4000E+01  0.4000E+01
    -32.422  0.0000E+00  0.0000E+00  0.4000E+01  0.4000E+01
    -32.229  0.0000E+00  0.0000E+00  0.4000E+01  0.4000E+01
    -32.035  0.0000E+00  0.0000E+00  0.4000E+01  0.4000E+01
    -31.842  0.0000E+00  0.0000E+00  0.4000E+01  0.4000E+01
    -31.649  0.0000E+00  0.0000E+00  0.4000E+01  0.4000E+01
    -31.456  0.0000E+00  0.0000E+00  0.4000E+01  0.4000E+01
    -31.263  0.0000E+00  0.0000E+00  0.4000E+01  0.4000E+01
    -31.070  0.0000E+00  0.0000E+00  0.4000E+01  0.4000E+01
    -30.877  0.0000E+00  0.0000E+00  0.4000E+01  0.4000E+01
    -30.683  0.0000E+00  0.0000E+00  0.4000E+01  0.4000E+01
    -30.490  0.0000E+00  0.0000E+00  0.4000E+01  0.4000E+01
    -30.297  0.0000E+00  0.0000E+00  0.4000E+01  0.4000E+01
    -30.104  0.0000E+00  0.0000E+00  0.4000E+01  0.4000E+01
    -29.911  0.0000E+00  0.0000E+00  0.4000E+01  0.4000E+01
    -29.718  0.0000E+00  0.0000E+00  0.4000E+01  0.4000E+01
    -29.525  0.0000E+00  0.0000E+00  0.4000E+01  0.4000E+01
    -29.331  0.0000E+00  0.0000E+00  0.4000E+01  0.4000E+01
    -29.138  0.0000E+00  0.0000E+00  0.4000E+01  0.4000E+01
    -28.945  0.0000E+00  0.0000E+00  0.4000E+01  0.4000E+01
    -28.752  0.0000E+00  0.0000E+00  0.4000E+01  0.4000E+01
    -28.559  0.0000E+00  0.0000E+00  0.4000E+01  0.4000E+01
    -28.366  0.0000E+00  0.0000E+00  0.4000E+01  0.4000E+01
    -28.172  0.0000E+00  0.0000E+00  0.4000E+01  0.4000E+01
    -27.979  0.0000E+00  0.0000E+00  0.4000E+01  0.4000E+01
    -27.786  0.0000E+00  0.0000E+00  0.4000E+01  0.4000E+01
    -27.593  0.0000E+00  0.0000E+00  0.4000E+01  0.4000E+01
    -27.400  0.0000E+00  0.0000E+00  0.4000E+01  0.4000E+01
    -27.207  0.0000E+00  0.0000E+00  0.4000E+01  0.4000E+01
    -27.014  0.0000E+00  0.0000E+00  0.4000E+01  0.4000E+01
    -26.820  0.0000E+00  0.0000E+00  0.4000E+01  0.4000E+01
    -26.627  0.0000E+00  0.0000E+00  0.4000E+01  0.4000E+01
    -26.434  0.0000E+00  0.0000E+00  0.4000E+01  0.4000E+01
    -26.241  0.0000E+00  0.0000E+00  0.4000E+01  0.4000E+01
    -26.048  0.0000E+00  0.0000E+00  0.4000E+01  0.4000E+01
    -25.855  0.0000E+00  0.0000E+00  0.4000E+01  0.4000E+01
    -25.662  0.0000E+00  0.0000E+00  0.4000E+01  0.4000E+01
    -25.468  0.0000E+00  0.0000E+00  0.4000E+01  0.4000E+01
    -25.275  0.0000E+00  0.0000E+00  0.4000E+01  0.4000E+01
    -25.082  0.0000E+00  0.0000E+00  0.4000E+01  0.4000E+01
    -24.889  0.0000E+00  0.0000E+00  0.4000E+01  0.4000E+01
    -24.696  0.0000E+00  0.0000E+00  0.4000E+01  0.4000E+01
    -24.503  0.0000E+00  0.0000E+00  0.4000E+01  0.4000E+01
    -24.309  0.0000E+00  0.0000E+00  0.4000E+01  0.4000E+01
    -24.116  0.0000E+00  0.0000E+00  0.4000E+01  0.4000E+01
    -23.923  0.0000E+00  0.0000E+00  0.4000E+01  0.4000E+01
    -23.730  0.0000E+00  0.0000E+00  0.4000E+01  0.4000E+01
    -23.537  0.0000E+00  0.0000E+00  0.4000E+01  0.4000E+01
    -23.344  0.0000E+00  0.0000E+00  0.4000E+01  0.4000E+01
    -23.151  0.0000E+00  0.0000E+00  0.4000E+01  0.4000E+01
    -22.957  0.0000E+00  0.0000E+00  0.4000E+01  0.4000E+01
    -22.764  0.0000E+00  0.0000E+00  0.4000E+01  0.4000E+01
    -22.571  0.0000E+00  0.0000E+00  0.4000E+01  0.4000E+01
    -22.378  0.0000E+00  0.0000E+00  0.4000E+01  0.4000E+01
    -22.185  0.0000E+00  0.0000E+00  0.4000E+01  0.4000E+01
    -21.992  0.0000E+00  0.0000E+00  0.4000E+01  0.4000E+01
    -21.798  0.0000E+00  0.0000E+00  0.4000E+01  0.4000E+01
    -21.605  0.0000E+00  0.0000E+00  0.4000E+01  0.4000E+01
    -21.412  0.8277E-03  0.8137E-03  0.4000E+01  0.4000E+01
    -21.219  0.3855E-01  0.3790E-01  0.4008E+01  0.4007E+01
    -21.026  0.1779E+01  0.1750E+01  0.4351E+01  0.4345E+01
    -20.833  0.3437E+02  0.3414E+02  0.1099E+02  0.1094E+02
    -20.640  0.2500E+02  0.2524E+02  0.1582E+02  0.1582E+02
    -20.446  0.4733E+00  0.4929E+00  0.1600E+02  0.1600E+02
    -20.253  0.0000E+00  0.0000E+00  0.1600E+02  0.1600E+02
    -20.060  0.0000E+00  0.0000E+00  0.1600E+02  0.1600E+02
    -19.867  0.0000E+00  0.0000E+00  0.1600E+02  0.1600E+02
    -19.674  0.0000E+00  0.0000E+00  0.1600E+02  0.1600E+02
    -19.481  0.0000E+00  0.0000E+00  0.1600E+02  0.1600E+02
    -19.288  0.0000E+00  0.0000E+00  0.1600E+02  0.1600E+02
    -19.094  0.0000E+00  0.0000E+00  0.1600E+02  0.1600E+02
    -18.901  0.0000E+00  0.0000E+00  0.1600E+02  0.1600E+02
    -18.708  0.0000E+00  0.0000E+00  0.1600E+02  0.1600E+02
    -18.515  0.0000E+00  0.0000E+00  0.1600E+02  0.1600E+02
    -18.322  0.0000E+00  0.0000E+00  0.1600E+02  0.1600E+02
    -18.129  0.0000E+00  0.0000E+00  0.1600E+02  0.1600E+02
    -17.935  0.0000E+00  0.0000E+00  0.1600E+02  0.1600E+02
    -17.742  0.0000E+00  0.0000E+00  0.1600E+02  0.1600E+02
    -17.549  0.0000E+00  0.0000E+00  0.1600E+02  0.1600E+02
    -17.356  0.0000E+00  0.0000E+00  0.1600E+02  0.1600E+02
    -17.163  0.0000E+00  0.0000E+00  0.1600E+02  0.1600E+02
    -16.970  0.0000E+00  0.0000E+00  0.1600E+02  0.1600E+02
    -16.777  0.0000E+00  0.0000E+00  0.1600E+02  0.1600E+02
    -16.583  0.0000E+00  0.0000E+00  0.1600E+02  0.1600E+02
    -16.390  0.0000E+00  0.0000E+00  0.1600E+02  0.1600E+02
    -16.197  0.0000E+00  0.0000E+00  0.1600E+02  0.1600E+02
    -16.004  0.0000E+00  0.0000E+00  0.1600E+02  0.1600E+02
    -15.811  0.0000E+00  0.0000E+00  0.1600E+02  0.1600E+02
    -15.618  0.0000E+00  0.0000E+00  0.1600E+02  0.1600E+02
    -15.425  0.0000E+00  0.0000E+00  0.1600E+02  0.1600E+02
    -15.231  0.0000E+00  0.0000E+00  0.1600E+02  0.1600E+02
    -15.038  0.0000E+00  0.0000E+00  0.1600E+02  0.1600E+02
    -14.845  0.0000E+00  0.0000E+00  0.1600E+02  0.1600E+02
    -14.652  0.0000E+00  0.0000E+00  0.1600E+02  0.1600E+02
    -14.459  0.0000E+00  0.0000E+00  0.1600E+02  0.1600E+02
    -14.266  0.0000E+00  0.0000E+00  0.1600E+02  0.1600E+02
    -14.072  0.0000E+00  0.0000E+00  0.1600E+02  0.1600E+02
    -13.879  0.0000E+00  0.0000E+00  0.1600E+02  0.1600E+02
    -13.686  0.0000E+00  0.0000E+00  0.1600E+02  0.1600E+02
    -13.493  0.0000E+00  0.0000E+00  0.1600E+02  0.1600E+02
    -13.300  0.0000E+00  0.0000E+00  0.1600E+02  0.1600E+02
    -13.107  0.0000E+00  0.0000E+00  0.1600E+02  0.1600E+02
    -12.914  0.0000E+00  0.0000E+00  0.1600E+02  0.1600E+02
    -12.720  0.0000E+00  0.0000E+00  0.1600E+02  0.1600E+02
    -12.527  0.0000E+00  0.0000E+00  0.1600E+02  0.1600E+02
    -12.334  0.0000E+00  0.0000E+00  0.1600E+02  0.1600E+02
    -12.141  0.0000E+00  0.0000E+00  0.1600E+02  0.1600E+02
    -11.948  0.0000E+00  0.0000E+00  0.1600E+02  0.1600E+02
    -11.755  0.0000E+00  0.0000E+00  0.1600E+02  0.1600E+02
    -11.562  0.0000E+00  0.0000E+00  0.1600E+02  0.1600E+02
    -11.368  0.0000E+00  0.0000E+00  0.1600E+02  0.1600E+02
    -11.175  0.0000E+00  0.0000E+00  0.1600E+02  0.1600E+02
    -10.982  0.0000E+00  0.0000E+00  0.1600E+02  0.1600E+02
    -10.789  0.0000E+00  0.0000E+00  0.1600E+02  0.1600E+02
    -10.596  0.0000E+00  0.0000E+00  0.1600E+02  0.1600E+02
    -10.403  0.0000E+00  0.0000E+00  0.1600E+02  0.1600E+02
    -10.209  0.0000E+00  0.0000E+00  0.1600E+02  0.1600E+02
    -10.016  0.0000E+00  0.0000E+00  0.1600E+02  0.1600E+02
     -9.823  0.0000E+00  0.0000E+00  0.1600E+02  0.1600E+02
     -9.630  0.0000E+00  0.0000E+00  0.1600E+02  0.1600E+02
     -9.437  0.0000E+00  0.0000E+00  0.1600E+02  0.1600E+02
     -9.244  0.0000E+00  0.0000E+00  0.1600E+02  0.1600E+02
     -9.051  0.0000E+00  0.0000E+00  0.1600E+02  0.1600E+02
     -8.857  0.0000E+00  0.0000E+00  0.1600E+02  0.1600E+02
     -8.664  0.0000E+00  0.0000E+00  0.1600E+02  0.1600E+02
     -8.471  0.0000E+00  0.0000E+00  0.1600E+02  0.1600E+02
     -8.278  0.0000E+00  0.0000E+00  0.1600E+02  0.1600E+02
     -8.085  0.0000E+00  0.0000E+00  0.1600E+02  0.1600E+02
     -7.892  0.0000E+00  0.0000E+00  0.1600E+02  0.1600E+02
     -7.699  0.0000E+00  0.0000E+00  0.1600E+02  0.1600E+02
     -7.505  0.0000E+00  0.0000E+00  0.1600E+02  0.1600E+02
     -7.312  0.0000E+00  0.0000E+00  0.1600E+02  0.1600E+02
     -7.119  0.0000E+00  0.0000E+00  0.1600E+02  0.1600E+02
     -6.926  0.0000E+00  0.0000E+00  0.1600E+02  0.1600E+02
     -6.733  0.0000E+00  0.0000E+00  0.1600E+02  0.1600E+02
     -6.540  0.0000E+00  0.0000E+00  0.1600E+02  0.1600E+02
     -6.346  0.0000E+00  0.0000E+00  0.1600E+02  0.1600E+02
     -6.153  0.0000E+00  0.0000E+00  0.1600E+02  0.1600E+02
     -5.960  0.0000E+00  0.0000E+00  0.1600E+02  0.1600E+02
     -5.767  0.0000E+00  0.0000E+00  0.1600E+02  0.1600E+02
     -5.574  0.0000E+00  0.0000E+00  0.1600E+02  0.1600E+02
     -5.381  0.0000E+00  0.0000E+00  0.1600E+02  0.1600E+02
     -5.188  0.0000E+00  0.0000E+00  0.1600E+02  0.1600E+02
     -4.994  0.0000E+00  0.0000E+00  0.1600E+02  0.1600E+02
     -4.801  0.0000E+00  0.0000E+00  0.1600E+02  0.1600E+02
     -4.608  0.0000E+00  0.0000E+00  0.1600E+02  0.1600E+02
     -4.415  0.0000E+00  0.0000E+00  0.1600E+02  0.1600E+02
     -4.222  0.0000E+00  0.0000E+00  0.1600E+02  0.1600E+02
     -4.029  0.0000E+00  0.0000E+00  0.1600E+02  0.1600E+02
     -3.836  0.0000E+00  0.0000E+00  0.1600E+02  0.1600E+02
     -3.642  0.0000E+00  0.0000E+00  0.1600E+02  0.1600E+02
     -3.449  0.8989E-07  0.8931E-07  0.1600E+02  0.1600E+02
     -3.256  0.1918E-04  0.1905E-04  0.1600E+02  0.1600E+02
     -3.063  0.9298E-03  0.9239E-03  0.1600E+02  0.1600E+02
     -2.870  0.3419E-01  0.3401E-01  0.1601E+02  0.1601E+02
     -2.677  0.2553E+00  0.2549E+00  0.1606E+02  0.1606E+02
     -2.483  0.5102E+00  0.5100E+00  0.1615E+02  0.1615E+02
     -2.290  0.6646E+00  0.6643E+00  0.1628E+02  0.1628E+02
     -2.097  0.7884E+00  0.7883E+00  0.1644E+02  0.1644E+02
     -1.904  0.8856E+00  0.8852E+00  0.1661E+02  0.1661E+02
     -1.711  0.1111E+01  0.1111E+01  0.1682E+02  0.1682E+02
     -1.518  0.1018E+01  0.1018E+01  0.1702E+02  0.1702E+02
     -1.325  0.1416E+01  0.1416E+01  0.1730E+02  0.1730E+02
     -1.131  0.1354E+01  0.1354E+01  0.1756E+02  0.1756E+02
     -0.938  0.1603E+01  0.1603E+01  0.1787E+02  0.1787E+02
     -0.745  0.1602E+01  0.1602E+01  0.1818E+02  0.1818E+02
     -0.552  0.1684E+01  0.1685E+01  0.1850E+02  0.1850E+02
     -0.359  0.1309E+01  0.1309E+01  0.1876E+02  0.1876E+02
     -0.166  0.1585E+01  0.1585E+01  0.1907E+02  0.1907E+02
      0.027  0.1495E+01  0.1495E+01  0.1936E+02  0.1936E+02
      0.221  0.1771E+01  0.1770E+01  0.1970E+02  0.1970E+02
      0.414  0.1751E+01  0.1751E+01  0.2004E+02  0.2004E+02
      0.607  0.1862E+01  0.1861E+01  0.2040E+02  0.2040E+02
      0.800  0.2256E+01  0.2256E+01  0.2084E+02  0.2084E+02
      0.993  0.2195E+01  0.2195E+01  0.2126E+02  0.2126E+02
      1.186  0.2084E+01  0.2084E+01  0.2167E+02  0.2167E+02
      1.380  0.2061E+01  0.2061E+01  0.2207E+02  0.2207E+02
      1.573  0.1797E+01  0.1797E+01  0.2241E+02  0.2241E+02
      1.766  0.2349E+01  0.2347E+01  0.2287E+02  0.2287E+02
      1.959  0.2295E+01  0.2297E+01  0.2331E+02  0.2331E+02
      2.152  0.2208E+01  0.2207E+01  0.2374E+02  0.2374E+02
      2.345  0.2669E+01  0.2669E+01  0.2426E+02  0.2426E+02
      2.538  0.2983E+01  0.2981E+01  0.2484E+02  0.2484E+02
      2.732  0.2938E+01  0.2940E+01  0.2541E+02  0.2541E+02
      2.925  0.2115E+01  0.2115E+01  0.2582E+02  0.2582E+02
      3.118  0.2071E+01  0.2071E+01  0.2622E+02  0.2622E+02
      3.311  0.2275E+01  0.2273E+01  0.2666E+02  0.2666E+02
      3.504  0.3011E+01  0.3010E+01  0.2725E+02  0.2724E+02
      3.697  0.2417E+01  0.2419E+01  0.2772E+02  0.2771E+02
      3.891  0.3093E+01  0.3091E+01  0.2832E+02  0.2831E+02
      4.084  0.3271E+01  0.3271E+01  0.2895E+02  0.2895E+02
      4.277  0.3727E+01  0.3725E+01  0.2967E+02  0.2967E+02
      4.470  0.3413E+01  0.3414E+01  0.3033E+02  0.3033E+02
      4.663  0.4157E+01  0.4154E+01  0.3114E+02  0.3114E+02
      4.856  0.4337E+01  0.4338E+01  0.3198E+02  0.3198E+02
      5.049  0.3671E+01  0.3672E+01  0.3269E+02  0.3269E+02
      5.243  0.3510E+01  0.3508E+01  0.3337E+02  0.3337E+02
      5.436  0.4258E+01  0.4256E+01  0.3420E+02  0.3420E+02
      5.629  0.4663E+01  0.4660E+01  0.3510E+02  0.3510E+02
      5.822  0.5266E+01  0.5265E+01  0.3612E+02  0.3612E+02
      6.015  0.5273E+01  0.5271E+01  0.3715E+02  0.3714E+02
      6.208  0.4494E+01  0.4497E+01  0.3802E+02  0.3801E+02
      6.401  0.4403E+01  0.4400E+01  0.3887E+02  0.3887E+02
      6.595  0.4196E+01  0.4198E+01  0.3969E+02  0.3968E+02
      6.788  0.3415E+01  0.3415E+01  0.4035E+02  0.4035E+02
      6.981  0.3033E+01  0.3037E+01  0.4094E+02  0.4094E+02
      7.174  0.2211E+01  0.2212E+01  0.4137E+02  0.4137E+02
      7.367  0.2270E+01  0.2269E+01  0.4181E+02  0.4181E+02
      7.560  0.2493E+01  0.2491E+01  0.4229E+02  0.4229E+02
      7.754  0.2998E+01  0.2997E+01  0.4287E+02  0.4287E+02
      7.947  0.3522E+01  0.3521E+01  0.4355E+02  0.4355E+02
      8.140  0.3520E+01  0.3520E+01  0.4424E+02  0.4423E+02
      8.333  0.4991E+01  0.4989E+01  0.4520E+02  0.4520E+02
      8.526  0.5437E+01  0.5448E+01  0.4625E+02  0.4625E+02
      8.719  0.6118E+01  0.6122E+01  0.4744E+02  0.4744E+02
      8.912  0.6061E+01  0.6087E+01  0.4862E+02  0.4862E+02
      9.106  0.7299E+01  0.7350E+01  0.5003E+02  0.5004E+02
      9.299  0.7087E+01  0.7084E+01  0.5140E+02  0.5142E+02
      9.492  0.7320E+01  0.7553E+01  0.5282E+02  0.5288E+02
      9.685  0.6138E+01  0.6601E+01  0.5402E+02  0.5416E+02
      9.878  0.4374E+01  0.4433E+01  0.5487E+02  0.5503E+02
     10.071  0.3483E+01  0.2840E+01  0.5555E+02  0.5558E+02
     10.264  0.1764E+01  0.1647E+01  0.5589E+02  0.5590E+02
     10.458  0.4842E+00  0.4543E+00  0.5599E+02  0.5599E+02
     10.651  0.6703E-01  0.3266E-01  0.5600E+02  0.5600E+02
     10.844  0.3147E-02  0.0000E+00  0.5600E+02  0.5600E+02
     11.037  0.0000E+00  0.0000E+00  0.5600E+02  0.5600E+02
     11.230  0.0000E+00  0.0000E+00  0.5600E+02  0.5600E+02
     11.423  0.0000E+00  0.0000E+00  0.5600E+02  0.5600E+02
     11.617  0.0000E+00  0.0000E+00  0.5600E+02  0.5600E+02
     11.810  0.0000E+00  0.0000E+00  0.5600E+02  0.5600E+02
     12.003  0.0000E+00  0.0000E+00  0.5600E+02  0.5600E+02
     12.196  0.0000E+00  0.0000E+00  0.5600E+02  0.5600E+02
     12.389  0.0000E+00  0.0000E+00  0.5600E+02  0.5600E+02
     12.582  0.0000E+00  0.0000E+00  0.5600E+02  0.5600E+02
     12.775  0.0000E+00  0.0000E+00  0.5600E+02  0.5600E+02
     12.969  0.0000E+00  0.0000E+00  0.5600E+02  0.5600E+02
     13.162  0.0000E+00  0.0000E+00  0.5600E+02  0.5600E+02
     13.16172624    -44.78339108  301      6.68453487      1.00000000
    -44.783  0.0000E+00  0.0000E+00  0.0000E+00  0.0000E+00  0.0000E+00  0.0000E+00  0.0000E+00  0.0000E+00  0.0000E+00  0.0000E+00  0.0000E+00  0.0000E+00  0.0000E+00  0.0000E+00  0.0000E+00  0.0000E+00  0.0000E+00  0.0000E+00
    -44.590  0.0000E+00  0.0000E+00  0.0000E+00  0.0000E+00  0.0000E+00  0.0000E+00  0.0000E+00  0.0000E+00  0.0000E+00  0.0000E+00  0.0000E+00  0.0000E+00  0.0000E+00  0.0000E+00  0.0000E+00  0.0000E+00  0.0000E+00  0.0000E+00
    -44.397  0.0000E+00  0.0000E+00  0.0000E+00  0.0000E+00  0.0000E+00  0.0000E+00  0.0000E+00  0.0000E+00  0.0000E+00  0.0000E+00  0.0000E+00  0.0000E+00  0.0000E+00  0.0000E+00  0.0000E+00  0.0000E+00  0.0000E+00  0.0000E+00
    -44.204  0.0000E+00  0.0000E+00  0.0000E+00  0.0000E+00  0.0000E+00  0.0000E+00  0.0000E+00  0.0000E+00  0.0000E+00  0.0000E+00  0.0000E+00  0.0000E+00  0.0000E+00  0.0000E+00  0.0000E+00  0.0000E+00  0.0000E+00  0.0000E+00
    -44.011  0.0000E+00  0.0000E+00  0.0000E+00  0.0000E+00  0.0000E+00  0.0000E+00  0.0000E+00  0.0000E+00  0.0000E+00  0.0000E+00  0.0000E+00  0.0000E+00  0.0000E+00  0.0000E+00  0.0000E+00  0.0000E+00  0.0000E+00  0.0000E+00
    -43.818  0.0000E+00  0.0000E+00  0.0000E+00  0.0000E+00  0.0000E+00  0.0000E+00  0.0000E+00  0.0000E+00  0.0000E+00  0.0000E+00  0.0000E+00  0.0000E+00  0.0000E+00  0.0000E+00  0.0000E+00  0.0000E+00  0.0000E+00  0.0000E+00
    -43.624  0.0000E+00  0.0000E+00  0.0000E+00  0.0000E+00  0.0000E+00  0.0000E+00  0.0000E+00  0.0000E+00  0.0000E+00  0.0000E+00  0.0000E+00  0.0000E+00  0.0000E+00  0.0000E+00  0.0000E+00  0.0000E+00  0.0000E+00  0.0000E+00
    -43.431  0.0000E+00  0.0000E+00  0.0000E+00  0.0000E+00  0.0000E+00  0.0000E+00  0.0000E+00  0.0000E+00  0.0000E+00  0.0000E+00  0.0000E+00  0.0000E+00  0.0000E+00  0.0000E+00  0.0000E+00  0.0000E+00  0.0000E+00  0.0000E+00
    -43.238  0.0000E+00  0.0000E+00  0.0000E+00  0.0000E+00  0.0000E+00  0.0000E+00  0.0000E+00  0.0000E+00  0.0000E+00  0.0000E+00  0.0000E+00  0.0000E+00  0.0000E+00  0.0000E+00  0.0000E+00  0.0000E+00  0.0000E+00  0.0000E+00
    -43.045  0.0000E+00  0.0000E+00  0.0000E+00  0.0000E+00  0.0000E+00  0.0000E+00  0.0000E+00  0.0000E+00  0.0000E+00  0.0000E+00  0.0000E+00  0.0000E+00  0.0000E+00  0.0000E+00  0.0000E+00  0.0000E+00  0.0000E+00  0.0000E+00
    -42.852  0.0000E+00  0.0000E+00  0.0000E+00  0.0000E+00  0.0000E+00  0.0000E+00  0.0000E+00  0.0000E+00  0.0000E+00  0.0000E+00  0.0000E+00  0.0000E+00  0.0000E+00  0.0000E+00  0.0000E+00  0.0000E+00  0.0000E+00  0.0000E+00
    -42.659  0.1881E-03  0.1857E-03  0.7001E-12  0.6865E-12  0.3534E-09  0.3615E-09  0.7001E-12  0.6865E-12  0.2496E-13  0.1497E-13  0.2150E-13  0.1043E-13  0.9134E-11  0.9484E-11  0.2150E-13  0.1043E-13  0.5610E-12  0.5225E-12
    -42.466  0.8752E-02  0.8639E-02  0.3257E-10  0.3194E-10  0.1644E-07  0.1682E-07  0.3257E-10  0.3194E-10  0.1161E-11  0.6964E-12  0.1000E-11  0.4852E-12  0.4250E-09  0.4413E-09  0.1000E-11  0.4852E-12  0.2610E-10  0.2431E-10
    -42.272  0.3848E+00  0.3803E+00  0.1432E-08  0.1406E-08  0.7230E-06  0.7404E-06  0.1432E-08  0.1406E-08  0.5106E-10  0.3067E-10  0.4399E-10  0.2136E-10  0.1868E-07  0.1942E-07  0.4399E-10  0.2136E-10  0.1148E-08  0.1070E-08
    -42.079  0.3718E+01  0.3712E+01  0.1383E-07  0.1372E-07  0.6984E-05  0.7226E-05  0.1383E-07  0.1372E-07  0.4934E-09  0.3010E-09  0.4243E-09  0.2092E-09  0.1802E-06  0.1892E-06  0.4243E-09  0.2092E-09  0.1109E-07  0.1045E-07
    -41.886  0.1017E+01  0.1028E+01  0.3784E-08  0.3798E-08  0.1911E-05  0.2001E-05  0.3784E-08  0.3798E-08  0.1350E-09  0.8390E-10  0.1159E-09  0.5813E-10  0.4919E-07  0.5228E-07  0.1159E-09  0.5813E-10  0.3037E-08  0.2894E-08
    -41.693  0.0000E+00  0.0000E+00  0.0000E+00  0.0000E+00  0.0000E+00  0.0000E+00  0.0000E+00  0.0000E+00  0.0000E+00  0.0000E+00  0.0000E+00  0.0000E+00  0.0000E+00  0.0000E+00  0.0000E+00  0.0000E+00  0.0000E+00  0.0000E+00
    -41.500  0.0000E+00  0.0000E+00  0.0000E+00  0.0000E+00  0.0000E+00  0.0000E+00  0.0000E+00  0.0000E+00  0.0000E+00  0.0000E+00  0.0000E+00  0.0000E+00  0.0000E+00  0.0000E+00  0.0000E+00  0.0000E+00  0.0000E+00  0.0000E+00
    -41.307  0.0000E+00  0.0000E+00  0.0000E+00  0.0000E+00  0.0000E+00  0.0000E+00  0.0000E+00  0.0000E+00  0.0000E+00  0.0000E+00  0.0000E+00  0.0000E+00  0.0000E+00  0.0000E+00  0.0000E+00  0.0000E+00  0.0000E+00  0.0000E+00
    -41.114  0.0000E+00  0.0000E+00  0.0000E+00  0.0000E+00  0.0000E+00  0.0000E+00  0.0000E+00  0.0000E+00  0.0000E+00  0.0000E+00  0.0000E+00  0.0000E+00  0.0000E+00  0.0000E+00  0.0000E+00  0.0000E+00  0.0000E+00  0.0000E+00
    -40.920  0.0000E+00  0.0000E+00  0.0000E+00  0.0000E+00  0.0000E+00  0.0000E+00  0.0000E+00  0.0000E+00  0.0000E+00  0.0000E+00  0.0000E+00  0.0000E+00  0.0000E+00  0.0000E+00  0.0000E+00  0.0000E+00  0.0000E+00  0.0000E+00
    -40.727  0.0000E+00  0.0000E+00  0.0000E+00  0.0000E+00  0.0000E+00  0.0000E+00  0.0000E+00  0.0000E+00  0.0000E+00  0.0000E+00  0.0000E+00  0.0000E+00  0.0000E+00  0.0000E+00  0.0000E+00  0.0000E+00  0.0000E+00  0.0000E+00
    -40.534  0.0000E+00  0.0000E+00  0.0000E+00  0.0000E+00  0.0000E+00  0.0000E+00  0.0000E+00  0.0000E+00  0.0000E+00  0.0000E+00  0.0000E+00  0.0000E+00  0.0000E+00  0.0000E+00  0.0000E+00  0.0000E+00  0.0000E+00  0.0000E+00
    -40.341  0.0000E+00  0.0000E+00  0.0000E+00  0.0000E+00  0.0000E+00  0.0000E+00  0.0000E+00  0.0000E+00  0.0000E+00  0.0000E+00  0.0000E+00  0.0000E+00  0.0000E+00  0.0000E+00  0.0000E+00  0.0000E+00  0.0000E+00  0.0000E+00
    -40.148  0.0000E+00  0.0000E+00  0.0000E+00  0.0000E+00  0.0000E+00  0.0000E+00  0.0000E+00  0.0000E+00  0.0000E+00  0.0000E+00  0.0000E+00  0.0000E+00  0.0000E+00  0.0000E+00  0.0000E+00  0.0000E+00  0.0000E+00  0.0000E+00
    -39.955  0.0000E+00  0.0000E+00  0.0000E+00  0.0000E+00  0.0000E+00  0.0000E+00  0.0000E+00  0.0000E+00  0.0000E+00  0.0000E+00  0.0000E+00  0.0000E+00  0.0000E+00  0.0000E+00  0.0000E+00  0.0000E+00  0.0000E+00  0.0000E+00
    -39.761  0.0000E+00  0.0000E+00  0.0000E+00  0.0000E+00  0.0000E+00  0.0000E+00  0.0000E+00  0.0000E+00  0.0000E+00  0.0000E+00  0.0000E+00  0.0000E+00  0.0000E+00  0.0000E+00  0.0000E+00  0.0000E+00  0.0000E+00  0.0000E+00
    -39.568  0.0000E+00  0.0000E+00  0.0000E+00  0.0000E+00  0.0000E+00  0.0000E+00  0.0000E+00  0.0000E+00  0.0000E+00  0.0000E+00  0.0000E+00  0.0000E+00  0.0000E+00  0.0000E+00  0.0000E+00  0.0000E+00  0.0000E+00  0.0000E+00
    -39.375  0.0000E+00  0.0000E+00  0.0000E+00  0.0000E+00  0.0000E+00  0.0000E+00  0.0000E+00  0.0000E+00  0.0000E+00  0.0000E+00  0.0000E+00  0.0000E+00  0.0000E+00  0.0000E+00  0.0000E+00  0.0000E+00  0.0000E+00  0.0000E+00
    -39.182  0.0000E+00  0.0000E+00  0.0000E+00  0.0000E+00  0.0000E+00  0.0000E+00  0.0000E+00  0.0000E+00  0.0000E+00  0.0000E+00  0.0000E+00  0.0000E+00  0.0000E+00  0.0000E+00  0.0000E+00  0.0000E+00  0.0000E+00  0.0000E+00
    -38.989  0.0000E+00  0.0000E+00  0.0000E+00  0.0000E+00  0.0000E+00  0.0000E+00  0.0000E+00  0.0000E+00  0.0000E+00  0.0000E+00  0.0000E+00  0.0000E+00  0.0000E+00  0.0000E+00  0.0000E+00  0.0000E+00  0.0000E+00  0.0000E+00
    -38.796  0.0000E+00  0.0000E+00  0.0000E+00  0.0000E+00  0.0000E+00  0.0000E+00  0.0000E+00  0.0000E+00  0.0000E+00  0.0000E+00  0.0000E+00  0.0000E+00  0.0000E+00  0.0000E+00  0.0000E+00  0.0000E+00  0.0000E+00  0.0000E+00
    -38.603  0.0000E+00  0.0000E+00  0.0000E+00  0.0000E+00  0.0000E+00  0.0000E+00  0.0000E+00  0.0000E+00  0.0000E+00  0.0000E+00  0.0000E+00  0.0000E+00  0.0000E+00  0.0000E+00  0.0000E+00  0.0000E+00  0.0000E+00  0.0000E+00
    -38.409  0.0000E+00  0.0000E+00  0.0000E+00  0.0000E+00  0.0000E+00  0.0000E+00  0.0000E+00  0.0000E+00  0.0000E+00  0.0000E+00  0.0000E+00  0.0000E+00  0.0000E+00  0.0000E+00  0.0000E+00  0.0000E+00  0.0000E+00  0.0000E+00
    -38.216  0.0000E+00  0.0000E+00  0.0000E+00  0.0000E+00  0.0000E+00  0.0000E+00  0.0000E+00  0.0000E+00  0.0000E+00  0.0000E+00  0.0000E+00  0.0000E+00  0.0000E+00  0.0000E+00  0.0000E+00  0.0000E+00  0.0000E+00  0.0000E+00
    -38.023  0.0000E+00  0.0000E+00  0.0000E+00  0.0000E+00  0.0000E+00  0.0000E+00  0.0000E+00  0.0000E+00  0.0000E+00  0.0000E+00  0.0000E+00  0.0000E+00  0.0000E+00  0.0000E+00  0.0000E+00  0.0000E+00  0.0000E+00  0.0000E+00
    -37.830  0.0000E+00  0.0000E+00  0.0000E+00  0.0000E+00  0.0000E+00  0.0000E+00  0.0000E+00  0.0000E+00  0.0000E+00  0.0000E+00  0.0000E+00  0.0000E+00  0.0000E+00  0.0000E+00  0.0000E+00  0.0000E+00  0.0000E+00  0.0000E+00
    -37.637  0.0000E+00  0.0000E+00  0.0000E+00  0.0000E+00  0.0000E+00  0.0000E+00  0.0000E+00  0.0000E+00  0.0000E+00  0.0000E+00  0.0000E+00  0.0000E+00  0.0000E+00  0.0000E+00  0.0000E+00  0.0000E+00  0.0000E+00  0.0000E+00
    -37.444  0.0000E+00  0.0000E+00  0.0000E+00  0.0000E+00  0.0000E+00  0.0000E+00  0.0000E+00  0.0000E+00  0.0000E+00  0.0000E+00  0.0000E+00  0.0000E+00  0.0000E+00  0.0000E+00  0.0000E+00  0.0000E+00  0.0000E+00  0.0000E+00
    -37.251  0.0000E+00  0.0000E+00  0.0000E+00  0.0000E+00  0.0000E+00  0.0000E+00  0.0000E+00  0.0000E+00  0.0000E+00  0.0000E+00  0.0000E+00  0.0000E+00  0.0000E+00  0.0000E+00  0.0000E+00  0.0000E+00  0.0000E+00  0.0000E+00
    -37.057  0.0000E+00  0.0000E+00  0.0000E+00  0.0000E+00  0.0000E+00  0.0000E+00  0.0000E+00  0.0000E+00  0.0000E+00  0.0000E+00  0.0000E+00  0.0000E+00  0.0000E+00  0.0000E+00  0.0000E+00  0.0000E+00  0.0000E+00  0.0000E+00
    -36.864  0.0000E+00  0.0000E+00  0.0000E+00  0.0000E+00  0.0000E+00  0.0000E+00  0.0000E+00  0.0000E+00  0.0000E+00  0.0000E+00  0.0000E+00  0.0000E+00  0.0000E+00  0.0000E+00  0.0000E+00  0.0000E+00  0.0000E+00  0.0000E+00
    -36.671  0.0000E+00  0.0000E+00  0.0000E+00  0.0000E+00  0.0000E+00  0.0000E+00  0.0000E+00  0.0000E+00  0.0000E+00  0.0000E+00  0.0000E+00  0.0000E+00  0.0000E+00  0.0000E+00  0.0000E+00  0.0000E+00  0.0000E+00  0.0000E+00
    -36.478  0.0000E+00  0.0000E+00  0.0000E+00  0.0000E+00  0.0000E+00  0.0000E+00  0.0000E+00  0.0000E+00  0.0000E+00  0.0000E+00  0.0000E+00  0.0000E+00  0.0000E+00  0.0000E+00  0.0000E+00  0.0000E+00  0.0000E+00  0.0000E+00
    -36.285  0.0000E+00  0.0000E+00  0.0000E+00  0.0000E+00  0.0000E+00  0.0000E+00  0.0000E+00  0.0000E+00  0.0000E+00  0.0000E+00  0.0000E+00  0.0000E+00  0.0000E+00  0.0000E+00  0.0000E+00  0.0000E+00  0.0000E+00  0.0000E+00
    -36.092  0.0000E+00  0.0000E+00  0.0000E+00  0.0000E+00  0.0000E+00  0.0000E+00  0.0000E+00  0.0000E+00  0.0000E+00  0.0000E+00  0.0000E+00  0.0000E+00  0.0000E+00  0.0000E+00  0.0000E+00  0.0000E+00  0.0000E+00  0.0000E+00
    -35.898  0.0000E+00  0.0000E+00  0.0000E+00  0.0000E+00  0.0000E+00  0.0000E+00  0.0000E+00  0.0000E+00  0.0000E+00  0.0000E+00  0.0000E+00  0.0000E+00  0.0000E+00  0.0000E+00  0.0000E+00  0.0000E+00  0.0000E+00  0.0000E+00
    -35.705  0.0000E+00  0.0000E+00  0.0000E+00  0.0000E+00  0.0000E+00  0.0000E+00  0.0000E+00  0.0000E+00  0.0000E+00  0.0000E+00  0.0000E+00  0.0000E+00  0.0000E+00  0.0000E+00  0.0000E+00  0.0000E+00  0.0000E+00  0.0000E+00
    -35.512  0.0000E+00  0.0000E+00  0.0000E+00  0.0000E+00  0.0000E+00  0.0000E+00  0.0000E+00  0.0000E+00  0.0000E+00  0.0000E+00  0.0000E+00  0.0000E+00  0.0000E+00  0.0000E+00  0.0000E+00  0.0000E+00  0.0000E+00  0.0000E+00
    -35.319  0.0000E+00  0.0000E+00  0.0000E+00  0.0000E+00  0.0000E+00  0.0000E+00  0.0000E+00  0.0000E+00  0.0000E+00  0.0000E+00  0.0000E+00  0.0000E+00  0.0000E+00  0.0000E+00  0.0000E+00  0.0000E+00  0.0000E+00  0.0000E+00
    -35.126  0.0000E+00  0.0000E+00  0.0000E+00  0.0000E+00  0.0000E+00  0.0000E+00  0.0000E+00  0.0000E+00  0.0000E+00  0.0000E+00  0.0000E+00  0.0000E+00  0.0000E+00  0.0000E+00  0.0000E+00  0.0000E+00  0.0000E+00  0.0000E+00