  16  16   1   0
  0.1924008E+02  0.4164126E-09  0.4164126E-09  0.1775331E-08  0.5000000E-15
  1.000000000000000E-004
  CAR 
 unknown system                          
     11.99770425    -45.84987736  301      5.94387115      1.00000000
    -45.850  0.0000E+00  0.0000E+00  0.0000E+00  0.0000E+00
    -45.657  0.0000E+00  0.0000E+00  0.0000E+00  0.0000E+00
    -45.464  0.0000E+00  0.0000E+00  0.0000E+00  0.0000E+00
    -45.271  0.0000E+00  0.0000E+00  0.0000E+00  0.0000E+00
    -45.079  0.0000E+00  0.0000E+00  0.0000E+00  0.0000E+00
    -44.886  0.0000E+00  0.0000E+00  0.0000E+00  0.0000E+00
    -44.693  0.0000E+00  0.0000E+00  0.0000E+00  0.0000E+00
    -44.500  0.0000E+00  0.0000E+00  0.0000E+00  0.0000E+00
    -44.307  0.0000E+00  0.0000E+00  0.0000E+00  0.0000E+00
    -44.114  0.0000E+00  0.0000E+00  0.0000E+00  0.0000E+00
    -43.922  0.0000E+00  0.0000E+00  0.0000E+00  0.0000E+00
    -43.729  0.7805E-03  0.7745E-03  0.1505E-03  0.1494E-03
    -43.536  0.3607E-01  0.3580E-01  0.7106E-02  0.7052E-02
    -43.343  0.1574E+01  0.1563E+01  0.3106E+00  0.3084E+00
    -43.150  0.1497E+02  0.1496E+02  0.3197E+01  0.3192E+01
    -42.957  0.4055E+01  0.4079E+01  0.3979E+01  0.3979E+01
    -42.765  0.0000E+00  0.0000E+00  0.4000E+01  0.4000E+01
    -42.572  0.0000E+00  0.0000E+00  0.4000E+01  0.4000E+01
    -42.379  0.0000E+00  0.0000E+00  0.4000E+01  0.4000E+01
    -42.186  0.0000E+00  0.0000E+00  0.4000E+01  0.4000E+01
    -41.993  0.0000E+00  0.0000E+00  0.4000E+01  0.4000E+01
    -41.801  0.0000E+00  0.0000E+00  0.4000E+01  0.4000E+01
    -41.608  0.0000E+00  0.0000E+00  0.4000E+01  0.4000E+01
    -41.415  0.0000E+00  0.0000E+00  0.4000E+01  0.4000E+01
    -41.222  0.0000E+00  0.0000E+00  0.4000E+01  0.4000E+01
    -41.029  0.0000E+00  0.0000E+00  0.4000E+01  0.4000E+01
    -40.836  0.0000E+00  0.0000E+00  0.4000E+01  0.4000E+01
    -40.644  0.0000E+00  0.0000E+00  0.4000E+01  0.4000E+01
    -40.451  0.0000E+00  0.0000E+00  0.4000E+01  0.4000E+01
    -40.258  0.0000E+00  0.0000E+00  0.4000E+01  0.4000E+01
    -40.065  0.0000E+00  0.0000E+00  0.4000E+01  0.4000E+01
    -39.872  0.0000E+00  0.0000E+00  0.4000E+01  0.4000E+01
    -39.679  0.0000E+00  0.0000E+00  0.4000E+01  0.4000E+01
    -39.487  0.0000E+00  0.0000E+00  0.4000E+01  0.4000E+01
    -39.294  0.0000E+00  0.0000E+00  0.4000E+01  0.4000E+01
    -39.101  0.0000E+00  0.0000E+00  0.4000E+01  0.4000E+01
    -38.908  0.0000E+00  0.0000E+00  0.4000E+01  0.4000E+01
    -38.715  0.0000E+00  0.0000E+00  0.4000E+01  0.4000E+01
    -38.523  0.0000E+00  0.0000E+00  0.4000E+01  0.4000E+01
    -38.330  0.0000E+00  0.0000E+00  0.4000E+01  0.4000E+01
    -38.137  0.0000E+00  0.0000E+00  0.4000E+01  0.4000E+01
    -37.944  0.0000E+00  0.0000E+00  0.4000E+01  0.4000E+01
    -37.751  0.0000E+00  0.0000E+00  0.4000E+01  0.4000E+01
    -37.558  0.0000E+00  0.0000E+00  0.4000E+01  0.4000E+01
    -37.366  0.0000E+00  0.0000E+00  0.4000E+01  0.4000E+01
    -37.173  0.0000E+00  0.0000E+00  0.4000E+01  0.4000E+01
    -36.980  0.0000E+00  0.0000E+00  0.4000E+01  0.4000E+01
    -36.787  0.0000E+00  0.0000E+00  0.4000E+01  0.4000E+01
    -36.594  0.0000E+00  0.0000E+00  0.4000E+01  0.4000E+01
    -36.401  0.0000E+00  0.0000E+00  0.4000E+01  0.4000E+01
    -36.209  0.0000E+00  0.0000E+00  0.4000E+01  0.4000E+01
    -36.016  0.0000E+00  0.0000E+00  0.4000E+01  0.4000E+01
    -35.823  0.0000E+00  0.0000E+00  0.4000E+01  0.4000E+01
    -35.630  0.0000E+00  0.0000E+00  0.4000E+01  0.4000E+01
    -35.437  0.0000E+00  0.0000E+00  0.4000E+01  0.4000E+01
    -35.244  0.0000E+00  0.0000E+00  0.4000E+01  0.4000E+01
    -35.052  0.0000E+00  0.0000E+00  0.4000E+01  0.4000E+01
    -34.859  0.0000E+00  0.0000E+00  0.4000E+01  0.4000E+01
    -34.666  0.0000E+00  0.0000E+00  0.4000E+01  0.4000E+01
    -34.473  0.0000E+00  0.0000E+00  0.4000E+01  0.4000E+01
    -34.280  0.0000E+00  0.0000E+00  0.4000E+01  0.4000E+01
    -34.088  0.0000E+00  0.0000E+00  0.4000E+01  0.4000E+01
    -33.895  0.0000E+00  0.0000E+00  0.4000E+01  0.4000E+01
    -33.702  0.0000E+00  0.0000E+00  0.4000E+01  0.4000E+01
    -33.509  0.0000E+00  0.0000E+00  0.4000E+01  0.4000E+01
    -33.316  0.0000E+00  0.0000E+00  0.4000E+01  0.4000E+01
    -33.123  0.0000E+00  0.0000E+00  0.4000E+01  0.4000E+01
    -32.931  0.0000E+00  0.0000E+00  0.4000E+01  0.4000E+01
    -32.738  0.0000E+00  0.0000E+00  0.4000E+01  0.4000E+01
    -32.545  0.0000E+00  0.0000E+00  0.4000E+01  0.4000E+01
    -32.352  0.0000E+00  0.0000E+00  0.4000E+01  0.4000E+01
    -32.159  0.0000E+00  0.0000E+00  0.4000E+01  0.4000E+01
    -31.966  0.0000E+00  0.0000E+00  0.4000E+01  0.4000E+01
    -31.774  0.0000E+00  0.0000E+00  0.4000E+01  0.4000E+01
    -31.581  0.0000E+00  0.0000E+00  0.4000E+01  0.4000E+01
    -31.388  0.0000E+00  0.0000E+00  0.4000E+01  0.4000E+01
    -31.195  0.0000E+00  0.0000E+00  0.4000E+01  0.4000E+01
    -31.002  0.0000E+00  0.0000E+00  0.4000E+01  0.4000E+01
    -30.810  0.0000E+00  0.0000E+00  0.4000E+01  0.4000E+01
    -30.617  0.0000E+00  0.0000E+00  0.4000E+01  0.4000E+01
    -30.424  0.0000E+00  0.0000E+00  0.4000E+01  0.4000E+01
    -30.231  0.0000E+00  0.0000E+00  0.4000E+01  0.4000E+01
    -30.038  0.0000E+00  0.0000E+00  0.4000E+01  0.4000E+01
    -29.845  0.0000E+00  0.0000E+00  0.4000E+01  0.4000E+01
    -29.653  0.0000E+00  0.0000E+00  0.4000E+01  0.4000E+01
    -29.460  0.0000E+00  0.0000E+00  0.4000E+01  0.4000E+01
    -29.267  0.0000E+00  0.0000E+00  0.4000E+01  0.4000E+01
    -29.074  0.0000E+00  0.0000E+00  0.4000E+01  0.4000E+01
    -28.881  0.0000E+00  0.0000E+00  0.4000E+01  0.4000E+01
    -28.688  0.0000E+00  0.0000E+00  0.4000E+01  0.4000E+01
    -28.496  0.0000E+00  0.0000E+00  0.4000E+01  0.4000E+01
    -28.303  0.0000E+00  0.0000E+00  0.4000E+01  0.4000E+01
    -28.110  0.0000E+00  0.0000E+00  0.4000E+01  0.4000E+01
    -27.917  0.0000E+00  0.0000E+00  0.4000E+01  0.4000E+01
    -27.724  0.0000E+00  0.0000E+00  0.4000E+01  0.4000E+01
    -27.531  0.0000E+00  0.0000E+00  0.4000E+01  0.4000E+01
    -27.339  0.0000E+00  0.0000E+00  0.4000E+01  0.4000E+01
    -27.146  0.0000E+00  0.0000E+00  0.4000E+01  0.4000E+01
    -26.953  0.0000E+00  0.0000E+00  0.4000E+01  0.4000E+01
    -26.760  0.0000E+00  0.0000E+00  0.4000E+01  0.4000E+01
    -26.567  0.0000E+00  0.0000E+00  0.4000E+01  0.4000E+01
    -26.375  0.0000E+00  0.0000E+00  0.4000E+01  0.4000E+01
    -26.182  0.0000E+00  0.0000E+00  0.4000E+01  0.4000E+01
    -25.989  0.0000E+00  0.0000E+00  0.4000E+01  0.4000E+01
    -25.796  0.0000E+00  0.0000E+00  0.4000E+01  0.4000E+01
    -25.603  0.0000E+00  0.0000E+00  0.4000E+01  0.4000E+01
    -25.410  0.0000E+00  0.0000E+00  0.4000E+01  0.4000E+01
    -25.218  0.0000E+00  0.0000E+00  0.4000E+01  0.4000E+01
    -25.025  0.0000E+00  0.0000E+00  0.4000E+01  0.4000E+01
    -24.832  0.0000E+00  0.0000E+00  0.4000E+01  0.4000E+01
    -24.639  0.0000E+00  0.0000E+00  0.4000E+01  0.4000E+01
    -24.446  0.0000E+00  0.0000E+00  0.4000E+01  0.4000E+01
    -24.253  0.0000E+00  0.0000E+00  0.4000E+01  0.4000E+01
    -24.061  0.0000E+00  0.0000E+00  0.4000E+01  0.4000E+01
    -23.868  0.0000E+00  0.0000E+00  0.4000E+01  0.4000E+01
    -23.675  0.0000E+00  0.0000E+00  0.4000E+01  0.4000E+01
    -23.482  0.0000E+00  0.0000E+00  0.4000E+01  0.4000E+01
    -23.289  0.0000E+00  0.0000E+00  0.4000E+01  0.4000E+01
    -23.096  0.0000E+00  0.0000E+00  0.4000E+01  0.4000E+01
    -22.904  0.0000E+00  0.0000E+00  0.4000E+01  0.4000E+01
    -22.711  0.0000E+00  0.0000E+00  0.4000E+01  0.4000E+01
    -22.518  0.0000E+00  0.0000E+00  0.4000E+01  0.4000E+01
    -22.325  0.9824E-02  0.9721E-02  0.4002E+01  0.4002E+01
    -22.132  0.4514E+00  0.4467E+00  0.4089E+01  0.4088E+01
    -21.940  0.1571E+02  0.1559E+02  0.7119E+01  0.7094E+01
    -21.747  0.4247E+02  0.4256E+02  0.1531E+02  0.1530E+02
    -21.554  0.3503E+01  0.3539E+01  0.1598E+02  0.1598E+02
    -21.361  0.0000E+00  0.0000E+00  0.1600E+02  0.1600E+02
    -21.168  0.0000E+00  0.0000E+00  0.1600E+02  0.1600E+02
    -20.975  0.0000E+00  0.0000E+00  0.1600E+02  0.1600E+02
    -20.783  0.0000E+00  0.0000E+00  0.1600E+02  0.1600E+02
    -20.590  0.0000E+00  0.0000E+00  0.1600E+02  0.1600E+02
    -20.397  0.0000E+00  0.0000E+00  0.1600E+02  0.1600E+02
    -20.204  0.0000E+00  0.0000E+00  0.1600E+02  0.1600E+02
    -20.011  0.0000E+00  0.0000E+00  0.1600E+02  0.1600E+02
    -19.818  0.0000E+00  0.0000E+00  0.1600E+02  0.1600E+02
    -19.626  0.0000E+00  0.0000E+00  0.1600E+02  0.1600E+02
    -19.433  0.0000E+00  0.0000E+00  0.1600E+02  0.1600E+02
    -19.240  0.0000E+00  0.0000E+00  0.1600E+02  0.1600E+02
    -19.047  0.0000E+00  0.0000E+00  0.1600E+02  0.1600E+02
    -18.854  0.0000E+00  0.0000E+00  0.1600E+02  0.1600E+02
    -18.662  0.0000E+00  0.0000E+00  0.1600E+02  0.1600E+02
    -18.469  0.0000E+00  0.0000E+00  0.1600E+02  0.1600E+02
    -18.276  0.0000E+00  0.0000E+00  0.1600E+02  0.1600E+02
    -18.083  0.0000E+00  0.0000E+00  0.1600E+02  0.1600E+02
    -17.890  0.0000E+00  0.0000E+00  0.1600E+02  0.1600E+02
    -17.697  0.0000E+00  0.0000E+00  0.1600E+02  0.1600E+02
    -17.505  0.0000E+00  0.0000E+00  0.1600E+02  0.1600E+02
    -17.312  0.0000E+00  0.0000E+00  0.1600E+02  0.1600E+02
    -17.119  0.0000E+00  0.0000E+00  0.1600E+02  0.1600E+02
    -16.926  0.0000E+00  0.0000E+00  0.1600E+02  0.1600E+02
    -16.733  0.0000E+00  0.0000E+00  0.1600E+02  0.1600E+02
    -16.540  0.0000E+00  0.0000E+00  0.1600E+02  0.1600E+02
    -16.348  0.0000E+00  0.0000E+00  0.1600E+02  0.1600E+02
    -16.155  0.0000E+00  0.0000E+00  0.1600E+02  0.1600E+02
    -15.962  0.0000E+00  0.0000E+00  0.1600E+02  0.1600E+02
    -15.769  0.0000E+00  0.0000E+00  0.1600E+02  0.1600E+02
    -15.576  0.0000E+00  0.0000E+00  0.1600E+02  0.1600E+02
    -15.383  0.0000E+00  0.0000E+00  0.1600E+02  0.1600E+02
    -15.191  0.0000E+00  0.0000E+00  0.1600E+02  0.1600E+02
    -14.998  0.0000E+00  0.0000E+00  0.1600E+02  0.1600E+02
    -14.805  0.0000E+00  0.0000E+00  0.1600E+02  0.1600E+02
    -14.612  0.0000E+00  0.0000E+00  0.1600E+02  0.1600E+02
    -14.419  0.0000E+00  0.0000E+00  0.1600E+02  0.1600E+02
    -14.227  0.0000E+00  0.0000E+00  0.1600E+02  0.1600E+02
    -14.034  0.0000E+00  0.0000E+00  0.1600E+02  0.1600E+02
    -13.841  0.0000E+00  0.0000E+00  0.1600E+02  0.1600E+02
    -13.648  0.0000E+00  0.0000E+00  0.1600E+02  0.1600E+02
    -13.455  0.0000E+00  0.0000E+00  0.1600E+02  0.1600E+02
    -13.262  0.0000E+00  0.0000E+00  0.1600E+02  0.1600E+02
    -13.070  0.0000E+00  0.0000E+00  0.1600E+02  0.1600E+02
    -12.877  0.0000E+00  0.0000E+00  0.1600E+02  0.1600E+02
    -12.684  0.0000E+00  0.0000E+00  0.1600E+02  0.1600E+02
    -12.491  0.0000E+00  0.0000E+00  0.1600E+02  0.1600E+02
    -12.298  0.0000E+00  0.0000E+00  0.1600E+02  0.1600E+02
    -12.105  0.0000E+00  0.0000E+00  0.1600E+02  0.1600E+02
    -11.913  0.0000E+00  0.0000E+00  0.1600E+02  0.1600E+02
    -11.720  0.0000E+00  0.0000E+00  0.1600E+02  0.1600E+02
    -11.527  0.0000E+00  0.0000E+00  0.1600E+02  0.1600E+02
    -11.334  0.0000E+00  0.0000E+00  0.1600E+02  0.1600E+02
    -11.141  0.0000E+00  0.0000E+00  0.1600E+02  0.1600E+02
    -10.949  0.0000E+00  0.0000E+00  0.1600E+02  0.1600E+02
    -10.756  0.0000E+00  0.0000E+00  0.1600E+02  0.1600E+02
    -10.563  0.0000E+00  0.0000E+00  0.1600E+02  0.1600E+02
    -10.370  0.0000E+00  0.0000E+00  0.1600E+02  0.1600E+02
    -10.177  0.0000E+00  0.0000E+00  0.1600E+02  0.1600E+02
     -9.984  0.0000E+00  0.0000E+00  0.1600E+02  0.1600E+02
     -9.792  0.0000E+00  0.0000E+00  0.1600E+02  0.1600E+02
     -9.599  0.0000E+00  0.0000E+00  0.1600E+02  0.1600E+02
     -9.406  0.0000E+00  0.0000E+00  0.1600E+02  0.1600E+02
     -9.213  0.0000E+00  0.0000E+00  0.1600E+02  0.1600E+02
     -9.020  0.0000E+00  0.0000E+00  0.1600E+02  0.1600E+02
     -8.827  0.0000E+00  0.0000E+00  0.1600E+02  0.1600E+02
     -8.635  0.0000E+00  0.0000E+00  0.1600E+02  0.1600E+02
     -8.442  0.0000E+00  0.0000E+00  0.1600E+02  0.1600E+02
     -8.249  0.0000E+00  0.0000E+00  0.1600E+02  0.1600E+02
     -8.056  0.0000E+00  0.0000E+00  0.1600E+02  0.1600E+02
     -7.863  0.0000E+00  0.0000E+00  0.1600E+02  0.1600E+02
     -7.670  0.0000E+00  0.0000E+00  0.1600E+02  0.1600E+02
     -7.478  0.0000E+00  0.0000E+00  0.1600E+02  0.1600E+02
     -7.285  0.0000E+00  0.0000E+00  0.1600E+02  0.1600E+02
     -7.092  0.0000E+00  0.0000E+00  0.1600E+02  0.1600E+02
     -6.899  0.0000E+00  0.0000E+00  0.1600E+02  0.1600E+02
     -6.706  0.0000E+00  0.0000E+00  0.1600E+02  0.1600E+02
     -6.514  0.0000E+00  0.0000E+00  0.1600E+02  0.1600E+02
     -6.321  0.0000E+00  0.0000E+00  0.1600E+02  0.1600E+02
     -6.128  0.0000E+00  0.0000E+00  0.1600E+02  0.1600E+02
     -5.935  0.0000E+00  0.0000E+00  0.1600E+02  0.1600E+02
     -5.742  0.0000E+00  0.0000E+00  0.1600E+02  0.1600E+02
     -5.549  0.0000E+00  0.0000E+00  0.1600E+02  0.1600E+02
     -5.357  0.0000E+00  0.0000E+00  0.1600E+02  0.1600E+02
     -5.164  0.0000E+00  0.0000E+00  0.1600E+02  0.1600E+02
     -4.971  0.0000E+00  0.0000E+00  0.1600E+02  0.1600E+02
     -4.778  0.0000E+00  0.0000E+00  0.1600E+02  0.1600E+02
     -4.585  0.0000E+00  0.0000E+00  0.1600E+02  0.1600E+02
     -4.392  0.0000E+00  0.0000E+00  0.1600E+02  0.1600E+02
     -4.200  0.0000E+00  0.0000E+00  0.1600E+02  0.1600E+02
     -4.007  0.0000E+00  0.0000E+00  0.1600E+02  0.1600E+02
     -3.814  0.0000E+00  0.0000E+00  0.1600E+02  0.1600E+02
     -3.621  0.5613E-05  0.5591E-05  0.1600E+02  0.1600E+02
     -3.428  0.2953E-03  0.2941E-03  0.1600E+02  0.1600E+02
     -3.235  0.1276E-01  0.1272E-01  0.1600E+02  0.1600E+02
     -3.043  0.1835E+00  0.1833E+00  0.1604E+02  0.1604E+02
     -2.850  0.4920E+00  0.4917E+00  0.1613E+02  0.1613E+02
     -2.657  0.6706E+00  0.6704E+00  0.1626E+02  0.1626E+02
     -2.464  0.8339E+00  0.8338E+00  0.1642E+02  0.1642E+02
     -2.271  0.9422E+00  0.9420E+00  0.1661E+02  0.1661E+02
     -2.079  0.1170E+01  0.1170E+01  0.1683E+02  0.1683E+02
     -1.886  0.1131E+01  0.1130E+01  0.1705E+02  0.1705E+02
     -1.693  0.1510E+01  0.1510E+01  0.1734E+02  0.1734E+02
     -1.500  0.1461E+01  0.1461E+01  0.1763E+02  0.1763E+02
     -1.307  0.1701E+01  0.1701E+01  0.1796E+02  0.1796E+02
     -1.114  0.1768E+01  0.1768E+01  0.1830E+02  0.1830E+02
     -0.922  0.1577E+01  0.1577E+01  0.1860E+02  0.1860E+02
     -0.729  0.1497E+01  0.1497E+01  0.1889E+02  0.1889E+02
     -0.536  0.1593E+01  0.1593E+01  0.1920E+02  0.1920E+02
     -0.343  0.1722E+01  0.1721E+01  0.1954E+02  0.1954E+02
     -0.150  0.1866E+01  0.1866E+01  0.1990E+02  0.1990E+02
      0.043  0.1903E+01  0.1903E+01  0.2027E+02  0.2027E+02
      0.235  0.2361E+01  0.2361E+01  0.2072E+02  0.2072E+02
      0.428  0.2356E+01  0.2356E+01  0.2118E+02  0.2118E+02
      0.621  0.2200E+01  0.2200E+01  0.2161E+02  0.2161E+02
      0.814  0.2174E+01  0.2174E+01  0.2203E+02  0.2203E+02
      1.007  0.1893E+01  0.1893E+01  0.2239E+02  0.2239E+02
      1.199  0.2470E+01  0.2468E+01  0.2287E+02  0.2287E+02
      1.392  0.2421E+01  0.2421E+01  0.2334E+02  0.2334E+02
      1.585  0.2493E+01  0.2492E+01  0.2382E+02  0.2382E+02
      1.778  0.2826E+01  0.2826E+01  0.2437E+02  0.2437E+02
      1.971  0.3261E+01  0.3260E+01  0.2500E+02  0.2500E+02
      2.164  0.2741E+01  0.2743E+01  0.2553E+02  0.2553E+02
      2.356  0.1989E+01  0.1988E+01  0.2592E+02  0.2592E+02
      2.549  0.2131E+01  0.2130E+01  0.2633E+02  0.2633E+02
      2.742  0.2514E+01  0.2513E+01  0.2682E+02  0.2682E+02
      2.935  0.2872E+01  0.2873E+01  0.2737E+02  0.2737E+02
      3.128  0.2446E+01  0.2445E+01  0.2784E+02  0.2784E+02
      3.321  0.3449E+01  0.3448E+01  0.2851E+02  0.2851E+02
      3.513  0.3391E+01  0.3390E+01  0.2917E+02  0.2917E+02
      3.706  0.3851E+01  0.3851E+01  0.2991E+02  0.2991E+02
      3.899  0.3600E+01  0.3599E+01  0.3061E+02  0.3061E+02
      4.092  0.4418E+01  0.4417E+01  0.3146E+02  0.3146E+02
      4.285  0.4265E+01  0.4265E+01  0.3229E+02  0.3229E+02
      4.478  0.3677E+01  0.3678E+01  0.3300E+02  0.3300E+02
      4.670  0.4139E+01  0.4137E+01  0.3380E+02  0.3380E+02
      4.863  0.4543E+01  0.4542E+01  0.3468E+02  0.3468E+02
      5.056  0.5369E+01  0.5367E+01  0.3572E+02  0.3572E+02
      5.249  0.5442E+01  0.5442E+01  0.3677E+02  0.3677E+02
      5.442  0.5002E+01  0.5004E+01  0.3774E+02  0.3774E+02
      5.634  0.4661E+01  0.4659E+01  0.3865E+02  0.3864E+02
      5.827  0.4717E+01  0.4719E+01  0.3956E+02  0.3956E+02
      6.020  0.3676E+01  0.3676E+01  0.4027E+02  0.4027E+02
      6.213  0.3318E+01  0.3321E+01  0.4091E+02  0.4091E+02
      6.406  0.2423E+01  0.2424E+01  0.4138E+02  0.4138E+02
      6.599  0.2570E+01  0.2571E+01  0.4188E+02  0.4188E+02
      6.791  0.2718E+01  0.2717E+01  0.4241E+02  0.4241E+02
      6.984  0.3576E+01  0.3574E+01  0.4310E+02  0.4310E+02
      7.177  0.3790E+01  0.3791E+01  0.4383E+02  0.4383E+02
      7.370  0.4775E+01  0.4771E+01  0.4476E+02  0.4475E+02
      7.563  0.5680E+01  0.5675E+01  0.4585E+02  0.4585E+02
      7.756  0.6298E+01  0.6308E+01  0.4707E+02  0.4707E+02
      7.948  0.6687E+01  0.6743E+01  0.4837E+02  0.4837E+02
      8.141  0.8426E+01  0.8516E+01  0.5000E+02  0.5002E+02
      8.334  0.7976E+01  0.8255E+01  0.5154E+02  0.5162E+02
      8.527  0.7572E+01  0.7797E+01  0.5300E+02  0.5313E+02
      8.720  0.6183E+01  0.6233E+01  0.5420E+02  0.5434E+02
      8.912  0.4809E+01  0.4171E+01  0.5514E+02  0.5515E+02
      9.105  0.2823E+01  0.3071E+01  0.5569E+02  0.5575E+02
      9.298  0.1247E+01  0.1157E+01  0.5593E+02  0.5597E+02
      9.491  0.3250E+00  0.1309E+00  0.5600E+02  0.5600E+02
      9.684  0.1502E-01  0.1800E-02  0.5600E+02  0.5600E+02
      9.877  0.0000E+00  0.0000E+00  0.5600E+02  0.5600E+02
     10.069  0.0000E+00  0.0000E+00  0.5600E+02  0.5600E+02
     10.262  0.0000E+00  0.0000E+00  0.5600E+02  0.5600E+02
     10.455  0.0000E+00  0.0000E+00  0.5600E+02  0.5600E+02
     10.648  0.0000E+00  0.0000E+00  0.5600E+02  0.5600E+02
     10.841  0.0000E+00  0.0000E+00  0.5600E+02  0.5600E+02
     11.034  0.0000E+00  0.0000E+00  0.5600E+02  0.5600E+02
     11.226  0.0000E+00  0.0000E+00  0.5600E+02  0.5600E+02
     11.419  0.0000E+00  0.0000E+00  0.5600E+02  0.5600E+02
     11.612  0.0000E+00  0.0000E+00  0.5600E+02  0.5600E+02
     11.805  0.0000E+00  0.0000E+00  0.5600E+02  0.5600E+02
     11.998  0.0000E+00  0.0000E+00  0.5600E+02  0.5600E+02
     11.99770425    -45.84987736  301      5.94387115      1.00000000
    -45.850  0.0000E+00  0.0000E+00  0.0000E+00  0.0000E+00  0.0000E+00  0.0000E+00  0.0000E+00  0.0000E+00  0.0000E+00  0.0000E+00  0.0000E+00  0.0000E+00  0.0000E+00  0.0000E+00  0.0000E+00  0.0000E+00  0.0000E+00  0.0000E+00
    -45.657  0.0000E+00  0.0000E+00  0.0000E+00  0.0000E+00  0.0000E+00  0.0000E+00  0.0000E+00  0.0000E+00  0.0000E+00  0.0000E+00  0.0000E+00  0.0000E+00  0.0000E+00  0.0000E+00  0.0000E+00  0.0000E+00  0.0000E+00  0.0000E+00
    -45.464  0.0000E+00  0.0000E+00  0.0000E+00  0.0000E+00  0.0000E+00  0.0000E+00  0.0000E+00  0.0000E+00  0.0000E+00  0.0000E+00  0.0000E+00  0.0000E+00  0.0000E+00  0.0000E+00  0.0000E+00  0.0000E+00  0.0000E+00  0.0000E+00
    -45.271  0.0000E+00  0.0000E+00  0.0000E+00  0.0000E+00  0.0000E+00  0.0000E+00  0.0000E+00  0.0000E+00  0.0000E+00  0.0000E+00  0.0000E+00  0.0000E+00  0.0000E+00  0.0000E+00  0.0000E+00  0.0000E+00  0.0000E+00  0.0000E+00
    -45.079  0.0000E+00  0.0000E+00  0.0000E+00  0.0000E+00  0.0000E+00  0.0000E+00  0.0000E+00  0.0000E+00  0.0000E+00  0.0000E+00  0.0000E+00  0.0000E+00  0.0000E+00  0.0000E+00  0.0000E+00  0.0000E+00  0.0000E+00  0.0000E+00
    -44.886  0.0000E+00  0.0000E+00  0.0000E+00  0.0000E+00  0.0000E+00  0.0000E+00  0.0000E+00  0.0000E+00  0.0000E+00  0.0000E+00  0.0000E+00  0.0000E+00  0.0000E+00  0.0000E+00  0.0000E+00  0.0000E+00  0.0000E+00  0.0000E+00
    -44.693  0.0000E+00  0.0000E+00  0.0000E+00  0.0000E+00  0.0000E+00  0.0000E+00  0.0000E+00  0.0000E+00  0.0000E+00  0.0000E+00  0.0000E+00  0.0000E+00  0.0000E+00  0.0000E+00  0.0000E+00  0.0000E+00  0.0000E+00  0.0000E+00
    -44.500  0.0000E+00  0.0000E+00  0.0000E+00  0.0000E+00  0.0000E+00  0.0000E+00  0.0000E+00  0.0000E+00  0.0000E+00  0.0000E+00  0.0000E+00  0.0000E+00  0.0000E+00  0.0000E+00  0.0000E+00  0.0000E+00  0.0000E+00  0.0000E+00
    -44.307  0.0000E+00  0.0000E+00  0.0000E+00  0.0000E+00  0.0000E+00  0.0000E+00  0.0000E+00  0.0000E+00  0.0000E+00  0.0000E+00  0.0000E+00  0.0000E+00  0.0000E+00  0.0000E+00  0.0000E+00  0.0000E+00  0.0000E+00  0.0000E+00
    -44.114  0.0000E+00  0.0000E+00  0.0000E+00  0.0000E+00  0.0000E+00  0.0000E+00  0.0000E+00  0.0000E+00  0.0000E+00  0.0000E+00  0.0000E+00  0.0000E+00  0.0000E+00  0.0000E+00  0.0000E+00  0.0000E+00  0.0000E+00  0.0000E+00
    -43.922  0.0000E+00  0.0000E+00  0.0000E+00  0.0000E+00  0.0000E+00  0.0000E+00  0.0000E+00  0.0000E+00  0.0000E+00  0.0000E+00  0.0000E+00  0.0000E+00  0.0000E+00  0.0000E+00  0.0000E+00  0.0000E+00  0.0000E+00  0.0000E+00
    -43.729  0.1944E-03  0.1929E-03  0.2592E-12  0.2574E-12  0.1803E-09  0.1886E-09  0.2592E-12  0.2574E-12  0.2661E-13  0.3410E-13  0.2956E-13  0.2620E-13  0.6737E-11  0.6705E-11  0.2956E-13  0.2620E-13  0.2482E-12  0.2604E-12
    -43.536  0.8983E-02  0.8915E-02  0.1198E-10  0.1190E-10  0.8334E-08  0.8715E-08  0.1198E-10  0.1190E-10  0.1230E-11  0.1576E-11  0.1366E-11  0.1211E-11  0.3113E-09  0.3099E-09  0.1366E-11  0.1211E-11  0.1147E-10  0.1203E-10
    -43.343  0.3919E+00  0.3892E+00  0.5226E-09  0.5193E-09  0.3636E-06  0.3805E-06  0.5226E-09  0.5193E-09  0.5366E-10  0.6880E-10  0.5962E-10  0.5286E-10  0.1358E-07  0.1353E-07  0.5962E-10  0.5286E-10  0.5005E-09  0.5254E-09
    -43.150  0.3728E+01  0.3724E+01  0.4970E-08  0.4969E-08  0.3458E-05  0.3640E-05  0.4970E-08  0.4969E-08  0.5111E-09  0.6586E-09  0.5681E-09  0.5056E-09  0.1291E-06  0.1293E-06  0.5681E-09  0.5056E-09  0.4763E-08  0.5029E-08
    -42.957  0.1010E+01  0.1016E+01  0.1346E-08  0.1355E-08  0.9365E-06  0.9929E-06  0.1346E-08  0.1355E-08  0.1387E-09  0.1797E-09  0.1542E-09  0.1378E-09  0.3491E-07  0.3524E-07  0.1542E-09  0.1378E-09  0.1291E-08  0.1372E-08
    -42.765  0.0000E+00  0.0000E+00  0.0000E+00  0.0000E+00  0.0000E+00  0.0000E+00  0.0000E+00  0.0000E+00  0.0000E+00  0.0000E+00  0.0000E+00  0.0000E+00  0.0000E+00  0.0000E+00  0.0000E+00  0.0000E+00  0.0000E+00  0.0000E+00
    -42.572  0.0000E+00  0.0000E+00  0.0000E+00  0.0000E+00  0.0000E+00  0.0000E+00  0.0000E+00  0.0000E+00  0.0000E+00  0.0000E+00  0.0000E+00  0.0000E+00  0.0000E+00  0.0000E+00  0.0000E+00  0.0000E+00  0.0000E+00  0.0000E+00
    -42.379  0.0000E+00  0.0000E+00  0.0000E+00  0.0000E+00  0.0000E+00  0.0000E+00  0.0000E+00  0.0000E+00  0.0000E+00  0.0000E+00  0.0000E+00  0.0000E+00  0.0000E+00  0.0000E+00  0.0000E+00  0.0000E+00  0.0000E+00  0.0000E+00
    -42.186  0.0000E+00  0.0000E+00  0.0000E+00  0.0000E+00  0.0000E+00  0.0000E+00  0.0000E+00  0.0000E+00  0.0000E+00  0.0000E+00  0.0000E+00  0.0000E+00  0.0000E+00  0.0000E+00  0.0000E+00  0.0000E+00  0.0000E+00  0.0000E+00
    -41.993  0.0000E+00  0.0000E+00  0.0000E+00  0.0000E+00  0.0000E+00  0.0000E+00  0.0000E+00  0.0000E+00  0.0000E+00  0.0000E+00  0.0000E+00  0.0000E+00  0.0000E+00  0.0000E+00  0.0000E+00  0.0000E+00  0.0000E+00  0.0000E+00
    -41.801  0.0000E+00  0.0000E+00  0.0000E+00  0.0000E+00  0.0000E+00  0.0000E+00  0.0000E+00  0.0000E+00  0.0000E+00  0.0000E+00  0.0000E+00  0.0000E+00  0.0000E+00  0.0000E+00  0.0000E+00  0.0000E+00  0.0000E+00  0.0000E+00
    -41.608  0.0000E+00  0.0000E+00  0.0000E+00  0.0000E+00  0.0000E+00  0.0000E+00  0.0000E+00  0.0000E+00  0.0000E+00  0.0000E+00  0.0000E+00  0.0000E+00  0.0000E+00  0.0000E+00  0.0000E+00  0.0000E+00  0.0000E+00  0.0000E+00
    -41.415  0.0000E+00  0.0000E+00  0.0000E+00  0.0000E+00  0.0000E+00  0.0000E+00  0.0000E+00  0.0000E+00  0.0000E+00  0.0000E+00  0.0000E+00  0.0000E+00  0.0000E+00  0.0000E+00  0.0000E+00  0.0000E+00  0.0000E+00  0.0000E+00
    -41.222  0.0000E+00  0.0000E+00  0.0000E+00  0.0000E+00  0.0000E+00  0.0000E+00  0.0000E+00  0.0000E+00  0.0000E+00  0.0000E+00  0.0000E+00  0.0000E+00  0.0000E+00  0.0000E+00  0.0000E+00  0.0000E+00  0.0000E+00  0.0000E+00
    -41.029  0.0000E+00  0.0000E+00  0.0000E+00  0.0000E+00  0.0000E+00  0.0000E+00  0.0000E+00  0.0000E+00  0.0000E+00  0.0000E+00  0.0000E+00  0.0000E+00  0.0000E+00  0.0000E+00  0.0000E+00  0.0000E+00  0.0000E+00  0.0000E+00
    -40.836  0.0000E+00  0.0000E+00  0.0000E+00  0.0000E+00  0.0000E+00  0.0000E+00  0.0000E+00  0.0000E+00  0.0000E+00  0.0000E+00  0.0000E+00  0.0000E+00  0.0000E+00  0.0000E+00  0.0000E+00  0.0000E+00  0.0000E+00  0.0000E+00
    -40.644  0.0000E+00  0.0000E+00  0.0000E+00  0.0000E+00  0.0000E+00  0.0000E+00  0.0000E+00  0.0000E+00  0.0000E+00  0.0000E+00  0.0000E+00  0.0000E+00  0.0000E+00  0.0000E+00  0.0000E+00  0.0000E+00  0.0000E+00  0.0000E+00
    -40.451  0.0000E+00  0.0000E+00  0.0000E+00  0.0000E+00  0.0000E+00  0.0000E+00  0.0000E+00  0.0000E+00  0.0000E+00  0.0000E+00  0.0000E+00  0.0000E+00  0.0000E+00  0.0000E+00  0.0000E+00  0.0000E+00  0.0000E+00  0.0000E+00
    -40.258  0.0000E+00  0.0000E+00  0.0000E+00  0.0000E+00  0.0000E+00  0.0000E+00  0.0000E+00  0.0000E+00  0.0000E+00  0.0000E+00  0.0000E+00  0.0000E+00  0.0000E+00  0.0000E+00  0.0000E+00  0.0000E+00  0.0000E+00  0.0000E+00
    -40.065  0.0000E+00  0.0000E+00  0.0000E+00  0.0000E+00  0.0000E+00  0.0000E+00  0.0000E+00  0.0000E+00  0.0000E+00  0.0000E+00  0.0000E+00  0.0000E+00  0.0000E+00  0.0000E+00  0.0000E+00  0.0000E+00  0.0000E+00  0.0000E+00
    -39.872  0.0000E+00  0.0000E+00  0.0000E+00  0.0000E+00  0.0000E+00  0.0000E+00  0.0000E+00  0.0000E+00  0.0000E+00  0.0000E+00  0.0000E+00  0.0000E+00  0.0000E+00  0.0000E+00  0.0000E+00  0.0000E+00  0.0000E+00  0.0000E+00
    -39.679  0.0000E+00  0.0000E+00  0.0000E+00  0.0000E+00  0.0000E+00  0.0000E+00  0.0000E+00  0.0000E+00  0.0000E+00  0.0000E+00  0.0000E+00  0.0000E+00  0.0000E+00  0.0000E+00  0.0000E+00  0.0000E+00  0.0000E+00  0.0000E+00
    -39.487  0.0000E+00  0.0000E+00  0.0000E+00  0.0000E+00  0.0000E+00  0.0000E+00  0.0000E+00  0.0000E+00  0.0000E+00  0.0000E+00  0.0000E+00  0.0000E+00  0.0000E+00  0.0000E+00  0.0000E+00  0.0000E+00  0.0000E+00  0.0000E+00
    -39.294  0.0000E+00  0.0000E+00  0.0000E+00  0.0000E+00  0.0000E+00  0.0000E+00  0.0000E+00  0.0000E+00  0.0000E+00  0.0000E+00  0.0000E+00  0.0000E+00  0.0000E+00  0.0000E+00  0.0000E+00  0.0000E+00  0.0000E+00  0.0000E+00
    -39.101  0.0000E+00  0.0000E+00  0.0000E+00  0.0000E+00  0.0000E+00  0.0000E+00  0.0000E+00  0.0000E+00  0.0000E+00  0.0000E+00  0.0000E+00  0.0000E+00  0.0000E+00  0.0000E+00  0.0000E+00  0.0000E+00  0.0000E+00  0.0000E+00
    -38.908  0.0000E+00  0.0000E+00  0.0000E+00  0.0000E+00  0.0000E+00  0.0000E+00  0.0000E+00  0.0000E+00  0.0000E+00  0.0000E+00  0.0000E+00  0.0000E+00  0.0000E+00  0.0000E+00  0.0000E+00  0.0000E+00  0.0000E+00  0.0000E+00
    -38.715  0.0000E+00  0.0000E+00  0.0000E+00  0.0000E+00  0.0000E+00  0.0000E+00  0.0000E+00  0.0000E+00  0.0000E+00  0.0000E+00  0.0000E+00  0.0000E+00  0.0000E+00  0.0000E+00  0.0000E+00  0.0000E+00  0.0000E+00  0.0000E+00
    -38.523  0.0000E+00  0.0000E+00  0.0000E+00  0.0000E+00  0.0000E+00  0.0000E+00  0.0000E+00  0.0000E+00  0.0000E+00  0.0000E+00  0.0000E+00  0.0000E+00  0.0000E+00  0.0000E+00  0.0000E+00  0.0000E+00  0.0000E+00  0.0000E+00
    -38.330  0.0000E+00  0.0000E+00  0.0000E+00  0.0000E+00  0.0000E+00  0.0000E+00  0.0000E+00  0.0000E+00  0.0000E+00  0.0000E+00  0.0000E+00  0.0000E+00  0.0000E+00  0.0000E+00  0.0000E+00  0.0000E+00  0.0000E+00  0.0000E+00
    -38.137  0.0000E+00  0.0000E+00  0.0000E+00  0.0000E+00  0.0000E+00  0.0000E+00  0.0000E+00  0.0000E+00  0.0000E+00  0.0000E+00  0.0000E+00  0.0000E+00  0.0000E+00  0.0000E+00  0.0000E+00  0.0000E+00  0.0000E+00  0.0000E+00
    -37.944  0.0000E+00  0.0000E+00  0.0000E+00  0.0000E+00  0.0000E+00  0.0000E+00  0.0000E+00  0.0000E+00  0.0000E+00  0.0000E+00  0.0000E+00  0.0000E+00  0.0000E+00  0.0000E+00  0.0000E+00  0.0000E+00  0.0000E+00  0.0000E+00
    -37.751  0.0000E+00  0.0000E+00  0.0000E+00  0.0000E+00  0.0000E+00  0.0000E+00  0.0000E+00  0.0000E+00  0.0000E+00  0.0000E+00  0.0000E+00  0.0000E+00  0.0000E+00  0.0000E+00  0.0000E+00  0.0000E+00  0.0000E+00  0.0000E+00
    -37.558  0.0000E+00  0.0000E+00  0.0000E+00  0.0000E+00  0.0000E+00  0.0000E+00  0.0000E+00  0.0000E+00  0.0000E+00  0.0000E+00  0.0000E+00  0.0000E+00  0.0000E+00  0.0000E+00  0.0000E+00  0.0000E+00  0.0000E+00  0.0000E+00
    -37.366  0.0000E+00  0.0000E+00  0.0000E+00  0.0000E+00  0.0000E+00  0.0000E+00  0.0000E+00  0.0000E+00  0.0000E+00  0.0000E+00  0.0000E+00  0.0000E+00  0.0000E+00  0.0000E+00  0.0000E+00  0.0000E+00  0.0000E+00  0.0000E+00
    -37.173  0.0000E+00  0.0000E+00  0.0000E+00  0.0000E+00  0.0000E+00  0.0000E+00  0.0000E+00  0.0000E+00  0.0000E+00  0.0000E+00  0.0000E+00  0.0000E+00  0.0000E+00  0.0000E+00  0.0000E+00  0.0000E+00  0.0000E+00  0.0000E+00
    -36.980  0.0000E+00  0.0000E+00  0.0000E+00  0.0000E+00  0.0000E+00  0.0000E+00  0.0000E+00  0.0000E+00  0.0000E+00  0.0000E+00  0.0000E+00  0.0000E+00  0.0000E+00  0.0000E+00  0.0000E+00  0.0000E+00  0.0000E+00  0.0000E+00
    -36.787  0.0000E+00  0.0000E+00  0.0000E+00  0.0000E+00  0.0000E+00  0.0000E+00  0.0000E+00  0.0000E+00  0.0000E+00  0.0000E+00  0.0000E+00  0.0000E+00  0.0000E+00  0.0000E+00  0.0000E+00  0.0000E+00  0.0000E+00  0.0000E+00
    -36.594  0.0000E+00  0.0000E+00  0.0000E+00  0.0000E+00  0.0000E+00  0.0000E+00  0.0000E+00  0.0000E+00  0.0000E+00  0.0000E+00  0.0000E+00  0.0000E+00  0.0000E+00  0.0000E+00  0.0000E+00  0.0000E+00  0.0000E+00  0.0000E+00
    -36.401  0.0000E+00  0.0000E+00  0.0000E+00  0.0000E+00  0.0000E+00  0.0000E+00  0.0000E+00  0.0000E+00  0.0000E+00  0.0000E+00  0.0000E+00  0.0000E+00  0.0000E+00  0.0000E+00  0.0000E+00  0.0000E+00  0.0000E+00  0.0000E+00
    -36.209  0.0000E+00  0.0000E+00  0.0000E+00  0.0000E+00  0.0000E+00  0.0000E+00  0.0000E+00  0.0000E+00  0.0000E+00  0.0000E+00  0.0000E+00  0.0000E+00  0.0000E+00  0.0000E+00  0.0000E+00  0.0000E+00  0.0000E+00  0.0000E+00