  16  16   1   0
  0.1371067E+02  0.3719414E-09  0.3719414E-09  0.1585732E-08  0.5000000E-15
  1.000000000000000E-004
  CAR 
 unknown system                          
     16.45972271    -41.49008722  301      9.04347667      1.00000000
    -41.490  0.0000E+00  0.0000E+00  0.0000E+00  0.0000E+00
    -41.297  0.0000E+00  0.0000E+00  0.0000E+00  0.0000E+00
    -41.104  0.0000E+00  0.0000E+00  0.0000E+00  0.0000E+00
    -40.911  0.0000E+00  0.0000E+00  0.0000E+00  0.0000E+00
    -40.717  0.0000E+00  0.0000E+00  0.0000E+00  0.0000E+00
    -40.524  0.0000E+00  0.0000E+00  0.0000E+00  0.0000E+00
    -40.331  0.0000E+00  0.0000E+00  0.0000E+00  0.0000E+00
    -40.138  0.0000E+00  0.0000E+00  0.0000E+00  0.0000E+00
    -39.945  0.0000E+00  0.0000E+00  0.0000E+00  0.0000E+00
    -39.752  0.0000E+00  0.0000E+00  0.0000E+00  0.0000E+00
    -39.558  0.0000E+00  0.0000E+00  0.0000E+00  0.0000E+00
    -39.365  0.6783E-03  0.6811E-03  0.1310E-03  0.1316E-03
    -39.172  0.3157E-01  0.3171E-01  0.6230E-02  0.6256E-02
    -38.979  0.1399E+01  0.1405E+01  0.2765E+00  0.2776E+00
    -38.786  0.1470E+02  0.1471E+02  0.3117E+01  0.3120E+01
    -38.593  0.4450E+01  0.4436E+01  0.3976E+01  0.3976E+01
    -38.399  0.0000E+00  0.0000E+00  0.4000E+01  0.4000E+01
    -38.206  0.0000E+00  0.0000E+00  0.4000E+01  0.4000E+01
    -38.013  0.0000E+00  0.0000E+00  0.4000E+01  0.4000E+01
    -37.820  0.0000E+00  0.0000E+00  0.4000E+01  0.4000E+01
    -37.627  0.0000E+00  0.0000E+00  0.4000E+01  0.4000E+01
    -37.434  0.0000E+00  0.0000E+00  0.4000E+01  0.4000E+01
    -37.240  0.0000E+00  0.0000E+00  0.4000E+01  0.4000E+01
    -37.047  0.0000E+00  0.0000E+00  0.4000E+01  0.4000E+01
    -36.854  0.0000E+00  0.0000E+00  0.4000E+01  0.4000E+01
    -36.661  0.0000E+00  0.0000E+00  0.4000E+01  0.4000E+01
    -36.468  0.0000E+00  0.0000E+00  0.4000E+01  0.4000E+01
    -36.275  0.0000E+00  0.0000E+00  0.4000E+01  0.4000E+01
    -36.081  0.0000E+00  0.0000E+00  0.4000E+01  0.4000E+01
    -35.888  0.0000E+00  0.0000E+00  0.4000E+01  0.4000E+01
    -35.695  0.0000E+00  0.0000E+00  0.4000E+01  0.4000E+01
    -35.502  0.0000E+00  0.0000E+00  0.4000E+01  0.4000E+01
    -35.309  0.0000E+00  0.0000E+00  0.4000E+01  0.4000E+01
    -35.116  0.0000E+00  0.0000E+00  0.4000E+01  0.4000E+01
    -34.922  0.0000E+00  0.0000E+00  0.4000E+01  0.4000E+01
    -34.729  0.0000E+00  0.0000E+00  0.4000E+01  0.4000E+01
    -34.536  0.0000E+00  0.0000E+00  0.4000E+01  0.4000E+01
    -34.343  0.0000E+00  0.0000E+00  0.4000E+01  0.4000E+01
    -34.150  0.0000E+00  0.0000E+00  0.4000E+01  0.4000E+01
    -33.957  0.0000E+00  0.0000E+00  0.4000E+01  0.4000E+01
    -33.763  0.0000E+00  0.0000E+00  0.4000E+01  0.4000E+01
    -33.570  0.0000E+00  0.0000E+00  0.4000E+01  0.4000E+01
    -33.377  0.0000E+00  0.0000E+00  0.4000E+01  0.4000E+01
    -33.184  0.0000E+00  0.0000E+00  0.4000E+01  0.4000E+01
    -32.991  0.0000E+00  0.0000E+00  0.4000E+01  0.4000E+01
    -32.798  0.0000E+00  0.0000E+00  0.4000E+01  0.4000E+01
    -32.604  0.0000E+00  0.0000E+00  0.4000E+01  0.4000E+01
    -32.411  0.0000E+00  0.0000E+00  0.4000E+01  0.4000E+01
    -32.218  0.0000E+00  0.0000E+00  0.4000E+01  0.4000E+01
    -32.025  0.0000E+00  0.0000E+00  0.4000E+01  0.4000E+01
    -31.832  0.0000E+00  0.0000E+00  0.4000E+01  0.4000E+01
    -31.639  0.0000E+00  0.0000E+00  0.4000E+01  0.4000E+01
    -31.445  0.0000E+00  0.0000E+00  0.4000E+01  0.4000E+01
    -31.252  0.0000E+00  0.0000E+00  0.4000E+01  0.4000E+01
    -31.059  0.0000E+00  0.0000E+00  0.4000E+01  0.4000E+01
    -30.866  0.0000E+00  0.0000E+00  0.4000E+01  0.4000E+01
    -30.673  0.0000E+00  0.0000E+00  0.4000E+01  0.4000E+01
    -30.480  0.0000E+00  0.0000E+00  0.4000E+01  0.4000E+01
    -30.286  0.0000E+00  0.0000E+00  0.4000E+01  0.4000E+01
    -30.093  0.0000E+00  0.0000E+00  0.4000E+01  0.4000E+01
    -29.900  0.0000E+00  0.0000E+00  0.4000E+01  0.4000E+01
    -29.707  0.0000E+00  0.0000E+00  0.4000E+01  0.4000E+01
    -29.514  0.0000E+00  0.0000E+00  0.4000E+01  0.4000E+01
    -29.321  0.0000E+00  0.0000E+00  0.4000E+01  0.4000E+01
    -29.127  0.0000E+00  0.0000E+00  0.4000E+01  0.4000E+01
    -28.934  0.0000E+00  0.0000E+00  0.4000E+01  0.4000E+01
    -28.741  0.0000E+00  0.0000E+00  0.4000E+01  0.4000E+01
    -28.548  0.0000E+00  0.0000E+00  0.4000E+01  0.4000E+01
    -28.355  0.0000E+00  0.0000E+00  0.4000E+01  0.4000E+01
    -28.162  0.0000E+00  0.0000E+00  0.4000E+01  0.4000E+01
    -27.968  0.0000E+00  0.0000E+00  0.4000E+01  0.4000E+01
    -27.775  0.0000E+00  0.0000E+00  0.4000E+01  0.4000E+01
    -27.582  0.0000E+00  0.0000E+00  0.4000E+01  0.4000E+01
    -27.389  0.0000E+00  0.0000E+00  0.4000E+01  0.4000E+01
    -27.196  0.0000E+00  0.0000E+00  0.4000E+01  0.4000E+01
    -27.003  0.0000E+00  0.0000E+00  0.4000E+01  0.4000E+01
    -26.809  0.0000E+00  0.0000E+00  0.4000E+01  0.4000E+01
    -26.616  0.0000E+00  0.0000E+00  0.4000E+01  0.4000E+01
    -26.423  0.0000E+00  0.0000E+00  0.4000E+01  0.4000E+01
    -26.230  0.0000E+00  0.0000E+00  0.4000E+01  0.4000E+01
    -26.037  0.0000E+00  0.0000E+00  0.4000E+01  0.4000E+01
    -25.844  0.0000E+00  0.0000E+00  0.4000E+01  0.4000E+01
    -25.650  0.0000E+00  0.0000E+00  0.4000E+01  0.4000E+01
    -25.457  0.0000E+00  0.0000E+00  0.4000E+01  0.4000E+01
    -25.264  0.0000E+00  0.0000E+00  0.4000E+01  0.4000E+01
    -25.071  0.0000E+00  0.0000E+00  0.4000E+01  0.4000E+01
    -24.878  0.0000E+00  0.0000E+00  0.4000E+01  0.4000E+01
    -24.685  0.0000E+00  0.0000E+00  0.4000E+01  0.4000E+01
    -24.491  0.0000E+00  0.0000E+00  0.4000E+01  0.4000E+01
    -24.298  0.0000E+00  0.0000E+00  0.4000E+01  0.4000E+01
    -24.105  0.0000E+00  0.0000E+00  0.4000E+01  0.4000E+01
    -23.912  0.0000E+00  0.0000E+00  0.4000E+01  0.4000E+01
    -23.719  0.0000E+00  0.0000E+00  0.4000E+01  0.4000E+01
    -23.526  0.0000E+00  0.0000E+00  0.4000E+01  0.4000E+01
    -23.332  0.0000E+00  0.0000E+00  0.4000E+01  0.4000E+01
    -23.139  0.0000E+00  0.0000E+00  0.4000E+01  0.4000E+01
    -22.946  0.0000E+00  0.0000E+00  0.4000E+01  0.4000E+01
    -22.753  0.0000E+00  0.0000E+00  0.4000E+01  0.4000E+01
    -22.560  0.0000E+00  0.0000E+00  0.4000E+01  0.4000E+01
    -22.367  0.0000E+00  0.0000E+00  0.4000E+01  0.4000E+01
    -22.173  0.0000E+00  0.0000E+00  0.4000E+01  0.4000E+01
    -21.980  0.0000E+00  0.0000E+00  0.4000E+01  0.4000E+01
    -21.787  0.0000E+00  0.0000E+00  0.4000E+01  0.4000E+01
    -21.594  0.0000E+00  0.0000E+00  0.4000E+01  0.4000E+01
    -21.401  0.0000E+00  0.0000E+00  0.4000E+01  0.4000E+01
    -21.208  0.0000E+00  0.0000E+00  0.4000E+01  0.4000E+01
    -21.014  0.0000E+00  0.0000E+00  0.4000E+01  0.4000E+01
    -20.821  0.0000E+00  0.0000E+00  0.4000E+01  0.4000E+01
    -20.628  0.0000E+00  0.0000E+00  0.4000E+01  0.4000E+01
    -20.435  0.0000E+00  0.0000E+00  0.4000E+01  0.4000E+01
    -20.242  0.0000E+00  0.0000E+00  0.4000E+01  0.4000E+01
    -20.049  0.0000E+00  0.0000E+00  0.4000E+01  0.4000E+01
    -19.855  0.0000E+00  0.0000E+00  0.4000E+01  0.4000E+01
    -19.662  0.0000E+00  0.0000E+00  0.4000E+01  0.4000E+01
    -19.469  0.0000E+00  0.0000E+00  0.4000E+01  0.4000E+01
    -19.276  0.0000E+00  0.0000E+00  0.4000E+01  0.4000E+01
    -19.083  0.0000E+00  0.0000E+00  0.4000E+01  0.4000E+01
    -18.890  0.0000E+00  0.0000E+00  0.4000E+01  0.4000E+01
    -18.696  0.0000E+00  0.0000E+00  0.4000E+01  0.4000E+01
    -18.503  0.0000E+00  0.0000E+00  0.4000E+01  0.4000E+01
    -18.310  0.1676E-03  0.1686E-03  0.4000E+01  0.4000E+01
    -18.117  0.1543E-01  0.1552E-01  0.4003E+01  0.4003E+01
    -17.924  0.7147E+00  0.7188E+00  0.4141E+01  0.4142E+01
    -17.731  0.1968E+02  0.1975E+02  0.7943E+01  0.7957E+01
    -17.537  0.3846E+02  0.3841E+02  0.1537E+02  0.1538E+02
    -17.344  0.3118E+01  0.3101E+01  0.1599E+02  0.1599E+02
    -17.151  0.0000E+00  0.0000E+00  0.1600E+02  0.1600E+02
    -16.958  0.0000E+00  0.0000E+00  0.1600E+02  0.1600E+02
    -16.765  0.0000E+00  0.0000E+00  0.1600E+02  0.1600E+02
    -16.572  0.0000E+00  0.0000E+00  0.1600E+02  0.1600E+02
    -16.379  0.0000E+00  0.0000E+00  0.1600E+02  0.1600E+02
    -16.185  0.0000E+00  0.0000E+00  0.1600E+02  0.1600E+02
    -15.992  0.0000E+00  0.0000E+00  0.1600E+02  0.1600E+02
    -15.799  0.0000E+00  0.0000E+00  0.1600E+02  0.1600E+02
    -15.606  0.0000E+00  0.0000E+00  0.1600E+02  0.1600E+02
    -15.413  0.0000E+00  0.0000E+00  0.1600E+02  0.1600E+02
    -15.220  0.0000E+00  0.0000E+00  0.1600E+02  0.1600E+02
    -15.026  0.0000E+00  0.0000E+00  0.1600E+02  0.1600E+02
    -14.833  0.0000E+00  0.0000E+00  0.1600E+02  0.1600E+02
    -14.640  0.0000E+00  0.0000E+00  0.1600E+02  0.1600E+02
    -14.447  0.0000E+00  0.0000E+00  0.1600E+02  0.1600E+02
    -14.254  0.0000E+00  0.0000E+00  0.1600E+02  0.1600E+02
    -14.061  0.0000E+00  0.0000E+00  0.1600E+02  0.1600E+02
    -13.867  0.0000E+00  0.0000E+00  0.1600E+02  0.1600E+02
    -13.674  0.0000E+00  0.0000E+00  0.1600E+02  0.1600E+02
    -13.481  0.0000E+00  0.0000E+00  0.1600E+02  0.1600E+02
    -13.288  0.0000E+00  0.0000E+00  0.1600E+02  0.1600E+02
    -13.095  0.0000E+00  0.0000E+00  0.1600E+02  0.1600E+02
    -12.902  0.0000E+00  0.0000E+00  0.1600E+02  0.1600E+02
    -12.708  0.0000E+00  0.0000E+00  0.1600E+02  0.1600E+02
    -12.515  0.0000E+00  0.0000E+00  0.1600E+02  0.1600E+02
    -12.322  0.0000E+00  0.0000E+00  0.1600E+02  0.1600E+02
    -12.129  0.0000E+00  0.0000E+00  0.1600E+02  0.1600E+02
    -11.936  0.0000E+00  0.0000E+00  0.1600E+02  0.1600E+02
    -11.743  0.0000E+00  0.0000E+00  0.1600E+02  0.1600E+02
    -11.549  0.0000E+00  0.0000E+00  0.1600E+02  0.1600E+02
    -11.356  0.0000E+00  0.0000E+00  0.1600E+02  0.1600E+02
    -11.163  0.0000E+00  0.0000E+00  0.1600E+02  0.1600E+02
    -10.970  0.0000E+00  0.0000E+00  0.1600E+02  0.1600E+02
    -10.777  0.0000E+00  0.0000E+00  0.1600E+02  0.1600E+02
    -10.584  0.0000E+00  0.0000E+00  0.1600E+02  0.1600E+02
    -10.390  0.0000E+00  0.0000E+00  0.1600E+02  0.1600E+02
    -10.197  0.0000E+00  0.0000E+00  0.1600E+02  0.1600E+02
    -10.004  0.0000E+00  0.0000E+00  0.1600E+02  0.1600E+02
     -9.811  0.0000E+00  0.0000E+00  0.1600E+02  0.1600E+02
     -9.618  0.0000E+00  0.0000E+00  0.1600E+02  0.1600E+02
     -9.425  0.0000E+00  0.0000E+00  0.1600E+02  0.1600E+02
     -9.231  0.0000E+00  0.0000E+00  0.1600E+02  0.1600E+02
     -9.038  0.0000E+00  0.0000E+00  0.1600E+02  0.1600E+02
     -8.845  0.0000E+00  0.0000E+00  0.1600E+02  0.1600E+02
     -8.652  0.0000E+00  0.0000E+00  0.1600E+02  0.1600E+02
     -8.459  0.0000E+00  0.0000E+00  0.1600E+02  0.1600E+02
     -8.266  0.0000E+00  0.0000E+00  0.1600E+02  0.1600E+02
     -8.072  0.0000E+00  0.0000E+00  0.1600E+02  0.1600E+02
     -7.879  0.0000E+00  0.0000E+00  0.1600E+02  0.1600E+02
     -7.686  0.0000E+00  0.0000E+00  0.1600E+02  0.1600E+02
     -7.493  0.0000E+00  0.0000E+00  0.1600E+02  0.1600E+02
     -7.300  0.0000E+00  0.0000E+00  0.1600E+02  0.1600E+02
     -7.107  0.0000E+00  0.0000E+00  0.1600E+02  0.1600E+02
     -6.913  0.0000E+00  0.0000E+00  0.1600E+02  0.1600E+02
     -6.720  0.0000E+00  0.0000E+00  0.1600E+02  0.1600E+02
     -6.527  0.0000E+00  0.0000E+00  0.1600E+02  0.1600E+02
     -6.334  0.0000E+00  0.0000E+00  0.1600E+02  0.1600E+02
     -6.141  0.0000E+00  0.0000E+00  0.1600E+02  0.1600E+02
     -5.948  0.0000E+00  0.0000E+00  0.1600E+02  0.1600E+02
     -5.754  0.0000E+00  0.0000E+00  0.1600E+02  0.1600E+02
     -5.561  0.0000E+00  0.0000E+00  0.1600E+02  0.1600E+02
     -5.368  0.0000E+00  0.0000E+00  0.1600E+02  0.1600E+02
     -5.175  0.0000E+00  0.0000E+00  0.1600E+02  0.1600E+02
     -4.982  0.0000E+00  0.0000E+00  0.1600E+02  0.1600E+02
     -4.789  0.0000E+00  0.0000E+00  0.1600E+02  0.1600E+02
     -4.595  0.0000E+00  0.0000E+00  0.1600E+02  0.1600E+02
     -4.402  0.0000E+00  0.0000E+00  0.1600E+02  0.1600E+02
     -4.209  0.0000E+00  0.0000E+00  0.1600E+02  0.1600E+02
     -4.016  0.0000E+00  0.0000E+00  0.1600E+02  0.1600E+02
     -3.823  0.0000E+00  0.0000E+00  0.1600E+02  0.1600E+02
     -3.630  0.0000E+00  0.0000E+00  0.1600E+02  0.1600E+02
     -3.436  0.0000E+00  0.0000E+00  0.1600E+02  0.1600E+02
     -3.243  0.0000E+00  0.0000E+00  0.1600E+02  0.1600E+02
     -3.050  0.0000E+00  0.0000E+00  0.1600E+02  0.1600E+02
     -2.857  0.0000E+00  0.0000E+00  0.1600E+02  0.1600E+02
     -2.664  0.0000E+00  0.0000E+00  0.1600E+02  0.1600E+02
     -2.471  0.0000E+00  0.0000E+00  0.1600E+02  0.1600E+02
     -2.277  0.1235E-05  0.1228E-05  0.1600E+02  0.1600E+02
     -2.084  0.7889E-04  0.7842E-04  0.1600E+02  0.1600E+02
     -1.891  0.3613E-02  0.3593E-02  0.1600E+02  0.1600E+02
     -1.698  0.7924E-01  0.7898E-01  0.1602E+02  0.1602E+02
     -1.505  0.2665E+00  0.2662E+00  0.1607E+02  0.1607E+02
     -1.312  0.4443E+00  0.4448E+00  0.1615E+02  0.1615E+02
     -1.118  0.5238E+00  0.5234E+00  0.1625E+02  0.1625E+02
     -0.925  0.6350E+00  0.6350E+00  0.1638E+02  0.1638E+02
     -0.732  0.6689E+00  0.6690E+00  0.1651E+02  0.1651E+02
     -0.539  0.8654E+00  0.8649E+00  0.1668E+02  0.1667E+02
     -0.346  0.9406E+00  0.9407E+00  0.1686E+02  0.1686E+02
     -0.153  0.8122E+00  0.8117E+00  0.1701E+02  0.1701E+02
      0.041  0.1227E+01  0.1227E+01  0.1725E+02  0.1725E+02
      0.234  0.1171E+01  0.1171E+01  0.1748E+02  0.1748E+02
      0.427  0.1312E+01  0.1312E+01  0.1773E+02  0.1773E+02
      0.620  0.1351E+01  0.1351E+01  0.1799E+02  0.1799E+02
      0.813  0.1565E+01  0.1565E+01  0.1830E+02  0.1830E+02
      1.006  0.1393E+01  0.1394E+01  0.1857E+02  0.1857E+02
      1.200  0.1204E+01  0.1204E+01  0.1880E+02  0.1880E+02
      1.393  0.1446E+01  0.1446E+01  0.1908E+02  0.1908E+02
      1.586  0.1310E+01  0.1310E+01  0.1934E+02  0.1934E+02
      1.779  0.1516E+01  0.1516E+01  0.1963E+02  0.1963E+02
      1.972  0.1565E+01  0.1565E+01  0.1993E+02  0.1993E+02
      2.165  0.1324E+01  0.1324E+01  0.2019E+02  0.2019E+02
      2.359  0.1376E+01  0.1376E+01  0.2046E+02  0.2046E+02
      2.552  0.1963E+01  0.1962E+01  0.2084E+02  0.2084E+02
      2.745  0.2012E+01  0.2012E+01  0.2123E+02  0.2123E+02
      2.938  0.1890E+01  0.1890E+01  0.2159E+02  0.2159E+02
      3.131  0.1790E+01  0.1789E+01  0.2194E+02  0.2194E+02
      3.324  0.1871E+01  0.1872E+01  0.2230E+02  0.2230E+02
      3.518  0.1564E+01  0.1564E+01  0.2261E+02  0.2261E+02
      3.711  0.1962E+01  0.1961E+01  0.2299E+02  0.2299E+02
      3.904  0.1887E+01  0.1887E+01  0.2335E+02  0.2335E+02
      4.097  0.1808E+01  0.1808E+01  0.2370E+02  0.2370E+02
      4.290  0.2135E+01  0.2134E+01  0.2412E+02  0.2412E+02
      4.483  0.2774E+01  0.2773E+01  0.2465E+02  0.2465E+02
      4.677  0.2728E+01  0.2729E+01  0.2518E+02  0.2518E+02
      4.870  0.2605E+01  0.2605E+01  0.2569E+02  0.2569E+02
      5.063  0.2023E+01  0.2023E+01  0.2608E+02  0.2608E+02
      5.256  0.1648E+01  0.1647E+01  0.2640E+02  0.2640E+02
      5.449  0.2832E+01  0.2830E+01  0.2695E+02  0.2695E+02
      5.642  0.2790E+01  0.2791E+01  0.2749E+02  0.2749E+02
      5.836  0.2463E+01  0.2463E+01  0.2797E+02  0.2797E+02
      6.029  0.2871E+01  0.2870E+01  0.2853E+02  0.2853E+02
      6.222  0.3132E+01  0.3131E+01  0.2913E+02  0.2913E+02
      6.415  0.3561E+01  0.3562E+01  0.2982E+02  0.2982E+02
      6.608  0.3444E+01  0.3443E+01  0.3049E+02  0.3049E+02
      6.801  0.4018E+01  0.4017E+01  0.3127E+02  0.3127E+02
      6.995  0.4062E+01  0.4064E+01  0.3206E+02  0.3206E+02
      7.188  0.3280E+01  0.3280E+01  0.3269E+02  0.3269E+02
      7.381  0.3258E+01  0.3258E+01  0.3333E+02  0.3332E+02
      7.574  0.3650E+01  0.3650E+01  0.3403E+02  0.3403E+02
      7.767  0.3751E+01  0.3749E+01  0.3476E+02  0.3476E+02
      7.960  0.4783E+01  0.4782E+01  0.3569E+02  0.3569E+02
      8.154  0.4952E+01  0.4951E+01  0.3665E+02  0.3664E+02
      8.347  0.4929E+01  0.4931E+01  0.3760E+02  0.3760E+02
      8.540  0.3760E+01  0.3761E+01  0.3833E+02  0.3833E+02
      8.733  0.3206E+01  0.3205E+01  0.3896E+02  0.3895E+02
      8.926  0.3364E+01  0.3362E+01  0.3961E+02  0.3961E+02
      9.119  0.3216E+01  0.3218E+01  0.4023E+02  0.4023E+02
      9.313  0.2710E+01  0.2711E+01  0.4076E+02  0.4076E+02
      9.506  0.2099E+01  0.2101E+01  0.4117E+02  0.4117E+02
      9.699  0.1878E+01  0.1877E+01  0.4153E+02  0.4153E+02
      9.892  0.1772E+01  0.1772E+01  0.4188E+02  0.4188E+02
     10.085  0.2116E+01  0.2115E+01  0.4229E+02  0.4229E+02
     10.278  0.2407E+01  0.2409E+01  0.4275E+02  0.4275E+02
     10.472  0.2682E+01  0.2682E+01  0.4327E+02  0.4327E+02
     10.665  0.2814E+01  0.2813E+01  0.4382E+02  0.4382E+02
     10.858  0.2662E+01  0.2662E+01  0.4433E+02  0.4433E+02
     11.051  0.3224E+01  0.3222E+01  0.4496E+02  0.4496E+02
     11.244  0.4748E+01  0.4743E+01  0.4588E+02  0.4588E+02
     11.437  0.5141E+01  0.5135E+01  0.4687E+02  0.4687E+02
     11.631  0.4599E+01  0.4612E+01  0.4777E+02  0.4777E+02
     11.824  0.4544E+01  0.4550E+01  0.4865E+02  0.4865E+02
     12.017  0.4860E+01  0.4859E+01  0.4959E+02  0.4959E+02
     12.210  0.4198E+01  0.4193E+01  0.5040E+02  0.5040E+02
     12.403  0.5340E+01  0.5391E+01  0.5144E+02  0.5145E+02
     12.596  0.6291E+01  0.6370E+01  0.5266E+02  0.5268E+02
     12.790  0.5413E+01  0.5292E+01  0.5371E+02  0.5371E+02
     12.983  0.4660E+01  0.4730E+01  0.5461E+02  0.5463E+02
     13.176  0.3274E+01  0.3203E+01  0.5525E+02  0.5525E+02
     13.369  0.2495E+01  0.2473E+01  0.5574E+02  0.5573E+02
     13.562  0.1089E+01  0.9678E+00  0.5595E+02  0.5592E+02
     13.755  0.2388E+00  0.3397E+00  0.5600E+02  0.5599E+02
     13.949  0.1038E-01  0.5468E-01  0.5600E+02  0.5600E+02
     14.142  0.0000E+00  0.3146E-02  0.5600E+02  0.5600E+02
     14.335  0.0000E+00  0.0000E+00  0.5600E+02  0.5600E+02
     14.528  0.0000E+00  0.0000E+00  0.5600E+02  0.5600E+02
     14.721  0.0000E+00  0.0000E+00  0.5600E+02  0.5600E+02
     14.914  0.0000E+00  0.0000E+00  0.5600E+02  0.5600E+02
     15.108  0.0000E+00  0.0000E+00  0.5600E+02  0.5600E+02
     15.301  0.0000E+00  0.0000E+00  0.5600E+02  0.5600E+02
     15.494  0.0000E+00  0.0000E+00  0.5600E+02  0.5600E+02
     15.687  0.0000E+00  0.0000E+00  0.5600E+02  0.5600E+02
     15.880  0.0000E+00  0.0000E+00  0.5600E+02  0.5600E+02
     16.073  0.0000E+00  0.0000E+00  0.5600E+02  0.5600E+02
     16.267  0.0000E+00  0.0000E+00  0.5600E+02  0.5600E+02
     16.460  0.0000E+00  0.0000E+00  0.5600E+02  0.5600E+02
     16.45972271    -41.49008722  301      9.04347667      1.00000000
    -41.490  0.0000E+00  0.0000E+00  0.0000E+00  0.0000E+00  0.0000E+00  0.0000E+00  0.0000E+00  0.0000E+00  0.0000E+00  0.0000E+00  0.0000E+00  0.0000E+00  0.0000E+00  0.0000E+00  0.0000E+00  0.0000E+00  0.0000E+00  0.0000E+00
    -41.297  0.0000E+00  0.0000E+00  0.0000E+00  0.0000E+00  0.0000E+00  0.0000E+00  0.0000E+00  0.0000E+00  0.0000E+00  0.0000E+00  0.0000E+00  0.0000E+00  0.0000E+00  0.0000E+00  0.0000E+00  0.0000E+00  0.0000E+00  0.0000E+00
    -41.104  0.0000E+00  0.0000E+00  0.0000E+00  0.0000E+00  0.0000E+00  0.0000E+00  0.0000E+00  0.0000E+00  0.0000E+00  0.0000E+00  0.0000E+00  0.0000E+00  0.0000E+00  0.0000E+00  0.0000E+00  0.0000E+00  0.0000E+00  0.0000E+00
    -40.911  0.0000E+00  0.0000E+00  0.0000E+00  0.0000E+00  0.0000E+00  0.0000E+00  0.0000E+00  0.0000E+00  0.0000E+00  0.0000E+00  0.0000E+00  0.0000E+00  0.0000E+00  0.0000E+00  0.0000E+00  0.0000E+00  0.0000E+00  0.0000E+00
    -40.717  0.0000E+00  0.0000E+00  0.0000E+00  0.0000E+00  0.0000E+00  0.0000E+00  0.0000E+00  0.0000E+00  0.0000E+00  0.0000E+00  0.0000E+00  0.0000E+00  0.0000E+00  0.0000E+00  0.0000E+00  0.0000E+00  0.0000E+00  0.0000E+00
    -40.524  0.0000E+00  0.0000E+00  0.0000E+00  0.0000E+00  0.0000E+00  0.0000E+00  0.0000E+00  0.0000E+00  0.0000E+00  0.0000E+00  0.0000E+00  0.0000E+00  0.0000E+00  0.0000E+00  0.0000E+00  0.0000E+00  0.0000E+00  0.0000E+00
    -40.331  0.0000E+00  0.0000E+00  0.0000E+00  0.0000E+00  0.0000E+00  0.0000E+00  0.0000E+00  0.0000E+00  0.0000E+00  0.0000E+00  0.0000E+00  0.0000E+00  0.0000E+00  0.0000E+00  0.0000E+00  0.0000E+00  0.0000E+00  0.0000E+00
    -40.138  0.0000E+00  0.0000E+00  0.0000E+00  0.0000E+00  0.0000E+00  0.0000E+00  0.0000E+00  0.0000E+00  0.0000E+00  0.0000E+00  0.0000E+00  0.0000E+00  0.0000E+00  0.0000E+00  0.0000E+00  0.0000E+00  0.0000E+00  0.0000E+00
    -39.945  0.0000E+00  0.0000E+00  0.0000E+00  0.0000E+00  0.0000E+00  0.0000E+00  0.0000E+00  0.0000E+00  0.0000E+00  0.0000E+00  0.0000E+00  0.0000E+00  0.0000E+00  0.0000E+00  0.0000E+00  0.0000E+00  0.0000E+00  0.0000E+00
    -39.752  0.0000E+00  0.0000E+00  0.0000E+00  0.0000E+00  0.0000E+00  0.0000E+00  0.0000E+00  0.0000E+00  0.0000E+00  0.0000E+00  0.0000E+00  0.0000E+00  0.0000E+00  0.0000E+00  0.0000E+00  0.0000E+00  0.0000E+00  0.0000E+00
    -39.558  0.0000E+00  0.0000E+00  0.0000E+00  0.0000E+00  0.0000E+00  0.0000E+00  0.0000E+00  0.0000E+00  0.0000E+00  0.0000E+00  0.0000E+00  0.0000E+00  0.0000E+00  0.0000E+00  0.0000E+00  0.0000E+00  0.0000E+00  0.0000E+00
    -39.365  0.1688E-03  0.1695E-03  0.9570E-11  0.9603E-11  0.1323E-08  0.1330E-08  0.9570E-11  0.9603E-11  0.2527E-13  0.2946E-13  0.2226E-13  0.2425E-13  0.2500E-10  0.2548E-10  0.2226E-13  0.2425E-13  0.6487E-11  0.6520E-11
    -39.172  0.7859E-02  0.7892E-02  0.4455E-09  0.4470E-09  0.6157E-07  0.6193E-07  0.4455E-09  0.4470E-09  0.1177E-11  0.1371E-11  0.1036E-11  0.1129E-11  0.1164E-08  0.1186E-08  0.1036E-11  0.1129E-11  0.3020E-09  0.3035E-09
    -38.979  0.3483E+00  0.3497E+00  0.1974E-07  0.1980E-07  0.2728E-05  0.2743E-05  0.1974E-07  0.1980E-07  0.5219E-10  0.6074E-10  0.4594E-10  0.4998E-10  0.5150E-07  0.5247E-07  0.4594E-10  0.4998E-10  0.1339E-07  0.1345E-07
    -38.786  0.3660E+01  0.3662E+01  0.2070E-06  0.2070E-06  0.2862E-04  0.2868E-04  0.2070E-06  0.2070E-06  0.5532E-09  0.6338E-09  0.4830E-09  0.5194E-09  0.5331E-06  0.5416E-06  0.4830E-09  0.5194E-09  0.1410E-06  0.1412E-06
    -38.593  0.1108E+01  0.1104E+01  0.6249E-07  0.6223E-07  0.8645E-05  0.8630E-05  0.6249E-07  0.6223E-07  0.1691E-09  0.1902E-09  0.1463E-09  0.1551E-09  0.1585E-06  0.1605E-06  0.1463E-09  0.1551E-09  0.4271E-07  0.4259E-07
    -38.399  0.0000E+00  0.0000E+00  0.0000E+00  0.0000E+00  0.0000E+00  0.0000E+00  0.0000E+00  0.0000E+00  0.0000E+00  0.0000E+00  0.0000E+00  0.0000E+00  0.0000E+00  0.0000E+00  0.0000E+00  0.0000E+00  0.0000E+00  0.0000E+00
    -38.206  0.0000E+00  0.0000E+00  0.0000E+00  0.0000E+00  0.0000E+00  0.0000E+00  0.0000E+00  0.0000E+00  0.0000E+00  0.0000E+00  0.0000E+00  0.0000E+00  0.0000E+00  0.0000E+00  0.0000E+00  0.0000E+00  0.0000E+00  0.0000E+00
    -38.013  0.0000E+00  0.0000E+00  0.0000E+00  0.0000E+00  0.0000E+00  0.0000E+00  0.0000E+00  0.0000E+00  0.0000E+00  0.0000E+00  0.0000E+00  0.0000E+00  0.0000E+00  0.0000E+00  0.0000E+00  0.0000E+00  0.0000E+00  0.0000E+00
    -37.820  0.0000E+00  0.0000E+00  0.0000E+00  0.0000E+00  0.0000E+00  0.0000E+00  0.0000E+00  0.0000E+00  0.0000E+00  0.0000E+00  0.0000E+00  0.0000E+00  0.0000E+00  0.0000E+00  0.0000E+00  0.0000E+00  0.0000E+00  0.0000E+00
    -37.627  0.0000E+00  0.0000E+00  0.0000E+00  0.0000E+00  0.0000E+00  0.0000E+00  0.0000E+00  0.0000E+00  0.0000E+00  0.0000E+00  0.0000E+00  0.0000E+00  0.0000E+00  0.0000E+00  0.0000E+00  0.0000E+00  0.0000E+00  0.0000E+00
    -37.434  0.0000E+00  0.0000E+00  0.0000E+00  0.0000E+00  0.0000E+00  0.0000E+00  0.0000E+00  0.0000E+00  0.0000E+00  0.0000E+00  0.0000E+00  0.0000E+00  0.0000E+00  0.0000E+00  0.0000E+00  0.0000E+00  0.0000E+00  0.0000E+00
    -37.240  0.0000E+00  0.0000E+00  0.0000E+00  0.0000E+00  0.0000E+00  0.0000E+00  0.0000E+00  0.0000E+00  0.0000E+00  0.0000E+00  0.0000E+00  0.0000E+00  0.0000E+00  0.0000E+00  0.0000E+00  0.0000E+00  0.0000E+00  0.0000E+00
    -37.047  0.0000E+00  0.0000E+00  0.0000E+00  0.0000E+00  0.0000E+00  0.0000E+00  0.0000E+00  0.0000E+00  0.0000E+00  0.0000E+00  0.0000E+00  0.0000E+00  0.0000E+00  0.0000E+00  0.0000E+00  0.0000E+00  0.0000E+00  0.0000E+00
    -36.854  0.0000E+00  0.0000E+00  0.0000E+00  0.0000E+00  0.0000E+00  0.0000E+00  0.0000E+00  0.0000E+00  0.0000E+00  0.0000E+00  0.0000E+00  0.0000E+00  0.0000E+00  0.0000E+00  0.0000E+00  0.0000E+00  0.0000E+00  0.0000E+00
    -36.661  0.0000E+00  0.0000E+00  0.0000E+00  0.0000E+00  0.0000E+00  0.0000E+00  0.0000E+00  0.0000E+00  0.0000E+00  0.0000E+00  0.0000E+00  0.0000E+00  0.0000E+00  0.0000E+00  0.0000E+00  0.0000E+00  0.0000E+00  0.0000E+00
    -36.468  0.0000E+00  0.0000E+00  0.0000E+00  0.0000E+00  0.0000E+00  0.0000E+00  0.0000E+00  0.0000E+00  0.0000E+00  0.0000E+00  0.0000E+00  0.0000E+00  0.0000E+00  0.0000E+00  0.0000E+00  0.0000E+00  0.0000E+00  0.0000E+00
    -36.275  0.0000E+00  0.0000E+00  0.0000E+00  0.0000E+00  0.0000E+00  0.0000E+00  0.0000E+00  0.0000E+00  0.0000E+00  0.0000E+00  0.0000E+00  0.0000E+00  0.0000E+00  0.0000E+00  0.0000E+00  0.0000E+00  0.0000E+00  0.0000E+00
    -36.081  0.0000E+00  0.0000E+00  0.0000E+00  0.0000E+00  0.0000E+00  0.0000E+00  0.0000E+00  0.0000E+00  0.0000E+00  0.0000E+00  0.0000E+00  0.0000E+00  0.0000E+00  0.0000E+00  0.0000E+00  0.0000E+00  0.0000E+00  0.0000E+00
    -35.888  0.0000E+00  0.0000E+00  0.0000E+00  0.0000E+00  0.0000E+00  0.0000E+00  0.0000E+00  0.0000E+00  0.0000E+00  0.0000E+00  0.0000E+00  0.0000E+00  0.0000E+00  0.0000E+00  0.0000E+00  0.0000E+00  0.0000E+00  0.0000E+00
    -35.695  0.0000E+00  0.0000E+00  0.0000E+00  0.0000E+00  0.0000E+00  0.0000E+00  0.0000E+00  0.0000E+00  0.0000E+00  0.0000E+00  0.0000E+00  0.0000E+00  0.0000E+00  0.0000E+00  0.0000E+00  0.0000E+00  0.0000E+00  0.0000E+00
    -35.502  0.0000E+00  0.0000E+00  0.0000E+00  0.0000E+00  0.0000E+00  0.0000E+00  0.0000E+00  0.0000E+00  0.0000E+00  0.0000E+00  0.0000E+00  0.0000E+00  0.0000E+00  0.0000E+00  0.0000E+00  0.0000E+00  0.0000E+00  0.0000E+00
    -35.309  0.0000E+00  0.0000E+00  0.0000E+00  0.0000E+00  0.0000E+00  0.0000E+00  0.0000E+00  0.0000E+00  0.0000E+00  0.0000E+00  0.0000E+00  0.0000E+00  0.0000E+00  0.0000E+00  0.0000E+00  0.0000E+00  0.0000E+00  0.0000E+00
    -35.116  0.0000E+00  0.0000E+00  0.0000E+00  0.0000E+00  0.0000E+00  0.0000E+00  0.0000E+00  0.0000E+00  0.0000E+00  0.0000E+00  0.0000E+00  0.0000E+00  0.0000E+00  0.0000E+00  0.0000E+00  0.0000E+00  0.0000E+00  0.0000E+00
    -34.922  0.0000E+00  0.0000E+00  0.0000E+00  0.0000E+00  0.0000E+00  0.0000E+00  0.0000E+00  0.0000E+00  0.0000E+00  0.0000E+00  0.0000E+00  0.0000E+00  0.0000E+00  0.0000E+00  0.0000E+00  0.0000E+00  0.0000E+00  0.0000E+00
    -34.729  0.0000E+00  0.0000E+00  0.0000E+00  0.0000E+00  0.0000E+00  0.0000E+00  0.0000E+00  0.0000E+00  0.0000E+00  0.0000E+00  0.0000E+00  0.0000E+00  0.0000E+00  0.0000E+00  0.0000E+00  0.0000E+00  0.0000E+00  0.0000E+00
    -34.536  0.0000E+00  0.0000E+00  0.0000E+00  0.0000E+00  0.0000E+00  0.0000E+00  0.0000E+00  0.0000E+00  0.0000E+00  0.0000E+00  0.0000E+00  0.0000E+00  0.0000E+00  0.0000E+00  0.0000E+00  0.0000E+00  0.0000E+00  0.0000E+00
    -34.343  0.0000E+00  0.0000E+00  0.0000E+00  0.0000E+00  0.0000E+00  0.0000E+00  0.0000E+00  0.0000E+00  0.0000E+00  0.0000E+00  0.0000E+00  0.0000E+00  0.0000E+00  0.0000E+00  0.0000E+00  0.0000E+00  0.0000E+00  0.0000E+00
    -34.150  0.0000E+00  0.0000E+00  0.0000E+00  0.0000E+00  0.0000E+00  0.0000E+00  0.0000E+00  0.0000E+00  0.0000E+00  0.0000E+00  0.0000E+00  0.0000E+00  0.0000E+00  0.0000E+00  0.0000E+00  0.0000E+00  0.0000E+00  0.0000E+00
    -33.957  0.0000E+00  0.0000E+00  0.0000E+00  0.0000E+00  0.0000E+00  0.0000E+00  0.0000E+00  0.0000E+00  0.0000E+00  0.0000E+00  0.0000E+00  0.0000E+00  0.0000E+00  0.0000E+00  0.0000E+00  0.0000E+00  0.0000E+00  0.0000E+00
    -33.763  0.0000E+00  0.0000E+00  0.0000E+00  0.0000E+00  0.0000E+00  0.0000E+00  0.0000E+00  0.0000E+00  0.0000E+00  0.0000E+00  0.0000E+00  0.0000E+00  0.0000E+00  0.0000E+00  0.0000E+00  0.0000E+00  0.0000E+00  0.0000E+00
    -33.570  0.0000E+00  0.0000E+00  0.0000E+00  0.0000E+00  0.0000E+00  0.0000E+00  0.0000E+00  0.0000E+00  0.0000E+00  0.0000E+00  0.0000E+00  0.0000E+00  0.0000E+00  0.0000E+00  0.0000E+00  0.0000E+00  0.0000E+00  0.0000E+00
    -33.377  0.0000E+00  0.0000E+00  0.0000E+00  0.0000E+00  0.0000E+00  0.0000E+00  0.0000E+00  0.0000E+00  0.0000E+00  0.0000E+00  0.0000E+00  0.0000E+00  0.0000E+00  0.0000E+00  0.0000E+00  0.0000E+00  0.0000E+00  0.0000E+00
    -33.184  0.0000E+00  0.0000E+00  0.0000E+00  0.0000E+00  0.0000E+00  0.0000E+00  0.0000E+00  0.0000E+00  0.0000E+00  0.0000E+00  0.0000E+00  0.0000E+00  0.0000E+00  0.0000E+00  0.0000E+00  0.0000E+00  0.0000E+00  0.0000E+00
    -32.991  0.0000E+00  0.0000E+00  0.0000E+00  0.0000E+00  0.0000E+00  0.0000E+00  0.0000E+00  0.0000E+00  0.0000E+00  0.0000E+00  0.0000E+00  0.0000E+00  0.0000E+00  0.0000E+00  0.0000E+00  0.0000E+00  0.0000E+00  0.0000E+00
    -32.798  0.0000E+00  0.0000E+00  0.0000E+00  0.0000E+00  0.0000E+00  0.0000E+00  0.0000E+00  0.0000E+00  0.0000E+00  0.0000E+00  0.0000E+00  0.0000E+00  0.0000E+00  0.0000E+00  0.0000E+00  0.0000E+00  0.0000E+00  0.0000E+00
    -32.604  0.0000E+00  0.0000E+00  0.0000E+00  0.0000E+00  0.0000E+00  0.0000E+00  0.0000E+00  0.0000E+00  0.0000E+00  0.0000E+00  0.0000E+00  0.0000E+00  0.0000E+00  0.0000E+00  0.0000E+00  0.0000E+00  0.0000E+00  0.0000E+00
    -32.411  0.0000E+00  0.0000E+00  0.0000E+00  0.0000E+00  0.0000E+00  0.0000E+00  0.0000E+00  0.0000E+00  0.0000E+00  0.0000E+00  0.0000E+00  0.0000E+00  0.0000E+00  0.0000E+00  0.0000E+00  0.0000E+00  0.0000E+00  0.0000E+00
    -32.218  0.0000E+00  0.0000E+00  0.0000E+00  0.0000E+00  0.0000E+00  0.0000E+00  0.0000E+00  0.0000E+00  0.0000E+00  0.0000E+00  0.0000E+00  0.0000E+00  0.0000E+00  0.0000E+00  0.0000E+00  0.0000E+00  0.0000E+00  0.0000E+00
    -32.025  0.0000E+00  0.0000E+00  0.0000E+00  0.0000E+00  0.0000E+00  0.0000E+00  0.0000E+00  0.0000E+00  0.0000E+00  0.0000E+00  0.0000E+00  0.0000E+00  0.0000E+00  0.0000E+00  0.0000E+00  0.0000E+00  0.0000E+00  0.0000E+00
    -31.832  0.0000E+00  0.0000E+00  0.0000E+00  0.0000E+00  0.0000E+00  0.0000E+00  0.0000E+00  0.0000E+00  0.0000E+00  0.0000E+00  0.0000E+00  0.0000E+00  0.0000E+00  0.0000E+00  0.0000E+00  0.0000E+00  0.0000E+00  0.0000E+00