  16  16   1   0
  0.1606980E+02  0.3921556E-09  0.3921556E-09  0.1671913E-08  0.5000000E-15
  1.000000000000000E-004
  CAR 
 unknown system                          
     14.26848225    -43.62386836  301      7.49765348      1.00000000
    -43.624  0.0000E+00  0.0000E+00  0.0000E+00  0.0000E+00
    -43.431  0.0000E+00  0.0000E+00  0.0000E+00  0.0000E+00
    -43.238  0.0000E+00  0.0000E+00  0.0000E+00  0.0000E+00
    -43.045  0.0000E+00  0.0000E+00  0.0000E+00  0.0000E+00
    -42.852  0.0000E+00  0.0000E+00  0.0000E+00  0.0000E+00
    -42.659  0.0000E+00  0.0000E+00  0.0000E+00  0.0000E+00
    -42.466  0.0000E+00  0.0000E+00  0.0000E+00  0.0000E+00
    -42.273  0.0000E+00  0.0000E+00  0.0000E+00  0.0000E+00
    -42.080  0.0000E+00  0.0000E+00  0.0000E+00  0.0000E+00
    -41.887  0.0000E+00  0.0000E+00  0.0000E+00  0.0000E+00
    -41.694  0.0000E+00  0.0000E+00  0.0000E+00  0.0000E+00
    -41.501  0.7456E-03  0.7410E-03  0.1439E-03  0.1430E-03
    -41.308  0.3457E-01  0.3436E-01  0.6814E-02  0.6773E-02
    -41.115  0.1517E+01  0.1509E+01  0.2996E+00  0.2979E+00
    -40.922  0.1489E+02  0.1488E+02  0.3173E+01  0.3169E+01
    -40.729  0.4171E+01  0.4191E+01  0.3978E+01  0.3978E+01
    -40.536  0.0000E+00  0.0000E+00  0.4000E+01  0.4000E+01
    -40.343  0.0000E+00  0.0000E+00  0.4000E+01  0.4000E+01
    -40.150  0.0000E+00  0.0000E+00  0.4000E+01  0.4000E+01
    -39.957  0.0000E+00  0.0000E+00  0.4000E+01  0.4000E+01
    -39.764  0.0000E+00  0.0000E+00  0.4000E+01  0.4000E+01
    -39.571  0.0000E+00  0.0000E+00  0.4000E+01  0.4000E+01
    -39.378  0.0000E+00  0.0000E+00  0.4000E+01  0.4000E+01
    -39.185  0.0000E+00  0.0000E+00  0.4000E+01  0.4000E+01
    -38.992  0.0000E+00  0.0000E+00  0.4000E+01  0.4000E+01
    -38.800  0.0000E+00  0.0000E+00  0.4000E+01  0.4000E+01
    -38.607  0.0000E+00  0.0000E+00  0.4000E+01  0.4000E+01
    -38.414  0.0000E+00  0.0000E+00  0.4000E+01  0.4000E+01
    -38.221  0.0000E+00  0.0000E+00  0.4000E+01  0.4000E+01
    -38.028  0.0000E+00  0.0000E+00  0.4000E+01  0.4000E+01
    -37.835  0.0000E+00  0.0000E+00  0.4000E+01  0.4000E+01
    -37.642  0.0000E+00  0.0000E+00  0.4000E+01  0.4000E+01
    -37.449  0.0000E+00  0.0000E+00  0.4000E+01  0.4000E+01
    -37.256  0.0000E+00  0.0000E+00  0.4000E+01  0.4000E+01
    -37.063  0.0000E+00  0.0000E+00  0.4000E+01  0.4000E+01
    -36.870  0.0000E+00  0.0000E+00  0.4000E+01  0.4000E+01
    -36.677  0.0000E+00  0.0000E+00  0.4000E+01  0.4000E+01
    -36.484  0.0000E+00  0.0000E+00  0.4000E+01  0.4000E+01
    -36.291  0.0000E+00  0.0000E+00  0.4000E+01  0.4000E+01
    -36.098  0.0000E+00  0.0000E+00  0.4000E+01  0.4000E+01
    -35.905  0.0000E+00  0.0000E+00  0.4000E+01  0.4000E+01
    -35.712  0.0000E+00  0.0000E+00  0.4000E+01  0.4000E+01
    -35.519  0.0000E+00  0.0000E+00  0.4000E+01  0.4000E+01
    -35.326  0.0000E+00  0.0000E+00  0.4000E+01  0.4000E+01
    -35.133  0.0000E+00  0.0000E+00  0.4000E+01  0.4000E+01
    -34.940  0.0000E+00  0.0000E+00  0.4000E+01  0.4000E+01
    -34.747  0.0000E+00  0.0000E+00  0.4000E+01  0.4000E+01
    -34.554  0.0000E+00  0.0000E+00  0.4000E+01  0.4000E+01
    -34.361  0.0000E+00  0.0000E+00  0.4000E+01  0.4000E+01
    -34.168  0.0000E+00  0.0000E+00  0.4000E+01  0.4000E+01
    -33.975  0.0000E+00  0.0000E+00  0.4000E+01  0.4000E+01
    -33.782  0.0000E+00  0.0000E+00  0.4000E+01  0.4000E+01
    -33.589  0.0000E+00  0.0000E+00  0.4000E+01  0.4000E+01
    -33.396  0.0000E+00  0.0000E+00  0.4000E+01  0.4000E+01
    -33.203  0.0000E+00  0.0000E+00  0.4000E+01  0.4000E+01
    -33.010  0.0000E+00  0.0000E+00  0.4000E+01  0.4000E+01
    -32.817  0.0000E+00  0.0000E+00  0.4000E+01  0.4000E+01
    -32.624  0.0000E+00  0.0000E+00  0.4000E+01  0.4000E+01
    -32.431  0.0000E+00  0.0000E+00  0.4000E+01  0.4000E+01
    -32.238  0.0000E+00  0.0000E+00  0.4000E+01  0.4000E+01
    -32.045  0.0000E+00  0.0000E+00  0.4000E+01  0.4000E+01
    -31.852  0.0000E+00  0.0000E+00  0.4000E+01  0.4000E+01
    -31.659  0.0000E+00  0.0000E+00  0.4000E+01  0.4000E+01
    -31.466  0.0000E+00  0.0000E+00  0.4000E+01  0.4000E+01
    -31.274  0.0000E+00  0.0000E+00  0.4000E+01  0.4000E+01
    -31.081  0.0000E+00  0.0000E+00  0.4000E+01  0.4000E+01
    -30.888  0.0000E+00  0.0000E+00  0.4000E+01  0.4000E+01
    -30.695  0.0000E+00  0.0000E+00  0.4000E+01  0.4000E+01
    -30.502  0.0000E+00  0.0000E+00  0.4000E+01  0.4000E+01
    -30.309  0.0000E+00  0.0000E+00  0.4000E+01  0.4000E+01
    -30.116  0.0000E+00  0.0000E+00  0.4000E+01  0.4000E+01
    -29.923  0.0000E+00  0.0000E+00  0.4000E+01  0.4000E+01
    -29.730  0.0000E+00  0.0000E+00  0.4000E+01  0.4000E+01
    -29.537  0.0000E+00  0.0000E+00  0.4000E+01  0.4000E+01
    -29.344  0.0000E+00  0.0000E+00  0.4000E+01  0.4000E+01
    -29.151  0.0000E+00  0.0000E+00  0.4000E+01  0.4000E+01
    -28.958  0.0000E+00  0.0000E+00  0.4000E+01  0.4000E+01
    -28.765  0.0000E+00  0.0000E+00  0.4000E+01  0.4000E+01
    -28.572  0.0000E+00  0.0000E+00  0.4000E+01  0.4000E+01
    -28.379  0.0000E+00  0.0000E+00  0.4000E+01  0.4000E+01
    -28.186  0.0000E+00  0.0000E+00  0.4000E+01  0.4000E+01
    -27.993  0.0000E+00  0.0000E+00  0.4000E+01  0.4000E+01
    -27.800  0.0000E+00  0.0000E+00  0.4000E+01  0.4000E+01
    -27.607  0.0000E+00  0.0000E+00  0.4000E+01  0.4000E+01
    -27.414  0.0000E+00  0.0000E+00  0.4000E+01  0.4000E+01
    -27.221  0.0000E+00  0.0000E+00  0.4000E+01  0.4000E+01
    -27.028  0.0000E+00  0.0000E+00  0.4000E+01  0.4000E+01
    -26.835  0.0000E+00  0.0000E+00  0.4000E+01  0.4000E+01
    -26.642  0.0000E+00  0.0000E+00  0.4000E+01  0.4000E+01
    -26.449  0.0000E+00  0.0000E+00  0.4000E+01  0.4000E+01
    -26.256  0.0000E+00  0.0000E+00  0.4000E+01  0.4000E+01
    -26.063  0.0000E+00  0.0000E+00  0.4000E+01  0.4000E+01
    -25.870  0.0000E+00  0.0000E+00  0.4000E+01  0.4000E+01
    -25.677  0.0000E+00  0.0000E+00  0.4000E+01  0.4000E+01
    -25.484  0.0000E+00  0.0000E+00  0.4000E+01  0.4000E+01
    -25.291  0.0000E+00  0.0000E+00  0.4000E+01  0.4000E+01
    -25.098  0.0000E+00  0.0000E+00  0.4000E+01  0.4000E+01
    -24.905  0.0000E+00  0.0000E+00  0.4000E+01  0.4000E+01
    -24.712  0.0000E+00  0.0000E+00  0.4000E+01  0.4000E+01
    -24.519  0.0000E+00  0.0000E+00  0.4000E+01  0.4000E+01
    -24.326  0.0000E+00  0.0000E+00  0.4000E+01  0.4000E+01
    -24.133  0.0000E+00  0.0000E+00  0.4000E+01  0.4000E+01
    -23.940  0.0000E+00  0.0000E+00  0.4000E+01  0.4000E+01
    -23.747  0.0000E+00  0.0000E+00  0.4000E+01  0.4000E+01
    -23.555  0.0000E+00  0.0000E+00  0.4000E+01  0.4000E+01
    -23.362  0.0000E+00  0.0000E+00  0.4000E+01  0.4000E+01
    -23.169  0.0000E+00  0.0000E+00  0.4000E+01  0.4000E+01
    -22.976  0.0000E+00  0.0000E+00  0.4000E+01  0.4000E+01
    -22.783  0.0000E+00  0.0000E+00  0.4000E+01  0.4000E+01
    -22.590  0.0000E+00  0.0000E+00  0.4000E+01  0.4000E+01
    -22.397  0.0000E+00  0.0000E+00  0.4000E+01  0.4000E+01
    -22.204  0.0000E+00  0.0000E+00  0.4000E+01  0.4000E+01
    -22.011  0.0000E+00  0.0000E+00  0.4000E+01  0.4000E+01
    -21.818  0.0000E+00  0.0000E+00  0.4000E+01  0.4000E+01
    -21.625  0.0000E+00  0.0000E+00  0.4000E+01  0.4000E+01
    -21.432  0.0000E+00  0.0000E+00  0.4000E+01  0.4000E+01
    -21.239  0.0000E+00  0.0000E+00  0.4000E+01  0.4000E+01
    -21.046  0.0000E+00  0.0000E+00  0.4000E+01  0.4000E+01
    -20.853  0.0000E+00  0.0000E+00  0.4000E+01  0.4000E+01
    -20.660  0.0000E+00  0.0000E+00  0.4000E+01  0.4000E+01
    -20.467  0.0000E+00  0.0000E+00  0.4000E+01  0.4000E+01
    -20.274  0.1356E-02  0.1349E-02  0.4000E+01  0.4000E+01
    -20.081  0.6290E-01  0.6256E-01  0.4012E+01  0.4012E+01
    -19.888  0.2829E+01  0.2815E+01  0.4558E+01  0.4555E+01
    -19.695  0.3955E+02  0.3949E+02  0.1219E+02  0.1218E+02
    -19.502  0.1912E+02  0.1919E+02  0.1588E+02  0.1588E+02
    -19.309  0.0000E+00  0.0000E+00  0.1600E+02  0.1600E+02
    -19.116  0.0000E+00  0.0000E+00  0.1600E+02  0.1600E+02
    -18.923  0.0000E+00  0.0000E+00  0.1600E+02  0.1600E+02
    -18.730  0.0000E+00  0.0000E+00  0.1600E+02  0.1600E+02
    -18.537  0.0000E+00  0.0000E+00  0.1600E+02  0.1600E+02
    -18.344  0.0000E+00  0.0000E+00  0.1600E+02  0.1600E+02
    -18.151  0.0000E+00  0.0000E+00  0.1600E+02  0.1600E+02
    -17.958  0.0000E+00  0.0000E+00  0.1600E+02  0.1600E+02
    -17.765  0.0000E+00  0.0000E+00  0.1600E+02  0.1600E+02
    -17.572  0.0000E+00  0.0000E+00  0.1600E+02  0.1600E+02
    -17.379  0.0000E+00  0.0000E+00  0.1600E+02  0.1600E+02
    -17.186  0.0000E+00  0.0000E+00  0.1600E+02  0.1600E+02
    -16.993  0.0000E+00  0.0000E+00  0.1600E+02  0.1600E+02
    -16.800  0.0000E+00  0.0000E+00  0.1600E+02  0.1600E+02
    -16.607  0.0000E+00  0.0000E+00  0.1600E+02  0.1600E+02
    -16.414  0.0000E+00  0.0000E+00  0.1600E+02  0.1600E+02
    -16.221  0.0000E+00  0.0000E+00  0.1600E+02  0.1600E+02
    -16.029  0.0000E+00  0.0000E+00  0.1600E+02  0.1600E+02
    -15.836  0.0000E+00  0.0000E+00  0.1600E+02  0.1600E+02
    -15.643  0.0000E+00  0.0000E+00  0.1600E+02  0.1600E+02
    -15.450  0.0000E+00  0.0000E+00  0.1600E+02  0.1600E+02
    -15.257  0.0000E+00  0.0000E+00  0.1600E+02  0.1600E+02
    -15.064  0.0000E+00  0.0000E+00  0.1600E+02  0.1600E+02
    -14.871  0.0000E+00  0.0000E+00  0.1600E+02  0.1600E+02
    -14.678  0.0000E+00  0.0000E+00  0.1600E+02  0.1600E+02
    -14.485  0.0000E+00  0.0000E+00  0.1600E+02  0.1600E+02
    -14.292  0.0000E+00  0.0000E+00  0.1600E+02  0.1600E+02
    -14.099  0.0000E+00  0.0000E+00  0.1600E+02  0.1600E+02
    -13.906  0.0000E+00  0.0000E+00  0.1600E+02  0.1600E+02
    -13.713  0.0000E+00  0.0000E+00  0.1600E+02  0.1600E+02
    -13.520  0.0000E+00  0.0000E+00  0.1600E+02  0.1600E+02
    -13.327  0.0000E+00  0.0000E+00  0.1600E+02  0.1600E+02
    -13.134  0.0000E+00  0.0000E+00  0.1600E+02  0.1600E+02
    -12.941  0.0000E+00  0.0000E+00  0.1600E+02  0.1600E+02
    -12.748  0.0000E+00  0.0000E+00  0.1600E+02  0.1600E+02
    -12.555  0.0000E+00  0.0000E+00  0.1600E+02  0.1600E+02
    -12.362  0.0000E+00  0.0000E+00  0.1600E+02  0.1600E+02
    -12.169  0.0000E+00  0.0000E+00  0.1600E+02  0.1600E+02
    -11.976  0.0000E+00  0.0000E+00  0.1600E+02  0.1600E+02
    -11.783  0.0000E+00  0.0000E+00  0.1600E+02  0.1600E+02
    -11.590  0.0000E+00  0.0000E+00  0.1600E+02  0.1600E+02
    -11.397  0.0000E+00  0.0000E+00  0.1600E+02  0.1600E+02
    -11.204  0.0000E+00  0.0000E+00  0.1600E+02  0.1600E+02
    -11.011  0.0000E+00  0.0000E+00  0.1600E+02  0.1600E+02
    -10.818  0.0000E+00  0.0000E+00  0.1600E+02  0.1600E+02
    -10.625  0.0000E+00  0.0000E+00  0.1600E+02  0.1600E+02
    -10.432  0.0000E+00  0.0000E+00  0.1600E+02  0.1600E+02
    -10.239  0.0000E+00  0.0000E+00  0.1600E+02  0.1600E+02
    -10.046  0.0000E+00  0.0000E+00  0.1600E+02  0.1600E+02
     -9.853  0.0000E+00  0.0000E+00  0.1600E+02  0.1600E+02
     -9.660  0.0000E+00  0.0000E+00  0.1600E+02  0.1600E+02
     -9.467  0.0000E+00  0.0000E+00  0.1600E+02  0.1600E+02
     -9.274  0.0000E+00  0.0000E+00  0.1600E+02  0.1600E+02
     -9.081  0.0000E+00  0.0000E+00  0.1600E+02  0.1600E+02
     -8.888  0.0000E+00  0.0000E+00  0.1600E+02  0.1600E+02
     -8.695  0.0000E+00  0.0000E+00  0.1600E+02  0.1600E+02
     -8.503  0.0000E+00  0.0000E+00  0.1600E+02  0.1600E+02
     -8.310  0.0000E+00  0.0000E+00  0.1600E+02  0.1600E+02
     -8.117  0.0000E+00  0.0000E+00  0.1600E+02  0.1600E+02
     -7.924  0.0000E+00  0.0000E+00  0.1600E+02  0.1600E+02
     -7.731  0.0000E+00  0.0000E+00  0.1600E+02  0.1600E+02
     -7.538  0.0000E+00  0.0000E+00  0.1600E+02  0.1600E+02
     -7.345  0.0000E+00  0.0000E+00  0.1600E+02  0.1600E+02
     -7.152  0.0000E+00  0.0000E+00  0.1600E+02  0.1600E+02
     -6.959  0.0000E+00  0.0000E+00  0.1600E+02  0.1600E+02
     -6.766  0.0000E+00  0.0000E+00  0.1600E+02  0.1600E+02
     -6.573  0.0000E+00  0.0000E+00  0.1600E+02  0.1600E+02
     -6.380  0.0000E+00  0.0000E+00  0.1600E+02  0.1600E+02
     -6.187  0.0000E+00  0.0000E+00  0.1600E+02  0.1600E+02
     -5.994  0.0000E+00  0.0000E+00  0.1600E+02  0.1600E+02
     -5.801  0.0000E+00  0.0000E+00  0.1600E+02  0.1600E+02
     -5.608  0.0000E+00  0.0000E+00  0.1600E+02  0.1600E+02
     -5.415  0.0000E+00  0.0000E+00  0.1600E+02  0.1600E+02
     -5.222  0.0000E+00  0.0000E+00  0.1600E+02  0.1600E+02
     -5.029  0.0000E+00  0.0000E+00  0.1600E+02  0.1600E+02
     -4.836  0.0000E+00  0.0000E+00  0.1600E+02  0.1600E+02
     -4.643  0.0000E+00  0.0000E+00  0.1600E+02  0.1600E+02
     -4.450  0.0000E+00  0.0000E+00  0.1600E+02  0.1600E+02
     -4.257  0.0000E+00  0.0000E+00  0.1600E+02  0.1600E+02
     -4.064  0.0000E+00  0.0000E+00  0.1600E+02  0.1600E+02
     -3.871  0.0000E+00  0.0000E+00  0.1600E+02  0.1600E+02
     -3.678  0.0000E+00  0.0000E+00  0.1600E+02  0.1600E+02
     -3.485  0.0000E+00  0.0000E+00  0.1600E+02  0.1600E+02
     -3.292  0.0000E+00  0.0000E+00  0.1600E+02  0.1600E+02
     -3.099  0.8436E-07  0.8403E-07  0.1600E+02  0.1600E+02
     -2.906  0.1622E-04  0.1616E-04  0.1600E+02  0.1600E+02
     -2.713  0.7758E-03  0.7728E-03  0.1600E+02  0.1600E+02
     -2.520  0.2875E-01  0.2866E-01  0.1601E+02  0.1601E+02
     -2.327  0.2241E+00  0.2239E+00  0.1605E+02  0.1605E+02
     -2.134  0.4626E+00  0.4624E+00  0.1614E+02  0.1614E+02
     -1.941  0.5737E+00  0.5735E+00  0.1625E+02  0.1625E+02
     -1.748  0.7180E+00  0.7179E+00  0.1639E+02  0.1639E+02
     -1.555  0.7587E+00  0.7587E+00  0.1654E+02  0.1654E+02
     -1.362  0.1009E+01  0.1008E+01  0.1673E+02  0.1673E+02
     -1.169  0.9640E+00  0.9642E+00  0.1692E+02  0.1692E+02
     -0.977  0.1176E+01  0.1176E+01  0.1714E+02  0.1714E+02
     -0.784  0.1348E+01  0.1348E+01  0.1741E+02  0.1740E+02
     -0.591  0.1311E+01  0.1311E+01  0.1766E+02  0.1766E+02
     -0.398  0.1513E+01  0.1513E+01  0.1795E+02  0.1795E+02
     -0.205  0.1598E+01  0.1597E+01  0.1826E+02  0.1826E+02
     -0.012  0.1518E+01  0.1519E+01  0.1856E+02  0.1856E+02
      0.181  0.1273E+01  0.1272E+01  0.1880E+02  0.1880E+02
      0.374  0.1512E+01  0.1512E+01  0.1910E+02  0.1910E+02
      0.567  0.1424E+01  0.1423E+01  0.1937E+02  0.1937E+02
      0.760  0.1694E+01  0.1694E+01  0.1970E+02  0.1970E+02
      0.953  0.1659E+01  0.1659E+01  0.2002E+02  0.2002E+02
      1.146  0.1617E+01  0.1617E+01  0.2033E+02  0.2033E+02
      1.339  0.2048E+01  0.2048E+01  0.2073E+02  0.2073E+02
      1.532  0.2159E+01  0.2159E+01  0.2115E+02  0.2115E+02
      1.725  0.2029E+01  0.2029E+01  0.2154E+02  0.2154E+02
      1.918  0.1928E+01  0.1928E+01  0.2192E+02  0.2192E+02
      2.111  0.1890E+01  0.1891E+01  0.2228E+02  0.2228E+02
      2.304  0.1818E+01  0.1817E+01  0.2263E+02  0.2263E+02
      2.497  0.2400E+01  0.2400E+01  0.2310E+02  0.2310E+02
      2.690  0.1925E+01  0.1925E+01  0.2347E+02  0.2347E+02
      2.883  0.2232E+01  0.2231E+01  0.2391E+02  0.2390E+02
      3.076  0.2553E+01  0.2553E+01  0.2440E+02  0.2440E+02
      3.269  0.3042E+01  0.3041E+01  0.2499E+02  0.2499E+02
      3.462  0.2660E+01  0.2660E+01  0.2550E+02  0.2550E+02
      3.655  0.2185E+01  0.2185E+01  0.2593E+02  0.2593E+02
      3.848  0.1896E+01  0.1896E+01  0.2629E+02  0.2629E+02
      4.041  0.2406E+01  0.2405E+01  0.2676E+02  0.2676E+02
      4.234  0.3075E+01  0.3075E+01  0.2736E+02  0.2735E+02
      4.427  0.2354E+01  0.2354E+01  0.2781E+02  0.2781E+02
      4.620  0.3063E+01  0.3063E+01  0.2841E+02  0.2840E+02
      4.813  0.3174E+01  0.3173E+01  0.2902E+02  0.2902E+02
      5.006  0.3741E+01  0.3741E+01  0.2974E+02  0.2974E+02
      5.199  0.3373E+01  0.3373E+01  0.3040E+02  0.3040E+02
      5.392  0.4105E+01  0.4105E+01  0.3119E+02  0.3119E+02
      5.585  0.4212E+01  0.4212E+01  0.3201E+02  0.3201E+02
      5.778  0.3478E+01  0.3478E+01  0.3268E+02  0.3268E+02
      5.971  0.3331E+01  0.3330E+01  0.3333E+02  0.3333E+02
      6.164  0.4043E+01  0.4042E+01  0.3411E+02  0.3411E+02
      6.357  0.4347E+01  0.4346E+01  0.3495E+02  0.3495E+02
      6.550  0.5122E+01  0.5122E+01  0.3594E+02  0.3594E+02
      6.742  0.5098E+01  0.5096E+01  0.3693E+02  0.3693E+02
      6.935  0.4673E+01  0.4675E+01  0.3784E+02  0.3784E+02
      7.128  0.3937E+01  0.3938E+01  0.3860E+02  0.3860E+02
      7.321  0.3968E+01  0.3968E+01  0.3937E+02  0.3937E+02
      7.514  0.3536E+01  0.3537E+01  0.4006E+02  0.4005E+02
      7.707  0.3126E+01  0.3127E+01  0.4066E+02  0.4066E+02
      7.900  0.2409E+01  0.2411E+01  0.4113E+02  0.4113E+02
      8.093  0.2032E+01  0.2031E+01  0.4152E+02  0.4152E+02
      8.286  0.2037E+01  0.2037E+01  0.4192E+02  0.4192E+02
      8.479  0.2506E+01  0.2504E+01  0.4240E+02  0.4240E+02
      8.672  0.2756E+01  0.2756E+01  0.4294E+02  0.4294E+02
      8.865  0.3266E+01  0.3266E+01  0.4357E+02  0.4357E+02
      9.058  0.3137E+01  0.3136E+01  0.4418E+02  0.4418E+02
      9.251  0.4066E+01  0.4061E+01  0.4496E+02  0.4496E+02
      9.444  0.5174E+01  0.5181E+01  0.4597E+02  0.4597E+02
      9.637  0.5714E+01  0.5713E+01  0.4707E+02  0.4707E+02
      9.830  0.5247E+01  0.5239E+01  0.4809E+02  0.4809E+02
     10.023  0.5860E+01  0.5870E+01  0.4923E+02  0.4923E+02
     10.216  0.5741E+01  0.5798E+01  0.5034E+02  0.5035E+02
     10.409  0.6456E+01  0.6487E+01  0.5159E+02  0.5160E+02
     10.602  0.6854E+01  0.7051E+01  0.5292E+02  0.5297E+02
     10.795  0.5974E+01  0.6035E+01  0.5407E+02  0.5414E+02
     10.988  0.4262E+01  0.3896E+01  0.5490E+02  0.5490E+02
     11.181  0.2916E+01  0.2998E+01  0.5547E+02  0.5548E+02
     11.374  0.1685E+01  0.1937E+01  0.5580E+02  0.5586E+02
     11.567  0.7652E+00  0.6815E+00  0.5595E+02  0.5599E+02
     11.760  0.2602E+00  0.4348E-01  0.5600E+02  0.5600E+02
     11.953  0.1262E-01  0.0000E+00  0.5600E+02  0.5600E+02
     12.146  0.0000E+00  0.0000E+00  0.5600E+02  0.5600E+02
     12.339  0.0000E+00  0.0000E+00  0.5600E+02  0.5600E+02
     12.532  0.0000E+00  0.0000E+00  0.5600E+02  0.5600E+02
     12.725  0.0000E+00  0.0000E+00  0.5600E+02  0.5600E+02
     12.918  0.0000E+00  0.0000E+00  0.5600E+02  0.5600E+02
     13.111  0.0000E+00  0.0000E+00  0.5600E+02  0.5600E+02
     13.304  0.0000E+00  0.0000E+00  0.5600E+02  0.5600E+02
     13.497  0.0000E+00  0.0000E+00  0.5600E+02  0.5600E+02
     13.690  0.0000E+00  0.0000E+00  0.5600E+02  0.5600E+02
     13.883  0.0000E+00  0.0000E+00  0.5600E+02  0.5600E+02
     14.076  0.0000E+00  0.0000E+00  0.5600E+02  0.5600E+02
     14.268  0.0000E+00  0.0000E+00  0.5600E+02  0.5600E+02
     14.26848225    -43.62386836  301      7.49765348      1.00000000
    -43.624  0.0000E+00  0.0000E+00  0.0000E+00  0.0000E+00  0.0000E+00  0.0000E+00  0.0000E+00  0.0000E+00  0.0000E+00  0.0000E+00  0.0000E+00  0.0000E+00  0.0000E+00  0.0000E+00  0.0000E+00  0.0000E+00  0.0000E+00  0.0000E+00
    -43.431  0.0000E+00  0.0000E+00  0.0000E+00  0.0000E+00  0.0000E+00  0.0000E+00  0.0000E+00  0.0000E+00  0.0000E+00  0.0000E+00  0.0000E+00  0.0000E+00  0.0000E+00  0.0000E+00  0.0000E+00  0.0000E+00  0.0000E+00  0.0000E+00
    -43.238  0.0000E+00  0.0000E+00  0.0000E+00  0.0000E+00  0.0000E+00  0.0000E+00  0.0000E+00  0.0000E+00  0.0000E+00  0.0000E+00  0.0000E+00  0.0000E+00  0.0000E+00  0.0000E+00  0.0000E+00  0.0000E+00  0.0000E+00  0.0000E+00
    -43.045  0.0000E+00  0.0000E+00  0.0000E+00  0.0000E+00  0.0000E+00  0.0000E+00  0.0000E+00  0.0000E+00  0.0000E+00  0.0000E+00  0.0000E+00  0.0000E+00  0.0000E+00  0.0000E+00  0.0000E+00  0.0000E+00  0.0000E+00  0.0000E+00
    -42.852  0.0000E+00  0.0000E+00  0.0000E+00  0.0000E+00  0.0000E+00  0.0000E+00  0.0000E+00  0.0000E+00  0.0000E+00  0.0000E+00  0.0000E+00  0.0000E+00  0.0000E+00  0.0000E+00  0.0000E+00  0.0000E+00  0.0000E+00  0.0000E+00
    -42.659  0.0000E+00  0.0000E+00  0.0000E+00  0.0000E+00  0.0000E+00  0.0000E+00  0.0000E+00  0.0000E+00  0.0000E+00  0.0000E+00  0.0000E+00  0.0000E+00  0.0000E+00  0.0000E+00  0.0000E+00  0.0000E+00  0.0000E+00  0.0000E+00
    -42.466  0.0000E+00  0.0000E+00  0.0000E+00  0.0000E+00  0.0000E+00  0.0000E+00  0.0000E+00  0.0000E+00  0.0000E+00  0.0000E+00  0.0000E+00  0.0000E+00  0.0000E+00  0.0000E+00  0.0000E+00  0.0000E+00  0.0000E+00  0.0000E+00
    -42.273  0.0000E+00  0.0000E+00  0.0000E+00  0.0000E+00  0.0000E+00  0.0000E+00  0.0000E+00  0.0000E+00  0.0000E+00  0.0000E+00  0.0000E+00  0.0000E+00  0.0000E+00  0.0000E+00  0.0000E+00  0.0000E+00  0.0000E+00  0.0000E+00
    -42.080  0.0000E+00  0.0000E+00  0.0000E+00  0.0000E+00  0.0000E+00  0.0000E+00  0.0000E+00  0.0000E+00  0.0000E+00  0.0000E+00  0.0000E+00  0.0000E+00  0.0000E+00  0.0000E+00  0.0000E+00  0.0000E+00  0.0000E+00  0.0000E+00
    -41.887  0.0000E+00  0.0000E+00  0.0000E+00  0.0000E+00  0.0000E+00  0.0000E+00  0.0000E+00  0.0000E+00  0.0000E+00  0.0000E+00  0.0000E+00  0.0000E+00  0.0000E+00  0.0000E+00  0.0000E+00  0.0000E+00  0.0000E+00  0.0000E+00
    -41.694  0.0000E+00  0.0000E+00  0.0000E+00  0.0000E+00  0.0000E+00  0.0000E+00  0.0000E+00  0.0000E+00  0.0000E+00  0.0000E+00  0.0000E+00  0.0000E+00  0.0000E+00  0.0000E+00  0.0000E+00  0.0000E+00  0.0000E+00  0.0000E+00
    -41.501  0.1856E-03  0.1845E-03  0.1910E-11  0.1891E-11  0.6374E-09  0.6348E-09  0.1910E-11  0.1891E-11  0.2257E-13  0.1705E-13  0.2697E-13  0.1237E-13  0.1352E-10  0.1392E-10  0.2697E-13  0.1237E-13  0.1132E-11  0.1189E-11
    -41.308  0.8606E-02  0.8554E-02  0.8856E-10  0.8769E-10  0.2955E-07  0.2943E-07  0.8856E-10  0.8769E-10  0.1047E-11  0.7904E-12  0.1250E-11  0.5734E-12  0.6269E-09  0.6454E-09  0.1250E-11  0.5734E-12  0.5248E-10  0.5514E-10
    -41.115  0.3777E+00  0.3756E+00  0.3887E-08  0.3850E-08  0.1297E-05  0.1292E-05  0.3887E-08  0.3850E-08  0.4594E-10  0.3472E-10  0.5487E-10  0.2519E-10  0.2750E-07  0.2833E-07  0.5487E-10  0.2519E-10  0.2304E-08  0.2421E-08
    -40.922  0.3708E+01  0.3705E+01  0.3813E-07  0.3795E-07  0.1273E-04  0.1274E-04  0.3813E-07  0.3795E-07  0.4513E-09  0.3443E-09  0.5389E-09  0.2494E-09  0.2688E-06  0.2783E-06  0.5389E-09  0.2494E-09  0.2263E-07  0.2389E-07
    -40.729  0.1038E+01  0.1043E+01  0.1067E-07  0.1068E-07  0.3562E-05  0.3586E-05  0.1067E-07  0.1068E-07  0.1265E-09  0.9753E-10  0.1510E-09  0.7059E-10  0.7490E-07  0.7803E-07  0.1510E-09  0.7059E-10  0.6341E-08  0.6731E-08
    -40.536  0.0000E+00  0.0000E+00  0.0000E+00  0.0000E+00  0.0000E+00  0.0000E+00  0.0000E+00  0.0000E+00  0.0000E+00  0.0000E+00  0.0000E+00  0.0000E+00  0.0000E+00  0.0000E+00  0.0000E+00  0.0000E+00  0.0000E+00  0.0000E+00
    -40.343  0.0000E+00  0.0000E+00  0.0000E+00  0.0000E+00  0.0000E+00  0.0000E+00  0.0000E+00  0.0000E+00  0.0000E+00  0.0000E+00  0.0000E+00  0.0000E+00  0.0000E+00  0.0000E+00  0.0000E+00  0.0000E+00  0.0000E+00  0.0000E+00
    -40.150  0.0000E+00  0.0000E+00  0.0000E+00  0.0000E+00  0.0000E+00  0.0000E+00  0.0000E+00  0.0000E+00  0.0000E+00  0.0000E+00  0.0000E+00  0.0000E+00  0.0000E+00  0.0000E+00  0.0000E+00  0.0000E+00  0.0000E+00  0.0000E+00
    -39.957  0.0000E+00  0.0000E+00  0.0000E+00  0.0000E+00  0.0000E+00  0.0000E+00  0.0000E+00  0.0000E+00  0.0000E+00  0.0000E+00  0.0000E+00  0.0000E+00  0.0000E+00  0.0000E+00  0.0000E+00  0.0000E+00  0.0000E+00  0.0000E+00
    -39.764  0.0000E+00  0.0000E+00  0.0000E+00  0.0000E+00  0.0000E+00  0.0000E+00  0.0000E+00  0.0000E+00  0.0000E+00  0.0000E+00  0.0000E+00  0.0000E+00  0.0000E+00  0.0000E+00  0.0000E+00  0.0000E+00  0.0000E+00  0.0000E+00
    -39.571  0.0000E+00  0.0000E+00  0.0000E+00  0.0000E+00  0.0000E+00  0.0000E+00  0.0000E+00  0.0000E+00  0.0000E+00  0.0000E+00  0.0000E+00  0.0000E+00  0.0000E+00  0.0000E+00  0.0000E+00  0.0000E+00  0.0000E+00  0.0000E+00
    -39.378  0.0000E+00  0.0000E+00  0.0000E+00  0.0000E+00  0.0000E+00  0.0000E+00  0.0000E+00  0.0000E+00  0.0000E+00  0.0000E+00  0.0000E+00  0.0000E+00  0.0000E+00  0.0000E+00  0.0000E+00  0.0000E+00  0.0000E+00  0.0000E+00
    -39.185  0.0000E+00  0.0000E+00  0.0000E+00  0.0000E+00  0.0000E+00  0.0000E+00  0.0000E+00  0.0000E+00  0.0000E+00  0.0000E+00  0.0000E+00  0.0000E+00  0.0000E+00  0.0000E+00  0.0000E+00  0.0000E+00  0.0000E+00  0.0000E+00
    -38.992  0.0000E+00  0.0000E+00  0.0000E+00  0.0000E+00  0.0000E+00  0.0000E+00  0.0000E+00  0.0000E+00  0.0000E+00  0.0000E+00  0.0000E+00  0.0000E+00  0.0000E+00  0.0000E+00  0.0000E+00  0.0000E+00  0.0000E+00  0.0000E+00
    -38.800  0.0000E+00  0.0000E+00  0.0000E+00  0.0000E+00  0.0000E+00  0.0000E+00  0.0000E+00  0.0000E+00  0.0000E+00  0.0000E+00  0.0000E+00  0.0000E+00  0.0000E+00  0.0000E+00  0.0000E+00  0.0000E+00  0.0000E+00  0.0000E+00
    -38.607  0.0000E+00  0.0000E+00  0.0000E+00  0.0000E+00  0.0000E+00  0.0000E+00  0.0000E+00  0.0000E+00  0.0000E+00  0.0000E+00  0.0000E+00  0.0000E+00  0.0000E+00  0.0000E+00  0.0000E+00  0.0000E+00  0.0000E+00  0.0000E+00
    -38.414  0.0000E+00  0.0000E+00  0.0000E+00  0.0000E+00  0.0000E+00  0.0000E+00  0.0000E+00  0.0000E+00  0.0000E+00  0.0000E+00  0.0000E+00  0.0000E+00  0.0000E+00  0.0000E+00  0.0000E+00  0.0000E+00  0.0000E+00  0.0000E+00
    -38.221  0.0000E+00  0.0000E+00  0.0000E+00  0.0000E+00  0.0000E+00  0.0000E+00  0.0000E+00  0.0000E+00  0.0000E+00  0.0000E+00  0.0000E+00  0.0000E+00  0.0000E+00  0.0000E+00  0.0000E+00  0.0000E+00  0.0000E+00  0.0000E+00
    -38.028  0.0000E+00  0.0000E+00  0.0000E+00  0.0000E+00  0.0000E+00  0.0000E+00  0.0000E+00  0.0000E+00  0.0000E+00  0.0000E+00  0.0000E+00  0.0000E+00  0.0000E+00  0.0000E+00  0.0000E+00  0.0000E+00  0.0000E+00  0.0000E+00
    -37.835  0.0000E+00  0.0000E+00  0.0000E+00  0.0000E+00  0.0000E+00  0.0000E+00  0.0000E+00  0.0000E+00  0.0000E+00  0.0000E+00  0.0000E+00  0.0000E+00  0.0000E+00  0.0000E+00  0.0000E+00  0.0000E+00  0.0000E+00  0.0000E+00
    -37.642  0.0000E+00  0.0000E+00  0.0000E+00  0.0000E+00  0.0000E+00  0.0000E+00  0.0000E+00  0.0000E+00  0.0000E+00  0.0000E+00  0.0000E+00  0.0000E+00  0.0000E+00  0.0000E+00  0.0000E+00  0.0000E+00  0.0000E+00  0.0000E+00
    -37.449  0.0000E+00  0.0000E+00  0.0000E+00  0.0000E+00  0.0000E+00  0.0000E+00  0.0000E+00  0.0000E+00  0.0000E+00  0.0000E+00  0.0000E+00  0.0000E+00  0.0000E+00  0.0000E+00  0.0000E+00  0.0000E+00  0.0000E+00  0.0000E+00
    -37.256  0.0000E+00  0.0000E+00  0.0000E+00  0.0000E+00  0.0000E+00  0.0000E+00  0.0000E+00  0.0000E+00  0.0000E+00  0.0000E+00  0.0000E+00  0.0000E+00  0.0000E+00  0.0000E+00  0.0000E+00  0.0000E+00  0.0000E+00  0.0000E+00
    -37.063  0.0000E+00  0.0000E+00  0.0000E+00  0.0000E+00  0.0000E+00  0.0000E+00  0.0000E+00  0.0000E+00  0.0000E+00  0.0000E+00  0.0000E+00  0.0000E+00  0.0000E+00  0.0000E+00  0.0000E+00  0.0000E+00  0.0000E+00  0.0000E+00
    -36.870  0.0000E+00  0.0000E+00  0.0000E+00  0.0000E+00  0.0000E+00  0.0000E+00  0.0000E+00  0.0000E+00  0.0000E+00  0.0000E+00  0.0000E+00  0.0000E+00  0.0000E+00  0.0000E+00  0.0000E+00  0.0000E+00  0.0000E+00  0.0000E+00
    -36.677  0.0000E+00  0.0000E+00  0.0000E+00  0.0000E+00  0.0000E+00  0.0000E+00  0.0000E+00  0.0000E+00  0.0000E+00  0.0000E+00  0.0000E+00  0.0000E+00  0.0000E+00  0.0000E+00  0.0000E+00  0.0000E+00  0.0000E+00  0.0000E+00
    -36.484  0.0000E+00  0.0000E+00  0.0000E+00  0.0000E+00  0.0000E+00  0.0000E+00  0.0000E+00  0.0000E+00  0.0000E+00  0.0000E+00  0.0000E+00  0.0000E+00  0.0000E+00  0.0000E+00  0.0000E+00  0.0000E+00  0.0000E+00  0.0000E+00
    -36.291  0.0000E+00  0.0000E+00  0.0000E+00  0.0000E+00  0.0000E+00  0.0000E+00  0.0000E+00  0.0000E+00  0.0000E+00  0.0000E+00  0.0000E+00  0.0000E+00  0.0000E+00  0.0000E+00  0.0000E+00  0.0000E+00  0.0000E+00  0.0000E+00
    -36.098  0.0000E+00  0.0000E+00  0.0000E+00  0.0000E+00  0.0000E+00  0.0000E+00  0.0000E+00  0.0000E+00  0.0000E+00  0.0000E+00  0.0000E+00  0.0000E+00  0.0000E+00  0.0000E+00  0.0000E+00  0.0000E+00  0.0000E+00  0.0000E+00
    -35.905  0.0000E+00  0.0000E+00  0.0000E+00  0.0000E+00  0.0000E+00  0.0000E+00  0.0000E+00  0.0000E+00  0.0000E+00  0.0000E+00  0.0000E+00  0.0000E+00  0.0000E+00  0.0000E+00  0.0000E+00  0.0000E+00  0.0000E+00  0.0000E+00
    -35.712  0.0000E+00  0.0000E+00  0.0000E+00  0.0000E+00  0.0000E+00  0.0000E+00  0.0000E+00  0.0000E+00  0.0000E+00  0.0000E+00  0.0000E+00  0.0000E+00  0.0000E+00  0.0000E+00  0.0000E+00  0.0000E+00  0.0000E+00  0.0000E+00
    -35.519  0.0000E+00  0.0000E+00  0.0000E+00  0.0000E+00  0.0000E+00  0.0000E+00  0.0000E+00  0.0000E+00  0.0000E+00  0.0000E+00  0.0000E+00  0.0000E+00  0.0000E+00  0.0000E+00  0.0000E+00  0.0000E+00  0.0000E+00  0.0000E+00
    -35.326  0.0000E+00  0.0000E+00  0.0000E+00  0.0000E+00  0.0000E+00  0.0000E+00  0.0000E+00  0.0000E+00  0.0000E+00  0.0000E+00  0.0000E+00  0.0000E+00  0.0000E+00  0.0000E+00  0.0000E+00  0.0000E+00  0.0000E+00  0.0000E+00
    -35.133  0.0000E+00  0.0000E+00  0.0000E+00  0.0000E+00  0.0000E+00  0.0000E+00  0.0000E+00  0.0000E+00  0.0000E+00  0.0000E+00  0.0000E+00  0.0000E+00  0.0000E+00  0.0000E+00  0.0000E+00  0.0000E+00  0.0000E+00  0.0000E+00
    -34.940  0.0000E+00  0.0000E+00  0.0000E+00  0.0000E+00  0.0000E+00  0.0000E+00  0.0000E+00  0.0000E+00  0.0000E+00  0.0000E+00  0.0000E+00  0.0000E+00  0.0000E+00  0.0000E+00  0.0000E+00  0.0000E+00  0.0000E+00  0.0000E+00
    -34.747  0.0000E+00  0.0000E+00  0.0000E+00  0.0000E+00  0.0000E+00  0.0000E+00  0.0000E+00  0.0000E+00  0.0000E+00  0.0000E+00  0.0000E+00  0.0000E+00  0.0000E+00  0.0000E+00  0.0000E+00  0.0000E+00  0.0000E+00  0.0000E+00
    -34.554  0.0000E+00  0.0000E+00  0.0000E+00  0.0000E+00  0.0000E+00  0.0000E+00  0.0000E+00  0.0000E+00  0.0000E+00  0.0000E+00  0.0000E+00  0.0000E+00  0.0000E+00  0.0000E+00  0.0000E+00  0.0000E+00  0.0000E+00  0.0000E+00
    -34.361  0.0000E+00  0.0000E+00  0.0000E+00  0.0000E+00  0.0000E+00  0.0000E+00  0.0000E+00  0.0000E+00  0.0000E+00  0.0000E+00  0.0000E+00  0.0000E+00  0.0000E+00  0.0000E+00  0.0000E+00  0.0000E+00  0.0000E+00  0.0000E+00
    -34.168  0.0000E+00  0.0000E+00  0.0000E+00  0.0000E+00  0.0000E+00  0.0000E+00  0.0000E+00  0.0000E+00  0.0000E+00  0.0000E+00  0.0000E+00  0.0000E+00  0.0000E+00  0.0000E+00  0.0000E+00  0.0000E+00  0.0000E+00  0.0000E+00
    -33.975  0.0000E+00  0.0000E+00  0.0000E+00  0.0000E+00  0.0000E+00  0.0000E+00  0.0000E+00  0.0000E+00  0.0000E+00  0.0000E+00  0.0000E+00  0.0000E+00  0.0000E+00  0.0000E+00  0.0000E+00  0.0000E+00  0.0000E+00  0.0000E+00