  16  16   1   0
  0.1980593E+02  0.4204554E-09  0.4204554E-09  0.1792567E-08  0.5000000E-15
  1.000000000000000E-004
  CAR 
 unknown system                          
     11.76823736    -46.19591190  301      5.71127491      1.00000000
    -46.196  0.0000E+00  0.0000E+00  0.0000E+00  0.0000E+00
    -46.003  0.0000E+00  0.0000E+00  0.0000E+00  0.0000E+00
    -45.809  0.0000E+00  0.0000E+00  0.0000E+00  0.0000E+00
    -45.616  0.0000E+00  0.0000E+00  0.0000E+00  0.0000E+00
    -45.423  0.0000E+00  0.0000E+00  0.0000E+00  0.0000E+00
    -45.230  0.0000E+00  0.0000E+00  0.0000E+00  0.0000E+00
    -45.037  0.0000E+00  0.0000E+00  0.0000E+00  0.0000E+00
    -44.843  0.0000E+00  0.0000E+00  0.0000E+00  0.0000E+00
    -44.650  0.0000E+00  0.0000E+00  0.0000E+00  0.0000E+00
    -44.457  0.0000E+00  0.0000E+00  0.0000E+00  0.0000E+00
    -44.264  0.0000E+00  0.0000E+00  0.0000E+00  0.0000E+00
    -44.071  0.7657E-03  0.7525E-03  0.1479E-03  0.1454E-03
    -43.877  0.3567E-01  0.3506E-01  0.7040E-02  0.6919E-02
    -43.684  0.1569E+01  0.1544E+01  0.3101E+00  0.3052E+00
    -43.491  0.1496E+02  0.1493E+02  0.3201E+01  0.3190E+01
    -43.298  0.4028E+01  0.4083E+01  0.3979E+01  0.3979E+01
    -43.104  0.0000E+00  0.0000E+00  0.4000E+01  0.4000E+01
    -42.911  0.0000E+00  0.0000E+00  0.4000E+01  0.4000E+01
    -42.718  0.0000E+00  0.0000E+00  0.4000E+01  0.4000E+01
    -42.525  0.0000E+00  0.0000E+00  0.4000E+01  0.4000E+01
    -42.332  0.0000E+00  0.0000E+00  0.4000E+01  0.4000E+01
    -42.138  0.0000E+00  0.0000E+00  0.4000E+01  0.4000E+01
    -41.945  0.0000E+00  0.0000E+00  0.4000E+01  0.4000E+01
    -41.752  0.0000E+00  0.0000E+00  0.4000E+01  0.4000E+01
    -41.559  0.0000E+00  0.0000E+00  0.4000E+01  0.4000E+01
    -41.366  0.0000E+00  0.0000E+00  0.4000E+01  0.4000E+01
    -41.172  0.0000E+00  0.0000E+00  0.4000E+01  0.4000E+01
    -40.979  0.0000E+00  0.0000E+00  0.4000E+01  0.4000E+01
    -40.786  0.0000E+00  0.0000E+00  0.4000E+01  0.4000E+01
    -40.593  0.0000E+00  0.0000E+00  0.4000E+01  0.4000E+01
    -40.399  0.0000E+00  0.0000E+00  0.4000E+01  0.4000E+01
    -40.206  0.0000E+00  0.0000E+00  0.4000E+01  0.4000E+01
    -40.013  0.0000E+00  0.0000E+00  0.4000E+01  0.4000E+01
    -39.820  0.0000E+00  0.0000E+00  0.4000E+01  0.4000E+01
    -39.627  0.0000E+00  0.0000E+00  0.4000E+01  0.4000E+01
    -39.433  0.0000E+00  0.0000E+00  0.4000E+01  0.4000E+01
    -39.240  0.0000E+00  0.0000E+00  0.4000E+01  0.4000E+01
    -39.047  0.0000E+00  0.0000E+00  0.4000E+01  0.4000E+01
    -38.854  0.0000E+00  0.0000E+00  0.4000E+01  0.4000E+01
    -38.661  0.0000E+00  0.0000E+00  0.4000E+01  0.4000E+01
    -38.467  0.0000E+00  0.0000E+00  0.4000E+01  0.4000E+01
    -38.274  0.0000E+00  0.0000E+00  0.4000E+01  0.4000E+01
    -38.081  0.0000E+00  0.0000E+00  0.4000E+01  0.4000E+01
    -37.888  0.0000E+00  0.0000E+00  0.4000E+01  0.4000E+01
    -37.695  0.0000E+00  0.0000E+00  0.4000E+01  0.4000E+01
    -37.501  0.0000E+00  0.0000E+00  0.4000E+01  0.4000E+01
    -37.308  0.0000E+00  0.0000E+00  0.4000E+01  0.4000E+01
    -37.115  0.0000E+00  0.0000E+00  0.4000E+01  0.4000E+01
    -36.922  0.0000E+00  0.0000E+00  0.4000E+01  0.4000E+01
    -36.728  0.0000E+00  0.0000E+00  0.4000E+01  0.4000E+01
    -36.535  0.0000E+00  0.0000E+00  0.4000E+01  0.4000E+01
    -36.342  0.0000E+00  0.0000E+00  0.4000E+01  0.4000E+01
    -36.149  0.0000E+00  0.0000E+00  0.4000E+01  0.4000E+01
    -35.956  0.0000E+00  0.0000E+00  0.4000E+01  0.4000E+01
    -35.762  0.0000E+00  0.0000E+00  0.4000E+01  0.4000E+01
    -35.569  0.0000E+00  0.0000E+00  0.4000E+01  0.4000E+01
    -35.376  0.0000E+00  0.0000E+00  0.4000E+01  0.4000E+01
    -35.183  0.0000E+00  0.0000E+00  0.4000E+01  0.4000E+01
    -34.990  0.0000E+00  0.0000E+00  0.4000E+01  0.4000E+01
    -34.796  0.0000E+00  0.0000E+00  0.4000E+01  0.4000E+01
    -34.603  0.0000E+00  0.0000E+00  0.4000E+01  0.4000E+01
    -34.410  0.0000E+00  0.0000E+00  0.4000E+01  0.4000E+01
    -34.217  0.0000E+00  0.0000E+00  0.4000E+01  0.4000E+01
    -34.023  0.0000E+00  0.0000E+00  0.4000E+01  0.4000E+01
    -33.830  0.0000E+00  0.0000E+00  0.4000E+01  0.4000E+01
    -33.637  0.0000E+00  0.0000E+00  0.4000E+01  0.4000E+01
    -33.444  0.0000E+00  0.0000E+00  0.4000E+01  0.4000E+01
    -33.251  0.0000E+00  0.0000E+00  0.4000E+01  0.4000E+01
    -33.057  0.0000E+00  0.0000E+00  0.4000E+01  0.4000E+01
    -32.864  0.0000E+00  0.0000E+00  0.4000E+01  0.4000E+01
    -32.671  0.0000E+00  0.0000E+00  0.4000E+01  0.4000E+01
    -32.478  0.0000E+00  0.0000E+00  0.4000E+01  0.4000E+01
    -32.285  0.0000E+00  0.0000E+00  0.4000E+01  0.4000E+01
    -32.091  0.0000E+00  0.0000E+00  0.4000E+01  0.4000E+01
    -31.898  0.0000E+00  0.0000E+00  0.4000E+01  0.4000E+01
    -31.705  0.0000E+00  0.0000E+00  0.4000E+01  0.4000E+01
    -31.512  0.0000E+00  0.0000E+00  0.4000E+01  0.4000E+01
    -31.318  0.0000E+00  0.0000E+00  0.4000E+01  0.4000E+01
    -31.125  0.0000E+00  0.0000E+00  0.4000E+01  0.4000E+01
    -30.932  0.0000E+00  0.0000E+00  0.4000E+01  0.4000E+01
    -30.739  0.0000E+00  0.0000E+00  0.4000E+01  0.4000E+01
    -30.546  0.0000E+00  0.0000E+00  0.4000E+01  0.4000E+01
    -30.352  0.0000E+00  0.0000E+00  0.4000E+01  0.4000E+01
    -30.159  0.0000E+00  0.0000E+00  0.4000E+01  0.4000E+01
    -29.966  0.0000E+00  0.0000E+00  0.4000E+01  0.4000E+01
    -29.773  0.0000E+00  0.0000E+00  0.4000E+01  0.4000E+01
    -29.580  0.0000E+00  0.0000E+00  0.4000E+01  0.4000E+01
    -29.386  0.0000E+00  0.0000E+00  0.4000E+01  0.4000E+01
    -29.193  0.0000E+00  0.0000E+00  0.4000E+01  0.4000E+01
    -29.000  0.0000E+00  0.0000E+00  0.4000E+01  0.4000E+01
    -28.807  0.0000E+00  0.0000E+00  0.4000E+01  0.4000E+01
    -28.613  0.0000E+00  0.0000E+00  0.4000E+01  0.4000E+01
    -28.420  0.0000E+00  0.0000E+00  0.4000E+01  0.4000E+01
    -28.227  0.0000E+00  0.0000E+00  0.4000E+01  0.4000E+01
    -28.034  0.0000E+00  0.0000E+00  0.4000E+01  0.4000E+01
    -27.841  0.0000E+00  0.0000E+00  0.4000E+01  0.4000E+01
    -27.647  0.0000E+00  0.0000E+00  0.4000E+01  0.4000E+01
    -27.454  0.0000E+00  0.0000E+00  0.4000E+01  0.4000E+01
    -27.261  0.0000E+00  0.0000E+00  0.4000E+01  0.4000E+01
    -27.068  0.0000E+00  0.0000E+00  0.4000E+01  0.4000E+01
    -26.875  0.0000E+00  0.0000E+00  0.4000E+01  0.4000E+01
    -26.681  0.0000E+00  0.0000E+00  0.4000E+01  0.4000E+01
    -26.488  0.0000E+00  0.0000E+00  0.4000E+01  0.4000E+01
    -26.295  0.0000E+00  0.0000E+00  0.4000E+01  0.4000E+01
    -26.102  0.0000E+00  0.0000E+00  0.4000E+01  0.4000E+01
    -25.908  0.0000E+00  0.0000E+00  0.4000E+01  0.4000E+01
    -25.715  0.0000E+00  0.0000E+00  0.4000E+01  0.4000E+01
    -25.522  0.0000E+00  0.0000E+00  0.4000E+01  0.4000E+01
    -25.329  0.0000E+00  0.0000E+00  0.4000E+01  0.4000E+01
    -25.136  0.0000E+00  0.0000E+00  0.4000E+01  0.4000E+01
    -24.942  0.0000E+00  0.0000E+00  0.4000E+01  0.4000E+01
    -24.749  0.0000E+00  0.0000E+00  0.4000E+01  0.4000E+01
    -24.556  0.0000E+00  0.0000E+00  0.4000E+01  0.4000E+01
    -24.363  0.0000E+00  0.0000E+00  0.4000E+01  0.4000E+01
    -24.170  0.0000E+00  0.0000E+00  0.4000E+01  0.4000E+01
    -23.976  0.0000E+00  0.0000E+00  0.4000E+01  0.4000E+01
    -23.783  0.0000E+00  0.0000E+00  0.4000E+01  0.4000E+01
    -23.590  0.0000E+00  0.0000E+00  0.4000E+01  0.4000E+01
    -23.397  0.0000E+00  0.0000E+00  0.4000E+01  0.4000E+01
    -23.203  0.0000E+00  0.0000E+00  0.4000E+01  0.4000E+01
    -23.010  0.0000E+00  0.0000E+00  0.4000E+01  0.4000E+01
    -22.817  0.1056E-03  0.9501E-04  0.4000E+01  0.4000E+01
    -22.624  0.1859E-01  0.1823E-01  0.4004E+01  0.4004E+01
    -22.431  0.8599E+00  0.8431E+00  0.4170E+01  0.4166E+01
    -22.237  0.2425E+02  0.2397E+02  0.8855E+01  0.8798E+01
    -22.044  0.3510E+02  0.3536E+02  0.1564E+02  0.1563E+02
    -21.851  0.1836E+01  0.1872E+01  0.1599E+02  0.1599E+02
    -21.658  0.0000E+00  0.0000E+00  0.1600E+02  0.1600E+02
    -21.465  0.0000E+00  0.0000E+00  0.1600E+02  0.1600E+02
    -21.271  0.0000E+00  0.0000E+00  0.1600E+02  0.1600E+02
    -21.078  0.0000E+00  0.0000E+00  0.1600E+02  0.1600E+02
    -20.885  0.0000E+00  0.0000E+00  0.1600E+02  0.1600E+02
    -20.692  0.0000E+00  0.0000E+00  0.1600E+02  0.1600E+02
    -20.498  0.0000E+00  0.0000E+00  0.1600E+02  0.1600E+02
    -20.305  0.0000E+00  0.0000E+00  0.1600E+02  0.1600E+02
    -20.112  0.0000E+00  0.0000E+00  0.1600E+02  0.1600E+02
    -19.919  0.0000E+00  0.0000E+00  0.1600E+02  0.1600E+02
    -19.726  0.0000E+00  0.0000E+00  0.1600E+02  0.1600E+02
    -19.532  0.0000E+00  0.0000E+00  0.1600E+02  0.1600E+02
    -19.339  0.0000E+00  0.0000E+00  0.1600E+02  0.1600E+02
    -19.146  0.0000E+00  0.0000E+00  0.1600E+02  0.1600E+02
    -18.953  0.0000E+00  0.0000E+00  0.1600E+02  0.1600E+02
    -18.760  0.0000E+00  0.0000E+00  0.1600E+02  0.1600E+02
    -18.566  0.0000E+00  0.0000E+00  0.1600E+02  0.1600E+02
    -18.373  0.0000E+00  0.0000E+00  0.1600E+02  0.1600E+02
    -18.180  0.0000E+00  0.0000E+00  0.1600E+02  0.1600E+02
    -17.987  0.0000E+00  0.0000E+00  0.1600E+02  0.1600E+02
    -17.793  0.0000E+00  0.0000E+00  0.1600E+02  0.1600E+02
    -17.600  0.0000E+00  0.0000E+00  0.1600E+02  0.1600E+02
    -17.407  0.0000E+00  0.0000E+00  0.1600E+02  0.1600E+02
    -17.214  0.0000E+00  0.0000E+00  0.1600E+02  0.1600E+02
    -17.021  0.0000E+00  0.0000E+00  0.1600E+02  0.1600E+02
    -16.827  0.0000E+00  0.0000E+00  0.1600E+02  0.1600E+02
    -16.634  0.0000E+00  0.0000E+00  0.1600E+02  0.1600E+02
    -16.441  0.0000E+00  0.0000E+00  0.1600E+02  0.1600E+02
    -16.248  0.0000E+00  0.0000E+00  0.1600E+02  0.1600E+02
    -16.055  0.0000E+00  0.0000E+00  0.1600E+02  0.1600E+02
    -15.861  0.0000E+00  0.0000E+00  0.1600E+02  0.1600E+02
    -15.668  0.0000E+00  0.0000E+00  0.1600E+02  0.1600E+02
    -15.475  0.0000E+00  0.0000E+00  0.1600E+02  0.1600E+02
    -15.282  0.0000E+00  0.0000E+00  0.1600E+02  0.1600E+02
    -15.088  0.0000E+00  0.0000E+00  0.1600E+02  0.1600E+02
    -14.895  0.0000E+00  0.0000E+00  0.1600E+02  0.1600E+02
    -14.702  0.0000E+00  0.0000E+00  0.1600E+02  0.1600E+02
    -14.509  0.0000E+00  0.0000E+00  0.1600E+02  0.1600E+02
    -14.316  0.0000E+00  0.0000E+00  0.1600E+02  0.1600E+02
    -14.122  0.0000E+00  0.0000E+00  0.1600E+02  0.1600E+02
    -13.929  0.0000E+00  0.0000E+00  0.1600E+02  0.1600E+02
    -13.736  0.0000E+00  0.0000E+00  0.1600E+02  0.1600E+02
    -13.543  0.0000E+00  0.0000E+00  0.1600E+02  0.1600E+02
    -13.350  0.0000E+00  0.0000E+00  0.1600E+02  0.1600E+02
    -13.156  0.0000E+00  0.0000E+00  0.1600E+02  0.1600E+02
    -12.963  0.0000E+00  0.0000E+00  0.1600E+02  0.1600E+02
    -12.770  0.0000E+00  0.0000E+00  0.1600E+02  0.1600E+02
    -12.577  0.0000E+00  0.0000E+00  0.1600E+02  0.1600E+02
    -12.383  0.0000E+00  0.0000E+00  0.1600E+02  0.1600E+02
    -12.190  0.0000E+00  0.0000E+00  0.1600E+02  0.1600E+02
    -11.997  0.0000E+00  0.0000E+00  0.1600E+02  0.1600E+02
    -11.804  0.0000E+00  0.0000E+00  0.1600E+02  0.1600E+02
    -11.611  0.0000E+00  0.0000E+00  0.1600E+02  0.1600E+02
    -11.417  0.0000E+00  0.0000E+00  0.1600E+02  0.1600E+02
    -11.224  0.0000E+00  0.0000E+00  0.1600E+02  0.1600E+02
    -11.031  0.0000E+00  0.0000E+00  0.1600E+02  0.1600E+02
    -10.838  0.0000E+00  0.0000E+00  0.1600E+02  0.1600E+02
    -10.645  0.0000E+00  0.0000E+00  0.1600E+02  0.1600E+02
    -10.451  0.0000E+00  0.0000E+00  0.1600E+02  0.1600E+02
    -10.258  0.0000E+00  0.0000E+00  0.1600E+02  0.1600E+02
    -10.065  0.0000E+00  0.0000E+00  0.1600E+02  0.1600E+02
     -9.872  0.0000E+00  0.0000E+00  0.1600E+02  0.1600E+02
     -9.678  0.0000E+00  0.0000E+00  0.1600E+02  0.1600E+02
     -9.485  0.0000E+00  0.0000E+00  0.1600E+02  0.1600E+02
     -9.292  0.0000E+00  0.0000E+00  0.1600E+02  0.1600E+02
     -9.099  0.0000E+00  0.0000E+00  0.1600E+02  0.1600E+02
     -8.906  0.0000E+00  0.0000E+00  0.1600E+02  0.1600E+02
     -8.712  0.0000E+00  0.0000E+00  0.1600E+02  0.1600E+02
     -8.519  0.0000E+00  0.0000E+00  0.1600E+02  0.1600E+02
     -8.326  0.0000E+00  0.0000E+00  0.1600E+02  0.1600E+02
     -8.133  0.0000E+00  0.0000E+00  0.1600E+02  0.1600E+02
     -7.940  0.0000E+00  0.0000E+00  0.1600E+02  0.1600E+02
     -7.746  0.0000E+00  0.0000E+00  0.1600E+02  0.1600E+02
     -7.553  0.0000E+00  0.0000E+00  0.1600E+02  0.1600E+02
     -7.360  0.0000E+00  0.0000E+00  0.1600E+02  0.1600E+02
     -7.167  0.0000E+00  0.0000E+00  0.1600E+02  0.1600E+02
     -6.974  0.0000E+00  0.0000E+00  0.1600E+02  0.1600E+02
     -6.780  0.0000E+00  0.0000E+00  0.1600E+02  0.1600E+02
     -6.587  0.0000E+00  0.0000E+00  0.1600E+02  0.1600E+02
     -6.394  0.0000E+00  0.0000E+00  0.1600E+02  0.1600E+02
     -6.201  0.0000E+00  0.0000E+00  0.1600E+02  0.1600E+02
     -6.007  0.0000E+00  0.0000E+00  0.1600E+02  0.1600E+02
     -5.814  0.0000E+00  0.0000E+00  0.1600E+02  0.1600E+02
     -5.621  0.0000E+00  0.0000E+00  0.1600E+02  0.1600E+02
     -5.428  0.0000E+00  0.0000E+00  0.1600E+02  0.1600E+02
     -5.235  0.0000E+00  0.0000E+00  0.1600E+02  0.1600E+02
     -5.041  0.0000E+00  0.0000E+00  0.1600E+02  0.1600E+02
     -4.848  0.0000E+00  0.0000E+00  0.1600E+02  0.1600E+02
     -4.655  0.0000E+00  0.0000E+00  0.1600E+02  0.1600E+02
     -4.462  0.0000E+00  0.0000E+00  0.1600E+02  0.1600E+02
     -4.269  0.0000E+00  0.0000E+00  0.1600E+02  0.1600E+02
     -4.075  0.0000E+00  0.0000E+00  0.1600E+02  0.1600E+02
     -3.882  0.0000E+00  0.0000E+00  0.1600E+02  0.1600E+02
     -3.689  0.9898E-05  0.9878E-05  0.1600E+02  0.1600E+02
     -3.496  0.4887E-03  0.4877E-03  0.1600E+02  0.1600E+02
     -3.302  0.2036E-01  0.2032E-01  0.1600E+02  0.1600E+02
     -3.109  0.2288E+00  0.2286E+00  0.1605E+02  0.1605E+02
     -2.916  0.5363E+00  0.5362E+00  0.1615E+02  0.1615E+02
     -2.723  0.7281E+00  0.7280E+00  0.1629E+02  0.1629E+02
     -2.530  0.8625E+00  0.8625E+00  0.1646E+02  0.1646E+02
     -2.336  0.1030E+01  0.1030E+01  0.1666E+02  0.1666E+02
     -2.143  0.1161E+01  0.1161E+01  0.1689E+02  0.1689E+02
     -1.950  0.1286E+01  0.1286E+01  0.1713E+02  0.1713E+02
     -1.757  0.1524E+01  0.1524E+01  0.1743E+02  0.1743E+02
     -1.564  0.1573E+01  0.1573E+01  0.1774E+02  0.1774E+02
     -1.370  0.1707E+01  0.1707E+01  0.1807E+02  0.1807E+02
     -1.177  0.1842E+01  0.1842E+01  0.1842E+02  0.1842E+02
     -0.984  0.1437E+01  0.1437E+01  0.1870E+02  0.1870E+02
     -0.791  0.1656E+01  0.1655E+01  0.1902E+02  0.1902E+02
     -0.597  0.1600E+01  0.1600E+01  0.1933E+02  0.1933E+02
     -0.404  0.1874E+01  0.1874E+01  0.1970E+02  0.1970E+02
     -0.211  0.1917E+01  0.1917E+01  0.2007E+02  0.2007E+02
     -0.018  0.2163E+01  0.2163E+01  0.2049E+02  0.2049E+02
      0.175  0.2479E+01  0.2479E+01  0.2097E+02  0.2097E+02
      0.369  0.2260E+01  0.2260E+01  0.2141E+02  0.2141E+02
      0.562  0.2253E+01  0.2253E+01  0.2185E+02  0.2185E+02
      0.755  0.2073E+01  0.2073E+01  0.2225E+02  0.2225E+02
      0.948  0.2114E+01  0.2113E+01  0.2266E+02  0.2266E+02
      1.141  0.2711E+01  0.2711E+01  0.2318E+02  0.2318E+02
      1.335  0.2349E+01  0.2349E+01  0.2364E+02  0.2364E+02
      1.528  0.2865E+01  0.2865E+01  0.2419E+02  0.2419E+02
      1.721  0.3116E+01  0.3116E+01  0.2480E+02  0.2480E+02
      1.914  0.3120E+01  0.3120E+01  0.2540E+02  0.2540E+02
      2.108  0.2054E+01  0.2054E+01  0.2580E+02  0.2580E+02
      2.301  0.2105E+01  0.2104E+01  0.2621E+02  0.2621E+02
      2.494  0.2400E+01  0.2400E+01  0.2668E+02  0.2668E+02
      2.687  0.2832E+01  0.2833E+01  0.2723E+02  0.2723E+02
      2.880  0.2383E+01  0.2383E+01  0.2769E+02  0.2769E+02
      3.074  0.3318E+01  0.3317E+01  0.2833E+02  0.2833E+02
      3.267  0.3408E+01  0.3408E+01  0.2899E+02  0.2899E+02
      3.460  0.3823E+01  0.3822E+01  0.2973E+02  0.2973E+02
      3.653  0.3528E+01  0.3528E+01  0.3042E+02  0.3042E+02
      3.846  0.4301E+01  0.4299E+01  0.3125E+02  0.3125E+02
      4.040  0.4466E+01  0.4466E+01  0.3212E+02  0.3212E+02
      4.233  0.3892E+01  0.3893E+01  0.3287E+02  0.3287E+02
      4.426  0.3999E+01  0.3997E+01  0.3365E+02  0.3365E+02
      4.619  0.4556E+01  0.4554E+01  0.3453E+02  0.3453E+02
      4.813  0.5274E+01  0.5270E+01  0.3555E+02  0.3555E+02
      5.006  0.5579E+01  0.5579E+01  0.3664E+02  0.3663E+02
      5.199  0.5159E+01  0.5162E+01  0.3764E+02  0.3763E+02
      5.392  0.4739E+01  0.4737E+01  0.3856E+02  0.3855E+02
      5.585  0.4901E+01  0.4903E+01  0.3951E+02  0.3950E+02
      5.779  0.3782E+01  0.3786E+01  0.4024E+02  0.4024E+02
      5.972  0.3418E+01  0.3420E+01  0.4091E+02  0.4090E+02
      6.165  0.2516E+01  0.2518E+01  0.4139E+02  0.4139E+02
      6.358  0.2696E+01  0.2695E+01  0.4192E+02  0.4192E+02
      6.551  0.2797E+01  0.2795E+01  0.4246E+02  0.4246E+02
      6.745  0.3831E+01  0.3829E+01  0.4320E+02  0.4320E+02
      6.938  0.3910E+01  0.3910E+01  0.4396E+02  0.4396E+02
      7.131  0.5340E+01  0.5338E+01  0.4500E+02  0.4499E+02
      7.324  0.5800E+01  0.5793E+01  0.4612E+02  0.4611E+02
      7.518  0.6607E+01  0.6609E+01  0.4740E+02  0.4740E+02
      7.711  0.7385E+01  0.7439E+01  0.4883E+02  0.4884E+02
      7.904  0.8845E+01  0.9085E+01  0.5055E+02  0.5060E+02
      8.097  0.8426E+01  0.8452E+01  0.5218E+02  0.5224E+02
      8.290  0.7150E+01  0.7093E+01  0.5357E+02  0.5362E+02
      8.484  0.5625E+01  0.5599E+01  0.5466E+02  0.5470E+02
      8.677  0.4128E+01  0.4082E+01  0.5546E+02  0.5550E+02
      8.870  0.2227E+01  0.1924E+01  0.5590E+02  0.5588E+02
      9.063  0.4325E+00  0.5282E+00  0.5599E+02  0.5598E+02
      9.256  0.5919E-01  0.9617E-01  0.5600E+02  0.5600E+02
      9.450  0.3144E-02  0.6872E-03  0.5600E+02  0.5600E+02
      9.643  0.0000E+00  0.0000E+00  0.5600E+02  0.5600E+02
      9.836  0.0000E+00  0.0000E+00  0.5600E+02  0.5600E+02
     10.029  0.0000E+00  0.0000E+00  0.5600E+02  0.5600E+02
     10.223  0.0000E+00  0.0000E+00  0.5600E+02  0.5600E+02
     10.416  0.0000E+00  0.0000E+00  0.5600E+02  0.5600E+02
     10.609  0.0000E+00  0.0000E+00  0.5600E+02  0.5600E+02
     10.802  0.0000E+00  0.0000E+00  0.5600E+02  0.5600E+02
     10.995  0.0000E+00  0.0000E+00  0.5600E+02  0.5600E+02
     11.189  0.0000E+00  0.0000E+00  0.5600E+02  0.5600E+02
     11.382  0.0000E+00  0.0000E+00  0.5600E+02  0.5600E+02
     11.575  0.0000E+00  0.0000E+00  0.5600E+02  0.5600E+02
     11.768  0.0000E+00  0.0000E+00  0.5600E+02  0.5600E+02
     11.76823736    -46.19591190  301      5.71127491      1.00000000
    -46.196  0.0000E+00  0.0000E+00  0.0000E+00  0.0000E+00  0.0000E+00  0.0000E+00  0.0000E+00  0.0000E+00  0.0000E+00  0.0000E+00  0.0000E+00  0.0000E+00  0.0000E+00  0.0000E+00  0.0000E+00  0.0000E+00  0.0000E+00  0.0000E+00
    -46.003  0.0000E+00  0.0000E+00  0.0000E+00  0.0000E+00  0.0000E+00  0.0000E+00  0.0000E+00  0.0000E+00  0.0000E+00  0.0000E+00  0.0000E+00  0.0000E+00  0.0000E+00  0.0000E+00  0.0000E+00  0.0000E+00  0.0000E+00  0.0000E+00
    -45.809  0.0000E+00  0.0000E+00  0.0000E+00  0.0000E+00  0.0000E+00  0.0000E+00  0.0000E+00  0.0000E+00  0.0000E+00  0.0000E+00  0.0000E+00  0.0000E+00  0.0000E+00  0.0000E+00  0.0000E+00  0.0000E+00  0.0000E+00  0.0000E+00
    -45.616  0.0000E+00  0.0000E+00  0.0000E+00  0.0000E+00  0.0000E+00  0.0000E+00  0.0000E+00  0.0000E+00  0.0000E+00  0.0000E+00  0.0000E+00  0.0000E+00  0.0000E+00  0.0000E+00  0.0000E+00  0.0000E+00  0.0000E+00  0.0000E+00
    -45.423  0.0000E+00  0.0000E+00  0.0000E+00  0.0000E+00  0.0000E+00  0.0000E+00  0.0000E+00  0.0000E+00  0.0000E+00  0.0000E+00  0.0000E+00  0.0000E+00  0.0000E+00  0.0000E+00  0.0000E+00  0.0000E+00  0.0000E+00  0.0000E+00
    -45.230  0.0000E+00  0.0000E+00  0.0000E+00  0.0000E+00  0.0000E+00  0.0000E+00  0.0000E+00  0.0000E+00  0.0000E+00  0.0000E+00  0.0000E+00  0.0000E+00  0.0000E+00  0.0000E+00  0.0000E+00  0.0000E+00  0.0000E+00  0.0000E+00
    -45.037  0.0000E+00  0.0000E+00  0.0000E+00  0.0000E+00  0.0000E+00  0.0000E+00  0.0000E+00  0.0000E+00  0.0000E+00  0.0000E+00  0.0000E+00  0.0000E+00  0.0000E+00  0.0000E+00  0.0000E+00  0.0000E+00  0.0000E+00  0.0000E+00
    -44.843  0.0000E+00  0.0000E+00  0.0000E+00  0.0000E+00  0.0000E+00  0.0000E+00  0.0000E+00  0.0000E+00  0.0000E+00  0.0000E+00  0.0000E+00  0.0000E+00  0.0000E+00  0.0000E+00  0.0000E+00  0.0000E+00  0.0000E+00  0.0000E+00
    -44.650  0.0000E+00  0.0000E+00  0.0000E+00  0.0000E+00  0.0000E+00  0.0000E+00  0.0000E+00  0.0000E+00  0.0000E+00  0.0000E+00  0.0000E+00  0.0000E+00  0.0000E+00  0.0000E+00  0.0000E+00  0.0000E+00  0.0000E+00  0.0000E+00
    -44.457  0.0000E+00  0.0000E+00  0.0000E+00  0.0000E+00  0.0000E+00  0.0000E+00  0.0000E+00  0.0000E+00  0.0000E+00  0.0000E+00  0.0000E+00  0.0000E+00  0.0000E+00  0.0000E+00  0.0000E+00  0.0000E+00  0.0000E+00  0.0000E+00
    -44.264  0.0000E+00  0.0000E+00  0.0000E+00  0.0000E+00  0.0000E+00  0.0000E+00  0.0000E+00  0.0000E+00  0.0000E+00  0.0000E+00  0.0000E+00  0.0000E+00  0.0000E+00  0.0000E+00  0.0000E+00  0.0000E+00  0.0000E+00  0.0000E+00
    -44.071  0.1907E-03  0.1874E-03  0.1793E-12  0.1773E-12  0.1394E-09  0.1399E-09  0.1793E-12  0.1773E-12  0.2775E-13  0.4385E-13  0.2550E-13  0.3326E-13  0.5261E-11  0.6117E-11  0.2550E-13  0.3326E-13  0.1899E-12  0.1748E-12
    -43.877  0.8883E-02  0.8731E-02  0.8353E-11  0.8260E-11  0.6494E-08  0.6519E-08  0.8353E-11  0.8260E-11  0.1293E-11  0.2043E-11  0.1188E-11  0.1549E-11  0.2451E-09  0.2850E-09  0.1188E-11  0.1549E-11  0.8847E-11  0.8144E-11
    -43.684  0.3906E+00  0.3844E+00  0.3673E-09  0.3637E-09  0.2856E-06  0.2871E-06  0.3673E-09  0.3637E-09  0.5686E-10  0.8995E-10  0.5225E-10  0.6823E-10  0.1078E-07  0.1255E-07  0.5225E-10  0.6823E-10  0.3891E-09  0.3586E-09
    -43.491  0.3726E+01  0.3718E+01  0.3503E-08  0.3517E-08  0.2724E-05  0.2776E-05  0.3503E-08  0.3517E-08  0.5428E-09  0.8694E-09  0.4988E-09  0.6599E-09  0.1027E-06  0.1213E-06  0.4988E-09  0.6599E-09  0.3714E-08  0.3469E-08
    -43.298  0.1003E+01  0.1017E+01  0.9429E-09  0.9619E-09  0.7331E-06  0.7592E-06  0.9429E-09  0.9619E-09  0.1462E-09  0.2376E-09  0.1344E-09  0.1805E-09  0.2762E-07  0.3314E-07  0.1344E-09  0.1805E-09  0.1001E-08  0.9492E-09
    -43.104  0.0000E+00  0.0000E+00  0.0000E+00  0.0000E+00  0.0000E+00  0.0000E+00  0.0000E+00  0.0000E+00  0.0000E+00  0.0000E+00  0.0000E+00  0.0000E+00  0.0000E+00  0.0000E+00  0.0000E+00  0.0000E+00  0.0000E+00  0.0000E+00
    -42.911  0.0000E+00  0.0000E+00  0.0000E+00  0.0000E+00  0.0000E+00  0.0000E+00  0.0000E+00  0.0000E+00  0.0000E+00  0.0000E+00  0.0000E+00  0.0000E+00  0.0000E+00  0.0000E+00  0.0000E+00  0.0000E+00  0.0000E+00  0.0000E+00
    -42.718  0.0000E+00  0.0000E+00  0.0000E+00  0.0000E+00  0.0000E+00  0.0000E+00  0.0000E+00  0.0000E+00  0.0000E+00  0.0000E+00  0.0000E+00  0.0000E+00  0.0000E+00  0.0000E+00  0.0000E+00  0.0000E+00  0.0000E+00  0.0000E+00
    -42.525  0.0000E+00  0.0000E+00  0.0000E+00  0.0000E+00  0.0000E+00  0.0000E+00  0.0000E+00  0.0000E+00  0.0000E+00  0.0000E+00  0.0000E+00  0.0000E+00  0.0000E+00  0.0000E+00  0.0000E+00  0.0000E+00  0.0000E+00  0.0000E+00
    -42.332  0.0000E+00  0.0000E+00  0.0000E+00  0.0000E+00  0.0000E+00  0.0000E+00  0.0000E+00  0.0000E+00  0.0000E+00  0.0000E+00  0.0000E+00  0.0000E+00  0.0000E+00  0.0000E+00  0.0000E+00  0.0000E+00  0.0000E+00  0.0000E+00
    -42.138  0.0000E+00  0.0000E+00  0.0000E+00  0.0000E+00  0.0000E+00  0.0000E+00  0.0000E+00  0.0000E+00  0.0000E+00  0.0000E+00  0.0000E+00  0.0000E+00  0.0000E+00  0.0000E+00  0.0000E+00  0.0000E+00  0.0000E+00  0.0000E+00
    -41.945  0.0000E+00  0.0000E+00  0.0000E+00  0.0000E+00  0.0000E+00  0.0000E+00  0.0000E+00  0.0000E+00  0.0000E+00  0.0000E+00  0.0000E+00  0.0000E+00  0.0000E+00  0.0000E+00  0.0000E+00  0.0000E+00  0.0000E+00  0.0000E+00
    -41.752  0.0000E+00  0.0000E+00  0.0000E+00  0.0000E+00  0.0000E+00  0.0000E+00  0.0000E+00  0.0000E+00  0.0000E+00  0.0000E+00  0.0000E+00  0.0000E+00  0.0000E+00  0.0000E+00  0.0000E+00  0.0000E+00  0.0000E+00  0.0000E+00
    -41.559  0.0000E+00  0.0000E+00  0.0000E+00  0.0000E+00  0.0000E+00  0.0000E+00  0.0000E+00  0.0000E+00  0.0000E+00  0.0000E+00  0.0000E+00  0.0000E+00  0.0000E+00  0.0000E+00  0.0000E+00  0.0000E+00  0.0000E+00  0.0000E+00
    -41.366  0.0000E+00  0.0000E+00  0.0000E+00  0.0000E+00  0.0000E+00  0.0000E+00  0.0000E+00  0.0000E+00  0.0000E+00  0.0000E+00  0.0000E+00  0.0000E+00  0.0000E+00  0.0000E+00  0.0000E+00  0.0000E+00  0.0000E+00  0.0000E+00
    -41.172  0.0000E+00  0.0000E+00  0.0000E+00  0.0000E+00  0.0000E+00  0.0000E+00  0.0000E+00  0.0000E+00  0.0000E+00  0.0000E+00  0.0000E+00  0.0000E+00  0.0000E+00  0.0000E+00  0.0000E+00  0.0000E+00  0.0000E+00  0.0000E+00
    -40.979  0.0000E+00  0.0000E+00  0.0000E+00  0.0000E+00  0.0000E+00  0.0000E+00  0.0000E+00  0.0000E+00  0.0000E+00  0.0000E+00  0.0000E+00  0.0000E+00  0.0000E+00  0.0000E+00  0.0000E+00  0.0000E+00  0.0000E+00  0.0000E+00
    -40.786  0.0000E+00  0.0000E+00  0.0000E+00  0.0000E+00  0.0000E+00  0.0000E+00  0.0000E+00  0.0000E+00  0.0000E+00  0.0000E+00  0.0000E+00  0.0000E+00  0.0000E+00  0.0000E+00  0.0000E+00  0.0000E+00  0.0000E+00  0.0000E+00
    -40.593  0.0000E+00  0.0000E+00  0.0000E+00  0.0000E+00  0.0000E+00  0.0000E+00  0.0000E+00  0.0000E+00  0.0000E+00  0.0000E+00  0.0000E+00  0.0000E+00  0.0000E+00  0.0000E+00  0.0000E+00  0.0000E+00  0.0000E+00  0.0000E+00
    -40.399  0.0000E+00  0.0000E+00  0.0000E+00  0.0000E+00  0.0000E+00  0.0000E+00  0.0000E+00  0.0000E+00  0.0000E+00  0.0000E+00  0.0000E+00  0.0000E+00  0.0000E+00  0.0000E+00  0.0000E+00  0.0000E+00  0.0000E+00  0.0000E+00
    -40.206  0.0000E+00  0.0000E+00  0.0000E+00  0.0000E+00  0.0000E+00  0.0000E+00  0.0000E+00  0.0000E+00  0.0000E+00  0.0000E+00  0.0000E+00  0.0000E+00  0.0000E+00  0.0000E+00  0.0000E+00  0.0000E+00  0.0000E+00  0.0000E+00
    -40.013  0.0000E+00  0.0000E+00  0.0000E+00  0.0000E+00  0.0000E+00  0.0000E+00  0.0000E+00  0.0000E+00  0.0000E+00  0.0000E+00  0.0000E+00  0.0000E+00  0.0000E+00  0.0000E+00  0.0000E+00  0.0000E+00  0.0000E+00  0.0000E+00
    -39.820  0.0000E+00  0.0000E+00  0.0000E+00  0.0000E+00  0.0000E+00  0.0000E+00  0.0000E+00  0.0000E+00  0.0000E+00  0.0000E+00  0.0000E+00  0.0000E+00  0.0000E+00  0.0000E+00  0.0000E+00  0.0000E+00  0.0000E+00  0.0000E+00
    -39.627  0.0000E+00  0.0000E+00  0.0000E+00  0.0000E+00  0.0000E+00  0.0000E+00  0.0000E+00  0.0000E+00  0.0000E+00  0.0000E+00  0.0000E+00  0.0000E+00  0.0000E+00  0.0000E+00  0.0000E+00  0.0000E+00  0.0000E+00  0.0000E+00
    -39.433  0.0000E+00  0.0000E+00  0.0000E+00  0.0000E+00  0.0000E+00  0.0000E+00  0.0000E+00  0.0000E+00  0.0000E+00  0.0000E+00  0.0000E+00  0.0000E+00  0.0000E+00  0.0000E+00  0.0000E+00  0.0000E+00  0.0000E+00  0.0000E+00
    -39.240  0.0000E+00  0.0000E+00  0.0000E+00  0.0000E+00  0.0000E+00  0.0000E+00  0.0000E+00  0.0000E+00  0.0000E+00  0.0000E+00  0.0000E+00  0.0000E+00  0.0000E+00  0.0000E+00  0.0000E+00  0.0000E+00  0.0000E+00  0.0000E+00
    -39.047  0.0000E+00  0.0000E+00  0.0000E+00  0.0000E+00  0.0000E+00  0.0000E+00  0.0000E+00  0.0000E+00  0.0000E+00  0.0000E+00  0.0000E+00  0.0000E+00  0.0000E+00  0.0000E+00  0.0000E+00  0.0000E+00  0.0000E+00  0.0000E+00
    -38.854  0.0000E+00  0.0000E+00  0.0000E+00  0.0000E+00  0.0000E+00  0.0000E+00  0.0000E+00  0.0000E+00  0.0000E+00  0.0000E+00  0.0000E+00  0.0000E+00  0.0000E+00  0.0000E+00  0.0000E+00  0.0000E+00  0.0000E+00  0.0000E+00
    -38.661  0.0000E+00  0.0000E+00  0.0000E+00  0.0000E+00  0.0000E+00  0.0000E+00  0.0000E+00  0.0000E+00  0.0000E+00  0.0000E+00  0.0000E+00  0.0000E+00  0.0000E+00  0.0000E+00  0.0000E+00  0.0000E+00  0.0000E+00  0.0000E+00
    -38.467  0.0000E+00  0.0000E+00  0.0000E+00  0.0000E+00  0.0000E+00  0.0000E+00  0.0000E+00  0.0000E+00  0.0000E+00  0.0000E+00  0.0000E+00  0.0000E+00  0.0000E+00  0.0000E+00  0.0000E+00  0.0000E+00  0.0000E+00  0.0000E+00
    -38.274  0.0000E+00  0.0000E+00  0.0000E+00  0.0000E+00  0.0000E+00  0.0000E+00  0.0000E+00  0.0000E+00  0.0000E+00  0.0000E+00  0.0000E+00  0.0000E+00  0.0000E+00  0.0000E+00  0.0000E+00  0.0000E+00  0.0000E+00  0.0000E+00
    -38.081  0.0000E+00  0.0000E+00  0.0000E+00  0.0000E+00  0.0000E+00  0.0000E+00  0.0000E+00  0.0000E+00  0.0000E+00  0.0000E+00  0.0000E+00  0.0000E+00  0.0000E+00  0.0000E+00  0.0000E+00  0.0000E+00  0.0000E+00  0.0000E+00
    -37.888  0.0000E+00  0.0000E+00  0.0000E+00  0.0000E+00  0.0000E+00  0.0000E+00  0.0000E+00  0.0000E+00  0.0000E+00  0.0000E+00  0.0000E+00  0.0000E+00  0.0000E+00  0.0000E+00  0.0000E+00  0.0000E+00  0.0000E+00  0.0000E+00
    -37.695  0.0000E+00  0.0000E+00  0.0000E+00  0.0000E+00  0.0000E+00  0.0000E+00  0.0000E+00  0.0000E+00  0.0000E+00  0.0000E+00  0.0000E+00  0.0000E+00  0.0000E+00  0.0000E+00  0.0000E+00  0.0000E+00  0.0000E+00  0.0000E+00
    -37.501  0.0000E+00  0.0000E+00  0.0000E+00  0.0000E+00  0.0000E+00  0.0000E+00  0.0000E+00  0.0000E+00  0.0000E+00  0.0000E+00  0.0000E+00  0.0000E+00  0.0000E+00  0.0000E+00  0.0000E+00  0.0000E+00  0.0000E+00  0.0000E+00
    -37.308  0.0000E+00  0.0000E+00  0.0000E+00  0.0000E+00  0.0000E+00  0.0000E+00  0.0000E+00  0.0000E+00  0.0000E+00  0.0000E+00  0.0000E+00  0.0000E+00  0.0000E+00  0.0000E+00  0.0000E+00  0.0000E+00  0.0000E+00  0.0000E+00
    -37.115  0.0000E+00  0.0000E+00  0.0000E+00  0.0000E+00  0.0000E+00  0.0000E+00  0.0000E+00  0.0000E+00  0.0000E+00  0.0000E+00  0.0000E+00  0.0000E+00  0.0000E+00  0.0000E+00  0.0000E+00  0.0000E+00  0.0000E+00  0.0000E+00
    -36.922  0.0000E+00  0.0000E+00  0.0000E+00  0.0000E+00  0.0000E+00  0.0000E+00  0.0000E+00  0.0000E+00  0.0000E+00  0.0000E+00  0.0000E+00  0.0000E+00  0.0000E+00  0.0000E+00  0.0000E+00  0.0000E+00  0.0000E+00  0.0000E+00
    -36.728  0.0000E+00  0.0000E+00  0.0000E+00  0.0000E+00  0.0000E+00  0.0000E+00  0.0000E+00  0.0000E+00  0.0000E+00  0.0000E+00  0.0000E+00  0.0000E+00  0.0000E+00  0.0000E+00  0.0000E+00  0.0000E+00  0.0000E+00  0.0000E+00
    -36.535  0.0000E+00  0.0000E+00  0.0000E+00  0.0000E+00  0.0000E+00  0.0000E+00  0.0000E+00  0.0000E+00  0.0000E+00  0.0000E+00  0.0000E+00  0.0000E+00  0.0000E+00  0.0000E+00  0.0000E+00  0.0000E+00  0.0000E+00  0.0000E+00