  16  16   1   0
  0.1557790E+02  0.3881127E-09  0.3881127E-09  0.1654677E-08  0.5000000E-15
  1.000000000000000E-004
  CAR 
 unknown system                          
     14.64926625    -43.21694687  301      7.78649701      1.00000000
    -43.217  0.0000E+00  0.0000E+00  0.0000E+00  0.0000E+00
    -43.024  0.0000E+00  0.0000E+00  0.0000E+00  0.0000E+00
    -42.831  0.0000E+00  0.0000E+00  0.0000E+00  0.0000E+00
    -42.638  0.0000E+00  0.0000E+00  0.0000E+00  0.0000E+00
    -42.445  0.0000E+00  0.0000E+00  0.0000E+00  0.0000E+00
    -42.253  0.0000E+00  0.0000E+00  0.0000E+00  0.0000E+00
    -42.060  0.0000E+00  0.0000E+00  0.0000E+00  0.0000E+00
    -41.867  0.0000E+00  0.0000E+00  0.0000E+00  0.0000E+00
    -41.674  0.0000E+00  0.0000E+00  0.0000E+00  0.0000E+00
    -41.481  0.0000E+00  0.0000E+00  0.0000E+00  0.0000E+00
    -41.288  0.0000E+00  0.0000E+00  0.0000E+00  0.0000E+00
    -41.095  0.7411E-03  0.7406E-03  0.1430E-03  0.1429E-03
    -40.902  0.3430E-01  0.3427E-01  0.6759E-02  0.6754E-02
    -40.709  0.1504E+01  0.1503E+01  0.2968E+00  0.2966E+00
    -40.517  0.1487E+02  0.1487E+02  0.3166E+01  0.3165E+01
    -40.324  0.4211E+01  0.4214E+01  0.3978E+01  0.3978E+01
    -40.131  0.0000E+00  0.0000E+00  0.4000E+01  0.4000E+01
    -39.938  0.0000E+00  0.0000E+00  0.4000E+01  0.4000E+01
    -39.745  0.0000E+00  0.0000E+00  0.4000E+01  0.4000E+01
    -39.552  0.0000E+00  0.0000E+00  0.4000E+01  0.4000E+01
    -39.359  0.0000E+00  0.0000E+00  0.4000E+01  0.4000E+01
    -39.166  0.0000E+00  0.0000E+00  0.4000E+01  0.4000E+01
    -38.973  0.0000E+00  0.0000E+00  0.4000E+01  0.4000E+01
    -38.781  0.0000E+00  0.0000E+00  0.4000E+01  0.4000E+01
    -38.588  0.0000E+00  0.0000E+00  0.4000E+01  0.4000E+01
    -38.395  0.0000E+00  0.0000E+00  0.4000E+01  0.4000E+01
    -38.202  0.0000E+00  0.0000E+00  0.4000E+01  0.4000E+01
    -38.009  0.0000E+00  0.0000E+00  0.4000E+01  0.4000E+01
    -37.816  0.0000E+00  0.0000E+00  0.4000E+01  0.4000E+01
    -37.623  0.0000E+00  0.0000E+00  0.4000E+01  0.4000E+01
    -37.430  0.0000E+00  0.0000E+00  0.4000E+01  0.4000E+01
    -37.237  0.0000E+00  0.0000E+00  0.4000E+01  0.4000E+01
    -37.045  0.0000E+00  0.0000E+00  0.4000E+01  0.4000E+01
    -36.852  0.0000E+00  0.0000E+00  0.4000E+01  0.4000E+01
    -36.659  0.0000E+00  0.0000E+00  0.4000E+01  0.4000E+01
    -36.466  0.0000E+00  0.0000E+00  0.4000E+01  0.4000E+01
    -36.273  0.0000E+00  0.0000E+00  0.4000E+01  0.4000E+01
    -36.080  0.0000E+00  0.0000E+00  0.4000E+01  0.4000E+01
    -35.887  0.0000E+00  0.0000E+00  0.4000E+01  0.4000E+01
    -35.694  0.0000E+00  0.0000E+00  0.4000E+01  0.4000E+01
    -35.501  0.0000E+00  0.0000E+00  0.4000E+01  0.4000E+01
    -35.309  0.0000E+00  0.0000E+00  0.4000E+01  0.4000E+01
    -35.116  0.0000E+00  0.0000E+00  0.4000E+01  0.4000E+01
    -34.923  0.0000E+00  0.0000E+00  0.4000E+01  0.4000E+01
    -34.730  0.0000E+00  0.0000E+00  0.4000E+01  0.4000E+01
    -34.537  0.0000E+00  0.0000E+00  0.4000E+01  0.4000E+01
    -34.344  0.0000E+00  0.0000E+00  0.4000E+01  0.4000E+01
    -34.151  0.0000E+00  0.0000E+00  0.4000E+01  0.4000E+01
    -33.958  0.0000E+00  0.0000E+00  0.4000E+01  0.4000E+01
    -33.765  0.0000E+00  0.0000E+00  0.4000E+01  0.4000E+01
    -33.573  0.0000E+00  0.0000E+00  0.4000E+01  0.4000E+01
    -33.380  0.0000E+00  0.0000E+00  0.4000E+01  0.4000E+01
    -33.187  0.0000E+00  0.0000E+00  0.4000E+01  0.4000E+01
    -32.994  0.0000E+00  0.0000E+00  0.4000E+01  0.4000E+01
    -32.801  0.0000E+00  0.0000E+00  0.4000E+01  0.4000E+01
    -32.608  0.0000E+00  0.0000E+00  0.4000E+01  0.4000E+01
    -32.415  0.0000E+00  0.0000E+00  0.4000E+01  0.4000E+01
    -32.222  0.0000E+00  0.0000E+00  0.4000E+01  0.4000E+01
    -32.029  0.0000E+00  0.0000E+00  0.4000E+01  0.4000E+01
    -31.837  0.0000E+00  0.0000E+00  0.4000E+01  0.4000E+01
    -31.644  0.0000E+00  0.0000E+00  0.4000E+01  0.4000E+01
    -31.451  0.0000E+00  0.0000E+00  0.4000E+01  0.4000E+01
    -31.258  0.0000E+00  0.0000E+00  0.4000E+01  0.4000E+01
    -31.065  0.0000E+00  0.0000E+00  0.4000E+01  0.4000E+01
    -30.872  0.0000E+00  0.0000E+00  0.4000E+01  0.4000E+01
    -30.679  0.0000E+00  0.0000E+00  0.4000E+01  0.4000E+01
    -30.486  0.0000E+00  0.0000E+00  0.4000E+01  0.4000E+01
    -30.293  0.0000E+00  0.0000E+00  0.4000E+01  0.4000E+01
    -30.101  0.0000E+00  0.0000E+00  0.4000E+01  0.4000E+01
    -29.908  0.0000E+00  0.0000E+00  0.4000E+01  0.4000E+01
    -29.715  0.0000E+00  0.0000E+00  0.4000E+01  0.4000E+01
    -29.522  0.0000E+00  0.0000E+00  0.4000E+01  0.4000E+01
    -29.329  0.0000E+00  0.0000E+00  0.4000E+01  0.4000E+01
    -29.136  0.0000E+00  0.0000E+00  0.4000E+01  0.4000E+01
    -28.943  0.0000E+00  0.0000E+00  0.4000E+01  0.4000E+01
    -28.750  0.0000E+00  0.0000E+00  0.4000E+01  0.4000E+01
    -28.558  0.0000E+00  0.0000E+00  0.4000E+01  0.4000E+01
    -28.365  0.0000E+00  0.0000E+00  0.4000E+01  0.4000E+01
    -28.172  0.0000E+00  0.0000E+00  0.4000E+01  0.4000E+01
    -27.979  0.0000E+00  0.0000E+00  0.4000E+01  0.4000E+01
    -27.786  0.0000E+00  0.0000E+00  0.4000E+01  0.4000E+01
    -27.593  0.0000E+00  0.0000E+00  0.4000E+01  0.4000E+01
    -27.400  0.0000E+00  0.0000E+00  0.4000E+01  0.4000E+01
    -27.207  0.0000E+00  0.0000E+00  0.4000E+01  0.4000E+01
    -27.014  0.0000E+00  0.0000E+00  0.4000E+01  0.4000E+01
    -26.822  0.0000E+00  0.0000E+00  0.4000E+01  0.4000E+01
    -26.629  0.0000E+00  0.0000E+00  0.4000E+01  0.4000E+01
    -26.436  0.0000E+00  0.0000E+00  0.4000E+01  0.4000E+01
    -26.243  0.0000E+00  0.0000E+00  0.4000E+01  0.4000E+01
    -26.050  0.0000E+00  0.0000E+00  0.4000E+01  0.4000E+01
    -25.857  0.0000E+00  0.0000E+00  0.4000E+01  0.4000E+01
    -25.664  0.0000E+00  0.0000E+00  0.4000E+01  0.4000E+01
    -25.471  0.0000E+00  0.0000E+00  0.4000E+01  0.4000E+01
    -25.278  0.0000E+00  0.0000E+00  0.4000E+01  0.4000E+01
    -25.086  0.0000E+00  0.0000E+00  0.4000E+01  0.4000E+01
    -24.893  0.0000E+00  0.0000E+00  0.4000E+01  0.4000E+01
    -24.700  0.0000E+00  0.0000E+00  0.4000E+01  0.4000E+01
    -24.507  0.0000E+00  0.0000E+00  0.4000E+01  0.4000E+01
    -24.314  0.0000E+00  0.0000E+00  0.4000E+01  0.4000E+01
    -24.121  0.0000E+00  0.0000E+00  0.4000E+01  0.4000E+01
    -23.928  0.0000E+00  0.0000E+00  0.4000E+01  0.4000E+01
    -23.735  0.0000E+00  0.0000E+00  0.4000E+01  0.4000E+01
    -23.542  0.0000E+00  0.0000E+00  0.4000E+01  0.4000E+01
    -23.350  0.0000E+00  0.0000E+00  0.4000E+01  0.4000E+01
    -23.157  0.0000E+00  0.0000E+00  0.4000E+01  0.4000E+01
    -22.964  0.0000E+00  0.0000E+00  0.4000E+01  0.4000E+01
    -22.771  0.0000E+00  0.0000E+00  0.4000E+01  0.4000E+01
    -22.578  0.0000E+00  0.0000E+00  0.4000E+01  0.4000E+01
    -22.385  0.0000E+00  0.0000E+00  0.4000E+01  0.4000E+01
    -22.192  0.0000E+00  0.0000E+00  0.4000E+01  0.4000E+01
    -21.999  0.0000E+00  0.0000E+00  0.4000E+01  0.4000E+01
    -21.806  0.0000E+00  0.0000E+00  0.4000E+01  0.4000E+01
    -21.614  0.0000E+00  0.0000E+00  0.4000E+01  0.4000E+01
    -21.421  0.0000E+00  0.0000E+00  0.4000E+01  0.4000E+01
    -21.228  0.0000E+00  0.0000E+00  0.4000E+01  0.4000E+01
    -21.035  0.0000E+00  0.0000E+00  0.4000E+01  0.4000E+01
    -20.842  0.0000E+00  0.0000E+00  0.4000E+01  0.4000E+01
    -20.649  0.0000E+00  0.0000E+00  0.4000E+01  0.4000E+01
    -20.456  0.0000E+00  0.0000E+00  0.4000E+01  0.4000E+01
    -20.263  0.0000E+00  0.0000E+00  0.4000E+01  0.4000E+01
    -20.070  0.0000E+00  0.0000E+00  0.4000E+01  0.4000E+01
    -19.878  0.1583E-02  0.1582E-02  0.4000E+01  0.4000E+01
    -19.685  0.7330E-01  0.7325E-01  0.4014E+01  0.4014E+01
    -19.492  0.3258E+01  0.3255E+01  0.4643E+01  0.4642E+01
    -19.299  0.4073E+02  0.4072E+02  0.1250E+02  0.1250E+02
    -19.106  0.1760E+02  0.1761E+02  0.1589E+02  0.1589E+02
    -18.913  0.0000E+00  0.0000E+00  0.1600E+02  0.1600E+02
    -18.720  0.0000E+00  0.0000E+00  0.1600E+02  0.1600E+02
    -18.527  0.0000E+00  0.0000E+00  0.1600E+02  0.1600E+02
    -18.334  0.0000E+00  0.0000E+00  0.1600E+02  0.1600E+02
    -18.142  0.0000E+00  0.0000E+00  0.1600E+02  0.1600E+02
    -17.949  0.0000E+00  0.0000E+00  0.1600E+02  0.1600E+02
    -17.756  0.0000E+00  0.0000E+00  0.1600E+02  0.1600E+02
    -17.563  0.0000E+00  0.0000E+00  0.1600E+02  0.1600E+02
    -17.370  0.0000E+00  0.0000E+00  0.1600E+02  0.1600E+02
    -17.177  0.0000E+00  0.0000E+00  0.1600E+02  0.1600E+02
    -16.984  0.0000E+00  0.0000E+00  0.1600E+02  0.1600E+02
    -16.791  0.0000E+00  0.0000E+00  0.1600E+02  0.1600E+02
    -16.598  0.0000E+00  0.0000E+00  0.1600E+02  0.1600E+02
    -16.406  0.0000E+00  0.0000E+00  0.1600E+02  0.1600E+02
    -16.213  0.0000E+00  0.0000E+00  0.1600E+02  0.1600E+02
    -16.020  0.0000E+00  0.0000E+00  0.1600E+02  0.1600E+02
    -15.827  0.0000E+00  0.0000E+00  0.1600E+02  0.1600E+02
    -15.634  0.0000E+00  0.0000E+00  0.1600E+02  0.1600E+02
    -15.441  0.0000E+00  0.0000E+00  0.1600E+02  0.1600E+02
    -15.248  0.0000E+00  0.0000E+00  0.1600E+02  0.1600E+02
    -15.055  0.0000E+00  0.0000E+00  0.1600E+02  0.1600E+02
    -14.863  0.0000E+00  0.0000E+00  0.1600E+02  0.1600E+02
    -14.670  0.0000E+00  0.0000E+00  0.1600E+02  0.1600E+02
    -14.477  0.0000E+00  0.0000E+00  0.1600E+02  0.1600E+02
    -14.284  0.0000E+00  0.0000E+00  0.1600E+02  0.1600E+02
    -14.091  0.0000E+00  0.0000E+00  0.1600E+02  0.1600E+02
    -13.898  0.0000E+00  0.0000E+00  0.1600E+02  0.1600E+02
    -13.705  0.0000E+00  0.0000E+00  0.1600E+02  0.1600E+02
    -13.512  0.0000E+00  0.0000E+00  0.1600E+02  0.1600E+02
    -13.319  0.0000E+00  0.0000E+00  0.1600E+02  0.1600E+02
    -13.127  0.0000E+00  0.0000E+00  0.1600E+02  0.1600E+02
    -12.934  0.0000E+00  0.0000E+00  0.1600E+02  0.1600E+02
    -12.741  0.0000E+00  0.0000E+00  0.1600E+02  0.1600E+02
    -12.548  0.0000E+00  0.0000E+00  0.1600E+02  0.1600E+02
    -12.355  0.0000E+00  0.0000E+00  0.1600E+02  0.1600E+02
    -12.162  0.0000E+00  0.0000E+00  0.1600E+02  0.1600E+02
    -11.969  0.0000E+00  0.0000E+00  0.1600E+02  0.1600E+02
    -11.776  0.0000E+00  0.0000E+00  0.1600E+02  0.1600E+02
    -11.583  0.0000E+00  0.0000E+00  0.1600E+02  0.1600E+02
    -11.391  0.0000E+00  0.0000E+00  0.1600E+02  0.1600E+02
    -11.198  0.0000E+00  0.0000E+00  0.1600E+02  0.1600E+02
    -11.005  0.0000E+00  0.0000E+00  0.1600E+02  0.1600E+02
    -10.812  0.0000E+00  0.0000E+00  0.1600E+02  0.1600E+02
    -10.619  0.0000E+00  0.0000E+00  0.1600E+02  0.1600E+02
    -10.426  0.0000E+00  0.0000E+00  0.1600E+02  0.1600E+02
    -10.233  0.0000E+00  0.0000E+00  0.1600E+02  0.1600E+02
    -10.040  0.0000E+00  0.0000E+00  0.1600E+02  0.1600E+02
     -9.847  0.0000E+00  0.0000E+00  0.1600E+02  0.1600E+02
     -9.655  0.0000E+00  0.0000E+00  0.1600E+02  0.1600E+02
     -9.462  0.0000E+00  0.0000E+00  0.1600E+02  0.1600E+02
     -9.269  0.0000E+00  0.0000E+00  0.1600E+02  0.1600E+02
     -9.076  0.0000E+00  0.0000E+00  0.1600E+02  0.1600E+02
     -8.883  0.0000E+00  0.0000E+00  0.1600E+02  0.1600E+02
     -8.690  0.0000E+00  0.0000E+00  0.1600E+02  0.1600E+02
     -8.497  0.0000E+00  0.0000E+00  0.1600E+02  0.1600E+02
     -8.304  0.0000E+00  0.0000E+00  0.1600E+02  0.1600E+02
     -8.111  0.0000E+00  0.0000E+00  0.1600E+02  0.1600E+02
     -7.919  0.0000E+00  0.0000E+00  0.1600E+02  0.1600E+02
     -7.726  0.0000E+00  0.0000E+00  0.1600E+02  0.1600E+02
     -7.533  0.0000E+00  0.0000E+00  0.1600E+02  0.1600E+02
     -7.340  0.0000E+00  0.0000E+00  0.1600E+02  0.1600E+02
     -7.147  0.0000E+00  0.0000E+00  0.1600E+02  0.1600E+02
     -6.954  0.0000E+00  0.0000E+00  0.1600E+02  0.1600E+02
     -6.761  0.0000E+00  0.0000E+00  0.1600E+02  0.1600E+02
     -6.568  0.0000E+00  0.0000E+00  0.1600E+02  0.1600E+02
     -6.375  0.0000E+00  0.0000E+00  0.1600E+02  0.1600E+02
     -6.183  0.0000E+00  0.0000E+00  0.1600E+02  0.1600E+02
     -5.990  0.0000E+00  0.0000E+00  0.1600E+02  0.1600E+02
     -5.797  0.0000E+00  0.0000E+00  0.1600E+02  0.1600E+02
     -5.604  0.0000E+00  0.0000E+00  0.1600E+02  0.1600E+02
     -5.411  0.0000E+00  0.0000E+00  0.1600E+02  0.1600E+02
     -5.218  0.0000E+00  0.0000E+00  0.1600E+02  0.1600E+02
     -5.025  0.0000E+00  0.0000E+00  0.1600E+02  0.1600E+02
     -4.832  0.0000E+00  0.0000E+00  0.1600E+02  0.1600E+02
     -4.639  0.0000E+00  0.0000E+00  0.1600E+02  0.1600E+02
     -4.447  0.0000E+00  0.0000E+00  0.1600E+02  0.1600E+02
     -4.254  0.0000E+00  0.0000E+00  0.1600E+02  0.1600E+02
     -4.061  0.0000E+00  0.0000E+00  0.1600E+02  0.1600E+02
     -3.868  0.0000E+00  0.0000E+00  0.1600E+02  0.1600E+02
     -3.675  0.0000E+00  0.0000E+00  0.1600E+02  0.1600E+02
     -3.482  0.0000E+00  0.0000E+00  0.1600E+02  0.1600E+02
     -3.289  0.0000E+00  0.0000E+00  0.1600E+02  0.1600E+02
     -3.096  0.0000E+00  0.0000E+00  0.1600E+02  0.1600E+02
     -2.903  0.8434E-06  0.8400E-06  0.1600E+02  0.1600E+02
     -2.711  0.5727E-04  0.5703E-04  0.1600E+02  0.1600E+02
     -2.518  0.2670E-02  0.2660E-02  0.1600E+02  0.1600E+02
     -2.325  0.7009E-01  0.6991E-01  0.1601E+02  0.1601E+02
     -2.132  0.2909E+00  0.2907E+00  0.1607E+02  0.1607E+02
     -1.939  0.4858E+00  0.4857E+00  0.1616E+02  0.1616E+02
     -1.746  0.6229E+00  0.6226E+00  0.1628E+02  0.1628E+02
     -1.553  0.7201E+00  0.7200E+00  0.1642E+02  0.1642E+02
     -1.360  0.7658E+00  0.7655E+00  0.1657E+02  0.1657E+02
     -1.167  0.1020E+01  0.1020E+01  0.1677E+02  0.1677E+02
     -0.975  0.9069E+00  0.9070E+00  0.1694E+02  0.1694E+02
     -0.782  0.1227E+01  0.1226E+01  0.1718E+02  0.1718E+02
     -0.589  0.1305E+01  0.1305E+01  0.1743E+02  0.1743E+02
     -0.396  0.1324E+01  0.1324E+01  0.1769E+02  0.1769E+02
     -0.203  0.1476E+01  0.1476E+01  0.1798E+02  0.1798E+02
     -0.010  0.1607E+01  0.1607E+01  0.1829E+02  0.1829E+02
      0.183  0.1465E+01  0.1465E+01  0.1857E+02  0.1857E+02
      0.376  0.1267E+01  0.1267E+01  0.1882E+02  0.1882E+02
      0.568  0.1487E+01  0.1487E+01  0.1911E+02  0.1911E+02
      0.761  0.1400E+01  0.1400E+01  0.1938E+02  0.1938E+02
      0.954  0.1667E+01  0.1667E+01  0.1970E+02  0.1970E+02
      1.147  0.1636E+01  0.1636E+01  0.2002E+02  0.2001E+02
      1.340  0.1533E+01  0.1533E+01  0.2031E+02  0.2031E+02
      1.533  0.1965E+01  0.1965E+01  0.2069E+02  0.2069E+02
      1.726  0.2143E+01  0.2143E+01  0.2111E+02  0.2111E+02
      1.919  0.2016E+01  0.2016E+01  0.2150E+02  0.2150E+02
      2.112  0.1875E+01  0.1875E+01  0.2186E+02  0.2186E+02
      2.304  0.1947E+01  0.1947E+01  0.2224E+02  0.2224E+02
      2.497  0.1715E+01  0.1715E+01  0.2257E+02  0.2257E+02
      2.690  0.2277E+01  0.2277E+01  0.2301E+02  0.2301E+02
      2.883  0.1971E+01  0.1972E+01  0.2339E+02  0.2339E+02
      3.076  0.2048E+01  0.2048E+01  0.2379E+02  0.2379E+02
      3.269  0.2469E+01  0.2469E+01  0.2427E+02  0.2427E+02
      3.462  0.2878E+01  0.2877E+01  0.2482E+02  0.2482E+02
      3.655  0.2830E+01  0.2831E+01  0.2537E+02  0.2537E+02
      3.848  0.2298E+01  0.2299E+01  0.2582E+02  0.2582E+02
      4.040  0.1943E+01  0.1943E+01  0.2619E+02  0.2619E+02
      4.233  0.2104E+01  0.2104E+01  0.2660E+02  0.2660E+02
      4.426  0.3041E+01  0.3040E+01  0.2719E+02  0.2719E+02
      4.619  0.2515E+01  0.2515E+01  0.2768E+02  0.2768E+02
      4.812  0.2799E+01  0.2799E+01  0.2822E+02  0.2822E+02
      5.005  0.3114E+01  0.3114E+01  0.2882E+02  0.2882E+02
      5.198  0.3520E+01  0.3519E+01  0.2950E+02  0.2950E+02
      5.391  0.3456E+01  0.3457E+01  0.3017E+02  0.3017E+02
      5.584  0.3869E+01  0.3868E+01  0.3092E+02  0.3092E+02
      5.776  0.4243E+01  0.4243E+01  0.3174E+02  0.3174E+02
      5.969  0.3661E+01  0.3662E+01  0.3245E+02  0.3245E+02
      6.162  0.3187E+01  0.3187E+01  0.3307E+02  0.3307E+02
      6.355  0.3814E+01  0.3814E+01  0.3381E+02  0.3381E+02
      6.548  0.4017E+01  0.4016E+01  0.3459E+02  0.3458E+02
      6.741  0.4990E+01  0.4989E+01  0.3555E+02  0.3555E+02
      6.934  0.4875E+01  0.4875E+01  0.3649E+02  0.3649E+02
      7.127  0.5139E+01  0.5139E+01  0.3749E+02  0.3749E+02
      7.320  0.3942E+01  0.3943E+01  0.3826E+02  0.3825E+02
      7.512  0.3841E+01  0.3840E+01  0.3900E+02  0.3900E+02
      7.705  0.3770E+01  0.3770E+01  0.3973E+02  0.3973E+02
      7.898  0.3225E+01  0.3226E+01  0.4036E+02  0.4035E+02
      8.091  0.2778E+01  0.2779E+01  0.4089E+02  0.4089E+02
      8.284  0.2077E+01  0.2077E+01  0.4130E+02  0.4130E+02
      8.477  0.2033E+01  0.2032E+01  0.4169E+02  0.4169E+02
      8.670  0.2000E+01  0.2000E+01  0.4208E+02  0.4208E+02
      8.863  0.2726E+01  0.2726E+01  0.4261E+02  0.4260E+02
      9.056  0.2799E+01  0.2798E+01  0.4315E+02  0.4315E+02
      9.248  0.3162E+01  0.3163E+01  0.4376E+02  0.4376E+02
      9.441  0.3111E+01  0.3110E+01  0.4436E+02  0.4436E+02
      9.634  0.4207E+01  0.4201E+01  0.4518E+02  0.4517E+02
      9.827  0.5237E+01  0.5246E+01  0.4619E+02  0.4619E+02
     10.020  0.5630E+01  0.5635E+01  0.4728E+02  0.4728E+02
     10.213  0.5025E+01  0.5033E+01  0.4825E+02  0.4825E+02
     10.406  0.5643E+01  0.5657E+01  0.4935E+02  0.4935E+02
     10.599  0.5340E+01  0.5383E+01  0.5038E+02  0.5039E+02
     10.792  0.6331E+01  0.6258E+01  0.5161E+02  0.5161E+02
     10.984  0.6815E+01  0.7016E+01  0.5292E+02  0.5296E+02
     11.177  0.5841E+01  0.5733E+01  0.5406E+02  0.5407E+02
     11.370  0.4435E+01  0.4216E+01  0.5492E+02  0.5489E+02
     11.563  0.2906E+01  0.3059E+01  0.5548E+02  0.5549E+02
     11.756  0.1763E+01  0.2031E+01  0.5582E+02  0.5588E+02
     11.949  0.6258E+00  0.5498E+00  0.5595E+02  0.5599E+02
     12.142  0.2506E+00  0.4527E-01  0.5600E+02  0.5600E+02
     12.335  0.1856E-01  0.1362E-02  0.5600E+02  0.5600E+02
     12.528  0.0000E+00  0.0000E+00  0.5600E+02  0.5600E+02
     12.720  0.0000E+00  0.0000E+00  0.5600E+02  0.5600E+02
     12.913  0.0000E+00  0.0000E+00  0.5600E+02  0.5600E+02
     13.106  0.0000E+00  0.0000E+00  0.5600E+02  0.5600E+02
     13.299  0.0000E+00  0.0000E+00  0.5600E+02  0.5600E+02
     13.492  0.0000E+00  0.0000E+00  0.5600E+02  0.5600E+02
     13.685  0.0000E+00  0.0000E+00  0.5600E+02  0.5600E+02
     13.878  0.0000E+00  0.0000E+00  0.5600E+02  0.5600E+02
     14.071  0.0000E+00  0.0000E+00  0.5600E+02  0.5600E+02
     14.263  0.0000E+00  0.0000E+00  0.5600E+02  0.5600E+02
     14.456  0.0000E+00  0.0000E+00  0.5600E+02  0.5600E+02
     14.649  0.0000E+00  0.0000E+00  0.5600E+02  0.5600E+02
     14.64926625    -43.21694687  301      7.78649701      1.00000000
    -43.217  0.0000E+00  0.0000E+00  0.0000E+00  0.0000E+00  0.0000E+00  0.0000E+00  0.0000E+00  0.0000E+00  0.0000E+00  0.0000E+00  0.0000E+00  0.0000E+00  0.0000E+00  0.0000E+00  0.0000E+00  0.0000E+00  0.0000E+00  0.0000E+00
    -43.024  0.0000E+00  0.0000E+00  0.0000E+00  0.0000E+00  0.0000E+00  0.0000E+00  0.0000E+00  0.0000E+00  0.0000E+00  0.0000E+00  0.0000E+00  0.0000E+00  0.0000E+00  0.0000E+00  0.0000E+00  0.0000E+00  0.0000E+00  0.0000E+00
    -42.831  0.0000E+00  0.0000E+00  0.0000E+00  0.0000E+00  0.0000E+00  0.0000E+00  0.0000E+00  0.0000E+00  0.0000E+00  0.0000E+00  0.0000E+00  0.0000E+00  0.0000E+00  0.0000E+00  0.0000E+00  0.0000E+00  0.0000E+00  0.0000E+00
    -42.638  0.0000E+00  0.0000E+00  0.0000E+00  0.0000E+00  0.0000E+00  0.0000E+00  0.0000E+00  0.0000E+00  0.0000E+00  0.0000E+00  0.0000E+00  0.0000E+00  0.0000E+00  0.0000E+00  0.0000E+00  0.0000E+00  0.0000E+00  0.0000E+00
    -42.445  0.0000E+00  0.0000E+00  0.0000E+00  0.0000E+00  0.0000E+00  0.0000E+00  0.0000E+00  0.0000E+00  0.0000E+00  0.0000E+00  0.0000E+00  0.0000E+00  0.0000E+00  0.0000E+00  0.0000E+00  0.0000E+00  0.0000E+00  0.0000E+00
    -42.253  0.0000E+00  0.0000E+00  0.0000E+00  0.0000E+00  0.0000E+00  0.0000E+00  0.0000E+00  0.0000E+00  0.0000E+00  0.0000E+00  0.0000E+00  0.0000E+00  0.0000E+00  0.0000E+00  0.0000E+00  0.0000E+00  0.0000E+00  0.0000E+00
    -42.060  0.0000E+00  0.0000E+00  0.0000E+00  0.0000E+00  0.0000E+00  0.0000E+00  0.0000E+00  0.0000E+00  0.0000E+00  0.0000E+00  0.0000E+00  0.0000E+00  0.0000E+00  0.0000E+00  0.0000E+00  0.0000E+00  0.0000E+00  0.0000E+00
    -41.867  0.0000E+00  0.0000E+00  0.0000E+00  0.0000E+00  0.0000E+00  0.0000E+00  0.0000E+00  0.0000E+00  0.0000E+00  0.0000E+00  0.0000E+00  0.0000E+00  0.0000E+00  0.0000E+00  0.0000E+00  0.0000E+00  0.0000E+00  0.0000E+00
    -41.674  0.0000E+00  0.0000E+00  0.0000E+00  0.0000E+00  0.0000E+00  0.0000E+00  0.0000E+00  0.0000E+00  0.0000E+00  0.0000E+00  0.0000E+00  0.0000E+00  0.0000E+00  0.0000E+00  0.0000E+00  0.0000E+00  0.0000E+00  0.0000E+00
    -41.481  0.0000E+00  0.0000E+00  0.0000E+00  0.0000E+00  0.0000E+00  0.0000E+00  0.0000E+00  0.0000E+00  0.0000E+00  0.0000E+00  0.0000E+00  0.0000E+00  0.0000E+00  0.0000E+00  0.0000E+00  0.0000E+00  0.0000E+00  0.0000E+00
    -41.288  0.0000E+00  0.0000E+00  0.0000E+00  0.0000E+00  0.0000E+00  0.0000E+00  0.0000E+00  0.0000E+00  0.0000E+00  0.0000E+00  0.0000E+00  0.0000E+00  0.0000E+00  0.0000E+00  0.0000E+00  0.0000E+00  0.0000E+00  0.0000E+00
    -41.095  0.1845E-03  0.1844E-03  0.2670E-11  0.2660E-11  0.7573E-09  0.7636E-09  0.2670E-11  0.2660E-11  0.1199E-13  0.9320E-14  0.1490E-13  0.9230E-14  0.1610E-10  0.1624E-10  0.1490E-13  0.9230E-14  0.1718E-11  0.1697E-11
    -40.902  0.8539E-02  0.8533E-02  0.1235E-09  0.1231E-09  0.3505E-07  0.3534E-07  0.1235E-09  0.1231E-09  0.5548E-12  0.4314E-12  0.6897E-12  0.4272E-12  0.7452E-09  0.7517E-09  0.6897E-12  0.4272E-12  0.7952E-10  0.7852E-10
    -40.709  0.3744E+00  0.3741E+00  0.5416E-08  0.5397E-08  0.1536E-05  0.1549E-05  0.5416E-08  0.5397E-08  0.2435E-10  0.1893E-10  0.3026E-10  0.1874E-10  0.3266E-07  0.3294E-07  0.3026E-10  0.1874E-10  0.3487E-08  0.3443E-08
    -40.517  0.3703E+01  0.3702E+01  0.5352E-07  0.5336E-07  0.1519E-04  0.1532E-04  0.5352E-07  0.5336E-07  0.2434E-09  0.1891E-09  0.3020E-09  0.1864E-09  0.3212E-06  0.3243E-06  0.3020E-09  0.1864E-09  0.3450E-07  0.3410E-07
    -40.324  0.1048E+01  0.1049E+01  0.1514E-07  0.1510E-07  0.4297E-05  0.4339E-05  0.1514E-07  0.1510E-07  0.6975E-10  0.5419E-10  0.8638E-10  0.5315E-10  0.9040E-07  0.9135E-07  0.8638E-10  0.5315E-10  0.9772E-08  0.9666E-08
    -40.131  0.0000E+00  0.0000E+00  0.0000E+00  0.0000E+00  0.0000E+00  0.0000E+00  0.0000E+00  0.0000E+00  0.0000E+00  0.0000E+00  0.0000E+00  0.0000E+00  0.0000E+00  0.0000E+00  0.0000E+00  0.0000E+00  0.0000E+00  0.0000E+00
    -39.938  0.0000E+00  0.0000E+00  0.0000E+00  0.0000E+00  0.0000E+00  0.0000E+00  0.0000E+00  0.0000E+00  0.0000E+00  0.0000E+00  0.0000E+00  0.0000E+00  0.0000E+00  0.0000E+00  0.0000E+00  0.0000E+00  0.0000E+00  0.0000E+00
    -39.745  0.0000E+00  0.0000E+00  0.0000E+00  0.0000E+00  0.0000E+00  0.0000E+00  0.0000E+00  0.0000E+00  0.0000E+00  0.0000E+00  0.0000E+00  0.0000E+00  0.0000E+00  0.0000E+00  0.0000E+00  0.0000E+00  0.0000E+00  0.0000E+00
    -39.552  0.0000E+00  0.0000E+00  0.0000E+00  0.0000E+00  0.0000E+00  0.0000E+00  0.0000E+00  0.0000E+00  0.0000E+00  0.0000E+00  0.0000E+00  0.0000E+00  0.0000E+00  0.0000E+00  0.0000E+00  0.0000E+00  0.0000E+00  0.0000E+00
    -39.359  0.0000E+00  0.0000E+00  0.0000E+00  0.0000E+00  0.0000E+00  0.0000E+00  0.0000E+00  0.0000E+00  0.0000E+00  0.0000E+00  0.0000E+00  0.0000E+00  0.0000E+00  0.0000E+00  0.0000E+00  0.0000E+00  0.0000E+00  0.0000E+00
    -39.166  0.0000E+00  0.0000E+00  0.0000E+00  0.0000E+00  0.0000E+00  0.0000E+00  0.0000E+00  0.0000E+00  0.0000E+00  0.0000E+00  0.0000E+00  0.0000E+00  0.0000E+00  0.0000E+00  0.0000E+00  0.0000E+00  0.0000E+00  0.0000E+00
    -38.973  0.0000E+00  0.0000E+00  0.0000E+00  0.0000E+00  0.0000E+00  0.0000E+00  0.0000E+00  0.0000E+00  0.0000E+00  0.0000E+00  0.0000E+00  0.0000E+00  0.0000E+00  0.0000E+00  0.0000E+00  0.0000E+00  0.0000E+00  0.0000E+00
    -38.781  0.0000E+00  0.0000E+00  0.0000E+00  0.0000E+00  0.0000E+00  0.0000E+00  0.0000E+00  0.0000E+00  0.0000E+00  0.0000E+00  0.0000E+00  0.0000E+00  0.0000E+00  0.0000E+00  0.0000E+00  0.0000E+00  0.0000E+00  0.0000E+00
    -38.588  0.0000E+00  0.0000E+00  0.0000E+00  0.0000E+00  0.0000E+00  0.0000E+00  0.0000E+00  0.0000E+00  0.0000E+00  0.0000E+00  0.0000E+00  0.0000E+00  0.0000E+00  0.0000E+00  0.0000E+00  0.0000E+00  0.0000E+00  0.0000E+00
    -38.395  0.0000E+00  0.0000E+00  0.0000E+00  0.0000E+00  0.0000E+00  0.0000E+00  0.0000E+00  0.0000E+00  0.0000E+00  0.0000E+00  0.0000E+00  0.0000E+00  0.0000E+00  0.0000E+00  0.0000E+00  0.0000E+00  0.0000E+00  0.0000E+00
    -38.202  0.0000E+00  0.0000E+00  0.0000E+00  0.0000E+00  0.0000E+00  0.0000E+00  0.0000E+00  0.0000E+00  0.0000E+00  0.0000E+00  0.0000E+00  0.0000E+00  0.0000E+00  0.0000E+00  0.0000E+00  0.0000E+00  0.0000E+00  0.0000E+00
    -38.009  0.0000E+00  0.0000E+00  0.0000E+00  0.0000E+00  0.0000E+00  0.0000E+00  0.0000E+00  0.0000E+00  0.0000E+00  0.0000E+00  0.0000E+00  0.0000E+00  0.0000E+00  0.0000E+00  0.0000E+00  0.0000E+00  0.0000E+00  0.0000E+00
    -37.816  0.0000E+00  0.0000E+00  0.0000E+00  0.0000E+00  0.0000E+00  0.0000E+00  0.0000E+00  0.0000E+00  0.0000E+00  0.0000E+00  0.0000E+00  0.0000E+00  0.0000E+00  0.0000E+00  0.0000E+00  0.0000E+00  0.0000E+00  0.0000E+00
    -37.623  0.0000E+00  0.0000E+00  0.0000E+00  0.0000E+00  0.0000E+00  0.0000E+00  0.0000E+00  0.0000E+00  0.0000E+00  0.0000E+00  0.0000E+00  0.0000E+00  0.0000E+00  0.0000E+00  0.0000E+00  0.0000E+00  0.0000E+00  0.0000E+00
    -37.430  0.0000E+00  0.0000E+00  0.0000E+00  0.0000E+00  0.0000E+00  0.0000E+00  0.0000E+00  0.0000E+00  0.0000E+00  0.0000E+00  0.0000E+00  0.0000E+00  0.0000E+00  0.0000E+00  0.0000E+00  0.0000E+00  0.0000E+00  0.0000E+00
    -37.237  0.0000E+00  0.0000E+00  0.0000E+00  0.0000E+00  0.0000E+00  0.0000E+00  0.0000E+00  0.0000E+00  0.0000E+00  0.0000E+00  0.0000E+00  0.0000E+00  0.0000E+00  0.0000E+00  0.0000E+00  0.0000E+00  0.0000E+00  0.0000E+00
    -37.045  0.0000E+00  0.0000E+00  0.0000E+00  0.0000E+00  0.0000E+00  0.0000E+00  0.0000E+00  0.0000E+00  0.0000E+00  0.0000E+00  0.0000E+00  0.0000E+00  0.0000E+00  0.0000E+00  0.0000E+00  0.0000E+00  0.0000E+00  0.0000E+00
    -36.852  0.0000E+00  0.0000E+00  0.0000E+00  0.0000E+00  0.0000E+00  0.0000E+00  0.0000E+00  0.0000E+00  0.0000E+00  0.0000E+00  0.0000E+00  0.0000E+00  0.0000E+00  0.0000E+00  0.0000E+00  0.0000E+00  0.0000E+00  0.0000E+00
    -36.659  0.0000E+00  0.0000E+00  0.0000E+00  0.0000E+00  0.0000E+00  0.0000E+00  0.0000E+00  0.0000E+00  0.0000E+00  0.0000E+00  0.0000E+00  0.0000E+00  0.0000E+00  0.0000E+00  0.0000E+00  0.0000E+00  0.0000E+00  0.0000E+00
    -36.466  0.0000E+00  0.0000E+00  0.0000E+00  0.0000E+00  0.0000E+00  0.0000E+00  0.0000E+00  0.0000E+00  0.0000E+00  0.0000E+00  0.0000E+00  0.0000E+00  0.0000E+00  0.0000E+00  0.0000E+00  0.0000E+00  0.0000E+00  0.0000E+00
    -36.273  0.0000E+00  0.0000E+00  0.0000E+00  0.0000E+00  0.0000E+00  0.0000E+00  0.0000E+00  0.0000E+00  0.0000E+00  0.0000E+00  0.0000E+00  0.0000E+00  0.0000E+00  0.0000E+00  0.0000E+00  0.0000E+00  0.0000E+00  0.0000E+00
    -36.080  0.0000E+00  0.0000E+00  0.0000E+00  0.0000E+00  0.0000E+00  0.0000E+00  0.0000E+00  0.0000E+00  0.0000E+00  0.0000E+00  0.0000E+00  0.0000E+00  0.0000E+00  0.0000E+00  0.0000E+00  0.0000E+00  0.0000E+00  0.0000E+00
    -35.887  0.0000E+00  0.0000E+00  0.0000E+00  0.0000E+00  0.0000E+00  0.0000E+00  0.0000E+00  0.0000E+00  0.0000E+00  0.0000E+00  0.0000E+00  0.0000E+00  0.0000E+00  0.0000E+00  0.0000E+00  0.0000E+00  0.0000E+00  0.0000E+00
    -35.694  0.0000E+00  0.0000E+00  0.0000E+00  0.0000E+00  0.0000E+00  0.0000E+00  0.0000E+00  0.0000E+00  0.0000E+00  0.0000E+00  0.0000E+00  0.0000E+00  0.0000E+00  0.0000E+00  0.0000E+00  0.0000E+00  0.0000E+00  0.0000E+00
    -35.501  0.0000E+00  0.0000E+00  0.0000E+00  0.0000E+00  0.0000E+00  0.0000E+00  0.0000E+00  0.0000E+00  0.0000E+00  0.0000E+00  0.0000E+00  0.0000E+00  0.0000E+00  0.0000E+00  0.0000E+00  0.0000E+00  0.0000E+00  0.0000E+00
    -35.309  0.0000E+00  0.0000E+00  0.0000E+00  0.0000E+00  0.0000E+00  0.0000E+00  0.0000E+00  0.0000E+00  0.0000E+00  0.0000E+00  0.0000E+00  0.0000E+00  0.0000E+00  0.0000E+00  0.0000E+00  0.0000E+00  0.0000E+00  0.0000E+00
    -35.116  0.0000E+00  0.0000E+00  0.0000E+00  0.0000E+00  0.0000E+00  0.0000E+00  0.0000E+00  0.0000E+00  0.0000E+00  0.0000E+00  0.0000E+00  0.0000E+00  0.0000E+00  0.0000E+00  0.0000E+00  0.0000E+00  0.0000E+00  0.0000E+00
    -34.923  0.0000E+00  0.0000E+00  0.0000E+00  0.0000E+00  0.0000E+00  0.0000E+00  0.0000E+00  0.0000E+00  0.0000E+00  0.0000E+00  0.0000E+00  0.0000E+00  0.0000E+00  0.0000E+00  0.0000E+00  0.0000E+00  0.0000E+00  0.0000E+00
    -34.730  0.0000E+00  0.0000E+00  0.0000E+00  0.0000E+00  0.0000E+00  0.0000E+00  0.0000E+00  0.0000E+00  0.0000E+00  0.0000E+00  0.0000E+00  0.0000E+00  0.0000E+00  0.0000E+00  0.0000E+00  0.0000E+00  0.0000E+00  0.0000E+00
    -34.537  0.0000E+00  0.0000E+00  0.0000E+00  0.0000E+00  0.0000E+00  0.0000E+00  0.0000E+00  0.0000E+00  0.0000E+00  0.0000E+00  0.0000E+00  0.0000E+00  0.0000E+00  0.0000E+00  0.0000E+00  0.0000E+00  0.0000E+00  0.0000E+00
    -34.344  0.0000E+00  0.0000E+00  0.0000E+00  0.0000E+00  0.0000E+00  0.0000E+00  0.0000E+00  0.0000E+00  0.0000E+00  0.0000E+00  0.0000E+00  0.0000E+00  0.0000E+00  0.0000E+00  0.0000E+00  0.0000E+00  0.0000E+00  0.0000E+00
    -34.151  0.0000E+00  0.0000E+00  0.0000E+00  0.0000E+00  0.0000E+00  0.0000E+00  0.0000E+00  0.0000E+00  0.0000E+00  0.0000E+00  0.0000E+00  0.0000E+00  0.0000E+00  0.0000E+00  0.0000E+00  0.0000E+00  0.0000E+00  0.0000E+00
    -33.958  0.0000E+00  0.0000E+00  0.0000E+00  0.0000E+00  0.0000E+00  0.0000E+00  0.0000E+00  0.0000E+00  0.0000E+00  0.0000E+00  0.0000E+00  0.0000E+00  0.0000E+00  0.0000E+00  0.0000E+00  0.0000E+00  0.0000E+00  0.0000E+00
    -33.765  0.0000E+00  0.0000E+00  0.0000E+00  0.0000E+00  0.0000E+00  0.0000E+00  0.0000E+00  0.0000E+00  0.0000E+00  0.0000E+00  0.0000E+00  0.0000E+00  0.0000E+00  0.0000E+00  0.0000E+00  0.0000E+00  0.0000E+00  0.0000E+00
    -33.573  0.0000E+00  0.0000E+00  0.0000E+00  0.0000E+00  0.0000E+00  0.0000E+00  0.0000E+00  0.0000E+00  0.0000E+00  0.0000E+00  0.0000E+00  0.0000E+00  0.0000E+00  0.0000E+00  0.0000E+00  0.0000E+00  0.0000E+00  0.0000E+00