  16  16   1   0
  0.2156983E+02  0.4325840E-09  0.4325840E-09  0.1844275E-08  0.5000000E-15
  1.000000000000000E-004
  CAR 
 unknown system                          
     10.99854943    -47.15747124  301      5.05667838      1.00000000
    -47.157  0.0000E+00  0.0000E+00  0.0000E+00  0.0000E+00
    -46.964  0.0000E+00  0.0000E+00  0.0000E+00  0.0000E+00
    -46.770  0.0000E+00  0.0000E+00  0.0000E+00  0.0000E+00
    -46.576  0.0000E+00  0.0000E+00  0.0000E+00  0.0000E+00
    -46.382  0.0000E+00  0.0000E+00  0.0000E+00  0.0000E+00
    -46.188  0.0000E+00  0.0000E+00  0.0000E+00  0.0000E+00
    -45.994  0.0000E+00  0.0000E+00  0.0000E+00  0.0000E+00
    -45.800  0.0000E+00  0.0000E+00  0.0000E+00  0.0000E+00
    -45.607  0.0000E+00  0.0000E+00  0.0000E+00  0.0000E+00
    -45.413  0.0000E+00  0.0000E+00  0.0000E+00  0.0000E+00
    -45.219  0.0000E+00  0.0000E+00  0.0000E+00  0.0000E+00
    -45.025  0.7431E-03  0.7421E-03  0.1440E-03  0.1438E-03
    -44.831  0.3507E-01  0.3503E-01  0.6943E-02  0.6934E-02
    -44.637  0.1562E+01  0.1560E+01  0.3098E+00  0.3094E+00
    -44.444  0.1495E+02  0.1495E+02  0.3208E+01  0.3208E+01
    -44.250  0.3978E+01  0.3983E+01  0.3980E+01  0.3980E+01
    -44.056  0.0000E+00  0.0000E+00  0.4000E+01  0.4000E+01
    -43.862  0.0000E+00  0.0000E+00  0.4000E+01  0.4000E+01
    -43.668  0.0000E+00  0.0000E+00  0.4000E+01  0.4000E+01
    -43.474  0.0000E+00  0.0000E+00  0.4000E+01  0.4000E+01
    -43.280  0.0000E+00  0.0000E+00  0.4000E+01  0.4000E+01
    -43.087  0.0000E+00  0.0000E+00  0.4000E+01  0.4000E+01
    -42.893  0.0000E+00  0.0000E+00  0.4000E+01  0.4000E+01
    -42.699  0.0000E+00  0.0000E+00  0.4000E+01  0.4000E+01
    -42.505  0.0000E+00  0.0000E+00  0.4000E+01  0.4000E+01
    -42.311  0.0000E+00  0.0000E+00  0.4000E+01  0.4000E+01
    -42.117  0.0000E+00  0.0000E+00  0.4000E+01  0.4000E+01
    -41.923  0.0000E+00  0.0000E+00  0.4000E+01  0.4000E+01
    -41.730  0.0000E+00  0.0000E+00  0.4000E+01  0.4000E+01
    -41.536  0.0000E+00  0.0000E+00  0.4000E+01  0.4000E+01
    -41.342  0.0000E+00  0.0000E+00  0.4000E+01  0.4000E+01
    -41.148  0.0000E+00  0.0000E+00  0.4000E+01  0.4000E+01
    -40.954  0.0000E+00  0.0000E+00  0.4000E+01  0.4000E+01
    -40.760  0.0000E+00  0.0000E+00  0.4000E+01  0.4000E+01
    -40.566  0.0000E+00  0.0000E+00  0.4000E+01  0.4000E+01
    -40.373  0.0000E+00  0.0000E+00  0.4000E+01  0.4000E+01
    -40.179  0.0000E+00  0.0000E+00  0.4000E+01  0.4000E+01
    -39.985  0.0000E+00  0.0000E+00  0.4000E+01  0.4000E+01
    -39.791  0.0000E+00  0.0000E+00  0.4000E+01  0.4000E+01
    -39.597  0.0000E+00  0.0000E+00  0.4000E+01  0.4000E+01
    -39.403  0.0000E+00  0.0000E+00  0.4000E+01  0.4000E+01
    -39.209  0.0000E+00  0.0000E+00  0.4000E+01  0.4000E+01
    -39.016  0.0000E+00  0.0000E+00  0.4000E+01  0.4000E+01
    -38.822  0.0000E+00  0.0000E+00  0.4000E+01  0.4000E+01
    -38.628  0.0000E+00  0.0000E+00  0.4000E+01  0.4000E+01
    -38.434  0.0000E+00  0.0000E+00  0.4000E+01  0.4000E+01
    -38.240  0.0000E+00  0.0000E+00  0.4000E+01  0.4000E+01
    -38.046  0.0000E+00  0.0000E+00  0.4000E+01  0.4000E+01
    -37.853  0.0000E+00  0.0000E+00  0.4000E+01  0.4000E+01
    -37.659  0.0000E+00  0.0000E+00  0.4000E+01  0.4000E+01
    -37.465  0.0000E+00  0.0000E+00  0.4000E+01  0.4000E+01
    -37.271  0.0000E+00  0.0000E+00  0.4000E+01  0.4000E+01
    -37.077  0.0000E+00  0.0000E+00  0.4000E+01  0.4000E+01
    -36.883  0.0000E+00  0.0000E+00  0.4000E+01  0.4000E+01
    -36.689  0.0000E+00  0.0000E+00  0.4000E+01  0.4000E+01
    -36.496  0.0000E+00  0.0000E+00  0.4000E+01  0.4000E+01
    -36.302  0.0000E+00  0.0000E+00  0.4000E+01  0.4000E+01
    -36.108  0.0000E+00  0.0000E+00  0.4000E+01  0.4000E+01
    -35.914  0.0000E+00  0.0000E+00  0.4000E+01  0.4000E+01
    -35.720  0.0000E+00  0.0000E+00  0.4000E+01  0.4000E+01
    -35.526  0.0000E+00  0.0000E+00  0.4000E+01  0.4000E+01
    -35.332  0.0000E+00  0.0000E+00  0.4000E+01  0.4000E+01
    -35.139  0.0000E+00  0.0000E+00  0.4000E+01  0.4000E+01
    -34.945  0.0000E+00  0.0000E+00  0.4000E+01  0.4000E+01
    -34.751  0.0000E+00  0.0000E+00  0.4000E+01  0.4000E+01
    -34.557  0.0000E+00  0.0000E+00  0.4000E+01  0.4000E+01
    -34.363  0.0000E+00  0.0000E+00  0.4000E+01  0.4000E+01
    -34.169  0.0000E+00  0.0000E+00  0.4000E+01  0.4000E+01
    -33.975  0.0000E+00  0.0000E+00  0.4000E+01  0.4000E+01
    -33.782  0.0000E+00  0.0000E+00  0.4000E+01  0.4000E+01
    -33.588  0.0000E+00  0.0000E+00  0.4000E+01  0.4000E+01
    -33.394  0.0000E+00  0.0000E+00  0.4000E+01  0.4000E+01
    -33.200  0.0000E+00  0.0000E+00  0.4000E+01  0.4000E+01
    -33.006  0.0000E+00  0.0000E+00  0.4000E+01  0.4000E+01
    -32.812  0.0000E+00  0.0000E+00  0.4000E+01  0.4000E+01
    -32.618  0.0000E+00  0.0000E+00  0.4000E+01  0.4000E+01
    -32.425  0.0000E+00  0.0000E+00  0.4000E+01  0.4000E+01
    -32.231  0.0000E+00  0.0000E+00  0.4000E+01  0.4000E+01
    -32.037  0.0000E+00  0.0000E+00  0.4000E+01  0.4000E+01
    -31.843  0.0000E+00  0.0000E+00  0.4000E+01  0.4000E+01
    -31.649  0.0000E+00  0.0000E+00  0.4000E+01  0.4000E+01
    -31.455  0.0000E+00  0.0000E+00  0.4000E+01  0.4000E+01
    -31.261  0.0000E+00  0.0000E+00  0.4000E+01  0.4000E+01
    -31.068  0.0000E+00  0.0000E+00  0.4000E+01  0.4000E+01
    -30.874  0.0000E+00  0.0000E+00  0.4000E+01  0.4000E+01
    -30.680  0.0000E+00  0.0000E+00  0.4000E+01  0.4000E+01
    -30.486  0.0000E+00  0.0000E+00  0.4000E+01  0.4000E+01
    -30.292  0.0000E+00  0.0000E+00  0.4000E+01  0.4000E+01
    -30.098  0.0000E+00  0.0000E+00  0.4000E+01  0.4000E+01
    -29.905  0.0000E+00  0.0000E+00  0.4000E+01  0.4000E+01
    -29.711  0.0000E+00  0.0000E+00  0.4000E+01  0.4000E+01
    -29.517  0.0000E+00  0.0000E+00  0.4000E+01  0.4000E+01
    -29.323  0.0000E+00  0.0000E+00  0.4000E+01  0.4000E+01
    -29.129  0.0000E+00  0.0000E+00  0.4000E+01  0.4000E+01
    -28.935  0.0000E+00  0.0000E+00  0.4000E+01  0.4000E+01
    -28.741  0.0000E+00  0.0000E+00  0.4000E+01  0.4000E+01
    -28.548  0.0000E+00  0.0000E+00  0.4000E+01  0.4000E+01
    -28.354  0.0000E+00  0.0000E+00  0.4000E+01  0.4000E+01
    -28.160  0.0000E+00  0.0000E+00  0.4000E+01  0.4000E+01
    -27.966  0.0000E+00  0.0000E+00  0.4000E+01  0.4000E+01
    -27.772  0.0000E+00  0.0000E+00  0.4000E+01  0.4000E+01
    -27.578  0.0000E+00  0.0000E+00  0.4000E+01  0.4000E+01
    -27.384  0.0000E+00  0.0000E+00  0.4000E+01  0.4000E+01
    -27.191  0.0000E+00  0.0000E+00  0.4000E+01  0.4000E+01
    -26.997  0.0000E+00  0.0000E+00  0.4000E+01  0.4000E+01
    -26.803  0.0000E+00  0.0000E+00  0.4000E+01  0.4000E+01
    -26.609  0.0000E+00  0.0000E+00  0.4000E+01  0.4000E+01
    -26.415  0.0000E+00  0.0000E+00  0.4000E+01  0.4000E+01
    -26.221  0.0000E+00  0.0000E+00  0.4000E+01  0.4000E+01
    -26.027  0.0000E+00  0.0000E+00  0.4000E+01  0.4000E+01
    -25.834  0.0000E+00  0.0000E+00  0.4000E+01  0.4000E+01
    -25.640  0.0000E+00  0.0000E+00  0.4000E+01  0.4000E+01
    -25.446  0.0000E+00  0.0000E+00  0.4000E+01  0.4000E+01
    -25.252  0.0000E+00  0.0000E+00  0.4000E+01  0.4000E+01
    -25.058  0.0000E+00  0.0000E+00  0.4000E+01  0.4000E+01
    -24.864  0.0000E+00  0.0000E+00  0.4000E+01  0.4000E+01
    -24.670  0.0000E+00  0.0000E+00  0.4000E+01  0.4000E+01
    -24.477  0.0000E+00  0.0000E+00  0.4000E+01  0.4000E+01
    -24.283  0.0000E+00  0.0000E+00  0.4000E+01  0.4000E+01
    -24.089  0.0000E+00  0.0000E+00  0.4000E+01  0.4000E+01
    -23.895  0.0000E+00  0.0000E+00  0.4000E+01  0.4000E+01
    -23.701  0.9515E-03  0.9503E-03  0.4000E+01  0.4000E+01
    -23.507  0.4496E-01  0.4490E-01  0.4009E+01  0.4009E+01
    -23.314  0.2095E+01  0.2092E+01  0.4415E+01  0.4415E+01
    -23.120  0.3703E+02  0.3701E+02  0.1159E+02  0.1159E+02
    -22.926  0.2200E+02  0.2202E+02  0.1586E+02  0.1586E+02
    -22.732  0.0000E+00  0.0000E+00  0.1600E+02  0.1600E+02
    -22.538  0.0000E+00  0.0000E+00  0.1600E+02  0.1600E+02
    -22.344  0.0000E+00  0.0000E+00  0.1600E+02  0.1600E+02
    -22.150  0.0000E+00  0.0000E+00  0.1600E+02  0.1600E+02
    -21.957  0.0000E+00  0.0000E+00  0.1600E+02  0.1600E+02
    -21.763  0.0000E+00  0.0000E+00  0.1600E+02  0.1600E+02
    -21.569  0.0000E+00  0.0000E+00  0.1600E+02  0.1600E+02
    -21.375  0.0000E+00  0.0000E+00  0.1600E+02  0.1600E+02
    -21.181  0.0000E+00  0.0000E+00  0.1600E+02  0.1600E+02
    -20.987  0.0000E+00  0.0000E+00  0.1600E+02  0.1600E+02
    -20.793  0.0000E+00  0.0000E+00  0.1600E+02  0.1600E+02
    -20.600  0.0000E+00  0.0000E+00  0.1600E+02  0.1600E+02
    -20.406  0.0000E+00  0.0000E+00  0.1600E+02  0.1600E+02
    -20.212  0.0000E+00  0.0000E+00  0.1600E+02  0.1600E+02
    -20.018  0.0000E+00  0.0000E+00  0.1600E+02  0.1600E+02
    -19.824  0.0000E+00  0.0000E+00  0.1600E+02  0.1600E+02
    -19.630  0.0000E+00  0.0000E+00  0.1600E+02  0.1600E+02
    -19.436  0.0000E+00  0.0000E+00  0.1600E+02  0.1600E+02
    -19.243  0.0000E+00  0.0000E+00  0.1600E+02  0.1600E+02
    -19.049  0.0000E+00  0.0000E+00  0.1600E+02  0.1600E+02
    -18.855  0.0000E+00  0.0000E+00  0.1600E+02  0.1600E+02
    -18.661  0.0000E+00  0.0000E+00  0.1600E+02  0.1600E+02
    -18.467  0.0000E+00  0.0000E+00  0.1600E+02  0.1600E+02
    -18.273  0.0000E+00  0.0000E+00  0.1600E+02  0.1600E+02
    -18.079  0.0000E+00  0.0000E+00  0.1600E+02  0.1600E+02
    -17.886  0.0000E+00  0.0000E+00  0.1600E+02  0.1600E+02
    -17.692  0.0000E+00  0.0000E+00  0.1600E+02  0.1600E+02
    -17.498  0.0000E+00  0.0000E+00  0.1600E+02  0.1600E+02
    -17.304  0.0000E+00  0.0000E+00  0.1600E+02  0.1600E+02
    -17.110  0.0000E+00  0.0000E+00  0.1600E+02  0.1600E+02
    -16.916  0.0000E+00  0.0000E+00  0.1600E+02  0.1600E+02
    -16.722  0.0000E+00  0.0000E+00  0.1600E+02  0.1600E+02
    -16.529  0.0000E+00  0.0000E+00  0.1600E+02  0.1600E+02
    -16.335  0.0000E+00  0.0000E+00  0.1600E+02  0.1600E+02
    -16.141  0.0000E+00  0.0000E+00  0.1600E+02  0.1600E+02
    -15.947  0.0000E+00  0.0000E+00  0.1600E+02  0.1600E+02
    -15.753  0.0000E+00  0.0000E+00  0.1600E+02  0.1600E+02
    -15.559  0.0000E+00  0.0000E+00  0.1600E+02  0.1600E+02
    -15.366  0.0000E+00  0.0000E+00  0.1600E+02  0.1600E+02
    -15.172  0.0000E+00  0.0000E+00  0.1600E+02  0.1600E+02
    -14.978  0.0000E+00  0.0000E+00  0.1600E+02  0.1600E+02
    -14.784  0.0000E+00  0.0000E+00  0.1600E+02  0.1600E+02
    -14.590  0.0000E+00  0.0000E+00  0.1600E+02  0.1600E+02
    -14.396  0.0000E+00  0.0000E+00  0.1600E+02  0.1600E+02
    -14.202  0.0000E+00  0.0000E+00  0.1600E+02  0.1600E+02
    -14.009  0.0000E+00  0.0000E+00  0.1600E+02  0.1600E+02
    -13.815  0.0000E+00  0.0000E+00  0.1600E+02  0.1600E+02
    -13.621  0.0000E+00  0.0000E+00  0.1600E+02  0.1600E+02
    -13.427  0.0000E+00  0.0000E+00  0.1600E+02  0.1600E+02
    -13.233  0.0000E+00  0.0000E+00  0.1600E+02  0.1600E+02
    -13.039  0.0000E+00  0.0000E+00  0.1600E+02  0.1600E+02
    -12.845  0.0000E+00  0.0000E+00  0.1600E+02  0.1600E+02
    -12.652  0.0000E+00  0.0000E+00  0.1600E+02  0.1600E+02
    -12.458  0.0000E+00  0.0000E+00  0.1600E+02  0.1600E+02
    -12.264  0.0000E+00  0.0000E+00  0.1600E+02  0.1600E+02
    -12.070  0.0000E+00  0.0000E+00  0.1600E+02  0.1600E+02
    -11.876  0.0000E+00  0.0000E+00  0.1600E+02  0.1600E+02
    -11.682  0.0000E+00  0.0000E+00  0.1600E+02  0.1600E+02
    -11.488  0.0000E+00  0.0000E+00  0.1600E+02  0.1600E+02
    -11.295  0.0000E+00  0.0000E+00  0.1600E+02  0.1600E+02
    -11.101  0.0000E+00  0.0000E+00  0.1600E+02  0.1600E+02
    -10.907  0.0000E+00  0.0000E+00  0.1600E+02  0.1600E+02
    -10.713  0.0000E+00  0.0000E+00  0.1600E+02  0.1600E+02
    -10.519  0.0000E+00  0.0000E+00  0.1600E+02  0.1600E+02
    -10.325  0.0000E+00  0.0000E+00  0.1600E+02  0.1600E+02
    -10.131  0.0000E+00  0.0000E+00  0.1600E+02  0.1600E+02
     -9.938  0.0000E+00  0.0000E+00  0.1600E+02  0.1600E+02
     -9.744  0.0000E+00  0.0000E+00  0.1600E+02  0.1600E+02
     -9.550  0.0000E+00  0.0000E+00  0.1600E+02  0.1600E+02
     -9.356  0.0000E+00  0.0000E+00  0.1600E+02  0.1600E+02
     -9.162  0.0000E+00  0.0000E+00  0.1600E+02  0.1600E+02
     -8.968  0.0000E+00  0.0000E+00  0.1600E+02  0.1600E+02
     -8.774  0.0000E+00  0.0000E+00  0.1600E+02  0.1600E+02
     -8.581  0.0000E+00  0.0000E+00  0.1600E+02  0.1600E+02
     -8.387  0.0000E+00  0.0000E+00  0.1600E+02  0.1600E+02
     -8.193  0.0000E+00  0.0000E+00  0.1600E+02  0.1600E+02
     -7.999  0.0000E+00  0.0000E+00  0.1600E+02  0.1600E+02
     -7.805  0.0000E+00  0.0000E+00  0.1600E+02  0.1600E+02
     -7.611  0.0000E+00  0.0000E+00  0.1600E+02  0.1600E+02
     -7.418  0.0000E+00  0.0000E+00  0.1600E+02  0.1600E+02
     -7.224  0.0000E+00  0.0000E+00  0.1600E+02  0.1600E+02
     -7.030  0.0000E+00  0.0000E+00  0.1600E+02  0.1600E+02
     -6.836  0.0000E+00  0.0000E+00  0.1600E+02  0.1600E+02
     -6.642  0.0000E+00  0.0000E+00  0.1600E+02  0.1600E+02
     -6.448  0.0000E+00  0.0000E+00  0.1600E+02  0.1600E+02
     -6.254  0.0000E+00  0.0000E+00  0.1600E+02  0.1600E+02
     -6.061  0.0000E+00  0.0000E+00  0.1600E+02  0.1600E+02
     -5.867  0.0000E+00  0.0000E+00  0.1600E+02  0.1600E+02
     -5.673  0.0000E+00  0.0000E+00  0.1600E+02  0.1600E+02
     -5.479  0.0000E+00  0.0000E+00  0.1600E+02  0.1600E+02
     -5.285  0.0000E+00  0.0000E+00  0.1600E+02  0.1600E+02
     -5.091  0.0000E+00  0.0000E+00  0.1600E+02  0.1600E+02
     -4.897  0.0000E+00  0.0000E+00  0.1600E+02  0.1600E+02
     -4.704  0.0000E+00  0.0000E+00  0.1600E+02  0.1600E+02
     -4.510  0.0000E+00  0.0000E+00  0.1600E+02  0.1600E+02
     -4.316  0.0000E+00  0.0000E+00  0.1600E+02  0.1600E+02
     -4.122  0.0000E+00  0.0000E+00  0.1600E+02  0.1600E+02
     -3.928  0.1298E-04  0.1298E-04  0.1600E+02  0.1600E+02
     -3.734  0.6585E-03  0.6586E-03  0.1600E+02  0.1600E+02
     -3.540  0.2709E-01  0.2710E-01  0.1601E+02  0.1601E+02
     -3.347  0.2732E+00  0.2733E+00  0.1606E+02  0.1606E+02
     -3.153  0.5985E+00  0.5985E+00  0.1617E+02  0.1617E+02
     -2.959  0.8230E+00  0.8230E+00  0.1633E+02  0.1633E+02
     -2.765  0.9417E+00  0.9417E+00  0.1652E+02  0.1652E+02
     -2.571  0.1203E+01  0.1203E+01  0.1675E+02  0.1675E+02
     -2.377  0.1202E+01  0.1202E+01  0.1698E+02  0.1698E+02
     -2.183  0.1584E+01  0.1584E+01  0.1729E+02  0.1729E+02
     -1.990  0.1582E+01  0.1582E+01  0.1760E+02  0.1760E+02
     -1.796  0.1833E+01  0.1833E+01  0.1796E+02  0.1796E+02
     -1.602  0.1898E+01  0.1898E+01  0.1833E+02  0.1833E+02
     -1.408  0.1630E+01  0.1630E+01  0.1864E+02  0.1864E+02
     -1.214  0.1677E+01  0.1677E+01  0.1897E+02  0.1897E+02
     -1.020  0.1685E+01  0.1685E+01  0.1930E+02  0.1930E+02
     -0.827  0.1948E+01  0.1948E+01  0.1968E+02  0.1968E+02
     -0.633  0.2055E+01  0.2055E+01  0.2008E+02  0.2008E+02
     -0.439  0.2343E+01  0.2343E+01  0.2053E+02  0.2053E+02
     -0.245  0.2617E+01  0.2617E+01  0.2104E+02  0.2104E+02
     -0.051  0.2365E+01  0.2365E+01  0.2150E+02  0.2150E+02
      0.143  0.2391E+01  0.2391E+01  0.2197E+02  0.2197E+02
      0.337  0.2067E+01  0.2067E+01  0.2237E+02  0.2237E+02
      0.530  0.2546E+01  0.2546E+01  0.2287E+02  0.2287E+02
      0.724  0.2670E+01  0.2670E+01  0.2339E+02  0.2339E+02
      0.918  0.2903E+01  0.2903E+01  0.2395E+02  0.2395E+02
      1.112  0.3139E+01  0.3139E+01  0.2456E+02  0.2456E+02
      1.306  0.3410E+01  0.3410E+01  0.2522E+02  0.2522E+02
      1.500  0.2414E+01  0.2414E+01  0.2570E+02  0.2570E+02
      1.694  0.1921E+01  0.1922E+01  0.2607E+02  0.2607E+02
      1.887  0.2427E+01  0.2427E+01  0.2654E+02  0.2654E+02
      2.081  0.2650E+01  0.2650E+01  0.2706E+02  0.2706E+02
      2.275  0.2294E+01  0.2294E+01  0.2751E+02  0.2751E+02
      2.469  0.3135E+01  0.3135E+01  0.2812E+02  0.2812E+02
      2.663  0.3582E+01  0.3582E+01  0.2881E+02  0.2881E+02
      2.857  0.3707E+01  0.3707E+01  0.2953E+02  0.2953E+02
      3.051  0.3695E+01  0.3695E+01  0.3025E+02  0.3025E+02
      3.244  0.4111E+01  0.4111E+01  0.3105E+02  0.3105E+02
      3.438  0.4676E+01  0.4676E+01  0.3196E+02  0.3196E+02
      3.632  0.4309E+01  0.4309E+01  0.3280E+02  0.3280E+02
      3.826  0.4093E+01  0.4093E+01  0.3360E+02  0.3360E+02
      4.020  0.4715E+01  0.4715E+01  0.3452E+02  0.3452E+02
      4.214  0.5412E+01  0.5413E+01  0.3557E+02  0.3557E+02
      4.408  0.5907E+01  0.5906E+01  0.3672E+02  0.3672E+02
      4.601  0.5236E+01  0.5236E+01  0.3774E+02  0.3774E+02
      4.795  0.5212E+01  0.5211E+01  0.3875E+02  0.3875E+02
      4.989  0.5037E+01  0.5037E+01  0.3973E+02  0.3973E+02
      5.183  0.3841E+01  0.3841E+01  0.4048E+02  0.4048E+02
      5.377  0.3365E+01  0.3365E+01  0.4114E+02  0.4114E+02
      5.571  0.2939E+01  0.2939E+01  0.4171E+02  0.4171E+02
      5.765  0.2958E+01  0.2958E+01  0.4229E+02  0.4229E+02
      5.958  0.3920E+01  0.3920E+01  0.4305E+02  0.4305E+02
      6.152  0.4393E+01  0.4393E+01  0.4390E+02  0.4390E+02
      6.346  0.5749E+01  0.5748E+01  0.4502E+02  0.4502E+02
      6.540  0.6344E+01  0.6325E+01  0.4625E+02  0.4625E+02
      6.734  0.7162E+01  0.7168E+01  0.4765E+02  0.4764E+02
      6.928  0.8925E+01  0.9027E+01  0.4938E+02  0.4940E+02
      7.121  0.1025E+02  0.1033E+02  0.5138E+02  0.5141E+02
      7.315  0.8378E+01  0.8546E+01  0.5301E+02  0.5307E+02
      7.509  0.6434E+01  0.6672E+01  0.5426E+02  0.5437E+02
      7.703  0.5241E+01  0.5005E+01  0.5529E+02  0.5535E+02
      7.897  0.2785E+01  0.2680E+01  0.5583E+02  0.5587E+02
      8.091  0.7154E+00  0.5122E+00  0.5597E+02  0.5597E+02
      8.285  0.8974E-01  0.7127E-01  0.5599E+02  0.5599E+02
      8.478  0.3999E-01  0.4448E-01  0.5600E+02  0.5600E+02
      8.672  0.1638E-02  0.3111E-02  0.5600E+02  0.5600E+02
      8.866  0.0000E+00  0.0000E+00  0.5600E+02  0.5600E+02
      9.060  0.0000E+00  0.0000E+00  0.5600E+02  0.5600E+02
      9.254  0.0000E+00  0.0000E+00  0.5600E+02  0.5600E+02
      9.448  0.0000E+00  0.0000E+00  0.5600E+02  0.5600E+02
      9.642  0.0000E+00  0.0000E+00  0.5600E+02  0.5600E+02
      9.835  0.0000E+00  0.0000E+00  0.5600E+02  0.5600E+02
     10.029  0.0000E+00  0.0000E+00  0.5600E+02  0.5600E+02
     10.223  0.0000E+00  0.0000E+00  0.5600E+02  0.5600E+02
     10.417  0.0000E+00  0.0000E+00  0.5600E+02  0.5600E+02
     10.611  0.0000E+00  0.0000E+00  0.5600E+02  0.5600E+02
     10.805  0.0000E+00  0.0000E+00  0.5600E+02  0.5600E+02
     10.999  0.0000E+00  0.0000E+00  0.5600E+02  0.5600E+02
     10.99854943    -47.15747124  301      5.05667838      1.00000000
    -47.157  0.0000E+00  0.0000E+00  0.0000E+00  0.0000E+00  0.0000E+00  0.0000E+00  0.0000E+00  0.0000E+00  0.0000E+00  0.0000E+00  0.0000E+00  0.0000E+00  0.0000E+00  0.0000E+00  0.0000E+00  0.0000E+00  0.0000E+00  0.0000E+00
    -46.964  0.0000E+00  0.0000E+00  0.0000E+00  0.0000E+00  0.0000E+00  0.0000E+00  0.0000E+00  0.0000E+00  0.0000E+00  0.0000E+00  0.0000E+00  0.0000E+00  0.0000E+00  0.0000E+00  0.0000E+00  0.0000E+00  0.0000E+00  0.0000E+00
    -46.770  0.0000E+00  0.0000E+00  0.0000E+00  0.0000E+00  0.0000E+00  0.0000E+00  0.0000E+00  0.0000E+00  0.0000E+00  0.0000E+00  0.0000E+00  0.0000E+00  0.0000E+00  0.0000E+00  0.0000E+00  0.0000E+00  0.0000E+00  0.0000E+00
    -46.576  0.0000E+00  0.0000E+00  0.0000E+00  0.0000E+00  0.0000E+00  0.0000E+00  0.0000E+00  0.0000E+00  0.0000E+00  0.0000E+00  0.0000E+00  0.0000E+00  0.0000E+00  0.0000E+00  0.0000E+00  0.0000E+00  0.0000E+00  0.0000E+00
    -46.382  0.0000E+00  0.0000E+00  0.0000E+00  0.0000E+00  0.0000E+00  0.0000E+00  0.0000E+00  0.0000E+00  0.0000E+00  0.0000E+00  0.0000E+00  0.0000E+00  0.0000E+00  0.0000E+00  0.0000E+00  0.0000E+00  0.0000E+00  0.0000E+00
    -46.188  0.0000E+00  0.0000E+00  0.0000E+00  0.0000E+00  0.0000E+00  0.0000E+00  0.0000E+00  0.0000E+00  0.0000E+00  0.0000E+00  0.0000E+00  0.0000E+00  0.0000E+00  0.0000E+00  0.0000E+00  0.0000E+00  0.0000E+00  0.0000E+00
    -45.994  0.0000E+00  0.0000E+00  0.0000E+00  0.0000E+00  0.0000E+00  0.0000E+00  0.0000E+00  0.0000E+00  0.0000E+00  0.0000E+00  0.0000E+00  0.0000E+00  0.0000E+00  0.0000E+00  0.0000E+00  0.0000E+00  0.0000E+00  0.0000E+00
    -45.800  0.0000E+00  0.0000E+00  0.0000E+00  0.0000E+00  0.0000E+00  0.0000E+00  0.0000E+00  0.0000E+00  0.0000E+00  0.0000E+00  0.0000E+00  0.0000E+00  0.0000E+00  0.0000E+00  0.0000E+00  0.0000E+00  0.0000E+00  0.0000E+00
    -45.607  0.0000E+00  0.0000E+00  0.0000E+00  0.0000E+00  0.0000E+00  0.0000E+00  0.0000E+00  0.0000E+00  0.0000E+00  0.0000E+00  0.0000E+00  0.0000E+00  0.0000E+00  0.0000E+00  0.0000E+00  0.0000E+00  0.0000E+00  0.0000E+00
    -45.413  0.0000E+00  0.0000E+00  0.0000E+00  0.0000E+00  0.0000E+00  0.0000E+00  0.0000E+00  0.0000E+00  0.0000E+00  0.0000E+00  0.0000E+00  0.0000E+00  0.0000E+00  0.0000E+00  0.0000E+00  0.0000E+00  0.0000E+00  0.0000E+00
    -45.219  0.0000E+00  0.0000E+00  0.0000E+00  0.0000E+00  0.0000E+00  0.0000E+00  0.0000E+00  0.0000E+00  0.0000E+00  0.0000E+00  0.0000E+00  0.0000E+00  0.0000E+00  0.0000E+00  0.0000E+00  0.0000E+00  0.0000E+00  0.0000E+00
    -45.025  0.1851E-03  0.1848E-03  0.6173E-13  0.6141E-13  0.4789E-10  0.4939E-10  0.6173E-13  0.6141E-13  0.7297E-14  0.7915E-14  0.6054E-14  0.7609E-14  0.3830E-11  0.4032E-11  0.6054E-14  0.7609E-14  0.3277E-13  0.2679E-13
    -44.831  0.8735E-02  0.8724E-02  0.2914E-11  0.2899E-11  0.2260E-08  0.2331E-08  0.2914E-11  0.2899E-11  0.3444E-12  0.3736E-12  0.2858E-12  0.3592E-12  0.1808E-09  0.1903E-09  0.2858E-12  0.3592E-12  0.1547E-11  0.1265E-11
    -44.637  0.3891E+00  0.3886E+00  0.1298E-09  0.1291E-09  0.1007E-06  0.1039E-06  0.1298E-09  0.1291E-09  0.1534E-10  0.1664E-10  0.1273E-10  0.1600E-10  0.8053E-08  0.8478E-08  0.1273E-10  0.1600E-10  0.6890E-10  0.5634E-10
    -44.444  0.3724E+01  0.3724E+01  0.1242E-08  0.1237E-08  0.9636E-06  0.9951E-06  0.1242E-08  0.1237E-08  0.1470E-09  0.1596E-09  0.1219E-09  0.1535E-09  0.7706E-07  0.8121E-07  0.1219E-09  0.1535E-09  0.6594E-09  0.5399E-09
    -44.250  0.9909E+00  0.9919E+00  0.3304E-09  0.3295E-09  0.2563E-06  0.2651E-06  0.3304E-09  0.3295E-09  0.3916E-10  0.4257E-10  0.3247E-10  0.4093E-10  0.2050E-07  0.2163E-07  0.3247E-10  0.4093E-10  0.1754E-09  0.1438E-09
    -44.056  0.0000E+00  0.0000E+00  0.0000E+00  0.0000E+00  0.0000E+00  0.0000E+00  0.0000E+00  0.0000E+00  0.0000E+00  0.0000E+00  0.0000E+00  0.0000E+00  0.0000E+00  0.0000E+00  0.0000E+00  0.0000E+00  0.0000E+00  0.0000E+00
    -43.862  0.0000E+00  0.0000E+00  0.0000E+00  0.0000E+00  0.0000E+00  0.0000E+00  0.0000E+00  0.0000E+00  0.0000E+00  0.0000E+00  0.0000E+00  0.0000E+00  0.0000E+00  0.0000E+00  0.0000E+00  0.0000E+00  0.0000E+00  0.0000E+00
    -43.668  0.0000E+00  0.0000E+00  0.0000E+00  0.0000E+00  0.0000E+00  0.0000E+00  0.0000E+00  0.0000E+00  0.0000E+00  0.0000E+00  0.0000E+00  0.0000E+00  0.0000E+00  0.0000E+00  0.0000E+00  0.0000E+00  0.0000E+00  0.0000E+00
    -43.474  0.0000E+00  0.0000E+00  0.0000E+00  0.0000E+00  0.0000E+00  0.0000E+00  0.0000E+00  0.0000E+00  0.0000E+00  0.0000E+00  0.0000E+00  0.0000E+00  0.0000E+00  0.0000E+00  0.0000E+00  0.0000E+00  0.0000E+00  0.0000E+00
    -43.280  0.0000E+00  0.0000E+00  0.0000E+00  0.0000E+00  0.0000E+00  0.0000E+00  0.0000E+00  0.0000E+00  0.0000E+00  0.0000E+00  0.0000E+00  0.0000E+00  0.0000E+00  0.0000E+00  0.0000E+00  0.0000E+00  0.0000E+00  0.0000E+00
    -43.087  0.0000E+00  0.0000E+00  0.0000E+00  0.0000E+00  0.0000E+00  0.0000E+00  0.0000E+00  0.0000E+00  0.0000E+00  0.0000E+00  0.0000E+00  0.0000E+00  0.0000E+00  0.0000E+00  0.0000E+00  0.0000E+00  0.0000E+00  0.0000E+00
    -42.893  0.0000E+00  0.0000E+00  0.0000E+00  0.0000E+00  0.0000E+00  0.0000E+00  0.0000E+00  0.0000E+00  0.0000E+00  0.0000E+00  0.0000E+00  0.0000E+00  0.0000E+00  0.0000E+00  0.0000E+00  0.0000E+00  0.0000E+00  0.0000E+00
    -42.699  0.0000E+00  0.0000E+00  0.0000E+00  0.0000E+00  0.0000E+00  0.0000E+00  0.0000E+00  0.0000E+00  0.0000E+00  0.0000E+00  0.0000E+00  0.0000E+00  0.0000E+00  0.0000E+00  0.0000E+00  0.0000E+00  0.0000E+00  0.0000E+00
    -42.505  0.0000E+00  0.0000E+00  0.0000E+00  0.0000E+00  0.0000E+00  0.0000E+00  0.0000E+00  0.0000E+00  0.0000E+00  0.0000E+00  0.0000E+00  0.0000E+00  0.0000E+00  0.0000E+00  0.0000E+00  0.0000E+00  0.0000E+00  0.0000E+00
    -42.311  0.0000E+00  0.0000E+00  0.0000E+00  0.0000E+00  0.0000E+00  0.0000E+00  0.0000E+00  0.0000E+00  0.0000E+00  0.0000E+00  0.0000E+00  0.0000E+00  0.0000E+00  0.0000E+00  0.0000E+00  0.0000E+00  0.0000E+00  0.0000E+00
    -42.117  0.0000E+00  0.0000E+00  0.0000E+00  0.0000E+00  0.0000E+00  0.0000E+00  0.0000E+00  0.0000E+00  0.0000E+00  0.0000E+00  0.0000E+00  0.0000E+00  0.0000E+00  0.0000E+00  0.0000E+00  0.0000E+00  0.0000E+00  0.0000E+00
    -41.923  0.0000E+00  0.0000E+00  0.0000E+00  0.0000E+00  0.0000E+00  0.0000E+00  0.0000E+00  0.0000E+00  0.0000E+00  0.0000E+00  0.0000E+00  0.0000E+00  0.0000E+00  0.0000E+00  0.0000E+00  0.0000E+00  0.0000E+00  0.0000E+00
    -41.730  0.0000E+00  0.0000E+00  0.0000E+00  0.0000E+00  0.0000E+00  0.0000E+00  0.0000E+00  0.0000E+00  0.0000E+00  0.0000E+00  0.0000E+00  0.0000E+00  0.0000E+00  0.0000E+00  0.0000E+00  0.0000E+00  0.0000E+00  0.0000E+00
    -41.536  0.0000E+00  0.0000E+00  0.0000E+00  0.0000E+00  0.0000E+00  0.0000E+00  0.0000E+00  0.0000E+00  0.0000E+00  0.0000E+00  0.0000E+00  0.0000E+00  0.0000E+00  0.0000E+00  0.0000E+00  0.0000E+00  0.0000E+00  0.0000E+00
    -41.342  0.0000E+00  0.0000E+00  0.0000E+00  0.0000E+00  0.0000E+00  0.0000E+00  0.0000E+00  0.0000E+00  0.0000E+00  0.0000E+00  0.0000E+00  0.0000E+00  0.0000E+00  0.0000E+00  0.0000E+00  0.0000E+00  0.0000E+00  0.0000E+00
    -41.148  0.0000E+00  0.0000E+00  0.0000E+00  0.0000E+00  0.0000E+00  0.0000E+00  0.0000E+00  0.0000E+00  0.0000E+00  0.0000E+00  0.0000E+00  0.0000E+00  0.0000E+00  0.0000E+00  0.0000E+00  0.0000E+00  0.0000E+00  0.0000E+00
    -40.954  0.0000E+00  0.0000E+00  0.0000E+00  0.0000E+00  0.0000E+00  0.0000E+00  0.0000E+00  0.0000E+00  0.0000E+00  0.0000E+00  0.0000E+00  0.0000E+00  0.0000E+00  0.0000E+00  0.0000E+00  0.0000E+00  0.0000E+00  0.0000E+00
    -40.760  0.0000E+00  0.0000E+00  0.0000E+00  0.0000E+00  0.0000E+00  0.0000E+00  0.0000E+00  0.0000E+00  0.0000E+00  0.0000E+00  0.0000E+00  0.0000E+00  0.0000E+00  0.0000E+00  0.0000E+00  0.0000E+00  0.0000E+00  0.0000E+00
    -40.566  0.0000E+00  0.0000E+00  0.0000E+00  0.0000E+00  0.0000E+00  0.0000E+00  0.0000E+00  0.0000E+00  0.0000E+00  0.0000E+00  0.0000E+00  0.0000E+00  0.0000E+00  0.0000E+00  0.0000E+00  0.0000E+00  0.0000E+00  0.0000E+00
    -40.373  0.0000E+00  0.0000E+00  0.0000E+00  0.0000E+00  0.0000E+00  0.0000E+00  0.0000E+00  0.0000E+00  0.0000E+00  0.0000E+00  0.0000E+00  0.0000E+00  0.0000E+00  0.0000E+00  0.0000E+00  0.0000E+00  0.0000E+00  0.0000E+00
    -40.179  0.0000E+00  0.0000E+00  0.0000E+00  0.0000E+00  0.0000E+00  0.0000E+00  0.0000E+00  0.0000E+00  0.0000E+00  0.0000E+00  0.0000E+00  0.0000E+00  0.0000E+00  0.0000E+00  0.0000E+00  0.0000E+00  0.0000E+00  0.0000E+00
    -39.985  0.0000E+00  0.0000E+00  0.0000E+00  0.0000E+00  0.0000E+00  0.0000E+00  0.0000E+00  0.0000E+00  0.0000E+00  0.0000E+00  0.0000E+00  0.0000E+00  0.0000E+00  0.0000E+00  0.0000E+00  0.0000E+00  0.0000E+00  0.0000E+00
    -39.791  0.0000E+00  0.0000E+00  0.0000E+00  0.0000E+00  0.0000E+00  0.0000E+00  0.0000E+00  0.0000E+00  0.0000E+00  0.0000E+00  0.0000E+00  0.0000E+00  0.0000E+00  0.0000E+00  0.0000E+00  0.0000E+00  0.0000E+00  0.0000E+00
    -39.597  0.0000E+00  0.0000E+00  0.0000E+00  0.0000E+00  0.0000E+00  0.0000E+00  0.0000E+00  0.0000E+00  0.0000E+00  0.0000E+00  0.0000E+00  0.0000E+00  0.0000E+00  0.0000E+00  0.0000E+00  0.0000E+00  0.0000E+00  0.0000E+00
    -39.403  0.0000E+00  0.0000E+00  0.0000E+00  0.0000E+00  0.0000E+00  0.0000E+00  0.0000E+00  0.0000E+00  0.0000E+00  0.0000E+00  0.0000E+00  0.0000E+00  0.0000E+00  0.0000E+00  0.0000E+00  0.0000E+00  0.0000E+00  0.0000E+00
    -39.209  0.0000E+00  0.0000E+00  0.0000E+00  0.0000E+00  0.0000E+00  0.0000E+00  0.0000E+00  0.0000E+00  0.0000E+00  0.0000E+00  0.0000E+00  0.0000E+00  0.0000E+00  0.0000E+00  0.0000E+00  0.0000E+00  0.0000E+00  0.0000E+00
    -39.016  0.0000E+00  0.0000E+00  0.0000E+00  0.0000E+00  0.0000E+00  0.0000E+00  0.0000E+00  0.0000E+00  0.0000E+00  0.0000E+00  0.0000E+00  0.0000E+00  0.0000E+00  0.0000E+00  0.0000E+00  0.0000E+00  0.0000E+00  0.0000E+00
    -38.822  0.0000E+00  0.0000E+00  0.0000E+00  0.0000E+00  0.0000E+00  0.0000E+00  0.0000E+00  0.0000E+00  0.0000E+00  0.0000E+00  0.0000E+00  0.0000E+00  0.0000E+00  0.0000E+00  0.0000E+00  0.0000E+00  0.0000E+00  0.0000E+00
    -38.628  0.0000E+00  0.0000E+00  0.0000E+00  0.0000E+00  0.0000E+00  0.0000E+00  0.0000E+00  0.0000E+00  0.0000E+00  0.0000E+00  0.0000E+00  0.0000E+00  0.0000E+00  0.0000E+00  0.0000E+00  0.0000E+00  0.0000E+00  0.0000E+00
    -38.434  0.0000E+00  0.0000E+00  0.0000E+00  0.0000E+00  0.0000E+00  0.0000E+00  0.0000E+00  0.0000E+00  0.0000E+00  0.0000E+00  0.0000E+00  0.0000E+00  0.0000E+00  0.0000E+00  0.0000E+00  0.0000E+00  0.0000E+00  0.0000E+00
    -38.240  0.0000E+00  0.0000E+00  0.0000E+00  0.0000E+00  0.0000E+00  0.0000E+00  0.0000E+00  0.0000E+00  0.0000E+00  0.0000E+00  0.0000E+00  0.0000E+00  0.0000E+00  0.0000E+00  0.0000E+00  0.0000E+00  0.0000E+00  0.0000E+00
    -38.046  0.0000E+00  0.0000E+00  0.0000E+00  0.0000E+00  0.0000E+00  0.0000E+00  0.0000E+00  0.0000E+00  0.0000E+00  0.0000E+00  0.0000E+00  0.0000E+00  0.0000E+00  0.0000E+00  0.0000E+00  0.0000E+00  0.0000E+00  0.0000E+00
    -37.853  0.0000E+00  0.0000E+00  0.0000E+00  0.0000E+00  0.0000E+00  0.0000E+00  0.0000E+00  0.0000E+00  0.0000E+00  0.0000E+00  0.0000E+00  0.0000E+00  0.0000E+00  0.0000E+00  0.0000E+00  0.0000E+00  0.0000E+00  0.0000E+00
    -37.659  0.0000E+00  0.0000E+00  0.0000E+00  0.0000E+00  0.0000E+00  0.0000E+00  0.0000E+00  0.0000E+00  0.0000E+00  0.0000E+00  0.0000E+00  0.0000E+00  0.0000E+00  0.0000E+00  0.0000E+00  0.0000E+00  0.0000E+00  0.0000E+00
    -37.465  0.0000E+00  0.0000E+00  0.0000E+00  0.0000E+00  0.0000E+00  0.0000E+00  0.0000E+00  0.0000E+00  0.0000E+00  0.0000E+00  0.0000E+00  0.0000E+00  0.0000E+00  0.0000E+00  0.0000E+00  0.0000E+00  0.0000E+00  0.0000E+00