  16  16   1   0
  0.2343545E+02  0.4447125E-09  0.4447125E-09  0.1895984E-08  0.5000000E-15
  1.000000000000000E-004
  CAR 
 unknown system                          
     10.34176442    -48.06537533  301      4.45394572      1.00000000
    -48.065  0.0000E+00  0.0000E+00  0.0000E+00  0.0000E+00
    -47.871  0.0000E+00  0.0000E+00  0.0000E+00  0.0000E+00
    -47.676  0.0000E+00  0.0000E+00  0.0000E+00  0.0000E+00
    -47.481  0.0000E+00  0.0000E+00  0.0000E+00  0.0000E+00
    -47.287  0.0000E+00  0.0000E+00  0.0000E+00  0.0000E+00
    -47.092  0.0000E+00  0.0000E+00  0.0000E+00  0.0000E+00
    -46.897  0.0000E+00  0.0000E+00  0.0000E+00  0.0000E+00
    -46.703  0.0000E+00  0.0000E+00  0.0000E+00  0.0000E+00
    -46.508  0.0000E+00  0.0000E+00  0.0000E+00  0.0000E+00
    -46.313  0.0000E+00  0.0000E+00  0.0000E+00  0.0000E+00
    -46.118  0.0000E+00  0.0000E+00  0.0000E+00  0.0000E+00
    -45.924  0.6965E-03  0.7109E-03  0.1356E-03  0.1384E-03
    -45.729  0.3344E-01  0.3413E-01  0.6647E-02  0.6784E-02
    -45.534  0.1518E+01  0.1547E+01  0.3022E+00  0.3079E+00
    -45.340  0.1489E+02  0.1493E+02  0.3202E+01  0.3215E+01
    -45.145  0.3995E+01  0.3931E+01  0.3980E+01  0.3980E+01
    -44.950  0.0000E+00  0.0000E+00  0.4000E+01  0.4000E+01
    -44.756  0.0000E+00  0.0000E+00  0.4000E+01  0.4000E+01
    -44.561  0.0000E+00  0.0000E+00  0.4000E+01  0.4000E+01
    -44.366  0.0000E+00  0.0000E+00  0.4000E+01  0.4000E+01
    -44.172  0.0000E+00  0.0000E+00  0.4000E+01  0.4000E+01
    -43.977  0.0000E+00  0.0000E+00  0.4000E+01  0.4000E+01
    -43.782  0.0000E+00  0.0000E+00  0.4000E+01  0.4000E+01
    -43.587  0.0000E+00  0.0000E+00  0.4000E+01  0.4000E+01
    -43.393  0.0000E+00  0.0000E+00  0.4000E+01  0.4000E+01
    -43.198  0.0000E+00  0.0000E+00  0.4000E+01  0.4000E+01
    -43.003  0.0000E+00  0.0000E+00  0.4000E+01  0.4000E+01
    -42.809  0.0000E+00  0.0000E+00  0.4000E+01  0.4000E+01
    -42.614  0.0000E+00  0.0000E+00  0.4000E+01  0.4000E+01
    -42.419  0.0000E+00  0.0000E+00  0.4000E+01  0.4000E+01
    -42.225  0.0000E+00  0.0000E+00  0.4000E+01  0.4000E+01
    -42.030  0.0000E+00  0.0000E+00  0.4000E+01  0.4000E+01
    -41.835  0.0000E+00  0.0000E+00  0.4000E+01  0.4000E+01
    -41.641  0.0000E+00  0.0000E+00  0.4000E+01  0.4000E+01
    -41.446  0.0000E+00  0.0000E+00  0.4000E+01  0.4000E+01
    -41.251  0.0000E+00  0.0000E+00  0.4000E+01  0.4000E+01
    -41.057  0.0000E+00  0.0000E+00  0.4000E+01  0.4000E+01
    -40.862  0.0000E+00  0.0000E+00  0.4000E+01  0.4000E+01
    -40.667  0.0000E+00  0.0000E+00  0.4000E+01  0.4000E+01
    -40.472  0.0000E+00  0.0000E+00  0.4000E+01  0.4000E+01
    -40.278  0.0000E+00  0.0000E+00  0.4000E+01  0.4000E+01
    -40.083  0.0000E+00  0.0000E+00  0.4000E+01  0.4000E+01
    -39.888  0.0000E+00  0.0000E+00  0.4000E+01  0.4000E+01
    -39.694  0.0000E+00  0.0000E+00  0.4000E+01  0.4000E+01
    -39.499  0.0000E+00  0.0000E+00  0.4000E+01  0.4000E+01
    -39.304  0.0000E+00  0.0000E+00  0.4000E+01  0.4000E+01
    -39.110  0.0000E+00  0.0000E+00  0.4000E+01  0.4000E+01
    -38.915  0.0000E+00  0.0000E+00  0.4000E+01  0.4000E+01
    -38.720  0.0000E+00  0.0000E+00  0.4000E+01  0.4000E+01
    -38.526  0.0000E+00  0.0000E+00  0.4000E+01  0.4000E+01
    -38.331  0.0000E+00  0.0000E+00  0.4000E+01  0.4000E+01
    -38.136  0.0000E+00  0.0000E+00  0.4000E+01  0.4000E+01
    -37.941  0.0000E+00  0.0000E+00  0.4000E+01  0.4000E+01
    -37.747  0.0000E+00  0.0000E+00  0.4000E+01  0.4000E+01
    -37.552  0.0000E+00  0.0000E+00  0.4000E+01  0.4000E+01
    -37.357  0.0000E+00  0.0000E+00  0.4000E+01  0.4000E+01
    -37.163  0.0000E+00  0.0000E+00  0.4000E+01  0.4000E+01
    -36.968  0.0000E+00  0.0000E+00  0.4000E+01  0.4000E+01
    -36.773  0.0000E+00  0.0000E+00  0.4000E+01  0.4000E+01
    -36.579  0.0000E+00  0.0000E+00  0.4000E+01  0.4000E+01
    -36.384  0.0000E+00  0.0000E+00  0.4000E+01  0.4000E+01
    -36.189  0.0000E+00  0.0000E+00  0.4000E+01  0.4000E+01
    -35.995  0.0000E+00  0.0000E+00  0.4000E+01  0.4000E+01
    -35.800  0.0000E+00  0.0000E+00  0.4000E+01  0.4000E+01
    -35.605  0.0000E+00  0.0000E+00  0.4000E+01  0.4000E+01
    -35.410  0.0000E+00  0.0000E+00  0.4000E+01  0.4000E+01
    -35.216  0.0000E+00  0.0000E+00  0.4000E+01  0.4000E+01
    -35.021  0.0000E+00  0.0000E+00  0.4000E+01  0.4000E+01
    -34.826  0.0000E+00  0.0000E+00  0.4000E+01  0.4000E+01
    -34.632  0.0000E+00  0.0000E+00  0.4000E+01  0.4000E+01
    -34.437  0.0000E+00  0.0000E+00  0.4000E+01  0.4000E+01
    -34.242  0.0000E+00  0.0000E+00  0.4000E+01  0.4000E+01
    -34.048  0.0000E+00  0.0000E+00  0.4000E+01  0.4000E+01
    -33.853  0.0000E+00  0.0000E+00  0.4000E+01  0.4000E+01
    -33.658  0.0000E+00  0.0000E+00  0.4000E+01  0.4000E+01
    -33.464  0.0000E+00  0.0000E+00  0.4000E+01  0.4000E+01
    -33.269  0.0000E+00  0.0000E+00  0.4000E+01  0.4000E+01
    -33.074  0.0000E+00  0.0000E+00  0.4000E+01  0.4000E+01
    -32.880  0.0000E+00  0.0000E+00  0.4000E+01  0.4000E+01
    -32.685  0.0000E+00  0.0000E+00  0.4000E+01  0.4000E+01
    -32.490  0.0000E+00  0.0000E+00  0.4000E+01  0.4000E+01
    -32.295  0.0000E+00  0.0000E+00  0.4000E+01  0.4000E+01
    -32.101  0.0000E+00  0.0000E+00  0.4000E+01  0.4000E+01
    -31.906  0.0000E+00  0.0000E+00  0.4000E+01  0.4000E+01
    -31.711  0.0000E+00  0.0000E+00  0.4000E+01  0.4000E+01
    -31.517  0.0000E+00  0.0000E+00  0.4000E+01  0.4000E+01
    -31.322  0.0000E+00  0.0000E+00  0.4000E+01  0.4000E+01
    -31.127  0.0000E+00  0.0000E+00  0.4000E+01  0.4000E+01
    -30.933  0.0000E+00  0.0000E+00  0.4000E+01  0.4000E+01
    -30.738  0.0000E+00  0.0000E+00  0.4000E+01  0.4000E+01
    -30.543  0.0000E+00  0.0000E+00  0.4000E+01  0.4000E+01
    -30.349  0.0000E+00  0.0000E+00  0.4000E+01  0.4000E+01
    -30.154  0.0000E+00  0.0000E+00  0.4000E+01  0.4000E+01
    -29.959  0.0000E+00  0.0000E+00  0.4000E+01  0.4000E+01
    -29.764  0.0000E+00  0.0000E+00  0.4000E+01  0.4000E+01
    -29.570  0.0000E+00  0.0000E+00  0.4000E+01  0.4000E+01
    -29.375  0.0000E+00  0.0000E+00  0.4000E+01  0.4000E+01
    -29.180  0.0000E+00  0.0000E+00  0.4000E+01  0.4000E+01
    -28.986  0.0000E+00  0.0000E+00  0.4000E+01  0.4000E+01
    -28.791  0.0000E+00  0.0000E+00  0.4000E+01  0.4000E+01
    -28.596  0.0000E+00  0.0000E+00  0.4000E+01  0.4000E+01
    -28.402  0.0000E+00  0.0000E+00  0.4000E+01  0.4000E+01
    -28.207  0.0000E+00  0.0000E+00  0.4000E+01  0.4000E+01
    -28.012  0.0000E+00  0.0000E+00  0.4000E+01  0.4000E+01
    -27.818  0.0000E+00  0.0000E+00  0.4000E+01  0.4000E+01
    -27.623  0.0000E+00  0.0000E+00  0.4000E+01  0.4000E+01
    -27.428  0.0000E+00  0.0000E+00  0.4000E+01  0.4000E+01
    -27.233  0.0000E+00  0.0000E+00  0.4000E+01  0.4000E+01
    -27.039  0.0000E+00  0.0000E+00  0.4000E+01  0.4000E+01
    -26.844  0.0000E+00  0.0000E+00  0.4000E+01  0.4000E+01
    -26.649  0.0000E+00  0.0000E+00  0.4000E+01  0.4000E+01
    -26.455  0.0000E+00  0.0000E+00  0.4000E+01  0.4000E+01
    -26.260  0.0000E+00  0.0000E+00  0.4000E+01  0.4000E+01
    -26.065  0.0000E+00  0.0000E+00  0.4000E+01  0.4000E+01
    -25.871  0.0000E+00  0.0000E+00  0.4000E+01  0.4000E+01
    -25.676  0.0000E+00  0.0000E+00  0.4000E+01  0.4000E+01
    -25.481  0.0000E+00  0.0000E+00  0.4000E+01  0.4000E+01
    -25.287  0.0000E+00  0.0000E+00  0.4000E+01  0.4000E+01
    -25.092  0.0000E+00  0.0000E+00  0.4000E+01  0.4000E+01
    -24.897  0.0000E+00  0.0000E+00  0.4000E+01  0.4000E+01
    -24.703  0.0000E+00  0.0000E+00  0.4000E+01  0.4000E+01
    -24.508  0.3768E-02  0.3832E-02  0.4001E+01  0.4001E+01
    -24.313  0.1807E+00  0.1837E+00  0.4036E+01  0.4037E+01
    -24.118  0.7730E+01  0.7843E+01  0.5541E+01  0.5564E+01
    -23.924  0.4622E+02  0.4622E+02  0.1454E+02  0.1456E+02
    -23.729  0.7325E+01  0.7219E+01  0.1597E+02  0.1597E+02
    -23.534  0.0000E+00  0.0000E+00  0.1600E+02  0.1600E+02
    -23.340  0.0000E+00  0.0000E+00  0.1600E+02  0.1600E+02
    -23.145  0.0000E+00  0.0000E+00  0.1600E+02  0.1600E+02
    -22.950  0.0000E+00  0.0000E+00  0.1600E+02  0.1600E+02
    -22.756  0.0000E+00  0.0000E+00  0.1600E+02  0.1600E+02
    -22.561  0.0000E+00  0.0000E+00  0.1600E+02  0.1600E+02
    -22.366  0.0000E+00  0.0000E+00  0.1600E+02  0.1600E+02
    -22.172  0.0000E+00  0.0000E+00  0.1600E+02  0.1600E+02
    -21.977  0.0000E+00  0.0000E+00  0.1600E+02  0.1600E+02
    -21.782  0.0000E+00  0.0000E+00  0.1600E+02  0.1600E+02
    -21.587  0.0000E+00  0.0000E+00  0.1600E+02  0.1600E+02
    -21.393  0.0000E+00  0.0000E+00  0.1600E+02  0.1600E+02
    -21.198  0.0000E+00  0.0000E+00  0.1600E+02  0.1600E+02
    -21.003  0.0000E+00  0.0000E+00  0.1600E+02  0.1600E+02
    -20.809  0.0000E+00  0.0000E+00  0.1600E+02  0.1600E+02
    -20.614  0.0000E+00  0.0000E+00  0.1600E+02  0.1600E+02
    -20.419  0.0000E+00  0.0000E+00  0.1600E+02  0.1600E+02
    -20.225  0.0000E+00  0.0000E+00  0.1600E+02  0.1600E+02
    -20.030  0.0000E+00  0.0000E+00  0.1600E+02  0.1600E+02
    -19.835  0.0000E+00  0.0000E+00  0.1600E+02  0.1600E+02
    -19.641  0.0000E+00  0.0000E+00  0.1600E+02  0.1600E+02
    -19.446  0.0000E+00  0.0000E+00  0.1600E+02  0.1600E+02
    -19.251  0.0000E+00  0.0000E+00  0.1600E+02  0.1600E+02
    -19.056  0.0000E+00  0.0000E+00  0.1600E+02  0.1600E+02
    -18.862  0.0000E+00  0.0000E+00  0.1600E+02  0.1600E+02
    -18.667  0.0000E+00  0.0000E+00  0.1600E+02  0.1600E+02
    -18.472  0.0000E+00  0.0000E+00  0.1600E+02  0.1600E+02
    -18.278  0.0000E+00  0.0000E+00  0.1600E+02  0.1600E+02
    -18.083  0.0000E+00  0.0000E+00  0.1600E+02  0.1600E+02
    -17.888  0.0000E+00  0.0000E+00  0.1600E+02  0.1600E+02
    -17.694  0.0000E+00  0.0000E+00  0.1600E+02  0.1600E+02
    -17.499  0.0000E+00  0.0000E+00  0.1600E+02  0.1600E+02
    -17.304  0.0000E+00  0.0000E+00  0.1600E+02  0.1600E+02
    -17.110  0.0000E+00  0.0000E+00  0.1600E+02  0.1600E+02
    -16.915  0.0000E+00  0.0000E+00  0.1600E+02  0.1600E+02
    -16.720  0.0000E+00  0.0000E+00  0.1600E+02  0.1600E+02
    -16.526  0.0000E+00  0.0000E+00  0.1600E+02  0.1600E+02
    -16.331  0.0000E+00  0.0000E+00  0.1600E+02  0.1600E+02
    -16.136  0.0000E+00  0.0000E+00  0.1600E+02  0.1600E+02
    -15.941  0.0000E+00  0.0000E+00  0.1600E+02  0.1600E+02
    -15.747  0.0000E+00  0.0000E+00  0.1600E+02  0.1600E+02
    -15.552  0.0000E+00  0.0000E+00  0.1600E+02  0.1600E+02
    -15.357  0.0000E+00  0.0000E+00  0.1600E+02  0.1600E+02
    -15.163  0.0000E+00  0.0000E+00  0.1600E+02  0.1600E+02
    -14.968  0.0000E+00  0.0000E+00  0.1600E+02  0.1600E+02
    -14.773  0.0000E+00  0.0000E+00  0.1600E+02  0.1600E+02
    -14.579  0.0000E+00  0.0000E+00  0.1600E+02  0.1600E+02
    -14.384  0.0000E+00  0.0000E+00  0.1600E+02  0.1600E+02
    -14.189  0.0000E+00  0.0000E+00  0.1600E+02  0.1600E+02
    -13.995  0.0000E+00  0.0000E+00  0.1600E+02  0.1600E+02
    -13.800  0.0000E+00  0.0000E+00  0.1600E+02  0.1600E+02
    -13.605  0.0000E+00  0.0000E+00  0.1600E+02  0.1600E+02
    -13.410  0.0000E+00  0.0000E+00  0.1600E+02  0.1600E+02
    -13.216  0.0000E+00  0.0000E+00  0.1600E+02  0.1600E+02
    -13.021  0.0000E+00  0.0000E+00  0.1600E+02  0.1600E+02
    -12.826  0.0000E+00  0.0000E+00  0.1600E+02  0.1600E+02
    -12.632  0.0000E+00  0.0000E+00  0.1600E+02  0.1600E+02
    -12.437  0.0000E+00  0.0000E+00  0.1600E+02  0.1600E+02
    -12.242  0.0000E+00  0.0000E+00  0.1600E+02  0.1600E+02
    -12.048  0.0000E+00  0.0000E+00  0.1600E+02  0.1600E+02
    -11.853  0.0000E+00  0.0000E+00  0.1600E+02  0.1600E+02
    -11.658  0.0000E+00  0.0000E+00  0.1600E+02  0.1600E+02
    -11.464  0.0000E+00  0.0000E+00  0.1600E+02  0.1600E+02
    -11.269  0.0000E+00  0.0000E+00  0.1600E+02  0.1600E+02
    -11.074  0.0000E+00  0.0000E+00  0.1600E+02  0.1600E+02
    -10.879  0.0000E+00  0.0000E+00  0.1600E+02  0.1600E+02
    -10.685  0.0000E+00  0.0000E+00  0.1600E+02  0.1600E+02
    -10.490  0.0000E+00  0.0000E+00  0.1600E+02  0.1600E+02
    -10.295  0.0000E+00  0.0000E+00  0.1600E+02  0.1600E+02
    -10.101  0.0000E+00  0.0000E+00  0.1600E+02  0.1600E+02
     -9.906  0.0000E+00  0.0000E+00  0.1600E+02  0.1600E+02
     -9.711  0.0000E+00  0.0000E+00  0.1600E+02  0.1600E+02
     -9.517  0.0000E+00  0.0000E+00  0.1600E+02  0.1600E+02
     -9.322  0.0000E+00  0.0000E+00  0.1600E+02  0.1600E+02
     -9.127  0.0000E+00  0.0000E+00  0.1600E+02  0.1600E+02
     -8.933  0.0000E+00  0.0000E+00  0.1600E+02  0.1600E+02
     -8.738  0.0000E+00  0.0000E+00  0.1600E+02  0.1600E+02
     -8.543  0.0000E+00  0.0000E+00  0.1600E+02  0.1600E+02
     -8.349  0.0000E+00  0.0000E+00  0.1600E+02  0.1600E+02
     -8.154  0.0000E+00  0.0000E+00  0.1600E+02  0.1600E+02
     -7.959  0.0000E+00  0.0000E+00  0.1600E+02  0.1600E+02
     -7.764  0.0000E+00  0.0000E+00  0.1600E+02  0.1600E+02
     -7.570  0.0000E+00  0.0000E+00  0.1600E+02  0.1600E+02
     -7.375  0.0000E+00  0.0000E+00  0.1600E+02  0.1600E+02
     -7.180  0.0000E+00  0.0000E+00  0.1600E+02  0.1600E+02
     -6.986  0.0000E+00  0.0000E+00  0.1600E+02  0.1600E+02
     -6.791  0.0000E+00  0.0000E+00  0.1600E+02  0.1600E+02
     -6.596  0.0000E+00  0.0000E+00  0.1600E+02  0.1600E+02
     -6.402  0.0000E+00  0.0000E+00  0.1600E+02  0.1600E+02
     -6.207  0.0000E+00  0.0000E+00  0.1600E+02  0.1600E+02
     -6.012  0.0000E+00  0.0000E+00  0.1600E+02  0.1600E+02
     -5.818  0.0000E+00  0.0000E+00  0.1600E+02  0.1600E+02
     -5.623  0.0000E+00  0.0000E+00  0.1600E+02  0.1600E+02
     -5.428  0.0000E+00  0.0000E+00  0.1600E+02  0.1600E+02
     -5.233  0.0000E+00  0.0000E+00  0.1600E+02  0.1600E+02
     -5.039  0.0000E+00  0.0000E+00  0.1600E+02  0.1600E+02
     -4.844  0.0000E+00  0.0000E+00  0.1600E+02  0.1600E+02
     -4.649  0.0000E+00  0.0000E+00  0.1600E+02  0.1600E+02
     -4.455  0.0000E+00  0.0000E+00  0.1600E+02  0.1600E+02
     -4.260  0.7917E-06  0.7860E-06  0.1600E+02  0.1600E+02
     -4.065  0.7173E-04  0.7121E-04  0.1600E+02  0.1600E+02
     -3.871  0.3496E-02  0.3472E-02  0.1600E+02  0.1600E+02
     -3.676  0.1009E+00  0.1005E+00  0.1602E+02  0.1602E+02
     -3.481  0.4752E+00  0.4744E+00  0.1611E+02  0.1611E+02
     -3.287  0.7638E+00  0.7633E+00  0.1626E+02  0.1626E+02
     -3.092  0.9665E+00  0.9663E+00  0.1645E+02  0.1645E+02
     -2.897  0.1172E+01  0.1171E+01  0.1668E+02  0.1668E+02
     -2.702  0.1288E+01  0.1288E+01  0.1693E+02  0.1693E+02
     -2.508  0.1590E+01  0.1590E+01  0.1724E+02  0.1724E+02
     -2.313  0.1683E+01  0.1683E+01  0.1757E+02  0.1757E+02
     -2.118  0.1930E+01  0.1930E+01  0.1795E+02  0.1795E+02
     -1.924  0.2000E+01  0.2001E+01  0.1834E+02  0.1834E+02
     -1.729  0.1698E+01  0.1699E+01  0.1867E+02  0.1867E+02
     -1.534  0.1793E+01  0.1793E+01  0.1902E+02  0.1902E+02
     -1.340  0.1809E+01  0.1808E+01  0.1937E+02  0.1937E+02
     -1.145  0.2097E+01  0.2096E+01  0.1978E+02  0.1978E+02
     -0.950  0.2272E+01  0.2272E+01  0.2023E+02  0.2023E+02
     -0.756  0.2693E+01  0.2692E+01  0.2075E+02  0.2075E+02
     -0.561  0.2609E+01  0.2610E+01  0.2126E+02  0.2126E+02
     -0.366  0.2561E+01  0.2561E+01  0.2176E+02  0.2176E+02
     -0.172  0.2386E+01  0.2387E+01  0.2223E+02  0.2223E+02
      0.023  0.2336E+01  0.2335E+01  0.2269E+02  0.2269E+02
      0.218  0.2950E+01  0.2950E+01  0.2326E+02  0.2326E+02
      0.413  0.3090E+01  0.3090E+01  0.2387E+02  0.2387E+02
      0.607  0.3308E+01  0.3307E+01  0.2451E+02  0.2451E+02
      0.802  0.3505E+01  0.3506E+01  0.2520E+02  0.2520E+02
      0.997  0.2574E+01  0.2577E+01  0.2570E+02  0.2570E+02
      1.191  0.1856E+01  0.1855E+01  0.2607E+02  0.2607E+02
      1.386  0.2564E+01  0.2563E+01  0.2657E+02  0.2657E+02
      1.581  0.2592E+01  0.2593E+01  0.2707E+02  0.2707E+02
      1.775  0.2005E+01  0.2004E+01  0.2747E+02  0.2747E+02
      1.970  0.3222E+01  0.3220E+01  0.2810E+02  0.2810E+02
      2.165  0.3681E+01  0.3681E+01  0.2882E+02  0.2881E+02
      2.359  0.3724E+01  0.3723E+01  0.2954E+02  0.2954E+02
      2.554  0.3818E+01  0.3818E+01  0.3029E+02  0.3029E+02
      2.749  0.4105E+01  0.4104E+01  0.3109E+02  0.3109E+02
      2.944  0.4835E+01  0.4836E+01  0.3204E+02  0.3203E+02
      3.138  0.4593E+01  0.4594E+01  0.3293E+02  0.3293E+02
      3.333  0.4423E+01  0.4423E+01  0.3380E+02  0.3380E+02
      3.528  0.5041E+01  0.5040E+01  0.3478E+02  0.3478E+02
      3.722  0.5905E+01  0.5905E+01  0.3594E+02  0.3594E+02
      3.917  0.6114E+01  0.6116E+01  0.3713E+02  0.3713E+02
      4.112  0.5279E+01  0.5280E+01  0.3817E+02  0.3816E+02
      4.306  0.5831E+01  0.5831E+01  0.3931E+02  0.3931E+02
      4.501  0.4518E+01  0.4520E+01  0.4019E+02  0.4019E+02
      4.696  0.4055E+01  0.4059E+01  0.4098E+02  0.4098E+02
      4.890  0.3366E+01  0.3366E+01  0.4164E+02  0.4164E+02
      5.085  0.3367E+01  0.3367E+01  0.4230E+02  0.4230E+02
      5.280  0.4368E+01  0.4369E+01  0.4315E+02  0.4315E+02
      5.475  0.5003E+01  0.5003E+01  0.4413E+02  0.4413E+02
      5.669  0.6503E+01  0.6514E+01  0.4540E+02  0.4540E+02
      5.864  0.6828E+01  0.6864E+01  0.4673E+02  0.4674E+02
      6.059  0.8887E+01  0.8931E+01  0.4847E+02  0.4849E+02
      6.253  0.1069E+02  0.1077E+02  0.5056E+02  0.5059E+02
      6.448  0.1018E+02  0.1021E+02  0.5254E+02  0.5258E+02
      6.643  0.7640E+01  0.7557E+01  0.5404E+02  0.5406E+02
      6.837  0.5562E+01  0.5776E+01  0.5513E+02  0.5520E+02
      7.032  0.3394E+01  0.3274E+01  0.5580E+02  0.5584E+02
      7.227  0.8368E+00  0.7408E+00  0.5596E+02  0.5599E+02
      7.421  0.8678E-01  0.5404E-01  0.5598E+02  0.5600E+02
      7.616  0.2626E-01  0.0000E+00  0.5599E+02  0.5600E+02
      7.811  0.5329E-01  0.0000E+00  0.5600E+02  0.5600E+02
      8.005  0.4343E-02  0.0000E+00  0.5600E+02  0.5600E+02
      8.200  0.0000E+00  0.0000E+00  0.5600E+02  0.5600E+02
      8.395  0.0000E+00  0.0000E+00  0.5600E+02  0.5600E+02
      8.590  0.0000E+00  0.0000E+00  0.5600E+02  0.5600E+02
      8.784  0.0000E+00  0.0000E+00  0.5600E+02  0.5600E+02
      8.979  0.0000E+00  0.0000E+00  0.5600E+02  0.5600E+02
      9.174  0.0000E+00  0.0000E+00  0.5600E+02  0.5600E+02
      9.368  0.0000E+00  0.0000E+00  0.5600E+02  0.5600E+02
      9.563  0.0000E+00  0.0000E+00  0.5600E+02  0.5600E+02
      9.758  0.0000E+00  0.0000E+00  0.5600E+02  0.5600E+02
      9.952  0.0000E+00  0.0000E+00  0.5600E+02  0.5600E+02
     10.147  0.0000E+00  0.0000E+00  0.5600E+02  0.5600E+02
     10.342  0.0000E+00  0.0000E+00  0.5600E+02  0.5600E+02
     10.34176442    -48.06537533  301      4.45394572      1.00000000
    -48.065  0.0000E+00  0.0000E+00  0.0000E+00  0.0000E+00  0.0000E+00  0.0000E+00  0.0000E+00  0.0000E+00  0.0000E+00  0.0000E+00  0.0000E+00  0.0000E+00  0.0000E+00  0.0000E+00  0.0000E+00  0.0000E+00  0.0000E+00  0.0000E+00
    -47.871  0.0000E+00  0.0000E+00  0.0000E+00  0.0000E+00  0.0000E+00  0.0000E+00  0.0000E+00  0.0000E+00  0.0000E+00  0.0000E+00  0.0000E+00  0.0000E+00  0.0000E+00  0.0000E+00  0.0000E+00  0.0000E+00  0.0000E+00  0.0000E+00
    -47.676  0.0000E+00  0.0000E+00  0.0000E+00  0.0000E+00  0.0000E+00  0.0000E+00  0.0000E+00  0.0000E+00  0.0000E+00  0.0000E+00  0.0000E+00  0.0000E+00  0.0000E+00  0.0000E+00  0.0000E+00  0.0000E+00  0.0000E+00  0.0000E+00
    -47.481  0.0000E+00  0.0000E+00  0.0000E+00  0.0000E+00  0.0000E+00  0.0000E+00  0.0000E+00  0.0000E+00  0.0000E+00  0.0000E+00  0.0000E+00  0.0000E+00  0.0000E+00  0.0000E+00  0.0000E+00  0.0000E+00  0.0000E+00  0.0000E+00
    -47.287  0.0000E+00  0.0000E+00  0.0000E+00  0.0000E+00  0.0000E+00  0.0000E+00  0.0000E+00  0.0000E+00  0.0000E+00  0.0000E+00  0.0000E+00  0.0000E+00  0.0000E+00  0.0000E+00  0.0000E+00  0.0000E+00  0.0000E+00  0.0000E+00
    -47.092  0.0000E+00  0.0000E+00  0.0000E+00  0.0000E+00  0.0000E+00  0.0000E+00  0.0000E+00  0.0000E+00  0.0000E+00  0.0000E+00  0.0000E+00  0.0000E+00  0.0000E+00  0.0000E+00  0.0000E+00  0.0000E+00  0.0000E+00  0.0000E+00
    -46.897  0.0000E+00  0.0000E+00  0.0000E+00  0.0000E+00  0.0000E+00  0.0000E+00  0.0000E+00  0.0000E+00  0.0000E+00  0.0000E+00  0.0000E+00  0.0000E+00  0.0000E+00  0.0000E+00  0.0000E+00  0.0000E+00  0.0000E+00  0.0000E+00
    -46.703  0.0000E+00  0.0000E+00  0.0000E+00  0.0000E+00  0.0000E+00  0.0000E+00  0.0000E+00  0.0000E+00  0.0000E+00  0.0000E+00  0.0000E+00  0.0000E+00  0.0000E+00  0.0000E+00  0.0000E+00  0.0000E+00  0.0000E+00  0.0000E+00
    -46.508  0.0000E+00  0.0000E+00  0.0000E+00  0.0000E+00  0.0000E+00  0.0000E+00  0.0000E+00  0.0000E+00  0.0000E+00  0.0000E+00  0.0000E+00  0.0000E+00  0.0000E+00  0.0000E+00  0.0000E+00  0.0000E+00  0.0000E+00  0.0000E+00
    -46.313  0.0000E+00  0.0000E+00  0.0000E+00  0.0000E+00  0.0000E+00  0.0000E+00  0.0000E+00  0.0000E+00  0.0000E+00  0.0000E+00  0.0000E+00  0.0000E+00  0.0000E+00  0.0000E+00  0.0000E+00  0.0000E+00  0.0000E+00  0.0000E+00
    -46.118  0.0000E+00  0.0000E+00  0.0000E+00  0.0000E+00  0.0000E+00  0.0000E+00  0.0000E+00  0.0000E+00  0.0000E+00  0.0000E+00  0.0000E+00  0.0000E+00  0.0000E+00  0.0000E+00  0.0000E+00  0.0000E+00  0.0000E+00  0.0000E+00
    -45.924  0.1735E-03  0.1771E-03  0.2026E-13  0.2111E-13  0.7231E-11  0.7108E-11  0.2026E-13  0.2111E-13  0.2784E-13  0.1502E-13  0.2747E-13  0.1138E-13  0.2407E-11  0.2777E-11  0.2747E-13  0.1138E-13  0.5655E-13  0.1916E-13
    -45.729  0.8330E-02  0.8502E-02  0.9728E-12  0.1014E-11  0.3472E-09  0.3413E-09  0.9728E-12  0.1014E-11  0.1337E-11  0.7211E-12  0.1319E-11  0.5462E-12  0.1156E-09  0.1333E-09  0.1319E-11  0.5462E-12  0.2715E-11  0.9201E-12
    -45.534  0.3781E+00  0.3853E+00  0.4416E-10  0.4595E-10  0.1576E-07  0.1547E-07  0.4416E-10  0.4595E-10  0.6068E-10  0.3268E-10  0.5987E-10  0.2476E-10  0.5245E-08  0.6042E-08  0.5987E-10  0.2476E-10  0.1232E-09  0.4170E-10
    -45.340  0.3710E+01  0.3719E+01  0.4332E-09  0.4435E-09  0.1546E-06  0.1493E-06  0.4332E-09  0.4435E-09  0.5950E-09  0.3157E-09  0.5872E-09  0.2391E-09  0.5146E-07  0.5832E-07  0.5872E-09  0.2391E-09  0.1209E-08  0.4026E-09
    -45.145  0.9951E+00  0.9791E+00  0.1162E-09  0.1167E-09  0.4148E-07  0.3930E-07  0.1162E-09  0.1167E-09  0.1595E-09  0.8319E-10  0.1574E-09  0.6298E-10  0.1380E-07  0.1535E-07  0.1574E-09  0.6298E-10  0.3240E-09  0.1060E-09
    -44.950  0.0000E+00  0.0000E+00  0.0000E+00  0.0000E+00  0.0000E+00  0.0000E+00  0.0000E+00  0.0000E+00  0.0000E+00  0.0000E+00  0.0000E+00  0.0000E+00  0.0000E+00  0.0000E+00  0.0000E+00  0.0000E+00  0.0000E+00  0.0000E+00
    -44.756  0.0000E+00  0.0000E+00  0.0000E+00  0.0000E+00  0.0000E+00  0.0000E+00  0.0000E+00  0.0000E+00  0.0000E+00  0.0000E+00  0.0000E+00  0.0000E+00  0.0000E+00  0.0000E+00  0.0000E+00  0.0000E+00  0.0000E+00  0.0000E+00
    -44.561  0.0000E+00  0.0000E+00  0.0000E+00  0.0000E+00  0.0000E+00  0.0000E+00  0.0000E+00  0.0000E+00  0.0000E+00  0.0000E+00  0.0000E+00  0.0000E+00  0.0000E+00  0.0000E+00  0.0000E+00  0.0000E+00  0.0000E+00  0.0000E+00
    -44.366  0.0000E+00  0.0000E+00  0.0000E+00  0.0000E+00  0.0000E+00  0.0000E+00  0.0000E+00  0.0000E+00  0.0000E+00  0.0000E+00  0.0000E+00  0.0000E+00  0.0000E+00  0.0000E+00  0.0000E+00  0.0000E+00  0.0000E+00  0.0000E+00
    -44.172  0.0000E+00  0.0000E+00  0.0000E+00  0.0000E+00  0.0000E+00  0.0000E+00  0.0000E+00  0.0000E+00  0.0000E+00  0.0000E+00  0.0000E+00  0.0000E+00  0.0000E+00  0.0000E+00  0.0000E+00  0.0000E+00  0.0000E+00  0.0000E+00
    -43.977  0.0000E+00  0.0000E+00  0.0000E+00  0.0000E+00  0.0000E+00  0.0000E+00  0.0000E+00  0.0000E+00  0.0000E+00  0.0000E+00  0.0000E+00  0.0000E+00  0.0000E+00  0.0000E+00  0.0000E+00  0.0000E+00  0.0000E+00  0.0000E+00
    -43.782  0.0000E+00  0.0000E+00  0.0000E+00  0.0000E+00  0.0000E+00  0.0000E+00  0.0000E+00  0.0000E+00  0.0000E+00  0.0000E+00  0.0000E+00  0.0000E+00  0.0000E+00  0.0000E+00  0.0000E+00  0.0000E+00  0.0000E+00  0.0000E+00
    -43.587  0.0000E+00  0.0000E+00  0.0000E+00  0.0000E+00  0.0000E+00  0.0000E+00  0.0000E+00  0.0000E+00  0.0000E+00  0.0000E+00  0.0000E+00  0.0000E+00  0.0000E+00  0.0000E+00  0.0000E+00  0.0000E+00  0.0000E+00  0.0000E+00
    -43.393  0.0000E+00  0.0000E+00  0.0000E+00  0.0000E+00  0.0000E+00  0.0000E+00  0.0000E+00  0.0000E+00  0.0000E+00  0.0000E+00  0.0000E+00  0.0000E+00  0.0000E+00  0.0000E+00  0.0000E+00  0.0000E+00  0.0000E+00  0.0000E+00
    -43.198  0.0000E+00  0.0000E+00  0.0000E+00  0.0000E+00  0.0000E+00  0.0000E+00  0.0000E+00  0.0000E+00  0.0000E+00  0.0000E+00  0.0000E+00  0.0000E+00  0.0000E+00  0.0000E+00  0.0000E+00  0.0000E+00  0.0000E+00  0.0000E+00
    -43.003  0.0000E+00  0.0000E+00  0.0000E+00  0.0000E+00  0.0000E+00  0.0000E+00  0.0000E+00  0.0000E+00  0.0000E+00  0.0000E+00  0.0000E+00  0.0000E+00  0.0000E+00  0.0000E+00  0.0000E+00  0.0000E+00  0.0000E+00  0.0000E+00
    -42.809  0.0000E+00  0.0000E+00  0.0000E+00  0.0000E+00  0.0000E+00  0.0000E+00  0.0000E+00  0.0000E+00  0.0000E+00  0.0000E+00  0.0000E+00  0.0000E+00  0.0000E+00  0.0000E+00  0.0000E+00  0.0000E+00  0.0000E+00  0.0000E+00
    -42.614  0.0000E+00  0.0000E+00  0.0000E+00  0.0000E+00  0.0000E+00  0.0000E+00  0.0000E+00  0.0000E+00  0.0000E+00  0.0000E+00  0.0000E+00  0.0000E+00  0.0000E+00  0.0000E+00  0.0000E+00  0.0000E+00  0.0000E+00  0.0000E+00
    -42.419  0.0000E+00  0.0000E+00  0.0000E+00  0.0000E+00  0.0000E+00  0.0000E+00  0.0000E+00  0.0000E+00  0.0000E+00  0.0000E+00  0.0000E+00  0.0000E+00  0.0000E+00  0.0000E+00  0.0000E+00  0.0000E+00  0.0000E+00  0.0000E+00
    -42.225  0.0000E+00  0.0000E+00  0.0000E+00  0.0000E+00  0.0000E+00  0.0000E+00  0.0000E+00  0.0000E+00  0.0000E+00  0.0000E+00  0.0000E+00  0.0000E+00  0.0000E+00  0.0000E+00  0.0000E+00  0.0000E+00  0.0000E+00  0.0000E+00
    -42.030  0.0000E+00  0.0000E+00  0.0000E+00  0.0000E+00  0.0000E+00  0.0000E+00  0.0000E+00  0.0000E+00  0.0000E+00  0.0000E+00  0.0000E+00  0.0000E+00  0.0000E+00  0.0000E+00  0.0000E+00  0.0000E+00  0.0000E+00  0.0000E+00
    -41.835  0.0000E+00  0.0000E+00  0.0000E+00  0.0000E+00  0.0000E+00  0.0000E+00  0.0000E+00  0.0000E+00  0.0000E+00  0.0000E+00  0.0000E+00  0.0000E+00  0.0000E+00  0.0000E+00  0.0000E+00  0.0000E+00  0.0000E+00  0.0000E+00
    -41.641  0.0000E+00  0.0000E+00  0.0000E+00  0.0000E+00  0.0000E+00  0.0000E+00  0.0000E+00  0.0000E+00  0.0000E+00  0.0000E+00  0.0000E+00  0.0000E+00  0.0000E+00  0.0000E+00  0.0000E+00  0.0000E+00  0.0000E+00  0.0000E+00
    -41.446  0.0000E+00  0.0000E+00  0.0000E+00  0.0000E+00  0.0000E+00  0.0000E+00  0.0000E+00  0.0000E+00  0.0000E+00  0.0000E+00  0.0000E+00  0.0000E+00  0.0000E+00  0.0000E+00  0.0000E+00  0.0000E+00  0.0000E+00  0.0000E+00
    -41.251  0.0000E+00  0.0000E+00  0.0000E+00  0.0000E+00  0.0000E+00  0.0000E+00  0.0000E+00  0.0000E+00  0.0000E+00  0.0000E+00  0.0000E+00  0.0000E+00  0.0000E+00  0.0000E+00  0.0000E+00  0.0000E+00  0.0000E+00  0.0000E+00
    -41.057  0.0000E+00  0.0000E+00  0.0000E+00  0.0000E+00  0.0000E+00  0.0000E+00  0.0000E+00  0.0000E+00  0.0000E+00  0.0000E+00  0.0000E+00  0.0000E+00  0.0000E+00  0.0000E+00  0.0000E+00  0.0000E+00  0.0000E+00  0.0000E+00
    -40.862  0.0000E+00  0.0000E+00  0.0000E+00  0.0000E+00  0.0000E+00  0.0000E+00  0.0000E+00  0.0000E+00  0.0000E+00  0.0000E+00  0.0000E+00  0.0000E+00  0.0000E+00  0.0000E+00  0.0000E+00  0.0000E+00  0.0000E+00  0.0000E+00
    -40.667  0.0000E+00  0.0000E+00  0.0000E+00  0.0000E+00  0.0000E+00  0.0000E+00  0.0000E+00  0.0000E+00  0.0000E+00  0.0000E+00  0.0000E+00  0.0000E+00  0.0000E+00  0.0000E+00  0.0000E+00  0.0000E+00  0.0000E+00  0.0000E+00
    -40.472  0.0000E+00  0.0000E+00  0.0000E+00  0.0000E+00  0.0000E+00  0.0000E+00  0.0000E+00  0.0000E+00  0.0000E+00  0.0000E+00  0.0000E+00  0.0000E+00  0.0000E+00  0.0000E+00  0.0000E+00  0.0000E+00  0.0000E+00  0.0000E+00
    -40.278  0.0000E+00  0.0000E+00  0.0000E+00  0.0000E+00  0.0000E+00  0.0000E+00  0.0000E+00  0.0000E+00  0.0000E+00  0.0000E+00  0.0000E+00  0.0000E+00  0.0000E+00  0.0000E+00  0.0000E+00  0.0000E+00  0.0000E+00  0.0000E+00
    -40.083  0.0000E+00  0.0000E+00  0.0000E+00  0.0000E+00  0.0000E+00  0.0000E+00  0.0000E+00  0.0000E+00  0.0000E+00  0.0000E+00  0.0000E+00  0.0000E+00  0.0000E+00  0.0000E+00  0.0000E+00  0.0000E+00  0.0000E+00  0.0000E+00
    -39.888  0.0000E+00  0.0000E+00  0.0000E+00  0.0000E+00  0.0000E+00  0.0000E+00  0.0000E+00  0.0000E+00  0.0000E+00  0.0000E+00  0.0000E+00  0.0000E+00  0.0000E+00  0.0000E+00  0.0000E+00  0.0000E+00  0.0000E+00  0.0000E+00
    -39.694  0.0000E+00  0.0000E+00  0.0000E+00  0.0000E+00  0.0000E+00  0.0000E+00  0.0000E+00  0.0000E+00  0.0000E+00  0.0000E+00  0.0000E+00  0.0000E+00  0.0000E+00  0.0000E+00  0.0000E+00  0.0000E+00  0.0000E+00  0.0000E+00
    -39.499  0.0000E+00  0.0000E+00  0.0000E+00  0.0000E+00  0.0000E+00  0.0000E+00  0.0000E+00  0.0000E+00  0.0000E+00  0.0000E+00  0.0000E+00  0.0000E+00  0.0000E+00  0.0000E+00  0.0000E+00  0.0000E+00  0.0000E+00  0.0000E+00
    -39.304  0.0000E+00  0.0000E+00  0.0000E+00  0.0000E+00  0.0000E+00  0.0000E+00  0.0000E+00  0.0000E+00  0.0000E+00  0.0000E+00  0.0000E+00  0.0000E+00  0.0000E+00  0.0000E+00  0.0000E+00  0.0000E+00  0.0000E+00  0.0000E+00
    -39.110  0.0000E+00  0.0000E+00  0.0000E+00  0.0000E+00  0.0000E+00  0.0000E+00  0.0000E+00  0.0000E+00  0.0000E+00  0.0000E+00  0.0000E+00  0.0000E+00  0.0000E+00  0.0000E+00  0.0000E+00  0.0000E+00  0.0000E+00  0.0000E+00
    -38.915  0.0000E+00  0.0000E+00  0.0000E+00  0.0000E+00  0.0000E+00  0.0000E+00  0.0000E+00  0.0000E+00  0.0000E+00  0.0000E+00  0.0000E+00  0.0000E+00  0.0000E+00  0.0000E+00  0.0000E+00  0.0000E+00  0.0000E+00  0.0000E+00
    -38.720  0.0000E+00  0.0000E+00  0.0000E+00  0.0000E+00  0.0000E+00  0.0000E+00  0.0000E+00  0.0000E+00  0.0000E+00  0.0000E+00  0.0000E+00  0.0000E+00  0.0000E+00  0.0000E+00  0.0000E+00  0.0000E+00  0.0000E+00  0.0000E+00
    -38.526  0.0000E+00  0.0000E+00  0.0000E+00  0.0000E+00  0.0000E+00  0.0000E+00  0.0000E+00  0.0000E+00  0.0000E+00  0.0000E+00  0.0000E+00  0.0000E+00  0.0000E+00  0.0000E+00  0.0000E+00  0.0000E+00  0.0000E+00  0.0000E+00
    -38.331  0.0000E+00  0.0000E+00  0.0000E+00  0.0000E+00  0.0000E+00  0.0000E+00  0.0000E+00  0.0000E+00  0.0000E+00  0.0000E+00  0.0000E+00  0.0000E+00  0.0000E+00  0.0000E+00  0.0000E+00  0.0000E+00  0.0000E+00  0.0000E+00