  16  16   1   0
  0.1462443E+02  0.3800270E-09  0.3800270E-09  0.1620205E-08  0.5000000E-15
  1.000000000000000E-004
  CAR 
 unknown system                          
     15.54343185    -42.37579498  301      8.39369768      1.00000000
    -42.376  0.0000E+00  0.0000E+00  0.0000E+00  0.0000E+00
    -42.183  0.0000E+00  0.0000E+00  0.0000E+00  0.0000E+00
    -41.990  0.0000E+00  0.0000E+00  0.0000E+00  0.0000E+00
    -41.797  0.0000E+00  0.0000E+00  0.0000E+00  0.0000E+00
    -41.604  0.0000E+00  0.0000E+00  0.0000E+00  0.0000E+00
    -41.410  0.0000E+00  0.0000E+00  0.0000E+00  0.0000E+00
    -41.217  0.0000E+00  0.0000E+00  0.0000E+00  0.0000E+00
    -41.024  0.0000E+00  0.0000E+00  0.0000E+00  0.0000E+00
    -40.831  0.0000E+00  0.0000E+00  0.0000E+00  0.0000E+00
    -40.638  0.0000E+00  0.0000E+00  0.0000E+00  0.0000E+00
    -40.445  0.0000E+00  0.0000E+00  0.0000E+00  0.0000E+00
    -40.252  0.7113E-03  0.7131E-03  0.1373E-03  0.1377E-03
    -40.059  0.3304E-01  0.3312E-01  0.6516E-02  0.6533E-02
    -39.866  0.1457E+01  0.1461E+01  0.2878E+00  0.2885E+00
    -39.673  0.1480E+02  0.1481E+02  0.3145E+01  0.3147E+01
    -39.480  0.4309E+01  0.4300E+01  0.3977E+01  0.3977E+01
    -39.287  0.0000E+00  0.0000E+00  0.4000E+01  0.4000E+01
    -39.094  0.0000E+00  0.0000E+00  0.4000E+01  0.4000E+01
    -38.901  0.0000E+00  0.0000E+00  0.4000E+01  0.4000E+01
    -38.708  0.0000E+00  0.0000E+00  0.4000E+01  0.4000E+01
    -38.515  0.0000E+00  0.0000E+00  0.4000E+01  0.4000E+01
    -38.321  0.0000E+00  0.0000E+00  0.4000E+01  0.4000E+01
    -38.128  0.0000E+00  0.0000E+00  0.4000E+01  0.4000E+01
    -37.935  0.0000E+00  0.0000E+00  0.4000E+01  0.4000E+01
    -37.742  0.0000E+00  0.0000E+00  0.4000E+01  0.4000E+01
    -37.549  0.0000E+00  0.0000E+00  0.4000E+01  0.4000E+01
    -37.356  0.0000E+00  0.0000E+00  0.4000E+01  0.4000E+01
    -37.163  0.0000E+00  0.0000E+00  0.4000E+01  0.4000E+01
    -36.970  0.0000E+00  0.0000E+00  0.4000E+01  0.4000E+01
    -36.777  0.0000E+00  0.0000E+00  0.4000E+01  0.4000E+01
    -36.584  0.0000E+00  0.0000E+00  0.4000E+01  0.4000E+01
    -36.391  0.0000E+00  0.0000E+00  0.4000E+01  0.4000E+01
    -36.198  0.0000E+00  0.0000E+00  0.4000E+01  0.4000E+01
    -36.005  0.0000E+00  0.0000E+00  0.4000E+01  0.4000E+01
    -35.812  0.0000E+00  0.0000E+00  0.4000E+01  0.4000E+01
    -35.619  0.0000E+00  0.0000E+00  0.4000E+01  0.4000E+01
    -35.425  0.0000E+00  0.0000E+00  0.4000E+01  0.4000E+01
    -35.232  0.0000E+00  0.0000E+00  0.4000E+01  0.4000E+01
    -35.039  0.0000E+00  0.0000E+00  0.4000E+01  0.4000E+01
    -34.846  0.0000E+00  0.0000E+00  0.4000E+01  0.4000E+01
    -34.653  0.0000E+00  0.0000E+00  0.4000E+01  0.4000E+01
    -34.460  0.0000E+00  0.0000E+00  0.4000E+01  0.4000E+01
    -34.267  0.0000E+00  0.0000E+00  0.4000E+01  0.4000E+01
    -34.074  0.0000E+00  0.0000E+00  0.4000E+01  0.4000E+01
    -33.881  0.0000E+00  0.0000E+00  0.4000E+01  0.4000E+01
    -33.688  0.0000E+00  0.0000E+00  0.4000E+01  0.4000E+01
    -33.495  0.0000E+00  0.0000E+00  0.4000E+01  0.4000E+01
    -33.302  0.0000E+00  0.0000E+00  0.4000E+01  0.4000E+01
    -33.109  0.0000E+00  0.0000E+00  0.4000E+01  0.4000E+01
    -32.916  0.0000E+00  0.0000E+00  0.4000E+01  0.4000E+01
    -32.723  0.0000E+00  0.0000E+00  0.4000E+01  0.4000E+01
    -32.530  0.0000E+00  0.0000E+00  0.4000E+01  0.4000E+01
    -32.336  0.0000E+00  0.0000E+00  0.4000E+01  0.4000E+01
    -32.143  0.0000E+00  0.0000E+00  0.4000E+01  0.4000E+01
    -31.950  0.0000E+00  0.0000E+00  0.4000E+01  0.4000E+01
    -31.757  0.0000E+00  0.0000E+00  0.4000E+01  0.4000E+01
    -31.564  0.0000E+00  0.0000E+00  0.4000E+01  0.4000E+01
    -31.371  0.0000E+00  0.0000E+00  0.4000E+01  0.4000E+01
    -31.178  0.0000E+00  0.0000E+00  0.4000E+01  0.4000E+01
    -30.985  0.0000E+00  0.0000E+00  0.4000E+01  0.4000E+01
    -30.792  0.0000E+00  0.0000E+00  0.4000E+01  0.4000E+01
    -30.599  0.0000E+00  0.0000E+00  0.4000E+01  0.4000E+01
    -30.406  0.0000E+00  0.0000E+00  0.4000E+01  0.4000E+01
    -30.213  0.0000E+00  0.0000E+00  0.4000E+01  0.4000E+01
    -30.020  0.0000E+00  0.0000E+00  0.4000E+01  0.4000E+01
    -29.827  0.0000E+00  0.0000E+00  0.4000E+01  0.4000E+01
    -29.634  0.0000E+00  0.0000E+00  0.4000E+01  0.4000E+01
    -29.441  0.0000E+00  0.0000E+00  0.4000E+01  0.4000E+01
    -29.247  0.0000E+00  0.0000E+00  0.4000E+01  0.4000E+01
    -29.054  0.0000E+00  0.0000E+00  0.4000E+01  0.4000E+01
    -28.861  0.0000E+00  0.0000E+00  0.4000E+01  0.4000E+01
    -28.668  0.0000E+00  0.0000E+00  0.4000E+01  0.4000E+01
    -28.475  0.0000E+00  0.0000E+00  0.4000E+01  0.4000E+01
    -28.282  0.0000E+00  0.0000E+00  0.4000E+01  0.4000E+01
    -28.089  0.0000E+00  0.0000E+00  0.4000E+01  0.4000E+01
    -27.896  0.0000E+00  0.0000E+00  0.4000E+01  0.4000E+01
    -27.703  0.0000E+00  0.0000E+00  0.4000E+01  0.4000E+01
    -27.510  0.0000E+00  0.0000E+00  0.4000E+01  0.4000E+01
    -27.317  0.0000E+00  0.0000E+00  0.4000E+01  0.4000E+01
    -27.124  0.0000E+00  0.0000E+00  0.4000E+01  0.4000E+01
    -26.931  0.0000E+00  0.0000E+00  0.4000E+01  0.4000E+01
    -26.738  0.0000E+00  0.0000E+00  0.4000E+01  0.4000E+01
    -26.545  0.0000E+00  0.0000E+00  0.4000E+01  0.4000E+01
    -26.351  0.0000E+00  0.0000E+00  0.4000E+01  0.4000E+01
    -26.158  0.0000E+00  0.0000E+00  0.4000E+01  0.4000E+01
    -25.965  0.0000E+00  0.0000E+00  0.4000E+01  0.4000E+01
    -25.772  0.0000E+00  0.0000E+00  0.4000E+01  0.4000E+01
    -25.579  0.0000E+00  0.0000E+00  0.4000E+01  0.4000E+01
    -25.386  0.0000E+00  0.0000E+00  0.4000E+01  0.4000E+01
    -25.193  0.0000E+00  0.0000E+00  0.4000E+01  0.4000E+01
    -25.000  0.0000E+00  0.0000E+00  0.4000E+01  0.4000E+01
    -24.807  0.0000E+00  0.0000E+00  0.4000E+01  0.4000E+01
    -24.614  0.0000E+00  0.0000E+00  0.4000E+01  0.4000E+01
    -24.421  0.0000E+00  0.0000E+00  0.4000E+01  0.4000E+01
    -24.228  0.0000E+00  0.0000E+00  0.4000E+01  0.4000E+01
    -24.035  0.0000E+00  0.0000E+00  0.4000E+01  0.4000E+01
    -23.842  0.0000E+00  0.0000E+00  0.4000E+01  0.4000E+01
    -23.649  0.0000E+00  0.0000E+00  0.4000E+01  0.4000E+01
    -23.456  0.0000E+00  0.0000E+00  0.4000E+01  0.4000E+01
    -23.262  0.0000E+00  0.0000E+00  0.4000E+01  0.4000E+01
    -23.069  0.0000E+00  0.0000E+00  0.4000E+01  0.4000E+01
    -22.876  0.0000E+00  0.0000E+00  0.4000E+01  0.4000E+01
    -22.683  0.0000E+00  0.0000E+00  0.4000E+01  0.4000E+01
    -22.490  0.0000E+00  0.0000E+00  0.4000E+01  0.4000E+01
    -22.297  0.0000E+00  0.0000E+00  0.4000E+01  0.4000E+01
    -22.104  0.0000E+00  0.0000E+00  0.4000E+01  0.4000E+01
    -21.911  0.0000E+00  0.0000E+00  0.4000E+01  0.4000E+01
    -21.718  0.0000E+00  0.0000E+00  0.4000E+01  0.4000E+01
    -21.525  0.0000E+00  0.0000E+00  0.4000E+01  0.4000E+01
    -21.332  0.0000E+00  0.0000E+00  0.4000E+01  0.4000E+01
    -21.139  0.0000E+00  0.0000E+00  0.4000E+01  0.4000E+01
    -20.946  0.0000E+00  0.0000E+00  0.4000E+01  0.4000E+01
    -20.753  0.0000E+00  0.0000E+00  0.4000E+01  0.4000E+01
    -20.560  0.0000E+00  0.0000E+00  0.4000E+01  0.4000E+01
    -20.366  0.0000E+00  0.0000E+00  0.4000E+01  0.4000E+01
    -20.173  0.0000E+00  0.0000E+00  0.4000E+01  0.4000E+01
    -19.980  0.0000E+00  0.0000E+00  0.4000E+01  0.4000E+01
    -19.787  0.0000E+00  0.0000E+00  0.4000E+01  0.4000E+01
    -19.594  0.0000E+00  0.0000E+00  0.4000E+01  0.4000E+01
    -19.401  0.0000E+00  0.0000E+00  0.4000E+01  0.4000E+01
    -19.208  0.0000E+00  0.0000E+00  0.4000E+01  0.4000E+01
    -19.015  0.5007E-02  0.5025E-02  0.4001E+01  0.4001E+01
    -18.822  0.2318E+00  0.2327E+00  0.4046E+01  0.4046E+01
    -18.629  0.9006E+01  0.9032E+01  0.5784E+01  0.5790E+01
    -18.436  0.4507E+02  0.4506E+02  0.1449E+02  0.1449E+02
    -18.243  0.7653E+01  0.7633E+01  0.1596E+02  0.1596E+02
    -18.050  0.0000E+00  0.0000E+00  0.1600E+02  0.1600E+02
    -17.857  0.0000E+00  0.0000E+00  0.1600E+02  0.1600E+02
    -17.664  0.0000E+00  0.0000E+00  0.1600E+02  0.1600E+02
    -17.471  0.0000E+00  0.0000E+00  0.1600E+02  0.1600E+02
    -17.277  0.0000E+00  0.0000E+00  0.1600E+02  0.1600E+02
    -17.084  0.0000E+00  0.0000E+00  0.1600E+02  0.1600E+02
    -16.891  0.0000E+00  0.0000E+00  0.1600E+02  0.1600E+02
    -16.698  0.0000E+00  0.0000E+00  0.1600E+02  0.1600E+02
    -16.505  0.0000E+00  0.0000E+00  0.1600E+02  0.1600E+02
    -16.312  0.0000E+00  0.0000E+00  0.1600E+02  0.1600E+02
    -16.119  0.0000E+00  0.0000E+00  0.1600E+02  0.1600E+02
    -15.926  0.0000E+00  0.0000E+00  0.1600E+02  0.1600E+02
    -15.733  0.0000E+00  0.0000E+00  0.1600E+02  0.1600E+02
    -15.540  0.0000E+00  0.0000E+00  0.1600E+02  0.1600E+02
    -15.347  0.0000E+00  0.0000E+00  0.1600E+02  0.1600E+02
    -15.154  0.0000E+00  0.0000E+00  0.1600E+02  0.1600E+02
    -14.961  0.0000E+00  0.0000E+00  0.1600E+02  0.1600E+02
    -14.768  0.0000E+00  0.0000E+00  0.1600E+02  0.1600E+02
    -14.575  0.0000E+00  0.0000E+00  0.1600E+02  0.1600E+02
    -14.382  0.0000E+00  0.0000E+00  0.1600E+02  0.1600E+02
    -14.188  0.0000E+00  0.0000E+00  0.1600E+02  0.1600E+02
    -13.995  0.0000E+00  0.0000E+00  0.1600E+02  0.1600E+02
    -13.802  0.0000E+00  0.0000E+00  0.1600E+02  0.1600E+02
    -13.609  0.0000E+00  0.0000E+00  0.1600E+02  0.1600E+02
    -13.416  0.0000E+00  0.0000E+00  0.1600E+02  0.1600E+02
    -13.223  0.0000E+00  0.0000E+00  0.1600E+02  0.1600E+02
    -13.030  0.0000E+00  0.0000E+00  0.1600E+02  0.1600E+02
    -12.837  0.0000E+00  0.0000E+00  0.1600E+02  0.1600E+02
    -12.644  0.0000E+00  0.0000E+00  0.1600E+02  0.1600E+02
    -12.451  0.0000E+00  0.0000E+00  0.1600E+02  0.1600E+02
    -12.258  0.0000E+00  0.0000E+00  0.1600E+02  0.1600E+02
    -12.065  0.0000E+00  0.0000E+00  0.1600E+02  0.1600E+02
    -11.872  0.0000E+00  0.0000E+00  0.1600E+02  0.1600E+02
    -11.679  0.0000E+00  0.0000E+00  0.1600E+02  0.1600E+02
    -11.486  0.0000E+00  0.0000E+00  0.1600E+02  0.1600E+02
    -11.292  0.0000E+00  0.0000E+00  0.1600E+02  0.1600E+02
    -11.099  0.0000E+00  0.0000E+00  0.1600E+02  0.1600E+02
    -10.906  0.0000E+00  0.0000E+00  0.1600E+02  0.1600E+02
    -10.713  0.0000E+00  0.0000E+00  0.1600E+02  0.1600E+02
    -10.520  0.0000E+00  0.0000E+00  0.1600E+02  0.1600E+02
    -10.327  0.0000E+00  0.0000E+00  0.1600E+02  0.1600E+02
    -10.134  0.0000E+00  0.0000E+00  0.1600E+02  0.1600E+02
     -9.941  0.0000E+00  0.0000E+00  0.1600E+02  0.1600E+02
     -9.748  0.0000E+00  0.0000E+00  0.1600E+02  0.1600E+02
     -9.555  0.0000E+00  0.0000E+00  0.1600E+02  0.1600E+02
     -9.362  0.0000E+00  0.0000E+00  0.1600E+02  0.1600E+02
     -9.169  0.0000E+00  0.0000E+00  0.1600E+02  0.1600E+02
     -8.976  0.0000E+00  0.0000E+00  0.1600E+02  0.1600E+02
     -8.783  0.0000E+00  0.0000E+00  0.1600E+02  0.1600E+02
     -8.590  0.0000E+00  0.0000E+00  0.1600E+02  0.1600E+02
     -8.397  0.0000E+00  0.0000E+00  0.1600E+02  0.1600E+02
     -8.203  0.0000E+00  0.0000E+00  0.1600E+02  0.1600E+02
     -8.010  0.0000E+00  0.0000E+00  0.1600E+02  0.1600E+02
     -7.817  0.0000E+00  0.0000E+00  0.1600E+02  0.1600E+02
     -7.624  0.0000E+00  0.0000E+00  0.1600E+02  0.1600E+02
     -7.431  0.0000E+00  0.0000E+00  0.1600E+02  0.1600E+02
     -7.238  0.0000E+00  0.0000E+00  0.1600E+02  0.1600E+02
     -7.045  0.0000E+00  0.0000E+00  0.1600E+02  0.1600E+02
     -6.852  0.0000E+00  0.0000E+00  0.1600E+02  0.1600E+02
     -6.659  0.0000E+00  0.0000E+00  0.1600E+02  0.1600E+02
     -6.466  0.0000E+00  0.0000E+00  0.1600E+02  0.1600E+02
     -6.273  0.0000E+00  0.0000E+00  0.1600E+02  0.1600E+02
     -6.080  0.0000E+00  0.0000E+00  0.1600E+02  0.1600E+02
     -5.887  0.0000E+00  0.0000E+00  0.1600E+02  0.1600E+02
     -5.694  0.0000E+00  0.0000E+00  0.1600E+02  0.1600E+02
     -5.501  0.0000E+00  0.0000E+00  0.1600E+02  0.1600E+02
     -5.307  0.0000E+00  0.0000E+00  0.1600E+02  0.1600E+02
     -5.114  0.0000E+00  0.0000E+00  0.1600E+02  0.1600E+02
     -4.921  0.0000E+00  0.0000E+00  0.1600E+02  0.1600E+02
     -4.728  0.0000E+00  0.0000E+00  0.1600E+02  0.1600E+02
     -4.535  0.0000E+00  0.0000E+00  0.1600E+02  0.1600E+02
     -4.342  0.0000E+00  0.0000E+00  0.1600E+02  0.1600E+02
     -4.149  0.0000E+00  0.0000E+00  0.1600E+02  0.1600E+02
     -3.956  0.0000E+00  0.0000E+00  0.1600E+02  0.1600E+02
     -3.763  0.0000E+00  0.0000E+00  0.1600E+02  0.1600E+02
     -3.570  0.0000E+00  0.0000E+00  0.1600E+02  0.1600E+02
     -3.377  0.0000E+00  0.0000E+00  0.1600E+02  0.1600E+02
     -3.184  0.0000E+00  0.0000E+00  0.1600E+02  0.1600E+02
     -2.991  0.0000E+00  0.0000E+00  0.1600E+02  0.1600E+02
     -2.798  0.0000E+00  0.0000E+00  0.1600E+02  0.1600E+02
     -2.605  0.1080E-05  0.1076E-05  0.1600E+02  0.1600E+02
     -2.412  0.7119E-04  0.7096E-04  0.1600E+02  0.1600E+02
     -2.218  0.3289E-02  0.3279E-02  0.1600E+02  0.1600E+02
     -2.025  0.7755E-01  0.7740E-01  0.1602E+02  0.1602E+02
     -1.832  0.2825E+00  0.2824E+00  0.1607E+02  0.1607E+02
     -1.639  0.4652E+00  0.4651E+00  0.1616E+02  0.1616E+02
     -1.446  0.5799E+00  0.5797E+00  0.1627E+02  0.1627E+02
     -1.253  0.6775E+00  0.6775E+00  0.1640E+02  0.1640E+02
     -1.060  0.7045E+00  0.7044E+00  0.1654E+02  0.1654E+02
     -0.867  0.9555E+00  0.9554E+00  0.1672E+02  0.1672E+02
     -0.674  0.9191E+00  0.9193E+00  0.1690E+02  0.1690E+02
     -0.481  0.1036E+01  0.1035E+01  0.1710E+02  0.1710E+02
     -0.288  0.1288E+01  0.1288E+01  0.1735E+02  0.1735E+02
     -0.095  0.1182E+01  0.1182E+01  0.1758E+02  0.1758E+02
      0.098  0.1446E+01  0.1446E+01  0.1786E+02  0.1786E+02
      0.291  0.1413E+01  0.1413E+01  0.1814E+02  0.1813E+02
      0.484  0.1630E+01  0.1630E+01  0.1845E+02  0.1845E+02
      0.677  0.1211E+01  0.1211E+01  0.1869E+02  0.1869E+02
      0.871  0.1444E+01  0.1444E+01  0.1897E+02  0.1897E+02
      1.064  0.1390E+01  0.1390E+01  0.1923E+02  0.1923E+02
      1.257  0.1454E+01  0.1454E+01  0.1952E+02  0.1952E+02
      1.450  0.1609E+01  0.1609E+01  0.1983E+02  0.1983E+02
      1.643  0.1476E+01  0.1476E+01  0.2011E+02  0.2011E+02
      1.836  0.1498E+01  0.1498E+01  0.2041E+02  0.2041E+02
      2.029  0.1959E+01  0.1959E+01  0.2078E+02  0.2078E+02
      2.222  0.2060E+01  0.2060E+01  0.2118E+02  0.2118E+02
      2.415  0.1953E+01  0.1956E+01  0.2156E+02  0.2156E+02
      2.608  0.1819E+01  0.1819E+01  0.2191E+02  0.2191E+02
      2.801  0.1891E+01  0.1891E+01  0.2228E+02  0.2228E+02
      2.994  0.1665E+01  0.1664E+01  0.2260E+02  0.2260E+02
      3.187  0.2133E+01  0.2132E+01  0.2302E+02  0.2302E+02
      3.380  0.1926E+01  0.1926E+01  0.2339E+02  0.2339E+02
      3.573  0.1910E+01  0.1910E+01  0.2376E+02  0.2376E+02
      3.767  0.2345E+01  0.2345E+01  0.2422E+02  0.2422E+02
      3.960  0.2815E+01  0.2815E+01  0.2476E+02  0.2476E+02
      4.153  0.2802E+01  0.2802E+01  0.2530E+02  0.2530E+02
      4.346  0.2443E+01  0.2443E+01  0.2578E+02  0.2578E+02
      4.539  0.1918E+01  0.1918E+01  0.2615E+02  0.2615E+02
      4.732  0.1915E+01  0.1914E+01  0.2652E+02  0.2652E+02
      4.925  0.2988E+01  0.2987E+01  0.2710E+02  0.2710E+02
      5.118  0.2634E+01  0.2634E+01  0.2761E+02  0.2761E+02
      5.311  0.2616E+01  0.2616E+01  0.2812E+02  0.2812E+02
      5.504  0.3007E+01  0.3007E+01  0.2870E+02  0.2870E+02
      5.697  0.3342E+01  0.3342E+01  0.2935E+02  0.2935E+02
      5.890  0.3516E+01  0.3516E+01  0.3003E+02  0.3003E+02
      6.083  0.3655E+01  0.3654E+01  0.3074E+02  0.3074E+02
      6.276  0.4175E+01  0.4175E+01  0.3154E+02  0.3154E+02
      6.469  0.3824E+01  0.3825E+01  0.3229E+02  0.3229E+02
      6.662  0.3201E+01  0.3201E+01  0.3291E+02  0.3291E+02
      6.856  0.3498E+01  0.3498E+01  0.3359E+02  0.3358E+02
      7.049  0.3811E+01  0.3810E+01  0.3432E+02  0.3432E+02
      7.242  0.4417E+01  0.4415E+01  0.3518E+02  0.3518E+02
      7.435  0.4877E+01  0.4877E+01  0.3612E+02  0.3612E+02
      7.628  0.5202E+01  0.5202E+01  0.3713E+02  0.3713E+02
      7.821  0.4267E+01  0.4268E+01  0.3796E+02  0.3796E+02
      8.014  0.3670E+01  0.3670E+01  0.3867E+02  0.3867E+02
      8.207  0.3488E+01  0.3487E+01  0.3935E+02  0.3935E+02
      8.400  0.3473E+01  0.3475E+01  0.4002E+02  0.4002E+02
      8.593  0.2998E+01  0.2999E+01  0.4060E+02  0.4060E+02
      8.786  0.2356E+01  0.2357E+01  0.4106E+02  0.4106E+02
      8.979  0.1919E+01  0.1919E+01  0.4143E+02  0.4143E+02
      9.172  0.1916E+01  0.1917E+01  0.4180E+02  0.4180E+02
      9.365  0.2042E+01  0.2041E+01  0.4220E+02  0.4220E+02
      9.558  0.2618E+01  0.2619E+01  0.4270E+02  0.4270E+02
      9.752  0.2749E+01  0.2750E+01  0.4324E+02  0.4324E+02
      9.945  0.2984E+01  0.2985E+01  0.4381E+02  0.4381E+02
     10.138  0.2898E+01  0.2898E+01  0.4438E+02  0.4438E+02
     10.331  0.3786E+01  0.3785E+01  0.4511E+02  0.4511E+02
     10.524  0.5058E+01  0.5067E+01  0.4609E+02  0.4609E+02
     10.717  0.5388E+01  0.5367E+01  0.4713E+02  0.4713E+02
     10.910  0.4686E+01  0.4689E+01  0.4804E+02  0.4804E+02
     11.103  0.5084E+01  0.5144E+01  0.4903E+02  0.4904E+02
     11.296  0.5019E+01  0.5038E+01  0.5000E+02  0.5001E+02
     11.489  0.5052E+01  0.5113E+01  0.5098E+02  0.5100E+02
     11.682  0.6444E+01  0.6540E+01  0.5223E+02  0.5227E+02
     11.875  0.6186E+01  0.6055E+01  0.5342E+02  0.5344E+02
     12.068  0.5094E+01  0.5267E+01  0.5441E+02  0.5447E+02
     12.261  0.3803E+01  0.3620E+01  0.5515E+02  0.5517E+02
     12.454  0.2671E+01  0.2464E+01  0.5567E+02  0.5565E+02
     12.647  0.1189E+01  0.1462E+01  0.5590E+02  0.5593E+02
     12.841  0.3960E+00  0.3275E+00  0.5598E+02  0.5600E+02
     13.034  0.8041E-01  0.1137E-01  0.5600E+02  0.5600E+02
     13.227  0.3151E-02  0.0000E+00  0.5600E+02  0.5600E+02
     13.420  0.0000E+00  0.0000E+00  0.5600E+02  0.5600E+02
     13.613  0.0000E+00  0.0000E+00  0.5600E+02  0.5600E+02
     13.806  0.0000E+00  0.0000E+00  0.5600E+02  0.5600E+02
     13.999  0.0000E+00  0.0000E+00  0.5600E+02  0.5600E+02
     14.192  0.0000E+00  0.0000E+00  0.5600E+02  0.5600E+02
     14.385  0.0000E+00  0.0000E+00  0.5600E+02  0.5600E+02
     14.578  0.0000E+00  0.0000E+00  0.5600E+02  0.5600E+02
     14.771  0.0000E+00  0.0000E+00  0.5600E+02  0.5600E+02
     14.964  0.0000E+00  0.0000E+00  0.5600E+02  0.5600E+02
     15.157  0.0000E+00  0.0000E+00  0.5600E+02  0.5600E+02
     15.350  0.0000E+00  0.0000E+00  0.5600E+02  0.5600E+02
     15.543  0.0000E+00  0.0000E+00  0.5600E+02  0.5600E+02
     15.54343185    -42.37579498  301      8.39369768      1.00000000
    -42.376  0.0000E+00  0.0000E+00  0.0000E+00  0.0000E+00  0.0000E+00  0.0000E+00  0.0000E+00  0.0000E+00  0.0000E+00  0.0000E+00  0.0000E+00  0.0000E+00  0.0000E+00  0.0000E+00  0.0000E+00  0.0000E+00  0.0000E+00  0.0000E+00
    -42.183  0.0000E+00  0.0000E+00  0.0000E+00  0.0000E+00  0.0000E+00  0.0000E+00  0.0000E+00  0.0000E+00  0.0000E+00  0.0000E+00  0.0000E+00  0.0000E+00  0.0000E+00  0.0000E+00  0.0000E+00  0.0000E+00  0.0000E+00  0.0000E+00
    -41.990  0.0000E+00  0.0000E+00  0.0000E+00  0.0000E+00  0.0000E+00  0.0000E+00  0.0000E+00  0.0000E+00  0.0000E+00  0.0000E+00  0.0000E+00  0.0000E+00  0.0000E+00  0.0000E+00  0.0000E+00  0.0000E+00  0.0000E+00  0.0000E+00
    -41.797  0.0000E+00  0.0000E+00  0.0000E+00  0.0000E+00  0.0000E+00  0.0000E+00  0.0000E+00  0.0000E+00  0.0000E+00  0.0000E+00  0.0000E+00  0.0000E+00  0.0000E+00  0.0000E+00  0.0000E+00  0.0000E+00  0.0000E+00  0.0000E+00
    -41.604  0.0000E+00  0.0000E+00  0.0000E+00  0.0000E+00  0.0000E+00  0.0000E+00  0.0000E+00  0.0000E+00  0.0000E+00  0.0000E+00  0.0000E+00  0.0000E+00  0.0000E+00  0.0000E+00  0.0000E+00  0.0000E+00  0.0000E+00  0.0000E+00
    -41.410  0.0000E+00  0.0000E+00  0.0000E+00  0.0000E+00  0.0000E+00  0.0000E+00  0.0000E+00  0.0000E+00  0.0000E+00  0.0000E+00  0.0000E+00  0.0000E+00  0.0000E+00  0.0000E+00  0.0000E+00  0.0000E+00  0.0000E+00  0.0000E+00
    -41.217  0.0000E+00  0.0000E+00  0.0000E+00  0.0000E+00  0.0000E+00  0.0000E+00  0.0000E+00  0.0000E+00  0.0000E+00  0.0000E+00  0.0000E+00  0.0000E+00  0.0000E+00  0.0000E+00  0.0000E+00  0.0000E+00  0.0000E+00  0.0000E+00
    -41.024  0.0000E+00  0.0000E+00  0.0000E+00  0.0000E+00  0.0000E+00  0.0000E+00  0.0000E+00  0.0000E+00  0.0000E+00  0.0000E+00  0.0000E+00  0.0000E+00  0.0000E+00  0.0000E+00  0.0000E+00  0.0000E+00  0.0000E+00  0.0000E+00
    -40.831  0.0000E+00  0.0000E+00  0.0000E+00  0.0000E+00  0.0000E+00  0.0000E+00  0.0000E+00  0.0000E+00  0.0000E+00  0.0000E+00  0.0000E+00  0.0000E+00  0.0000E+00  0.0000E+00  0.0000E+00  0.0000E+00  0.0000E+00  0.0000E+00
    -40.638  0.0000E+00  0.0000E+00  0.0000E+00  0.0000E+00  0.0000E+00  0.0000E+00  0.0000E+00  0.0000E+00  0.0000E+00  0.0000E+00  0.0000E+00  0.0000E+00  0.0000E+00  0.0000E+00  0.0000E+00  0.0000E+00  0.0000E+00  0.0000E+00
    -40.445  0.0000E+00  0.0000E+00  0.0000E+00  0.0000E+00  0.0000E+00  0.0000E+00  0.0000E+00  0.0000E+00  0.0000E+00  0.0000E+00  0.0000E+00  0.0000E+00  0.0000E+00  0.0000E+00  0.0000E+00  0.0000E+00  0.0000E+00  0.0000E+00
    -40.252  0.1771E-03  0.1775E-03  0.5068E-11  0.5072E-11  0.1019E-08  0.1022E-08  0.5068E-11  0.5072E-11  0.3237E-13  0.1012E-13  0.3303E-13  0.1163E-13  0.1913E-10  0.1968E-10  0.3303E-13  0.1163E-13  0.3261E-11  0.3361E-11
    -40.059  0.8225E-02  0.8246E-02  0.2354E-09  0.2356E-09  0.4732E-07  0.4749E-07  0.2354E-09  0.2356E-09  0.1504E-11  0.4699E-12  0.1534E-11  0.5403E-12  0.8886E-09  0.9141E-09  0.1534E-11  0.5403E-12  0.1515E-09  0.1561E-09
    -39.866  0.3627E+00  0.3636E+00  0.1038E-07  0.1039E-07  0.2087E-05  0.2094E-05  0.1038E-07  0.1039E-07  0.6637E-10  0.2073E-10  0.6768E-10  0.2384E-10  0.3916E-07  0.4028E-07  0.6768E-10  0.2384E-10  0.6682E-08  0.6886E-08
    -39.673  0.3685E+01  0.3686E+01  0.1053E-06  0.1052E-06  0.2118E-04  0.2120E-04  0.1053E-06  0.1052E-06  0.6807E-09  0.2120E-09  0.6894E-09  0.2436E-09  0.3942E-06  0.4047E-06  0.6894E-09  0.2436E-09  0.6800E-07  0.6995E-07
    -39.480  0.1073E+01  0.1070E+01  0.3061E-07  0.3049E-07  0.6157E-05  0.6151E-05  0.3061E-07  0.3049E-07  0.2004E-09  0.6219E-10  0.2014E-09  0.7142E-10  0.1136E-06  0.1163E-06  0.2014E-09  0.7142E-10  0.1982E-07  0.2034E-07
    -39.287  0.0000E+00  0.0000E+00  0.0000E+00  0.0000E+00  0.0000E+00  0.0000E+00  0.0000E+00  0.0000E+00  0.0000E+00  0.0000E+00  0.0000E+00  0.0000E+00  0.0000E+00  0.0000E+00  0.0000E+00  0.0000E+00  0.0000E+00  0.0000E+00
    -39.094  0.0000E+00  0.0000E+00  0.0000E+00  0.0000E+00  0.0000E+00  0.0000E+00  0.0000E+00  0.0000E+00  0.0000E+00  0.0000E+00  0.0000E+00  0.0000E+00  0.0000E+00  0.0000E+00  0.0000E+00  0.0000E+00  0.0000E+00  0.0000E+00
    -38.901  0.0000E+00  0.0000E+00  0.0000E+00  0.0000E+00  0.0000E+00  0.0000E+00  0.0000E+00  0.0000E+00  0.0000E+00  0.0000E+00  0.0000E+00  0.0000E+00  0.0000E+00  0.0000E+00  0.0000E+00  0.0000E+00  0.0000E+00  0.0000E+00
    -38.708  0.0000E+00  0.0000E+00  0.0000E+00  0.0000E+00  0.0000E+00  0.0000E+00  0.0000E+00  0.0000E+00  0.0000E+00  0.0000E+00  0.0000E+00  0.0000E+00  0.0000E+00  0.0000E+00  0.0000E+00  0.0000E+00  0.0000E+00  0.0000E+00
    -38.515  0.0000E+00  0.0000E+00  0.0000E+00  0.0000E+00  0.0000E+00  0.0000E+00  0.0000E+00  0.0000E+00  0.0000E+00  0.0000E+00  0.0000E+00  0.0000E+00  0.0000E+00  0.0000E+00  0.0000E+00  0.0000E+00  0.0000E+00  0.0000E+00
    -38.321  0.0000E+00  0.0000E+00  0.0000E+00  0.0000E+00  0.0000E+00  0.0000E+00  0.0000E+00  0.0000E+00  0.0000E+00  0.0000E+00  0.0000E+00  0.0000E+00  0.0000E+00  0.0000E+00  0.0000E+00  0.0000E+00  0.0000E+00  0.0000E+00
    -38.128  0.0000E+00  0.0000E+00  0.0000E+00  0.0000E+00  0.0000E+00  0.0000E+00  0.0000E+00  0.0000E+00  0.0000E+00  0.0000E+00  0.0000E+00  0.0000E+00  0.0000E+00  0.0000E+00  0.0000E+00  0.0000E+00  0.0000E+00  0.0000E+00
    -37.935  0.0000E+00  0.0000E+00  0.0000E+00  0.0000E+00  0.0000E+00  0.0000E+00  0.0000E+00  0.0000E+00  0.0000E+00  0.0000E+00  0.0000E+00  0.0000E+00  0.0000E+00  0.0000E+00  0.0000E+00  0.0000E+00  0.0000E+00  0.0000E+00
    -37.742  0.0000E+00  0.0000E+00  0.0000E+00  0.0000E+00  0.0000E+00  0.0000E+00  0.0000E+00  0.0000E+00  0.0000E+00  0.0000E+00  0.0000E+00  0.0000E+00  0.0000E+00  0.0000E+00  0.0000E+00  0.0000E+00  0.0000E+00  0.0000E+00
    -37.549  0.0000E+00  0.0000E+00  0.0000E+00  0.0000E+00  0.0000E+00  0.0000E+00  0.0000E+00  0.0000E+00  0.0000E+00  0.0000E+00  0.0000E+00  0.0000E+00  0.0000E+00  0.0000E+00  0.0000E+00  0.0000E+00  0.0000E+00  0.0000E+00
    -37.356  0.0000E+00  0.0000E+00  0.0000E+00  0.0000E+00  0.0000E+00  0.0000E+00  0.0000E+00  0.0000E+00  0.0000E+00  0.0000E+00  0.0000E+00  0.0000E+00  0.0000E+00  0.0000E+00  0.0000E+00  0.0000E+00  0.0000E+00  0.0000E+00
    -37.163  0.0000E+00  0.0000E+00  0.0000E+00  0.0000E+00  0.0000E+00  0.0000E+00  0.0000E+00  0.0000E+00  0.0000E+00  0.0000E+00  0.0000E+00  0.0000E+00  0.0000E+00  0.0000E+00  0.0000E+00  0.0000E+00  0.0000E+00  0.0000E+00
    -36.970  0.0000E+00  0.0000E+00  0.0000E+00  0.0000E+00  0.0000E+00  0.0000E+00  0.0000E+00  0.0000E+00  0.0000E+00  0.0000E+00  0.0000E+00  0.0000E+00  0.0000E+00  0.0000E+00  0.0000E+00  0.0000E+00  0.0000E+00  0.0000E+00
    -36.777  0.0000E+00  0.0000E+00  0.0000E+00  0.0000E+00  0.0000E+00  0.0000E+00  0.0000E+00  0.0000E+00  0.0000E+00  0.0000E+00  0.0000E+00  0.0000E+00  0.0000E+00  0.0000E+00  0.0000E+00  0.0000E+00  0.0000E+00  0.0000E+00
    -36.584  0.0000E+00  0.0000E+00  0.0000E+00  0.0000E+00  0.0000E+00  0.0000E+00  0.0000E+00  0.0000E+00  0.0000E+00  0.0000E+00  0.0000E+00  0.0000E+00  0.0000E+00  0.0000E+00  0.0000E+00  0.0000E+00  0.0000E+00  0.0000E+00
    -36.391  0.0000E+00  0.0000E+00  0.0000E+00  0.0000E+00  0.0000E+00  0.0000E+00  0.0000E+00  0.0000E+00  0.0000E+00  0.0000E+00  0.0000E+00  0.0000E+00  0.0000E+00  0.0000E+00  0.0000E+00  0.0000E+00  0.0000E+00  0.0000E+00
    -36.198  0.0000E+00  0.0000E+00  0.0000E+00  0.0000E+00  0.0000E+00  0.0000E+00  0.0000E+00  0.0000E+00  0.0000E+00  0.0000E+00  0.0000E+00  0.0000E+00  0.0000E+00  0.0000E+00  0.0000E+00  0.0000E+00  0.0000E+00  0.0000E+00
    -36.005  0.0000E+00  0.0000E+00  0.0000E+00  0.0000E+00  0.0000E+00  0.0000E+00  0.0000E+00  0.0000E+00  0.0000E+00  0.0000E+00  0.0000E+00  0.0000E+00  0.0000E+00  0.0000E+00  0.0000E+00  0.0000E+00  0.0000E+00  0.0000E+00
    -35.812  0.0000E+00  0.0000E+00  0.0000E+00  0.0000E+00  0.0000E+00  0.0000E+00  0.0000E+00  0.0000E+00  0.0000E+00  0.0000E+00  0.0000E+00  0.0000E+00  0.0000E+00  0.0000E+00  0.0000E+00  0.0000E+00  0.0000E+00  0.0000E+00
    -35.619  0.0000E+00  0.0000E+00  0.0000E+00  0.0000E+00  0.0000E+00  0.0000E+00  0.0000E+00  0.0000E+00  0.0000E+00  0.0000E+00  0.0000E+00  0.0000E+00  0.0000E+00  0.0000E+00  0.0000E+00  0.0000E+00  0.0000E+00  0.0000E+00
    -35.425  0.0000E+00  0.0000E+00  0.0000E+00  0.0000E+00  0.0000E+00  0.0000E+00  0.0000E+00  0.0000E+00  0.0000E+00  0.0000E+00  0.0000E+00  0.0000E+00  0.0000E+00  0.0000E+00  0.0000E+00  0.0000E+00  0.0000E+00  0.0000E+00
    -35.232  0.0000E+00  0.0000E+00  0.0000E+00  0.0000E+00  0.0000E+00  0.0000E+00  0.0000E+00  0.0000E+00  0.0000E+00  0.0000E+00  0.0000E+00  0.0000E+00  0.0000E+00  0.0000E+00  0.0000E+00  0.0000E+00  0.0000E+00  0.0000E+00
    -35.039  0.0000E+00  0.0000E+00  0.0000E+00  0.0000E+00  0.0000E+00  0.0000E+00  0.0000E+00  0.0000E+00  0.0000E+00  0.0000E+00  0.0000E+00  0.0000E+00  0.0000E+00  0.0000E+00  0.0000E+00  0.0000E+00  0.0000E+00  0.0000E+00
    -34.846  0.0000E+00  0.0000E+00  0.0000E+00  0.0000E+00  0.0000E+00  0.0000E+00  0.0000E+00  0.0000E+00  0.0000E+00  0.0000E+00  0.0000E+00  0.0000E+00  0.0000E+00  0.0000E+00  0.0000E+00  0.0000E+00  0.0000E+00  0.0000E+00
    -34.653  0.0000E+00  0.0000E+00  0.0000E+00  0.0000E+00  0.0000E+00  0.0000E+00  0.0000E+00  0.0000E+00  0.0000E+00  0.0000E+00  0.0000E+00  0.0000E+00  0.0000E+00  0.0000E+00  0.0000E+00  0.0000E+00  0.0000E+00  0.0000E+00
    -34.460  0.0000E+00  0.0000E+00  0.0000E+00  0.0000E+00  0.0000E+00  0.0000E+00  0.0000E+00  0.0000E+00  0.0000E+00  0.0000E+00  0.0000E+00  0.0000E+00  0.0000E+00  0.0000E+00  0.0000E+00  0.0000E+00  0.0000E+00  0.0000E+00
    -34.267  0.0000E+00  0.0000E+00  0.0000E+00  0.0000E+00  0.0000E+00  0.0000E+00  0.0000E+00  0.0000E+00  0.0000E+00  0.0000E+00  0.0000E+00  0.0000E+00  0.0000E+00  0.0000E+00  0.0000E+00  0.0000E+00  0.0000E+00  0.0000E+00
    -34.074  0.0000E+00  0.0000E+00  0.0000E+00  0.0000E+00  0.0000E+00  0.0000E+00  0.0000E+00  0.0000E+00  0.0000E+00  0.0000E+00  0.0000E+00  0.0000E+00  0.0000E+00  0.0000E+00  0.0000E+00  0.0000E+00  0.0000E+00  0.0000E+00
    -33.881  0.0000E+00  0.0000E+00  0.0000E+00  0.0000E+00  0.0000E+00  0.0000E+00  0.0000E+00  0.0000E+00  0.0000E+00  0.0000E+00  0.0000E+00  0.0000E+00  0.0000E+00  0.0000E+00  0.0000E+00  0.0000E+00  0.0000E+00  0.0000E+00
    -33.688  0.0000E+00  0.0000E+00  0.0000E+00  0.0000E+00  0.0000E+00  0.0000E+00  0.0000E+00  0.0000E+00  0.0000E+00  0.0000E+00  0.0000E+00  0.0000E+00  0.0000E+00  0.0000E+00  0.0000E+00  0.0000E+00  0.0000E+00  0.0000E+00
    -33.495  0.0000E+00  0.0000E+00  0.0000E+00  0.0000E+00  0.0000E+00  0.0000E+00  0.0000E+00  0.0000E+00  0.0000E+00  0.0000E+00  0.0000E+00  0.0000E+00  0.0000E+00  0.0000E+00  0.0000E+00  0.0000E+00  0.0000E+00  0.0000E+00
    -33.302  0.0000E+00  0.0000E+00  0.0000E+00  0.0000E+00  0.0000E+00  0.0000E+00  0.0000E+00  0.0000E+00  0.0000E+00  0.0000E+00  0.0000E+00  0.0000E+00  0.0000E+00  0.0000E+00  0.0000E+00  0.0000E+00  0.0000E+00  0.0000E+00
    -33.109  0.0000E+00  0.0000E+00  0.0000E+00  0.0000E+00  0.0000E+00  0.0000E+00  0.0000E+00  0.0000E+00  0.0000E+00  0.0000E+00  0.0000E+00  0.0000E+00  0.0000E+00  0.0000E+00  0.0000E+00  0.0000E+00  0.0000E+00  0.0000E+00
    -32.916  0.0000E+00  0.0000E+00  0.0000E+00  0.0000E+00  0.0000E+00  0.0000E+00  0.0000E+00  0.0000E+00  0.0000E+00  0.0000E+00  0.0000E+00  0.0000E+00  0.0000E+00  0.0000E+00  0.0000E+00  0.0000E+00  0.0000E+00  0.0000E+00
    -32.723  0.0000E+00  0.0000E+00  0.0000E+00  0.0000E+00  0.0000E+00  0.0000E+00  0.0000E+00  0.0000E+00  0.0000E+00  0.0000E+00  0.0000E+00  0.0000E+00  0.0000E+00  0.0000E+00  0.0000E+00  0.0000E+00  0.0000E+00  0.0000E+00