  16  16   1   0
  0.1540934E+02  0.3949661E-09  0.3949661E-09  0.1580463E-08  0.5000000E-15
  1.000000000000000E-004
  CAR 
 unknown system                          
     14.25865949     -4.27541458  301      6.79418653      1.00000000
     -4.275  0.0000E+00  0.0000E+00  0.0000E+00  0.0000E+00
     -4.214  0.0000E+00  0.0000E+00  0.0000E+00  0.0000E+00
     -4.152  0.0000E+00  0.0000E+00  0.0000E+00  0.0000E+00
     -4.090  0.0000E+00  0.0000E+00  0.0000E+00  0.0000E+00
     -4.028  0.0000E+00  0.0000E+00  0.0000E+00  0.0000E+00
     -3.967  0.0000E+00  0.0000E+00  0.0000E+00  0.0000E+00
     -3.905  0.0000E+00  0.0000E+00  0.0000E+00  0.0000E+00
     -3.843  0.2125E-04  0.8388E-05  0.1313E-05  0.5182E-06
     -3.781  0.1117E-03  0.1188E-03  0.8215E-05  0.7860E-05
     -3.719  0.3561E-03  0.3408E-03  0.3022E-04  0.2891E-04
     -3.658  0.1218E-02  0.1160E-02  0.1055E-03  0.1006E-03
     -3.596  0.4242E-02  0.4068E-02  0.3675E-03  0.3519E-03
     -3.534  0.1401E-01  0.1344E-01  0.1233E-02  0.1182E-02
     -3.472  0.4242E-01  0.4087E-01  0.3854E-02  0.3707E-02
     -3.410  0.1079E+00  0.1048E+00  0.1052E-01  0.1018E-01
     -3.349  0.2094E+00  0.2056E+00  0.2346E-01  0.2288E-01
     -3.287  0.3058E+00  0.3028E+00  0.4235E-01  0.4159E-01
     -3.225  0.3873E+00  0.3840E+00  0.6628E-01  0.6532E-01
     -3.163  0.4940E+00  0.4901E+00  0.9680E-01  0.9560E-01
     -3.102  0.5634E+00  0.5628E+00  0.1316E+00  0.1304E+00
     -3.040  0.5501E+00  0.5504E+00  0.1656E+00  0.1644E+00
     -2.978  0.6077E+00  0.6034E+00  0.2031E+00  0.2017E+00
     -2.916  0.7370E+00  0.7334E+00  0.2487E+00  0.2470E+00
     -2.854  0.7764E+00  0.7768E+00  0.2967E+00  0.2950E+00
     -2.793  0.7648E+00  0.7647E+00  0.3439E+00  0.3423E+00
     -2.731  0.8137E+00  0.8111E+00  0.3942E+00  0.3924E+00
     -2.669  0.8712E+00  0.8707E+00  0.4481E+00  0.4462E+00
     -2.607  0.8512E+00  0.8523E+00  0.5007E+00  0.4989E+00
     -2.546  0.8911E+00  0.8875E+00  0.5558E+00  0.5537E+00
     -2.484  0.1019E+01  0.1015E+01  0.6188E+00  0.6165E+00
     -2.422  0.1102E+01  0.1100E+01  0.6869E+00  0.6845E+00
     -2.360  0.1118E+01  0.1119E+01  0.7560E+00  0.7537E+00
     -2.298  0.1063E+01  0.1065E+01  0.8217E+00  0.8195E+00
     -2.237  0.1016E+01  0.1016E+01  0.8845E+00  0.8824E+00
     -2.175  0.1057E+01  0.1054E+01  0.9498E+00  0.9475E+00
     -2.113  0.1202E+01  0.1197E+01  0.1024E+01  0.1021E+01
     -2.051  0.1351E+01  0.1347E+01  0.1108E+01  0.1105E+01
     -1.990  0.1410E+01  0.1409E+01  0.1195E+01  0.1192E+01
     -1.928  0.1429E+01  0.1429E+01  0.1283E+01  0.1280E+01
     -1.866  0.1374E+01  0.1378E+01  0.1368E+01  0.1365E+01
     -1.804  0.1276E+01  0.1279E+01  0.1447E+01  0.1444E+01
     -1.742  0.1335E+01  0.1330E+01  0.1529E+01  0.1527E+01
     -1.681  0.1598E+01  0.1589E+01  0.1628E+01  0.1625E+01
     -1.619  0.1843E+01  0.1838E+01  0.1742E+01  0.1739E+01
     -1.557  0.1870E+01  0.1873E+01  0.1858E+01  0.1854E+01
     -1.495  0.1773E+01  0.1779E+01  0.1967E+01  0.1964E+01
     -1.434  0.1550E+01  0.1558E+01  0.2063E+01  0.2061E+01
     -1.372  0.1341E+01  0.1345E+01  0.2146E+01  0.2144E+01
     -1.310  0.1359E+01  0.1356E+01  0.2230E+01  0.2227E+01
     -1.248  0.1532E+01  0.1526E+01  0.2325E+01  0.2322E+01
     -1.186  0.1586E+01  0.1588E+01  0.2423E+01  0.2420E+01
     -1.125  0.1432E+01  0.1437E+01  0.2511E+01  0.2509E+01
     -1.063  0.1266E+01  0.1271E+01  0.2590E+01  0.2588E+01
     -1.001  0.1101E+01  0.1105E+01  0.2658E+01  0.2656E+01
     -0.939  0.1069E+01  0.1066E+01  0.2724E+01  0.2722E+01
     -0.878  0.1273E+01  0.1265E+01  0.2803E+01  0.2800E+01
     -0.816  0.1482E+01  0.1478E+01  0.2894E+01  0.2891E+01
     -0.754  0.1509E+01  0.1511E+01  0.2988E+01  0.2985E+01
     -0.692  0.1368E+01  0.1374E+01  0.3072E+01  0.3070E+01
     -0.630  0.1142E+01  0.1149E+01  0.3143E+01  0.3141E+01
     -0.569  0.9514E+00  0.9551E+00  0.3202E+01  0.3200E+01
     -0.507  0.9491E+00  0.9449E+00  0.3260E+01  0.3258E+01
     -0.445  0.1141E+01  0.1135E+01  0.3331E+01  0.3328E+01
     -0.383  0.1245E+01  0.1244E+01  0.3408E+01  0.3405E+01
     -0.321  0.1198E+01  0.1199E+01  0.3482E+01  0.3479E+01
     -0.260  0.1144E+01  0.1143E+01  0.3553E+01  0.3550E+01
     -0.198  0.1151E+01  0.1149E+01  0.3624E+01  0.3621E+01
     -0.136  0.1182E+01  0.1178E+01  0.3697E+01  0.3694E+01
     -0.074  0.1332E+01  0.1324E+01  0.3779E+01  0.3776E+01
     -0.013  0.1521E+01  0.1514E+01  0.3873E+01  0.3869E+01
      0.049  0.1687E+01  0.1682E+01  0.3977E+01  0.3973E+01
      0.111  0.1829E+01  0.1823E+01  0.4090E+01  0.4086E+01
      0.173  0.2011E+01  0.2003E+01  0.4215E+01  0.4210E+01
      0.235  0.2223E+01  0.2215E+01  0.4352E+01  0.4347E+01
      0.296  0.2356E+01  0.2356E+01  0.4498E+01  0.4492E+01
      0.358  0.2240E+01  0.2248E+01  0.4636E+01  0.4631E+01
      0.420  0.2100E+01  0.2105E+01  0.4766E+01  0.4761E+01
      0.482  0.1918E+01  0.1928E+01  0.4885E+01  0.4881E+01
      0.543  0.1620E+01  0.1628E+01  0.4985E+01  0.4981E+01
      0.605  0.1541E+01  0.1539E+01  0.5080E+01  0.5076E+01
      0.667  0.1652E+01  0.1650E+01  0.5182E+01  0.5178E+01
      0.729  0.1654E+01  0.1655E+01  0.5284E+01  0.5281E+01
      0.791  0.1733E+01  0.1725E+01  0.5392E+01  0.5387E+01
      0.852  0.2096E+01  0.2080E+01  0.5521E+01  0.5516E+01
      0.914  0.2419E+01  0.2413E+01  0.5671E+01  0.5665E+01
      0.976  0.2328E+01  0.2337E+01  0.5815E+01  0.5810E+01
      1.038  0.2116E+01  0.2122E+01  0.5945E+01  0.5941E+01
      1.099  0.1990E+01  0.1997E+01  0.6068E+01  0.6064E+01
      1.161  0.1678E+01  0.1692E+01  0.6172E+01  0.6169E+01
      1.223  0.1344E+01  0.1353E+01  0.6255E+01  0.6252E+01
      1.285  0.1227E+01  0.1227E+01  0.6331E+01  0.6328E+01
      1.347  0.1309E+01  0.1303E+01  0.6412E+01  0.6409E+01
      1.408  0.1491E+01  0.1483E+01  0.6504E+01  0.6501E+01
      1.470  0.1668E+01  0.1660E+01  0.6607E+01  0.6603E+01
      1.532  0.1747E+01  0.1745E+01  0.6715E+01  0.6711E+01
      1.594  0.1702E+01  0.1701E+01  0.6820E+01  0.6816E+01
      1.655  0.1798E+01  0.1788E+01  0.6932E+01  0.6927E+01
      1.717  0.2101E+01  0.2088E+01  0.7061E+01  0.7056E+01
      1.779  0.2358E+01  0.2352E+01  0.7207E+01  0.7201E+01
      1.841  0.2392E+01  0.2394E+01  0.7355E+01  0.7349E+01
      1.903  0.2325E+01  0.2328E+01  0.7499E+01  0.7493E+01
      1.964  0.2352E+01  0.2349E+01  0.7644E+01  0.7638E+01
      2.026  0.2412E+01  0.2411E+01  0.7793E+01  0.7787E+01
      2.088  0.2388E+01  0.2387E+01  0.7941E+01  0.7935E+01
      2.150  0.2335E+01  0.2338E+01  0.8085E+01  0.8079E+01
      2.212  0.2167E+01  0.2173E+01  0.8219E+01  0.8214E+01
      2.273  0.2082E+01  0.2081E+01  0.8348E+01  0.8342E+01
      2.335  0.2143E+01  0.2141E+01  0.8480E+01  0.8475E+01
      2.397  0.2256E+01  0.2254E+01  0.8620E+01  0.8614E+01
      2.459  0.2410E+01  0.2408E+01  0.8769E+01  0.8763E+01
      2.520  0.2442E+01  0.2445E+01  0.8920E+01  0.8914E+01
      2.582  0.2294E+01  0.2303E+01  0.9062E+01  0.9056E+01
      2.644  0.2081E+01  0.2087E+01  0.9190E+01  0.9185E+01
      2.706  0.1987E+01  0.1989E+01  0.9313E+01  0.9308E+01
      2.768  0.1879E+01  0.1885E+01  0.9429E+01  0.9425E+01
      2.829  0.1766E+01  0.1768E+01  0.9538E+01  0.9534E+01
      2.891  0.1744E+01  0.1742E+01  0.9646E+01  0.9642E+01
      2.953  0.1890E+01  0.1876E+01  0.9763E+01  0.9758E+01
      3.015  0.2297E+01  0.2274E+01  0.9905E+01  0.9898E+01
      3.076  0.2645E+01  0.2633E+01  0.1007E+02  0.1006E+02
      3.138  0.2698E+01  0.2699E+01  0.1024E+02  0.1023E+02
      3.200  0.2637E+01  0.2640E+01  0.1040E+02  0.1039E+02
      3.262  0.2649E+01  0.2645E+01  0.1056E+02  0.1055E+02
      3.324  0.2779E+01  0.2773E+01  0.1073E+02  0.1073E+02
      3.385  0.2800E+01  0.2804E+01  0.1091E+02  0.1090E+02
      3.447  0.2651E+01  0.2656E+01  0.1107E+02  0.1106E+02
      3.509  0.2670E+01  0.2667E+01  0.1124E+02  0.1123E+02
      3.571  0.2752E+01  0.2755E+01  0.1141E+02  0.1140E+02
      3.632  0.2688E+01  0.2693E+01  0.1157E+02  0.1157E+02
      3.694  0.2649E+01  0.2648E+01  0.1174E+02  0.1173E+02
      3.756  0.2616E+01  0.2619E+01  0.1190E+02  0.1189E+02
      3.818  0.2460E+01  0.2465E+01  0.1205E+02  0.1204E+02
      3.880  0.2428E+01  0.2423E+01  0.1220E+02  0.1219E+02
      3.941  0.2627E+01  0.2618E+01  0.1236E+02  0.1235E+02
      4.003  0.2729E+01  0.2729E+01  0.1253E+02  0.1252E+02
      4.065  0.2653E+01  0.2655E+01  0.1270E+02  0.1269E+02
      4.127  0.2532E+01  0.2539E+01  0.1285E+02  0.1284E+02
      4.188  0.2282E+01  0.2298E+01  0.1299E+02  0.1299E+02
      4.250  0.2060E+01  0.2065E+01  0.1312E+02  0.1311E+02
      4.312  0.2290E+01  0.2270E+01  0.1326E+02  0.1325E+02
      4.374  0.2976E+01  0.2943E+01  0.1345E+02  0.1344E+02
      4.436  0.3482E+01  0.3468E+01  0.1366E+02  0.1365E+02
      4.497  0.3491E+01  0.3496E+01  0.1388E+02  0.1387E+02
      4.559  0.3223E+01  0.3240E+01  0.1408E+02  0.1407E+02
      4.621  0.2881E+01  0.2896E+01  0.1425E+02  0.1425E+02
      4.683  0.2746E+01  0.2749E+01  0.1442E+02  0.1442E+02
      4.745  0.2798E+01  0.2795E+01  0.1460E+02  0.1459E+02
      4.806  0.2839E+01  0.2840E+01  0.1477E+02  0.1476E+02
      4.868  0.2710E+01  0.2719E+01  0.1494E+02  0.1493E+02
      4.930  0.2556E+01  0.2558E+01  0.1510E+02  0.1509E+02
      4.992  0.2690E+01  0.2681E+01  0.1526E+02  0.1526E+02
      5.053  0.2885E+01  0.2882E+01  0.1544E+02  0.1543E+02
      5.115  0.2862E+01  0.2864E+01  0.1562E+02  0.1561E+02
      5.177  0.2858E+01  0.2855E+01  0.1580E+02  0.1579E+02
      5.239  0.2834E+01  0.2838E+01  0.1597E+02  0.1596E+02
      5.301  0.2750E+01  0.2751E+01  0.1614E+02  0.1613E+02
      5.362  0.2748E+01  0.2750E+01  0.1631E+02  0.1630E+02
      5.424  0.2636E+01  0.2643E+01  0.1647E+02  0.1647E+02
      5.486  0.2547E+01  0.2545E+01  0.1663E+02  0.1662E+02
      5.548  0.2727E+01  0.2718E+01  0.1680E+02  0.1679E+02
      5.609  0.2960E+01  0.2957E+01  0.1698E+02  0.1698E+02
      5.671  0.2853E+01  0.2869E+01  0.1716E+02  0.1715E+02
      5.733  0.2381E+01  0.2400E+01  0.1731E+02  0.1730E+02
      5.795  0.2096E+01  0.2101E+01  0.1744E+02  0.1743E+02
      5.857  0.2132E+01  0.2128E+01  0.1757E+02  0.1756E+02
      5.918  0.2271E+01  0.2263E+01  0.1771E+02  0.1770E+02
      5.980  0.2415E+01  0.2410E+01  0.1786E+02  0.1785E+02
      6.042  0.2541E+01  0.2536E+01  0.1802E+02  0.1801E+02
      6.104  0.2819E+01  0.2806E+01  0.1819E+02  0.1818E+02
      6.165  0.3056E+01  0.3051E+01  0.1838E+02  0.1837E+02
      6.227  0.2872E+01  0.2887E+01  0.1856E+02  0.1855E+02
      6.289  0.2389E+01  0.2408E+01  0.1870E+02  0.1870E+02
      6.351  0.2024E+01  0.2032E+01  0.1883E+02  0.1882E+02
      6.413  0.1983E+01  0.1977E+01  0.1895E+02  0.1895E+02
      6.474  0.2236E+01  0.2218E+01  0.1909E+02  0.1908E+02
      6.536  0.2711E+01  0.2692E+01  0.1926E+02  0.1925E+02
      6.598  0.3029E+01  0.3025E+01  0.1944E+02  0.1944E+02
      6.660  0.2977E+01  0.2984E+01  0.1963E+02  0.1962E+02
      6.721  0.2791E+01  0.2792E+01  0.1980E+02  0.1979E+02
      6.783  0.2787E+01  0.2782E+01  0.1997E+02  0.1997E+02
      6.845  0.2727E+01  0.2734E+01  0.2014E+02  0.2013E+02
      6.907  0.2582E+01  0.2586E+01  0.2030E+02  0.2029E+02
      6.969  0.2665E+01  0.2656E+01  0.2047E+02  0.2046E+02
      7.030  0.2868E+01  0.2859E+01  0.2064E+02  0.2064E+02
      7.092  0.3029E+01  0.3019E+01  0.2083E+02  0.2082E+02
      7.154  0.3165E+01  0.3156E+01  0.2103E+02  0.2102E+02
      7.216  0.3144E+01  0.3148E+01  0.2122E+02  0.2121E+02
      7.277  0.2841E+01  0.2860E+01  0.2140E+02  0.2139E+02
      7.339  0.2560E+01  0.2569E+01  0.2155E+02  0.2155E+02
      7.401  0.2544E+01  0.2538E+01  0.2171E+02  0.2170E+02
      7.463  0.2768E+01  0.2757E+01  0.2188E+02  0.2187E+02
      7.525  0.2919E+01  0.2920E+01  0.2206E+02  0.2206E+02
      7.586  0.2874E+01  0.2876E+01  0.2224E+02  0.2223E+02
      7.648  0.2941E+01  0.2931E+01  0.2242E+02  0.2241E+02
      7.710  0.3204E+01  0.3187E+01  0.2262E+02  0.2261E+02
      7.772  0.3480E+01  0.3470E+01  0.2284E+02  0.2283E+02
      7.834  0.3444E+01  0.3457E+01  0.2305E+02  0.2304E+02
      7.895  0.3134E+01  0.3151E+01  0.2324E+02  0.2323E+02
      7.957  0.2860E+01  0.2872E+01  0.2342E+02  0.2341E+02
      8.019  0.2661E+01  0.2669E+01  0.2358E+02  0.2358E+02
      8.081  0.2634E+01  0.2629E+01  0.2375E+02  0.2374E+02
      8.142  0.2746E+01  0.2741E+01  0.2392E+02  0.2391E+02
      8.204  0.2797E+01  0.2798E+01  0.2409E+02  0.2408E+02
      8.266  0.2774E+01  0.2779E+01  0.2426E+02  0.2425E+02
      8.328  0.2698E+01  0.2703E+01  0.2443E+02  0.2442E+02
      8.390  0.2751E+01  0.2747E+01  0.2460E+02  0.2459E+02
      8.451  0.2924E+01  0.2917E+01  0.2478E+02  0.2477E+02
      8.513  0.2946E+01  0.2946E+01  0.2496E+02  0.2495E+02
      8.575  0.2879E+01  0.2879E+01  0.2514E+02  0.2513E+02
      8.637  0.2963E+01  0.2958E+01  0.2532E+02  0.2531E+02
      8.698  0.3329E+01  0.3308E+01  0.2553E+02  0.2552E+02
      8.760  0.3929E+01  0.3905E+01  0.2577E+02  0.2576E+02
      8.822  0.3977E+01  0.3995E+01  0.2602E+02  0.2601E+02
      8.884  0.3311E+01  0.3338E+01  0.2622E+02  0.2621E+02
      8.946  0.3044E+01  0.3033E+01  0.2641E+02  0.2640E+02
      9.007  0.3458E+01  0.3430E+01  0.2662E+02  0.2661E+02
      9.069  0.3756E+01  0.3752E+01  0.2686E+02  0.2684E+02
      9.131  0.3569E+01  0.3588E+01  0.2708E+02  0.2707E+02
      9.193  0.3116E+01  0.3137E+01  0.2727E+02  0.2726E+02
      9.254  0.2911E+01  0.2912E+01  0.2745E+02  0.2744E+02
      9.316  0.3178E+01  0.3158E+01  0.2765E+02  0.2764E+02
      9.378  0.3590E+01  0.3575E+01  0.2787E+02  0.2786E+02
      9.440  0.3775E+01  0.3773E+01  0.2810E+02  0.2809E+02
      9.502  0.3678E+01  0.3686E+01  0.2833E+02  0.2832E+02
      9.563  0.3352E+01  0.3369E+01  0.2854E+02  0.2853E+02
      9.625  0.2942E+01  0.2960E+01  0.2872E+02  0.2871E+02
      9.687  0.2869E+01  0.2863E+01  0.2889E+02  0.2889E+02
      9.749  0.3339E+01  0.3314E+01  0.2910E+02  0.2909E+02
      9.810  0.3817E+01  0.3801E+01  0.2934E+02  0.2933E+02
      9.872  0.3933E+01  0.3934E+01  0.2958E+02  0.2957E+02
      9.934  0.3707E+01  0.3722E+01  0.2981E+02  0.2980E+02
      9.996  0.3331E+01  0.3345E+01  0.3002E+02  0.3001E+02
     10.058  0.3038E+01  0.3043E+01  0.3020E+02  0.3019E+02
     10.119  0.3028E+01  0.3020E+01  0.3039E+02  0.3038E+02
     10.181  0.3137E+01  0.3138E+01  0.3058E+02  0.3057E+02
     10.243  0.3081E+01  0.3093E+01  0.3077E+02  0.3077E+02
     10.305  0.3096E+01  0.3096E+01  0.3097E+02  0.3096E+02
     10.367  0.3257E+01  0.3249E+01  0.3117E+02  0.3116E+02
     10.428  0.3367E+01  0.3362E+01  0.3138E+02  0.3137E+02
     10.490  0.3460E+01  0.3455E+01  0.3159E+02  0.3158E+02
     10.552  0.3519E+01  0.3525E+01  0.3181E+02  0.3180E+02
     10.614  0.3371E+01  0.3390E+01  0.3202E+02  0.3201E+02
     10.675  0.3162E+01  0.3178E+01  0.3221E+02  0.3220E+02
     10.737  0.3188E+01  0.3187E+01  0.3241E+02  0.3240E+02
     10.799  0.3601E+01  0.3597E+01  0.3263E+02  0.3262E+02
     10.861  0.3903E+01  0.3912E+01  0.3287E+02  0.3286E+02
     10.923  0.3908E+01  0.3939E+01  0.3311E+02  0.3311E+02
     10.984  0.3844E+01  0.3916E+01  0.3335E+02  0.3335E+02
     11.046  0.3779E+01  0.3848E+01  0.3358E+02  0.3359E+02
     11.108  0.3427E+01  0.3415E+01  0.3380E+02  0.3380E+02
     11.170  0.3027E+01  0.2969E+01  0.3398E+02  0.3398E+02
     11.231  0.2819E+01  0.2796E+01  0.3416E+02  0.3416E+02
     11.293  0.2459E+01  0.2485E+01  0.3431E+02  0.3431E+02
     11.355  0.2035E+01  0.2061E+01  0.3444E+02  0.3444E+02
     11.417  0.1856E+01  0.1880E+01  0.3455E+02  0.3455E+02
     11.479  0.1643E+01  0.1694E+01  0.3465E+02  0.3466E+02
     11.540  0.1544E+01  0.1563E+01  0.3475E+02  0.3475E+02
     11.602  0.1826E+01  0.1785E+01  0.3486E+02  0.3487E+02
     11.664  0.2081E+01  0.2075E+01  0.3499E+02  0.3499E+02
     11.726  0.1952E+01  0.2032E+01  0.3511E+02  0.3512E+02
     11.787  0.1549E+01  0.1601E+01  0.3521E+02  0.3522E+02
     11.849  0.1106E+01  0.1089E+01  0.3527E+02  0.3529E+02
     11.911  0.8764E+00  0.8173E+00  0.3533E+02  0.3534E+02
     11.973  0.8704E+00  0.8022E+00  0.3538E+02  0.3539E+02
     12.035  0.9203E+00  0.8884E+00  0.3544E+02  0.3544E+02
     12.096  0.9836E+00  0.9987E+00  0.3550E+02  0.3550E+02
     12.158  0.8632E+00  0.9076E+00  0.3555E+02  0.3556E+02
     12.220  0.7010E+00  0.6901E+00  0.3560E+02  0.3560E+02
     12.282  0.7191E+00  0.6078E+00  0.3564E+02  0.3564E+02
     12.343  0.7497E+00  0.6082E+00  0.3569E+02  0.3568E+02
     12.405  0.7016E+00  0.6239E+00  0.3573E+02  0.3572E+02
     12.467  0.5677E+00  0.5522E+00  0.3577E+02  0.3575E+02
     12.529  0.4159E+00  0.4175E+00  0.3579E+02  0.3578E+02
     12.591  0.3132E+00  0.3160E+00  0.3581E+02  0.3579E+02
     12.652  0.3034E+00  0.3320E+00  0.3583E+02  0.3582E+02
     12.714  0.3083E+00  0.3934E+00  0.3585E+02  0.3584E+02
     12.776  0.3472E+00  0.4278E+00  0.3587E+02  0.3587E+02
     12.838  0.4335E+00  0.4683E+00  0.3590E+02  0.3589E+02
     12.899  0.4213E+00  0.4308E+00  0.3592E+02  0.3592E+02
     12.961  0.3170E+00  0.3150E+00  0.3594E+02  0.3594E+02
     13.023  0.2409E+00  0.2373E+00  0.3596E+02  0.3596E+02
     13.085  0.1715E+00  0.1840E+00  0.3597E+02  0.3597E+02
     13.147  0.8946E-01  0.1024E+00  0.3597E+02  0.3597E+02
     13.208  0.5085E-01  0.5147E-01  0.3598E+02  0.3598E+02
     13.270  0.6341E-01  0.5352E-01  0.3598E+02  0.3598E+02
     13.332  0.9188E-01  0.8704E-01  0.3599E+02  0.3599E+02
     13.394  0.9011E-01  0.1013E+00  0.3599E+02  0.3599E+02
     13.456  0.6496E-01  0.7561E-01  0.3600E+02  0.3600E+02
     13.517  0.3419E-01  0.3848E-01  0.3600E+02  0.3600E+02
     13.579  0.1299E-01  0.1430E-01  0.3600E+02  0.3600E+02
     13.641  0.4143E-02  0.4524E-02  0.3600E+02  0.3600E+02
     13.703  0.1239E-02  0.1350E-02  0.3600E+02  0.3600E+02
     13.764  0.2933E-03  0.2859E-03  0.3600E+02  0.3600E+02
     13.826  0.0000E+00  0.0000E+00  0.3600E+02  0.3600E+02
     13.888  0.0000E+00  0.0000E+00  0.3600E+02  0.3600E+02
     13.950  0.0000E+00  0.0000E+00  0.3600E+02  0.3600E+02
     14.012  0.0000E+00  0.0000E+00  0.3600E+02  0.3600E+02
     14.073  0.0000E+00  0.0000E+00  0.3600E+02  0.3600E+02
     14.135  0.0000E+00  0.0000E+00  0.3600E+02  0.3600E+02
     14.197  0.0000E+00  0.0000E+00  0.3600E+02  0.3600E+02
     14.259  0.0000E+00  0.0000E+00  0.3600E+02  0.3600E+02
     14.25865949     -4.27541458  301      6.79418653      1.00000000
     -4.275  0.0000E+00  0.0000E+00  0.0000E+00  0.0000E+00  0.0000E+00  0.0000E+00  0.0000E+00  0.0000E+00  0.0000E+00  0.0000E+00  0.0000E+00  0.0000E+00  0.0000E+00  0.0000E+00  0.0000E+00  0.0000E+00  0.0000E+00  0.0000E+00
     -4.214  0.0000E+00  0.0000E+00  0.0000E+00  0.0000E+00  0.0000E+00  0.0000E+00  0.0000E+00  0.0000E+00  0.0000E+00  0.0000E+00  0.0000E+00  0.0000E+00  0.0000E+00  0.0000E+00  0.0000E+00  0.0000E+00  0.0000E+00  0.0000E+00
     -4.152  0.0000E+00  0.0000E+00  0.0000E+00  0.0000E+00  0.0000E+00  0.0000E+00  0.0000E+00  0.0000E+00  0.0000E+00  0.0000E+00  0.0000E+00  0.0000E+00  0.0000E+00  0.0000E+00  0.0000E+00  0.0000E+00  0.0000E+00  0.0000E+00
     -4.090  0.0000E+00  0.0000E+00  0.0000E+00  0.0000E+00  0.0000E+00  0.0000E+00  0.0000E+00  0.0000E+00  0.0000E+00  0.0000E+00  0.0000E+00  0.0000E+00  0.0000E+00  0.0000E+00  0.0000E+00  0.0000E+00  0.0000E+00  0.0000E+00
     -4.028  0.0000E+00  0.0000E+00  0.0000E+00  0.0000E+00  0.0000E+00  0.0000E+00  0.0000E+00  0.0000E+00  0.0000E+00  0.0000E+00  0.0000E+00  0.0000E+00  0.0000E+00  0.0000E+00  0.0000E+00  0.0000E+00  0.0000E+00  0.0000E+00
     -3.967  0.0000E+00  0.0000E+00  0.0000E+00  0.0000E+00  0.0000E+00  0.0000E+00  0.0000E+00  0.0000E+00  0.0000E+00  0.0000E+00  0.0000E+00  0.0000E+00  0.0000E+00  0.0000E+00  0.0000E+00  0.0000E+00  0.0000E+00  0.0000E+00
     -3.905  0.0000E+00  0.0000E+00  0.0000E+00  0.0000E+00  0.0000E+00  0.0000E+00  0.0000E+00  0.0000E+00  0.0000E+00  0.0000E+00  0.0000E+00  0.0000E+00  0.0000E+00  0.0000E+00  0.0000E+00  0.0000E+00  0.0000E+00  0.0000E+00
     -3.843  0.1384E-06  0.5489E-07  0.5565E-09  0.4553E-20  0.3662E-10  0.1350E-10  0.5565E-09  0.4553E-20  0.0000E+00  0.0000E+00  0.0000E+00  0.0000E+00  0.0000E+00  0.0000E+00  0.0000E+00  0.0000E+00  0.0000E+00  0.0000E+00
     -3.781  0.7200E-06  0.7642E-06  0.3863E-08  0.4220E-08  0.5274E-08  0.5048E-08  0.3863E-08  0.4220E-08  0.0000E+00  0.0000E+00  0.0000E+00  0.0000E+00  0.0000E+00  0.0000E+00  0.0000E+00  0.0000E+00  0.0000E+00  0.0000E+00
     -3.719  0.2293E-05  0.2188E-05  0.1358E-07  0.1297E-07  0.1663E-07  0.1585E-07  0.1358E-07  0.1297E-07  0.0000E+00  0.0000E+00  0.0000E+00  0.0000E+00  0.0000E+00  0.0000E+00  0.0000E+00  0.0000E+00  0.0000E+00  0.0000E+00
     -3.658  0.7839E-05  0.7446E-05  0.4800E-07  0.4584E-07  0.5643E-07  0.5099E-07  0.4800E-07  0.4584E-07  0.0000E+00  0.0000E+00  0.0000E+00  0.0000E+00  0.0000E+00  0.0000E+00  0.0000E+00  0.0000E+00  0.0000E+00  0.0000E+00
     -3.596  0.2726E-04  0.2607E-04  0.1825E-06  0.1743E-06  0.2100E-06  0.2031E-06  0.1825E-06  0.1743E-06  0.0000E+00  0.0000E+00  0.0000E+00  0.0000E+00  0.0000E+00  0.0000E+00  0.0000E+00  0.0000E+00  0.0000E+00  0.0000E+00
     -3.534  0.8996E-04  0.8606E-04  0.6229E-06  0.5955E-06  0.7205E-06  0.6877E-06  0.6229E-06  0.5955E-06  0.0000E+00  0.0000E+00  0.0000E+00  0.0000E+00  0.0000E+00  0.0000E+00  0.0000E+00  0.0000E+00  0.0000E+00  0.0000E+00
     -3.472  0.2720E-03  0.2614E-03  0.1995E-05  0.1912E-05  0.2313E-05  0.2213E-05  0.1995E-05  0.1912E-05  0.0000E+00  0.0000E+00  0.0000E+00  0.0000E+00  0.0000E+00  0.0000E+00  0.0000E+00  0.0000E+00  0.0000E+00  0.0000E+00
     -3.410  0.6897E-03  0.6683E-03  0.5824E-05  0.5612E-05  0.6794E-05  0.6536E-05  0.5824E-05  0.5612E-05  0.0000E+00  0.0000E+00  0.0000E+00  0.0000E+00  0.0000E+00  0.0000E+00  0.0000E+00  0.0000E+00  0.0000E+00  0.0000E+00
     -3.349  0.1329E-02  0.1302E-02  0.1397E-04  0.1356E-04  0.1624E-04  0.1576E-04  0.1397E-04  0.1356E-04  0.0000E+00  0.0000E+00  0.0000E+00  0.0000E+00  0.0000E+00  0.0000E+00  0.0000E+00  0.0000E+00  0.0000E+00  0.0000E+00
     -3.287  0.1921E-02  0.1898E-02  0.2707E-04  0.2646E-04  0.3039E-04  0.2973E-04  0.2707E-04  0.2646E-04  0.0000E+00  0.0000E+00  0.0000E+00  0.0000E+00  0.0000E+00  0.0000E+00  0.0000E+00  0.0000E+00  0.0000E+00  0.0000E+00
     -3.225  0.2394E-02  0.2369E-02  0.4677E-04  0.4582E-04  0.5107E-04  0.4999E-04  0.4677E-04  0.4582E-04  0.0000E+00  0.0000E+00  0.0000E+00  0.0000E+00  0.0000E+00  0.0000E+00  0.0000E+00  0.0000E+00  0.0000E+00  0.0000E+00
     -3.163  0.3004E-02  0.2974E-02  0.7372E-04  0.7263E-04  0.8520E-04  0.8360E-04  0.7372E-04  0.7263E-04  0.0000E+00  0.0000E+00  0.0000E+00  0.0000E+00  0.0000E+00  0.0000E+00  0.0000E+00  0.0000E+00  0.0000E+00  0.0000E+00
     -3.102  0.3380E-02  0.3369E-02  0.9581E-04  0.9506E-04  0.1183E-03  0.1172E-03  0.9581E-04  0.9506E-04  0.0000E+00  0.0000E+00  0.0000E+00  0.0000E+00  0.0000E+00  0.0000E+00  0.0000E+00  0.0000E+00  0.0000E+00  0.0000E+00
     -3.040  0.3240E-02  0.3236E-02  0.1134E-03  0.1123E-03  0.1328E-03  0.1320E-03  0.1134E-03  0.1123E-03  0.0000E+00  0.0000E+00  0.0000E+00  0.0000E+00  0.0000E+00  0.0000E+00  0.0000E+00  0.0000E+00  0.0000E+00  0.0000E+00
     -2.978  0.3492E-02  0.3462E-02  0.1575E-03  0.1551E-03  0.1646E-03  0.1623E-03  0.1575E-03  0.1551E-03  0.0000E+00  0.0000E+00  0.0000E+00  0.0000E+00  0.0000E+00  0.0000E+00  0.0000E+00  0.0000E+00  0.0000E+00  0.0000E+00
     -2.916  0.4155E-02  0.4126E-02  0.2159E-03  0.2139E-03  0.2251E-03  0.2224E-03  0.2159E-03  0.2139E-03  0.0000E+00  0.0000E+00  0.0000E+00  0.0000E+00  0.0000E+00  0.0000E+00  0.0000E+00  0.0000E+00  0.0000E+00  0.0000E+00
     -2.854  0.4299E-02  0.4292E-02  0.2412E-03  0.2405E-03  0.2804E-03  0.2780E-03  0.2412E-03  0.2405E-03  0.0000E+00  0.0000E+00  0.0000E+00  0.0000E+00  0.0000E+00  0.0000E+00  0.0000E+00  0.0000E+00  0.0000E+00  0.0000E+00
     -2.793  0.4146E-02  0.4137E-02  0.2541E-03  0.2527E-03  0.3256E-03  0.3234E-03  0.2541E-03  0.2527E-03  0.0000E+00  0.0000E+00  0.0000E+00  0.0000E+00  0.0000E+00  0.0000E+00  0.0000E+00  0.0000E+00  0.0000E+00  0.0000E+00
     -2.731  0.4315E-02  0.4293E-02  0.3018E-03  0.2992E-03  0.3720E-03  0.3693E-03  0.3018E-03  0.2992E-03  0.0000E+00  0.0000E+00  0.0000E+00  0.0000E+00  0.0000E+00  0.0000E+00  0.0000E+00  0.0000E+00  0.0000E+00  0.0000E+00
     -2.669  0.4526E-02  0.4515E-02  0.3548E-03  0.3529E-03  0.4201E-03  0.4181E-03  0.3548E-03  0.3529E-03  0.0000E+00  0.0000E+00  0.0000E+00  0.0000E+00  0.0000E+00  0.0000E+00  0.0000E+00  0.0000E+00  0.0000E+00  0.0000E+00
     -2.607  0.4315E-02  0.4313E-02  0.3898E-03  0.3876E-03  0.4209E-03  0.4207E-03  0.3898E-03  0.3876E-03  0.0000E+00  0.0000E+00  0.0000E+00  0.0000E+00  0.0000E+00  0.0000E+00  0.0000E+00  0.0000E+00  0.0000E+00  0.0000E+00
     -2.546  0.4381E-02  0.4356E-02  0.4685E-03  0.4643E-03  0.4407E-03  0.4371E-03  0.4685E-03  0.4643E-03  0.0000E+00  0.0000E+00  0.0000E+00  0.0000E+00  0.0000E+00  0.0000E+00  0.0000E+00  0.0000E+00  0.0000E+00  0.0000E+00
     -2.484  0.4874E-02  0.4847E-02  0.5525E-03  0.5497E-03  0.5854E-03  0.5780E-03  0.5525E-03  0.5497E-03  0.0000E+00  0.0000E+00  0.0000E+00  0.0000E+00  0.0000E+00  0.0000E+00  0.0000E+00  0.0000E+00  0.0000E+00  0.0000E+00
     -2.422  0.5131E-02  0.5115E-02  0.5912E-03  0.5891E-03  0.7550E-03  0.7493E-03  0.5912E-03  0.5891E-03  0.0000E+00  0.0000E+00  0.0000E+00  0.0000E+00  0.0000E+00  0.0000E+00  0.0000E+00  0.0000E+00  0.0000E+00  0.0000E+00
     -2.360  0.5086E-02  0.5081E-02  0.6248E-03  0.6233E-03  0.8209E-03  0.8189E-03  0.6248E-03  0.6233E-03  0.0000E+00  0.0000E+00  0.0000E+00  0.0000E+00  0.0000E+00  0.0000E+00  0.0000E+00  0.0000E+00  0.0000E+00  0.0000E+00
     -2.298  0.4709E-02  0.4712E-02  0.6161E-03  0.6162E-03  0.8383E-03  0.8358E-03  0.6161E-03  0.6162E-03  0.0000E+00  0.0000E+00  0.0000E+00  0.0000E+00  0.0000E+00  0.0000E+00  0.0000E+00  0.0000E+00  0.0000E+00  0.0000E+00
     -2.237  0.4355E-02  0.4350E-02  0.6206E-03  0.6178E-03  0.8571E-03  0.8563E-03  0.6206E-03  0.6178E-03  0.0000E+00  0.0000E+00  0.0000E+00  0.0000E+00  0.0000E+00  0.0000E+00  0.0000E+00  0.0000E+00  0.0000E+00  0.0000E+00
     -2.175  0.4365E-02  0.4346E-02  0.7639E-03  0.7561E-03  0.7999E-03  0.8004E-03  0.7639E-03  0.7561E-03  0.0000E+00  0.0000E+00  0.0000E+00  0.0000E+00  0.0000E+00  0.0000E+00  0.0000E+00  0.0000E+00  0.0000E+00  0.0000E+00
     -2.113  0.4747E-02  0.4718E-02  0.9764E-03  0.9692E-03  0.8672E-03  0.8590E-03  0.9764E-03  0.9692E-03  0.0000E+00  0.0000E+00  0.0000E+00  0.0000E+00  0.0000E+00  0.0000E+00  0.0000E+00  0.0000E+00  0.0000E+00  0.0000E+00
     -2.051  0.5081E-02  0.5062E-02  0.1073E-02  0.1071E-02  0.1200E-02  0.1185E-02  0.1073E-02  0.1071E-02  0.0000E+00  0.0000E+00  0.0000E+00  0.0000E+00  0.0000E+00  0.0000E+00  0.0000E+00  0.0000E+00  0.0000E+00  0.0000E+00
     -1.990  0.5053E-02  0.5042E-02  0.1079E-02  0.1077E-02  0.1510E-02  0.1502E-02  0.1079E-02  0.1077E-02  0.0000E+00  0.0000E+00  0.0000E+00  0.0000E+00  0.0000E+00  0.0000E+00  0.0000E+00  0.0000E+00  0.0000E+00  0.0000E+00
     -1.928  0.4929E-02  0.4921E-02  0.1148E-02  0.1144E-02  0.1566E-02  0.1564E-02  0.1148E-02  0.1144E-02  0.0000E+00  0.0000E+00  0.0000E+00  0.0000E+00  0.0000E+00  0.0000E+00  0.0000E+00  0.0000E+00  0.0000E+00  0.0000E+00
     -1.866  0.4538E-02  0.4545E-02  0.1127E-02  0.1129E-02  0.1601E-02  0.1596E-02  0.1127E-02  0.1129E-02  0.0000E+00  0.0000E+00  0.0000E+00  0.0000E+00  0.0000E+00  0.0000E+00  0.0000E+00  0.0000E+00  0.0000E+00  0.0000E+00
     -1.804  0.3873E-02  0.3881E-02  0.1039E-02  0.1038E-02  0.1726E-02  0.1721E-02  0.1039E-02  0.1038E-02  0.0000E+00  0.0000E+00  0.0000E+00  0.0000E+00  0.0000E+00  0.0000E+00  0.0000E+00  0.0000E+00  0.0000E+00  0.0000E+00
     -1.742  0.3667E-02  0.3652E-02  0.1256E-02  0.1242E-02  0.1739E-02  0.1737E-02  0.1256E-02  0.1242E-02  0.0000E+00  0.0000E+00  0.0000E+00  0.0000E+00  0.0000E+00  0.0000E+00  0.0000E+00  0.0000E+00  0.0000E+00  0.0000E+00
     -1.681  0.4103E-02  0.4072E-02  0.1728E-02  0.1712E-02  0.1850E-02  0.1839E-02  0.1728E-02  0.1712E-02  0.0000E+00  0.0000E+00  0.0000E+00  0.0000E+00  0.0000E+00  0.0000E+00  0.0000E+00  0.0000E+00  0.0000E+00  0.0000E+00
     -1.619  0.4499E-02  0.4482E-02  0.2048E-02  0.2041E-02  0.2177E-02  0.2163E-02  0.2048E-02  0.2041E-02  0.0000E+00  0.0000E+00  0.0000E+00  0.0000E+00  0.0000E+00  0.0000E+00  0.0000E+00  0.0000E+00  0.0000E+00  0.0000E+00
     -1.557  0.4227E-02  0.4231E-02  0.2088E-02  0.2087E-02  0.2399E-02  0.2393E-02  0.2088E-02  0.2087E-02  0.0000E+00  0.0000E+00  0.0000E+00  0.0000E+00  0.0000E+00  0.0000E+00  0.0000E+00  0.0000E+00  0.0000E+00  0.0000E+00
     -1.495  0.3647E-02  0.3655E-02  0.2116E-02  0.2114E-02  0.2232E-02  0.2240E-02  0.2116E-02  0.2114E-02  0.0000E+00  0.0000E+00  0.0000E+00  0.0000E+00  0.0000E+00  0.0000E+00  0.0000E+00  0.0000E+00  0.0000E+00  0.0000E+00
     -1.434  0.2986E-02  0.2998E-02  0.1988E-02  0.1994E-02  0.1805E-02  0.1814E-02  0.1988E-02  0.1994E-02  0.0000E+00  0.0000E+00  0.0000E+00  0.0000E+00  0.0000E+00  0.0000E+00  0.0000E+00  0.0000E+00  0.0000E+00  0.0000E+00
     -1.372  0.2438E-02  0.2441E-02  0.1725E-02  0.1728E-02  0.1635E-02  0.1633E-02  0.1725E-02  0.1728E-02  0.0000E+00  0.0000E+00  0.0000E+00  0.0000E+00  0.0000E+00  0.0000E+00  0.0000E+00  0.0000E+00  0.0000E+00  0.0000E+00
     -1.310  0.2429E-02  0.2415E-02  0.1700E-02  0.1694E-02  0.1767E-02  0.1757E-02  0.1700E-02  0.1694E-02  0.0000E+00  0.0000E+00  0.0000E+00  0.0000E+00  0.0000E+00  0.0000E+00  0.0000E+00  0.0000E+00  0.0000E+00  0.0000E+00
     -1.248  0.2787E-02  0.2767E-02  0.1863E-02  0.1855E-02  0.2062E-02  0.2048E-02  0.1863E-02  0.1855E-02  0.0000E+00  0.0000E+00  0.0000E+00  0.0000E+00  0.0000E+00  0.0000E+00  0.0000E+00  0.0000E+00  0.0000E+00  0.0000E+00
     -1.186  0.2920E-02  0.2914E-02  0.1885E-02  0.1885E-02  0.2204E-02  0.2201E-02  0.1885E-02  0.1885E-02  0.0000E+00  0.0000E+00  0.0000E+00  0.0000E+00  0.0000E+00  0.0000E+00  0.0000E+00  0.0000E+00  0.0000E+00  0.0000E+00