  16  16   1   0
  0.1841645E+02  0.4191477E-09  0.4191477E-09  0.1677226E-08  0.5000000E-15
  1.000000000000000E-004
  CAR 
 unknown system                          
     11.77301215     -4.70688054  301      5.25138361      1.00000000
     -4.707  0.0000E+00  0.0000E+00  0.0000E+00  0.0000E+00
     -4.652  0.0000E+00  0.0000E+00  0.0000E+00  0.0000E+00
     -4.597  0.0000E+00  0.0000E+00  0.0000E+00  0.0000E+00
     -4.542  0.0000E+00  0.0000E+00  0.0000E+00  0.0000E+00
     -4.487  0.0000E+00  0.0000E+00  0.0000E+00  0.0000E+00
     -4.432  0.0000E+00  0.0000E+00  0.0000E+00  0.0000E+00
     -4.377  0.8155E-05  0.7749E-05  0.4480E-06  0.4257E-06
     -4.322  0.7213E-04  0.6854E-04  0.4410E-05  0.4191E-05
     -4.267  0.2875E-03  0.2732E-03  0.2020E-04  0.1920E-04
     -4.212  0.8522E-03  0.8099E-03  0.6702E-04  0.6369E-04
     -4.158  0.2541E-02  0.2416E-02  0.2066E-03  0.1964E-03
     -4.103  0.7612E-02  0.7243E-02  0.6248E-03  0.5943E-03
     -4.048  0.2151E-01  0.2051E-01  0.1806E-02  0.1721E-02
     -3.993  0.5691E-01  0.5455E-01  0.4932E-02  0.4718E-02
     -3.938  0.1292E+00  0.1249E+00  0.1203E-01  0.1158E-01
     -3.883  0.2344E+00  0.2292E+00  0.2490E-01  0.2417E-01
     -3.828  0.3391E+00  0.3347E+00  0.4353E-01  0.4256E-01
     -3.773  0.4344E+00  0.4297E+00  0.6739E-01  0.6617E-01
     -3.718  0.5426E+00  0.5378E+00  0.9720E-01  0.9571E-01
     -3.663  0.6158E+00  0.6143E+00  0.1310E+00  0.1295E+00
     -3.608  0.6270E+00  0.6264E+00  0.1655E+00  0.1639E+00
     -3.553  0.6884E+00  0.6835E+00  0.2033E+00  0.2014E+00
     -3.498  0.8059E+00  0.8013E+00  0.2476E+00  0.2454E+00
     -3.443  0.8586E+00  0.8582E+00  0.2948E+00  0.2926E+00
     -3.388  0.8640E+00  0.8635E+00  0.3422E+00  0.3400E+00
     -3.334  0.9091E+00  0.9063E+00  0.3922E+00  0.3898E+00
     -3.279  0.9626E+00  0.9616E+00  0.4451E+00  0.4427E+00
     -3.224  0.9639E+00  0.9644E+00  0.4980E+00  0.4957E+00
     -3.169  0.1007E+01  0.1003E+01  0.5534E+00  0.5508E+00
     -3.114  0.1124E+01  0.1119E+01  0.6152E+00  0.6123E+00
     -3.059  0.1214E+01  0.1211E+01  0.6819E+00  0.6789E+00
     -3.004  0.1238E+01  0.1239E+01  0.7499E+00  0.7470E+00
     -2.949  0.1198E+01  0.1200E+01  0.8157E+00  0.8129E+00
     -2.894  0.1157E+01  0.1158E+01  0.8793E+00  0.8766E+00
     -2.839  0.1197E+01  0.1193E+01  0.9451E+00  0.9422E+00
     -2.784  0.1331E+01  0.1325E+01  0.1018E+01  0.1015E+01
     -2.729  0.1481E+01  0.1476E+01  0.1100E+01  0.1096E+01
     -2.674  0.1561E+01  0.1559E+01  0.1185E+01  0.1182E+01
     -2.619  0.1586E+01  0.1586E+01  0.1273E+01  0.1269E+01
     -2.564  0.1544E+01  0.1548E+01  0.1357E+01  0.1354E+01
     -2.510  0.1467E+01  0.1469E+01  0.1438E+01  0.1435E+01
     -2.455  0.1515E+01  0.1510E+01  0.1521E+01  0.1518E+01
     -2.400  0.1750E+01  0.1739E+01  0.1617E+01  0.1613E+01
     -2.345  0.1998E+01  0.1991E+01  0.1727E+01  0.1723E+01
     -2.290  0.2065E+01  0.2067E+01  0.1841E+01  0.1836E+01
     -2.235  0.1980E+01  0.1987E+01  0.1950E+01  0.1946E+01
     -2.180  0.1780E+01  0.1789E+01  0.2047E+01  0.2044E+01
     -2.125  0.1570E+01  0.1575E+01  0.2134E+01  0.2131E+01
     -2.070  0.1545E+01  0.1542E+01  0.2219E+01  0.2215E+01
     -2.015  0.1677E+01  0.1671E+01  0.2311E+01  0.2307E+01
     -1.960  0.1747E+01  0.1747E+01  0.2407E+01  0.2403E+01
     -1.905  0.1629E+01  0.1634E+01  0.2496E+01  0.2493E+01
     -1.850  0.1454E+01  0.1461E+01  0.2576E+01  0.2573E+01
     -1.795  0.1290E+01  0.1295E+01  0.2647E+01  0.2645E+01
     -1.740  0.1239E+01  0.1237E+01  0.2715E+01  0.2713E+01
     -1.686  0.1395E+01  0.1386E+01  0.2792E+01  0.2789E+01
     -1.631  0.1603E+01  0.1597E+01  0.2880E+01  0.2877E+01
     -1.576  0.1662E+01  0.1663E+01  0.2971E+01  0.2968E+01
     -1.521  0.1549E+01  0.1555E+01  0.3057E+01  0.3053E+01
     -1.466  0.1332E+01  0.1340E+01  0.3130E+01  0.3127E+01
     -1.411  0.1133E+01  0.1138E+01  0.3192E+01  0.3190E+01
     -1.356  0.1089E+01  0.1086E+01  0.3252E+01  0.3249E+01
     -1.301  0.1226E+01  0.1220E+01  0.3319E+01  0.3316E+01
     -1.246  0.1345E+01  0.1343E+01  0.3393E+01  0.3390E+01
     -1.191  0.1340E+01  0.1341E+01  0.3467E+01  0.3464E+01
     -1.136  0.1287E+01  0.1286E+01  0.3538E+01  0.3535E+01
     -1.081  0.1280E+01  0.1277E+01  0.3608E+01  0.3605E+01
     -1.026  0.1313E+01  0.1308E+01  0.3680E+01  0.3677E+01
     -0.971  0.1446E+01  0.1436E+01  0.3760E+01  0.3756E+01
     -0.917  0.1643E+01  0.1634E+01  0.3850E+01  0.3846E+01
     -0.862  0.1838E+01  0.1830E+01  0.3951E+01  0.3946E+01
     -0.807  0.2020E+01  0.2011E+01  0.4062E+01  0.4057E+01
     -0.752  0.2218E+01  0.2208E+01  0.4184E+01  0.4178E+01
     -0.697  0.2432E+01  0.2421E+01  0.4318E+01  0.4311E+01
     -0.642  0.2590E+01  0.2587E+01  0.4460E+01  0.4453E+01
     -0.587  0.2554E+01  0.2562E+01  0.4600E+01  0.4594E+01
     -0.532  0.2400E+01  0.2409E+01  0.4732E+01  0.4726E+01
     -0.477  0.2214E+01  0.2225E+01  0.4854E+01  0.4849E+01
     -0.422  0.1928E+01  0.1940E+01  0.4960E+01  0.4955E+01
     -0.367  0.1767E+01  0.1768E+01  0.5057E+01  0.5052E+01
     -0.312  0.1817E+01  0.1813E+01  0.5157E+01  0.5152E+01
     -0.257  0.1870E+01  0.1869E+01  0.5260E+01  0.5255E+01
     -0.202  0.1953E+01  0.1945E+01  0.5367E+01  0.5362E+01
     -0.147  0.2247E+01  0.2230E+01  0.5490E+01  0.5484E+01
     -0.093  0.2574E+01  0.2564E+01  0.5632E+01  0.5625E+01
     -0.038  0.2605E+01  0.2611E+01  0.5775E+01  0.5769E+01
      0.017  0.2442E+01  0.2451E+01  0.5909E+01  0.5903E+01
      0.072  0.2292E+01  0.2302E+01  0.6035E+01  0.6030E+01
      0.127  0.2003E+01  0.2020E+01  0.6145E+01  0.6141E+01
      0.182  0.1619E+01  0.1634E+01  0.6234E+01  0.6231E+01
      0.237  0.1411E+01  0.1415E+01  0.6312E+01  0.6309E+01
      0.292  0.1425E+01  0.1422E+01  0.6390E+01  0.6387E+01
      0.347  0.1559E+01  0.1553E+01  0.6476E+01  0.6472E+01
      0.402  0.1703E+01  0.1695E+01  0.6570E+01  0.6565E+01
      0.457  0.1797E+01  0.1790E+01  0.6668E+01  0.6664E+01
      0.512  0.1814E+01  0.1811E+01  0.6768E+01  0.6763E+01
      0.567  0.1835E+01  0.1827E+01  0.6869E+01  0.6864E+01
      0.622  0.2071E+01  0.2052E+01  0.6983E+01  0.6977E+01
      0.677  0.2459E+01  0.2438E+01  0.7118E+01  0.7111E+01
      0.731  0.2708E+01  0.2700E+01  0.7267E+01  0.7259E+01
      0.786  0.2733E+01  0.2735E+01  0.7417E+01  0.7409E+01
      0.841  0.2704E+01  0.2705E+01  0.7565E+01  0.7558E+01
      0.896  0.2690E+01  0.2689E+01  0.7713E+01  0.7706E+01
      0.951  0.2624E+01  0.2627E+01  0.7857E+01  0.7850E+01
      1.006  0.2505E+01  0.2507E+01  0.7995E+01  0.7988E+01
      1.061  0.2472E+01  0.2471E+01  0.8131E+01  0.8124E+01
      1.116  0.2476E+01  0.2474E+01  0.8267E+01  0.8260E+01
      1.171  0.2572E+01  0.2566E+01  0.8409E+01  0.8401E+01
      1.226  0.2664E+01  0.2666E+01  0.8555E+01  0.8547E+01
      1.281  0.2600E+01  0.2610E+01  0.8698E+01  0.8691E+01
      1.336  0.2489E+01  0.2499E+01  0.8835E+01  0.8828E+01
      1.391  0.2422E+01  0.2429E+01  0.8968E+01  0.8961E+01
      1.446  0.2387E+01  0.2391E+01  0.9099E+01  0.9093E+01
      1.501  0.2356E+01  0.2358E+01  0.9228E+01  0.9223E+01
      1.555  0.2226E+01  0.2236E+01  0.9351E+01  0.9345E+01
      1.610  0.1996E+01  0.2005E+01  0.9461E+01  0.9456E+01
      1.665  0.1897E+01  0.1897E+01  0.9565E+01  0.9560E+01
      1.720  0.1955E+01  0.1949E+01  0.9672E+01  0.9667E+01
      1.775  0.2037E+01  0.2033E+01  0.9784E+01  0.9779E+01
      1.830  0.1991E+01  0.1992E+01  0.9894E+01  0.9888E+01
      1.885  0.1895E+01  0.1892E+01  0.9998E+01  0.9992E+01
      1.940  0.1974E+01  0.1957E+01  0.1011E+02  0.1010E+02
      1.995  0.2342E+01  0.2312E+01  0.1024E+02  0.1023E+02
      2.050  0.2767E+01  0.2747E+01  0.1039E+02  0.1038E+02
      2.105  0.2907E+01  0.2906E+01  0.1055E+02  0.1054E+02
      2.160  0.2835E+01  0.2841E+01  0.1070E+02  0.1069E+02
      2.215  0.2777E+01  0.2779E+01  0.1086E+02  0.1085E+02
      2.270  0.2841E+01  0.2834E+01  0.1101E+02  0.1100E+02
      2.325  0.3024E+01  0.3012E+01  0.1118E+02  0.1117E+02
      2.379  0.3062E+01  0.3065E+01  0.1135E+02  0.1134E+02
      2.434  0.2836E+01  0.2852E+01  0.1150E+02  0.1149E+02
      2.489  0.2558E+01  0.2571E+01  0.1164E+02  0.1163E+02
      2.544  0.2431E+01  0.2429E+01  0.1178E+02  0.1177E+02
      2.599  0.2535E+01  0.2520E+01  0.1192E+02  0.1191E+02
      2.654  0.2799E+01  0.2781E+01  0.1207E+02  0.1206E+02
      2.709  0.3069E+01  0.3060E+01  0.1224E+02  0.1223E+02
      2.764  0.3148E+01  0.3152E+01  0.1241E+02  0.1240E+02
      2.819  0.3001E+01  0.3011E+01  0.1258E+02  0.1257E+02
      2.874  0.2823E+01  0.2829E+01  0.1273E+02  0.1272E+02
      2.929  0.2774E+01  0.2769E+01  0.1288E+02  0.1287E+02
      2.984  0.2874E+01  0.2863E+01  0.1304E+02  0.1303E+02
      3.039  0.3043E+01  0.3040E+01  0.1321E+02  0.1320E+02
      3.094  0.3156E+01  0.3159E+01  0.1338E+02  0.1337E+02
      3.149  0.3218E+01  0.3216E+01  0.1356E+02  0.1355E+02
      3.203  0.3283E+01  0.3276E+01  0.1374E+02  0.1373E+02
      3.258  0.3353E+01  0.3346E+01  0.1392E+02  0.1391E+02
      3.313  0.3351E+01  0.3352E+01  0.1411E+02  0.1410E+02
      3.368  0.3292E+01  0.3294E+01  0.1429E+02  0.1428E+02
      3.423  0.3398E+01  0.3389E+01  0.1448E+02  0.1446E+02
      3.478  0.3485E+01  0.3489E+01  0.1467E+02  0.1466E+02
      3.533  0.3283E+01  0.3301E+01  0.1485E+02  0.1484E+02
      3.588  0.3101E+01  0.3107E+01  0.1502E+02  0.1501E+02
      3.643  0.3135E+01  0.3131E+01  0.1519E+02  0.1518E+02
      3.698  0.3242E+01  0.3240E+01  0.1537E+02  0.1536E+02
      3.753  0.3281E+01  0.3283E+01  0.1555E+02  0.1554E+02
      3.808  0.3139E+01  0.3151E+01  0.1572E+02  0.1571E+02
      3.863  0.2901E+01  0.2911E+01  0.1588E+02  0.1587E+02
      3.918  0.2788E+01  0.2787E+01  0.1603E+02  0.1603E+02
      3.973  0.2804E+01  0.2795E+01  0.1619E+02  0.1618E+02
      4.027  0.3072E+01  0.3045E+01  0.1636E+02  0.1635E+02
      4.082  0.3577E+01  0.3549E+01  0.1655E+02  0.1654E+02
      4.137  0.3823E+01  0.3827E+01  0.1676E+02  0.1675E+02
      4.192  0.3526E+01  0.3560E+01  0.1696E+02  0.1695E+02
      4.247  0.2937E+01  0.2971E+01  0.1712E+02  0.1711E+02
      4.302  0.2614E+01  0.2623E+01  0.1726E+02  0.1726E+02
      4.357  0.2650E+01  0.2648E+01  0.1741E+02  0.1740E+02
      4.412  0.2720E+01  0.2722E+01  0.1756E+02  0.1755E+02
      4.467  0.2747E+01  0.2746E+01  0.1771E+02  0.1770E+02
      4.522  0.2819E+01  0.2812E+01  0.1786E+02  0.1786E+02
      4.577  0.2913E+01  0.2903E+01  0.1802E+02  0.1802E+02
      4.632  0.3048E+01  0.3035E+01  0.1819E+02  0.1818E+02
      4.687  0.3160E+01  0.3156E+01  0.1837E+02  0.1836E+02
      4.742  0.3050E+01  0.3060E+01  0.1853E+02  0.1852E+02
      4.797  0.2786E+01  0.2800E+01  0.1869E+02  0.1868E+02
      4.851  0.2579E+01  0.2589E+01  0.1883E+02  0.1882E+02
      4.906  0.2472E+01  0.2472E+01  0.1896E+02  0.1896E+02
      4.961  0.2610E+01  0.2591E+01  0.1911E+02  0.1910E+02
      5.016  0.3004E+01  0.2981E+01  0.1927E+02  0.1926E+02
      5.071  0.3301E+01  0.3293E+01  0.1945E+02  0.1944E+02
      5.126  0.3256E+01  0.3269E+01  0.1963E+02  0.1962E+02
      5.181  0.3023E+01  0.3033E+01  0.1980E+02  0.1979E+02
      5.236  0.2923E+01  0.2922E+01  0.1996E+02  0.1995E+02
      5.291  0.2907E+01  0.2909E+01  0.2012E+02  0.2011E+02
      5.346  0.2816E+01  0.2823E+01  0.2027E+02  0.2027E+02
      5.401  0.2788E+01  0.2786E+01  0.2043E+02  0.2042E+02
      5.456  0.2964E+01  0.2950E+01  0.2059E+02  0.2058E+02
      5.511  0.3224E+01  0.3205E+01  0.2077E+02  0.2076E+02
      5.566  0.3357E+01  0.3343E+01  0.2095E+02  0.2094E+02
      5.621  0.3329E+01  0.3326E+01  0.2114E+02  0.2112E+02
      5.675  0.3219E+01  0.3229E+01  0.2131E+02  0.2130E+02
      5.730  0.3131E+01  0.3140E+01  0.2148E+02  0.2147E+02
      5.785  0.3190E+01  0.3188E+01  0.2166E+02  0.2165E+02
      5.840  0.3223E+01  0.3226E+01  0.2184E+02  0.2183E+02
      5.895  0.3052E+01  0.3067E+01  0.2200E+02  0.2199E+02
      5.950  0.2833E+01  0.2841E+01  0.2216E+02  0.2215E+02
      6.005  0.2828E+01  0.2815E+01  0.2232E+02  0.2231E+02
      6.060  0.3117E+01  0.3089E+01  0.2249E+02  0.2248E+02
      6.115  0.3585E+01  0.3552E+01  0.2268E+02  0.2267E+02
      6.170  0.4013E+01  0.3997E+01  0.2290E+02  0.2289E+02
      6.225  0.4090E+01  0.4107E+01  0.2313E+02  0.2312E+02
      6.280  0.3780E+01  0.3811E+01  0.2334E+02  0.2333E+02
      6.335  0.3344E+01  0.3368E+01  0.2352E+02  0.2351E+02
      6.390  0.3068E+01  0.3078E+01  0.2369E+02  0.2368E+02
      6.445  0.3045E+01  0.3041E+01  0.2386E+02  0.2385E+02
      6.499  0.3149E+01  0.3142E+01  0.2403E+02  0.2402E+02
      6.554  0.3249E+01  0.3244E+01  0.2421E+02  0.2420E+02
      6.609  0.3304E+01  0.3301E+01  0.2439E+02  0.2438E+02
      6.664  0.3310E+01  0.3308E+01  0.2457E+02  0.2456E+02
      6.719  0.3376E+01  0.3368E+01  0.2476E+02  0.2475E+02
      6.774  0.3546E+01  0.3533E+01  0.2495E+02  0.2494E+02
      6.829  0.3732E+01  0.3722E+01  0.2516E+02  0.2514E+02
      6.884  0.3832E+01  0.3834E+01  0.2537E+02  0.2536E+02
      6.939  0.3677E+01  0.3697E+01  0.2557E+02  0.2556E+02
      6.994  0.3395E+01  0.3412E+01  0.2576E+02  0.2575E+02
      7.049  0.3267E+01  0.3266E+01  0.2594E+02  0.2593E+02
      7.104  0.3303E+01  0.3295E+01  0.2612E+02  0.2611E+02
      7.159  0.3374E+01  0.3367E+01  0.2630E+02  0.2629E+02
      7.214  0.3556E+01  0.3545E+01  0.2650E+02  0.2649E+02
      7.269  0.3888E+01  0.3872E+01  0.2671E+02  0.2670E+02
      7.323  0.4138E+01  0.4126E+01  0.2694E+02  0.2693E+02
      7.378  0.4128E+01  0.4124E+01  0.2717E+02  0.2715E+02
      7.433  0.3868E+01  0.3885E+01  0.2738E+02  0.2737E+02
      7.488  0.3459E+01  0.3486E+01  0.2757E+02  0.2756E+02
      7.543  0.3197E+01  0.3204E+01  0.2775E+02  0.2773E+02
      7.598  0.3278E+01  0.3253E+01  0.2793E+02  0.2791E+02
      7.653  0.3637E+01  0.3603E+01  0.2813E+02  0.2811E+02
      7.708  0.3833E+01  0.3829E+01  0.2834E+02  0.2832E+02
      7.763  0.3689E+01  0.3712E+01  0.2854E+02  0.2853E+02
      7.818  0.3549E+01  0.3564E+01  0.2873E+02  0.2872E+02
      7.873  0.3760E+01  0.3744E+01  0.2894E+02  0.2893E+02
      7.928  0.4165E+01  0.4135E+01  0.2917E+02  0.2915E+02
      7.983  0.4393E+01  0.4385E+01  0.2941E+02  0.2940E+02
      8.038  0.4163E+01  0.4186E+01  0.2964E+02  0.2963E+02
      8.093  0.3750E+01  0.3771E+01  0.2985E+02  0.2983E+02
      8.147  0.3494E+01  0.3506E+01  0.3004E+02  0.3003E+02
      8.202  0.3376E+01  0.3380E+01  0.3022E+02  0.3021E+02
      8.257  0.3492E+01  0.3477E+01  0.3042E+02  0.3040E+02
      8.312  0.3835E+01  0.3812E+01  0.3063E+02  0.3061E+02
      8.367  0.4134E+01  0.4123E+01  0.3085E+02  0.3084E+02
      8.422  0.4173E+01  0.4180E+01  0.3108E+02  0.3107E+02
      8.477  0.3973E+01  0.3987E+01  0.3130E+02  0.3129E+02
      8.532  0.3892E+01  0.3891E+01  0.3152E+02  0.3150E+02
      8.587  0.4120E+01  0.4110E+01  0.3174E+02  0.3173E+02
      8.642  0.4345E+01  0.4346E+01  0.3198E+02  0.3197E+02
      8.697  0.4274E+01  0.4286E+01  0.3222E+02  0.3220E+02
      8.752  0.3931E+01  0.3955E+01  0.3243E+02  0.3242E+02
      8.807  0.3553E+01  0.3567E+01  0.3263E+02  0.3262E+02
      8.862  0.3573E+01  0.3553E+01  0.3282E+02  0.3281E+02
      8.916  0.3991E+01  0.3956E+01  0.3304E+02  0.3303E+02
      8.971  0.4279E+01  0.4258E+01  0.3328E+02  0.3326E+02
      9.026  0.4131E+01  0.4123E+01  0.3351E+02  0.3349E+02
      9.081  0.3731E+01  0.3727E+01  0.3371E+02  0.3369E+02
      9.136  0.3403E+01  0.3400E+01  0.3390E+02  0.3388E+02
      9.191  0.3178E+01  0.3198E+01  0.3407E+02  0.3406E+02
      9.246  0.2979E+01  0.3001E+01  0.3424E+02  0.3422E+02
      9.301  0.2931E+01  0.2921E+01  0.3440E+02  0.3438E+02
      9.356  0.2855E+01  0.2860E+01  0.3455E+02  0.3454E+02
      9.411  0.2587E+01  0.2646E+01  0.3470E+02  0.3468E+02
      9.466  0.2236E+01  0.2329E+01  0.3482E+02  0.3481E+02
      9.521  0.1918E+01  0.1969E+01  0.3492E+02  0.3492E+02
      9.576  0.1729E+01  0.1731E+01  0.3502E+02  0.3502E+02
      9.631  0.1644E+01  0.1657E+01  0.3511E+02  0.3511E+02
      9.686  0.1604E+01  0.1641E+01  0.3520E+02  0.3520E+02
      9.740  0.1507E+01  0.1529E+01  0.3528E+02  0.3528E+02
      9.795  0.1294E+01  0.1284E+01  0.3535E+02  0.3535E+02
      9.850  0.1155E+01  0.1140E+01  0.3542E+02  0.3541E+02
      9.905  0.1130E+01  0.1142E+01  0.3548E+02  0.3548E+02
      9.960  0.1078E+01  0.1119E+01  0.3554E+02  0.3554E+02
     10.015  0.1038E+01  0.1061E+01  0.3559E+02  0.3560E+02
     10.070  0.9523E+00  0.9328E+00  0.3565E+02  0.3565E+02
     10.125  0.6839E+00  0.6599E+00  0.3568E+02  0.3569E+02
     10.180  0.4124E+00  0.4024E+00  0.3571E+02  0.3571E+02
     10.235  0.2909E+00  0.2887E+00  0.3572E+02  0.3572E+02
     10.290  0.3263E+00  0.3174E+00  0.3574E+02  0.3574E+02
     10.345  0.5050E+00  0.4700E+00  0.3577E+02  0.3577E+02
     10.400  0.6486E+00  0.6128E+00  0.3580E+02  0.3580E+02
     10.455  0.5800E+00  0.5781E+00  0.3584E+02  0.3583E+02
     10.510  0.4396E+00  0.4582E+00  0.3586E+02  0.3586E+02
     10.564  0.3600E+00  0.3828E+00  0.3588E+02  0.3588E+02
     10.619  0.3009E+00  0.3217E+00  0.3590E+02  0.3590E+02
     10.674  0.2132E+00  0.2326E+00  0.3591E+02  0.3591E+02
     10.729  0.1636E+00  0.1878E+00  0.3592E+02  0.3592E+02
     10.784  0.1957E+00  0.2406E+00  0.3593E+02  0.3593E+02
     10.839  0.2685E+00  0.3299E+00  0.3594E+02  0.3595E+02
     10.894  0.3208E+00  0.3376E+00  0.3596E+02  0.3597E+02
     10.949  0.3004E+00  0.2524E+00  0.3598E+02  0.3598E+02
     11.004  0.2052E+00  0.1562E+00  0.3599E+02  0.3599E+02
     11.059  0.1151E+00  0.8844E-01  0.3599E+02  0.3600E+02
     11.114  0.5584E-01  0.4300E-01  0.3600E+02  0.3600E+02
     11.169  0.2279E-01  0.1735E-01  0.3600E+02  0.3600E+02
     11.224  0.8171E-02  0.6144E-02  0.3600E+02  0.3600E+02
     11.279  0.2737E-02  0.1820E-02  0.3600E+02  0.3600E+02
     11.334  0.5826E-03  0.4775E-03  0.3600E+02  0.3600E+02
     11.388  0.1953E-03  0.1599E-03  0.3600E+02  0.3600E+02
     11.443  0.0000E+00  0.0000E+00  0.3600E+02  0.3600E+02
     11.498  0.0000E+00  0.0000E+00  0.3600E+02  0.3600E+02
     11.553  0.0000E+00  0.0000E+00  0.3600E+02  0.3600E+02
     11.608  0.0000E+00  0.0000E+00  0.3600E+02  0.3600E+02
     11.663  0.0000E+00  0.0000E+00  0.3600E+02  0.3600E+02
     11.718  0.0000E+00  0.0000E+00  0.3600E+02  0.3600E+02
     11.773  0.0000E+00  0.0000E+00  0.3600E+02  0.3600E+02
     11.77301215     -4.70688054  301      5.25138361      1.00000000
     -4.707  0.0000E+00  0.0000E+00  0.0000E+00  0.0000E+00  0.0000E+00  0.0000E+00  0.0000E+00  0.0000E+00  0.0000E+00  0.0000E+00  0.0000E+00  0.0000E+00  0.0000E+00  0.0000E+00  0.0000E+00  0.0000E+00  0.0000E+00  0.0000E+00
     -4.652  0.0000E+00  0.0000E+00  0.0000E+00  0.0000E+00  0.0000E+00  0.0000E+00  0.0000E+00  0.0000E+00  0.0000E+00  0.0000E+00  0.0000E+00  0.0000E+00  0.0000E+00  0.0000E+00  0.0000E+00  0.0000E+00  0.0000E+00  0.0000E+00
     -4.597  0.0000E+00  0.0000E+00  0.0000E+00  0.0000E+00  0.0000E+00  0.0000E+00  0.0000E+00  0.0000E+00  0.0000E+00  0.0000E+00  0.0000E+00  0.0000E+00  0.0000E+00  0.0000E+00  0.0000E+00  0.0000E+00  0.0000E+00  0.0000E+00
     -4.542  0.0000E+00  0.0000E+00  0.0000E+00  0.0000E+00  0.0000E+00  0.0000E+00  0.0000E+00  0.0000E+00  0.0000E+00  0.0000E+00  0.0000E+00  0.0000E+00  0.0000E+00  0.0000E+00  0.0000E+00  0.0000E+00  0.0000E+00  0.0000E+00
     -4.487  0.0000E+00  0.0000E+00  0.0000E+00  0.0000E+00  0.0000E+00  0.0000E+00  0.0000E+00  0.0000E+00  0.0000E+00  0.0000E+00  0.0000E+00  0.0000E+00  0.0000E+00  0.0000E+00  0.0000E+00  0.0000E+00  0.0000E+00  0.0000E+00
     -4.432  0.0000E+00  0.0000E+00  0.0000E+00  0.0000E+00  0.0000E+00  0.0000E+00  0.0000E+00  0.0000E+00  0.0000E+00  0.0000E+00  0.0000E+00  0.0000E+00  0.0000E+00  0.0000E+00  0.0000E+00  0.0000E+00  0.0000E+00  0.0000E+00
     -4.377  0.3980E-07  0.3767E-07  0.1033E-20  0.5042E-20  0.7767E-11  0.6730E-11  0.1033E-20  0.5042E-20  0.0000E+00  0.0000E+00  0.0000E+00  0.0000E+00  0.0000E+00  0.0000E+00  0.0000E+00  0.0000E+00  0.0000E+00  0.0000E+00
     -4.322  0.3479E-06  0.3294E-06  0.1230E-08  0.1166E-08  0.1438E-08  0.1357E-08  0.1230E-08  0.1166E-08  0.0000E+00  0.0000E+00  0.0000E+00  0.0000E+00  0.0000E+00  0.0000E+00  0.0000E+00  0.0000E+00  0.0000E+00  0.0000E+00
     -4.267  0.1377E-05  0.1303E-05  0.7892E-08  0.7477E-08  0.9498E-08  0.8974E-08  0.7892E-08  0.7477E-08  0.0000E+00  0.0000E+00  0.0000E+00  0.0000E+00  0.0000E+00  0.0000E+00  0.0000E+00  0.0000E+00  0.0000E+00  0.0000E+00
     -4.212  0.4071E-05  0.3855E-05  0.2702E-07  0.2561E-07  0.2966E-07  0.2802E-07  0.2702E-07  0.2561E-07  0.0000E+00  0.0000E+00  0.0000E+00  0.0000E+00  0.0000E+00  0.0000E+00  0.0000E+00  0.0000E+00  0.0000E+00  0.0000E+00
     -4.158  0.1213E-04  0.1149E-04  0.8617E-07  0.8168E-07  0.9101E-07  0.8602E-07  0.8617E-07  0.8168E-07  0.0000E+00  0.0000E+00  0.0000E+00  0.0000E+00  0.0000E+00  0.0000E+00  0.0000E+00  0.0000E+00  0.0000E+00  0.0000E+00
     -4.103  0.3626E-04  0.3438E-04  0.2643E-06  0.2506E-06  0.3113E-06  0.2944E-06  0.2643E-06  0.2506E-06  0.0000E+00  0.0000E+00  0.0000E+00  0.0000E+00  0.0000E+00  0.0000E+00  0.0000E+00  0.0000E+00  0.0000E+00  0.0000E+00
     -4.048  0.1025E-03  0.9737E-04  0.7529E-06  0.7148E-06  0.8636E-06  0.8176E-06  0.7529E-06  0.7148E-06  0.0000E+00  0.0000E+00  0.0000E+00  0.0000E+00  0.0000E+00  0.0000E+00  0.0000E+00  0.0000E+00  0.0000E+00  0.0000E+00
     -3.993  0.2706E-03  0.2585E-03  0.2139E-05  0.2036E-05  0.2451E-05  0.2327E-05  0.2139E-05  0.2036E-05  0.0000E+00  0.0000E+00  0.0000E+00  0.0000E+00  0.0000E+00  0.0000E+00  0.0000E+00  0.0000E+00  0.0000E+00  0.0000E+00
     -3.938  0.6122E-03  0.5900E-03  0.5521E-05  0.5287E-05  0.6331E-05  0.6049E-05  0.5521E-05  0.5287E-05  0.0000E+00  0.0000E+00  0.0000E+00  0.0000E+00  0.0000E+00  0.0000E+00  0.0000E+00  0.0000E+00  0.0000E+00  0.0000E+00
     -3.883  0.1104E-02  0.1076E-02  0.1211E-04  0.1169E-04  0.1381E-04  0.1331E-04  0.1211E-04  0.1169E-04  0.0000E+00  0.0000E+00  0.0000E+00  0.0000E+00  0.0000E+00  0.0000E+00  0.0000E+00  0.0000E+00  0.0000E+00  0.0000E+00
     -3.828  0.1580E-02  0.1555E-02  0.2262E-04  0.2198E-04  0.2521E-04  0.2448E-04  0.2262E-04  0.2198E-04  0.0000E+00  0.0000E+00  0.0000E+00  0.0000E+00  0.0000E+00  0.0000E+00  0.0000E+00  0.0000E+00  0.0000E+00  0.0000E+00
     -3.773  0.1994E-02  0.1967E-02  0.3804E-04  0.3711E-04  0.4189E-04  0.4075E-04  0.3804E-04  0.3711E-04  0.0000E+00  0.0000E+00  0.0000E+00  0.0000E+00  0.0000E+00  0.0000E+00  0.0000E+00  0.0000E+00  0.0000E+00  0.0000E+00
     -3.718  0.2453E-02  0.2424E-02  0.5797E-04  0.5689E-04  0.6677E-04  0.6525E-04  0.5797E-04  0.5689E-04  0.0000E+00  0.0000E+00  0.0000E+00  0.0000E+00  0.0000E+00  0.0000E+00  0.0000E+00  0.0000E+00  0.0000E+00  0.0000E+00
     -3.663  0.2745E-02  0.2730E-02  0.7583E-04  0.7492E-04  0.9119E-04  0.8991E-04  0.7583E-04  0.7492E-04  0.0000E+00  0.0000E+00  0.0000E+00  0.0000E+00  0.0000E+00  0.0000E+00  0.0000E+00  0.0000E+00  0.0000E+00  0.0000E+00
     -3.608  0.2745E-02  0.2735E-02  0.9307E-04  0.9181E-04  0.1069E-03  0.1058E-03  0.9307E-04  0.9181E-04  0.0000E+00  0.0000E+00  0.0000E+00  0.0000E+00  0.0000E+00  0.0000E+00  0.0000E+00  0.0000E+00  0.0000E+00  0.0000E+00
     -3.553  0.2945E-02  0.2916E-02  0.1256E-03  0.1234E-03  0.1327E-03  0.1305E-03  0.1256E-03  0.1234E-03  0.0000E+00  0.0000E+00  0.0000E+00  0.0000E+00  0.0000E+00  0.0000E+00  0.0000E+00  0.0000E+00  0.0000E+00  0.0000E+00
     -3.498  0.3381E-02  0.3351E-02  0.1664E-03  0.1643E-03  0.1758E-03  0.1730E-03  0.1664E-03  0.1643E-03  0.0000E+00  0.0000E+00  0.0000E+00  0.0000E+00  0.0000E+00  0.0000E+00  0.0000E+00  0.0000E+00  0.0000E+00  0.0000E+00
     -3.443  0.3538E-02  0.3525E-02  0.1897E-03  0.1886E-03  0.2185E-03  0.2161E-03  0.1897E-03  0.1886E-03  0.0000E+00  0.0000E+00  0.0000E+00  0.0000E+00  0.0000E+00  0.0000E+00  0.0000E+00  0.0000E+00  0.0000E+00  0.0000E+00
     -3.388  0.3487E-02  0.3475E-02  0.2052E-03  0.2037E-03  0.2554E-03  0.2531E-03  0.2052E-03  0.2037E-03  0.0000E+00  0.0000E+00  0.0000E+00  0.0000E+00  0.0000E+00  0.0000E+00  0.0000E+00  0.0000E+00  0.0000E+00  0.0000E+00
     -3.334  0.3591E-02  0.3569E-02  0.2390E-03  0.2367E-03  0.2917E-03  0.2891E-03  0.2390E-03  0.2367E-03  0.0000E+00  0.0000E+00  0.0000E+00  0.0000E+00  0.0000E+00  0.0000E+00  0.0000E+00  0.0000E+00  0.0000E+00  0.0000E+00
     -3.279  0.3723E-02  0.3708E-02  0.2789E-03  0.2769E-03  0.3258E-03  0.3238E-03  0.2789E-03  0.2769E-03  0.0000E+00  0.0000E+00  0.0000E+00  0.0000E+00  0.0000E+00  0.0000E+00  0.0000E+00  0.0000E+00  0.0000E+00  0.0000E+00
     -3.224  0.3638E-02  0.3630E-02  0.3126E-03  0.3103E-03  0.3368E-03  0.3358E-03  0.3126E-03  0.3103E-03  0.0000E+00  0.0000E+00  0.0000E+00  0.0000E+00  0.0000E+00  0.0000E+00  0.0000E+00  0.0000E+00  0.0000E+00  0.0000E+00
     -3.169  0.3691E-02  0.3666E-02  0.3686E-03  0.3649E-03  0.3609E-03  0.3574E-03  0.3686E-03  0.3649E-03  0.0000E+00  0.0000E+00  0.0000E+00  0.0000E+00  0.0000E+00  0.0000E+00  0.0000E+00  0.0000E+00  0.0000E+00  0.0000E+00
     -3.114  0.4006E-02  0.3977E-02  0.4298E-03  0.4269E-03  0.4569E-03  0.4504E-03  0.4298E-03  0.4269E-03  0.0000E+00  0.0000E+00  0.0000E+00  0.0000E+00  0.0000E+00  0.0000E+00  0.0000E+00  0.0000E+00  0.0000E+00  0.0000E+00
     -3.059  0.4216E-02  0.4195E-02  0.4656E-03  0.4635E-03  0.5761E-03  0.5703E-03  0.4656E-03  0.4635E-03  0.0000E+00  0.0000E+00  0.0000E+00  0.0000E+00  0.0000E+00  0.0000E+00  0.0000E+00  0.0000E+00  0.0000E+00  0.0000E+00
     -3.004  0.4199E-02  0.4188E-02  0.4908E-03  0.4891E-03  0.6386E-03  0.6356E-03  0.4908E-03  0.4891E-03  0.0000E+00  0.0000E+00  0.0000E+00  0.0000E+00  0.0000E+00  0.0000E+00  0.0000E+00  0.0000E+00  0.0000E+00  0.0000E+00
     -2.949  0.3955E-02  0.3952E-02  0.4946E-03  0.4938E-03  0.6602E-03  0.6576E-03  0.4946E-03  0.4938E-03  0.0000E+00  0.0000E+00  0.0000E+00  0.0000E+00  0.0000E+00  0.0000E+00  0.0000E+00  0.0000E+00  0.0000E+00  0.0000E+00
     -2.894  0.3699E-02  0.3691E-02  0.5082E-03  0.5054E-03  0.6735E-03  0.6718E-03  0.5082E-03  0.5054E-03  0.0000E+00  0.0000E+00  0.0000E+00  0.0000E+00  0.0000E+00  0.0000E+00  0.0000E+00  0.0000E+00  0.0000E+00  0.0000E+00
     -2.839  0.3680E-02  0.3661E-02  0.6037E-03  0.5969E-03  0.6545E-03  0.6536E-03  0.6037E-03  0.5969E-03  0.0000E+00  0.0000E+00  0.0000E+00  0.0000E+00  0.0000E+00  0.0000E+00  0.0000E+00  0.0000E+00  0.0000E+00  0.0000E+00
     -2.784  0.3918E-02  0.3889E-02  0.7491E-03  0.7421E-03  0.7064E-03  0.6990E-03  0.7491E-03  0.7421E-03  0.0000E+00  0.0000E+00  0.0000E+00  0.0000E+00  0.0000E+00  0.0000E+00  0.0000E+00  0.0000E+00  0.0000E+00  0.0000E+00
     -2.729  0.4160E-02  0.4136E-02  0.8357E-03  0.8324E-03  0.9187E-03  0.9057E-03  0.8357E-03  0.8324E-03  0.0000E+00  0.0000E+00  0.0000E+00  0.0000E+00  0.0000E+00  0.0000E+00  0.0000E+00  0.0000E+00  0.0000E+00  0.0000E+00
     -2.674  0.4184E-02  0.4168E-02  0.8591E-03  0.8565E-03  0.1146E-02  0.1136E-02  0.8591E-03  0.8565E-03  0.0000E+00  0.0000E+00  0.0000E+00  0.0000E+00  0.0000E+00  0.0000E+00  0.0000E+00  0.0000E+00  0.0000E+00  0.0000E+00
     -2.619  0.4079E-02  0.4069E-02  0.8987E-03  0.8953E-03  0.1230E-02  0.1226E-02  0.8987E-03  0.8953E-03  0.0000E+00  0.0000E+00  0.0000E+00  0.0000E+00  0.0000E+00  0.0000E+00  0.0000E+00  0.0000E+00  0.0000E+00  0.0000E+00
     -2.564  0.3796E-02  0.3797E-02  0.8992E-03  0.8993E-03  0.1267E-02  0.1262E-02  0.8992E-03  0.8993E-03  0.0000E+00  0.0000E+00  0.0000E+00  0.0000E+00  0.0000E+00  0.0000E+00  0.0000E+00  0.0000E+00  0.0000E+00  0.0000E+00
     -2.510  0.3341E-02  0.3344E-02  0.8660E-03  0.8642E-03  0.1348E-02  0.1342E-02  0.8660E-03  0.8642E-03  0.0000E+00  0.0000E+00  0.0000E+00  0.0000E+00  0.0000E+00  0.0000E+00  0.0000E+00  0.0000E+00  0.0000E+00  0.0000E+00
     -2.455  0.3138E-02  0.3125E-02  0.1000E-02  0.9895E-03  0.1389E-02  0.1384E-02  0.1000E-02  0.9895E-03  0.0000E+00  0.0000E+00  0.0000E+00  0.0000E+00  0.0000E+00  0.0000E+00  0.0000E+00  0.0000E+00  0.0000E+00  0.0000E+00
     -2.400  0.3364E-02  0.3337E-02  0.1312E-02  0.1297E-02  0.1472E-02  0.1462E-02  0.1312E-02  0.1297E-02  0.0000E+00  0.0000E+00  0.0000E+00  0.0000E+00  0.0000E+00  0.0000E+00  0.0000E+00  0.0000E+00  0.0000E+00  0.0000E+00
     -2.345  0.3633E-02  0.3612E-02  0.1567E-02  0.1558E-02  0.1677E-02  0.1663E-02  0.1567E-02  0.1558E-02  0.0000E+00  0.0000E+00  0.0000E+00  0.0000E+00  0.0000E+00  0.0000E+00  0.0000E+00  0.0000E+00  0.0000E+00  0.0000E+00
     -2.290  0.3501E-02  0.3499E-02  0.1644E-02  0.1640E-02  0.1837E-02  0.1829E-02  0.1644E-02  0.1640E-02  0.0000E+00  0.0000E+00  0.0000E+00  0.0000E+00  0.0000E+00  0.0000E+00  0.0000E+00  0.0000E+00  0.0000E+00  0.0000E+00
     -2.235  0.3079E-02  0.3085E-02  0.1659E-02  0.1656E-02  0.1763E-02  0.1766E-02  0.1659E-02  0.1656E-02  0.0000E+00  0.0000E+00  0.0000E+00  0.0000E+00  0.0000E+00  0.0000E+00  0.0000E+00  0.0000E+00  0.0000E+00  0.0000E+00
     -2.180  0.2581E-02  0.2589E-02  0.1590E-02  0.1592E-02  0.1502E-02  0.1507E-02  0.1590E-02  0.1592E-02  0.0000E+00  0.0000E+00  0.0000E+00  0.0000E+00  0.0000E+00  0.0000E+00  0.0000E+00  0.0000E+00  0.0000E+00  0.0000E+00
     -2.125  0.2149E-02  0.2151E-02  0.1426E-02  0.1427E-02  0.1346E-02  0.1344E-02  0.1426E-02  0.1427E-02  0.0000E+00  0.0000E+00  0.0000E+00  0.0000E+00  0.0000E+00  0.0000E+00  0.0000E+00  0.0000E+00  0.0000E+00  0.0000E+00
     -2.070  0.2057E-02  0.2045E-02  0.1375E-02  0.1370E-02  0.1403E-02  0.1394E-02  0.1375E-02  0.1370E-02  0.0000E+00  0.0000E+00  0.0000E+00  0.0000E+00  0.0000E+00  0.0000E+00  0.0000E+00  0.0000E+00  0.0000E+00  0.0000E+00
     -2.015  0.2250E-02  0.2231E-02  0.1455E-02  0.1448E-02  0.1583E-02  0.1571E-02  0.1455E-02  0.1448E-02  0.0000E+00  0.0000E+00  0.0000E+00  0.0000E+00  0.0000E+00  0.0000E+00  0.0000E+00  0.0000E+00  0.0000E+00  0.0000E+00
     -1.960  0.2363E-02  0.2352E-02  0.1484E-02  0.1482E-02  0.1702E-02  0.1696E-02  0.1484E-02  0.1482E-02  0.0000E+00  0.0000E+00  0.0000E+00  0.0000E+00  0.0000E+00  0.0000E+00  0.0000E+00  0.0000E+00  0.0000E+00  0.0000E+00