   2   2   1   0
  0.1502783E+02  0.3109153E-09  0.3109153E-09  0.3109153E-09  0.5000000E-15
   1.0000000000000000E-004
  CAR 
 unknown system                          
     15.37786019    -26.69625955  301      6.63999347      1.00000000
    -26.696  0.0000E+00  0.0000E+00  0.0000E+00  0.0000E+00
    -26.556  0.0000E+00  0.0000E+00  0.0000E+00  0.0000E+00
    -26.416  0.0000E+00  0.0000E+00  0.0000E+00  0.0000E+00
    -26.276  0.0000E+00  0.0000E+00  0.0000E+00  0.0000E+00
    -26.135  0.0000E+00  0.0000E+00  0.0000E+00  0.0000E+00
    -25.995  0.0000E+00  0.0000E+00  0.0000E+00  0.0000E+00
    -25.855  0.0000E+00  0.0000E+00  0.0000E+00  0.0000E+00
    -25.715  0.0000E+00  0.0000E+00  0.0000E+00  0.0000E+00
    -25.574  0.0000E+00  0.0000E+00  0.0000E+00  0.0000E+00
    -25.434  0.0000E+00  0.0000E+00  0.0000E+00  0.0000E+00
    -25.294  0.0000E+00  0.0000E+00  0.0000E+00  0.0000E+00
    -25.154  0.0000E+00  0.0000E+00  0.0000E+00  0.0000E+00
    -25.013  0.0000E+00  0.0000E+00  0.0000E+00  0.0000E+00
    -24.873  0.0000E+00  0.0000E+00  0.0000E+00  0.0000E+00
    -24.733  0.3773E+00  0.3780E+00  0.1352E-01  0.1357E-01
    -24.593  0.1624E+01  0.1625E+01  0.1545E+00  0.1548E+00
    -24.452  0.3133E+01  0.3134E+01  0.4699E+00  0.4704E+00
    -24.312  0.3606E+01  0.3604E+01  0.1012E+01  0.1012E+01
    -24.172  0.2344E+01  0.2343E+01  0.1398E+01  0.1398E+01
    -24.032  0.1368E+01  0.1368E+01  0.1629E+01  0.1630E+01
    -23.891  0.1765E+01  0.1765E+01  0.1866E+01  0.1867E+01
    -23.751  0.1890E+01  0.1891E+01  0.2106E+01  0.2107E+01
    -23.611  0.2192E+01  0.2192E+01  0.2400E+01  0.2400E+01
    -23.471  0.2376E+01  0.2376E+01  0.2740E+01  0.2740E+01
    -23.330  0.2632E+01  0.2632E+01  0.3106E+01  0.3106E+01
    -23.190  0.4747E+01  0.4752E+01  0.3513E+01  0.3513E+01
    -23.050  0.2157E+01  0.2157E+01  0.3999E+01  0.3999E+01
    -22.910  0.3418E+01  0.3420E+01  0.4287E+01  0.4287E+01
    -22.769  0.4549E+01  0.4549E+01  0.4939E+01  0.4939E+01
    -22.629  0.5431E+01  0.5430E+01  0.5564E+01  0.5564E+01
    -22.489  0.5968E+00  0.5948E+00  0.6000E+01  0.6000E+01
    -22.349  0.0000E+00  0.0000E+00  0.6000E+01  0.6000E+01
    -22.208  0.0000E+00  0.0000E+00  0.6000E+01  0.6000E+01
    -22.068  0.0000E+00  0.0000E+00  0.6000E+01  0.6000E+01
    -21.928  0.0000E+00  0.0000E+00  0.6000E+01  0.6000E+01
    -21.788  0.0000E+00  0.0000E+00  0.6000E+01  0.6000E+01
    -21.647  0.0000E+00  0.0000E+00  0.6000E+01  0.6000E+01
    -21.507  0.0000E+00  0.0000E+00  0.6000E+01  0.6000E+01
    -21.367  0.0000E+00  0.0000E+00  0.6000E+01  0.6000E+01
    -21.227  0.0000E+00  0.0000E+00  0.6000E+01  0.6000E+01
    -21.086  0.0000E+00  0.0000E+00  0.6000E+01  0.6000E+01
    -20.946  0.0000E+00  0.0000E+00  0.6000E+01  0.6000E+01
    -20.806  0.0000E+00  0.0000E+00  0.6000E+01  0.6000E+01
    -20.666  0.0000E+00  0.0000E+00  0.6000E+01  0.6000E+01
    -20.525  0.0000E+00  0.0000E+00  0.6000E+01  0.6000E+01
    -20.385  0.0000E+00  0.0000E+00  0.6000E+01  0.6000E+01
    -20.245  0.0000E+00  0.0000E+00  0.6000E+01  0.6000E+01
    -20.105  0.0000E+00  0.0000E+00  0.6000E+01  0.6000E+01
    -19.964  0.0000E+00  0.0000E+00  0.6000E+01  0.6000E+01
    -19.824  0.0000E+00  0.0000E+00  0.6000E+01  0.6000E+01
    -19.684  0.0000E+00  0.0000E+00  0.6000E+01  0.6000E+01
    -19.544  0.0000E+00  0.0000E+00  0.6000E+01  0.6000E+01
    -19.403  0.0000E+00  0.0000E+00  0.6000E+01  0.6000E+01
    -19.263  0.0000E+00  0.0000E+00  0.6000E+01  0.6000E+01
    -19.123  0.0000E+00  0.0000E+00  0.6000E+01  0.6000E+01
    -18.983  0.0000E+00  0.0000E+00  0.6000E+01  0.6000E+01
    -18.842  0.0000E+00  0.0000E+00  0.6000E+01  0.6000E+01
    -18.702  0.0000E+00  0.0000E+00  0.6000E+01  0.6000E+01
    -18.562  0.0000E+00  0.0000E+00  0.6000E+01  0.6000E+01
    -18.422  0.0000E+00  0.0000E+00  0.6000E+01  0.6000E+01
    -18.281  0.0000E+00  0.0000E+00  0.6000E+01  0.6000E+01
    -18.141  0.0000E+00  0.0000E+00  0.6000E+01  0.6000E+01
    -18.001  0.0000E+00  0.0000E+00  0.6000E+01  0.6000E+01
    -17.861  0.0000E+00  0.0000E+00  0.6000E+01  0.6000E+01
    -17.720  0.0000E+00  0.0000E+00  0.6000E+01  0.6000E+01
    -17.580  0.0000E+00  0.0000E+00  0.6000E+01  0.6000E+01
    -17.440  0.0000E+00  0.0000E+00  0.6000E+01  0.6000E+01
    -17.300  0.0000E+00  0.0000E+00  0.6000E+01  0.6000E+01
    -17.159  0.0000E+00  0.0000E+00  0.6000E+01  0.6000E+01
    -17.019  0.0000E+00  0.0000E+00  0.6000E+01  0.6000E+01
    -16.879  0.0000E+00  0.0000E+00  0.6000E+01  0.6000E+01
    -16.739  0.0000E+00  0.0000E+00  0.6000E+01  0.6000E+01
    -16.598  0.0000E+00  0.0000E+00  0.6000E+01  0.6000E+01
    -16.458  0.0000E+00  0.0000E+00  0.6000E+01  0.6000E+01
    -16.318  0.0000E+00  0.0000E+00  0.6000E+01  0.6000E+01
    -16.178  0.0000E+00  0.0000E+00  0.6000E+01  0.6000E+01
    -16.037  0.0000E+00  0.0000E+00  0.6000E+01  0.6000E+01
    -15.897  0.0000E+00  0.0000E+00  0.6000E+01  0.6000E+01
    -15.757  0.0000E+00  0.0000E+00  0.6000E+01  0.6000E+01
    -15.617  0.0000E+00  0.0000E+00  0.6000E+01  0.6000E+01
    -15.476  0.0000E+00  0.0000E+00  0.6000E+01  0.6000E+01
    -15.336  0.0000E+00  0.0000E+00  0.6000E+01  0.6000E+01
    -15.196  0.0000E+00  0.0000E+00  0.6000E+01  0.6000E+01
    -15.056  0.0000E+00  0.0000E+00  0.6000E+01  0.6000E+01
    -14.916  0.0000E+00  0.0000E+00  0.6000E+01  0.6000E+01
    -14.775  0.0000E+00  0.0000E+00  0.6000E+01  0.6000E+01
    -14.635  0.0000E+00  0.0000E+00  0.6000E+01  0.6000E+01
    -14.495  0.0000E+00  0.0000E+00  0.6000E+01  0.6000E+01
    -14.355  0.0000E+00  0.0000E+00  0.6000E+01  0.6000E+01
    -14.214  0.0000E+00  0.0000E+00  0.6000E+01  0.6000E+01
    -14.074  0.0000E+00  0.0000E+00  0.6000E+01  0.6000E+01
    -13.934  0.0000E+00  0.0000E+00  0.6000E+01  0.6000E+01
    -13.794  0.0000E+00  0.0000E+00  0.6000E+01  0.6000E+01
    -13.653  0.0000E+00  0.0000E+00  0.6000E+01  0.6000E+01
    -13.513  0.0000E+00  0.0000E+00  0.6000E+01  0.6000E+01
    -13.373  0.0000E+00  0.0000E+00  0.6000E+01  0.6000E+01
    -13.233  0.0000E+00  0.0000E+00  0.6000E+01  0.6000E+01
    -13.092  0.0000E+00  0.0000E+00  0.6000E+01  0.6000E+01
    -12.952  0.0000E+00  0.0000E+00  0.6000E+01  0.6000E+01
    -12.812  0.0000E+00  0.0000E+00  0.6000E+01  0.6000E+01
    -12.672  0.0000E+00  0.0000E+00  0.6000E+01  0.6000E+01
    -12.531  0.0000E+00  0.0000E+00  0.6000E+01  0.6000E+01
    -12.391  0.0000E+00  0.0000E+00  0.6000E+01  0.6000E+01
    -12.251  0.0000E+00  0.0000E+00  0.6000E+01  0.6000E+01
    -12.111  0.0000E+00  0.0000E+00  0.6000E+01  0.6000E+01
    -11.970  0.0000E+00  0.0000E+00  0.6000E+01  0.6000E+01
    -11.830  0.0000E+00  0.0000E+00  0.6000E+01  0.6000E+01
    -11.690  0.0000E+00  0.0000E+00  0.6000E+01  0.6000E+01
    -11.550  0.0000E+00  0.0000E+00  0.6000E+01  0.6000E+01
    -11.409  0.0000E+00  0.0000E+00  0.6000E+01  0.6000E+01
    -11.269  0.0000E+00  0.0000E+00  0.6000E+01  0.6000E+01
    -11.129  0.0000E+00  0.0000E+00  0.6000E+01  0.6000E+01
    -10.989  0.0000E+00  0.0000E+00  0.6000E+01  0.6000E+01
    -10.848  0.0000E+00  0.0000E+00  0.6000E+01  0.6000E+01
    -10.708  0.0000E+00  0.0000E+00  0.6000E+01  0.6000E+01
    -10.568  0.0000E+00  0.0000E+00  0.6000E+01  0.6000E+01
    -10.428  0.0000E+00  0.0000E+00  0.6000E+01  0.6000E+01
    -10.287  0.0000E+00  0.0000E+00  0.6000E+01  0.6000E+01
    -10.147  0.0000E+00  0.0000E+00  0.6000E+01  0.6000E+01
    -10.007  0.0000E+00  0.0000E+00  0.6000E+01  0.6000E+01
     -9.867  0.0000E+00  0.0000E+00  0.6000E+01  0.6000E+01
     -9.726  0.0000E+00  0.0000E+00  0.6000E+01  0.6000E+01
     -9.586  0.0000E+00  0.0000E+00  0.6000E+01  0.6000E+01
     -9.446  0.0000E+00  0.0000E+00  0.6000E+01  0.6000E+01
     -9.306  0.0000E+00  0.0000E+00  0.6000E+01  0.6000E+01
     -9.165  0.0000E+00  0.0000E+00  0.6000E+01  0.6000E+01
     -9.025  0.0000E+00  0.0000E+00  0.6000E+01  0.6000E+01
     -8.885  0.0000E+00  0.0000E+00  0.6000E+01  0.6000E+01
     -8.745  0.0000E+00  0.0000E+00  0.6000E+01  0.6000E+01
     -8.604  0.0000E+00  0.0000E+00  0.6000E+01  0.6000E+01
     -8.464  0.0000E+00  0.0000E+00  0.6000E+01  0.6000E+01
     -8.324  0.0000E+00  0.0000E+00  0.6000E+01  0.6000E+01
     -8.184  0.0000E+00  0.0000E+00  0.6000E+01  0.6000E+01
     -8.043  0.0000E+00  0.0000E+00  0.6000E+01  0.6000E+01
     -7.903  0.0000E+00  0.0000E+00  0.6000E+01  0.6000E+01
     -7.763  0.0000E+00  0.0000E+00  0.6000E+01  0.6000E+01
     -7.623  0.0000E+00  0.0000E+00  0.6000E+01  0.6000E+01
     -7.482  0.0000E+00  0.0000E+00  0.6000E+01  0.6000E+01
     -7.342  0.0000E+00  0.0000E+00  0.6000E+01  0.6000E+01
     -7.202  0.0000E+00  0.0000E+00  0.6000E+01  0.6000E+01
     -7.062  0.0000E+00  0.0000E+00  0.6000E+01  0.6000E+01
     -6.921  0.0000E+00  0.0000E+00  0.6000E+01  0.6000E+01
     -6.781  0.0000E+00  0.0000E+00  0.6000E+01  0.6000E+01
     -6.641  0.0000E+00  0.0000E+00  0.6000E+01  0.6000E+01
     -6.501  0.0000E+00  0.0000E+00  0.6000E+01  0.6000E+01
     -6.360  0.0000E+00  0.0000E+00  0.6000E+01  0.6000E+01
     -6.220  0.0000E+00  0.0000E+00  0.6000E+01  0.6000E+01
     -6.080  0.0000E+00  0.0000E+00  0.6000E+01  0.6000E+01
     -5.940  0.0000E+00  0.0000E+00  0.6000E+01  0.6000E+01
     -5.799  0.0000E+00  0.0000E+00  0.6000E+01  0.6000E+01
     -5.659  0.0000E+00  0.0000E+00  0.6000E+01  0.6000E+01
     -5.519  0.0000E+00  0.0000E+00  0.6000E+01  0.6000E+01
     -5.379  0.0000E+00  0.0000E+00  0.6000E+01  0.6000E+01
     -5.238  0.0000E+00  0.0000E+00  0.6000E+01  0.6000E+01
     -5.098  0.0000E+00  0.0000E+00  0.6000E+01  0.6000E+01
     -4.958  0.0000E+00  0.0000E+00  0.6000E+01  0.6000E+01
     -4.818  0.0000E+00  0.0000E+00  0.6000E+01  0.6000E+01
     -4.677  0.0000E+00  0.0000E+00  0.6000E+01  0.6000E+01
     -4.537  0.0000E+00  0.0000E+00  0.6000E+01  0.6000E+01
     -4.397  0.0000E+00  0.0000E+00  0.6000E+01  0.6000E+01
     -4.257  0.0000E+00  0.0000E+00  0.6000E+01  0.6000E+01
     -4.116  0.0000E+00  0.0000E+00  0.6000E+01  0.6000E+01
     -3.976  0.0000E+00  0.0000E+00  0.6000E+01  0.6000E+01
     -3.836  0.0000E+00  0.0000E+00  0.6000E+01  0.6000E+01
     -3.696  0.0000E+00  0.0000E+00  0.6000E+01  0.6000E+01
     -3.555  0.0000E+00  0.0000E+00  0.6000E+01  0.6000E+01
     -3.415  0.0000E+00  0.0000E+00  0.6000E+01  0.6000E+01
     -3.275  0.0000E+00  0.0000E+00  0.6000E+01  0.6000E+01
     -3.135  0.0000E+00  0.0000E+00  0.6000E+01  0.6000E+01
     -2.995  0.0000E+00  0.0000E+00  0.6000E+01  0.6000E+01
     -2.854  0.0000E+00  0.0000E+00  0.6000E+01  0.6000E+01
     -2.714  0.0000E+00  0.0000E+00  0.6000E+01  0.6000E+01
     -2.574  0.0000E+00  0.0000E+00  0.6000E+01  0.6000E+01
     -2.434  0.0000E+00  0.0000E+00  0.6000E+01  0.6000E+01
     -2.293  0.0000E+00  0.0000E+00  0.6000E+01  0.6000E+01
     -2.153  0.0000E+00  0.0000E+00  0.6000E+01  0.6000E+01
     -2.013  0.0000E+00  0.0000E+00  0.6000E+01  0.6000E+01
     -1.873  0.0000E+00  0.0000E+00  0.6000E+01  0.6000E+01
     -1.732  0.0000E+00  0.0000E+00  0.6000E+01  0.6000E+01
     -1.592  0.0000E+00  0.0000E+00  0.6000E+01  0.6000E+01
     -1.452  0.0000E+00  0.0000E+00  0.6000E+01  0.6000E+01
     -1.312  0.0000E+00  0.0000E+00  0.6000E+01  0.6000E+01
     -1.171  0.0000E+00  0.0000E+00  0.6000E+01  0.6000E+01
     -1.031  0.0000E+00  0.0000E+00  0.6000E+01  0.6000E+01
     -0.891  0.0000E+00  0.0000E+00  0.6000E+01  0.6000E+01
     -0.751  0.0000E+00  0.0000E+00  0.6000E+01  0.6000E+01
     -0.610  0.0000E+00  0.0000E+00  0.6000E+01  0.6000E+01
     -0.470  0.0000E+00  0.0000E+00  0.6000E+01  0.6000E+01
     -0.330  0.0000E+00  0.0000E+00  0.6000E+01  0.6000E+01
     -0.190  0.0000E+00  0.0000E+00  0.6000E+01  0.6000E+01
     -0.049  0.0000E+00  0.0000E+00  0.6000E+01  0.6000E+01
      0.091  0.0000E+00  0.0000E+00  0.6000E+01  0.6000E+01
      0.231  0.0000E+00  0.0000E+00  0.6000E+01  0.6000E+01
      0.371  0.3344E-05  0.5202E-05  0.6000E+01  0.6000E+01
      0.512  0.1958E-02  0.1998E-02  0.6000E+01  0.6000E+01
      0.652  0.7510E-02  0.7589E-02  0.6001E+01  0.6001E+01
      0.792  0.1666E-01  0.1678E-01  0.6002E+01  0.6002E+01
      0.932  0.3016E-01  0.3033E-01  0.6006E+01  0.6006E+01
      1.073  0.4355E-01  0.4367E-01  0.6011E+01  0.6011E+01
      1.213  0.5260E-01  0.5267E-01  0.6018E+01  0.6018E+01
      1.353  0.5733E-01  0.5736E-01  0.6025E+01  0.6025E+01
      1.493  0.6229E-01  0.6236E-01  0.6034E+01  0.6034E+01
      1.634  0.7250E-01  0.7264E-01  0.6043E+01  0.6043E+01
      1.774  0.1047E+00  0.1050E+00  0.6055E+01  0.6055E+01
      1.914  0.1542E+00  0.1545E+00  0.6073E+01  0.6074E+01
      2.054  0.1989E+00  0.1992E+00  0.6098E+01  0.6098E+01
      2.195  0.3569E+00  0.3577E+00  0.6137E+01  0.6137E+01
      2.335  0.4992E+00  0.5002E+00  0.6197E+01  0.6197E+01
      2.475  0.7222E+00  0.7244E+00  0.6280E+01  0.6281E+01
      2.615  0.9946E+00  0.9953E+00  0.6402E+01  0.6403E+01
      2.756  0.1107E+01  0.1108E+01  0.6549E+01  0.6550E+01
      2.896  0.1283E+01  0.1284E+01  0.6715E+01  0.6716E+01
      3.036  0.1392E+01  0.1392E+01  0.6906E+01  0.6908E+01
      3.176  0.1449E+01  0.1449E+01  0.7111E+01  0.7112E+01
      3.317  0.1463E+01  0.1463E+01  0.7316E+01  0.7317E+01
      3.457  0.1516E+01  0.1513E+01  0.7525E+01  0.7527E+01
      3.597  0.1118E+01  0.1116E+01  0.7708E+01  0.7709E+01
      3.737  0.1073E+01  0.1072E+01  0.7869E+01  0.7870E+01
      3.878  0.8949E+00  0.8945E+00  0.7997E+01  0.7997E+01
      4.018  0.5969E+00  0.5955E+00  0.8103E+01  0.8104E+01
      4.158  0.4309E+00  0.4306E+00  0.8173E+01  0.8173E+01
      4.298  0.4950E+00  0.4952E+00  0.8241E+01  0.8241E+01
      4.439  0.1341E+01  0.1342E+01  0.8385E+01  0.8386E+01
      4.579  0.1781E+01  0.1784E+01  0.8600E+01  0.8602E+01
      4.719  0.2104E+01  0.2107E+01  0.8864E+01  0.8865E+01
      4.859  0.1831E+01  0.1828E+01  0.9160E+01  0.9161E+01
      5.000  0.1074E+01  0.1071E+01  0.9375E+01  0.9376E+01
      5.140  0.7080E+00  0.7078E+00  0.9485E+01  0.9486E+01
      5.280  0.6760E+00  0.6757E+00  0.9583E+01  0.9583E+01
      5.420  0.6393E+00  0.6392E+00  0.9675E+01  0.9675E+01
      5.561  0.6667E+00  0.6671E+00  0.9765E+01  0.9765E+01
      5.701  0.7572E+00  0.7578E+00  0.9864E+01  0.9864E+01
      5.841  0.8055E+00  0.8057E+00  0.9984E+01  0.9985E+01
      5.981  0.8535E+00  0.8546E+00  0.1009E+02  0.1009E+02
      6.122  0.1231E+01  0.1233E+01  0.1023E+02  0.1023E+02
      6.262  0.1587E+01  0.1588E+01  0.1043E+02  0.1043E+02
      6.402  0.1662E+01  0.1662E+01  0.1066E+02  0.1066E+02
      6.542  0.1291E+01  0.1290E+01  0.1088E+02  0.1088E+02
      6.683  0.1275E+01  0.1275E+01  0.1105E+02  0.1105E+02
      6.823  0.1024E+01  0.1024E+01  0.1122E+02  0.1122E+02
      6.963  0.8974E+00  0.8962E+00  0.1135E+02  0.1135E+02
      7.103  0.6751E+00  0.6741E+00  0.1146E+02  0.1146E+02
      7.244  0.5201E+00  0.5198E+00  0.1154E+02  0.1154E+02
      7.384  0.4867E+00  0.4865E+00  0.1161E+02  0.1161E+02
      7.524  0.4520E+00  0.4518E+00  0.1168E+02  0.1168E+02
      7.664  0.4159E+00  0.4156E+00  0.1174E+02  0.1174E+02
      7.805  0.3811E+00  0.3809E+00  0.1180E+02  0.1180E+02
      7.945  0.3511E+00  0.3509E+00  0.1185E+02  0.1185E+02
      8.085  0.3161E+00  0.3158E+00  0.1189E+02  0.1189E+02
      8.225  0.2980E+00  0.2998E+00  0.1194E+02  0.1194E+02
      8.366  0.5129E+00  0.5127E+00  0.1200E+02  0.1200E+02
      8.506  0.5625E+00  0.5624E+00  0.1208E+02  0.1208E+02
      8.646  0.5807E+00  0.5808E+00  0.1216E+02  0.1216E+02
      8.786  0.6816E+00  0.6816E+00  0.1225E+02  0.1225E+02
      8.926  0.7383E+00  0.7382E+00  0.1235E+02  0.1235E+02
      9.067  0.7720E+00  0.7719E+00  0.1245E+02  0.1245E+02
      9.207  0.8204E+00  0.8205E+00  0.1257E+02  0.1257E+02
      9.347  0.8707E+00  0.8708E+00  0.1268E+02  0.1268E+02
      9.487  0.9293E+00  0.9294E+00  0.1281E+02  0.1281E+02
      9.628  0.1017E+01  0.1017E+01  0.1295E+02  0.1295E+02
      9.768  0.1008E+01  0.1008E+01  0.1309E+02  0.1309E+02
      9.908  0.1382E+01  0.1381E+01  0.1325E+02  0.1325E+02
     10.048  0.2003E+01  0.2030E+01  0.1345E+02  0.1345E+02
     10.189  0.1207E+01  0.1207E+01  0.1363E+02  0.1363E+02
     10.329  0.1075E+01  0.1075E+01  0.1379E+02  0.1379E+02
     10.469  0.1007E+01  0.1006E+01  0.1394E+02  0.1394E+02
     10.609  0.1512E+01  0.1507E+01  0.1408E+02  0.1408E+02
     10.750  0.7838E+00  0.7837E+00  0.1420E+02  0.1420E+02
     10.890  0.8887E+00  0.8885E+00  0.1432E+02  0.1432E+02
     11.030  0.1100E+01  0.1100E+01  0.1446E+02  0.1446E+02
     11.170  0.1160E+01  0.1160E+01  0.1461E+02  0.1461E+02
     11.311  0.2378E+01  0.2373E+01  0.1484E+02  0.1484E+02
     11.451  0.2461E+01  0.2458E+01  0.1525E+02  0.1524E+02
     11.591  0.1094E+01  0.1095E+01  0.1545E+02  0.1545E+02
     11.731  0.1016E+01  0.1017E+01  0.1558E+02  0.1558E+02
     11.872  0.7959E+00  0.7957E+00  0.1570E+02  0.1570E+02
     12.012  0.6613E+00  0.6611E+00  0.1581E+02  0.1581E+02
     12.152  0.5345E+00  0.5341E+00  0.1590E+02  0.1590E+02
     12.292  0.2265E+00  0.2267E+00  0.1594E+02  0.1594E+02
     12.433  0.1549E+00  0.1549E+00  0.1597E+02  0.1597E+02
     12.573  0.9474E-01  0.9471E-01  0.1599E+02  0.1599E+02
     12.713  0.4617E-01  0.4608E-01  0.1600E+02  0.1600E+02
     12.853  0.3675E-02  0.3672E-02  0.1600E+02  0.1600E+02
     12.994  0.2184E-02  0.2181E-02  0.1600E+02  0.1600E+02
     13.134  0.1078E-02  0.1077E-02  0.1600E+02  0.1600E+02
     13.274  0.3589E-03  0.3581E-03  0.1600E+02  0.1600E+02
     13.414  0.2552E-04  0.2534E-04  0.1600E+02  0.1600E+02
     13.555  0.0000E+00  0.0000E+00  0.1600E+02  0.1600E+02
     13.695  0.0000E+00  0.0000E+00  0.1600E+02  0.1600E+02
     13.835  0.0000E+00  0.0000E+00  0.1600E+02  0.1600E+02
     13.975  0.0000E+00  0.0000E+00  0.1600E+02  0.1600E+02
     14.116  0.0000E+00  0.0000E+00  0.1600E+02  0.1600E+02
     14.256  0.0000E+00  0.0000E+00  0.1600E+02  0.1600E+02
     14.396  0.0000E+00  0.0000E+00  0.1600E+02  0.1600E+02
     14.536  0.0000E+00  0.0000E+00  0.1600E+02  0.1600E+02
     14.677  0.0000E+00  0.0000E+00  0.1600E+02  0.1600E+02
     14.817  0.0000E+00  0.0000E+00  0.1600E+02  0.1600E+02
     14.957  0.0000E+00  0.0000E+00  0.1600E+02  0.1600E+02
     15.097  0.0000E+00  0.0000E+00  0.1600E+02  0.1600E+02
     15.238  0.0000E+00  0.0000E+00  0.1600E+02  0.1600E+02
     15.378  0.0000E+00  0.0000E+00  0.1600E+02  0.1600E+02
     15.37786019    -26.69625955  301      6.63999347      1.00000000
    -26.696  0.0000E+00  0.0000E+00  0.0000E+00  0.0000E+00  0.0000E+00  0.0000E+00  0.0000E+00  0.0000E+00  0.0000E+00  0.0000E+00  0.0000E+00  0.0000E+00  0.0000E+00  0.0000E+00  0.0000E+00  0.0000E+00  0.0000E+00  0.0000E+00
    -26.556  0.0000E+00  0.0000E+00  0.0000E+00  0.0000E+00  0.0000E+00  0.0000E+00  0.0000E+00  0.0000E+00  0.0000E+00  0.0000E+00  0.0000E+00  0.0000E+00  0.0000E+00  0.0000E+00  0.0000E+00  0.0000E+00  0.0000E+00  0.0000E+00
    -26.416  0.0000E+00  0.0000E+00  0.0000E+00  0.0000E+00  0.0000E+00  0.0000E+00  0.0000E+00  0.0000E+00  0.0000E+00  0.0000E+00  0.0000E+00  0.0000E+00  0.0000E+00  0.0000E+00  0.0000E+00  0.0000E+00  0.0000E+00  0.0000E+00
    -26.276  0.0000E+00  0.0000E+00  0.0000E+00  0.0000E+00  0.0000E+00  0.0000E+00  0.0000E+00  0.0000E+00  0.0000E+00  0.0000E+00  0.0000E+00  0.0000E+00  0.0000E+00  0.0000E+00  0.0000E+00  0.0000E+00  0.0000E+00  0.0000E+00
    -26.135  0.0000E+00  0.0000E+00  0.0000E+00  0.0000E+00  0.0000E+00  0.0000E+00  0.0000E+00  0.0000E+00  0.0000E+00  0.0000E+00  0.0000E+00  0.0000E+00  0.0000E+00  0.0000E+00  0.0000E+00  0.0000E+00  0.0000E+00  0.0000E+00
    -25.995  0.0000E+00  0.0000E+00  0.0000E+00  0.0000E+00  0.0000E+00  0.0000E+00  0.0000E+00  0.0000E+00  0.0000E+00  0.0000E+00  0.0000E+00  0.0000E+00  0.0000E+00  0.0000E+00  0.0000E+00  0.0000E+00  0.0000E+00  0.0000E+00
    -25.855  0.0000E+00  0.0000E+00  0.0000E+00  0.0000E+00  0.0000E+00  0.0000E+00  0.0000E+00  0.0000E+00  0.0000E+00  0.0000E+00  0.0000E+00  0.0000E+00  0.0000E+00  0.0000E+00  0.0000E+00  0.0000E+00  0.0000E+00  0.0000E+00
    -25.715  0.0000E+00  0.0000E+00  0.0000E+00  0.0000E+00  0.0000E+00  0.0000E+00  0.0000E+00  0.0000E+00  0.0000E+00  0.0000E+00  0.0000E+00  0.0000E+00  0.0000E+00  0.0000E+00  0.0000E+00  0.0000E+00  0.0000E+00  0.0000E+00
    -25.574  0.0000E+00  0.0000E+00  0.0000E+00  0.0000E+00  0.0000E+00  0.0000E+00  0.0000E+00  0.0000E+00  0.0000E+00  0.0000E+00  0.0000E+00  0.0000E+00  0.0000E+00  0.0000E+00  0.0000E+00  0.0000E+00  0.0000E+00  0.0000E+00
    -25.434  0.0000E+00  0.0000E+00  0.0000E+00  0.0000E+00  0.0000E+00  0.0000E+00  0.0000E+00  0.0000E+00  0.0000E+00  0.0000E+00  0.0000E+00  0.0000E+00  0.0000E+00  0.0000E+00  0.0000E+00  0.0000E+00  0.0000E+00  0.0000E+00
    -25.294  0.0000E+00  0.0000E+00  0.0000E+00  0.0000E+00  0.0000E+00  0.0000E+00  0.0000E+00  0.0000E+00  0.0000E+00  0.0000E+00  0.0000E+00  0.0000E+00  0.0000E+00  0.0000E+00  0.0000E+00  0.0000E+00  0.0000E+00  0.0000E+00
    -25.154  0.0000E+00  0.0000E+00  0.0000E+00  0.0000E+00  0.0000E+00  0.0000E+00  0.0000E+00  0.0000E+00  0.0000E+00  0.0000E+00  0.0000E+00  0.0000E+00  0.0000E+00  0.0000E+00  0.0000E+00  0.0000E+00  0.0000E+00  0.0000E+00
    -25.013  0.0000E+00  0.0000E+00  0.0000E+00  0.0000E+00  0.0000E+00  0.0000E+00  0.0000E+00  0.0000E+00  0.0000E+00  0.0000E+00  0.0000E+00  0.0000E+00  0.0000E+00  0.0000E+00  0.0000E+00  0.0000E+00  0.0000E+00  0.0000E+00
    -24.873  0.0000E+00  0.0000E+00  0.0000E+00  0.0000E+00  0.0000E+00  0.0000E+00  0.0000E+00  0.0000E+00  0.0000E+00  0.0000E+00  0.0000E+00  0.0000E+00  0.0000E+00  0.0000E+00  0.0000E+00  0.0000E+00  0.0000E+00  0.0000E+00
    -24.733  0.4240E-04  0.4257E-04  0.6143E-01  0.6155E-01  0.6143E-01  0.6155E-01  0.6143E-01  0.6155E-01  0.5279E-04  0.5360E-04  0.5279E-04  0.5360E-04  0.4509E-04  0.4534E-04  0.5279E-04  0.5360E-04  0.4509E-04  0.4534E-04
    -24.593  0.9035E-03  0.9047E-03  0.2644E+00  0.2646E+00  0.2644E+00  0.2646E+00  0.2644E+00  0.2646E+00  0.3809E-03  0.3837E-03  0.3809E-03  0.3837E-03  0.2004E-03  0.2010E-03  0.3809E-03  0.3837E-03  0.2004E-03  0.2010E-03
    -24.452  0.2596E-02  0.2598E-02  0.5105E+00  0.5107E+00  0.5105E+00  0.5107E+00  0.5105E+00  0.5107E+00  0.8961E-03  0.8992E-03  0.8961E-03  0.8992E-03  0.5804E-03  0.5805E-03  0.8961E-03  0.8992E-03  0.5804E-03  0.5805E-03
    -24.312  0.3764E-02  0.3763E-02  0.5880E+00  0.5878E+00  0.5880E+00  0.5878E+00  0.5880E+00  0.5878E+00  0.1328E-02  0.1329E-02  0.1328E-02  0.1329E-02  0.7369E-03  0.7370E-03  0.1328E-02  0.1329E-02  0.7369E-03  0.7370E-03
    -24.172  0.3287E-02  0.3286E-02  0.3829E+00  0.3827E+00  0.3829E+00  0.3827E+00  0.3829E+00  0.3827E+00  0.6114E-03  0.6109E-03  0.6114E-03  0.6109E-03  0.5852E-03  0.5860E-03  0.6114E-03  0.6109E-03  0.5852E-03  0.5860E-03
    -24.032  0.2453E-02  0.2453E-02  0.2235E+00  0.2236E+00  0.2235E+00  0.2236E+00  0.2235E+00  0.2236E+00  0.5338E-03  0.5334E-03  0.5338E-03  0.5334E-03  0.1794E-03  0.1796E-03  0.5338E-03  0.5334E-03  0.1794E-03  0.1796E-03
    -23.891  0.1826E-02  0.1825E-02  0.2896E+00  0.2896E+00  0.2896E+00  0.2896E+00  0.2896E+00  0.2896E+00  0.9580E-03  0.9564E-03  0.9580E-03  0.9564E-03  0.1694E-03  0.1695E-03  0.9580E-03  0.9564E-03  0.1694E-03  0.1695E-03
    -23.751  0.1549E-02  0.1550E-02  0.3103E+00  0.3105E+00  0.3103E+00  0.3105E+00  0.3103E+00  0.3105E+00  0.1378E-02  0.1378E-02  0.1378E-02  0.1378E-02  0.2138E-03  0.2138E-03  0.1378E-02  0.1378E-02  0.2138E-03  0.2138E-03
    -23.611  0.1664E-02  0.1664E-02  0.3605E+00  0.3605E+00  0.3605E+00  0.3605E+00  0.3605E+00  0.3605E+00  0.1604E-02  0.1601E-02  0.1604E-02  0.1601E-02  0.2470E-03  0.2466E-03  0.1604E-02  0.1601E-02  0.2470E-03  0.2466E-03
    -23.471  0.6009E-03  0.6003E-03  0.3920E+00  0.3919E+00  0.3920E+00  0.3919E+00  0.3920E+00  0.3919E+00  0.1793E-02  0.1788E-02  0.1793E-02  0.1788E-02  0.1849E-03  0.1845E-03  0.1793E-02  0.1788E-02  0.1849E-03  0.1845E-03
    -23.330  0.1504E-02  0.1505E-02  0.4338E+00  0.4337E+00  0.4338E+00  0.4337E+00  0.4338E+00  0.4337E+00  0.2074E-02  0.2070E-02  0.2074E-02  0.2070E-02  0.1340E-03  0.1336E-03  0.2074E-02  0.2070E-02  0.1340E-03  0.1336E-03
    -23.190  0.2871E-02  0.2872E-02  0.7840E+00  0.7848E+00  0.7840E+00  0.7848E+00  0.7840E+00  0.7848E+00  0.2981E-02  0.2976E-02  0.2981E-02  0.2976E-02  0.2337E-03  0.2324E-03  0.2981E-02  0.2976E-02  0.2337E-03  0.2324E-03
    -23.050  0.1304E-02  0.1303E-02  0.3565E+00  0.3565E+00  0.3565E+00  0.3565E+00  0.3565E+00  0.3565E+00  0.1396E-02  0.1391E-02  0.1396E-02  0.1391E-02  0.6586E-04  0.6545E-04  0.1396E-02  0.1391E-02  0.6586E-04  0.6545E-04
    -22.910  0.1050E-02  0.1050E-02  0.5659E+00  0.5662E+00  0.5659E+00  0.5662E+00  0.5659E+00  0.5662E+00  0.1951E-02  0.1946E-02  0.1951E-02  0.1946E-02  0.6747E-04  0.6706E-04  0.1951E-02  0.1946E-02  0.6747E-04  0.6706E-04
    -22.769  0.1376E-02  0.1376E-02  0.7543E+00  0.7544E+00  0.7543E+00  0.7544E+00  0.7543E+00  0.7544E+00  0.1553E-02  0.1547E-02  0.1553E-02  0.1547E-02  0.8670E-04  0.8613E-04  0.1553E-02  0.1547E-02  0.8670E-04  0.8613E-04
    -22.629  0.9691E-03  0.9683E-03  0.9017E+00  0.9016E+00  0.9017E+00  0.9016E+00  0.9017E+00  0.9016E+00  0.1188E-02  0.1184E-02  0.1188E-02  0.1184E-02  0.5444E-04  0.5409E-04  0.1188E-02  0.1184E-02  0.5444E-04  0.5409E-04
    -22.489  0.4778E-04  0.4774E-04  0.9924E-01  0.9891E-01  0.9924E-01  0.9891E-01  0.9924E-01  0.9891E-01  0.9163E-04  0.9130E-04  0.9163E-04  0.9130E-04  0.1566E-05  0.1559E-05  0.9163E-04  0.9130E-04  0.1566E-05  0.1559E-05
    -22.349  0.0000E+00  0.0000E+00  0.0000E+00  0.0000E+00  0.0000E+00  0.0000E+00  0.0000E+00  0.0000E+00  0.0000E+00  0.0000E+00  0.0000E+00  0.0000E+00  0.0000E+00  0.0000E+00  0.0000E+00  0.0000E+00  0.0000E+00  0.0000E+00
    -22.208  0.0000E+00  0.0000E+00  0.0000E+00  0.0000E+00  0.0000E+00  0.0000E+00  0.0000E+00  0.0000E+00  0.0000E+00  0.0000E+00  0.0000E+00  0.0000E+00  0.0000E+00  0.0000E+00  0.0000E+00  0.0000E+00  0.0000E+00  0.0000E+00
    -22.068  0.0000E+00  0.0000E+00  0.0000E+00  0.0000E+00  0.0000E+00  0.0000E+00  0.0000E+00  0.0000E+00  0.0000E+00  0.0000E+00  0.0000E+00  0.0000E+00  0.0000E+00  0.0000E+00  0.0000E+00  0.0000E+00  0.0000E+00  0.0000E+00
    -21.928  0.0000E+00  0.0000E+00  0.0000E+00  0.0000E+00  0.0000E+00  0.0000E+00  0.0000E+00  0.0000E+00  0.0000E+00  0.0000E+00  0.0000E+00  0.0000E+00  0.0000E+00  0.0000E+00  0.0000E+00  0.0000E+00  0.0000E+00  0.0000E+00
    -21.788  0.0000E+00  0.0000E+00  0.0000E+00  0.0000E+00  0.0000E+00  0.0000E+00  0.0000E+00  0.0000E+00  0.0000E+00  0.0000E+00  0.0000E+00  0.0000E+00  0.0000E+00  0.0000E+00  0.0000E+00  0.0000E+00  0.0000E+00  0.0000E+00
    -21.647  0.0000E+00  0.0000E+00  0.0000E+00  0.0000E+00  0.0000E+00  0.0000E+00  0.0000E+00  0.0000E+00  0.0000E+00  0.0000E+00  0.0000E+00  0.0000E+00  0.0000E+00  0.0000E+00  0.0000E+00  0.0000E+00  0.0000E+00  0.0000E+00
    -21.507  0.0000E+00  0.0000E+00  0.0000E+00  0.0000E+00  0.0000E+00  0.0000E+00  0.0000E+00  0.0000E+00  0.0000E+00  0.0000E+00  0.0000E+00  0.0000E+00  0.0000E+00  0.0000E+00  0.0000E+00  0.0000E+00  0.0000E+00  0.0000E+00
    -21.367  0.0000E+00  0.0000E+00  0.0000E+00  0.0000E+00  0.0000E+00  0.0000E+00  0.0000E+00  0.0000E+00  0.0000E+00  0.0000E+00  0.0000E+00  0.0000E+00  0.0000E+00  0.0000E+00  0.0000E+00  0.0000E+00  0.0000E+00  0.0000E+00
    -21.227  0.0000E+00  0.0000E+00  0.0000E+00  0.0000E+00  0.0000E+00  0.0000E+00  0.0000E+00  0.0000E+00  0.0000E+00  0.0000E+00  0.0000E+00  0.0000E+00  0.0000E+00  0.0000E+00  0.0000E+00  0.0000E+00  0.0000E+00  0.0000E+00
    -21.086  0.0000E+00  0.0000E+00  0.0000E+00  0.0000E+00  0.0000E+00  0.0000E+00  0.0000E+00  0.0000E+00  0.0000E+00  0.0000E+00  0.0000E+00  0.0000E+00  0.0000E+00  0.0000E+00  0.0000E+00  0.0000E+00  0.0000E+00  0.0000E+00
    -20.946  0.0000E+00  0.0000E+00  0.0000E+00  0.0000E+00  0.0000E+00  0.0000E+00  0.0000E+00  0.0000E+00  0.0000E+00  0.0000E+00  0.0000E+00  0.0000E+00  0.0000E+00  0.0000E+00  0.0000E+00  0.0000E+00  0.0000E+00  0.0000E+00
    -20.806  0.0000E+00  0.0000E+00  0.0000E+00  0.0000E+00  0.0000E+00  0.0000E+00  0.0000E+00  0.0000E+00  0.0000E+00  0.0000E+00  0.0000E+00  0.0000E+00  0.0000E+00  0.0000E+00  0.0000E+00  0.0000E+00  0.0000E+00  0.0000E+00
    -20.666  0.0000E+00  0.0000E+00  0.0000E+00  0.0000E+00  0.0000E+00  0.0000E+00  0.0000E+00  0.0000E+00  0.0000E+00  0.0000E+00  0.0000E+00  0.0000E+00  0.0000E+00  0.0000E+00  0.0000E+00  0.0000E+00  0.0000E+00  0.0000E+00
    -20.525  0.0000E+00  0.0000E+00  0.0000E+00  0.0000E+00  0.0000E+00  0.0000E+00  0.0000E+00  0.0000E+00  0.0000E+00  0.0000E+00  0.0000E+00  0.0000E+00  0.0000E+00  0.0000E+00  0.0000E+00  0.0000E+00  0.0000E+00  0.0000E+00
    -20.385  0.0000E+00  0.0000E+00  0.0000E+00  0.0000E+00  0.0000E+00  0.0000E+00  0.0000E+00  0.0000E+00  0.0000E+00  0.0000E+00  0.0000E+00  0.0000E+00  0.0000E+00  0.0000E+00  0.0000E+00  0.0000E+00  0.0000E+00  0.0000E+00
    -20.245  0.0000E+00  0.0000E+00  0.0000E+00  0.0000E+00  0.0000E+00  0.0000E+00  0.0000E+00  0.0000E+00  0.0000E+00  0.0000E+00  0.0000E+00  0.0000E+00  0.0000E+00  0.0000E+00  0.0000E+00  0.0000E+00  0.0000E+00  0.0000E+00
    -20.105  0.0000E+00  0.0000E+00  0.0000E+00  0.0000E+00  0.0000E+00  0.0000E+00  0.0000E+00  0.0000E+00  0.0000E+00  0.0000E+00  0.0000E+00  0.0000E+00  0.0000E+00  0.0000E+00  0.0000E+00  0.0000E+00  0.0000E+00  0.0000E+00
    -19.964  0.0000E+00  0.0000E+00  0.0000E+00  0.0000E+00  0.0000E+00  0.0000E+00  0.0000E+00  0.0000E+00  0.0000E+00  0.0000E+00  0.0000E+00  0.0000E+00  0.0000E+00  0.0000E+00  0.0000E+00  0.0000E+00  0.0000E+00  0.0000E+00
    -19.824  0.0000E+00  0.0000E+00  0.0000E+00  0.0000E+00  0.0000E+00  0.0000E+00  0.0000E+00  0.0000E+00  0.0000E+00  0.0000E+00  0.0000E+00  0.0000E+00  0.0000E+00  0.0000E+00  0.0000E+00  0.0000E+00  0.0000E+00  0.0000E+00
    -19.684  0.0000E+00  0.0000E+00  0.0000E+00  0.0000E+00  0.0000E+00  0.0000E+00  0.0000E+00  0.0000E+00  0.0000E+00  0.0000E+00  0.0000E+00  0.0000E+00  0.0000E+00  0.0000E+00  0.0000E+00  0.0000E+00  0.0000E+00  0.0000E+00