 vasp.6.4.1 05Apr23 (build Jul 24 2024 14:19:02) complex                         
 executed on             LinuxGNU date 2024.10.23  14:28:25
 running    1 mpi-ranks, with   24 threads/rank, on    1 nodes
 distrk:  each k-point on    1 cores,    1 groups
 distr:  one band on NCORE=   1 cores,    1 groups


--------------------------------------------------------------------------------------------------------


 INCAR:
   ISTART = 0
   ALGO = Fast
   EDIFF = 0.0001
   ENCUT = 520
   IBRION = -1
   ISIF = 2
   ISMEAR = -5
   ISPIN = 2
   LASPH = True
   LMAXMIX = 6
   LORBIT = 11
   LREAL = Auto
   LWAVE = False
   MAGMOM = 2*0.6
   NELM = 100
   NSW = 0
   PREC = Accurate
   SIGMA = 0.05

 POTCAR:    PAW_PBE Nb_pv 08Apr2002               
 POTCAR:    PAW_PBE Nb_pv 08Apr2002               
   SHA256 =  bac2b60850b34f8515cf56f9feae68b678e347865051052a0e1f5d2c6a691c0a Nb_pv/POTCAR          
   COPYR  = (c) Copyright 08Apr2002 Georg Kresse                                                    
   COPYR  = This file is part of the software VASP. Any use, copying, and all other rights are regul
   COPYR  = If you do not have a valid VASP license, you may not use, copy or distribute this file. 
   VRHFIN =Nb: 4p5s4d                                                                               
   LEXCH  = PE                                                                                      
   EATOM  =  1043.3917 eV,   76.6871 Ry                                                             
                                                                                                    
   TITEL  = PAW_PBE Nb_pv 08Apr2002                                                                 
   LULTRA =        F    use ultrasoft PP ?                                                          
   IUNSCR =        1    unscreen: 0-lin 1-nonlin 2-no                                               
   RPACOR =    2.200    partial core radius                                                         
   POMASS =   92.000; ZVAL   =   11.000    mass and valenz                                          
   RCORE  =    2.750    outmost cutoff radius                                                       
   RWIGS  =    2.840; RWIGS  =    1.503    wigner-seitz radius (au A)                               
   ENMAX  =  208.608; ENMIN  =  156.456 eV                                                          
   RCLOC  =    2.201    cutoff for local pot                                                        
   LCOR   =        T    correct aug charges                                                         
   LPAW   =        T    paw PP                                                                      
   EAUG   =  355.067                                                                                
   DEXC   =    0.000                                                                                
   RMAX   =    2.804    core radius for proj-oper                                                   
   RAUG   =    1.300    factor for augmentation sphere                                              
   RDEP   =    2.776    radius for radial grids                                                     
   RDEPT  =    2.198    core radius for aug-charge                                                  
                                                                                                    
   Atomic configuration                                                                             
   11 entries                                                                                       
     n  l   j            E        occ.                                                              
     1  0  0.50    -18805.2456   2.0000                                                             
     2  0  0.50     -2630.2869   2.0000                                                             
     2  1  1.50     -2348.4045   6.0000                                                             
     3  0  0.50      -438.8756   2.0000                                                             
     3  1  1.50      -346.7587   6.0000                                                             
     3  2  2.50      -196.2559  10.0000                                                             
     4  0  0.50       -58.3859   2.0000                                                             
     4  1  1.50       -34.5141   6.0000                                                             
     4  2  2.50        -3.0408   4.0000                                                             
     5  0  0.50        -3.9816   1.0000                                                             
     4  3  2.50        -1.3606   0.0000                                                             
   Description                                                                                      
     l       E           TYP  RCUT    TYP  RCUT                                                     
     1    -34.5140617     23  2.600                                                                 
     1     -1.3605826     23  2.600                                                                 
     2     -3.0407924     23  2.600                                                                 
     2     -1.4463597     23  2.600                                                                 
     0     -3.9816219     23  2.750                                                                 
     0     20.4087390     23  2.750                                                                 
  local pseudopotential read in
  partial core-charges read in
  partial kinetic energy density read in
  atomic valenz-charges read in
  non local Contribution for L=           1  read in
    real space projection operators read in
  non local Contribution for L=           1  read in
    real space projection operators read in
  non local Contribution for L=           2  read in
    real space projection operators read in
  non local Contribution for L=           2  read in
    real space projection operators read in
  non local Contribution for L=           0  read in
    real space projection operators read in
  non local Contribution for L=           0  read in
    real space projection operators read in
    PAW grid and wavefunctions read in

   number of l-projection  operators is LMAX  =           6
   number of lm-projection operators is LMMAX =          18

 -----------------------------------------------------------------------------
|                                                                             |
|               ----> ADVICE to this user running VASP <----                  |
|                                                                             |
|     You have a (more or less) 'small supercell' and for smaller cells       |
|     it is recommended to use the reciprocal-space projection scheme!        |
|     The real-space optimization is not efficient for small cells and it     |
|     is also less accurate ...                                               |
|     Therefore, set LREAL=.FALSE. in the INCAR file.                         |
|                                                                             |
 -----------------------------------------------------------------------------

 Optimization of the real space projectors (new method)

 maximal supplied QI-value         = 13.61
 optimisation between [QCUT,QGAM] = [ 11.57, 23.27] = [ 37.45,151.59] Ry 
 Optimized for a Real-space Cutoff    1.63 Angstroem

   l    n(q)    QCUT    max X(q) W(low)/X(q) W(high)/X(q)  e(spline) 
   1     11    11.565     4.545    0.12E-04    0.18E-04    0.64E-07
   1     11    11.565     6.014    0.42E-04    0.48E-04    0.13E-06
   2     10    11.565   266.542    0.24E-03    0.87E-04    0.13E-05
   2     10    11.565   232.726    0.24E-03    0.87E-04    0.13E-05
   0     11    11.565    38.050    0.76E-04    0.32E-05    0.94E-06
   0     11    11.565    16.565    0.58E-04    0.25E-05    0.73E-06
  PAW_PBE Nb_pv 08Apr2002               :
 energy of atom  1       EATOM=-1043.3917
 kinetic energy error for atom=    0.0011 (will be added to EATOM!!)


 POSCAR: Generated POSCAR
  positions in direct lattice
  velocities in cartesian coordinates
 exchange correlation table for  LEXCH =        8
   RHO(1)=    0.500       N(1)  =     2000
   RHO(2)=  100.500       N(2)  =     4000



--------------------------------------------------------------------------------------------------------


 ion  position               nearest neighbor table
   1  0.000  0.000  0.000-   2 2.86   2 2.86   2 2.86   2 2.86   2 2.90   2 2.90   2 2.90   2 2.90

   2  0.500  0.500  0.500-   1 2.86   1 2.86   1 2.86   1 2.86   1 2.90   1 2.90   1 2.90   1 2.90


  LATTYP: Found a base centered orthorhombic cell.
 ALAT       =     4.6508833702
 B/A-ratio  =     1.0202020202
 C/A-ratio  =     0.7142492739
  
  Lattice vectors:
  
 A1 = (  -0.0332189007,   0.0000000000,   3.3218900703)
 A2 = (   3.3218900703,   0.0000000000,  -0.0332189007)
 A3 = (   0.0000000000,   3.3218900703,   0.0000000000)


Analysis of symmetry for initial positions (statically):
=====================================================================
 Subroutine PRICEL returns following result:
 
  LATTYP: Found a face centered orthorhombic cell.
 ALAT       =     3.3218900703
 B/A-ratio  =     1.4000714267
 C/A-ratio  =     1.4283556980
  
  Lattice vectors:
  
 A1 = (   3.3218900703,   0.0000000000,  -0.0332189007)
 A2 = (   1.6775544855,   1.6609450351,  -1.6775544855)
 A3 = (   1.6443355848,   1.6609450351,   1.6443355848)
 
   2 primitive cells build up your supercell.
 

 Routine SETGRP: Setting up the symmetry group for a 
 base centered orthorhombic supercell.


 Subroutine GETGRP returns: Found  8 space group operations
 (whereof  8 operations were pure point group operations)
 out of a pool of  8 trial point group operations.


The static configuration has the point symmetry D_2h.


Analysis of symmetry for dynamics (positions and initial velocities):
=====================================================================
 Subroutine PRICEL returns following result:
 
  LATTYP: Found a face centered orthorhombic cell.
 ALAT       =     3.3218900703
 B/A-ratio  =     1.4000714267
 C/A-ratio  =     1.4283556980
  
  Lattice vectors:
  
 A1 = (   3.3218900703,   0.0000000000,  -0.0332189007)
 A2 = (   1.6775544855,   1.6609450351,  -1.6775544855)
 A3 = (   1.6443355848,   1.6609450351,   1.6443355848)
 
   2 primitive cells build up your supercell.
 

 Routine SETGRP: Setting up the symmetry group for a 
 base centered orthorhombic supercell.


 Subroutine GETGRP returns: Found  8 space group operations
 (whereof  8 operations were pure point group operations)
 out of a pool of  8 trial point group operations.


The dynamic configuration has the point symmetry D_2h.


Analysis of structural, dynamic, and magnetic symmetry:
=====================================================================
 Subroutine PRICEL returns following result:
 
  LATTYP: Found a face centered orthorhombic cell.
 ALAT       =     3.3218900703
 B/A-ratio  =     1.4000714267
 C/A-ratio  =     1.4283556980
  
  Lattice vectors:
  
 A1 = (   3.3218900703,   0.0000000000,  -0.0332189007)
 A2 = (   1.6775544855,   1.6609450351,  -1.6775544855)
 A3 = (   1.6443355848,   1.6609450351,   1.6443355848)
 
   2 primitive cells build up your supercell.
 

 Routine SETGRP: Setting up the symmetry group for a 
 base centered orthorhombic supercell.


 Subroutine GETGRP returns: Found  8 space group operations
 (whereof  8 operations were pure point group operations)
 out of a pool of  8 trial point group operations.


The overall configuration has the point symmetry D_2h.


 Subroutine INISYM returns: Found  8 space group operations
 (whereof  8 operations are pure point group operations),
 and found     2 'primitive' translations


----------------------------------------------------------------------------------------

                                     Primitive cell                                     

  volume of cell :      18.3266

  direct lattice vectors                    reciprocal lattice vectors
     3.321890070  0.000000000 -0.033218901     0.301063548 -0.301033441  0.003010635
     1.677554485  1.660945035 -1.677554485    -0.003010635  0.301033441 -0.301063548
     1.644335585  1.660945035  1.644335585     0.003010635  0.301033441  0.301063548

  length of vectors
     3.322056161  2.896051884  2.857694427     0.425757509  0.425757509  0.425757509

  position of ions in fractional coordinates (direct lattice)
     0.000000000  0.000000000  0.000000000

  ion indices of the primitive-cell ions
   primitive index   ion index
                 1           1

----------------------------------------------------------------------------------------



 KPOINTS: pymatgen with grid density = 869 / numbe

Automatic generation of k-mesh.
 Grid dimensions read from file:
 generate k-points for:    7    7    7

 Generating k-lattice:

  Cartesian coordinates                     Fractional coordinates (reciprocal lattice)
     0.043009078 -0.000000000  0.000430091     0.142857143  0.000000000 -0.000000000
    -0.000000000  0.043004777 -0.000000000     0.000000000  0.142857143  0.000000000
     0.000430091 -0.000000000  0.043009078     0.000000000  0.000000000  0.142857143

  Length of vectors
     0.043011229  0.043004777  0.043011229

  Shift w.r.t. Gamma in fractional coordinates (k-lattice)
     0.000000000  0.000000000  0.000000000

 TETIRR: Found    517 inequivalent tetrahedra from     2058
 
 Subroutine IBZKPT returns following result:
 ===========================================
 
 Found     64 irreducible k-points:
 
 Following reciprocal coordinates:
            Coordinates               Weight
  0.000000  0.000000  0.000000      1.000000
  0.142857  0.000000  0.000000      4.000000
  0.285714  0.000000  0.000000      4.000000
  0.428571  0.000000  0.000000      4.000000
  0.000000  0.142857  0.000000      2.000000
  0.142857  0.142857  0.000000      8.000000
  0.285714  0.142857  0.000000      8.000000
  0.428571  0.142857  0.000000      8.000000
  0.000000  0.285714  0.000000      2.000000
  0.142857  0.285714  0.000000      8.000000
  0.285714  0.285714  0.000000      8.000000
  0.428571  0.285714  0.000000      8.000000
  0.000000  0.428571  0.000000      2.000000
  0.142857  0.428571  0.000000      8.000000
  0.285714  0.428571  0.000000      8.000000
  0.428571  0.428571  0.000000      8.000000
  0.142857  0.000000  0.142857      2.000000
  0.285714  0.000000  0.142857      4.000000
  0.428571  0.000000  0.142857      4.000000
 -0.428571  0.000000  0.142857      4.000000
 -0.285714  0.000000  0.142857      4.000000
 -0.142857  0.000000  0.142857      2.000000
  0.142857  0.142857  0.142857      4.000000
  0.285714  0.142857  0.142857      8.000000
  0.428571  0.142857  0.142857      8.000000
 -0.428571  0.142857  0.142857      8.000000
 -0.285714  0.142857  0.142857      8.000000
 -0.142857  0.142857  0.142857      4.000000
  0.142857  0.285714  0.142857      4.000000
  0.285714  0.285714  0.142857      8.000000
  0.428571  0.285714  0.142857      8.000000
 -0.428571  0.285714  0.142857      8.000000
 -0.285714  0.285714  0.142857      8.000000
 -0.142857  0.285714  0.142857      4.000000
  0.142857  0.428571  0.142857      4.000000
  0.285714  0.428571  0.142857      8.000000
  0.428571  0.428571  0.142857      8.000000
 -0.428571  0.428571  0.142857      8.000000
 -0.285714  0.428571  0.142857      8.000000
 -0.142857  0.428571  0.142857      4.000000
  0.285714  0.000000  0.285714      2.000000
  0.428571  0.000000  0.285714      4.000000
 -0.428571  0.000000  0.285714      4.000000
 -0.285714  0.000000  0.285714      2.000000
  0.285714  0.142857  0.285714      4.000000
  0.428571  0.142857  0.285714      8.000000
 -0.428571  0.142857  0.285714      8.000000
 -0.285714  0.142857  0.285714      4.000000
  0.285714  0.285714  0.285714      4.000000
  0.428571  0.285714  0.285714      8.000000
 -0.428571  0.285714  0.285714      8.000000
 -0.285714  0.285714  0.285714      4.000000
  0.285714  0.428571  0.285714      4.000000
  0.428571  0.428571  0.285714      8.000000
 -0.428571  0.428571  0.285714      8.000000
 -0.285714  0.428571  0.285714      4.000000
  0.428571  0.000000  0.428571      2.000000
 -0.428571  0.000000  0.428571      2.000000
  0.428571  0.142857  0.428571      4.000000
 -0.428571  0.142857  0.428571      4.000000
  0.428571  0.285714  0.428571      4.000000
 -0.428571  0.285714  0.428571      4.000000
  0.428571  0.428571  0.428571      4.000000
 -0.428571  0.428571  0.428571      4.000000
 
 Following cartesian coordinates:
            Coordinates               Weight
  0.000000  0.000000  0.000000      1.000000
  0.043009  0.000000  0.000430      4.000000
  0.086018  0.000000  0.000860      4.000000
  0.129027  0.000000  0.001290      4.000000
  0.000000  0.043005  0.000000      2.000000
  0.043009  0.043005  0.000430      8.000000
  0.086018  0.043005  0.000860      8.000000
  0.129027  0.043005  0.001290      8.000000
  0.000000  0.086010  0.000000      2.000000
  0.043009  0.086010  0.000430      8.000000
  0.086018  0.086010  0.000860      8.000000
  0.129027  0.086010  0.001290      8.000000
  0.000000  0.129014  0.000000      2.000000
  0.043009  0.129014  0.000430      8.000000
  0.086018  0.129014  0.000860      8.000000
  0.129027  0.129014  0.001290      8.000000
  0.043439  0.000000  0.043439      2.000000
  0.086448  0.000000  0.043869      4.000000
  0.129457  0.000000  0.044299      4.000000
 -0.128597  0.000000  0.041719      4.000000
 -0.085588  0.000000  0.042149      4.000000
 -0.042579  0.000000  0.042579      2.000000
  0.043439  0.043005  0.043439      4.000000
  0.086448  0.043005  0.043869      8.000000
  0.129457  0.043005  0.044299      8.000000
 -0.128597  0.043005  0.041719      8.000000
 -0.085588  0.043005  0.042149      8.000000
 -0.042579  0.043005  0.042579      4.000000
  0.043439  0.086010  0.043439      4.000000
  0.086448  0.086010  0.043869      8.000000
  0.129457  0.086010  0.044299      8.000000
 -0.128597  0.086010  0.041719      8.000000
 -0.085588  0.086010  0.042149      8.000000
 -0.042579  0.086010  0.042579      4.000000
  0.043439  0.129014  0.043439      4.000000
  0.086448  0.129014  0.043869      8.000000
  0.129457  0.129014  0.044299      8.000000
 -0.128597  0.129014  0.041719      8.000000
 -0.085588  0.129014  0.042149      8.000000
 -0.042579  0.129014  0.042579      4.000000
  0.086878  0.000000  0.086878      2.000000
  0.129887  0.000000  0.087308      4.000000
 -0.128167  0.000000  0.084728      4.000000
 -0.085158  0.000000  0.085158      2.000000
  0.086878  0.043005  0.086878      4.000000
  0.129887  0.043005  0.087308      8.000000
 -0.128167  0.043005  0.084728      8.000000
 -0.085158  0.043005  0.085158      4.000000
  0.086878  0.086010  0.086878      4.000000
  0.129887  0.086010  0.087308      8.000000
 -0.128167  0.086010  0.084728      8.000000
 -0.085158  0.086010  0.085158      4.000000
  0.086878  0.129014  0.086878      4.000000
  0.129887  0.129014  0.087308      8.000000
 -0.128167  0.129014  0.084728      8.000000
 -0.085158  0.129014  0.085158      4.000000
  0.130318  0.000000  0.130318      2.000000
 -0.127737  0.000000  0.127737      2.000000
  0.130318  0.043005  0.130318      4.000000
 -0.127737  0.043005  0.127737      4.000000
  0.130318  0.086010  0.130318      4.000000
 -0.127737  0.086010  0.127737      4.000000
  0.130318  0.129014  0.130318      4.000000
 -0.127737  0.129014  0.127737      4.000000
 


--------------------------------------------------------------------------------------------------------




 Dimension of arrays:
   k-points           NKPTS =     64   k-points in BZ     NKDIM =     64   number of bands    NBANDS=     16
   number of dos      NEDOS =    301   number of ions     NIONS =      2
   non local maximal  LDIM  =      6   non local SUM 2l+1 LMDIM =     18
   total plane-waves  NPLWV =  21952
   max r-space proj   IRMAX =  10859   max aug-charges    IRDMAX=  37069
   dimension x,y,z NGX =    28 NGY =   28 NGZ =   28
   dimension x,y,z NGXF=    56 NGYF=   56 NGZF=   56
   support grid    NGXF=    56 NGYF=   56 NGZF=   56
   ions per type =               2
   NGX,Y,Z   is equivalent  to a cutoff of  14.01, 14.01, 14.01 a.u.
   NGXF,Y,Z  is equivalent  to a cutoff of  28.02, 28.03, 28.02 a.u.

 SYSTEM =  unknown system                          
 POSCAR =  Generated POSCAR                        

 Startparameter for this run:
   NWRITE =      2    write-flag & timer
   PREC   = accura    normal or accurate (medium, high low for compatibility)
   ISTART =      0    job   : 0-new  1-cont  2-samecut
   ICHARG =      2    charge: 1-file 2-atom 10-const
   ISPIN  =      2    spin polarized calculation?
   LNONCOLLINEAR =      F non collinear calculations
   LSORBIT =      F    spin-orbit coupling
   INIWAV =      1    electr: 0-lowe 1-rand  2-diag
   LASPH  =      T    aspherical Exc in radial PAW
 Electronic Relaxation 1
   ENCUT  =  520.0 eV  38.22 Ry    6.18 a.u.   6.18  6.18  6.18*2*pi/ulx,y,z
   ENINI  =  520.0     initial cutoff
   ENAUG  =  355.1 eV  augmentation charge cutoff
   NELM   =    100;   NELMIN=  2; NELMDL= -5     # of ELM steps 
   EDIFF  = 0.1E-03   stopping-criterion for ELM
   LREAL  =      T    real-space projection
   NLSPLINE    = F    spline interpolate recip. space projectors
   LCOMPAT=      F    compatible to vasp.4.4
   GGA_COMPAT  = T    GGA compatible to vasp.4.4-vasp.4.6
   LMAXPAW     = -100 max onsite density
   LMAXMIX     =    6 max onsite mixed and CHGCAR
   VOSKOWN=      0    Vosko Wilk Nusair interpolation
   ROPT   =   -0.00025
 Ionic relaxation
   EDIFFG = 0.1E-02   stopping-criterion for IOM
   NSW    =      0    number of steps for IOM
   NBLOCK =      1;   KBLOCK =      1    inner block; outer block 
   IBRION =     -1    ionic relax: 0-MD 1-quasi-New 2-CG
   NFREE  =      0    steps in history (QN), initial steepest desc. (CG)
   ISIF   =      2    stress and relaxation
   IWAVPR =     10    prediction:  0-non 1-charg 2-wave 3-comb
   ISYM   =      2    0-nonsym 1-usesym 2-fastsym
   LCORR  =      T    Harris-Foulkes like correction to forces

   POTIM  = 0.5000    time-step for ionic-motion
   TEIN   =    0.0    initial temperature
   TEBEG  =    0.0;   TEEND  =   0.0 temperature during run
   SMASS  =  -3.00    Nose mass-parameter (am)
   estimated Nose-frequenzy (Omega)   =  0.10E-29 period in steps = 0.13E+47 mass=  -0.252E-27a.u.
   SCALEE = 1.0000    scale energy and forces
   NPACO  =    256;   APACO  = 10.0  distance and # of slots for P.C.
   PSTRESS=    0.0 pullay stress

  Mass of Ions in am
   POMASS =  92.00
  Ionic Valenz
   ZVAL   =  11.00
  Atomic Wigner-Seitz radii
   RWIGS  =  -1.00
  virtual crystal weights 
   VCA    =   1.00
   NELECT =      22.0000    total number of electrons
   NUPDOWN=      -1.0000    fix difference up-down

 DOS related values:
   EMIN   =  10.00;   EMAX   =-10.00  energy-range for DOS
   EFERMI =   0.00;   METHOD = LEGACY      
   ISMEAR =    -5;   SIGMA  =   0.05  broadening in eV -4-tet -1-fermi 0-gaus

 Electronic relaxation 2 (details)
   IALGO  =     68    algorithm
   LDIAG  =      T    sub-space diagonalisation (order eigenvalues)
   LSUBROT=      F    optimize rotation matrix (better conditioning)
   TURBO    =      0    0=normal 1=particle mesh
   IRESTART =      0    0=no restart 2=restart with 2 vectors
   NREBOOT  =      0    no. of reboots
   NMIN     =      0    reboot dimension
   EREF     =   0.00    reference energy to select bands
   IMIX   =      4    mixing-type and parameters
     AMIX     =   0.40;   BMIX     =  1.00
     AMIX_MAG =   1.60;   BMIX_MAG =  1.00
     AMIN     =   0.10
     WC   =   100.;   INIMIX=   1;  MIXPRE=   1;  MAXMIX= -45

 Intra band minimization:
   WEIMIN = 0.0000     energy-eigenvalue tresh-hold
   EBREAK =  0.16E-05  absolut break condition
   DEPER  =   0.30     relativ break condition  

   TIME   =   0.40     timestep for ELM

  volume/ion in A,a.u.               =      18.33       123.67
  Fermi-wavevector in a.u.,A,eV,Ry     =   1.380951  2.609619 25.946661  1.907026
  Thomas-Fermi vector in A             =   2.505781

 Write flags
   LWAVE        =      F    write WAVECAR
   LDOWNSAMPLE  =      F    k-point downsampling of WAVECAR
   LCHARG       =      T    write CHGCAR
   LVTOT        =      F    write LOCPOT, total local potential
   LVHAR        =      F    write LOCPOT, Hartree potential only
   LELF         =      F    write electronic localiz. function (ELF)
   LORBIT       =     11    0 simple, 1 ext, 2 COOP (PROOUT), +10 PAW based schemes


 Dipole corrections
   LMONO  =      F    monopole corrections only (constant potential shift)
   LDIPOL =      F    correct potential (dipole corrections)
   IDIPOL =      0    1-x, 2-y, 3-z, 4-all directions 
   EPSILON=  1.0000000 bulk dielectric constant

 Exchange correlation treatment:
   GGA     =    --    GGA type
   LEXCH   =     8    internal setting for exchange type
   LIBXC   =     F    Libxc                    
   VOSKOWN =     0    Vosko Wilk Nusair interpolation
   LHFCALC =     F    Hartree Fock is set to
   LHFONE  =     F    Hartree Fock one center treatment
   AEXX    =    0.0000 exact exchange contribution

 Linear response parameters
   LEPSILON=     F    determine dielectric tensor
   LRPA    =     F    only Hartree local field effects (RPA)
   LNABLA  =     F    use nabla operator in PAW spheres
   LVEL    =     F    velocity operator in full k-point grid
   CSHIFT  =0.1000    complex shift for real part using Kramers Kronig
   OMEGAMAX=  -1.0    maximum frequency
   DEG_THRESHOLD= 0.2000000E-02 threshold for treating states as degnerate
   RTIME   =   -0.100 relaxation time in fs
  (WPLASMAI=    0.000 imaginary part of plasma frequency in eV, 0.658/RTIME)
   DFIELD  = 0.0000000 0.0000000 0.0000000 field for delta impulse in time

  Optional k-point grid parameters
   LKPOINTS_OPT  =     F    use optional k-point grid
   KPOINTS_OPT_MODE=     1    mode for optional k-point grid

 Orbital magnetization related:
   ORBITALMAG=     F  switch on orbital magnetization
   LCHIMAG   =     F  perturbation theory with respect to B field
   DQ        =  0.001000  dq finite difference perturbation B field
   LLRAUG    =     F  two centre corrections for induced B field
   LBONE     =     F  B-component reconstruction in AE one-centre
   LVGVCALC  =     T  calculate vGv susceptibility
   LVGVAPPL  =     F  apply vGv susceptibility instead of pGv for G=0

 Random number generation:
   RANDOM_GENERATOR = DEFAULT
   PCG_SEED         = not used


--------------------------------------------------------------------------------------------------------


 Static calculation
 charge density and potential will be updated during run
 spin polarized calculation
 RMM-DIIS sequential band-by-band and
  variant of blocked Davidson during initial phase
 perform sub-space diagonalisation
    before iterative eigenvector-optimisation
 modified Broyden-mixing scheme, WC =      100.0
 initial mixing is a Kerker type mixing with AMIX =  0.4000 and BMIX =      1.0000
 Hartree-type preconditioning will be used
 using additional bands            5
 real space projection scheme for non local part
 use partial core corrections
 calculate Harris-corrections to forces   (improved forces if not selfconsistent)
 use gradient corrections 
 use of overlap-Matrix (Vanderbilt PP)
 Fermi weights with tetrahedron method with Bloechl corrections


--------------------------------------------------------------------------------------------------------


  energy-cutoff  :      520.00
  volume of cell :       36.65
      direct lattice vectors                 reciprocal lattice vectors
     3.321890070  0.000000000 -0.033218901     0.301063548 -0.000000000  0.003010635
     0.000000000  3.321890070  0.000000000    -0.000000000  0.301033441 -0.000000000
    -0.033218901  0.000000000  3.321890070     0.003010635 -0.000000000  0.301063548

  length of vectors
     3.322056161  3.321890070  3.322056161     0.301078601  0.301033441  0.301078601



 k-points in units of 2pi/SCALE and weight: pymatgen with grid density = 869 / numbe
   0.00000000  0.00000000  0.00000000       0.003
   0.04300908  0.00000000  0.00043009       0.012
   0.08601816  0.00000000  0.00086018       0.012
   0.12902723  0.00000000  0.00129027       0.012
   0.00000000  0.04300478  0.00000000       0.006
   0.04300908  0.04300478  0.00043009       0.023
   0.08601816  0.04300478  0.00086018       0.023
   0.12902723  0.04300478  0.00129027       0.023
   0.00000000  0.08600955  0.00000000       0.006
   0.04300908  0.08600955  0.00043009       0.023
   0.08601816  0.08600955  0.00086018       0.023
   0.12902723  0.08600955  0.00129027       0.023
   0.00000000  0.12901433  0.00000000       0.006
   0.04300908  0.12901433  0.00043009       0.023
   0.08601816  0.12901433  0.00086018       0.023
   0.12902723  0.12901433  0.00129027       0.023
   0.04343917  0.00000000  0.04343917       0.006
   0.08644825  0.00000000  0.04386926       0.012
   0.12945733  0.00000000  0.04429935       0.012
  -0.12859714  0.00000000  0.04171881       0.012
  -0.08558807  0.00000000  0.04214890       0.012
  -0.04257899  0.00000000  0.04257899       0.006
   0.04343917  0.04300478  0.04343917       0.012
   0.08644825  0.04300478  0.04386926       0.023
   0.12945733  0.04300478  0.04429935       0.023
  -0.12859714  0.04300478  0.04171881       0.023
  -0.08558807  0.04300478  0.04214890       0.023
  -0.04257899  0.04300478  0.04257899       0.012
   0.04343917  0.08600955  0.04343917       0.012
   0.08644825  0.08600955  0.04386926       0.023
   0.12945733  0.08600955  0.04429935       0.023
  -0.12859714  0.08600955  0.04171881       0.023
  -0.08558807  0.08600955  0.04214890       0.023
  -0.04257899  0.08600955  0.04257899       0.012
   0.04343917  0.12901433  0.04343917       0.012
   0.08644825  0.12901433  0.04386926       0.023
   0.12945733  0.12901433  0.04429935       0.023
  -0.12859714  0.12901433  0.04171881       0.023
  -0.08558807  0.12901433  0.04214890       0.023
  -0.04257899  0.12901433  0.04257899       0.012
   0.08687834  0.00000000  0.08687834       0.006
   0.12988742  0.00000000  0.08730843       0.012
  -0.12816705  0.00000000  0.08472788       0.012
  -0.08515797  0.00000000  0.08515797       0.006
   0.08687834  0.04300478  0.08687834       0.012
   0.12988742  0.04300478  0.08730843       0.023
  -0.12816705  0.04300478  0.08472788       0.023
  -0.08515797  0.04300478  0.08515797       0.012
   0.08687834  0.08600955  0.08687834       0.012
   0.12988742  0.08600955  0.08730843       0.023
  -0.12816705  0.08600955  0.08472788       0.023
  -0.08515797  0.08600955  0.08515797       0.012
   0.08687834  0.12901433  0.08687834       0.012
   0.12988742  0.12901433  0.08730843       0.023
  -0.12816705  0.12901433  0.08472788       0.023
  -0.08515797  0.12901433  0.08515797       0.012
   0.13031751  0.00000000  0.13031751       0.006
  -0.12773696  0.00000000  0.12773696       0.006
   0.13031751  0.04300478  0.13031751       0.012
  -0.12773696  0.04300478  0.12773696       0.012
   0.13031751  0.08600955  0.13031751       0.012
  -0.12773696  0.08600955  0.12773696       0.012
   0.13031751  0.12901433  0.13031751       0.012
  -0.12773696  0.12901433  0.12773696       0.012

 k-points in reciprocal lattice and weights: pymatgen with grid density = 869 / numbe
   0.00000000  0.00000000  0.00000000       0.003
   0.14285714  0.00000000  0.00000000       0.012
   0.28571429  0.00000000  0.00000000       0.012
   0.42857143  0.00000000  0.00000000       0.012
   0.00000000  0.14285714  0.00000000       0.006
   0.14285714  0.14285714  0.00000000       0.023
   0.28571429  0.14285714  0.00000000       0.023
   0.42857143  0.14285714  0.00000000       0.023
   0.00000000  0.28571429  0.00000000       0.006
   0.14285714  0.28571429  0.00000000       0.023
   0.28571429  0.28571429  0.00000000       0.023
   0.42857143  0.28571429  0.00000000       0.023
   0.00000000  0.42857143  0.00000000       0.006
   0.14285714  0.42857143  0.00000000       0.023
   0.28571429  0.42857143  0.00000000       0.023
   0.42857143  0.42857143  0.00000000       0.023
   0.14285714  0.00000000  0.14285714       0.006
   0.28571429  0.00000000  0.14285714       0.012
   0.42857143  0.00000000  0.14285714       0.012
  -0.42857143  0.00000000  0.14285714       0.012
  -0.28571429  0.00000000  0.14285714       0.012
  -0.14285714  0.00000000  0.14285714       0.006
   0.14285714  0.14285714  0.14285714       0.012
   0.28571429  0.14285714  0.14285714       0.023
   0.42857143  0.14285714  0.14285714       0.023
  -0.42857143  0.14285714  0.14285714       0.023
  -0.28571429  0.14285714  0.14285714       0.023
  -0.14285714  0.14285714  0.14285714       0.012
   0.14285714  0.28571429  0.14285714       0.012
   0.28571429  0.28571429  0.14285714       0.023
   0.42857143  0.28571429  0.14285714       0.023
  -0.42857143  0.28571429  0.14285714       0.023
  -0.28571429  0.28571429  0.14285714       0.023
  -0.14285714  0.28571429  0.14285714       0.012
   0.14285714  0.42857143  0.14285714       0.012
   0.28571429  0.42857143  0.14285714       0.023
   0.42857143  0.42857143  0.14285714       0.023
  -0.42857143  0.42857143  0.14285714       0.023
  -0.28571429  0.42857143  0.14285714       0.023
  -0.14285714  0.42857143  0.14285714       0.012
   0.28571429  0.00000000  0.28571429       0.006
   0.42857143  0.00000000  0.28571429       0.012
  -0.42857143  0.00000000  0.28571429       0.012
  -0.28571429  0.00000000  0.28571429       0.006
   0.28571429  0.14285714  0.28571429       0.012
   0.42857143  0.14285714  0.28571429       0.023
  -0.42857143  0.14285714  0.28571429       0.023
  -0.28571429  0.14285714  0.28571429       0.012
   0.28571429  0.28571429  0.28571429       0.012
   0.42857143  0.28571429  0.28571429       0.023
  -0.42857143  0.28571429  0.28571429       0.023
  -0.28571429  0.28571429  0.28571429       0.012
   0.28571429  0.42857143  0.28571429       0.012
   0.42857143  0.42857143  0.28571429       0.023
  -0.42857143  0.42857143  0.28571429       0.023
  -0.28571429  0.42857143  0.28571429       0.012
   0.42857143  0.00000000  0.42857143       0.006
  -0.42857143  0.00000000  0.42857143       0.006
   0.42857143  0.14285714  0.42857143       0.012
  -0.42857143  0.14285714  0.42857143       0.012
   0.42857143  0.28571429  0.42857143       0.012
  -0.42857143  0.28571429  0.42857143       0.012
   0.42857143  0.42857143  0.42857143       0.012
  -0.42857143  0.42857143  0.42857143       0.012

 position of ions in fractional coordinates (direct lattice) 
   0.00000000  0.00000000  0.00000000
   0.50000000  0.50000000  0.50000000

 position of ions in cartesian coordinates  (Angst):
   0.00000000  0.00000000  0.00000000
   1.64433558  1.66094504  1.64433558



--------------------------------------------------------------------------------------------------------


 k-point   1 :   0.0000 0.0000 0.0000  plane waves:     989
 k-point   2 :   0.1429 0.0000 0.0000  plane waves:     984
 k-point   3 :   0.2857 0.0000 0.0000  plane waves:     986
 k-point   4 :   0.4286 0.0000 0.0000  plane waves:     986
 k-point   5 :   0.0000 0.1429 0.0000  plane waves:     989
 k-point   6 :   0.1429 0.1429 0.0000  plane waves:     978
 k-point   7 :   0.2857 0.1429 0.0000  plane waves:     987
 k-point   8 :   0.4286 0.1429 0.0000  plane waves:     986
 k-point   9 :   0.0000 0.2857 0.0000  plane waves:     988
 k-point  10 :   0.1429 0.2857 0.0000  plane waves:     987
 k-point  11 :   0.2857 0.2857 0.0000  plane waves:     992
 k-point  12 :   0.4286 0.2857 0.0000  plane waves:     984
 k-point  13 :   0.0000 0.4286 0.0000  plane waves:     992
 k-point  14 :   0.1429 0.4286 0.0000  plane waves:     987
 k-point  15 :   0.2857 0.4286 0.0000  plane waves:     982
 k-point  16 :   0.4286 0.4286 0.0000  plane waves:     993
 k-point  17 :   0.1429 0.0000 0.1429  plane waves:     985
 k-point  18 :   0.2857 0.0000 0.1429  plane waves:     985
 k-point  19 :   0.4286 0.0000 0.1429  plane waves:     983
 k-point  20 :  -0.4286 0.0000 0.1429  plane waves:     987
 k-point  21 :  -0.2857 0.0000 0.1429  plane waves:     989
 k-point  22 :  -0.1429 0.0000 0.1429  plane waves:     983
 k-point  23 :   0.1429 0.1429 0.1429  plane waves:     973
 k-point  24 :   0.2857 0.1429 0.1429  plane waves:     980
 k-point  25 :   0.4286 0.1429 0.1429  plane waves:     983
 k-point  26 :  -0.4286 0.1429 0.1429  plane waves:     984
 k-point  27 :  -0.2857 0.1429 0.1429  plane waves:     992
 k-point  28 :  -0.1429 0.1429 0.1429  plane waves:     981
 k-point  29 :   0.1429 0.2857 0.1429  plane waves:     979
 k-point  30 :   0.2857 0.2857 0.1429  plane waves:     984
 k-point  31 :   0.4286 0.2857 0.1429  plane waves:     992
 k-point  32 :  -0.4286 0.2857 0.1429  plane waves:     987
 k-point  33 :  -0.2857 0.2857 0.1429  plane waves:     992
 k-point  34 :  -0.1429 0.2857 0.1429  plane waves:     990
 k-point  35 :   0.1429 0.4286 0.1429  plane waves:     982
 k-point  36 :   0.2857 0.4286 0.1429  plane waves:     984
 k-point  37 :   0.4286 0.4286 0.1429  plane waves:     994
 k-point  38 :  -0.4286 0.4286 0.1429  plane waves:     990
 k-point  39 :  -0.2857 0.4286 0.1429  plane waves:     986
 k-point  40 :  -0.1429 0.4286 0.1429  plane waves:     992
 k-point  41 :   0.2857 0.0000 0.2857  plane waves:     987
 k-point  42 :   0.4286 0.0000 0.2857  plane waves:     982
 k-point  43 :  -0.4286 0.0000 0.2857  plane waves:     983
 k-point  44 :  -0.2857 0.0000 0.2857  plane waves:     989
 k-point  45 :   0.2857 0.1429 0.2857  plane waves:     986
 k-point  46 :   0.4286 0.1429 0.2857  plane waves:     992
 k-point  47 :  -0.4286 0.1429 0.2857  plane waves:     986
 k-point  48 :  -0.2857 0.1429 0.2857  plane waves:     993
 k-point  49 :   0.2857 0.2857 0.2857  plane waves:     989
 k-point  50 :   0.4286 0.2857 0.2857  plane waves:     986
 k-point  51 :  -0.4286 0.2857 0.2857  plane waves:     987
 k-point  52 :  -0.2857 0.2857 0.2857  plane waves:     987
 k-point  53 :   0.2857 0.4286 0.2857  plane waves:     990
 k-point  54 :   0.4286 0.4286 0.2857  plane waves:     992
 k-point  55 :  -0.4286 0.4286 0.2857  plane waves:     991
 k-point  56 :  -0.2857 0.4286 0.2857  plane waves:     987
 k-point  57 :   0.4286 0.0000 0.4286  plane waves:     984
 k-point  58 :  -0.4286 0.0000 0.4286  plane waves:     992
 k-point  59 :   0.4286 0.1429 0.4286  plane waves:     985
 k-point  60 :  -0.4286 0.1429 0.4286  plane waves:     993
 k-point  61 :   0.4286 0.2857 0.4286  plane waves:     991
 k-point  62 :  -0.4286 0.2857 0.4286  plane waves:     991
 k-point  63 :   0.4286 0.4286 0.4286  plane waves:     997
 k-point  64 :  -0.4286 0.4286 0.4286  plane waves:     990

 maximum and minimum number of plane-waves per node :       997      973

 maximum number of plane-waves:       997
 maximum index in each direction: 
   IXMAX=    6   IYMAX=    6   IZMAX=    6
   IXMIN=   -6   IYMIN=   -6   IZMIN=   -6


 serial   3D FFT for wavefunctions
 parallel 3D FFT for charge:
    minimum data exchange during FFTs selected (reduces bandwidth)


 total amount of memory used by VASP MPI-rank0    91145. kBytes
=======================================================================

   base      :      30000. kBytes
   nonlr-proj:       6266. kBytes
   fftplans  :       6192. kBytes
   grid      :      14776. kBytes
   one-center:         62. kBytes
   wavefun   :      33849. kBytes

     INWAV:  cpu time      0.0003: real time      0.0000
 Broyden mixing: mesh for mixing (old mesh)
   NGX = 13   NGY = 13   NGZ = 13
  (NGX  = 56   NGY  = 56   NGZ  = 56)
  gives a total of   2197 points

 initial charge density was supplied:
 charge density of overlapping atoms calculated
 number of electron      22.0000000 magnetization       1.2000000
 keeping initial charge density in first step


--------------------------------------------------------------------------------------------------------


 Maximum index for non-local projection operator         1138
 Maximum index for augmentation-charges        35805 (set IRDMAX)


--------------------------------------------------------------------------------------------------------


 First call to EWALD:  gamma=   0.534
 Maximum number of real-space cells 3x 3x 3
 Maximum number of reciprocal cells 3x 3x 3

    FEWALD:  cpu time      0.1470: real time      0.0080


--------------------------------------- Ionic step        1  -------------------------------------------




--------------------------------------- Iteration      1(   1)  ---------------------------------------


    POTLOK:  cpu time      1.6574: real time      0.1253
    SETDIJ:  cpu time      1.1527: real time      0.2564
     EDDAV:  cpu time    387.1518: real time     21.7272
 BZINTS: Fermi energy:   23.680667;   22.000000 electrons
         Band energy:-0.298774E+02;  BLOECHL correction:   -0.577219
       DOS:  cpu time      0.2495: real time      0.0302
    --------------------------------------------
      LOOP:  cpu time    390.2115: real time     22.1392

 eigenvalue-minimisations  :  4456
 total energy-change (2. order) : 0.2001710E+03  (-0.1168993E+04)
 number of electron      22.0000000 magnetization       1.2000000
 augmentation part       22.0000000 magnetization       1.2000000

 Free energy of the ion-electron system (eV)
  ---------------------------------------------------
  alpha Z        PSCENC =       247.02244180
  Ewald energy   TEWEN  =     -1908.81069913
  -Hartree energ DENC   =      -279.47105396
  -exchange      EXHF   =         0.00000000
  -V(xc)+E(xc)   XCENC  =        52.61804104
  PAW double counting   =      1671.32378679    -1639.41528309
  entropy T*S    EENTRO =         0.00000000
  eigenvalues    EBANDS =       -29.87743788
  atomic energy  EATOM  =      2086.78124273
  Solvation  Ediel_sol  =         0.00000000
  ---------------------------------------------------
  free energy    TOTEN  =       200.17103830 eV

  energy without entropy =      200.17103830  energy(sigma->0) =      200.17103830


--------------------------------------------------------------------------------------------------------




--------------------------------------- Iteration      1(   2)  ---------------------------------------


     EDDAV:  cpu time    512.6818: real time     27.3346
 BZINTS: Fermi energy:    6.973160;   22.000000 electrons
         Band energy:-0.241172E+03;  BLOECHL correction:   -0.385791
       DOS:  cpu time      0.3184: real time      0.0281
    --------------------------------------------
      LOOP:  cpu time    513.0002: real time     27.3627

 eigenvalue-minimisations  :  4408
 total energy-change (2. order) :-0.2112946E+03  (-0.2088275E+03)
 number of electron      22.0000000 magnetization       1.2000000
 augmentation part       22.0000000 magnetization       1.2000000

 Free energy of the ion-electron system (eV)
  ---------------------------------------------------
  alpha Z        PSCENC =       247.02244180
  Ewald energy   TEWEN  =     -1908.81069913
  -Hartree energ DENC   =      -279.47105396
  -exchange      EXHF   =         0.00000000
  -V(xc)+E(xc)   XCENC  =        52.61804104
  PAW double counting   =      1671.32378679    -1639.41528309
  entropy T*S    EENTRO =         0.00000000
  eigenvalues    EBANDS =      -241.17203752
  atomic energy  EATOM  =      2086.78124273
  Solvation  Ediel_sol  =         0.00000000
  ---------------------------------------------------
  free energy    TOTEN  =       -11.12356134 eV

  energy without entropy =      -11.12356134  energy(sigma->0) =      -11.12356134


--------------------------------------------------------------------------------------------------------




--------------------------------------- Iteration      1(   3)  ---------------------------------------


     EDDAV:  cpu time    600.4970: real time     32.8948
 BZINTS: Fermi energy:    5.463812;   22.000000 electrons
         Band energy:-0.251019E+03;  BLOECHL correction:   -0.207919
       DOS:  cpu time      0.2668: real time      0.0363
    --------------------------------------------
      LOOP:  cpu time    600.7638: real time     32.9311

 eigenvalue-minimisations  :  6872
 total energy-change (2. order) :-0.9847331E+01  (-0.9357129E+01)
 number of electron      22.0000000 magnetization       1.2000000
 augmentation part       22.0000000 magnetization       1.2000000

 Free energy of the ion-electron system (eV)
  ---------------------------------------------------
  alpha Z        PSCENC =       247.02244180
  Ewald energy   TEWEN  =     -1908.81069913
  -Hartree energ DENC   =      -279.47105396
  -exchange      EXHF   =         0.00000000
  -V(xc)+E(xc)   XCENC  =        52.61804104
  PAW double counting   =      1671.32378679    -1639.41528309
  entropy T*S    EENTRO =         0.00000000
  eigenvalues    EBANDS =      -251.01936869
  atomic energy  EATOM  =      2086.78124273
  Solvation  Ediel_sol  =         0.00000000
  ---------------------------------------------------
  free energy    TOTEN  =       -20.97089251 eV

  energy without entropy =      -20.97089251  energy(sigma->0) =      -20.97089251


--------------------------------------------------------------------------------------------------------




--------------------------------------- Iteration      1(   4)  ---------------------------------------


     EDDAV:  cpu time    417.2774: real time     23.4706
 BZINTS: Fermi energy:    5.444026;   22.000000 electrons
         Band energy:-0.251193E+03;  BLOECHL correction:   -0.207728
       DOS:  cpu time      0.3083: real time      0.0307
    --------------------------------------------
      LOOP:  cpu time    417.5857: real time     23.5013

 eigenvalue-minimisations  :  5104
 total energy-change (2. order) :-0.1738970E+00  (-0.1716773E+00)
 number of electron      22.0000000 magnetization       1.2000000
 augmentation part       22.0000000 magnetization       1.2000000

 Free energy of the ion-electron system (eV)
  ---------------------------------------------------
  alpha Z        PSCENC =       247.02244180
  Ewald energy   TEWEN  =     -1908.81069913
  -Hartree energ DENC   =      -279.47105396
  -exchange      EXHF   =         0.00000000
  -V(xc)+E(xc)   XCENC  =        52.61804104
  PAW double counting   =      1671.32378679    -1639.41528309
  entropy T*S    EENTRO =         0.00000000
  eigenvalues    EBANDS =      -251.19326571
  atomic energy  EATOM  =      2086.78124273
  Solvation  Ediel_sol  =         0.00000000
  ---------------------------------------------------
  free energy    TOTEN  =       -21.14478953 eV

  energy without entropy =      -21.14478953  energy(sigma->0) =      -21.14478953


--------------------------------------------------------------------------------------------------------




--------------------------------------- Iteration      1(   5)  ---------------------------------------


     EDDAV:  cpu time   2798.9029: real time    131.7840
 BZINTS: Fermi energy:    5.443085;   22.000000 electrons
         Band energy:-0.251198E+03;  BLOECHL correction:   -0.207687
       DOS:  cpu time      0.2487: real time      0.0294
    CHARGE:  cpu time    317.7495: real time     14.9685
    MIXING:  cpu time      0.0017: real time      0.0017
    --------------------------------------------
      LOOP:  cpu time   3116.9028: real time    146.7835

 eigenvalue-minimisations  :  6400
 total energy-change (2. order) :-0.4712660E-02  (-0.4642638E-02)
 number of electron      22.0000001 magnetization       0.3424338
 augmentation part        7.7579525 magnetization      -0.0593237

 Broyden mixing:
  rms(total) = 0.24010E+01    rms(broyden)= 0.24010E+01
  rms(prec ) = 0.28257E+01
  weight for this iteration     100.00

 Free energy of the ion-electron system (eV)
  ---------------------------------------------------
  alpha Z        PSCENC =       247.02244180
  Ewald energy   TEWEN  =     -1908.81069913
  -Hartree energ DENC   =      -279.47105396
  -exchange      EXHF   =         0.00000000
  -V(xc)+E(xc)   XCENC  =        52.61804104
  PAW double counting   =      1671.32378679    -1639.41528309
  entropy T*S    EENTRO =         0.00000000
  eigenvalues    EBANDS =      -251.19797837
  atomic energy  EATOM  =      2086.78124273
  Solvation  Ediel_sol  =         0.00000000
  ---------------------------------------------------
  free energy    TOTEN  =       -21.14950219 eV

  energy without entropy =      -21.14950219  energy(sigma->0) =      -21.14950219


--------------------------------------------------------------------------------------------------------




--------------------------------------- Iteration      1(   6)  ---------------------------------------


    POTLOK:  cpu time      1.9931: real time      0.1477
    SETDIJ:  cpu time      1.0556: real time      0.2573
    EDDIAG:  cpu time     74.2943: real time      4.2167
  RMM-DIIS:  cpu time    220.3243: real time     12.2951
    ORTHCH:  cpu time      1.4198: real time      0.0822
 BZINTS: Fermi energy:    5.093454;   22.000000 electrons
         Band energy:-0.265227E+03;  BLOECHL correction:   -0.210250
       DOS:  cpu time      0.2524: real time      0.0307
    CHARGE:  cpu time     22.9882: real time      1.3153
    MIXING:  cpu time      0.0018: real time      0.0018
    --------------------------------------------
      LOOP:  cpu time    322.3294: real time     18.3466

 eigenvalue-minimisations  :  4484
 total energy-change (2. order) : 0.8022871E+00  (-0.7994974E-01)
 number of electron      22.0000001 magnetization       0.1512987
 augmentation part        7.8849491 magnetization      -0.0574888

 Broyden mixing:
  rms(total) = 0.91319E+00    rms(broyden)= 0.91319E+00
  rms(prec ) = 0.11957E+01
  weight for this iteration     100.00

 eigenvalues of (default mixing * dielectric matrix)
  average eigenvalue GAMMA=   1.5006
  1.5006

 Free energy of the ion-electron system (eV)
  ---------------------------------------------------
  alpha Z        PSCENC =       247.02244180
  Ewald energy   TEWEN  =     -1908.81069913
  -Hartree energ DENC   =      -260.13342216
  -exchange      EXHF   =         0.00000000
  -V(xc)+E(xc)   XCENC  =        51.60349770
  PAW double counting   =      2187.02394136    -2158.60718003
  entropy T*S    EENTRO =         0.00000000
  eigenvalues    EBANDS =      -265.22703739
  atomic energy  EATOM  =      2086.78124273
  Solvation  Ediel_sol  =         0.00000000
  ---------------------------------------------------
  free energy    TOTEN  =       -20.34721512 eV

  energy without entropy =      -20.34721512  energy(sigma->0) =      -20.34721512


--------------------------------------------------------------------------------------------------------




--------------------------------------- Iteration      1(   7)  ---------------------------------------


    POTLOK:  cpu time      1.1150: real time      0.0916
    SETDIJ:  cpu time      1.0367: real time      0.2567
    EDDIAG:  cpu time     69.1300: real time      4.0120
  RMM-DIIS:  cpu time    277.9088: real time     15.4523
    ORTHCH:  cpu time      1.5711: real time      0.0950
 BZINTS: Fermi energy:    4.800746;   22.000000 electrons
         Band energy:-0.276994E+03;  BLOECHL correction:   -0.207901
       DOS:  cpu time      0.3164: real time      0.0311
    CHARGE:  cpu time     24.1930: real time      1.3863
    MIXING:  cpu time      0.0017: real time      0.0017
    --------------------------------------------
      LOOP:  cpu time    375.2725: real time     21.3266

 eigenvalue-minimisations  :  5566
 total energy-change (2. order) : 0.1474273E+00  (-0.2149801E+00)
 number of electron      22.0000001 magnetization       0.0318899
 augmentation part        8.0572011 magnetization       0.0342129

 Broyden mixing:
  rms(total) = 0.24450E+00    rms(broyden)= 0.24450E+00
  rms(prec ) = 0.26293E+00
  weight for this iteration     100.00

 eigenvalues of (default mixing * dielectric matrix)
  average eigenvalue GAMMA=   1.0760
  1.6166  0.5354

 Free energy of the ion-electron system (eV)
  ---------------------------------------------------
  alpha Z        PSCENC =       247.02244180
  Ewald energy   TEWEN  =     -1908.81069913
  -Hartree energ DENC   =      -244.42257764
  -exchange      EXHF   =         0.00000000
  -V(xc)+E(xc)   XCENC  =        50.82274719
  PAW double counting   =      2617.89862873    -2592.49717014
  entropy T*S    EENTRO =         0.00000000
  eigenvalues    EBANDS =      -276.99440135
  atomic energy  EATOM  =      2086.78124273
  Solvation  Ediel_sol  =         0.00000000
  ---------------------------------------------------
  free energy    TOTEN  =       -20.19978781 eV

  energy without entropy =      -20.19978781  energy(sigma->0) =      -20.19978781


--------------------------------------------------------------------------------------------------------




--------------------------------------- Iteration      1(   8)  ---------------------------------------


    POTLOK:  cpu time      1.7369: real time      0.1326
    SETDIJ:  cpu time      1.2536: real time      0.2573
    EDDIAG:  cpu time     76.6960: real time      4.3346
  RMM-DIIS:  cpu time    269.2815: real time     15.1499
    ORTHCH:  cpu time      1.3660: real time      0.0826
 BZINTS: Fermi energy:    4.811744;   22.000000 electrons
         Band energy:-0.276457E+03;  BLOECHL correction:   -0.208043
       DOS:  cpu time      0.2212: real time      0.0314
    CHARGE:  cpu time     26.1636: real time      1.5039
    MIXING:  cpu time      0.0014: real time      0.0014
    --------------------------------------------
      LOOP:  cpu time    376.7201: real time     21.4937

 eigenvalue-minimisations  :  5992
 total energy-change (2. order) :-0.1138727E-01  (-0.1068940E-01)
 number of electron      22.0000001 magnetization       0.0195947
 augmentation part        8.0639375 magnetization       0.0145322

 Broyden mixing:
  rms(total) = 0.11857E+00    rms(broyden)= 0.11857E+00
  rms(prec ) = 0.14663E+00
  weight for this iteration     100.00

 eigenvalues of (default mixing * dielectric matrix)
  average eigenvalue GAMMA=   1.0687
  1.8355  0.6853  0.6853

 Free energy of the ion-electron system (eV)
  ---------------------------------------------------
  alpha Z        PSCENC =       247.02244180
  Ewald energy   TEWEN  =     -1908.81069913
  -Hartree energ DENC   =      -244.76143238
  -exchange      EXHF   =         0.00000000
  -V(xc)+E(xc)   XCENC  =        50.83271747
  PAW double counting   =      2666.12589093    -2640.94402134
  entropy T*S    EENTRO =         0.00000000
  eigenvalues    EBANDS =      -276.45731516
  atomic energy  EATOM  =      2086.78124273
  Solvation  Ediel_sol  =         0.00000000
  ---------------------------------------------------
  free energy    TOTEN  =       -20.21117508 eV

  energy without entropy =      -20.21117508  energy(sigma->0) =      -20.21117508


--------------------------------------------------------------------------------------------------------




--------------------------------------- Iteration      1(   9)  ---------------------------------------


    POTLOK:  cpu time      2.1886: real time      0.1490
    SETDIJ:  cpu time      1.2152: real time      0.2610
    EDDIAG:  cpu time     72.1865: real time      4.1519
  RMM-DIIS:  cpu time    375.5543: real time     19.8357
    ORTHCH:  cpu time      1.8141: real time      0.1060
 BZINTS: Fermi energy:    4.820576;   22.000000 electrons
         Band energy:-0.276043E+03;  BLOECHL correction:   -0.208176
       DOS:  cpu time      0.2306: real time      0.0264
    CHARGE:  cpu time     25.0749: real time      1.4385
    MIXING:  cpu time      0.0014: real time      0.0014
    --------------------------------------------
      LOOP:  cpu time    478.2656: real time     25.9700

 eigenvalue-minimisations  :  5951
 total energy-change (2. order) : 0.7048849E-04  (-0.2426682E-02)
 number of electron      22.0000001 magnetization       0.0171121
 augmentation part        8.0641859 magnetization       0.0161176

 Broyden mixing:
  rms(total) = 0.95736E-01    rms(broyden)= 0.95736E-01
  rms(prec ) = 0.12238E+00
  weight for this iteration     100.00

 eigenvalues of (default mixing * dielectric matrix)
  average eigenvalue GAMMA=   1.0935
  2.0903  0.8402  0.8402  0.6033

 Free energy of the ion-electron system (eV)
  ---------------------------------------------------
  alpha Z        PSCENC =       247.02244180
  Ewald energy   TEWEN  =     -1908.81069913
  -Hartree energ DENC   =      -245.11554261
  -exchange      EXHF   =         0.00000000
  -V(xc)+E(xc)   XCENC  =        50.84915540
  PAW double counting   =      2706.55928630    -2681.45392144
  entropy T*S    EENTRO =         0.00000000
  eigenvalues    EBANDS =      -276.04306764
  atomic energy  EATOM  =      2086.78124273
  Solvation  Ediel_sol  =         0.00000000
  ---------------------------------------------------
  free energy    TOTEN  =       -20.21110459 eV

  energy without entropy =      -20.21110459  energy(sigma->0) =      -20.21110459


--------------------------------------------------------------------------------------------------------




--------------------------------------- Iteration      1(  10)  ---------------------------------------


    POTLOK:  cpu time      1.2715: real time      0.1036
    SETDIJ:  cpu time      1.1083: real time      0.2571
    EDDIAG:  cpu time     70.7399: real time      4.0599
  RMM-DIIS:  cpu time    231.9846: real time     12.9306
    ORTHCH:  cpu time      0.9908: real time      0.0686
 BZINTS: Fermi energy:    4.842402;   22.000000 electrons
         Band energy:-0.275075E+03;  BLOECHL correction:   -0.208487
       DOS:  cpu time      0.3431: real time      0.0301
    CHARGE:  cpu time     27.2321: real time      1.5239
    MIXING:  cpu time      0.0021: real time      0.0021
    --------------------------------------------
      LOOP:  cpu time    333.6724: real time     18.9760

 eigenvalue-minimisations  :  4728
 total energy-change (2. order) : 0.3411289E-02  (-0.5968596E-03)
 number of electron      22.0000001 magnetization      -0.0062257
 augmentation part        8.0557292 magnetization      -0.0022308

 Broyden mixing:
  rms(total) = 0.67684E-01    rms(broyden)= 0.67684E-01
  rms(prec ) = 0.74849E-01
  weight for this iteration     100.00

 eigenvalues of (default mixing * dielectric matrix)
  average eigenvalue GAMMA=   1.3529
  2.6534  1.3619  1.3619  0.6294  0.7581

 Free energy of the ion-electron system (eV)
  ---------------------------------------------------
  alpha Z        PSCENC =       247.02244180
  Ewald energy   TEWEN  =     -1908.81069913
  -Hartree energ DENC   =      -246.06439223
  -exchange      EXHF   =         0.00000000
  -V(xc)+E(xc)   XCENC  =        50.89440787
  PAW double counting   =      2784.22014924    -2759.17605698
  entropy T*S    EENTRO =         0.00000000
  eigenvalues    EBANDS =      -275.07478661
  atomic energy  EATOM  =      2086.78124273
  Solvation  Ediel_sol  =         0.00000000
  ---------------------------------------------------
  free energy    TOTEN  =       -20.20769330 eV

  energy without entropy =      -20.20769330  energy(sigma->0) =      -20.20769330


--------------------------------------------------------------------------------------------------------




--------------------------------------- Iteration      1(  11)  ---------------------------------------


    POTLOK:  cpu time      1.8907: real time      0.1440
    SETDIJ:  cpu time      1.1899: real time      0.2594
    EDDIAG:  cpu time     89.3269: real time      4.9981
  RMM-DIIS:  cpu time    307.3266: real time     16.6188
    ORTHCH:  cpu time      1.6466: real time      0.1009
 BZINTS: Fermi energy:    4.853757;   22.000000 electrons
         Band energy:-0.274562E+03;  BLOECHL correction:   -0.208639
       DOS:  cpu time      0.3189: real time      0.0267
    CHARGE:  cpu time     21.2376: real time      1.2565
    MIXING:  cpu time      0.0014: real time      0.0014
    --------------------------------------------
      LOOP:  cpu time    422.9387: real time     23.4059

 eigenvalue-minimisations  :  5428
 total energy-change (2. order) :-0.1042423E-03  (-0.5341545E-03)
 number of electron      22.0000001 magnetization      -0.0045827
 augmentation part        8.0492174 magnetization      -0.0003604

 Broyden mixing:
  rms(total) = 0.45069E-02    rms(broyden)= 0.45069E-02
  rms(prec ) = 0.52036E-02
  weight for this iteration     100.00

 eigenvalues of (default mixing * dielectric matrix)
  average eigenvalue GAMMA=   1.2698
  2.5979  1.4502  1.4502  0.7890  0.6190  0.7127

 Free energy of the ion-electron system (eV)
  ---------------------------------------------------
  alpha Z        PSCENC =       247.02244180
  Ewald energy   TEWEN  =     -1908.81069913
  -Hartree energ DENC   =      -246.52149771
  -exchange      EXHF   =         0.00000000
  -V(xc)+E(xc)   XCENC  =        50.91592413
  PAW double counting   =      2861.28607851    -2836.31881799
  entropy T*S    EENTRO =         0.00000000
  eigenvalues    EBANDS =      -274.56246988
  atomic energy  EATOM  =      2086.78124273
  Solvation  Ediel_sol  =         0.00000000
  ---------------------------------------------------
  free energy    TOTEN  =       -20.20779755 eV

  energy without entropy =      -20.20779755  energy(sigma->0) =      -20.20779755


--------------------------------------------------------------------------------------------------------




--------------------------------------- Iteration      1(  12)  ---------------------------------------


    POTLOK:  cpu time      1.7671: real time      0.1283
    SETDIJ:  cpu time      1.1154: real time      0.2601
    EDDIAG:  cpu time     68.8212: real time      3.9882
  RMM-DIIS:  cpu time    192.7488: real time     10.8526
    ORTHCH:  cpu time      1.4607: real time      0.0911
 BZINTS: Fermi energy:    4.853963;   22.000000 electrons
         Band energy:-0.274554E+03;  BLOECHL correction:   -0.208644
       DOS:  cpu time      0.2492: real time      0.0253
    --------------------------------------------
      LOOP:  cpu time    266.1624: real time     15.3455

 eigenvalue-minimisations  :  3917
 total energy-change (2. order) :-0.7613835E-04  (-0.5847393E-04)
 number of electron      22.0000001 magnetization      -0.0045827
 augmentation part        8.0492174 magnetization      -0.0003604

 Free energy of the ion-electron system (eV)
  ---------------------------------------------------
  alpha Z        PSCENC =       247.02244180
  Ewald energy   TEWEN  =     -1908.81069913
  -Hartree energ DENC   =      -246.54740822
  -exchange      EXHF   =         0.00000000
  -V(xc)+E(xc)   XCENC  =        50.91718369
  PAW double counting   =      2860.50367379    -2835.52063402
  entropy T*S    EENTRO =         0.00000000
  eigenvalues    EBANDS =      -274.55367433
  atomic energy  EATOM  =      2086.78124273
  Solvation  Ediel_sol  =         0.00000000
  ---------------------------------------------------
  free energy    TOTEN  =       -20.20787369 eV

  energy without entropy =      -20.20787369  energy(sigma->0) =      -20.20787369


--------------------------------------------------------------------------------------------------------




 average (electrostatic) potential at core
  the test charge radii are     1.2125
  (the norm of the test charge is              1.0000)
       1 -35.1714       2 -35.1714



 E-fermi :   4.8540     XC(G=0): -12.3453     alpha+bet :-12.7651

 Fermi energy:         4.8539628153

 spin component 1

 k-point     1 :       0.0000    0.0000    0.0000
  band No.  band energies     occupation 
      1     -25.8200      1.00000
      2     -25.7877      1.00000
      3     -25.7539      1.00000
      4     -24.9397      1.00000
      5     -24.9062      1.00000
      6     -24.8747      1.00000
      7      -1.0608      1.00000
      8       1.2056      1.00000
      9       1.2080      1.00000
     10       5.0539      0.03736
     11       5.1890     -0.02645
     12       5.3416      0.00000
     13       8.0490      0.00000
     14       8.0621      0.00000
     15      10.1367      0.00000
     16      10.3320      0.00000

 k-point     2 :       0.1429    0.0000    0.0000
  band No.  band energies     occupation 
      1     -25.8042      1.00000
      2     -25.7428      1.00000
      3     -25.7281      1.00000
      4     -25.0150      1.00000
      5     -24.9482      1.00000
      6     -24.9360      1.00000
      7      -0.6511      1.00000
      8       1.4335      1.00000
      9       1.5459      1.00000
     10       5.1073      0.11719
     11       5.1587      0.00126
     12       5.4484      0.00000
     13       7.4890      0.00000
     14       8.2560      0.00000
     15       9.1344      0.00000
     16       9.1563      0.00000

 k-point     3 :       0.2857    0.0000    0.0000
  band No.  band energies     occupation 
      1     -25.7763      1.00000
      2     -25.6174      1.00000
      3     -25.6145      1.00000
      4     -25.2373      1.00000
      5     -25.0669      1.00000
      6     -25.0651      1.00000
      7       0.4428      1.00000
      8       2.1044      1.00000
      9       2.2971      1.00000
     10       5.1805      0.38867
     11       5.1819     -0.00915
     12       5.9592      0.00000
     13       6.1446      0.00000
     14       7.5075      0.00000
     15       7.5157      0.00000
     16       8.7663      0.00000

 k-point     4 :       0.4286    0.0000    0.0000
  band No.  band energies     occupation 
      1     -25.6850      1.00000
      2     -25.4945      1.00000
      3     -25.4378      1.00000
      4     -25.4376      1.00000
      5     -25.2413      1.00000
      6     -25.2412      1.00000
      7       1.7968      1.00000
      8       2.6145      1.00000
      9       3.1812      1.00000
     10       4.5775      0.99194
     11       5.4982     -0.23389
     12       5.5075     -0.00017
     13       6.2555      0.00000
     14       6.2614      0.00000
     15       6.8270      0.00000
     16       7.9208      0.00000

 k-point     5 :       0.0000    0.1429    0.0000
  band No.  band energies     occupation 
      1     -25.7909      1.00000
      2     -25.7723      1.00000
      3     -25.7119      1.00000
      4     -25.0010      1.00000
      5     -24.9780      1.00000
      6     -24.9202      1.00000
      7      -0.6512      1.00000
      8       1.4351      1.00000
      9       1.5447      1.00000
     10       5.0418      0.25028
     11       5.2910     -0.05438
     12       5.3818      0.00000
     13       7.4793      0.00000
     14       8.2663      0.00000
     15       9.0227      0.00000
     16       9.2913      0.00000

 k-point     6 :       0.1429    0.1429    0.0000
  band No.  band energies     occupation 
      1     -25.8688      1.00000
      2     -25.7004      1.00000
      3     -25.6292      1.00000
      4     -25.1666      1.00000
      5     -24.9920      1.00000
      6     -24.9017      1.00000
      7      -0.2801      1.00000
      8       1.6741      1.00000
      9       1.8471      1.00000
     10       4.7294      0.88320
     11       5.0457      0.14068
     12       5.9916     -0.00620
     13       7.5658      0.00000
     14       7.8933      0.00000
     15       8.0885      0.00000
     16       8.2200      0.00000

 k-point     7 :       0.2857    0.1429    0.0000
  band No.  band energies     occupation 
      1     -25.9074      1.00000
      2     -25.5849      1.00000
      3     -25.4685      1.00000
      4     -25.4308      1.00000
      5     -25.0947      1.00000
      6     -24.9595      1.00000
      7       0.6783      1.00000
      8       2.1904      1.00000
      9       2.6361      1.00000
     10       4.4969      1.01218
     11       4.8237      0.75231
     12       6.4106     -0.04850
     13       6.8386      0.00000
     14       6.8750      0.00000
     15       6.9503      0.00000
     16       8.5710      0.00000

 k-point     8 :       0.4286    0.1429    0.0000
  band No.  band energies     occupation 
      1     -25.8546      1.00000
      2     -25.6866      1.00000
      3     -25.4237      1.00000
      4     -25.2812      1.00000
      5     -25.2486      1.00000
      6     -25.0986      1.00000
      7       1.7922      1.00000
      8       2.4696      1.00000
      9       3.4429      1.00000
     10       4.3418      1.00384
     11       4.6483      0.92363
     12       5.2833     -0.03261
     13       6.3905      0.00000
     14       6.4694      0.00000
     15       7.8887      0.00000
     16       9.0321      0.00000

 k-point     9 :       0.0000    0.2857    0.0000
  band No.  band energies     occupation 
      1     -25.7743      1.00000
      2     -25.6389      1.00000
      3     -25.5950      1.00000
      4     -25.2343      1.00000
      5     -25.0865      1.00000
      6     -25.0487      1.00000
      7       0.4424      1.00000
      8       2.1056      1.00000
      9       2.2976      1.00000
     10       5.1132      0.52445
     11       5.2694     -0.11170
     12       5.9445      0.00000
     13       6.1322      0.00000
     14       7.4289      0.00000
     15       7.5962      0.00000
     16       8.7737      0.00000

 k-point    10 :       0.1429    0.2857    0.0000
  band No.  band energies     occupation 
      1     -25.9075      1.00000
      2     -25.5854      1.00000
      3     -25.4680      1.00000
      4     -25.4306      1.00000
      5     -25.0948      1.00000
      6     -24.9597      1.00000
      7       0.6781      1.00000
      8       2.1909      1.00000
      9       2.6370      1.00000
     10       4.4957      1.01414
     11       4.8272      0.74407
     12       6.4047     -0.05168
     13       6.8220      0.00000
     14       6.8841      0.00000
     15       6.9553      0.00000
     16       8.5771      0.00000

 k-point    11 :       0.2857    0.2857    0.0000
  band No.  band energies     occupation 
      1     -26.0380      1.00000
      2     -25.7164      1.00000
      3     -25.5015      1.00000
      4     -25.2694      1.00000
      5     -25.1617      1.00000
      6     -24.9104      1.00000
      7       1.1377      1.00000
      8       2.1325      1.00000
      9       3.6366      1.00000
     10       3.8842      1.00000
     11       4.8505      0.86535
     12       5.0610      0.07500
     13       6.4990      0.00000
     14       7.6785      0.00000
     15       8.1064      0.00000
     16       8.3191      0.00000

 k-point    12 :       0.4286    0.2857    0.0000
  band No.  band energies     occupation 
      1     -26.0632      1.00000
      2     -25.9502      1.00000
      3     -25.3862      1.00000
      4     -25.2647      1.00000
      5     -25.0908      1.00000
      6     -24.9613      1.00000
      7       1.5031      1.00000
      8       1.8476      1.00000
      9       3.7345      1.00000
     10       4.1275      1.00000
     11       4.6567      0.78692
     12       5.1406     -0.00377
     13       6.9993      0.00000
     14       7.5632      0.00000
     15       8.9174      0.00000
     16       9.3853      0.00000

 k-point    13 :       0.0000    0.4286    0.0000
  band No.  band energies     occupation 
      1     -25.6850      1.00000
      2     -25.4941      1.00000
      3     -25.4472      1.00000
      4     -25.4282      1.00000
      5     -25.2465      1.00000
      6     -25.2364      1.00000
      7       1.7968      1.00000
      8       2.6160      1.00000
      9       3.1821      1.00000
     10       4.5820      0.99418
     11       5.4775     -0.20818
     12       5.5223      0.00000
     13       6.2242      0.00000
     14       6.2891      0.00000
     15       6.8249      0.00000
     16       7.9181      0.00000

 k-point    14 :       0.1429    0.4286    0.0000
  band No.  band energies     occupation 
      1     -25.8549      1.00000
      2     -25.6868      1.00000
      3     -25.4227      1.00000
      4     -25.2819      1.00000
      5     -25.2474      1.00000
      6     -25.0996      1.00000
      7       1.7926      1.00000
      8       2.4713      1.00000
      9       3.4423      1.00000
     10       4.3412      1.00301
     11       4.6486      0.92607
     12       5.2826     -0.03386
     13       6.3892      0.00000
     14       6.4686      0.00000
     15       7.8874      0.00000
     16       9.0368      0.00000

 k-point    15 :       0.2857    0.4286    0.0000
  band No.  band energies     occupation 
      1     -26.0634      1.00000
      2     -25.9504      1.00000
      3     -25.3856      1.00000
      4     -25.2642      1.00000
      5     -25.0911      1.00000
      6     -24.9617      1.00000
      7       1.5034      1.00000
      8       1.8481      1.00000
      9       3.7342      1.00000
     10       4.1249      1.00000
     11       4.6594      0.78696
     12       5.1398     -0.00366
     13       6.9980      0.00000
     14       7.5637      0.00000
     15       8.9213      0.00000
     16       9.3813      0.00000

 k-point    16 :       0.4286    0.4286    0.0000
  band No.  band energies     occupation 
      1     -26.1712      1.00000
      2     -26.1316      1.00000
      3     -25.3386      1.00000
      4     -25.2952      1.00000
      5     -24.9618      1.00000
      6     -24.9149      1.00000
      7       1.2404      1.00000
      8       1.3509      1.00000
      9       3.2986      1.00000
     10       3.4310      1.00000
     11       6.1720     -0.16187
     12       6.5244     -0.07095
     13       7.6910      0.00000
     14       8.1004      0.00000
     15       8.6610      0.00000
     16       9.6549      0.00000

 k-point    17 :       0.1429    0.0000    0.1429
  band No.  band energies     occupation 
      1     -25.8356      1.00000
      2     -25.6958      1.00000
      3     -25.6551      1.00000
      4     -25.1436      1.00000
      5     -24.9917      1.00000
      6     -24.9401      1.00000
      7      -0.2651      1.00000
      8       1.6994      1.00000
      9       1.8447      1.00000
     10       4.8641      0.68242
     11       5.1050      0.00211
     12       5.8740      0.00000
     13       7.4615      0.00000
     14       7.9966      0.00000
     15       8.0484      0.00000
     16       8.2302      0.00000

 k-point    18 :       0.2857    0.0000    0.1429
  band No.  band energies     occupation 
      1     -25.8829      1.00000
      2     -25.5762      1.00000
      3     -25.4793      1.00000
      4     -25.4197      1.00000
      5     -25.1019      1.00000
      6     -24.9896      1.00000
      7       0.6999      1.00000
      8       2.2381      1.00000
      9       2.6301      1.00000
     10       4.5854      1.00113
     11       4.9181      0.51141
     12       6.4450     -0.03872
     13       6.7341      0.00000
     14       6.7813      0.00000
     15       6.9502      0.00000
     16       8.5090      0.00000

 k-point    19 :       0.4286    0.0000    0.1429
  band No.  band energies     occupation 
      1     -25.8412      1.00000
      2     -25.6877      1.00000
      3     -25.4098      1.00000
      4     -25.2789      1.00000
      5     -25.2601      1.00000
      6     -25.1171      1.00000
      7       1.7980      1.00000
      8       2.5066      1.00000
      9       3.4360      1.00000
     10       4.3813      1.00000
     11       4.6930      0.89592
     12       5.2754     -0.01682
     13       6.3529      0.00000
     14       6.4441      0.00000
     15       7.8785      0.00000
     16       9.0851      0.00000

 k-point    20 :      -0.4286    0.0000    0.1429
  band No.  band energies     occupation 
      1     -25.8667      1.00000
      2     -25.6853      1.00000
      3     -25.4370      1.00000
      4     -25.2851      1.00000
      5     -25.2321      1.00000
      6     -25.0852      1.00000
      7       1.7876      1.00000
      8       2.4352      1.00000
      9       3.4464      1.00000
     10       4.2985      1.00669
     11       4.6019      0.95825
     12       5.2846     -0.03865
     13       6.4336      0.00000
     14       6.5018      0.00000
     15       7.9010      0.00000
     16       9.0849      0.00000

 k-point    21 :      -0.2857    0.0000    0.1429
  band No.  band energies     occupation 
      1     -25.9285      1.00000
      2     -25.5974      1.00000
      3     -25.4574      1.00000
      4     -25.4420      1.00000
      5     -25.0788      1.00000
      6     -24.9378      1.00000
      7       0.6571      1.00000
      8       2.1423      1.00000
      9       2.6433      1.00000
     10       4.4154      1.02163
     11       4.7335      0.86455
     12       6.3688     -0.06178
     13       6.9250      0.00000
     14       6.9566      0.00000
     15       6.9784      0.00000
     16       8.6295      0.00000

 k-point    22 :      -0.1429    0.0000    0.1429
  band No.  band energies     occupation 
      1     -25.8945      1.00000
      2     -25.7073      1.00000
      3     -25.6087      1.00000
      4     -25.1884      1.00000
      5     -24.9787      1.00000
      6     -24.8781      1.00000
      7      -0.2947      1.00000
      8       1.6460      1.00000
      9       1.8518      1.00000
     10       4.6301      0.95559
     11       4.9646      0.37756
     12       6.1042     -0.01548
     13       7.6765      0.00000
     14       7.8285      0.00000
     15       8.1122      0.00000
     16       8.1732      0.00000

 k-point    23 :       0.1429    0.1429    0.1429
  band No.  band energies     occupation 
      1     -25.8297      1.00000
      2     -25.7898      1.00000
      3     -25.5009      1.00000
      4     -25.2962      1.00000
      5     -24.9826      1.00000
      6     -24.9416      1.00000
      7       0.0891      1.00000
      8       2.0190      1.00000
      9       2.0506      1.00000
     10       4.6156      0.99283
     11       4.6966      0.82246
     12       6.4654     -0.04264
     13       6.5746      0.00000
     14       7.7482      0.00000
     15       7.8259      0.00000
     16       9.2943      0.00000

 k-point    24 :       0.2857    0.1429    0.1429
  band No.  band energies     occupation 
      1     -25.8909      1.00000
      2     -25.6855      1.00000
      3     -25.5460      1.00000
      4     -25.3253      1.00000
      5     -25.0810      1.00000
      6     -24.9899      1.00000
      7       0.9904      1.00000
      8       2.5519      1.00000
      9       2.7484      1.00000
     10       4.3416      1.00754
     11       4.3887      1.06831
     12       5.1778      0.10275
     13       7.1084      0.00000
     14       7.6483      0.00000
     15       7.8316      0.00000
     16       8.4180      0.00000

 k-point    25 :       0.4286    0.1429    0.1429
  band No.  band energies     occupation 
      1     -25.8854      1.00000
      2     -25.7791      1.00000
      3     -25.4927      1.00000
      4     -25.2691      1.00000
      5     -25.1598      1.00000
      6     -25.0709      1.00000
      7       1.9569      1.00000
      8       2.6984      1.00000
      9       3.2534      1.00000
     10       3.8911      1.00000
     11       4.6592      0.96055
     12       4.8447      0.32807
     13       6.6178      0.00000
     14       6.8959      0.00000
     15       8.5678      0.00000
     16       8.9196      0.00000

[...]
  band No.  band energies     occupation 
      1     -26.1868      1.00000
      2     -26.1193      1.00000
      3     -25.3674      1.00000
      4     -25.2612      1.00000
      5     -24.9868      1.00000
      6     -24.8936      1.00000
      7       1.2380      1.00000
      8       1.3317      1.00000
      9       3.2530      1.00000
     10       3.4652      1.00000
     11       6.2380     -0.11897
     12       6.3991     -0.08912
     13       7.6093      0.00000
     14       8.1856      0.00000
     15       8.7848      0.00000
     16       9.6090      0.00000

 k-point    59 :       0.4286    0.1429    0.4286
  band No.  band energies     occupation 
      1     -26.0961      1.00000
      2     -26.0955      1.00000
      3     -25.3763      1.00000
      4     -25.3582      1.00000
      5     -25.0037      1.00000
      6     -24.9784      1.00000
      7       1.6445      1.00000
      8       1.7358      1.00000
      9       3.2849      1.00000
     10       3.3399      1.00000
     11       5.6826     -0.11391
     12       5.9877     -0.20194
     13       7.9972      0.00000
     14       8.0724      0.00000
     15       8.5804      0.00000
     16       9.1926      0.00000

 k-point    60 :      -0.4286    0.1429    0.4286
  band No.  band energies     occupation 
      1     -26.1238      1.00000
      2     -26.0706      1.00000
      3     -25.4262      1.00000
      4     -25.3049      1.00000
      5     -25.0235      1.00000
      6     -24.9582      1.00000
      7       1.6472      1.00000
      8       1.7128      1.00000
      9       3.2273      1.00000
     10       3.3740      1.00000
     11       5.7512     -0.08627
     12       5.8769     -0.07441
     13       7.8408      0.00000
     14       8.2661      0.00000
     15       8.8007      0.00000
     16       9.0539      0.00000

 k-point    61 :       0.4286    0.2857    0.4286
  band No.  band energies     occupation 
      1     -25.9682      1.00000
      2     -25.9283      1.00000
      3     -25.5336      1.00000
      4     -25.4179      1.00000
      5     -25.1718      1.00000
      6     -25.0911      1.00000
      7       2.5366      1.00000
      8       2.6750      1.00000
      9       3.2359      1.00000
     10       3.4647      1.00000
     11       4.7865      0.83869
     12       4.8311      0.66618
     13       8.3894      0.00000
     14       8.4720      0.00000
     15       8.6814      0.00000
     16       8.8957      0.00000

 k-point    62 :      -0.4286    0.2857    0.4286
  band No.  band energies     occupation 
      1     -25.9464      1.00000
      2     -25.9426      1.00000
      3     -25.5562      1.00000
      4     -25.3915      1.00000
      5     -25.1393      1.00000
      6     -25.1356      1.00000
      7       2.5514      1.00000
      8       2.6799      1.00000
      9       3.2527      1.00000
     10       3.4038      1.00000
     11       4.6345      0.85842
     12       5.0029      0.44597
     13       8.3398      0.00000
     14       8.5605      0.00000
     15       8.7349      0.00000
     16       8.8188      0.00000

 k-point    63 :       0.4286    0.4286    0.4286
  band No.  band energies     occupation 
      1     -25.8216      1.00000
      2     -25.6895      1.00000
      3     -25.6853      1.00000
      4     -25.4151      1.00000
      5     -25.3997      1.00000
      6     -25.2598      1.00000
      7       3.0518      1.00000
      8       3.4143      1.00000
      9       3.4735      1.00000
     10       3.9430      1.00000
     11       4.0681      1.00000
     12       4.1204      1.16423
     13       8.7458      0.00000
     14       8.7697      0.00000
     15       8.8061      0.00000
     16       8.8204      0.00000

 k-point    64 :      -0.4286    0.4286    0.4286
  band No.  band energies     occupation 
      1     -25.7951      1.00000
      2     -25.6884      1.00000
      3     -25.6813      1.00000
      4     -25.4119      1.00000
      5     -25.4002      1.00000
      6     -25.2960      1.00000
      7       3.0312      1.00000
      8       3.4508      1.00000
      9       3.5151      1.00000
     10       3.9895      1.00000
     11       3.9996      1.00000
     12       4.1166      1.07540
     13       8.7310      0.00000
     14       8.7489      0.00000
     15       8.7937      0.00000
     16       8.8217      0.00000


--------------------------------------------------------------------------------------------------------


 soft charge-density along one line, spin component           1
         0         1         2         3         4         5         6         7         8         9
 total charge-density along one line

 soft charge-density along one line, spin component           2
         0         1         2         3         4         5         6         7         8         9
 total charge-density along one line

 pseudopotential strength for first ion, spin component:           1
-28.108   0.000   0.000   5.978  -0.000  -0.000  -0.000  -0.000
  0.000 -28.109   0.003  -0.000   5.978  -0.002  -0.000  -0.000
  0.000   0.003 -28.109  -0.000  -0.002   5.978  -0.000  -0.000
  5.978  -0.000  -0.000   4.217   0.000   0.000   0.000   0.000
 -0.000   5.978  -0.002   0.000   4.217   0.001   0.000   0.000
 -0.000  -0.002   5.978   0.000   0.001   4.217   0.000   0.000
 -0.000  -0.000  -0.000   0.000   0.000   0.000  -6.358   0.001
 -0.000  -0.000  -0.000   0.000   0.000   0.000   0.001  -6.358
  0.000  -0.000   0.000  -0.000   0.000  -0.000  -0.000   0.000
 -0.000  -0.000  -0.000   0.000   0.000   0.000   0.000   0.000
  0.000  -0.000  -0.000  -0.000   0.000   0.000  -0.000  -0.000
 -0.000  -0.000  -0.000   0.000   0.000   0.000  -7.215   0.001
 -0.000  -0.000  -0.000   0.000   0.000   0.000   0.001  -7.215
  0.000  -0.000   0.000  -0.000   0.000  -0.000  -0.000   0.000
 -0.000  -0.000  -0.000   0.000   0.000   0.000   0.000   0.000
  0.000  -0.000  -0.000  -0.000   0.000   0.000  -0.000  -0.000
  0.000   0.000   0.000   0.000  -0.000   0.000  -0.000  -0.000
 -0.000  -0.000  -0.000  -0.000  -0.000  -0.000   0.000   0.000
 pseudopotential strength for first ion, spin component:           2
-28.108   0.000   0.000   5.978  -0.000  -0.000  -0.000  -0.000
  0.000 -28.109   0.003  -0.000   5.979  -0.003  -0.000  -0.000
  0.000   0.003 -28.109  -0.000  -0.003   5.979  -0.000  -0.000
  5.978  -0.000  -0.000   4.217   0.000   0.000   0.000   0.000
 -0.000   5.979  -0.003   0.000   4.217   0.001   0.000   0.000
 -0.000  -0.003   5.979   0.000   0.001   4.217   0.000   0.000
 -0.000  -0.000  -0.000   0.000   0.000   0.000  -6.358   0.001
 -0.000  -0.000  -0.000   0.000   0.000   0.000   0.001  -6.358
  0.000  -0.000   0.000  -0.000   0.000  -0.000  -0.000   0.000
 -0.000  -0.000  -0.000   0.000   0.000   0.000   0.000   0.000
  0.000  -0.000  -0.000  -0.000   0.000   0.000  -0.000  -0.000
 -0.000  -0.000  -0.000   0.000   0.000   0.000  -7.215   0.001
 -0.000  -0.000  -0.000   0.000   0.000   0.000   0.001  -7.215
  0.000  -0.000   0.000  -0.000   0.000  -0.000  -0.000   0.000
 -0.000  -0.000  -0.000   0.000   0.000   0.000   0.000   0.000
  0.000  -0.000  -0.000  -0.000   0.000   0.000  -0.000  -0.000
  0.000   0.000   0.000   0.000  -0.000   0.000  -0.000  -0.000
 -0.000  -0.000  -0.000  -0.000  -0.000  -0.000   0.000   0.000
 total augmentation occupancy for first ion, spin component:           1
  1.993   0.000   0.000  -0.013  -0.000  -0.000  -0.000   0.000   0.000   0.000   0.000   0.000   0.000   0.000   0.000   0.000
  0.000   1.993   0.000  -0.000  -0.013   0.001   0.000   0.000   0.000   0.000  -0.000   0.000   0.000   0.000   0.000   0.000
  0.000   0.000   1.993  -0.000   0.001  -0.013   0.000  -0.000  -0.000   0.000   0.000   0.000   0.000  -0.000   0.000  -0.000
 -0.013  -0.000  -0.000   0.204   0.000   0.000   0.000   0.000   0.000  -0.000  -0.000  -0.000   0.000   0.000   0.000   0.000
 -0.000  -0.013   0.001   0.000   0.204  -0.004   0.000   0.000   0.000   0.000   0.000   0.000   0.000   0.000   0.000   0.000
 -0.000   0.001  -0.013   0.000  -0.004   0.204   0.000   0.000   0.000   0.000  -0.000   0.000   0.000   0.000   0.000   0.000
  0.000   0.000   0.000  -0.000   0.000  -0.000   5.995   0.107  -0.000   0.000   0.000  -3.340  -0.053   0.000  -0.000  -0.000
 -0.000   0.000  -0.000  -0.000   0.000   0.000   0.107   5.995   0.000   0.000  -0.000  -0.053  -3.340  -0.000  -0.000   0.000
  0.000  -0.000  -0.000   0.000   0.000   0.000  -0.000   0.000   5.626   0.027   0.003   0.000  -0.000  -3.317  -0.019  -0.002
 -0.000   0.000   0.000  -0.000   0.000   0.000   0.000   0.000   0.027   5.986   0.047  -0.000  -0.000  -0.019  -3.334  -0.034
  0.000   0.000   0.000  -0.000  -0.000   0.000   0.000  -0.000   0.003   0.047   5.630  -0.000   0.000  -0.002  -0.033  -3.318
  0.000   0.000   0.000  -0.000   0.000  -0.000  -3.340  -0.053   0.000  -0.000  -0.000   1.898   0.028  -0.000   0.000  -0.000
  0.000  -0.000   0.000  -0.000   0.000   0.000  -0.053  -3.340  -0.000  -0.000   0.000   0.028   1.898   0.000   0.000  -0.000
  0.000   0.000   0.000   0.000   0.000   0.000   0.000  -0.000  -3.317  -0.019  -0.002  -0.000   0.000   1.973   0.013   0.001
 -0.000  -0.000   0.000   0.000   0.000   0.000  -0.000  -0.000  -0.019  -3.334  -0.033   0.000   0.000   0.013   1.895   0.022
  0.000   0.000   0.000  -0.000   0.000   0.000  -0.000   0.000  -0.002  -0.034  -3.318  -0.000  -0.000   0.001   0.022   1.974
  0.000  -0.000  -0.000   0.000   0.000   0.000  -0.000   0.000  -0.000   0.029  -0.000   0.000   0.000  -0.000  -0.013  -0.000
 -0.000  -0.000   0.000   0.000  -0.000   0.000   0.000   0.000  -0.000   0.001  -0.000   0.000   0.000   0.000  -0.000   0.000
 total augmentation occupancy for first ion, spin component:           2
  0.000   0.000   0.000   0.000   0.000   0.000  -0.000  -0.000   0.000   0.000   0.000  -0.000   0.000  -0.000  -0.000   0.000
  0.000   0.000  -0.000   0.000   0.000  -0.000  -0.000  -0.000   0.000   0.000   0.000  -0.000  -0.000  -0.000   0.000   0.000
  0.000  -0.000   0.000   0.000  -0.000   0.000   0.000  -0.000   0.000   0.000   0.000   0.000   0.000   0.000   0.000   0.000
  0.000   0.000   0.000  -0.000  -0.000  -0.000   0.000   0.000   0.000   0.000   0.000   0.000   0.000   0.000   0.000   0.000
  0.000   0.000  -0.000  -0.000  -0.000  -0.000   0.000   0.000  -0.000   0.000   0.000   0.000   0.000   0.000  -0.000   0.000
  0.000  -0.000   0.000  -0.000  -0.000  -0.000  -0.000   0.000   0.000   0.000   0.000   0.000  -0.000   0.000  -0.000  -0.000
  0.000  -0.000  -0.000   0.000   0.000   0.000   0.000   0.000   0.000   0.000   0.000   0.001  -0.000  -0.000   0.000  -0.000
 -0.000  -0.000  -0.000   0.000  -0.000   0.000   0.000   0.000   0.000   0.000   0.000  -0.000   0.001  -0.000   0.000  -0.000
  0.000   0.000   0.000   0.000   0.000  -0.000   0.000   0.000  -0.006   0.000  -0.000  -0.000  -0.000   0.005  -0.000   0.000
  0.000   0.000   0.000   0.000   0.000   0.000   0.000   0.000   0.000  -0.010   0.000   0.000   0.000  -0.000   0.004  -0.000
  0.000   0.000   0.000  -0.000   0.000  -0.000   0.000   0.000  -0.000   0.000  -0.006  -0.000  -0.000   0.000  -0.000   0.005
 -0.000   0.000   0.000   0.000   0.000   0.000   0.001  -0.000  -0.000   0.000  -0.000  -0.001   0.000   0.000  -0.000   0.000
  0.000   0.000  -0.000   0.000   0.000  -0.000  -0.000   0.001  -0.000   0.000  -0.000   0.000  -0.001   0.000  -0.000   0.000
 -0.000  -0.000   0.000  -0.000   0.000  -0.000  -0.000  -0.000   0.005  -0.000   0.000   0.000   0.000  -0.004  -0.000  -0.000
 -0.000   0.000   0.000   0.000   0.000   0.000   0.000   0.000  -0.000   0.004  -0.000  -0.000  -0.000  -0.000  -0.001  -0.000
  0.000   0.000   0.000   0.000   0.000  -0.000  -0.000  -0.000   0.000  -0.000   0.005   0.000   0.000  -0.000  -0.000  -0.004
  0.000  -0.000  -0.000   0.000   0.000   0.000   0.000   0.000  -0.000   0.000  -0.000  -0.000  -0.000   0.000  -0.000   0.000
  0.000   0.000  -0.000   0.000   0.000  -0.000  -0.000  -0.000   0.000   0.000   0.000   0.000   0.000  -0.000  -0.000  -0.000


------------------------ aborting loop because EDIFF is reached ----------------------------------------





 total charge

# of ion       s       p       d       tot
------------------------------------------
    1        0.419   6.291   3.082   9.792
    2        0.419   6.291   3.082   9.792
--------------------------------------------------
tot          0.838  12.581   6.164  19.584



 magnetization (x)

# of ion       s       p       d       tot
------------------------------------------
    1       -0.000  -0.000  -0.001  -0.001
    2       -0.000  -0.000  -0.001  -0.001
--------------------------------------------------
tot         -0.000  -0.001  -0.002  -0.002

    CHARGE:  cpu time     25.5142: real time      1.4799
    FORLOC:  cpu time      0.0005: real time      0.0005
    FORNL :  cpu time    113.0452: real time      6.3963
    STRESS:  cpu time    364.7624: real time     20.3779
    FORCOR:  cpu time      1.2099: real time      0.1141
    FORHAR:  cpu time      0.1600: real time      0.0100
    MIXING:  cpu time      0.0017: real time      0.0017
    OFIELD:  cpu time      0.0000: real time      0.0000

  FORCE on cell =-STRESS in cart. coord.  units (eV):
  Direction    XX          YY          ZZ          XY          YZ          ZX
  --------------------------------------------------------------------------------------
  Alpha Z   247.02244   247.02244   247.02244
  Ewald    -636.37986  -636.05083  -636.37986    -0.00000    -0.00000     7.79042
  Hartree    82.12423    82.29772    82.12423    -0.00000    -0.00000     3.03064
  E(xc)     -95.06168   -95.06247   -95.06168     0.00000    -0.00000    -0.00314
  Local     203.86902   203.32771   203.86902     0.00000    -0.00000   -10.61909
  n-local   -88.05944   -84.58561   -81.06161     0.91718    -0.26911    -0.26660
  augment    53.55827    53.57420    53.55827     0.00000     0.00000     0.02889
  Kinetic   222.28855   229.42223   236.44507     0.06511    -1.03244     0.05410
  Fock        0.00000     0.00000     0.00000     0.00000     0.00000     0.00000
  -------------------------------------------------------------------------------------
  Total      -0.06130    -0.05459    -0.06130     0.00000     0.00000     0.01638
  in kB      -2.67944    -2.38636    -2.67944     0.00000     0.00000     0.71592
  external pressure =       -2.58 kB  Pullay stress =        0.00 kB


 VOLUME and BASIS-vectors are now :
 -----------------------------------------------------------------------------
  energy-cutoff  :      520.00
  volume of cell :       36.65
      direct lattice vectors                 reciprocal lattice vectors
     3.321890070  0.000000000 -0.033218901     0.301063548 -0.000000000  0.003010635
     0.000000000  3.321890070  0.000000000    -0.000000000  0.301033441 -0.000000000
    -0.033218901  0.000000000  3.321890070     0.003010635 -0.000000000  0.301063548

  length of vectors
     3.322056161  3.321890070  3.322056161     0.301078601  0.301033441  0.301078601


 FORCES acting on ions
    electron-ion (+dipol)            ewald-force                    non-local-force                 convergence-correction
 -----------------------------------------------------------------------------------------------
   -.825E-14 -.111E-13 -.138E-13   -.170E-14 -.509E-14 -.215E-14   0.437E-22 -.359E-21 -.188E-21   0.380E-14 -.189E-13 0.319E-13
   0.557E-13 0.151E-11 0.160E-11   0.180E-15 0.348E-14 0.356E-14   0.142E-21 0.619E-21 -.209E-21   -.224E-13 -.562E-13 -.352E-13
 -----------------------------------------------------------------------------------------------
   0.475E-13 0.149E-11 0.158E-11   -.152E-14 -.161E-14 0.141E-14   0.186E-21 0.260E-21 -.397E-21   -.186E-13 -.751E-13 -.329E-14


 POSITION                                       TOTAL-FORCE (eV/Angst)
 -----------------------------------------------------------------------------------
      0.00000      0.00000      0.00000        -0.000000     -0.000000      0.000000
      1.64434      1.66095      1.64434         0.000000      0.000000     -0.000000
 -----------------------------------------------------------------------------------
    total drift:                                0.000000      0.000000      0.000000


--------------------------------------------------------------------------------------------------------



  FREE ENERGIE OF THE ION-ELECTRON SYSTEM (eV)
  ---------------------------------------------------
  free  energy   TOTEN  =       -20.20787369 eV

  energy  without entropy=      -20.20787369  energy(sigma->0) =      -20.20787369



--------------------------------------------------------------------------------------------------------


    POTLOK:  cpu time      2.6455: real time      0.3787


--------------------------------------------------------------------------------------------------------


     LOOP+:  cpu time   8122.9199: real time    426.7922
 -----------------------------------------------------------------------------
|                                                                             |
|           W    W    AA    RRRRR   N    N  II  N    N   GGGG   !!!           |
|           W    W   A  A   R    R  NN   N  II  NN   N  G    G  !!!           |
|           W    W  A    A  R    R  N N  N  II  N N  N  G       !!!           |
|           W WW W  AAAAAA  RRRRR   N  N N  II  N  N N  G  GGG   !            |
|           WW  WW  A    A  R   R   N   NN  II  N   NN  G    G                |
|           W    W  A    A  R    R  N    N  II  N    N   GGGG   !!!           |
|                                                                             |
|     Tetrahedron method does not include variations of the Fermi             |
|     occupations, so forces and stress will be inaccurate. We suggest        |
|     using a different smearing scheme ISMEAR = 1 or 2 for metals in         |
|     relaxations.                                                            |
|                                                                             |
 -----------------------------------------------------------------------------

    4ORBIT:  cpu time      0.0000: real time      0.0000



 total charge

# of ion       s       p       d       tot
------------------------------------------
    1        0.419   6.291   3.082   9.792
    2        0.419   6.291   3.082   9.792
--------------------------------------------------
tot          0.838  12.581   6.164  19.584



 magnetization (x)

# of ion       s       p       d       tot
------------------------------------------
    1       -0.000  -0.000  -0.001  -0.001
    2       -0.000  -0.000  -0.001  -0.001
--------------------------------------------------
tot         -0.000  -0.001  -0.002  -0.002

 BZINTS: Fermi energy:    4.853963;   22.000000 electrons
         Band energy:-0.274554E+03;  BLOECHL correction:   -0.208644

 total amount of memory used by VASP MPI-rank0    91145. kBytes
=======================================================================

   base      :      30000. kBytes
   nonlr-proj:       6266. kBytes
   fftplans  :       6192. kBytes
   grid      :      14776. kBytes
   one-center:         62. kBytes
   wavefun   :      33849. kBytes

  
  
 General timing and accounting informations for this job:
 ========================================================
  
                  Total CPU time used (sec):     8173.274
                            User time (sec):     7948.351
                          System time (sec):      224.924
                         Elapsed time (sec):      430.256
  
                   Maximum memory used (kb):      323144.
                   Average memory used (kb):          N/A
  
                          Minor page faults:      7162356
                          Major page faults:          124
                 Voluntary context switches:      2428224
