   2   2   1   0
  0.1777682E+02  0.3288224E-09  0.3288224E-09  0.3288224E-09  0.5000000E-15
   1.0000000000000000E-004
  CAR 
 unknown system                          
     12.59860615    -27.78330726  301      5.10055145      1.00000000
    -27.783  0.0000E+00  0.0000E+00  0.0000E+00  0.0000E+00
    -27.649  0.0000E+00  0.0000E+00  0.0000E+00  0.0000E+00
    -27.514  0.0000E+00  0.0000E+00  0.0000E+00  0.0000E+00
    -27.379  0.0000E+00  0.0000E+00  0.0000E+00  0.0000E+00
    -27.245  0.0000E+00  0.0000E+00  0.0000E+00  0.0000E+00
    -27.110  0.0000E+00  0.0000E+00  0.0000E+00  0.0000E+00
    -26.976  0.0000E+00  0.0000E+00  0.0000E+00  0.0000E+00
    -26.841  0.0000E+00  0.0000E+00  0.0000E+00  0.0000E+00
    -26.706  0.0000E+00  0.0000E+00  0.0000E+00  0.0000E+00
    -26.572  0.0000E+00  0.0000E+00  0.0000E+00  0.0000E+00
    -26.437  0.0000E+00  0.0000E+00  0.0000E+00  0.0000E+00
    -26.303  0.0000E+00  0.0000E+00  0.0000E+00  0.0000E+00
    -26.168  0.0000E+00  0.0000E+00  0.0000E+00  0.0000E+00
    -26.033  0.0000E+00  0.0000E+00  0.0000E+00  0.0000E+00
    -25.899  0.1207E+01  0.1218E+01  0.2756E-01  0.2816E-01
    -25.764  0.4701E+01  0.4716E+01  0.3757E+00  0.3779E+00
    -25.630  0.5509E+01  0.5491E+01  0.1180E+01  0.1182E+01
    -25.495  0.2672E+01  0.2680E+01  0.1619E+01  0.1620E+01
    -25.360  0.2848E+01  0.2803E+01  0.2010E+01  0.2011E+01
    -25.226  0.4169E+01  0.4174E+01  0.2455E+01  0.2457E+01
    -25.091  0.4668E+01  0.4668E+01  0.3019E+01  0.3020E+01
    -24.957  0.8338E+01  0.8152E+01  0.3791E+01  0.3794E+01
    -24.822  0.4998E+01  0.5037E+01  0.4243E+01  0.4245E+01
    -24.687  0.7451E+01  0.7451E+01  0.5230E+01  0.5232E+01
    -24.553  0.2816E+01  0.2816E+01  0.6000E+01  0.6000E+01
    -24.418  0.0000E+00  0.0000E+00  0.6000E+01  0.6000E+01
    -24.284  0.0000E+00  0.0000E+00  0.6000E+01  0.6000E+01
    -24.149  0.0000E+00  0.0000E+00  0.6000E+01  0.6000E+01
    -24.014  0.0000E+00  0.0000E+00  0.6000E+01  0.6000E+01
    -23.880  0.0000E+00  0.0000E+00  0.6000E+01  0.6000E+01
    -23.745  0.0000E+00  0.0000E+00  0.6000E+01  0.6000E+01
    -23.611  0.0000E+00  0.0000E+00  0.6000E+01  0.6000E+01
    -23.476  0.0000E+00  0.0000E+00  0.6000E+01  0.6000E+01
    -23.341  0.0000E+00  0.0000E+00  0.6000E+01  0.6000E+01
    -23.207  0.0000E+00  0.0000E+00  0.6000E+01  0.6000E+01
    -23.072  0.0000E+00  0.0000E+00  0.6000E+01  0.6000E+01
    -22.937  0.0000E+00  0.0000E+00  0.6000E+01  0.6000E+01
    -22.803  0.0000E+00  0.0000E+00  0.6000E+01  0.6000E+01
    -22.668  0.0000E+00  0.0000E+00  0.6000E+01  0.6000E+01
    -22.534  0.0000E+00  0.0000E+00  0.6000E+01  0.6000E+01
    -22.399  0.0000E+00  0.0000E+00  0.6000E+01  0.6000E+01
    -22.264  0.0000E+00  0.0000E+00  0.6000E+01  0.6000E+01
    -22.130  0.0000E+00  0.0000E+00  0.6000E+01  0.6000E+01
    -21.995  0.0000E+00  0.0000E+00  0.6000E+01  0.6000E+01
    -21.861  0.0000E+00  0.0000E+00  0.6000E+01  0.6000E+01
    -21.726  0.0000E+00  0.0000E+00  0.6000E+01  0.6000E+01
    -21.591  0.0000E+00  0.0000E+00  0.6000E+01  0.6000E+01
    -21.457  0.0000E+00  0.0000E+00  0.6000E+01  0.6000E+01
    -21.322  0.0000E+00  0.0000E+00  0.6000E+01  0.6000E+01
    -21.188  0.0000E+00  0.0000E+00  0.6000E+01  0.6000E+01
    -21.053  0.0000E+00  0.0000E+00  0.6000E+01  0.6000E+01
    -20.918  0.0000E+00  0.0000E+00  0.6000E+01  0.6000E+01
    -20.784  0.0000E+00  0.0000E+00  0.6000E+01  0.6000E+01
    -20.649  0.0000E+00  0.0000E+00  0.6000E+01  0.6000E+01
    -20.515  0.0000E+00  0.0000E+00  0.6000E+01  0.6000E+01
    -20.380  0.0000E+00  0.0000E+00  0.6000E+01  0.6000E+01
    -20.245  0.0000E+00  0.0000E+00  0.6000E+01  0.6000E+01
    -20.111  0.0000E+00  0.0000E+00  0.6000E+01  0.6000E+01
    -19.976  0.0000E+00  0.0000E+00  0.6000E+01  0.6000E+01
    -19.842  0.0000E+00  0.0000E+00  0.6000E+01  0.6000E+01
    -19.707  0.0000E+00  0.0000E+00  0.6000E+01  0.6000E+01
    -19.572  0.0000E+00  0.0000E+00  0.6000E+01  0.6000E+01
    -19.438  0.0000E+00  0.0000E+00  0.6000E+01  0.6000E+01
    -19.303  0.0000E+00  0.0000E+00  0.6000E+01  0.6000E+01
    -19.168  0.0000E+00  0.0000E+00  0.6000E+01  0.6000E+01
    -19.034  0.0000E+00  0.0000E+00  0.6000E+01  0.6000E+01
    -18.899  0.0000E+00  0.0000E+00  0.6000E+01  0.6000E+01
    -18.765  0.0000E+00  0.0000E+00  0.6000E+01  0.6000E+01
    -18.630  0.0000E+00  0.0000E+00  0.6000E+01  0.6000E+01
    -18.495  0.0000E+00  0.0000E+00  0.6000E+01  0.6000E+01
    -18.361  0.0000E+00  0.0000E+00  0.6000E+01  0.6000E+01
    -18.226  0.0000E+00  0.0000E+00  0.6000E+01  0.6000E+01
    -18.092  0.0000E+00  0.0000E+00  0.6000E+01  0.6000E+01
    -17.957  0.0000E+00  0.0000E+00  0.6000E+01  0.6000E+01
    -17.822  0.0000E+00  0.0000E+00  0.6000E+01  0.6000E+01
    -17.688  0.0000E+00  0.0000E+00  0.6000E+01  0.6000E+01
    -17.553  0.0000E+00  0.0000E+00  0.6000E+01  0.6000E+01
    -17.419  0.0000E+00  0.0000E+00  0.6000E+01  0.6000E+01
    -17.284  0.0000E+00  0.0000E+00  0.6000E+01  0.6000E+01
    -17.149  0.0000E+00  0.0000E+00  0.6000E+01  0.6000E+01
    -17.015  0.0000E+00  0.0000E+00  0.6000E+01  0.6000E+01
    -16.880  0.0000E+00  0.0000E+00  0.6000E+01  0.6000E+01
    -16.746  0.0000E+00  0.0000E+00  0.6000E+01  0.6000E+01
    -16.611  0.0000E+00  0.0000E+00  0.6000E+01  0.6000E+01
    -16.476  0.0000E+00  0.0000E+00  0.6000E+01  0.6000E+01
    -16.342  0.0000E+00  0.0000E+00  0.6000E+01  0.6000E+01
    -16.207  0.0000E+00  0.0000E+00  0.6000E+01  0.6000E+01
    -16.073  0.0000E+00  0.0000E+00  0.6000E+01  0.6000E+01
    -15.938  0.0000E+00  0.0000E+00  0.6000E+01  0.6000E+01
    -15.803  0.0000E+00  0.0000E+00  0.6000E+01  0.6000E+01
    -15.669  0.0000E+00  0.0000E+00  0.6000E+01  0.6000E+01
    -15.534  0.0000E+00  0.0000E+00  0.6000E+01  0.6000E+01
    -15.400  0.0000E+00  0.0000E+00  0.6000E+01  0.6000E+01
    -15.265  0.0000E+00  0.0000E+00  0.6000E+01  0.6000E+01
    -15.130  0.0000E+00  0.0000E+00  0.6000E+01  0.6000E+01
    -14.996  0.0000E+00  0.0000E+00  0.6000E+01  0.6000E+01
    -14.861  0.0000E+00  0.0000E+00  0.6000E+01  0.6000E+01
    -14.726  0.0000E+00  0.0000E+00  0.6000E+01  0.6000E+01
    -14.592  0.0000E+00  0.0000E+00  0.6000E+01  0.6000E+01
    -14.457  0.0000E+00  0.0000E+00  0.6000E+01  0.6000E+01
    -14.323  0.0000E+00  0.0000E+00  0.6000E+01  0.6000E+01
    -14.188  0.0000E+00  0.0000E+00  0.6000E+01  0.6000E+01
    -14.053  0.0000E+00  0.0000E+00  0.6000E+01  0.6000E+01
    -13.919  0.0000E+00  0.0000E+00  0.6000E+01  0.6000E+01
    -13.784  0.0000E+00  0.0000E+00  0.6000E+01  0.6000E+01
    -13.650  0.0000E+00  0.0000E+00  0.6000E+01  0.6000E+01
    -13.515  0.0000E+00  0.0000E+00  0.6000E+01  0.6000E+01
    -13.380  0.0000E+00  0.0000E+00  0.6000E+01  0.6000E+01
    -13.246  0.0000E+00  0.0000E+00  0.6000E+01  0.6000E+01
    -13.111  0.0000E+00  0.0000E+00  0.6000E+01  0.6000E+01
    -12.977  0.0000E+00  0.0000E+00  0.6000E+01  0.6000E+01
    -12.842  0.0000E+00  0.0000E+00  0.6000E+01  0.6000E+01
    -12.707  0.0000E+00  0.0000E+00  0.6000E+01  0.6000E+01
    -12.573  0.0000E+00  0.0000E+00  0.6000E+01  0.6000E+01
    -12.438  0.0000E+00  0.0000E+00  0.6000E+01  0.6000E+01
    -12.304  0.0000E+00  0.0000E+00  0.6000E+01  0.6000E+01
    -12.169  0.0000E+00  0.0000E+00  0.6000E+01  0.6000E+01
    -12.034  0.0000E+00  0.0000E+00  0.6000E+01  0.6000E+01
    -11.900  0.0000E+00  0.0000E+00  0.6000E+01  0.6000E+01
    -11.765  0.0000E+00  0.0000E+00  0.6000E+01  0.6000E+01
    -11.631  0.0000E+00  0.0000E+00  0.6000E+01  0.6000E+01
    -11.496  0.0000E+00  0.0000E+00  0.6000E+01  0.6000E+01
    -11.361  0.0000E+00  0.0000E+00  0.6000E+01  0.6000E+01
    -11.227  0.0000E+00  0.0000E+00  0.6000E+01  0.6000E+01
    -11.092  0.0000E+00  0.0000E+00  0.6000E+01  0.6000E+01
    -10.958  0.0000E+00  0.0000E+00  0.6000E+01  0.6000E+01
    -10.823  0.0000E+00  0.0000E+00  0.6000E+01  0.6000E+01
    -10.688  0.0000E+00  0.0000E+00  0.6000E+01  0.6000E+01
    -10.554  0.0000E+00  0.0000E+00  0.6000E+01  0.6000E+01
    -10.419  0.0000E+00  0.0000E+00  0.6000E+01  0.6000E+01
    -10.284  0.0000E+00  0.0000E+00  0.6000E+01  0.6000E+01
    -10.150  0.0000E+00  0.0000E+00  0.6000E+01  0.6000E+01
    -10.015  0.0000E+00  0.0000E+00  0.6000E+01  0.6000E+01
     -9.881  0.0000E+00  0.0000E+00  0.6000E+01  0.6000E+01
     -9.746  0.0000E+00  0.0000E+00  0.6000E+01  0.6000E+01
     -9.611  0.0000E+00  0.0000E+00  0.6000E+01  0.6000E+01
     -9.477  0.0000E+00  0.0000E+00  0.6000E+01  0.6000E+01
     -9.342  0.0000E+00  0.0000E+00  0.6000E+01  0.6000E+01
     -9.208  0.0000E+00  0.0000E+00  0.6000E+01  0.6000E+01
     -9.073  0.0000E+00  0.0000E+00  0.6000E+01  0.6000E+01
     -8.938  0.0000E+00  0.0000E+00  0.6000E+01  0.6000E+01
     -8.804  0.0000E+00  0.0000E+00  0.6000E+01  0.6000E+01
     -8.669  0.0000E+00  0.0000E+00  0.6000E+01  0.6000E+01
     -8.535  0.0000E+00  0.0000E+00  0.6000E+01  0.6000E+01
     -8.400  0.0000E+00  0.0000E+00  0.6000E+01  0.6000E+01
     -8.265  0.0000E+00  0.0000E+00  0.6000E+01  0.6000E+01
     -8.131  0.0000E+00  0.0000E+00  0.6000E+01  0.6000E+01
     -7.996  0.0000E+00  0.0000E+00  0.6000E+01  0.6000E+01
     -7.862  0.0000E+00  0.0000E+00  0.6000E+01  0.6000E+01
     -7.727  0.0000E+00  0.0000E+00  0.6000E+01  0.6000E+01
     -7.592  0.0000E+00  0.0000E+00  0.6000E+01  0.6000E+01
     -7.458  0.0000E+00  0.0000E+00  0.6000E+01  0.6000E+01
     -7.323  0.0000E+00  0.0000E+00  0.6000E+01  0.6000E+01
     -7.189  0.0000E+00  0.0000E+00  0.6000E+01  0.6000E+01
     -7.054  0.0000E+00  0.0000E+00  0.6000E+01  0.6000E+01
     -6.919  0.0000E+00  0.0000E+00  0.6000E+01  0.6000E+01
     -6.785  0.0000E+00  0.0000E+00  0.6000E+01  0.6000E+01
     -6.650  0.0000E+00  0.0000E+00  0.6000E+01  0.6000E+01
     -6.515  0.0000E+00  0.0000E+00  0.6000E+01  0.6000E+01
     -6.381  0.0000E+00  0.0000E+00  0.6000E+01  0.6000E+01
     -6.246  0.0000E+00  0.0000E+00  0.6000E+01  0.6000E+01
     -6.112  0.0000E+00  0.0000E+00  0.6000E+01  0.6000E+01
     -5.977  0.0000E+00  0.0000E+00  0.6000E+01  0.6000E+01
     -5.842  0.0000E+00  0.0000E+00  0.6000E+01  0.6000E+01
     -5.708  0.0000E+00  0.0000E+00  0.6000E+01  0.6000E+01
     -5.573  0.0000E+00  0.0000E+00  0.6000E+01  0.6000E+01
     -5.439  0.0000E+00  0.0000E+00  0.6000E+01  0.6000E+01
     -5.304  0.0000E+00  0.0000E+00  0.6000E+01  0.6000E+01
     -5.169  0.0000E+00  0.0000E+00  0.6000E+01  0.6000E+01
     -5.035  0.0000E+00  0.0000E+00  0.6000E+01  0.6000E+01
     -4.900  0.0000E+00  0.0000E+00  0.6000E+01  0.6000E+01
     -4.766  0.0000E+00  0.0000E+00  0.6000E+01  0.6000E+01
     -4.631  0.0000E+00  0.0000E+00  0.6000E+01  0.6000E+01
     -4.496  0.0000E+00  0.0000E+00  0.6000E+01  0.6000E+01
     -4.362  0.0000E+00  0.0000E+00  0.6000E+01  0.6000E+01
     -4.227  0.0000E+00  0.0000E+00  0.6000E+01  0.6000E+01
     -4.093  0.0000E+00  0.0000E+00  0.6000E+01  0.6000E+01
     -3.958  0.0000E+00  0.0000E+00  0.6000E+01  0.6000E+01
     -3.823  0.0000E+00  0.0000E+00  0.6000E+01  0.6000E+01
     -3.689  0.0000E+00  0.0000E+00  0.6000E+01  0.6000E+01
     -3.554  0.0000E+00  0.0000E+00  0.6000E+01  0.6000E+01
     -3.420  0.0000E+00  0.0000E+00  0.6000E+01  0.6000E+01
     -3.285  0.0000E+00  0.0000E+00  0.6000E+01  0.6000E+01
     -3.150  0.0000E+00  0.0000E+00  0.6000E+01  0.6000E+01
     -3.016  0.0000E+00  0.0000E+00  0.6000E+01  0.6000E+01
     -2.881  0.0000E+00  0.0000E+00  0.6000E+01  0.6000E+01
     -2.747  0.0000E+00  0.0000E+00  0.6000E+01  0.6000E+01
     -2.612  0.0000E+00  0.0000E+00  0.6000E+01  0.6000E+01
     -2.477  0.0000E+00  0.0000E+00  0.6000E+01  0.6000E+01
     -2.343  0.0000E+00  0.0000E+00  0.6000E+01  0.6000E+01
     -2.208  0.0000E+00  0.0000E+00  0.6000E+01  0.6000E+01
     -2.073  0.0000E+00  0.0000E+00  0.6000E+01  0.6000E+01
     -1.939  0.0000E+00  0.0000E+00  0.6000E+01  0.6000E+01
     -1.804  0.0000E+00  0.0000E+00  0.6000E+01  0.6000E+01
     -1.670  0.0000E+00  0.0000E+00  0.6000E+01  0.6000E+01
     -1.535  0.0000E+00  0.0000E+00  0.6000E+01  0.6000E+01
     -1.400  0.0000E+00  0.0000E+00  0.6000E+01  0.6000E+01
     -1.266  0.0000E+00  0.0000E+00  0.6000E+01  0.6000E+01
     -1.131  0.0000E+00  0.0000E+00  0.6000E+01  0.6000E+01
     -0.997  0.0000E+00  0.0000E+00  0.6000E+01  0.6000E+01
     -0.862  0.3565E-04  0.4868E-04  0.6000E+01  0.6000E+01
     -0.727  0.3658E-02  0.3781E-02  0.6000E+01  0.6000E+01
     -0.593  0.1322E-01  0.1346E-01  0.6001E+01  0.6001E+01
     -0.458  0.2873E-01  0.2907E-01  0.6004E+01  0.6004E+01
     -0.324  0.4752E-01  0.4780E-01  0.6009E+01  0.6009E+01
     -0.189  0.5981E-01  0.5997E-01  0.6017E+01  0.6017E+01
     -0.054  0.6545E-01  0.6550E-01  0.6025E+01  0.6025E+01
      0.080  0.7020E-01  0.7031E-01  0.6034E+01  0.6034E+01
      0.215  0.7879E-01  0.7898E-01  0.6044E+01  0.6044E+01
      0.349  0.9101E-01  0.9124E-01  0.6055E+01  0.6056E+01
      0.484  0.1046E+00  0.1048E+00  0.6069E+01  0.6069E+01
      0.619  0.1190E+00  0.1192E+00  0.6084E+01  0.6084E+01
      0.753  0.1334E+00  0.1337E+00  0.6101E+01  0.6101E+01
      0.888  0.1450E+00  0.1452E+00  0.6119E+01  0.6120E+01
      1.022  0.1736E+00  0.1742E+00  0.6141E+01  0.6141E+01
      1.157  0.2077E+00  0.2082E+00  0.6166E+01  0.6167E+01
      1.292  0.2411E+00  0.2416E+00  0.6197E+01  0.6197E+01
      1.426  0.4164E+00  0.4195E+00  0.6238E+01  0.6239E+01
      1.561  0.7371E+00  0.7411E+00  0.6315E+01  0.6317E+01
      1.695  0.1021E+01  0.1024E+01  0.6435E+01  0.6437E+01
      1.830  0.1174E+01  0.1176E+01  0.6585E+01  0.6587E+01
      1.965  0.1243E+01  0.1244E+01  0.6747E+01  0.6749E+01
      2.099  0.1564E+01  0.1549E+01  0.6955E+01  0.6958E+01
      2.234  0.1168E+01  0.1171E+01  0.7117E+01  0.7119E+01
      2.369  0.1439E+01  0.1441E+01  0.7292E+01  0.7294E+01
      2.503  0.1527E+01  0.1528E+01  0.7492E+01  0.7495E+01
      2.638  0.1527E+01  0.1526E+01  0.7699E+01  0.7702E+01
      2.772  0.1456E+01  0.1456E+01  0.7922E+01  0.7924E+01
      2.907  0.5861E+00  0.5841E+00  0.8056E+01  0.8057E+01
      3.042  0.4659E+00  0.4647E+00  0.8126E+01  0.8127E+01
      3.176  0.4079E+00  0.4075E+00  0.8184E+01  0.8185E+01
      3.311  0.4182E+00  0.4209E+00  0.8239E+01  0.8240E+01
      3.445  0.1863E+01  0.1875E+01  0.8356E+01  0.8358E+01
      3.580  0.2546E+01  0.2561E+01  0.8603E+01  0.8607E+01
      3.715  0.2803E+01  0.2806E+01  0.8963E+01  0.8967E+01
      3.849  0.1722E+01  0.1698E+01  0.9281E+01  0.9284E+01
      3.984  0.8716E+00  0.8709E+00  0.9426E+01  0.9428E+01
      4.118  0.8420E+00  0.8424E+00  0.9540E+01  0.9541E+01
      4.253  0.8689E+00  0.8691E+00  0.9655E+01  0.9656E+01
      4.388  0.1059E+01  0.1062E+01  0.9787E+01  0.9789E+01
      4.522  0.1199E+01  0.1201E+01  0.9936E+01  0.9938E+01
      4.657  0.1468E+01  0.1470E+01  0.1012E+02  0.1012E+02
      4.791  0.1691E+01  0.1696E+01  0.1033E+02  0.1033E+02
      4.926  0.2871E+01  0.2834E+01  0.1067E+02  0.1068E+02
      5.061  0.1682E+01  0.1673E+01  0.1094E+02  0.1094E+02
      5.195  0.1348E+01  0.1347E+01  0.1113E+02  0.1114E+02
      5.330  0.1311E+01  0.1309E+01  0.1131E+02  0.1132E+02
      5.464  0.8403E+00  0.8356E+00  0.1146E+02  0.1146E+02
      5.599  0.6653E+00  0.6640E+00  0.1156E+02  0.1156E+02
      5.734  0.5437E+00  0.5423E+00  0.1164E+02  0.1164E+02
      5.868  0.4939E+00  0.4933E+00  0.1171E+02  0.1171E+02
      6.003  0.4522E+00  0.4516E+00  0.1178E+02  0.1178E+02
      6.138  0.4346E+00  0.4339E+00  0.1183E+02  0.1184E+02
      6.272  0.3930E+00  0.3923E+00  0.1189E+02  0.1189E+02
      6.407  0.3298E+00  0.3289E+00  0.1194E+02  0.1194E+02
      6.541  0.2376E+00  0.2404E+00  0.1198E+02  0.1198E+02
      6.676  0.4312E+00  0.4309E+00  0.1203E+02  0.1203E+02
      6.811  0.5185E+00  0.5192E+00  0.1209E+02  0.1209E+02
      6.945  0.6165E+00  0.6173E+00  0.1217E+02  0.1217E+02
      7.080  0.7601E+00  0.7610E+00  0.1226E+02  0.1226E+02
      7.214  0.8919E+00  0.8925E+00  0.1237E+02  0.1237E+02
      7.349  0.9903E+00  0.9910E+00  0.1250E+02  0.1250E+02
      7.484  0.1101E+01  0.1102E+01  0.1264E+02  0.1264E+02
      7.618  0.1210E+01  0.1211E+01  0.1280E+02  0.1280E+02
      7.753  0.1251E+01  0.1251E+01  0.1296E+02  0.1296E+02
      7.887  0.1324E+01  0.1324E+01  0.1314E+02  0.1314E+02
      8.022  0.1867E+01  0.1867E+01  0.1335E+02  0.1335E+02
      8.157  0.1498E+01  0.1496E+01  0.1358E+02  0.1359E+02
      8.291  0.1354E+01  0.1353E+01  0.1378E+02  0.1378E+02
      8.426  0.1260E+01  0.1258E+01  0.1395E+02  0.1395E+02
      8.560  0.1217E+01  0.1215E+01  0.1413E+02  0.1413E+02
      8.695  0.1037E+01  0.1036E+01  0.1427E+02  0.1427E+02
      8.830  0.1303E+01  0.1302E+01  0.1442E+02  0.1442E+02
      8.964  0.1574E+01  0.1572E+01  0.1461E+02  0.1462E+02
      9.099  0.4006E+01  0.4015E+01  0.1493E+02  0.1493E+02
      9.233  0.2806E+01  0.2802E+01  0.1540E+02  0.1540E+02
      9.368  0.1270E+01  0.1244E+01  0.1558E+02  0.1558E+02
      9.503  0.1039E+01  0.1046E+01  0.1574E+02  0.1574E+02
      9.637  0.8325E+00  0.8412E+00  0.1586E+02  0.1586E+02
      9.772  0.3753E+00  0.3745E+00  0.1594E+02  0.1594E+02
      9.906  0.1987E+00  0.1978E+00  0.1598E+02  0.1598E+02
     10.041  0.7583E-01  0.7513E-01  0.1600E+02  0.1600E+02
     10.176  0.6684E-02  0.6661E-02  0.1600E+02  0.1600E+02
     10.310  0.3971E-02  0.3955E-02  0.1600E+02  0.1600E+02
     10.445  0.1961E-02  0.1950E-02  0.1600E+02  0.1600E+02
     10.580  0.6527E-03  0.6467E-03  0.1600E+02  0.1600E+02
     10.714  0.4640E-04  0.4490E-04  0.1600E+02  0.1600E+02
     10.849  0.0000E+00  0.0000E+00  0.1600E+02  0.1600E+02
     10.983  0.0000E+00  0.0000E+00  0.1600E+02  0.1600E+02
     11.118  0.0000E+00  0.0000E+00  0.1600E+02  0.1600E+02
     11.253  0.0000E+00  0.0000E+00  0.1600E+02  0.1600E+02
     11.387  0.0000E+00  0.0000E+00  0.1600E+02  0.1600E+02
     11.522  0.0000E+00  0.0000E+00  0.1600E+02  0.1600E+02
     11.656  0.0000E+00  0.0000E+00  0.1600E+02  0.1600E+02
     11.791  0.0000E+00  0.0000E+00  0.1600E+02  0.1600E+02
     11.926  0.0000E+00  0.0000E+00  0.1600E+02  0.1600E+02
     12.060  0.0000E+00  0.0000E+00  0.1600E+02  0.1600E+02
     12.195  0.0000E+00  0.0000E+00  0.1600E+02  0.1600E+02
     12.329  0.0000E+00  0.0000E+00  0.1600E+02  0.1600E+02
     12.464  0.0000E+00  0.0000E+00  0.1600E+02  0.1600E+02
     12.599  0.0000E+00  0.0000E+00  0.1600E+02  0.1600E+02
     12.59860615    -27.78330726  301      5.10055145      1.00000000
    -27.783  0.0000E+00  0.0000E+00  0.0000E+00  0.0000E+00  0.0000E+00  0.0000E+00  0.0000E+00  0.0000E+00  0.0000E+00  0.0000E+00  0.0000E+00  0.0000E+00  0.0000E+00  0.0000E+00  0.0000E+00  0.0000E+00  0.0000E+00  0.0000E+00
    -27.649  0.0000E+00  0.0000E+00  0.0000E+00  0.0000E+00  0.0000E+00  0.0000E+00  0.0000E+00  0.0000E+00  0.0000E+00  0.0000E+00  0.0000E+00  0.0000E+00  0.0000E+00  0.0000E+00  0.0000E+00  0.0000E+00  0.0000E+00  0.0000E+00
    -27.514  0.0000E+00  0.0000E+00  0.0000E+00  0.0000E+00  0.0000E+00  0.0000E+00  0.0000E+00  0.0000E+00  0.0000E+00  0.0000E+00  0.0000E+00  0.0000E+00  0.0000E+00  0.0000E+00  0.0000E+00  0.0000E+00  0.0000E+00  0.0000E+00
    -27.379  0.0000E+00  0.0000E+00  0.0000E+00  0.0000E+00  0.0000E+00  0.0000E+00  0.0000E+00  0.0000E+00  0.0000E+00  0.0000E+00  0.0000E+00  0.0000E+00  0.0000E+00  0.0000E+00  0.0000E+00  0.0000E+00  0.0000E+00  0.0000E+00
    -27.245  0.0000E+00  0.0000E+00  0.0000E+00  0.0000E+00  0.0000E+00  0.0000E+00  0.0000E+00  0.0000E+00  0.0000E+00  0.0000E+00  0.0000E+00  0.0000E+00  0.0000E+00  0.0000E+00  0.0000E+00  0.0000E+00  0.0000E+00  0.0000E+00
    -27.110  0.0000E+00  0.0000E+00  0.0000E+00  0.0000E+00  0.0000E+00  0.0000E+00  0.0000E+00  0.0000E+00  0.0000E+00  0.0000E+00  0.0000E+00  0.0000E+00  0.0000E+00  0.0000E+00  0.0000E+00  0.0000E+00  0.0000E+00  0.0000E+00
    -26.976  0.0000E+00  0.0000E+00  0.0000E+00  0.0000E+00  0.0000E+00  0.0000E+00  0.0000E+00  0.0000E+00  0.0000E+00  0.0000E+00  0.0000E+00  0.0000E+00  0.0000E+00  0.0000E+00  0.0000E+00  0.0000E+00  0.0000E+00  0.0000E+00
    -26.841  0.0000E+00  0.0000E+00  0.0000E+00  0.0000E+00  0.0000E+00  0.0000E+00  0.0000E+00  0.0000E+00  0.0000E+00  0.0000E+00  0.0000E+00  0.0000E+00  0.0000E+00  0.0000E+00  0.0000E+00  0.0000E+00  0.0000E+00  0.0000E+00
    -26.706  0.0000E+00  0.0000E+00  0.0000E+00  0.0000E+00  0.0000E+00  0.0000E+00  0.0000E+00  0.0000E+00  0.0000E+00  0.0000E+00  0.0000E+00  0.0000E+00  0.0000E+00  0.0000E+00  0.0000E+00  0.0000E+00  0.0000E+00  0.0000E+00
    -26.572  0.0000E+00  0.0000E+00  0.0000E+00  0.0000E+00  0.0000E+00  0.0000E+00  0.0000E+00  0.0000E+00  0.0000E+00  0.0000E+00  0.0000E+00  0.0000E+00  0.0000E+00  0.0000E+00  0.0000E+00  0.0000E+00  0.0000E+00  0.0000E+00
    -26.437  0.0000E+00  0.0000E+00  0.0000E+00  0.0000E+00  0.0000E+00  0.0000E+00  0.0000E+00  0.0000E+00  0.0000E+00  0.0000E+00  0.0000E+00  0.0000E+00  0.0000E+00  0.0000E+00  0.0000E+00  0.0000E+00  0.0000E+00  0.0000E+00
    -26.303  0.0000E+00  0.0000E+00  0.0000E+00  0.0000E+00  0.0000E+00  0.0000E+00  0.0000E+00  0.0000E+00  0.0000E+00  0.0000E+00  0.0000E+00  0.0000E+00  0.0000E+00  0.0000E+00  0.0000E+00  0.0000E+00  0.0000E+00  0.0000E+00
    -26.168  0.0000E+00  0.0000E+00  0.0000E+00  0.0000E+00  0.0000E+00  0.0000E+00  0.0000E+00  0.0000E+00  0.0000E+00  0.0000E+00  0.0000E+00  0.0000E+00  0.0000E+00  0.0000E+00  0.0000E+00  0.0000E+00  0.0000E+00  0.0000E+00
    -26.033  0.0000E+00  0.0000E+00  0.0000E+00  0.0000E+00  0.0000E+00  0.0000E+00  0.0000E+00  0.0000E+00  0.0000E+00  0.0000E+00  0.0000E+00  0.0000E+00  0.0000E+00  0.0000E+00  0.0000E+00  0.0000E+00  0.0000E+00  0.0000E+00
    -25.899  0.1403E-03  0.1423E-03  0.1960E+00  0.1977E+00  0.1960E+00  0.1977E+00  0.1960E+00  0.1977E+00  0.6696E-04  0.6812E-04  0.6696E-04  0.6812E-04  0.3653E-04  0.3735E-04  0.6696E-04  0.6812E-04  0.3653E-04  0.3735E-04
    -25.764  0.1355E-02  0.1361E-02  0.7648E+00  0.7673E+00  0.7648E+00  0.7673E+00  0.7648E+00  0.7673E+00  0.4717E-03  0.4764E-03  0.4717E-03  0.4764E-03  0.2811E-03  0.2860E-03  0.4717E-03  0.4764E-03  0.2811E-03  0.2860E-03
    -25.630  0.2384E-02  0.2381E-02  0.8986E+00  0.8957E+00  0.8986E+00  0.8957E+00  0.8986E+00  0.8957E+00  0.6571E-03  0.6577E-03  0.6571E-03  0.6577E-03  0.4124E-03  0.4159E-03  0.6571E-03  0.6577E-03  0.4124E-03  0.4159E-03
    -25.495  0.1553E-02  0.1554E-02  0.4369E+00  0.4382E+00  0.4369E+00  0.4382E+00  0.4369E+00  0.4382E+00  0.3450E-03  0.3470E-03  0.3450E-03  0.3470E-03  0.1168E-03  0.1174E-03  0.3450E-03  0.3470E-03  0.1168E-03  0.1174E-03
    -25.360  0.9594E-03  0.9303E-03  0.4673E+00  0.4600E+00  0.4673E+00  0.4600E+00  0.4673E+00  0.4600E+00  0.6753E-03  0.6710E-03  0.6753E-03  0.6710E-03  0.9056E-04  0.8953E-04  0.6753E-03  0.6710E-03  0.9056E-04  0.8953E-04
    -25.226  0.1171E-02  0.1171E-02  0.6858E+00  0.6865E+00  0.6858E+00  0.6865E+00  0.6858E+00  0.6865E+00  0.1129E-02  0.1134E-02  0.1129E-02  0.1134E-02  0.1383E-03  0.1392E-03  0.1129E-02  0.1134E-02  0.1383E-03  0.1392E-03
    -25.091  0.6315E-03  0.6365E-03  0.7697E+00  0.7697E+00  0.7697E+00  0.7697E+00  0.7697E+00  0.7697E+00  0.1413E-02  0.1415E-02  0.1413E-02  0.1415E-02  0.7821E-04  0.7852E-04  0.1413E-02  0.1415E-02  0.7821E-04  0.7852E-04
    -24.957  0.1734E-02  0.1707E-02  0.1378E+01  0.1348E+01  0.1378E+01  0.1348E+01  0.1378E+01  0.1348E+01  0.1842E-02  0.1805E-02  0.1842E-02  0.1805E-02  0.1245E-03  0.1219E-03  0.1842E-02  0.1805E-02  0.1245E-03  0.1219E-03
    -24.822  0.6511E-03  0.6530E-03  0.8279E+00  0.8343E+00  0.8279E+00  0.8343E+00  0.8279E+00  0.8343E+00  0.1039E-02  0.1049E-02  0.1039E-02  0.1049E-02  0.2844E-04  0.2859E-04  0.1039E-02  0.1049E-02  0.2844E-04  0.2859E-04
    -24.687  0.7517E-03  0.7507E-03  0.1237E+01  0.1237E+01  0.1237E+01  0.1237E+01  0.1237E+01  0.1237E+01  0.7587E-03  0.7574E-03  0.7587E-03  0.7574E-03  0.3079E-04  0.3034E-04  0.7587E-03  0.7574E-03  0.3079E-04  0.3034E-04
    -24.553  0.1033E-03  0.1033E-03  0.4679E+00  0.4679E+00  0.4679E+00  0.4679E+00  0.4679E+00  0.4679E+00  0.1534E-03  0.1531E-03  0.1534E-03  0.1531E-03  0.4795E-05  0.4665E-05  0.1534E-03  0.1531E-03  0.4795E-05  0.4665E-05
    -24.418  0.0000E+00  0.0000E+00  0.0000E+00  0.0000E+00  0.0000E+00  0.0000E+00  0.0000E+00  0.0000E+00  0.0000E+00  0.0000E+00  0.0000E+00  0.0000E+00  0.0000E+00  0.0000E+00  0.0000E+00  0.0000E+00  0.0000E+00  0.0000E+00
    -24.284  0.0000E+00  0.0000E+00  0.0000E+00  0.0000E+00  0.0000E+00  0.0000E+00  0.0000E+00  0.0000E+00  0.0000E+00  0.0000E+00  0.0000E+00  0.0000E+00  0.0000E+00  0.0000E+00  0.0000E+00  0.0000E+00  0.0000E+00  0.0000E+00
    -24.149  0.0000E+00  0.0000E+00  0.0000E+00  0.0000E+00  0.0000E+00  0.0000E+00  0.0000E+00  0.0000E+00  0.0000E+00  0.0000E+00  0.0000E+00  0.0000E+00  0.0000E+00  0.0000E+00  0.0000E+00  0.0000E+00  0.0000E+00  0.0000E+00
    -24.014  0.0000E+00  0.0000E+00  0.0000E+00  0.0000E+00  0.0000E+00  0.0000E+00  0.0000E+00  0.0000E+00  0.0000E+00  0.0000E+00  0.0000E+00  0.0000E+00  0.0000E+00  0.0000E+00  0.0000E+00  0.0000E+00  0.0000E+00  0.0000E+00
    -23.880  0.0000E+00  0.0000E+00  0.0000E+00  0.0000E+00  0.0000E+00  0.0000E+00  0.0000E+00  0.0000E+00  0.0000E+00  0.0000E+00  0.0000E+00  0.0000E+00  0.0000E+00  0.0000E+00  0.0000E+00  0.0000E+00  0.0000E+00  0.0000E+00
    -23.745  0.0000E+00  0.0000E+00  0.0000E+00  0.0000E+00  0.0000E+00  0.0000E+00  0.0000E+00  0.0000E+00  0.0000E+00  0.0000E+00  0.0000E+00  0.0000E+00  0.0000E+00  0.0000E+00  0.0000E+00  0.0000E+00  0.0000E+00  0.0000E+00
    -23.611  0.0000E+00  0.0000E+00  0.0000E+00  0.0000E+00  0.0000E+00  0.0000E+00  0.0000E+00  0.0000E+00  0.0000E+00  0.0000E+00  0.0000E+00  0.0000E+00  0.0000E+00  0.0000E+00  0.0000E+00  0.0000E+00  0.0000E+00  0.0000E+00
    -23.476  0.0000E+00  0.0000E+00  0.0000E+00  0.0000E+00  0.0000E+00  0.0000E+00  0.0000E+00  0.0000E+00  0.0000E+00  0.0000E+00  0.0000E+00  0.0000E+00  0.0000E+00  0.0000E+00  0.0000E+00  0.0000E+00  0.0000E+00  0.0000E+00
    -23.341  0.0000E+00  0.0000E+00  0.0000E+00  0.0000E+00  0.0000E+00  0.0000E+00  0.0000E+00  0.0000E+00  0.0000E+00  0.0000E+00  0.0000E+00  0.0000E+00  0.0000E+00  0.0000E+00  0.0000E+00  0.0000E+00  0.0000E+00  0.0000E+00
    -23.207  0.0000E+00  0.0000E+00  0.0000E+00  0.0000E+00  0.0000E+00  0.0000E+00  0.0000E+00  0.0000E+00  0.0000E+00  0.0000E+00  0.0000E+00  0.0000E+00  0.0000E+00  0.0000E+00  0.0000E+00  0.0000E+00  0.0000E+00  0.0000E+00
    -23.072  0.0000E+00  0.0000E+00  0.0000E+00  0.0000E+00  0.0000E+00  0.0000E+00  0.0000E+00  0.0000E+00  0.0000E+00  0.0000E+00  0.0000E+00  0.0000E+00  0.0000E+00  0.0000E+00  0.0000E+00  0.0000E+00  0.0000E+00  0.0000E+00
    -22.937  0.0000E+00  0.0000E+00  0.0000E+00  0.0000E+00  0.0000E+00  0.0000E+00  0.0000E+00  0.0000E+00  0.0000E+00  0.0000E+00  0.0000E+00  0.0000E+00  0.0000E+00  0.0000E+00  0.0000E+00  0.0000E+00  0.0000E+00  0.0000E+00
    -22.803  0.0000E+00  0.0000E+00  0.0000E+00  0.0000E+00  0.0000E+00  0.0000E+00  0.0000E+00  0.0000E+00  0.0000E+00  0.0000E+00  0.0000E+00  0.0000E+00  0.0000E+00  0.0000E+00  0.0000E+00  0.0000E+00  0.0000E+00  0.0000E+00
    -22.668  0.0000E+00  0.0000E+00  0.0000E+00  0.0000E+00  0.0000E+00  0.0000E+00  0.0000E+00  0.0000E+00  0.0000E+00  0.0000E+00  0.0000E+00  0.0000E+00  0.0000E+00  0.0000E+00  0.0000E+00  0.0000E+00  0.0000E+00  0.0000E+00
    -22.534  0.0000E+00  0.0000E+00  0.0000E+00  0.0000E+00  0.0000E+00  0.0000E+00  0.0000E+00  0.0000E+00  0.0000E+00  0.0000E+00  0.0000E+00  0.0000E+00  0.0000E+00  0.0000E+00  0.0000E+00  0.0000E+00  0.0000E+00  0.0000E+00
    -22.399  0.0000E+00  0.0000E+00  0.0000E+00  0.0000E+00  0.0000E+00  0.0000E+00  0.0000E+00  0.0000E+00  0.0000E+00  0.0000E+00  0.0000E+00  0.0000E+00  0.0000E+00  0.0000E+00  0.0000E+00  0.0000E+00  0.0000E+00  0.0000E+00
    -22.264  0.0000E+00  0.0000E+00  0.0000E+00  0.0000E+00  0.0000E+00  0.0000E+00  0.0000E+00  0.0000E+00  0.0000E+00  0.0000E+00  0.0000E+00  0.0000E+00  0.0000E+00  0.0000E+00  0.0000E+00  0.0000E+00  0.0000E+00  0.0000E+00
    -22.130  0.0000E+00  0.0000E+00  0.0000E+00  0.0000E+00  0.0000E+00  0.0000E+00  0.0000E+00  0.0000E+00  0.0000E+00  0.0000E+00  0.0000E+00  0.0000E+00  0.0000E+00  0.0000E+00  0.0000E+00  0.0000E+00  0.0000E+00  0.0000E+00
    -21.995  0.0000E+00  0.0000E+00  0.0000E+00  0.0000E+00  0.0000E+00  0.0000E+00  0.0000E+00  0.0000E+00  0.0000E+00  0.0000E+00  0.0000E+00  0.0000E+00  0.0000E+00  0.0000E+00  0.0000E+00  0.0000E+00  0.0000E+00  0.0000E+00
    -21.861  0.0000E+00  0.0000E+00  0.0000E+00  0.0000E+00  0.0000E+00  0.0000E+00  0.0000E+00  0.0000E+00  0.0000E+00  0.0000E+00  0.0000E+00  0.0000E+00  0.0000E+00  0.0000E+00  0.0000E+00  0.0000E+00  0.0000E+00  0.0000E+00
    -21.726  0.0000E+00  0.0000E+00  0.0000E+00  0.0000E+00  0.0000E+00  0.0000E+00  0.0000E+00  0.0000E+00  0.0000E+00  0.0000E+00  0.0000E+00  0.0000E+00  0.0000E+00  0.0000E+00  0.0000E+00  0.0000E+00  0.0000E+00  0.0000E+00
    -21.591  0.0000E+00  0.0000E+00  0.0000E+00  0.0000E+00  0.0000E+00  0.0000E+00  0.0000E+00  0.0000E+00  0.0000E+00  0.0000E+00  0.0000E+00  0.0000E+00  0.0000E+00  0.0000E+00  0.0000E+00  0.0000E+00  0.0000E+00  0.0000E+00
    -21.457  0.0000E+00  0.0000E+00  0.0000E+00  0.0000E+00  0.0000E+00  0.0000E+00  0.0000E+00  0.0000E+00  0.0000E+00  0.0000E+00  0.0000E+00  0.0000E+00  0.0000E+00  0.0000E+00  0.0000E+00  0.0000E+00  0.0000E+00  0.0000E+00
    -21.322  0.0000E+00  0.0000E+00  0.0000E+00  0.0000E+00  0.0000E+00  0.0000E+00  0.0000E+00  0.0000E+00  0.0000E+00  0.0000E+00  0.0000E+00  0.0000E+00  0.0000E+00  0.0000E+00  0.0000E+00  0.0000E+00  0.0000E+00  0.0000E+00
    -21.188  0.0000E+00  0.0000E+00  0.0000E+00  0.0000E+00  0.0000E+00  0.0000E+00  0.0000E+00  0.0000E+00  0.0000E+00  0.0000E+00  0.0000E+00  0.0000E+00  0.0000E+00  0.0000E+00  0.0000E+00  0.0000E+00  0.0000E+00  0.0000E+00
    -21.053  0.0000E+00  0.0000E+00  0.0000E+00  0.0000E+00  0.0000E+00  0.0000E+00  0.0000E+00  0.0000E+00  0.0000E+00  0.0000E+00  0.0000E+00  0.0000E+00  0.0000E+00  0.0000E+00  0.0000E+00  0.0000E+00  0.0000E+00  0.0000E+00