 vasp.6.4.1 05Apr23 (build Jul 24 2024 14:19:02) complex                         
 executed on             LinuxGNU date 2024.10.22  15:00:02
 running    1 mpi-ranks, with   24 threads/rank, on    1 nodes
 distrk:  each k-point on    1 cores,    1 groups
 distr:  one band on NCORE=   1 cores,    1 groups


--------------------------------------------------------------------------------------------------------


 INCAR:
   ISTART = 0
   ALGO = Fast
   EDIFF = 0.0001
   ENCUT = 520
   IBRION = -1
   ISIF = 2
   ISMEAR = -5
   ISPIN = 2
   LASPH = True
   LMAXMIX = 6
   LORBIT = 11
   LREAL = Auto
   LWAVE = False
   MAGMOM = 2*0.6
   NELM = 100
   NSW = 0
   PREC = Accurate
   SIGMA = 0.05

 POTCAR:    PAW_PBE Nb_pv 08Apr2002               
 POTCAR:    PAW_PBE Nb_pv 08Apr2002               
   SHA256 =  bac2b60850b34f8515cf56f9feae68b678e347865051052a0e1f5d2c6a691c0a Nb_pv/POTCAR          
   COPYR  = (c) Copyright 08Apr2002 Georg Kresse                                                    
   COPYR  = This file is part of the software VASP. Any use, copying, and all other rights are regul
   COPYR  = If you do not have a valid VASP license, you may not use, copy or distribute this file. 
   VRHFIN =Nb: 4p5s4d                                                                               
   LEXCH  = PE                                                                                      
   EATOM  =  1043.3917 eV,   76.6871 Ry                                                             
                                                                                                    
   TITEL  = PAW_PBE Nb_pv 08Apr2002                                                                 
   LULTRA =        F    use ultrasoft PP ?                                                          
   IUNSCR =        1    unscreen: 0-lin 1-nonlin 2-no                                               
   RPACOR =    2.200    partial core radius                                                         
   POMASS =   92.000; ZVAL   =   11.000    mass and valenz                                          
   RCORE  =    2.750    outmost cutoff radius                                                       
   RWIGS  =    2.840; RWIGS  =    1.503    wigner-seitz radius (au A)                               
   ENMAX  =  208.608; ENMIN  =  156.456 eV                                                          
   RCLOC  =    2.201    cutoff for local pot                                                        
   LCOR   =        T    correct aug charges                                                         
   LPAW   =        T    paw PP                                                                      
   EAUG   =  355.067                                                                                
   DEXC   =    0.000                                                                                
   RMAX   =    2.804    core radius for proj-oper                                                   
   RAUG   =    1.300    factor for augmentation sphere                                              
   RDEP   =    2.776    radius for radial grids                                                     
   RDEPT  =    2.198    core radius for aug-charge                                                  
                                                                                                    
   Atomic configuration                                                                             
   11 entries                                                                                       
     n  l   j            E        occ.                                                              
     1  0  0.50    -18805.2456   2.0000                                                             
     2  0  0.50     -2630.2869   2.0000                                                             
     2  1  1.50     -2348.4045   6.0000                                                             
     3  0  0.50      -438.8756   2.0000                                                             
     3  1  1.50      -346.7587   6.0000                                                             
     3  2  2.50      -196.2559  10.0000                                                             
     4  0  0.50       -58.3859   2.0000                                                             
     4  1  1.50       -34.5141   6.0000                                                             
     4  2  2.50        -3.0408   4.0000                                                             
     5  0  0.50        -3.9816   1.0000                                                             
     4  3  2.50        -1.3606   0.0000                                                             
   Description                                                                                      
     l       E           TYP  RCUT    TYP  RCUT                                                     
     1    -34.5140617     23  2.600                                                                 
     1     -1.3605826     23  2.600                                                                 
     2     -3.0407924     23  2.600                                                                 
     2     -1.4463597     23  2.600                                                                 
     0     -3.9816219     23  2.750                                                                 
     0     20.4087390     23  2.750                                                                 
  local pseudopotential read in
  partial core-charges read in
  partial kinetic energy density read in
  atomic valenz-charges read in
  non local Contribution for L=           1  read in
    real space projection operators read in
  non local Contribution for L=           1  read in
    real space projection operators read in
  non local Contribution for L=           2  read in
    real space projection operators read in
  non local Contribution for L=           2  read in
    real space projection operators read in
  non local Contribution for L=           0  read in
    real space projection operators read in
  non local Contribution for L=           0  read in
    real space projection operators read in
    PAW grid and wavefunctions read in

   number of l-projection  operators is LMAX  =           6
   number of lm-projection operators is LMMAX =          18

 -----------------------------------------------------------------------------
|                                                                             |
|               ----> ADVICE to this user running VASP <----                  |
|                                                                             |
|     You have a (more or less) 'small supercell' and for smaller cells       |
|     it is recommended to use the reciprocal-space projection scheme!        |
|     The real-space optimization is not efficient for small cells and it     |
|     is also less accurate ...                                               |
|     Therefore, set LREAL=.FALSE. in the INCAR file.                         |
|                                                                             |
 -----------------------------------------------------------------------------

 Optimization of the real space projectors (new method)

 maximal supplied QI-value         = 13.61
 optimisation between [QCUT,QGAM] = [ 11.57, 23.27] = [ 37.45,151.59] Ry 
 Optimized for a Real-space Cutoff    1.63 Angstroem

   l    n(q)    QCUT    max X(q) W(low)/X(q) W(high)/X(q)  e(spline) 
   1     11    11.565     4.545    0.12E-04    0.18E-04    0.64E-07
   1     11    11.565     6.014    0.42E-04    0.48E-04    0.13E-06
   2     10    11.565   266.542    0.24E-03    0.87E-04    0.13E-05
   2     10    11.565   232.726    0.24E-03    0.87E-04    0.13E-05
   0     11    11.565    38.050    0.76E-04    0.32E-05    0.94E-06
   0     11    11.565    16.565    0.58E-04    0.25E-05    0.73E-06
  PAW_PBE Nb_pv 08Apr2002               :
 energy of atom  1       EATOM=-1043.3917
 kinetic energy error for atom=    0.0011 (will be added to EATOM!!)


 POSCAR: Nb2
  positions in direct lattice
  velocities in cartesian coordinates
 exchange correlation table for  LEXCH =        8
   RHO(1)=    0.500       N(1)  =     2000
   RHO(2)=  100.500       N(2)  =     4000



--------------------------------------------------------------------------------------------------------


 ion  position               nearest neighbor table
   1  0.000  0.000  0.000-   2 2.85   2 2.85   2 2.85   2 2.85   2 2.85   2 2.85   2 2.85   2 2.85

   2  0.500  0.500  0.500-   1 2.85   1 2.85   1 2.85   1 2.85   1 2.85   1 2.85   1 2.85   1 2.85


  LATTYP: Found a simple cubic cell.
 ALAT       =     3.2882237153
  
  Lattice vectors:
  
 A1 = (   3.2882237153,   0.0000000000,   0.0000000000)
 A2 = (   0.0000000000,   3.2882237153,   0.0000000000)
 A3 = (  -0.0000000000,  -0.0000000000,   3.2882237153)


Analysis of symmetry for initial positions (statically):
=====================================================================
 Subroutine PRICEL returns following result:
 
  LATTYP: Found a body centered cubic cell.
 ALAT       =     3.2882237153
  
  Lattice vectors:
  
 A1 = (   1.6441118576,   1.6441118576,  -1.6441118576)
 A2 = (  -1.6441118576,   1.6441118576,   1.6441118576)
 A3 = (   1.6441118576,  -1.6441118576,   1.6441118576)
 
   2 primitive cells build up your supercell.
 

 Routine SETGRP: Setting up the symmetry group for a 
 simple cubic supercell.


 Subroutine GETGRP returns: Found 48 space group operations
 (whereof 48 operations were pure point group operations)
 out of a pool of 48 trial point group operations.


The static configuration has the point symmetry O_h .


Analysis of symmetry for dynamics (positions and initial velocities):
=====================================================================
 Subroutine PRICEL returns following result:
 
  LATTYP: Found a body centered cubic cell.
 ALAT       =     3.2882237153
  
  Lattice vectors:
  
 A1 = (   1.6441118576,   1.6441118576,  -1.6441118576)
 A2 = (  -1.6441118576,   1.6441118576,   1.6441118576)
 A3 = (   1.6441118576,  -1.6441118576,   1.6441118576)
 
   2 primitive cells build up your supercell.
 

 Routine SETGRP: Setting up the symmetry group for a 
 simple cubic supercell.


 Subroutine GETGRP returns: Found 48 space group operations
 (whereof 48 operations were pure point group operations)
 out of a pool of 48 trial point group operations.


The dynamic configuration has the point symmetry O_h .


Analysis of structural, dynamic, and magnetic symmetry:
=====================================================================
 Subroutine PRICEL returns following result:
 
  LATTYP: Found a body centered cubic cell.
 ALAT       =     3.2882237153
  
  Lattice vectors:
  
 A1 = (   1.6441118576,   1.6441118576,  -1.6441118576)
 A2 = (  -1.6441118576,   1.6441118576,   1.6441118576)
 A3 = (   1.6441118576,  -1.6441118576,   1.6441118576)
 
   2 primitive cells build up your supercell.
 

 Routine SETGRP: Setting up the symmetry group for a 
 simple cubic supercell.


 Subroutine GETGRP returns: Found 48 space group operations
 (whereof 48 operations were pure point group operations)
 out of a pool of 48 trial point group operations.


The overall configuration has the point symmetry O_h .


 Subroutine INISYM returns: Found 48 space group operations
 (whereof 48 operations are pure point group operations),
 and found     2 'primitive' translations


----------------------------------------------------------------------------------------

                                     Primitive cell                                     

  volume of cell :      17.7768

  direct lattice vectors                    reciprocal lattice vectors
     1.644111858  1.644111858 -1.644111858     0.304115561  0.304115561 -0.000000000
    -1.644111858  1.644111858  1.644111858    -0.000000000  0.304115561  0.304115561
     1.644111858 -1.644111858  1.644111858     0.304115561 -0.000000000  0.304115561

  length of vectors
     2.847685271  2.847685271  2.847685271     0.430084351  0.430084351  0.430084351

  position of ions in fractional coordinates (direct lattice)
     0.000000000  0.000000000  0.000000000

  ion indices of the primitive-cell ions
   primitive index   ion index
                 1           1

----------------------------------------------------------------------------------------



 KPOINTS: pymatgen with grid density = 869 / numbe

Automatic generation of k-mesh.
 Grid dimensions read from file:
 generate k-points for:    7    7    7

 Generating k-lattice:

  Cartesian coordinates                     Fractional coordinates (reciprocal lattice)
     0.043445080 -0.000000000  0.000000000     0.142857143 -0.000000000  0.000000000
    -0.000000000  0.043445080  0.000000000     0.000000000  0.142857143  0.000000000
    -0.000000000 -0.000000000  0.043445080    -0.000000000 -0.000000000  0.142857143

  Length of vectors
     0.043445080  0.043445080  0.043445080

  Shift w.r.t. Gamma in fractional coordinates (k-lattice)
     0.000000000  0.000000000  0.000000000

 TETIRR: Found    163 inequivalent tetrahedra from     2058
 
 Subroutine IBZKPT returns following result:
 ===========================================
 
 Found     20 irreducible k-points:
 
 Following reciprocal coordinates:
            Coordinates               Weight
  0.000000  0.000000  0.000000      1.000000
  0.142857  0.000000  0.000000      6.000000
  0.285714  0.000000  0.000000      6.000000
  0.428571  0.000000  0.000000      6.000000
  0.142857  0.142857  0.000000     12.000000
  0.285714  0.142857  0.000000     24.000000
  0.428571  0.142857  0.000000     24.000000
  0.285714  0.285714  0.000000     12.000000
  0.428571  0.285714  0.000000     24.000000
  0.428571  0.428571  0.000000     12.000000
  0.142857  0.142857  0.142857      8.000000
  0.285714  0.142857  0.142857     24.000000
  0.428571  0.142857  0.142857     24.000000
  0.285714  0.285714  0.142857     24.000000
  0.428571  0.285714  0.142857     48.000000
  0.428571  0.428571  0.142857     24.000000
  0.285714  0.285714  0.285714      8.000000
  0.428571  0.285714  0.285714     24.000000
  0.428571  0.428571  0.285714     24.000000
  0.428571  0.428571  0.428571      8.000000
 
 Following cartesian coordinates:
            Coordinates               Weight
  0.000000  0.000000  0.000000      1.000000
  0.043006  0.000000  0.000000      6.000000
  0.086012  0.000000  0.000000      6.000000
  0.129019  0.000000  0.000000      6.000000
  0.043006  0.043006  0.000000     12.000000
  0.086012  0.043006  0.000000     24.000000
  0.129019  0.043006  0.000000     24.000000
  0.086012  0.086012  0.000000     12.000000
  0.129019  0.086012  0.000000     24.000000
  0.129019  0.129019  0.000000     12.000000
  0.043006  0.043006  0.043006      8.000000
  0.086012  0.043006  0.043006     24.000000
  0.129019  0.043006  0.043006     24.000000
  0.086012  0.086012  0.043006     24.000000
  0.129019  0.086012  0.043006     48.000000
  0.129019  0.129019  0.043006     24.000000
  0.086012  0.086012  0.086012      8.000000
  0.129019  0.086012  0.086012     24.000000
  0.129019  0.129019  0.086012     24.000000
  0.129019  0.129019  0.129019      8.000000
 


--------------------------------------------------------------------------------------------------------




 Dimension of arrays:
   k-points           NKPTS =     20   k-points in BZ     NKDIM =     20   number of bands    NBANDS=     16
   number of dos      NEDOS =    301   number of ions     NIONS =      2
   non local maximal  LDIM  =      6   non local SUM 2l+1 LMDIM =     18
   total plane-waves  NPLWV =  13824
   max r-space proj   IRMAX =   7067   max aug-charges    IRDMAX=  24135
   dimension x,y,z NGX =    24 NGY =   24 NGZ =   24
   dimension x,y,z NGXF=    48 NGYF=   48 NGZF=   48
   support grid    NGXF=    48 NGYF=   48 NGZF=   48
   ions per type =               2
   NGX,Y,Z   is equivalent  to a cutoff of  12.13, 12.13, 12.13 a.u.
   NGXF,Y,Z  is equivalent  to a cutoff of  24.27, 24.27, 24.27 a.u.

 SYSTEM =  unknown system                          
 POSCAR =  Nb2                                     

 Startparameter for this run:
   NWRITE =      2    write-flag & timer
   PREC   = accura    normal or accurate (medium, high low for compatibility)
   ISTART =      0    job   : 0-new  1-cont  2-samecut
   ICHARG =      2    charge: 1-file 2-atom 10-const
   ISPIN  =      2    spin polarized calculation?
   LNONCOLLINEAR =      F non collinear calculations
   LSORBIT =      F    spin-orbit coupling
   INIWAV =      1    electr: 0-lowe 1-rand  2-diag
   LASPH  =      T    aspherical Exc in radial PAW
 Electronic Relaxation 1
   ENCUT  =  520.0 eV  38.22 Ry    6.18 a.u.   6.11  6.11  6.11*2*pi/ulx,y,z
   ENINI  =  520.0     initial cutoff
   ENAUG  =  355.1 eV  augmentation charge cutoff
   NELM   =    100;   NELMIN=  2; NELMDL= -5     # of ELM steps 
   EDIFF  = 0.1E-03   stopping-criterion for ELM
   LREAL  =      T    real-space projection
   NLSPLINE    = F    spline interpolate recip. space projectors
   LCOMPAT=      F    compatible to vasp.4.4
   GGA_COMPAT  = T    GGA compatible to vasp.4.4-vasp.4.6
   LMAXPAW     = -100 max onsite density
   LMAXMIX     =    6 max onsite mixed and CHGCAR
   VOSKOWN=      0    Vosko Wilk Nusair interpolation
   ROPT   =   -0.00025
 Ionic relaxation
   EDIFFG = 0.1E-02   stopping-criterion for IOM
   NSW    =      0    number of steps for IOM
   NBLOCK =      1;   KBLOCK =      1    inner block; outer block 
   IBRION =     -1    ionic relax: 0-MD 1-quasi-New 2-CG
   NFREE  =      0    steps in history (QN), initial steepest desc. (CG)
   ISIF   =      2    stress and relaxation
   IWAVPR =     10    prediction:  0-non 1-charg 2-wave 3-comb
   ISYM   =      2    0-nonsym 1-usesym 2-fastsym
   LCORR  =      T    Harris-Foulkes like correction to forces

   POTIM  = 0.5000    time-step for ionic-motion
   TEIN   =    0.0    initial temperature
   TEBEG  =    0.0;   TEEND  =   0.0 temperature during run
   SMASS  =  -3.00    Nose mass-parameter (am)
   estimated Nose-frequenzy (Omega)   =  0.10E-29 period in steps = 0.13E+47 mass=  -0.247E-27a.u.
   SCALEE = 1.0000    scale energy and forces
   NPACO  =    256;   APACO  = 10.0  distance and # of slots for P.C.
   PSTRESS=    0.0 pullay stress

  Mass of Ions in am
   POMASS =  92.00
  Ionic Valenz
   ZVAL   =  11.00
  Atomic Wigner-Seitz radii
   RWIGS  =  -1.00
  virtual crystal weights 
   VCA    =   1.00
   NELECT =      22.0000    total number of electrons
   NUPDOWN=      -1.0000    fix difference up-down

 DOS related values:
   EMIN   =  10.00;   EMAX   =-10.00  energy-range for DOS
   EFERMI =   0.00;   METHOD = LEGACY      
   ISMEAR =    -5;   SIGMA  =   0.05  broadening in eV -4-tet -1-fermi 0-gaus

 Electronic relaxation 2 (details)
   IALGO  =     68    algorithm
   LDIAG  =      T    sub-space diagonalisation (order eigenvalues)
   LSUBROT=      F    optimize rotation matrix (better conditioning)
   TURBO    =      0    0=normal 1=particle mesh
   IRESTART =      0    0=no restart 2=restart with 2 vectors
   NREBOOT  =      0    no. of reboots
   NMIN     =      0    reboot dimension
   EREF     =   0.00    reference energy to select bands
   IMIX   =      4    mixing-type and parameters
     AMIX     =   0.40;   BMIX     =  1.00
     AMIX_MAG =   1.60;   BMIX_MAG =  1.00
     AMIN     =   0.10
     WC   =   100.;   INIMIX=   1;  MIXPRE=   1;  MAXMIX= -45

 Intra band minimization:
   WEIMIN = 0.0000     energy-eigenvalue tresh-hold
   EBREAK =  0.16E-05  absolut break condition
   DEPER  =   0.30     relativ break condition  

   TIME   =   0.40     timestep for ELM

  volume/ion in A,a.u.               =      17.78       119.96
  Fermi-wavevector in a.u.,A,eV,Ry     =   1.395043  2.636250 26.478923  1.946146
  Thomas-Fermi vector in A             =   2.518534

 Write flags
   LWAVE        =      F    write WAVECAR
   LDOWNSAMPLE  =      F    k-point downsampling of WAVECAR
   LCHARG       =      T    write CHGCAR
   LVTOT        =      F    write LOCPOT, total local potential
   LVHAR        =      F    write LOCPOT, Hartree potential only
   LELF         =      F    write electronic localiz. function (ELF)
   LORBIT       =     11    0 simple, 1 ext, 2 COOP (PROOUT), +10 PAW based schemes


 Dipole corrections
   LMONO  =      F    monopole corrections only (constant potential shift)
   LDIPOL =      F    correct potential (dipole corrections)
   IDIPOL =      0    1-x, 2-y, 3-z, 4-all directions 
   EPSILON=  1.0000000 bulk dielectric constant

 Exchange correlation treatment:
   GGA     =    --    GGA type
   LEXCH   =     8    internal setting for exchange type
   LIBXC   =     F    Libxc                    
   VOSKOWN =     0    Vosko Wilk Nusair interpolation
   LHFCALC =     F    Hartree Fock is set to
   LHFONE  =     F    Hartree Fock one center treatment
   AEXX    =    0.0000 exact exchange contribution

 Linear response parameters
   LEPSILON=     F    determine dielectric tensor
   LRPA    =     F    only Hartree local field effects (RPA)
   LNABLA  =     F    use nabla operator in PAW spheres
   LVEL    =     F    velocity operator in full k-point grid
   CSHIFT  =0.1000    complex shift for real part using Kramers Kronig
   OMEGAMAX=  -1.0    maximum frequency
   DEG_THRESHOLD= 0.2000000E-02 threshold for treating states as degnerate
   RTIME   =   -0.100 relaxation time in fs
  (WPLASMAI=    0.000 imaginary part of plasma frequency in eV, 0.658/RTIME)
   DFIELD  = 0.0000000 0.0000000 0.0000000 field for delta impulse in time

  Optional k-point grid parameters
   LKPOINTS_OPT  =     F    use optional k-point grid
   KPOINTS_OPT_MODE=     1    mode for optional k-point grid

 Orbital magnetization related:
   ORBITALMAG=     F  switch on orbital magnetization
   LCHIMAG   =     F  perturbation theory with respect to B field
   DQ        =  0.001000  dq finite difference perturbation B field
   LLRAUG    =     F  two centre corrections for induced B field
   LBONE     =     F  B-component reconstruction in AE one-centre
   LVGVCALC  =     T  calculate vGv susceptibility
   LVGVAPPL  =     F  apply vGv susceptibility instead of pGv for G=0

 Random number generation:
   RANDOM_GENERATOR = DEFAULT
   PCG_SEED         = not used


--------------------------------------------------------------------------------------------------------


 Static calculation
 charge density and potential will be updated during run
 spin polarized calculation
 RMM-DIIS sequential band-by-band and
  variant of blocked Davidson during initial phase
 perform sub-space diagonalisation
    before iterative eigenvector-optimisation
 modified Broyden-mixing scheme, WC =      100.0
 initial mixing is a Kerker type mixing with AMIX =  0.4000 and BMIX =      1.0000
 Hartree-type preconditioning will be used
 using additional bands            5
 real space projection scheme for non local part
 use partial core corrections
 calculate Harris-corrections to forces   (improved forces if not selfconsistent)
 use gradient corrections 
 use of overlap-Matrix (Vanderbilt PP)
 Fermi weights with tetrahedron method with Bloechl corrections


--------------------------------------------------------------------------------------------------------


  energy-cutoff  :      520.00
  volume of cell :       35.55
      direct lattice vectors                 reciprocal lattice vectors
     3.288223715  0.000000000  0.000000000     0.304115561 -0.000000000  0.000000000
     0.000000000  3.288223715  0.000000000    -0.000000000  0.304115561  0.000000000
    -0.000000000 -0.000000000  3.288223715    -0.000000000 -0.000000000  0.304115561

  length of vectors
     3.288223715  3.288223715  3.288223715     0.304115561  0.304115561  0.304115561



 k-points in units of 2pi/SCALE and weight: pymatgen with grid density = 869 / numbe
   0.00000000  0.00000000  0.00000000       0.003
   0.04300621  0.00000000  0.00000000       0.017
   0.08601242  0.00000000  0.00000000       0.017
   0.12901863  0.00000000  0.00000000       0.017
   0.04300621  0.04300621  0.00000000       0.035
   0.08601242  0.04300621  0.00000000       0.070
   0.12901863  0.04300621  0.00000000       0.070
   0.08601242  0.08601242  0.00000000       0.035
   0.12901863  0.08601242  0.00000000       0.070
   0.12901863  0.12901863  0.00000000       0.035
   0.04300621  0.04300621  0.04300621       0.023
   0.08601242  0.04300621  0.04300621       0.070
   0.12901863  0.04300621  0.04300621       0.070
   0.08601242  0.08601242  0.04300621       0.070
   0.12901863  0.08601242  0.04300621       0.140
   0.12901863  0.12901863  0.04300621       0.070
   0.08601242  0.08601242  0.08601242       0.023
   0.12901863  0.08601242  0.08601242       0.070
   0.12901863  0.12901863  0.08601242       0.070
   0.12901863  0.12901863  0.12901863       0.023

 k-points in reciprocal lattice and weights: pymatgen with grid density = 869 / numbe
   0.00000000  0.00000000  0.00000000       0.003
   0.14285714  0.00000000  0.00000000       0.017
   0.28571429  0.00000000  0.00000000       0.017
   0.42857143  0.00000000  0.00000000       0.017
   0.14285714  0.14285714  0.00000000       0.035
   0.28571429  0.14285714  0.00000000       0.070
   0.42857143  0.14285714  0.00000000       0.070
   0.28571429  0.28571429  0.00000000       0.035
   0.42857143  0.28571429  0.00000000       0.070
   0.42857143  0.42857143  0.00000000       0.035
   0.14285714  0.14285714  0.14285714       0.023
   0.28571429  0.14285714  0.14285714       0.070
   0.42857143  0.14285714  0.14285714       0.070
   0.28571429  0.28571429  0.14285714       0.070
   0.42857143  0.28571429  0.14285714       0.140
   0.42857143  0.42857143  0.14285714       0.070
   0.28571429  0.28571429  0.28571429       0.023
   0.42857143  0.28571429  0.28571429       0.070
   0.42857143  0.42857143  0.28571429       0.070
   0.42857143  0.42857143  0.42857143       0.023

 position of ions in fractional coordinates (direct lattice) 
   0.00000000  0.00000000  0.00000000
   0.50000000  0.50000000  0.50000000

 position of ions in cartesian coordinates  (Angst):
   0.00000000  0.00000000  0.00000000
   1.64411186  1.64411186  1.64411186



--------------------------------------------------------------------------------------------------------


 k-point   1 :   0.0000 0.0000 0.0000  plane waves:     949
 k-point   2 :   0.1429 0.0000 0.0000  plane waves:     964
 k-point   3 :   0.2857 0.0000 0.0000  plane waves:     956
 k-point   4 :   0.4286 0.0000 0.0000  plane waves:     952
 k-point   5 :   0.1429 0.1429 0.0000  plane waves:     957
 k-point   6 :   0.2857 0.1429 0.0000  plane waves:     954
 k-point   7 :   0.4286 0.1429 0.0000  plane waves:     951
 k-point   8 :   0.2857 0.2857 0.0000  plane waves:     959
 k-point   9 :   0.4286 0.2857 0.0000  plane waves:     957
 k-point  10 :   0.4286 0.4286 0.0000  plane waves:     960
 k-point  11 :   0.1429 0.1429 0.1429  plane waves:     952
 k-point  12 :   0.2857 0.1429 0.1429  plane waves:     955
 k-point  13 :   0.4286 0.1429 0.1429  plane waves:     949
 k-point  14 :   0.2857 0.2857 0.1429  plane waves:     959
 k-point  15 :   0.4286 0.2857 0.1429  plane waves:     952
 k-point  16 :   0.4286 0.4286 0.1429  plane waves:     964
 k-point  17 :   0.2857 0.2857 0.2857  plane waves:     961
 k-point  18 :   0.4286 0.2857 0.2857  plane waves:     962
 k-point  19 :   0.4286 0.4286 0.2857  plane waves:     970
 k-point  20 :   0.4286 0.4286 0.4286  plane waves:     961

 maximum and minimum number of plane-waves per node :       970      949

 maximum number of plane-waves:       970
 maximum index in each direction: 
   IXMAX=    6   IYMAX=    6   IZMAX=    6
   IXMIN=   -6   IYMIN=   -6   IZMIN=   -6


 serial   3D FFT for wavefunctions
 parallel 3D FFT for charge:
    minimum data exchange during FFTs selected (reduces bandwidth)


 total amount of memory used by VASP MPI-rank0    56463. kBytes
=======================================================================

   base      :      30000. kBytes
   nonlr-proj:       2839. kBytes
   fftplans  :       3916. kBytes
   grid      :       9345. kBytes
   one-center:         62. kBytes
   wavefun   :      10301. kBytes

     INWAV:  cpu time      0.0036: real time      0.0000
 Broyden mixing: mesh for mixing (old mesh)
   NGX = 13   NGY = 13   NGZ = 13
  (NGX  = 48   NGY  = 48   NGZ  = 48)
  gives a total of   2197 points

 initial charge density was supplied:
 charge density of overlapping atoms calculated
 number of electron      22.0000000 magnetization       1.2000000
 keeping initial charge density in first step


--------------------------------------------------------------------------------------------------------


 Maximum index for non-local projection operator          437
 Maximum index for augmentation-charges        23127 (set IRDMAX)


--------------------------------------------------------------------------------------------------------


 First call to EWALD:  gamma=   0.539
 Maximum number of real-space cells 3x 3x 3
 Maximum number of reciprocal cells 3x 3x 3

    FEWALD:  cpu time      0.1164: real time      0.0046


--------------------------------------- Ionic step        1  -------------------------------------------




--------------------------------------- Iteration      1(   1)  ---------------------------------------


    POTLOK:  cpu time      1.7636: real time      0.1126
    SETDIJ:  cpu time      0.9961: real time      0.2476
     EDDAV:  cpu time    122.2873: real time      6.8293
 BZINTS: Fermi energy:   23.595068;   22.000000 electrons
         Band energy:-0.225390E+02;  BLOECHL correction:   -0.795096
       DOS:  cpu time      0.1189: real time      0.0089
    --------------------------------------------
      LOOP:  cpu time    125.1658: real time      7.1983

 eigenvalue-minimisations  :  1392
 total energy-change (2. order) : 0.2031258E+03  (-0.1156450E+04)
 number of electron      22.0000000 magnetization       1.2000000
 augmentation part       22.0000000 magnetization       1.2000000

 Free energy of the ion-electron system (eV)
  ---------------------------------------------------
  alpha Z        PSCENC =       254.66231132
  Ewald energy   TEWEN  =     -1928.36839172
  -Hartree energ DENC   =      -272.19112598
  -exchange      EXHF   =         0.00000000
  -V(xc)+E(xc)   XCENC  =        52.87220253
  PAW double counting   =      1671.32378679    -1639.41528309
  entropy T*S    EENTRO =         0.00000000
  eigenvalues    EBANDS =       -22.53895404
  atomic energy  EATOM  =      2086.78124273
  Solvation  Ediel_sol  =         0.00000000
  ---------------------------------------------------
  free energy    TOTEN  =       203.12578854 eV

  energy without entropy =      203.12578854  energy(sigma->0) =      203.12578854


--------------------------------------------------------------------------------------------------------




--------------------------------------- Iteration      1(   2)  ---------------------------------------


     EDDAV:  cpu time    112.2178: real time      6.2039
 BZINTS: Fermi energy:    7.370063;   22.000000 electrons
         Band energy:-0.235998E+03;  BLOECHL correction:   -0.255832
       DOS:  cpu time      0.1262: real time      0.0080
    --------------------------------------------
      LOOP:  cpu time    112.3440: real time      6.2119

 eigenvalue-minimisations  :  1336
 total energy-change (2. order) :-0.2134591E+03  (-0.2112527E+03)
 number of electron      22.0000000 magnetization       1.2000000
 augmentation part       22.0000000 magnetization       1.2000000

 Free energy of the ion-electron system (eV)
  ---------------------------------------------------
  alpha Z        PSCENC =       254.66231132
  Ewald energy   TEWEN  =     -1928.36839172
  -Hartree energ DENC   =      -272.19112598
  -exchange      EXHF   =         0.00000000
  -V(xc)+E(xc)   XCENC  =        52.87220253
  PAW double counting   =      1671.32378679    -1639.41528309
  entropy T*S    EENTRO =         0.00000000
  eigenvalues    EBANDS =      -235.99800678
  atomic energy  EATOM  =      2086.78124273
  Solvation  Ediel_sol  =         0.00000000
  ---------------------------------------------------
  free energy    TOTEN  =       -10.33326420 eV

  energy without entropy =      -10.33326420  energy(sigma->0) =      -10.33326420


--------------------------------------------------------------------------------------------------------




--------------------------------------- Iteration      1(   3)  ---------------------------------------


     EDDAV:  cpu time    186.6042: real time     10.3706
 BZINTS: Fermi energy:    5.676886;   22.000000 electrons
         Band energy:-0.246620E+03;  BLOECHL correction:   -0.222944
       DOS:  cpu time      0.1230: real time      0.0101
    --------------------------------------------
      LOOP:  cpu time    186.7272: real time     10.3807

 eigenvalue-minimisations  :  2184
 total energy-change (2. order) :-0.1062173E+02  (-0.1001172E+02)
 number of electron      22.0000000 magnetization       1.2000000
 augmentation part       22.0000000 magnetization       1.2000000

 Free energy of the ion-electron system (eV)
  ---------------------------------------------------
  alpha Z        PSCENC =       254.66231132
  Ewald energy   TEWEN  =     -1928.36839172
  -Hartree energ DENC   =      -272.19112598
  -exchange      EXHF   =         0.00000000
  -V(xc)+E(xc)   XCENC  =        52.87220253
  PAW double counting   =      1671.32378679    -1639.41528309
  entropy T*S    EENTRO =         0.00000000
  eigenvalues    EBANDS =      -246.61973784
  atomic energy  EATOM  =      2086.78124273
  Solvation  Ediel_sol  =         0.00000000
  ---------------------------------------------------
  free energy    TOTEN  =       -20.95499526 eV

  energy without entropy =      -20.95499526  energy(sigma->0) =      -20.95499526


--------------------------------------------------------------------------------------------------------




--------------------------------------- Iteration      1(   4)  ---------------------------------------


     EDDAV:  cpu time    136.0544: real time      7.5412
 BZINTS: Fermi energy:    5.663785;   22.000000 electrons
         Band energy:-0.246751E+03;  BLOECHL correction:   -0.221493
       DOS:  cpu time      0.1193: real time      0.0092
    --------------------------------------------
      LOOP:  cpu time    136.1737: real time      7.5504

 eigenvalue-minimisations  :  1600
 total energy-change (2. order) :-0.1311522E+00  (-0.1309410E+00)
 number of electron      22.0000000 magnetization       1.2000000
 augmentation part       22.0000000 magnetization       1.2000000

 Free energy of the ion-electron system (eV)
  ---------------------------------------------------
  alpha Z        PSCENC =       254.66231132
  Ewald energy   TEWEN  =     -1928.36839172
  -Hartree energ DENC   =      -272.19112598
  -exchange      EXHF   =         0.00000000
  -V(xc)+E(xc)   XCENC  =        52.87220253
  PAW double counting   =      1671.32378679    -1639.41528309
  entropy T*S    EENTRO =         0.00000000
  eigenvalues    EBANDS =      -246.75089005
  atomic energy  EATOM  =      2086.78124273
  Solvation  Ediel_sol  =         0.00000000
  ---------------------------------------------------
  free energy    TOTEN  =       -21.08614747 eV

  energy without entropy =      -21.08614747  energy(sigma->0) =      -21.08614747


--------------------------------------------------------------------------------------------------------




--------------------------------------- Iteration      1(   5)  ---------------------------------------


     EDDAV:  cpu time    160.1947: real time      8.8400
 BZINTS: Fermi energy:    5.663429;   22.000000 electrons
         Band energy:-0.246754E+03;  BLOECHL correction:   -0.221448
       DOS:  cpu time      0.1209: real time      0.0109
    CHARGE:  cpu time      9.8581: real time      0.5406
    MIXING:  cpu time      0.0011: real time      0.0011
    --------------------------------------------
      LOOP:  cpu time    170.1748: real time      9.3926

 eigenvalue-minimisations  :  1992
 total energy-change (2. order) :-0.2916605E-02  (-0.2878866E-02)
 number of electron      21.9999991 magnetization       0.3190651
 augmentation part        7.7712683 magnetization      -0.0694590

 Broyden mixing:
  rms(total) = 0.25359E+01    rms(broyden)= 0.25359E+01
  rms(prec ) = 0.29271E+01
  weight for this iteration     100.00

 Free energy of the ion-electron system (eV)
  ---------------------------------------------------
  alpha Z        PSCENC =       254.66231132
  Ewald energy   TEWEN  =     -1928.36839172
  -Hartree energ DENC   =      -272.19112598
  -exchange      EXHF   =         0.00000000
  -V(xc)+E(xc)   XCENC  =        52.87220253
  PAW double counting   =      1671.32378679    -1639.41528309
  entropy T*S    EENTRO =         0.00000000
  eigenvalues    EBANDS =      -246.75380666
  atomic energy  EATOM  =      2086.78124273
  Solvation  Ediel_sol  =         0.00000000
  ---------------------------------------------------
  free energy    TOTEN  =       -21.08906408 eV

  energy without entropy =      -21.08906408  energy(sigma->0) =      -21.08906408


--------------------------------------------------------------------------------------------------------




--------------------------------------- Iteration      1(   6)  ---------------------------------------


    POTLOK:  cpu time      0.8880: real time      0.0707
    SETDIJ:  cpu time      1.1113: real time      0.2536
    EDDIAG:  cpu time     40.2601: real time      2.1322
  RMM-DIIS:  cpu time     88.3341: real time      4.7888
    ORTHCH:  cpu time      0.3385: real time      0.0237
 BZINTS: Fermi energy:    5.330087;   22.000000 electrons
         Band energy:-0.260084E+03;  BLOECHL correction:   -0.221623
       DOS:  cpu time      0.1232: real time      0.0090
    CHARGE:  cpu time     12.3279: real time      0.6592
    MIXING:  cpu time      0.0025: real time      0.0029
    --------------------------------------------
      LOOP:  cpu time    143.3858: real time      7.9402

 eigenvalue-minimisations  :  1406
 total energy-change (2. order) : 0.7543922E+00  (-0.7298208E-01)
 number of electron      21.9999991 magnetization       0.1237094
 augmentation part        7.8923670 magnetization      -0.0658597

 Broyden mixing:
  rms(total) = 0.99816E+00    rms(broyden)= 0.99816E+00
  rms(prec ) = 0.12560E+01
  weight for this iteration     100.00

 eigenvalues of (default mixing * dielectric matrix)
  average eigenvalue GAMMA=   1.5382
  1.5382

 Free energy of the ion-electron system (eV)
  ---------------------------------------------------
  alpha Z        PSCENC =       254.66231132
  Ewald energy   TEWEN  =     -1928.36839172
  -Hartree energ DENC   =      -253.59448364
  -exchange      EXHF   =         0.00000000
  -V(xc)+E(xc)   XCENC  =        51.89183677
  PAW double counting   =      2228.91047205    -2200.53345263
  entropy T*S    EENTRO =         0.00000000
  eigenvalues    EBANDS =      -260.08420674
  atomic energy  EATOM  =      2086.78124273
  Solvation  Ediel_sol  =         0.00000000
  ---------------------------------------------------
  free energy    TOTEN  =       -20.33467186 eV

  energy without entropy =      -20.33467186  energy(sigma->0) =      -20.33467186


--------------------------------------------------------------------------------------------------------




--------------------------------------- Iteration      1(   7)  ---------------------------------------


    POTLOK:  cpu time      1.5831: real time      0.1061
    SETDIJ:  cpu time      0.9757: real time      0.2433
    EDDIAG:  cpu time     24.9940: real time      1.4107
  RMM-DIIS:  cpu time     96.6590: real time      5.3075
    ORTHCH:  cpu time      0.3201: real time      0.0232
 BZINTS: Fermi energy:    5.048883;   22.000000 electrons
         Band energy:-0.271502E+03;  BLOECHL correction:   -0.217696
       DOS:  cpu time      0.1350: real time      0.0102
    CHARGE:  cpu time     10.2820: real time      0.5618
    MIXING:  cpu time      0.0012: real time      0.0012
    --------------------------------------------
      LOOP:  cpu time    134.9500: real time      7.6639

 eigenvalue-minimisations  :  1738
 total energy-change (2. order) : 0.1526426E+00  (-0.2007168E+00)
 number of electron      21.9999991 magnetization       0.0152772
 augmentation part        8.0594570 magnetization       0.0317030

 Broyden mixing:
  rms(total) = 0.26086E+00    rms(broyden)= 0.26086E+00
  rms(prec ) = 0.27702E+00
  weight for this iteration     100.00

 eigenvalues of (default mixing * dielectric matrix)
  average eigenvalue GAMMA=   1.0918
  1.6555  0.5280

 Free energy of the ion-electron system (eV)
  ---------------------------------------------------
  alpha Z        PSCENC =       254.66231132
  Ewald energy   TEWEN  =     -1928.36839172
  -Hartree energ DENC   =      -238.12835024
  -exchange      EXHF   =         0.00000000
  -V(xc)+E(xc)   XCENC  =        51.12226359
  PAW double counting   =      2722.94455141    -2697.69390295
  entropy T*S    EENTRO =         0.00000000
  eigenvalues    EBANDS =      -271.50175337
  atomic energy  EATOM  =      2086.78124273
  Solvation  Ediel_sol  =         0.00000000
  ---------------------------------------------------
  free energy    TOTEN  =       -20.18202923 eV

  energy without entropy =      -20.18202923  energy(sigma->0) =      -20.18202923


--------------------------------------------------------------------------------------------------------




--------------------------------------- Iteration      1(   8)  ---------------------------------------


    POTLOK:  cpu time      1.6479: real time      0.1096
    SETDIJ:  cpu time      0.9107: real time      0.2457
    EDDIAG:  cpu time     32.6892: real time      1.7680
  RMM-DIIS:  cpu time    107.6279: real time      5.8413
    ORTHCH:  cpu time      0.3200: real time      0.0211
 BZINTS: Fermi energy:    5.058512;   22.000000 electrons
         Band energy:-0.271032E+03;  BLOECHL correction:   -0.217842
       DOS:  cpu time      0.1187: real time      0.0087
    CHARGE:  cpu time      7.9506: real time      0.4554
    MIXING:  cpu time      0.0029: real time      0.0029
    --------------------------------------------
      LOOP:  cpu time    151.2679: real time      8.4526

 eigenvalue-minimisations  :  1813
 total energy-change (2. order) :-0.1112465E-01  (-0.9746089E-02)
 number of electron      21.9999991 magnetization       0.0056986
 augmentation part        8.0661692 magnetization       0.0105011

 Broyden mixing:
  rms(total) = 0.12343E+00    rms(broyden)= 0.12343E+00
  rms(prec ) = 0.15008E+00
  weight for this iteration     100.00

 eigenvalues of (default mixing * dielectric matrix)
  average eigenvalue GAMMA=   1.0809
  1.8772  0.6828  0.6828

 Free energy of the ion-electron system (eV)
  ---------------------------------------------------
  alpha Z        PSCENC =       254.66231132
  Ewald energy   TEWEN  =     -1928.36839172
  -Hartree energ DENC   =      -238.38739417
  -exchange      EXHF   =         0.00000000
  -V(xc)+E(xc)   XCENC  =        51.12828585
  PAW double counting   =      2776.25919266    -2751.23623038
  entropy T*S    EENTRO =         0.00000000
  eigenvalues    EBANDS =      -271.03217017
  atomic energy  EATOM  =      2086.78124273
  Solvation  Ediel_sol  =         0.00000000
  ---------------------------------------------------
  free energy    TOTEN  =       -20.19315388 eV

  energy without entropy =      -20.19315388  energy(sigma->0) =      -20.19315388


--------------------------------------------------------------------------------------------------------




--------------------------------------- Iteration      1(   9)  ---------------------------------------


    POTLOK:  cpu time      1.6920: real time      0.1089
    SETDIJ:  cpu time      0.9373: real time      0.2407
    EDDIAG:  cpu time     27.8692: real time      1.5425
  RMM-DIIS:  cpu time     97.3505: real time      5.3266
    ORTHCH:  cpu time      0.3087: real time      0.0202
 BZINTS: Fermi energy:    5.067103;   22.000000 electrons
         Band energy:-0.270633E+03;  BLOECHL correction:   -0.218016
       DOS:  cpu time      0.1202: real time      0.0105
    CHARGE:  cpu time      8.7629: real time      0.4993
    MIXING:  cpu time      0.0012: real time      0.0012
    --------------------------------------------
      LOOP:  cpu time    137.0420: real time      7.7498

 eigenvalue-minimisations  :  1824
 total energy-change (2. order) : 0.1885572E-03  (-0.2226885E-02)
 number of electron      21.9999991 magnetization       0.0118420
 augmentation part        8.0663066 magnetization       0.0177772

 Broyden mixing:
  rms(total) = 0.99876E-01    rms(broyden)= 0.99876E-01
  rms(prec ) = 0.12534E+00
  weight for this iteration     100.00

 eigenvalues of (default mixing * dielectric matrix)
  average eigenvalue GAMMA=   1.1261
  2.1690  0.8620  0.8620  0.6112

 Free energy of the ion-electron system (eV)
  ---------------------------------------------------
  alpha Z        PSCENC =       254.66231132
  Ewald energy   TEWEN  =     -1928.36839172
  -Hartree energ DENC   =      -238.71516547
  -exchange      EXHF   =         0.00000000
  -V(xc)+E(xc)   XCENC  =        51.14341696
  PAW double counting   =      2820.69043878    -2795.75412927
  entropy T*S    EENTRO =         0.00000000
  eigenvalues    EBANDS =      -270.63268865
  atomic energy  EATOM  =      2086.78124273
  Solvation  Ediel_sol  =         0.00000000
  ---------------------------------------------------
  free energy    TOTEN  =       -20.19296532 eV

  energy without entropy =      -20.19296532  energy(sigma->0) =      -20.19296532


--------------------------------------------------------------------------------------------------------




--------------------------------------- Iteration      1(  10)  ---------------------------------------


    POTLOK:  cpu time      1.7540: real time      0.1180
    SETDIJ:  cpu time      0.9860: real time      0.2553
    EDDIAG:  cpu time     31.1545: real time      1.7401
  RMM-DIIS:  cpu time     77.0666: real time      4.2274
    ORTHCH:  cpu time      0.3209: real time      0.0212
 BZINTS: Fermi energy:    5.088733;   22.000000 electrons
         Band energy:-0.269678E+03;  BLOECHL correction:   -0.218371
       DOS:  cpu time      0.2335: real time      0.0135
    CHARGE:  cpu time     12.2162: real time      0.6583
    MIXING:  cpu time      0.1173: real time      0.0036
    --------------------------------------------
      LOOP:  cpu time    123.8490: real time      7.0375

 eigenvalue-minimisations  :  1457
 total energy-change (2. order) : 0.3417472E-02  (-0.5645643E-03)
 number of electron      21.9999991 magnetization      -0.0054892
 augmentation part        8.0581223 magnetization       0.0010447

 Broyden mixing:
  rms(total) = 0.67034E-01    rms(broyden)= 0.67034E-01
  rms(prec ) = 0.74304E-01
  weight for this iteration     100.00

 eigenvalues of (default mixing * dielectric matrix)
  average eigenvalue GAMMA=   1.3650
  2.6871  1.3771  1.3771  0.6220  0.7619

 Free energy of the ion-electron system (eV)
  ---------------------------------------------------
  alpha Z        PSCENC =       254.66231132
  Ewald energy   TEWEN  =     -1928.36839172
  -Hartree energ DENC   =      -239.63559003
  -exchange      EXHF   =         0.00000000
  -V(xc)+E(xc)   XCENC  =        51.18731503
  PAW double counting   =      2904.77256136    -2879.91096134
  entropy T*S    EENTRO =         0.00000000
  eigenvalues    EBANDS =      -269.67803520
  atomic energy  EATOM  =      2086.78124273
  Solvation  Ediel_sol  =         0.00000000
  ---------------------------------------------------
  free energy    TOTEN  =       -20.18954785 eV

  energy without entropy =      -20.18954785  energy(sigma->0) =      -20.18954785


--------------------------------------------------------------------------------------------------------




--------------------------------------- Iteration      1(  11)  ---------------------------------------


    POTLOK:  cpu time      1.2304: real time      0.0877
    SETDIJ:  cpu time      1.1090: real time      0.2938
    EDDIAG:  cpu time     28.9670: real time      1.6087
  RMM-DIIS:  cpu time     97.4030: real time      5.2817
    ORTHCH:  cpu time      1.0794: real time      0.0607
 BZINTS: Fermi energy:    5.100562;   22.000000 electrons
         Band energy:-0.269151E+03;  BLOECHL correction:   -0.218554
       DOS:  cpu time      0.1188: real time      0.0096
    CHARGE:  cpu time      9.3472: real time      0.5111
    MIXING:  cpu time      0.0013: real time      0.0013
    --------------------------------------------
      LOOP:  cpu time    139.2561: real time      7.8546

 eigenvalue-minimisations  :  1678
 total energy-change (2. order) :-0.1069306E-03  (-0.5211544E-03)
 number of electron      21.9999991 magnetization      -0.0041428
 augmentation part        8.0514492 magnetization      -0.0003431

 Broyden mixing:
  rms(total) = 0.42014E-02    rms(broyden)= 0.42014E-02
  rms(prec ) = 0.47425E-02
  weight for this iteration     100.00

 eigenvalues of (default mixing * dielectric matrix)
  average eigenvalue GAMMA=   1.2729
  2.6064  1.4511  1.4511  0.7946  0.6106  0.7236

 Free energy of the ion-electron system (eV)
  ---------------------------------------------------
  alpha Z        PSCENC =       254.66231132
  Ewald energy   TEWEN  =     -1928.36839172
  -Hartree energ DENC   =      -240.11282025
  -exchange      EXHF   =         0.00000000
  -V(xc)+E(xc)   XCENC  =        51.20980949
  PAW double counting   =      2983.15191018    -2958.36237876
  entropy T*S    EENTRO =         0.00000000
  eigenvalues    EBANDS =      -269.15133777
  atomic energy  EATOM  =      2086.78124273
  Solvation  Ediel_sol  =         0.00000000
  ---------------------------------------------------
  free energy    TOTEN  =       -20.18965478 eV

  energy without entropy =      -20.18965478  energy(sigma->0) =      -20.18965478


--------------------------------------------------------------------------------------------------------




--------------------------------------- Iteration      1(  12)  ---------------------------------------


    POTLOK:  cpu time      1.0668: real time      0.0760
    SETDIJ:  cpu time      1.0688: real time      0.2588
    EDDIAG:  cpu time     33.3823: real time      1.8076
  RMM-DIIS:  cpu time     78.7976: real time      4.2172
    ORTHCH:  cpu time      0.8095: real time      0.0437
 BZINTS: Fermi energy:    5.100551;   22.000000 electrons
         Band energy:-0.269152E+03;  BLOECHL correction:   -0.218557
       DOS:  cpu time      0.1160: real time      0.0102
    --------------------------------------------
      LOOP:  cpu time    115.2409: real time      6.4135

 eigenvalue-minimisations  :  1115
 total energy-change (2. order) :-0.7464841E-04  (-0.5496089E-04)
 number of electron      21.9999991 magnetization      -0.0041428
 augmentation part        8.0514492 magnetization      -0.0003431

 Free energy of the ion-electron system (eV)
  ---------------------------------------------------
  alpha Z        PSCENC =       254.66231132
  Ewald energy   TEWEN  =     -1928.36839172
  -Hartree energ DENC   =      -240.12913625
  -exchange      EXHF   =         0.00000000
  -V(xc)+E(xc)   XCENC  =        51.21060456
  PAW double counting   =      2982.37242750    -2957.56723538
  entropy T*S    EENTRO =         0.00000000
  eigenvalues    EBANDS =      -269.15155220
  atomic energy  EATOM  =      2086.78124273
  Solvation  Ediel_sol  =         0.00000000
  ---------------------------------------------------
  free energy    TOTEN  =       -20.18972943 eV

  energy without entropy =      -20.18972943  energy(sigma->0) =      -20.18972943


--------------------------------------------------------------------------------------------------------




 average (electrostatic) potential at core
  the test charge radii are     1.2125
  (the norm of the test charge is              1.0000)
       1 -34.8456       2 -34.8456



 E-fermi :   5.1006     XC(G=0): -12.5015     alpha+bet :-13.1598

 Fermi energy:         5.1005514543

 spin component 1

 k-point     1 :       0.0000    0.0000    0.0000
  band No.  band energies     occupation 
      1     -25.5218      1.00000
      2     -25.5218      1.00000
      3     -25.5218      1.00000
      4     -24.5586      1.00000
      5     -24.5586      1.00000
      6     -24.5586      1.00000
      7      -0.8768      1.00000
      8       1.2706      1.00000
      9       1.2706      1.00000
     10       5.4311     -0.07682
     11       5.4311     -0.02868
     12       5.4311      0.00000
     13       8.3821      0.00000
     14       8.3821      0.00000
     15      10.7630      0.00000
     16      10.7631      0.00000

 k-point     2 :       0.1429    0.0000    0.0000
  band No.  band energies     occupation 
      1     -25.5264      1.00000
      2     -25.4728      1.00000
      3     -25.4728      1.00000
      4     -24.6639      1.00000
      5     -24.6045      1.00000
      6     -24.6045      1.00000
      7      -0.4524      1.00000
      8       1.5046      1.00000
      9       1.6312      1.00000
     10       5.3984      0.09292
     11       5.3984      0.00058
     12       5.6297      0.00000
     13       7.7805      0.00000
     14       8.5993      0.00000
     15       9.5569      0.00000
     16       9.5569      0.00000

 k-point     3 :       0.2857    0.0000    0.0000
  band No.  band energies     occupation 
      1     -25.5112      1.00000
      2     -25.3360      1.00000
      3     -25.3360      1.00000
      4     -24.9220      1.00000
      5     -24.7344      1.00000
      6     -24.7344      1.00000
      7       0.6744      1.00000
      8       2.1959      1.00000
      9       2.4435      1.00000
     10       5.4254      0.46269
     11       5.4254     -0.00577
     12       6.2100      0.00000
     13       6.3688      0.00000
     14       7.8465      0.00000
     15       7.8465      0.00000
     16       9.1447      0.00000

 k-point     4 :       0.4286    0.0000    0.0000
  band No.  band energies     occupation 
      1     -25.4160      1.00000
      2     -25.2079      1.00000
      3     -25.1399      1.00000
      4     -25.1399      1.00000
      5     -24.9250      1.00000
      6     -24.9250      1.00000
      7       2.0493      1.00000
      8       2.8359      1.00000
      9       3.3074      1.00000
     10       4.7565      0.99576
     11       5.7492     -0.18338
     12       5.7492      0.00000
     13       6.5392      0.00000
     14       6.5392      0.00000
     15       7.1209      0.00000
     16       8.2600      0.00000

 k-point     5 :       0.1429    0.1429    0.0000
  band No.  band energies     occupation 
      1     -25.6087      1.00000
      2     -25.4277      1.00000
      3     -25.3529      1.00000
      4     -24.8446      1.00000
      5     -24.6449      1.00000
      6     -24.5611      1.00000
      7      -0.0704      1.00000
      8       1.7581      1.00000
      9       1.9472      1.00000
     10       4.9604      0.86517
     11       5.2644      0.21644
     12       6.2556     -0.00611
     13       7.8710      0.00000
     14       8.2607      0.00000
     15       8.4153      0.00000
     16       8.5636      0.00000

 k-point     6 :       0.2857    0.1429    0.0000
  band No.  band energies     occupation 
      1     -25.6550      1.00000
      2     -25.3024      1.00000
      3     -25.1746      1.00000
      4     -25.1366      1.00000
      5     -24.7599      1.00000
      6     -24.6214      1.00000
      7       0.9069      1.00000
      8       2.3018      1.00000
      9       2.7870      1.00000
     10       4.7039      1.01121
     11       5.0460      0.80615
     12       6.6938     -0.05175
     13       7.1343      0.00000
     14       7.1548      0.00000
     15       7.2619      0.00000
     16       8.9355      0.00000

 k-point     7 :       0.4286    0.1429    0.0000
  band No.  band energies     occupation 
      1     -25.6002      1.00000
      2     -25.4175      1.00000
      3     -25.1240      1.00000
      4     -24.9707      1.00000
      5     -24.9302      1.00000
      6     -24.7724      1.00000
      7       2.0193      1.00000
      8       2.6530      1.00000
      9       3.6163      1.00000
     10       4.5413      1.00280
     11       4.8590      0.94322
     12       5.5198     -0.03212
     13       6.6654      0.00000
     14       6.7540      0.00000
     15       8.2328      0.00000
     16       9.4228      0.00000

 k-point     8 :       0.2857    0.2857    0.0000
  band No.  band energies     occupation 
      1     -25.7992      1.00000
      2     -25.4502      1.00000
      3     -25.2103      1.00000
      4     -24.9576      1.00000
      5     -24.8341      1.00000
      6     -24.5668      1.00000
      7       1.3378      1.00000
      8       2.2609      1.00000
      9       3.8337      1.00000
     10       4.0626      1.00000
     11       5.1110      0.86001
     12       5.2863      0.08701
     13       6.7832      0.00000
     14       8.0024      0.00000
     15       8.4829      0.00000
     16       8.6461      0.00000

 k-point     9 :       0.4286    0.2857    0.0000
  band No.  band energies     occupation 
      1     -25.8286      1.00000
      2     -25.7060      1.00000
      3     -25.0822      1.00000
      4     -24.9478      1.00000
      5     -24.7634      1.00000
      6     -24.6224      1.00000
      7       1.6626      1.00000
      8       1.9873      1.00000
      9       3.9071      1.00000
     10       4.3177      1.00000
     11       4.9058      0.77977
     12       5.4284     -0.01869
     13       7.2975      0.00000
     14       7.8906      0.00000
     15       9.3151      0.00000
     16       9.7930      0.00000

 k-point    10 :       0.4286    0.4286    0.0000
  band No.  band energies     occupation 
      1     -25.9473      1.00000
      2     -25.9043      1.00000
      3     -25.0293      1.00000
      4     -24.9813      1.00000
      5     -24.6228      1.00000
      6     -24.5717      1.00000
      7       1.3633      1.00000
      8       1.4699      1.00000
      9       3.4532      1.00000
     10       3.5916      1.00000
     11       6.5008     -0.16261
     12       6.8942     -0.05866
     13       8.0202      0.00000
     14       8.4551      0.00000
     15       9.0343      0.00000
     16      10.0926      0.00000

 k-point    11 :       0.1429    0.1429    0.1429
  band No.  band energies     occupation 
      1     -25.5559      1.00000
      2     -25.5559      1.00000
      3     -25.2055      1.00000
      4     -24.9896      1.00000
      5     -24.6115      1.00000
      6     -24.6115      1.00000
      7       0.2970      1.00000
      8       2.1315      1.00000
      9       2.1315      1.00000
     10       4.8206      0.99394
     11       4.8206      0.97527
     12       6.7028     -0.05650
     13       6.9194      0.00000
     14       8.1508      0.00000
     15       8.1508      0.00000
     16       9.7360      0.00000

 k-point    12 :       0.2857    0.1429    0.1429
  band No.  band energies     occupation 
      1     -25.6573      1.00000
      2     -25.4081      1.00000
      3     -25.2579      1.00000
      4     -25.0253      1.00000
      5     -24.7538      1.00000
      6     -24.6262      1.00000
      7       1.2048      1.00000
      8       2.6511      1.00000
      9       2.8990      1.00000
     10       4.5041      1.01350
     11       4.5342      1.05844
     12       5.4123      0.10705
     13       7.4972      0.00000
     14       8.0052      0.00000
     15       8.1766      0.00000
     16       8.8156      0.00000

 k-point    13 :       0.4286    0.1429    0.1429
  band No.  band energies     occupation 
      1     -25.6505      1.00000
      2     -25.5075      1.00000
      3     -25.1957      1.00000
      4     -24.9620      1.00000
      5     -24.8550      1.00000
      6     -24.7142      1.00000
      7       2.1677      1.00000
      8       2.8935      1.00000
      9       3.3808      1.00000
     10       4.0590      1.00516
     11       4.8313      0.97823
     12       5.1262      0.27402
     13       6.9675      0.00000
     14       7.1672      0.00000
     15       8.9610      0.00000
     16       9.2999      0.00000

 k-point    14 :       0.2857    0.2857    0.1429
  band No.  band energies     occupation 
      1     -25.7382      1.00000
      2     -25.4948      1.00000
      3     -25.3590      1.00000
      4     -24.8559      1.00000
      5     -24.8273      1.00000
      6     -24.6274      1.00000
      7       1.7572      1.00000
      8       2.6845      1.00000
      9       3.8536      1.00000
     10       3.9418      1.00000
     11       4.3742      1.01562
     12       4.5111      0.93672
     13       7.7945      0.00000
     14       8.1222      0.00000
     15       8.6648      0.00000
     16       9.4106      0.00000

 k-point    15 :       0.4286    0.2857    0.1429
  band No.  band energies     occupation 
      1     -25.7840      1.00000
      2     -25.6985      1.00000
      3     -25.1841      1.00000
      4     -24.9871      1.00000
      5     -24.7304      1.00000
      6     -24.6553      1.00000
      7       2.0481      1.00000
      8       2.3411      1.00000
      9       3.7572      1.00000
     10       3.8728      1.00000
     11       4.9411      0.83604
     12       5.0265      0.54679
     13       7.7002      0.00000
     14       7.9511      0.00000
     15       9.1556      0.00000
     16       9.6570      0.00000

 k-point    16 :       0.4286    0.4286    0.1429
  band No.  band energies     occupation 
      1     -25.8802      1.00000
      2     -25.8508      1.00000
      3     -25.1018      1.00000
      4     -25.0255      1.00000
      5     -24.6623      1.00000
      6     -24.6404      1.00000
      7       1.7892      1.00000
      8       1.8622      1.00000
      9       3.4151      1.00000
     10       3.5216      1.00000
     11       6.1032     -0.15401
     12       6.2122     -0.12826
     13       8.2588      0.00000
     14       8.5220      0.00000
     15       9.0683      0.00000
     16       9.5276      0.00000

 k-point    17 :       0.2857    0.2857    0.2857
  band No.  band energies     occupation 
      1     -25.6037      1.00000
      2     -25.5671      1.00000
      3     -25.5671      1.00000
      4     -24.7976      1.00000
      5     -24.7976      1.00000
      6     -24.7564      1.00000
      7       2.7253      1.00000
      8       3.2500      1.00000
      9       3.7350      1.00000
     10       3.7350      1.00000
     11       3.8537      1.03089
     12       3.8537      1.07893
     13       8.6144      0.00000
     14       8.6145      0.00000
     15       8.8728      0.00000
     16       8.8728      0.00000

 k-point    18 :       0.4286    0.2857    0.2857
  band No.  band energies     occupation 
      1     -25.6978      1.00000
      2     -25.6944      1.00000
      3     -25.3194      1.00000
      4     -25.0446      1.00000
      5     -24.7529      1.00000
      6     -24.7274      1.00000
      7       2.7574      1.00000
      8       2.7637      1.00000
      9       3.6653      1.00000
     10       3.7580      1.00000
     11       4.3828      1.00240
     12       4.7189      0.99431
     13       8.4044      0.00000
     14       8.4473      0.00000
     15       9.1042      0.00000
     16       9.1922      0.00000

 k-point    19 :       0.4286    0.4286    0.2857
  band No.  band energies     occupation 
      1     -25.7111      1.00000
      2     -25.6915      1.00000
      3     -25.2617      1.00000
      4     -25.1083      1.00000
      5     -24.8329      1.00000
      6     -24.7865      1.00000
      7       2.7071      1.00000
      8       2.8611      1.00000
      9       3.4166      1.00000
     10       3.6260      1.00000
     11       5.0212      0.80753
     12       5.1801      0.49301
     13       8.7690      0.00000
     14       8.8414      0.00000
     15       9.1327      0.00000
     16       9.2020      0.00000

 k-point    20 :       0.4286    0.4286    0.4286
  band No.  band energies     occupation 
      1     -25.5507      1.00000
      2     -25.4170      1.00000
      3     -25.4170      1.00000
      4     -25.1104      1.00000
      5     -25.1104      1.00000
      6     -24.9685      1.00000
      7       3.2211      1.00000
      8       3.6640      1.00000
      9       3.6640      1.00000
     10       4.2689      1.00000
     11       4.2689      1.00000
     12       4.3183      1.13492
     13       9.1607      0.00000
     14       9.1607      0.00000
     15       9.1671      0.00000
     16       9.1671      0.00000
 Fermi energy:         5.1005514543

 spin component 2

 k-point     1 :       0.0000    0.0000    0.0000
  band No.  band energies     occupation 
      1     -25.5222      1.00000
      2     -25.5222      1.00000
      3     -25.5222      1.00000
      4     -24.5589      1.00000
      5     -24.5589      1.00000
      6     -24.5589      1.00000
      7      -0.8793      1.00000
      8       1.2691      1.00000
      9       1.2691      1.00000
     10       5.4299     -0.07601
     11       5.4299     -0.02866
     12       5.4299      0.00000
     13       8.3817      0.00000
     14       8.3817      0.00000
     15      10.7623      0.00000
     16      10.7623      0.00000

 k-point     2 :       0.1429    0.0000    0.0000
  band No.  band energies     occupation 
      1     -25.5269      1.00000
      2     -25.4732      1.00000
      3     -25.4732      1.00000
      4     -24.6642      1.00000
      5     -24.6049      1.00000
      6     -24.6049      1.00000
      7      -0.4549      1.00000
      8       1.5031      1.00000
      9       1.6297      1.00000
     10       5.3972      0.09583
     11       5.3972      0.00122
     12       5.6285      0.00000
     13       7.7799      0.00000
     14       8.5989      0.00000
     15       9.5557      0.00000
     16       9.5558      0.00000

 k-point     3 :       0.2857    0.0000    0.0000
  band No.  band energies     occupation 
      1     -25.5116      1.00000
      2     -25.3364      1.00000
      3     -25.3364      1.00000
      4     -24.9224      1.00000
      5     -24.7348      1.00000
      6     -24.7348      1.00000
      7       0.6719      1.00000
      8       2.1945      1.00000
      9       2.4419      1.00000
     10       5.4241      0.46592
     11       5.4241     -0.00314
     12       6.2089      0.00000
     13       6.3679      0.00000
     14       7.8452      0.00000
     15       7.8452      0.00000
     16       9.1460      0.00000

 k-point     4 :       0.4286    0.0000    0.0000
  band No.  band energies     occupation 
      1     -25.4165      1.00000
      2     -25.2083      1.00000
      3     -25.1403      1.00000
      4     -25.1403      1.00000
      5     -24.9254      1.00000
      6     -24.9254      1.00000
      7       2.0470      1.00000
      8       2.8339      1.00000
      9       3.3060      1.00000
     10       4.7553      0.99585
     11       5.7478     -0.18106
     12       5.7478      0.00000
     13       6.5379      0.00000
     14       6.5379      0.00000
     15       7.1199      0.00000
     16       8.2601      0.00000

 k-point     5 :       0.1429    0.1429    0.0000
  band No.  band energies     occupation 
      1     -25.6092      1.00000
      2     -25.4281      1.00000
      3     -25.3533      1.00000
      4     -24.8450      1.00000
      5     -24.6453      1.00000
      6     -24.5614      1.00000
      7      -0.0729      1.00000
      8       1.7566      1.00000
      9       1.9457      1.00000
     10       4.9592      0.86700
     11       5.2631      0.22009
     12       6.2544     -0.00613
     13       7.8704      0.00000
     14       8.2594      0.00000
     15       8.4148      0.00000
     16       8.5623      0.00000

 k-point     6 :       0.2857    0.1429    0.0000
  band No.  band energies     occupation 
      1     -25.6555      1.00000
      2     -25.3028      1.00000
      3     -25.1750      1.00000
      4     -25.1370      1.00000
      5     -24.7603      1.00000
      6     -24.6218      1.00000
      7       0.9045      1.00000
      8       2.3002      1.00000
      9       2.7854      1.00000
     10       4.7026      1.01134
     11       5.0446      0.80891
     12       6.6925     -0.05216
     13       7.1335      0.00000
     14       7.1537      0.00000
     15       7.2606      0.00000
     16       8.9352      0.00000

 k-point     7 :       0.4286    0.1429    0.0000
  band No.  band energies     occupation 
      1     -25.6007      1.00000
      2     -25.4180      1.00000
      3     -25.1244      1.00000
      4     -24.9711      1.00000
      5     -24.9305      1.00000
      6     -24.7728      1.00000
      7       2.0171      1.00000
      8       2.6512      1.00000
      9       3.6148      1.00000
     10       4.5399      1.00280
     11       4.8576      0.94393
     12       5.5185     -0.03243
     13       6.6643      0.00000
     14       6.7527      0.00000
     15       8.2318      0.00000
     16       9.4420      0.00000

 k-point     8 :       0.2857    0.2857    0.0000
  band No.  band energies     occupation 
      1     -25.7997      1.00000
      2     -25.4506      1.00000
      3     -25.2107      1.00000
      4     -24.9580      1.00000
      5     -24.8345      1.00000
      6     -24.5672      1.00000
      7       1.3356      1.00000
      8       2.2593      1.00000
      9       3.8322      1.00000
     10       4.0613      1.00000
     11       5.1093      0.86220
     12       5.2849      0.08828
     13       6.7820      0.00000
     14       8.0017      0.00000
     15       8.4819      0.00000
     16       8.6457      0.00000

 k-point     9 :       0.4286    0.2857    0.0000
  band No.  band energies     occupation 
      1     -25.8291      1.00000
      2     -25.7065      1.00000
      3     -25.0826      1.00000
      4     -24.9482      1.00000
      5     -24.7638      1.00000
      6     -24.6228      1.00000
      7       1.6606      1.00000
      8       1.9855      1.00000
      9       3.9057      1.00000
     10       4.3163      1.00000
     11       4.9041      0.78072
     12       5.4265     -0.01866
     13       7.2965      0.00000
     14       7.8897      0.00000
     15       9.3146      0.00000
     16       9.7919      0.00000

 k-point    10 :       0.4286    0.4286    0.0000
  band No.  band energies     occupation 
      1     -25.9478      1.00000
      2     -25.9048      1.00000
      3     -25.0297      1.00000
      4     -24.9816      1.00000
      5     -24.6231      1.00000
      6     -24.5721      1.00000
      7       1.3614      1.00000
      8       1.4681      1.00000
      9       3.4518      1.00000
     10       3.5902      1.00000
     11       6.4989     -0.16237
     12       6.8918     -0.05930
     13       8.0195      0.00000
     14       8.4544      0.00000
     15       9.0340      0.00000
     16      10.0917      0.00000

 k-point    11 :       0.1429    0.1429    0.1429
  band No.  band energies     occupation 
      1     -25.5563      1.00000
      2     -25.5563      1.00000
      3     -25.2059      1.00000
      4     -24.9900      1.00000
      5     -24.6118      1.00000
      6     -24.6118      1.00000
      7       0.2946      1.00000
      8       2.1300      1.00000
      9       2.1300      1.00000
     10       4.8193      0.99465
     11       4.8193      0.97717
     12       6.7014     -0.05661
     13       6.9183      0.00000
     14       8.1503      0.00000
     15       8.1503      0.00000
     16       9.7349      0.00000

 k-point    12 :       0.2857    0.1429    0.1429
  band No.  band energies     occupation 
      1     -25.6578      1.00000
      2     -25.4086      1.00000
      3     -25.2583      1.00000
      4     -25.0257      1.00000
      5     -24.7542      1.00000
      6     -24.6265      1.00000
      7       1.2024      1.00000
      8       2.6496      1.00000
      9       2.8974      1.00000
     10       4.5027      1.01348
     11       4.5328      1.05803
     12       5.4108      0.10824
     13       7.4965      0.00000
     14       8.0041      0.00000
     15       8.1754      0.00000
     16       8.8153      0.00000

 k-point    13 :       0.4286    0.1429    0.1429
  band No.  band energies     occupation 
      1     -25.6509      1.00000
      2     -25.5079      1.00000
      3     -25.1961      1.00000
      4     -24.9624      1.00000
      5     -24.8554      1.00000
      6     -24.7146      1.00000
      7       2.1656      1.00000
      8       2.8916      1.00000
      9       3.3794      1.00000
     10       4.0576      1.00512
     11       4.8298      0.97852
     12       5.1248      0.27858
     13       6.9665      0.00000
     14       7.1661      0.00000
     15       8.9605      0.00000
     16       9.2991      0.00000

 k-point    14 :       0.2857    0.2857    0.1429
  band No.  band energies     occupation 
      1     -25.7387      1.00000
      2     -25.4953      1.00000
      3     -25.3594      1.00000
      4     -24.8563      1.00000
      5     -24.8277      1.00000
      6     -24.6278      1.00000
      7       1.7549      1.00000
      8       2.6828      1.00000
      9       3.8520      1.00000
     10       3.9404      1.00000
     11       4.3727      1.01540
     12       4.5095      0.93804
     13       7.7934      0.00000
     14       8.1217      0.00000
     15       8.6644      0.00000
     16       9.4092      0.00000

 k-point    15 :       0.4286    0.2857    0.1429
  band No.  band energies     occupation 
      1     -25.7845      1.00000
      2     -25.6989      1.00000
      3     -25.1845      1.00000
      4     -24.9875      1.00000
      5     -24.7308      1.00000
      6     -24.6556      1.00000
      7       2.0461      1.00000
      8       2.3394      1.00000
      9       3.7557      1.00000
     10       3.8713      1.00000
     11       4.9394      0.83691
     12       5.0246      0.55060
     13       7.6993      0.00000
     14       7.9504      0.00000
     15       9.1552      0.00000
     16       9.6564      0.00000

 k-point    16 :       0.4286    0.4286    0.1429
  band No.  band energies     occupation 
      1     -25.8807      1.00000
      2     -25.8513      1.00000
      3     -25.1022      1.00000
      4     -25.0259      1.00000
      5     -24.6626      1.00000
      6     -24.6408      1.00000
      7       1.7874      1.00000
      8       1.8604      1.00000
      9       3.4136      1.00000
     10       3.5201      1.00000
     11       6.1012     -0.15277
     12       6.2100     -0.12866
     13       8.2582      0.00000
     14       8.5215      0.00000
     15       9.0680      0.00000
     16       9.5271      0.00000

 k-point    17 :       0.2857    0.2857    0.2857
  band No.  band energies     occupation 
      1     -25.6041      1.00000
      2     -25.5675      1.00000
      3     -25.5675      1.00000
      4     -24.7980      1.00000
      5     -24.7980      1.00000
      6     -24.7567      1.00000
      7       2.7230      1.00000
      8       3.2483      1.00000
      9       3.7335      1.00000
     10       3.7335      1.00000
     11       3.8521      1.03084
     12       3.8521      1.07850
     13       8.6140      0.00000
     14       8.6140      0.00000
     15       8.8720      0.00000
     16       8.8720      0.00000

 k-point    18 :       0.4286    0.2857    0.2857
  band No.  band energies     occupation 
      1     -25.6982      1.00000
      2     -25.6948      1.00000
      3     -25.3199      1.00000
      4     -25.0450      1.00000
      5     -24.7532      1.00000
      6     -24.7278      1.00000
      7       2.7558      1.00000
      8       2.7619      1.00000
      9       3.6637      1.00000
     10       3.7564      1.00000
     11       4.3809      1.00266
     12       4.7171      0.99425
     13       8.4037      0.00000
     14       8.4468      0.00000
     15       9.1038      0.00000
     16       9.1915      0.00000

 k-point    19 :       0.4286    0.4286    0.2857
  band No.  band energies     occupation 
      1     -25.7115      1.00000
      2     -25.6919      1.00000
      3     -25.2622      1.00000
      4     -25.1087      1.00000
      5     -24.8333      1.00000
      6     -24.7868      1.00000
      7       2.7054      1.00000
      8       2.8593      1.00000
      9       3.4150      1.00000
     10       3.6243      1.00000
     11       5.0192      0.80874
     12       5.1782      0.49759
     13       8.7685      0.00000
     14       8.8410      0.00000
     15       9.1325      0.00000
     16       9.2017      0.00000

 k-point    20 :       0.4286    0.4286    0.4286
  band No.  band energies     occupation 
      1     -25.5512      1.00000
      2     -25.4174      1.00000
      3     -25.4174      1.00000
      4     -25.1108      1.00000
      5     -25.1108      1.00000
      6     -24.9689      1.00000
      7       3.2194      1.00000
      8       3.6623      1.00000
      9       3.6623      1.00000
     10       4.2671      1.00000
     11       4.2671      1.00000
     12       4.3163      1.13463
     13       9.1604      0.00000
     14       9.1604      0.00000
     15       9.1669      0.00000
     16       9.1669      0.00000


--------------------------------------------------------------------------------------------------------


 soft charge-density along one line, spin component           1
         0         1         2         3         4         5         6         7         8         9
 total charge-density along one line

 soft charge-density along one line, spin component           2
         0         1         2         3         4         5         6         7         8         9
 total charge-density along one line

 pseudopotential strength for first ion, spin component:           1
-27.930   0.000   0.000   5.864  -0.000  -0.000  -0.000   0.000
  0.000 -27.930  -0.000  -0.000   5.864   0.000   0.000   0.000
  0.000  -0.000 -27.930  -0.000   0.000   5.864   0.000   0.000
  5.864  -0.000  -0.000   4.264   0.000   0.000   0.000  -0.000
 -0.000   5.864   0.000   0.000   4.264   0.000  -0.000  -0.000
 -0.000   0.000   5.864   0.000   0.000   4.264  -0.000  -0.000
 -0.000   0.000   0.000   0.000  -0.000  -0.000  -6.285  -0.000
  0.000   0.000   0.000  -0.000  -0.000  -0.000  -0.000  -6.285
 -0.000   0.000   0.000   0.000  -0.000  -0.000  -0.000  -0.000
  0.000  -0.000   0.000  -0.000   0.000  -0.000   0.000   0.000
 -0.000   0.000   0.000   0.000  -0.000  -0.000  -0.000  -0.000
 -0.000   0.000   0.000   0.000  -0.000  -0.000  -7.128  -0.000
  0.000   0.000   0.000  -0.000  -0.000  -0.000  -0.000  -7.128
 -0.000   0.000   0.000   0.000  -0.000  -0.000  -0.000  -0.000
  0.000  -0.000   0.000  -0.000   0.000  -0.000   0.000   0.000
 -0.000   0.000   0.000   0.000  -0.000  -0.000  -0.000  -0.000
 -0.000  -0.000   0.000   0.000   0.000   0.000  -0.000  -0.000
  0.000   0.000  -0.000   0.000   0.000  -0.000   0.000   0.000
 pseudopotential strength for first ion, spin component:           2
-27.930   0.000   0.000   5.864  -0.000  -0.000  -0.000   0.000
  0.000 -27.930  -0.000  -0.000   5.864   0.000   0.000   0.000
  0.000  -0.000 -27.930  -0.000   0.000   5.864   0.000   0.000
  5.864  -0.000  -0.000   4.264   0.000   0.000   0.000  -0.000
 -0.000   5.864   0.000   0.000   4.264   0.000  -0.000  -0.000
 -0.000   0.000   5.864   0.000   0.000   4.264  -0.000  -0.000
 -0.000   0.000   0.000   0.000  -0.000  -0.000  -6.285  -0.000
  0.000   0.000   0.000  -0.000  -0.000  -0.000  -0.000  -6.285
 -0.000   0.000   0.000   0.000  -0.000  -0.000  -0.000  -0.000
  0.000  -0.000   0.000  -0.000  -0.000  -0.000   0.000   0.000
 -0.000   0.000   0.000   0.000  -0.000  -0.000  -0.000  -0.000
 -0.000   0.000   0.000   0.000  -0.000  -0.000  -7.128  -0.000
  0.000   0.000   0.000  -0.000  -0.000  -0.000  -0.000  -7.128
 -0.000   0.000   0.000   0.000  -0.000  -0.000  -0.000  -0.000
  0.000  -0.000   0.000  -0.000  -0.000  -0.000   0.000   0.000
 -0.000   0.000   0.000   0.000  -0.000  -0.000  -0.000  -0.000
 -0.000  -0.000   0.000   0.000   0.000   0.000  -0.000  -0.000
  0.000   0.000  -0.000   0.000   0.000  -0.000   0.000   0.000
 total augmentation occupancy for first ion, spin component:           1
  1.994   0.000   0.000  -0.009  -0.000  -0.000   0.000  -0.000   0.000  -0.000   0.000   0.000   0.000   0.000   0.000   0.000
  0.000   1.994   0.000  -0.000  -0.009  -0.000   0.000  -0.000  -0.000   0.000   0.000  -0.000  -0.000   0.000  -0.000   0.000
  0.000   0.000   1.994  -0.000  -0.000  -0.009  -0.000   0.000   0.000   0.000   0.000   0.000  -0.000   0.000   0.000   0.000
 -0.009  -0.000  -0.000   0.211   0.000   0.000  -0.000  -0.000  -0.000   0.000  -0.000  -0.000   0.000  -0.000  -0.000   0.000
 -0.000  -0.009  -0.000   0.000   0.211   0.000   0.000  -0.000   0.000   0.000   0.000   0.000   0.000   0.000   0.000   0.000
 -0.000  -0.000  -0.009   0.000   0.000   0.211   0.000   0.000   0.000   0.000   0.000   0.000   0.000  -0.000  -0.000   0.000
 -0.000   0.000  -0.000  -0.000   0.000   0.000   6.384   0.000  -0.000   0.000   0.000  -3.611  -0.000   0.000  -0.000  -0.000
  0.000  -0.000  -0.000  -0.000  -0.000   0.000   0.000   6.384   0.000   0.000  -0.000  -0.000  -3.611  -0.000  -0.000   0.000
  0.000  -0.000   0.000   0.000   0.000  -0.000  -0.000   0.000   6.029   0.000   0.000   0.000  -0.000  -3.599  -0.000  -0.000
  0.000  -0.000  -0.000   0.000  -0.000   0.000   0.000   0.000   0.000   6.384   0.000  -0.000  -0.000  -0.000  -3.611  -0.000
  0.000   0.000   0.000   0.000   0.000  -0.000   0.000  -0.000   0.000   0.000   6.029  -0.000   0.000  -0.000  -0.000  -3.599
 -0.000  -0.000   0.000   0.000   0.000  -0.000  -3.611  -0.000   0.000  -0.000  -0.000   2.082   0.000  -0.000   0.000  -0.000
  0.000   0.000  -0.000  -0.000   0.000   0.000  -0.000  -3.611  -0.000  -0.000   0.000   0.000   2.082   0.000   0.000  -0.000
 -0.000   0.000   0.000   0.000  -0.000   0.000   0.000  -0.000  -3.599  -0.000  -0.000  -0.000   0.000   2.167   0.000   0.000
  0.000   0.000  -0.000  -0.000  -0.000   0.000  -0.000  -0.000  -0.000  -3.611  -0.000   0.000   0.000   0.000   2.082   0.000
 -0.000   0.000   0.000  -0.000   0.000  -0.000  -0.000   0.000   0.000  -0.000  -3.599  -0.000  -0.000   0.000   0.000   2.167
 -0.000   0.000   0.000   0.000   0.000   0.000   0.000  -0.000   0.000   0.000   0.000  -0.000  -0.000  -0.000  -0.000  -0.000
  0.000   0.000   0.000   0.000   0.000   0.000  -0.000   0.000   0.000   0.000  -0.000  -0.000  -0.000  -0.000   0.000   0.000
 total augmentation occupancy for first ion, spin component:           2
  0.000   0.000   0.000   0.000   0.000   0.000   0.000   0.000  -0.000   0.000  -0.000   0.000   0.000  -0.000   0.000   0.000
  0.000   0.000   0.000   0.000   0.000   0.000  -0.000   0.000  -0.000  -0.000  -0.000   0.000  -0.000  -0.000   0.000  -0.000
  0.000   0.000   0.000   0.000   0.000   0.000   0.000  -0.000   0.000   0.000   0.000  -0.000   0.000   0.000   0.000   0.000
  0.000   0.000   0.000  -0.000  -0.000  -0.000  -0.000  -0.000   0.000   0.000   0.000  -0.000   0.000   0.000   0.000   0.000
  0.000   0.000   0.000  -0.000  -0.000  -0.000  -0.000  -0.000   0.000   0.000  -0.000   0.000  -0.000  -0.000  -0.000   0.000
  0.000   0.000   0.000  -0.000  -0.000  -0.000  -0.000   0.000   0.000  -0.000   0.000   0.000   0.000  -0.000   0.000   0.000
 -0.000   0.000   0.000  -0.000   0.000  -0.000  -0.004  -0.000   0.000  -0.000   0.000   0.002   0.000  -0.000   0.000  -0.000
  0.000  -0.000   0.000  -0.000   0.000   0.000  -0.000  -0.004  -0.000  -0.000   0.000   0.000   0.002  -0.000   0.000  -0.000
 -0.000   0.000   0.000  -0.000  -0.000   0.000   0.000  -0.000  -0.006  -0.000  -0.000  -0.000   0.000   0.005   0.000   0.000
  0.000   0.000   0.000   0.000   0.000  -0.000  -0.000  -0.000  -0.000  -0.004  -0.000   0.000   0.000   0.000   0.002   0.000
  0.000   0.000  -0.000   0.000   0.000   0.000   0.000   0.000  -0.000  -0.000  -0.006  -0.000  -0.000   0.000   0.000   0.005
  0.000  -0.000   0.000  -0.000   0.000  -0.000   0.002   0.000  -0.000   0.000  -0.000  -0.001  -0.000   0.000  -0.000   0.000
  0.000   0.000  -0.000  -0.000  -0.000   0.000   0.000   0.002   0.000   0.000  -0.000  -0.000  -0.001   0.000  -0.000   0.000
 -0.000   0.000   0.000  -0.000  -0.000   0.000  -0.000   0.000   0.005   0.000   0.000   0.000   0.000  -0.003   0.000  -0.000
 -0.000   0.000  -0.000   0.000  -0.000  -0.000   0.000   0.000  -0.000   0.002   0.000  -0.000  -0.000   0.000  -0.001  -0.000
  0.000   0.000   0.000  -0.000  -0.000   0.000  -0.000  -0.000   0.000   0.000   0.005   0.000   0.000  -0.000  -0.000  -0.003
  0.000   0.000  -0.000   0.000   0.000   0.000  -0.000   0.000   0.000  -0.000  -0.000   0.000   0.000  -0.000  -0.000  -0.000
  0.000  -0.000  -0.000   0.000   0.000   0.000  -0.000   0.000  -0.000   0.000  -0.000  -0.000  -0.000   0.000  -0.000   0.000


------------------------ aborting loop because EDIFF is reached ----------------------------------------





 total charge

# of ion       s       p       d       tot
------------------------------------------
    1        0.430   6.303   3.136   9.868
    2        0.430   6.303   3.136   9.868
--------------------------------------------------
tot          0.859  12.605   6.272  19.736



 magnetization (x)

# of ion       s       p       d       tot
------------------------------------------
    1       -0.000  -0.000  -0.001  -0.001
    2       -0.000  -0.000  -0.001  -0.001
--------------------------------------------------
tot         -0.000  -0.000  -0.001  -0.002

    CHARGE:  cpu time      9.2210: real time      0.5172
    FORLOC:  cpu time      0.0004: real time      0.0004
    FORNL :  cpu time     40.1271: real time      2.1777
    STRESS:  cpu time    174.5204: real time      9.0410
    FORCOR:  cpu time      1.5839: real time      0.0957
    FORHAR:  cpu time      0.0179: real time      0.0076
    MIXING:  cpu time      0.0011: real time      0.0011
    OFIELD:  cpu time      0.0000: real time      0.0000

  FORCE on cell =-STRESS in cart. coord.  units (eV):
  Direction    XX          YY          ZZ          XY          YZ          ZX
  --------------------------------------------------------------------------------------
  Alpha Z   254.66231   254.66231   254.66231
  Ewald    -642.78942  -642.78942  -642.78942    -0.00000    -0.00000    -0.00000
  Hartree    80.04315    80.04315    80.04315    -0.00000    -0.00000    -0.00000
  E(xc)     -95.37300   -95.37300   -95.37300     0.00000     0.00000    -0.00000
  Local     205.37640   205.37640   205.37640     0.00000    -0.00000    -0.00000
  n-local   -89.98173   -85.46054   -78.82423     2.61146    -0.86432     0.54619
  augment    53.38173    53.38173    53.38173     0.00000     0.00000     0.00000
  Kinetic   221.39149   227.27036   243.25173     2.43273    -1.71945     0.85254
  Fock        0.00000     0.00000     0.00000     0.00000     0.00000     0.00000
  -------------------------------------------------------------------------------------
  Total       1.18354     1.18354     1.18354     0.00000     0.00000     0.00000
  in kB      53.33454    53.33454    53.33454     0.00000     0.00000     0.00000
  external pressure =       53.33 kB  Pullay stress =        0.00 kB


 VOLUME and BASIS-vectors are now :
 -----------------------------------------------------------------------------
  energy-cutoff  :      520.00
  volume of cell :       35.55
      direct lattice vectors                 reciprocal lattice vectors
     3.288223715  0.000000000  0.000000000     0.304115561 -0.000000000  0.000000000
     0.000000000  3.288223715  0.000000000    -0.000000000  0.304115561  0.000000000
    -0.000000000 -0.000000000  3.288223715    -0.000000000 -0.000000000  0.304115561

  length of vectors
     3.288223715  3.288223715  3.288223715     0.304115561  0.304115561  0.304115561


 FORCES acting on ions
    electron-ion (+dipol)            ewald-force                    non-local-force                 convergence-correction
 -----------------------------------------------------------------------------------------------
   -.570E-14 0.158E-13 -.323E-13   -.161E-13 -.445E-14 -.310E-14   0.305E-21 -.304E-22 0.235E-21   -.161E-14 0.135E-13 -.188E-13
   0.129E-12 0.173E-12 -.124E-11   0.131E-13 0.567E-14 0.325E-14   0.761E-22 -.301E-22 -.172E-22   0.492E-14 0.252E-13 0.210E-13
 -----------------------------------------------------------------------------------------------
   0.123E-12 0.189E-12 -.127E-11   -.294E-14 0.122E-14 0.149E-15   0.381E-21 -.604E-22 0.218E-21   0.331E-14 0.387E-13 0.220E-14


 POSITION                                       TOTAL-FORCE (eV/Angst)
 -----------------------------------------------------------------------------------
      0.00000      0.00000      0.00000         0.000000      0.000000     -0.000000
      1.64411      1.64411      1.64411        -0.000000     -0.000000      0.000000
 -----------------------------------------------------------------------------------
    total drift:                                0.000000      0.000000     -0.000000


--------------------------------------------------------------------------------------------------------



  FREE ENERGIE OF THE ION-ELECTRON SYSTEM (eV)
  ---------------------------------------------------
  free  energy   TOTEN  =       -20.18972943 eV

  energy  without entropy=      -20.18972943  energy(sigma->0) =      -20.18972943



--------------------------------------------------------------------------------------------------------


    POTLOK:  cpu time      1.9166: real time      0.3206


--------------------------------------------------------------------------------------------------------


     LOOP+:  cpu time   1904.6240: real time    106.3973
 -----------------------------------------------------------------------------
|                                                                             |
|           W    W    AA    RRRRR   N    N  II  N    N   GGGG   !!!           |
|           W    W   A  A   R    R  NN   N  II  NN   N  G    G  !!!           |
|           W    W  A    A  R    R  N N  N  II  N N  N  G       !!!           |
|           W WW W  AAAAAA  RRRRR   N  N N  II  N  N N  G  GGG   !            |
|           WW  WW  A    A  R   R   N   NN  II  N   NN  G    G                |
|           W    W  A    A  R    R  N    N  II  N    N   GGGG   !!!           |
|                                                                             |
|     Tetrahedron method does not include variations of the Fermi             |
|     occupations, so forces and stress will be inaccurate. We suggest        |
|     using a different smearing scheme ISMEAR = 1 or 2 for metals in         |
|     relaxations.                                                            |
|                                                                             |
 -----------------------------------------------------------------------------

    4ORBIT:  cpu time      0.0000: real time      0.0000



 total charge

# of ion       s       p       d       tot
------------------------------------------
    1        0.430   6.303   3.136   9.868
    2        0.430   6.303   3.136   9.868
--------------------------------------------------
tot          0.859  12.605   6.272  19.736



 magnetization (x)

# of ion       s       p       d       tot
------------------------------------------
    1       -0.000  -0.000  -0.001  -0.001
    2       -0.000  -0.000  -0.001  -0.001
--------------------------------------------------
tot         -0.000  -0.000  -0.001  -0.002

 BZINTS: Fermi energy:    5.100551;   22.000000 electrons
         Band energy:-0.269152E+03;  BLOECHL correction:   -0.218557

 total amount of memory used by VASP MPI-rank0    56463. kBytes
=======================================================================

   base      :      30000. kBytes
   nonlr-proj:       2839. kBytes
   fftplans  :       3916. kBytes
   grid      :       9345. kBytes
   one-center:         62. kBytes
   wavefun   :      10301. kBytes

  
  
 General timing and accounting informations for this job:
 ========================================================
  
                  Total CPU time used (sec):     1922.407
                            User time (sec):     1858.850
                          System time (sec):       63.557
                         Elapsed time (sec):      107.697
  
                   Maximum memory used (kb):      272184.
                   Average memory used (kb):          N/A
  
                          Minor page faults:      1580466
                          Major page faults:          107
                 Voluntary context switches:       769284
