 vasp.6.4.1 05Apr23 (build Jul 24 2024 14:19:02) complex                         
 executed on             LinuxGNU date 2024.10.23  14:05:47
 running    1 mpi-ranks, with   24 threads/rank, on    1 nodes
 distrk:  each k-point on    1 cores,    1 groups
 distr:  one band on NCORE=   1 cores,    1 groups


--------------------------------------------------------------------------------------------------------


 INCAR:
   ISTART = 0
   ALGO = Fast
   EDIFF = 0.0001
   ENCUT = 520
   IBRION = -1
   ISIF = 2
   ISMEAR = -5
   ISPIN = 2
   LASPH = True
   LMAXMIX = 6
   LORBIT = 11
   LREAL = Auto
   LWAVE = False
   MAGMOM = 2*0.6
   NELM = 100
   NSW = 0
   PREC = Accurate
   SIGMA = 0.05

 POTCAR:    PAW_PBE Nb_pv 08Apr2002               
 POTCAR:    PAW_PBE Nb_pv 08Apr2002               
   SHA256 =  bac2b60850b34f8515cf56f9feae68b678e347865051052a0e1f5d2c6a691c0a Nb_pv/POTCAR          
   COPYR  = (c) Copyright 08Apr2002 Georg Kresse                                                    
   COPYR  = This file is part of the software VASP. Any use, copying, and all other rights are regul
   COPYR  = If you do not have a valid VASP license, you may not use, copy or distribute this file. 
   VRHFIN =Nb: 4p5s4d                                                                               
   LEXCH  = PE                                                                                      
   EATOM  =  1043.3917 eV,   76.6871 Ry                                                             
                                                                                                    
   TITEL  = PAW_PBE Nb_pv 08Apr2002                                                                 
   LULTRA =        F    use ultrasoft PP ?                                                          
   IUNSCR =        1    unscreen: 0-lin 1-nonlin 2-no                                               
   RPACOR =    2.200    partial core radius                                                         
   POMASS =   92.000; ZVAL   =   11.000    mass and valenz                                          
   RCORE  =    2.750    outmost cutoff radius                                                       
   RWIGS  =    2.840; RWIGS  =    1.503    wigner-seitz radius (au A)                               
   ENMAX  =  208.608; ENMIN  =  156.456 eV                                                          
   RCLOC  =    2.201    cutoff for local pot                                                        
   LCOR   =        T    correct aug charges                                                         
   LPAW   =        T    paw PP                                                                      
   EAUG   =  355.067                                                                                
   DEXC   =    0.000                                                                                
   RMAX   =    2.804    core radius for proj-oper                                                   
   RAUG   =    1.300    factor for augmentation sphere                                              
   RDEP   =    2.776    radius for radial grids                                                     
   RDEPT  =    2.198    core radius for aug-charge                                                  
                                                                                                    
   Atomic configuration                                                                             
   11 entries                                                                                       
     n  l   j            E        occ.                                                              
     1  0  0.50    -18805.2456   2.0000                                                             
     2  0  0.50     -2630.2869   2.0000                                                             
     2  1  1.50     -2348.4045   6.0000                                                             
     3  0  0.50      -438.8756   2.0000                                                             
     3  1  1.50      -346.7587   6.0000                                                             
     3  2  2.50      -196.2559  10.0000                                                             
     4  0  0.50       -58.3859   2.0000                                                             
     4  1  1.50       -34.5141   6.0000                                                             
     4  2  2.50        -3.0408   4.0000                                                             
     5  0  0.50        -3.9816   1.0000                                                             
     4  3  2.50        -1.3606   0.0000                                                             
   Description                                                                                      
     l       E           TYP  RCUT    TYP  RCUT                                                     
     1    -34.5140617     23  2.600                                                                 
     1     -1.3605826     23  2.600                                                                 
     2     -3.0407924     23  2.600                                                                 
     2     -1.4463597     23  2.600                                                                 
     0     -3.9816219     23  2.750                                                                 
     0     20.4087390     23  2.750                                                                 
  local pseudopotential read in
  partial core-charges read in
  partial kinetic energy density read in
  atomic valenz-charges read in
  non local Contribution for L=           1  read in
    real space projection operators read in
  non local Contribution for L=           1  read in
    real space projection operators read in
  non local Contribution for L=           2  read in
    real space projection operators read in
  non local Contribution for L=           2  read in
    real space projection operators read in
  non local Contribution for L=           0  read in
    real space projection operators read in
  non local Contribution for L=           0  read in
    real space projection operators read in
    PAW grid and wavefunctions read in

   number of l-projection  operators is LMAX  =           6
   number of lm-projection operators is LMMAX =          18

 -----------------------------------------------------------------------------
|                                                                             |
|               ----> ADVICE to this user running VASP <----                  |
|                                                                             |
|     You have a (more or less) 'small supercell' and for smaller cells       |
|     it is recommended to use the reciprocal-space projection scheme!        |
|     The real-space optimization is not efficient for small cells and it     |
|     is also less accurate ...                                               |
|     Therefore, set LREAL=.FALSE. in the INCAR file.                         |
|                                                                             |
 -----------------------------------------------------------------------------

 Optimization of the real space projectors (new method)

 maximal supplied QI-value         = 13.61
 optimisation between [QCUT,QGAM] = [ 11.57, 23.27] = [ 37.45,151.59] Ry 
 Optimized for a Real-space Cutoff    1.63 Angstroem

   l    n(q)    QCUT    max X(q) W(low)/X(q) W(high)/X(q)  e(spline) 
   1     11    11.565     4.545    0.12E-04    0.18E-04    0.64E-07
   1     11    11.565     6.014    0.42E-04    0.48E-04    0.13E-06
   2     10    11.565   266.542    0.24E-03    0.87E-04    0.13E-05
   2     10    11.565   232.726    0.24E-03    0.87E-04    0.13E-05
   0     11    11.565    38.050    0.76E-04    0.32E-05    0.94E-06
   0     11    11.565    16.565    0.58E-04    0.25E-05    0.73E-06
  PAW_PBE Nb_pv 08Apr2002               :
 energy of atom  1       EATOM=-1043.3917
 kinetic energy error for atom=    0.0011 (will be added to EATOM!!)


 POSCAR: Generated POSCAR
  positions in direct lattice
  velocities in cartesian coordinates
 exchange correlation table for  LEXCH =        8
   RHO(1)=    0.500       N(1)  =     2000
   RHO(2)=  100.500       N(2)  =     4000



--------------------------------------------------------------------------------------------------------


 ion  position               nearest neighbor table
   1  0.000  0.000  0.000-   2 2.84   2 2.84   2 2.84   2 2.84   2 2.92   2 2.92   2 2.92   2 2.92

   2  0.500  0.500  0.500-   1 2.84   1 2.84   1 2.84   1 2.84   1 2.92   1 2.92   1 2.92   1 2.92


  LATTYP: Found a base centered orthorhombic cell.
 ALAT       =     4.6043652789
 B/A-ratio  =     1.0408163265
 C/A-ratio  =     0.7215375318
  
  Lattice vectors:
  
 A1 = (  -0.0664444472,   0.0000000000,   3.3222223590)
 A2 = (   3.3222223590,   0.0000000000,  -0.0664444472)
 A3 = (   0.0000000000,   3.3222223590,   0.0000000000)


Analysis of symmetry for initial positions (statically):
=====================================================================
 Subroutine PRICEL returns following result:
 
  LATTYP: Found a face centered orthorhombic cell.
 ALAT       =     3.3222223590
 B/A-ratio  =     1.3859292911
 C/A-ratio  =     1.4424978336
  
  Lattice vectors:
  
 A1 = (   3.3222223590,   0.0000000000,  -0.0664444472)
 A2 = (   1.6943334031,   1.6611111795,  -1.6943334031)
 A3 = (   1.6278889559,   1.6611111795,   1.6278889559)
 
   2 primitive cells build up your supercell.
 

 Routine SETGRP: Setting up the symmetry group for a 
 base centered orthorhombic supercell.


 Subroutine GETGRP returns: Found  8 space group operations
 (whereof  8 operations were pure point group operations)
 out of a pool of  8 trial point group operations.


The static configuration has the point symmetry D_2h.


Analysis of symmetry for dynamics (positions and initial velocities):
=====================================================================
 Subroutine PRICEL returns following result:
 
  LATTYP: Found a face centered orthorhombic cell.
 ALAT       =     3.3222223590
 B/A-ratio  =     1.3859292911
 C/A-ratio  =     1.4424978336
  
  Lattice vectors:
  
 A1 = (   3.3222223590,   0.0000000000,  -0.0664444472)
 A2 = (   1.6943334031,   1.6611111795,  -1.6943334031)
 A3 = (   1.6278889559,   1.6611111795,   1.6278889559)
 
   2 primitive cells build up your supercell.
 

 Routine SETGRP: Setting up the symmetry group for a 
 base centered orthorhombic supercell.


 Subroutine GETGRP returns: Found  8 space group operations
 (whereof  8 operations were pure point group operations)
 out of a pool of  8 trial point group operations.


The dynamic configuration has the point symmetry D_2h.


Analysis of structural, dynamic, and magnetic symmetry:
=====================================================================
 Subroutine PRICEL returns following result:
 
  LATTYP: Found a face centered orthorhombic cell.
 ALAT       =     3.3222223590
 B/A-ratio  =     1.3859292911
 C/A-ratio  =     1.4424978336
  
  Lattice vectors:
  
 A1 = (   3.3222223590,   0.0000000000,  -0.0664444472)
 A2 = (   1.6943334031,   1.6611111795,  -1.6943334031)
 A3 = (   1.6278889559,   1.6611111795,   1.6278889559)
 
   2 primitive cells build up your supercell.
 

 Routine SETGRP: Setting up the symmetry group for a 
 base centered orthorhombic supercell.


 Subroutine GETGRP returns: Found  8 space group operations
 (whereof  8 operations were pure point group operations)
 out of a pool of  8 trial point group operations.


The overall configuration has the point symmetry D_2h.


 Subroutine INISYM returns: Found  8 space group operations
 (whereof  8 operations are pure point group operations),
 and found     2 'primitive' translations


----------------------------------------------------------------------------------------

                                     Primitive cell                                     

  volume of cell :      18.3266

  direct lattice vectors                    reciprocal lattice vectors
     3.322222359  0.000000000 -0.066444447     0.301123782 -0.301003332  0.006022476
     1.694333403  1.661111179 -1.694333403    -0.006022476  0.301003332 -0.301123782
     1.627888956  1.661111179  1.627888956     0.006022476  0.301003332  0.301123782

  length of vectors
     3.322886737  2.915616866  2.838896838     0.425810765  0.425810765  0.425810765

  position of ions in fractional coordinates (direct lattice)
     0.000000000  0.000000000  0.000000000

  ion indices of the primitive-cell ions
   primitive index   ion index
                 1           1

----------------------------------------------------------------------------------------



 KPOINTS: pymatgen with grid density = 869 / numbe

Automatic generation of k-mesh.
 Grid dimensions read from file:
 generate k-points for:    7    7    7

 Generating k-lattice:

  Cartesian coordinates                     Fractional coordinates (reciprocal lattice)
     0.043017683 -0.000000000  0.000860354     0.142857143 -0.000000000 -0.000000000
    -0.000000000  0.043000476 -0.000000000     0.000000000  0.142857143  0.000000000
     0.000860354 -0.000000000  0.043017683    -0.000000000  0.000000000  0.142857143

  Length of vectors
     0.043026286  0.043000476  0.043026286

  Shift w.r.t. Gamma in fractional coordinates (k-lattice)
     0.000000000  0.000000000  0.000000000

 TETIRR: Found    517 inequivalent tetrahedra from     2058
 
 Subroutine IBZKPT returns following result:
 ===========================================
 
 Found     64 irreducible k-points:
 
 Following reciprocal coordinates:
            Coordinates               Weight
  0.000000  0.000000  0.000000      1.000000
  0.142857  0.000000  0.000000      4.000000
  0.285714  0.000000  0.000000      4.000000
  0.428571  0.000000  0.000000      4.000000
  0.000000  0.142857  0.000000      2.000000
  0.142857  0.142857  0.000000      8.000000
  0.285714  0.142857  0.000000      8.000000
  0.428571  0.142857  0.000000      8.000000
  0.000000  0.285714  0.000000      2.000000
  0.142857  0.285714  0.000000      8.000000
  0.285714  0.285714  0.000000      8.000000
  0.428571  0.285714  0.000000      8.000000
  0.000000  0.428571  0.000000      2.000000
  0.142857  0.428571  0.000000      8.000000
  0.285714  0.428571  0.000000      8.000000
  0.428571  0.428571  0.000000      8.000000
  0.142857  0.000000  0.142857      2.000000
  0.285714  0.000000  0.142857      4.000000
  0.428571  0.000000  0.142857      4.000000
 -0.428571  0.000000  0.142857      4.000000
 -0.285714  0.000000  0.142857      4.000000
 -0.142857  0.000000  0.142857      2.000000
  0.142857  0.142857  0.142857      4.000000
  0.285714  0.142857  0.142857      8.000000
  0.428571  0.142857  0.142857      8.000000
 -0.428571  0.142857  0.142857      8.000000
 -0.285714  0.142857  0.142857      8.000000
 -0.142857  0.142857  0.142857      4.000000
  0.142857  0.285714  0.142857      4.000000
  0.285714  0.285714  0.142857      8.000000
  0.428571  0.285714  0.142857      8.000000
 -0.428571  0.285714  0.142857      8.000000
 -0.285714  0.285714  0.142857      8.000000
 -0.142857  0.285714  0.142857      4.000000
  0.142857  0.428571  0.142857      4.000000
  0.285714  0.428571  0.142857      8.000000
  0.428571  0.428571  0.142857      8.000000
 -0.428571  0.428571  0.142857      8.000000
 -0.285714  0.428571  0.142857      8.000000
 -0.142857  0.428571  0.142857      4.000000
  0.285714  0.000000  0.285714      2.000000
  0.428571  0.000000  0.285714      4.000000
 -0.428571  0.000000  0.285714      4.000000
 -0.285714  0.000000  0.285714      2.000000
  0.285714  0.142857  0.285714      4.000000
  0.428571  0.142857  0.285714      8.000000
 -0.428571  0.142857  0.285714      8.000000
 -0.285714  0.142857  0.285714      4.000000
  0.285714  0.285714  0.285714      4.000000
  0.428571  0.285714  0.285714      8.000000
 -0.428571  0.285714  0.285714      8.000000
 -0.285714  0.285714  0.285714      4.000000
  0.285714  0.428571  0.285714      4.000000
  0.428571  0.428571  0.285714      8.000000
 -0.428571  0.428571  0.285714      8.000000
 -0.285714  0.428571  0.285714      4.000000
  0.428571  0.000000  0.428571      2.000000
 -0.428571  0.000000  0.428571      2.000000
  0.428571  0.142857  0.428571      4.000000
 -0.428571  0.142857  0.428571      4.000000
  0.428571  0.285714  0.428571      4.000000
 -0.428571  0.285714  0.428571      4.000000
  0.428571  0.428571  0.428571      4.000000
 -0.428571  0.428571  0.428571      4.000000
 
 Following cartesian coordinates:
            Coordinates               Weight
  0.000000  0.000000  0.000000      1.000000
  0.043018  0.000000  0.000860      4.000000
  0.086035  0.000000  0.001721      4.000000
  0.129053  0.000000  0.002581      4.000000
  0.000000  0.043000  0.000000      2.000000
  0.043018  0.043000  0.000860      8.000000
  0.086035  0.043000  0.001721      8.000000
  0.129053  0.043000  0.002581      8.000000
  0.000000  0.086001  0.000000      2.000000
  0.043018  0.086001  0.000860      8.000000
  0.086035  0.086001  0.001721      8.000000
  0.129053  0.086001  0.002581      8.000000
  0.000000  0.129001  0.000000      2.000000
  0.043018  0.129001  0.000860      8.000000
  0.086035  0.129001  0.001721      8.000000
  0.129053  0.129001  0.002581      8.000000
  0.043878  0.000000  0.043878      2.000000
  0.086896  0.000000  0.044738      4.000000
  0.129913  0.000000  0.045599      4.000000
 -0.128193  0.000000  0.040437      4.000000
 -0.085175  0.000000  0.041297      4.000000
 -0.042157  0.000000  0.042157      2.000000
  0.043878  0.043000  0.043878      4.000000
  0.086896  0.043000  0.044738      8.000000
  0.129913  0.043000  0.045599      8.000000
 -0.128193  0.043000  0.040437      8.000000
 -0.085175  0.043000  0.041297      8.000000
 -0.042157  0.043000  0.042157      4.000000
  0.043878  0.086001  0.043878      4.000000
  0.086896  0.086001  0.044738      8.000000
  0.129913  0.086001  0.045599      8.000000
 -0.128193  0.086001  0.040437      8.000000
 -0.085175  0.086001  0.041297      8.000000
 -0.042157  0.086001  0.042157      4.000000
  0.043878  0.129001  0.043878      4.000000
  0.086896  0.129001  0.044738      8.000000
  0.129913  0.129001  0.045599      8.000000
 -0.128193  0.129001  0.040437      8.000000
 -0.085175  0.129001  0.041297      8.000000
 -0.042157  0.129001  0.042157      4.000000
  0.087756  0.000000  0.087756      2.000000
  0.130774  0.000000  0.088616      4.000000
 -0.127332  0.000000  0.083454      4.000000
 -0.084315  0.000000  0.084315      2.000000
  0.087756  0.043000  0.087756      4.000000
  0.130774  0.043000  0.088616      8.000000
 -0.127332  0.043000  0.083454      8.000000
 -0.084315  0.043000  0.084315      4.000000
  0.087756  0.086001  0.087756      4.000000
  0.130774  0.086001  0.088616      8.000000
 -0.127332  0.086001  0.083454      8.000000
 -0.084315  0.086001  0.084315      4.000000
  0.087756  0.129001  0.087756      4.000000
  0.130774  0.129001  0.088616      8.000000
 -0.127332  0.129001  0.083454      8.000000
 -0.084315  0.129001  0.084315      4.000000
  0.131634  0.000000  0.131634      2.000000
 -0.126472  0.000000  0.126472      2.000000
  0.131634  0.043000  0.131634      4.000000
 -0.126472  0.043000  0.126472      4.000000
  0.131634  0.086001  0.131634      4.000000
 -0.126472  0.086001  0.126472      4.000000
  0.131634  0.129001  0.131634      4.000000
 -0.126472  0.129001  0.126472      4.000000
 


--------------------------------------------------------------------------------------------------------




 Dimension of arrays:
   k-points           NKPTS =     64   k-points in BZ     NKDIM =     64   number of bands    NBANDS=     16
   number of dos      NEDOS =    301   number of ions     NIONS =      2
   non local maximal  LDIM  =      6   non local SUM 2l+1 LMDIM =     18
   total plane-waves  NPLWV =  21952
   max r-space proj   IRMAX =  10859   max aug-charges    IRDMAX=  37069
   dimension x,y,z NGX =    28 NGY =   28 NGZ =   28
   dimension x,y,z NGXF=    56 NGYF=   56 NGZF=   56
   support grid    NGXF=    56 NGYF=   56 NGZF=   56
   ions per type =               2
   NGX,Y,Z   is equivalent  to a cutoff of  14.01, 14.01, 14.01 a.u.
   NGXF,Y,Z  is equivalent  to a cutoff of  28.02, 28.02, 28.02 a.u.

 SYSTEM =  unknown system                          
 POSCAR =  Generated POSCAR                        

 Startparameter for this run:
   NWRITE =      2    write-flag & timer
   PREC   = accura    normal or accurate (medium, high low for compatibility)
   ISTART =      0    job   : 0-new  1-cont  2-samecut
   ICHARG =      2    charge: 1-file 2-atom 10-const
   ISPIN  =      2    spin polarized calculation?
   LNONCOLLINEAR =      F non collinear calculations
   LSORBIT =      F    spin-orbit coupling
   INIWAV =      1    electr: 0-lowe 1-rand  2-diag
   LASPH  =      T    aspherical Exc in radial PAW
 Electronic Relaxation 1
   ENCUT  =  520.0 eV  38.22 Ry    6.18 a.u.   6.18  6.18  6.18*2*pi/ulx,y,z
   ENINI  =  520.0     initial cutoff
   ENAUG  =  355.1 eV  augmentation charge cutoff
   NELM   =    100;   NELMIN=  2; NELMDL= -5     # of ELM steps 
   EDIFF  = 0.1E-03   stopping-criterion for ELM
   LREAL  =      T    real-space projection
   NLSPLINE    = F    spline interpolate recip. space projectors
   LCOMPAT=      F    compatible to vasp.4.4
   GGA_COMPAT  = T    GGA compatible to vasp.4.4-vasp.4.6
   LMAXPAW     = -100 max onsite density
   LMAXMIX     =    6 max onsite mixed and CHGCAR
   VOSKOWN=      0    Vosko Wilk Nusair interpolation
   ROPT   =   -0.00025
 Ionic relaxation
   EDIFFG = 0.1E-02   stopping-criterion for IOM
   NSW    =      0    number of steps for IOM
   NBLOCK =      1;   KBLOCK =      1    inner block; outer block 
   IBRION =     -1    ionic relax: 0-MD 1-quasi-New 2-CG
   NFREE  =      0    steps in history (QN), initial steepest desc. (CG)
   ISIF   =      2    stress and relaxation
   IWAVPR =     10    prediction:  0-non 1-charg 2-wave 3-comb
   ISYM   =      2    0-nonsym 1-usesym 2-fastsym
   LCORR  =      T    Harris-Foulkes like correction to forces

   POTIM  = 0.5000    time-step for ionic-motion
   TEIN   =    0.0    initial temperature
   TEBEG  =    0.0;   TEEND  =   0.0 temperature during run
   SMASS  =  -3.00    Nose mass-parameter (am)
   estimated Nose-frequenzy (Omega)   =  0.10E-29 period in steps = 0.13E+47 mass=  -0.252E-27a.u.
   SCALEE = 1.0000    scale energy and forces
   NPACO  =    256;   APACO  = 10.0  distance and # of slots for P.C.
   PSTRESS=    0.0 pullay stress

  Mass of Ions in am
   POMASS =  92.00
  Ionic Valenz
   ZVAL   =  11.00
  Atomic Wigner-Seitz radii
   RWIGS  =  -1.00
  virtual crystal weights 
   VCA    =   1.00
   NELECT =      22.0000    total number of electrons
   NUPDOWN=      -1.0000    fix difference up-down

 DOS related values:
   EMIN   =  10.00;   EMAX   =-10.00  energy-range for DOS
   EFERMI =   0.00;   METHOD = LEGACY      
   ISMEAR =    -5;   SIGMA  =   0.05  broadening in eV -4-tet -1-fermi 0-gaus

 Electronic relaxation 2 (details)
   IALGO  =     68    algorithm
   LDIAG  =      T    sub-space diagonalisation (order eigenvalues)
   LSUBROT=      F    optimize rotation matrix (better conditioning)
   TURBO    =      0    0=normal 1=particle mesh
   IRESTART =      0    0=no restart 2=restart with 2 vectors
   NREBOOT  =      0    no. of reboots
   NMIN     =      0    reboot dimension
   EREF     =   0.00    reference energy to select bands
   IMIX   =      4    mixing-type and parameters
     AMIX     =   0.40;   BMIX     =  1.00
     AMIX_MAG =   1.60;   BMIX_MAG =  1.00
     AMIN     =   0.10
     WC   =   100.;   INIMIX=   1;  MIXPRE=   1;  MAXMIX= -45

 Intra band minimization:
   WEIMIN = 0.0000     energy-eigenvalue tresh-hold
   EBREAK =  0.16E-05  absolut break condition
   DEPER  =   0.30     relativ break condition  

   TIME   =   0.40     timestep for ELM

  volume/ion in A,a.u.               =      18.33       123.67
  Fermi-wavevector in a.u.,A,eV,Ry     =   1.380951  2.609619 25.946661  1.907026
  Thomas-Fermi vector in A             =   2.505781

 Write flags
   LWAVE        =      F    write WAVECAR
   LDOWNSAMPLE  =      F    k-point downsampling of WAVECAR
   LCHARG       =      T    write CHGCAR
   LVTOT        =      F    write LOCPOT, total local potential
   LVHAR        =      F    write LOCPOT, Hartree potential only
   LELF         =      F    write electronic localiz. function (ELF)
   LORBIT       =     11    0 simple, 1 ext, 2 COOP (PROOUT), +10 PAW based schemes


 Dipole corrections
   LMONO  =      F    monopole corrections only (constant potential shift)
   LDIPOL =      F    correct potential (dipole corrections)
   IDIPOL =      0    1-x, 2-y, 3-z, 4-all directions 
   EPSILON=  1.0000000 bulk dielectric constant

 Exchange correlation treatment:
   GGA     =    --    GGA type
   LEXCH   =     8    internal setting for exchange type
   LIBXC   =     F    Libxc                    
   VOSKOWN =     0    Vosko Wilk Nusair interpolation
   LHFCALC =     F    Hartree Fock is set to
   LHFONE  =     F    Hartree Fock one center treatment
   AEXX    =    0.0000 exact exchange contribution

 Linear response parameters
   LEPSILON=     F    determine dielectric tensor
   LRPA    =     F    only Hartree local field effects (RPA)
   LNABLA  =     F    use nabla operator in PAW spheres
   LVEL    =     F    velocity operator in full k-point grid
   CSHIFT  =0.1000    complex shift for real part using Kramers Kronig
   OMEGAMAX=  -1.0    maximum frequency
   DEG_THRESHOLD= 0.2000000E-02 threshold for treating states as degnerate
   RTIME   =   -0.100 relaxation time in fs
  (WPLASMAI=    0.000 imaginary part of plasma frequency in eV, 0.658/RTIME)
   DFIELD  = 0.0000000 0.0000000 0.0000000 field for delta impulse in time

  Optional k-point grid parameters
   LKPOINTS_OPT  =     F    use optional k-point grid
   KPOINTS_OPT_MODE=     1    mode for optional k-point grid

 Orbital magnetization related:
   ORBITALMAG=     F  switch on orbital magnetization
   LCHIMAG   =     F  perturbation theory with respect to B field
   DQ        =  0.001000  dq finite difference perturbation B field
   LLRAUG    =     F  two centre corrections for induced B field
   LBONE     =     F  B-component reconstruction in AE one-centre
   LVGVCALC  =     T  calculate vGv susceptibility
   LVGVAPPL  =     F  apply vGv susceptibility instead of pGv for G=0

 Random number generation:
   RANDOM_GENERATOR = DEFAULT
   PCG_SEED         = not used


--------------------------------------------------------------------------------------------------------


 Static calculation
 charge density and potential will be updated during run
 spin polarized calculation
 RMM-DIIS sequential band-by-band and
  variant of blocked Davidson during initial phase
 perform sub-space diagonalisation
    before iterative eigenvector-optimisation
 modified Broyden-mixing scheme, WC =      100.0
 initial mixing is a Kerker type mixing with AMIX =  0.4000 and BMIX =      1.0000
 Hartree-type preconditioning will be used
 using additional bands            5
 real space projection scheme for non local part
 use partial core corrections
 calculate Harris-corrections to forces   (improved forces if not selfconsistent)
 use gradient corrections 
 use of overlap-Matrix (Vanderbilt PP)
 Fermi weights with tetrahedron method with Bloechl corrections


--------------------------------------------------------------------------------------------------------


  energy-cutoff  :      520.00
  volume of cell :       36.65
      direct lattice vectors                 reciprocal lattice vectors
     3.322222359  0.000000000 -0.066444447     0.301123782 -0.000000000  0.006022476
     0.000000000  3.322222359  0.000000000    -0.000000000  0.301003332 -0.000000000
    -0.066444447  0.000000000  3.322222359     0.006022476 -0.000000000  0.301123782

  length of vectors
     3.322886737  3.322222359  3.322886737     0.301184000  0.301003332  0.301184000



 k-points in units of 2pi/SCALE and weight: pymatgen with grid density = 869 / numbe
   0.00000000  0.00000000  0.00000000       0.003
   0.04301768  0.00000000  0.00086035       0.012
   0.08603537  0.00000000  0.00172071       0.012
   0.12905305  0.00000000  0.00258106       0.012
   0.00000000  0.04300048  0.00000000       0.006
   0.04301768  0.04300048  0.00086035       0.023
   0.08603537  0.04300048  0.00172071       0.023
   0.12905305  0.04300048  0.00258106       0.023
   0.00000000  0.08600095  0.00000000       0.006
   0.04301768  0.08600095  0.00086035       0.023
   0.08603537  0.08600095  0.00172071       0.023
   0.12905305  0.08600095  0.00258106       0.023
   0.00000000  0.12900143  0.00000000       0.006
   0.04301768  0.12900143  0.00086035       0.023
   0.08603537  0.12900143  0.00172071       0.023
   0.12905305  0.12900143  0.00258106       0.023
   0.04387804  0.00000000  0.04387804       0.006
   0.08689572  0.00000000  0.04473839       0.012
   0.12991340  0.00000000  0.04559874       0.012
  -0.12819270  0.00000000  0.04043662       0.012
  -0.08517501  0.00000000  0.04129698       0.012
  -0.04215733  0.00000000  0.04215733       0.006
   0.04387804  0.04300048  0.04387804       0.012
   0.08689572  0.04300048  0.04473839       0.023
   0.12991340  0.04300048  0.04559874       0.023
  -0.12819270  0.04300048  0.04043662       0.023
  -0.08517501  0.04300048  0.04129698       0.023
  -0.04215733  0.04300048  0.04215733       0.012
   0.04387804  0.08600095  0.04387804       0.012
   0.08689572  0.08600095  0.04473839       0.023
   0.12991340  0.08600095  0.04559874       0.023
  -0.12819270  0.08600095  0.04043662       0.023
  -0.08517501  0.08600095  0.04129698       0.023
  -0.04215733  0.08600095  0.04215733       0.012
   0.04387804  0.12900143  0.04387804       0.012
   0.08689572  0.12900143  0.04473839       0.023
   0.12991340  0.12900143  0.04559874       0.023
  -0.12819270  0.12900143  0.04043662       0.023
  -0.08517501  0.12900143  0.04129698       0.023
  -0.04215733  0.12900143  0.04215733       0.012
   0.08775607  0.00000000  0.08775607       0.006
   0.13077376  0.00000000  0.08861643       0.012
  -0.12733234  0.00000000  0.08345431       0.012
  -0.08431466  0.00000000  0.08431466       0.006
   0.08775607  0.04300048  0.08775607       0.012
   0.13077376  0.04300048  0.08861643       0.023
  -0.12733234  0.04300048  0.08345431       0.023
  -0.08431466  0.04300048  0.08431466       0.012
   0.08775607  0.08600095  0.08775607       0.012
   0.13077376  0.08600095  0.08861643       0.023
  -0.12733234  0.08600095  0.08345431       0.023
  -0.08431466  0.08600095  0.08431466       0.012
   0.08775607  0.12900143  0.08775607       0.012
   0.13077376  0.12900143  0.08861643       0.023
  -0.12733234  0.12900143  0.08345431       0.023
  -0.08431466  0.12900143  0.08431466       0.012
   0.13163411  0.00000000  0.13163411       0.006
  -0.12647199  0.00000000  0.12647199       0.006
   0.13163411  0.04300048  0.13163411       0.012
  -0.12647199  0.04300048  0.12647199       0.012
   0.13163411  0.08600095  0.13163411       0.012
  -0.12647199  0.08600095  0.12647199       0.012
   0.13163411  0.12900143  0.13163411       0.012
  -0.12647199  0.12900143  0.12647199       0.012

 k-points in reciprocal lattice and weights: pymatgen with grid density = 869 / numbe
   0.00000000  0.00000000  0.00000000       0.003
   0.14285714  0.00000000  0.00000000       0.012
   0.28571429  0.00000000  0.00000000       0.012
   0.42857143  0.00000000  0.00000000       0.012
   0.00000000  0.14285714  0.00000000       0.006
   0.14285714  0.14285714  0.00000000       0.023
   0.28571429  0.14285714  0.00000000       0.023
   0.42857143  0.14285714  0.00000000       0.023
   0.00000000  0.28571429  0.00000000       0.006
   0.14285714  0.28571429  0.00000000       0.023
   0.28571429  0.28571429  0.00000000       0.023
   0.42857143  0.28571429  0.00000000       0.023
   0.00000000  0.42857143  0.00000000       0.006
   0.14285714  0.42857143  0.00000000       0.023
   0.28571429  0.42857143  0.00000000       0.023
   0.42857143  0.42857143  0.00000000       0.023
   0.14285714  0.00000000  0.14285714       0.006
   0.28571429  0.00000000  0.14285714       0.012
   0.42857143  0.00000000  0.14285714       0.012
  -0.42857143  0.00000000  0.14285714       0.012
  -0.28571429  0.00000000  0.14285714       0.012
  -0.14285714  0.00000000  0.14285714       0.006
   0.14285714  0.14285714  0.14285714       0.012
   0.28571429  0.14285714  0.14285714       0.023
   0.42857143  0.14285714  0.14285714       0.023
  -0.42857143  0.14285714  0.14285714       0.023
  -0.28571429  0.14285714  0.14285714       0.023
  -0.14285714  0.14285714  0.14285714       0.012
   0.14285714  0.28571429  0.14285714       0.012
   0.28571429  0.28571429  0.14285714       0.023
   0.42857143  0.28571429  0.14285714       0.023
  -0.42857143  0.28571429  0.14285714       0.023
  -0.28571429  0.28571429  0.14285714       0.023
  -0.14285714  0.28571429  0.14285714       0.012
   0.14285714  0.42857143  0.14285714       0.012
   0.28571429  0.42857143  0.14285714       0.023
   0.42857143  0.42857143  0.14285714       0.023
  -0.42857143  0.42857143  0.14285714       0.023
  -0.28571429  0.42857143  0.14285714       0.023
  -0.14285714  0.42857143  0.14285714       0.012
   0.28571429  0.00000000  0.28571429       0.006
   0.42857143  0.00000000  0.28571429       0.012
  -0.42857143  0.00000000  0.28571429       0.012
  -0.28571429  0.00000000  0.28571429       0.006
   0.28571429  0.14285714  0.28571429       0.012
   0.42857143  0.14285714  0.28571429       0.023
  -0.42857143  0.14285714  0.28571429       0.023
  -0.28571429  0.14285714  0.28571429       0.012
   0.28571429  0.28571429  0.28571429       0.012
   0.42857143  0.28571429  0.28571429       0.023
  -0.42857143  0.28571429  0.28571429       0.023
  -0.28571429  0.28571429  0.28571429       0.012
   0.28571429  0.42857143  0.28571429       0.012
   0.42857143  0.42857143  0.28571429       0.023
  -0.42857143  0.42857143  0.28571429       0.023
  -0.28571429  0.42857143  0.28571429       0.012
   0.42857143  0.00000000  0.42857143       0.006
  -0.42857143  0.00000000  0.42857143       0.006
   0.42857143  0.14285714  0.42857143       0.012
  -0.42857143  0.14285714  0.42857143       0.012
   0.42857143  0.28571429  0.42857143       0.012
  -0.42857143  0.28571429  0.42857143       0.012
   0.42857143  0.42857143  0.42857143       0.012
  -0.42857143  0.42857143  0.42857143       0.012

 position of ions in fractional coordinates (direct lattice) 
   0.00000000  0.00000000  0.00000000
   0.50000000  0.50000000  0.50000000

 position of ions in cartesian coordinates  (Angst):
   0.00000000  0.00000000  0.00000000
   1.62788896  1.66111118  1.62788896



--------------------------------------------------------------------------------------------------------


 k-point   1 :   0.0000 0.0000 0.0000  plane waves:     989
 k-point   2 :   0.1429 0.0000 0.0000  plane waves:     983
 k-point   3 :   0.2857 0.0000 0.0000  plane waves:     990
 k-point   4 :   0.4286 0.0000 0.0000  plane waves:     984
 k-point   5 :   0.0000 0.1429 0.0000  plane waves:     985
 k-point   6 :   0.1429 0.1429 0.0000  plane waves:     983
 k-point   7 :   0.2857 0.1429 0.0000  plane waves:     986
 k-point   8 :   0.4286 0.1429 0.0000  plane waves:     988
 k-point   9 :   0.0000 0.2857 0.0000  plane waves:     988
 k-point  10 :   0.1429 0.2857 0.0000  plane waves:     987
 k-point  11 :   0.2857 0.2857 0.0000  plane waves:     987
 k-point  12 :   0.4286 0.2857 0.0000  plane waves:     983
 k-point  13 :   0.0000 0.4286 0.0000  plane waves:     982
 k-point  14 :   0.1429 0.4286 0.0000  plane waves:     985
 k-point  15 :   0.2857 0.4286 0.0000  plane waves:     986
 k-point  16 :   0.4286 0.4286 0.0000  plane waves:     991
 k-point  17 :   0.1429 0.0000 0.1429  plane waves:     981
 k-point  18 :   0.2857 0.0000 0.1429  plane waves:     981
 k-point  19 :   0.4286 0.0000 0.1429  plane waves:     982
 k-point  20 :  -0.4286 0.0000 0.1429  plane waves:     989
 k-point  21 :  -0.2857 0.0000 0.1429  plane waves:     984
 k-point  22 :  -0.1429 0.0000 0.1429  plane waves:     985
 k-point  23 :   0.1429 0.1429 0.1429  plane waves:     977
 k-point  24 :   0.2857 0.1429 0.1429  plane waves:     980
 k-point  25 :   0.4286 0.1429 0.1429  plane waves:     980
 k-point  26 :  -0.4286 0.1429 0.1429  plane waves:     988
 k-point  27 :  -0.2857 0.1429 0.1429  plane waves:     991
 k-point  28 :  -0.1429 0.1429 0.1429  plane waves:     982
 k-point  29 :   0.1429 0.2857 0.1429  plane waves:     981
 k-point  30 :   0.2857 0.2857 0.1429  plane waves:     983
 k-point  31 :   0.4286 0.2857 0.1429  plane waves:     987
 k-point  32 :  -0.4286 0.2857 0.1429  plane waves:     987
 k-point  33 :  -0.2857 0.2857 0.1429  plane waves:     991
 k-point  34 :  -0.1429 0.2857 0.1429  plane waves:     995
 k-point  35 :   0.1429 0.4286 0.1429  plane waves:     978
 k-point  36 :   0.2857 0.4286 0.1429  plane waves:     981
 k-point  37 :   0.4286 0.4286 0.1429  plane waves:     996
 k-point  38 :  -0.4286 0.4286 0.1429  plane waves:     992
 k-point  39 :  -0.2857 0.4286 0.1429  plane waves:     986
 k-point  40 :  -0.1429 0.4286 0.1429  plane waves:     990
 k-point  41 :   0.2857 0.0000 0.2857  plane waves:     980
 k-point  42 :   0.4286 0.0000 0.2857  plane waves:     983
 k-point  43 :  -0.4286 0.0000 0.2857  plane waves:     992
 k-point  44 :  -0.2857 0.0000 0.2857  plane waves:     989
 k-point  45 :   0.2857 0.1429 0.2857  plane waves:     982
 k-point  46 :   0.4286 0.1429 0.2857  plane waves:     991
 k-point  47 :  -0.4286 0.1429 0.2857  plane waves:     993
 k-point  48 :  -0.2857 0.1429 0.2857  plane waves:     996
 k-point  49 :   0.2857 0.2857 0.2857  plane waves:     985
 k-point  50 :   0.4286 0.2857 0.2857  plane waves:     988
 k-point  51 :  -0.4286 0.2857 0.2857  plane waves:     986
 k-point  52 :  -0.2857 0.2857 0.2857  plane waves:     994
 k-point  53 :   0.2857 0.4286 0.2857  plane waves:     984
 k-point  54 :   0.4286 0.4286 0.2857  plane waves:     995
 k-point  55 :  -0.4286 0.4286 0.2857  plane waves:     987
 k-point  56 :  -0.2857 0.4286 0.2857  plane waves:     984
 k-point  57 :   0.4286 0.0000 0.4286  plane waves:     976
 k-point  58 :  -0.4286 0.0000 0.4286  plane waves:     989
 k-point  59 :   0.4286 0.1429 0.4286  plane waves:     985
 k-point  60 :  -0.4286 0.1429 0.4286  plane waves:     984
 k-point  61 :   0.4286 0.2857 0.4286  plane waves:     992
 k-point  62 :  -0.4286 0.2857 0.4286  plane waves:     992
 k-point  63 :   0.4286 0.4286 0.4286  plane waves:     998
 k-point  64 :  -0.4286 0.4286 0.4286  plane waves:     988

 maximum and minimum number of plane-waves per node :       998      976

 maximum number of plane-waves:       998
 maximum index in each direction: 
   IXMAX=    6   IYMAX=    6   IZMAX=    6
   IXMIN=   -6   IYMIN=   -6   IZMIN=   -6


 serial   3D FFT for wavefunctions
 parallel 3D FFT for charge:
    minimum data exchange during FFTs selected (reduces bandwidth)


 total amount of memory used by VASP MPI-rank0    91171. kBytes
=======================================================================

   base      :      30000. kBytes
   nonlr-proj:       6259. kBytes
   fftplans  :       6192. kBytes
   grid      :      14776. kBytes
   one-center:         62. kBytes
   wavefun   :      33882. kBytes

     INWAV:  cpu time      0.0000: real time      0.0000
 Broyden mixing: mesh for mixing (old mesh)
   NGX = 13   NGY = 13   NGZ = 13
  (NGX  = 56   NGY  = 56   NGZ  = 56)
  gives a total of   2197 points

 initial charge density was supplied:
 charge density of overlapping atoms calculated
 number of electron      22.0000000 magnetization       1.2000000
 keeping initial charge density in first step


--------------------------------------------------------------------------------------------------------


 Maximum index for non-local projection operator         1138
 Maximum index for augmentation-charges        35777 (set IRDMAX)


--------------------------------------------------------------------------------------------------------


 First call to EWALD:  gamma=   0.534
 Maximum number of real-space cells 3x 3x 3
 Maximum number of reciprocal cells 3x 3x 3

    FEWALD:  cpu time      0.1530: real time      0.0083


--------------------------------------- Ionic step        1  -------------------------------------------




--------------------------------------- Iteration      1(   1)  ---------------------------------------


    POTLOK:  cpu time      1.9443: real time      0.1467
    SETDIJ:  cpu time      1.2108: real time      0.2608
     EDDAV:  cpu time    436.5622: real time     24.0578
 BZINTS: Fermi energy:   23.636000;   22.000000 electrons
         Band energy:-0.281037E+02;  BLOECHL correction:   -0.653854
       DOS:  cpu time      0.2160: real time      0.0262
    --------------------------------------------
      LOOP:  cpu time    439.9334: real time     24.4915

 eigenvalue-minimisations  :  4448
 total energy-change (2. order) : 0.2020144E+03  (-0.1159964E+04)
 number of electron      22.0000000 magnetization       1.2000000
 augmentation part       22.0000000 magnetization       1.2000000

 Free energy of the ion-electron system (eV)
  ---------------------------------------------------
  alpha Z        PSCENC =       247.02244180
  Ewald energy   TEWEN  =     -1908.57692376
  -Hartree energ DENC   =      -279.63742349
  -exchange      EXHF   =         0.00000000
  -V(xc)+E(xc)   XCENC  =        52.62034554
  PAW double counting   =      1671.32378679    -1639.41528309
  entropy T*S    EENTRO =         0.00000000
  eigenvalues    EBANDS =       -28.10374600
  atomic energy  EATOM  =      2086.78124273
  Solvation  Ediel_sol  =         0.00000000
  ---------------------------------------------------
  free energy    TOTEN  =       202.01444052 eV

  energy without entropy =      202.01444052  energy(sigma->0) =      202.01444052


--------------------------------------------------------------------------------------------------------




--------------------------------------- Iteration      1(   2)  ---------------------------------------


     EDDAV:  cpu time    545.3182: real time     28.9195
 BZINTS: Fermi energy:    7.053501;   22.000000 electrons
         Band energy:-0.240656E+03;  BLOECHL correction:   -0.347811
       DOS:  cpu time      0.2584: real time      0.0323
    --------------------------------------------
      LOOP:  cpu time    545.5766: real time     28.9518

 eigenvalue-minimisations  :  4320
 total energy-change (2. order) :-0.2125527E+03  (-0.2101414E+03)
 number of electron      22.0000000 magnetization       1.2000000
 augmentation part       22.0000000 magnetization       1.2000000

 Free energy of the ion-electron system (eV)
  ---------------------------------------------------
  alpha Z        PSCENC =       247.02244180
  Ewald energy   TEWEN  =     -1908.57692376
  -Hartree energ DENC   =      -279.63742349
  -exchange      EXHF   =         0.00000000
  -V(xc)+E(xc)   XCENC  =        52.62034554
  PAW double counting   =      1671.32378679    -1639.41528309
  entropy T*S    EENTRO =         0.00000000
  eigenvalues    EBANDS =      -240.65647002
  atomic energy  EATOM  =      2086.78124273
  Solvation  Ediel_sol  =         0.00000000
  ---------------------------------------------------
  free energy    TOTEN  =       -10.53828350 eV

  energy without entropy =      -10.53828350  energy(sigma->0) =      -10.53828350


--------------------------------------------------------------------------------------------------------




--------------------------------------- Iteration      1(   3)  ---------------------------------------


     EDDAV:  cpu time   4739.5835: real time    219.3012
 BZINTS: Fermi energy:    5.473672;   22.000000 electrons
         Band energy:-0.251073E+03;  BLOECHL correction:   -0.208593
       DOS:  cpu time      0.1930: real time      0.0309
    --------------------------------------------
      LOOP:  cpu time   4739.7765: real time    219.3321

 eigenvalue-minimisations  :  6800
 total energy-change (2. order) :-0.1041619E+02  (-0.9849761E+01)
 number of electron      22.0000000 magnetization       1.2000000
 augmentation part       22.0000000 magnetization       1.2000000

 Free energy of the ion-electron system (eV)
  ---------------------------------------------------
  alpha Z        PSCENC =       247.02244180
  Ewald energy   TEWEN  =     -1908.57692376
  -Hartree energ DENC   =      -279.63742349
  -exchange      EXHF   =         0.00000000
  -V(xc)+E(xc)   XCENC  =        52.62034554
  PAW double counting   =      1671.32378679    -1639.41528309
  entropy T*S    EENTRO =         0.00000000
  eigenvalues    EBANDS =      -251.07266314
  atomic energy  EATOM  =      2086.78124273
  Solvation  Ediel_sol  =         0.00000000
  ---------------------------------------------------
  free energy    TOTEN  =       -20.95447662 eV

  energy without entropy =      -20.95447662  energy(sigma->0) =      -20.95447662


--------------------------------------------------------------------------------------------------------




--------------------------------------- Iteration      1(   4)  ---------------------------------------


     EDDAV:  cpu time   3759.5863: real time    173.6569
 BZINTS: Fermi energy:    5.444311;   22.000000 electrons
         Band energy:-0.251255E+03;  BLOECHL correction:   -0.204719
       DOS:  cpu time      0.3368: real time      0.0344
    --------------------------------------------
      LOOP:  cpu time   3759.9231: real time    173.6913

 eigenvalue-minimisations  :  5080
 total energy-change (2. order) :-0.1819944E+00  (-0.1799575E+00)
 number of electron      22.0000000 magnetization       1.2000000
 augmentation part       22.0000000 magnetization       1.2000000

 Free energy of the ion-electron system (eV)
  ---------------------------------------------------
  alpha Z        PSCENC =       247.02244180
  Ewald energy   TEWEN  =     -1908.57692376
  -Hartree energ DENC   =      -279.63742349
  -exchange      EXHF   =         0.00000000
  -V(xc)+E(xc)   XCENC  =        52.62034554
  PAW double counting   =      1671.32378679    -1639.41528309
  entropy T*S    EENTRO =         0.00000000
  eigenvalues    EBANDS =      -251.25465750
  atomic energy  EATOM  =      2086.78124273
  Solvation  Ediel_sol  =         0.00000000
  ---------------------------------------------------
  free energy    TOTEN  =       -21.13647098 eV

  energy without entropy =      -21.13647098  energy(sigma->0) =      -21.13647098


--------------------------------------------------------------------------------------------------------




--------------------------------------- Iteration      1(   5)  ---------------------------------------


     EDDAV:  cpu time   6909.1330: real time    315.3790
 BZINTS: Fermi energy:    5.443270;   22.000000 electrons
         Band energy:-0.251259E+03;  BLOECHL correction:   -0.204566
       DOS:  cpu time      0.2258: real time      0.0299
    CHARGE:  cpu time    328.0858: real time     15.4778
    MIXING:  cpu time      0.1156: real time      0.0099
    --------------------------------------------
      LOOP:  cpu time   7237.5602: real time    330.8965

 eigenvalue-minimisations  :  6416
 total energy-change (2. order) :-0.4820233E-02  (-0.4820973E-02)
 number of electron      22.0000001 magnetization       0.3465547
 augmentation part        7.7592360 magnetization      -0.0578031

 Broyden mixing:
  rms(total) = 0.24034E+01    rms(broyden)= 0.24034E+01
  rms(prec ) = 0.28254E+01
  weight for this iteration     100.00

 Free energy of the ion-electron system (eV)
  ---------------------------------------------------
  alpha Z        PSCENC =       247.02244180
  Ewald energy   TEWEN  =     -1908.57692376
  -Hartree energ DENC   =      -279.63742349
  -exchange      EXHF   =         0.00000000
  -V(xc)+E(xc)   XCENC  =        52.62034554
  PAW double counting   =      1671.32378679    -1639.41528309
  entropy T*S    EENTRO =         0.00000000
  eigenvalues    EBANDS =      -251.25947773
  atomic energy  EATOM  =      2086.78124273
  Solvation  Ediel_sol  =         0.00000000
  ---------------------------------------------------
  free energy    TOTEN  =       -21.14129121 eV

  energy without entropy =      -21.14129121  energy(sigma->0) =      -21.14129121


--------------------------------------------------------------------------------------------------------




--------------------------------------- Iteration      1(   6)  ---------------------------------------


    POTLOK:  cpu time      5.4264: real time      0.3064
    SETDIJ:  cpu time      1.1694: real time      0.2585
    EDDIAG:  cpu time    576.9563: real time     28.4967
  RMM-DIIS:  cpu time   5603.1749: real time    245.0598
    ORTHCH:  cpu time      1.2831: real time      0.0840
 BZINTS: Fermi energy:    5.096540;   22.000000 electrons
         Band energy:-0.265245E+03;  BLOECHL correction:   -0.206597
       DOS:  cpu time      0.2615: real time      0.0293
    CHARGE:  cpu time     24.3359: real time      1.3999
    MIXING:  cpu time      0.0024: real time      0.0024
    --------------------------------------------
      LOOP:  cpu time   6212.6099: real time    275.6373

 eigenvalue-minimisations  :  4481
 total energy-change (2. order) : 0.7983188E+00  (-0.7955148E-01)
 number of electron      22.0000001 magnetization       0.1610005
 augmentation part        7.8859919 magnetization      -0.0534810

 Broyden mixing:
  rms(total) = 0.91602E+00    rms(broyden)= 0.91602E+00
  rms(prec ) = 0.11964E+01
  weight for this iteration     100.00

 eigenvalues of (default mixing * dielectric matrix)
  average eigenvalue GAMMA=   1.5023
  1.5023

 Free energy of the ion-electron system (eV)
  ---------------------------------------------------
  alpha Z        PSCENC =       247.02244180
  Ewald energy   TEWEN  =     -1908.57692376
  -Hartree energ DENC   =      -260.36004280
  -exchange      EXHF   =         0.00000000
  -V(xc)+E(xc)   XCENC  =        51.60911977
  PAW double counting   =      2187.94497203    -2159.51866563
  entropy T*S    EENTRO =         0.00000000
  eigenvalues    EBANDS =      -265.24511652
  atomic energy  EATOM  =      2086.78124273
  Solvation  Ediel_sol  =         0.00000000
  ---------------------------------------------------
  free energy    TOTEN  =       -20.34297239 eV

  energy without entropy =      -20.34297239  energy(sigma->0) =      -20.34297239


--------------------------------------------------------------------------------------------------------




--------------------------------------- Iteration      1(   7)  ---------------------------------------


    POTLOK:  cpu time      2.1492: real time      0.1542
    SETDIJ:  cpu time      1.1270: real time      0.2512
    EDDIAG:  cpu time     91.0909: real time      5.0801
  RMM-DIIS:  cpu time    280.6623: real time     15.6330
    ORTHCH:  cpu time      1.4672: real time      0.0908
 BZINTS: Fermi energy:    4.806121;   22.000000 electrons
         Band energy:-0.276975E+03;  BLOECHL correction:   -0.203212
       DOS:  cpu time      0.2782: real time      0.0268
    CHARGE:  cpu time     36.8779: real time      2.0094
    MIXING:  cpu time      0.0015: real time      0.0013
    --------------------------------------------
      LOOP:  cpu time    413.6541: real time     23.2469

 eigenvalue-minimisations  :  5567
 total energy-change (2. order) : 0.1476522E+00  (-0.2134975E+00)
 number of electron      22.0000001 magnetization       0.0389122
 augmentation part        8.0579417 magnetization       0.0363283

 Broyden mixing:
  rms(total) = 0.24630E+00    rms(broyden)= 0.24630E+00
  rms(prec ) = 0.26537E+00
  weight for this iteration     100.00

 eigenvalues of (default mixing * dielectric matrix)
  average eigenvalue GAMMA=   1.0767
  1.6189  0.5345

 Free energy of the ion-electron system (eV)
  ---------------------------------------------------
  alpha Z        PSCENC =       247.02244180
  Ewald energy   TEWEN  =     -1908.57692376
  -Hartree energ DENC   =      -244.69402712
  -exchange      EXHF   =         0.00000000
  -V(xc)+E(xc)   XCENC  =        50.83064509
  PAW double counting   =      2620.83523284    -2595.41860736
  entropy T*S    EENTRO =         0.00000000
  eigenvalues    EBANDS =      -276.97532441
  atomic energy  EATOM  =      2086.78124273
  Solvation  Ediel_sol  =         0.00000000
  ---------------------------------------------------
  free energy    TOTEN  =       -20.19532019 eV

  energy without entropy =      -20.19532019  energy(sigma->0) =      -20.19532019


--------------------------------------------------------------------------------------------------------




--------------------------------------- Iteration      1(   8)  ---------------------------------------


    POTLOK:  cpu time      1.6882: real time      0.1305
    SETDIJ:  cpu time      1.1305: real time      0.2482
    EDDIAG:  cpu time     77.6770: real time      4.4953
  RMM-DIIS:  cpu time    380.7605: real time     20.5484
    ORTHCH:  cpu time      1.5813: real time      0.0949
 BZINTS: Fermi energy:    4.817333;   22.000000 electrons
         Band energy:-0.276435E+03;  BLOECHL correction:   -0.203397
       DOS:  cpu time      0.2208: real time      0.0282
    CHARGE:  cpu time     30.8049: real time      1.7200
    MIXING:  cpu time      0.1142: real time      0.0019
    --------------------------------------------
      LOOP:  cpu time    493.9773: real time     27.2674

 eigenvalue-minimisations  :  5995
 total energy-change (2. order) :-0.1126066E-01  (-0.1057953E-01)
 number of electron      22.0000001 magnetization       0.0245158
 augmentation part        8.0646245 magnetization       0.0163654

 Broyden mixing:
  rms(total) = 0.11937E+00    rms(broyden)= 0.11937E+00
  rms(prec ) = 0.14806E+00
  weight for this iteration     100.00

 eigenvalues of (default mixing * dielectric matrix)
  average eigenvalue GAMMA=   1.0709
  1.8405  0.6861  0.6861

 Free energy of the ion-electron system (eV)
  ---------------------------------------------------
  alpha Z        PSCENC =       247.02244180
  Ewald energy   TEWEN  =     -1908.57692376
  -Hartree energ DENC   =      -245.03973526
  -exchange      EXHF   =         0.00000000
  -V(xc)+E(xc)   XCENC  =        50.84096064
  PAW double counting   =      2669.22994102    -2644.02983199
  entropy T*S    EENTRO =         0.00000000
  eigenvalues    EBANDS =      -276.43467603
  atomic energy  EATOM  =      2086.78124273
  Solvation  Ediel_sol  =         0.00000000
  ---------------------------------------------------
  free energy    TOTEN  =       -20.20658085 eV

  energy without entropy =      -20.20658085  energy(sigma->0) =      -20.20658085


--------------------------------------------------------------------------------------------------------




--------------------------------------- Iteration      1(   9)  ---------------------------------------


    POTLOK:  cpu time      1.8514: real time      0.1331
    SETDIJ:  cpu time      1.0558: real time      0.2509
    EDDIAG:  cpu time     73.6662: real time      4.2407
  RMM-DIIS:  cpu time    384.2920: real time     20.4885
    ORTHCH:  cpu time      4.0801: real time      0.2232
 BZINTS: Fermi energy:    4.826330;   22.000000 electrons
         Band energy:-0.276016E+03;  BLOECHL correction:   -0.203548
       DOS:  cpu time      0.2922: real time      0.0321
    CHARGE:  cpu time     30.1833: real time      1.7011
    MIXING:  cpu time      0.1024: real time      0.0014
    --------------------------------------------
      LOOP:  cpu time    495.5233: real time     27.0710

 eigenvalue-minimisations  :  5962
 total energy-change (2. order) : 0.8665010E-04  (-0.2413146E-02)
 number of electron      22.0000001 magnetization       0.0188190
 augmentation part        8.0647204 magnetization       0.0156620

 Broyden mixing:
  rms(total) = 0.96841E-01    rms(broyden)= 0.96841E-01
  rms(prec ) = 0.12373E+00
  weight for this iteration     100.00

 eigenvalues of (default mixing * dielectric matrix)
  average eigenvalue GAMMA=   1.1070
  2.1152  0.8535  0.8535  0.6058

 Free energy of the ion-electron system (eV)
  ---------------------------------------------------
  alpha Z        PSCENC =       247.02244180
  Ewald energy   TEWEN  =     -1908.57692376
  -Hartree energ DENC   =      -245.39905007
  -exchange      EXHF   =         0.00000000
  -V(xc)+E(xc)   XCENC  =        50.85765571
  PAW double counting   =      2710.12851628    -2685.00431475
  entropy T*S    EENTRO =         0.00000000
  eigenvalues    EBANDS =      -276.01606213
  atomic energy  EATOM  =      2086.78124273
  Solvation  Ediel_sol  =         0.00000000
  ---------------------------------------------------
  free energy    TOTEN  =       -20.20649420 eV

  energy without entropy =      -20.20649420  energy(sigma->0) =      -20.20649420


--------------------------------------------------------------------------------------------------------




--------------------------------------- Iteration      1(  10)  ---------------------------------------


    POTLOK:  cpu time      1.1435: real time      0.1015
    SETDIJ:  cpu time      1.0923: real time      0.2473
    EDDIAG:  cpu time     85.1202: real time      4.7829
  RMM-DIIS:  cpu time    350.1615: real time     18.2861
    ORTHCH:  cpu time      2.1372: real time      0.1237
 BZINTS: Fermi energy:    4.849114;   22.000000 electrons
         Band energy:-0.275009E+03;  BLOECHL correction:   -0.203948
       DOS:  cpu time      0.2520: real time      0.0323
    CHARGE:  cpu time     29.4699: real time      1.6476
    MIXING:  cpu time      0.0020: real time      0.0020
    --------------------------------------------
      LOOP:  cpu time    469.3786: real time     25.2233

 eigenvalue-minimisations  :  4734
 total energy-change (2. order) : 0.3408185E-02  (-0.6257781E-03)
 number of electron      22.0000001 magnetization      -0.0057567
 augmentation part        8.0559908 magnetization      -0.0025566

 Broyden mixing:
  rms(total) = 0.66634E-01    rms(broyden)= 0.66634E-01
  rms(prec ) = 0.73418E-01
  weight for this iteration     100.00

 eigenvalues of (default mixing * dielectric matrix)
  average eigenvalue GAMMA=   1.3624
  2.6516  1.3835  1.3835  0.7634  0.6300

 Free energy of the ion-electron system (eV)
  ---------------------------------------------------
  alpha Z        PSCENC =       247.02244180
  Ewald energy   TEWEN  =     -1908.57692376
  -Hartree energ DENC   =      -246.38676174
  -exchange      EXHF   =         0.00000000
  -V(xc)+E(xc)   XCENC  =        50.90479328
  PAW double counting   =      2791.22848294    -2766.16722745
  entropy T*S    EENTRO =         0.00000000
  eigenvalues    EBANDS =      -275.00913381
  atomic energy  EATOM  =      2086.78124273
  Solvation  Ediel_sol  =         0.00000000
  ---------------------------------------------------
  free energy    TOTEN  =       -20.20308601 eV

  energy without entropy =      -20.20308601  energy(sigma->0) =      -20.20308601


--------------------------------------------------------------------------------------------------------




--------------------------------------- Iteration      1(  11)  ---------------------------------------


    POTLOK:  cpu time      1.8539: real time      0.1422
    SETDIJ:  cpu time      1.0575: real time      0.2505
    EDDIAG:  cpu time     89.1209: real time      5.0436
  RMM-DIIS:  cpu time   3087.6362: real time    136.5171
    ORTHCH:  cpu time      1.8643: real time      0.1078
 BZINTS: Fermi energy:    4.859876;   22.000000 electrons
         Band energy:-0.274526E+03;  BLOECHL correction:   -0.204117
       DOS:  cpu time      0.2698: real time      0.0285
    CHARGE:  cpu time     35.8600: real time      1.9876
    MIXING:  cpu time      0.0019: real time      0.0019
    --------------------------------------------
      LOOP:  cpu time   3217.6645: real time    144.0791

 eigenvalue-minimisations  :  5424
 total energy-change (2. order) :-0.2202993E-03  (-0.5288531E-03)
 number of electron      22.0000001 magnetization      -0.0041015
 augmentation part        8.0497550 magnetization      -0.0003809

 Broyden mixing:
  rms(total) = 0.43908E-02    rms(broyden)= 0.43908E-02
  rms(prec ) = 0.58069E-02
  weight for this iteration     100.00

 eigenvalues of (default mixing * dielectric matrix)
  average eigenvalue GAMMA=   1.2700
  2.5927  1.4476  1.4476  0.6207  0.7825  0.7288

 Free energy of the ion-electron system (eV)
  ---------------------------------------------------
  alpha Z        PSCENC =       247.02244180
  Ewald energy   TEWEN  =     -1908.57692376
  -Hartree energ DENC   =      -246.81898815
  -exchange      EXHF   =         0.00000000
  -V(xc)+E(xc)   XCENC  =        50.92516206
  PAW double counting   =      2865.18291806    -2840.19327954
  entropy T*S    EENTRO =         0.00000000
  eigenvalues    EBANDS =      -274.52587950
  atomic energy  EATOM  =      2086.78124273
  Solvation  Ediel_sol  =         0.00000000
  ---------------------------------------------------
  free energy    TOTEN  =       -20.20330631 eV

  energy without entropy =      -20.20330631  energy(sigma->0) =      -20.20330631


--------------------------------------------------------------------------------------------------------




--------------------------------------- Iteration      1(  12)  ---------------------------------------


    POTLOK:  cpu time      1.6715: real time      0.1341
    SETDIJ:  cpu time      1.1115: real time      0.2518
    EDDIAG:  cpu time     82.5541: real time      4.6700
  RMM-DIIS:  cpu time    292.0044: real time     15.5962
    ORTHCH:  cpu time      2.5804: real time      0.1453
 BZINTS: Fermi energy:    4.859986;   22.000000 electrons
         Band energy:-0.274520E+03;  BLOECHL correction:   -0.204115
       DOS:  cpu time      0.2312: real time      0.0302
    --------------------------------------------
      LOOP:  cpu time    380.1530: real time     20.8276

 eigenvalue-minimisations  :  4003
 total energy-change (2. order) :-0.7784843E-04  (-0.5898423E-04)
 number of electron      22.0000001 magnetization      -0.0041015
 augmentation part        8.0497550 magnetization      -0.0003809

 Free energy of the ion-electron system (eV)
  ---------------------------------------------------
  alpha Z        PSCENC =       247.02244180
  Ewald energy   TEWEN  =     -1908.57692376
  -Hartree energ DENC   =      -246.84082018
  -exchange      EXHF   =         0.00000000
  -V(xc)+E(xc)   XCENC  =        50.92622380
  PAW double counting   =      2864.06137797    -2839.05661762
  entropy T*S    EENTRO =         0.00000000
  eigenvalues    EBANDS =      -274.52030889
  atomic energy  EATOM  =      2086.78124273
  Solvation  Ediel_sol  =         0.00000000
  ---------------------------------------------------
  free energy    TOTEN  =       -20.20338416 eV

  energy without entropy =      -20.20338416  energy(sigma->0) =      -20.20338416


--------------------------------------------------------------------------------------------------------




 average (electrostatic) potential at core
  the test charge radii are     1.2125
  (the norm of the test charge is              1.0000)
       1 -35.1667       2 -35.1667



 E-fermi :   4.8600     XC(G=0): -12.3438     alpha+bet :-12.7651

 Fermi energy:         4.8599855932

 spin component 1

 k-point     1 :       0.0000    0.0000    0.0000
  band No.  band energies     occupation 
      1     -25.8515      1.00000
      2     -25.7862      1.00000
      3     -25.7193      1.00000
      4     -24.9692      1.00000
      5     -24.8980      1.00000
      6     -24.8391      1.00000
      7      -1.0594      1.00000
      8       1.2001      1.00000
      9       1.2146      1.00000
     10       4.9126      0.44470
     11       5.1575     -0.02449
     12       5.4877      0.00000
     13       8.0557      0.00000
     14       8.1050      0.00000
     15       9.9652      0.00000
     16      10.3000      0.00000

 k-point     2 :       0.1429    0.0000    0.0000
  band No.  band energies     occupation 
      1     -25.8283      1.00000
      2     -25.7410      1.00000
      3     -25.7007      1.00000
      4     -25.0369      1.00000
      5     -24.9404      1.00000
      6     -24.9081      1.00000
      7      -0.6494      1.00000
      8       1.4313      1.00000
      9       1.5485      1.00000
     10       4.9990      0.36709
     11       5.1305      0.03507
     12       5.5609      0.00000
     13       7.5216      0.00000
     14       8.2659      0.00000
     15       9.0790      0.00000
     16       9.1525      0.00000

 k-point     3 :       0.2857    0.0000    0.0000
  band No.  band energies     occupation 
      1     -25.7814      1.00000
      2     -25.6148      1.00000
      3     -25.6057      1.00000
      4     -25.2414      1.00000
      5     -25.0601      1.00000
      6     -25.0555      1.00000
      7       0.4451      1.00000
      8       2.1039      1.00000
      9       2.2963      1.00000
     10       5.1501      0.45297
     11       5.1528      0.05701
     12       5.9903      0.00000
     13       6.1836      0.00000
     14       7.4997      0.00000
     15       7.5228      0.00000
     16       8.7660      0.00000

 k-point     4 :       0.4286    0.0000    0.0000
  band No.  band energies     occupation 
      1     -25.6830      1.00000
      2     -25.4924      1.00000
      3     -25.4352      1.00000
      4     -25.4340      1.00000
      5     -25.2384      1.00000
      6     -25.2358      1.00000
      7       1.7982      1.00000
      8       2.6123      1.00000
      9       3.1818      1.00000
     10       4.5675      0.99553
     11       5.4980     -0.23366
     12       5.5264     -0.00399
     13       6.2582      0.00000
     14       6.2731      0.00000
     15       6.8301      0.00000
     16       7.9213      0.00000

 k-point     5 :       0.0000    0.1429    0.0000
  band No.  band energies     occupation 
      1     -25.8009      1.00000
      2     -25.7890      1.00000
      3     -25.6802      1.00000
      4     -25.0039      1.00000
      5     -24.9932      1.00000
      6     -24.8884      1.00000
      7      -0.6499      1.00000
      8       1.4416      1.00000
      9       1.5399      1.00000
     10       4.9196      0.64432
     11       5.3536     -0.07078
     12       5.4177      0.00000
     13       7.4859      0.00000
     14       8.3043      0.00000
     15       8.8945      0.00000
     16       9.4317      0.00000

 k-point     6 :       0.1429    0.1429    0.0000
  band No.  band energies     occupation 
      1     -25.8771      1.00000
      2     -25.6975      1.00000
      3     -25.6185      1.00000
      4     -25.1651      1.00000
      5     -25.0020      1.00000
      6     -24.8800      1.00000
      7      -0.2786      1.00000
      8       1.6772      1.00000
      9       1.8448      1.00000
     10       4.6800      0.99255
     11       5.0642      0.12579
     12       5.9991     -0.00652
     13       7.5817      0.00000
     14       7.8446      0.00000
     15       8.1139      0.00000
     16       8.2734      0.00000

 k-point     7 :       0.2857    0.1429    0.0000
  band No.  band energies     occupation 
      1     -25.9104      1.00000
      2     -25.5788      1.00000
      3     -25.4650      1.00000
      4     -25.4279      1.00000
      5     -25.1019      1.00000
      6     -24.9431      1.00000
      7       0.6801      1.00000
      8       2.1920      1.00000
      9       2.6325      1.00000
     10       4.4809      1.01847
     11       4.8246      0.75295
     12       6.4169     -0.04612
     13       6.8297      0.00000
     14       6.9054      0.00000
     15       6.9555      0.00000
     16       8.5767      0.00000

 k-point     8 :       0.4286    0.1429    0.0000
  band No.  band energies     occupation 
      1     -25.8541      1.00000
      2     -25.6842      1.00000
      3     -25.4225      1.00000
      4     -25.2744      1.00000
      5     -25.2524      1.00000
      6     -25.0868      1.00000
      7       1.7934      1.00000
      8       2.4681      1.00000
      9       3.4435      1.00000
     10       4.3420      1.00450
     11       4.6453      0.92400
     12       5.2880     -0.03160
     13       6.4036      0.00000
     14       6.4771      0.00000
     15       7.8893      0.00000
     16       9.0393      0.00000

 k-point     9 :       0.0000    0.2857    0.0000
  band No.  band energies     occupation 
      1     -25.7715      1.00000
      2     -25.6592      1.00000
      3     -25.5714      1.00000
      4     -25.2274      1.00000
      5     -25.1028      1.00000
      6     -25.0272      1.00000
      7       0.4434      1.00000
      8       2.1121      1.00000
      9       2.2951      1.00000
     10       5.0379      0.71766
     11       5.3499     -0.15595
     12       5.9248      0.00000
     13       6.1386      0.00000
     14       7.3511      0.00000
     15       7.6865      0.00000
     16       8.7983      0.00000

 k-point    10 :       0.1429    0.2857    0.0000
  band No.  band energies     occupation 
      1     -25.9103      1.00000
      2     -25.5808      1.00000
      3     -25.4633      1.00000
      4     -25.4265      1.00000
      5     -25.1022      1.00000
      6     -24.9445      1.00000
      7       0.6791      1.00000
      8       2.1941      1.00000
      9       2.6360      1.00000
     10       4.4783      1.01298
     11       4.8381      0.72660
     12       6.3954     -0.05199
     13       6.7888      0.00000
     14       6.9168      0.00000
     15       6.9742      0.00000
     16       8.5991      0.00000

 k-point    11 :       0.2857    0.2857    0.0000
  band No.  band energies     occupation 
      1     -26.0403      1.00000
      2     -25.7142      1.00000
      3     -25.4969      1.00000
      4     -25.2640      1.00000
      5     -25.1670      1.00000
      6     -24.8960      1.00000
      7       1.1393      1.00000
      8       2.1336      1.00000
      9       3.6316      1.00000
     10       3.8770      1.00000
     11       4.8537      0.86465
     12       5.0720      0.07262
     13       6.5034      0.00000
     14       7.6929      0.00000
     15       8.0623      0.00000
     16       8.3652      0.00000

 k-point    12 :       0.4286    0.2857    0.0000
  band No.  band energies     occupation 
      1     -26.0642      1.00000
      2     -25.9497      1.00000
      3     -25.3858      1.00000
      4     -25.2680      1.00000
      5     -25.0812      1.00000
      6     -24.9483      1.00000
      7       1.5051      1.00000
      8       1.8486      1.00000
      9       3.7301      1.00000
     10       4.1248      1.00000
     11       4.6607      0.78750
     12       5.1445      0.00119
     13       7.0095      0.00000
     14       7.5731      0.00000
     15       8.9063      0.00000
     16       9.3967      0.00000

 k-point    13 :       0.0000    0.4286    0.0000
  band No.  band energies     occupation 
      1     -25.6809      1.00000
      2     -25.4886      1.00000
      3     -25.4549      1.00000
      4     -25.4168      1.00000
      5     -25.2494      1.00000
      6     -25.2292      1.00000
      7       1.7972      1.00000
      8       2.6159      1.00000
      9       3.1885      1.00000
     10       4.5884      0.99697
     11       5.4591     -0.19045
     12       5.5483      0.00000
     13       6.1969      0.00000
     14       6.3270      0.00000
     15       6.8139      0.00000
     16       7.9035      0.00000

 k-point    14 :       0.1429    0.4286    0.0000
  band No.  band energies     occupation 
      1     -25.8548      1.00000
      2     -25.6843      1.00000
      3     -25.4187      1.00000
      4     -25.2778      1.00000
      5     -25.2481      1.00000
      6     -25.0914      1.00000
      7       1.7939      1.00000
      8       2.4731      1.00000
      9       3.4440      1.00000
     10       4.3418      1.00219
     11       4.6484      0.92810
     12       5.2875     -0.03629
     13       6.3987      0.00000
     14       6.4728      0.00000
     15       7.8801      0.00000
     16       9.0077      0.00000

 k-point    15 :       0.2857    0.4286    0.0000
  band No.  band energies     occupation 
      1     -26.0647      1.00000
      2     -25.9501      1.00000
      3     -25.3838      1.00000
      4     -25.2659      1.00000
      5     -25.0829      1.00000
      6     -24.9501      1.00000
      7       1.5060      1.00000
      8       1.8504      1.00000
      9       3.7294      1.00000
     10       4.1150      1.00000
     11       4.6727      0.78503
     12       5.1421     -0.00328
     13       7.0034      0.00000
     14       7.5753      0.00000
     15       8.9208      0.00000
     16       9.3788      0.00000

 k-point    16 :       0.4286    0.4286    0.0000
  band No.  band energies     occupation 
      1     -26.1727      1.00000
      2     -26.1325      1.00000
      3     -25.3393      1.00000
      4     -25.2972      1.00000
      5     -24.9499      1.00000
      6     -24.9019      1.00000
      7       1.2431      1.00000
      8       1.3533      1.00000
      9       3.2952      1.00000
     10       3.4286      1.00000
     11       6.1744     -0.16162
     12       6.5267     -0.07268
     13       7.7011      0.00000
     14       8.1116      0.00000
     15       8.6606      0.00000
     16       9.6554      0.00000

 k-point    17 :       0.1429    0.0000    0.1429
  band No.  band energies     occupation 
      1     -25.8047      1.00000
      2     -25.6879      1.00000
      3     -25.6763      1.00000
      4     -25.1187      1.00000
      5     -24.9908      1.00000
      6     -24.9678      1.00000
      7      -0.2485      1.00000
      8       1.7219      1.00000
      9       1.8455      1.00000
     10       4.9816      0.47259
     11       5.1593     -0.04366
     12       5.7625      0.00000
     13       7.3794      0.00000
     14       8.0191      0.00000
     15       8.0827      0.00000
     16       8.2615      0.00000

 k-point    18 :       0.2857    0.0000    0.1429
  band No.  band energies     occupation 
      1     -25.8587      1.00000
      2     -25.5627      1.00000
      3     -25.4878      1.00000
      4     -25.4065      1.00000
      5     -25.1070      1.00000
      6     -25.0120      1.00000
      7       0.7234      1.00000
      8       2.2838      1.00000
      9       2.6247      1.00000
     10       4.6697      0.98348
     11       5.0118      0.28943
     12       6.4843     -0.03996
     13       6.6182      0.00000
     14       6.7139      0.00000
     15       6.9538      0.00000
     16       8.4491      0.00000

 k-point    19 :       0.4286    0.0000    0.1429
  band No.  band energies     occupation 
      1     -25.8267      1.00000
      2     -25.6870      1.00000
      3     -25.3923      1.00000
      4     -25.2731      1.00000
      5     -25.2689      1.00000
      6     -25.1298      1.00000
      7       1.8047      1.00000
      8       2.5418      1.00000
      9       3.4288      1.00000
     10       4.4155      1.00000
     11       4.7382      0.84644
     12       5.2717     -0.01858
     13       6.3294      0.00000
     14       6.4262      0.00000
     15       7.8693      0.00000
     16       8.9636      0.00000

 k-point    20 :      -0.4286    0.0000    0.1429
  band No.  band energies     occupation 
      1     -25.8778      1.00000
      2     -25.6822      1.00000
      3     -25.4467      1.00000
      4     -25.2854      1.00000
      5     -25.2127      1.00000
      6     -25.0661      1.00000
      7       1.7840      1.00000
      8       2.3992      1.00000
      9       3.4493      1.00000
     10       4.2516      1.00639
     11       4.5564      0.97852
     12       5.2895     -0.01421
     13       6.4889      0.00000
     14       6.5413      0.00000
     15       7.9166      0.00000
     16       9.1366      0.00000

 k-point    21 :      -0.2857    0.0000    0.1429
  band No.  band energies     occupation 
      1     -25.9500      1.00000
      2     -25.6052      1.00000
      3     -25.4511      1.00000
      4     -25.4439      1.00000
      5     -25.0607      1.00000
      6     -24.9084      1.00000
      7       0.6378      1.00000
      8       2.0922      1.00000
      9       2.6512      1.00000
     10       4.3300      1.02756
     11       4.6427      0.95347
     12       6.3314     -0.05118
     13       6.9666      0.00000
     14       7.0009      0.00000
     15       7.1063      0.00000
     16       8.6905      0.00000

 k-point    22 :      -0.1429    0.0000    0.1429
  band No.  band energies     occupation 
      1     -25.9225      1.00000
      2     -25.7110      1.00000
      3     -25.5835      1.00000
      4     -25.2083      1.00000
      5     -24.9646      1.00000
      6     -24.8438      1.00000
      7      -0.3077      1.00000
      8       1.6150      1.00000
      9       1.8598      1.00000
     10       4.5140      1.07213
     11       4.8825      0.56098
     12       6.2225     -0.01927
     13       7.7458      0.00000
     14       7.8054      0.00000
     15       8.1470      0.00000
     16       8.1478      0.00000

 k-point    23 :       0.1429    0.1429    0.1429
  band No.  band energies     occupation 
      1     -25.8421      1.00000
      2     -25.7615      1.00000
      3     -25.4997      1.00000
      4     -25.2921      1.00000
      5     -25.0070      1.00000
      6     -24.9214      1.00000
      7       0.1027      1.00000
      8       2.0155      1.00000
      9       2.0721      1.00000
     10       4.6069      1.00508
     11       4.7786      0.67669
     12       6.5221     -0.04248
     13       6.5247      0.00000
     14       7.6879      0.00000
     15       7.8302      0.00000
     16       9.1184      0.00000

 k-point    24 :       0.2857    0.1429    0.1429
  band No.  band energies     occupation 
      1     -25.8743      1.00000
      2     -25.6863      1.00000
      3     -25.5487      1.00000
      4     -25.3134      1.00000
      5     -25.0766      1.00000
      6     -25.0028      1.00000
      7       1.0122      1.00000
      8       2.5670      1.00000
      9       2.7674      1.00000
     10       4.3729      1.01204
     11       4.4416      1.04878
     12       5.1859      0.10194
     13       7.0206      0.00000
     14       7.6370      0.00000
     15       7.8344      0.00000
     16       8.3853      0.00000

 k-point    25 :       0.4286    0.1429    0.1429
  band No.  band energies     occupation 
      1     -25.8693      1.00000
      2     -25.7877      1.00000
      3     -25.4950      1.00000
      4     -25.2602      1.00000
      5     -25.1381      1.00000
      6     -25.0887      1.00000
      7       1.9697      1.00000
      8       2.7056      1.00000
      9       3.2761      1.00000
     10       3.8988      1.00000
     11       4.7201      0.93509
     12       4.8006      0.38123
     13       6.5530      0.00000
     14       6.9279      0.00000
     15       8.5493      0.00000
     16       8.9336      0.00000

[...]
  band No.  band energies     occupation 
      1     -26.2009      1.00000
      2     -26.1045      1.00000
      3     -25.3948      1.00000
      4     -25.2259      1.00000
      5     -25.0029      1.00000
      6     -24.8636      1.00000
      7       1.2383      1.00000
      8       1.3143      1.00000
      9       3.2047      1.00000
     10       3.4975      1.00000
     11       6.2750     -0.12593
     12       6.2983     -0.08934
     13       7.5411      0.00000
     14       8.2906      0.00000
     15       8.9059      0.00000
     16       9.5751      0.00000

 k-point    59 :       0.4286    0.1429    0.4286
  band No.  band energies     occupation 
      1     -26.1065      1.00000
      2     -26.0800      1.00000
      3     -25.3808      1.00000
      4     -25.3482      1.00000
      5     -25.0211      1.00000
      6     -24.9509      1.00000
      7       1.6425      1.00000
      8       1.7462      1.00000
      9       3.3111      1.00000
     10       3.3212      1.00000
     11       5.5830     -0.03571
     12       6.1089     -0.14632
     13       7.9910      0.00000
     14       8.0868      0.00000
     15       8.4659      0.00000
     16       9.2673      0.00000

 k-point    60 :      -0.4286    0.1429    0.4286
  band No.  band energies     occupation 
      1     -26.1360      1.00000
      2     -26.0561      1.00000
      3     -25.4480      1.00000
      4     -25.2739      1.00000
      5     -25.0403      1.00000
      6     -24.9309      1.00000
      7       1.6484      1.00000
      8       1.6998      1.00000
      9       3.1956      1.00000
     10       3.3898      1.00000
     11       5.6367     -0.01870
     12       5.9690     -0.06447
     13       7.7746      0.00000
     14       8.3768      0.00000
     15       8.9059      0.00000
     16       8.9927      0.00000

 k-point    61 :       0.4286    0.2857    0.4286
  band No.  band energies     occupation 
      1     -25.9799      1.00000
      2     -25.9167      1.00000
      3     -25.5196      1.00000
      4     -25.4264      1.00000
      5     -25.1832      1.00000
      6     -25.0639      1.00000
      7       2.5298      1.00000
      8       2.6740      1.00000
      9       3.2270      1.00000
     10       3.4965      1.00000
     11       4.6833      0.89859
     12       4.9357      0.43612
     13       8.3111      0.00000
     14       8.5448      0.00000
     15       8.6071      0.00000
     16       8.9734      0.00000

 k-point    62 :      -0.4286    0.2857    0.4286
  band No.  band energies     occupation 
      1     -25.9535      1.00000
      2     -25.9280      1.00000
      3     -25.5648      1.00000
      4     -25.3735      1.00000
      5     -25.1522      1.00000
      6     -25.1190      1.00000
      7       2.5589      1.00000
      8       2.6841      1.00000
      9       3.2603      1.00000
     10       3.3749      1.00000
     11       4.5424      0.90667
     12       5.1157      0.28309
     13       8.2811      0.00000
     14       8.6526      0.00000
     15       8.6529      0.00000
     16       8.8812      0.00000

 k-point    63 :       0.4286    0.4286    0.4286
  band No.  band energies     occupation 
      1     -25.8329      1.00000
      2     -25.6910      1.00000
      3     -25.6805      1.00000
      4     -25.4186      1.00000
      5     -25.3892      1.00000
      6     -25.2373      1.00000
      7       3.0637      1.00000
      8       3.3665      1.00000
      9       3.4855      1.00000
     10       3.8614      1.00000
     11       4.1132      1.00000
     12       4.1897      1.18297
     13       8.7074      0.00000
     14       8.7509      0.00000
     15       8.8342      0.00000
     16       8.8590      0.00000

 k-point    64 :      -0.4286    0.4286    0.4286
  band No.  band energies     occupation 
      1     -25.7795      1.00000
      2     -25.6875      1.00000
      3     -25.6743      1.00000
      4     -25.4132      1.00000
      5     -25.3895      1.00000
      6     -25.3092      1.00000
      7       3.0221      1.00000
      8       3.4388      1.00000
      9       3.5678      1.00000
     10       3.9497      1.00000
     11       3.9564      1.00000
     12       4.2085      1.06096
     13       8.6805      0.00000
     14       8.7205      0.00000
     15       8.7987      0.00000
     16       8.8586      0.00000


--------------------------------------------------------------------------------------------------------


 soft charge-density along one line, spin component           1
         0         1         2         3         4         5         6         7         8         9
 total charge-density along one line

 soft charge-density along one line, spin component           2
         0         1         2         3         4         5         6         7         8         9
 total charge-density along one line

 pseudopotential strength for first ion, spin component:           1
-28.105  -0.000  -0.000   5.976   0.000   0.000  -0.000  -0.000
 -0.000 -28.107   0.006   0.000   5.977  -0.005  -0.000  -0.000
 -0.000   0.006 -28.107   0.000  -0.005   5.977  -0.000  -0.000
  5.976   0.000   0.000   4.219  -0.000   0.000   0.000   0.000
  0.000   5.977  -0.005  -0.000   4.218   0.003   0.000   0.000
  0.000  -0.005   5.977   0.000   0.003   4.218   0.000   0.000
 -0.000  -0.000  -0.000   0.000   0.000   0.000  -6.357   0.001
 -0.000  -0.000  -0.000   0.000   0.000   0.000   0.001  -6.357
  0.000  -0.000   0.000  -0.000   0.000  -0.000   0.000  -0.000
 -0.000  -0.000  -0.000   0.000   0.000   0.000  -0.000  -0.000
  0.000  -0.000  -0.000  -0.000   0.000   0.000  -0.000   0.000
 -0.000  -0.000  -0.000   0.000   0.000   0.000  -7.214   0.002
 -0.000  -0.000  -0.000   0.000   0.000   0.000   0.002  -7.214
  0.000  -0.000   0.000  -0.000   0.000  -0.000   0.000  -0.000
 -0.000  -0.000  -0.000   0.000   0.000   0.000  -0.000  -0.000
  0.000  -0.000  -0.000  -0.000   0.000   0.000  -0.000   0.000
  0.000   0.000   0.000   0.000  -0.000   0.000   0.000   0.000
 -0.000  -0.000  -0.000  -0.000  -0.000  -0.000  -0.000  -0.000
 pseudopotential strength for first ion, spin component:           2
-28.105  -0.000  -0.000   5.976   0.000   0.000  -0.000  -0.000
 -0.000 -28.107   0.007   0.000   5.977  -0.005  -0.000  -0.000
 -0.000   0.007 -28.107   0.000  -0.005   5.977  -0.000  -0.000
  5.976   0.000   0.000   4.218   0.000   0.000   0.000   0.000
  0.000   5.977  -0.005   0.000   4.218   0.003   0.000   0.000
  0.000  -0.005   5.977   0.000   0.003   4.218   0.000   0.000
 -0.000  -0.000  -0.000   0.000   0.000   0.000  -6.357   0.001
 -0.000  -0.000  -0.000   0.000   0.000   0.000   0.001  -6.357
  0.000  -0.000   0.000  -0.000   0.000  -0.000   0.000  -0.000
 -0.000  -0.000  -0.000   0.000   0.000   0.000  -0.000  -0.000
  0.000  -0.000  -0.000  -0.000   0.000   0.000  -0.000   0.000
 -0.000  -0.000  -0.000   0.000   0.000   0.000  -7.214   0.002
 -0.000  -0.000  -0.000   0.000   0.000   0.000   0.002  -7.214
  0.000  -0.000   0.000  -0.000   0.000  -0.000   0.000  -0.000
 -0.000  -0.000  -0.000   0.000   0.000   0.000  -0.000  -0.000
  0.000  -0.000  -0.000  -0.000   0.000   0.000  -0.000   0.000
  0.000   0.000   0.000   0.000  -0.000   0.000   0.000   0.000
 -0.000  -0.000  -0.000  -0.000  -0.000  -0.000  -0.000  -0.000
 total augmentation occupancy for first ion, spin component:           1
  1.993   0.000   0.000  -0.013  -0.000  -0.000   0.000   0.000   0.000   0.000   0.000   0.000   0.000  -0.000   0.000   0.000
  0.000   1.993   0.000  -0.000  -0.013   0.002  -0.000   0.000   0.000  -0.000  -0.000   0.000   0.000  -0.000  -0.000  -0.000
  0.000   0.000   1.993  -0.000   0.002  -0.013   0.000   0.000   0.000  -0.000  -0.000  -0.000   0.000   0.000  -0.000  -0.000
 -0.013  -0.000  -0.000   0.204   0.000   0.000   0.000   0.000   0.000   0.000   0.000  -0.000   0.000  -0.000   0.000   0.000
 -0.000  -0.013   0.002   0.000   0.203  -0.007   0.000   0.000   0.000   0.000   0.000   0.000   0.000  -0.000  -0.000   0.000
 -0.000   0.002  -0.013   0.000  -0.007   0.203   0.000   0.000   0.000  -0.000   0.000   0.000   0.000   0.000   0.000   0.000
  0.000  -0.000   0.000   0.000  -0.000  -0.000   6.017   0.215  -0.000   0.000   0.000  -3.353  -0.107   0.000  -0.000  -0.000
  0.000   0.000   0.000  -0.000   0.000  -0.000   0.215   6.017   0.000   0.000  -0.000  -0.107  -3.353  -0.000  -0.000   0.000
  0.000   0.000   0.000  -0.000   0.000   0.000  -0.000   0.000   5.630   0.051   0.005   0.000  -0.000  -3.320  -0.037  -0.004
  0.000   0.000   0.000  -0.000  -0.000  -0.000   0.000   0.000   0.051   6.002   0.089  -0.000  -0.000  -0.037  -3.344  -0.065
  0.000  -0.000   0.000   0.000   0.000   0.000   0.000  -0.000   0.005   0.089   5.636  -0.000   0.000  -0.004  -0.064  -3.324
  0.000   0.000  -0.000  -0.000  -0.000   0.000  -3.353  -0.107   0.000  -0.000  -0.000   1.907   0.057  -0.000   0.000  -0.000
  0.000   0.000   0.000  -0.000   0.000   0.000  -0.107  -3.353  -0.000  -0.000   0.000   0.057   1.907   0.000   0.000  -0.000
  0.000   0.000   0.000  -0.000   0.000   0.000   0.000  -0.000  -3.320  -0.037  -0.004  -0.000   0.000   1.976   0.025   0.002
  0.000  -0.000  -0.000   0.000   0.000  -0.000  -0.000  -0.000  -0.037  -3.344  -0.064   0.000   0.000   0.025   1.902   0.044
 -0.000   0.000   0.000   0.000   0.000   0.000  -0.000   0.000  -0.004  -0.065  -3.324  -0.000  -0.000   0.002   0.044   1.979
  0.000  -0.000   0.000   0.000   0.000   0.000   0.000   0.000  -0.002   0.057  -0.003  -0.000   0.000   0.001  -0.026   0.001
 -0.000   0.000   0.000  -0.000   0.000   0.000   0.000  -0.000  -0.000   0.001  -0.000  -0.000   0.000   0.000  -0.001   0.000
 total augmentation occupancy for first ion, spin component:           2
  0.000   0.000   0.000   0.000   0.000   0.000  -0.000   0.000   0.000   0.000   0.000   0.000   0.000   0.000   0.000   0.000
  0.000   0.000   0.000   0.000   0.000   0.000   0.000   0.000   0.000   0.000   0.000   0.000   0.000   0.000   0.000   0.000
  0.000   0.000   0.000   0.000   0.000   0.000   0.000   0.000   0.000   0.000  -0.000   0.000   0.000   0.000  -0.000   0.000
  0.000   0.000   0.000  -0.000  -0.000  -0.000   0.000   0.000   0.000   0.000   0.000   0.000   0.000  -0.000   0.000   0.000
  0.000   0.000   0.000  -0.000  -0.000   0.000   0.000   0.000   0.000   0.000  -0.000   0.000   0.000   0.000   0.000  -0.000
  0.000   0.000   0.000  -0.000   0.000  -0.000   0.000   0.000   0.000   0.000  -0.000   0.000   0.000   0.000   0.000   0.000
  0.000   0.000   0.000   0.000   0.000  -0.000  -0.001   0.001   0.000  -0.000   0.000   0.001  -0.001  -0.000   0.000  -0.000
  0.000   0.000   0.000   0.000   0.000   0.000   0.001  -0.001   0.000  -0.000   0.000  -0.001   0.001  -0.000   0.000  -0.000
  0.000   0.000   0.000   0.000   0.000   0.000   0.000   0.000  -0.007   0.000  -0.000  -0.000  -0.000   0.005  -0.000   0.000
  0.000  -0.000   0.000   0.000   0.000   0.000  -0.000  -0.000   0.000  -0.004   0.001   0.000   0.000  -0.000   0.001  -0.000
  0.000   0.000   0.000   0.000  -0.000   0.000   0.000   0.000  -0.000   0.001  -0.007  -0.000  -0.000   0.000  -0.000   0.005
  0.000   0.000   0.000   0.000   0.000   0.000   0.001  -0.001  -0.000   0.000  -0.000  -0.001   0.000   0.000   0.000   0.000
  0.000   0.000   0.000   0.000   0.000   0.000  -0.001   0.001  -0.000   0.000  -0.000   0.000  -0.001   0.000  -0.000   0.000
  0.000   0.000   0.000   0.000   0.000   0.000  -0.000  -0.000   0.005  -0.000   0.000   0.000   0.000  -0.004   0.000  -0.000
  0.000   0.000   0.000   0.000   0.000   0.000   0.000   0.000  -0.000   0.001  -0.000   0.000  -0.000   0.000  -0.000   0.000
  0.000   0.000   0.000  -0.000  -0.000   0.000  -0.000  -0.000   0.000  -0.000   0.005   0.000   0.000  -0.000   0.000  -0.004
  0.000   0.000   0.000   0.000   0.000   0.000   0.000   0.000  -0.000   0.001  -0.000  -0.000  -0.000   0.000  -0.001   0.000
 -0.000   0.000   0.000   0.000   0.000   0.000  -0.000  -0.000   0.000  -0.000   0.000   0.000   0.000  -0.000   0.000  -0.000


------------------------ aborting loop because EDIFF is reached ----------------------------------------





 total charge

# of ion       s       p       d       tot
------------------------------------------
    1        0.419   6.290   3.087   9.795
    2        0.419   6.290   3.087   9.795
--------------------------------------------------
tot          0.838  12.579   6.173  19.590



 magnetization (x)

# of ion       s       p       d       tot
------------------------------------------
    1       -0.000  -0.000  -0.001  -0.001
    2       -0.000  -0.000  -0.001  -0.001
--------------------------------------------------
tot         -0.000  -0.001  -0.001  -0.002

    CHARGE:  cpu time     30.2331: real time      1.7136
    FORLOC:  cpu time      0.0006: real time      0.0006
    FORNL :  cpu time    134.9619: real time      7.5132
    STRESS:  cpu time    419.4697: real time     23.1034
    FORCOR:  cpu time      1.4351: real time      0.1164
    FORHAR:  cpu time      0.1672: real time      0.0102
    MIXING:  cpu time      0.0029: real time      0.0015
    OFIELD:  cpu time      0.0000: real time      0.0000

  FORCE on cell =-STRESS in cart. coord.  units (eV):
  Direction    XX          YY          ZZ          XY          YZ          ZX
  --------------------------------------------------------------------------------------
  Alpha Z   247.02244   247.02244   247.02244
  Ewald    -636.63118  -635.31479  -636.63118    -0.00000    -0.00000    15.59406
  Hartree    82.07083    82.69858    82.07083    -0.00000    -0.00000     6.05351
  E(xc)     -95.07485   -95.07338   -95.07485    -0.00000     0.00000    -0.00505
  Local     204.24810   202.26790   204.24810     0.00000    -0.00000   -21.21092
  n-local   -88.20159   -84.69064   -81.22599     0.85481    -0.18357    -0.50141
  augment    53.53950    53.55860    53.53950    -0.00000     0.00000     0.05175
  Kinetic   222.43363   229.50669   236.50898     0.13262    -1.10766     0.06582
  Fock        0.00000     0.00000     0.00000     0.00000     0.00000     0.00000
  -------------------------------------------------------------------------------------
  Total      -0.06765    -0.02460    -0.06765     0.00000     0.00000     0.04998
  in kB      -2.95696    -1.07542    -2.95696     0.00000     0.00000     2.18457
  external pressure =       -2.33 kB  Pullay stress =        0.00 kB


 VOLUME and BASIS-vectors are now :
 -----------------------------------------------------------------------------
  energy-cutoff  :      520.00
  volume of cell :       36.65
      direct lattice vectors                 reciprocal lattice vectors
     3.322222359  0.000000000 -0.066444447     0.301123782 -0.000000000  0.006022476
     0.000000000  3.322222359  0.000000000    -0.000000000  0.301003332 -0.000000000
    -0.066444447  0.000000000  3.322222359     0.006022476 -0.000000000  0.301123782

  length of vectors
     3.322886737  3.322222359  3.322886737     0.301184000  0.301003332  0.301184000


 FORCES acting on ions
    electron-ion (+dipol)            ewald-force                    non-local-force                 convergence-correction
 -----------------------------------------------------------------------------------------------
   -.826E-14 -.137E-13 -.167E-13   -.524E-14 -.460E-14 -.304E-14   0.183E-22 0.929E-22 -.161E-21   0.501E-14 -.197E-13 0.369E-13
   -.152E-13 0.151E-11 0.160E-11   0.540E-14 0.714E-14 0.297E-14   -.377E-21 -.114E-21 -.249E-21   0.588E-14 -.546E-13 -.286E-13
 -----------------------------------------------------------------------------------------------
   -.235E-13 0.150E-11 0.158E-11   0.151E-15 0.254E-14 -.641E-16   -.358E-21 -.208E-22 -.409E-21   0.109E-13 -.742E-13 0.830E-14


 POSITION                                       TOTAL-FORCE (eV/Angst)
 -----------------------------------------------------------------------------------
      0.00000      0.00000      0.00000         0.000000     -0.000000      0.000000
      1.62789      1.66111      1.62789        -0.000000      0.000000     -0.000000
 -----------------------------------------------------------------------------------
    total drift:                               -0.000000      0.000000      0.000000


--------------------------------------------------------------------------------------------------------



  FREE ENERGIE OF THE ION-ELECTRON SYSTEM (eV)
  ---------------------------------------------------
  free  energy   TOTEN  =       -20.20338416 eV

  energy  without entropy=      -20.20338416  energy(sigma->0) =      -20.20338416



--------------------------------------------------------------------------------------------------------


    POTLOK:  cpu time      2.8519: real time      0.3917


--------------------------------------------------------------------------------------------------------


     LOOP+:  cpu time  28996.7028: real time   1354.0197
 -----------------------------------------------------------------------------
|                                                                             |
|           W    W    AA    RRRRR   N    N  II  N    N   GGGG   !!!           |
|           W    W   A  A   R    R  NN   N  II  NN   N  G    G  !!!           |
|           W    W  A    A  R    R  N N  N  II  N N  N  G       !!!           |
|           W WW W  AAAAAA  RRRRR   N  N N  II  N  N N  G  GGG   !            |
|           WW  WW  A    A  R   R   N   NN  II  N   NN  G    G                |
|           W    W  A    A  R    R  N    N  II  N    N   GGGG   !!!           |
|                                                                             |
|     Tetrahedron method does not include variations of the Fermi             |
|     occupations, so forces and stress will be inaccurate. We suggest        |
|     using a different smearing scheme ISMEAR = 1 or 2 for metals in         |
|     relaxations.                                                            |
|                                                                             |
 -----------------------------------------------------------------------------

    4ORBIT:  cpu time      0.0000: real time      0.0000



 total charge

# of ion       s       p       d       tot
------------------------------------------
    1        0.419   6.290   3.087   9.795
    2        0.419   6.290   3.087   9.795
--------------------------------------------------
tot          0.838  12.579   6.173  19.590



 magnetization (x)

# of ion       s       p       d       tot
------------------------------------------
    1       -0.000  -0.000  -0.001  -0.001
    2       -0.000  -0.000  -0.001  -0.001
--------------------------------------------------
tot         -0.000  -0.001  -0.001  -0.002

 BZINTS: Fermi energy:    4.859986;   22.000000 electrons
         Band energy:-0.274520E+03;  BLOECHL correction:   -0.204115

 total amount of memory used by VASP MPI-rank0    91171. kBytes
=======================================================================

   base      :      30000. kBytes
   nonlr-proj:       6259. kBytes
   fftplans  :       6192. kBytes
   grid      :      14776. kBytes
   one-center:         62. kBytes
   wavefun   :      33882. kBytes

  
  
 General timing and accounting informations for this job:
 ========================================================
  
                  Total CPU time used (sec):    29051.746
                            User time (sec):    28790.633
                          System time (sec):      261.114
                         Elapsed time (sec):     1357.731
  
                   Maximum memory used (kb):      328704.
                   Average memory used (kb):          N/A
  
                          Minor page faults:      7344550
                          Major page faults:           74
                 Voluntary context switches:      2454878
