 vasp.6.4.1 05Apr23 (build Jul 24 2024 14:19:02) complex                         
 executed on             LinuxGNU date 2024.10.23  13:50:01
 running    1 mpi-ranks, with   24 threads/rank, on    1 nodes
 distrk:  each k-point on    1 cores,    1 groups
 distr:  one band on NCORE=   1 cores,    1 groups


--------------------------------------------------------------------------------------------------------


 INCAR:
   ISTART = 0
   ALGO = Fast
   EDIFF = 0.0001
   ENCUT = 520
   IBRION = -1
   ISIF = 2
   ISMEAR = -5
   ISPIN = 2
   LASPH = True
   LMAXMIX = 6
   LORBIT = 11
   LREAL = Auto
   LWAVE = False
   MAGMOM = 2*0.6
   NELM = 100
   NSW = 0
   PREC = Accurate
   SIGMA = 0.05

 POTCAR:    PAW_PBE Nb_pv 08Apr2002               
 POTCAR:    PAW_PBE Nb_pv 08Apr2002               
   SHA256 =  bac2b60850b34f8515cf56f9feae68b678e347865051052a0e1f5d2c6a691c0a Nb_pv/POTCAR          
   COPYR  = (c) Copyright 08Apr2002 Georg Kresse                                                    
   COPYR  = This file is part of the software VASP. Any use, copying, and all other rights are regul
   COPYR  = If you do not have a valid VASP license, you may not use, copy or distribute this file. 
   VRHFIN =Nb: 4p5s4d                                                                               
   LEXCH  = PE                                                                                      
   EATOM  =  1043.3917 eV,   76.6871 Ry                                                             
                                                                                                    
   TITEL  = PAW_PBE Nb_pv 08Apr2002                                                                 
   LULTRA =        F    use ultrasoft PP ?                                                          
   IUNSCR =        1    unscreen: 0-lin 1-nonlin 2-no                                               
   RPACOR =    2.200    partial core radius                                                         
   POMASS =   92.000; ZVAL   =   11.000    mass and valenz                                          
   RCORE  =    2.750    outmost cutoff radius                                                       
   RWIGS  =    2.840; RWIGS  =    1.503    wigner-seitz radius (au A)                               
   ENMAX  =  208.608; ENMIN  =  156.456 eV                                                          
   RCLOC  =    2.201    cutoff for local pot                                                        
   LCOR   =        T    correct aug charges                                                         
   LPAW   =        T    paw PP                                                                      
   EAUG   =  355.067                                                                                
   DEXC   =    0.000                                                                                
   RMAX   =    2.804    core radius for proj-oper                                                   
   RAUG   =    1.300    factor for augmentation sphere                                              
   RDEP   =    2.776    radius for radial grids                                                     
   RDEPT  =    2.198    core radius for aug-charge                                                  
                                                                                                    
   Atomic configuration                                                                             
   11 entries                                                                                       
     n  l   j            E        occ.                                                              
     1  0  0.50    -18805.2456   2.0000                                                             
     2  0  0.50     -2630.2869   2.0000                                                             
     2  1  1.50     -2348.4045   6.0000                                                             
     3  0  0.50      -438.8756   2.0000                                                             
     3  1  1.50      -346.7587   6.0000                                                             
     3  2  2.50      -196.2559  10.0000                                                             
     4  0  0.50       -58.3859   2.0000                                                             
     4  1  1.50       -34.5141   6.0000                                                             
     4  2  2.50        -3.0408   4.0000                                                             
     5  0  0.50        -3.9816   1.0000                                                             
     4  3  2.50        -1.3606   0.0000                                                             
   Description                                                                                      
     l       E           TYP  RCUT    TYP  RCUT                                                     
     1    -34.5140617     23  2.600                                                                 
     1     -1.3605826     23  2.600                                                                 
     2     -3.0407924     23  2.600                                                                 
     2     -1.4463597     23  2.600                                                                 
     0     -3.9816219     23  2.750                                                                 
     0     20.4087390     23  2.750                                                                 
  local pseudopotential read in
  partial core-charges read in
  partial kinetic energy density read in
  atomic valenz-charges read in
  non local Contribution for L=           1  read in
    real space projection operators read in
  non local Contribution for L=           1  read in
    real space projection operators read in
  non local Contribution for L=           2  read in
    real space projection operators read in
  non local Contribution for L=           2  read in
    real space projection operators read in
  non local Contribution for L=           0  read in
    real space projection operators read in
  non local Contribution for L=           0  read in
    real space projection operators read in
    PAW grid and wavefunctions read in

   number of l-projection  operators is LMAX  =           6
   number of lm-projection operators is LMMAX =          18

 -----------------------------------------------------------------------------
|                                                                             |
|               ----> ADVICE to this user running VASP <----                  |
|                                                                             |
|     You have a (more or less) 'small supercell' and for smaller cells       |
|     it is recommended to use the reciprocal-space projection scheme!        |
|     The real-space optimization is not efficient for small cells and it     |
|     is also less accurate ...                                               |
|     Therefore, set LREAL=.FALSE. in the INCAR file.                         |
|                                                                             |
 -----------------------------------------------------------------------------

 Optimization of the real space projectors (new method)

 maximal supplied QI-value         = 13.61
 optimisation between [QCUT,QGAM] = [ 11.57, 23.27] = [ 37.45,151.59] Ry 
 Optimized for a Real-space Cutoff    1.63 Angstroem

   l    n(q)    QCUT    max X(q) W(low)/X(q) W(high)/X(q)  e(spline) 
   1     11    11.565     4.545    0.12E-04    0.18E-04    0.64E-07
   1     11    11.565     6.014    0.42E-04    0.48E-04    0.13E-06
   2     10    11.565   266.542    0.24E-03    0.87E-04    0.13E-05
   2     10    11.565   232.726    0.24E-03    0.87E-04    0.13E-05
   0     11    11.565    38.050    0.76E-04    0.32E-05    0.94E-06
   0     11    11.565    16.565    0.58E-04    0.25E-05    0.73E-06
  PAW_PBE Nb_pv 08Apr2002               :
 energy of atom  1       EATOM=-1043.3917
 kinetic energy error for atom=    0.0011 (will be added to EATOM!!)


 POSCAR: Generated POSCAR
  positions in direct lattice
  velocities in cartesian coordinates
 exchange correlation table for  LEXCH =        8
   RHO(1)=    0.500       N(1)  =     2000
   RHO(2)=  100.500       N(2)  =     4000



--------------------------------------------------------------------------------------------------------


 ion  position               nearest neighbor table
   1  0.000  0.000  0.000-   2 2.88   2 2.88   2 2.88   2 2.88   2 2.88   2 2.88   2 2.88   2 2.88

   2  0.500  0.500  0.500-   1 2.88   1 2.88   1 2.88   1 2.88   1 2.88   1 2.88   1 2.88   1 2.88


  LATTYP: Found a simple cubic cell.
 ALAT       =     3.3217793369
  
  Lattice vectors:
  
 A1 = (   3.3217793369,   0.0000000000,   0.0000000000)
 A2 = (   0.0000000000,   3.3217793369,   0.0000000000)
 A3 = (   0.0000000000,   0.0000000000,   3.3217793369)


Analysis of symmetry for initial positions (statically):
=====================================================================
 Subroutine PRICEL returns following result:
 
  LATTYP: Found a body centered cubic cell.
 ALAT       =     3.3217793369
  
  Lattice vectors:
  
 A1 = (   1.6608896685,   1.6608896685,  -1.6608896685)
 A2 = (  -1.6608896685,   1.6608896685,   1.6608896685)
 A3 = (   1.6608896685,  -1.6608896685,   1.6608896685)
 
   2 primitive cells build up your supercell.
 

 Routine SETGRP: Setting up the symmetry group for a 
 simple cubic supercell.


 Subroutine GETGRP returns: Found 48 space group operations
 (whereof 48 operations were pure point group operations)
 out of a pool of 48 trial point group operations.


The static configuration has the point symmetry O_h .


Analysis of symmetry for dynamics (positions and initial velocities):
=====================================================================
 Subroutine PRICEL returns following result:
 
  LATTYP: Found a body centered cubic cell.
 ALAT       =     3.3217793369
  
  Lattice vectors:
  
 A1 = (   1.6608896685,   1.6608896685,  -1.6608896685)
 A2 = (  -1.6608896685,   1.6608896685,   1.6608896685)
 A3 = (   1.6608896685,  -1.6608896685,   1.6608896685)
 
   2 primitive cells build up your supercell.
 

 Routine SETGRP: Setting up the symmetry group for a 
 simple cubic supercell.


 Subroutine GETGRP returns: Found 48 space group operations
 (whereof 48 operations were pure point group operations)
 out of a pool of 48 trial point group operations.


The dynamic configuration has the point symmetry O_h .


Analysis of structural, dynamic, and magnetic symmetry:
=====================================================================
 Subroutine PRICEL returns following result:
 
  LATTYP: Found a body centered cubic cell.
 ALAT       =     3.3217793369
  
  Lattice vectors:
  
 A1 = (   1.6608896685,   1.6608896685,  -1.6608896685)
 A2 = (  -1.6608896685,   1.6608896685,   1.6608896685)
 A3 = (   1.6608896685,  -1.6608896685,   1.6608896685)
 
   2 primitive cells build up your supercell.
 

 Routine SETGRP: Setting up the symmetry group for a 
 simple cubic supercell.


 Subroutine GETGRP returns: Found 48 space group operations
 (whereof 48 operations were pure point group operations)
 out of a pool of 48 trial point group operations.


The overall configuration has the point symmetry O_h .


 Subroutine INISYM returns: Found 48 space group operations
 (whereof 48 operations are pure point group operations),
 and found     2 'primitive' translations


----------------------------------------------------------------------------------------

                                     Primitive cell                                     

  volume of cell :      18.3266

  direct lattice vectors                    reciprocal lattice vectors
     1.660889668  1.660889668 -1.660889668     0.301043477  0.301043477 -0.000000000
    -1.660889668  1.660889668  1.660889668    -0.000000000  0.301043477  0.301043477
     1.660889668 -1.660889668  1.660889668     0.301043477 -0.000000000  0.301043477

  length of vectors
     2.876745292  2.876745292  2.876745292     0.425739767  0.425739767  0.425739767

  position of ions in fractional coordinates (direct lattice)
     0.000000000  0.000000000  0.000000000

  ion indices of the primitive-cell ions
   primitive index   ion index
                 1           1

----------------------------------------------------------------------------------------



 KPOINTS: pymatgen with grid density = 869 / numbe

Automatic generation of k-mesh.
 Grid dimensions read from file:
 generate k-points for:    7    7    7

 Generating k-lattice:

  Cartesian coordinates                     Fractional coordinates (reciprocal lattice)
     0.043006211 -0.000000000  0.000000000     0.142857143 -0.000000000  0.000000000
     0.000000000  0.043006211  0.000000000     0.000000000  0.142857143  0.000000000
    -0.000000000 -0.000000000  0.043006211    -0.000000000  0.000000000  0.142857143

  Length of vectors
     0.043006211  0.043006211  0.043006211

  Shift w.r.t. Gamma in fractional coordinates (k-lattice)
     0.000000000  0.000000000  0.000000000

 TETIRR: Found    163 inequivalent tetrahedra from     2058
 
 Subroutine IBZKPT returns following result:
 ===========================================
 
 Found     20 irreducible k-points:
 
 Following reciprocal coordinates:
            Coordinates               Weight
  0.000000  0.000000  0.000000      1.000000
  0.142857  0.000000  0.000000      6.000000
  0.285714  0.000000  0.000000      6.000000
  0.428571  0.000000  0.000000      6.000000
  0.142857  0.142857  0.000000     12.000000
  0.285714  0.142857  0.000000     24.000000
  0.428571  0.142857  0.000000     24.000000
  0.285714  0.285714  0.000000     12.000000
  0.428571  0.285714  0.000000     24.000000
  0.428571  0.428571  0.000000     12.000000
  0.142857  0.142857  0.142857      8.000000
  0.285714  0.142857  0.142857     24.000000
  0.428571  0.142857  0.142857     24.000000
  0.285714  0.285714  0.142857     24.000000
  0.428571  0.285714  0.142857     48.000000
  0.428571  0.428571  0.142857     24.000000
  0.285714  0.285714  0.285714      8.000000
  0.428571  0.285714  0.285714     24.000000
  0.428571  0.428571  0.285714     24.000000
  0.428571  0.428571  0.428571      8.000000
 
 Following cartesian coordinates:
            Coordinates               Weight
  0.000000  0.000000  0.000000      1.000000
  0.043006  0.000000  0.000000      6.000000
  0.086012  0.000000  0.000000      6.000000
  0.129019  0.000000  0.000000      6.000000
  0.043006  0.043006  0.000000     12.000000
  0.086012  0.043006  0.000000     24.000000
  0.129019  0.043006  0.000000     24.000000
  0.086012  0.086012  0.000000     12.000000
  0.129019  0.086012  0.000000     24.000000
  0.129019  0.129019  0.000000     12.000000
  0.043006  0.043006  0.043006      8.000000
  0.086012  0.043006  0.043006     24.000000
  0.129019  0.043006  0.043006     24.000000
  0.086012  0.086012  0.043006     24.000000
  0.129019  0.086012  0.043006     48.000000
  0.129019  0.129019  0.043006     24.000000
  0.086012  0.086012  0.086012      8.000000
  0.129019  0.086012  0.086012     24.000000
  0.129019  0.129019  0.086012     24.000000
  0.129019  0.129019  0.129019      8.000000
 


--------------------------------------------------------------------------------------------------------




 Dimension of arrays:
   k-points           NKPTS =     20   k-points in BZ     NKDIM =     20   number of bands    NBANDS=     16
   number of dos      NEDOS =    301   number of ions     NIONS =      2
   non local maximal  LDIM  =      6   non local SUM 2l+1 LMDIM =     18
   total plane-waves  NPLWV =  21952
   max r-space proj   IRMAX =  10859   max aug-charges    IRDMAX=  37069
   dimension x,y,z NGX =    28 NGY =   28 NGZ =   28
   dimension x,y,z NGXF=    56 NGYF=   56 NGZF=   56
   support grid    NGXF=    56 NGYF=   56 NGZF=   56
   ions per type =               2
   NGX,Y,Z   is equivalent  to a cutoff of  14.01, 14.01, 14.01 a.u.
   NGXF,Y,Z  is equivalent  to a cutoff of  28.03, 28.03, 28.03 a.u.

 SYSTEM =  unknown system                          
 POSCAR =  Generated POSCAR                        

 Startparameter for this run:
   NWRITE =      2    write-flag & timer
   PREC   = accura    normal or accurate (medium, high low for compatibility)
   ISTART =      0    job   : 0-new  1-cont  2-samecut
   ICHARG =      2    charge: 1-file 2-atom 10-const
   ISPIN  =      2    spin polarized calculation?
   LNONCOLLINEAR =      F non collinear calculations
   LSORBIT =      F    spin-orbit coupling
   INIWAV =      1    electr: 0-lowe 1-rand  2-diag
   LASPH  =      T    aspherical Exc in radial PAW
 Electronic Relaxation 1
   ENCUT  =  520.0 eV  38.22 Ry    6.18 a.u.   6.18  6.18  6.18*2*pi/ulx,y,z
   ENINI  =  520.0     initial cutoff
   ENAUG  =  355.1 eV  augmentation charge cutoff
   NELM   =    100;   NELMIN=  2; NELMDL= -5     # of ELM steps 
   EDIFF  = 0.1E-03   stopping-criterion for ELM
   LREAL  =      T    real-space projection
   NLSPLINE    = F    spline interpolate recip. space projectors
   LCOMPAT=      F    compatible to vasp.4.4
   GGA_COMPAT  = T    GGA compatible to vasp.4.4-vasp.4.6
   LMAXPAW     = -100 max onsite density
   LMAXMIX     =    6 max onsite mixed and CHGCAR
   VOSKOWN=      0    Vosko Wilk Nusair interpolation
   ROPT   =   -0.00025
 Ionic relaxation
   EDIFFG = 0.1E-02   stopping-criterion for IOM
   NSW    =      0    number of steps for IOM
   NBLOCK =      1;   KBLOCK =      1    inner block; outer block 
   IBRION =     -1    ionic relax: 0-MD 1-quasi-New 2-CG
   NFREE  =      0    steps in history (QN), initial steepest desc. (CG)
   ISIF   =      2    stress and relaxation
   IWAVPR =     10    prediction:  0-non 1-charg 2-wave 3-comb
   ISYM   =      2    0-nonsym 1-usesym 2-fastsym
   LCORR  =      T    Harris-Foulkes like correction to forces

   POTIM  = 0.5000    time-step for ionic-motion
   TEIN   =    0.0    initial temperature
   TEBEG  =    0.0;   TEEND  =   0.0 temperature during run
   SMASS  =  -3.00    Nose mass-parameter (am)
   estimated Nose-frequenzy (Omega)   =  0.10E-29 period in steps = 0.13E+47 mass=  -0.252E-27a.u.
   SCALEE = 1.0000    scale energy and forces
   NPACO  =    256;   APACO  = 10.0  distance and # of slots for P.C.
   PSTRESS=    0.0 pullay stress

  Mass of Ions in am
   POMASS =  92.00
  Ionic Valenz
   ZVAL   =  11.00
  Atomic Wigner-Seitz radii
   RWIGS  =  -1.00
  virtual crystal weights 
   VCA    =   1.00
   NELECT =      22.0000    total number of electrons
   NUPDOWN=      -1.0000    fix difference up-down

 DOS related values:
   EMIN   =  10.00;   EMAX   =-10.00  energy-range for DOS
   EFERMI =   0.00;   METHOD = LEGACY      
   ISMEAR =    -5;   SIGMA  =   0.05  broadening in eV -4-tet -1-fermi 0-gaus

 Electronic relaxation 2 (details)
   IALGO  =     68    algorithm
   LDIAG  =      T    sub-space diagonalisation (order eigenvalues)
   LSUBROT=      F    optimize rotation matrix (better conditioning)
   TURBO    =      0    0=normal 1=particle mesh
   IRESTART =      0    0=no restart 2=restart with 2 vectors
   NREBOOT  =      0    no. of reboots
   NMIN     =      0    reboot dimension
   EREF     =   0.00    reference energy to select bands
   IMIX   =      4    mixing-type and parameters
     AMIX     =   0.40;   BMIX     =  1.00
     AMIX_MAG =   1.60;   BMIX_MAG =  1.00
     AMIN     =   0.10
     WC   =   100.;   INIMIX=   1;  MIXPRE=   1;  MAXMIX= -45

 Intra band minimization:
   WEIMIN = 0.0000     energy-eigenvalue tresh-hold
   EBREAK =  0.16E-05  absolut break condition
   DEPER  =   0.30     relativ break condition  

   TIME   =   0.40     timestep for ELM

  volume/ion in A,a.u.               =      18.33       123.67
  Fermi-wavevector in a.u.,A,eV,Ry     =   1.380951  2.609619 25.946661  1.907026
  Thomas-Fermi vector in A             =   2.505781

 Write flags
   LWAVE        =      F    write WAVECAR
   LDOWNSAMPLE  =      F    k-point downsampling of WAVECAR
   LCHARG       =      T    write CHGCAR
   LVTOT        =      F    write LOCPOT, total local potential
   LVHAR        =      F    write LOCPOT, Hartree potential only
   LELF         =      F    write electronic localiz. function (ELF)
   LORBIT       =     11    0 simple, 1 ext, 2 COOP (PROOUT), +10 PAW based schemes


 Dipole corrections
   LMONO  =      F    monopole corrections only (constant potential shift)
   LDIPOL =      F    correct potential (dipole corrections)
   IDIPOL =      0    1-x, 2-y, 3-z, 4-all directions 
   EPSILON=  1.0000000 bulk dielectric constant

 Exchange correlation treatment:
   GGA     =    --    GGA type
   LEXCH   =     8    internal setting for exchange type
   LIBXC   =     F    Libxc                    
   VOSKOWN =     0    Vosko Wilk Nusair interpolation
   LHFCALC =     F    Hartree Fock is set to
   LHFONE  =     F    Hartree Fock one center treatment
   AEXX    =    0.0000 exact exchange contribution

 Linear response parameters
   LEPSILON=     F    determine dielectric tensor
   LRPA    =     F    only Hartree local field effects (RPA)
   LNABLA  =     F    use nabla operator in PAW spheres
   LVEL    =     F    velocity operator in full k-point grid
   CSHIFT  =0.1000    complex shift for real part using Kramers Kronig
   OMEGAMAX=  -1.0    maximum frequency
   DEG_THRESHOLD= 0.2000000E-02 threshold for treating states as degnerate
   RTIME   =   -0.100 relaxation time in fs
  (WPLASMAI=    0.000 imaginary part of plasma frequency in eV, 0.658/RTIME)
   DFIELD  = 0.0000000 0.0000000 0.0000000 field for delta impulse in time

  Optional k-point grid parameters
   LKPOINTS_OPT  =     F    use optional k-point grid
   KPOINTS_OPT_MODE=     1    mode for optional k-point grid

 Orbital magnetization related:
   ORBITALMAG=     F  switch on orbital magnetization
   LCHIMAG   =     F  perturbation theory with respect to B field
   DQ        =  0.001000  dq finite difference perturbation B field
   LLRAUG    =     F  two centre corrections for induced B field
   LBONE     =     F  B-component reconstruction in AE one-centre
   LVGVCALC  =     T  calculate vGv susceptibility
   LVGVAPPL  =     F  apply vGv susceptibility instead of pGv for G=0

 Random number generation:
   RANDOM_GENERATOR = DEFAULT
   PCG_SEED         = not used


--------------------------------------------------------------------------------------------------------


 Static calculation
 charge density and potential will be updated during run
 spin polarized calculation
 RMM-DIIS sequential band-by-band and
  variant of blocked Davidson during initial phase
 perform sub-space diagonalisation
    before iterative eigenvector-optimisation
 modified Broyden-mixing scheme, WC =      100.0
 initial mixing is a Kerker type mixing with AMIX =  0.4000 and BMIX =      1.0000
 Hartree-type preconditioning will be used
 using additional bands            5
 real space projection scheme for non local part
 use partial core corrections
 calculate Harris-corrections to forces   (improved forces if not selfconsistent)
 use gradient corrections 
 use of overlap-Matrix (Vanderbilt PP)
 Fermi weights with tetrahedron method with Bloechl corrections


--------------------------------------------------------------------------------------------------------


  energy-cutoff  :      520.00
  volume of cell :       36.65
      direct lattice vectors                 reciprocal lattice vectors
     3.321779337  0.000000000  0.000000000     0.301043477 -0.000000000  0.000000000
     0.000000000  3.321779337  0.000000000     0.000000000  0.301043477  0.000000000
     0.000000000  0.000000000  3.321779337    -0.000000000 -0.000000000  0.301043477

  length of vectors
     3.321779337  3.321779337  3.321779337     0.301043477  0.301043477  0.301043477



 k-points in units of 2pi/SCALE and weight: pymatgen with grid density = 869 / numbe
   0.00000000  0.00000000  0.00000000       0.003
   0.04300621  0.00000000  0.00000000       0.017
   0.08601242  0.00000000  0.00000000       0.017
   0.12901863  0.00000000  0.00000000       0.017
   0.04300621  0.04300621  0.00000000       0.035
   0.08601242  0.04300621  0.00000000       0.070
   0.12901863  0.04300621  0.00000000       0.070
   0.08601242  0.08601242  0.00000000       0.035
   0.12901863  0.08601242  0.00000000       0.070
   0.12901863  0.12901863  0.00000000       0.035
   0.04300621  0.04300621  0.04300621       0.023
   0.08601242  0.04300621  0.04300621       0.070
   0.12901863  0.04300621  0.04300621       0.070
   0.08601242  0.08601242  0.04300621       0.070
   0.12901863  0.08601242  0.04300621       0.140
   0.12901863  0.12901863  0.04300621       0.070
   0.08601242  0.08601242  0.08601242       0.023
   0.12901863  0.08601242  0.08601242       0.070
   0.12901863  0.12901863  0.08601242       0.070
   0.12901863  0.12901863  0.12901863       0.023

 k-points in reciprocal lattice and weights: pymatgen with grid density = 869 / numbe
   0.00000000  0.00000000  0.00000000       0.003
   0.14285714  0.00000000  0.00000000       0.017
   0.28571429  0.00000000  0.00000000       0.017
   0.42857143  0.00000000  0.00000000       0.017
   0.14285714  0.14285714  0.00000000       0.035
   0.28571429  0.14285714  0.00000000       0.070
   0.42857143  0.14285714  0.00000000       0.070
   0.28571429  0.28571429  0.00000000       0.035
   0.42857143  0.28571429  0.00000000       0.070
   0.42857143  0.42857143  0.00000000       0.035
   0.14285714  0.14285714  0.14285714       0.023
   0.28571429  0.14285714  0.14285714       0.070
   0.42857143  0.14285714  0.14285714       0.070
   0.28571429  0.28571429  0.14285714       0.070
   0.42857143  0.28571429  0.14285714       0.140
   0.42857143  0.42857143  0.14285714       0.070
   0.28571429  0.28571429  0.28571429       0.023
   0.42857143  0.28571429  0.28571429       0.070
   0.42857143  0.42857143  0.28571429       0.070
   0.42857143  0.42857143  0.42857143       0.023

 position of ions in fractional coordinates (direct lattice) 
   0.00000000  0.00000000  0.00000000
   0.50000000  0.50000000  0.50000000

 position of ions in cartesian coordinates  (Angst):
   0.00000000  0.00000000  0.00000000
   1.66088967  1.66088967  1.66088967



--------------------------------------------------------------------------------------------------------


 k-point   1 :   0.0000 0.0000 0.0000  plane waves:    1021
 k-point   2 :   0.1429 0.0000 0.0000  plane waves:     981
 k-point   3 :   0.2857 0.0000 0.0000  plane waves:     984
 k-point   4 :   0.4286 0.0000 0.0000  plane waves:     996
 k-point   5 :   0.1429 0.1429 0.0000  plane waves:     979
 k-point   6 :   0.2857 0.1429 0.0000  plane waves:     983
 k-point   7 :   0.4286 0.1429 0.0000  plane waves:     987
 k-point   8 :   0.2857 0.2857 0.0000  plane waves:     981
 k-point   9 :   0.4286 0.2857 0.0000  plane waves:     982
 k-point  10 :   0.4286 0.4286 0.0000  plane waves:     994
 k-point  11 :   0.1429 0.1429 0.1429  plane waves:     985
 k-point  12 :   0.2857 0.1429 0.1429  plane waves:     988
 k-point  13 :   0.4286 0.1429 0.1429  plane waves:     990
 k-point  14 :   0.2857 0.2857 0.1429  plane waves:     990
 k-point  15 :   0.4286 0.2857 0.1429  plane waves:     992
 k-point  16 :   0.4286 0.4286 0.1429  plane waves:     987
 k-point  17 :   0.2857 0.2857 0.2857  plane waves:     979
 k-point  18 :   0.4286 0.2857 0.2857  plane waves:     990
 k-point  19 :   0.4286 0.4286 0.2857  plane waves:     987
 k-point  20 :   0.4286 0.4286 0.4286  plane waves:     997

 maximum and minimum number of plane-waves per node :      1021      979

 maximum number of plane-waves:      1021
 maximum index in each direction: 
   IXMAX=    6   IYMAX=    6   IZMAX=    6
   IXMIN=   -6   IYMIN=   -6   IZMIN=   -6


 serial   3D FFT for wavefunctions
 parallel 3D FFT for charge:
    minimum data exchange during FFTs selected (reduces bandwidth)


 total amount of memory used by VASP MPI-rank0    68119. kBytes
=======================================================================

   base      :      30000. kBytes
   nonlr-proj:       6266. kBytes
   fftplans  :       6192. kBytes
   grid      :      14776. kBytes
   one-center:         62. kBytes
   wavefun   :      10823. kBytes

     INWAV:  cpu time      0.0010: real time      0.0001
 Broyden mixing: mesh for mixing (old mesh)
   NGX = 13   NGY = 13   NGZ = 13
  (NGX  = 56   NGY  = 56   NGZ  = 56)
  gives a total of   2197 points

 initial charge density was supplied:
 charge density of overlapping atoms calculated
 number of electron      22.0000000 magnetization       1.2000000
 keeping initial charge density in first step


--------------------------------------------------------------------------------------------------------


 Maximum index for non-local projection operator         1138
 Maximum index for augmentation-charges        35729 (set IRDMAX)


--------------------------------------------------------------------------------------------------------


 First call to EWALD:  gamma=   0.534
 Maximum number of real-space cells 3x 3x 3
 Maximum number of reciprocal cells 3x 3x 3

    FEWALD:  cpu time      0.1153: real time      0.0070


--------------------------------------- Ionic step        1  -------------------------------------------




--------------------------------------- Iteration      1(   1)  ---------------------------------------


    POTLOK:  cpu time      1.6182: real time      0.1236
    SETDIJ:  cpu time      1.2235: real time      0.2635
     EDDAV:  cpu time    113.8669: real time      6.3229
 BZINTS: Fermi energy:   23.973314;   22.000000 electrons
         Band energy:-0.292725E+02;  BLOECHL correction:   -0.513251
       DOS:  cpu time      0.1140: real time      0.0088
    --------------------------------------------
      LOOP:  cpu time    116.8226: real time      6.7187

 eigenvalue-minimisations  :  1352
 total energy-change (2. order) : 0.2007528E+03  (-0.1154371E+04)
 number of electron      22.0000000 magnetization       1.2000000
 augmentation part       22.0000000 magnetization       1.2000000

 Free energy of the ion-electron system (eV)
  ---------------------------------------------------
  alpha Z        PSCENC =       247.02244180
  Ewald energy   TEWEN  =     -1908.88859081
  -Hartree energ DENC   =      -279.41563334
  -exchange      EXHF   =         0.00000000
  -V(xc)+E(xc)   XCENC  =        52.61727354
  PAW double counting   =      1671.32378679    -1639.41528309
  entropy T*S    EENTRO =         0.00000000
  eigenvalues    EBANDS =       -29.27247870
  atomic energy  EATOM  =      2086.78124273
  Solvation  Ediel_sol  =         0.00000000
  ---------------------------------------------------
  free energy    TOTEN  =       200.75275891 eV

  energy without entropy =      200.75275891  energy(sigma->0) =      200.75275891


--------------------------------------------------------------------------------------------------------




--------------------------------------- Iteration      1(   2)  ---------------------------------------


     EDDAV:  cpu time     99.2362: real time      5.6926
 BZINTS: Fermi energy:    7.301043;   22.000000 electrons
         Band energy:-0.240432E+03;  BLOECHL correction:   -0.251582
       DOS:  cpu time      0.1300: real time      0.0106
    --------------------------------------------
      LOOP:  cpu time     99.3662: real time      5.7032

 eigenvalue-minimisations  :  1344
 total energy-change (2. order) :-0.2111594E+03  (-0.2091251E+03)
 number of electron      22.0000000 magnetization       1.2000000
 augmentation part       22.0000000 magnetization       1.2000000

 Free energy of the ion-electron system (eV)
  ---------------------------------------------------
  alpha Z        PSCENC =       247.02244180
  Ewald energy   TEWEN  =     -1908.88859081
  -Hartree energ DENC   =      -279.41563334
  -exchange      EXHF   =         0.00000000
  -V(xc)+E(xc)   XCENC  =        52.61727354
  PAW double counting   =      1671.32378679    -1639.41528309
  entropy T*S    EENTRO =         0.00000000
  eigenvalues    EBANDS =      -240.43187876
  atomic energy  EATOM  =      2086.78124273
  Solvation  Ediel_sol  =         0.00000000
  ---------------------------------------------------
  free energy    TOTEN  =       -10.40664114 eV

  energy without entropy =      -10.40664114  energy(sigma->0) =      -10.40664114


--------------------------------------------------------------------------------------------------------




--------------------------------------- Iteration      1(   3)  ---------------------------------------


     EDDAV:  cpu time    139.9553: real time      8.1019
 BZINTS: Fermi energy:    5.479561;   22.000000 electrons
         Band energy:-0.251027E+03;  BLOECHL correction:   -0.223091
       DOS:  cpu time      0.1724: real time      0.0189
    --------------------------------------------
      LOOP:  cpu time    140.1277: real time      8.1208

 eigenvalue-minimisations  :  2136
 total energy-change (2. order) :-0.1059539E+02  (-0.9882446E+01)
 number of electron      22.0000000 magnetization       1.2000000
 augmentation part       22.0000000 magnetization       1.2000000

 Free energy of the ion-electron system (eV)
  ---------------------------------------------------
  alpha Z        PSCENC =       247.02244180
  Ewald energy   TEWEN  =     -1908.88859081
  -Hartree energ DENC   =      -279.41563334
  -exchange      EXHF   =         0.00000000
  -V(xc)+E(xc)   XCENC  =        52.61727354
  PAW double counting   =      1671.32378679    -1639.41528309
  entropy T*S    EENTRO =         0.00000000
  eigenvalues    EBANDS =      -251.02726547
  atomic energy  EATOM  =      2086.78124273
  Solvation  Ediel_sol  =         0.00000000
  ---------------------------------------------------
  free energy    TOTEN  =       -21.00202785 eV

  energy without entropy =      -21.00202785  energy(sigma->0) =      -21.00202785


--------------------------------------------------------------------------------------------------------




--------------------------------------- Iteration      1(   4)  ---------------------------------------


     EDDAV:  cpu time    108.3202: real time      6.2347
 BZINTS: Fermi energy:    5.444529;   22.000000 electrons
         Band energy:-0.251175E+03;  BLOECHL correction:   -0.211034
       DOS:  cpu time      0.1175: real time      0.0088
    --------------------------------------------
      LOOP:  cpu time    108.4377: real time      6.2434

 eigenvalue-minimisations  :  1528
 total energy-change (2. order) :-0.1472488E+00  (-0.1420991E+00)
 number of electron      22.0000000 magnetization       1.2000000
 augmentation part       22.0000000 magnetization       1.2000000

 Free energy of the ion-electron system (eV)
  ---------------------------------------------------
  alpha Z        PSCENC =       247.02244180
  Ewald energy   TEWEN  =     -1908.88859081
  -Hartree energ DENC   =      -279.41563334
  -exchange      EXHF   =         0.00000000
  -V(xc)+E(xc)   XCENC  =        52.61727354
  PAW double counting   =      1671.32378679    -1639.41528309
  entropy T*S    EENTRO =         0.00000000
  eigenvalues    EBANDS =      -251.17451428
  atomic energy  EATOM  =      2086.78124273
  Solvation  Ediel_sol  =         0.00000000
  ---------------------------------------------------
  free energy    TOTEN  =       -21.14927666 eV

  energy without entropy =      -21.14927666  energy(sigma->0) =      -21.14927666


--------------------------------------------------------------------------------------------------------




--------------------------------------- Iteration      1(   5)  ---------------------------------------


     EDDAV:  cpu time    136.5866: real time      7.8395
 BZINTS: Fermi energy:    5.443443;   22.000000 electrons
         Band energy:-0.251178E+03;  BLOECHL correction:   -0.210559
       DOS:  cpu time      0.1143: real time      0.0092
    CHARGE:  cpu time      8.0320: real time      0.4652
    MIXING:  cpu time      0.0016: real time      0.0016
    --------------------------------------------
      LOOP:  cpu time    144.7345: real time      8.3156

 eigenvalue-minimisations  :  2016
 total energy-change (2. order) :-0.3754953E-02  (-0.3751488E-02)
 number of electron      22.0000001 magnetization       0.3421580
 augmentation part        7.7576658 magnetization      -0.0594445

 Broyden mixing:
  rms(total) = 0.24000E+01    rms(broyden)= 0.24000E+01
  rms(prec ) = 0.28256E+01
  weight for this iteration     100.00

 Free energy of the ion-electron system (eV)
  ---------------------------------------------------
  alpha Z        PSCENC =       247.02244180
  Ewald energy   TEWEN  =     -1908.88859081
  -Hartree energ DENC   =      -279.41563334
  -exchange      EXHF   =         0.00000000
  -V(xc)+E(xc)   XCENC  =        52.61727354
  PAW double counting   =      1671.32378679    -1639.41528309
  entropy T*S    EENTRO =         0.00000000
  eigenvalues    EBANDS =      -251.17826923
  atomic energy  EATOM  =      2086.78124273
  Solvation  Ediel_sol  =         0.00000000
  ---------------------------------------------------
  free energy    TOTEN  =       -21.15303162 eV

  energy without entropy =      -21.15303162  energy(sigma->0) =      -21.15303162


--------------------------------------------------------------------------------------------------------




--------------------------------------- Iteration      1(   6)  ---------------------------------------


    POTLOK:  cpu time      1.5014: real time      0.1274
    SETDIJ:  cpu time      1.1744: real time      0.2541
    EDDIAG:  cpu time     23.1433: real time      1.3378
  RMM-DIIS:  cpu time     69.9988: real time      3.8795
    ORTHCH:  cpu time      0.3226: real time      0.0208
 BZINTS: Fermi energy:    5.091991;   22.000000 electrons
         Band energy:-0.265222E+03;  BLOECHL correction:   -0.212970
       DOS:  cpu time      0.1219: real time      0.0104
    CHARGE:  cpu time      7.7267: real time      0.4422
    MIXING:  cpu time      0.0016: real time      0.0016
    --------------------------------------------
      LOOP:  cpu time    103.9908: real time      6.0739

 eigenvalue-minimisations  :  1394
 total energy-change (2. order) : 0.8039021E+00  (-0.8005696E-01)
 number of electron      22.0000001 magnetization       0.1458806
 augmentation part        7.8846166 magnetization      -0.0607600

 Broyden mixing:
  rms(total) = 0.91189E+00    rms(broyden)= 0.91189E+00
  rms(prec ) = 0.11953E+01
  weight for this iteration     100.00

 eigenvalues of (default mixing * dielectric matrix)
  average eigenvalue GAMMA=   1.5000
  1.5000

 Free energy of the ion-electron system (eV)
  ---------------------------------------------------
  alpha Z        PSCENC =       247.02244180
  Ewald energy   TEWEN  =     -1908.88859081
  -Hartree energ DENC   =      -260.05935161
  -exchange      EXHF   =         0.00000000
  -V(xc)+E(xc)   XCENC  =        51.60175025
  PAW double counting   =      2186.66774425    -2158.25255140
  entropy T*S    EENTRO =         0.00000000
  eigenvalues    EBANDS =      -265.22181475
  atomic energy  EATOM  =      2086.78124273
  Solvation  Ediel_sol  =         0.00000000
  ---------------------------------------------------
  free energy    TOTEN  =       -20.34912953 eV

  energy without entropy =      -20.34912953  energy(sigma->0) =      -20.34912953


--------------------------------------------------------------------------------------------------------




--------------------------------------- Iteration      1(   7)  ---------------------------------------


    POTLOK:  cpu time      1.1209: real time      0.0998
    SETDIJ:  cpu time      1.0450: real time      0.2557
    EDDIAG:  cpu time     21.1512: real time      1.2225
  RMM-DIIS:  cpu time     78.3974: real time      4.4381
    ORTHCH:  cpu time      0.7182: real time      0.0380
 BZINTS: Fermi energy:    4.798864;   22.000000 electrons
         Band energy:-0.277004E+03;  BLOECHL correction:   -0.210565
       DOS:  cpu time      0.1263: real time      0.0118
    CHARGE:  cpu time      6.6589: real time      0.3956
    MIXING:  cpu time      0.0014: real time      0.0014
    --------------------------------------------
      LOOP:  cpu time    109.2194: real time      6.4630

 eigenvalue-minimisations  :  1738
 total energy-change (2. order) : 0.1475812E+00  (-0.2156837E+00)
 number of electron      22.0000001 magnetization       0.0269759
 augmentation part        8.0568028 magnetization       0.0325470

 Broyden mixing:
  rms(total) = 0.24315E+00    rms(broyden)= 0.24315E+00
  rms(prec ) = 0.26132E+00
  weight for this iteration     100.00

 eigenvalues of (default mixing * dielectric matrix)
  average eigenvalue GAMMA=   1.0763
  1.6160  0.5366

 Free energy of the ion-electron system (eV)
  ---------------------------------------------------
  alpha Z        PSCENC =       247.02244180
  Ewald energy   TEWEN  =     -1908.88859081
  -Hartree energ DENC   =      -244.33103619
  -exchange      EXHF   =         0.00000000
  -V(xc)+E(xc)   XCENC  =        50.82001659
  PAW double counting   =      2616.72974973    -2591.33112621
  entropy T*S    EENTRO =         0.00000000
  eigenvalues    EBANDS =      -277.00424594
  atomic energy  EATOM  =      2086.78124273
  Solvation  Ediel_sol  =         0.00000000
  ---------------------------------------------------
  free energy    TOTEN  =       -20.20154831 eV

  energy without entropy =      -20.20154831  energy(sigma->0) =      -20.20154831


--------------------------------------------------------------------------------------------------------




--------------------------------------- Iteration      1(   8)  ---------------------------------------


    POTLOK:  cpu time      1.4286: real time      0.1237
    SETDIJ:  cpu time      1.0509: real time      0.2492
    EDDIAG:  cpu time     22.6895: real time      1.3055
  RMM-DIIS:  cpu time     90.9568: real time      5.0866
    ORTHCH:  cpu time      0.3106: real time      0.0204
 BZINTS: Fermi energy:    4.809735;   22.000000 electrons
         Band energy:-0.276470E+03;  BLOECHL correction:   -0.210644
       DOS:  cpu time      0.0149: real time      0.0088
    CHARGE:  cpu time      6.7705: real time      0.4006
    MIXING:  cpu time      0.0998: real time      0.0014
    --------------------------------------------
      LOOP:  cpu time    123.3218: real time      7.1963

 eigenvalue-minimisations  :  1829
 total energy-change (2. order) :-0.1148054E-01  (-0.1078494E-01)
 number of electron      22.0000001 magnetization       0.0159701
 augmentation part        8.0635412 magnetization       0.0133047

 Broyden mixing:
  rms(total) = 0.11853E+00    rms(broyden)= 0.11853E+00
  rms(prec ) = 0.14615E+00
  weight for this iteration     100.00

 eigenvalues of (default mixing * dielectric matrix)
  average eigenvalue GAMMA=   1.0685
  1.8348  0.6854  0.6854

 Free energy of the ion-electron system (eV)
  ---------------------------------------------------
  alpha Z        PSCENC =       247.02244180
  Ewald energy   TEWEN  =     -1908.88859081
  -Hartree energ DENC   =      -244.66328637
  -exchange      EXHF   =         0.00000000
  -V(xc)+E(xc)   XCENC  =        50.82968501
  PAW double counting   =      2664.99560707    -2639.81967138
  entropy T*S    EENTRO =         0.00000000
  eigenvalues    EBANDS =      -276.47045690
  atomic energy  EATOM  =      2086.78124273
  Solvation  Ediel_sol  =         0.00000000
  ---------------------------------------------------
  free energy    TOTEN  =       -20.21302885 eV

  energy without entropy =      -20.21302885  energy(sigma->0) =      -20.21302885


--------------------------------------------------------------------------------------------------------




--------------------------------------- Iteration      1(   9)  ---------------------------------------


    POTLOK:  cpu time      1.5300: real time      0.1224
    SETDIJ:  cpu time      1.1256: real time      0.2497
    EDDIAG:  cpu time     24.2776: real time      1.3976
  RMM-DIIS:  cpu time     80.9767: real time      4.5847
    ORTHCH:  cpu time      0.4649: real time      0.0270
 BZINTS: Fermi energy:    4.818437;   22.000000 electrons
         Band energy:-0.276061E+03;  BLOECHL correction:   -0.210767
       DOS:  cpu time      0.1202: real time      0.0121
    CHARGE:  cpu time      6.5972: real time      0.3963
    MIXING:  cpu time      0.0019: real time      0.0019
    --------------------------------------------
      LOOP:  cpu time    115.0943: real time      6.7917

 eigenvalue-minimisations  :  1824
 total energy-change (2. order) : 0.3451562E-04  (-0.2456349E-02)
 number of electron      22.0000001 magnetization       0.0158619
 augmentation part        8.0640410 magnetization       0.0165998

 Broyden mixing:
  rms(total) = 0.94631E-01    rms(broyden)= 0.94631E-01
  rms(prec ) = 0.12140E+00
  weight for this iteration     100.00

 eigenvalues of (default mixing * dielectric matrix)
  average eigenvalue GAMMA=   1.0940
  2.0867  0.8411  0.8411  0.6070

 Free energy of the ion-electron system (eV)
  ---------------------------------------------------
  alpha Z        PSCENC =       247.02244180
  Ewald energy   TEWEN  =     -1908.88859081
  -Hartree energ DENC   =      -245.01159557
  -exchange      EXHF   =         0.00000000
  -V(xc)+E(xc)   XCENC  =        50.84584451
  PAW double counting   =      2705.35766657    -2680.25934885
  entropy T*S    EENTRO =         0.00000000
  eigenvalues    EBANDS =      -276.06065473
  atomic energy  EATOM  =      2086.78124273
  Solvation  Ediel_sol  =         0.00000000
  ---------------------------------------------------
  free energy    TOTEN  =       -20.21299434 eV

  energy without entropy =      -20.21299434  energy(sigma->0) =      -20.21299434


--------------------------------------------------------------------------------------------------------




--------------------------------------- Iteration      1(  10)  ---------------------------------------


    POTLOK:  cpu time      1.6485: real time      0.1338
    SETDIJ:  cpu time      1.0945: real time      0.2472
    EDDIAG:  cpu time     23.0589: real time      1.3157
  RMM-DIIS:  cpu time     69.9775: real time      3.9630
    ORTHCH:  cpu time      0.3178: real time      0.0198
 BZINTS: Fermi energy:    4.840622;   22.000000 electrons
         Band energy:-0.275075E+03;  BLOECHL correction:   -0.211126
       DOS:  cpu time      0.1254: real time      0.0139
    CHARGE:  cpu time      8.0163: real time      0.4648
    MIXING:  cpu time      0.0017: real time      0.0017
    --------------------------------------------
      LOOP:  cpu time    104.2406: real time      6.1599

 eigenvalue-minimisations  :  1458
 total energy-change (2. order) : 0.3393881E-02  (-0.6219928E-03)
 number of electron      22.0000001 magnetization      -0.0063527
 augmentation part        8.0554035 magnetization      -0.0017437

 Broyden mixing:
  rms(total) = 0.68481E-01    rms(broyden)= 0.68481E-01
  rms(prec ) = 0.75207E-01
  weight for this iteration     100.00

 eigenvalues of (default mixing * dielectric matrix)
  average eigenvalue GAMMA=   1.3557
  2.6687  1.3588  1.3588  0.6338  0.7584

 Free energy of the ion-electron system (eV)
  ---------------------------------------------------
  alpha Z        PSCENC =       247.02244180
  Ewald energy   TEWEN  =     -1908.88859081
  -Hartree energ DENC   =      -245.98022652
  -exchange      EXHF   =         0.00000000
  -V(xc)+E(xc)   XCENC  =        50.89204002
  PAW double counting   =      2782.66905991    -2757.63059708
  entropy T*S    EENTRO =         0.00000000
  eigenvalues    EBANDS =      -275.07497050
  atomic energy  EATOM  =      2086.78124273
  Solvation  Ediel_sol  =         0.00000000
  ---------------------------------------------------
  free energy    TOTEN  =       -20.20960045 eV

  energy without entropy =      -20.20960045  energy(sigma->0) =      -20.20960045


--------------------------------------------------------------------------------------------------------




--------------------------------------- Iteration      1(  11)  ---------------------------------------


    POTLOK:  cpu time      1.8806: real time      0.1367
    SETDIJ:  cpu time      1.1720: real time      0.2508
    EDDIAG:  cpu time     22.4884: real time      1.3239
  RMM-DIIS:  cpu time     77.5704: real time      4.3471
    ORTHCH:  cpu time      0.3670: real time      0.0258
 BZINTS: Fermi energy:    4.851393;   22.000000 electrons
         Band energy:-0.274586E+03;  BLOECHL correction:   -0.211283
       DOS:  cpu time      0.1350: real time      0.0093
    CHARGE:  cpu time      7.5604: real time      0.4425
    MIXING:  cpu time      0.0858: real time      0.0016
    --------------------------------------------
      LOOP:  cpu time    111.2596: real time      6.5378

 eigenvalue-minimisations  :  1680
 total energy-change (2. order) :-0.1388379E-03  (-0.5193370E-03)
 number of electron      22.0000001 magnetization      -0.0047625
 augmentation part        8.0491217 magnetization      -0.0003299

 Broyden mixing:
  rms(total) = 0.43506E-02    rms(broyden)= 0.43506E-02
  rms(prec ) = 0.52174E-02
  weight for this iteration     100.00

 eigenvalues of (default mixing * dielectric matrix)
  average eigenvalue GAMMA=   1.2730
  2.5970  1.4567  1.4567  0.7819  0.7187  0.6274

 Free energy of the ion-electron system (eV)
  ---------------------------------------------------
  alpha Z        PSCENC =       247.02244180
  Ewald energy   TEWEN  =     -1908.88859081
  -Hartree energ DENC   =      -246.40917961
  -exchange      EXHF   =         0.00000000
  -V(xc)+E(xc)   XCENC  =        50.91218065
  PAW double counting   =      2860.04717259    -2835.08891889
  entropy T*S    EENTRO =         0.00000000
  eigenvalues    EBANDS =      -274.58608775
  atomic energy  EATOM  =      2086.78124273
  Solvation  Ediel_sol  =         0.00000000
  ---------------------------------------------------
  free energy    TOTEN  =       -20.20973929 eV

  energy without entropy =      -20.20973929  energy(sigma->0) =      -20.20973929


--------------------------------------------------------------------------------------------------------




--------------------------------------- Iteration      1(  12)  ---------------------------------------


    POTLOK:  cpu time      2.3395: real time      0.1637
    SETDIJ:  cpu time      1.0879: real time      0.2498
    EDDIAG:  cpu time     24.3219: real time      1.3790
  RMM-DIIS:  cpu time     54.9165: real time      3.1455
    ORTHCH:  cpu time      0.5594: real time      0.0299
 BZINTS: Fermi energy:    4.851709;   22.000000 electrons
         Band energy:-0.274573E+03;  BLOECHL correction:   -0.211292
       DOS:  cpu time      0.2112: real time      0.0124
    --------------------------------------------
      LOOP:  cpu time     83.4364: real time      4.9803

 eigenvalue-minimisations  :  1174
 total energy-change (2. order) :-0.7600479E-04  (-0.5678568E-04)
 number of electron      22.0000001 magnetization      -0.0047625
 augmentation part        8.0491217 magnetization      -0.0003299

 Free energy of the ion-electron system (eV)
  ---------------------------------------------------
  alpha Z        PSCENC =       247.02244180
  Ewald energy   TEWEN  =     -1908.88859081
  -Hartree energ DENC   =      -246.44115464
  -exchange      EXHF   =         0.00000000
  -V(xc)+E(xc)   XCENC  =        50.91373581
  PAW double counting   =      2858.98146005    -2834.00615992
  entropy T*S    EENTRO =         0.00000000
  eigenvalues    EBANDS =      -274.57279031
  atomic energy  EATOM  =      2086.78124273
  Solvation  Ediel_sol  =         0.00000000
  ---------------------------------------------------
  free energy    TOTEN  =       -20.20981530 eV

  energy without entropy =      -20.20981530  energy(sigma->0) =      -20.20981530


--------------------------------------------------------------------------------------------------------




 average (electrostatic) potential at core
  the test charge radii are     1.2125
  (the norm of the test charge is              1.0000)
       1 -35.1735       2 -35.1735



 E-fermi :   4.8517     XC(G=0): -12.3458     alpha+bet :-12.7651

 Fermi energy:         4.8517091323

 spin component 1

 k-point     1 :       0.0000    0.0000    0.0000
  band No.  band energies     occupation 
      1     -25.7883      1.00000
      2     -25.7883      1.00000
      3     -25.7883      1.00000
      4     -24.9090      1.00000
      5     -24.9090      1.00000
      6     -24.9090      1.00000
      7      -1.0612      1.00000
      8       1.2065      1.00000
      9       1.2065      1.00000
     10       5.1975     -0.09126
     11       5.1975     -0.02807
     12       5.1975      0.00000
     13       8.0467      0.00000
     14       8.0467      0.00000
     15      10.3103      0.00000
     16      10.3103      0.00000

 k-point     2 :       0.1429    0.0000    0.0000
  band No.  band energies     occupation 
      1     -25.7915      1.00000
      2     -25.7434      1.00000
      3     -25.7434      1.00000
      4     -25.0037      1.00000
      5     -24.9508      1.00000
      6     -24.9508      1.00000
      7      -0.6516      1.00000
      8       1.4336      1.00000
      9       1.5453      1.00000
     10       5.1663      0.02430
     11       5.1663     -0.01245
     12       5.3893      0.00000
     13       7.4773      0.00000
     14       8.2527      0.00000
     15       9.1552      0.00000
     16       9.1553      0.00000

 k-point     3 :       0.2857    0.0000    0.0000
  band No.  band energies     occupation 
      1     -25.7752      1.00000
      2     -25.6183      1.00000
      3     -25.6183      1.00000
      4     -25.2366      1.00000
      5     -25.0692      1.00000
      6     -25.0692      1.00000
      7       0.4421      1.00000
      8       2.1041      1.00000
      9       2.2976      1.00000
     10       5.1910      0.38300
     11       5.1910     -0.05119
     12       5.9490      0.00000
     13       6.1304      0.00000
     14       7.5109      0.00000
     15       7.5109      0.00000
     16       8.7652      0.00000

 k-point     4 :       0.4286    0.0000    0.0000
  band No.  band energies     occupation 
      1     -25.6864      1.00000
      2     -25.4960      1.00000
      3     -25.4391      1.00000
      4     -25.4391      1.00000
      5     -25.2430      1.00000
      6     -25.2430      1.00000
      7       1.7964      1.00000
      8       2.6154      1.00000
      9       3.1805      1.00000
     10       4.5804      0.99040
     11       5.4991     -0.22175
     12       5.4991      0.00000
     13       6.2554      0.00000
     14       6.2554      0.00000
     15       6.8263      0.00000
     16       7.9207      0.00000

 k-point     5 :       0.1429    0.1429    0.0000
  band No.  band energies     occupation 
      1     -25.8663      1.00000
      2     -25.7022      1.00000
      3     -25.6333      1.00000
      4     -25.1677      1.00000
      5     -24.9877      1.00000
      6     -24.9110      1.00000
      7      -0.2805      1.00000
      8       1.6733      1.00000
      9       1.8474      1.00000
     10       4.7477      0.81602
     11       5.0374      0.14985
     12       5.9886     -0.00596
     13       7.5603      0.00000
     14       7.9128      0.00000
     15       8.0795      0.00000
     16       8.1988      0.00000

 k-point     6 :       0.2857    0.1429    0.0000
  band No.  band energies     occupation 
      1     -25.9069      1.00000
      2     -25.5877      1.00000
      3     -25.4700      1.00000
      4     -25.4323      1.00000
      5     -25.0926      1.00000
      6     -24.9657      1.00000
      7       0.6777      1.00000
      8       2.1901      1.00000
      9       2.6368      1.00000
     10       4.5013      1.00749
     11       4.8237      0.75668
     12       6.4074     -0.05180
     13       6.8524      0.00000
     14       6.8533      0.00000
     15       6.9493      0.00000
     16       8.5689      0.00000

 k-point     7 :       0.4286    0.1429    0.0000
  band No.  band energies     occupation 
      1     -25.8552      1.00000
      2     -25.6879      1.00000
      3     -25.4248      1.00000
      4     -25.2837      1.00000
      5     -25.2479      1.00000
      6     -25.1030      1.00000
      7       1.7921      1.00000
      8       2.4705      1.00000
      9       3.4419      1.00000
     10       4.3414      1.00316
     11       4.6483      0.92667
     12       5.2806     -0.03253
     13       6.3865      0.00000
     14       6.4675      0.00000
     15       7.8885      0.00000
     16       9.0372      0.00000

 k-point     8 :       0.2857    0.2857    0.0000
  band No.  band energies     occupation 
      1     -26.0376      1.00000
      2     -25.7176      1.00000
      3     -25.5038      1.00000
      4     -25.2715      1.00000
      5     -25.1605      1.00000
      6     -24.9158      1.00000
      7       1.1373      1.00000
      8       2.1324      1.00000
      9       3.6378      1.00000
     10       3.8860      1.00000
     11       4.8497      0.86594
     12       5.0566      0.07667
     13       6.4980      0.00000
     14       7.6738      0.00000
     15       8.1253      0.00000
     16       8.2980      0.00000

 k-point     9 :       0.4286    0.2857    0.0000
  band No.  band energies     occupation 
      1     -26.0633      1.00000
      2     -25.9508      1.00000
      3     -25.3871      1.00000
      4     -25.2644      1.00000
      5     -25.0944      1.00000
      6     -24.9661      1.00000
      7       1.5028      1.00000
      8       1.8476      1.00000
      9       3.7352      1.00000
     10       4.1276      1.00000
     11       4.6547      0.78734
     12       5.1391     -0.00423
     13       6.9964      0.00000
     14       7.5601      0.00000
     15       8.9208      0.00000
     16       9.3808      0.00000

 k-point    10 :       0.4286    0.4286    0.0000
  band No.  band energies     occupation 
      1     -26.1711      1.00000
      2     -26.1317      1.00000
      3     -25.3391      1.00000
      4     -25.2952      1.00000
      5     -24.9662      1.00000
      6     -24.9198      1.00000
      7       1.2399      1.00000
      8       1.3504      1.00000
      9       3.2990      1.00000
     10       3.4312      1.00000
     11       6.1708     -0.16202
     12       6.5235     -0.06816
     13       7.6879      0.00000
     14       8.0968      0.00000
     15       8.6605      0.00000
     16       9.6542      0.00000

 k-point    11 :       0.1429    0.1429    0.1429
  band No.  band energies     occupation 
      1     -25.8180      1.00000
      2     -25.8180      1.00000
      3     -25.4993      1.00000
      4     -25.2995      1.00000
      5     -24.9569      1.00000
      6     -24.9569      1.00000
      7       0.0765      1.00000
      8       2.0257      1.00000
      9       2.0257      1.00000
     10       4.6135      0.97414
     11       4.6135      0.91921
     12       6.4109     -0.05455
     13       6.6224      0.00000
     14       7.8264      0.00000
     15       7.8267      0.00000
     16       9.3259      0.00000

 k-point    12 :       0.2857    0.1429    0.1429
  band No.  band energies     occupation 
      1     -25.9089      1.00000
      2     -25.6829      1.00000
      3     -25.5430      1.00000
      4     -25.3346      1.00000
      5     -25.0864      1.00000
      6     -24.9701      1.00000
      7       0.9698      1.00000
      8       2.5279      1.00000
      9       2.7369      1.00000
     10       4.3089      1.01426
     11       4.3322      1.06008
     12       5.1726      0.10117
     13       7.2002      0.00000
     14       7.6627      0.00000
     15       7.8302      0.00000
     16       8.4550      0.00000

 k-point    13 :       0.4286    0.1429    0.1429
  band No.  band energies     occupation 
      1     -25.9012      1.00000
      2     -25.7701      1.00000
      3     -25.4890      1.00000
      4     -25.2759      1.00000
      5     -25.1789      1.00000
      6     -25.0503      1.00000
      7       1.9447      1.00000
      8       2.6890      1.00000
      9       3.2310      1.00000
     10       3.8814      1.00613
     11       4.6009      0.97496
     12       4.8931      0.26071
     13       6.6862      0.00000
     14       6.8674      0.00000
     15       8.5848      0.00000
     16       8.9074      0.00000

 k-point    14 :       0.2857    0.2857    0.1429
  band No.  band energies     occupation 
      1     -25.9818      1.00000
      2     -25.7587      1.00000
      3     -25.6375      1.00000
      4     -25.1799      1.00000
      5     -25.1534      1.00000
      6     -24.9707      1.00000
      7       1.5372      1.00000
      8       2.5372      1.00000
      9       3.6552      1.00000
     10       3.7669      1.00000
     11       4.1764      1.01584
     12       4.2845      0.92648
     13       7.4679      0.00000
     14       7.7916      0.00000
     15       8.3133      0.00000
     16       9.0087      0.00000

 k-point    15 :       0.4286    0.2857    0.1429
  band No.  band energies     occupation 
      1     -26.0226      1.00000
      2     -25.9441      1.00000
      3     -25.4782      1.00000
      4     -25.2989      1.00000
      5     -25.0650      1.00000
      6     -24.9961      1.00000
      7       1.8746      1.00000
      8       2.1881      1.00000
      9       3.5857      1.00000
     10       3.6920      1.00000
     11       4.6857      0.84432
     12       4.7502      0.58947
     13       7.3833      0.00000
     14       7.6256      0.00000
     15       8.7718      0.00000
     16       9.2438      0.00000

 k-point    16 :       0.4286    0.4286    0.1429
  band No.  band energies     occupation 
      1     -26.1098      1.00000
      2     -26.0828      1.00000
      3     -25.4037      1.00000
      4     -25.3344      1.00000
      5     -25.0022      1.00000
      6     -24.9820      1.00000
      7       1.6485      1.00000
      8       1.7272      1.00000
      9       3.2573      1.00000
     10       3.3578      1.00000
     11       5.7828     -0.13658
     12       5.8704     -0.13397
     13       7.9163      0.00000
     14       8.1654      0.00000
     15       8.6921      0.00000
     16       9.1210      0.00000

 k-point    17 :       0.2857    0.2857    0.2857
  band No.  band energies     occupation 
      1     -25.8581      1.00000
      2     -25.8255      1.00000
      3     -25.8255      1.00000
      4     -25.1251      1.00000
      5     -25.1251      1.00000
      6     -25.0893      1.00000
      7       2.4616      1.00000
      8       3.0871      1.00000
      9       3.5592      1.00000
     10       3.5592      1.00000
     11       3.6520      1.02991
     12       3.6520      1.07853
     13       8.2618      0.00000
     14       8.2618      0.00000
     15       8.4997      0.00000
     16       8.4997      0.00000

 k-point    18 :       0.4286    0.2857    0.2857
  band No.  band energies     occupation 
      1     -25.9436      1.00000
      2     -25.9406      1.00000
      3     -25.5996      1.00000
      4     -25.3495      1.00000
      5     -25.0844      1.00000
      6     -25.0622      1.00000
      7       2.5795      1.00000
      8       2.6007      1.00000
      9       3.4803      1.00000
     10       3.5608      1.00000
     11       4.1271      1.00722
     12       4.4628      0.99900
     13       8.0577      0.00000
     14       8.1011      0.00000
     15       8.7235      0.00000
     16       8.8038      0.00000

 k-point    19 :       0.4286    0.4286    0.2857
  band No.  band energies     occupation 
      1     -25.9553      1.00000
      2     -25.9373      1.00000
      3     -25.5470      1.00000
      4     -25.4075      1.00000
      5     -25.1563      1.00000
      6     -25.1148      1.00000
      7       2.5462      1.00000
      8       2.6798      1.00000
      9       3.2450      1.00000
     10       3.4349      1.00000
     11       4.7323      0.83200
     12       4.8946      0.57527
     13       8.4043      0.00000
     14       8.4732      0.00000
     15       8.7521      0.00000
     16       8.8160      0.00000

 k-point    20 :       0.4286    0.4286    0.4286
  band No.  band energies     occupation 
      1     -25.8089      1.00000
      2     -25.6870      1.00000
      3     -25.6870      1.00000
      4     -25.4081      1.00000
      5     -25.4081      1.00000
      6     -25.2795      1.00000
      7       3.0427      1.00000
      8       3.4647      1.00000
      9       3.4647      1.00000
     10       4.0292      1.00000
     11       4.0292      1.00000
     12       4.0588      1.12809
     13       8.7776      0.00000
     14       8.7776      0.00000
     15       8.7840      0.00000
     16       8.7840      0.00000
 Fermi energy:         4.8517091323

 spin component 2

 k-point     1 :       0.0000    0.0000    0.0000
  band No.  band energies     occupation 
      1     -25.7888      1.00000
      2     -25.7888      1.00000
      3     -25.7888      1.00000
      4     -24.9094      1.00000
      5     -24.9094      1.00000
      6     -24.9094      1.00000
      7      -1.0640      1.00000
      8       1.2049      1.00000
      9       1.2049      1.00000
     10       5.1962     -0.09085
     11       5.1962     -0.02818
     12       5.1962      0.00000
     13       8.0463      0.00000
     14       8.0463      0.00000
     15      10.3094      0.00000
     16      10.3094      0.00000

 k-point     2 :       0.1429    0.0000    0.0000
  band No.  band energies     occupation 
      1     -25.7920      1.00000
      2     -25.7439      1.00000
      3     -25.7439      1.00000
      4     -25.0041      1.00000
      5     -24.9513      1.00000
      6     -24.9513      1.00000
      7      -0.6543      1.00000
      8       1.4320      1.00000
      9       1.5438      1.00000
     10       5.1649      0.02736
     11       5.1649     -0.01189
     12       5.3880      0.00000
     13       7.4767      0.00000
     14       8.2523      0.00000
     15       9.1540      0.00000
     16       9.1540      0.00000

 k-point     3 :       0.2857    0.0000    0.0000
  band No.  band energies     occupation 
      1     -25.7758      1.00000
      2     -25.6188      1.00000
      3     -25.6188      1.00000
      4     -25.2371      1.00000
      5     -25.0696      1.00000
      6     -25.0696      1.00000
      7       0.4394      1.00000
      8       2.1026      1.00000
      9       2.2959      1.00000
     10       5.1896      0.38689
     11       5.1896     -0.04868
     12       5.9477      0.00000
     13       6.1295      0.00000
     14       7.5095      0.00000
     15       7.5096      0.00000
     16       8.7676      0.00000

 k-point     4 :       0.4286    0.0000    0.0000
  band No.  band energies     occupation 
      1     -25.6869      1.00000
      2     -25.4965      1.00000
      3     -25.4396      1.00000
      4     -25.4396      1.00000
      5     -25.2434      1.00000
      6     -25.2434      1.00000
      7       1.7939      1.00000
      8       2.6133      1.00000
      9       3.1791      1.00000
     10       4.5792      0.99056
     11       5.4976     -0.21928
     12       5.4976      0.00000
     13       6.2538      0.00000
     14       6.2538      0.00000
     15       6.8251      0.00000
     16       7.9195      0.00000

 k-point     5 :       0.1429    0.1429    0.0000
  band No.  band energies     occupation 
      1     -25.8668      1.00000
      2     -25.7027      1.00000
      3     -25.6338      1.00000
      4     -25.1681      1.00000
      5     -24.9882      1.00000
      6     -24.9115      1.00000
      7      -0.2832      1.00000
      8       1.6717      1.00000
      9       1.8458      1.00000
     10       4.7463      0.81844
     11       5.0360      0.15389
     12       5.9873     -0.00599
     13       7.5597      0.00000
     14       7.9114      0.00000
     15       8.0791      0.00000
     16       8.1973      0.00000

 k-point     6 :       0.2857    0.1429    0.0000
  band No.  band energies     occupation 
      1     -25.9074      1.00000
      2     -25.5882      1.00000
      3     -25.4705      1.00000
      4     -25.4328      1.00000
      5     -25.0931      1.00000
      6     -24.9661      1.00000
      7       0.6751      1.00000
      8       2.1885      1.00000
      9       2.6352      1.00000
     10       4.4999      1.00772
     11       4.8222      0.75990
     12       6.4059     -0.05223
     13       6.8512      0.00000
     14       6.8524      0.00000
     15       6.9478      0.00000
     16       8.5688      0.00000

 k-point     7 :       0.4286    0.1429    0.0000
  band No.  band energies     occupation 
      1     -25.8558      1.00000
      2     -25.6884      1.00000
      3     -25.4253      1.00000
      4     -25.2842      1.00000
      5     -25.2483      1.00000
      6     -25.1034      1.00000
      7       1.7897      1.00000
      8       2.4685      1.00000
      9       3.4404      1.00000
     10       4.3399      1.00316
     11       4.6468      0.92763
     12       5.2791     -0.03267
     13       6.3852      0.00000
     14       6.4661      0.00000
     15       7.8873      0.00000
     16       9.0426      0.00000

 k-point     8 :       0.2857    0.2857    0.0000
  band No.  band energies     occupation 
      1     -26.0381      1.00000
      2     -25.7181      1.00000
      3     -25.5043      1.00000
      4     -25.2720      1.00000
      5     -25.1610      1.00000
      6     -24.9162      1.00000
      7       1.1349      1.00000
      8       2.1307      1.00000
      9       3.6361      1.00000
     10       3.8844      1.00000
     11       4.8479      0.86754
     12       5.0551      0.07800
     13       6.4966      0.00000
     14       7.6732      0.00000
     15       8.1242      0.00000
     16       8.2976      0.00000

 k-point     9 :       0.4286    0.2857    0.0000
  band No.  band energies     occupation 
      1     -26.0638      1.00000
      2     -25.9514      1.00000
      3     -25.3875      1.00000
      4     -25.2648      1.00000
      5     -25.0948      1.00000
      6     -24.9665      1.00000
      7       1.5006      1.00000
      8       1.8457      1.00000
      9       3.7336      1.00000
     10       4.1260      1.00000
     11       4.6529      0.78843
     12       5.1371     -0.00368
     13       6.9953      0.00000
     14       7.5592      0.00000
     15       8.9208      0.00000
     16       9.3827      0.00000

 k-point    10 :       0.4286    0.4286    0.0000
  band No.  band energies     occupation 
      1     -26.1717      1.00000
      2     -26.1322      1.00000
      3     -25.3395      1.00000
      4     -25.2957      1.00000
      5     -24.9666      1.00000
      6     -24.9202      1.00000
      7       1.2378      1.00000
      8       1.3485      1.00000
      9       3.2974      1.00000
     10       3.4296      1.00000
     11       6.1687     -0.16172
     12       6.5210     -0.06889
     13       7.6871      0.00000
     14       8.0960      0.00000
     15       8.6602      0.00000
     16       9.6532      0.00000

 k-point    11 :       0.1429    0.1429    0.1429
  band No.  band energies     occupation 
      1     -25.8185      1.00000
      2     -25.8185      1.00000
      3     -25.4997      1.00000
      4     -25.3000      1.00000
      5     -24.9573      1.00000
      6     -24.9573      1.00000
      7       0.0739      1.00000
      8       2.0242      1.00000
      9       2.0242      1.00000
     10       4.6121      0.97518
     11       4.6121      0.92166
     12       6.4093     -0.05466
     13       6.6211      0.00000
     14       7.8259      0.00000
     15       7.8259      0.00000
     16       9.3248      0.00000

 k-point    12 :       0.2857    0.1429    0.1429
  band No.  band energies     occupation 
      1     -25.9094      1.00000
      2     -25.6834      1.00000
      3     -25.5435      1.00000
      4     -25.3350      1.00000
      5     -25.0868      1.00000
      6     -24.9705      1.00000
      7       0.9672      1.00000
      8       2.5264      1.00000
      9       2.7352      1.00000
     10       4.3073      1.01424
     11       4.3307      1.05994
     12       5.1710      0.10245
     13       7.1995      0.00000
     14       7.6615      0.00000
     15       7.8289      0.00000
     16       8.4547      0.00000

 k-point    13 :       0.4286    0.1429    0.1429
  band No.  band energies     occupation 
      1     -25.9017      1.00000
      2     -25.7706      1.00000
      3     -25.4895      1.00000
      4     -25.2764      1.00000
      5     -25.1794      1.00000
      6     -25.0508      1.00000
      7       1.9423      1.00000
      8       2.6869      1.00000
      9       3.2295      1.00000
     10       3.8799      1.00609
     11       4.5992      0.97536
     12       4.8915      0.26487
     13       6.6852      0.00000
     14       6.8661      0.00000
     15       8.5838      0.00000
     16       8.9060      0.00000

 k-point    14 :       0.2857    0.2857    0.1429
  band No.  band energies     occupation 
      1     -25.9823      1.00000
      2     -25.7592      1.00000
      3     -25.6380      1.00000
      4     -25.1804      1.00000
      5     -25.1538      1.00000
      6     -24.9711      1.00000
      7       1.5347      1.00000
      8       2.5355      1.00000
      9       3.6535      1.00000
     10       3.7653      1.00000
     11       4.1748      1.01569
     12       4.2827      0.92805
     13       7.4667      0.00000
     14       7.7910      0.00000
     15       8.3129      0.00000
     16       9.0066      0.00000

 k-point    15 :       0.4286    0.2857    0.1429
  band No.  band energies     occupation 
      1     -26.0231      1.00000
      2     -25.9447      1.00000
      3     -25.4786      1.00000
      4     -25.2994      1.00000
      5     -25.0655      1.00000
      6     -24.9965      1.00000
      7       1.8724      1.00000
      8       2.1862      1.00000
      9       3.5840      1.00000
     10       3.6903      1.00000
     11       4.6839      0.84528
     12       4.7482      0.59345
     13       7.3823      0.00000
     14       7.6248      0.00000
     15       8.7712      0.00000
     16       9.2432      0.00000

 k-point    16 :       0.4286    0.4286    0.1429
  band No.  band energies     occupation 
      1     -26.1103      1.00000
      2     -26.0834      1.00000
      3     -25.4041      1.00000
      4     -25.3348      1.00000
      5     -25.0026      1.00000
      6     -24.9824      1.00000
      7       1.6465      1.00000
      8       1.7253      1.00000
      9       3.2557      1.00000
     10       3.3561      1.00000
     11       5.7807     -0.13505
     12       5.8681     -0.13425
     13       7.9156      0.00000
     14       8.1648      0.00000
     15       8.6918      0.00000
     16       9.1205      0.00000

 k-point    17 :       0.2857    0.2857    0.2857
  band No.  band energies     occupation 
      1     -25.8587      1.00000
      2     -25.8260      1.00000
      3     -25.8260      1.00000
      4     -25.1256      1.00000
      5     -25.1256      1.00000
      6     -25.0897      1.00000
      7       2.4591      1.00000
      8       3.0853      1.00000
      9       3.5575      1.00000
     10       3.5575      1.00000
     11       3.6503      1.02985
     12       3.6503      1.07808
     13       8.2614      0.00000
     14       8.2614      0.00000
     15       8.4988      0.00000
     16       8.4988      0.00000

 k-point    18 :       0.4286    0.2857    0.2857
  band No.  band energies     occupation 
      1     -25.9442      1.00000
      2     -25.9412      1.00000
      3     -25.6001      1.00000
      4     -25.3500      1.00000
      5     -25.0849      1.00000
      6     -25.0626      1.00000
      7       2.5774      1.00000
      8       2.5988      1.00000
      9       3.4786      1.00000
     10       3.5591      1.00000
     11       4.1251      1.00747
     12       4.4609      0.99889
     13       8.0570      0.00000
     14       8.1005      0.00000
     15       8.7232      0.00000
     16       8.8032      0.00000

 k-point    19 :       0.4286    0.4286    0.2857
  band No.  band energies     occupation 
      1     -25.9558      1.00000
      2     -25.9378      1.00000
      3     -25.5474      1.00000
      4     -25.4080      1.00000
      5     -25.1567      1.00000
      6     -25.1152      1.00000
      7       2.5443      1.00000
      8       2.6778      1.00000
      9       3.2433      1.00000
     10       3.4330      1.00000
     11       4.7301      0.83327
     12       4.8925      0.58050
     13       8.4038      0.00000
     14       8.4728      0.00000
     15       8.7518      0.00000
     16       8.8156      0.00000

 k-point    20 :       0.4286    0.4286    0.4286
  band No.  band energies     occupation 
      1     -25.8095      1.00000
      2     -25.6875      1.00000
      3     -25.6875      1.00000
      4     -25.4086      1.00000
      5     -25.4086      1.00000
      6     -25.2799      1.00000
      7       3.0408      1.00000
      8       3.4628      1.00000
      9       3.4628      1.00000
     10       4.0272      1.00000
     11       4.0272      1.00000
     12       4.0567      1.12748
     13       8.7773      0.00000
     14       8.7773      0.00000
     15       8.7837      0.00000
     16       8.7837      0.00000


--------------------------------------------------------------------------------------------------------


 soft charge-density along one line, spin component           1
         0         1         2         3         4         5         6         7         8         9
 total charge-density along one line

 soft charge-density along one line, spin component           2
         0         1         2         3         4         5         6         7         8         9
 total charge-density along one line

 pseudopotential strength for first ion, spin component:           1
-28.110   0.000   0.000   5.979  -0.000  -0.000  -0.000  -0.000
  0.000 -28.110  -0.000  -0.000   5.979   0.000  -0.000  -0.000
  0.000  -0.000 -28.110  -0.000   0.000   5.979  -0.000  -0.000
  5.979  -0.000  -0.000   4.217   0.000   0.000   0.000   0.000
 -0.000   5.979   0.000   0.000   4.217   0.000   0.000   0.000
 -0.000   0.000   5.979   0.000   0.000   4.217   0.000   0.000
 -0.000  -0.000  -0.000   0.000   0.000   0.000  -6.358  -0.000
 -0.000  -0.000  -0.000   0.000   0.000   0.000  -0.000  -6.358
  0.000  -0.000   0.000  -0.000   0.000  -0.000  -0.000   0.000
 -0.000  -0.000  -0.000   0.000   0.000   0.000   0.000   0.000
  0.000  -0.000   0.000  -0.000   0.000  -0.000  -0.000  -0.000
 -0.000  -0.000  -0.000   0.000   0.000   0.000  -7.215  -0.000
 -0.000  -0.000  -0.000   0.000   0.000   0.000  -0.000  -7.215
  0.000  -0.000   0.000  -0.000   0.000  -0.000  -0.000   0.000
 -0.000  -0.000  -0.000   0.000   0.000   0.000   0.000   0.000
  0.000  -0.000   0.000  -0.000   0.000  -0.000  -0.000  -0.000
  0.000   0.000   0.000   0.000  -0.000   0.000  -0.000  -0.000
 -0.000  -0.000  -0.000  -0.000  -0.000  -0.000   0.000   0.000
 pseudopotential strength for first ion, spin component:           2
-28.110   0.000   0.000   5.979  -0.000  -0.000  -0.000  -0.000
  0.000 -28.110  -0.000  -0.000   5.979   0.000  -0.000  -0.000
  0.000  -0.000 -28.110  -0.000   0.000   5.979  -0.000  -0.000
  5.979  -0.000  -0.000   4.217   0.000   0.000   0.000   0.000
 -0.000   5.979   0.000   0.000   4.217   0.000   0.000   0.000
 -0.000   0.000   5.979   0.000   0.000   4.217   0.000   0.000
 -0.000  -0.000  -0.000   0.000   0.000   0.000  -6.358  -0.000
 -0.000  -0.000  -0.000   0.000   0.000   0.000  -0.000  -6.358
  0.000  -0.000   0.000  -0.000   0.000  -0.000  -0.000   0.000
 -0.000  -0.000  -0.000   0.000   0.000   0.000   0.000   0.000
  0.000  -0.000   0.000  -0.000   0.000  -0.000  -0.000  -0.000
 -0.000  -0.000  -0.000   0.000   0.000   0.000  -7.215  -0.000
 -0.000  -0.000  -0.000   0.000   0.000   0.000  -0.000  -7.215
  0.000  -0.000   0.000  -0.000   0.000  -0.000  -0.000   0.000
 -0.000  -0.000  -0.000   0.000   0.000   0.000   0.000   0.000
  0.000  -0.000   0.000  -0.000   0.000  -0.000  -0.000  -0.000
  0.000   0.000   0.000   0.000  -0.000   0.000  -0.000  -0.000
 -0.000  -0.000  -0.000  -0.000  -0.000  -0.000   0.000   0.000
 total augmentation occupancy for first ion, spin component:           1
  1.993   0.000   0.000  -0.013  -0.000  -0.000   0.000  -0.000   0.000  -0.000   0.000   0.000  -0.000   0.000   0.000   0.000
  0.000   1.993   0.000  -0.000  -0.013  -0.000   0.000  -0.000   0.000   0.000   0.000  -0.000   0.000   0.000  -0.000   0.000
  0.000   0.000   1.993  -0.000  -0.000  -0.013   0.000   0.000   0.000   0.000   0.000   0.000   0.000   0.000  -0.000  -0.000
 -0.013  -0.000  -0.000   0.204   0.000   0.000  -0.000   0.000   0.000  -0.000  -0.000   0.000   0.000   0.000   0.000   0.000
 -0.000  -0.013  -0.000   0.000   0.204   0.000  -0.000  -0.000   0.000  -0.000  -0.000  -0.000  -0.000   0.000   0.000  -0.000
 -0.000  -0.000  -0.013   0.000   0.000   0.204   0.000  -0.000   0.000  -0.000   0.000   0.000  -0.000  -0.000   0.000  -0.000
 -0.000   0.000   0.000   0.000   0.000  -0.000   5.983   0.000  -0.000   0.000   0.000  -3.332  -0.000   0.000  -0.000  -0.000
  0.000  -0.000   0.000   0.000   0.000   0.000   0.000   5.983   0.000   0.000  -0.000  -0.000  -3.332  -0.000  -0.000   0.000
  0.000   0.000   0.000   0.000   0.000   0.000  -0.000   0.000   5.626   0.000   0.000   0.000  -0.000  -3.316  -0.000  -0.000
 -0.000   0.000  -0.000  -0.000   0.000  -0.000   0.000   0.000   0.000   5.983   0.000  -0.000  -0.000  -0.000  -3.332  -0.000
  0.000   0.000  -0.000   0.000  -0.000  -0.000   0.000  -0.000   0.000   0.000   5.626  -0.000   0.000  -0.000  -0.000  -3.316
 -0.000  -0.000  -0.000   0.000   0.000  -0.000  -3.332  -0.000   0.000  -0.000  -0.000   1.894   0.000  -0.000   0.000  -0.000
  0.000  -0.000   0.000  -0.000  -0.000   0.000  -0.000  -3.332  -0.000  -0.000   0.000   0.000   1.894   0.000   0.000  -0.000
 -0.000   0.000   0.000   0.000   0.000   0.000   0.000  -0.000  -3.316  -0.000  -0.000  -0.000   0.000   1.972   0.000  -0.000
  0.000   0.000  -0.000   0.000   0.000   0.000  -0.000  -0.000  -0.000  -3.332  -0.000   0.000   0.000   0.000   1.894   0.000
  0.000   0.000  -0.000  -0.000   0.000   0.000  -0.000   0.000  -0.000  -0.000  -3.316  -0.000  -0.000   0.000   0.000   1.972
  0.000   0.000  -0.000   0.000   0.000   0.000   0.000  -0.000  -0.000  -0.000  -0.000   0.000  -0.000  -0.000  -0.000   0.000
 -0.000  -0.000  -0.000   0.000   0.000  -0.000   0.000  -0.000   0.000   0.000  -0.000  -0.000   0.000  -0.000  -0.000   0.000
 total augmentation occupancy for first ion, spin component:           2
  0.000   0.000   0.000   0.000   0.000   0.000   0.000  -0.000   0.000   0.000   0.000  -0.000   0.000  -0.000   0.000  -0.000
  0.000   0.000   0.000   0.000   0.000   0.000   0.000   0.000  -0.000   0.000   0.000  -0.000   0.000  -0.000  -0.000   0.000
  0.000   0.000   0.000   0.000   0.000   0.000   0.000  -0.000   0.000   0.000   0.000  -0.000  -0.000   0.000   0.000  -0.000
  0.000   0.000   0.000  -0.000  -0.000  -0.000  -0.000   0.000  -0.000   0.000   0.000  -0.000   0.000  -0.000  -0.000   0.000
  0.000   0.000   0.000  -0.000  -0.000  -0.000  -0.000   0.000   0.000   0.000   0.000   0.000   0.000   0.000   0.000   0.000
  0.000   0.000   0.000  -0.000  -0.000  -0.000   0.000  -0.000   0.000  -0.000   0.000  -0.000   0.000   0.000   0.000   0.000
 -0.000  -0.000   0.000  -0.000  -0.000   0.000  -0.003   0.000   0.000  -0.000   0.000   0.002   0.000  -0.000   0.000  -0.000
 -0.000  -0.000   0.000   0.000  -0.000  -0.000  -0.000  -0.003   0.000  -0.000   0.000  -0.000   0.002  -0.000   0.000  -0.000
  0.000  -0.000   0.000   0.000   0.000   0.000   0.000   0.000  -0.006   0.000  -0.000  -0.000  -0.000   0.005  -0.000   0.000
  0.000  -0.000   0.000  -0.000  -0.000   0.000  -0.000  -0.000   0.000  -0.003  -0.000   0.000   0.000  -0.000   0.002   0.000
  0.000   0.000  -0.000   0.000   0.000   0.000   0.000   0.000  -0.000  -0.000  -0.006  -0.000  -0.000   0.000   0.000   0.005
  0.000   0.000   0.000  -0.000   0.000  -0.000   0.002  -0.000  -0.000   0.000  -0.000  -0.001  -0.000   0.000  -0.000   0.000
  0.000   0.000  -0.000  -0.000   0.000   0.000  -0.000   0.002  -0.000   0.000  -0.000  -0.000  -0.001   0.000  -0.000   0.000
  0.000   0.000   0.000  -0.000   0.000   0.000  -0.000  -0.000   0.005  -0.000   0.000   0.000   0.000  -0.003   0.000  -0.000
  0.000   0.000   0.000   0.000   0.000  -0.000   0.000   0.000  -0.000   0.002   0.000  -0.000  -0.000   0.000  -0.001  -0.000
 -0.000   0.000  -0.000  -0.000  -0.000   0.000  -0.000  -0.000   0.000   0.000   0.005   0.000   0.000  -0.000  -0.000  -0.003
  0.000  -0.000  -0.000   0.000   0.000   0.000   0.000  -0.000   0.000  -0.000   0.000   0.000  -0.000  -0.000   0.000  -0.000
 -0.000  -0.000  -0.000  -0.000   0.000   0.000  -0.000   0.000   0.000   0.000   0.000  -0.000  -0.000  -0.000  -0.000  -0.000


------------------------ aborting loop because EDIFF is reached ----------------------------------------





 total charge

# of ion       s       p       d       tot
------------------------------------------
    1        0.419   6.291   3.081   9.791
    2        0.419   6.291   3.081   9.791
--------------------------------------------------
tot          0.838  12.582   6.161  19.582



 magnetization (x)

# of ion       s       p       d       tot
------------------------------------------
    1       -0.000  -0.000  -0.001  -0.001
    2       -0.000  -0.000  -0.001  -0.001
--------------------------------------------------
tot         -0.000  -0.001  -0.002  -0.003

    CHARGE:  cpu time      7.5652: real time      0.4351
    FORLOC:  cpu time      0.0005: real time      0.0005
    FORNL :  cpu time     38.5879: real time      2.1434
    STRESS:  cpu time    111.8756: real time      6.2619
    FORCOR:  cpu time      2.5666: real time      0.1824
    FORHAR:  cpu time      0.1809: real time      0.0106
    MIXING:  cpu time      0.1282: real time      0.0029
    OFIELD:  cpu time      0.0000: real time      0.0000

  FORCE on cell =-STRESS in cart. coord.  units (eV):
  Direction    XX          YY          ZZ          XY          YZ          ZX
  --------------------------------------------------------------------------------------
  Alpha Z   247.02244   247.02244   247.02244
  Ewald    -636.29615  -636.29615  -636.29615    -0.00000     0.00000     0.00000
  Hartree    82.14797    82.14797    82.14797    -0.00000    -0.00000    -0.00000
  E(xc)     -95.05719   -95.05719   -95.05719    -0.00000     0.00000    -0.00000
  Local     203.72274   203.72274   203.72274     0.00000    -0.00000    -0.00000
  n-local   -89.46682   -85.10403   -78.97132     2.59225    -0.79332     0.58610
  augment    53.57087    53.57087    53.57087     0.00000    -0.00000     0.00000
  Kinetic   220.42560   226.00360   241.61809     2.06905    -1.78616     0.70539
  Fock        0.00000     0.00000     0.00000     0.00000     0.00000     0.00000
  -------------------------------------------------------------------------------------
  Total      -0.05428    -0.05428    -0.05428     0.00000    -0.00000    -0.00000
  in kB      -2.37255    -2.37255    -2.37255     0.00000    -0.00000    -0.00000
  external pressure =       -2.37 kB  Pullay stress =        0.00 kB


 VOLUME and BASIS-vectors are now :
 -----------------------------------------------------------------------------
  energy-cutoff  :      520.00
  volume of cell :       36.65
      direct lattice vectors                 reciprocal lattice vectors
     3.321779337  0.000000000  0.000000000     0.301043477 -0.000000000  0.000000000
     0.000000000  3.321779337  0.000000000     0.000000000  0.301043477  0.000000000
     0.000000000  0.000000000  3.321779337    -0.000000000 -0.000000000  0.301043477

  length of vectors
     3.321779337  3.321779337  3.321779337     0.301043477  0.301043477  0.301043477


 FORCES acting on ions
    electron-ion (+dipol)            ewald-force                    non-local-force                 convergence-correction
 -----------------------------------------------------------------------------------------------
   -.103E-13 -.119E-13 -.202E-13   0.957E-15 -.292E-14 -.233E-14   0.177E-22 0.137E-21 -.684E-22   0.556E-14 -.117E-13 0.397E-13
   0.117E-12 0.151E-11 0.160E-11   0.159E-14 0.395E-14 0.737E-15   0.166E-21 -.625E-22 0.159E-21   -.130E-13 -.549E-13 -.316E-13
 -----------------------------------------------------------------------------------------------
   0.106E-12 0.150E-11 0.158E-11   0.254E-14 0.104E-14 -.160E-14   0.184E-21 0.746E-22 0.902E-22   -.742E-14 -.666E-13 0.811E-14


 POSITION                                       TOTAL-FORCE (eV/Angst)
 -----------------------------------------------------------------------------------
      0.00000      0.00000      0.00000         0.000000      0.000000      0.000000
      1.66089      1.66089      1.66089        -0.000000     -0.000000     -0.000000
 -----------------------------------------------------------------------------------
    total drift:                                0.000000      0.000000      0.000000


--------------------------------------------------------------------------------------------------------



  FREE ENERGIE OF THE ION-ELECTRON SYSTEM (eV)
  ---------------------------------------------------
  free  energy   TOTEN  =       -20.20981530 eV

  energy  without entropy=      -20.20981530  energy(sigma->0) =      -20.20981530



--------------------------------------------------------------------------------------------------------


    POTLOK:  cpu time      2.6186: real time      0.3873


--------------------------------------------------------------------------------------------------------


     LOOP+:  cpu time   1525.8483: real time     89.2082
 -----------------------------------------------------------------------------
|                                                                             |
|           W    W    AA    RRRRR   N    N  II  N    N   GGGG   !!!           |
|           W    W   A  A   R    R  NN   N  II  NN   N  G    G  !!!           |
|           W    W  A    A  R    R  N N  N  II  N N  N  G       !!!           |
|           W WW W  AAAAAA  RRRRR   N  N N  II  N  N N  G  GGG   !            |
|           WW  WW  A    A  R   R   N   NN  II  N   NN  G    G                |
|           W    W  A    A  R    R  N    N  II  N    N   GGGG   !!!           |
|                                                                             |
|     Tetrahedron method does not include variations of the Fermi             |
|     occupations, so forces and stress will be inaccurate. We suggest        |
|     using a different smearing scheme ISMEAR = 1 or 2 for metals in         |
|     relaxations.                                                            |
|                                                                             |
 -----------------------------------------------------------------------------

    4ORBIT:  cpu time      0.0000: real time      0.0000



 total charge

# of ion       s       p       d       tot
------------------------------------------
    1        0.419   6.291   3.081   9.791
    2        0.419   6.291   3.081   9.791
--------------------------------------------------
tot          0.838  12.582   6.161  19.582



 magnetization (x)

# of ion       s       p       d       tot
------------------------------------------
    1       -0.000  -0.000  -0.001  -0.001
    2       -0.000  -0.000  -0.001  -0.001
--------------------------------------------------
tot         -0.000  -0.001  -0.002  -0.003

 BZINTS: Fermi energy:    4.851709;   22.000000 electrons
         Band energy:-0.274573E+03;  BLOECHL correction:   -0.211292

 total amount of memory used by VASP MPI-rank0    68119. kBytes
=======================================================================

   base      :      30000. kBytes
   nonlr-proj:       6266. kBytes
   fftplans  :       6192. kBytes
   grid      :      14776. kBytes
   one-center:         62. kBytes
   wavefun   :      10823. kBytes

  
  
 General timing and accounting informations for this job:
 ========================================================
  
                  Total CPU time used (sec):     1545.268
                            User time (sec):     1476.497
                          System time (sec):       68.772
                         Elapsed time (sec):       90.698
  
                   Maximum memory used (kb):      294944.
                   Average memory used (kb):          N/A
  
                          Minor page faults:      2249222
                          Major page faults:          110
                 Voluntary context switches:       760826
