   2   2   1   0
  0.2327481E+02  0.3597262E-09  0.3597262E-09  0.3597262E-09  0.5000000E-15
   1.0000000000000000E-004
  CAR 
 unknown system                          
      8.87966273    -29.72410637  301      3.13790930      1.00000000
    -29.724  0.0000E+00  0.0000E+00  0.0000E+00  0.0000E+00
    -29.595  0.0000E+00  0.0000E+00  0.0000E+00  0.0000E+00
    -29.467  0.0000E+00  0.0000E+00  0.0000E+00  0.0000E+00
    -29.338  0.0000E+00  0.0000E+00  0.0000E+00  0.0000E+00
    -29.209  0.0000E+00  0.0000E+00  0.0000E+00  0.0000E+00
    -29.081  0.0000E+00  0.0000E+00  0.0000E+00  0.0000E+00
    -28.952  0.0000E+00  0.0000E+00  0.0000E+00  0.0000E+00
    -28.823  0.0000E+00  0.0000E+00  0.0000E+00  0.0000E+00
    -28.695  0.0000E+00  0.0000E+00  0.0000E+00  0.0000E+00
    -28.566  0.0000E+00  0.0000E+00  0.0000E+00  0.0000E+00
    -28.437  0.0000E+00  0.0000E+00  0.0000E+00  0.0000E+00
    -28.309  0.0000E+00  0.0000E+00  0.0000E+00  0.0000E+00
    -28.180  0.0000E+00  0.0000E+00  0.0000E+00  0.0000E+00
    -28.051  0.0000E+00  0.0000E+00  0.0000E+00  0.0000E+00
    -27.923  0.5963E+01  0.5645E+01  0.1406E+00  0.1287E+00
    -27.794  0.1170E+02  0.1156E+02  0.1559E+01  0.1546E+01
    -27.665  0.1300E+02  0.1308E+02  0.2566E+01  0.2543E+01
    -27.537  0.1353E+02  0.1333E+02  0.4010E+01  0.3996E+01
    -27.408  0.1974E+02  0.2144E+02  0.5942E+01  0.5919E+01
    -27.279  0.0000E+00  0.0000E+00  0.6000E+01  0.6000E+01
    -27.151  0.0000E+00  0.0000E+00  0.6000E+01  0.6000E+01
    -27.022  0.0000E+00  0.0000E+00  0.6000E+01  0.6000E+01
    -26.893  0.0000E+00  0.0000E+00  0.6000E+01  0.6000E+01
    -26.764  0.0000E+00  0.0000E+00  0.6000E+01  0.6000E+01
    -26.636  0.0000E+00  0.0000E+00  0.6000E+01  0.6000E+01
    -26.507  0.0000E+00  0.0000E+00  0.6000E+01  0.6000E+01
    -26.378  0.0000E+00  0.0000E+00  0.6000E+01  0.6000E+01
    -26.250  0.0000E+00  0.0000E+00  0.6000E+01  0.6000E+01
    -26.121  0.0000E+00  0.0000E+00  0.6000E+01  0.6000E+01
    -25.992  0.0000E+00  0.0000E+00  0.6000E+01  0.6000E+01
    -25.864  0.0000E+00  0.0000E+00  0.6000E+01  0.6000E+01
    -25.735  0.0000E+00  0.0000E+00  0.6000E+01  0.6000E+01
    -25.606  0.0000E+00  0.0000E+00  0.6000E+01  0.6000E+01
    -25.478  0.0000E+00  0.0000E+00  0.6000E+01  0.6000E+01
    -25.349  0.0000E+00  0.0000E+00  0.6000E+01  0.6000E+01
    -25.220  0.0000E+00  0.0000E+00  0.6000E+01  0.6000E+01
    -25.092  0.0000E+00  0.0000E+00  0.6000E+01  0.6000E+01
    -24.963  0.0000E+00  0.0000E+00  0.6000E+01  0.6000E+01
    -24.834  0.0000E+00  0.0000E+00  0.6000E+01  0.6000E+01
    -24.706  0.0000E+00  0.0000E+00  0.6000E+01  0.6000E+01
    -24.577  0.0000E+00  0.0000E+00  0.6000E+01  0.6000E+01
    -24.448  0.0000E+00  0.0000E+00  0.6000E+01  0.6000E+01
    -24.320  0.0000E+00  0.0000E+00  0.6000E+01  0.6000E+01
    -24.191  0.0000E+00  0.0000E+00  0.6000E+01  0.6000E+01
    -24.062  0.0000E+00  0.0000E+00  0.6000E+01  0.6000E+01
    -23.934  0.0000E+00  0.0000E+00  0.6000E+01  0.6000E+01
    -23.805  0.0000E+00  0.0000E+00  0.6000E+01  0.6000E+01
    -23.676  0.0000E+00  0.0000E+00  0.6000E+01  0.6000E+01
    -23.548  0.0000E+00  0.0000E+00  0.6000E+01  0.6000E+01
    -23.419  0.0000E+00  0.0000E+00  0.6000E+01  0.6000E+01
    -23.290  0.0000E+00  0.0000E+00  0.6000E+01  0.6000E+01
    -23.161  0.0000E+00  0.0000E+00  0.6000E+01  0.6000E+01
    -23.033  0.0000E+00  0.0000E+00  0.6000E+01  0.6000E+01
    -22.904  0.0000E+00  0.0000E+00  0.6000E+01  0.6000E+01
    -22.775  0.0000E+00  0.0000E+00  0.6000E+01  0.6000E+01
    -22.647  0.0000E+00  0.0000E+00  0.6000E+01  0.6000E+01
    -22.518  0.0000E+00  0.0000E+00  0.6000E+01  0.6000E+01
    -22.389  0.0000E+00  0.0000E+00  0.6000E+01  0.6000E+01
    -22.261  0.0000E+00  0.0000E+00  0.6000E+01  0.6000E+01
    -22.132  0.0000E+00  0.0000E+00  0.6000E+01  0.6000E+01
    -22.003  0.0000E+00  0.0000E+00  0.6000E+01  0.6000E+01
    -21.875  0.0000E+00  0.0000E+00  0.6000E+01  0.6000E+01
    -21.746  0.0000E+00  0.0000E+00  0.6000E+01  0.6000E+01
    -21.617  0.0000E+00  0.0000E+00  0.6000E+01  0.6000E+01
    -21.489  0.0000E+00  0.0000E+00  0.6000E+01  0.6000E+01
    -21.360  0.0000E+00  0.0000E+00  0.6000E+01  0.6000E+01
    -21.231  0.0000E+00  0.0000E+00  0.6000E+01  0.6000E+01
    -21.103  0.0000E+00  0.0000E+00  0.6000E+01  0.6000E+01
    -20.974  0.0000E+00  0.0000E+00  0.6000E+01  0.6000E+01
    -20.845  0.0000E+00  0.0000E+00  0.6000E+01  0.6000E+01
    -20.717  0.0000E+00  0.0000E+00  0.6000E+01  0.6000E+01
    -20.588  0.0000E+00  0.0000E+00  0.6000E+01  0.6000E+01
    -20.459  0.0000E+00  0.0000E+00  0.6000E+01  0.6000E+01
    -20.331  0.0000E+00  0.0000E+00  0.6000E+01  0.6000E+01
    -20.202  0.0000E+00  0.0000E+00  0.6000E+01  0.6000E+01
    -20.073  0.0000E+00  0.0000E+00  0.6000E+01  0.6000E+01
    -19.944  0.0000E+00  0.0000E+00  0.6000E+01  0.6000E+01
    -19.816  0.0000E+00  0.0000E+00  0.6000E+01  0.6000E+01
    -19.687  0.0000E+00  0.0000E+00  0.6000E+01  0.6000E+01
    -19.558  0.0000E+00  0.0000E+00  0.6000E+01  0.6000E+01
    -19.430  0.0000E+00  0.0000E+00  0.6000E+01  0.6000E+01
    -19.301  0.0000E+00  0.0000E+00  0.6000E+01  0.6000E+01
    -19.172  0.0000E+00  0.0000E+00  0.6000E+01  0.6000E+01
    -19.044  0.0000E+00  0.0000E+00  0.6000E+01  0.6000E+01
    -18.915  0.0000E+00  0.0000E+00  0.6000E+01  0.6000E+01
    -18.786  0.0000E+00  0.0000E+00  0.6000E+01  0.6000E+01
    -18.658  0.0000E+00  0.0000E+00  0.6000E+01  0.6000E+01
    -18.529  0.0000E+00  0.0000E+00  0.6000E+01  0.6000E+01
    -18.400  0.0000E+00  0.0000E+00  0.6000E+01  0.6000E+01
    -18.272  0.0000E+00  0.0000E+00  0.6000E+01  0.6000E+01
    -18.143  0.0000E+00  0.0000E+00  0.6000E+01  0.6000E+01
    -18.014  0.0000E+00  0.0000E+00  0.6000E+01  0.6000E+01
    -17.886  0.0000E+00  0.0000E+00  0.6000E+01  0.6000E+01
    -17.757  0.0000E+00  0.0000E+00  0.6000E+01  0.6000E+01
    -17.628  0.0000E+00  0.0000E+00  0.6000E+01  0.6000E+01
    -17.500  0.0000E+00  0.0000E+00  0.6000E+01  0.6000E+01
    -17.371  0.0000E+00  0.0000E+00  0.6000E+01  0.6000E+01
    -17.242  0.0000E+00  0.0000E+00  0.6000E+01  0.6000E+01
    -17.114  0.0000E+00  0.0000E+00  0.6000E+01  0.6000E+01
    -16.985  0.0000E+00  0.0000E+00  0.6000E+01  0.6000E+01
    -16.856  0.0000E+00  0.0000E+00  0.6000E+01  0.6000E+01
    -16.728  0.0000E+00  0.0000E+00  0.6000E+01  0.6000E+01
    -16.599  0.0000E+00  0.0000E+00  0.6000E+01  0.6000E+01
    -16.470  0.0000E+00  0.0000E+00  0.6000E+01  0.6000E+01
    -16.341  0.0000E+00  0.0000E+00  0.6000E+01  0.6000E+01
    -16.213  0.0000E+00  0.0000E+00  0.6000E+01  0.6000E+01
    -16.084  0.0000E+00  0.0000E+00  0.6000E+01  0.6000E+01
    -15.955  0.0000E+00  0.0000E+00  0.6000E+01  0.6000E+01
    -15.827  0.0000E+00  0.0000E+00  0.6000E+01  0.6000E+01
    -15.698  0.0000E+00  0.0000E+00  0.6000E+01  0.6000E+01
    -15.569  0.0000E+00  0.0000E+00  0.6000E+01  0.6000E+01
    -15.441  0.0000E+00  0.0000E+00  0.6000E+01  0.6000E+01
    -15.312  0.0000E+00  0.0000E+00  0.6000E+01  0.6000E+01
    -15.183  0.0000E+00  0.0000E+00  0.6000E+01  0.6000E+01
    -15.055  0.0000E+00  0.0000E+00  0.6000E+01  0.6000E+01
    -14.926  0.0000E+00  0.0000E+00  0.6000E+01  0.6000E+01
    -14.797  0.0000E+00  0.0000E+00  0.6000E+01  0.6000E+01
    -14.669  0.0000E+00  0.0000E+00  0.6000E+01  0.6000E+01
    -14.540  0.0000E+00  0.0000E+00  0.6000E+01  0.6000E+01
    -14.411  0.0000E+00  0.0000E+00  0.6000E+01  0.6000E+01
    -14.283  0.0000E+00  0.0000E+00  0.6000E+01  0.6000E+01
    -14.154  0.0000E+00  0.0000E+00  0.6000E+01  0.6000E+01
    -14.025  0.0000E+00  0.0000E+00  0.6000E+01  0.6000E+01
    -13.897  0.0000E+00  0.0000E+00  0.6000E+01  0.6000E+01
    -13.768  0.0000E+00  0.0000E+00  0.6000E+01  0.6000E+01
    -13.639  0.0000E+00  0.0000E+00  0.6000E+01  0.6000E+01
    -13.511  0.0000E+00  0.0000E+00  0.6000E+01  0.6000E+01
    -13.382  0.0000E+00  0.0000E+00  0.6000E+01  0.6000E+01
    -13.253  0.0000E+00  0.0000E+00  0.6000E+01  0.6000E+01
    -13.124  0.0000E+00  0.0000E+00  0.6000E+01  0.6000E+01
    -12.996  0.0000E+00  0.0000E+00  0.6000E+01  0.6000E+01
    -12.867  0.0000E+00  0.0000E+00  0.6000E+01  0.6000E+01
    -12.738  0.0000E+00  0.0000E+00  0.6000E+01  0.6000E+01
    -12.610  0.0000E+00  0.0000E+00  0.6000E+01  0.6000E+01
    -12.481  0.0000E+00  0.0000E+00  0.6000E+01  0.6000E+01
    -12.352  0.0000E+00  0.0000E+00  0.6000E+01  0.6000E+01
    -12.224  0.0000E+00  0.0000E+00  0.6000E+01  0.6000E+01
    -12.095  0.0000E+00  0.0000E+00  0.6000E+01  0.6000E+01
    -11.966  0.0000E+00  0.0000E+00  0.6000E+01  0.6000E+01
    -11.838  0.0000E+00  0.0000E+00  0.6000E+01  0.6000E+01
    -11.709  0.0000E+00  0.0000E+00  0.6000E+01  0.6000E+01
    -11.580  0.0000E+00  0.0000E+00  0.6000E+01  0.6000E+01
    -11.452  0.0000E+00  0.0000E+00  0.6000E+01  0.6000E+01
    -11.323  0.0000E+00  0.0000E+00  0.6000E+01  0.6000E+01
    -11.194  0.0000E+00  0.0000E+00  0.6000E+01  0.6000E+01
    -11.066  0.0000E+00  0.0000E+00  0.6000E+01  0.6000E+01
    -10.937  0.0000E+00  0.0000E+00  0.6000E+01  0.6000E+01
    -10.808  0.0000E+00  0.0000E+00  0.6000E+01  0.6000E+01
    -10.680  0.0000E+00  0.0000E+00  0.6000E+01  0.6000E+01
    -10.551  0.0000E+00  0.0000E+00  0.6000E+01  0.6000E+01
    -10.422  0.0000E+00  0.0000E+00  0.6000E+01  0.6000E+01
    -10.294  0.0000E+00  0.0000E+00  0.6000E+01  0.6000E+01
    -10.165  0.0000E+00  0.0000E+00  0.6000E+01  0.6000E+01
    -10.036  0.0000E+00  0.0000E+00  0.6000E+01  0.6000E+01
     -9.908  0.0000E+00  0.0000E+00  0.6000E+01  0.6000E+01
     -9.779  0.0000E+00  0.0000E+00  0.6000E+01  0.6000E+01
     -9.650  0.0000E+00  0.0000E+00  0.6000E+01  0.6000E+01
     -9.521  0.0000E+00  0.0000E+00  0.6000E+01  0.6000E+01
     -9.393  0.0000E+00  0.0000E+00  0.6000E+01  0.6000E+01
     -9.264  0.0000E+00  0.0000E+00  0.6000E+01  0.6000E+01
     -9.135  0.0000E+00  0.0000E+00  0.6000E+01  0.6000E+01
     -9.007  0.0000E+00  0.0000E+00  0.6000E+01  0.6000E+01
     -8.878  0.0000E+00  0.0000E+00  0.6000E+01  0.6000E+01
     -8.749  0.0000E+00  0.0000E+00  0.6000E+01  0.6000E+01
     -8.621  0.0000E+00  0.0000E+00  0.6000E+01  0.6000E+01
     -8.492  0.0000E+00  0.0000E+00  0.6000E+01  0.6000E+01
     -8.363  0.0000E+00  0.0000E+00  0.6000E+01  0.6000E+01
     -8.235  0.0000E+00  0.0000E+00  0.6000E+01  0.6000E+01
     -8.106  0.0000E+00  0.0000E+00  0.6000E+01  0.6000E+01
     -7.977  0.0000E+00  0.0000E+00  0.6000E+01  0.6000E+01
     -7.849  0.0000E+00  0.0000E+00  0.6000E+01  0.6000E+01
     -7.720  0.0000E+00  0.0000E+00  0.6000E+01  0.6000E+01
     -7.591  0.0000E+00  0.0000E+00  0.6000E+01  0.6000E+01
     -7.463  0.0000E+00  0.0000E+00  0.6000E+01  0.6000E+01
     -7.334  0.0000E+00  0.0000E+00  0.6000E+01  0.6000E+01
     -7.205  0.0000E+00  0.0000E+00  0.6000E+01  0.6000E+01
     -7.077  0.0000E+00  0.0000E+00  0.6000E+01  0.6000E+01
     -6.948  0.0000E+00  0.0000E+00  0.6000E+01  0.6000E+01
     -6.819  0.0000E+00  0.0000E+00  0.6000E+01  0.6000E+01
     -6.691  0.0000E+00  0.0000E+00  0.6000E+01  0.6000E+01
     -6.562  0.0000E+00  0.0000E+00  0.6000E+01  0.6000E+01
     -6.433  0.0000E+00  0.0000E+00  0.6000E+01  0.6000E+01
     -6.304  0.0000E+00  0.0000E+00  0.6000E+01  0.6000E+01
     -6.176  0.0000E+00  0.0000E+00  0.6000E+01  0.6000E+01
     -6.047  0.0000E+00  0.0000E+00  0.6000E+01  0.6000E+01
     -5.918  0.0000E+00  0.0000E+00  0.6000E+01  0.6000E+01
     -5.790  0.0000E+00  0.0000E+00  0.6000E+01  0.6000E+01
     -5.661  0.0000E+00  0.0000E+00  0.6000E+01  0.6000E+01
     -5.532  0.0000E+00  0.0000E+00  0.6000E+01  0.6000E+01
     -5.404  0.0000E+00  0.0000E+00  0.6000E+01  0.6000E+01
     -5.275  0.0000E+00  0.0000E+00  0.6000E+01  0.6000E+01
     -5.146  0.0000E+00  0.0000E+00  0.6000E+01  0.6000E+01
     -5.018  0.0000E+00  0.0000E+00  0.6000E+01  0.6000E+01
     -4.889  0.0000E+00  0.0000E+00  0.6000E+01  0.6000E+01
     -4.760  0.0000E+00  0.0000E+00  0.6000E+01  0.6000E+01
     -4.632  0.0000E+00  0.0000E+00  0.6000E+01  0.6000E+01
     -4.503  0.0000E+00  0.0000E+00  0.6000E+01  0.6000E+01
     -4.374  0.0000E+00  0.0000E+00  0.6000E+01  0.6000E+01
     -4.246  0.0000E+00  0.0000E+00  0.6000E+01  0.6000E+01
     -4.117  0.0000E+00  0.0000E+00  0.6000E+01  0.6000E+01
     -3.988  0.0000E+00  0.0000E+00  0.6000E+01  0.6000E+01
     -3.860  0.0000E+00  0.0000E+00  0.6000E+01  0.6000E+01
     -3.731  0.0000E+00  0.0000E+00  0.6000E+01  0.6000E+01
     -3.602  0.0000E+00  0.0000E+00  0.6000E+01  0.6000E+01
     -3.474  0.0000E+00  0.0000E+00  0.6000E+01  0.6000E+01
     -3.345  0.0000E+00  0.0000E+00  0.6000E+01  0.6000E+01
     -3.216  0.0000E+00  0.0000E+00  0.6000E+01  0.6000E+01
     -3.088  0.0000E+00  0.0000E+00  0.6000E+01  0.6000E+01
     -2.959  0.0000E+00  0.0000E+00  0.6000E+01  0.6000E+01
     -2.830  0.0000E+00  0.0000E+00  0.6000E+01  0.6000E+01
     -2.701  0.0000E+00  0.0000E+00  0.6000E+01  0.6000E+01
     -2.573  0.0000E+00  0.0000E+00  0.6000E+01  0.6000E+01
     -2.444  0.0000E+00  0.0000E+00  0.6000E+01  0.6000E+01
     -2.315  0.0000E+00  0.0000E+00  0.6000E+01  0.6000E+01
     -2.187  0.1448E-06  0.0000E+00  0.6000E+01  0.6000E+01
     -2.058  0.6443E-02  0.6140E-02  0.6000E+01  0.6000E+01
     -1.929  0.2565E-01  0.2504E-01  0.6002E+01  0.6002E+01
     -1.801  0.5540E-01  0.5475E-01  0.6007E+01  0.6007E+01
     -1.672  0.7575E-01  0.7542E-01  0.6016E+01  0.6016E+01
     -1.543  0.8289E-01  0.8280E-01  0.6026E+01  0.6026E+01
     -1.415  0.8975E-01  0.8952E-01  0.6037E+01  0.6037E+01
     -1.286  0.1029E+00  0.1025E+00  0.6050E+01  0.6049E+01
     -1.157  0.1197E+00  0.1193E+00  0.6064E+01  0.6064E+01
     -1.029  0.1376E+00  0.1371E+00  0.6081E+01  0.6080E+01
     -0.900  0.1544E+00  0.1541E+00  0.6099E+01  0.6099E+01
     -0.771  0.1653E+00  0.1651E+00  0.6120E+01  0.6120E+01
     -0.643  0.1851E+00  0.1846E+00  0.6143E+01  0.6142E+01
     -0.514  0.2083E+00  0.2079E+00  0.6168E+01  0.6167E+01
     -0.385  0.2294E+00  0.2289E+00  0.6196E+01  0.6195E+01
     -0.257  0.2511E+00  0.2506E+00  0.6227E+01  0.6226E+01
     -0.128  0.2780E+00  0.2772E+00  0.6261E+01  0.6260E+01
      0.001  0.3228E+00  0.3215E+00  0.6299E+01  0.6298E+01
      0.129  0.3852E+00  0.3836E+00  0.6345E+01  0.6343E+01
      0.258  0.6689E+00  0.6589E+00  0.6407E+01  0.6405E+01
      0.387  0.1164E+01  0.1174E+01  0.6528E+01  0.6525E+01
      0.516  0.9468E+00  0.9495E+00  0.6658E+01  0.6656E+01
      0.644  0.6050E+00  0.6025E+00  0.6770E+01  0.6768E+01
      0.773  0.7391E+00  0.7349E+00  0.6857E+01  0.6854E+01
      0.902  0.1015E+01  0.1009E+01  0.6969E+01  0.6966E+01
      1.030  0.1288E+01  0.1281E+01  0.7116E+01  0.7113E+01
      1.159  0.2453E+01  0.2443E+01  0.7338E+01  0.7332E+01
      1.288  0.2002E+01  0.2019E+01  0.7645E+01  0.7640E+01
      1.416  0.1995E+01  0.2023E+01  0.7878E+01  0.7872E+01
      1.545  0.8751E+00  0.8895E+00  0.8033E+01  0.8031E+01
      1.674  0.5468E+00  0.5502E+00  0.8116E+01  0.8115E+01
      1.802  0.4484E+00  0.4488E+00  0.8182E+01  0.8181E+01
      1.931  0.4557E+00  0.4548E+00  0.8238E+01  0.8237E+01
      2.060  0.1859E+01  0.1831E+01  0.8368E+01  0.8362E+01
      2.188  0.4758E+01  0.4736E+01  0.8788E+01  0.8775E+01
      2.317  0.2232E+01  0.2270E+01  0.9241E+01  0.9234E+01
      2.446  0.1317E+01  0.1305E+01  0.9446E+01  0.9442E+01
      2.574  0.1597E+01  0.1590E+01  0.9631E+01  0.9626E+01
      2.703  0.1823E+01  0.1821E+01  0.9853E+01  0.9848E+01
      2.832  0.2338E+01  0.2432E+01  0.1012E+02  0.1012E+02
      2.960  0.3663E+01  0.3701E+01  0.1050E+02  0.1049E+02
      3.089  0.2614E+01  0.2632E+01  0.1089E+02  0.1088E+02
      3.218  0.2025E+01  0.2034E+01  0.1117E+02  0.1117E+02
      3.346  0.1622E+01  0.1631E+01  0.1141E+02  0.1140E+02
      3.475  0.9452E+00  0.9739E+00  0.1158E+02  0.1158E+02
      3.604  0.7453E+00  0.7505E+00  0.1169E+02  0.1169E+02
      3.732  0.5974E+00  0.5990E+00  0.1178E+02  0.1177E+02
      3.861  0.5221E+00  0.5238E+00  0.1185E+02  0.1185E+02
      3.990  0.3984E+00  0.3995E+00  0.1191E+02  0.1191E+02
      4.119  0.3110E+00  0.3127E+00  0.1196E+02  0.1196E+02
      4.247  0.2244E+00  0.2209E+00  0.1199E+02  0.1199E+02
      4.376  0.5076E+00  0.4968E+00  0.1203E+02  0.1203E+02
      4.505  0.7414E+00  0.7338E+00  0.1211E+02  0.1211E+02
      4.633  0.1020E+01  0.1015E+01  0.1222E+02  0.1222E+02
      4.762  0.1257E+01  0.1253E+01  0.1237E+02  0.1237E+02
      4.891  0.1496E+01  0.1491E+01  0.1255E+02  0.1254E+02
      5.019  0.1759E+01  0.1754E+01  0.1276E+02  0.1275E+02
      5.148  0.1936E+01  0.1933E+01  0.1300E+02  0.1300E+02
      5.277  0.2715E+01  0.2718E+01  0.1327E+02  0.1326E+02
      5.405  0.2284E+01  0.2292E+01  0.1359E+02  0.1359E+02
      5.534  0.1989E+01  0.1993E+01  0.1386E+02  0.1386E+02
      5.663  0.1871E+01  0.1875E+01  0.1412E+02  0.1411E+02
      5.791  0.1572E+01  0.1570E+01  0.1432E+02  0.1432E+02
      5.920  0.2478E+01  0.2444E+01  0.1457E+02  0.1457E+02
      6.049  0.6242E+01  0.6521E+01  0.1517E+02  0.1516E+02
      6.177  0.2554E+01  0.2539E+01  0.1556E+02  0.1555E+02
      6.306  0.1481E+01  0.1504E+01  0.1580E+02  0.1579E+02
      6.435  0.6466E+00  0.6662E+00  0.1593E+02  0.1593E+02
      6.563  0.2239E+00  0.2299E+00  0.1599E+02  0.1599E+02
      6.692  0.1264E-01  0.1281E-01  0.1600E+02  0.1600E+02
      6.821  0.6202E-02  0.6327E-02  0.1600E+02  0.1600E+02
      6.949  0.2033E-02  0.2106E-02  0.1600E+02  0.1600E+02
      7.078  0.1308E-03  0.1497E-03  0.1600E+02  0.1600E+02
      7.207  0.0000E+00  0.0000E+00  0.1600E+02  0.1600E+02
      7.336  0.0000E+00  0.0000E+00  0.1600E+02  0.1600E+02
      7.464  0.0000E+00  0.0000E+00  0.1600E+02  0.1600E+02
      7.593  0.0000E+00  0.0000E+00  0.1600E+02  0.1600E+02
      7.722  0.0000E+00  0.0000E+00  0.1600E+02  0.1600E+02
      7.850  0.0000E+00  0.0000E+00  0.1600E+02  0.1600E+02
      7.979  0.0000E+00  0.0000E+00  0.1600E+02  0.1600E+02
      8.108  0.0000E+00  0.0000E+00  0.1600E+02  0.1600E+02
      8.236  0.0000E+00  0.0000E+00  0.1600E+02  0.1600E+02
      8.365  0.0000E+00  0.0000E+00  0.1600E+02  0.1600E+02
      8.494  0.0000E+00  0.0000E+00  0.1600E+02  0.1600E+02
      8.622  0.0000E+00  0.0000E+00  0.1600E+02  0.1600E+02
      8.751  0.0000E+00  0.0000E+00  0.1600E+02  0.1600E+02
      8.880  0.0000E+00  0.0000E+00  0.1600E+02  0.1600E+02
      8.87966273    -29.72410637  301      3.13790930      1.00000000
    -29.724  0.0000E+00  0.0000E+00  0.0000E+00  0.0000E+00  0.0000E+00  0.0000E+00  0.0000E+00  0.0000E+00  0.0000E+00  0.0000E+00  0.0000E+00  0.0000E+00  0.0000E+00  0.0000E+00  0.0000E+00  0.0000E+00  0.0000E+00  0.0000E+00
    -29.595  0.0000E+00  0.0000E+00  0.0000E+00  0.0000E+00  0.0000E+00  0.0000E+00  0.0000E+00  0.0000E+00  0.0000E+00  0.0000E+00  0.0000E+00  0.0000E+00  0.0000E+00  0.0000E+00  0.0000E+00  0.0000E+00  0.0000E+00  0.0000E+00
    -29.467  0.0000E+00  0.0000E+00  0.0000E+00  0.0000E+00  0.0000E+00  0.0000E+00  0.0000E+00  0.0000E+00  0.0000E+00  0.0000E+00  0.0000E+00  0.0000E+00  0.0000E+00  0.0000E+00  0.0000E+00  0.0000E+00  0.0000E+00  0.0000E+00
    -29.338  0.0000E+00  0.0000E+00  0.0000E+00  0.0000E+00  0.0000E+00  0.0000E+00  0.0000E+00  0.0000E+00  0.0000E+00  0.0000E+00  0.0000E+00  0.0000E+00  0.0000E+00  0.0000E+00  0.0000E+00  0.0000E+00  0.0000E+00  0.0000E+00
    -29.209  0.0000E+00  0.0000E+00  0.0000E+00  0.0000E+00  0.0000E+00  0.0000E+00  0.0000E+00  0.0000E+00  0.0000E+00  0.0000E+00  0.0000E+00  0.0000E+00  0.0000E+00  0.0000E+00  0.0000E+00  0.0000E+00  0.0000E+00  0.0000E+00
    -29.081  0.0000E+00  0.0000E+00  0.0000E+00  0.0000E+00  0.0000E+00  0.0000E+00  0.0000E+00  0.0000E+00  0.0000E+00  0.0000E+00  0.0000E+00  0.0000E+00  0.0000E+00  0.0000E+00  0.0000E+00  0.0000E+00  0.0000E+00  0.0000E+00
    -28.952  0.0000E+00  0.0000E+00  0.0000E+00  0.0000E+00  0.0000E+00  0.0000E+00  0.0000E+00  0.0000E+00  0.0000E+00  0.0000E+00  0.0000E+00  0.0000E+00  0.0000E+00  0.0000E+00  0.0000E+00  0.0000E+00  0.0000E+00  0.0000E+00
    -28.823  0.0000E+00  0.0000E+00  0.0000E+00  0.0000E+00  0.0000E+00  0.0000E+00  0.0000E+00  0.0000E+00  0.0000E+00  0.0000E+00  0.0000E+00  0.0000E+00  0.0000E+00  0.0000E+00  0.0000E+00  0.0000E+00  0.0000E+00  0.0000E+00
    -28.695  0.0000E+00  0.0000E+00  0.0000E+00  0.0000E+00  0.0000E+00  0.0000E+00  0.0000E+00  0.0000E+00  0.0000E+00  0.0000E+00  0.0000E+00  0.0000E+00  0.0000E+00  0.0000E+00  0.0000E+00  0.0000E+00  0.0000E+00  0.0000E+00
    -28.566  0.0000E+00  0.0000E+00  0.0000E+00  0.0000E+00  0.0000E+00  0.0000E+00  0.0000E+00  0.0000E+00  0.0000E+00  0.0000E+00  0.0000E+00  0.0000E+00  0.0000E+00  0.0000E+00  0.0000E+00  0.0000E+00  0.0000E+00  0.0000E+00
    -28.437  0.0000E+00  0.0000E+00  0.0000E+00  0.0000E+00  0.0000E+00  0.0000E+00  0.0000E+00  0.0000E+00  0.0000E+00  0.0000E+00  0.0000E+00  0.0000E+00  0.0000E+00  0.0000E+00  0.0000E+00  0.0000E+00  0.0000E+00  0.0000E+00
    -28.309  0.0000E+00  0.0000E+00  0.0000E+00  0.0000E+00  0.0000E+00  0.0000E+00  0.0000E+00  0.0000E+00  0.0000E+00  0.0000E+00  0.0000E+00  0.0000E+00  0.0000E+00  0.0000E+00  0.0000E+00  0.0000E+00  0.0000E+00  0.0000E+00
    -28.180  0.0000E+00  0.0000E+00  0.0000E+00  0.0000E+00  0.0000E+00  0.0000E+00  0.0000E+00  0.0000E+00  0.0000E+00  0.0000E+00  0.0000E+00  0.0000E+00  0.0000E+00  0.0000E+00  0.0000E+00  0.0000E+00  0.0000E+00  0.0000E+00
    -28.051  0.0000E+00  0.0000E+00  0.0000E+00  0.0000E+00  0.0000E+00  0.0000E+00  0.0000E+00  0.0000E+00  0.0000E+00  0.0000E+00  0.0000E+00  0.0000E+00  0.0000E+00  0.0000E+00  0.0000E+00  0.0000E+00  0.0000E+00  0.0000E+00
    -27.923  0.2043E-03  0.1888E-03  0.9737E+00  0.9215E+00  0.9737E+00  0.9215E+00  0.9737E+00  0.9215E+00  0.8522E-04  0.7857E-04  0.8522E-04  0.7857E-04  0.3520E-04  0.3229E-04  0.8522E-04  0.7857E-04  0.3520E-04  0.3229E-04
    -27.794  0.9227E-03  0.9265E-03  0.1917E+01  0.1893E+01  0.1917E+01  0.1893E+01  0.1917E+01  0.1893E+01  0.2343E-03  0.2295E-03  0.2343E-03  0.2295E-03  0.9535E-04  0.9610E-04  0.2343E-03  0.2295E-03  0.9535E-04  0.9610E-04
    -27.665  0.5965E-03  0.6321E-03  0.2140E+01  0.2153E+01  0.2140E+01  0.2153E+01  0.2140E+01  0.2153E+01  0.5910E-03  0.5900E-03  0.5910E-03  0.5900E-03  0.4758E-04  0.4874E-04  0.5910E-03  0.5900E-03  0.4758E-04  0.4874E-04
    -27.537  0.4894E-03  0.4530E-03  0.2235E+01  0.2202E+01  0.2235E+01  0.2202E+01  0.2235E+01  0.2202E+01  0.5598E-03  0.5570E-03  0.5598E-03  0.5570E-03  0.1986E-04  0.1995E-04  0.5598E-03  0.5570E-03  0.1986E-04  0.1995E-04
    -27.408  0.2345E-03  0.2502E-03  0.3272E+01  0.3554E+01  0.3272E+01  0.3554E+01  0.3272E+01  0.3554E+01  0.2821E-03  0.2986E-03  0.2821E-03  0.2986E-03  0.7597E-05  0.8024E-05  0.2821E-03  0.2986E-03  0.7597E-05  0.8024E-05
    -27.279  0.0000E+00  0.0000E+00  0.0000E+00  0.0000E+00  0.0000E+00  0.0000E+00  0.0000E+00  0.0000E+00  0.0000E+00  0.0000E+00  0.0000E+00  0.0000E+00  0.0000E+00  0.0000E+00  0.0000E+00  0.0000E+00  0.0000E+00  0.0000E+00
    -27.151  0.0000E+00  0.0000E+00  0.0000E+00  0.0000E+00  0.0000E+00  0.0000E+00  0.0000E+00  0.0000E+00  0.0000E+00  0.0000E+00  0.0000E+00  0.0000E+00  0.0000E+00  0.0000E+00  0.0000E+00  0.0000E+00  0.0000E+00  0.0000E+00
    -27.022  0.0000E+00  0.0000E+00  0.0000E+00  0.0000E+00  0.0000E+00  0.0000E+00  0.0000E+00  0.0000E+00  0.0000E+00  0.0000E+00  0.0000E+00  0.0000E+00  0.0000E+00  0.0000E+00  0.0000E+00  0.0000E+00  0.0000E+00  0.0000E+00
    -26.893  0.0000E+00  0.0000E+00  0.0000E+00  0.0000E+00  0.0000E+00  0.0000E+00  0.0000E+00  0.0000E+00  0.0000E+00  0.0000E+00  0.0000E+00  0.0000E+00  0.0000E+00  0.0000E+00  0.0000E+00  0.0000E+00  0.0000E+00  0.0000E+00
    -26.764  0.0000E+00  0.0000E+00  0.0000E+00  0.0000E+00  0.0000E+00  0.0000E+00  0.0000E+00  0.0000E+00  0.0000E+00  0.0000E+00  0.0000E+00  0.0000E+00  0.0000E+00  0.0000E+00  0.0000E+00  0.0000E+00  0.0000E+00  0.0000E+00
    -26.636  0.0000E+00  0.0000E+00  0.0000E+00  0.0000E+00  0.0000E+00  0.0000E+00  0.0000E+00  0.0000E+00  0.0000E+00  0.0000E+00  0.0000E+00  0.0000E+00  0.0000E+00  0.0000E+00  0.0000E+00  0.0000E+00  0.0000E+00  0.0000E+00
    -26.507  0.0000E+00  0.0000E+00  0.0000E+00  0.0000E+00  0.0000E+00  0.0000E+00  0.0000E+00  0.0000E+00  0.0000E+00  0.0000E+00  0.0000E+00  0.0000E+00  0.0000E+00  0.0000E+00  0.0000E+00  0.0000E+00  0.0000E+00  0.0000E+00
    -26.378  0.0000E+00  0.0000E+00  0.0000E+00  0.0000E+00  0.0000E+00  0.0000E+00  0.0000E+00  0.0000E+00  0.0000E+00  0.0000E+00  0.0000E+00  0.0000E+00  0.0000E+00  0.0000E+00  0.0000E+00  0.0000E+00  0.0000E+00  0.0000E+00
    -26.250  0.0000E+00  0.0000E+00  0.0000E+00  0.0000E+00  0.0000E+00  0.0000E+00  0.0000E+00  0.0000E+00  0.0000E+00  0.0000E+00  0.0000E+00  0.0000E+00  0.0000E+00  0.0000E+00  0.0000E+00  0.0000E+00  0.0000E+00  0.0000E+00
    -26.121  0.0000E+00  0.0000E+00  0.0000E+00  0.0000E+00  0.0000E+00  0.0000E+00  0.0000E+00  0.0000E+00  0.0000E+00  0.0000E+00  0.0000E+00  0.0000E+00  0.0000E+00  0.0000E+00  0.0000E+00  0.0000E+00  0.0000E+00  0.0000E+00
    -25.992  0.0000E+00  0.0000E+00  0.0000E+00  0.0000E+00  0.0000E+00  0.0000E+00  0.0000E+00  0.0000E+00  0.0000E+00  0.0000E+00  0.0000E+00  0.0000E+00  0.0000E+00  0.0000E+00  0.0000E+00  0.0000E+00  0.0000E+00  0.0000E+00
    -25.864  0.0000E+00  0.0000E+00  0.0000E+00  0.0000E+00  0.0000E+00  0.0000E+00  0.0000E+00  0.0000E+00  0.0000E+00  0.0000E+00  0.0000E+00  0.0000E+00  0.0000E+00  0.0000E+00  0.0000E+00  0.0000E+00  0.0000E+00  0.0000E+00
    -25.735  0.0000E+00  0.0000E+00  0.0000E+00  0.0000E+00  0.0000E+00  0.0000E+00  0.0000E+00  0.0000E+00  0.0000E+00  0.0000E+00  0.0000E+00  0.0000E+00  0.0000E+00  0.0000E+00  0.0000E+00  0.0000E+00  0.0000E+00  0.0000E+00
    -25.606  0.0000E+00  0.0000E+00  0.0000E+00  0.0000E+00  0.0000E+00  0.0000E+00  0.0000E+00  0.0000E+00  0.0000E+00  0.0000E+00  0.0000E+00  0.0000E+00  0.0000E+00  0.0000E+00  0.0000E+00  0.0000E+00  0.0000E+00  0.0000E+00
    -25.478  0.0000E+00  0.0000E+00  0.0000E+00  0.0000E+00  0.0000E+00  0.0000E+00  0.0000E+00  0.0000E+00  0.0000E+00  0.0000E+00  0.0000E+00  0.0000E+00  0.0000E+00  0.0000E+00  0.0000E+00  0.0000E+00  0.0000E+00  0.0000E+00
    -25.349  0.0000E+00  0.0000E+00  0.0000E+00  0.0000E+00  0.0000E+00  0.0000E+00  0.0000E+00  0.0000E+00  0.0000E+00  0.0000E+00  0.0000E+00  0.0000E+00  0.0000E+00  0.0000E+00  0.0000E+00  0.0000E+00  0.0000E+00  0.0000E+00
    -25.220  0.0000E+00  0.0000E+00  0.0000E+00  0.0000E+00  0.0000E+00  0.0000E+00  0.0000E+00  0.0000E+00  0.0000E+00  0.0000E+00  0.0000E+00  0.0000E+00  0.0000E+00  0.0000E+00  0.0000E+00  0.0000E+00  0.0000E+00  0.0000E+00
    -25.092  0.0000E+00  0.0000E+00  0.0000E+00  0.0000E+00  0.0000E+00  0.0000E+00  0.0000E+00  0.0000E+00  0.0000E+00  0.0000E+00  0.0000E+00  0.0000E+00  0.0000E+00  0.0000E+00  0.0000E+00  0.0000E+00  0.0000E+00  0.0000E+00
    -24.963  0.0000E+00  0.0000E+00  0.0000E+00  0.0000E+00  0.0000E+00  0.0000E+00  0.0000E+00  0.0000E+00  0.0000E+00  0.0000E+00  0.0000E+00  0.0000E+00  0.0000E+00  0.0000E+00  0.0000E+00  0.0000E+00  0.0000E+00  0.0000E+00
    -24.834  0.0000E+00  0.0000E+00  0.0000E+00  0.0000E+00  0.0000E+00  0.0000E+00  0.0000E+00  0.0000E+00  0.0000E+00  0.0000E+00  0.0000E+00  0.0000E+00  0.0000E+00  0.0000E+00  0.0000E+00  0.0000E+00  0.0000E+00  0.0000E+00
    -24.706  0.0000E+00  0.0000E+00  0.0000E+00  0.0000E+00  0.0000E+00  0.0000E+00  0.0000E+00  0.0000E+00  0.0000E+00  0.0000E+00  0.0000E+00  0.0000E+00  0.0000E+00  0.0000E+00  0.0000E+00  0.0000E+00  0.0000E+00  0.0000E+00
    -24.577  0.0000E+00  0.0000E+00  0.0000E+00  0.0000E+00  0.0000E+00  0.0000E+00  0.0000E+00  0.0000E+00  0.0000E+00  0.0000E+00  0.0000E+00  0.0000E+00  0.0000E+00  0.0000E+00  0.0000E+00  0.0000E+00  0.0000E+00  0.0000E+00
    -24.448  0.0000E+00  0.0000E+00  0.0000E+00  0.0000E+00  0.0000E+00  0.0000E+00  0.0000E+00  0.0000E+00  0.0000E+00  0.0000E+00  0.0000E+00  0.0000E+00  0.0000E+00  0.0000E+00  0.0000E+00  0.0000E+00  0.0000E+00  0.0000E+00
    -24.320  0.0000E+00  0.0000E+00  0.0000E+00  0.0000E+00  0.0000E+00  0.0000E+00  0.0000E+00  0.0000E+00  0.0000E+00  0.0000E+00  0.0000E+00  0.0000E+00  0.0000E+00  0.0000E+00  0.0000E+00  0.0000E+00  0.0000E+00  0.0000E+00
    -24.191  0.0000E+00  0.0000E+00  0.0000E+00  0.0000E+00  0.0000E+00  0.0000E+00  0.0000E+00  0.0000E+00  0.0000E+00  0.0000E+00  0.0000E+00  0.0000E+00  0.0000E+00  0.0000E+00  0.0000E+00  0.0000E+00  0.0000E+00  0.0000E+00
    -24.062  0.0000E+00  0.0000E+00  0.0000E+00  0.0000E+00  0.0000E+00  0.0000E+00  0.0000E+00  0.0000E+00  0.0000E+00  0.0000E+00  0.0000E+00  0.0000E+00  0.0000E+00  0.0000E+00  0.0000E+00  0.0000E+00  0.0000E+00  0.0000E+00
    -23.934  0.0000E+00  0.0000E+00  0.0000E+00  0.0000E+00  0.0000E+00  0.0000E+00  0.0000E+00  0.0000E+00  0.0000E+00  0.0000E+00  0.0000E+00  0.0000E+00  0.0000E+00  0.0000E+00  0.0000E+00  0.0000E+00  0.0000E+00  0.0000E+00
    -23.805  0.0000E+00  0.0000E+00  0.0000E+00  0.0000E+00  0.0000E+00  0.0000E+00  0.0000E+00  0.0000E+00  0.0000E+00  0.0000E+00  0.0000E+00  0.0000E+00  0.0000E+00  0.0000E+00  0.0000E+00  0.0000E+00  0.0000E+00  0.0000E+00
    -23.676  0.0000E+00  0.0000E+00  0.0000E+00  0.0000E+00  0.0000E+00  0.0000E+00  0.0000E+00  0.0000E+00  0.0000E+00  0.0000E+00  0.0000E+00  0.0000E+00  0.0000E+00  0.0000E+00  0.0000E+00  0.0000E+00  0.0000E+00  0.0000E+00
    -23.548  0.0000E+00  0.0000E+00  0.0000E+00  0.0000E+00  0.0000E+00  0.0000E+00  0.0000E+00  0.0000E+00  0.0000E+00  0.0000E+00  0.0000E+00  0.0000E+00  0.0000E+00  0.0000E+00  0.0000E+00  0.0000E+00  0.0000E+00  0.0000E+00
    -23.419  0.0000E+00  0.0000E+00  0.0000E+00  0.0000E+00  0.0000E+00  0.0000E+00  0.0000E+00  0.0000E+00  0.0000E+00  0.0000E+00  0.0000E+00  0.0000E+00  0.0000E+00  0.0000E+00  0.0000E+00  0.0000E+00  0.0000E+00  0.0000E+00
    -23.290  0.0000E+00  0.0000E+00  0.0000E+00  0.0000E+00  0.0000E+00  0.0000E+00  0.0000E+00  0.0000E+00  0.0000E+00  0.0000E+00  0.0000E+00  0.0000E+00  0.0000E+00  0.0000E+00  0.0000E+00  0.0000E+00  0.0000E+00  0.0000E+00