   8   8   1   0
  0.2161532E+02  0.4500721E-09  0.4500721E-09  0.8536651E-09  0.5000000E-15
  1.000000000000000E-004
  CAR 
 unknown system                          
     12.09425096    -31.18119794  301      5.44998524      1.00000000
    -31.181  0.0000E+00  0.0000E+00  0.0000E+00  0.0000E+00
    -31.037  0.0000E+00  0.0000E+00  0.0000E+00  0.0000E+00
    -30.893  0.0000E+00  0.0000E+00  0.0000E+00  0.0000E+00
    -30.748  0.0000E+00  0.0000E+00  0.0000E+00  0.0000E+00
    -30.604  0.0000E+00  0.0000E+00  0.0000E+00  0.0000E+00
    -30.460  0.0000E+00  0.0000E+00  0.0000E+00  0.0000E+00
    -30.316  0.0000E+00  0.0000E+00  0.0000E+00  0.0000E+00
    -30.171  0.0000E+00  0.0000E+00  0.0000E+00  0.0000E+00
    -30.027  0.0000E+00  0.0000E+00  0.0000E+00  0.0000E+00
    -29.883  0.0000E+00  0.0000E+00  0.0000E+00  0.0000E+00
    -29.739  0.3517E-03  0.3529E-03  0.5073E-04  0.5091E-04
    -29.594  0.5942E-02  0.5963E-02  0.9079E-03  0.9111E-03
    -29.450  0.1055E+00  0.1059E+00  0.1613E-01  0.1619E-01
    -29.306  0.1650E+01  0.1655E+01  0.2541E+00  0.2549E+00
    -29.162  0.8256E+01  0.8260E+01  0.1445E+01  0.1446E+01
    -29.017  0.3556E+01  0.3547E+01  0.1958E+01  0.1958E+01
    -28.873  0.2746E+00  0.2737E+00  0.1998E+01  0.1998E+01
    -28.729  0.0000E+00  0.0000E+00  0.2000E+01  0.2000E+01
    -28.585  0.0000E+00  0.0000E+00  0.2000E+01  0.2000E+01
    -28.440  0.0000E+00  0.0000E+00  0.2000E+01  0.2000E+01
    -28.296  0.0000E+00  0.0000E+00  0.2000E+01  0.2000E+01
    -28.152  0.0000E+00  0.0000E+00  0.2000E+01  0.2000E+01
    -28.008  0.0000E+00  0.0000E+00  0.2000E+01  0.2000E+01
    -27.863  0.0000E+00  0.0000E+00  0.2000E+01  0.2000E+01
    -27.719  0.0000E+00  0.0000E+00  0.2000E+01  0.2000E+01
    -27.575  0.0000E+00  0.0000E+00  0.2000E+01  0.2000E+01
    -27.431  0.0000E+00  0.0000E+00  0.2000E+01  0.2000E+01
    -27.286  0.0000E+00  0.0000E+00  0.2000E+01  0.2000E+01
    -27.142  0.0000E+00  0.0000E+00  0.2000E+01  0.2000E+01
    -26.998  0.0000E+00  0.0000E+00  0.2000E+01  0.2000E+01
    -26.854  0.0000E+00  0.0000E+00  0.2000E+01  0.2000E+01
    -26.709  0.0000E+00  0.0000E+00  0.2000E+01  0.2000E+01
    -26.565  0.0000E+00  0.0000E+00  0.2000E+01  0.2000E+01
    -26.421  0.0000E+00  0.0000E+00  0.2000E+01  0.2000E+01
    -26.277  0.0000E+00  0.0000E+00  0.2000E+01  0.2000E+01
    -26.132  0.0000E+00  0.0000E+00  0.2000E+01  0.2000E+01
    -25.988  0.0000E+00  0.0000E+00  0.2000E+01  0.2000E+01
    -25.844  0.0000E+00  0.0000E+00  0.2000E+01  0.2000E+01
    -25.700  0.0000E+00  0.0000E+00  0.2000E+01  0.2000E+01
    -25.555  0.0000E+00  0.0000E+00  0.2000E+01  0.2000E+01
    -25.411  0.0000E+00  0.0000E+00  0.2000E+01  0.2000E+01
    -25.267  0.0000E+00  0.0000E+00  0.2000E+01  0.2000E+01
    -25.123  0.0000E+00  0.0000E+00  0.2000E+01  0.2000E+01
    -24.978  0.0000E+00  0.0000E+00  0.2000E+01  0.2000E+01
    -24.834  0.0000E+00  0.0000E+00  0.2000E+01  0.2000E+01
    -24.690  0.0000E+00  0.0000E+00  0.2000E+01  0.2000E+01
    -24.546  0.0000E+00  0.0000E+00  0.2000E+01  0.2000E+01
    -24.401  0.0000E+00  0.0000E+00  0.2000E+01  0.2000E+01
    -24.257  0.0000E+00  0.0000E+00  0.2000E+01  0.2000E+01
    -24.113  0.0000E+00  0.0000E+00  0.2000E+01  0.2000E+01
    -23.969  0.0000E+00  0.0000E+00  0.2000E+01  0.2000E+01
    -23.824  0.0000E+00  0.0000E+00  0.2000E+01  0.2000E+01
    -23.680  0.0000E+00  0.0000E+00  0.2000E+01  0.2000E+01
    -23.536  0.0000E+00  0.0000E+00  0.2000E+01  0.2000E+01
    -23.392  0.0000E+00  0.0000E+00  0.2000E+01  0.2000E+01
    -23.247  0.0000E+00  0.0000E+00  0.2000E+01  0.2000E+01
    -23.103  0.0000E+00  0.0000E+00  0.2000E+01  0.2000E+01
    -22.959  0.0000E+00  0.0000E+00  0.2000E+01  0.2000E+01
    -22.815  0.0000E+00  0.0000E+00  0.2000E+01  0.2000E+01
    -22.670  0.0000E+00  0.0000E+00  0.2000E+01  0.2000E+01
    -22.526  0.0000E+00  0.0000E+00  0.2000E+01  0.2000E+01
    -22.382  0.0000E+00  0.0000E+00  0.2000E+01  0.2000E+01
    -22.238  0.0000E+00  0.0000E+00  0.2000E+01  0.2000E+01
    -22.093  0.0000E+00  0.0000E+00  0.2000E+01  0.2000E+01
    -21.949  0.0000E+00  0.0000E+00  0.2000E+01  0.2000E+01
    -21.805  0.0000E+00  0.0000E+00  0.2000E+01  0.2000E+01
    -21.661  0.0000E+00  0.0000E+00  0.2000E+01  0.2000E+01
    -21.516  0.0000E+00  0.0000E+00  0.2000E+01  0.2000E+01
    -21.372  0.0000E+00  0.0000E+00  0.2000E+01  0.2000E+01
    -21.228  0.0000E+00  0.0000E+00  0.2000E+01  0.2000E+01
    -21.084  0.0000E+00  0.0000E+00  0.2000E+01  0.2000E+01
    -20.939  0.0000E+00  0.0000E+00  0.2000E+01  0.2000E+01
    -20.795  0.0000E+00  0.0000E+00  0.2000E+01  0.2000E+01
    -20.651  0.0000E+00  0.0000E+00  0.2000E+01  0.2000E+01
    -20.507  0.0000E+00  0.0000E+00  0.2000E+01  0.2000E+01
    -20.362  0.0000E+00  0.0000E+00  0.2000E+01  0.2000E+01
    -20.218  0.0000E+00  0.0000E+00  0.2000E+01  0.2000E+01
    -20.074  0.0000E+00  0.0000E+00  0.2000E+01  0.2000E+01
    -19.930  0.0000E+00  0.0000E+00  0.2000E+01  0.2000E+01
    -19.785  0.0000E+00  0.0000E+00  0.2000E+01  0.2000E+01
    -19.641  0.0000E+00  0.0000E+00  0.2000E+01  0.2000E+01
    -19.497  0.0000E+00  0.0000E+00  0.2000E+01  0.2000E+01
    -19.353  0.0000E+00  0.0000E+00  0.2000E+01  0.2000E+01
    -19.208  0.0000E+00  0.0000E+00  0.2000E+01  0.2000E+01
    -19.064  0.0000E+00  0.0000E+00  0.2000E+01  0.2000E+01
    -18.920  0.0000E+00  0.0000E+00  0.2000E+01  0.2000E+01
    -18.776  0.0000E+00  0.0000E+00  0.2000E+01  0.2000E+01
    -18.631  0.0000E+00  0.0000E+00  0.2000E+01  0.2000E+01
    -18.487  0.0000E+00  0.0000E+00  0.2000E+01  0.2000E+01
    -18.343  0.0000E+00  0.0000E+00  0.2000E+01  0.2000E+01
    -18.199  0.0000E+00  0.0000E+00  0.2000E+01  0.2000E+01
    -18.054  0.0000E+00  0.0000E+00  0.2000E+01  0.2000E+01
    -17.910  0.0000E+00  0.0000E+00  0.2000E+01  0.2000E+01
    -17.766  0.0000E+00  0.0000E+00  0.2000E+01  0.2000E+01
    -17.622  0.0000E+00  0.0000E+00  0.2000E+01  0.2000E+01
    -17.477  0.0000E+00  0.0000E+00  0.2000E+01  0.2000E+01
    -17.333  0.0000E+00  0.0000E+00  0.2000E+01  0.2000E+01
    -17.189  0.0000E+00  0.0000E+00  0.2000E+01  0.2000E+01
    -17.045  0.0000E+00  0.0000E+00  0.2000E+01  0.2000E+01
    -16.900  0.0000E+00  0.0000E+00  0.2000E+01  0.2000E+01
    -16.756  0.0000E+00  0.0000E+00  0.2000E+01  0.2000E+01
    -16.612  0.0000E+00  0.0000E+00  0.2000E+01  0.2000E+01
    -16.468  0.0000E+00  0.0000E+00  0.2000E+01  0.2000E+01
    -16.323  0.0000E+00  0.0000E+00  0.2000E+01  0.2000E+01
    -16.179  0.0000E+00  0.0000E+00  0.2000E+01  0.2000E+01
    -16.035  0.0000E+00  0.0000E+00  0.2000E+01  0.2000E+01
    -15.891  0.0000E+00  0.0000E+00  0.2000E+01  0.2000E+01
    -15.746  0.0000E+00  0.0000E+00  0.2000E+01  0.2000E+01
    -15.602  0.0000E+00  0.0000E+00  0.2000E+01  0.2000E+01
    -15.458  0.0000E+00  0.0000E+00  0.2000E+01  0.2000E+01
    -15.314  0.0000E+00  0.0000E+00  0.2000E+01  0.2000E+01
    -15.169  0.0000E+00  0.0000E+00  0.2000E+01  0.2000E+01
    -15.025  0.0000E+00  0.0000E+00  0.2000E+01  0.2000E+01
    -14.881  0.0000E+00  0.0000E+00  0.2000E+01  0.2000E+01
    -14.737  0.0000E+00  0.0000E+00  0.2000E+01  0.2000E+01
    -14.592  0.0000E+00  0.0000E+00  0.2000E+01  0.2000E+01
    -14.448  0.0000E+00  0.0000E+00  0.2000E+01  0.2000E+01
    -14.304  0.0000E+00  0.0000E+00  0.2000E+01  0.2000E+01
    -14.160  0.0000E+00  0.0000E+00  0.2000E+01  0.2000E+01
    -14.015  0.0000E+00  0.0000E+00  0.2000E+01  0.2000E+01
    -13.871  0.0000E+00  0.0000E+00  0.2000E+01  0.2000E+01
    -13.727  0.0000E+00  0.0000E+00  0.2000E+01  0.2000E+01
    -13.583  0.0000E+00  0.0000E+00  0.2000E+01  0.2000E+01
    -13.438  0.0000E+00  0.0000E+00  0.2000E+01  0.2000E+01
    -13.294  0.0000E+00  0.0000E+00  0.2000E+01  0.2000E+01
    -13.150  0.0000E+00  0.0000E+00  0.2000E+01  0.2000E+01
    -13.006  0.0000E+00  0.0000E+00  0.2000E+01  0.2000E+01
    -12.861  0.0000E+00  0.0000E+00  0.2000E+01  0.2000E+01
    -12.717  0.0000E+00  0.0000E+00  0.2000E+01  0.2000E+01
    -12.573  0.0000E+00  0.0000E+00  0.2000E+01  0.2000E+01
    -12.429  0.0000E+00  0.0000E+00  0.2000E+01  0.2000E+01
    -12.284  0.0000E+00  0.0000E+00  0.2000E+01  0.2000E+01
    -12.140  0.0000E+00  0.0000E+00  0.2000E+01  0.2000E+01
    -11.996  0.1630E-02  0.1627E-02  0.2000E+01  0.2000E+01
    -11.851  0.2974E-01  0.2968E-01  0.2005E+01  0.2005E+01
    -11.707  0.5162E+00  0.5152E+00  0.2079E+01  0.2079E+01
    -11.563  0.6468E+01  0.6461E+01  0.3012E+01  0.3011E+01
    -11.419  0.2051E+02  0.2052E+02  0.5971E+01  0.5971E+01
    -11.274  0.1236E+02  0.1236E+02  0.7754E+01  0.7754E+01
    -11.130  0.1578E+01  0.1579E+01  0.7985E+01  0.7985E+01
    -10.986  0.4671E-01  0.4671E-01  0.8000E+01  0.8000E+01
    -10.842  0.0000E+00  0.0000E+00  0.8000E+01  0.8000E+01
    -10.697  0.0000E+00  0.0000E+00  0.8000E+01  0.8000E+01
    -10.553  0.0000E+00  0.0000E+00  0.8000E+01  0.8000E+01
    -10.409  0.0000E+00  0.0000E+00  0.8000E+01  0.8000E+01
    -10.265  0.0000E+00  0.0000E+00  0.8000E+01  0.8000E+01
    -10.120  0.0000E+00  0.0000E+00  0.8000E+01  0.8000E+01
     -9.976  0.0000E+00  0.0000E+00  0.8000E+01  0.8000E+01
     -9.832  0.0000E+00  0.0000E+00  0.8000E+01  0.8000E+01
     -9.688  0.0000E+00  0.0000E+00  0.8000E+01  0.8000E+01
     -9.543  0.0000E+00  0.0000E+00  0.8000E+01  0.8000E+01
     -9.399  0.0000E+00  0.0000E+00  0.8000E+01  0.8000E+01
     -9.255  0.0000E+00  0.0000E+00  0.8000E+01  0.8000E+01
     -9.111  0.0000E+00  0.0000E+00  0.8000E+01  0.8000E+01
     -8.966  0.0000E+00  0.0000E+00  0.8000E+01  0.8000E+01
     -8.822  0.0000E+00  0.0000E+00  0.8000E+01  0.8000E+01
     -8.678  0.0000E+00  0.0000E+00  0.8000E+01  0.8000E+01
     -8.534  0.0000E+00  0.0000E+00  0.8000E+01  0.8000E+01
     -8.389  0.0000E+00  0.0000E+00  0.8000E+01  0.8000E+01
     -8.245  0.0000E+00  0.0000E+00  0.8000E+01  0.8000E+01
     -8.101  0.0000E+00  0.0000E+00  0.8000E+01  0.8000E+01
     -7.957  0.0000E+00  0.0000E+00  0.8000E+01  0.8000E+01
     -7.812  0.0000E+00  0.0000E+00  0.8000E+01  0.8000E+01
     -7.668  0.0000E+00  0.0000E+00  0.8000E+01  0.8000E+01
     -7.524  0.0000E+00  0.0000E+00  0.8000E+01  0.8000E+01
     -7.380  0.0000E+00  0.0000E+00  0.8000E+01  0.8000E+01
     -7.235  0.0000E+00  0.0000E+00  0.8000E+01  0.8000E+01
     -7.091  0.0000E+00  0.0000E+00  0.8000E+01  0.8000E+01
     -6.947  0.0000E+00  0.0000E+00  0.8000E+01  0.8000E+01
     -6.803  0.0000E+00  0.0000E+00  0.8000E+01  0.8000E+01
     -6.658  0.0000E+00  0.0000E+00  0.8000E+01  0.8000E+01
     -6.514  0.0000E+00  0.0000E+00  0.8000E+01  0.8000E+01
     -6.370  0.0000E+00  0.0000E+00  0.8000E+01  0.8000E+01
     -6.226  0.0000E+00  0.0000E+00  0.8000E+01  0.8000E+01
     -6.081  0.0000E+00  0.0000E+00  0.8000E+01  0.8000E+01
     -5.937  0.0000E+00  0.0000E+00  0.8000E+01  0.8000E+01
     -5.793  0.0000E+00  0.0000E+00  0.8000E+01  0.8000E+01
     -5.649  0.0000E+00  0.0000E+00  0.8000E+01  0.8000E+01
     -5.504  0.0000E+00  0.0000E+00  0.8000E+01  0.8000E+01
     -5.360  0.0000E+00  0.0000E+00  0.8000E+01  0.8000E+01
     -5.216  0.0000E+00  0.0000E+00  0.8000E+01  0.8000E+01
     -5.072  0.0000E+00  0.0000E+00  0.8000E+01  0.8000E+01
     -4.927  0.0000E+00  0.0000E+00  0.8000E+01  0.8000E+01
     -4.783  0.0000E+00  0.0000E+00  0.8000E+01  0.8000E+01
     -4.639  0.0000E+00  0.0000E+00  0.8000E+01  0.8000E+01
     -4.495  0.0000E+00  0.0000E+00  0.8000E+01  0.8000E+01
     -4.350  0.0000E+00  0.0000E+00  0.8000E+01  0.8000E+01
     -4.206  0.0000E+00  0.0000E+00  0.8000E+01  0.8000E+01
     -4.062  0.0000E+00  0.0000E+00  0.8000E+01  0.8000E+01
     -3.918  0.0000E+00  0.0000E+00  0.8000E+01  0.8000E+01
     -3.773  0.0000E+00  0.0000E+00  0.8000E+01  0.8000E+01
     -3.629  0.1916E-06  0.1949E-06  0.8000E+01  0.8000E+01
     -3.485  0.1707E-04  0.1736E-04  0.8000E+01  0.8000E+01
     -3.341  0.3092E-03  0.3144E-03  0.8000E+01  0.8000E+01
     -3.196  0.5185E-02  0.5267E-02  0.8001E+01  0.8001E+01
     -3.052  0.5147E-01  0.5199E-01  0.8008E+01  0.8008E+01
     -2.908  0.1545E+00  0.1551E+00  0.8031E+01  0.8031E+01
     -2.764  0.2481E+00  0.2483E+00  0.8066E+01  0.8067E+01
     -2.619  0.3102E+00  0.3108E+00  0.8111E+01  0.8111E+01
     -2.475  0.3780E+00  0.3782E+00  0.8166E+01  0.8166E+01
     -2.331  0.4055E+00  0.4057E+00  0.8224E+01  0.8224E+01
     -2.187  0.5122E+00  0.5130E+00  0.8298E+01  0.8299E+01
     -2.042  0.5348E+00  0.5344E+00  0.8375E+01  0.8376E+01
     -1.898  0.5430E+00  0.5440E+00  0.8454E+01  0.8454E+01
     -1.754  0.7058E+00  0.7060E+00  0.8556E+01  0.8556E+01
     -1.610  0.6652E+00  0.6650E+00  0.8652E+01  0.8652E+01
     -1.465  0.7552E+00  0.7557E+00  0.8761E+01  0.8762E+01
     -1.321  0.7985E+00  0.7991E+00  0.8876E+01  0.8877E+01
     -1.177  0.9802E+00  0.9807E+00  0.9018E+01  0.9019E+01
     -1.033  0.9253E+00  0.9248E+00  0.9152E+01  0.9152E+01
     -0.888  0.9878E+00  0.9889E+00  0.9294E+01  0.9295E+01
     -0.744  0.1150E+01  0.1150E+01  0.9460E+01  0.9461E+01
     -0.600  0.1115E+01  0.1115E+01  0.9622E+01  0.9622E+01
     -0.456  0.1119E+01  0.1119E+01  0.9783E+01  0.9784E+01
     -0.311  0.1188E+01  0.1189E+01  0.9955E+01  0.9956E+01
     -0.167  0.1383E+01  0.1385E+01  0.1015E+02  0.1016E+02
     -0.023  0.1475E+01  0.1475E+01  0.1037E+02  0.1037E+02
      0.121  0.1297E+01  0.1295E+01  0.1056E+02  0.1056E+02
      0.266  0.1118E+01  0.1118E+01  0.1072E+02  0.1072E+02
      0.410  0.1164E+01  0.1164E+01  0.1089E+02  0.1089E+02
      0.554  0.1239E+01  0.1239E+01  0.1106E+02  0.1107E+02
      0.698  0.1015E+01  0.1014E+01  0.1121E+02  0.1121E+02
      0.843  0.1254E+01  0.1255E+01  0.1139E+02  0.1139E+02
      0.987  0.1510E+01  0.1511E+01  0.1161E+02  0.1161E+02
      1.131  0.1607E+01  0.1606E+01  0.1184E+02  0.1184E+02
      1.275  0.1372E+01  0.1371E+01  0.1204E+02  0.1204E+02
      1.420  0.1376E+01  0.1378E+01  0.1224E+02  0.1224E+02
      1.564  0.1583E+01  0.1583E+01  0.1247E+02  0.1247E+02
      1.708  0.1252E+01  0.1250E+01  0.1265E+02  0.1265E+02
      1.852  0.1014E+01  0.1015E+01  0.1280E+02  0.1280E+02
      1.997  0.1307E+01  0.1308E+01  0.1299E+02  0.1299E+02
      2.141  0.1167E+01  0.1166E+01  0.1315E+02  0.1315E+02
      2.285  0.9026E+00  0.9021E+00  0.1328E+02  0.1329E+02
      2.429  0.1030E+01  0.1032E+01  0.1343E+02  0.1343E+02
      2.574  0.1366E+01  0.1367E+01  0.1363E+02  0.1363E+02
      2.718  0.1163E+01  0.1161E+01  0.1380E+02  0.1380E+02
      2.862  0.1123E+01  0.1125E+01  0.1396E+02  0.1396E+02
      3.006  0.1449E+01  0.1450E+01  0.1417E+02  0.1417E+02
      3.151  0.1539E+01  0.1541E+01  0.1439E+02  0.1439E+02
      3.295  0.1782E+01  0.1783E+01  0.1465E+02  0.1465E+02
      3.439  0.1791E+01  0.1791E+01  0.1491E+02  0.1491E+02
      3.583  0.1854E+01  0.1854E+01  0.1518E+02  0.1518E+02
      3.728  0.1816E+01  0.1816E+01  0.1544E+02  0.1544E+02
      3.872  0.1871E+01  0.1871E+01  0.1571E+02  0.1571E+02
      4.016  0.1939E+01  0.1939E+01  0.1599E+02  0.1599E+02
      4.160  0.2283E+01  0.2286E+01  0.1632E+02  0.1632E+02
      4.305  0.2537E+01  0.2539E+01  0.1669E+02  0.1669E+02
      4.449  0.2771E+01  0.2770E+01  0.1709E+02  0.1709E+02
      4.593  0.2232E+01  0.2229E+01  0.1741E+02  0.1741E+02
      4.737  0.1953E+01  0.1952E+01  0.1769E+02  0.1769E+02
      4.882  0.1762E+01  0.1760E+01  0.1795E+02  0.1795E+02
      5.026  0.1799E+01  0.1801E+01  0.1821E+02  0.1821E+02
      5.170  0.2047E+01  0.2048E+01  0.1850E+02  0.1850E+02
      5.314  0.1836E+01  0.1834E+01  0.1877E+02  0.1877E+02
      5.459  0.1709E+01  0.1710E+01  0.1901E+02  0.1902E+02
      5.603  0.1806E+01  0.1807E+01  0.1928E+02  0.1928E+02
      5.747  0.2143E+01  0.2146E+01  0.1959E+02  0.1959E+02
      5.891  0.2485E+01  0.2486E+01  0.1994E+02  0.1995E+02
      6.036  0.2502E+01  0.2501E+01  0.2031E+02  0.2031E+02
      6.180  0.2138E+01  0.2136E+01  0.2062E+02  0.2062E+02
      6.324  0.2204E+01  0.2204E+01  0.2093E+02  0.2094E+02
      6.468  0.2002E+01  0.2001E+01  0.2122E+02  0.2122E+02
      6.613  0.2140E+01  0.2141E+01  0.2153E+02  0.2153E+02
      6.757  0.1889E+01  0.1887E+01  0.2181E+02  0.2181E+02
      6.901  0.1452E+01  0.1450E+01  0.2202E+02  0.2202E+02
      7.045  0.1656E+01  0.1658E+01  0.2225E+02  0.2226E+02
      7.190  0.2215E+01  0.2216E+01  0.2257E+02  0.2258E+02
      7.334  0.2176E+01  0.2173E+01  0.2289E+02  0.2289E+02
      7.478  0.1810E+01  0.1810E+01  0.2315E+02  0.2315E+02
      7.622  0.1861E+01  0.1861E+01  0.2342E+02  0.2342E+02
      7.767  0.1683E+01  0.1684E+01  0.2366E+02  0.2366E+02
      7.911  0.1971E+01  0.1973E+01  0.2395E+02  0.2395E+02
      8.055  0.2149E+01  0.2150E+01  0.2426E+02  0.2426E+02
      8.199  0.2583E+01  0.2587E+01  0.2463E+02  0.2463E+02
      8.344  0.3203E+01  0.3207E+01  0.2509E+02  0.2510E+02
      8.488  0.3292E+01  0.3289E+01  0.2557E+02  0.2557E+02
      8.632  0.3237E+01  0.3212E+01  0.2604E+02  0.2604E+02
      8.776  0.2690E+01  0.2700E+01  0.2643E+02  0.2643E+02
      8.921  0.2326E+01  0.2322E+01  0.2676E+02  0.2676E+02
      9.065  0.2320E+01  0.2292E+01  0.2710E+02  0.2709E+02
      9.209  0.1709E+01  0.1679E+01  0.2735E+02  0.2734E+02
      9.353  0.1223E+01  0.1198E+01  0.2752E+02  0.2751E+02
      9.498  0.8876E+00  0.9785E+00  0.2765E+02  0.2765E+02
      9.642  0.6213E+00  0.6538E+00  0.2774E+02  0.2775E+02
      9.786  0.5838E+00  0.5988E+00  0.2783E+02  0.2783E+02
      9.930  0.6110E+00  0.5499E+00  0.2791E+02  0.2791E+02
     10.075  0.4252E+00  0.4006E+00  0.2798E+02  0.2797E+02
     10.219  0.1489E+00  0.1792E+00  0.2800E+02  0.2800E+02
     10.363  0.1688E-01  0.2068E-01  0.2800E+02  0.2800E+02
     10.507  0.6783E-03  0.6441E-03  0.2800E+02  0.2800E+02
     10.652  0.0000E+00  0.0000E+00  0.2800E+02  0.2800E+02
     10.796  0.0000E+00  0.0000E+00  0.2800E+02  0.2800E+02
     10.940  0.0000E+00  0.0000E+00  0.2800E+02  0.2800E+02
     11.084  0.0000E+00  0.0000E+00  0.2800E+02  0.2800E+02
     11.229  0.0000E+00  0.0000E+00  0.2800E+02  0.2800E+02
     11.373  0.0000E+00  0.0000E+00  0.2800E+02  0.2800E+02
     11.517  0.0000E+00  0.0000E+00  0.2800E+02  0.2800E+02
     11.661  0.0000E+00  0.0000E+00  0.2800E+02  0.2800E+02
     11.806  0.0000E+00  0.0000E+00  0.2800E+02  0.2800E+02
     11.950  0.0000E+00  0.0000E+00  0.2800E+02  0.2800E+02
     12.094  0.0000E+00  0.0000E+00  0.2800E+02  0.2800E+02
     12.09425096    -31.18119794  301      5.44998524      1.00000000
    -31.181  0.0000E+00  0.0000E+00  0.0000E+00  0.0000E+00  0.0000E+00  0.0000E+00  0.0000E+00  0.0000E+00  0.0000E+00  0.0000E+00  0.0000E+00  0.0000E+00  0.0000E+00  0.0000E+00  0.0000E+00  0.0000E+00  0.0000E+00  0.0000E+00
    -31.037  0.0000E+00  0.0000E+00  0.0000E+00  0.0000E+00  0.0000E+00  0.0000E+00  0.0000E+00  0.0000E+00  0.0000E+00  0.0000E+00  0.0000E+00  0.0000E+00  0.0000E+00  0.0000E+00  0.0000E+00  0.0000E+00  0.0000E+00  0.0000E+00
    -30.893  0.0000E+00  0.0000E+00  0.0000E+00  0.0000E+00  0.0000E+00  0.0000E+00  0.0000E+00  0.0000E+00  0.0000E+00  0.0000E+00  0.0000E+00  0.0000E+00  0.0000E+00  0.0000E+00  0.0000E+00  0.0000E+00  0.0000E+00  0.0000E+00
    -30.748  0.0000E+00  0.0000E+00  0.0000E+00  0.0000E+00  0.0000E+00  0.0000E+00  0.0000E+00  0.0000E+00  0.0000E+00  0.0000E+00  0.0000E+00  0.0000E+00  0.0000E+00  0.0000E+00  0.0000E+00  0.0000E+00  0.0000E+00  0.0000E+00
    -30.604  0.0000E+00  0.0000E+00  0.0000E+00  0.0000E+00  0.0000E+00  0.0000E+00  0.0000E+00  0.0000E+00  0.0000E+00  0.0000E+00  0.0000E+00  0.0000E+00  0.0000E+00  0.0000E+00  0.0000E+00  0.0000E+00  0.0000E+00  0.0000E+00
    -30.460  0.0000E+00  0.0000E+00  0.0000E+00  0.0000E+00  0.0000E+00  0.0000E+00  0.0000E+00  0.0000E+00  0.0000E+00  0.0000E+00  0.0000E+00  0.0000E+00  0.0000E+00  0.0000E+00  0.0000E+00  0.0000E+00  0.0000E+00  0.0000E+00
    -30.316  0.0000E+00  0.0000E+00  0.0000E+00  0.0000E+00  0.0000E+00  0.0000E+00  0.0000E+00  0.0000E+00  0.0000E+00  0.0000E+00  0.0000E+00  0.0000E+00  0.0000E+00  0.0000E+00  0.0000E+00  0.0000E+00  0.0000E+00  0.0000E+00
    -30.171  0.0000E+00  0.0000E+00  0.0000E+00  0.0000E+00  0.0000E+00  0.0000E+00  0.0000E+00  0.0000E+00  0.0000E+00  0.0000E+00  0.0000E+00  0.0000E+00  0.0000E+00  0.0000E+00  0.0000E+00  0.0000E+00  0.0000E+00  0.0000E+00
    -30.027  0.0000E+00  0.0000E+00  0.0000E+00  0.0000E+00  0.0000E+00  0.0000E+00  0.0000E+00  0.0000E+00  0.0000E+00  0.0000E+00  0.0000E+00  0.0000E+00  0.0000E+00  0.0000E+00  0.0000E+00  0.0000E+00  0.0000E+00  0.0000E+00
    -29.883  0.0000E+00  0.0000E+00  0.0000E+00  0.0000E+00  0.0000E+00  0.0000E+00  0.0000E+00  0.0000E+00  0.0000E+00  0.0000E+00  0.0000E+00  0.0000E+00  0.0000E+00  0.0000E+00  0.0000E+00  0.0000E+00  0.0000E+00  0.0000E+00
    -29.739  0.1717E-03  0.1723E-03  0.3438E-11  0.3489E-11  0.1165E-12  0.1323E-12  0.3438E-11  0.3489E-11  0.5382E-14  0.4804E-14  0.2269E-13  0.1898E-13  0.3376E-09  0.3366E-09  0.2269E-13  0.1898E-13  0.1773E-11  0.1796E-11
    -29.594  0.2901E-02  0.2912E-02  0.5810E-10  0.5895E-10  0.1969E-11  0.2235E-11  0.5810E-10  0.5895E-10  0.9094E-13  0.8117E-13  0.3833E-12  0.3208E-12  0.5704E-08  0.5686E-08  0.3833E-12  0.3208E-12  0.2995E-10  0.3035E-10
    -29.450  0.5153E-01  0.5171E-01  0.1032E-08  0.1047E-08  0.3495E-10  0.3968E-10  0.1032E-08  0.1047E-08  0.1616E-11  0.1442E-11  0.6808E-11  0.5697E-11  0.1013E-06  0.1010E-06  0.6808E-11  0.5697E-11  0.5320E-09  0.5391E-09
    -29.306  0.8056E+00  0.8080E+00  0.1613E-07  0.1636E-07  0.5440E-09  0.6172E-09  0.1613E-07  0.1636E-07  0.2535E-10  0.2260E-10  0.1065E-09  0.8910E-10  0.1584E-05  0.1579E-05  0.1065E-09  0.8910E-10  0.8319E-08  0.8426E-08
    -29.162  0.4031E+01  0.4033E+01  0.8065E-07  0.8159E-07  0.2653E-08  0.3000E-08  0.8065E-07  0.8159E-07  0.1296E-09  0.1149E-09  0.5341E-09  0.4465E-09  0.7942E-05  0.7893E-05  0.5341E-09  0.4465E-09  0.4165E-07  0.4208E-07
    -29.017  0.1736E+01  0.1732E+01  0.3470E-07  0.3500E-07  0.1108E-08  0.1248E-08  0.3470E-07  0.3500E-07  0.5723E-10  0.5040E-10  0.2305E-09  0.1926E-09  0.3427E-05  0.3396E-05  0.2305E-09  0.1926E-09  0.1794E-07  0.1807E-07
    -28.873  0.1341E+00  0.1336E+00  0.2679E-08  0.2699E-08  0.8470E-10  0.9531E-10  0.2679E-08  0.2699E-08  0.4456E-11  0.3917E-11  0.1782E-10  0.1488E-10  0.2649E-06  0.2622E-06  0.1782E-10  0.1488E-10  0.1385E-08  0.1394E-08
    -28.729  0.0000E+00  0.0000E+00  0.0000E+00  0.0000E+00  0.0000E+00  0.0000E+00  0.0000E+00  0.0000E+00  0.0000E+00  0.0000E+00  0.0000E+00  0.0000E+00  0.0000E+00  0.0000E+00  0.0000E+00  0.0000E+00  0.0000E+00  0.0000E+00
    -28.585  0.0000E+00  0.0000E+00  0.0000E+00  0.0000E+00  0.0000E+00  0.0000E+00  0.0000E+00  0.0000E+00  0.0000E+00  0.0000E+00  0.0000E+00  0.0000E+00  0.0000E+00  0.0000E+00  0.0000E+00  0.0000E+00  0.0000E+00  0.0000E+00
    -28.440  0.0000E+00  0.0000E+00  0.0000E+00  0.0000E+00  0.0000E+00  0.0000E+00  0.0000E+00  0.0000E+00  0.0000E+00  0.0000E+00  0.0000E+00  0.0000E+00  0.0000E+00  0.0000E+00  0.0000E+00  0.0000E+00  0.0000E+00  0.0000E+00
    -28.296  0.0000E+00  0.0000E+00  0.0000E+00  0.0000E+00  0.0000E+00  0.0000E+00  0.0000E+00  0.0000E+00  0.0000E+00  0.0000E+00  0.0000E+00  0.0000E+00  0.0000E+00  0.0000E+00  0.0000E+00  0.0000E+00  0.0000E+00  0.0000E+00
    -28.152  0.0000E+00  0.0000E+00  0.0000E+00  0.0000E+00  0.0000E+00  0.0000E+00  0.0000E+00  0.0000E+00  0.0000E+00  0.0000E+00  0.0000E+00  0.0000E+00  0.0000E+00  0.0000E+00  0.0000E+00  0.0000E+00  0.0000E+00  0.0000E+00
    -28.008  0.0000E+00  0.0000E+00  0.0000E+00  0.0000E+00  0.0000E+00  0.0000E+00  0.0000E+00  0.0000E+00  0.0000E+00  0.0000E+00  0.0000E+00  0.0000E+00  0.0000E+00  0.0000E+00  0.0000E+00  0.0000E+00  0.0000E+00  0.0000E+00
    -27.863  0.0000E+00  0.0000E+00  0.0000E+00  0.0000E+00  0.0000E+00  0.0000E+00  0.0000E+00  0.0000E+00  0.0000E+00  0.0000E+00  0.0000E+00  0.0000E+00  0.0000E+00  0.0000E+00  0.0000E+00  0.0000E+00  0.0000E+00  0.0000E+00
    -27.719  0.0000E+00  0.0000E+00  0.0000E+00  0.0000E+00  0.0000E+00  0.0000E+00  0.0000E+00  0.0000E+00  0.0000E+00  0.0000E+00  0.0000E+00  0.0000E+00  0.0000E+00  0.0000E+00  0.0000E+00  0.0000E+00  0.0000E+00  0.0000E+00
    -27.575  0.0000E+00  0.0000E+00  0.0000E+00  0.0000E+00  0.0000E+00  0.0000E+00  0.0000E+00  0.0000E+00  0.0000E+00  0.0000E+00  0.0000E+00  0.0000E+00  0.0000E+00  0.0000E+00  0.0000E+00  0.0000E+00  0.0000E+00  0.0000E+00
    -27.431  0.0000E+00  0.0000E+00  0.0000E+00  0.0000E+00  0.0000E+00  0.0000E+00  0.0000E+00  0.0000E+00  0.0000E+00  0.0000E+00  0.0000E+00  0.0000E+00  0.0000E+00  0.0000E+00  0.0000E+00  0.0000E+00  0.0000E+00  0.0000E+00
    -27.286  0.0000E+00  0.0000E+00  0.0000E+00  0.0000E+00  0.0000E+00  0.0000E+00  0.0000E+00  0.0000E+00  0.0000E+00  0.0000E+00  0.0000E+00  0.0000E+00  0.0000E+00  0.0000E+00  0.0000E+00  0.0000E+00  0.0000E+00  0.0000E+00
    -27.142  0.0000E+00  0.0000E+00  0.0000E+00  0.0000E+00  0.0000E+00  0.0000E+00  0.0000E+00  0.0000E+00  0.0000E+00  0.0000E+00  0.0000E+00  0.0000E+00  0.0000E+00  0.0000E+00  0.0000E+00  0.0000E+00  0.0000E+00  0.0000E+00
    -26.998  0.0000E+00  0.0000E+00  0.0000E+00  0.0000E+00  0.0000E+00  0.0000E+00  0.0000E+00  0.0000E+00  0.0000E+00  0.0000E+00  0.0000E+00  0.0000E+00  0.0000E+00  0.0000E+00  0.0000E+00  0.0000E+00  0.0000E+00  0.0000E+00
    -26.854  0.0000E+00  0.0000E+00  0.0000E+00  0.0000E+00  0.0000E+00  0.0000E+00  0.0000E+00  0.0000E+00  0.0000E+00  0.0000E+00  0.0000E+00  0.0000E+00  0.0000E+00  0.0000E+00  0.0000E+00  0.0000E+00  0.0000E+00  0.0000E+00
    -26.709  0.0000E+00  0.0000E+00  0.0000E+00  0.0000E+00  0.0000E+00  0.0000E+00  0.0000E+00  0.0000E+00  0.0000E+00  0.0000E+00  0.0000E+00  0.0000E+00  0.0000E+00  0.0000E+00  0.0000E+00  0.0000E+00  0.0000E+00  0.0000E+00
    -26.565  0.0000E+00  0.0000E+00  0.0000E+00  0.0000E+00  0.0000E+00  0.0000E+00  0.0000E+00  0.0000E+00  0.0000E+00  0.0000E+00  0.0000E+00  0.0000E+00  0.0000E+00  0.0000E+00  0.0000E+00  0.0000E+00  0.0000E+00  0.0000E+00
    -26.421  0.0000E+00  0.0000E+00  0.0000E+00  0.0000E+00  0.0000E+00  0.0000E+00  0.0000E+00  0.0000E+00  0.0000E+00  0.0000E+00  0.0000E+00  0.0000E+00  0.0000E+00  0.0000E+00  0.0000E+00  0.0000E+00  0.0000E+00  0.0000E+00
    -26.277  0.0000E+00  0.0000E+00  0.0000E+00  0.0000E+00  0.0000E+00  0.0000E+00  0.0000E+00  0.0000E+00  0.0000E+00  0.0000E+00  0.0000E+00  0.0000E+00  0.0000E+00  0.0000E+00  0.0000E+00  0.0000E+00  0.0000E+00  0.0000E+00
    -26.132  0.0000E+00  0.0000E+00  0.0000E+00  0.0000E+00  0.0000E+00  0.0000E+00  0.0000E+00  0.0000E+00  0.0000E+00  0.0000E+00  0.0000E+00  0.0000E+00  0.0000E+00  0.0000E+00  0.0000E+00  0.0000E+00  0.0000E+00  0.0000E+00
    -25.988  0.0000E+00  0.0000E+00  0.0000E+00  0.0000E+00  0.0000E+00  0.0000E+00  0.0000E+00  0.0000E+00  0.0000E+00  0.0000E+00  0.0000E+00  0.0000E+00  0.0000E+00  0.0000E+00  0.0000E+00  0.0000E+00  0.0000E+00  0.0000E+00
    -25.844  0.0000E+00  0.0000E+00  0.0000E+00  0.0000E+00  0.0000E+00  0.0000E+00  0.0000E+00  0.0000E+00  0.0000E+00  0.0000E+00  0.0000E+00  0.0000E+00  0.0000E+00  0.0000E+00  0.0000E+00  0.0000E+00  0.0000E+00  0.0000E+00
    -25.700  0.0000E+00  0.0000E+00  0.0000E+00  0.0000E+00  0.0000E+00  0.0000E+00  0.0000E+00  0.0000E+00  0.0000E+00  0.0000E+00  0.0000E+00  0.0000E+00  0.0000E+00  0.0000E+00  0.0000E+00  0.0000E+00  0.0000E+00  0.0000E+00
    -25.555  0.0000E+00  0.0000E+00  0.0000E+00  0.0000E+00  0.0000E+00  0.0000E+00  0.0000E+00  0.0000E+00  0.0000E+00  0.0000E+00  0.0000E+00  0.0000E+00  0.0000E+00  0.0000E+00  0.0000E+00  0.0000E+00  0.0000E+00  0.0000E+00
    -25.411  0.0000E+00  0.0000E+00  0.0000E+00  0.0000E+00  0.0000E+00  0.0000E+00  0.0000E+00  0.0000E+00  0.0000E+00  0.0000E+00  0.0000E+00  0.0000E+00  0.0000E+00  0.0000E+00  0.0000E+00  0.0000E+00  0.0000E+00  0.0000E+00
    -25.267  0.0000E+00  0.0000E+00  0.0000E+00  0.0000E+00  0.0000E+00  0.0000E+00  0.0000E+00  0.0000E+00  0.0000E+00  0.0000E+00  0.0000E+00  0.0000E+00  0.0000E+00  0.0000E+00  0.0000E+00  0.0000E+00  0.0000E+00  0.0000E+00
    -25.123  0.0000E+00  0.0000E+00  0.0000E+00  0.0000E+00  0.0000E+00  0.0000E+00  0.0000E+00  0.0000E+00  0.0000E+00  0.0000E+00  0.0000E+00  0.0000E+00  0.0000E+00  0.0000E+00  0.0000E+00  0.0000E+00  0.0000E+00  0.0000E+00
    -24.978  0.0000E+00  0.0000E+00  0.0000E+00  0.0000E+00  0.0000E+00  0.0000E+00  0.0000E+00  0.0000E+00  0.0000E+00  0.0000E+00  0.0000E+00  0.0000E+00  0.0000E+00  0.0000E+00  0.0000E+00  0.0000E+00  0.0000E+00  0.0000E+00
    -24.834  0.0000E+00  0.0000E+00  0.0000E+00  0.0000E+00  0.0000E+00  0.0000E+00  0.0000E+00  0.0000E+00  0.0000E+00  0.0000E+00  0.0000E+00  0.0000E+00  0.0000E+00  0.0000E+00  0.0000E+00  0.0000E+00  0.0000E+00  0.0000E+00
    -24.690  0.0000E+00  0.0000E+00  0.0000E+00  0.0000E+00  0.0000E+00  0.0000E+00  0.0000E+00  0.0000E+00  0.0000E+00  0.0000E+00  0.0000E+00  0.0000E+00  0.0000E+00  0.0000E+00  0.0000E+00  0.0000E+00  0.0000E+00  0.0000E+00
    -24.546  0.0000E+00  0.0000E+00  0.0000E+00  0.0000E+00  0.0000E+00  0.0000E+00  0.0000E+00  0.0000E+00  0.0000E+00  0.0000E+00  0.0000E+00  0.0000E+00  0.0000E+00  0.0000E+00  0.0000E+00  0.0000E+00  0.0000E+00  0.0000E+00
    -24.401  0.0000E+00  0.0000E+00  0.0000E+00  0.0000E+00  0.0000E+00  0.0000E+00  0.0000E+00  0.0000E+00  0.0000E+00  0.0000E+00  0.0000E+00  0.0000E+00  0.0000E+00  0.0000E+00  0.0000E+00  0.0000E+00  0.0000E+00  0.0000E+00
    -24.257  0.0000E+00  0.0000E+00  0.0000E+00  0.0000E+00  0.0000E+00  0.0000E+00  0.0000E+00  0.0000E+00  0.0000E+00  0.0000E+00  0.0000E+00  0.0000E+00  0.0000E+00  0.0000E+00  0.0000E+00  0.0000E+00  0.0000E+00  0.0000E+00
    -24.113  0.0000E+00  0.0000E+00  0.0000E+00  0.0000E+00  0.0000E+00  0.0000E+00  0.0000E+00  0.0000E+00  0.0000E+00  0.0000E+00  0.0000E+00  0.0000E+00  0.0000E+00  0.0000E+00  0.0000E+00  0.0000E+00  0.0000E+00  0.0000E+00
    -23.969  0.0000E+00  0.0000E+00  0.0000E+00  0.0000E+00  0.0000E+00  0.0000E+00  0.0000E+00  0.0000E+00  0.0000E+00  0.0000E+00  0.0000E+00  0.0000E+00  0.0000E+00  0.0000E+00  0.0000E+00  0.0000E+00  0.0000E+00  0.0000E+00