   8   8   1   0
  0.2296590E+02  0.4592572E-09  0.4592572E-09  0.8710868E-09  0.5000000E-15
  1.000000000000000E-004
  CAR 
 unknown system                          
     11.50443538    -31.77840025  301      4.99049635      1.00000000
    -31.778  0.0000E+00  0.0000E+00  0.0000E+00  0.0000E+00
    -31.634  0.0000E+00  0.0000E+00  0.0000E+00  0.0000E+00
    -31.490  0.0000E+00  0.0000E+00  0.0000E+00  0.0000E+00
    -31.346  0.0000E+00  0.0000E+00  0.0000E+00  0.0000E+00
    -31.201  0.0000E+00  0.0000E+00  0.0000E+00  0.0000E+00
    -31.057  0.0000E+00  0.0000E+00  0.0000E+00  0.0000E+00
    -30.913  0.0000E+00  0.0000E+00  0.0000E+00  0.0000E+00
    -30.768  0.0000E+00  0.0000E+00  0.0000E+00  0.0000E+00
    -30.624  0.0000E+00  0.0000E+00  0.0000E+00  0.0000E+00
    -30.480  0.0000E+00  0.0000E+00  0.0000E+00  0.0000E+00
    -30.336  0.3611E-03  0.3613E-03  0.5209E-04  0.5212E-04
    -30.191  0.6104E-02  0.6107E-02  0.9328E-03  0.9332E-03
    -30.047  0.1084E+00  0.1085E+00  0.1658E-01  0.1659E-01
    -29.903  0.1690E+01  0.1691E+01  0.2604E+00  0.2605E+00
    -29.759  0.8291E+01  0.8292E+01  0.1457E+01  0.1457E+01
    -29.614  0.3483E+01  0.3482E+01  0.1959E+01  0.1959E+01
    -29.470  0.2667E+00  0.2666E+00  0.1998E+01  0.1998E+01
    -29.326  0.0000E+00  0.0000E+00  0.2000E+01  0.2000E+01
    -29.181  0.0000E+00  0.0000E+00  0.2000E+01  0.2000E+01
    -29.037  0.0000E+00  0.0000E+00  0.2000E+01  0.2000E+01
    -28.893  0.0000E+00  0.0000E+00  0.2000E+01  0.2000E+01
    -28.749  0.0000E+00  0.0000E+00  0.2000E+01  0.2000E+01
    -28.604  0.0000E+00  0.0000E+00  0.2000E+01  0.2000E+01
    -28.460  0.0000E+00  0.0000E+00  0.2000E+01  0.2000E+01
    -28.316  0.0000E+00  0.0000E+00  0.2000E+01  0.2000E+01
    -28.171  0.0000E+00  0.0000E+00  0.2000E+01  0.2000E+01
    -28.027  0.0000E+00  0.0000E+00  0.2000E+01  0.2000E+01
    -27.883  0.0000E+00  0.0000E+00  0.2000E+01  0.2000E+01
    -27.739  0.0000E+00  0.0000E+00  0.2000E+01  0.2000E+01
    -27.594  0.0000E+00  0.0000E+00  0.2000E+01  0.2000E+01
    -27.450  0.0000E+00  0.0000E+00  0.2000E+01  0.2000E+01
    -27.306  0.0000E+00  0.0000E+00  0.2000E+01  0.2000E+01
    -27.162  0.0000E+00  0.0000E+00  0.2000E+01  0.2000E+01
    -27.017  0.0000E+00  0.0000E+00  0.2000E+01  0.2000E+01
    -26.873  0.0000E+00  0.0000E+00  0.2000E+01  0.2000E+01
    -26.729  0.0000E+00  0.0000E+00  0.2000E+01  0.2000E+01
    -26.584  0.0000E+00  0.0000E+00  0.2000E+01  0.2000E+01
    -26.440  0.0000E+00  0.0000E+00  0.2000E+01  0.2000E+01
    -26.296  0.0000E+00  0.0000E+00  0.2000E+01  0.2000E+01
    -26.152  0.0000E+00  0.0000E+00  0.2000E+01  0.2000E+01
    -26.007  0.0000E+00  0.0000E+00  0.2000E+01  0.2000E+01
    -25.863  0.0000E+00  0.0000E+00  0.2000E+01  0.2000E+01
    -25.719  0.0000E+00  0.0000E+00  0.2000E+01  0.2000E+01
    -25.575  0.0000E+00  0.0000E+00  0.2000E+01  0.2000E+01
    -25.430  0.0000E+00  0.0000E+00  0.2000E+01  0.2000E+01
    -25.286  0.0000E+00  0.0000E+00  0.2000E+01  0.2000E+01
    -25.142  0.0000E+00  0.0000E+00  0.2000E+01  0.2000E+01
    -24.997  0.0000E+00  0.0000E+00  0.2000E+01  0.2000E+01
    -24.853  0.0000E+00  0.0000E+00  0.2000E+01  0.2000E+01
    -24.709  0.0000E+00  0.0000E+00  0.2000E+01  0.2000E+01
    -24.565  0.0000E+00  0.0000E+00  0.2000E+01  0.2000E+01
    -24.420  0.0000E+00  0.0000E+00  0.2000E+01  0.2000E+01
    -24.276  0.0000E+00  0.0000E+00  0.2000E+01  0.2000E+01
    -24.132  0.0000E+00  0.0000E+00  0.2000E+01  0.2000E+01
    -23.987  0.0000E+00  0.0000E+00  0.2000E+01  0.2000E+01
    -23.843  0.0000E+00  0.0000E+00  0.2000E+01  0.2000E+01
    -23.699  0.0000E+00  0.0000E+00  0.2000E+01  0.2000E+01
    -23.555  0.0000E+00  0.0000E+00  0.2000E+01  0.2000E+01
    -23.410  0.0000E+00  0.0000E+00  0.2000E+01  0.2000E+01
    -23.266  0.0000E+00  0.0000E+00  0.2000E+01  0.2000E+01
    -23.122  0.0000E+00  0.0000E+00  0.2000E+01  0.2000E+01
    -22.978  0.0000E+00  0.0000E+00  0.2000E+01  0.2000E+01
    -22.833  0.0000E+00  0.0000E+00  0.2000E+01  0.2000E+01
    -22.689  0.0000E+00  0.0000E+00  0.2000E+01  0.2000E+01
    -22.545  0.0000E+00  0.0000E+00  0.2000E+01  0.2000E+01
    -22.400  0.0000E+00  0.0000E+00  0.2000E+01  0.2000E+01
    -22.256  0.0000E+00  0.0000E+00  0.2000E+01  0.2000E+01
    -22.112  0.0000E+00  0.0000E+00  0.2000E+01  0.2000E+01
    -21.968  0.0000E+00  0.0000E+00  0.2000E+01  0.2000E+01
    -21.823  0.0000E+00  0.0000E+00  0.2000E+01  0.2000E+01
    -21.679  0.0000E+00  0.0000E+00  0.2000E+01  0.2000E+01
    -21.535  0.0000E+00  0.0000E+00  0.2000E+01  0.2000E+01
    -21.391  0.0000E+00  0.0000E+00  0.2000E+01  0.2000E+01
    -21.246  0.0000E+00  0.0000E+00  0.2000E+01  0.2000E+01
    -21.102  0.0000E+00  0.0000E+00  0.2000E+01  0.2000E+01
    -20.958  0.0000E+00  0.0000E+00  0.2000E+01  0.2000E+01
    -20.813  0.0000E+00  0.0000E+00  0.2000E+01  0.2000E+01
    -20.669  0.0000E+00  0.0000E+00  0.2000E+01  0.2000E+01
    -20.525  0.0000E+00  0.0000E+00  0.2000E+01  0.2000E+01
    -20.381  0.0000E+00  0.0000E+00  0.2000E+01  0.2000E+01
    -20.236  0.0000E+00  0.0000E+00  0.2000E+01  0.2000E+01
    -20.092  0.0000E+00  0.0000E+00  0.2000E+01  0.2000E+01
    -19.948  0.0000E+00  0.0000E+00  0.2000E+01  0.2000E+01
    -19.803  0.0000E+00  0.0000E+00  0.2000E+01  0.2000E+01
    -19.659  0.0000E+00  0.0000E+00  0.2000E+01  0.2000E+01
    -19.515  0.0000E+00  0.0000E+00  0.2000E+01  0.2000E+01
    -19.371  0.0000E+00  0.0000E+00  0.2000E+01  0.2000E+01
    -19.226  0.0000E+00  0.0000E+00  0.2000E+01  0.2000E+01
    -19.082  0.0000E+00  0.0000E+00  0.2000E+01  0.2000E+01
    -18.938  0.0000E+00  0.0000E+00  0.2000E+01  0.2000E+01
    -18.794  0.0000E+00  0.0000E+00  0.2000E+01  0.2000E+01
    -18.649  0.0000E+00  0.0000E+00  0.2000E+01  0.2000E+01
    -18.505  0.0000E+00  0.0000E+00  0.2000E+01  0.2000E+01
    -18.361  0.0000E+00  0.0000E+00  0.2000E+01  0.2000E+01
    -18.216  0.0000E+00  0.0000E+00  0.2000E+01  0.2000E+01
    -18.072  0.0000E+00  0.0000E+00  0.2000E+01  0.2000E+01
    -17.928  0.0000E+00  0.0000E+00  0.2000E+01  0.2000E+01
    -17.784  0.0000E+00  0.0000E+00  0.2000E+01  0.2000E+01
    -17.639  0.0000E+00  0.0000E+00  0.2000E+01  0.2000E+01
    -17.495  0.0000E+00  0.0000E+00  0.2000E+01  0.2000E+01
    -17.351  0.0000E+00  0.0000E+00  0.2000E+01  0.2000E+01
    -17.207  0.0000E+00  0.0000E+00  0.2000E+01  0.2000E+01
    -17.062  0.0000E+00  0.0000E+00  0.2000E+01  0.2000E+01
    -16.918  0.0000E+00  0.0000E+00  0.2000E+01  0.2000E+01
    -16.774  0.0000E+00  0.0000E+00  0.2000E+01  0.2000E+01
    -16.629  0.0000E+00  0.0000E+00  0.2000E+01  0.2000E+01
    -16.485  0.0000E+00  0.0000E+00  0.2000E+01  0.2000E+01
    -16.341  0.0000E+00  0.0000E+00  0.2000E+01  0.2000E+01
    -16.197  0.0000E+00  0.0000E+00  0.2000E+01  0.2000E+01
    -16.052  0.0000E+00  0.0000E+00  0.2000E+01  0.2000E+01
    -15.908  0.0000E+00  0.0000E+00  0.2000E+01  0.2000E+01
    -15.764  0.0000E+00  0.0000E+00  0.2000E+01  0.2000E+01
    -15.619  0.0000E+00  0.0000E+00  0.2000E+01  0.2000E+01
    -15.475  0.0000E+00  0.0000E+00  0.2000E+01  0.2000E+01
    -15.331  0.0000E+00  0.0000E+00  0.2000E+01  0.2000E+01
    -15.187  0.0000E+00  0.0000E+00  0.2000E+01  0.2000E+01
    -15.042  0.0000E+00  0.0000E+00  0.2000E+01  0.2000E+01
    -14.898  0.0000E+00  0.0000E+00  0.2000E+01  0.2000E+01
    -14.754  0.0000E+00  0.0000E+00  0.2000E+01  0.2000E+01
    -14.610  0.0000E+00  0.0000E+00  0.2000E+01  0.2000E+01
    -14.465  0.0000E+00  0.0000E+00  0.2000E+01  0.2000E+01
    -14.321  0.0000E+00  0.0000E+00  0.2000E+01  0.2000E+01
    -14.177  0.0000E+00  0.0000E+00  0.2000E+01  0.2000E+01
    -14.032  0.0000E+00  0.0000E+00  0.2000E+01  0.2000E+01
    -13.888  0.0000E+00  0.0000E+00  0.2000E+01  0.2000E+01
    -13.744  0.0000E+00  0.0000E+00  0.2000E+01  0.2000E+01
    -13.600  0.0000E+00  0.0000E+00  0.2000E+01  0.2000E+01
    -13.455  0.0000E+00  0.0000E+00  0.2000E+01  0.2000E+01
    -13.311  0.0000E+00  0.0000E+00  0.2000E+01  0.2000E+01
    -13.167  0.0000E+00  0.0000E+00  0.2000E+01  0.2000E+01
    -13.023  0.0000E+00  0.0000E+00  0.2000E+01  0.2000E+01
    -12.878  0.0000E+00  0.0000E+00  0.2000E+01  0.2000E+01
    -12.734  0.0000E+00  0.0000E+00  0.2000E+01  0.2000E+01
    -12.590  0.4275E-03  0.4233E-03  0.2000E+01  0.2000E+01
    -12.445  0.1052E-01  0.1043E-01  0.2002E+01  0.2002E+01
    -12.301  0.1836E+00  0.1820E+00  0.2028E+01  0.2028E+01
    -12.157  0.2875E+01  0.2853E+01  0.2443E+01  0.2439E+01
    -12.013  0.1752E+02  0.1748E+02  0.4971E+01  0.4961E+01
    -11.868  0.1772E+02  0.1777E+02  0.7527E+01  0.7524E+01
    -11.724  0.3065E+01  0.3084E+01  0.7970E+01  0.7969E+01
    -11.580  0.1397E+00  0.1409E+00  0.7999E+01  0.7999E+01
    -11.435  0.0000E+00  0.0000E+00  0.8000E+01  0.8000E+01
    -11.291  0.0000E+00  0.0000E+00  0.8000E+01  0.8000E+01
    -11.147  0.0000E+00  0.0000E+00  0.8000E+01  0.8000E+01
    -11.003  0.0000E+00  0.0000E+00  0.8000E+01  0.8000E+01
    -10.858  0.0000E+00  0.0000E+00  0.8000E+01  0.8000E+01
    -10.714  0.0000E+00  0.0000E+00  0.8000E+01  0.8000E+01
    -10.570  0.0000E+00  0.0000E+00  0.8000E+01  0.8000E+01
    -10.426  0.0000E+00  0.0000E+00  0.8000E+01  0.8000E+01
    -10.281  0.0000E+00  0.0000E+00  0.8000E+01  0.8000E+01
    -10.137  0.0000E+00  0.0000E+00  0.8000E+01  0.8000E+01
     -9.993  0.0000E+00  0.0000E+00  0.8000E+01  0.8000E+01
     -9.848  0.0000E+00  0.0000E+00  0.8000E+01  0.8000E+01
     -9.704  0.0000E+00  0.0000E+00  0.8000E+01  0.8000E+01
     -9.560  0.0000E+00  0.0000E+00  0.8000E+01  0.8000E+01
     -9.416  0.0000E+00  0.0000E+00  0.8000E+01  0.8000E+01
     -9.271  0.0000E+00  0.0000E+00  0.8000E+01  0.8000E+01
     -9.127  0.0000E+00  0.0000E+00  0.8000E+01  0.8000E+01
     -8.983  0.0000E+00  0.0000E+00  0.8000E+01  0.8000E+01
     -8.838  0.0000E+00  0.0000E+00  0.8000E+01  0.8000E+01
     -8.694  0.0000E+00  0.0000E+00  0.8000E+01  0.8000E+01
     -8.550  0.0000E+00  0.0000E+00  0.8000E+01  0.8000E+01
     -8.406  0.0000E+00  0.0000E+00  0.8000E+01  0.8000E+01
     -8.261  0.0000E+00  0.0000E+00  0.8000E+01  0.8000E+01
     -8.117  0.0000E+00  0.0000E+00  0.8000E+01  0.8000E+01
     -7.973  0.0000E+00  0.0000E+00  0.8000E+01  0.8000E+01
     -7.829  0.0000E+00  0.0000E+00  0.8000E+01  0.8000E+01
     -7.684  0.0000E+00  0.0000E+00  0.8000E+01  0.8000E+01
     -7.540  0.0000E+00  0.0000E+00  0.8000E+01  0.8000E+01
     -7.396  0.0000E+00  0.0000E+00  0.8000E+01  0.8000E+01
     -7.251  0.0000E+00  0.0000E+00  0.8000E+01  0.8000E+01
     -7.107  0.0000E+00  0.0000E+00  0.8000E+01  0.8000E+01
     -6.963  0.0000E+00  0.0000E+00  0.8000E+01  0.8000E+01
     -6.819  0.0000E+00  0.0000E+00  0.8000E+01  0.8000E+01
     -6.674  0.0000E+00  0.0000E+00  0.8000E+01  0.8000E+01
     -6.530  0.0000E+00  0.0000E+00  0.8000E+01  0.8000E+01
     -6.386  0.0000E+00  0.0000E+00  0.8000E+01  0.8000E+01
     -6.242  0.0000E+00  0.0000E+00  0.8000E+01  0.8000E+01
     -6.097  0.0000E+00  0.0000E+00  0.8000E+01  0.8000E+01
     -5.953  0.0000E+00  0.0000E+00  0.8000E+01  0.8000E+01
     -5.809  0.0000E+00  0.0000E+00  0.8000E+01  0.8000E+01
     -5.664  0.0000E+00  0.0000E+00  0.8000E+01  0.8000E+01
     -5.520  0.0000E+00  0.0000E+00  0.8000E+01  0.8000E+01
     -5.376  0.0000E+00  0.0000E+00  0.8000E+01  0.8000E+01
     -5.232  0.0000E+00  0.0000E+00  0.8000E+01  0.8000E+01
     -5.087  0.0000E+00  0.0000E+00  0.8000E+01  0.8000E+01
     -4.943  0.0000E+00  0.0000E+00  0.8000E+01  0.8000E+01
     -4.799  0.0000E+00  0.0000E+00  0.8000E+01  0.8000E+01
     -4.654  0.0000E+00  0.0000E+00  0.8000E+01  0.8000E+01
     -4.510  0.0000E+00  0.0000E+00  0.8000E+01  0.8000E+01
     -4.366  0.0000E+00  0.0000E+00  0.8000E+01  0.8000E+01
     -4.222  0.0000E+00  0.0000E+00  0.8000E+01  0.8000E+01
     -4.077  0.0000E+00  0.0000E+00  0.8000E+01  0.8000E+01
     -3.933  0.0000E+00  0.0000E+00  0.8000E+01  0.8000E+01
     -3.789  0.1190E-05  0.1187E-05  0.8000E+01  0.8000E+01
     -3.645  0.3531E-04  0.3523E-04  0.8000E+01  0.8000E+01
     -3.500  0.6462E-03  0.6446E-03  0.8000E+01  0.8000E+01
     -3.356  0.1035E-01  0.1033E-01  0.8002E+01  0.8002E+01
     -3.212  0.8042E-01  0.8033E-01  0.8013E+01  0.8013E+01
     -3.067  0.1998E+00  0.1997E+00  0.8042E+01  0.8042E+01
     -2.923  0.2809E+00  0.2809E+00  0.8083E+01  0.8083E+01
     -2.779  0.3735E+00  0.3734E+00  0.8136E+01  0.8136E+01
     -2.635  0.4196E+00  0.4196E+00  0.8197E+01  0.8197E+01
     -2.490  0.4783E+00  0.4781E+00  0.8266E+01  0.8266E+01
     -2.346  0.5774E+00  0.5774E+00  0.8350E+01  0.8349E+01
     -2.202  0.5423E+00  0.5423E+00  0.8428E+01  0.8428E+01
     -2.058  0.7154E+00  0.7153E+00  0.8531E+01  0.8531E+01
     -1.913  0.7112E+00  0.7112E+00  0.8634E+01  0.8634E+01
     -1.769  0.7733E+00  0.7731E+00  0.8746E+01  0.8746E+01
     -1.625  0.8351E+00  0.8350E+00  0.8867E+01  0.8866E+01
     -1.480  0.1010E+01  0.1010E+01  0.9012E+01  0.9012E+01
     -1.336  0.9748E+00  0.9748E+00  0.9153E+01  0.9153E+01
     -1.192  0.1041E+01  0.1040E+01  0.9304E+01  0.9303E+01
     -1.048  0.1195E+01  0.1195E+01  0.9476E+01  0.9476E+01
     -0.903  0.1105E+01  0.1105E+01  0.9636E+01  0.9636E+01
     -0.759  0.1102E+01  0.1102E+01  0.9795E+01  0.9795E+01
     -0.615  0.1219E+01  0.1219E+01  0.9972E+01  0.9971E+01
     -0.470  0.1415E+01  0.1415E+01  0.1018E+02  0.1018E+02
     -0.326  0.1502E+01  0.1503E+01  0.1039E+02  0.1039E+02
     -0.182  0.1313E+01  0.1313E+01  0.1058E+02  0.1058E+02
     -0.038  0.1158E+01  0.1158E+01  0.1075E+02  0.1075E+02
      0.107  0.1223E+01  0.1223E+01  0.1093E+02  0.1093E+02
      0.251  0.1262E+01  0.1262E+01  0.1111E+02  0.1111E+02
      0.395  0.1168E+01  0.1168E+01  0.1128E+02  0.1128E+02
      0.539  0.1415E+01  0.1414E+01  0.1148E+02  0.1148E+02
      0.684  0.1651E+01  0.1651E+01  0.1172E+02  0.1172E+02
      0.828  0.1588E+01  0.1589E+01  0.1195E+02  0.1195E+02
      0.972  0.1297E+01  0.1296E+01  0.1214E+02  0.1214E+02
      1.117  0.1597E+01  0.1597E+01  0.1237E+02  0.1237E+02
      1.261  0.1439E+01  0.1439E+01  0.1258E+02  0.1258E+02
      1.405  0.1108E+01  0.1108E+01  0.1274E+02  0.1274E+02
      1.549  0.1210E+01  0.1210E+01  0.1291E+02  0.1291E+02
      1.694  0.1277E+01  0.1277E+01  0.1310E+02  0.1310E+02
      1.838  0.9711E+00  0.9715E+00  0.1324E+02  0.1324E+02
      1.982  0.9735E+00  0.9733E+00  0.1338E+02  0.1338E+02
      2.126  0.1204E+01  0.1204E+01  0.1355E+02  0.1355E+02
      2.271  0.1208E+01  0.1208E+01  0.1373E+02  0.1373E+02
      2.415  0.1089E+01  0.1089E+01  0.1389E+02  0.1388E+02
      2.559  0.1340E+01  0.1340E+01  0.1408E+02  0.1408E+02
      2.704  0.1481E+01  0.1481E+01  0.1429E+02  0.1429E+02
      2.848  0.1632E+01  0.1632E+01  0.1453E+02  0.1453E+02
      2.992  0.1889E+01  0.1889E+01  0.1480E+02  0.1480E+02
      3.136  0.1977E+01  0.1976E+01  0.1509E+02  0.1509E+02
      3.281  0.1895E+01  0.1895E+01  0.1536E+02  0.1536E+02
      3.425  0.1936E+01  0.1936E+01  0.1564E+02  0.1564E+02
      3.569  0.1872E+01  0.1872E+01  0.1591E+02  0.1591E+02
      3.714  0.2139E+01  0.2138E+01  0.1622E+02  0.1622E+02
      3.858  0.2521E+01  0.2521E+01  0.1658E+02  0.1658E+02
      4.002  0.2859E+01  0.2859E+01  0.1700E+02  0.1700E+02
      4.146  0.2432E+01  0.2432E+01  0.1735E+02  0.1735E+02
      4.291  0.2137E+01  0.2137E+01  0.1766E+02  0.1766E+02
      4.435  0.1897E+01  0.1898E+01  0.1793E+02  0.1793E+02
      4.579  0.1866E+01  0.1865E+01  0.1820E+02  0.1820E+02
      4.723  0.2078E+01  0.2078E+01  0.1850E+02  0.1850E+02
      4.868  0.1912E+01  0.1912E+01  0.1878E+02  0.1878E+02
      5.012  0.1807E+01  0.1807E+01  0.1904E+02  0.1904E+02
      5.156  0.1932E+01  0.1932E+01  0.1932E+02  0.1932E+02
      5.301  0.2377E+01  0.2377E+01  0.1966E+02  0.1966E+02
      5.445  0.2595E+01  0.2595E+01  0.2004E+02  0.2004E+02
      5.589  0.2498E+01  0.2498E+01  0.2040E+02  0.2040E+02
      5.733  0.2233E+01  0.2232E+01  0.2072E+02  0.2072E+02
      5.878  0.2110E+01  0.2111E+01  0.2103E+02  0.2103E+02
      6.022  0.2121E+01  0.2120E+01  0.2133E+02  0.2133E+02
      6.166  0.2233E+01  0.2234E+01  0.2166E+02  0.2166E+02
      6.310  0.1775E+01  0.1776E+01  0.2191E+02  0.2191E+02
      6.455  0.1563E+01  0.1562E+01  0.2214E+02  0.2214E+02
      6.599  0.2005E+01  0.2004E+01  0.2243E+02  0.2243E+02
      6.743  0.2348E+01  0.2347E+01  0.2277E+02  0.2277E+02
      6.888  0.2010E+01  0.2010E+01  0.2306E+02  0.2306E+02
      7.032  0.1958E+01  0.1958E+01  0.2334E+02  0.2334E+02
      7.176  0.1828E+01  0.1828E+01  0.2361E+02  0.2361E+02
      7.320  0.1928E+01  0.1928E+01  0.2388E+02  0.2388E+02
      7.465  0.2133E+01  0.2133E+01  0.2419E+02  0.2419E+02
      7.609  0.2591E+01  0.2592E+01  0.2457E+02  0.2457E+02
      7.753  0.3396E+01  0.3392E+01  0.2506E+02  0.2506E+02
      7.898  0.3396E+01  0.3381E+01  0.2555E+02  0.2555E+02
      8.042  0.3329E+01  0.3369E+01  0.2603E+02  0.2603E+02
      8.186  0.2706E+01  0.2785E+01  0.2642E+02  0.2644E+02
      8.330  0.2503E+01  0.2424E+01  0.2678E+02  0.2679E+02
      8.475  0.2562E+01  0.2458E+01  0.2715E+02  0.2714E+02
      8.619  0.1679E+01  0.1670E+01  0.2740E+02  0.2738E+02
      8.763  0.1085E+01  0.1164E+01  0.2755E+02  0.2755E+02
      8.907  0.8524E+00  0.8517E+00  0.2768E+02  0.2768E+02
      9.052  0.6514E+00  0.6446E+00  0.2777E+02  0.2777E+02
      9.196  0.5912E+00  0.5922E+00  0.2786E+02  0.2785E+02
      9.340  0.4704E+00  0.5241E+00  0.2793E+02  0.2793E+02
      9.485  0.3710E+00  0.3571E+00  0.2798E+02  0.2798E+02
      9.629  0.1326E+00  0.1134E+00  0.2800E+02  0.2800E+02
      9.773  0.1208E-01  0.1232E-01  0.2800E+02  0.2800E+02
      9.917  0.0000E+00  0.3902E-03  0.2800E+02  0.2800E+02
     10.062  0.0000E+00  0.0000E+00  0.2800E+02  0.2800E+02
     10.206  0.0000E+00  0.0000E+00  0.2800E+02  0.2800E+02
     10.350  0.0000E+00  0.0000E+00  0.2800E+02  0.2800E+02
     10.495  0.0000E+00  0.0000E+00  0.2800E+02  0.2800E+02
     10.639  0.0000E+00  0.0000E+00  0.2800E+02  0.2800E+02
     10.783  0.0000E+00  0.0000E+00  0.2800E+02  0.2800E+02
     10.927  0.0000E+00  0.0000E+00  0.2800E+02  0.2800E+02
     11.072  0.0000E+00  0.0000E+00  0.2800E+02  0.2800E+02
     11.216  0.0000E+00  0.0000E+00  0.2800E+02  0.2800E+02
     11.360  0.0000E+00  0.0000E+00  0.2800E+02  0.2800E+02
     11.504  0.0000E+00  0.0000E+00  0.2800E+02  0.2800E+02
     11.50443538    -31.77840025  301      4.99049635      1.00000000
    -31.778  0.0000E+00  0.0000E+00  0.0000E+00  0.0000E+00  0.0000E+00  0.0000E+00  0.0000E+00  0.0000E+00  0.0000E+00  0.0000E+00  0.0000E+00  0.0000E+00  0.0000E+00  0.0000E+00  0.0000E+00  0.0000E+00  0.0000E+00  0.0000E+00
    -31.634  0.0000E+00  0.0000E+00  0.0000E+00  0.0000E+00  0.0000E+00  0.0000E+00  0.0000E+00  0.0000E+00  0.0000E+00  0.0000E+00  0.0000E+00  0.0000E+00  0.0000E+00  0.0000E+00  0.0000E+00  0.0000E+00  0.0000E+00  0.0000E+00
    -31.490  0.0000E+00  0.0000E+00  0.0000E+00  0.0000E+00  0.0000E+00  0.0000E+00  0.0000E+00  0.0000E+00  0.0000E+00  0.0000E+00  0.0000E+00  0.0000E+00  0.0000E+00  0.0000E+00  0.0000E+00  0.0000E+00  0.0000E+00  0.0000E+00
    -31.346  0.0000E+00  0.0000E+00  0.0000E+00  0.0000E+00  0.0000E+00  0.0000E+00  0.0000E+00  0.0000E+00  0.0000E+00  0.0000E+00  0.0000E+00  0.0000E+00  0.0000E+00  0.0000E+00  0.0000E+00  0.0000E+00  0.0000E+00  0.0000E+00
    -31.201  0.0000E+00  0.0000E+00  0.0000E+00  0.0000E+00  0.0000E+00  0.0000E+00  0.0000E+00  0.0000E+00  0.0000E+00  0.0000E+00  0.0000E+00  0.0000E+00  0.0000E+00  0.0000E+00  0.0000E+00  0.0000E+00  0.0000E+00  0.0000E+00
    -31.057  0.0000E+00  0.0000E+00  0.0000E+00  0.0000E+00  0.0000E+00  0.0000E+00  0.0000E+00  0.0000E+00  0.0000E+00  0.0000E+00  0.0000E+00  0.0000E+00  0.0000E+00  0.0000E+00  0.0000E+00  0.0000E+00  0.0000E+00  0.0000E+00
    -30.913  0.0000E+00  0.0000E+00  0.0000E+00  0.0000E+00  0.0000E+00  0.0000E+00  0.0000E+00  0.0000E+00  0.0000E+00  0.0000E+00  0.0000E+00  0.0000E+00  0.0000E+00  0.0000E+00  0.0000E+00  0.0000E+00  0.0000E+00  0.0000E+00
    -30.768  0.0000E+00  0.0000E+00  0.0000E+00  0.0000E+00  0.0000E+00  0.0000E+00  0.0000E+00  0.0000E+00  0.0000E+00  0.0000E+00  0.0000E+00  0.0000E+00  0.0000E+00  0.0000E+00  0.0000E+00  0.0000E+00  0.0000E+00  0.0000E+00
    -30.624  0.0000E+00  0.0000E+00  0.0000E+00  0.0000E+00  0.0000E+00  0.0000E+00  0.0000E+00  0.0000E+00  0.0000E+00  0.0000E+00  0.0000E+00  0.0000E+00  0.0000E+00  0.0000E+00  0.0000E+00  0.0000E+00  0.0000E+00  0.0000E+00
    -30.480  0.0000E+00  0.0000E+00  0.0000E+00  0.0000E+00  0.0000E+00  0.0000E+00  0.0000E+00  0.0000E+00  0.0000E+00  0.0000E+00  0.0000E+00  0.0000E+00  0.0000E+00  0.0000E+00  0.0000E+00  0.0000E+00  0.0000E+00  0.0000E+00
    -30.336  0.1764E-03  0.1765E-03  0.1791E-11  0.1816E-11  0.6272E-13  0.6936E-13  0.1791E-11  0.1816E-11  0.2482E-14  0.2164E-14  0.1003E-13  0.7527E-14  0.2784E-09  0.2764E-09  0.1003E-13  0.7527E-14  0.9328E-12  0.9438E-12
    -30.191  0.2982E-02  0.2984E-02  0.3028E-10  0.3071E-10  0.1060E-11  0.1172E-11  0.3028E-10  0.3071E-10  0.4196E-13  0.3658E-13  0.1695E-12  0.1272E-12  0.4706E-08  0.4673E-08  0.1695E-12  0.1272E-12  0.1577E-10  0.1596E-10
    -30.047  0.5297E-01  0.5300E-01  0.5380E-09  0.5455E-09  0.1883E-10  0.2082E-10  0.5380E-09  0.5455E-09  0.7455E-12  0.6498E-12  0.3012E-11  0.2260E-11  0.8359E-07  0.8301E-07  0.3012E-11  0.2260E-11  0.2801E-09  0.2834E-09
    -29.903  0.8257E+00  0.8260E+00  0.8384E-08  0.8501E-08  0.2925E-09  0.3234E-09  0.8384E-08  0.8501E-08  0.1165E-10  0.1015E-10  0.4695E-10  0.3525E-10  0.1303E-05  0.1294E-05  0.4695E-10  0.3525E-10  0.4367E-08  0.4418E-08
    -29.759  0.4050E+01  0.4051E+01  0.4110E-07  0.4166E-07  0.1409E-08  0.1557E-08  0.4110E-07  0.4166E-07  0.5786E-10  0.5023E-10  0.2306E-09  0.1734E-09  0.6399E-05  0.6352E-05  0.2306E-09  0.1734E-09  0.2143E-07  0.2167E-07
    -29.614  0.1702E+01  0.1701E+01  0.1726E-07  0.1748E-07  0.5791E-09  0.6393E-09  0.1726E-07  0.1748E-07  0.2468E-10  0.2134E-10  0.9703E-10  0.7304E-10  0.2692E-05  0.2671E-05  0.9703E-10  0.7304E-10  0.9003E-08  0.9099E-08
    -29.470  0.1303E+00  0.1302E+00  0.1321E-08  0.1338E-08  0.4404E-10  0.4860E-10  0.1321E-08  0.1338E-08  0.1899E-11  0.1640E-11  0.7433E-11  0.5598E-11  0.2062E-06  0.2046E-06  0.7433E-11  0.5598E-11  0.6893E-09  0.6965E-09
    -29.326  0.0000E+00  0.0000E+00  0.0000E+00  0.0000E+00  0.0000E+00  0.0000E+00  0.0000E+00  0.0000E+00  0.0000E+00  0.0000E+00  0.0000E+00  0.0000E+00  0.0000E+00  0.0000E+00  0.0000E+00  0.0000E+00  0.0000E+00  0.0000E+00
    -29.181  0.0000E+00  0.0000E+00  0.0000E+00  0.0000E+00  0.0000E+00  0.0000E+00  0.0000E+00  0.0000E+00  0.0000E+00  0.0000E+00  0.0000E+00  0.0000E+00  0.0000E+00  0.0000E+00  0.0000E+00  0.0000E+00  0.0000E+00  0.0000E+00
    -29.037  0.0000E+00  0.0000E+00  0.0000E+00  0.0000E+00  0.0000E+00  0.0000E+00  0.0000E+00  0.0000E+00  0.0000E+00  0.0000E+00  0.0000E+00  0.0000E+00  0.0000E+00  0.0000E+00  0.0000E+00  0.0000E+00  0.0000E+00  0.0000E+00
    -28.893  0.0000E+00  0.0000E+00  0.0000E+00  0.0000E+00  0.0000E+00  0.0000E+00  0.0000E+00  0.0000E+00  0.0000E+00  0.0000E+00  0.0000E+00  0.0000E+00  0.0000E+00  0.0000E+00  0.0000E+00  0.0000E+00  0.0000E+00  0.0000E+00
    -28.749  0.0000E+00  0.0000E+00  0.0000E+00  0.0000E+00  0.0000E+00  0.0000E+00  0.0000E+00  0.0000E+00  0.0000E+00  0.0000E+00  0.0000E+00  0.0000E+00  0.0000E+00  0.0000E+00  0.0000E+00  0.0000E+00  0.0000E+00  0.0000E+00
    -28.604  0.0000E+00  0.0000E+00  0.0000E+00  0.0000E+00  0.0000E+00  0.0000E+00  0.0000E+00  0.0000E+00  0.0000E+00  0.0000E+00  0.0000E+00  0.0000E+00  0.0000E+00  0.0000E+00  0.0000E+00  0.0000E+00  0.0000E+00  0.0000E+00
    -28.460  0.0000E+00  0.0000E+00  0.0000E+00  0.0000E+00  0.0000E+00  0.0000E+00  0.0000E+00  0.0000E+00  0.0000E+00  0.0000E+00  0.0000E+00  0.0000E+00  0.0000E+00  0.0000E+00  0.0000E+00  0.0000E+00  0.0000E+00  0.0000E+00
    -28.316  0.0000E+00  0.0000E+00  0.0000E+00  0.0000E+00  0.0000E+00  0.0000E+00  0.0000E+00  0.0000E+00  0.0000E+00  0.0000E+00  0.0000E+00  0.0000E+00  0.0000E+00  0.0000E+00  0.0000E+00  0.0000E+00  0.0000E+00  0.0000E+00
    -28.171  0.0000E+00  0.0000E+00  0.0000E+00  0.0000E+00  0.0000E+00  0.0000E+00  0.0000E+00  0.0000E+00  0.0000E+00  0.0000E+00  0.0000E+00  0.0000E+00  0.0000E+00  0.0000E+00  0.0000E+00  0.0000E+00  0.0000E+00  0.0000E+00
    -28.027  0.0000E+00  0.0000E+00  0.0000E+00  0.0000E+00  0.0000E+00  0.0000E+00  0.0000E+00  0.0000E+00  0.0000E+00  0.0000E+00  0.0000E+00  0.0000E+00  0.0000E+00  0.0000E+00  0.0000E+00  0.0000E+00  0.0000E+00  0.0000E+00
    -27.883  0.0000E+00  0.0000E+00  0.0000E+00  0.0000E+00  0.0000E+00  0.0000E+00  0.0000E+00  0.0000E+00  0.0000E+00  0.0000E+00  0.0000E+00  0.0000E+00  0.0000E+00  0.0000E+00  0.0000E+00  0.0000E+00  0.0000E+00  0.0000E+00
    -27.739  0.0000E+00  0.0000E+00  0.0000E+00  0.0000E+00  0.0000E+00  0.0000E+00  0.0000E+00  0.0000E+00  0.0000E+00  0.0000E+00  0.0000E+00  0.0000E+00  0.0000E+00  0.0000E+00  0.0000E+00  0.0000E+00  0.0000E+00  0.0000E+00
    -27.594  0.0000E+00  0.0000E+00  0.0000E+00  0.0000E+00  0.0000E+00  0.0000E+00  0.0000E+00  0.0000E+00  0.0000E+00  0.0000E+00  0.0000E+00  0.0000E+00  0.0000E+00  0.0000E+00  0.0000E+00  0.0000E+00  0.0000E+00  0.0000E+00
    -27.450  0.0000E+00  0.0000E+00  0.0000E+00  0.0000E+00  0.0000E+00  0.0000E+00  0.0000E+00  0.0000E+00  0.0000E+00  0.0000E+00  0.0000E+00  0.0000E+00  0.0000E+00  0.0000E+00  0.0000E+00  0.0000E+00  0.0000E+00  0.0000E+00
    -27.306  0.0000E+00  0.0000E+00  0.0000E+00  0.0000E+00  0.0000E+00  0.0000E+00  0.0000E+00  0.0000E+00  0.0000E+00  0.0000E+00  0.0000E+00  0.0000E+00  0.0000E+00  0.0000E+00  0.0000E+00  0.0000E+00  0.0000E+00  0.0000E+00
    -27.162  0.0000E+00  0.0000E+00  0.0000E+00  0.0000E+00  0.0000E+00  0.0000E+00  0.0000E+00  0.0000E+00  0.0000E+00  0.0000E+00  0.0000E+00  0.0000E+00  0.0000E+00  0.0000E+00  0.0000E+00  0.0000E+00  0.0000E+00  0.0000E+00
    -27.017  0.0000E+00  0.0000E+00  0.0000E+00  0.0000E+00  0.0000E+00  0.0000E+00  0.0000E+00  0.0000E+00  0.0000E+00  0.0000E+00  0.0000E+00  0.0000E+00  0.0000E+00  0.0000E+00  0.0000E+00  0.0000E+00  0.0000E+00  0.0000E+00
    -26.873  0.0000E+00  0.0000E+00  0.0000E+00  0.0000E+00  0.0000E+00  0.0000E+00  0.0000E+00  0.0000E+00  0.0000E+00  0.0000E+00  0.0000E+00  0.0000E+00  0.0000E+00  0.0000E+00  0.0000E+00  0.0000E+00  0.0000E+00  0.0000E+00
    -26.729  0.0000E+00  0.0000E+00  0.0000E+00  0.0000E+00  0.0000E+00  0.0000E+00  0.0000E+00  0.0000E+00  0.0000E+00  0.0000E+00  0.0000E+00  0.0000E+00  0.0000E+00  0.0000E+00  0.0000E+00  0.0000E+00  0.0000E+00  0.0000E+00
    -26.584  0.0000E+00  0.0000E+00  0.0000E+00  0.0000E+00  0.0000E+00  0.0000E+00  0.0000E+00  0.0000E+00  0.0000E+00  0.0000E+00  0.0000E+00  0.0000E+00  0.0000E+00  0.0000E+00  0.0000E+00  0.0000E+00  0.0000E+00  0.0000E+00
    -26.440  0.0000E+00  0.0000E+00  0.0000E+00  0.0000E+00  0.0000E+00  0.0000E+00  0.0000E+00  0.0000E+00  0.0000E+00  0.0000E+00  0.0000E+00  0.0000E+00  0.0000E+00  0.0000E+00  0.0000E+00  0.0000E+00  0.0000E+00  0.0000E+00
    -26.296  0.0000E+00  0.0000E+00  0.0000E+00  0.0000E+00  0.0000E+00  0.0000E+00  0.0000E+00  0.0000E+00  0.0000E+00  0.0000E+00  0.0000E+00  0.0000E+00  0.0000E+00  0.0000E+00  0.0000E+00  0.0000E+00  0.0000E+00  0.0000E+00
    -26.152  0.0000E+00  0.0000E+00  0.0000E+00  0.0000E+00  0.0000E+00  0.0000E+00  0.0000E+00  0.0000E+00  0.0000E+00  0.0000E+00  0.0000E+00  0.0000E+00  0.0000E+00  0.0000E+00  0.0000E+00  0.0000E+00  0.0000E+00  0.0000E+00
    -26.007  0.0000E+00  0.0000E+00  0.0000E+00  0.0000E+00  0.0000E+00  0.0000E+00  0.0000E+00  0.0000E+00  0.0000E+00  0.0000E+00  0.0000E+00  0.0000E+00  0.0000E+00  0.0000E+00  0.0000E+00  0.0000E+00  0.0000E+00  0.0000E+00
    -25.863  0.0000E+00  0.0000E+00  0.0000E+00  0.0000E+00  0.0000E+00  0.0000E+00  0.0000E+00  0.0000E+00  0.0000E+00  0.0000E+00  0.0000E+00  0.0000E+00  0.0000E+00  0.0000E+00  0.0000E+00  0.0000E+00  0.0000E+00  0.0000E+00
    -25.719  0.0000E+00  0.0000E+00  0.0000E+00  0.0000E+00  0.0000E+00  0.0000E+00  0.0000E+00  0.0000E+00  0.0000E+00  0.0000E+00  0.0000E+00  0.0000E+00  0.0000E+00  0.0000E+00  0.0000E+00  0.0000E+00  0.0000E+00  0.0000E+00
    -25.575  0.0000E+00  0.0000E+00  0.0000E+00  0.0000E+00  0.0000E+00  0.0000E+00  0.0000E+00  0.0000E+00  0.0000E+00  0.0000E+00  0.0000E+00  0.0000E+00  0.0000E+00  0.0000E+00  0.0000E+00  0.0000E+00  0.0000E+00  0.0000E+00
    -25.430  0.0000E+00  0.0000E+00  0.0000E+00  0.0000E+00  0.0000E+00  0.0000E+00  0.0000E+00  0.0000E+00  0.0000E+00  0.0000E+00  0.0000E+00  0.0000E+00  0.0000E+00  0.0000E+00  0.0000E+00  0.0000E+00  0.0000E+00  0.0000E+00
    -25.286  0.0000E+00  0.0000E+00  0.0000E+00  0.0000E+00  0.0000E+00  0.0000E+00  0.0000E+00  0.0000E+00  0.0000E+00  0.0000E+00  0.0000E+00  0.0000E+00  0.0000E+00  0.0000E+00  0.0000E+00  0.0000E+00  0.0000E+00  0.0000E+00
    -25.142  0.0000E+00  0.0000E+00  0.0000E+00  0.0000E+00  0.0000E+00  0.0000E+00  0.0000E+00  0.0000E+00  0.0000E+00  0.0000E+00  0.0000E+00  0.0000E+00  0.0000E+00  0.0000E+00  0.0000E+00  0.0000E+00  0.0000E+00  0.0000E+00
    -24.997  0.0000E+00  0.0000E+00  0.0000E+00  0.0000E+00  0.0000E+00  0.0000E+00  0.0000E+00  0.0000E+00  0.0000E+00  0.0000E+00  0.0000E+00  0.0000E+00  0.0000E+00  0.0000E+00  0.0000E+00  0.0000E+00  0.0000E+00  0.0000E+00
    -24.853  0.0000E+00  0.0000E+00  0.0000E+00  0.0000E+00  0.0000E+00  0.0000E+00  0.0000E+00  0.0000E+00  0.0000E+00  0.0000E+00  0.0000E+00  0.0000E+00  0.0000E+00  0.0000E+00  0.0000E+00  0.0000E+00  0.0000E+00  0.0000E+00
    -24.709  0.0000E+00  0.0000E+00  0.0000E+00  0.0000E+00  0.0000E+00  0.0000E+00  0.0000E+00  0.0000E+00  0.0000E+00  0.0000E+00  0.0000E+00  0.0000E+00  0.0000E+00  0.0000E+00  0.0000E+00  0.0000E+00  0.0000E+00  0.0000E+00
    -24.565  0.0000E+00  0.0000E+00  0.0000E+00  0.0000E+00  0.0000E+00  0.0000E+00  0.0000E+00  0.0000E+00  0.0000E+00  0.0000E+00  0.0000E+00  0.0000E+00  0.0000E+00  0.0000E+00  0.0000E+00  0.0000E+00  0.0000E+00  0.0000E+00