   8   8   1   0
  0.1847278E+02  0.4271092E-09  0.4271092E-09  0.8101107E-09  0.5000000E-15
  1.000000000000000E-004
  CAR 
 unknown system                          
     13.79893247    -29.60174189  301      6.73245016      1.00000000
    -29.602  0.0000E+00  0.0000E+00  0.0000E+00  0.0000E+00
    -29.457  0.0000E+00  0.0000E+00  0.0000E+00  0.0000E+00
    -29.312  0.0000E+00  0.0000E+00  0.0000E+00  0.0000E+00
    -29.168  0.0000E+00  0.0000E+00  0.0000E+00  0.0000E+00
    -29.023  0.0000E+00  0.0000E+00  0.0000E+00  0.0000E+00
    -28.878  0.0000E+00  0.0000E+00  0.0000E+00  0.0000E+00
    -28.734  0.0000E+00  0.0000E+00  0.0000E+00  0.0000E+00
    -28.589  0.0000E+00  0.0000E+00  0.0000E+00  0.0000E+00
    -28.444  0.0000E+00  0.0000E+00  0.0000E+00  0.0000E+00
    -28.300  0.0000E+00  0.0000E+00  0.0000E+00  0.0000E+00
    -28.155  0.2941E-03  0.3039E-03  0.4255E-04  0.4397E-04
    -28.010  0.5123E-02  0.5181E-02  0.7837E-03  0.7936E-03
    -27.866  0.9173E-01  0.9288E-01  0.1405E-01  0.1423E-01
    -27.721  0.1468E+01  0.1484E+01  0.2264E+00  0.2290E+00
    -27.576  0.8065E+01  0.8084E+01  0.1393E+01  0.1398E+01
    -27.432  0.3868E+01  0.3836E+01  0.1953E+01  0.1953E+01
    -27.287  0.3077E+00  0.3040E+00  0.1997E+01  0.1997E+01
    -27.142  0.0000E+00  0.0000E+00  0.2000E+01  0.2000E+01
    -26.998  0.0000E+00  0.0000E+00  0.2000E+01  0.2000E+01
    -26.853  0.0000E+00  0.0000E+00  0.2000E+01  0.2000E+01
    -26.708  0.0000E+00  0.0000E+00  0.2000E+01  0.2000E+01
    -26.564  0.0000E+00  0.0000E+00  0.2000E+01  0.2000E+01
    -26.419  0.0000E+00  0.0000E+00  0.2000E+01  0.2000E+01
    -26.274  0.0000E+00  0.0000E+00  0.2000E+01  0.2000E+01
    -26.130  0.0000E+00  0.0000E+00  0.2000E+01  0.2000E+01
    -25.985  0.0000E+00  0.0000E+00  0.2000E+01  0.2000E+01
    -25.840  0.0000E+00  0.0000E+00  0.2000E+01  0.2000E+01
    -25.696  0.0000E+00  0.0000E+00  0.2000E+01  0.2000E+01
    -25.551  0.0000E+00  0.0000E+00  0.2000E+01  0.2000E+01
    -25.406  0.0000E+00  0.0000E+00  0.2000E+01  0.2000E+01
    -25.262  0.0000E+00  0.0000E+00  0.2000E+01  0.2000E+01
    -25.117  0.0000E+00  0.0000E+00  0.2000E+01  0.2000E+01
    -24.972  0.0000E+00  0.0000E+00  0.2000E+01  0.2000E+01
    -24.828  0.0000E+00  0.0000E+00  0.2000E+01  0.2000E+01
    -24.683  0.0000E+00  0.0000E+00  0.2000E+01  0.2000E+01
    -24.538  0.0000E+00  0.0000E+00  0.2000E+01  0.2000E+01
    -24.394  0.0000E+00  0.0000E+00  0.2000E+01  0.2000E+01
    -24.249  0.0000E+00  0.0000E+00  0.2000E+01  0.2000E+01
    -24.104  0.0000E+00  0.0000E+00  0.2000E+01  0.2000E+01
    -23.960  0.0000E+00  0.0000E+00  0.2000E+01  0.2000E+01
    -23.815  0.0000E+00  0.0000E+00  0.2000E+01  0.2000E+01
    -23.670  0.0000E+00  0.0000E+00  0.2000E+01  0.2000E+01
    -23.526  0.0000E+00  0.0000E+00  0.2000E+01  0.2000E+01
    -23.381  0.0000E+00  0.0000E+00  0.2000E+01  0.2000E+01
    -23.236  0.0000E+00  0.0000E+00  0.2000E+01  0.2000E+01
    -23.092  0.0000E+00  0.0000E+00  0.2000E+01  0.2000E+01
    -22.947  0.0000E+00  0.0000E+00  0.2000E+01  0.2000E+01
    -22.802  0.0000E+00  0.0000E+00  0.2000E+01  0.2000E+01
    -22.658  0.0000E+00  0.0000E+00  0.2000E+01  0.2000E+01
    -22.513  0.0000E+00  0.0000E+00  0.2000E+01  0.2000E+01
    -22.368  0.0000E+00  0.0000E+00  0.2000E+01  0.2000E+01
    -22.224  0.0000E+00  0.0000E+00  0.2000E+01  0.2000E+01
    -22.079  0.0000E+00  0.0000E+00  0.2000E+01  0.2000E+01
    -21.934  0.0000E+00  0.0000E+00  0.2000E+01  0.2000E+01
    -21.790  0.0000E+00  0.0000E+00  0.2000E+01  0.2000E+01
    -21.645  0.0000E+00  0.0000E+00  0.2000E+01  0.2000E+01
    -21.500  0.0000E+00  0.0000E+00  0.2000E+01  0.2000E+01
    -21.356  0.0000E+00  0.0000E+00  0.2000E+01  0.2000E+01
    -21.211  0.0000E+00  0.0000E+00  0.2000E+01  0.2000E+01
    -21.066  0.0000E+00  0.0000E+00  0.2000E+01  0.2000E+01
    -20.922  0.0000E+00  0.0000E+00  0.2000E+01  0.2000E+01
    -20.777  0.0000E+00  0.0000E+00  0.2000E+01  0.2000E+01
    -20.632  0.0000E+00  0.0000E+00  0.2000E+01  0.2000E+01
    -20.488  0.0000E+00  0.0000E+00  0.2000E+01  0.2000E+01
    -20.343  0.0000E+00  0.0000E+00  0.2000E+01  0.2000E+01
    -20.198  0.0000E+00  0.0000E+00  0.2000E+01  0.2000E+01
    -20.054  0.0000E+00  0.0000E+00  0.2000E+01  0.2000E+01
    -19.909  0.0000E+00  0.0000E+00  0.2000E+01  0.2000E+01
    -19.764  0.0000E+00  0.0000E+00  0.2000E+01  0.2000E+01
    -19.620  0.0000E+00  0.0000E+00  0.2000E+01  0.2000E+01
    -19.475  0.0000E+00  0.0000E+00  0.2000E+01  0.2000E+01
    -19.330  0.0000E+00  0.0000E+00  0.2000E+01  0.2000E+01
    -19.186  0.0000E+00  0.0000E+00  0.2000E+01  0.2000E+01
    -19.041  0.0000E+00  0.0000E+00  0.2000E+01  0.2000E+01
    -18.896  0.0000E+00  0.0000E+00  0.2000E+01  0.2000E+01
    -18.752  0.0000E+00  0.0000E+00  0.2000E+01  0.2000E+01
    -18.607  0.0000E+00  0.0000E+00  0.2000E+01  0.2000E+01
    -18.462  0.0000E+00  0.0000E+00  0.2000E+01  0.2000E+01
    -18.318  0.0000E+00  0.0000E+00  0.2000E+01  0.2000E+01
    -18.173  0.0000E+00  0.0000E+00  0.2000E+01  0.2000E+01
    -18.028  0.0000E+00  0.0000E+00  0.2000E+01  0.2000E+01
    -17.884  0.0000E+00  0.0000E+00  0.2000E+01  0.2000E+01
    -17.739  0.0000E+00  0.0000E+00  0.2000E+01  0.2000E+01
    -17.594  0.0000E+00  0.0000E+00  0.2000E+01  0.2000E+01
    -17.450  0.0000E+00  0.0000E+00  0.2000E+01  0.2000E+01
    -17.305  0.0000E+00  0.0000E+00  0.2000E+01  0.2000E+01
    -17.160  0.0000E+00  0.0000E+00  0.2000E+01  0.2000E+01
    -17.016  0.0000E+00  0.0000E+00  0.2000E+01  0.2000E+01
    -16.871  0.0000E+00  0.0000E+00  0.2000E+01  0.2000E+01
    -16.726  0.0000E+00  0.0000E+00  0.2000E+01  0.2000E+01
    -16.582  0.0000E+00  0.0000E+00  0.2000E+01  0.2000E+01
    -16.437  0.0000E+00  0.0000E+00  0.2000E+01  0.2000E+01
    -16.292  0.0000E+00  0.0000E+00  0.2000E+01  0.2000E+01
    -16.148  0.0000E+00  0.0000E+00  0.2000E+01  0.2000E+01
    -16.003  0.0000E+00  0.0000E+00  0.2000E+01  0.2000E+01
    -15.858  0.0000E+00  0.0000E+00  0.2000E+01  0.2000E+01
    -15.714  0.0000E+00  0.0000E+00  0.2000E+01  0.2000E+01
    -15.569  0.0000E+00  0.0000E+00  0.2000E+01  0.2000E+01
    -15.424  0.0000E+00  0.0000E+00  0.2000E+01  0.2000E+01
    -15.280  0.0000E+00  0.0000E+00  0.2000E+01  0.2000E+01
    -15.135  0.0000E+00  0.0000E+00  0.2000E+01  0.2000E+01
    -14.990  0.0000E+00  0.0000E+00  0.2000E+01  0.2000E+01
    -14.846  0.0000E+00  0.0000E+00  0.2000E+01  0.2000E+01
    -14.701  0.0000E+00  0.0000E+00  0.2000E+01  0.2000E+01
    -14.556  0.0000E+00  0.0000E+00  0.2000E+01  0.2000E+01
    -14.412  0.0000E+00  0.0000E+00  0.2000E+01  0.2000E+01
    -14.267  0.0000E+00  0.0000E+00  0.2000E+01  0.2000E+01
    -14.122  0.0000E+00  0.0000E+00  0.2000E+01  0.2000E+01
    -13.977  0.0000E+00  0.0000E+00  0.2000E+01  0.2000E+01
    -13.833  0.0000E+00  0.0000E+00  0.2000E+01  0.2000E+01
    -13.688  0.0000E+00  0.0000E+00  0.2000E+01  0.2000E+01
    -13.543  0.0000E+00  0.0000E+00  0.2000E+01  0.2000E+01
    -13.399  0.0000E+00  0.0000E+00  0.2000E+01  0.2000E+01
    -13.254  0.0000E+00  0.0000E+00  0.2000E+01  0.2000E+01
    -13.109  0.0000E+00  0.0000E+00  0.2000E+01  0.2000E+01
    -12.965  0.0000E+00  0.0000E+00  0.2000E+01  0.2000E+01
    -12.820  0.0000E+00  0.0000E+00  0.2000E+01  0.2000E+01
    -12.675  0.0000E+00  0.0000E+00  0.2000E+01  0.2000E+01
    -12.531  0.0000E+00  0.0000E+00  0.2000E+01  0.2000E+01
    -12.386  0.0000E+00  0.0000E+00  0.2000E+01  0.2000E+01
    -12.241  0.0000E+00  0.0000E+00  0.2000E+01  0.2000E+01
    -12.097  0.0000E+00  0.0000E+00  0.2000E+01  0.2000E+01
    -11.952  0.0000E+00  0.0000E+00  0.2000E+01  0.2000E+01
    -11.807  0.0000E+00  0.0000E+00  0.2000E+01  0.2000E+01
    -11.663  0.0000E+00  0.0000E+00  0.2000E+01  0.2000E+01
    -11.518  0.0000E+00  0.0000E+00  0.2000E+01  0.2000E+01
    -11.373  0.0000E+00  0.0000E+00  0.2000E+01  0.2000E+01
    -11.229  0.0000E+00  0.0000E+00  0.2000E+01  0.2000E+01
    -11.084  0.0000E+00  0.0000E+00  0.2000E+01  0.2000E+01
    -10.939  0.0000E+00  0.0000E+00  0.2000E+01  0.2000E+01
    -10.795  0.0000E+00  0.0000E+00  0.2000E+01  0.2000E+01
    -10.650  0.4744E-03  0.4828E-03  0.2000E+01  0.2000E+01
    -10.505  0.1082E-01  0.1096E-01  0.2002E+01  0.2002E+01
    -10.361  0.1907E+00  0.1931E+00  0.2029E+01  0.2030E+01
    -10.216  0.2702E+01  0.2729E+01  0.2420E+01  0.2424E+01
    -10.071  0.1345E+02  0.1349E+02  0.4365E+01  0.4376E+01
     -9.927  0.1564E+02  0.1561E+02  0.6628E+01  0.6635E+01
     -9.782  0.8202E+01  0.8164E+01  0.7815E+01  0.7816E+01
     -9.637  0.1155E+01  0.1142E+01  0.7989E+01  0.7989E+01
     -9.493  0.4696E-01  0.4639E-01  0.8000E+01  0.8000E+01
     -9.348  0.0000E+00  0.0000E+00  0.8000E+01  0.8000E+01
     -9.203  0.0000E+00  0.0000E+00  0.8000E+01  0.8000E+01
     -9.059  0.0000E+00  0.0000E+00  0.8000E+01  0.8000E+01
     -8.914  0.0000E+00  0.0000E+00  0.8000E+01  0.8000E+01
     -8.769  0.0000E+00  0.0000E+00  0.8000E+01  0.8000E+01
     -8.625  0.0000E+00  0.0000E+00  0.8000E+01  0.8000E+01
     -8.480  0.0000E+00  0.0000E+00  0.8000E+01  0.8000E+01
     -8.335  0.0000E+00  0.0000E+00  0.8000E+01  0.8000E+01
     -8.191  0.0000E+00  0.0000E+00  0.8000E+01  0.8000E+01
     -8.046  0.0000E+00  0.0000E+00  0.8000E+01  0.8000E+01
     -7.901  0.0000E+00  0.0000E+00  0.8000E+01  0.8000E+01
     -7.757  0.0000E+00  0.0000E+00  0.8000E+01  0.8000E+01
     -7.612  0.0000E+00  0.0000E+00  0.8000E+01  0.8000E+01
     -7.467  0.0000E+00  0.0000E+00  0.8000E+01  0.8000E+01
     -7.323  0.0000E+00  0.0000E+00  0.8000E+01  0.8000E+01
     -7.178  0.0000E+00  0.0000E+00  0.8000E+01  0.8000E+01
     -7.033  0.0000E+00  0.0000E+00  0.8000E+01  0.8000E+01
     -6.889  0.0000E+00  0.0000E+00  0.8000E+01  0.8000E+01
     -6.744  0.0000E+00  0.0000E+00  0.8000E+01  0.8000E+01
     -6.599  0.0000E+00  0.0000E+00  0.8000E+01  0.8000E+01
     -6.455  0.0000E+00  0.0000E+00  0.8000E+01  0.8000E+01
     -6.310  0.0000E+00  0.0000E+00  0.8000E+01  0.8000E+01
     -6.165  0.0000E+00  0.0000E+00  0.8000E+01  0.8000E+01
     -6.021  0.0000E+00  0.0000E+00  0.8000E+01  0.8000E+01
     -5.876  0.0000E+00  0.0000E+00  0.8000E+01  0.8000E+01
     -5.731  0.0000E+00  0.0000E+00  0.8000E+01  0.8000E+01
     -5.587  0.0000E+00  0.0000E+00  0.8000E+01  0.8000E+01
     -5.442  0.0000E+00  0.0000E+00  0.8000E+01  0.8000E+01
     -5.297  0.0000E+00  0.0000E+00  0.8000E+01  0.8000E+01
     -5.153  0.0000E+00  0.0000E+00  0.8000E+01  0.8000E+01
     -5.008  0.0000E+00  0.0000E+00  0.8000E+01  0.8000E+01
     -4.863  0.0000E+00  0.0000E+00  0.8000E+01  0.8000E+01
     -4.719  0.0000E+00  0.0000E+00  0.8000E+01  0.8000E+01
     -4.574  0.0000E+00  0.0000E+00  0.8000E+01  0.8000E+01
     -4.429  0.0000E+00  0.0000E+00  0.8000E+01  0.8000E+01
     -4.285  0.0000E+00  0.0000E+00  0.8000E+01  0.8000E+01
     -4.140  0.0000E+00  0.0000E+00  0.8000E+01  0.8000E+01
     -3.995  0.0000E+00  0.0000E+00  0.8000E+01  0.8000E+01
     -3.851  0.0000E+00  0.0000E+00  0.8000E+01  0.8000E+01
     -3.706  0.0000E+00  0.0000E+00  0.8000E+01  0.8000E+01
     -3.561  0.0000E+00  0.0000E+00  0.8000E+01  0.8000E+01
     -3.417  0.0000E+00  0.0000E+00  0.8000E+01  0.8000E+01
     -3.272  0.0000E+00  0.0000E+00  0.8000E+01  0.8000E+01
     -3.127  0.0000E+00  0.0000E+00  0.8000E+01  0.8000E+01
     -2.983  0.1603E-05  0.1676E-05  0.8000E+01  0.8000E+01
     -2.838  0.3984E-04  0.4166E-04  0.8000E+01  0.8000E+01
     -2.693  0.7183E-03  0.7507E-03  0.8000E+01  0.8000E+01
     -2.549  0.1080E-01  0.1121E-01  0.8002E+01  0.8002E+01
     -2.404  0.6919E-01  0.7046E-01  0.8012E+01  0.8012E+01
     -2.259  0.1418E+00  0.1429E+00  0.8032E+01  0.8033E+01
     -2.115  0.2154E+00  0.2157E+00  0.8063E+01  0.8064E+01
     -1.970  0.2390E+00  0.2405E+00  0.8098E+01  0.8099E+01
     -1.825  0.3170E+00  0.3171E+00  0.8144E+01  0.8145E+01
     -1.681  0.3417E+00  0.3422E+00  0.8193E+01  0.8194E+01
     -1.536  0.3513E+00  0.3526E+00  0.8244E+01  0.8245E+01
     -1.391  0.4784E+00  0.4791E+00  0.8313E+01  0.8315E+01
     -1.247  0.4583E+00  0.4571E+00  0.8380E+01  0.8381E+01
     -1.102  0.4549E+00  0.4577E+00  0.8446E+01  0.8447E+01
     -0.957  0.6256E+00  0.6263E+00  0.8536E+01  0.8538E+01
     -0.813  0.6042E+00  0.6030E+00  0.8624E+01  0.8625E+01
     -0.668  0.6269E+00  0.6291E+00  0.8715E+01  0.8716E+01
     -0.523  0.6743E+00  0.6735E+00  0.8813E+01  0.8814E+01
     -0.379  0.7957E+00  0.7991E+00  0.8928E+01  0.8930E+01
     -0.234  0.8985E+00  0.8971E+00  0.9058E+01  0.9060E+01
     -0.089  0.8050E+00  0.8048E+00  0.9175E+01  0.9177E+01
      0.055  0.9556E+00  0.9582E+00  0.9313E+01  0.9315E+01
      0.200  0.1077E+01  0.1078E+01  0.9470E+01  0.9472E+01
      0.345  0.1108E+01  0.1109E+01  0.9630E+01  0.9632E+01
      0.489  0.1177E+01  0.1176E+01  0.9800E+01  0.9803E+01
      0.634  0.1221E+01  0.1223E+01  0.9977E+01  0.9980E+01
      0.779  0.1465E+01  0.1467E+01  0.1019E+02  0.1019E+02
      0.923  0.1298E+01  0.1294E+01  0.1038E+02  0.1038E+02
      1.068  0.1185E+01  0.1185E+01  0.1055E+02  0.1055E+02
      1.213  0.1114E+01  0.1113E+01  0.1071E+02  0.1071E+02
      1.357  0.1090E+01  0.1089E+01  0.1087E+02  0.1087E+02
      1.502  0.1181E+01  0.1182E+01  0.1104E+02  0.1104E+02
      1.647  0.9475E+00  0.9428E+00  0.1118E+02  0.1118E+02
      1.791  0.8892E+00  0.8911E+00  0.1131E+02  0.1131E+02
      1.936  0.1059E+01  0.1063E+01  0.1146E+02  0.1146E+02
      2.081  0.1309E+01  0.1311E+01  0.1165E+02  0.1165E+02
      2.225  0.1318E+01  0.1317E+01  0.1184E+02  0.1184E+02
      2.370  0.1426E+01  0.1428E+01  0.1205E+02  0.1205E+02
      2.515  0.1377E+01  0.1377E+01  0.1225E+02  0.1225E+02
      2.659  0.1570E+01  0.1572E+01  0.1247E+02  0.1248E+02
      2.804  0.1186E+01  0.1177E+01  0.1265E+02  0.1265E+02
      2.949  0.9988E+00  0.1003E+01  0.1279E+02  0.1279E+02
      3.093  0.1310E+01  0.1312E+01  0.1298E+02  0.1298E+02
      3.238  0.1206E+01  0.1201E+01  0.1316E+02  0.1316E+02
      3.383  0.8497E+00  0.8481E+00  0.1328E+02  0.1328E+02
      3.527  0.1175E+01  0.1185E+01  0.1345E+02  0.1345E+02
      3.672  0.1439E+01  0.1437E+01  0.1366E+02  0.1366E+02
      3.817  0.1167E+01  0.1164E+01  0.1383E+02  0.1383E+02
      3.961  0.1141E+01  0.1145E+01  0.1399E+02  0.1400E+02
      4.106  0.1412E+01  0.1412E+01  0.1420E+02  0.1420E+02
      4.251  0.1510E+01  0.1514E+01  0.1442E+02  0.1442E+02
      4.395  0.1576E+01  0.1574E+01  0.1464E+02  0.1465E+02
      4.540  0.1621E+01  0.1621E+01  0.1488E+02  0.1488E+02
      4.685  0.1466E+01  0.1464E+01  0.1509E+02  0.1510E+02
      4.829  0.1463E+01  0.1465E+01  0.1530E+02  0.1531E+02
      4.974  0.1731E+01  0.1736E+01  0.1556E+02  0.1556E+02
      5.119  0.2067E+01  0.2071E+01  0.1585E+02  0.1586E+02
      5.263  0.2233E+01  0.2236E+01  0.1618E+02  0.1618E+02
      5.408  0.2557E+01  0.2559E+01  0.1655E+02  0.1655E+02
      5.553  0.2196E+01  0.2189E+01  0.1687E+02  0.1687E+02
      5.697  0.2050E+01  0.2051E+01  0.1716E+02  0.1717E+02
      5.842  0.2063E+01  0.2059E+01  0.1746E+02  0.1747E+02
      5.987  0.1688E+01  0.1685E+01  0.1771E+02  0.1771E+02
      6.131  0.1631E+01  0.1628E+01  0.1794E+02  0.1795E+02
      6.276  0.1684E+01  0.1691E+01  0.1819E+02  0.1819E+02
      6.421  0.1961E+01  0.1960E+01  0.1847E+02  0.1848E+02
      6.565  0.1753E+01  0.1749E+01  0.1873E+02  0.1873E+02
      6.710  0.1619E+01  0.1619E+01  0.1896E+02  0.1897E+02
      6.855  0.1622E+01  0.1622E+01  0.1920E+02  0.1920E+02
      6.999  0.1623E+01  0.1626E+01  0.1943E+02  0.1944E+02
      7.144  0.1847E+01  0.1847E+01  0.1970E+02  0.1970E+02
      7.289  0.1976E+01  0.1982E+01  0.1999E+02  0.1999E+02
      7.434  0.2321E+01  0.2324E+01  0.2032E+02  0.2033E+02
      7.578  0.2167E+01  0.2164E+01  0.2064E+02  0.2064E+02
      7.723  0.2045E+01  0.2043E+01  0.2093E+02  0.2094E+02
      7.868  0.2053E+01  0.2056E+01  0.2123E+02  0.2124E+02
      8.012  0.2023E+01  0.2016E+01  0.2152E+02  0.2153E+02
      8.157  0.1645E+01  0.1639E+01  0.2176E+02  0.2177E+02
      8.302  0.1286E+01  0.1280E+01  0.2195E+02  0.2195E+02
      8.446  0.1225E+01  0.1229E+01  0.2213E+02  0.2213E+02
      8.591  0.1767E+01  0.1777E+01  0.2238E+02  0.2239E+02
      8.736  0.2112E+01  0.2110E+01  0.2269E+02  0.2269E+02
      8.880  0.1884E+01  0.1879E+01  0.2296E+02  0.2297E+02
      9.025  0.1579E+01  0.1575E+01  0.2319E+02  0.2319E+02
      9.170  0.1533E+01  0.1535E+01  0.2341E+02  0.2342E+02
      9.314  0.1532E+01  0.1534E+01  0.2364E+02  0.2364E+02
      9.459  0.1938E+01  0.1942E+01  0.2392E+02  0.2392E+02
      9.604  0.1878E+01  0.1878E+01  0.2419E+02  0.2419E+02
      9.748  0.2285E+01  0.2296E+01  0.2452E+02  0.2453E+02
      9.893  0.2682E+01  0.2678E+01  0.2491E+02  0.2491E+02
     10.038  0.2698E+01  0.2673E+01  0.2530E+02  0.2530E+02
     10.182  0.2889E+01  0.2869E+01  0.2572E+02  0.2572E+02
     10.327  0.2773E+01  0.2748E+01  0.2612E+02  0.2611E+02
     10.472  0.2409E+01  0.2435E+01  0.2647E+02  0.2647E+02
     10.616  0.1943E+01  0.1961E+01  0.2675E+02  0.2675E+02
     10.761  0.2025E+01  0.2000E+01  0.2704E+02  0.2704E+02
     10.906  0.1456E+01  0.1419E+01  0.2726E+02  0.2725E+02
     11.050  0.1239E+01  0.1297E+01  0.2743E+02  0.2744E+02
     11.195  0.1070E+01  0.1125E+01  0.2759E+02  0.2760E+02
     11.340  0.8407E+00  0.7820E+00  0.2771E+02  0.2771E+02
     11.484  0.8175E+00  0.7959E+00  0.2783E+02  0.2783E+02
     11.629  0.5536E+00  0.5629E+00  0.2791E+02  0.2791E+02
     11.774  0.4000E+00  0.4212E+00  0.2797E+02  0.2797E+02
     11.918  0.1874E+00  0.1768E+00  0.2800E+02  0.2800E+02
     12.063  0.2090E-01  0.1882E-01  0.2800E+02  0.2800E+02
     12.208  0.3613E-03  0.3844E-03  0.2800E+02  0.2800E+02
     12.352  0.0000E+00  0.0000E+00  0.2800E+02  0.2800E+02
     12.497  0.0000E+00  0.0000E+00  0.2800E+02  0.2800E+02
     12.642  0.0000E+00  0.0000E+00  0.2800E+02  0.2800E+02
     12.786  0.0000E+00  0.0000E+00  0.2800E+02  0.2800E+02
     12.931  0.0000E+00  0.0000E+00  0.2800E+02  0.2800E+02
     13.076  0.0000E+00  0.0000E+00  0.2800E+02  0.2800E+02
     13.220  0.0000E+00  0.0000E+00  0.2800E+02  0.2800E+02
     13.365  0.0000E+00  0.0000E+00  0.2800E+02  0.2800E+02
     13.510  0.0000E+00  0.0000E+00  0.2800E+02  0.2800E+02
     13.654  0.0000E+00  0.0000E+00  0.2800E+02  0.2800E+02
     13.799  0.0000E+00  0.0000E+00  0.2800E+02  0.2800E+02
     13.79893247    -29.60174189  301      6.73245016      1.00000000
    -29.602  0.0000E+00  0.0000E+00  0.0000E+00  0.0000E+00  0.0000E+00  0.0000E+00  0.0000E+00  0.0000E+00  0.0000E+00  0.0000E+00  0.0000E+00  0.0000E+00  0.0000E+00  0.0000E+00  0.0000E+00  0.0000E+00  0.0000E+00  0.0000E+00
    -29.457  0.0000E+00  0.0000E+00  0.0000E+00  0.0000E+00  0.0000E+00  0.0000E+00  0.0000E+00  0.0000E+00  0.0000E+00  0.0000E+00  0.0000E+00  0.0000E+00  0.0000E+00  0.0000E+00  0.0000E+00  0.0000E+00  0.0000E+00  0.0000E+00
    -29.312  0.0000E+00  0.0000E+00  0.0000E+00  0.0000E+00  0.0000E+00  0.0000E+00  0.0000E+00  0.0000E+00  0.0000E+00  0.0000E+00  0.0000E+00  0.0000E+00  0.0000E+00  0.0000E+00  0.0000E+00  0.0000E+00  0.0000E+00  0.0000E+00
    -29.168  0.0000E+00  0.0000E+00  0.0000E+00  0.0000E+00  0.0000E+00  0.0000E+00  0.0000E+00  0.0000E+00  0.0000E+00  0.0000E+00  0.0000E+00  0.0000E+00  0.0000E+00  0.0000E+00  0.0000E+00  0.0000E+00  0.0000E+00  0.0000E+00
    -29.023  0.0000E+00  0.0000E+00  0.0000E+00  0.0000E+00  0.0000E+00  0.0000E+00  0.0000E+00  0.0000E+00  0.0000E+00  0.0000E+00  0.0000E+00  0.0000E+00  0.0000E+00  0.0000E+00  0.0000E+00  0.0000E+00  0.0000E+00  0.0000E+00
    -28.878  0.0000E+00  0.0000E+00  0.0000E+00  0.0000E+00  0.0000E+00  0.0000E+00  0.0000E+00  0.0000E+00  0.0000E+00  0.0000E+00  0.0000E+00  0.0000E+00  0.0000E+00  0.0000E+00  0.0000E+00  0.0000E+00  0.0000E+00  0.0000E+00
    -28.734  0.0000E+00  0.0000E+00  0.0000E+00  0.0000E+00  0.0000E+00  0.0000E+00  0.0000E+00  0.0000E+00  0.0000E+00  0.0000E+00  0.0000E+00  0.0000E+00  0.0000E+00  0.0000E+00  0.0000E+00  0.0000E+00  0.0000E+00  0.0000E+00
    -28.589  0.0000E+00  0.0000E+00  0.0000E+00  0.0000E+00  0.0000E+00  0.0000E+00  0.0000E+00  0.0000E+00  0.0000E+00  0.0000E+00  0.0000E+00  0.0000E+00  0.0000E+00  0.0000E+00  0.0000E+00  0.0000E+00  0.0000E+00  0.0000E+00
    -28.444  0.0000E+00  0.0000E+00  0.0000E+00  0.0000E+00  0.0000E+00  0.0000E+00  0.0000E+00  0.0000E+00  0.0000E+00  0.0000E+00  0.0000E+00  0.0000E+00  0.0000E+00  0.0000E+00  0.0000E+00  0.0000E+00  0.0000E+00  0.0000E+00
    -28.300  0.0000E+00  0.0000E+00  0.0000E+00  0.0000E+00  0.0000E+00  0.0000E+00  0.0000E+00  0.0000E+00  0.0000E+00  0.0000E+00  0.0000E+00  0.0000E+00  0.0000E+00  0.0000E+00  0.0000E+00  0.0000E+00  0.0000E+00  0.0000E+00
    -28.155  0.1433E-03  0.1481E-03  0.1504E-10  0.1527E-10  0.7748E-12  0.7892E-12  0.1504E-10  0.1527E-10  0.2006E-13  0.2223E-13  0.1113E-12  0.1117E-12  0.4985E-09  0.5183E-09  0.1113E-12  0.1117E-12  0.7993E-11  0.8175E-11
    -28.010  0.2497E-02  0.2525E-02  0.2571E-09  0.2604E-09  0.1321E-10  0.1345E-10  0.2571E-09  0.2604E-09  0.3719E-12  0.3789E-12  0.1901E-11  0.1904E-11  0.8732E-08  0.8835E-08  0.1901E-11  0.1904E-11  0.1363E-09  0.1394E-09
    -27.866  0.4471E-01  0.4527E-01  0.4608E-08  0.4667E-08  0.2367E-09  0.2410E-09  0.4608E-08  0.4667E-08  0.6641E-11  0.6796E-11  0.3407E-10  0.3414E-10  0.1563E-06  0.1584E-06  0.3407E-10  0.3414E-10  0.2443E-08  0.2498E-08
    -27.721  0.7156E+00  0.7235E+00  0.7372E-07  0.7456E-07  0.3754E-08  0.3817E-08  0.7372E-07  0.7456E-07  0.1071E-09  0.1094E-09  0.5456E-09  0.5461E-09  0.2504E-05  0.2534E-05  0.5456E-09  0.5461E-09  0.3913E-07  0.3996E-07
    -27.576  0.3931E+01  0.3940E+01  0.4041E-06  0.4051E-06  0.1953E-07  0.1967E-07  0.4041E-06  0.4051E-06  0.6155E-09  0.6216E-09  0.3003E-08  0.2987E-08  0.1385E-04  0.1389E-04  0.3003E-08  0.2987E-08  0.2157E-06  0.2183E-06
    -27.432  0.1885E+01  0.1870E+01  0.1930E-06  0.1914E-06  0.8733E-08  0.8697E-08  0.1930E-06  0.1914E-06  0.3121E-09  0.3108E-09  0.1440E-08  0.1421E-08  0.6693E-05  0.6642E-05  0.1440E-08  0.1421E-08  0.1034E-06  0.1035E-06
    -27.287  0.1500E+00  0.1482E+00  0.1533E-07  0.1514E-07  0.6778E-09  0.6725E-09  0.1533E-07  0.1514E-07  0.2531E-10  0.2509E-10  0.1145E-09  0.1126E-09  0.5340E-06  0.5279E-06  0.1145E-09  0.1126E-09  0.8217E-08  0.8196E-08
    -27.142  0.0000E+00  0.0000E+00  0.0000E+00  0.0000E+00  0.0000E+00  0.0000E+00  0.0000E+00  0.0000E+00  0.0000E+00  0.0000E+00  0.0000E+00  0.0000E+00  0.0000E+00  0.0000E+00  0.0000E+00  0.0000E+00  0.0000E+00  0.0000E+00
    -26.998  0.0000E+00  0.0000E+00  0.0000E+00  0.0000E+00  0.0000E+00  0.0000E+00  0.0000E+00  0.0000E+00  0.0000E+00  0.0000E+00  0.0000E+00  0.0000E+00  0.0000E+00  0.0000E+00  0.0000E+00  0.0000E+00  0.0000E+00  0.0000E+00
    -26.853  0.0000E+00  0.0000E+00  0.0000E+00  0.0000E+00  0.0000E+00  0.0000E+00  0.0000E+00  0.0000E+00  0.0000E+00  0.0000E+00  0.0000E+00  0.0000E+00  0.0000E+00  0.0000E+00  0.0000E+00  0.0000E+00  0.0000E+00  0.0000E+00
    -26.708  0.0000E+00  0.0000E+00  0.0000E+00  0.0000E+00  0.0000E+00  0.0000E+00  0.0000E+00  0.0000E+00  0.0000E+00  0.0000E+00  0.0000E+00  0.0000E+00  0.0000E+00  0.0000E+00  0.0000E+00  0.0000E+00  0.0000E+00  0.0000E+00
    -26.564  0.0000E+00  0.0000E+00  0.0000E+00  0.0000E+00  0.0000E+00  0.0000E+00  0.0000E+00  0.0000E+00  0.0000E+00  0.0000E+00  0.0000E+00  0.0000E+00  0.0000E+00  0.0000E+00  0.0000E+00  0.0000E+00  0.0000E+00  0.0000E+00
    -26.419  0.0000E+00  0.0000E+00  0.0000E+00  0.0000E+00  0.0000E+00  0.0000E+00  0.0000E+00  0.0000E+00  0.0000E+00  0.0000E+00  0.0000E+00  0.0000E+00  0.0000E+00  0.0000E+00  0.0000E+00  0.0000E+00  0.0000E+00  0.0000E+00
    -26.274  0.0000E+00  0.0000E+00  0.0000E+00  0.0000E+00  0.0000E+00  0.0000E+00  0.0000E+00  0.0000E+00  0.0000E+00  0.0000E+00  0.0000E+00  0.0000E+00  0.0000E+00  0.0000E+00  0.0000E+00  0.0000E+00  0.0000E+00  0.0000E+00
    -26.130  0.0000E+00  0.0000E+00  0.0000E+00  0.0000E+00  0.0000E+00  0.0000E+00  0.0000E+00  0.0000E+00  0.0000E+00  0.0000E+00  0.0000E+00  0.0000E+00  0.0000E+00  0.0000E+00  0.0000E+00  0.0000E+00  0.0000E+00  0.0000E+00
    -25.985  0.0000E+00  0.0000E+00  0.0000E+00  0.0000E+00  0.0000E+00  0.0000E+00  0.0000E+00  0.0000E+00  0.0000E+00  0.0000E+00  0.0000E+00  0.0000E+00  0.0000E+00  0.0000E+00  0.0000E+00  0.0000E+00  0.0000E+00  0.0000E+00
    -25.840  0.0000E+00  0.0000E+00  0.0000E+00  0.0000E+00  0.0000E+00  0.0000E+00  0.0000E+00  0.0000E+00  0.0000E+00  0.0000E+00  0.0000E+00  0.0000E+00  0.0000E+00  0.0000E+00  0.0000E+00  0.0000E+00  0.0000E+00  0.0000E+00
    -25.696  0.0000E+00  0.0000E+00  0.0000E+00  0.0000E+00  0.0000E+00  0.0000E+00  0.0000E+00  0.0000E+00  0.0000E+00  0.0000E+00  0.0000E+00  0.0000E+00  0.0000E+00  0.0000E+00  0.0000E+00  0.0000E+00  0.0000E+00  0.0000E+00
    -25.551  0.0000E+00  0.0000E+00  0.0000E+00  0.0000E+00  0.0000E+00  0.0000E+00  0.0000E+00  0.0000E+00  0.0000E+00  0.0000E+00  0.0000E+00  0.0000E+00  0.0000E+00  0.0000E+00  0.0000E+00  0.0000E+00  0.0000E+00  0.0000E+00
    -25.406  0.0000E+00  0.0000E+00  0.0000E+00  0.0000E+00  0.0000E+00  0.0000E+00  0.0000E+00  0.0000E+00  0.0000E+00  0.0000E+00  0.0000E+00  0.0000E+00  0.0000E+00  0.0000E+00  0.0000E+00  0.0000E+00  0.0000E+00  0.0000E+00
    -25.262  0.0000E+00  0.0000E+00  0.0000E+00  0.0000E+00  0.0000E+00  0.0000E+00  0.0000E+00  0.0000E+00  0.0000E+00  0.0000E+00  0.0000E+00  0.0000E+00  0.0000E+00  0.0000E+00  0.0000E+00  0.0000E+00  0.0000E+00  0.0000E+00
    -25.117  0.0000E+00  0.0000E+00  0.0000E+00  0.0000E+00  0.0000E+00  0.0000E+00  0.0000E+00  0.0000E+00  0.0000E+00  0.0000E+00  0.0000E+00  0.0000E+00  0.0000E+00  0.0000E+00  0.0000E+00  0.0000E+00  0.0000E+00  0.0000E+00
    -24.972  0.0000E+00  0.0000E+00  0.0000E+00  0.0000E+00  0.0000E+00  0.0000E+00  0.0000E+00  0.0000E+00  0.0000E+00  0.0000E+00  0.0000E+00  0.0000E+00  0.0000E+00  0.0000E+00  0.0000E+00  0.0000E+00  0.0000E+00  0.0000E+00
    -24.828  0.0000E+00  0.0000E+00  0.0000E+00  0.0000E+00  0.0000E+00  0.0000E+00  0.0000E+00  0.0000E+00  0.0000E+00  0.0000E+00  0.0000E+00  0.0000E+00  0.0000E+00  0.0000E+00  0.0000E+00  0.0000E+00  0.0000E+00  0.0000E+00
    -24.683  0.0000E+00  0.0000E+00  0.0000E+00  0.0000E+00  0.0000E+00  0.0000E+00  0.0000E+00  0.0000E+00  0.0000E+00  0.0000E+00  0.0000E+00  0.0000E+00  0.0000E+00  0.0000E+00  0.0000E+00  0.0000E+00  0.0000E+00  0.0000E+00
    -24.538  0.0000E+00  0.0000E+00  0.0000E+00  0.0000E+00  0.0000E+00  0.0000E+00  0.0000E+00  0.0000E+00  0.0000E+00  0.0000E+00  0.0000E+00  0.0000E+00  0.0000E+00  0.0000E+00  0.0000E+00  0.0000E+00  0.0000E+00  0.0000E+00
    -24.394  0.0000E+00  0.0000E+00  0.0000E+00  0.0000E+00  0.0000E+00  0.0000E+00  0.0000E+00  0.0000E+00  0.0000E+00  0.0000E+00  0.0000E+00  0.0000E+00  0.0000E+00  0.0000E+00  0.0000E+00  0.0000E+00  0.0000E+00  0.0000E+00
    -24.249  0.0000E+00  0.0000E+00  0.0000E+00  0.0000E+00  0.0000E+00  0.0000E+00  0.0000E+00  0.0000E+00  0.0000E+00  0.0000E+00  0.0000E+00  0.0000E+00  0.0000E+00  0.0000E+00  0.0000E+00  0.0000E+00  0.0000E+00  0.0000E+00
    -24.104  0.0000E+00  0.0000E+00  0.0000E+00  0.0000E+00  0.0000E+00  0.0000E+00  0.0000E+00  0.0000E+00  0.0000E+00  0.0000E+00  0.0000E+00  0.0000E+00  0.0000E+00  0.0000E+00  0.0000E+00  0.0000E+00  0.0000E+00  0.0000E+00
    -23.960  0.0000E+00  0.0000E+00  0.0000E+00  0.0000E+00  0.0000E+00  0.0000E+00  0.0000E+00  0.0000E+00  0.0000E+00  0.0000E+00  0.0000E+00  0.0000E+00  0.0000E+00  0.0000E+00  0.0000E+00  0.0000E+00  0.0000E+00  0.0000E+00
    -23.815  0.0000E+00  0.0000E+00  0.0000E+00  0.0000E+00  0.0000E+00  0.0000E+00  0.0000E+00  0.0000E+00  0.0000E+00  0.0000E+00  0.0000E+00  0.0000E+00  0.0000E+00  0.0000E+00  0.0000E+00  0.0000E+00  0.0000E+00  0.0000E+00
    -23.670  0.0000E+00  0.0000E+00  0.0000E+00  0.0000E+00  0.0000E+00  0.0000E+00  0.0000E+00  0.0000E+00  0.0000E+00  0.0000E+00  0.0000E+00  0.0000E+00  0.0000E+00  0.0000E+00  0.0000E+00  0.0000E+00  0.0000E+00  0.0000E+00
    -23.526  0.0000E+00  0.0000E+00  0.0000E+00  0.0000E+00  0.0000E+00  0.0000E+00  0.0000E+00  0.0000E+00  0.0000E+00  0.0000E+00  0.0000E+00  0.0000E+00  0.0000E+00  0.0000E+00  0.0000E+00  0.0000E+00  0.0000E+00  0.0000E+00
    -23.381  0.0000E+00  0.0000E+00  0.0000E+00  0.0000E+00  0.0000E+00  0.0000E+00  0.0000E+00  0.0000E+00  0.0000E+00  0.0000E+00  0.0000E+00  0.0000E+00  0.0000E+00  0.0000E+00  0.0000E+00  0.0000E+00  0.0000E+00  0.0000E+00
    -23.236  0.0000E+00  0.0000E+00  0.0000E+00  0.0000E+00  0.0000E+00  0.0000E+00  0.0000E+00  0.0000E+00  0.0000E+00  0.0000E+00  0.0000E+00  0.0000E+00  0.0000E+00  0.0000E+00  0.0000E+00  0.0000E+00  0.0000E+00  0.0000E+00
    -23.092  0.0000E+00  0.0000E+00  0.0000E+00  0.0000E+00  0.0000E+00  0.0000E+00  0.0000E+00  0.0000E+00  0.0000E+00  0.0000E+00  0.0000E+00  0.0000E+00  0.0000E+00  0.0000E+00  0.0000E+00  0.0000E+00  0.0000E+00  0.0000E+00
    -22.947  0.0000E+00  0.0000E+00  0.0000E+00  0.0000E+00  0.0000E+00  0.0000E+00  0.0000E+00  0.0000E+00  0.0000E+00  0.0000E+00  0.0000E+00  0.0000E+00  0.0000E+00  0.0000E+00  0.0000E+00  0.0000E+00  0.0000E+00  0.0000E+00
    -22.802  0.0000E+00  0.0000E+00  0.0000E+00  0.0000E+00  0.0000E+00  0.0000E+00  0.0000E+00  0.0000E+00  0.0000E+00  0.0000E+00  0.0000E+00  0.0000E+00  0.0000E+00  0.0000E+00  0.0000E+00  0.0000E+00  0.0000E+00  0.0000E+00
    -22.658  0.0000E+00  0.0000E+00  0.0000E+00  0.0000E+00  0.0000E+00  0.0000E+00  0.0000E+00  0.0000E+00  0.0000E+00  0.0000E+00  0.0000E+00  0.0000E+00  0.0000E+00  0.0000E+00  0.0000E+00  0.0000E+00  0.0000E+00  0.0000E+00
    -22.513  0.0000E+00  0.0000E+00  0.0000E+00  0.0000E+00  0.0000E+00  0.0000E+00  0.0000E+00  0.0000E+00  0.0000E+00  0.0000E+00  0.0000E+00  0.0000E+00  0.0000E+00  0.0000E+00  0.0000E+00  0.0000E+00  0.0000E+00  0.0000E+00
    -22.368  0.0000E+00  0.0000E+00  0.0000E+00  0.0000E+00  0.0000E+00  0.0000E+00  0.0000E+00  0.0000E+00  0.0000E+00  0.0000E+00  0.0000E+00  0.0000E+00  0.0000E+00  0.0000E+00  0.0000E+00  0.0000E+00  0.0000E+00  0.0000E+00