   8   8   1   0
  0.1907511E+02  0.4317018E-09  0.4317018E-09  0.8188216E-09  0.5000000E-15
  1.000000000000000E-004
  CAR 
 unknown system                          
     13.44733839    -29.92852222  301      6.45866422      1.00000000
    -29.929  0.0000E+00  0.0000E+00  0.0000E+00  0.0000E+00
    -29.784  0.0000E+00  0.0000E+00  0.0000E+00  0.0000E+00
    -29.639  0.0000E+00  0.0000E+00  0.0000E+00  0.0000E+00
    -29.495  0.0000E+00  0.0000E+00  0.0000E+00  0.0000E+00
    -29.350  0.0000E+00  0.0000E+00  0.0000E+00  0.0000E+00
    -29.206  0.0000E+00  0.0000E+00  0.0000E+00  0.0000E+00
    -29.061  0.0000E+00  0.0000E+00  0.0000E+00  0.0000E+00
    -28.916  0.0000E+00  0.0000E+00  0.0000E+00  0.0000E+00
    -28.772  0.0000E+00  0.0000E+00  0.0000E+00  0.0000E+00
    -28.627  0.0000E+00  0.0000E+00  0.0000E+00  0.0000E+00
    -28.483  0.3125E-03  0.3157E-03  0.4519E-04  0.4565E-04
    -28.338  0.5318E-02  0.5373E-02  0.8142E-03  0.8225E-03
    -28.193  0.9516E-01  0.9612E-01  0.1457E-01  0.1472E-01
    -28.049  0.1515E+01  0.1528E+01  0.2336E+00  0.2357E+00
    -27.904  0.8121E+01  0.8135E+01  0.1408E+01  0.1412E+01
    -27.760  0.3781E+01  0.3755E+01  0.1954E+01  0.1955E+01
    -27.615  0.2980E+00  0.2951E+00  0.1997E+01  0.1997E+01
    -27.471  0.0000E+00  0.0000E+00  0.2000E+01  0.2000E+01
    -27.326  0.0000E+00  0.0000E+00  0.2000E+01  0.2000E+01
    -27.181  0.0000E+00  0.0000E+00  0.2000E+01  0.2000E+01
    -27.037  0.0000E+00  0.0000E+00  0.2000E+01  0.2000E+01
    -26.892  0.0000E+00  0.0000E+00  0.2000E+01  0.2000E+01
    -26.748  0.0000E+00  0.0000E+00  0.2000E+01  0.2000E+01
    -26.603  0.0000E+00  0.0000E+00  0.2000E+01  0.2000E+01
    -26.458  0.0000E+00  0.0000E+00  0.2000E+01  0.2000E+01
    -26.314  0.0000E+00  0.0000E+00  0.2000E+01  0.2000E+01
    -26.169  0.0000E+00  0.0000E+00  0.2000E+01  0.2000E+01
    -26.025  0.0000E+00  0.0000E+00  0.2000E+01  0.2000E+01
    -25.880  0.0000E+00  0.0000E+00  0.2000E+01  0.2000E+01
    -25.736  0.0000E+00  0.0000E+00  0.2000E+01  0.2000E+01
    -25.591  0.0000E+00  0.0000E+00  0.2000E+01  0.2000E+01
    -25.446  0.0000E+00  0.0000E+00  0.2000E+01  0.2000E+01
    -25.302  0.0000E+00  0.0000E+00  0.2000E+01  0.2000E+01
    -25.157  0.0000E+00  0.0000E+00  0.2000E+01  0.2000E+01
    -25.013  0.0000E+00  0.0000E+00  0.2000E+01  0.2000E+01
    -24.868  0.0000E+00  0.0000E+00  0.2000E+01  0.2000E+01
    -24.723  0.0000E+00  0.0000E+00  0.2000E+01  0.2000E+01
    -24.579  0.0000E+00  0.0000E+00  0.2000E+01  0.2000E+01
    -24.434  0.0000E+00  0.0000E+00  0.2000E+01  0.2000E+01
    -24.290  0.0000E+00  0.0000E+00  0.2000E+01  0.2000E+01
    -24.145  0.0000E+00  0.0000E+00  0.2000E+01  0.2000E+01
    -24.000  0.0000E+00  0.0000E+00  0.2000E+01  0.2000E+01
    -23.856  0.0000E+00  0.0000E+00  0.2000E+01  0.2000E+01
    -23.711  0.0000E+00  0.0000E+00  0.2000E+01  0.2000E+01
    -23.567  0.0000E+00  0.0000E+00  0.2000E+01  0.2000E+01
    -23.422  0.0000E+00  0.0000E+00  0.2000E+01  0.2000E+01
    -23.278  0.0000E+00  0.0000E+00  0.2000E+01  0.2000E+01
    -23.133  0.0000E+00  0.0000E+00  0.2000E+01  0.2000E+01
    -22.988  0.0000E+00  0.0000E+00  0.2000E+01  0.2000E+01
    -22.844  0.0000E+00  0.0000E+00  0.2000E+01  0.2000E+01
    -22.699  0.0000E+00  0.0000E+00  0.2000E+01  0.2000E+01
    -22.555  0.0000E+00  0.0000E+00  0.2000E+01  0.2000E+01
    -22.410  0.0000E+00  0.0000E+00  0.2000E+01  0.2000E+01
    -22.265  0.0000E+00  0.0000E+00  0.2000E+01  0.2000E+01
    -22.121  0.0000E+00  0.0000E+00  0.2000E+01  0.2000E+01
    -21.976  0.0000E+00  0.0000E+00  0.2000E+01  0.2000E+01
    -21.832  0.0000E+00  0.0000E+00  0.2000E+01  0.2000E+01
    -21.687  0.0000E+00  0.0000E+00  0.2000E+01  0.2000E+01
    -21.543  0.0000E+00  0.0000E+00  0.2000E+01  0.2000E+01
    -21.398  0.0000E+00  0.0000E+00  0.2000E+01  0.2000E+01
    -21.253  0.0000E+00  0.0000E+00  0.2000E+01  0.2000E+01
    -21.109  0.0000E+00  0.0000E+00  0.2000E+01  0.2000E+01
    -20.964  0.0000E+00  0.0000E+00  0.2000E+01  0.2000E+01
    -20.820  0.0000E+00  0.0000E+00  0.2000E+01  0.2000E+01
    -20.675  0.0000E+00  0.0000E+00  0.2000E+01  0.2000E+01
    -20.530  0.0000E+00  0.0000E+00  0.2000E+01  0.2000E+01
    -20.386  0.0000E+00  0.0000E+00  0.2000E+01  0.2000E+01
    -20.241  0.0000E+00  0.0000E+00  0.2000E+01  0.2000E+01
    -20.097  0.0000E+00  0.0000E+00  0.2000E+01  0.2000E+01
    -19.952  0.0000E+00  0.0000E+00  0.2000E+01  0.2000E+01
    -19.807  0.0000E+00  0.0000E+00  0.2000E+01  0.2000E+01
    -19.663  0.0000E+00  0.0000E+00  0.2000E+01  0.2000E+01
    -19.518  0.0000E+00  0.0000E+00  0.2000E+01  0.2000E+01
    -19.374  0.0000E+00  0.0000E+00  0.2000E+01  0.2000E+01
    -19.229  0.0000E+00  0.0000E+00  0.2000E+01  0.2000E+01
    -19.085  0.0000E+00  0.0000E+00  0.2000E+01  0.2000E+01
    -18.940  0.0000E+00  0.0000E+00  0.2000E+01  0.2000E+01
    -18.795  0.0000E+00  0.0000E+00  0.2000E+01  0.2000E+01
    -18.651  0.0000E+00  0.0000E+00  0.2000E+01  0.2000E+01
    -18.506  0.0000E+00  0.0000E+00  0.2000E+01  0.2000E+01
    -18.362  0.0000E+00  0.0000E+00  0.2000E+01  0.2000E+01
    -18.217  0.0000E+00  0.0000E+00  0.2000E+01  0.2000E+01
    -18.072  0.0000E+00  0.0000E+00  0.2000E+01  0.2000E+01
    -17.928  0.0000E+00  0.0000E+00  0.2000E+01  0.2000E+01
    -17.783  0.0000E+00  0.0000E+00  0.2000E+01  0.2000E+01
    -17.639  0.0000E+00  0.0000E+00  0.2000E+01  0.2000E+01
    -17.494  0.0000E+00  0.0000E+00  0.2000E+01  0.2000E+01
    -17.350  0.0000E+00  0.0000E+00  0.2000E+01  0.2000E+01
    -17.205  0.0000E+00  0.0000E+00  0.2000E+01  0.2000E+01
    -17.060  0.0000E+00  0.0000E+00  0.2000E+01  0.2000E+01
    -16.916  0.0000E+00  0.0000E+00  0.2000E+01  0.2000E+01
    -16.771  0.0000E+00  0.0000E+00  0.2000E+01  0.2000E+01
    -16.627  0.0000E+00  0.0000E+00  0.2000E+01  0.2000E+01
    -16.482  0.0000E+00  0.0000E+00  0.2000E+01  0.2000E+01
    -16.337  0.0000E+00  0.0000E+00  0.2000E+01  0.2000E+01
    -16.193  0.0000E+00  0.0000E+00  0.2000E+01  0.2000E+01
    -16.048  0.0000E+00  0.0000E+00  0.2000E+01  0.2000E+01
    -15.904  0.0000E+00  0.0000E+00  0.2000E+01  0.2000E+01
    -15.759  0.0000E+00  0.0000E+00  0.2000E+01  0.2000E+01
    -15.614  0.0000E+00  0.0000E+00  0.2000E+01  0.2000E+01
    -15.470  0.0000E+00  0.0000E+00  0.2000E+01  0.2000E+01
    -15.325  0.0000E+00  0.0000E+00  0.2000E+01  0.2000E+01
    -15.181  0.0000E+00  0.0000E+00  0.2000E+01  0.2000E+01
    -15.036  0.0000E+00  0.0000E+00  0.2000E+01  0.2000E+01
    -14.892  0.0000E+00  0.0000E+00  0.2000E+01  0.2000E+01
    -14.747  0.0000E+00  0.0000E+00  0.2000E+01  0.2000E+01
    -14.602  0.0000E+00  0.0000E+00  0.2000E+01  0.2000E+01
    -14.458  0.0000E+00  0.0000E+00  0.2000E+01  0.2000E+01
    -14.313  0.0000E+00  0.0000E+00  0.2000E+01  0.2000E+01
    -14.169  0.0000E+00  0.0000E+00  0.2000E+01  0.2000E+01
    -14.024  0.0000E+00  0.0000E+00  0.2000E+01  0.2000E+01
    -13.879  0.0000E+00  0.0000E+00  0.2000E+01  0.2000E+01
    -13.735  0.0000E+00  0.0000E+00  0.2000E+01  0.2000E+01
    -13.590  0.0000E+00  0.0000E+00  0.2000E+01  0.2000E+01
    -13.446  0.0000E+00  0.0000E+00  0.2000E+01  0.2000E+01
    -13.301  0.0000E+00  0.0000E+00  0.2000E+01  0.2000E+01
    -13.157  0.0000E+00  0.0000E+00  0.2000E+01  0.2000E+01
    -13.012  0.0000E+00  0.0000E+00  0.2000E+01  0.2000E+01
    -12.867  0.0000E+00  0.0000E+00  0.2000E+01  0.2000E+01
    -12.723  0.0000E+00  0.0000E+00  0.2000E+01  0.2000E+01
    -12.578  0.0000E+00  0.0000E+00  0.2000E+01  0.2000E+01
    -12.434  0.0000E+00  0.0000E+00  0.2000E+01  0.2000E+01
    -12.289  0.0000E+00  0.0000E+00  0.2000E+01  0.2000E+01
    -12.144  0.0000E+00  0.0000E+00  0.2000E+01  0.2000E+01
    -12.000  0.0000E+00  0.0000E+00  0.2000E+01  0.2000E+01
    -11.855  0.0000E+00  0.0000E+00  0.2000E+01  0.2000E+01
    -11.711  0.0000E+00  0.0000E+00  0.2000E+01  0.2000E+01
    -11.566  0.0000E+00  0.0000E+00  0.2000E+01  0.2000E+01
    -11.421  0.0000E+00  0.0000E+00  0.2000E+01  0.2000E+01
    -11.277  0.0000E+00  0.0000E+00  0.2000E+01  0.2000E+01
    -11.132  0.0000E+00  0.0000E+00  0.2000E+01  0.2000E+01
    -10.988  0.6330E-04  0.6659E-04  0.2000E+01  0.2000E+01
    -10.843  0.3692E-02  0.3727E-02  0.2001E+01  0.2001E+01
    -10.699  0.6510E-01  0.6576E-01  0.2010E+01  0.2010E+01
    -10.554  0.1076E+01  0.1086E+01  0.2166E+01  0.2167E+01
    -10.409  0.9263E+01  0.9308E+01  0.3505E+01  0.3513E+01
    -10.265  0.1775E+02  0.1775E+02  0.6072E+01  0.6079E+01
    -10.120  0.1107E+02  0.1104E+02  0.7673E+01  0.7675E+01
     -9.976  0.2074E+01  0.2059E+01  0.7979E+01  0.7979E+01
     -9.831  0.1126E+00  0.1117E+00  0.7999E+01  0.7999E+01
     -9.686  0.0000E+00  0.0000E+00  0.8000E+01  0.8000E+01
     -9.542  0.0000E+00  0.0000E+00  0.8000E+01  0.8000E+01
     -9.397  0.0000E+00  0.0000E+00  0.8000E+01  0.8000E+01
     -9.253  0.0000E+00  0.0000E+00  0.8000E+01  0.8000E+01
     -9.108  0.0000E+00  0.0000E+00  0.8000E+01  0.8000E+01
     -8.964  0.0000E+00  0.0000E+00  0.8000E+01  0.8000E+01
     -8.819  0.0000E+00  0.0000E+00  0.8000E+01  0.8000E+01
     -8.674  0.0000E+00  0.0000E+00  0.8000E+01  0.8000E+01
     -8.530  0.0000E+00  0.0000E+00  0.8000E+01  0.8000E+01
     -8.385  0.0000E+00  0.0000E+00  0.8000E+01  0.8000E+01
     -8.241  0.0000E+00  0.0000E+00  0.8000E+01  0.8000E+01
     -8.096  0.0000E+00  0.0000E+00  0.8000E+01  0.8000E+01
     -7.951  0.0000E+00  0.0000E+00  0.8000E+01  0.8000E+01
     -7.807  0.0000E+00  0.0000E+00  0.8000E+01  0.8000E+01
     -7.662  0.0000E+00  0.0000E+00  0.8000E+01  0.8000E+01
     -7.518  0.0000E+00  0.0000E+00  0.8000E+01  0.8000E+01
     -7.373  0.0000E+00  0.0000E+00  0.8000E+01  0.8000E+01
     -7.228  0.0000E+00  0.0000E+00  0.8000E+01  0.8000E+01
     -7.084  0.0000E+00  0.0000E+00  0.8000E+01  0.8000E+01
     -6.939  0.0000E+00  0.0000E+00  0.8000E+01  0.8000E+01
     -6.795  0.0000E+00  0.0000E+00  0.8000E+01  0.8000E+01
     -6.650  0.0000E+00  0.0000E+00  0.8000E+01  0.8000E+01
     -6.506  0.0000E+00  0.0000E+00  0.8000E+01  0.8000E+01
     -6.361  0.0000E+00  0.0000E+00  0.8000E+01  0.8000E+01
     -6.216  0.0000E+00  0.0000E+00  0.8000E+01  0.8000E+01
     -6.072  0.0000E+00  0.0000E+00  0.8000E+01  0.8000E+01
     -5.927  0.0000E+00  0.0000E+00  0.8000E+01  0.8000E+01
     -5.783  0.0000E+00  0.0000E+00  0.8000E+01  0.8000E+01
     -5.638  0.0000E+00  0.0000E+00  0.8000E+01  0.8000E+01
     -5.493  0.0000E+00  0.0000E+00  0.8000E+01  0.8000E+01
     -5.349  0.0000E+00  0.0000E+00  0.8000E+01  0.8000E+01
     -5.204  0.0000E+00  0.0000E+00  0.8000E+01  0.8000E+01
     -5.060  0.0000E+00  0.0000E+00  0.8000E+01  0.8000E+01
     -4.915  0.0000E+00  0.0000E+00  0.8000E+01  0.8000E+01
     -4.771  0.0000E+00  0.0000E+00  0.8000E+01  0.8000E+01
     -4.626  0.0000E+00  0.0000E+00  0.8000E+01  0.8000E+01
     -4.481  0.0000E+00  0.0000E+00  0.8000E+01  0.8000E+01
     -4.337  0.0000E+00  0.0000E+00  0.8000E+01  0.8000E+01
     -4.192  0.0000E+00  0.0000E+00  0.8000E+01  0.8000E+01
     -4.048  0.0000E+00  0.0000E+00  0.8000E+01  0.8000E+01
     -3.903  0.0000E+00  0.0000E+00  0.8000E+01  0.8000E+01
     -3.758  0.0000E+00  0.0000E+00  0.8000E+01  0.8000E+01
     -3.614  0.0000E+00  0.0000E+00  0.8000E+01  0.8000E+01
     -3.469  0.0000E+00  0.0000E+00  0.8000E+01  0.8000E+01
     -3.325  0.0000E+00  0.0000E+00  0.8000E+01  0.8000E+01
     -3.180  0.1623E-06  0.1692E-06  0.8000E+01  0.8000E+01
     -3.035  0.1118E-04  0.1166E-04  0.8000E+01  0.8000E+01
     -2.891  0.2102E-03  0.2191E-03  0.8000E+01  0.8000E+01
     -2.746  0.3577E-02  0.3721E-02  0.8001E+01  0.8001E+01
     -2.602  0.3748E-01  0.3847E-01  0.8006E+01  0.8006E+01
     -2.457  0.1182E+00  0.1193E+00  0.8023E+01  0.8023E+01
     -2.313  0.2022E+00  0.2033E+00  0.8052E+01  0.8053E+01
     -2.168  0.2278E+00  0.2284E+00  0.8085E+01  0.8086E+01
     -2.023  0.3172E+00  0.3179E+00  0.8131E+01  0.8132E+01
     -1.879  0.3411E+00  0.3417E+00  0.8181E+01  0.8181E+01
     -1.734  0.3543E+00  0.3541E+00  0.8232E+01  0.8233E+01
     -1.590  0.4750E+00  0.4764E+00  0.8301E+01  0.8302E+01
     -1.445  0.4825E+00  0.4816E+00  0.8371E+01  0.8371E+01
     -1.300  0.4492E+00  0.4510E+00  0.8436E+01  0.8437E+01
     -1.156  0.6326E+00  0.6337E+00  0.8527E+01  0.8529E+01
     -1.011  0.6242E+00  0.6231E+00  0.8618E+01  0.8619E+01
     -0.867  0.6327E+00  0.6344E+00  0.8709E+01  0.8711E+01
     -0.722  0.6949E+00  0.6947E+00  0.8810E+01  0.8811E+01
     -0.578  0.8030E+00  0.8062E+00  0.8926E+01  0.8928E+01
     -0.433  0.9149E+00  0.9137E+00  0.9059E+01  0.9060E+01
     -0.288  0.8242E+00  0.8239E+00  0.9178E+01  0.9180E+01
     -0.144  0.9670E+00  0.9697E+00  0.9318E+01  0.9320E+01
      0.001  0.1088E+01  0.1089E+01  0.9476E+01  0.9478E+01
      0.145  0.1120E+01  0.1121E+01  0.9638E+01  0.9640E+01
      0.290  0.1166E+01  0.1165E+01  0.9807E+01  0.9809E+01
      0.435  0.1203E+01  0.1205E+01  0.9981E+01  0.9984E+01
      0.579  0.1464E+01  0.1466E+01  0.1019E+02  0.1020E+02
      0.724  0.1330E+01  0.1327E+01  0.1039E+02  0.1039E+02
      0.868  0.1192E+01  0.1191E+01  0.1056E+02  0.1056E+02
      1.013  0.1104E+01  0.1104E+01  0.1072E+02  0.1072E+02
      1.158  0.1100E+01  0.1099E+01  0.1088E+02  0.1088E+02
      1.302  0.1192E+01  0.1192E+01  0.1105E+02  0.1105E+02
      1.447  0.9335E+00  0.9296E+00  0.1119E+02  0.1119E+02
      1.591  0.9261E+00  0.9284E+00  0.1132E+02  0.1132E+02
      1.736  0.1184E+01  0.1189E+01  0.1149E+02  0.1149E+02
      1.880  0.1428E+01  0.1428E+01  0.1170E+02  0.1170E+02
      2.025  0.1345E+01  0.1345E+01  0.1189E+02  0.1190E+02
      2.170  0.1429E+01  0.1427E+01  0.1210E+02  0.1210E+02
      2.314  0.1375E+01  0.1378E+01  0.1230E+02  0.1230E+02
      2.459  0.1581E+01  0.1580E+01  0.1253E+02  0.1253E+02
      2.603  0.1044E+01  0.1037E+01  0.1268E+02  0.1268E+02
      2.748  0.1053E+01  0.1058E+01  0.1283E+02  0.1283E+02
      2.893  0.1352E+01  0.1353E+01  0.1303E+02  0.1303E+02
      3.037  0.1113E+01  0.1108E+01  0.1319E+02  0.1319E+02
      3.182  0.8269E+00  0.8274E+00  0.1331E+02  0.1331E+02
      3.326  0.1267E+01  0.1275E+01  0.1349E+02  0.1350E+02
      3.471  0.1410E+01  0.1407E+01  0.1370E+02  0.1370E+02
      3.615  0.1107E+01  0.1106E+01  0.1386E+02  0.1386E+02
      3.760  0.1229E+01  0.1235E+01  0.1404E+02  0.1404E+02
      3.905  0.1419E+01  0.1419E+01  0.1424E+02  0.1424E+02
      4.049  0.1580E+01  0.1584E+01  0.1447E+02  0.1447E+02
      4.194  0.1630E+01  0.1629E+01  0.1471E+02  0.1471E+02
      4.338  0.1620E+01  0.1619E+01  0.1494E+02  0.1494E+02
      4.483  0.1518E+01  0.1517E+01  0.1516E+02  0.1516E+02
      4.628  0.1591E+01  0.1595E+01  0.1539E+02  0.1539E+02
      4.772  0.1869E+01  0.1873E+01  0.1566E+02  0.1567E+02
      4.917  0.2078E+01  0.2081E+01  0.1596E+02  0.1597E+02
      5.061  0.2307E+01  0.2312E+01  0.1630E+02  0.1630E+02
      5.206  0.2523E+01  0.2520E+01  0.1666E+02  0.1667E+02
      5.351  0.2237E+01  0.2235E+01  0.1699E+02  0.1699E+02
      5.495  0.2181E+01  0.2179E+01  0.1730E+02  0.1731E+02
      5.640  0.1896E+01  0.1890E+01  0.1758E+02  0.1758E+02
      5.784  0.1685E+01  0.1685E+01  0.1782E+02  0.1782E+02
      5.929  0.1586E+01  0.1586E+01  0.1805E+02  0.1805E+02
      6.073  0.1870E+01  0.1876E+01  0.1832E+02  0.1833E+02
      6.218  0.1937E+01  0.1933E+01  0.1860E+02  0.1861E+02
      6.363  0.1636E+01  0.1634E+01  0.1884E+02  0.1884E+02
      6.507  0.1647E+01  0.1648E+01  0.1908E+02  0.1908E+02
      6.652  0.1626E+01  0.1627E+01  0.1931E+02  0.1932E+02
      6.796  0.1849E+01  0.1852E+01  0.1958E+02  0.1959E+02
      6.941  0.1989E+01  0.1993E+01  0.1987E+02  0.1987E+02
      7.086  0.2358E+01  0.2361E+01  0.2021E+02  0.2022E+02
      7.230  0.2238E+01  0.2233E+01  0.2054E+02  0.2054E+02
      7.375  0.2058E+01  0.2058E+01  0.2083E+02  0.2084E+02
      7.519  0.2006E+01  0.2006E+01  0.2112E+02  0.2113E+02
      7.664  0.2125E+01  0.2124E+01  0.2143E+02  0.2144E+02
      7.808  0.1772E+01  0.1767E+01  0.2169E+02  0.2169E+02
      7.953  0.1468E+01  0.1461E+01  0.2190E+02  0.2190E+02
      8.098  0.1184E+01  0.1187E+01  0.2207E+02  0.2208E+02
      8.242  0.1683E+01  0.1692E+01  0.2232E+02  0.2232E+02
      8.387  0.2158E+01  0.2159E+01  0.2263E+02  0.2263E+02
      8.531  0.1974E+01  0.1970E+01  0.2291E+02  0.2292E+02
      8.676  0.1684E+01  0.1679E+01  0.2316E+02  0.2316E+02
      8.821  0.1542E+01  0.1542E+01  0.2338E+02  0.2339E+02
      8.965  0.1562E+01  0.1564E+01  0.2361E+02  0.2361E+02
      9.110  0.1910E+01  0.1915E+01  0.2389E+02  0.2389E+02
      9.254  0.1939E+01  0.1936E+01  0.2417E+02  0.2417E+02
      9.399  0.2258E+01  0.2264E+01  0.2449E+02  0.2450E+02
      9.544  0.2701E+01  0.2706E+01  0.2488E+02  0.2489E+02
      9.688  0.2822E+01  0.2825E+01  0.2529E+02  0.2530E+02
      9.833  0.2986E+01  0.2979E+01  0.2573E+02  0.2573E+02
      9.977  0.2874E+01  0.2823E+01  0.2614E+02  0.2614E+02
     10.122  0.2376E+01  0.2403E+01  0.2649E+02  0.2649E+02
     10.266  0.1979E+01  0.1964E+01  0.2677E+02  0.2677E+02
     10.411  0.2094E+01  0.2051E+01  0.2708E+02  0.2707E+02
     10.556  0.1461E+01  0.1518E+01  0.2729E+02  0.2729E+02
     10.700  0.1260E+01  0.1272E+01  0.2747E+02  0.2747E+02
     10.845  0.1040E+01  0.1047E+01  0.2762E+02  0.2763E+02
     10.989  0.7304E+00  0.7032E+00  0.2773E+02  0.2773E+02
     11.134  0.6850E+00  0.7523E+00  0.2783E+02  0.2784E+02
     11.279  0.6101E+00  0.5562E+00  0.2792E+02  0.2792E+02
     11.423  0.4210E+00  0.3938E+00  0.2798E+02  0.2797E+02
     11.568  0.1415E+00  0.1519E+00  0.2800E+02  0.2800E+02
     11.712  0.1429E-01  0.1728E-01  0.2800E+02  0.2800E+02
     11.857  0.3117E-03  0.3856E-03  0.2800E+02  0.2800E+02
     12.001  0.0000E+00  0.0000E+00  0.2800E+02  0.2800E+02
     12.146  0.0000E+00  0.0000E+00  0.2800E+02  0.2800E+02
     12.291  0.0000E+00  0.0000E+00  0.2800E+02  0.2800E+02
     12.435  0.0000E+00  0.0000E+00  0.2800E+02  0.2800E+02
     12.580  0.0000E+00  0.0000E+00  0.2800E+02  0.2800E+02
     12.724  0.0000E+00  0.0000E+00  0.2800E+02  0.2800E+02
     12.869  0.0000E+00  0.0000E+00  0.2800E+02  0.2800E+02
     13.014  0.0000E+00  0.0000E+00  0.2800E+02  0.2800E+02
     13.158  0.0000E+00  0.0000E+00  0.2800E+02  0.2800E+02
     13.303  0.0000E+00  0.0000E+00  0.2800E+02  0.2800E+02
     13.447  0.0000E+00  0.0000E+00  0.2800E+02  0.2800E+02
     13.44733839    -29.92852222  301      6.45866422      1.00000000
    -29.929  0.0000E+00  0.0000E+00  0.0000E+00  0.0000E+00  0.0000E+00  0.0000E+00  0.0000E+00  0.0000E+00  0.0000E+00  0.0000E+00  0.0000E+00  0.0000E+00  0.0000E+00  0.0000E+00  0.0000E+00  0.0000E+00  0.0000E+00  0.0000E+00
    -29.784  0.0000E+00  0.0000E+00  0.0000E+00  0.0000E+00  0.0000E+00  0.0000E+00  0.0000E+00  0.0000E+00  0.0000E+00  0.0000E+00  0.0000E+00  0.0000E+00  0.0000E+00  0.0000E+00  0.0000E+00  0.0000E+00  0.0000E+00  0.0000E+00
    -29.639  0.0000E+00  0.0000E+00  0.0000E+00  0.0000E+00  0.0000E+00  0.0000E+00  0.0000E+00  0.0000E+00  0.0000E+00  0.0000E+00  0.0000E+00  0.0000E+00  0.0000E+00  0.0000E+00  0.0000E+00  0.0000E+00  0.0000E+00  0.0000E+00
    -29.495  0.0000E+00  0.0000E+00  0.0000E+00  0.0000E+00  0.0000E+00  0.0000E+00  0.0000E+00  0.0000E+00  0.0000E+00  0.0000E+00  0.0000E+00  0.0000E+00  0.0000E+00  0.0000E+00  0.0000E+00  0.0000E+00  0.0000E+00  0.0000E+00
    -29.350  0.0000E+00  0.0000E+00  0.0000E+00  0.0000E+00  0.0000E+00  0.0000E+00  0.0000E+00  0.0000E+00  0.0000E+00  0.0000E+00  0.0000E+00  0.0000E+00  0.0000E+00  0.0000E+00  0.0000E+00  0.0000E+00  0.0000E+00  0.0000E+00
    -29.206  0.0000E+00  0.0000E+00  0.0000E+00  0.0000E+00  0.0000E+00  0.0000E+00  0.0000E+00  0.0000E+00  0.0000E+00  0.0000E+00  0.0000E+00  0.0000E+00  0.0000E+00  0.0000E+00  0.0000E+00  0.0000E+00  0.0000E+00  0.0000E+00
    -29.061  0.0000E+00  0.0000E+00  0.0000E+00  0.0000E+00  0.0000E+00  0.0000E+00  0.0000E+00  0.0000E+00  0.0000E+00  0.0000E+00  0.0000E+00  0.0000E+00  0.0000E+00  0.0000E+00  0.0000E+00  0.0000E+00  0.0000E+00  0.0000E+00
    -28.916  0.0000E+00  0.0000E+00  0.0000E+00  0.0000E+00  0.0000E+00  0.0000E+00  0.0000E+00  0.0000E+00  0.0000E+00  0.0000E+00  0.0000E+00  0.0000E+00  0.0000E+00  0.0000E+00  0.0000E+00  0.0000E+00  0.0000E+00  0.0000E+00
    -28.772  0.0000E+00  0.0000E+00  0.0000E+00  0.0000E+00  0.0000E+00  0.0000E+00  0.0000E+00  0.0000E+00  0.0000E+00  0.0000E+00  0.0000E+00  0.0000E+00  0.0000E+00  0.0000E+00  0.0000E+00  0.0000E+00  0.0000E+00  0.0000E+00
    -28.627  0.0000E+00  0.0000E+00  0.0000E+00  0.0000E+00  0.0000E+00  0.0000E+00  0.0000E+00  0.0000E+00  0.0000E+00  0.0000E+00  0.0000E+00  0.0000E+00  0.0000E+00  0.0000E+00  0.0000E+00  0.0000E+00  0.0000E+00  0.0000E+00
    -28.483  0.1524E-03  0.1539E-03  0.1134E-10  0.1146E-10  0.5406E-12  0.5458E-12  0.1134E-10  0.1146E-10  0.1409E-13  0.1515E-13  0.7513E-13  0.7791E-13  0.4738E-09  0.4790E-09  0.7513E-13  0.7791E-13  0.6001E-11  0.6133E-11
    -28.338  0.2593E-02  0.2620E-02  0.1929E-09  0.1950E-09  0.9200E-11  0.9289E-11  0.1929E-09  0.1950E-09  0.2399E-12  0.2578E-12  0.1279E-11  0.1326E-11  0.8062E-08  0.8152E-08  0.1279E-11  0.1326E-11  0.1021E-09  0.1044E-09
    -28.193  0.4640E-01  0.4687E-01  0.3451E-08  0.3488E-08  0.1645E-09  0.1661E-09  0.3451E-08  0.3488E-08  0.4294E-11  0.4614E-11  0.2288E-10  0.2372E-10  0.1443E-06  0.1459E-06  0.2288E-10  0.2372E-10  0.1827E-08  0.1867E-08
    -28.049  0.7386E+00  0.7451E+00  0.5492E-07  0.5544E-07  0.2598E-08  0.2620E-08  0.5492E-07  0.5544E-07  0.6877E-10  0.7380E-10  0.3643E-09  0.3774E-09  0.2298E-05  0.2321E-05  0.3643E-09  0.3774E-09  0.2911E-07  0.2971E-07
    -27.904  0.3960E+01  0.3967E+01  0.2939E-06  0.2946E-06  0.1329E-07  0.1330E-07  0.2939E-06  0.2946E-06  0.3830E-09  0.4071E-09  0.1955E-08  0.2015E-08  0.1238E-04  0.1242E-04  0.1955E-08  0.2015E-08  0.1564E-06  0.1585E-06
    -27.760  0.1844E+01  0.1831E+01  0.1364E-06  0.1355E-06  0.5834E-08  0.5783E-08  0.1364E-06  0.1355E-06  0.1868E-09  0.1962E-09  0.9096E-09  0.9314E-09  0.5800E-05  0.5765E-05  0.9096E-09  0.9314E-09  0.7282E-07  0.7313E-07
    -27.615  0.1453E+00  0.1439E+00  0.1073E-07  0.1063E-07  0.4506E-09  0.4453E-09  0.1073E-07  0.1063E-07  0.1496E-10  0.1565E-10  0.7165E-10  0.7320E-10  0.4581E-06  0.4541E-06  0.7165E-10  0.7320E-10  0.5735E-08  0.5742E-08
    -27.471  0.0000E+00  0.0000E+00  0.0000E+00  0.0000E+00  0.0000E+00  0.0000E+00  0.0000E+00  0.0000E+00  0.0000E+00  0.0000E+00  0.0000E+00  0.0000E+00  0.0000E+00  0.0000E+00  0.0000E+00  0.0000E+00  0.0000E+00  0.0000E+00
    -27.326  0.0000E+00  0.0000E+00  0.0000E+00  0.0000E+00  0.0000E+00  0.0000E+00  0.0000E+00  0.0000E+00  0.0000E+00  0.0000E+00  0.0000E+00  0.0000E+00  0.0000E+00  0.0000E+00  0.0000E+00  0.0000E+00  0.0000E+00  0.0000E+00
    -27.181  0.0000E+00  0.0000E+00  0.0000E+00  0.0000E+00  0.0000E+00  0.0000E+00  0.0000E+00  0.0000E+00  0.0000E+00  0.0000E+00  0.0000E+00  0.0000E+00  0.0000E+00  0.0000E+00  0.0000E+00  0.0000E+00  0.0000E+00  0.0000E+00
    -27.037  0.0000E+00  0.0000E+00  0.0000E+00  0.0000E+00  0.0000E+00  0.0000E+00  0.0000E+00  0.0000E+00  0.0000E+00  0.0000E+00  0.0000E+00  0.0000E+00  0.0000E+00  0.0000E+00  0.0000E+00  0.0000E+00  0.0000E+00  0.0000E+00
    -26.892  0.0000E+00  0.0000E+00  0.0000E+00  0.0000E+00  0.0000E+00  0.0000E+00  0.0000E+00  0.0000E+00  0.0000E+00  0.0000E+00  0.0000E+00  0.0000E+00  0.0000E+00  0.0000E+00  0.0000E+00  0.0000E+00  0.0000E+00  0.0000E+00
    -26.748  0.0000E+00  0.0000E+00  0.0000E+00  0.0000E+00  0.0000E+00  0.0000E+00  0.0000E+00  0.0000E+00  0.0000E+00  0.0000E+00  0.0000E+00  0.0000E+00  0.0000E+00  0.0000E+00  0.0000E+00  0.0000E+00  0.0000E+00  0.0000E+00
    -26.603  0.0000E+00  0.0000E+00  0.0000E+00  0.0000E+00  0.0000E+00  0.0000E+00  0.0000E+00  0.0000E+00  0.0000E+00  0.0000E+00  0.0000E+00  0.0000E+00  0.0000E+00  0.0000E+00  0.0000E+00  0.0000E+00  0.0000E+00  0.0000E+00
    -26.458  0.0000E+00  0.0000E+00  0.0000E+00  0.0000E+00  0.0000E+00  0.0000E+00  0.0000E+00  0.0000E+00  0.0000E+00  0.0000E+00  0.0000E+00  0.0000E+00  0.0000E+00  0.0000E+00  0.0000E+00  0.0000E+00  0.0000E+00  0.0000E+00
    -26.314  0.0000E+00  0.0000E+00  0.0000E+00  0.0000E+00  0.0000E+00  0.0000E+00  0.0000E+00  0.0000E+00  0.0000E+00  0.0000E+00  0.0000E+00  0.0000E+00  0.0000E+00  0.0000E+00  0.0000E+00  0.0000E+00  0.0000E+00  0.0000E+00
    -26.169  0.0000E+00  0.0000E+00  0.0000E+00  0.0000E+00  0.0000E+00  0.0000E+00  0.0000E+00  0.0000E+00  0.0000E+00  0.0000E+00  0.0000E+00  0.0000E+00  0.0000E+00  0.0000E+00  0.0000E+00  0.0000E+00  0.0000E+00  0.0000E+00
    -26.025  0.0000E+00  0.0000E+00  0.0000E+00  0.0000E+00  0.0000E+00  0.0000E+00  0.0000E+00  0.0000E+00  0.0000E+00  0.0000E+00  0.0000E+00  0.0000E+00  0.0000E+00  0.0000E+00  0.0000E+00  0.0000E+00  0.0000E+00  0.0000E+00
    -25.880  0.0000E+00  0.0000E+00  0.0000E+00  0.0000E+00  0.0000E+00  0.0000E+00  0.0000E+00  0.0000E+00  0.0000E+00  0.0000E+00  0.0000E+00  0.0000E+00  0.0000E+00  0.0000E+00  0.0000E+00  0.0000E+00  0.0000E+00  0.0000E+00
    -25.736  0.0000E+00  0.0000E+00  0.0000E+00  0.0000E+00  0.0000E+00  0.0000E+00  0.0000E+00  0.0000E+00  0.0000E+00  0.0000E+00  0.0000E+00  0.0000E+00  0.0000E+00  0.0000E+00  0.0000E+00  0.0000E+00  0.0000E+00  0.0000E+00
    -25.591  0.0000E+00  0.0000E+00  0.0000E+00  0.0000E+00  0.0000E+00  0.0000E+00  0.0000E+00  0.0000E+00  0.0000E+00  0.0000E+00  0.0000E+00  0.0000E+00  0.0000E+00  0.0000E+00  0.0000E+00  0.0000E+00  0.0000E+00  0.0000E+00
    -25.446  0.0000E+00  0.0000E+00  0.0000E+00  0.0000E+00  0.0000E+00  0.0000E+00  0.0000E+00  0.0000E+00  0.0000E+00  0.0000E+00  0.0000E+00  0.0000E+00  0.0000E+00  0.0000E+00  0.0000E+00  0.0000E+00  0.0000E+00  0.0000E+00
    -25.302  0.0000E+00  0.0000E+00  0.0000E+00  0.0000E+00  0.0000E+00  0.0000E+00  0.0000E+00  0.0000E+00  0.0000E+00  0.0000E+00  0.0000E+00  0.0000E+00  0.0000E+00  0.0000E+00  0.0000E+00  0.0000E+00  0.0000E+00  0.0000E+00
    -25.157  0.0000E+00  0.0000E+00  0.0000E+00  0.0000E+00  0.0000E+00  0.0000E+00  0.0000E+00  0.0000E+00  0.0000E+00  0.0000E+00  0.0000E+00  0.0000E+00  0.0000E+00  0.0000E+00  0.0000E+00  0.0000E+00  0.0000E+00  0.0000E+00
    -25.013  0.0000E+00  0.0000E+00  0.0000E+00  0.0000E+00  0.0000E+00  0.0000E+00  0.0000E+00  0.0000E+00  0.0000E+00  0.0000E+00  0.0000E+00  0.0000E+00  0.0000E+00  0.0000E+00  0.0000E+00  0.0000E+00  0.0000E+00  0.0000E+00
    -24.868  0.0000E+00  0.0000E+00  0.0000E+00  0.0000E+00  0.0000E+00  0.0000E+00  0.0000E+00  0.0000E+00  0.0000E+00  0.0000E+00  0.0000E+00  0.0000E+00  0.0000E+00  0.0000E+00  0.0000E+00  0.0000E+00  0.0000E+00  0.0000E+00
    -24.723  0.0000E+00  0.0000E+00  0.0000E+00  0.0000E+00  0.0000E+00  0.0000E+00  0.0000E+00  0.0000E+00  0.0000E+00  0.0000E+00  0.0000E+00  0.0000E+00  0.0000E+00  0.0000E+00  0.0000E+00  0.0000E+00  0.0000E+00  0.0000E+00
    -24.579  0.0000E+00  0.0000E+00  0.0000E+00  0.0000E+00  0.0000E+00  0.0000E+00  0.0000E+00  0.0000E+00  0.0000E+00  0.0000E+00  0.0000E+00  0.0000E+00  0.0000E+00  0.0000E+00  0.0000E+00  0.0000E+00  0.0000E+00  0.0000E+00
    -24.434  0.0000E+00  0.0000E+00  0.0000E+00  0.0000E+00  0.0000E+00  0.0000E+00  0.0000E+00  0.0000E+00  0.0000E+00  0.0000E+00  0.0000E+00  0.0000E+00  0.0000E+00  0.0000E+00  0.0000E+00  0.0000E+00  0.0000E+00  0.0000E+00
    -24.290  0.0000E+00  0.0000E+00  0.0000E+00  0.0000E+00  0.0000E+00  0.0000E+00  0.0000E+00  0.0000E+00  0.0000E+00  0.0000E+00  0.0000E+00  0.0000E+00  0.0000E+00  0.0000E+00  0.0000E+00  0.0000E+00  0.0000E+00  0.0000E+00
    -24.145  0.0000E+00  0.0000E+00  0.0000E+00  0.0000E+00  0.0000E+00  0.0000E+00  0.0000E+00  0.0000E+00  0.0000E+00  0.0000E+00  0.0000E+00  0.0000E+00  0.0000E+00  0.0000E+00  0.0000E+00  0.0000E+00  0.0000E+00  0.0000E+00
    -24.000  0.0000E+00  0.0000E+00  0.0000E+00  0.0000E+00  0.0000E+00  0.0000E+00  0.0000E+00  0.0000E+00  0.0000E+00  0.0000E+00  0.0000E+00  0.0000E+00  0.0000E+00  0.0000E+00  0.0000E+00  0.0000E+00  0.0000E+00  0.0000E+00
    -23.856  0.0000E+00  0.0000E+00  0.0000E+00  0.0000E+00  0.0000E+00  0.0000E+00  0.0000E+00  0.0000E+00  0.0000E+00  0.0000E+00  0.0000E+00  0.0000E+00  0.0000E+00  0.0000E+00  0.0000E+00  0.0000E+00  0.0000E+00  0.0000E+00
    -23.711  0.0000E+00  0.0000E+00  0.0000E+00  0.0000E+00  0.0000E+00  0.0000E+00  0.0000E+00  0.0000E+00  0.0000E+00  0.0000E+00  0.0000E+00  0.0000E+00  0.0000E+00  0.0000E+00  0.0000E+00  0.0000E+00  0.0000E+00  0.0000E+00
    -23.567  0.0000E+00  0.0000E+00  0.0000E+00  0.0000E+00  0.0000E+00  0.0000E+00  0.0000E+00  0.0000E+00  0.0000E+00  0.0000E+00  0.0000E+00  0.0000E+00  0.0000E+00  0.0000E+00  0.0000E+00  0.0000E+00  0.0000E+00  0.0000E+00
    -23.422  0.0000E+00  0.0000E+00  0.0000E+00  0.0000E+00  0.0000E+00  0.0000E+00  0.0000E+00  0.0000E+00  0.0000E+00  0.0000E+00  0.0000E+00  0.0000E+00  0.0000E+00  0.0000E+00  0.0000E+00  0.0000E+00  0.0000E+00  0.0000E+00
    -23.278  0.0000E+00  0.0000E+00  0.0000E+00  0.0000E+00  0.0000E+00  0.0000E+00  0.0000E+00  0.0000E+00  0.0000E+00  0.0000E+00  0.0000E+00  0.0000E+00  0.0000E+00  0.0000E+00  0.0000E+00  0.0000E+00  0.0000E+00  0.0000E+00
    -23.133  0.0000E+00  0.0000E+00  0.0000E+00  0.0000E+00  0.0000E+00  0.0000E+00  0.0000E+00  0.0000E+00  0.0000E+00  0.0000E+00  0.0000E+00  0.0000E+00  0.0000E+00  0.0000E+00  0.0000E+00  0.0000E+00  0.0000E+00  0.0000E+00
    -22.988  0.0000E+00  0.0000E+00  0.0000E+00  0.0000E+00  0.0000E+00  0.0000E+00  0.0000E+00  0.0000E+00  0.0000E+00  0.0000E+00  0.0000E+00  0.0000E+00  0.0000E+00  0.0000E+00  0.0000E+00  0.0000E+00  0.0000E+00  0.0000E+00
    -22.844  0.0000E+00  0.0000E+00  0.0000E+00  0.0000E+00  0.0000E+00  0.0000E+00  0.0000E+00  0.0000E+00  0.0000E+00  0.0000E+00  0.0000E+00  0.0000E+00  0.0000E+00  0.0000E+00  0.0000E+00  0.0000E+00  0.0000E+00  0.0000E+00
    -22.699  0.0000E+00  0.0000E+00  0.0000E+00  0.0000E+00  0.0000E+00  0.0000E+00  0.0000E+00  0.0000E+00  0.0000E+00  0.0000E+00  0.0000E+00  0.0000E+00  0.0000E+00  0.0000E+00  0.0000E+00  0.0000E+00  0.0000E+00  0.0000E+00