   8   8   1   0
  0.2735275E+02  0.4868127E-09  0.4868127E-09  0.9233520E-09  0.5000000E-15
  1.000000000000000E-004
  CAR 
 unknown system                          
      9.86098066    -33.44163496  301      3.77794058      1.00000000
    -33.442  0.0000E+00  0.0000E+00  0.0000E+00  0.0000E+00
    -33.297  0.0000E+00  0.0000E+00  0.0000E+00  0.0000E+00
    -33.153  0.0000E+00  0.0000E+00  0.0000E+00  0.0000E+00
    -33.009  0.0000E+00  0.0000E+00  0.0000E+00  0.0000E+00
    -32.864  0.0000E+00  0.0000E+00  0.0000E+00  0.0000E+00
    -32.720  0.0000E+00  0.0000E+00  0.0000E+00  0.0000E+00
    -32.576  0.0000E+00  0.0000E+00  0.0000E+00  0.0000E+00
    -32.431  0.0000E+00  0.0000E+00  0.0000E+00  0.0000E+00
    -32.287  0.0000E+00  0.0000E+00  0.0000E+00  0.0000E+00
    -32.143  0.0000E+00  0.0000E+00  0.0000E+00  0.0000E+00
    -31.998  0.3740E-03  0.3715E-03  0.5399E-04  0.5362E-04
    -31.854  0.6332E-02  0.6288E-02  0.9679E-03  0.9613E-03
    -31.710  0.1126E+00  0.1118E+00  0.1722E-01  0.1710E-01
    -31.565  0.1748E+01  0.1738E+01  0.2696E+00  0.2679E+00
    -31.421  0.8336E+01  0.8329E+01  0.1473E+01  0.1470E+01
    -31.277  0.3381E+01  0.3398E+01  0.1961E+01  0.1961E+01
    -31.132  0.2557E+00  0.2574E+00  0.1998E+01  0.1998E+01
    -30.988  0.0000E+00  0.0000E+00  0.2000E+01  0.2000E+01
    -30.843  0.0000E+00  0.0000E+00  0.2000E+01  0.2000E+01
    -30.699  0.0000E+00  0.0000E+00  0.2000E+01  0.2000E+01
    -30.555  0.0000E+00  0.0000E+00  0.2000E+01  0.2000E+01
    -30.410  0.0000E+00  0.0000E+00  0.2000E+01  0.2000E+01
    -30.266  0.0000E+00  0.0000E+00  0.2000E+01  0.2000E+01
    -30.122  0.0000E+00  0.0000E+00  0.2000E+01  0.2000E+01
    -29.977  0.0000E+00  0.0000E+00  0.2000E+01  0.2000E+01
    -29.833  0.0000E+00  0.0000E+00  0.2000E+01  0.2000E+01
    -29.689  0.0000E+00  0.0000E+00  0.2000E+01  0.2000E+01
    -29.544  0.0000E+00  0.0000E+00  0.2000E+01  0.2000E+01
    -29.400  0.0000E+00  0.0000E+00  0.2000E+01  0.2000E+01
    -29.256  0.0000E+00  0.0000E+00  0.2000E+01  0.2000E+01
    -29.111  0.0000E+00  0.0000E+00  0.2000E+01  0.2000E+01
    -28.967  0.0000E+00  0.0000E+00  0.2000E+01  0.2000E+01
    -28.823  0.0000E+00  0.0000E+00  0.2000E+01  0.2000E+01
    -28.678  0.0000E+00  0.0000E+00  0.2000E+01  0.2000E+01
    -28.534  0.0000E+00  0.0000E+00  0.2000E+01  0.2000E+01
    -28.390  0.0000E+00  0.0000E+00  0.2000E+01  0.2000E+01
    -28.245  0.0000E+00  0.0000E+00  0.2000E+01  0.2000E+01
    -28.101  0.0000E+00  0.0000E+00  0.2000E+01  0.2000E+01
    -27.957  0.0000E+00  0.0000E+00  0.2000E+01  0.2000E+01
    -27.812  0.0000E+00  0.0000E+00  0.2000E+01  0.2000E+01
    -27.668  0.0000E+00  0.0000E+00  0.2000E+01  0.2000E+01
    -27.524  0.0000E+00  0.0000E+00  0.2000E+01  0.2000E+01
    -27.379  0.0000E+00  0.0000E+00  0.2000E+01  0.2000E+01
    -27.235  0.0000E+00  0.0000E+00  0.2000E+01  0.2000E+01
    -27.091  0.0000E+00  0.0000E+00  0.2000E+01  0.2000E+01
    -26.946  0.0000E+00  0.0000E+00  0.2000E+01  0.2000E+01
    -26.802  0.0000E+00  0.0000E+00  0.2000E+01  0.2000E+01
    -26.658  0.0000E+00  0.0000E+00  0.2000E+01  0.2000E+01
    -26.513  0.0000E+00  0.0000E+00  0.2000E+01  0.2000E+01
    -26.369  0.0000E+00  0.0000E+00  0.2000E+01  0.2000E+01
    -26.225  0.0000E+00  0.0000E+00  0.2000E+01  0.2000E+01
    -26.080  0.0000E+00  0.0000E+00  0.2000E+01  0.2000E+01
    -25.936  0.0000E+00  0.0000E+00  0.2000E+01  0.2000E+01
    -25.792  0.0000E+00  0.0000E+00  0.2000E+01  0.2000E+01
    -25.647  0.0000E+00  0.0000E+00  0.2000E+01  0.2000E+01
    -25.503  0.0000E+00  0.0000E+00  0.2000E+01  0.2000E+01
    -25.358  0.0000E+00  0.0000E+00  0.2000E+01  0.2000E+01
    -25.214  0.0000E+00  0.0000E+00  0.2000E+01  0.2000E+01
    -25.070  0.0000E+00  0.0000E+00  0.2000E+01  0.2000E+01
    -24.925  0.0000E+00  0.0000E+00  0.2000E+01  0.2000E+01
    -24.781  0.0000E+00  0.0000E+00  0.2000E+01  0.2000E+01
    -24.637  0.0000E+00  0.0000E+00  0.2000E+01  0.2000E+01
    -24.492  0.0000E+00  0.0000E+00  0.2000E+01  0.2000E+01
    -24.348  0.0000E+00  0.0000E+00  0.2000E+01  0.2000E+01
    -24.204  0.0000E+00  0.0000E+00  0.2000E+01  0.2000E+01
    -24.059  0.0000E+00  0.0000E+00  0.2000E+01  0.2000E+01
    -23.915  0.0000E+00  0.0000E+00  0.2000E+01  0.2000E+01
    -23.771  0.0000E+00  0.0000E+00  0.2000E+01  0.2000E+01
    -23.626  0.0000E+00  0.0000E+00  0.2000E+01  0.2000E+01
    -23.482  0.0000E+00  0.0000E+00  0.2000E+01  0.2000E+01
    -23.338  0.0000E+00  0.0000E+00  0.2000E+01  0.2000E+01
    -23.193  0.0000E+00  0.0000E+00  0.2000E+01  0.2000E+01
    -23.049  0.0000E+00  0.0000E+00  0.2000E+01  0.2000E+01
    -22.905  0.0000E+00  0.0000E+00  0.2000E+01  0.2000E+01
    -22.760  0.0000E+00  0.0000E+00  0.2000E+01  0.2000E+01
    -22.616  0.0000E+00  0.0000E+00  0.2000E+01  0.2000E+01
    -22.472  0.0000E+00  0.0000E+00  0.2000E+01  0.2000E+01
    -22.327  0.0000E+00  0.0000E+00  0.2000E+01  0.2000E+01
    -22.183  0.0000E+00  0.0000E+00  0.2000E+01  0.2000E+01
    -22.039  0.0000E+00  0.0000E+00  0.2000E+01  0.2000E+01
    -21.894  0.0000E+00  0.0000E+00  0.2000E+01  0.2000E+01
    -21.750  0.0000E+00  0.0000E+00  0.2000E+01  0.2000E+01
    -21.606  0.0000E+00  0.0000E+00  0.2000E+01  0.2000E+01
    -21.461  0.0000E+00  0.0000E+00  0.2000E+01  0.2000E+01
    -21.317  0.0000E+00  0.0000E+00  0.2000E+01  0.2000E+01
    -21.173  0.0000E+00  0.0000E+00  0.2000E+01  0.2000E+01
    -21.028  0.0000E+00  0.0000E+00  0.2000E+01  0.2000E+01
    -20.884  0.0000E+00  0.0000E+00  0.2000E+01  0.2000E+01
    -20.740  0.0000E+00  0.0000E+00  0.2000E+01  0.2000E+01
    -20.595  0.0000E+00  0.0000E+00  0.2000E+01  0.2000E+01
    -20.451  0.0000E+00  0.0000E+00  0.2000E+01  0.2000E+01
    -20.307  0.0000E+00  0.0000E+00  0.2000E+01  0.2000E+01
    -20.162  0.0000E+00  0.0000E+00  0.2000E+01  0.2000E+01
    -20.018  0.0000E+00  0.0000E+00  0.2000E+01  0.2000E+01
    -19.873  0.0000E+00  0.0000E+00  0.2000E+01  0.2000E+01
    -19.729  0.0000E+00  0.0000E+00  0.2000E+01  0.2000E+01
    -19.585  0.0000E+00  0.0000E+00  0.2000E+01  0.2000E+01
    -19.440  0.0000E+00  0.0000E+00  0.2000E+01  0.2000E+01
    -19.296  0.0000E+00  0.0000E+00  0.2000E+01  0.2000E+01
    -19.152  0.0000E+00  0.0000E+00  0.2000E+01  0.2000E+01
    -19.007  0.0000E+00  0.0000E+00  0.2000E+01  0.2000E+01
    -18.863  0.0000E+00  0.0000E+00  0.2000E+01  0.2000E+01
    -18.719  0.0000E+00  0.0000E+00  0.2000E+01  0.2000E+01
    -18.574  0.0000E+00  0.0000E+00  0.2000E+01  0.2000E+01
    -18.430  0.0000E+00  0.0000E+00  0.2000E+01  0.2000E+01
    -18.286  0.0000E+00  0.0000E+00  0.2000E+01  0.2000E+01
    -18.141  0.0000E+00  0.0000E+00  0.2000E+01  0.2000E+01
    -17.997  0.0000E+00  0.0000E+00  0.2000E+01  0.2000E+01
    -17.853  0.0000E+00  0.0000E+00  0.2000E+01  0.2000E+01
    -17.708  0.0000E+00  0.0000E+00  0.2000E+01  0.2000E+01
    -17.564  0.0000E+00  0.0000E+00  0.2000E+01  0.2000E+01
    -17.420  0.0000E+00  0.0000E+00  0.2000E+01  0.2000E+01
    -17.275  0.0000E+00  0.0000E+00  0.2000E+01  0.2000E+01
    -17.131  0.0000E+00  0.0000E+00  0.2000E+01  0.2000E+01
    -16.987  0.0000E+00  0.0000E+00  0.2000E+01  0.2000E+01
    -16.842  0.0000E+00  0.0000E+00  0.2000E+01  0.2000E+01
    -16.698  0.0000E+00  0.0000E+00  0.2000E+01  0.2000E+01
    -16.554  0.0000E+00  0.0000E+00  0.2000E+01  0.2000E+01
    -16.409  0.0000E+00  0.0000E+00  0.2000E+01  0.2000E+01
    -16.265  0.0000E+00  0.0000E+00  0.2000E+01  0.2000E+01
    -16.121  0.0000E+00  0.0000E+00  0.2000E+01  0.2000E+01
    -15.976  0.0000E+00  0.0000E+00  0.2000E+01  0.2000E+01
    -15.832  0.0000E+00  0.0000E+00  0.2000E+01  0.2000E+01
    -15.688  0.0000E+00  0.0000E+00  0.2000E+01  0.2000E+01
    -15.543  0.0000E+00  0.0000E+00  0.2000E+01  0.2000E+01
    -15.399  0.0000E+00  0.0000E+00  0.2000E+01  0.2000E+01
    -15.255  0.0000E+00  0.0000E+00  0.2000E+01  0.2000E+01
    -15.110  0.0000E+00  0.0000E+00  0.2000E+01  0.2000E+01
    -14.966  0.0000E+00  0.0000E+00  0.2000E+01  0.2000E+01
    -14.822  0.0000E+00  0.0000E+00  0.2000E+01  0.2000E+01
    -14.677  0.0000E+00  0.0000E+00  0.2000E+01  0.2000E+01
    -14.533  0.0000E+00  0.0000E+00  0.2000E+01  0.2000E+01
    -14.388  0.0000E+00  0.0000E+00  0.2000E+01  0.2000E+01
    -14.244  0.0000E+00  0.0000E+00  0.2000E+01  0.2000E+01
    -14.100  0.8355E-03  0.8099E-03  0.2000E+01  0.2000E+01
    -13.955  0.1871E-01  0.1823E-01  0.2003E+01  0.2003E+01
    -13.811  0.3272E+00  0.3187E+00  0.2050E+01  0.2049E+01
    -13.667  0.4880E+01  0.4775E+01  0.2754E+01  0.2738E+01
    -13.522  0.2280E+02  0.2269E+02  0.6045E+01  0.6014E+01
    -13.378  0.1234E+02  0.1253E+02  0.7826E+01  0.7822E+01
    -13.234  0.1134E+01  0.1162E+01  0.7990E+01  0.7990E+01
    -13.089  0.0000E+00  0.0000E+00  0.8000E+01  0.8000E+01
    -12.945  0.0000E+00  0.0000E+00  0.8000E+01  0.8000E+01
    -12.801  0.0000E+00  0.0000E+00  0.8000E+01  0.8000E+01
    -12.656  0.0000E+00  0.0000E+00  0.8000E+01  0.8000E+01
    -12.512  0.0000E+00  0.0000E+00  0.8000E+01  0.8000E+01
    -12.368  0.0000E+00  0.0000E+00  0.8000E+01  0.8000E+01
    -12.223  0.0000E+00  0.0000E+00  0.8000E+01  0.8000E+01
    -12.079  0.0000E+00  0.0000E+00  0.8000E+01  0.8000E+01
    -11.935  0.0000E+00  0.0000E+00  0.8000E+01  0.8000E+01
    -11.790  0.0000E+00  0.0000E+00  0.8000E+01  0.8000E+01
    -11.646  0.0000E+00  0.0000E+00  0.8000E+01  0.8000E+01
    -11.502  0.0000E+00  0.0000E+00  0.8000E+01  0.8000E+01
    -11.357  0.0000E+00  0.0000E+00  0.8000E+01  0.8000E+01
    -11.213  0.0000E+00  0.0000E+00  0.8000E+01  0.8000E+01
    -11.069  0.0000E+00  0.0000E+00  0.8000E+01  0.8000E+01
    -10.924  0.0000E+00  0.0000E+00  0.8000E+01  0.8000E+01
    -10.780  0.0000E+00  0.0000E+00  0.8000E+01  0.8000E+01
    -10.636  0.0000E+00  0.0000E+00  0.8000E+01  0.8000E+01
    -10.491  0.0000E+00  0.0000E+00  0.8000E+01  0.8000E+01
    -10.347  0.0000E+00  0.0000E+00  0.8000E+01  0.8000E+01
    -10.203  0.0000E+00  0.0000E+00  0.8000E+01  0.8000E+01
    -10.058  0.0000E+00  0.0000E+00  0.8000E+01  0.8000E+01
     -9.914  0.0000E+00  0.0000E+00  0.8000E+01  0.8000E+01
     -9.770  0.0000E+00  0.0000E+00  0.8000E+01  0.8000E+01
     -9.625  0.0000E+00  0.0000E+00  0.8000E+01  0.8000E+01
     -9.481  0.0000E+00  0.0000E+00  0.8000E+01  0.8000E+01
     -9.337  0.0000E+00  0.0000E+00  0.8000E+01  0.8000E+01
     -9.192  0.0000E+00  0.0000E+00  0.8000E+01  0.8000E+01
     -9.048  0.0000E+00  0.0000E+00  0.8000E+01  0.8000E+01
     -8.903  0.0000E+00  0.0000E+00  0.8000E+01  0.8000E+01
     -8.759  0.0000E+00  0.0000E+00  0.8000E+01  0.8000E+01
     -8.615  0.0000E+00  0.0000E+00  0.8000E+01  0.8000E+01
     -8.470  0.0000E+00  0.0000E+00  0.8000E+01  0.8000E+01
     -8.326  0.0000E+00  0.0000E+00  0.8000E+01  0.8000E+01
     -8.182  0.0000E+00  0.0000E+00  0.8000E+01  0.8000E+01
     -8.037  0.0000E+00  0.0000E+00  0.8000E+01  0.8000E+01
     -7.893  0.0000E+00  0.0000E+00  0.8000E+01  0.8000E+01
     -7.749  0.0000E+00  0.0000E+00  0.8000E+01  0.8000E+01
     -7.604  0.0000E+00  0.0000E+00  0.8000E+01  0.8000E+01
     -7.460  0.0000E+00  0.0000E+00  0.8000E+01  0.8000E+01
     -7.316  0.0000E+00  0.0000E+00  0.8000E+01  0.8000E+01
     -7.171  0.0000E+00  0.0000E+00  0.8000E+01  0.8000E+01
     -7.027  0.0000E+00  0.0000E+00  0.8000E+01  0.8000E+01
     -6.883  0.0000E+00  0.0000E+00  0.8000E+01  0.8000E+01
     -6.738  0.0000E+00  0.0000E+00  0.8000E+01  0.8000E+01
     -6.594  0.0000E+00  0.0000E+00  0.8000E+01  0.8000E+01
     -6.450  0.0000E+00  0.0000E+00  0.8000E+01  0.8000E+01
     -6.305  0.0000E+00  0.0000E+00  0.8000E+01  0.8000E+01
     -6.161  0.0000E+00  0.0000E+00  0.8000E+01  0.8000E+01
     -6.017  0.0000E+00  0.0000E+00  0.8000E+01  0.8000E+01
     -5.872  0.0000E+00  0.0000E+00  0.8000E+01  0.8000E+01
     -5.728  0.0000E+00  0.0000E+00  0.8000E+01  0.8000E+01
     -5.584  0.0000E+00  0.0000E+00  0.8000E+01  0.8000E+01
     -5.439  0.0000E+00  0.0000E+00  0.8000E+01  0.8000E+01
     -5.295  0.0000E+00  0.0000E+00  0.8000E+01  0.8000E+01
     -5.151  0.0000E+00  0.0000E+00  0.8000E+01  0.8000E+01
     -5.006  0.0000E+00  0.0000E+00  0.8000E+01  0.8000E+01
     -4.862  0.0000E+00  0.0000E+00  0.8000E+01  0.8000E+01
     -4.718  0.0000E+00  0.0000E+00  0.8000E+01  0.8000E+01
     -4.573  0.0000E+00  0.0000E+00  0.8000E+01  0.8000E+01
     -4.429  0.0000E+00  0.0000E+00  0.8000E+01  0.8000E+01
     -4.285  0.1872E-06  0.1729E-06  0.8000E+01  0.8000E+01
     -4.140  0.2380E-04  0.2199E-04  0.8000E+01  0.8000E+01
     -3.996  0.4462E-03  0.4124E-03  0.8000E+01  0.8000E+01
     -3.852  0.7540E-02  0.6998E-02  0.8001E+01  0.8001E+01
     -3.707  0.7482E-01  0.7137E-01  0.8012E+01  0.8011E+01
     -3.563  0.2314E+00  0.2270E+00  0.8045E+01  0.8044E+01
     -3.418  0.3528E+00  0.3499E+00  0.8096E+01  0.8095E+01
     -3.274  0.4635E+00  0.4613E+00  0.8163E+01  0.8161E+01
     -3.130  0.5254E+00  0.5230E+00  0.8239E+01  0.8237E+01
     -2.985  0.6517E+00  0.6497E+00  0.8333E+01  0.8331E+01
     -2.841  0.6553E+00  0.6539E+00  0.8428E+01  0.8425E+01
     -2.697  0.8215E+00  0.8178E+00  0.8547E+01  0.8544E+01
     -2.552  0.8294E+00  0.8295E+00  0.8667E+01  0.8664E+01
     -2.408  0.9398E+00  0.9373E+00  0.8803E+01  0.8799E+01
     -2.264  0.1065E+01  0.1059E+01  0.8957E+01  0.8952E+01
     -2.119  0.1164E+01  0.1166E+01  0.9125E+01  0.9121E+01
     -1.975  0.1187E+01  0.1182E+01  0.9297E+01  0.9292E+01
     -1.831  0.1326E+01  0.1328E+01  0.9488E+01  0.9484E+01
     -1.686  0.1126E+01  0.1132E+01  0.9651E+01  0.9647E+01
     -1.542  0.1101E+01  0.1095E+01  0.9811E+01  0.9806E+01
     -1.398  0.1312E+01  0.1308E+01  0.1000E+02  0.9995E+01
     -1.253  0.1565E+01  0.1559E+01  0.1023E+02  0.1022E+02
     -1.109  0.1629E+01  0.1632E+01  0.1046E+02  0.1046E+02
     -0.965  0.1389E+01  0.1394E+01  0.1066E+02  0.1066E+02
     -0.820  0.1404E+01  0.1399E+01  0.1087E+02  0.1086E+02
     -0.676  0.1546E+01  0.1545E+01  0.1109E+02  0.1108E+02
     -0.532  0.1470E+01  0.1471E+01  0.1130E+02  0.1130E+02
     -0.387  0.1532E+01  0.1528E+01  0.1152E+02  0.1152E+02
     -0.243  0.1852E+01  0.1843E+01  0.1179E+02  0.1178E+02
     -0.099  0.1636E+01  0.1651E+01  0.1203E+02  0.1202E+02
      0.046  0.1558E+01  0.1546E+01  0.1225E+02  0.1225E+02
      0.190  0.1695E+01  0.1706E+01  0.1250E+02  0.1249E+02
      0.334  0.1366E+01  0.1368E+01  0.1270E+02  0.1269E+02
      0.479  0.1378E+01  0.1375E+01  0.1290E+02  0.1289E+02
      0.623  0.1381E+01  0.1389E+01  0.1310E+02  0.1309E+02
      0.767  0.1084E+01  0.1087E+01  0.1325E+02  0.1325E+02
      0.912  0.1115E+01  0.1110E+01  0.1341E+02  0.1341E+02
      1.056  0.1147E+01  0.1154E+01  0.1358E+02  0.1358E+02
      1.200  0.8912E+00  0.8913E+00  0.1371E+02  0.1370E+02
      1.345  0.1057E+01  0.1051E+01  0.1386E+02  0.1386E+02
      1.489  0.1131E+01  0.1131E+01  0.1402E+02  0.1402E+02
      1.633  0.1157E+01  0.1153E+01  0.1419E+02  0.1419E+02
      1.778  0.1393E+01  0.1383E+01  0.1439E+02  0.1439E+02
      1.922  0.1603E+01  0.1597E+01  0.1463E+02  0.1462E+02
      2.067  0.2113E+01  0.2095E+01  0.1493E+02  0.1492E+02
      2.211  0.2286E+01  0.2293E+01  0.1526E+02  0.1525E+02
      2.355  0.2121E+01  0.2121E+01  0.1557E+02  0.1556E+02
      2.500  0.2093E+01  0.2093E+01  0.1587E+02  0.1586E+02
      2.644  0.2204E+01  0.2199E+01  0.1619E+02  0.1618E+02
      2.788  0.2572E+01  0.2561E+01  0.1656E+02  0.1655E+02
      2.933  0.2874E+01  0.2869E+01  0.1698E+02  0.1696E+02
      3.077  0.2724E+01  0.2730E+01  0.1737E+02  0.1736E+02
      3.221  0.2622E+01  0.2626E+01  0.1775E+02  0.1774E+02
      3.366  0.2389E+01  0.2395E+01  0.1809E+02  0.1809E+02
      3.510  0.2203E+01  0.2209E+01  0.1841E+02  0.1840E+02
      3.654  0.2254E+01  0.2250E+01  0.1874E+02  0.1873E+02
      3.799  0.2141E+01  0.2144E+01  0.1905E+02  0.1904E+02
      3.943  0.2396E+01  0.2390E+01  0.1940E+02  0.1939E+02
      4.087  0.2506E+01  0.2500E+01  0.1976E+02  0.1975E+02
      4.232  0.2865E+01  0.2857E+01  0.2017E+02  0.2016E+02
      4.376  0.2719E+01  0.2734E+01  0.2057E+02  0.2056E+02
      4.520  0.2281E+01  0.2284E+01  0.2090E+02  0.2089E+02
      4.665  0.2423E+01  0.2412E+01  0.2125E+02  0.2124E+02
      4.809  0.2498E+01  0.2510E+01  0.2161E+02  0.2160E+02
      4.953  0.2184E+01  0.2189E+01  0.2192E+02  0.2191E+02
      5.098  0.1970E+01  0.1972E+01  0.2221E+02  0.2220E+02
      5.242  0.2167E+01  0.2159E+01  0.2252E+02  0.2251E+02
      5.386  0.2404E+01  0.2400E+01  0.2287E+02  0.2286E+02
      5.531  0.2425E+01  0.2428E+01  0.2322E+02  0.2321E+02
      5.675  0.2223E+01  0.2230E+01  0.2354E+02  0.2353E+02
      5.819  0.2191E+01  0.2188E+01  0.2386E+02  0.2385E+02
      5.964  0.2257E+01  0.2255E+01  0.2419E+02  0.2418E+02
      6.108  0.2737E+01  0.2708E+01  0.2458E+02  0.2457E+02
      6.252  0.3925E+01  0.3898E+01  0.2515E+02  0.2513E+02
      6.397  0.3953E+01  0.3971E+01  0.2572E+02  0.2570E+02
      6.541  0.3488E+01  0.3436E+01  0.2622E+02  0.2620E+02
      6.685  0.3040E+01  0.3031E+01  0.2666E+02  0.2664E+02
      6.830  0.2594E+01  0.2656E+01  0.2704E+02  0.2702E+02
      6.974  0.2172E+01  0.2208E+01  0.2735E+02  0.2734E+02
      7.118  0.1471E+01  0.1464E+01  0.2757E+02  0.2756E+02
      7.263  0.8814E+00  0.9649E+00  0.2769E+02  0.2770E+02
      7.407  0.4994E+00  0.5270E+00  0.2777E+02  0.2777E+02
      7.552  0.5714E+00  0.4770E+00  0.2785E+02  0.2784E+02
      7.696  0.5608E+00  0.5461E+00  0.2793E+02  0.2792E+02
      7.840  0.3598E+00  0.3928E+00  0.2798E+02  0.2798E+02
      7.985  0.1025E+00  0.1336E+00  0.2800E+02  0.2800E+02
      8.129  0.9862E-02  0.1497E-01  0.2800E+02  0.2800E+02
      8.273  0.0000E+00  0.3892E-03  0.2800E+02  0.2800E+02
      8.418  0.0000E+00  0.0000E+00  0.2800E+02  0.2800E+02
      8.562  0.0000E+00  0.0000E+00  0.2800E+02  0.2800E+02
      8.706  0.0000E+00  0.0000E+00  0.2800E+02  0.2800E+02
      8.851  0.0000E+00  0.0000E+00  0.2800E+02  0.2800E+02
      8.995  0.0000E+00  0.0000E+00  0.2800E+02  0.2800E+02
      9.139  0.0000E+00  0.0000E+00  0.2800E+02  0.2800E+02
      9.284  0.0000E+00  0.0000E+00  0.2800E+02  0.2800E+02
      9.428  0.0000E+00  0.0000E+00  0.2800E+02  0.2800E+02
      9.572  0.0000E+00  0.0000E+00  0.2800E+02  0.2800E+02
      9.717  0.0000E+00  0.0000E+00  0.2800E+02  0.2800E+02
      9.861  0.0000E+00  0.0000E+00  0.2800E+02  0.2800E+02
      9.86098066    -33.44163496  301      3.77794058      1.00000000
    -33.442  0.0000E+00  0.0000E+00  0.0000E+00  0.0000E+00  0.0000E+00  0.0000E+00  0.0000E+00  0.0000E+00  0.0000E+00  0.0000E+00  0.0000E+00  0.0000E+00  0.0000E+00  0.0000E+00  0.0000E+00  0.0000E+00  0.0000E+00  0.0000E+00
    -33.297  0.0000E+00  0.0000E+00  0.0000E+00  0.0000E+00  0.0000E+00  0.0000E+00  0.0000E+00  0.0000E+00  0.0000E+00  0.0000E+00  0.0000E+00  0.0000E+00  0.0000E+00  0.0000E+00  0.0000E+00  0.0000E+00  0.0000E+00  0.0000E+00
    -33.153  0.0000E+00  0.0000E+00  0.0000E+00  0.0000E+00  0.0000E+00  0.0000E+00  0.0000E+00  0.0000E+00  0.0000E+00  0.0000E+00  0.0000E+00  0.0000E+00  0.0000E+00  0.0000E+00  0.0000E+00  0.0000E+00  0.0000E+00  0.0000E+00
    -33.009  0.0000E+00  0.0000E+00  0.0000E+00  0.0000E+00  0.0000E+00  0.0000E+00  0.0000E+00  0.0000E+00  0.0000E+00  0.0000E+00  0.0000E+00  0.0000E+00  0.0000E+00  0.0000E+00  0.0000E+00  0.0000E+00  0.0000E+00  0.0000E+00
    -32.864  0.0000E+00  0.0000E+00  0.0000E+00  0.0000E+00  0.0000E+00  0.0000E+00  0.0000E+00  0.0000E+00  0.0000E+00  0.0000E+00  0.0000E+00  0.0000E+00  0.0000E+00  0.0000E+00  0.0000E+00  0.0000E+00  0.0000E+00  0.0000E+00
    -32.720  0.0000E+00  0.0000E+00  0.0000E+00  0.0000E+00  0.0000E+00  0.0000E+00  0.0000E+00  0.0000E+00  0.0000E+00  0.0000E+00  0.0000E+00  0.0000E+00  0.0000E+00  0.0000E+00  0.0000E+00  0.0000E+00  0.0000E+00  0.0000E+00
    -32.576  0.0000E+00  0.0000E+00  0.0000E+00  0.0000E+00  0.0000E+00  0.0000E+00  0.0000E+00  0.0000E+00  0.0000E+00  0.0000E+00  0.0000E+00  0.0000E+00  0.0000E+00  0.0000E+00  0.0000E+00  0.0000E+00  0.0000E+00  0.0000E+00
    -32.431  0.0000E+00  0.0000E+00  0.0000E+00  0.0000E+00  0.0000E+00  0.0000E+00  0.0000E+00  0.0000E+00  0.0000E+00  0.0000E+00  0.0000E+00  0.0000E+00  0.0000E+00  0.0000E+00  0.0000E+00  0.0000E+00  0.0000E+00  0.0000E+00
    -32.287  0.0000E+00  0.0000E+00  0.0000E+00  0.0000E+00  0.0000E+00  0.0000E+00  0.0000E+00  0.0000E+00  0.0000E+00  0.0000E+00  0.0000E+00  0.0000E+00  0.0000E+00  0.0000E+00  0.0000E+00  0.0000E+00  0.0000E+00  0.0000E+00
    -32.143  0.0000E+00  0.0000E+00  0.0000E+00  0.0000E+00  0.0000E+00  0.0000E+00  0.0000E+00  0.0000E+00  0.0000E+00  0.0000E+00  0.0000E+00  0.0000E+00  0.0000E+00  0.0000E+00  0.0000E+00  0.0000E+00  0.0000E+00  0.0000E+00
    -31.998  0.1829E-03  0.1817E-03  0.2505E-12  0.2504E-12  0.2817E-14  0.6015E-14  0.2505E-12  0.2504E-12  0.3930E-15  0.7477E-15  0.1538E-14  0.7636E-15  0.1473E-09  0.1458E-09  0.1538E-14  0.7636E-15  0.1428E-12  0.1325E-12
    -31.854  0.3097E-02  0.3075E-02  0.4240E-11  0.4239E-11  0.4769E-13  0.1018E-12  0.4240E-11  0.4239E-11  0.6652E-14  0.1266E-13  0.2603E-13  0.1293E-13  0.2493E-08  0.2467E-08  0.2603E-13  0.1293E-13  0.2417E-11  0.2243E-11
    -31.710  0.5507E-01  0.5469E-01  0.7540E-10  0.7539E-10  0.8479E-12  0.1811E-11  0.7540E-10  0.7539E-10  0.1183E-12  0.2251E-12  0.4629E-12  0.2299E-12  0.4433E-07  0.4388E-07  0.4629E-12  0.2299E-12  0.4298E-10  0.3988E-10
    -31.565  0.8551E+00  0.8500E+00  0.1171E-08  0.1172E-08  0.1315E-10  0.2810E-10  0.1171E-08  0.1172E-08  0.1838E-11  0.3498E-11  0.7187E-11  0.3574E-11  0.6883E-06  0.6819E-06  0.7187E-11  0.3574E-11  0.6674E-09  0.6198E-09
    -31.421  0.4077E+01  0.4074E+01  0.5581E-08  0.5614E-08  0.6233E-10  0.1337E-09  0.5581E-08  0.5614E-08  0.8794E-11  0.1677E-10  0.3427E-10  0.1716E-10  0.3283E-05  0.3269E-05  0.3427E-10  0.1716E-10  0.3183E-08  0.2970E-08
    -31.277  0.1654E+01  0.1662E+01  0.2263E-08  0.2290E-08  0.2510E-10  0.5407E-10  0.2263E-08  0.2290E-08  0.3581E-11  0.6845E-11  0.1390E-10  0.7017E-11  0.1332E-05  0.1334E-05  0.1390E-10  0.7017E-11  0.1291E-08  0.1212E-08
    -31.132  0.1251E+00  0.1259E+00  0.1712E-09  0.1735E-09  0.1894E-11  0.4086E-11  0.1712E-09  0.1735E-09  0.2712E-12  0.5187E-12  0.1051E-11  0.5320E-12  0.1007E-06  0.1011E-06  0.1051E-11  0.5320E-12  0.9761E-10  0.9179E-10
    -30.988  0.0000E+00  0.0000E+00  0.0000E+00  0.0000E+00  0.0000E+00  0.0000E+00  0.0000E+00  0.0000E+00  0.0000E+00  0.0000E+00  0.0000E+00  0.0000E+00  0.0000E+00  0.0000E+00  0.0000E+00  0.0000E+00  0.0000E+00  0.0000E+00
    -30.843  0.0000E+00  0.0000E+00  0.0000E+00  0.0000E+00  0.0000E+00  0.0000E+00  0.0000E+00  0.0000E+00  0.0000E+00  0.0000E+00  0.0000E+00  0.0000E+00  0.0000E+00  0.0000E+00  0.0000E+00  0.0000E+00  0.0000E+00  0.0000E+00
    -30.699  0.0000E+00  0.0000E+00  0.0000E+00  0.0000E+00  0.0000E+00  0.0000E+00  0.0000E+00  0.0000E+00  0.0000E+00  0.0000E+00  0.0000E+00  0.0000E+00  0.0000E+00  0.0000E+00  0.0000E+00  0.0000E+00  0.0000E+00  0.0000E+00
    -30.555  0.0000E+00  0.0000E+00  0.0000E+00  0.0000E+00  0.0000E+00  0.0000E+00  0.0000E+00  0.0000E+00  0.0000E+00  0.0000E+00  0.0000E+00  0.0000E+00  0.0000E+00  0.0000E+00  0.0000E+00  0.0000E+00  0.0000E+00  0.0000E+00
    -30.410  0.0000E+00  0.0000E+00  0.0000E+00  0.0000E+00  0.0000E+00  0.0000E+00  0.0000E+00  0.0000E+00  0.0000E+00  0.0000E+00  0.0000E+00  0.0000E+00  0.0000E+00  0.0000E+00  0.0000E+00  0.0000E+00  0.0000E+00  0.0000E+00
    -30.266  0.0000E+00  0.0000E+00  0.0000E+00  0.0000E+00  0.0000E+00  0.0000E+00  0.0000E+00  0.0000E+00  0.0000E+00  0.0000E+00  0.0000E+00  0.0000E+00  0.0000E+00  0.0000E+00  0.0000E+00  0.0000E+00  0.0000E+00  0.0000E+00
    -30.122  0.0000E+00  0.0000E+00  0.0000E+00  0.0000E+00  0.0000E+00  0.0000E+00  0.0000E+00  0.0000E+00  0.0000E+00  0.0000E+00  0.0000E+00  0.0000E+00  0.0000E+00  0.0000E+00  0.0000E+00  0.0000E+00  0.0000E+00  0.0000E+00
    -29.977  0.0000E+00  0.0000E+00  0.0000E+00  0.0000E+00  0.0000E+00  0.0000E+00  0.0000E+00  0.0000E+00  0.0000E+00  0.0000E+00  0.0000E+00  0.0000E+00  0.0000E+00  0.0000E+00  0.0000E+00  0.0000E+00  0.0000E+00  0.0000E+00
    -29.833  0.0000E+00  0.0000E+00  0.0000E+00  0.0000E+00  0.0000E+00  0.0000E+00  0.0000E+00  0.0000E+00  0.0000E+00  0.0000E+00  0.0000E+00  0.0000E+00  0.0000E+00  0.0000E+00  0.0000E+00  0.0000E+00  0.0000E+00  0.0000E+00
    -29.689  0.0000E+00  0.0000E+00  0.0000E+00  0.0000E+00  0.0000E+00  0.0000E+00  0.0000E+00  0.0000E+00  0.0000E+00  0.0000E+00  0.0000E+00  0.0000E+00  0.0000E+00  0.0000E+00  0.0000E+00  0.0000E+00  0.0000E+00  0.0000E+00
    -29.544  0.0000E+00  0.0000E+00  0.0000E+00  0.0000E+00  0.0000E+00  0.0000E+00  0.0000E+00  0.0000E+00  0.0000E+00  0.0000E+00  0.0000E+00  0.0000E+00  0.0000E+00  0.0000E+00  0.0000E+00  0.0000E+00  0.0000E+00  0.0000E+00
    -29.400  0.0000E+00  0.0000E+00  0.0000E+00  0.0000E+00  0.0000E+00  0.0000E+00  0.0000E+00  0.0000E+00  0.0000E+00  0.0000E+00  0.0000E+00  0.0000E+00  0.0000E+00  0.0000E+00  0.0000E+00  0.0000E+00  0.0000E+00  0.0000E+00
    -29.256  0.0000E+00  0.0000E+00  0.0000E+00  0.0000E+00  0.0000E+00  0.0000E+00  0.0000E+00  0.0000E+00  0.0000E+00  0.0000E+00  0.0000E+00  0.0000E+00  0.0000E+00  0.0000E+00  0.0000E+00  0.0000E+00  0.0000E+00  0.0000E+00
    -29.111  0.0000E+00  0.0000E+00  0.0000E+00  0.0000E+00  0.0000E+00  0.0000E+00  0.0000E+00  0.0000E+00  0.0000E+00  0.0000E+00  0.0000E+00  0.0000E+00  0.0000E+00  0.0000E+00  0.0000E+00  0.0000E+00  0.0000E+00  0.0000E+00
    -28.967  0.0000E+00  0.0000E+00  0.0000E+00  0.0000E+00  0.0000E+00  0.0000E+00  0.0000E+00  0.0000E+00  0.0000E+00  0.0000E+00  0.0000E+00  0.0000E+00  0.0000E+00  0.0000E+00  0.0000E+00  0.0000E+00  0.0000E+00  0.0000E+00
    -28.823  0.0000E+00  0.0000E+00  0.0000E+00  0.0000E+00  0.0000E+00  0.0000E+00  0.0000E+00  0.0000E+00  0.0000E+00  0.0000E+00  0.0000E+00  0.0000E+00  0.0000E+00  0.0000E+00  0.0000E+00  0.0000E+00  0.0000E+00  0.0000E+00
    -28.678  0.0000E+00  0.0000E+00  0.0000E+00  0.0000E+00  0.0000E+00  0.0000E+00  0.0000E+00  0.0000E+00  0.0000E+00  0.0000E+00  0.0000E+00  0.0000E+00  0.0000E+00  0.0000E+00  0.0000E+00  0.0000E+00  0.0000E+00  0.0000E+00
    -28.534  0.0000E+00  0.0000E+00  0.0000E+00  0.0000E+00  0.0000E+00  0.0000E+00  0.0000E+00  0.0000E+00  0.0000E+00  0.0000E+00  0.0000E+00  0.0000E+00  0.0000E+00  0.0000E+00  0.0000E+00  0.0000E+00  0.0000E+00  0.0000E+00
    -28.390  0.0000E+00  0.0000E+00  0.0000E+00  0.0000E+00  0.0000E+00  0.0000E+00  0.0000E+00  0.0000E+00  0.0000E+00  0.0000E+00  0.0000E+00  0.0000E+00  0.0000E+00  0.0000E+00  0.0000E+00  0.0000E+00  0.0000E+00  0.0000E+00
    -28.245  0.0000E+00  0.0000E+00  0.0000E+00  0.0000E+00  0.0000E+00  0.0000E+00  0.0000E+00  0.0000E+00  0.0000E+00  0.0000E+00  0.0000E+00  0.0000E+00  0.0000E+00  0.0000E+00  0.0000E+00  0.0000E+00  0.0000E+00  0.0000E+00
    -28.101  0.0000E+00  0.0000E+00  0.0000E+00  0.0000E+00  0.0000E+00  0.0000E+00  0.0000E+00  0.0000E+00  0.0000E+00  0.0000E+00  0.0000E+00  0.0000E+00  0.0000E+00  0.0000E+00  0.0000E+00  0.0000E+00  0.0000E+00  0.0000E+00
    -27.957  0.0000E+00  0.0000E+00  0.0000E+00  0.0000E+00  0.0000E+00  0.0000E+00  0.0000E+00  0.0000E+00  0.0000E+00  0.0000E+00  0.0000E+00  0.0000E+00  0.0000E+00  0.0000E+00  0.0000E+00  0.0000E+00  0.0000E+00  0.0000E+00
    -27.812  0.0000E+00  0.0000E+00  0.0000E+00  0.0000E+00  0.0000E+00  0.0000E+00  0.0000E+00  0.0000E+00  0.0000E+00  0.0000E+00  0.0000E+00  0.0000E+00  0.0000E+00  0.0000E+00  0.0000E+00  0.0000E+00  0.0000E+00  0.0000E+00
    -27.668  0.0000E+00  0.0000E+00  0.0000E+00  0.0000E+00  0.0000E+00  0.0000E+00  0.0000E+00  0.0000E+00  0.0000E+00  0.0000E+00  0.0000E+00  0.0000E+00  0.0000E+00  0.0000E+00  0.0000E+00  0.0000E+00  0.0000E+00  0.0000E+00
    -27.524  0.0000E+00  0.0000E+00  0.0000E+00  0.0000E+00  0.0000E+00  0.0000E+00  0.0000E+00  0.0000E+00  0.0000E+00  0.0000E+00  0.0000E+00  0.0000E+00  0.0000E+00  0.0000E+00  0.0000E+00  0.0000E+00  0.0000E+00  0.0000E+00
    -27.379  0.0000E+00  0.0000E+00  0.0000E+00  0.0000E+00  0.0000E+00  0.0000E+00  0.0000E+00  0.0000E+00  0.0000E+00  0.0000E+00  0.0000E+00  0.0000E+00  0.0000E+00  0.0000E+00  0.0000E+00  0.0000E+00  0.0000E+00  0.0000E+00
    -27.235  0.0000E+00  0.0000E+00  0.0000E+00  0.0000E+00  0.0000E+00  0.0000E+00  0.0000E+00  0.0000E+00  0.0000E+00  0.0000E+00  0.0000E+00  0.0000E+00  0.0000E+00  0.0000E+00  0.0000E+00  0.0000E+00  0.0000E+00  0.0000E+00
    -27.091  0.0000E+00  0.0000E+00  0.0000E+00  0.0000E+00  0.0000E+00  0.0000E+00  0.0000E+00  0.0000E+00  0.0000E+00  0.0000E+00  0.0000E+00  0.0000E+00  0.0000E+00  0.0000E+00  0.0000E+00  0.0000E+00  0.0000E+00  0.0000E+00
    -26.946  0.0000E+00  0.0000E+00  0.0000E+00  0.0000E+00  0.0000E+00  0.0000E+00  0.0000E+00  0.0000E+00  0.0000E+00  0.0000E+00  0.0000E+00  0.0000E+00  0.0000E+00  0.0000E+00  0.0000E+00  0.0000E+00  0.0000E+00  0.0000E+00
    -26.802  0.0000E+00  0.0000E+00  0.0000E+00  0.0000E+00  0.0000E+00  0.0000E+00  0.0000E+00  0.0000E+00  0.0000E+00  0.0000E+00  0.0000E+00  0.0000E+00  0.0000E+00  0.0000E+00  0.0000E+00  0.0000E+00  0.0000E+00  0.0000E+00
    -26.658  0.0000E+00  0.0000E+00  0.0000E+00  0.0000E+00  0.0000E+00  0.0000E+00  0.0000E+00  0.0000E+00  0.0000E+00  0.0000E+00  0.0000E+00  0.0000E+00  0.0000E+00  0.0000E+00  0.0000E+00  0.0000E+00  0.0000E+00  0.0000E+00
    -26.513  0.0000E+00  0.0000E+00  0.0000E+00  0.0000E+00  0.0000E+00  0.0000E+00  0.0000E+00  0.0000E+00  0.0000E+00  0.0000E+00  0.0000E+00  0.0000E+00  0.0000E+00  0.0000E+00  0.0000E+00  0.0000E+00  0.0000E+00  0.0000E+00
    -26.369  0.0000E+00  0.0000E+00  0.0000E+00  0.0000E+00  0.0000E+00  0.0000E+00  0.0000E+00  0.0000E+00  0.0000E+00  0.0000E+00  0.0000E+00  0.0000E+00  0.0000E+00  0.0000E+00  0.0000E+00  0.0000E+00  0.0000E+00  0.0000E+00
    -26.225  0.0000E+00  0.0000E+00  0.0000E+00  0.0000E+00  0.0000E+00  0.0000E+00  0.0000E+00  0.0000E+00  0.0000E+00  0.0000E+00  0.0000E+00  0.0000E+00  0.0000E+00  0.0000E+00  0.0000E+00  0.0000E+00  0.0000E+00  0.0000E+00