   8   8   1   0
  0.2583351E+02  0.4776275E-09  0.4776275E-09  0.9059303E-09  0.5000000E-15
  1.000000000000000E-004
  CAR 
 unknown system                          
     10.36225267    -32.90745937  301      4.15518364      1.00000000
    -32.907  0.0000E+00  0.0000E+00  0.0000E+00  0.0000E+00
    -32.763  0.0000E+00  0.0000E+00  0.0000E+00  0.0000E+00
    -32.619  0.0000E+00  0.0000E+00  0.0000E+00  0.0000E+00
    -32.475  0.0000E+00  0.0000E+00  0.0000E+00  0.0000E+00
    -32.331  0.0000E+00  0.0000E+00  0.0000E+00  0.0000E+00
    -32.186  0.0000E+00  0.0000E+00  0.0000E+00  0.0000E+00
    -32.042  0.0000E+00  0.0000E+00  0.0000E+00  0.0000E+00
    -31.898  0.0000E+00  0.0000E+00  0.0000E+00  0.0000E+00
    -31.754  0.0000E+00  0.0000E+00  0.0000E+00  0.0000E+00
    -31.609  0.0000E+00  0.0000E+00  0.0000E+00  0.0000E+00
    -31.465  0.3739E-03  0.3720E-03  0.5393E-04  0.5365E-04
    -31.321  0.6315E-02  0.6283E-02  0.9647E-03  0.9598E-03
    -31.177  0.1121E+00  0.1115E+00  0.1713E-01  0.1704E-01
    -31.032  0.1738E+01  0.1730E+01  0.2678E+00  0.2666E+00
    -30.888  0.8328E+01  0.8323E+01  0.1469E+01  0.1467E+01
    -30.744  0.3407E+01  0.3420E+01  0.1960E+01  0.1960E+01
    -30.600  0.2589E+00  0.2602E+00  0.1998E+01  0.1998E+01
    -30.456  0.0000E+00  0.0000E+00  0.2000E+01  0.2000E+01
    -30.311  0.0000E+00  0.0000E+00  0.2000E+01  0.2000E+01
    -30.167  0.0000E+00  0.0000E+00  0.2000E+01  0.2000E+01
    -30.023  0.0000E+00  0.0000E+00  0.2000E+01  0.2000E+01
    -29.879  0.0000E+00  0.0000E+00  0.2000E+01  0.2000E+01
    -29.734  0.0000E+00  0.0000E+00  0.2000E+01  0.2000E+01
    -29.590  0.0000E+00  0.0000E+00  0.2000E+01  0.2000E+01
    -29.446  0.0000E+00  0.0000E+00  0.2000E+01  0.2000E+01
    -29.302  0.0000E+00  0.0000E+00  0.2000E+01  0.2000E+01
    -29.157  0.0000E+00  0.0000E+00  0.2000E+01  0.2000E+01
    -29.013  0.0000E+00  0.0000E+00  0.2000E+01  0.2000E+01
    -28.869  0.0000E+00  0.0000E+00  0.2000E+01  0.2000E+01
    -28.725  0.0000E+00  0.0000E+00  0.2000E+01  0.2000E+01
    -28.580  0.0000E+00  0.0000E+00  0.2000E+01  0.2000E+01
    -28.436  0.0000E+00  0.0000E+00  0.2000E+01  0.2000E+01
    -28.292  0.0000E+00  0.0000E+00  0.2000E+01  0.2000E+01
    -28.148  0.0000E+00  0.0000E+00  0.2000E+01  0.2000E+01
    -28.004  0.0000E+00  0.0000E+00  0.2000E+01  0.2000E+01
    -27.859  0.0000E+00  0.0000E+00  0.2000E+01  0.2000E+01
    -27.715  0.0000E+00  0.0000E+00  0.2000E+01  0.2000E+01
    -27.571  0.0000E+00  0.0000E+00  0.2000E+01  0.2000E+01
    -27.427  0.0000E+00  0.0000E+00  0.2000E+01  0.2000E+01
    -27.282  0.0000E+00  0.0000E+00  0.2000E+01  0.2000E+01
    -27.138  0.0000E+00  0.0000E+00  0.2000E+01  0.2000E+01
    -26.994  0.0000E+00  0.0000E+00  0.2000E+01  0.2000E+01
    -26.850  0.0000E+00  0.0000E+00  0.2000E+01  0.2000E+01
    -26.705  0.0000E+00  0.0000E+00  0.2000E+01  0.2000E+01
    -26.561  0.0000E+00  0.0000E+00  0.2000E+01  0.2000E+01
    -26.417  0.0000E+00  0.0000E+00  0.2000E+01  0.2000E+01
    -26.273  0.0000E+00  0.0000E+00  0.2000E+01  0.2000E+01
    -26.129  0.0000E+00  0.0000E+00  0.2000E+01  0.2000E+01
    -25.984  0.0000E+00  0.0000E+00  0.2000E+01  0.2000E+01
    -25.840  0.0000E+00  0.0000E+00  0.2000E+01  0.2000E+01
    -25.696  0.0000E+00  0.0000E+00  0.2000E+01  0.2000E+01
    -25.552  0.0000E+00  0.0000E+00  0.2000E+01  0.2000E+01
    -25.407  0.0000E+00  0.0000E+00  0.2000E+01  0.2000E+01
    -25.263  0.0000E+00  0.0000E+00  0.2000E+01  0.2000E+01
    -25.119  0.0000E+00  0.0000E+00  0.2000E+01  0.2000E+01
    -24.975  0.0000E+00  0.0000E+00  0.2000E+01  0.2000E+01
    -24.830  0.0000E+00  0.0000E+00  0.2000E+01  0.2000E+01
    -24.686  0.0000E+00  0.0000E+00  0.2000E+01  0.2000E+01
    -24.542  0.0000E+00  0.0000E+00  0.2000E+01  0.2000E+01
    -24.398  0.0000E+00  0.0000E+00  0.2000E+01  0.2000E+01
    -24.254  0.0000E+00  0.0000E+00  0.2000E+01  0.2000E+01
    -24.109  0.0000E+00  0.0000E+00  0.2000E+01  0.2000E+01
    -23.965  0.0000E+00  0.0000E+00  0.2000E+01  0.2000E+01
    -23.821  0.0000E+00  0.0000E+00  0.2000E+01  0.2000E+01
    -23.677  0.0000E+00  0.0000E+00  0.2000E+01  0.2000E+01
    -23.532  0.0000E+00  0.0000E+00  0.2000E+01  0.2000E+01
    -23.388  0.0000E+00  0.0000E+00  0.2000E+01  0.2000E+01
    -23.244  0.0000E+00  0.0000E+00  0.2000E+01  0.2000E+01
    -23.100  0.0000E+00  0.0000E+00  0.2000E+01  0.2000E+01
    -22.955  0.0000E+00  0.0000E+00  0.2000E+01  0.2000E+01
    -22.811  0.0000E+00  0.0000E+00  0.2000E+01  0.2000E+01
    -22.667  0.0000E+00  0.0000E+00  0.2000E+01  0.2000E+01
    -22.523  0.0000E+00  0.0000E+00  0.2000E+01  0.2000E+01
    -22.378  0.0000E+00  0.0000E+00  0.2000E+01  0.2000E+01
    -22.234  0.0000E+00  0.0000E+00  0.2000E+01  0.2000E+01
    -22.090  0.0000E+00  0.0000E+00  0.2000E+01  0.2000E+01
    -21.946  0.0000E+00  0.0000E+00  0.2000E+01  0.2000E+01
    -21.802  0.0000E+00  0.0000E+00  0.2000E+01  0.2000E+01
    -21.657  0.0000E+00  0.0000E+00  0.2000E+01  0.2000E+01
    -21.513  0.0000E+00  0.0000E+00  0.2000E+01  0.2000E+01
    -21.369  0.0000E+00  0.0000E+00  0.2000E+01  0.2000E+01
    -21.225  0.0000E+00  0.0000E+00  0.2000E+01  0.2000E+01
    -21.080  0.0000E+00  0.0000E+00  0.2000E+01  0.2000E+01
    -20.936  0.0000E+00  0.0000E+00  0.2000E+01  0.2000E+01
    -20.792  0.0000E+00  0.0000E+00  0.2000E+01  0.2000E+01
    -20.648  0.0000E+00  0.0000E+00  0.2000E+01  0.2000E+01
    -20.503  0.0000E+00  0.0000E+00  0.2000E+01  0.2000E+01
    -20.359  0.0000E+00  0.0000E+00  0.2000E+01  0.2000E+01
    -20.215  0.0000E+00  0.0000E+00  0.2000E+01  0.2000E+01
    -20.071  0.0000E+00  0.0000E+00  0.2000E+01  0.2000E+01
    -19.927  0.0000E+00  0.0000E+00  0.2000E+01  0.2000E+01
    -19.782  0.0000E+00  0.0000E+00  0.2000E+01  0.2000E+01
    -19.638  0.0000E+00  0.0000E+00  0.2000E+01  0.2000E+01
    -19.494  0.0000E+00  0.0000E+00  0.2000E+01  0.2000E+01
    -19.350  0.0000E+00  0.0000E+00  0.2000E+01  0.2000E+01
    -19.205  0.0000E+00  0.0000E+00  0.2000E+01  0.2000E+01
    -19.061  0.0000E+00  0.0000E+00  0.2000E+01  0.2000E+01
    -18.917  0.0000E+00  0.0000E+00  0.2000E+01  0.2000E+01
    -18.773  0.0000E+00  0.0000E+00  0.2000E+01  0.2000E+01
    -18.628  0.0000E+00  0.0000E+00  0.2000E+01  0.2000E+01
    -18.484  0.0000E+00  0.0000E+00  0.2000E+01  0.2000E+01
    -18.340  0.0000E+00  0.0000E+00  0.2000E+01  0.2000E+01
    -18.196  0.0000E+00  0.0000E+00  0.2000E+01  0.2000E+01
    -18.052  0.0000E+00  0.0000E+00  0.2000E+01  0.2000E+01
    -17.907  0.0000E+00  0.0000E+00  0.2000E+01  0.2000E+01
    -17.763  0.0000E+00  0.0000E+00  0.2000E+01  0.2000E+01
    -17.619  0.0000E+00  0.0000E+00  0.2000E+01  0.2000E+01
    -17.475  0.0000E+00  0.0000E+00  0.2000E+01  0.2000E+01
    -17.330  0.0000E+00  0.0000E+00  0.2000E+01  0.2000E+01
    -17.186  0.0000E+00  0.0000E+00  0.2000E+01  0.2000E+01
    -17.042  0.0000E+00  0.0000E+00  0.2000E+01  0.2000E+01
    -16.898  0.0000E+00  0.0000E+00  0.2000E+01  0.2000E+01
    -16.753  0.0000E+00  0.0000E+00  0.2000E+01  0.2000E+01
    -16.609  0.0000E+00  0.0000E+00  0.2000E+01  0.2000E+01
    -16.465  0.0000E+00  0.0000E+00  0.2000E+01  0.2000E+01
    -16.321  0.0000E+00  0.0000E+00  0.2000E+01  0.2000E+01
    -16.177  0.0000E+00  0.0000E+00  0.2000E+01  0.2000E+01
    -16.032  0.0000E+00  0.0000E+00  0.2000E+01  0.2000E+01
    -15.888  0.0000E+00  0.0000E+00  0.2000E+01  0.2000E+01
    -15.744  0.0000E+00  0.0000E+00  0.2000E+01  0.2000E+01
    -15.600  0.0000E+00  0.0000E+00  0.2000E+01  0.2000E+01
    -15.455  0.0000E+00  0.0000E+00  0.2000E+01  0.2000E+01
    -15.311  0.0000E+00  0.0000E+00  0.2000E+01  0.2000E+01
    -15.167  0.0000E+00  0.0000E+00  0.2000E+01  0.2000E+01
    -15.023  0.0000E+00  0.0000E+00  0.2000E+01  0.2000E+01
    -14.878  0.0000E+00  0.0000E+00  0.2000E+01  0.2000E+01
    -14.734  0.0000E+00  0.0000E+00  0.2000E+01  0.2000E+01
    -14.590  0.0000E+00  0.0000E+00  0.2000E+01  0.2000E+01
    -14.446  0.0000E+00  0.0000E+00  0.2000E+01  0.2000E+01
    -14.301  0.0000E+00  0.0000E+00  0.2000E+01  0.2000E+01
    -14.157  0.0000E+00  0.0000E+00  0.2000E+01  0.2000E+01
    -14.013  0.0000E+00  0.0000E+00  0.2000E+01  0.2000E+01
    -13.869  0.0000E+00  0.0000E+00  0.2000E+01  0.2000E+01
    -13.725  0.0000E+00  0.0000E+00  0.2000E+01  0.2000E+01
    -13.580  0.1511E-02  0.1471E-02  0.2000E+01  0.2000E+01
    -13.436  0.2863E-01  0.2802E-01  0.2004E+01  0.2004E+01
    -13.292  0.4996E+00  0.4890E+00  0.2076E+01  0.2075E+01
    -13.148  0.6756E+01  0.6647E+01  0.3051E+01  0.3034E+01
    -13.003  0.2346E+02  0.2342E+02  0.6434E+01  0.6412E+01
    -12.859  0.9960E+01  0.1010E+02  0.7871E+01  0.7868E+01
    -12.715  0.8334E+00  0.8518E+00  0.7993E+01  0.7992E+01
    -12.571  0.0000E+00  0.0000E+00  0.8000E+01  0.8000E+01
    -12.426  0.0000E+00  0.0000E+00  0.8000E+01  0.8000E+01
    -12.282  0.0000E+00  0.0000E+00  0.8000E+01  0.8000E+01
    -12.138  0.0000E+00  0.0000E+00  0.8000E+01  0.8000E+01
    -11.994  0.0000E+00  0.0000E+00  0.8000E+01  0.8000E+01
    -11.850  0.0000E+00  0.0000E+00  0.8000E+01  0.8000E+01
    -11.705  0.0000E+00  0.0000E+00  0.8000E+01  0.8000E+01
    -11.561  0.0000E+00  0.0000E+00  0.8000E+01  0.8000E+01
    -11.417  0.0000E+00  0.0000E+00  0.8000E+01  0.8000E+01
    -11.273  0.0000E+00  0.0000E+00  0.8000E+01  0.8000E+01
    -11.128  0.0000E+00  0.0000E+00  0.8000E+01  0.8000E+01
    -10.984  0.0000E+00  0.0000E+00  0.8000E+01  0.8000E+01
    -10.840  0.0000E+00  0.0000E+00  0.8000E+01  0.8000E+01
    -10.696  0.0000E+00  0.0000E+00  0.8000E+01  0.8000E+01
    -10.551  0.0000E+00  0.0000E+00  0.8000E+01  0.8000E+01
    -10.407  0.0000E+00  0.0000E+00  0.8000E+01  0.8000E+01
    -10.263  0.0000E+00  0.0000E+00  0.8000E+01  0.8000E+01
    -10.119  0.0000E+00  0.0000E+00  0.8000E+01  0.8000E+01
     -9.975  0.0000E+00  0.0000E+00  0.8000E+01  0.8000E+01
     -9.830  0.0000E+00  0.0000E+00  0.8000E+01  0.8000E+01
     -9.686  0.0000E+00  0.0000E+00  0.8000E+01  0.8000E+01
     -9.542  0.0000E+00  0.0000E+00  0.8000E+01  0.8000E+01
     -9.398  0.0000E+00  0.0000E+00  0.8000E+01  0.8000E+01
     -9.253  0.0000E+00  0.0000E+00  0.8000E+01  0.8000E+01
     -9.109  0.0000E+00  0.0000E+00  0.8000E+01  0.8000E+01
     -8.965  0.0000E+00  0.0000E+00  0.8000E+01  0.8000E+01
     -8.821  0.0000E+00  0.0000E+00  0.8000E+01  0.8000E+01
     -8.676  0.0000E+00  0.0000E+00  0.8000E+01  0.8000E+01
     -8.532  0.0000E+00  0.0000E+00  0.8000E+01  0.8000E+01
     -8.388  0.0000E+00  0.0000E+00  0.8000E+01  0.8000E+01
     -8.244  0.0000E+00  0.0000E+00  0.8000E+01  0.8000E+01
     -8.099  0.0000E+00  0.0000E+00  0.8000E+01  0.8000E+01
     -7.955  0.0000E+00  0.0000E+00  0.8000E+01  0.8000E+01
     -7.811  0.0000E+00  0.0000E+00  0.8000E+01  0.8000E+01
     -7.667  0.0000E+00  0.0000E+00  0.8000E+01  0.8000E+01
     -7.523  0.0000E+00  0.0000E+00  0.8000E+01  0.8000E+01
     -7.378  0.0000E+00  0.0000E+00  0.8000E+01  0.8000E+01
     -7.234  0.0000E+00  0.0000E+00  0.8000E+01  0.8000E+01
     -7.090  0.0000E+00  0.0000E+00  0.8000E+01  0.8000E+01
     -6.946  0.0000E+00  0.0000E+00  0.8000E+01  0.8000E+01
     -6.801  0.0000E+00  0.0000E+00  0.8000E+01  0.8000E+01
     -6.657  0.0000E+00  0.0000E+00  0.8000E+01  0.8000E+01
     -6.513  0.0000E+00  0.0000E+00  0.8000E+01  0.8000E+01
     -6.369  0.0000E+00  0.0000E+00  0.8000E+01  0.8000E+01
     -6.224  0.0000E+00  0.0000E+00  0.8000E+01  0.8000E+01
     -6.080  0.0000E+00  0.0000E+00  0.8000E+01  0.8000E+01
     -5.936  0.0000E+00  0.0000E+00  0.8000E+01  0.8000E+01
     -5.792  0.0000E+00  0.0000E+00  0.8000E+01  0.8000E+01
     -5.648  0.0000E+00  0.0000E+00  0.8000E+01  0.8000E+01
     -5.503  0.0000E+00  0.0000E+00  0.8000E+01  0.8000E+01
     -5.359  0.0000E+00  0.0000E+00  0.8000E+01  0.8000E+01
     -5.215  0.0000E+00  0.0000E+00  0.8000E+01  0.8000E+01
     -5.071  0.0000E+00  0.0000E+00  0.8000E+01  0.8000E+01
     -4.926  0.0000E+00  0.0000E+00  0.8000E+01  0.8000E+01
     -4.782  0.0000E+00  0.0000E+00  0.8000E+01  0.8000E+01
     -4.638  0.0000E+00  0.0000E+00  0.8000E+01  0.8000E+01
     -4.494  0.0000E+00  0.0000E+00  0.8000E+01  0.8000E+01
     -4.349  0.0000E+00  0.0000E+00  0.8000E+01  0.8000E+01
     -4.205  0.0000E+00  0.0000E+00  0.8000E+01  0.8000E+01
     -4.061  0.5995E-05  0.5683E-05  0.8000E+01  0.8000E+01
     -3.917  0.1266E-03  0.1200E-03  0.8000E+01  0.8000E+01
     -3.773  0.2207E-02  0.2094E-02  0.8000E+01  0.8000E+01
     -3.628  0.3038E-01  0.2913E-01  0.8005E+01  0.8005E+01
     -3.484  0.1494E+00  0.1467E+00  0.8026E+01  0.8026E+01
     -3.340  0.2851E+00  0.2833E+00  0.8067E+01  0.8067E+01
     -3.196  0.3849E+00  0.3827E+00  0.8123E+01  0.8122E+01
     -3.051  0.4631E+00  0.4622E+00  0.8190E+01  0.8188E+01
     -2.907  0.5327E+00  0.5303E+00  0.8267E+01  0.8265E+01
     -2.763  0.6332E+00  0.6333E+00  0.8358E+01  0.8357E+01
     -2.619  0.6373E+00  0.6348E+00  0.8450E+01  0.8448E+01
     -2.474  0.8043E+00  0.8033E+00  0.8566E+01  0.8564E+01
     -2.330  0.7886E+00  0.7878E+00  0.8680E+01  0.8678E+01
     -2.186  0.9014E+00  0.9000E+00  0.8811E+01  0.8808E+01
     -2.042  0.1022E+01  0.1018E+01  0.8958E+01  0.8955E+01
     -1.897  0.1111E+01  0.1113E+01  0.9119E+01  0.9116E+01
     -1.753  0.1109E+01  0.1105E+01  0.9279E+01  0.9276E+01
     -1.609  0.1286E+01  0.1286E+01  0.9465E+01  0.9462E+01
     -1.465  0.1131E+01  0.1135E+01  0.9628E+01  0.9626E+01
     -1.321  0.1072E+01  0.1070E+01  0.9783E+01  0.9780E+01
     -1.176  0.1264E+01  0.1262E+01  0.9966E+01  0.9963E+01
     -1.032  0.1465E+01  0.1460E+01  0.1018E+02  0.1017E+02
     -0.888  0.1594E+01  0.1595E+01  0.1041E+02  0.1040E+02
     -0.744  0.1392E+01  0.1397E+01  0.1061E+02  0.1061E+02
     -0.599  0.1280E+01  0.1278E+01  0.1079E+02  0.1079E+02
     -0.455  0.1410E+01  0.1408E+01  0.1100E+02  0.1099E+02
     -0.311  0.1405E+01  0.1407E+01  0.1120E+02  0.1120E+02
     -0.167  0.1426E+01  0.1424E+01  0.1141E+02  0.1140E+02
     -0.022  0.1616E+01  0.1610E+01  0.1164E+02  0.1164E+02
      0.122  0.1837E+01  0.1842E+01  0.1191E+02  0.1190E+02
      0.266  0.1369E+01  0.1372E+01  0.1210E+02  0.1210E+02
      0.410  0.1673E+01  0.1668E+01  0.1235E+02  0.1234E+02
      0.554  0.1498E+01  0.1506E+01  0.1256E+02  0.1256E+02
      0.699  0.1278E+01  0.1278E+01  0.1275E+02  0.1274E+02
      0.843  0.1330E+01  0.1327E+01  0.1294E+02  0.1294E+02
      0.987  0.1269E+01  0.1276E+01  0.1312E+02  0.1312E+02
      1.131  0.1006E+01  0.1007E+01  0.1327E+02  0.1327E+02
      1.276  0.1077E+01  0.1072E+01  0.1342E+02  0.1342E+02
      1.420  0.1156E+01  0.1160E+01  0.1359E+02  0.1359E+02
      1.564  0.9142E+00  0.9127E+00  0.1372E+02  0.1372E+02
      1.708  0.1211E+01  0.1207E+01  0.1390E+02  0.1390E+02
      1.853  0.1265E+01  0.1266E+01  0.1408E+02  0.1408E+02
      1.997  0.1215E+01  0.1210E+01  0.1426E+02  0.1425E+02
      2.141  0.1602E+01  0.1598E+01  0.1449E+02  0.1448E+02
      2.285  0.1806E+01  0.1798E+01  0.1475E+02  0.1474E+02
      2.429  0.2210E+01  0.2207E+01  0.1507E+02  0.1506E+02
      2.574  0.2102E+01  0.2107E+01  0.1537E+02  0.1537E+02
      2.718  0.2019E+01  0.2019E+01  0.1566E+02  0.1566E+02
      2.862  0.1999E+01  0.1997E+01  0.1595E+02  0.1595E+02
      3.006  0.2233E+01  0.2226E+01  0.1628E+02  0.1627E+02
      3.151  0.2650E+01  0.2643E+01  0.1666E+02  0.1665E+02
      3.295  0.2864E+01  0.2866E+01  0.1707E+02  0.1706E+02
      3.439  0.2549E+01  0.2552E+01  0.1744E+02  0.1743E+02
      3.583  0.2429E+01  0.2434E+01  0.1779E+02  0.1779E+02
      3.728  0.2117E+01  0.2120E+01  0.1810E+02  0.1809E+02
      3.872  0.2170E+01  0.2171E+01  0.1841E+02  0.1841E+02
      4.016  0.2122E+01  0.2122E+01  0.1872E+02  0.1871E+02
      4.160  0.2042E+01  0.2044E+01  0.1901E+02  0.1901E+02
      4.304  0.2199E+01  0.2192E+01  0.1933E+02  0.1932E+02
      4.449  0.2458E+01  0.2455E+01  0.1969E+02  0.1968E+02
      4.593  0.2764E+01  0.2758E+01  0.2009E+02  0.2008E+02
      4.737  0.2707E+01  0.2715E+01  0.2048E+02  0.2047E+02
      4.881  0.2250E+01  0.2256E+01  0.2080E+02  0.2080E+02
      5.026  0.2217E+01  0.2210E+01  0.2112E+02  0.2111E+02
      5.170  0.2512E+01  0.2513E+01  0.2148E+02  0.2148E+02
      5.314  0.2142E+01  0.2148E+01  0.2179E+02  0.2179E+02
      5.458  0.1908E+01  0.1913E+01  0.2207E+02  0.2207E+02
      5.603  0.1955E+01  0.1947E+01  0.2235E+02  0.2235E+02
      5.747  0.2274E+01  0.2271E+01  0.2268E+02  0.2267E+02
      5.891  0.2358E+01  0.2361E+01  0.2302E+02  0.2302E+02
      6.035  0.2181E+01  0.2185E+01  0.2334E+02  0.2333E+02
      6.180  0.2084E+01  0.2085E+01  0.2364E+02  0.2363E+02
      6.324  0.2098E+01  0.2097E+01  0.2394E+02  0.2394E+02
      6.468  0.2248E+01  0.2241E+01  0.2427E+02  0.2426E+02
      6.612  0.3005E+01  0.2980E+01  0.2470E+02  0.2469E+02
      6.756  0.3850E+01  0.3836E+01  0.2526E+02  0.2524E+02
      6.901  0.3708E+01  0.3711E+01  0.2579E+02  0.2578E+02
      7.045  0.3281E+01  0.3248E+01  0.2627E+02  0.2625E+02
      7.189  0.2824E+01  0.2819E+01  0.2667E+02  0.2666E+02
      7.333  0.2670E+01  0.2702E+01  0.2706E+02  0.2705E+02
      7.478  0.2096E+01  0.2119E+01  0.2736E+02  0.2735E+02
      7.622  0.1341E+01  0.1369E+01  0.2756E+02  0.2755E+02
      7.766  0.9118E+00  0.9208E+00  0.2769E+02  0.2769E+02
      7.910  0.5869E+00  0.5789E+00  0.2778E+02  0.2777E+02
      8.055  0.5487E+00  0.5607E+00  0.2786E+02  0.2785E+02
      8.199  0.5040E+00  0.4991E+00  0.2793E+02  0.2792E+02
      8.343  0.3557E+00  0.3881E+00  0.2798E+02  0.2798E+02
      8.487  0.1251E+00  0.1263E+00  0.2800E+02  0.2800E+02
      8.631  0.1312E-01  0.1303E-01  0.2800E+02  0.2800E+02
      8.776  0.3908E-03  0.3708E-03  0.2800E+02  0.2800E+02
      8.920  0.0000E+00  0.0000E+00  0.2800E+02  0.2800E+02
      9.064  0.0000E+00  0.0000E+00  0.2800E+02  0.2800E+02
      9.208  0.0000E+00  0.0000E+00  0.2800E+02  0.2800E+02
      9.353  0.0000E+00  0.0000E+00  0.2800E+02  0.2800E+02
      9.497  0.0000E+00  0.0000E+00  0.2800E+02  0.2800E+02
      9.641  0.0000E+00  0.0000E+00  0.2800E+02  0.2800E+02
      9.785  0.0000E+00  0.0000E+00  0.2800E+02  0.2800E+02
      9.930  0.0000E+00  0.0000E+00  0.2800E+02  0.2800E+02
     10.074  0.0000E+00  0.0000E+00  0.2800E+02  0.2800E+02
     10.218  0.0000E+00  0.0000E+00  0.2800E+02  0.2800E+02
     10.362  0.0000E+00  0.0000E+00  0.2800E+02  0.2800E+02
     10.36225267    -32.90745937  301      4.15518364      1.00000000
    -32.907  0.0000E+00  0.0000E+00  0.0000E+00  0.0000E+00  0.0000E+00  0.0000E+00  0.0000E+00  0.0000E+00  0.0000E+00  0.0000E+00  0.0000E+00  0.0000E+00  0.0000E+00  0.0000E+00  0.0000E+00  0.0000E+00  0.0000E+00  0.0000E+00
    -32.763  0.0000E+00  0.0000E+00  0.0000E+00  0.0000E+00  0.0000E+00  0.0000E+00  0.0000E+00  0.0000E+00  0.0000E+00  0.0000E+00  0.0000E+00  0.0000E+00  0.0000E+00  0.0000E+00  0.0000E+00  0.0000E+00  0.0000E+00  0.0000E+00
    -32.619  0.0000E+00  0.0000E+00  0.0000E+00  0.0000E+00  0.0000E+00  0.0000E+00  0.0000E+00  0.0000E+00  0.0000E+00  0.0000E+00  0.0000E+00  0.0000E+00  0.0000E+00  0.0000E+00  0.0000E+00  0.0000E+00  0.0000E+00  0.0000E+00
    -32.475  0.0000E+00  0.0000E+00  0.0000E+00  0.0000E+00  0.0000E+00  0.0000E+00  0.0000E+00  0.0000E+00  0.0000E+00  0.0000E+00  0.0000E+00  0.0000E+00  0.0000E+00  0.0000E+00  0.0000E+00  0.0000E+00  0.0000E+00  0.0000E+00
    -32.331  0.0000E+00  0.0000E+00  0.0000E+00  0.0000E+00  0.0000E+00  0.0000E+00  0.0000E+00  0.0000E+00  0.0000E+00  0.0000E+00  0.0000E+00  0.0000E+00  0.0000E+00  0.0000E+00  0.0000E+00  0.0000E+00  0.0000E+00  0.0000E+00
    -32.186  0.0000E+00  0.0000E+00  0.0000E+00  0.0000E+00  0.0000E+00  0.0000E+00  0.0000E+00  0.0000E+00  0.0000E+00  0.0000E+00  0.0000E+00  0.0000E+00  0.0000E+00  0.0000E+00  0.0000E+00  0.0000E+00  0.0000E+00  0.0000E+00
    -32.042  0.0000E+00  0.0000E+00  0.0000E+00  0.0000E+00  0.0000E+00  0.0000E+00  0.0000E+00  0.0000E+00  0.0000E+00  0.0000E+00  0.0000E+00  0.0000E+00  0.0000E+00  0.0000E+00  0.0000E+00  0.0000E+00  0.0000E+00  0.0000E+00
    -31.898  0.0000E+00  0.0000E+00  0.0000E+00  0.0000E+00  0.0000E+00  0.0000E+00  0.0000E+00  0.0000E+00  0.0000E+00  0.0000E+00  0.0000E+00  0.0000E+00  0.0000E+00  0.0000E+00  0.0000E+00  0.0000E+00  0.0000E+00  0.0000E+00
    -31.754  0.0000E+00  0.0000E+00  0.0000E+00  0.0000E+00  0.0000E+00  0.0000E+00  0.0000E+00  0.0000E+00  0.0000E+00  0.0000E+00  0.0000E+00  0.0000E+00  0.0000E+00  0.0000E+00  0.0000E+00  0.0000E+00  0.0000E+00  0.0000E+00
    -31.609  0.0000E+00  0.0000E+00  0.0000E+00  0.0000E+00  0.0000E+00  0.0000E+00  0.0000E+00  0.0000E+00  0.0000E+00  0.0000E+00  0.0000E+00  0.0000E+00  0.0000E+00  0.0000E+00  0.0000E+00  0.0000E+00  0.0000E+00  0.0000E+00
    -31.465  0.1828E-03  0.1819E-03  0.4778E-12  0.4753E-12  0.1002E-13  0.1728E-13  0.4778E-12  0.4753E-12  0.4869E-15  0.7265E-15  0.2358E-14  0.1029E-14  0.1837E-09  0.1823E-09  0.2358E-14  0.1029E-14  0.2761E-12  0.2648E-12
    -31.321  0.3088E-02  0.3072E-02  0.8070E-11  0.8028E-11  0.1692E-12  0.2919E-12  0.8070E-11  0.8028E-11  0.8223E-14  0.1227E-13  0.3982E-13  0.1739E-13  0.3102E-08  0.3080E-08  0.3982E-13  0.1739E-13  0.4663E-11  0.4473E-11
    -31.177  0.5479E-01  0.5451E-01  0.1432E-09  0.1425E-09  0.3002E-11  0.5178E-11  0.1432E-09  0.1425E-09  0.1459E-12  0.2177E-12  0.7065E-12  0.3086E-12  0.5505E-07  0.5465E-07  0.7065E-12  0.3086E-12  0.8274E-10  0.7937E-10
    -31.032  0.8497E+00  0.8459E+00  0.2221E-08  0.2211E-08  0.4647E-10  0.8021E-10  0.2221E-08  0.2211E-08  0.2266E-11  0.3380E-11  0.1096E-10  0.4791E-11  0.8537E-06  0.8481E-06  0.1096E-10  0.4791E-11  0.1283E-08  0.1232E-08
    -30.888  0.4072E+01  0.4069E+01  0.1064E-07  0.1063E-07  0.2206E-09  0.3818E-09  0.1064E-07  0.1063E-07  0.1092E-10  0.1628E-10  0.5256E-10  0.2313E-10  0.4093E-05  0.4081E-05  0.5256E-10  0.2313E-10  0.6150E-08  0.5925E-08
    -30.744  0.1666E+01  0.1672E+01  0.4351E-08  0.4366E-08  0.8923E-10  0.1550E-09  0.4351E-08  0.4366E-08  0.4499E-11  0.6696E-11  0.2152E-10  0.9540E-11  0.1675E-05  0.1678E-05  0.2152E-10  0.9540E-11  0.2516E-08  0.2434E-08
    -30.600  0.1266E+00  0.1272E+00  0.3306E-09  0.3322E-09  0.6757E-11  0.1175E-10  0.3306E-09  0.3322E-09  0.3426E-12  0.5098E-12  0.1636E-11  0.7269E-12  0.1273E-06  0.1277E-06  0.1636E-11  0.7269E-12  0.1912E-09  0.1852E-09
    -30.456  0.0000E+00  0.0000E+00  0.0000E+00  0.0000E+00  0.0000E+00  0.0000E+00  0.0000E+00  0.0000E+00  0.0000E+00  0.0000E+00  0.0000E+00  0.0000E+00  0.0000E+00  0.0000E+00  0.0000E+00  0.0000E+00  0.0000E+00  0.0000E+00
    -30.311  0.0000E+00  0.0000E+00  0.0000E+00  0.0000E+00  0.0000E+00  0.0000E+00  0.0000E+00  0.0000E+00  0.0000E+00  0.0000E+00  0.0000E+00  0.0000E+00  0.0000E+00  0.0000E+00  0.0000E+00  0.0000E+00  0.0000E+00  0.0000E+00
    -30.167  0.0000E+00  0.0000E+00  0.0000E+00  0.0000E+00  0.0000E+00  0.0000E+00  0.0000E+00  0.0000E+00  0.0000E+00  0.0000E+00  0.0000E+00  0.0000E+00  0.0000E+00  0.0000E+00  0.0000E+00  0.0000E+00  0.0000E+00  0.0000E+00
    -30.023  0.0000E+00  0.0000E+00  0.0000E+00  0.0000E+00  0.0000E+00  0.0000E+00  0.0000E+00  0.0000E+00  0.0000E+00  0.0000E+00  0.0000E+00  0.0000E+00  0.0000E+00  0.0000E+00  0.0000E+00  0.0000E+00  0.0000E+00  0.0000E+00
    -29.879  0.0000E+00  0.0000E+00  0.0000E+00  0.0000E+00  0.0000E+00  0.0000E+00  0.0000E+00  0.0000E+00  0.0000E+00  0.0000E+00  0.0000E+00  0.0000E+00  0.0000E+00  0.0000E+00  0.0000E+00  0.0000E+00  0.0000E+00  0.0000E+00
    -29.734  0.0000E+00  0.0000E+00  0.0000E+00  0.0000E+00  0.0000E+00  0.0000E+00  0.0000E+00  0.0000E+00  0.0000E+00  0.0000E+00  0.0000E+00  0.0000E+00  0.0000E+00  0.0000E+00  0.0000E+00  0.0000E+00  0.0000E+00  0.0000E+00
    -29.590  0.0000E+00  0.0000E+00  0.0000E+00  0.0000E+00  0.0000E+00  0.0000E+00  0.0000E+00  0.0000E+00  0.0000E+00  0.0000E+00  0.0000E+00  0.0000E+00  0.0000E+00  0.0000E+00  0.0000E+00  0.0000E+00  0.0000E+00  0.0000E+00
    -29.446  0.0000E+00  0.0000E+00  0.0000E+00  0.0000E+00  0.0000E+00  0.0000E+00  0.0000E+00  0.0000E+00  0.0000E+00  0.0000E+00  0.0000E+00  0.0000E+00  0.0000E+00  0.0000E+00  0.0000E+00  0.0000E+00  0.0000E+00  0.0000E+00
    -29.302  0.0000E+00  0.0000E+00  0.0000E+00  0.0000E+00  0.0000E+00  0.0000E+00  0.0000E+00  0.0000E+00  0.0000E+00  0.0000E+00  0.0000E+00  0.0000E+00  0.0000E+00  0.0000E+00  0.0000E+00  0.0000E+00  0.0000E+00  0.0000E+00
    -29.157  0.0000E+00  0.0000E+00  0.0000E+00  0.0000E+00  0.0000E+00  0.0000E+00  0.0000E+00  0.0000E+00  0.0000E+00  0.0000E+00  0.0000E+00  0.0000E+00  0.0000E+00  0.0000E+00  0.0000E+00  0.0000E+00  0.0000E+00  0.0000E+00
    -29.013  0.0000E+00  0.0000E+00  0.0000E+00  0.0000E+00  0.0000E+00  0.0000E+00  0.0000E+00  0.0000E+00  0.0000E+00  0.0000E+00  0.0000E+00  0.0000E+00  0.0000E+00  0.0000E+00  0.0000E+00  0.0000E+00  0.0000E+00  0.0000E+00
    -28.869  0.0000E+00  0.0000E+00  0.0000E+00  0.0000E+00  0.0000E+00  0.0000E+00  0.0000E+00  0.0000E+00  0.0000E+00  0.0000E+00  0.0000E+00  0.0000E+00  0.0000E+00  0.0000E+00  0.0000E+00  0.0000E+00  0.0000E+00  0.0000E+00
    -28.725  0.0000E+00  0.0000E+00  0.0000E+00  0.0000E+00  0.0000E+00  0.0000E+00  0.0000E+00  0.0000E+00  0.0000E+00  0.0000E+00  0.0000E+00  0.0000E+00  0.0000E+00  0.0000E+00  0.0000E+00  0.0000E+00  0.0000E+00  0.0000E+00
    -28.580  0.0000E+00  0.0000E+00  0.0000E+00  0.0000E+00  0.0000E+00  0.0000E+00  0.0000E+00  0.0000E+00  0.0000E+00  0.0000E+00  0.0000E+00  0.0000E+00  0.0000E+00  0.0000E+00  0.0000E+00  0.0000E+00  0.0000E+00  0.0000E+00
    -28.436  0.0000E+00  0.0000E+00  0.0000E+00  0.0000E+00  0.0000E+00  0.0000E+00  0.0000E+00  0.0000E+00  0.0000E+00  0.0000E+00  0.0000E+00  0.0000E+00  0.0000E+00  0.0000E+00  0.0000E+00  0.0000E+00  0.0000E+00  0.0000E+00
    -28.292  0.0000E+00  0.0000E+00  0.0000E+00  0.0000E+00  0.0000E+00  0.0000E+00  0.0000E+00  0.0000E+00  0.0000E+00  0.0000E+00  0.0000E+00  0.0000E+00  0.0000E+00  0.0000E+00  0.0000E+00  0.0000E+00  0.0000E+00  0.0000E+00
    -28.148  0.0000E+00  0.0000E+00  0.0000E+00  0.0000E+00  0.0000E+00  0.0000E+00  0.0000E+00  0.0000E+00  0.0000E+00  0.0000E+00  0.0000E+00  0.0000E+00  0.0000E+00  0.0000E+00  0.0000E+00  0.0000E+00  0.0000E+00  0.0000E+00
    -28.004  0.0000E+00  0.0000E+00  0.0000E+00  0.0000E+00  0.0000E+00  0.0000E+00  0.0000E+00  0.0000E+00  0.0000E+00  0.0000E+00  0.0000E+00  0.0000E+00  0.0000E+00  0.0000E+00  0.0000E+00  0.0000E+00  0.0000E+00  0.0000E+00
    -27.859  0.0000E+00  0.0000E+00  0.0000E+00  0.0000E+00  0.0000E+00  0.0000E+00  0.0000E+00  0.0000E+00  0.0000E+00  0.0000E+00  0.0000E+00  0.0000E+00  0.0000E+00  0.0000E+00  0.0000E+00  0.0000E+00  0.0000E+00  0.0000E+00
    -27.715  0.0000E+00  0.0000E+00  0.0000E+00  0.0000E+00  0.0000E+00  0.0000E+00  0.0000E+00  0.0000E+00  0.0000E+00  0.0000E+00  0.0000E+00  0.0000E+00  0.0000E+00  0.0000E+00  0.0000E+00  0.0000E+00  0.0000E+00  0.0000E+00
    -27.571  0.0000E+00  0.0000E+00  0.0000E+00  0.0000E+00  0.0000E+00  0.0000E+00  0.0000E+00  0.0000E+00  0.0000E+00  0.0000E+00  0.0000E+00  0.0000E+00  0.0000E+00  0.0000E+00  0.0000E+00  0.0000E+00  0.0000E+00  0.0000E+00
    -27.427  0.0000E+00  0.0000E+00  0.0000E+00  0.0000E+00  0.0000E+00  0.0000E+00  0.0000E+00  0.0000E+00  0.0000E+00  0.0000E+00  0.0000E+00  0.0000E+00  0.0000E+00  0.0000E+00  0.0000E+00  0.0000E+00  0.0000E+00  0.0000E+00
    -27.282  0.0000E+00  0.0000E+00  0.0000E+00  0.0000E+00  0.0000E+00  0.0000E+00  0.0000E+00  0.0000E+00  0.0000E+00  0.0000E+00  0.0000E+00  0.0000E+00  0.0000E+00  0.0000E+00  0.0000E+00  0.0000E+00  0.0000E+00  0.0000E+00
    -27.138  0.0000E+00  0.0000E+00  0.0000E+00  0.0000E+00  0.0000E+00  0.0000E+00  0.0000E+00  0.0000E+00  0.0000E+00  0.0000E+00  0.0000E+00  0.0000E+00  0.0000E+00  0.0000E+00  0.0000E+00  0.0000E+00  0.0000E+00  0.0000E+00
    -26.994  0.0000E+00  0.0000E+00  0.0000E+00  0.0000E+00  0.0000E+00  0.0000E+00  0.0000E+00  0.0000E+00  0.0000E+00  0.0000E+00  0.0000E+00  0.0000E+00  0.0000E+00  0.0000E+00  0.0000E+00  0.0000E+00  0.0000E+00  0.0000E+00
    -26.850  0.0000E+00  0.0000E+00  0.0000E+00  0.0000E+00  0.0000E+00  0.0000E+00  0.0000E+00  0.0000E+00  0.0000E+00  0.0000E+00  0.0000E+00  0.0000E+00  0.0000E+00  0.0000E+00  0.0000E+00  0.0000E+00  0.0000E+00  0.0000E+00
    -26.705  0.0000E+00  0.0000E+00  0.0000E+00  0.0000E+00  0.0000E+00  0.0000E+00  0.0000E+00  0.0000E+00  0.0000E+00  0.0000E+00  0.0000E+00  0.0000E+00  0.0000E+00  0.0000E+00  0.0000E+00  0.0000E+00  0.0000E+00  0.0000E+00
    -26.561  0.0000E+00  0.0000E+00  0.0000E+00  0.0000E+00  0.0000E+00  0.0000E+00  0.0000E+00  0.0000E+00  0.0000E+00  0.0000E+00  0.0000E+00  0.0000E+00  0.0000E+00  0.0000E+00  0.0000E+00  0.0000E+00  0.0000E+00  0.0000E+00
    -26.417  0.0000E+00  0.0000E+00  0.0000E+00  0.0000E+00  0.0000E+00  0.0000E+00  0.0000E+00  0.0000E+00  0.0000E+00  0.0000E+00  0.0000E+00  0.0000E+00  0.0000E+00  0.0000E+00  0.0000E+00  0.0000E+00  0.0000E+00  0.0000E+00
    -26.273  0.0000E+00  0.0000E+00  0.0000E+00  0.0000E+00  0.0000E+00  0.0000E+00  0.0000E+00  0.0000E+00  0.0000E+00  0.0000E+00  0.0000E+00  0.0000E+00  0.0000E+00  0.0000E+00  0.0000E+00  0.0000E+00  0.0000E+00  0.0000E+00
    -26.129  0.0000E+00  0.0000E+00  0.0000E+00  0.0000E+00  0.0000E+00  0.0000E+00  0.0000E+00  0.0000E+00  0.0000E+00  0.0000E+00  0.0000E+00  0.0000E+00  0.0000E+00  0.0000E+00  0.0000E+00  0.0000E+00  0.0000E+00  0.0000E+00
    -25.984  0.0000E+00  0.0000E+00  0.0000E+00  0.0000E+00  0.0000E+00  0.0000E+00  0.0000E+00  0.0000E+00  0.0000E+00  0.0000E+00  0.0000E+00  0.0000E+00  0.0000E+00  0.0000E+00  0.0000E+00  0.0000E+00  0.0000E+00  0.0000E+00
    -25.840  0.0000E+00  0.0000E+00  0.0000E+00  0.0000E+00  0.0000E+00  0.0000E+00  0.0000E+00  0.0000E+00  0.0000E+00  0.0000E+00  0.0000E+00  0.0000E+00  0.0000E+00  0.0000E+00  0.0000E+00  0.0000E+00  0.0000E+00  0.0000E+00
    -25.696  0.0000E+00  0.0000E+00  0.0000E+00  0.0000E+00  0.0000E+00  0.0000E+00  0.0000E+00  0.0000E+00  0.0000E+00  0.0000E+00  0.0000E+00  0.0000E+00  0.0000E+00  0.0000E+00  0.0000E+00  0.0000E+00  0.0000E+00  0.0000E+00