   8   8   1   0
  0.2228379E+02  0.4546647E-09  0.4546647E-09  0.8623760E-09  0.5000000E-15
  1.000000000000000E-004
  CAR 
 unknown system                          
     11.81759013    -31.48357982  301      5.21657636      1.00000000
    -31.484  0.0000E+00  0.0000E+00  0.0000E+00  0.0000E+00
    -31.339  0.0000E+00  0.0000E+00  0.0000E+00  0.0000E+00
    -31.195  0.0000E+00  0.0000E+00  0.0000E+00  0.0000E+00
    -31.051  0.0000E+00  0.0000E+00  0.0000E+00  0.0000E+00
    -30.906  0.0000E+00  0.0000E+00  0.0000E+00  0.0000E+00
    -30.762  0.0000E+00  0.0000E+00  0.0000E+00  0.0000E+00
    -30.618  0.0000E+00  0.0000E+00  0.0000E+00  0.0000E+00
    -30.473  0.0000E+00  0.0000E+00  0.0000E+00  0.0000E+00
    -30.329  0.0000E+00  0.0000E+00  0.0000E+00  0.0000E+00
    -30.185  0.0000E+00  0.0000E+00  0.0000E+00  0.0000E+00
    -30.040  0.3548E-03  0.3554E-03  0.5121E-04  0.5129E-04
    -29.896  0.6006E-02  0.6015E-02  0.9181E-03  0.9196E-03
    -29.752  0.1068E+00  0.1070E+00  0.1634E-01  0.1636E-01
    -29.607  0.1670E+01  0.1672E+01  0.2574E+00  0.2577E+00
    -29.463  0.8274E+01  0.8276E+01  0.1452E+01  0.1452E+01
    -29.319  0.3513E+01  0.3509E+01  0.1959E+01  0.1959E+01
    -29.174  0.2696E+00  0.2692E+00  0.1998E+01  0.1998E+01
    -29.030  0.0000E+00  0.0000E+00  0.2000E+01  0.2000E+01
    -28.886  0.0000E+00  0.0000E+00  0.2000E+01  0.2000E+01
    -28.741  0.0000E+00  0.0000E+00  0.2000E+01  0.2000E+01
    -28.597  0.0000E+00  0.0000E+00  0.2000E+01  0.2000E+01
    -28.452  0.0000E+00  0.0000E+00  0.2000E+01  0.2000E+01
    -28.308  0.0000E+00  0.0000E+00  0.2000E+01  0.2000E+01
    -28.164  0.0000E+00  0.0000E+00  0.2000E+01  0.2000E+01
    -28.019  0.0000E+00  0.0000E+00  0.2000E+01  0.2000E+01
    -27.875  0.0000E+00  0.0000E+00  0.2000E+01  0.2000E+01
    -27.731  0.0000E+00  0.0000E+00  0.2000E+01  0.2000E+01
    -27.586  0.0000E+00  0.0000E+00  0.2000E+01  0.2000E+01
    -27.442  0.0000E+00  0.0000E+00  0.2000E+01  0.2000E+01
    -27.298  0.0000E+00  0.0000E+00  0.2000E+01  0.2000E+01
    -27.153  0.0000E+00  0.0000E+00  0.2000E+01  0.2000E+01
    -27.009  0.0000E+00  0.0000E+00  0.2000E+01  0.2000E+01
    -26.865  0.0000E+00  0.0000E+00  0.2000E+01  0.2000E+01
    -26.720  0.0000E+00  0.0000E+00  0.2000E+01  0.2000E+01
    -26.576  0.0000E+00  0.0000E+00  0.2000E+01  0.2000E+01
    -26.432  0.0000E+00  0.0000E+00  0.2000E+01  0.2000E+01
    -26.287  0.0000E+00  0.0000E+00  0.2000E+01  0.2000E+01
    -26.143  0.0000E+00  0.0000E+00  0.2000E+01  0.2000E+01
    -25.999  0.0000E+00  0.0000E+00  0.2000E+01  0.2000E+01
    -25.854  0.0000E+00  0.0000E+00  0.2000E+01  0.2000E+01
    -25.710  0.0000E+00  0.0000E+00  0.2000E+01  0.2000E+01
    -25.566  0.0000E+00  0.0000E+00  0.2000E+01  0.2000E+01
    -25.421  0.0000E+00  0.0000E+00  0.2000E+01  0.2000E+01
    -25.277  0.0000E+00  0.0000E+00  0.2000E+01  0.2000E+01
    -25.133  0.0000E+00  0.0000E+00  0.2000E+01  0.2000E+01
    -24.988  0.0000E+00  0.0000E+00  0.2000E+01  0.2000E+01
    -24.844  0.0000E+00  0.0000E+00  0.2000E+01  0.2000E+01
    -24.700  0.0000E+00  0.0000E+00  0.2000E+01  0.2000E+01
    -24.555  0.0000E+00  0.0000E+00  0.2000E+01  0.2000E+01
    -24.411  0.0000E+00  0.0000E+00  0.2000E+01  0.2000E+01
    -24.267  0.0000E+00  0.0000E+00  0.2000E+01  0.2000E+01
    -24.122  0.0000E+00  0.0000E+00  0.2000E+01  0.2000E+01
    -23.978  0.0000E+00  0.0000E+00  0.2000E+01  0.2000E+01
    -23.834  0.0000E+00  0.0000E+00  0.2000E+01  0.2000E+01
    -23.689  0.0000E+00  0.0000E+00  0.2000E+01  0.2000E+01
    -23.545  0.0000E+00  0.0000E+00  0.2000E+01  0.2000E+01
    -23.401  0.0000E+00  0.0000E+00  0.2000E+01  0.2000E+01
    -23.256  0.0000E+00  0.0000E+00  0.2000E+01  0.2000E+01
    -23.112  0.0000E+00  0.0000E+00  0.2000E+01  0.2000E+01
    -22.968  0.0000E+00  0.0000E+00  0.2000E+01  0.2000E+01
    -22.823  0.0000E+00  0.0000E+00  0.2000E+01  0.2000E+01
    -22.679  0.0000E+00  0.0000E+00  0.2000E+01  0.2000E+01
    -22.535  0.0000E+00  0.0000E+00  0.2000E+01  0.2000E+01
    -22.390  0.0000E+00  0.0000E+00  0.2000E+01  0.2000E+01
    -22.246  0.0000E+00  0.0000E+00  0.2000E+01  0.2000E+01
    -22.102  0.0000E+00  0.0000E+00  0.2000E+01  0.2000E+01
    -21.957  0.0000E+00  0.0000E+00  0.2000E+01  0.2000E+01
    -21.813  0.0000E+00  0.0000E+00  0.2000E+01  0.2000E+01
    -21.669  0.0000E+00  0.0000E+00  0.2000E+01  0.2000E+01
    -21.524  0.0000E+00  0.0000E+00  0.2000E+01  0.2000E+01
    -21.380  0.0000E+00  0.0000E+00  0.2000E+01  0.2000E+01
    -21.236  0.0000E+00  0.0000E+00  0.2000E+01  0.2000E+01
    -21.091  0.0000E+00  0.0000E+00  0.2000E+01  0.2000E+01
    -20.947  0.0000E+00  0.0000E+00  0.2000E+01  0.2000E+01
    -20.803  0.0000E+00  0.0000E+00  0.2000E+01  0.2000E+01
    -20.658  0.0000E+00  0.0000E+00  0.2000E+01  0.2000E+01
    -20.514  0.0000E+00  0.0000E+00  0.2000E+01  0.2000E+01
    -20.370  0.0000E+00  0.0000E+00  0.2000E+01  0.2000E+01
    -20.225  0.0000E+00  0.0000E+00  0.2000E+01  0.2000E+01
    -20.081  0.0000E+00  0.0000E+00  0.2000E+01  0.2000E+01
    -19.937  0.0000E+00  0.0000E+00  0.2000E+01  0.2000E+01
    -19.792  0.0000E+00  0.0000E+00  0.2000E+01  0.2000E+01
    -19.648  0.0000E+00  0.0000E+00  0.2000E+01  0.2000E+01
    -19.504  0.0000E+00  0.0000E+00  0.2000E+01  0.2000E+01
    -19.359  0.0000E+00  0.0000E+00  0.2000E+01  0.2000E+01
    -19.215  0.0000E+00  0.0000E+00  0.2000E+01  0.2000E+01
    -19.071  0.0000E+00  0.0000E+00  0.2000E+01  0.2000E+01
    -18.926  0.0000E+00  0.0000E+00  0.2000E+01  0.2000E+01
    -18.782  0.0000E+00  0.0000E+00  0.2000E+01  0.2000E+01
    -18.638  0.0000E+00  0.0000E+00  0.2000E+01  0.2000E+01
    -18.493  0.0000E+00  0.0000E+00  0.2000E+01  0.2000E+01
    -18.349  0.0000E+00  0.0000E+00  0.2000E+01  0.2000E+01
    -18.205  0.0000E+00  0.0000E+00  0.2000E+01  0.2000E+01
    -18.060  0.0000E+00  0.0000E+00  0.2000E+01  0.2000E+01
    -17.916  0.0000E+00  0.0000E+00  0.2000E+01  0.2000E+01
    -17.772  0.0000E+00  0.0000E+00  0.2000E+01  0.2000E+01
    -17.627  0.0000E+00  0.0000E+00  0.2000E+01  0.2000E+01
    -17.483  0.0000E+00  0.0000E+00  0.2000E+01  0.2000E+01
    -17.339  0.0000E+00  0.0000E+00  0.2000E+01  0.2000E+01
    -17.194  0.0000E+00  0.0000E+00  0.2000E+01  0.2000E+01
    -17.050  0.0000E+00  0.0000E+00  0.2000E+01  0.2000E+01
    -16.906  0.0000E+00  0.0000E+00  0.2000E+01  0.2000E+01
    -16.761  0.0000E+00  0.0000E+00  0.2000E+01  0.2000E+01
    -16.617  0.0000E+00  0.0000E+00  0.2000E+01  0.2000E+01
    -16.473  0.0000E+00  0.0000E+00  0.2000E+01  0.2000E+01
    -16.328  0.0000E+00  0.0000E+00  0.2000E+01  0.2000E+01
    -16.184  0.0000E+00  0.0000E+00  0.2000E+01  0.2000E+01
    -16.039  0.0000E+00  0.0000E+00  0.2000E+01  0.2000E+01
    -15.895  0.0000E+00  0.0000E+00  0.2000E+01  0.2000E+01
    -15.751  0.0000E+00  0.0000E+00  0.2000E+01  0.2000E+01
    -15.606  0.0000E+00  0.0000E+00  0.2000E+01  0.2000E+01
    -15.462  0.0000E+00  0.0000E+00  0.2000E+01  0.2000E+01
    -15.318  0.0000E+00  0.0000E+00  0.2000E+01  0.2000E+01
    -15.173  0.0000E+00  0.0000E+00  0.2000E+01  0.2000E+01
    -15.029  0.0000E+00  0.0000E+00  0.2000E+01  0.2000E+01
    -14.885  0.0000E+00  0.0000E+00  0.2000E+01  0.2000E+01
    -14.740  0.0000E+00  0.0000E+00  0.2000E+01  0.2000E+01
    -14.596  0.0000E+00  0.0000E+00  0.2000E+01  0.2000E+01
    -14.452  0.0000E+00  0.0000E+00  0.2000E+01  0.2000E+01
    -14.307  0.0000E+00  0.0000E+00  0.2000E+01  0.2000E+01
    -14.163  0.0000E+00  0.0000E+00  0.2000E+01  0.2000E+01
    -14.019  0.0000E+00  0.0000E+00  0.2000E+01  0.2000E+01
    -13.874  0.0000E+00  0.0000E+00  0.2000E+01  0.2000E+01
    -13.730  0.0000E+00  0.0000E+00  0.2000E+01  0.2000E+01
    -13.586  0.0000E+00  0.0000E+00  0.2000E+01  0.2000E+01
    -13.441  0.0000E+00  0.0000E+00  0.2000E+01  0.2000E+01
    -13.297  0.0000E+00  0.0000E+00  0.2000E+01  0.2000E+01
    -13.153  0.0000E+00  0.0000E+00  0.2000E+01  0.2000E+01
    -13.008  0.0000E+00  0.0000E+00  0.2000E+01  0.2000E+01
    -12.864  0.0000E+00  0.0000E+00  0.2000E+01  0.2000E+01
    -12.720  0.0000E+00  0.0000E+00  0.2000E+01  0.2000E+01
    -12.575  0.0000E+00  0.0000E+00  0.2000E+01  0.2000E+01
    -12.431  0.0000E+00  0.0000E+00  0.2000E+01  0.2000E+01
    -12.287  0.1047E-02  0.1041E-02  0.2000E+01  0.2000E+01
    -12.142  0.2057E-01  0.2045E-01  0.2003E+01  0.2003E+01
    -11.998  0.3597E+00  0.3577E+00  0.2055E+01  0.2055E+01
    -11.854  0.5000E+01  0.4979E+01  0.2777E+01  0.2773E+01
    -11.709  0.2017E+02  0.2016E+02  0.5688E+01  0.5683E+01
    -11.565  0.1399E+02  0.1402E+02  0.7708E+01  0.7707E+01
    -11.421  0.1894E+01  0.1901E+01  0.7982E+01  0.7982E+01
    -11.276  0.6554E-01  0.6578E-01  0.7999E+01  0.7999E+01
    -11.132  0.0000E+00  0.0000E+00  0.8000E+01  0.8000E+01
    -10.988  0.0000E+00  0.0000E+00  0.8000E+01  0.8000E+01
    -10.843  0.0000E+00  0.0000E+00  0.8000E+01  0.8000E+01
    -10.699  0.0000E+00  0.0000E+00  0.8000E+01  0.8000E+01
    -10.555  0.0000E+00  0.0000E+00  0.8000E+01  0.8000E+01
    -10.410  0.0000E+00  0.0000E+00  0.8000E+01  0.8000E+01
    -10.266  0.0000E+00  0.0000E+00  0.8000E+01  0.8000E+01
    -10.122  0.0000E+00  0.0000E+00  0.8000E+01  0.8000E+01
     -9.977  0.0000E+00  0.0000E+00  0.8000E+01  0.8000E+01
     -9.833  0.0000E+00  0.0000E+00  0.8000E+01  0.8000E+01
     -9.689  0.0000E+00  0.0000E+00  0.8000E+01  0.8000E+01
     -9.544  0.0000E+00  0.0000E+00  0.8000E+01  0.8000E+01
     -9.400  0.0000E+00  0.0000E+00  0.8000E+01  0.8000E+01
     -9.256  0.0000E+00  0.0000E+00  0.8000E+01  0.8000E+01
     -9.111  0.0000E+00  0.0000E+00  0.8000E+01  0.8000E+01
     -8.967  0.0000E+00  0.0000E+00  0.8000E+01  0.8000E+01
     -8.823  0.0000E+00  0.0000E+00  0.8000E+01  0.8000E+01
     -8.678  0.0000E+00  0.0000E+00  0.8000E+01  0.8000E+01
     -8.534  0.0000E+00  0.0000E+00  0.8000E+01  0.8000E+01
     -8.390  0.0000E+00  0.0000E+00  0.8000E+01  0.8000E+01
     -8.245  0.0000E+00  0.0000E+00  0.8000E+01  0.8000E+01
     -8.101  0.0000E+00  0.0000E+00  0.8000E+01  0.8000E+01
     -7.957  0.0000E+00  0.0000E+00  0.8000E+01  0.8000E+01
     -7.812  0.0000E+00  0.0000E+00  0.8000E+01  0.8000E+01
     -7.668  0.0000E+00  0.0000E+00  0.8000E+01  0.8000E+01
     -7.524  0.0000E+00  0.0000E+00  0.8000E+01  0.8000E+01
     -7.379  0.0000E+00  0.0000E+00  0.8000E+01  0.8000E+01
     -7.235  0.0000E+00  0.0000E+00  0.8000E+01  0.8000E+01
     -7.091  0.0000E+00  0.0000E+00  0.8000E+01  0.8000E+01
     -6.946  0.0000E+00  0.0000E+00  0.8000E+01  0.8000E+01
     -6.802  0.0000E+00  0.0000E+00  0.8000E+01  0.8000E+01
     -6.658  0.0000E+00  0.0000E+00  0.8000E+01  0.8000E+01
     -6.513  0.0000E+00  0.0000E+00  0.8000E+01  0.8000E+01
     -6.369  0.0000E+00  0.0000E+00  0.8000E+01  0.8000E+01
     -6.225  0.0000E+00  0.0000E+00  0.8000E+01  0.8000E+01
     -6.080  0.0000E+00  0.0000E+00  0.8000E+01  0.8000E+01
     -5.936  0.0000E+00  0.0000E+00  0.8000E+01  0.8000E+01
     -5.792  0.0000E+00  0.0000E+00  0.8000E+01  0.8000E+01
     -5.647  0.0000E+00  0.0000E+00  0.8000E+01  0.8000E+01
     -5.503  0.0000E+00  0.0000E+00  0.8000E+01  0.8000E+01
     -5.359  0.0000E+00  0.0000E+00  0.8000E+01  0.8000E+01
     -5.214  0.0000E+00  0.0000E+00  0.8000E+01  0.8000E+01
     -5.070  0.0000E+00  0.0000E+00  0.8000E+01  0.8000E+01
     -4.926  0.0000E+00  0.0000E+00  0.8000E+01  0.8000E+01
     -4.781  0.0000E+00  0.0000E+00  0.8000E+01  0.8000E+01
     -4.637  0.0000E+00  0.0000E+00  0.8000E+01  0.8000E+01
     -4.493  0.0000E+00  0.0000E+00  0.8000E+01  0.8000E+01
     -4.348  0.0000E+00  0.0000E+00  0.8000E+01  0.8000E+01
     -4.204  0.0000E+00  0.0000E+00  0.8000E+01  0.8000E+01
     -4.060  0.0000E+00  0.0000E+00  0.8000E+01  0.8000E+01
     -3.915  0.0000E+00  0.0000E+00  0.8000E+01  0.8000E+01
     -3.771  0.0000E+00  0.0000E+00  0.8000E+01  0.8000E+01
     -3.626  0.7024E-05  0.7080E-05  0.8000E+01  0.8000E+01
     -3.482  0.1369E-03  0.1380E-03  0.8000E+01  0.8000E+01
     -3.338  0.2403E-02  0.2421E-02  0.8000E+01  0.8000E+01
     -3.193  0.3071E-01  0.3089E-01  0.8005E+01  0.8005E+01
     -3.049  0.1302E+00  0.1305E+00  0.8024E+01  0.8024E+01
     -2.905  0.2393E+00  0.2396E+00  0.8058E+01  0.8058E+01
     -2.760  0.2995E+00  0.2998E+00  0.8101E+01  0.8102E+01
     -2.616  0.3839E+00  0.3840E+00  0.8157E+01  0.8157E+01
     -2.472  0.4156E+00  0.4157E+00  0.8217E+01  0.8217E+01
     -2.327  0.5102E+00  0.5105E+00  0.8291E+01  0.8291E+01
     -2.183  0.5537E+00  0.5536E+00  0.8371E+01  0.8371E+01
     -2.039  0.5528E+00  0.5532E+00  0.8451E+01  0.8451E+01
     -1.894  0.7204E+00  0.7205E+00  0.8555E+01  0.8555E+01
     -1.750  0.6836E+00  0.6835E+00  0.8653E+01  0.8654E+01
     -1.606  0.7763E+00  0.7765E+00  0.8766E+01  0.8766E+01
     -1.461  0.8270E+00  0.8273E+00  0.8885E+01  0.8886E+01
     -1.317  0.1006E+01  0.1006E+01  0.9031E+01  0.9031E+01
     -1.173  0.9405E+00  0.9403E+00  0.9167E+01  0.9167E+01
     -1.028  0.1037E+01  0.1037E+01  0.9316E+01  0.9317E+01
     -0.884  0.1175E+01  0.1174E+01  0.9486E+01  0.9487E+01
     -0.740  0.1104E+01  0.1104E+01  0.9646E+01  0.9646E+01
     -0.595  0.1116E+01  0.1116E+01  0.9807E+01  0.9808E+01
     -0.451  0.1213E+01  0.1214E+01  0.9983E+01  0.9983E+01
     -0.307  0.1430E+01  0.1431E+01  0.1019E+02  0.1019E+02
     -0.162  0.1476E+01  0.1475E+01  0.1040E+02  0.1040E+02
     -0.018  0.1274E+01  0.1273E+01  0.1059E+02  0.1059E+02
      0.126  0.1141E+01  0.1141E+01  0.1075E+02  0.1075E+02
      0.271  0.1196E+01  0.1196E+01  0.1093E+02  0.1093E+02
      0.415  0.1235E+01  0.1234E+01  0.1110E+02  0.1110E+02
      0.559  0.1092E+01  0.1092E+01  0.1126E+02  0.1126E+02
      0.704  0.1377E+01  0.1377E+01  0.1146E+02  0.1146E+02
      0.848  0.1600E+01  0.1600E+01  0.1169E+02  0.1169E+02
      0.992  0.1592E+01  0.1592E+01  0.1192E+02  0.1192E+02
      1.137  0.1298E+01  0.1298E+01  0.1211E+02  0.1211E+02
      1.281  0.1525E+01  0.1526E+01  0.1233E+02  0.1233E+02
      1.425  0.1503E+01  0.1503E+01  0.1255E+02  0.1255E+02
      1.570  0.1110E+01  0.1109E+01  0.1271E+02  0.1271E+02
      1.714  0.1133E+01  0.1133E+01  0.1287E+02  0.1287E+02
      1.858  0.1324E+01  0.1323E+01  0.1306E+02  0.1306E+02
      2.003  0.1021E+01  0.1021E+01  0.1321E+02  0.1321E+02
      2.147  0.9205E+00  0.9208E+00  0.1335E+02  0.1335E+02
      2.291  0.1172E+01  0.1173E+01  0.1351E+02  0.1351E+02
      2.436  0.1297E+01  0.1298E+01  0.1370E+02  0.1370E+02
      2.580  0.1075E+01  0.1075E+01  0.1386E+02  0.1386E+02
      2.724  0.1276E+01  0.1277E+01  0.1404E+02  0.1404E+02
      2.869  0.1479E+01  0.1479E+01  0.1426E+02  0.1426E+02
      3.013  0.1619E+01  0.1620E+01  0.1449E+02  0.1449E+02
      3.157  0.1839E+01  0.1839E+01  0.1476E+02  0.1476E+02
      3.302  0.1889E+01  0.1889E+01  0.1503E+02  0.1503E+02
      3.446  0.1893E+01  0.1893E+01  0.1530E+02  0.1530E+02
      3.590  0.1864E+01  0.1864E+01  0.1557E+02  0.1557E+02
      3.735  0.1891E+01  0.1890E+01  0.1585E+02  0.1585E+02
      3.879  0.2040E+01  0.2041E+01  0.1614E+02  0.1614E+02
      4.023  0.2437E+01  0.2438E+01  0.1649E+02  0.1649E+02
      4.168  0.2775E+01  0.2776E+01  0.1689E+02  0.1689E+02
      4.312  0.2561E+01  0.2559E+01  0.1726E+02  0.1726E+02
      4.456  0.2089E+01  0.2088E+01  0.1757E+02  0.1757E+02
      4.601  0.1951E+01  0.1950E+01  0.1785E+02  0.1785E+02
      4.745  0.1742E+01  0.1742E+01  0.1810E+02  0.1810E+02
      4.889  0.2008E+01  0.2009E+01  0.1839E+02  0.1839E+02
      5.034  0.1996E+01  0.1995E+01  0.1868E+02  0.1868E+02
      5.178  0.1731E+01  0.1731E+01  0.1893E+02  0.1893E+02
      5.322  0.1817E+01  0.1817E+01  0.1919E+02  0.1919E+02
      5.467  0.2082E+01  0.2083E+01  0.1949E+02  0.1949E+02
      5.611  0.2505E+01  0.2505E+01  0.1986E+02  0.1986E+02
      5.755  0.2555E+01  0.2555E+01  0.2023E+02  0.2023E+02
      5.900  0.2264E+01  0.2262E+01  0.2055E+02  0.2055E+02
      6.044  0.2209E+01  0.2208E+01  0.2087E+02  0.2087E+02
      6.188  0.2020E+01  0.2020E+01  0.2116E+02  0.2117E+02
      6.333  0.2182E+01  0.2182E+01  0.2148E+02  0.2148E+02
      6.477  0.2018E+01  0.2017E+01  0.2177E+02  0.2177E+02
      6.621  0.1549E+01  0.1547E+01  0.2200E+02  0.2200E+02
      6.766  0.1638E+01  0.1639E+01  0.2223E+02  0.2223E+02
      6.910  0.2183E+01  0.2183E+01  0.2255E+02  0.2255E+02
      7.054  0.2248E+01  0.2248E+01  0.2287E+02  0.2287E+02
      7.199  0.1869E+01  0.1868E+01  0.2314E+02  0.2314E+02
      7.343  0.1915E+01  0.1915E+01  0.2342E+02  0.2342E+02
      7.487  0.1746E+01  0.1746E+01  0.2367E+02  0.2367E+02
      7.632  0.1976E+01  0.1977E+01  0.2396E+02  0.2396E+02
      7.776  0.2175E+01  0.2176E+01  0.2427E+02  0.2427E+02
      7.920  0.2708E+01  0.2713E+01  0.2466E+02  0.2467E+02
      8.065  0.3354E+01  0.3353E+01  0.2515E+02  0.2515E+02
      8.209  0.3312E+01  0.3321E+01  0.2563E+02  0.2563E+02
      8.353  0.3302E+01  0.3286E+01  0.2611E+02  0.2611E+02
      8.498  0.2605E+01  0.2577E+01  0.2648E+02  0.2648E+02
      8.642  0.2428E+01  0.2451E+01  0.2683E+02  0.2683E+02
      8.787  0.2368E+01  0.2345E+01  0.2718E+02  0.2717E+02
      8.931  0.1588E+01  0.1597E+01  0.2741E+02  0.2740E+02
      9.075  0.1047E+01  0.1126E+01  0.2756E+02  0.2757E+02
      9.220  0.8398E+00  0.8306E+00  0.2768E+02  0.2769E+02
      9.364  0.6398E+00  0.5780E+00  0.2777E+02  0.2777E+02
      9.508  0.6143E+00  0.5978E+00  0.2786E+02  0.2786E+02
      9.653  0.4894E+00  0.5244E+00  0.2793E+02  0.2793E+02
      9.797  0.3461E+00  0.3501E+00  0.2798E+02  0.2798E+02
      9.941  0.1116E+00  0.1024E+00  0.2800E+02  0.2800E+02
     10.086  0.1228E-01  0.8653E-02  0.2800E+02  0.2800E+02
     10.230  0.3893E-03  0.0000E+00  0.2800E+02  0.2800E+02
     10.374  0.0000E+00  0.0000E+00  0.2800E+02  0.2800E+02
     10.519  0.0000E+00  0.0000E+00  0.2800E+02  0.2800E+02
     10.663  0.0000E+00  0.0000E+00  0.2800E+02  0.2800E+02
     10.807  0.0000E+00  0.0000E+00  0.2800E+02  0.2800E+02
     10.952  0.0000E+00  0.0000E+00  0.2800E+02  0.2800E+02
     11.096  0.0000E+00  0.0000E+00  0.2800E+02  0.2800E+02
     11.240  0.0000E+00  0.0000E+00  0.2800E+02  0.2800E+02
     11.385  0.0000E+00  0.0000E+00  0.2800E+02  0.2800E+02
     11.529  0.0000E+00  0.0000E+00  0.2800E+02  0.2800E+02
     11.673  0.0000E+00  0.0000E+00  0.2800E+02  0.2800E+02
     11.818  0.0000E+00  0.0000E+00  0.2800E+02  0.2800E+02
     11.81759013    -31.48357982  301      5.21657636      1.00000000
    -31.484  0.0000E+00  0.0000E+00  0.0000E+00  0.0000E+00  0.0000E+00  0.0000E+00  0.0000E+00  0.0000E+00  0.0000E+00  0.0000E+00  0.0000E+00  0.0000E+00  0.0000E+00  0.0000E+00  0.0000E+00  0.0000E+00  0.0000E+00  0.0000E+00
    -31.339  0.0000E+00  0.0000E+00  0.0000E+00  0.0000E+00  0.0000E+00  0.0000E+00  0.0000E+00  0.0000E+00  0.0000E+00  0.0000E+00  0.0000E+00  0.0000E+00  0.0000E+00  0.0000E+00  0.0000E+00  0.0000E+00  0.0000E+00  0.0000E+00
    -31.195  0.0000E+00  0.0000E+00  0.0000E+00  0.0000E+00  0.0000E+00  0.0000E+00  0.0000E+00  0.0000E+00  0.0000E+00  0.0000E+00  0.0000E+00  0.0000E+00  0.0000E+00  0.0000E+00  0.0000E+00  0.0000E+00  0.0000E+00  0.0000E+00
    -31.051  0.0000E+00  0.0000E+00  0.0000E+00  0.0000E+00  0.0000E+00  0.0000E+00  0.0000E+00  0.0000E+00  0.0000E+00  0.0000E+00  0.0000E+00  0.0000E+00  0.0000E+00  0.0000E+00  0.0000E+00  0.0000E+00  0.0000E+00  0.0000E+00
    -30.906  0.0000E+00  0.0000E+00  0.0000E+00  0.0000E+00  0.0000E+00  0.0000E+00  0.0000E+00  0.0000E+00  0.0000E+00  0.0000E+00  0.0000E+00  0.0000E+00  0.0000E+00  0.0000E+00  0.0000E+00  0.0000E+00  0.0000E+00  0.0000E+00
    -30.762  0.0000E+00  0.0000E+00  0.0000E+00  0.0000E+00  0.0000E+00  0.0000E+00  0.0000E+00  0.0000E+00  0.0000E+00  0.0000E+00  0.0000E+00  0.0000E+00  0.0000E+00  0.0000E+00  0.0000E+00  0.0000E+00  0.0000E+00  0.0000E+00
    -30.618  0.0000E+00  0.0000E+00  0.0000E+00  0.0000E+00  0.0000E+00  0.0000E+00  0.0000E+00  0.0000E+00  0.0000E+00  0.0000E+00  0.0000E+00  0.0000E+00  0.0000E+00  0.0000E+00  0.0000E+00  0.0000E+00  0.0000E+00  0.0000E+00
    -30.473  0.0000E+00  0.0000E+00  0.0000E+00  0.0000E+00  0.0000E+00  0.0000E+00  0.0000E+00  0.0000E+00  0.0000E+00  0.0000E+00  0.0000E+00  0.0000E+00  0.0000E+00  0.0000E+00  0.0000E+00  0.0000E+00  0.0000E+00  0.0000E+00
    -30.329  0.0000E+00  0.0000E+00  0.0000E+00  0.0000E+00  0.0000E+00  0.0000E+00  0.0000E+00  0.0000E+00  0.0000E+00  0.0000E+00  0.0000E+00  0.0000E+00  0.0000E+00  0.0000E+00  0.0000E+00  0.0000E+00  0.0000E+00  0.0000E+00
    -30.185  0.0000E+00  0.0000E+00  0.0000E+00  0.0000E+00  0.0000E+00  0.0000E+00  0.0000E+00  0.0000E+00  0.0000E+00  0.0000E+00  0.0000E+00  0.0000E+00  0.0000E+00  0.0000E+00  0.0000E+00  0.0000E+00  0.0000E+00  0.0000E+00
    -30.040  0.1733E-03  0.1736E-03  0.2481E-11  0.2514E-11  0.8318E-13  0.9452E-13  0.2481E-11  0.2514E-11  0.3774E-14  0.3364E-14  0.1547E-13  0.1234E-13  0.3053E-09  0.3036E-09  0.1547E-13  0.1234E-13  0.1278E-11  0.1296E-11
    -29.896  0.2933E-02  0.2938E-02  0.4199E-10  0.4256E-10  0.1408E-11  0.1600E-11  0.4199E-10  0.4256E-10  0.6388E-13  0.5694E-13  0.2619E-12  0.2090E-12  0.5167E-08  0.5139E-08  0.2619E-12  0.2090E-12  0.2163E-10  0.2193E-10
    -29.752  0.5218E-01  0.5226E-01  0.7470E-09  0.7570E-09  0.2504E-10  0.2845E-10  0.7470E-09  0.7570E-09  0.1137E-11  0.1013E-11  0.4659E-11  0.3717E-11  0.9192E-07  0.9141E-07  0.4659E-11  0.3717E-11  0.3847E-09  0.3901E-09
    -29.607  0.8157E+00  0.8168E+00  0.1168E-07  0.1183E-07  0.3899E-09  0.4429E-09  0.1168E-07  0.1183E-07  0.1782E-10  0.1587E-10  0.7286E-10  0.5814E-10  0.1437E-05  0.1429E-05  0.7286E-10  0.5814E-10  0.6015E-08  0.6098E-08
    -29.463  0.4041E+01  0.4042E+01  0.5781E-07  0.5851E-07  0.1890E-08  0.2143E-08  0.5781E-07  0.5851E-07  0.8981E-10  0.7952E-10  0.3617E-09  0.2887E-09  0.7130E-05  0.7081E-05  0.3617E-09  0.2887E-09  0.2981E-07  0.3019E-07
    -29.319  0.1716E+01  0.1714E+01  0.2452E-07  0.2479E-07  0.7816E-09  0.8845E-09  0.2452E-07  0.2479E-07  0.3890E-10  0.3423E-10  0.1539E-09  0.1229E-09  0.3032E-05  0.3007E-05  0.1539E-09  0.1229E-09  0.1266E-07  0.1280E-07
    -29.174  0.1317E+00  0.1315E+00  0.1881E-08  0.1901E-08  0.5948E-10  0.6727E-10  0.1881E-08  0.1901E-08  0.3005E-11  0.2639E-11  0.1182E-10  0.9439E-11  0.2328E-06  0.2308E-06  0.1182E-10  0.9439E-11  0.9711E-09  0.9815E-09
    -29.030  0.0000E+00  0.0000E+00  0.0000E+00  0.0000E+00  0.0000E+00  0.0000E+00  0.0000E+00  0.0000E+00  0.0000E+00  0.0000E+00  0.0000E+00  0.0000E+00  0.0000E+00  0.0000E+00  0.0000E+00  0.0000E+00  0.0000E+00  0.0000E+00
    -28.886  0.0000E+00  0.0000E+00  0.0000E+00  0.0000E+00  0.0000E+00  0.0000E+00  0.0000E+00  0.0000E+00  0.0000E+00  0.0000E+00  0.0000E+00  0.0000E+00  0.0000E+00  0.0000E+00  0.0000E+00  0.0000E+00  0.0000E+00  0.0000E+00
    -28.741  0.0000E+00  0.0000E+00  0.0000E+00  0.0000E+00  0.0000E+00  0.0000E+00  0.0000E+00  0.0000E+00  0.0000E+00  0.0000E+00  0.0000E+00  0.0000E+00  0.0000E+00  0.0000E+00  0.0000E+00  0.0000E+00  0.0000E+00  0.0000E+00
    -28.597  0.0000E+00  0.0000E+00  0.0000E+00  0.0000E+00  0.0000E+00  0.0000E+00  0.0000E+00  0.0000E+00  0.0000E+00  0.0000E+00  0.0000E+00  0.0000E+00  0.0000E+00  0.0000E+00  0.0000E+00  0.0000E+00  0.0000E+00  0.0000E+00
    -28.452  0.0000E+00  0.0000E+00  0.0000E+00  0.0000E+00  0.0000E+00  0.0000E+00  0.0000E+00  0.0000E+00  0.0000E+00  0.0000E+00  0.0000E+00  0.0000E+00  0.0000E+00  0.0000E+00  0.0000E+00  0.0000E+00  0.0000E+00  0.0000E+00
    -28.308  0.0000E+00  0.0000E+00  0.0000E+00  0.0000E+00  0.0000E+00  0.0000E+00  0.0000E+00  0.0000E+00  0.0000E+00  0.0000E+00  0.0000E+00  0.0000E+00  0.0000E+00  0.0000E+00  0.0000E+00  0.0000E+00  0.0000E+00  0.0000E+00
    -28.164  0.0000E+00  0.0000E+00  0.0000E+00  0.0000E+00  0.0000E+00  0.0000E+00  0.0000E+00  0.0000E+00  0.0000E+00  0.0000E+00  0.0000E+00  0.0000E+00  0.0000E+00  0.0000E+00  0.0000E+00  0.0000E+00  0.0000E+00  0.0000E+00
    -28.019  0.0000E+00  0.0000E+00  0.0000E+00  0.0000E+00  0.0000E+00  0.0000E+00  0.0000E+00  0.0000E+00  0.0000E+00  0.0000E+00  0.0000E+00  0.0000E+00  0.0000E+00  0.0000E+00  0.0000E+00  0.0000E+00  0.0000E+00  0.0000E+00
    -27.875  0.0000E+00  0.0000E+00  0.0000E+00  0.0000E+00  0.0000E+00  0.0000E+00  0.0000E+00  0.0000E+00  0.0000E+00  0.0000E+00  0.0000E+00  0.0000E+00  0.0000E+00  0.0000E+00  0.0000E+00  0.0000E+00  0.0000E+00  0.0000E+00
    -27.731  0.0000E+00  0.0000E+00  0.0000E+00  0.0000E+00  0.0000E+00  0.0000E+00  0.0000E+00  0.0000E+00  0.0000E+00  0.0000E+00  0.0000E+00  0.0000E+00  0.0000E+00  0.0000E+00  0.0000E+00  0.0000E+00  0.0000E+00  0.0000E+00
    -27.586  0.0000E+00  0.0000E+00  0.0000E+00  0.0000E+00  0.0000E+00  0.0000E+00  0.0000E+00  0.0000E+00  0.0000E+00  0.0000E+00  0.0000E+00  0.0000E+00  0.0000E+00  0.0000E+00  0.0000E+00  0.0000E+00  0.0000E+00  0.0000E+00
    -27.442  0.0000E+00  0.0000E+00  0.0000E+00  0.0000E+00  0.0000E+00  0.0000E+00  0.0000E+00  0.0000E+00  0.0000E+00  0.0000E+00  0.0000E+00  0.0000E+00  0.0000E+00  0.0000E+00  0.0000E+00  0.0000E+00  0.0000E+00  0.0000E+00
    -27.298  0.0000E+00  0.0000E+00  0.0000E+00  0.0000E+00  0.0000E+00  0.0000E+00  0.0000E+00  0.0000E+00  0.0000E+00  0.0000E+00  0.0000E+00  0.0000E+00  0.0000E+00  0.0000E+00  0.0000E+00  0.0000E+00  0.0000E+00  0.0000E+00
    -27.153  0.0000E+00  0.0000E+00  0.0000E+00  0.0000E+00  0.0000E+00  0.0000E+00  0.0000E+00  0.0000E+00  0.0000E+00  0.0000E+00  0.0000E+00  0.0000E+00  0.0000E+00  0.0000E+00  0.0000E+00  0.0000E+00  0.0000E+00  0.0000E+00
    -27.009  0.0000E+00  0.0000E+00  0.0000E+00  0.0000E+00  0.0000E+00  0.0000E+00  0.0000E+00  0.0000E+00  0.0000E+00  0.0000E+00  0.0000E+00  0.0000E+00  0.0000E+00  0.0000E+00  0.0000E+00  0.0000E+00  0.0000E+00  0.0000E+00
    -26.865  0.0000E+00  0.0000E+00  0.0000E+00  0.0000E+00  0.0000E+00  0.0000E+00  0.0000E+00  0.0000E+00  0.0000E+00  0.0000E+00  0.0000E+00  0.0000E+00  0.0000E+00  0.0000E+00  0.0000E+00  0.0000E+00  0.0000E+00  0.0000E+00
    -26.720  0.0000E+00  0.0000E+00  0.0000E+00  0.0000E+00  0.0000E+00  0.0000E+00  0.0000E+00  0.0000E+00  0.0000E+00  0.0000E+00  0.0000E+00  0.0000E+00  0.0000E+00  0.0000E+00  0.0000E+00  0.0000E+00  0.0000E+00  0.0000E+00
    -26.576  0.0000E+00  0.0000E+00  0.0000E+00  0.0000E+00  0.0000E+00  0.0000E+00  0.0000E+00  0.0000E+00  0.0000E+00  0.0000E+00  0.0000E+00  0.0000E+00  0.0000E+00  0.0000E+00  0.0000E+00  0.0000E+00  0.0000E+00  0.0000E+00
    -26.432  0.0000E+00  0.0000E+00  0.0000E+00  0.0000E+00  0.0000E+00  0.0000E+00  0.0000E+00  0.0000E+00  0.0000E+00  0.0000E+00  0.0000E+00  0.0000E+00  0.0000E+00  0.0000E+00  0.0000E+00  0.0000E+00  0.0000E+00  0.0000E+00
    -26.287  0.0000E+00  0.0000E+00  0.0000E+00  0.0000E+00  0.0000E+00  0.0000E+00  0.0000E+00  0.0000E+00  0.0000E+00  0.0000E+00  0.0000E+00  0.0000E+00  0.0000E+00  0.0000E+00  0.0000E+00  0.0000E+00  0.0000E+00  0.0000E+00
    -26.143  0.0000E+00  0.0000E+00  0.0000E+00  0.0000E+00  0.0000E+00  0.0000E+00  0.0000E+00  0.0000E+00  0.0000E+00  0.0000E+00  0.0000E+00  0.0000E+00  0.0000E+00  0.0000E+00  0.0000E+00  0.0000E+00  0.0000E+00  0.0000E+00
    -25.999  0.0000E+00  0.0000E+00  0.0000E+00  0.0000E+00  0.0000E+00  0.0000E+00  0.0000E+00  0.0000E+00  0.0000E+00  0.0000E+00  0.0000E+00  0.0000E+00  0.0000E+00  0.0000E+00  0.0000E+00  0.0000E+00  0.0000E+00  0.0000E+00
    -25.854  0.0000E+00  0.0000E+00  0.0000E+00  0.0000E+00  0.0000E+00  0.0000E+00  0.0000E+00  0.0000E+00  0.0000E+00  0.0000E+00  0.0000E+00  0.0000E+00  0.0000E+00  0.0000E+00  0.0000E+00  0.0000E+00  0.0000E+00  0.0000E+00
    -25.710  0.0000E+00  0.0000E+00  0.0000E+00  0.0000E+00  0.0000E+00  0.0000E+00  0.0000E+00  0.0000E+00  0.0000E+00  0.0000E+00  0.0000E+00  0.0000E+00  0.0000E+00  0.0000E+00  0.0000E+00  0.0000E+00  0.0000E+00  0.0000E+00
    -25.566  0.0000E+00  0.0000E+00  0.0000E+00  0.0000E+00  0.0000E+00  0.0000E+00  0.0000E+00  0.0000E+00  0.0000E+00  0.0000E+00  0.0000E+00  0.0000E+00  0.0000E+00  0.0000E+00  0.0000E+00  0.0000E+00  0.0000E+00  0.0000E+00
    -25.421  0.0000E+00  0.0000E+00  0.0000E+00  0.0000E+00  0.0000E+00  0.0000E+00  0.0000E+00  0.0000E+00  0.0000E+00  0.0000E+00  0.0000E+00  0.0000E+00  0.0000E+00  0.0000E+00  0.0000E+00  0.0000E+00  0.0000E+00  0.0000E+00
    -25.277  0.0000E+00  0.0000E+00  0.0000E+00  0.0000E+00  0.0000E+00  0.0000E+00  0.0000E+00  0.0000E+00  0.0000E+00  0.0000E+00  0.0000E+00  0.0000E+00  0.0000E+00  0.0000E+00  0.0000E+00  0.0000E+00  0.0000E+00  0.0000E+00
    -25.133  0.0000E+00  0.0000E+00  0.0000E+00  0.0000E+00  0.0000E+00  0.0000E+00  0.0000E+00  0.0000E+00  0.0000E+00  0.0000E+00  0.0000E+00  0.0000E+00  0.0000E+00  0.0000E+00  0.0000E+00  0.0000E+00  0.0000E+00  0.0000E+00
    -24.988  0.0000E+00  0.0000E+00  0.0000E+00  0.0000E+00  0.0000E+00  0.0000E+00  0.0000E+00  0.0000E+00  0.0000E+00  0.0000E+00  0.0000E+00  0.0000E+00  0.0000E+00  0.0000E+00  0.0000E+00  0.0000E+00  0.0000E+00  0.0000E+00
    -24.844  0.0000E+00  0.0000E+00  0.0000E+00  0.0000E+00  0.0000E+00  0.0000E+00  0.0000E+00  0.0000E+00  0.0000E+00  0.0000E+00  0.0000E+00  0.0000E+00  0.0000E+00  0.0000E+00  0.0000E+00  0.0000E+00  0.0000E+00  0.0000E+00
    -24.700  0.0000E+00  0.0000E+00  0.0000E+00  0.0000E+00  0.0000E+00  0.0000E+00  0.0000E+00  0.0000E+00  0.0000E+00  0.0000E+00  0.0000E+00  0.0000E+00  0.0000E+00  0.0000E+00  0.0000E+00  0.0000E+00  0.0000E+00  0.0000E+00
    -24.555  0.0000E+00  0.0000E+00  0.0000E+00  0.0000E+00  0.0000E+00  0.0000E+00  0.0000E+00  0.0000E+00  0.0000E+00  0.0000E+00  0.0000E+00  0.0000E+00  0.0000E+00  0.0000E+00  0.0000E+00  0.0000E+00  0.0000E+00  0.0000E+00
    -24.411  0.0000E+00  0.0000E+00  0.0000E+00  0.0000E+00  0.0000E+00  0.0000E+00  0.0000E+00  0.0000E+00  0.0000E+00  0.0000E+00  0.0000E+00  0.0000E+00  0.0000E+00  0.0000E+00  0.0000E+00  0.0000E+00  0.0000E+00  0.0000E+00
    -24.267  0.0000E+00  0.0000E+00  0.0000E+00  0.0000E+00  0.0000E+00  0.0000E+00  0.0000E+00  0.0000E+00  0.0000E+00  0.0000E+00  0.0000E+00  0.0000E+00  0.0000E+00  0.0000E+00  0.0000E+00  0.0000E+00  0.0000E+00  0.0000E+00