   8   8   1   0
  0.2031876E+02  0.4408870E-09  0.4408870E-09  0.8362434E-09  0.5000000E-15
  1.000000000000000E-004
  CAR 
 unknown system                          
     12.76111646    -30.56531994  301      5.93830015      1.00000000
    -30.565  0.0000E+00  0.0000E+00  0.0000E+00  0.0000E+00
    -30.421  0.0000E+00  0.0000E+00  0.0000E+00  0.0000E+00
    -30.276  0.0000E+00  0.0000E+00  0.0000E+00  0.0000E+00
    -30.132  0.0000E+00  0.0000E+00  0.0000E+00  0.0000E+00
    -29.988  0.0000E+00  0.0000E+00  0.0000E+00  0.0000E+00
    -29.843  0.0000E+00  0.0000E+00  0.0000E+00  0.0000E+00
    -29.699  0.0000E+00  0.0000E+00  0.0000E+00  0.0000E+00
    -29.554  0.0000E+00  0.0000E+00  0.0000E+00  0.0000E+00
    -29.410  0.0000E+00  0.0000E+00  0.0000E+00  0.0000E+00
    -29.266  0.0000E+00  0.0000E+00  0.0000E+00  0.0000E+00
    -29.121  0.3340E-03  0.3361E-03  0.4824E-04  0.4854E-04
    -28.977  0.5664E-02  0.5699E-02  0.8662E-03  0.8716E-03
    -28.832  0.1010E+00  0.1016E+00  0.1545E-01  0.1554E-01
    -28.688  0.1592E+01  0.1600E+01  0.2453E+00  0.2466E+00
    -28.543  0.8202E+01  0.8210E+01  0.1430E+01  0.1432E+01
    -28.399  0.3647E+01  0.3631E+01  0.1957E+01  0.1957E+01
    -28.255  0.2838E+00  0.2821E+00  0.1998E+01  0.1998E+01
    -28.110  0.0000E+00  0.0000E+00  0.2000E+01  0.2000E+01
    -27.966  0.0000E+00  0.0000E+00  0.2000E+01  0.2000E+01
    -27.821  0.0000E+00  0.0000E+00  0.2000E+01  0.2000E+01
    -27.677  0.0000E+00  0.0000E+00  0.2000E+01  0.2000E+01
    -27.532  0.0000E+00  0.0000E+00  0.2000E+01  0.2000E+01
    -27.388  0.0000E+00  0.0000E+00  0.2000E+01  0.2000E+01
    -27.244  0.0000E+00  0.0000E+00  0.2000E+01  0.2000E+01
    -27.099  0.0000E+00  0.0000E+00  0.2000E+01  0.2000E+01
    -26.955  0.0000E+00  0.0000E+00  0.2000E+01  0.2000E+01
    -26.810  0.0000E+00  0.0000E+00  0.2000E+01  0.2000E+01
    -26.666  0.0000E+00  0.0000E+00  0.2000E+01  0.2000E+01
    -26.522  0.0000E+00  0.0000E+00  0.2000E+01  0.2000E+01
    -26.377  0.0000E+00  0.0000E+00  0.2000E+01  0.2000E+01
    -26.233  0.0000E+00  0.0000E+00  0.2000E+01  0.2000E+01
    -26.088  0.0000E+00  0.0000E+00  0.2000E+01  0.2000E+01
    -25.944  0.0000E+00  0.0000E+00  0.2000E+01  0.2000E+01
    -25.799  0.0000E+00  0.0000E+00  0.2000E+01  0.2000E+01
    -25.655  0.0000E+00  0.0000E+00  0.2000E+01  0.2000E+01
    -25.511  0.0000E+00  0.0000E+00  0.2000E+01  0.2000E+01
    -25.366  0.0000E+00  0.0000E+00  0.2000E+01  0.2000E+01
    -25.222  0.0000E+00  0.0000E+00  0.2000E+01  0.2000E+01
    -25.077  0.0000E+00  0.0000E+00  0.2000E+01  0.2000E+01
    -24.933  0.0000E+00  0.0000E+00  0.2000E+01  0.2000E+01
    -24.788  0.0000E+00  0.0000E+00  0.2000E+01  0.2000E+01
    -24.644  0.0000E+00  0.0000E+00  0.2000E+01  0.2000E+01
    -24.500  0.0000E+00  0.0000E+00  0.2000E+01  0.2000E+01
    -24.355  0.0000E+00  0.0000E+00  0.2000E+01  0.2000E+01
    -24.211  0.0000E+00  0.0000E+00  0.2000E+01  0.2000E+01
    -24.066  0.0000E+00  0.0000E+00  0.2000E+01  0.2000E+01
    -23.922  0.0000E+00  0.0000E+00  0.2000E+01  0.2000E+01
    -23.778  0.0000E+00  0.0000E+00  0.2000E+01  0.2000E+01
    -23.633  0.0000E+00  0.0000E+00  0.2000E+01  0.2000E+01
    -23.489  0.0000E+00  0.0000E+00  0.2000E+01  0.2000E+01
    -23.344  0.0000E+00  0.0000E+00  0.2000E+01  0.2000E+01
    -23.200  0.0000E+00  0.0000E+00  0.2000E+01  0.2000E+01
    -23.055  0.0000E+00  0.0000E+00  0.2000E+01  0.2000E+01
    -22.911  0.0000E+00  0.0000E+00  0.2000E+01  0.2000E+01
    -22.767  0.0000E+00  0.0000E+00  0.2000E+01  0.2000E+01
    -22.622  0.0000E+00  0.0000E+00  0.2000E+01  0.2000E+01
    -22.478  0.0000E+00  0.0000E+00  0.2000E+01  0.2000E+01
    -22.333  0.0000E+00  0.0000E+00  0.2000E+01  0.2000E+01
    -22.189  0.0000E+00  0.0000E+00  0.2000E+01  0.2000E+01
    -22.044  0.0000E+00  0.0000E+00  0.2000E+01  0.2000E+01
    -21.900  0.0000E+00  0.0000E+00  0.2000E+01  0.2000E+01
    -21.756  0.0000E+00  0.0000E+00  0.2000E+01  0.2000E+01
    -21.611  0.0000E+00  0.0000E+00  0.2000E+01  0.2000E+01
    -21.467  0.0000E+00  0.0000E+00  0.2000E+01  0.2000E+01
    -21.322  0.0000E+00  0.0000E+00  0.2000E+01  0.2000E+01
    -21.178  0.0000E+00  0.0000E+00  0.2000E+01  0.2000E+01
    -21.034  0.0000E+00  0.0000E+00  0.2000E+01  0.2000E+01
    -20.889  0.0000E+00  0.0000E+00  0.2000E+01  0.2000E+01
    -20.745  0.0000E+00  0.0000E+00  0.2000E+01  0.2000E+01
    -20.600  0.0000E+00  0.0000E+00  0.2000E+01  0.2000E+01
    -20.456  0.0000E+00  0.0000E+00  0.2000E+01  0.2000E+01
    -20.311  0.0000E+00  0.0000E+00  0.2000E+01  0.2000E+01
    -20.167  0.0000E+00  0.0000E+00  0.2000E+01  0.2000E+01
    -20.023  0.0000E+00  0.0000E+00  0.2000E+01  0.2000E+01
    -19.878  0.0000E+00  0.0000E+00  0.2000E+01  0.2000E+01
    -19.734  0.0000E+00  0.0000E+00  0.2000E+01  0.2000E+01
    -19.589  0.0000E+00  0.0000E+00  0.2000E+01  0.2000E+01
    -19.445  0.0000E+00  0.0000E+00  0.2000E+01  0.2000E+01
    -19.300  0.0000E+00  0.0000E+00  0.2000E+01  0.2000E+01
    -19.156  0.0000E+00  0.0000E+00  0.2000E+01  0.2000E+01
    -19.012  0.0000E+00  0.0000E+00  0.2000E+01  0.2000E+01
    -18.867  0.0000E+00  0.0000E+00  0.2000E+01  0.2000E+01
    -18.723  0.0000E+00  0.0000E+00  0.2000E+01  0.2000E+01
    -18.578  0.0000E+00  0.0000E+00  0.2000E+01  0.2000E+01
    -18.434  0.0000E+00  0.0000E+00  0.2000E+01  0.2000E+01
    -18.289  0.0000E+00  0.0000E+00  0.2000E+01  0.2000E+01
    -18.145  0.0000E+00  0.0000E+00  0.2000E+01  0.2000E+01
    -18.001  0.0000E+00  0.0000E+00  0.2000E+01  0.2000E+01
    -17.856  0.0000E+00  0.0000E+00  0.2000E+01  0.2000E+01
    -17.712  0.0000E+00  0.0000E+00  0.2000E+01  0.2000E+01
    -17.567  0.0000E+00  0.0000E+00  0.2000E+01  0.2000E+01
    -17.423  0.0000E+00  0.0000E+00  0.2000E+01  0.2000E+01
    -17.279  0.0000E+00  0.0000E+00  0.2000E+01  0.2000E+01
    -17.134  0.0000E+00  0.0000E+00  0.2000E+01  0.2000E+01
    -16.990  0.0000E+00  0.0000E+00  0.2000E+01  0.2000E+01
    -16.845  0.0000E+00  0.0000E+00  0.2000E+01  0.2000E+01
    -16.701  0.0000E+00  0.0000E+00  0.2000E+01  0.2000E+01
    -16.556  0.0000E+00  0.0000E+00  0.2000E+01  0.2000E+01
    -16.412  0.0000E+00  0.0000E+00  0.2000E+01  0.2000E+01
    -16.268  0.0000E+00  0.0000E+00  0.2000E+01  0.2000E+01
    -16.123  0.0000E+00  0.0000E+00  0.2000E+01  0.2000E+01
    -15.979  0.0000E+00  0.0000E+00  0.2000E+01  0.2000E+01
    -15.834  0.0000E+00  0.0000E+00  0.2000E+01  0.2000E+01
    -15.690  0.0000E+00  0.0000E+00  0.2000E+01  0.2000E+01
    -15.545  0.0000E+00  0.0000E+00  0.2000E+01  0.2000E+01
    -15.401  0.0000E+00  0.0000E+00  0.2000E+01  0.2000E+01
    -15.257  0.0000E+00  0.0000E+00  0.2000E+01  0.2000E+01
    -15.112  0.0000E+00  0.0000E+00  0.2000E+01  0.2000E+01
    -14.968  0.0000E+00  0.0000E+00  0.2000E+01  0.2000E+01
    -14.823  0.0000E+00  0.0000E+00  0.2000E+01  0.2000E+01
    -14.679  0.0000E+00  0.0000E+00  0.2000E+01  0.2000E+01
    -14.535  0.0000E+00  0.0000E+00  0.2000E+01  0.2000E+01
    -14.390  0.0000E+00  0.0000E+00  0.2000E+01  0.2000E+01
    -14.246  0.0000E+00  0.0000E+00  0.2000E+01  0.2000E+01
    -14.101  0.0000E+00  0.0000E+00  0.2000E+01  0.2000E+01
    -13.957  0.0000E+00  0.0000E+00  0.2000E+01  0.2000E+01
    -13.812  0.0000E+00  0.0000E+00  0.2000E+01  0.2000E+01
    -13.668  0.0000E+00  0.0000E+00  0.2000E+01  0.2000E+01
    -13.524  0.0000E+00  0.0000E+00  0.2000E+01  0.2000E+01
    -13.379  0.0000E+00  0.0000E+00  0.2000E+01  0.2000E+01
    -13.235  0.0000E+00  0.0000E+00  0.2000E+01  0.2000E+01
    -13.090  0.0000E+00  0.0000E+00  0.2000E+01  0.2000E+01
    -12.946  0.0000E+00  0.0000E+00  0.2000E+01  0.2000E+01
    -12.801  0.0000E+00  0.0000E+00  0.2000E+01  0.2000E+01
    -12.657  0.0000E+00  0.0000E+00  0.2000E+01  0.2000E+01
    -12.513  0.0000E+00  0.0000E+00  0.2000E+01  0.2000E+01
    -12.368  0.0000E+00  0.0000E+00  0.2000E+01  0.2000E+01
    -12.224  0.0000E+00  0.0000E+00  0.2000E+01  0.2000E+01
    -12.079  0.0000E+00  0.0000E+00  0.2000E+01  0.2000E+01
    -11.935  0.0000E+00  0.0000E+00  0.2000E+01  0.2000E+01
    -11.791  0.0000E+00  0.0000E+00  0.2000E+01  0.2000E+01
    -11.646  0.0000E+00  0.0000E+00  0.2000E+01  0.2000E+01
    -11.502  0.3581E-03  0.3597E-03  0.2000E+01  0.2000E+01
    -11.357  0.9335E-02  0.9376E-02  0.2001E+01  0.2001E+01
    -11.213  0.1646E+00  0.1653E+00  0.2025E+01  0.2025E+01
    -11.068  0.2525E+01  0.2534E+01  0.2390E+01  0.2391E+01
    -10.924  0.1489E+02  0.1491E+02  0.4540E+01  0.4544E+01
    -10.780  0.1773E+02  0.1772E+02  0.7101E+01  0.7104E+01
    -10.635  0.5704E+01  0.5688E+01  0.7925E+01  0.7925E+01
    -10.491  0.4374E+00  0.4357E+00  0.7996E+01  0.7996E+01
    -10.346  0.0000E+00  0.0000E+00  0.8000E+01  0.8000E+01
    -10.202  0.0000E+00  0.0000E+00  0.8000E+01  0.8000E+01
    -10.057  0.0000E+00  0.0000E+00  0.8000E+01  0.8000E+01
     -9.913  0.0000E+00  0.0000E+00  0.8000E+01  0.8000E+01
     -9.769  0.0000E+00  0.0000E+00  0.8000E+01  0.8000E+01
     -9.624  0.0000E+00  0.0000E+00  0.8000E+01  0.8000E+01
     -9.480  0.0000E+00  0.0000E+00  0.8000E+01  0.8000E+01
     -9.335  0.0000E+00  0.0000E+00  0.8000E+01  0.8000E+01
     -9.191  0.0000E+00  0.0000E+00  0.8000E+01  0.8000E+01
     -9.047  0.0000E+00  0.0000E+00  0.8000E+01  0.8000E+01
     -8.902  0.0000E+00  0.0000E+00  0.8000E+01  0.8000E+01
     -8.758  0.0000E+00  0.0000E+00  0.8000E+01  0.8000E+01
     -8.613  0.0000E+00  0.0000E+00  0.8000E+01  0.8000E+01
     -8.469  0.0000E+00  0.0000E+00  0.8000E+01  0.8000E+01
     -8.324  0.0000E+00  0.0000E+00  0.8000E+01  0.8000E+01
     -8.180  0.0000E+00  0.0000E+00  0.8000E+01  0.8000E+01
     -8.036  0.0000E+00  0.0000E+00  0.8000E+01  0.8000E+01
     -7.891  0.0000E+00  0.0000E+00  0.8000E+01  0.8000E+01
     -7.747  0.0000E+00  0.0000E+00  0.8000E+01  0.8000E+01
     -7.602  0.0000E+00  0.0000E+00  0.8000E+01  0.8000E+01
     -7.458  0.0000E+00  0.0000E+00  0.8000E+01  0.8000E+01
     -7.313  0.0000E+00  0.0000E+00  0.8000E+01  0.8000E+01
     -7.169  0.0000E+00  0.0000E+00  0.8000E+01  0.8000E+01
     -7.025  0.0000E+00  0.0000E+00  0.8000E+01  0.8000E+01
     -6.880  0.0000E+00  0.0000E+00  0.8000E+01  0.8000E+01
     -6.736  0.0000E+00  0.0000E+00  0.8000E+01  0.8000E+01
     -6.591  0.0000E+00  0.0000E+00  0.8000E+01  0.8000E+01
     -6.447  0.0000E+00  0.0000E+00  0.8000E+01  0.8000E+01
     -6.303  0.0000E+00  0.0000E+00  0.8000E+01  0.8000E+01
     -6.158  0.0000E+00  0.0000E+00  0.8000E+01  0.8000E+01
     -6.014  0.0000E+00  0.0000E+00  0.8000E+01  0.8000E+01
     -5.869  0.0000E+00  0.0000E+00  0.8000E+01  0.8000E+01
     -5.725  0.0000E+00  0.0000E+00  0.8000E+01  0.8000E+01
     -5.580  0.0000E+00  0.0000E+00  0.8000E+01  0.8000E+01
     -5.436  0.0000E+00  0.0000E+00  0.8000E+01  0.8000E+01
     -5.292  0.0000E+00  0.0000E+00  0.8000E+01  0.8000E+01
     -5.147  0.0000E+00  0.0000E+00  0.8000E+01  0.8000E+01
     -5.003  0.0000E+00  0.0000E+00  0.8000E+01  0.8000E+01
     -4.858  0.0000E+00  0.0000E+00  0.8000E+01  0.8000E+01
     -4.714  0.0000E+00  0.0000E+00  0.8000E+01  0.8000E+01
     -4.569  0.0000E+00  0.0000E+00  0.8000E+01  0.8000E+01
     -4.425  0.0000E+00  0.0000E+00  0.8000E+01  0.8000E+01
     -4.281  0.0000E+00  0.0000E+00  0.8000E+01  0.8000E+01
     -4.136  0.0000E+00  0.0000E+00  0.8000E+01  0.8000E+01
     -3.992  0.0000E+00  0.0000E+00  0.8000E+01  0.8000E+01
     -3.847  0.0000E+00  0.0000E+00  0.8000E+01  0.8000E+01
     -3.703  0.0000E+00  0.0000E+00  0.8000E+01  0.8000E+01
     -3.559  0.0000E+00  0.0000E+00  0.8000E+01  0.8000E+01
     -3.414  0.1915E-06  0.1977E-06  0.8000E+01  0.8000E+01
     -3.270  0.1551E-04  0.1601E-04  0.8000E+01  0.8000E+01
     -3.125  0.2760E-03  0.2849E-03  0.8000E+01  0.8000E+01
     -2.981  0.4674E-02  0.4815E-02  0.8001E+01  0.8001E+01
     -2.836  0.4641E-01  0.4729E-01  0.8007E+01  0.8008E+01
     -2.692  0.1378E+00  0.1388E+00  0.8027E+01  0.8028E+01
     -2.548  0.2281E+00  0.2287E+00  0.8060E+01  0.8061E+01
     -2.403  0.2678E+00  0.2688E+00  0.8099E+01  0.8099E+01
     -2.259  0.3485E+00  0.3488E+00  0.8149E+01  0.8150E+01
     -2.114  0.3774E+00  0.3775E+00  0.8204E+01  0.8204E+01
     -1.970  0.4272E+00  0.4285E+00  0.8266E+01  0.8266E+01
     -1.825  0.5243E+00  0.5242E+00  0.8341E+01  0.8342E+01
     -1.681  0.4684E+00  0.4681E+00  0.8409E+01  0.8410E+01
     -1.537  0.6127E+00  0.6147E+00  0.8498E+01  0.8499E+01
     -1.392  0.6699E+00  0.6694E+00  0.8595E+01  0.8596E+01
     -1.248  0.6375E+00  0.6383E+00  0.8687E+01  0.8688E+01
     -1.103  0.7356E+00  0.7356E+00  0.8793E+01  0.8794E+01
     -0.959  0.8022E+00  0.8042E+00  0.8909E+01  0.8911E+01
     -0.815  0.9545E+00  0.9543E+00  0.9047E+01  0.9049E+01
     -0.670  0.8673E+00  0.8669E+00  0.9173E+01  0.9174E+01
     -0.526  0.9835E+00  0.9848E+00  0.9315E+01  0.9317E+01
     -0.381  0.1117E+01  0.1117E+01  0.9477E+01  0.9478E+01
     -0.237  0.1121E+01  0.1122E+01  0.9639E+01  0.9640E+01
     -0.092  0.1142E+01  0.1142E+01  0.9804E+01  0.9806E+01
      0.052  0.1189E+01  0.1190E+01  0.9976E+01  0.9978E+01
      0.196  0.1435E+01  0.1437E+01  0.1018E+02  0.1019E+02
      0.341  0.1407E+01  0.1405E+01  0.1039E+02  0.1039E+02
      0.485  0.1224E+01  0.1223E+01  0.1056E+02  0.1057E+02
      0.630  0.1103E+01  0.1103E+01  0.1072E+02  0.1073E+02
      0.774  0.1128E+01  0.1127E+01  0.1089E+02  0.1089E+02
      0.919  0.1212E+01  0.1211E+01  0.1106E+02  0.1106E+02
      1.063  0.9410E+00  0.9389E+00  0.1120E+02  0.1120E+02
      1.207  0.1076E+01  0.1079E+01  0.1135E+02  0.1136E+02
      1.352  0.1414E+01  0.1417E+01  0.1156E+02  0.1156E+02
      1.496  0.1521E+01  0.1520E+01  0.1178E+02  0.1178E+02
      1.641  0.1414E+01  0.1414E+01  0.1198E+02  0.1199E+02
      1.785  0.1328E+01  0.1327E+01  0.1218E+02  0.1218E+02
      1.930  0.1519E+01  0.1521E+01  0.1240E+02  0.1240E+02
      2.074  0.1426E+01  0.1421E+01  0.1260E+02  0.1260E+02
      2.218  0.9441E+00  0.9433E+00  0.1274E+02  0.1274E+02
      2.363  0.1198E+01  0.1202E+01  0.1291E+02  0.1291E+02
      2.507  0.1310E+01  0.1308E+01  0.1310E+02  0.1310E+02
      2.652  0.9536E+00  0.9505E+00  0.1324E+02  0.1324E+02
      2.796  0.9070E+00  0.9100E+00  0.1337E+02  0.1337E+02
      2.940  0.1375E+01  0.1378E+01  0.1357E+02  0.1357E+02
      3.085  0.1279E+01  0.1275E+01  0.1376E+02  0.1376E+02
      3.229  0.1078E+01  0.1079E+01  0.1391E+02  0.1391E+02
      3.374  0.1377E+01  0.1379E+01  0.1411E+02  0.1411E+02
      3.518  0.1449E+01  0.1450E+01  0.1432E+02  0.1432E+02
      3.663  0.1726E+01  0.1729E+01  0.1457E+02  0.1457E+02
      3.807  0.1685E+01  0.1684E+01  0.1481E+02  0.1482E+02
      3.951  0.1699E+01  0.1699E+01  0.1506E+02  0.1506E+02
      4.096  0.1700E+01  0.1701E+01  0.1531E+02  0.1531E+02
      4.240  0.1821E+01  0.1823E+01  0.1557E+02  0.1557E+02
      4.385  0.1894E+01  0.1896E+01  0.1584E+02  0.1585E+02
      4.529  0.2152E+01  0.2156E+01  0.1615E+02  0.1616E+02
      4.674  0.2436E+01  0.2438E+01  0.1651E+02  0.1651E+02
      4.818  0.2559E+01  0.2560E+01  0.1688E+02  0.1688E+02
      4.962  0.2434E+01  0.2430E+01  0.1723E+02  0.1723E+02
      5.107  0.1992E+01  0.1988E+01  0.1752E+02  0.1752E+02
      5.251  0.1800E+01  0.1799E+01  0.1778E+02  0.1778E+02
      5.396  0.1633E+01  0.1632E+01  0.1801E+02  0.1802E+02
      5.540  0.1826E+01  0.1830E+01  0.1828E+02  0.1828E+02
      5.684  0.2032E+01  0.2031E+01  0.1857E+02  0.1858E+02
      5.829  0.1676E+01  0.1673E+01  0.1882E+02  0.1882E+02
      5.973  0.1671E+01  0.1671E+01  0.1906E+02  0.1906E+02
      6.118  0.1740E+01  0.1743E+01  0.1931E+02  0.1931E+02
      6.262  0.1987E+01  0.1990E+01  0.1960E+02  0.1960E+02
      6.407  0.2296E+01  0.2301E+01  0.1993E+02  0.1993E+02
      6.551  0.2489E+01  0.2487E+01  0.2029E+02  0.2029E+02
      6.695  0.2109E+01  0.2105E+01  0.2059E+02  0.2060E+02
      6.840  0.2110E+01  0.2111E+01  0.2090E+02  0.2090E+02
      6.984  0.2051E+01  0.2051E+01  0.2120E+02  0.2120E+02
      7.129  0.2075E+01  0.2074E+01  0.2150E+02  0.2150E+02
      7.273  0.1810E+01  0.1806E+01  0.2176E+02  0.2176E+02
      7.418  0.1398E+01  0.1394E+01  0.2196E+02  0.2196E+02
      7.562  0.1435E+01  0.1441E+01  0.2217E+02  0.2217E+02
      7.706  0.2042E+01  0.2047E+01  0.2246E+02  0.2247E+02
      7.851  0.2189E+01  0.2186E+01  0.2278E+02  0.2278E+02
      7.995  0.1874E+01  0.1871E+01  0.2305E+02  0.2305E+02
      8.140  0.1696E+01  0.1696E+01  0.2330E+02  0.2330E+02
      8.284  0.1619E+01  0.1619E+01  0.2353E+02  0.2353E+02
      8.428  0.1777E+01  0.1781E+01  0.2379E+02  0.2379E+02
      8.573  0.2039E+01  0.2041E+01  0.2408E+02  0.2409E+02
      8.717  0.2204E+01  0.2207E+01  0.2440E+02  0.2441E+02
      8.862  0.2670E+01  0.2673E+01  0.2479E+02  0.2479E+02
      9.006  0.3097E+01  0.3093E+01  0.2524E+02  0.2524E+02
      9.151  0.3133E+01  0.3127E+01  0.2569E+02  0.2569E+02
      9.295  0.3055E+01  0.3036E+01  0.2613E+02  0.2613E+02
      9.439  0.2444E+01  0.2442E+01  0.2649E+02  0.2649E+02
      9.584  0.2177E+01  0.2101E+01  0.2680E+02  0.2679E+02
      9.728  0.2186E+01  0.2141E+01  0.2712E+02  0.2710E+02
      9.873  0.1581E+01  0.1617E+01  0.2735E+02  0.2733E+02
     10.017  0.1195E+01  0.1237E+01  0.2752E+02  0.2751E+02
     10.162  0.8995E+00  0.9680E+00  0.2765E+02  0.2765E+02
     10.306  0.6629E+00  0.6074E+00  0.2775E+02  0.2774E+02
     10.450  0.6897E+00  0.6609E+00  0.2785E+02  0.2784E+02
     10.595  0.5298E+00  0.6021E+00  0.2792E+02  0.2792E+02
     10.739  0.3694E+00  0.3820E+00  0.2798E+02  0.2798E+02
     10.884  0.1440E+00  0.1264E+00  0.2800E+02  0.2800E+02
     11.028  0.1662E-01  0.1344E-01  0.2800E+02  0.2800E+02
     11.172  0.6805E-03  0.3550E-03  0.2800E+02  0.2800E+02
     11.317  0.0000E+00  0.0000E+00  0.2800E+02  0.2800E+02
     11.461  0.0000E+00  0.0000E+00  0.2800E+02  0.2800E+02
     11.606  0.0000E+00  0.0000E+00  0.2800E+02  0.2800E+02
     11.750  0.0000E+00  0.0000E+00  0.2800E+02  0.2800E+02
     11.895  0.0000E+00  0.0000E+00  0.2800E+02  0.2800E+02
     12.039  0.0000E+00  0.0000E+00  0.2800E+02  0.2800E+02
     12.183  0.0000E+00  0.0000E+00  0.2800E+02  0.2800E+02
     12.328  0.0000E+00  0.0000E+00  0.2800E+02  0.2800E+02
     12.472  0.0000E+00  0.0000E+00  0.2800E+02  0.2800E+02
     12.617  0.0000E+00  0.0000E+00  0.2800E+02  0.2800E+02
     12.761  0.0000E+00  0.0000E+00  0.2800E+02  0.2800E+02
     12.76111646    -30.56531994  301      5.93830015      1.00000000
    -30.565  0.0000E+00  0.0000E+00  0.0000E+00  0.0000E+00  0.0000E+00  0.0000E+00  0.0000E+00  0.0000E+00  0.0000E+00  0.0000E+00  0.0000E+00  0.0000E+00  0.0000E+00  0.0000E+00  0.0000E+00  0.0000E+00  0.0000E+00  0.0000E+00
    -30.421  0.0000E+00  0.0000E+00  0.0000E+00  0.0000E+00  0.0000E+00  0.0000E+00  0.0000E+00  0.0000E+00  0.0000E+00  0.0000E+00  0.0000E+00  0.0000E+00  0.0000E+00  0.0000E+00  0.0000E+00  0.0000E+00  0.0000E+00  0.0000E+00
    -30.276  0.0000E+00  0.0000E+00  0.0000E+00  0.0000E+00  0.0000E+00  0.0000E+00  0.0000E+00  0.0000E+00  0.0000E+00  0.0000E+00  0.0000E+00  0.0000E+00  0.0000E+00  0.0000E+00  0.0000E+00  0.0000E+00  0.0000E+00  0.0000E+00
    -30.132  0.0000E+00  0.0000E+00  0.0000E+00  0.0000E+00  0.0000E+00  0.0000E+00  0.0000E+00  0.0000E+00  0.0000E+00  0.0000E+00  0.0000E+00  0.0000E+00  0.0000E+00  0.0000E+00  0.0000E+00  0.0000E+00  0.0000E+00  0.0000E+00
    -29.988  0.0000E+00  0.0000E+00  0.0000E+00  0.0000E+00  0.0000E+00  0.0000E+00  0.0000E+00  0.0000E+00  0.0000E+00  0.0000E+00  0.0000E+00  0.0000E+00  0.0000E+00  0.0000E+00  0.0000E+00  0.0000E+00  0.0000E+00  0.0000E+00
    -29.843  0.0000E+00  0.0000E+00  0.0000E+00  0.0000E+00  0.0000E+00  0.0000E+00  0.0000E+00  0.0000E+00  0.0000E+00  0.0000E+00  0.0000E+00  0.0000E+00  0.0000E+00  0.0000E+00  0.0000E+00  0.0000E+00  0.0000E+00  0.0000E+00
    -29.699  0.0000E+00  0.0000E+00  0.0000E+00  0.0000E+00  0.0000E+00  0.0000E+00  0.0000E+00  0.0000E+00  0.0000E+00  0.0000E+00  0.0000E+00  0.0000E+00  0.0000E+00  0.0000E+00  0.0000E+00  0.0000E+00  0.0000E+00  0.0000E+00
    -29.554  0.0000E+00  0.0000E+00  0.0000E+00  0.0000E+00  0.0000E+00  0.0000E+00  0.0000E+00  0.0000E+00  0.0000E+00  0.0000E+00  0.0000E+00  0.0000E+00  0.0000E+00  0.0000E+00  0.0000E+00  0.0000E+00  0.0000E+00  0.0000E+00
    -29.410  0.0000E+00  0.0000E+00  0.0000E+00  0.0000E+00  0.0000E+00  0.0000E+00  0.0000E+00  0.0000E+00  0.0000E+00  0.0000E+00  0.0000E+00  0.0000E+00  0.0000E+00  0.0000E+00  0.0000E+00  0.0000E+00  0.0000E+00  0.0000E+00
    -29.266  0.0000E+00  0.0000E+00  0.0000E+00  0.0000E+00  0.0000E+00  0.0000E+00  0.0000E+00  0.0000E+00  0.0000E+00  0.0000E+00  0.0000E+00  0.0000E+00  0.0000E+00  0.0000E+00  0.0000E+00  0.0000E+00  0.0000E+00  0.0000E+00
    -29.121  0.1630E-03  0.1640E-03  0.6324E-11  0.6384E-11  0.2475E-12  0.2502E-12  0.6324E-11  0.6384E-11  0.8139E-14  0.7996E-14  0.3746E-13  0.3932E-13  0.4006E-09  0.4030E-09  0.3746E-13  0.3932E-13  0.3308E-11  0.3356E-11
    -28.977  0.2764E-02  0.2781E-02  0.1072E-09  0.1083E-09  0.4196E-11  0.4243E-11  0.1072E-09  0.1083E-09  0.1380E-12  0.1356E-12  0.6352E-12  0.6668E-12  0.6794E-08  0.6835E-08  0.6352E-12  0.6668E-12  0.5609E-10  0.5692E-10
    -28.832  0.4927E-01  0.4957E-01  0.1912E-08  0.1930E-08  0.7478E-10  0.7561E-10  0.1912E-08  0.1930E-08  0.2461E-11  0.2418E-11  0.1132E-10  0.1189E-10  0.1211E-06  0.1218E-06  0.1132E-10  0.1189E-10  0.1000E-08  0.1015E-08
    -28.688  0.7766E+00  0.7808E+00  0.3013E-07  0.3039E-07  0.1172E-08  0.1184E-08  0.3013E-07  0.3039E-07  0.3902E-10  0.3826E-10  0.1786E-09  0.1874E-09  0.1910E-05  0.1920E-05  0.1786E-09  0.1874E-09  0.1577E-07  0.1599E-07
    -28.543  0.4002E+01  0.4006E+01  0.1551E-06  0.1557E-06  0.5830E-08  0.5860E-08  0.1551E-06  0.1557E-06  0.2078E-09  0.2016E-09  0.9220E-09  0.9640E-09  0.9873E-05  0.9880E-05  0.9220E-09  0.9640E-09  0.8138E-07  0.8213E-07
    -28.399  0.1780E+01  0.1772E+01  0.6880E-07  0.6875E-07  0.2484E-08  0.2481E-08  0.6880E-07  0.6875E-07  0.9612E-10  0.9207E-10  0.4106E-09  0.4274E-09  0.4406E-05  0.4385E-05  0.4106E-09  0.4274E-09  0.3619E-07  0.3632E-07
    -28.255  0.1385E+00  0.1377E+00  0.5350E-08  0.5336E-08  0.1905E-09  0.1900E-09  0.5350E-08  0.5336E-08  0.7578E-11  0.7229E-11  0.3196E-10  0.3321E-10  0.3433E-06  0.3411E-06  0.3196E-10  0.3321E-10  0.2815E-08  0.2820E-08
    -28.110  0.0000E+00  0.0000E+00  0.0000E+00  0.0000E+00  0.0000E+00  0.0000E+00  0.0000E+00  0.0000E+00  0.0000E+00  0.0000E+00  0.0000E+00  0.0000E+00  0.0000E+00  0.0000E+00  0.0000E+00  0.0000E+00  0.0000E+00  0.0000E+00
    -27.966  0.0000E+00  0.0000E+00  0.0000E+00  0.0000E+00  0.0000E+00  0.0000E+00  0.0000E+00  0.0000E+00  0.0000E+00  0.0000E+00  0.0000E+00  0.0000E+00  0.0000E+00  0.0000E+00  0.0000E+00  0.0000E+00  0.0000E+00  0.0000E+00
    -27.821  0.0000E+00  0.0000E+00  0.0000E+00  0.0000E+00  0.0000E+00  0.0000E+00  0.0000E+00  0.0000E+00  0.0000E+00  0.0000E+00  0.0000E+00  0.0000E+00  0.0000E+00  0.0000E+00  0.0000E+00  0.0000E+00  0.0000E+00  0.0000E+00
    -27.677  0.0000E+00  0.0000E+00  0.0000E+00  0.0000E+00  0.0000E+00  0.0000E+00  0.0000E+00  0.0000E+00  0.0000E+00  0.0000E+00  0.0000E+00  0.0000E+00  0.0000E+00  0.0000E+00  0.0000E+00  0.0000E+00  0.0000E+00  0.0000E+00
    -27.532  0.0000E+00  0.0000E+00  0.0000E+00  0.0000E+00  0.0000E+00  0.0000E+00  0.0000E+00  0.0000E+00  0.0000E+00  0.0000E+00  0.0000E+00  0.0000E+00  0.0000E+00  0.0000E+00  0.0000E+00  0.0000E+00  0.0000E+00  0.0000E+00
    -27.388  0.0000E+00  0.0000E+00  0.0000E+00  0.0000E+00  0.0000E+00  0.0000E+00  0.0000E+00  0.0000E+00  0.0000E+00  0.0000E+00  0.0000E+00  0.0000E+00  0.0000E+00  0.0000E+00  0.0000E+00  0.0000E+00  0.0000E+00  0.0000E+00
    -27.244  0.0000E+00  0.0000E+00  0.0000E+00  0.0000E+00  0.0000E+00  0.0000E+00  0.0000E+00  0.0000E+00  0.0000E+00  0.0000E+00  0.0000E+00  0.0000E+00  0.0000E+00  0.0000E+00  0.0000E+00  0.0000E+00  0.0000E+00  0.0000E+00
    -27.099  0.0000E+00  0.0000E+00  0.0000E+00  0.0000E+00  0.0000E+00  0.0000E+00  0.0000E+00  0.0000E+00  0.0000E+00  0.0000E+00  0.0000E+00  0.0000E+00  0.0000E+00  0.0000E+00  0.0000E+00  0.0000E+00  0.0000E+00  0.0000E+00
    -26.955  0.0000E+00  0.0000E+00  0.0000E+00  0.0000E+00  0.0000E+00  0.0000E+00  0.0000E+00  0.0000E+00  0.0000E+00  0.0000E+00  0.0000E+00  0.0000E+00  0.0000E+00  0.0000E+00  0.0000E+00  0.0000E+00  0.0000E+00  0.0000E+00
    -26.810  0.0000E+00  0.0000E+00  0.0000E+00  0.0000E+00  0.0000E+00  0.0000E+00  0.0000E+00  0.0000E+00  0.0000E+00  0.0000E+00  0.0000E+00  0.0000E+00  0.0000E+00  0.0000E+00  0.0000E+00  0.0000E+00  0.0000E+00  0.0000E+00
    -26.666  0.0000E+00  0.0000E+00  0.0000E+00  0.0000E+00  0.0000E+00  0.0000E+00  0.0000E+00  0.0000E+00  0.0000E+00  0.0000E+00  0.0000E+00  0.0000E+00  0.0000E+00  0.0000E+00  0.0000E+00  0.0000E+00  0.0000E+00  0.0000E+00
    -26.522  0.0000E+00  0.0000E+00  0.0000E+00  0.0000E+00  0.0000E+00  0.0000E+00  0.0000E+00  0.0000E+00  0.0000E+00  0.0000E+00  0.0000E+00  0.0000E+00  0.0000E+00  0.0000E+00  0.0000E+00  0.0000E+00  0.0000E+00  0.0000E+00
    -26.377  0.0000E+00  0.0000E+00  0.0000E+00  0.0000E+00  0.0000E+00  0.0000E+00  0.0000E+00  0.0000E+00  0.0000E+00  0.0000E+00  0.0000E+00  0.0000E+00  0.0000E+00  0.0000E+00  0.0000E+00  0.0000E+00  0.0000E+00  0.0000E+00
    -26.233  0.0000E+00  0.0000E+00  0.0000E+00  0.0000E+00  0.0000E+00  0.0000E+00  0.0000E+00  0.0000E+00  0.0000E+00  0.0000E+00  0.0000E+00  0.0000E+00  0.0000E+00  0.0000E+00  0.0000E+00  0.0000E+00  0.0000E+00  0.0000E+00
    -26.088  0.0000E+00  0.0000E+00  0.0000E+00  0.0000E+00  0.0000E+00  0.0000E+00  0.0000E+00  0.0000E+00  0.0000E+00  0.0000E+00  0.0000E+00  0.0000E+00  0.0000E+00  0.0000E+00  0.0000E+00  0.0000E+00  0.0000E+00  0.0000E+00
    -25.944  0.0000E+00  0.0000E+00  0.0000E+00  0.0000E+00  0.0000E+00  0.0000E+00  0.0000E+00  0.0000E+00  0.0000E+00  0.0000E+00  0.0000E+00  0.0000E+00  0.0000E+00  0.0000E+00  0.0000E+00  0.0000E+00  0.0000E+00  0.0000E+00
    -25.799  0.0000E+00  0.0000E+00  0.0000E+00  0.0000E+00  0.0000E+00  0.0000E+00  0.0000E+00  0.0000E+00  0.0000E+00  0.0000E+00  0.0000E+00  0.0000E+00  0.0000E+00  0.0000E+00  0.0000E+00  0.0000E+00  0.0000E+00  0.0000E+00
    -25.655  0.0000E+00  0.0000E+00  0.0000E+00  0.0000E+00  0.0000E+00  0.0000E+00  0.0000E+00  0.0000E+00  0.0000E+00  0.0000E+00  0.0000E+00  0.0000E+00  0.0000E+00  0.0000E+00  0.0000E+00  0.0000E+00  0.0000E+00  0.0000E+00
    -25.511  0.0000E+00  0.0000E+00  0.0000E+00  0.0000E+00  0.0000E+00  0.0000E+00  0.0000E+00  0.0000E+00  0.0000E+00  0.0000E+00  0.0000E+00  0.0000E+00  0.0000E+00  0.0000E+00  0.0000E+00  0.0000E+00  0.0000E+00  0.0000E+00
    -25.366  0.0000E+00  0.0000E+00  0.0000E+00  0.0000E+00  0.0000E+00  0.0000E+00  0.0000E+00  0.0000E+00  0.0000E+00  0.0000E+00  0.0000E+00  0.0000E+00  0.0000E+00  0.0000E+00  0.0000E+00  0.0000E+00  0.0000E+00  0.0000E+00
    -25.222  0.0000E+00  0.0000E+00  0.0000E+00  0.0000E+00  0.0000E+00  0.0000E+00  0.0000E+00  0.0000E+00  0.0000E+00  0.0000E+00  0.0000E+00  0.0000E+00  0.0000E+00  0.0000E+00  0.0000E+00  0.0000E+00  0.0000E+00  0.0000E+00
    -25.077  0.0000E+00  0.0000E+00  0.0000E+00  0.0000E+00  0.0000E+00  0.0000E+00  0.0000E+00  0.0000E+00  0.0000E+00  0.0000E+00  0.0000E+00  0.0000E+00  0.0000E+00  0.0000E+00  0.0000E+00  0.0000E+00  0.0000E+00  0.0000E+00
    -24.933  0.0000E+00  0.0000E+00  0.0000E+00  0.0000E+00  0.0000E+00  0.0000E+00  0.0000E+00  0.0000E+00  0.0000E+00  0.0000E+00  0.0000E+00  0.0000E+00  0.0000E+00  0.0000E+00  0.0000E+00  0.0000E+00  0.0000E+00  0.0000E+00
    -24.788  0.0000E+00  0.0000E+00  0.0000E+00  0.0000E+00  0.0000E+00  0.0000E+00  0.0000E+00  0.0000E+00  0.0000E+00  0.0000E+00  0.0000E+00  0.0000E+00  0.0000E+00  0.0000E+00  0.0000E+00  0.0000E+00  0.0000E+00  0.0000E+00
    -24.644  0.0000E+00  0.0000E+00  0.0000E+00  0.0000E+00  0.0000E+00  0.0000E+00  0.0000E+00  0.0000E+00  0.0000E+00  0.0000E+00  0.0000E+00  0.0000E+00  0.0000E+00  0.0000E+00  0.0000E+00  0.0000E+00  0.0000E+00  0.0000E+00
    -24.500  0.0000E+00  0.0000E+00  0.0000E+00  0.0000E+00  0.0000E+00  0.0000E+00  0.0000E+00  0.0000E+00  0.0000E+00  0.0000E+00  0.0000E+00  0.0000E+00  0.0000E+00  0.0000E+00  0.0000E+00  0.0000E+00  0.0000E+00  0.0000E+00
    -24.355  0.0000E+00  0.0000E+00  0.0000E+00  0.0000E+00  0.0000E+00  0.0000E+00  0.0000E+00  0.0000E+00  0.0000E+00  0.0000E+00  0.0000E+00  0.0000E+00  0.0000E+00  0.0000E+00  0.0000E+00  0.0000E+00  0.0000E+00  0.0000E+00
    -24.211  0.0000E+00  0.0000E+00  0.0000E+00  0.0000E+00  0.0000E+00  0.0000E+00  0.0000E+00  0.0000E+00  0.0000E+00  0.0000E+00  0.0000E+00  0.0000E+00  0.0000E+00  0.0000E+00  0.0000E+00  0.0000E+00  0.0000E+00  0.0000E+00
    -24.066  0.0000E+00  0.0000E+00  0.0000E+00  0.0000E+00  0.0000E+00  0.0000E+00  0.0000E+00  0.0000E+00  0.0000E+00  0.0000E+00  0.0000E+00  0.0000E+00  0.0000E+00  0.0000E+00  0.0000E+00  0.0000E+00  0.0000E+00  0.0000E+00
    -23.922  0.0000E+00  0.0000E+00  0.0000E+00  0.0000E+00  0.0000E+00  0.0000E+00  0.0000E+00  0.0000E+00  0.0000E+00  0.0000E+00  0.0000E+00  0.0000E+00  0.0000E+00  0.0000E+00  0.0000E+00  0.0000E+00  0.0000E+00  0.0000E+00
    -23.778  0.0000E+00  0.0000E+00  0.0000E+00  0.0000E+00  0.0000E+00  0.0000E+00  0.0000E+00  0.0000E+00  0.0000E+00  0.0000E+00  0.0000E+00  0.0000E+00  0.0000E+00  0.0000E+00  0.0000E+00  0.0000E+00  0.0000E+00  0.0000E+00
    -23.633  0.0000E+00  0.0000E+00  0.0000E+00  0.0000E+00  0.0000E+00  0.0000E+00  0.0000E+00  0.0000E+00  0.0000E+00  0.0000E+00  0.0000E+00  0.0000E+00  0.0000E+00  0.0000E+00  0.0000E+00  0.0000E+00  0.0000E+00  0.0000E+00
    -23.489  0.0000E+00  0.0000E+00  0.0000E+00  0.0000E+00  0.0000E+00  0.0000E+00  0.0000E+00  0.0000E+00  0.0000E+00  0.0000E+00  0.0000E+00  0.0000E+00  0.0000E+00  0.0000E+00  0.0000E+00  0.0000E+00  0.0000E+00  0.0000E+00
    -23.344  0.0000E+00  0.0000E+00  0.0000E+00  0.0000E+00  0.0000E+00  0.0000E+00  0.0000E+00  0.0000E+00  0.0000E+00  0.0000E+00  0.0000E+00  0.0000E+00  0.0000E+00  0.0000E+00  0.0000E+00  0.0000E+00  0.0000E+00  0.0000E+00