   8   8   1   0
  0.2437160E+02  0.4684424E-09  0.4684424E-09  0.8885086E-09  0.5000000E-15
  1.000000000000000E-004
  CAR 
 unknown system                          
     10.93209874    -32.35406740  301      4.55919166      1.00000000
    -32.354  0.0000E+00  0.0000E+00  0.0000E+00  0.0000E+00
    -32.210  0.0000E+00  0.0000E+00  0.0000E+00  0.0000E+00
    -32.065  0.0000E+00  0.0000E+00  0.0000E+00  0.0000E+00
    -31.921  0.0000E+00  0.0000E+00  0.0000E+00  0.0000E+00
    -31.777  0.0000E+00  0.0000E+00  0.0000E+00  0.0000E+00
    -31.633  0.0000E+00  0.0000E+00  0.0000E+00  0.0000E+00
    -31.488  0.0000E+00  0.0000E+00  0.0000E+00  0.0000E+00
    -31.344  0.0000E+00  0.0000E+00  0.0000E+00  0.0000E+00
    -31.200  0.0000E+00  0.0000E+00  0.0000E+00  0.0000E+00
    -31.055  0.0000E+00  0.0000E+00  0.0000E+00  0.0000E+00
    -30.911  0.3675E-03  0.3667E-03  0.5303E-04  0.5290E-04
    -30.767  0.6214E-02  0.6200E-02  0.9496E-03  0.9475E-03
    -30.623  0.1104E+00  0.1101E+00  0.1688E-01  0.1684E-01
    -30.478  0.1717E+01  0.1714E+01  0.2646E+00  0.2641E+00
    -30.334  0.8313E+01  0.8310E+01  0.1464E+01  0.1463E+01
    -30.190  0.3437E+01  0.3443E+01  0.1960E+01  0.1960E+01
    -30.045  0.2618E+00  0.2624E+00  0.1998E+01  0.1998E+01
    -29.901  0.0000E+00  0.0000E+00  0.2000E+01  0.2000E+01
    -29.757  0.0000E+00  0.0000E+00  0.2000E+01  0.2000E+01
    -29.613  0.0000E+00  0.0000E+00  0.2000E+01  0.2000E+01
    -29.468  0.0000E+00  0.0000E+00  0.2000E+01  0.2000E+01
    -29.324  0.0000E+00  0.0000E+00  0.2000E+01  0.2000E+01
    -29.180  0.0000E+00  0.0000E+00  0.2000E+01  0.2000E+01
    -29.035  0.0000E+00  0.0000E+00  0.2000E+01  0.2000E+01
    -28.891  0.0000E+00  0.0000E+00  0.2000E+01  0.2000E+01
    -28.747  0.0000E+00  0.0000E+00  0.2000E+01  0.2000E+01
    -28.603  0.0000E+00  0.0000E+00  0.2000E+01  0.2000E+01
    -28.458  0.0000E+00  0.0000E+00  0.2000E+01  0.2000E+01
    -28.314  0.0000E+00  0.0000E+00  0.2000E+01  0.2000E+01
    -28.170  0.0000E+00  0.0000E+00  0.2000E+01  0.2000E+01
    -28.025  0.0000E+00  0.0000E+00  0.2000E+01  0.2000E+01
    -27.881  0.0000E+00  0.0000E+00  0.2000E+01  0.2000E+01
    -27.737  0.0000E+00  0.0000E+00  0.2000E+01  0.2000E+01
    -27.593  0.0000E+00  0.0000E+00  0.2000E+01  0.2000E+01
    -27.448  0.0000E+00  0.0000E+00  0.2000E+01  0.2000E+01
    -27.304  0.0000E+00  0.0000E+00  0.2000E+01  0.2000E+01
    -27.160  0.0000E+00  0.0000E+00  0.2000E+01  0.2000E+01
    -27.015  0.0000E+00  0.0000E+00  0.2000E+01  0.2000E+01
    -26.871  0.0000E+00  0.0000E+00  0.2000E+01  0.2000E+01
    -26.727  0.0000E+00  0.0000E+00  0.2000E+01  0.2000E+01
    -26.583  0.0000E+00  0.0000E+00  0.2000E+01  0.2000E+01
    -26.438  0.0000E+00  0.0000E+00  0.2000E+01  0.2000E+01
    -26.294  0.0000E+00  0.0000E+00  0.2000E+01  0.2000E+01
    -26.150  0.0000E+00  0.0000E+00  0.2000E+01  0.2000E+01
    -26.005  0.0000E+00  0.0000E+00  0.2000E+01  0.2000E+01
    -25.861  0.0000E+00  0.0000E+00  0.2000E+01  0.2000E+01
    -25.717  0.0000E+00  0.0000E+00  0.2000E+01  0.2000E+01
    -25.573  0.0000E+00  0.0000E+00  0.2000E+01  0.2000E+01
    -25.428  0.0000E+00  0.0000E+00  0.2000E+01  0.2000E+01
    -25.284  0.0000E+00  0.0000E+00  0.2000E+01  0.2000E+01
    -25.140  0.0000E+00  0.0000E+00  0.2000E+01  0.2000E+01
    -24.995  0.0000E+00  0.0000E+00  0.2000E+01  0.2000E+01
    -24.851  0.0000E+00  0.0000E+00  0.2000E+01  0.2000E+01
    -24.707  0.0000E+00  0.0000E+00  0.2000E+01  0.2000E+01
    -24.563  0.0000E+00  0.0000E+00  0.2000E+01  0.2000E+01
    -24.418  0.0000E+00  0.0000E+00  0.2000E+01  0.2000E+01
    -24.274  0.0000E+00  0.0000E+00  0.2000E+01  0.2000E+01
    -24.130  0.0000E+00  0.0000E+00  0.2000E+01  0.2000E+01
    -23.985  0.0000E+00  0.0000E+00  0.2000E+01  0.2000E+01
    -23.841  0.0000E+00  0.0000E+00  0.2000E+01  0.2000E+01
    -23.697  0.0000E+00  0.0000E+00  0.2000E+01  0.2000E+01
    -23.553  0.0000E+00  0.0000E+00  0.2000E+01  0.2000E+01
    -23.408  0.0000E+00  0.0000E+00  0.2000E+01  0.2000E+01
    -23.264  0.0000E+00  0.0000E+00  0.2000E+01  0.2000E+01
    -23.120  0.0000E+00  0.0000E+00  0.2000E+01  0.2000E+01
    -22.975  0.0000E+00  0.0000E+00  0.2000E+01  0.2000E+01
    -22.831  0.0000E+00  0.0000E+00  0.2000E+01  0.2000E+01
    -22.687  0.0000E+00  0.0000E+00  0.2000E+01  0.2000E+01
    -22.543  0.0000E+00  0.0000E+00  0.2000E+01  0.2000E+01
    -22.398  0.0000E+00  0.0000E+00  0.2000E+01  0.2000E+01
    -22.254  0.0000E+00  0.0000E+00  0.2000E+01  0.2000E+01
    -22.110  0.0000E+00  0.0000E+00  0.2000E+01  0.2000E+01
    -21.965  0.0000E+00  0.0000E+00  0.2000E+01  0.2000E+01
    -21.821  0.0000E+00  0.0000E+00  0.2000E+01  0.2000E+01
    -21.677  0.0000E+00  0.0000E+00  0.2000E+01  0.2000E+01
    -21.533  0.0000E+00  0.0000E+00  0.2000E+01  0.2000E+01
    -21.388  0.0000E+00  0.0000E+00  0.2000E+01  0.2000E+01
    -21.244  0.0000E+00  0.0000E+00  0.2000E+01  0.2000E+01
    -21.100  0.0000E+00  0.0000E+00  0.2000E+01  0.2000E+01
    -20.955  0.0000E+00  0.0000E+00  0.2000E+01  0.2000E+01
    -20.811  0.0000E+00  0.0000E+00  0.2000E+01  0.2000E+01
    -20.667  0.0000E+00  0.0000E+00  0.2000E+01  0.2000E+01
    -20.523  0.0000E+00  0.0000E+00  0.2000E+01  0.2000E+01
    -20.378  0.0000E+00  0.0000E+00  0.2000E+01  0.2000E+01
    -20.234  0.0000E+00  0.0000E+00  0.2000E+01  0.2000E+01
    -20.090  0.0000E+00  0.0000E+00  0.2000E+01  0.2000E+01
    -19.945  0.0000E+00  0.0000E+00  0.2000E+01  0.2000E+01
    -19.801  0.0000E+00  0.0000E+00  0.2000E+01  0.2000E+01
    -19.657  0.0000E+00  0.0000E+00  0.2000E+01  0.2000E+01
    -19.513  0.0000E+00  0.0000E+00  0.2000E+01  0.2000E+01
    -19.368  0.0000E+00  0.0000E+00  0.2000E+01  0.2000E+01
    -19.224  0.0000E+00  0.0000E+00  0.2000E+01  0.2000E+01
    -19.080  0.0000E+00  0.0000E+00  0.2000E+01  0.2000E+01
    -18.935  0.0000E+00  0.0000E+00  0.2000E+01  0.2000E+01
    -18.791  0.0000E+00  0.0000E+00  0.2000E+01  0.2000E+01
    -18.647  0.0000E+00  0.0000E+00  0.2000E+01  0.2000E+01
    -18.502  0.0000E+00  0.0000E+00  0.2000E+01  0.2000E+01
    -18.358  0.0000E+00  0.0000E+00  0.2000E+01  0.2000E+01
    -18.214  0.0000E+00  0.0000E+00  0.2000E+01  0.2000E+01
    -18.070  0.0000E+00  0.0000E+00  0.2000E+01  0.2000E+01
    -17.925  0.0000E+00  0.0000E+00  0.2000E+01  0.2000E+01
    -17.781  0.0000E+00  0.0000E+00  0.2000E+01  0.2000E+01
    -17.637  0.0000E+00  0.0000E+00  0.2000E+01  0.2000E+01
    -17.492  0.0000E+00  0.0000E+00  0.2000E+01  0.2000E+01
    -17.348  0.0000E+00  0.0000E+00  0.2000E+01  0.2000E+01
    -17.204  0.0000E+00  0.0000E+00  0.2000E+01  0.2000E+01
    -17.060  0.0000E+00  0.0000E+00  0.2000E+01  0.2000E+01
    -16.915  0.0000E+00  0.0000E+00  0.2000E+01  0.2000E+01
    -16.771  0.0000E+00  0.0000E+00  0.2000E+01  0.2000E+01
    -16.627  0.0000E+00  0.0000E+00  0.2000E+01  0.2000E+01
    -16.482  0.0000E+00  0.0000E+00  0.2000E+01  0.2000E+01
    -16.338  0.0000E+00  0.0000E+00  0.2000E+01  0.2000E+01
    -16.194  0.0000E+00  0.0000E+00  0.2000E+01  0.2000E+01
    -16.050  0.0000E+00  0.0000E+00  0.2000E+01  0.2000E+01
    -15.905  0.0000E+00  0.0000E+00  0.2000E+01  0.2000E+01
    -15.761  0.0000E+00  0.0000E+00  0.2000E+01  0.2000E+01
    -15.617  0.0000E+00  0.0000E+00  0.2000E+01  0.2000E+01
    -15.472  0.0000E+00  0.0000E+00  0.2000E+01  0.2000E+01
    -15.328  0.0000E+00  0.0000E+00  0.2000E+01  0.2000E+01
    -15.184  0.0000E+00  0.0000E+00  0.2000E+01  0.2000E+01
    -15.040  0.0000E+00  0.0000E+00  0.2000E+01  0.2000E+01
    -14.895  0.0000E+00  0.0000E+00  0.2000E+01  0.2000E+01
    -14.751  0.0000E+00  0.0000E+00  0.2000E+01  0.2000E+01
    -14.607  0.0000E+00  0.0000E+00  0.2000E+01  0.2000E+01
    -14.462  0.0000E+00  0.0000E+00  0.2000E+01  0.2000E+01
    -14.318  0.0000E+00  0.0000E+00  0.2000E+01  0.2000E+01
    -14.174  0.0000E+00  0.0000E+00  0.2000E+01  0.2000E+01
    -14.030  0.0000E+00  0.0000E+00  0.2000E+01  0.2000E+01
    -13.885  0.0000E+00  0.0000E+00  0.2000E+01  0.2000E+01
    -13.741  0.0000E+00  0.0000E+00  0.2000E+01  0.2000E+01
    -13.597  0.0000E+00  0.0000E+00  0.2000E+01  0.2000E+01
    -13.452  0.0000E+00  0.0000E+00  0.2000E+01  0.2000E+01
    -13.308  0.0000E+00  0.0000E+00  0.2000E+01  0.2000E+01
    -13.164  0.7627E-05  0.5531E-05  0.2000E+01  0.2000E+01
    -13.020  0.4337E-02  0.4270E-02  0.2001E+01  0.2001E+01
    -12.875  0.7328E-01  0.7212E-01  0.2011E+01  0.2011E+01
    -12.731  0.1246E+01  0.1228E+01  0.2191E+01  0.2188E+01
    -12.587  0.1224E+02  0.1214E+02  0.3957E+01  0.3939E+01
    -12.442  0.2209E+02  0.2215E+02  0.7144E+01  0.7135E+01
    -12.298  0.5515E+01  0.5576E+01  0.7940E+01  0.7939E+01
    -12.154  0.3396E+00  0.3479E+00  0.7997E+01  0.7997E+01
    -12.010  0.0000E+00  0.0000E+00  0.8000E+01  0.8000E+01
    -11.865  0.0000E+00  0.0000E+00  0.8000E+01  0.8000E+01
    -11.721  0.0000E+00  0.0000E+00  0.8000E+01  0.8000E+01
    -11.577  0.0000E+00  0.0000E+00  0.8000E+01  0.8000E+01
    -11.432  0.0000E+00  0.0000E+00  0.8000E+01  0.8000E+01
    -11.288  0.0000E+00  0.0000E+00  0.8000E+01  0.8000E+01
    -11.144  0.0000E+00  0.0000E+00  0.8000E+01  0.8000E+01
    -11.000  0.0000E+00  0.0000E+00  0.8000E+01  0.8000E+01
    -10.855  0.0000E+00  0.0000E+00  0.8000E+01  0.8000E+01
    -10.711  0.0000E+00  0.0000E+00  0.8000E+01  0.8000E+01
    -10.567  0.0000E+00  0.0000E+00  0.8000E+01  0.8000E+01
    -10.422  0.0000E+00  0.0000E+00  0.8000E+01  0.8000E+01
    -10.278  0.0000E+00  0.0000E+00  0.8000E+01  0.8000E+01
    -10.134  0.0000E+00  0.0000E+00  0.8000E+01  0.8000E+01
     -9.990  0.0000E+00  0.0000E+00  0.8000E+01  0.8000E+01
     -9.845  0.0000E+00  0.0000E+00  0.8000E+01  0.8000E+01
     -9.701  0.0000E+00  0.0000E+00  0.8000E+01  0.8000E+01
     -9.557  0.0000E+00  0.0000E+00  0.8000E+01  0.8000E+01
     -9.412  0.0000E+00  0.0000E+00  0.8000E+01  0.8000E+01
     -9.268  0.0000E+00  0.0000E+00  0.8000E+01  0.8000E+01
     -9.124  0.0000E+00  0.0000E+00  0.8000E+01  0.8000E+01
     -8.980  0.0000E+00  0.0000E+00  0.8000E+01  0.8000E+01
     -8.835  0.0000E+00  0.0000E+00  0.8000E+01  0.8000E+01
     -8.691  0.0000E+00  0.0000E+00  0.8000E+01  0.8000E+01
     -8.547  0.0000E+00  0.0000E+00  0.8000E+01  0.8000E+01
     -8.402  0.0000E+00  0.0000E+00  0.8000E+01  0.8000E+01
     -8.258  0.0000E+00  0.0000E+00  0.8000E+01  0.8000E+01
     -8.114  0.0000E+00  0.0000E+00  0.8000E+01  0.8000E+01
     -7.970  0.0000E+00  0.0000E+00  0.8000E+01  0.8000E+01
     -7.825  0.0000E+00  0.0000E+00  0.8000E+01  0.8000E+01
     -7.681  0.0000E+00  0.0000E+00  0.8000E+01  0.8000E+01
     -7.537  0.0000E+00  0.0000E+00  0.8000E+01  0.8000E+01
     -7.392  0.0000E+00  0.0000E+00  0.8000E+01  0.8000E+01
     -7.248  0.0000E+00  0.0000E+00  0.8000E+01  0.8000E+01
     -7.104  0.0000E+00  0.0000E+00  0.8000E+01  0.8000E+01
     -6.960  0.0000E+00  0.0000E+00  0.8000E+01  0.8000E+01
     -6.815  0.0000E+00  0.0000E+00  0.8000E+01  0.8000E+01
     -6.671  0.0000E+00  0.0000E+00  0.8000E+01  0.8000E+01
     -6.527  0.0000E+00  0.0000E+00  0.8000E+01  0.8000E+01
     -6.382  0.0000E+00  0.0000E+00  0.8000E+01  0.8000E+01
     -6.238  0.0000E+00  0.0000E+00  0.8000E+01  0.8000E+01
     -6.094  0.0000E+00  0.0000E+00  0.8000E+01  0.8000E+01
     -5.950  0.0000E+00  0.0000E+00  0.8000E+01  0.8000E+01
     -5.805  0.0000E+00  0.0000E+00  0.8000E+01  0.8000E+01
     -5.661  0.0000E+00  0.0000E+00  0.8000E+01  0.8000E+01
     -5.517  0.0000E+00  0.0000E+00  0.8000E+01  0.8000E+01
     -5.372  0.0000E+00  0.0000E+00  0.8000E+01  0.8000E+01
     -5.228  0.0000E+00  0.0000E+00  0.8000E+01  0.8000E+01
     -5.084  0.0000E+00  0.0000E+00  0.8000E+01  0.8000E+01
     -4.939  0.0000E+00  0.0000E+00  0.8000E+01  0.8000E+01
     -4.795  0.0000E+00  0.0000E+00  0.8000E+01  0.8000E+01
     -4.651  0.0000E+00  0.0000E+00  0.8000E+01  0.8000E+01
     -4.507  0.0000E+00  0.0000E+00  0.8000E+01  0.8000E+01
     -4.362  0.0000E+00  0.0000E+00  0.8000E+01  0.8000E+01
     -4.218  0.0000E+00  0.0000E+00  0.8000E+01  0.8000E+01
     -4.074  0.0000E+00  0.0000E+00  0.8000E+01  0.8000E+01
     -3.929  0.3182E-05  0.2228E-05  0.8000E+01  0.8000E+01
     -3.785  0.7333E-04  0.7226E-04  0.8000E+01  0.8000E+01
     -3.641  0.1304E-02  0.1270E-02  0.8000E+01  0.8000E+01
     -3.497  0.1942E-01  0.1899E-01  0.8003E+01  0.8003E+01
     -3.352  0.1157E+00  0.1145E+00  0.8020E+01  0.8019E+01
     -3.208  0.2469E+00  0.2458E+00  0.8055E+01  0.8055E+01
     -3.064  0.3295E+00  0.3286E+00  0.8103E+01  0.8102E+01
     -2.919  0.4211E+00  0.4206E+00  0.8164E+01  0.8163E+01
     -2.775  0.4622E+00  0.4617E+00  0.8230E+01  0.8230E+01
     -2.631  0.5813E+00  0.5805E+00  0.8314E+01  0.8314E+01
     -2.487  0.5801E+00  0.5805E+00  0.8398E+01  0.8398E+01
     -2.342  0.6889E+00  0.6869E+00  0.8498E+01  0.8497E+01
     -2.198  0.7653E+00  0.7658E+00  0.8608E+01  0.8607E+01
     -2.054  0.7804E+00  0.7791E+00  0.8721E+01  0.8720E+01
     -1.909  0.8713E+00  0.8708E+00  0.8847E+01  0.8846E+01
     -1.765  0.1030E+01  0.1028E+01  0.8996E+01  0.8994E+01
     -1.621  0.1036E+01  0.1037E+01  0.9145E+01  0.9144E+01
     -1.477  0.1085E+01  0.1083E+01  0.9302E+01  0.9301E+01
     -1.332  0.1238E+01  0.1238E+01  0.9481E+01  0.9480E+01
     -1.188  0.1104E+01  0.1105E+01  0.9641E+01  0.9639E+01
     -1.044  0.1092E+01  0.1091E+01  0.9799E+01  0.9797E+01
     -0.899  0.1246E+01  0.1245E+01  0.9979E+01  0.9977E+01
     -0.755  0.1449E+01  0.1447E+01  0.1019E+02  0.1019E+02
     -0.611  0.1542E+01  0.1542E+01  0.1041E+02  0.1041E+02
     -0.467  0.1336E+01  0.1338E+01  0.1060E+02  0.1060E+02
     -0.322  0.1215E+01  0.1214E+01  0.1078E+02  0.1078E+02
     -0.178  0.1308E+01  0.1307E+01  0.1097E+02  0.1097E+02
     -0.034  0.1319E+01  0.1320E+01  0.1116E+02  0.1116E+02
      0.111  0.1333E+01  0.1330E+01  0.1135E+02  0.1135E+02
      0.255  0.1507E+01  0.1505E+01  0.1157E+02  0.1157E+02
      0.399  0.1789E+01  0.1789E+01  0.1183E+02  0.1183E+02
      0.543  0.1430E+01  0.1435E+01  0.1204E+02  0.1203E+02
      0.688  0.1467E+01  0.1462E+01  0.1225E+02  0.1225E+02
      0.832  0.1624E+01  0.1627E+01  0.1248E+02  0.1248E+02
      0.976  0.1274E+01  0.1276E+01  0.1267E+02  0.1267E+02
      1.121  0.1177E+01  0.1176E+01  0.1284E+02  0.1284E+02
      1.265  0.1358E+01  0.1358E+01  0.1303E+02  0.1303E+02
      1.409  0.1068E+01  0.1071E+01  0.1319E+02  0.1319E+02
      1.553  0.9574E+00  0.9565E+00  0.1333E+02  0.1333E+02
      1.698  0.1154E+01  0.1152E+01  0.1349E+02  0.1349E+02
      1.842  0.1109E+01  0.1110E+01  0.1365E+02  0.1365E+02
      1.986  0.1074E+01  0.1072E+01  0.1381E+02  0.1381E+02
      2.131  0.1286E+01  0.1284E+01  0.1399E+02  0.1399E+02
      2.275  0.1325E+01  0.1325E+01  0.1419E+02  0.1418E+02
      2.419  0.1499E+01  0.1496E+01  0.1440E+02  0.1440E+02
      2.563  0.1743E+01  0.1740E+01  0.1465E+02  0.1465E+02
      2.708  0.2066E+01  0.2065E+01  0.1495E+02  0.1495E+02
      2.852  0.2050E+01  0.2050E+01  0.1525E+02  0.1525E+02
      2.996  0.1977E+01  0.1977E+01  0.1553E+02  0.1553E+02
      3.141  0.1912E+01  0.1912E+01  0.1581E+02  0.1581E+02
      3.285  0.2027E+01  0.2023E+01  0.1610E+02  0.1610E+02
      3.429  0.2430E+01  0.2425E+01  0.1646E+02  0.1645E+02
      3.573  0.2806E+01  0.2802E+01  0.1686E+02  0.1686E+02
      3.718  0.2668E+01  0.2673E+01  0.1725E+02  0.1724E+02
      3.862  0.2340E+01  0.2341E+01  0.1758E+02  0.1758E+02
      4.006  0.2129E+01  0.2132E+01  0.1789E+02  0.1789E+02
      4.151  0.1938E+01  0.1935E+01  0.1817E+02  0.1817E+02
      4.295  0.2126E+01  0.2126E+01  0.1848E+02  0.1848E+02
      4.439  0.2008E+01  0.2010E+01  0.1877E+02  0.1877E+02
      4.583  0.1924E+01  0.1924E+01  0.1905E+02  0.1905E+02
      4.728  0.2076E+01  0.2073E+01  0.1935E+02  0.1935E+02
      4.872  0.2479E+01  0.2476E+01  0.1971E+02  0.1970E+02
      5.016  0.2679E+01  0.2677E+01  0.2009E+02  0.2009E+02
      5.161  0.2584E+01  0.2588E+01  0.2047E+02  0.2046E+02
      5.305  0.2228E+01  0.2230E+01  0.2079E+02  0.2079E+02
      5.449  0.2097E+01  0.2096E+01  0.2109E+02  0.2109E+02
      5.593  0.2399E+01  0.2397E+01  0.2144E+02  0.2144E+02
      5.738  0.2127E+01  0.2132E+01  0.2175E+02  0.2174E+02
      5.882  0.1800E+01  0.1803E+01  0.2201E+02  0.2201E+02
      6.026  0.1759E+01  0.1755E+01  0.2226E+02  0.2226E+02
      6.171  0.2251E+01  0.2248E+01  0.2259E+02  0.2258E+02
      6.315  0.2282E+01  0.2284E+01  0.2292E+02  0.2291E+02
      6.459  0.2092E+01  0.2094E+01  0.2322E+02  0.2322E+02
      6.603  0.1982E+01  0.1983E+01  0.2351E+02  0.2350E+02
      6.748  0.1982E+01  0.1982E+01  0.2379E+02  0.2379E+02
      6.892  0.2088E+01  0.2086E+01  0.2410E+02  0.2409E+02
      7.036  0.2435E+01  0.2429E+01  0.2445E+02  0.2444E+02
      7.181  0.3431E+01  0.3420E+01  0.2494E+02  0.2494E+02
      7.325  0.3605E+01  0.3585E+01  0.2546E+02  0.2546E+02
      7.469  0.3510E+01  0.3474E+01  0.2597E+02  0.2596E+02
      7.613  0.2977E+01  0.3002E+01  0.2640E+02  0.2639E+02
      7.758  0.2587E+01  0.2634E+01  0.2678E+02  0.2677E+02
      7.902  0.2629E+01  0.2546E+01  0.2716E+02  0.2714E+02
      8.046  0.1745E+01  0.1764E+01  0.2741E+02  0.2740E+02
      8.191  0.1144E+01  0.1172E+01  0.2758E+02  0.2757E+02
      8.335  0.8251E+00  0.7875E+00  0.2769E+02  0.2768E+02
      8.479  0.5626E+00  0.6196E+00  0.2778E+02  0.2777E+02
      8.624  0.5410E+00  0.6306E+00  0.2785E+02  0.2786E+02
      8.768  0.5068E+00  0.4891E+00  0.2793E+02  0.2793E+02
      8.912  0.3730E+00  0.3566E+00  0.2798E+02  0.2798E+02
      9.056  0.1129E+00  0.9811E-01  0.2800E+02  0.2800E+02
      9.201  0.9332E-02  0.9751E-02  0.2800E+02  0.2800E+02
      9.345  0.0000E+00  0.3900E-03  0.2800E+02  0.2800E+02
      9.489  0.0000E+00  0.0000E+00  0.2800E+02  0.2800E+02
      9.634  0.0000E+00  0.0000E+00  0.2800E+02  0.2800E+02
      9.778  0.0000E+00  0.0000E+00  0.2800E+02  0.2800E+02
      9.922  0.0000E+00  0.0000E+00  0.2800E+02  0.2800E+02
     10.066  0.0000E+00  0.0000E+00  0.2800E+02  0.2800E+02
     10.211  0.0000E+00  0.0000E+00  0.2800E+02  0.2800E+02
     10.355  0.0000E+00  0.0000E+00  0.2800E+02  0.2800E+02
     10.499  0.0000E+00  0.0000E+00  0.2800E+02  0.2800E+02
     10.644  0.0000E+00  0.0000E+00  0.2800E+02  0.2800E+02
     10.788  0.0000E+00  0.0000E+00  0.2800E+02  0.2800E+02
     10.932  0.0000E+00  0.0000E+00  0.2800E+02  0.2800E+02
     10.93209874    -32.35406740  301      4.55919166      1.00000000
    -32.354  0.0000E+00  0.0000E+00  0.0000E+00  0.0000E+00  0.0000E+00  0.0000E+00  0.0000E+00  0.0000E+00  0.0000E+00  0.0000E+00  0.0000E+00  0.0000E+00  0.0000E+00  0.0000E+00  0.0000E+00  0.0000E+00  0.0000E+00  0.0000E+00
    -32.210  0.0000E+00  0.0000E+00  0.0000E+00  0.0000E+00  0.0000E+00  0.0000E+00  0.0000E+00  0.0000E+00  0.0000E+00  0.0000E+00  0.0000E+00  0.0000E+00  0.0000E+00  0.0000E+00  0.0000E+00  0.0000E+00  0.0000E+00  0.0000E+00
    -32.065  0.0000E+00  0.0000E+00  0.0000E+00  0.0000E+00  0.0000E+00  0.0000E+00  0.0000E+00  0.0000E+00  0.0000E+00  0.0000E+00  0.0000E+00  0.0000E+00  0.0000E+00  0.0000E+00  0.0000E+00  0.0000E+00  0.0000E+00  0.0000E+00
    -31.921  0.0000E+00  0.0000E+00  0.0000E+00  0.0000E+00  0.0000E+00  0.0000E+00  0.0000E+00  0.0000E+00  0.0000E+00  0.0000E+00  0.0000E+00  0.0000E+00  0.0000E+00  0.0000E+00  0.0000E+00  0.0000E+00  0.0000E+00  0.0000E+00
    -31.777  0.0000E+00  0.0000E+00  0.0000E+00  0.0000E+00  0.0000E+00  0.0000E+00  0.0000E+00  0.0000E+00  0.0000E+00  0.0000E+00  0.0000E+00  0.0000E+00  0.0000E+00  0.0000E+00  0.0000E+00  0.0000E+00  0.0000E+00  0.0000E+00
    -31.633  0.0000E+00  0.0000E+00  0.0000E+00  0.0000E+00  0.0000E+00  0.0000E+00  0.0000E+00  0.0000E+00  0.0000E+00  0.0000E+00  0.0000E+00  0.0000E+00  0.0000E+00  0.0000E+00  0.0000E+00  0.0000E+00  0.0000E+00  0.0000E+00
    -31.488  0.0000E+00  0.0000E+00  0.0000E+00  0.0000E+00  0.0000E+00  0.0000E+00  0.0000E+00  0.0000E+00  0.0000E+00  0.0000E+00  0.0000E+00  0.0000E+00  0.0000E+00  0.0000E+00  0.0000E+00  0.0000E+00  0.0000E+00  0.0000E+00
    -31.344  0.0000E+00  0.0000E+00  0.0000E+00  0.0000E+00  0.0000E+00  0.0000E+00  0.0000E+00  0.0000E+00  0.0000E+00  0.0000E+00  0.0000E+00  0.0000E+00  0.0000E+00  0.0000E+00  0.0000E+00  0.0000E+00  0.0000E+00  0.0000E+00
    -31.200  0.0000E+00  0.0000E+00  0.0000E+00  0.0000E+00  0.0000E+00  0.0000E+00  0.0000E+00  0.0000E+00  0.0000E+00  0.0000E+00  0.0000E+00  0.0000E+00  0.0000E+00  0.0000E+00  0.0000E+00  0.0000E+00  0.0000E+00  0.0000E+00
    -31.055  0.0000E+00  0.0000E+00  0.0000E+00  0.0000E+00  0.0000E+00  0.0000E+00  0.0000E+00  0.0000E+00  0.0000E+00  0.0000E+00  0.0000E+00  0.0000E+00  0.0000E+00  0.0000E+00  0.0000E+00  0.0000E+00  0.0000E+00  0.0000E+00
    -30.911  0.1796E-03  0.1792E-03  0.9210E-12  0.9253E-12  0.3332E-13  0.3880E-13  0.9210E-12  0.9253E-12  0.5565E-15  0.8251E-15  0.3307E-14  0.2385E-14  0.2269E-09  0.2249E-09  0.3307E-14  0.2385E-14  0.4957E-12  0.5019E-12
    -30.767  0.3037E-02  0.3030E-02  0.1557E-10  0.1565E-10  0.5634E-12  0.6561E-12  0.1557E-10  0.1565E-10  0.9409E-14  0.1395E-13  0.5592E-13  0.4033E-13  0.3837E-08  0.3803E-08  0.5592E-13  0.4033E-13  0.8382E-11  0.8487E-11
    -30.623  0.5396E-01  0.5383E-01  0.2767E-09  0.2780E-09  0.1001E-10  0.1165E-10  0.2767E-09  0.2780E-09  0.1672E-12  0.2479E-12  0.9934E-12  0.7165E-12  0.6816E-07  0.6756E-07  0.9934E-12  0.7165E-12  0.1489E-09  0.1508E-09
    -30.478  0.8392E+00  0.8375E+00  0.4303E-08  0.4324E-08  0.1553E-09  0.1809E-09  0.4303E-08  0.4324E-08  0.2602E-11  0.3861E-11  0.1545E-10  0.1115E-10  0.1060E-05  0.1051E-05  0.1545E-10  0.1115E-10  0.2316E-08  0.2346E-08
    -30.334  0.4063E+01  0.4061E+01  0.2082E-07  0.2096E-07  0.7415E-09  0.8648E-09  0.2082E-07  0.2096E-07  0.1266E-10  0.1884E-10  0.7481E-10  0.5426E-10  0.5136E-05  0.5101E-05  0.7481E-10  0.5426E-10  0.1122E-07  0.1138E-07
    -30.190  0.1680E+01  0.1683E+01  0.8604E-08  0.8677E-08  0.3017E-09  0.3524E-09  0.8604E-08  0.8677E-08  0.5267E-11  0.7860E-11  0.3093E-10  0.2256E-10  0.2125E-05  0.2115E-05  0.3093E-10  0.2256E-10  0.4637E-08  0.4713E-08
    -30.045  0.1279E+00  0.1282E+00  0.6552E-09  0.6611E-09  0.2286E-10  0.2672E-10  0.6552E-09  0.6611E-09  0.4019E-12  0.6004E-12  0.2356E-11  0.1721E-11  0.1619E-06  0.1612E-06  0.2356E-11  0.1721E-11  0.3532E-09  0.3592E-09
    -29.901  0.0000E+00  0.0000E+00  0.0000E+00  0.0000E+00  0.0000E+00  0.0000E+00  0.0000E+00  0.0000E+00  0.0000E+00  0.0000E+00  0.0000E+00  0.0000E+00  0.0000E+00  0.0000E+00  0.0000E+00  0.0000E+00  0.0000E+00  0.0000E+00
    -29.757  0.0000E+00  0.0000E+00  0.0000E+00  0.0000E+00  0.0000E+00  0.0000E+00  0.0000E+00  0.0000E+00  0.0000E+00  0.0000E+00  0.0000E+00  0.0000E+00  0.0000E+00  0.0000E+00  0.0000E+00  0.0000E+00  0.0000E+00  0.0000E+00
    -29.613  0.0000E+00  0.0000E+00  0.0000E+00  0.0000E+00  0.0000E+00  0.0000E+00  0.0000E+00  0.0000E+00  0.0000E+00  0.0000E+00  0.0000E+00  0.0000E+00  0.0000E+00  0.0000E+00  0.0000E+00  0.0000E+00  0.0000E+00  0.0000E+00
    -29.468  0.0000E+00  0.0000E+00  0.0000E+00  0.0000E+00  0.0000E+00  0.0000E+00  0.0000E+00  0.0000E+00  0.0000E+00  0.0000E+00  0.0000E+00  0.0000E+00  0.0000E+00  0.0000E+00  0.0000E+00  0.0000E+00  0.0000E+00  0.0000E+00
    -29.324  0.0000E+00  0.0000E+00  0.0000E+00  0.0000E+00  0.0000E+00  0.0000E+00  0.0000E+00  0.0000E+00  0.0000E+00  0.0000E+00  0.0000E+00  0.0000E+00  0.0000E+00  0.0000E+00  0.0000E+00  0.0000E+00  0.0000E+00  0.0000E+00
    -29.180  0.0000E+00  0.0000E+00  0.0000E+00  0.0000E+00  0.0000E+00  0.0000E+00  0.0000E+00  0.0000E+00  0.0000E+00  0.0000E+00  0.0000E+00  0.0000E+00  0.0000E+00  0.0000E+00  0.0000E+00  0.0000E+00  0.0000E+00  0.0000E+00
    -29.035  0.0000E+00  0.0000E+00  0.0000E+00  0.0000E+00  0.0000E+00  0.0000E+00  0.0000E+00  0.0000E+00  0.0000E+00  0.0000E+00  0.0000E+00  0.0000E+00  0.0000E+00  0.0000E+00  0.0000E+00  0.0000E+00  0.0000E+00  0.0000E+00
    -28.891  0.0000E+00  0.0000E+00  0.0000E+00  0.0000E+00  0.0000E+00  0.0000E+00  0.0000E+00  0.0000E+00  0.0000E+00  0.0000E+00  0.0000E+00  0.0000E+00  0.0000E+00  0.0000E+00  0.0000E+00  0.0000E+00  0.0000E+00  0.0000E+00
    -28.747  0.0000E+00  0.0000E+00  0.0000E+00  0.0000E+00  0.0000E+00  0.0000E+00  0.0000E+00  0.0000E+00  0.0000E+00  0.0000E+00  0.0000E+00  0.0000E+00  0.0000E+00  0.0000E+00  0.0000E+00  0.0000E+00  0.0000E+00  0.0000E+00
    -28.603  0.0000E+00  0.0000E+00  0.0000E+00  0.0000E+00  0.0000E+00  0.0000E+00  0.0000E+00  0.0000E+00  0.0000E+00  0.0000E+00  0.0000E+00  0.0000E+00  0.0000E+00  0.0000E+00  0.0000E+00  0.0000E+00  0.0000E+00  0.0000E+00
    -28.458  0.0000E+00  0.0000E+00  0.0000E+00  0.0000E+00  0.0000E+00  0.0000E+00  0.0000E+00  0.0000E+00  0.0000E+00  0.0000E+00  0.0000E+00  0.0000E+00  0.0000E+00  0.0000E+00  0.0000E+00  0.0000E+00  0.0000E+00  0.0000E+00
    -28.314  0.0000E+00  0.0000E+00  0.0000E+00  0.0000E+00  0.0000E+00  0.0000E+00  0.0000E+00  0.0000E+00  0.0000E+00  0.0000E+00  0.0000E+00  0.0000E+00  0.0000E+00  0.0000E+00  0.0000E+00  0.0000E+00  0.0000E+00  0.0000E+00
    -28.170  0.0000E+00  0.0000E+00  0.0000E+00  0.0000E+00  0.0000E+00  0.0000E+00  0.0000E+00  0.0000E+00  0.0000E+00  0.0000E+00  0.0000E+00  0.0000E+00  0.0000E+00  0.0000E+00  0.0000E+00  0.0000E+00  0.0000E+00  0.0000E+00
    -28.025  0.0000E+00  0.0000E+00  0.0000E+00  0.0000E+00  0.0000E+00  0.0000E+00  0.0000E+00  0.0000E+00  0.0000E+00  0.0000E+00  0.0000E+00  0.0000E+00  0.0000E+00  0.0000E+00  0.0000E+00  0.0000E+00  0.0000E+00  0.0000E+00
    -27.881  0.0000E+00  0.0000E+00  0.0000E+00  0.0000E+00  0.0000E+00  0.0000E+00  0.0000E+00  0.0000E+00  0.0000E+00  0.0000E+00  0.0000E+00  0.0000E+00  0.0000E+00  0.0000E+00  0.0000E+00  0.0000E+00  0.0000E+00  0.0000E+00
    -27.737  0.0000E+00  0.0000E+00  0.0000E+00  0.0000E+00  0.0000E+00  0.0000E+00  0.0000E+00  0.0000E+00  0.0000E+00  0.0000E+00  0.0000E+00  0.0000E+00  0.0000E+00  0.0000E+00  0.0000E+00  0.0000E+00  0.0000E+00  0.0000E+00
    -27.593  0.0000E+00  0.0000E+00  0.0000E+00  0.0000E+00  0.0000E+00  0.0000E+00  0.0000E+00  0.0000E+00  0.0000E+00  0.0000E+00  0.0000E+00  0.0000E+00  0.0000E+00  0.0000E+00  0.0000E+00  0.0000E+00  0.0000E+00  0.0000E+00
    -27.448  0.0000E+00  0.0000E+00  0.0000E+00  0.0000E+00  0.0000E+00  0.0000E+00  0.0000E+00  0.0000E+00  0.0000E+00  0.0000E+00  0.0000E+00  0.0000E+00  0.0000E+00  0.0000E+00  0.0000E+00  0.0000E+00  0.0000E+00  0.0000E+00
    -27.304  0.0000E+00  0.0000E+00  0.0000E+00  0.0000E+00  0.0000E+00  0.0000E+00  0.0000E+00  0.0000E+00  0.0000E+00  0.0000E+00  0.0000E+00  0.0000E+00  0.0000E+00  0.0000E+00  0.0000E+00  0.0000E+00  0.0000E+00  0.0000E+00
    -27.160  0.0000E+00  0.0000E+00  0.0000E+00  0.0000E+00  0.0000E+00  0.0000E+00  0.0000E+00  0.0000E+00  0.0000E+00  0.0000E+00  0.0000E+00  0.0000E+00  0.0000E+00  0.0000E+00  0.0000E+00  0.0000E+00  0.0000E+00  0.0000E+00
    -27.015  0.0000E+00  0.0000E+00  0.0000E+00  0.0000E+00  0.0000E+00  0.0000E+00  0.0000E+00  0.0000E+00  0.0000E+00  0.0000E+00  0.0000E+00  0.0000E+00  0.0000E+00  0.0000E+00  0.0000E+00  0.0000E+00  0.0000E+00  0.0000E+00
    -26.871  0.0000E+00  0.0000E+00  0.0000E+00  0.0000E+00  0.0000E+00  0.0000E+00  0.0000E+00  0.0000E+00  0.0000E+00  0.0000E+00  0.0000E+00  0.0000E+00  0.0000E+00  0.0000E+00  0.0000E+00  0.0000E+00  0.0000E+00  0.0000E+00
    -26.727  0.0000E+00  0.0000E+00  0.0000E+00  0.0000E+00  0.0000E+00  0.0000E+00  0.0000E+00  0.0000E+00  0.0000E+00  0.0000E+00  0.0000E+00  0.0000E+00  0.0000E+00  0.0000E+00  0.0000E+00  0.0000E+00  0.0000E+00  0.0000E+00
    -26.583  0.0000E+00  0.0000E+00  0.0000E+00  0.0000E+00  0.0000E+00  0.0000E+00  0.0000E+00  0.0000E+00  0.0000E+00  0.0000E+00  0.0000E+00  0.0000E+00  0.0000E+00  0.0000E+00  0.0000E+00  0.0000E+00  0.0000E+00  0.0000E+00
    -26.438  0.0000E+00  0.0000E+00  0.0000E+00  0.0000E+00  0.0000E+00  0.0000E+00  0.0000E+00  0.0000E+00  0.0000E+00  0.0000E+00  0.0000E+00  0.0000E+00  0.0000E+00  0.0000E+00  0.0000E+00  0.0000E+00  0.0000E+00  0.0000E+00
    -26.294  0.0000E+00  0.0000E+00  0.0000E+00  0.0000E+00  0.0000E+00  0.0000E+00  0.0000E+00  0.0000E+00  0.0000E+00  0.0000E+00  0.0000E+00  0.0000E+00  0.0000E+00  0.0000E+00  0.0000E+00  0.0000E+00  0.0000E+00  0.0000E+00
    -26.150  0.0000E+00  0.0000E+00  0.0000E+00  0.0000E+00  0.0000E+00  0.0000E+00  0.0000E+00  0.0000E+00  0.0000E+00  0.0000E+00  0.0000E+00  0.0000E+00  0.0000E+00  0.0000E+00  0.0000E+00  0.0000E+00  0.0000E+00  0.0000E+00
    -26.005  0.0000E+00  0.0000E+00  0.0000E+00  0.0000E+00  0.0000E+00  0.0000E+00  0.0000E+00  0.0000E+00  0.0000E+00  0.0000E+00  0.0000E+00  0.0000E+00  0.0000E+00  0.0000E+00  0.0000E+00  0.0000E+00  0.0000E+00  0.0000E+00
    -25.861  0.0000E+00  0.0000E+00  0.0000E+00  0.0000E+00  0.0000E+00  0.0000E+00  0.0000E+00  0.0000E+00  0.0000E+00  0.0000E+00  0.0000E+00  0.0000E+00  0.0000E+00  0.0000E+00  0.0000E+00  0.0000E+00  0.0000E+00  0.0000E+00
    -25.717  0.0000E+00  0.0000E+00  0.0000E+00  0.0000E+00  0.0000E+00  0.0000E+00  0.0000E+00  0.0000E+00  0.0000E+00  0.0000E+00  0.0000E+00  0.0000E+00  0.0000E+00  0.0000E+00  0.0000E+00  0.0000E+00  0.0000E+00  0.0000E+00
    -25.573  0.0000E+00  0.0000E+00  0.0000E+00  0.0000E+00  0.0000E+00  0.0000E+00  0.0000E+00  0.0000E+00  0.0000E+00  0.0000E+00  0.0000E+00  0.0000E+00  0.0000E+00  0.0000E+00  0.0000E+00  0.0000E+00  0.0000E+00  0.0000E+00
    -25.428  0.0000E+00  0.0000E+00  0.0000E+00  0.0000E+00  0.0000E+00  0.0000E+00  0.0000E+00  0.0000E+00  0.0000E+00  0.0000E+00  0.0000E+00  0.0000E+00  0.0000E+00  0.0000E+00  0.0000E+00  0.0000E+00  0.0000E+00  0.0000E+00
    -25.284  0.0000E+00  0.0000E+00  0.0000E+00  0.0000E+00  0.0000E+00  0.0000E+00  0.0000E+00  0.0000E+00  0.0000E+00  0.0000E+00  0.0000E+00  0.0000E+00  0.0000E+00  0.0000E+00  0.0000E+00  0.0000E+00  0.0000E+00  0.0000E+00
    -25.140  0.0000E+00  0.0000E+00  0.0000E+00  0.0000E+00  0.0000E+00  0.0000E+00  0.0000E+00  0.0000E+00  0.0000E+00  0.0000E+00  0.0000E+00  0.0000E+00  0.0000E+00  0.0000E+00  0.0000E+00  0.0000E+00  0.0000E+00  0.0000E+00