   8   8   1   0
  0.2813421E+02  0.4914052E-09  0.4914052E-09  0.9320629E-09  0.5000000E-15
  1.000000000000000E-004
  CAR 
 unknown system                          
      9.58540133    -33.69928793  301      3.59811625      1.00000000
    -33.699  0.0000E+00  0.0000E+00  0.0000E+00  0.0000E+00
    -33.555  0.0000E+00  0.0000E+00  0.0000E+00  0.0000E+00
    -33.411  0.0000E+00  0.0000E+00  0.0000E+00  0.0000E+00
    -33.266  0.0000E+00  0.0000E+00  0.0000E+00  0.0000E+00
    -33.122  0.0000E+00  0.0000E+00  0.0000E+00  0.0000E+00
    -32.978  0.0000E+00  0.0000E+00  0.0000E+00  0.0000E+00
    -32.834  0.0000E+00  0.0000E+00  0.0000E+00  0.0000E+00
    -32.689  0.0000E+00  0.0000E+00  0.0000E+00  0.0000E+00
    -32.545  0.0000E+00  0.0000E+00  0.0000E+00  0.0000E+00
    -32.401  0.0000E+00  0.0000E+00  0.0000E+00  0.0000E+00
    -32.256  0.3771E-03  0.3743E-03  0.5442E-04  0.5400E-04
    -32.112  0.6376E-02  0.6328E-02  0.9744E-03  0.9670E-03
    -31.968  0.1132E+00  0.1124E+00  0.1731E-01  0.1718E-01
    -31.824  0.1755E+01  0.1744E+01  0.2706E+00  0.2688E+00
    -31.679  0.8341E+01  0.8333E+01  0.1474E+01  0.1471E+01
    -31.535  0.3375E+01  0.3393E+01  0.1961E+01  0.1961E+01
    -31.391  0.2553E+00  0.2572E+00  0.1998E+01  0.1998E+01
    -31.246  0.0000E+00  0.0000E+00  0.2000E+01  0.2000E+01
    -31.102  0.0000E+00  0.0000E+00  0.2000E+01  0.2000E+01
    -30.958  0.0000E+00  0.0000E+00  0.2000E+01  0.2000E+01
    -30.814  0.0000E+00  0.0000E+00  0.2000E+01  0.2000E+01
    -30.669  0.0000E+00  0.0000E+00  0.2000E+01  0.2000E+01
    -30.525  0.0000E+00  0.0000E+00  0.2000E+01  0.2000E+01
    -30.381  0.0000E+00  0.0000E+00  0.2000E+01  0.2000E+01
    -30.237  0.0000E+00  0.0000E+00  0.2000E+01  0.2000E+01
    -30.092  0.0000E+00  0.0000E+00  0.2000E+01  0.2000E+01
    -29.948  0.0000E+00  0.0000E+00  0.2000E+01  0.2000E+01
    -29.804  0.0000E+00  0.0000E+00  0.2000E+01  0.2000E+01
    -29.659  0.0000E+00  0.0000E+00  0.2000E+01  0.2000E+01
    -29.515  0.0000E+00  0.0000E+00  0.2000E+01  0.2000E+01
    -29.371  0.0000E+00  0.0000E+00  0.2000E+01  0.2000E+01
    -29.227  0.0000E+00  0.0000E+00  0.2000E+01  0.2000E+01
    -29.082  0.0000E+00  0.0000E+00  0.2000E+01  0.2000E+01
    -28.938  0.0000E+00  0.0000E+00  0.2000E+01  0.2000E+01
    -28.794  0.0000E+00  0.0000E+00  0.2000E+01  0.2000E+01
    -28.649  0.0000E+00  0.0000E+00  0.2000E+01  0.2000E+01
    -28.505  0.0000E+00  0.0000E+00  0.2000E+01  0.2000E+01
    -28.361  0.0000E+00  0.0000E+00  0.2000E+01  0.2000E+01
    -28.217  0.0000E+00  0.0000E+00  0.2000E+01  0.2000E+01
    -28.072  0.0000E+00  0.0000E+00  0.2000E+01  0.2000E+01
    -27.928  0.0000E+00  0.0000E+00  0.2000E+01  0.2000E+01
    -27.784  0.0000E+00  0.0000E+00  0.2000E+01  0.2000E+01
    -27.639  0.0000E+00  0.0000E+00  0.2000E+01  0.2000E+01
    -27.495  0.0000E+00  0.0000E+00  0.2000E+01  0.2000E+01
    -27.351  0.0000E+00  0.0000E+00  0.2000E+01  0.2000E+01
    -27.207  0.0000E+00  0.0000E+00  0.2000E+01  0.2000E+01
    -27.062  0.0000E+00  0.0000E+00  0.2000E+01  0.2000E+01
    -26.918  0.0000E+00  0.0000E+00  0.2000E+01  0.2000E+01
    -26.774  0.0000E+00  0.0000E+00  0.2000E+01  0.2000E+01
    -26.629  0.0000E+00  0.0000E+00  0.2000E+01  0.2000E+01
    -26.485  0.0000E+00  0.0000E+00  0.2000E+01  0.2000E+01
    -26.341  0.0000E+00  0.0000E+00  0.2000E+01  0.2000E+01
    -26.197  0.0000E+00  0.0000E+00  0.2000E+01  0.2000E+01
    -26.052  0.0000E+00  0.0000E+00  0.2000E+01  0.2000E+01
    -25.908  0.0000E+00  0.0000E+00  0.2000E+01  0.2000E+01
    -25.764  0.0000E+00  0.0000E+00  0.2000E+01  0.2000E+01
    -25.619  0.0000E+00  0.0000E+00  0.2000E+01  0.2000E+01
    -25.475  0.0000E+00  0.0000E+00  0.2000E+01  0.2000E+01
    -25.331  0.0000E+00  0.0000E+00  0.2000E+01  0.2000E+01
    -25.187  0.0000E+00  0.0000E+00  0.2000E+01  0.2000E+01
    -25.042  0.0000E+00  0.0000E+00  0.2000E+01  0.2000E+01
    -24.898  0.0000E+00  0.0000E+00  0.2000E+01  0.2000E+01
    -24.754  0.0000E+00  0.0000E+00  0.2000E+01  0.2000E+01
    -24.610  0.0000E+00  0.0000E+00  0.2000E+01  0.2000E+01
    -24.465  0.0000E+00  0.0000E+00  0.2000E+01  0.2000E+01
    -24.321  0.0000E+00  0.0000E+00  0.2000E+01  0.2000E+01
    -24.177  0.0000E+00  0.0000E+00  0.2000E+01  0.2000E+01
    -24.032  0.0000E+00  0.0000E+00  0.2000E+01  0.2000E+01
    -23.888  0.0000E+00  0.0000E+00  0.2000E+01  0.2000E+01
    -23.744  0.0000E+00  0.0000E+00  0.2000E+01  0.2000E+01
    -23.600  0.0000E+00  0.0000E+00  0.2000E+01  0.2000E+01
    -23.455  0.0000E+00  0.0000E+00  0.2000E+01  0.2000E+01
    -23.311  0.0000E+00  0.0000E+00  0.2000E+01  0.2000E+01
    -23.167  0.0000E+00  0.0000E+00  0.2000E+01  0.2000E+01
    -23.022  0.0000E+00  0.0000E+00  0.2000E+01  0.2000E+01
    -22.878  0.0000E+00  0.0000E+00  0.2000E+01  0.2000E+01
    -22.734  0.0000E+00  0.0000E+00  0.2000E+01  0.2000E+01
    -22.590  0.0000E+00  0.0000E+00  0.2000E+01  0.2000E+01
    -22.445  0.0000E+00  0.0000E+00  0.2000E+01  0.2000E+01
    -22.301  0.0000E+00  0.0000E+00  0.2000E+01  0.2000E+01
    -22.157  0.0000E+00  0.0000E+00  0.2000E+01  0.2000E+01
    -22.012  0.0000E+00  0.0000E+00  0.2000E+01  0.2000E+01
    -21.868  0.0000E+00  0.0000E+00  0.2000E+01  0.2000E+01
    -21.724  0.0000E+00  0.0000E+00  0.2000E+01  0.2000E+01
    -21.580  0.0000E+00  0.0000E+00  0.2000E+01  0.2000E+01
    -21.435  0.0000E+00  0.0000E+00  0.2000E+01  0.2000E+01
    -21.291  0.0000E+00  0.0000E+00  0.2000E+01  0.2000E+01
    -21.147  0.0000E+00  0.0000E+00  0.2000E+01  0.2000E+01
    -21.002  0.0000E+00  0.0000E+00  0.2000E+01  0.2000E+01
    -20.858  0.0000E+00  0.0000E+00  0.2000E+01  0.2000E+01
    -20.714  0.0000E+00  0.0000E+00  0.2000E+01  0.2000E+01
    -20.570  0.0000E+00  0.0000E+00  0.2000E+01  0.2000E+01
    -20.425  0.0000E+00  0.0000E+00  0.2000E+01  0.2000E+01
    -20.281  0.0000E+00  0.0000E+00  0.2000E+01  0.2000E+01
    -20.137  0.0000E+00  0.0000E+00  0.2000E+01  0.2000E+01
    -19.992  0.0000E+00  0.0000E+00  0.2000E+01  0.2000E+01
    -19.848  0.0000E+00  0.0000E+00  0.2000E+01  0.2000E+01
    -19.704  0.0000E+00  0.0000E+00  0.2000E+01  0.2000E+01
    -19.560  0.0000E+00  0.0000E+00  0.2000E+01  0.2000E+01
    -19.415  0.0000E+00  0.0000E+00  0.2000E+01  0.2000E+01
    -19.271  0.0000E+00  0.0000E+00  0.2000E+01  0.2000E+01
    -19.127  0.0000E+00  0.0000E+00  0.2000E+01  0.2000E+01
    -18.982  0.0000E+00  0.0000E+00  0.2000E+01  0.2000E+01
    -18.838  0.0000E+00  0.0000E+00  0.2000E+01  0.2000E+01
    -18.694  0.0000E+00  0.0000E+00  0.2000E+01  0.2000E+01
    -18.550  0.0000E+00  0.0000E+00  0.2000E+01  0.2000E+01
    -18.405  0.0000E+00  0.0000E+00  0.2000E+01  0.2000E+01
    -18.261  0.0000E+00  0.0000E+00  0.2000E+01  0.2000E+01
    -18.117  0.0000E+00  0.0000E+00  0.2000E+01  0.2000E+01
    -17.973  0.0000E+00  0.0000E+00  0.2000E+01  0.2000E+01
    -17.828  0.0000E+00  0.0000E+00  0.2000E+01  0.2000E+01
    -17.684  0.0000E+00  0.0000E+00  0.2000E+01  0.2000E+01
    -17.540  0.0000E+00  0.0000E+00  0.2000E+01  0.2000E+01
    -17.395  0.0000E+00  0.0000E+00  0.2000E+01  0.2000E+01
    -17.251  0.0000E+00  0.0000E+00  0.2000E+01  0.2000E+01
    -17.107  0.0000E+00  0.0000E+00  0.2000E+01  0.2000E+01
    -16.963  0.0000E+00  0.0000E+00  0.2000E+01  0.2000E+01
    -16.818  0.0000E+00  0.0000E+00  0.2000E+01  0.2000E+01
    -16.674  0.0000E+00  0.0000E+00  0.2000E+01  0.2000E+01
    -16.530  0.0000E+00  0.0000E+00  0.2000E+01  0.2000E+01
    -16.385  0.0000E+00  0.0000E+00  0.2000E+01  0.2000E+01
    -16.241  0.0000E+00  0.0000E+00  0.2000E+01  0.2000E+01
    -16.097  0.0000E+00  0.0000E+00  0.2000E+01  0.2000E+01
    -15.953  0.0000E+00  0.0000E+00  0.2000E+01  0.2000E+01
    -15.808  0.0000E+00  0.0000E+00  0.2000E+01  0.2000E+01
    -15.664  0.0000E+00  0.0000E+00  0.2000E+01  0.2000E+01
    -15.520  0.0000E+00  0.0000E+00  0.2000E+01  0.2000E+01
    -15.375  0.0000E+00  0.0000E+00  0.2000E+01  0.2000E+01
    -15.231  0.0000E+00  0.0000E+00  0.2000E+01  0.2000E+01
    -15.087  0.0000E+00  0.0000E+00  0.2000E+01  0.2000E+01
    -14.943  0.0000E+00  0.0000E+00  0.2000E+01  0.2000E+01
    -14.798  0.0000E+00  0.0000E+00  0.2000E+01  0.2000E+01
    -14.654  0.0000E+00  0.0000E+00  0.2000E+01  0.2000E+01
    -14.510  0.0000E+00  0.0000E+00  0.2000E+01  0.2000E+01
    -14.365  0.4185E-03  0.4061E-03  0.2000E+01  0.2000E+01
    -14.221  0.1197E-01  0.1163E-01  0.2002E+01  0.2002E+01
    -14.077  0.2081E+00  0.2022E+00  0.2032E+01  0.2031E+01
    -13.933  0.3310E+01  0.3227E+01  0.2509E+01  0.2497E+01
    -13.788  0.2065E+02  0.2048E+02  0.5489E+01  0.5452E+01
    -13.644  0.1561E+02  0.1582E+02  0.7741E+01  0.7735E+01
    -13.500  0.1686E+01  0.1730E+01  0.7985E+01  0.7984E+01
    -13.355  0.0000E+00  0.0000E+00  0.8000E+01  0.8000E+01
    -13.211  0.0000E+00  0.0000E+00  0.8000E+01  0.8000E+01
    -13.067  0.0000E+00  0.0000E+00  0.8000E+01  0.8000E+01
    -12.923  0.0000E+00  0.0000E+00  0.8000E+01  0.8000E+01
    -12.778  0.0000E+00  0.0000E+00  0.8000E+01  0.8000E+01
    -12.634  0.0000E+00  0.0000E+00  0.8000E+01  0.8000E+01
    -12.490  0.0000E+00  0.0000E+00  0.8000E+01  0.8000E+01
    -12.346  0.0000E+00  0.0000E+00  0.8000E+01  0.8000E+01
    -12.201  0.0000E+00  0.0000E+00  0.8000E+01  0.8000E+01
    -12.057  0.0000E+00  0.0000E+00  0.8000E+01  0.8000E+01
    -11.913  0.0000E+00  0.0000E+00  0.8000E+01  0.8000E+01
    -11.768  0.0000E+00  0.0000E+00  0.8000E+01  0.8000E+01
    -11.624  0.0000E+00  0.0000E+00  0.8000E+01  0.8000E+01
    -11.480  0.0000E+00  0.0000E+00  0.8000E+01  0.8000E+01
    -11.336  0.0000E+00  0.0000E+00  0.8000E+01  0.8000E+01
    -11.191  0.0000E+00  0.0000E+00  0.8000E+01  0.8000E+01
    -11.047  0.0000E+00  0.0000E+00  0.8000E+01  0.8000E+01
    -10.903  0.0000E+00  0.0000E+00  0.8000E+01  0.8000E+01
    -10.758  0.0000E+00  0.0000E+00  0.8000E+01  0.8000E+01
    -10.614  0.0000E+00  0.0000E+00  0.8000E+01  0.8000E+01
    -10.470  0.0000E+00  0.0000E+00  0.8000E+01  0.8000E+01
    -10.326  0.0000E+00  0.0000E+00  0.8000E+01  0.8000E+01
    -10.181  0.0000E+00  0.0000E+00  0.8000E+01  0.8000E+01
    -10.037  0.0000E+00  0.0000E+00  0.8000E+01  0.8000E+01
     -9.893  0.0000E+00  0.0000E+00  0.8000E+01  0.8000E+01
     -9.748  0.0000E+00  0.0000E+00  0.8000E+01  0.8000E+01
     -9.604  0.0000E+00  0.0000E+00  0.8000E+01  0.8000E+01
     -9.460  0.0000E+00  0.0000E+00  0.8000E+01  0.8000E+01
     -9.316  0.0000E+00  0.0000E+00  0.8000E+01  0.8000E+01
     -9.171  0.0000E+00  0.0000E+00  0.8000E+01  0.8000E+01
     -9.027  0.0000E+00  0.0000E+00  0.8000E+01  0.8000E+01
     -8.883  0.0000E+00  0.0000E+00  0.8000E+01  0.8000E+01
     -8.738  0.0000E+00  0.0000E+00  0.8000E+01  0.8000E+01
     -8.594  0.0000E+00  0.0000E+00  0.8000E+01  0.8000E+01
     -8.450  0.0000E+00  0.0000E+00  0.8000E+01  0.8000E+01
     -8.306  0.0000E+00  0.0000E+00  0.8000E+01  0.8000E+01
     -8.161  0.0000E+00  0.0000E+00  0.8000E+01  0.8000E+01
     -8.017  0.0000E+00  0.0000E+00  0.8000E+01  0.8000E+01
     -7.873  0.0000E+00  0.0000E+00  0.8000E+01  0.8000E+01
     -7.728  0.0000E+00  0.0000E+00  0.8000E+01  0.8000E+01
     -7.584  0.0000E+00  0.0000E+00  0.8000E+01  0.8000E+01
     -7.440  0.0000E+00  0.0000E+00  0.8000E+01  0.8000E+01
     -7.296  0.0000E+00  0.0000E+00  0.8000E+01  0.8000E+01
     -7.151  0.0000E+00  0.0000E+00  0.8000E+01  0.8000E+01
     -7.007  0.0000E+00  0.0000E+00  0.8000E+01  0.8000E+01
     -6.863  0.0000E+00  0.0000E+00  0.8000E+01  0.8000E+01
     -6.718  0.0000E+00  0.0000E+00  0.8000E+01  0.8000E+01
     -6.574  0.0000E+00  0.0000E+00  0.8000E+01  0.8000E+01
     -6.430  0.0000E+00  0.0000E+00  0.8000E+01  0.8000E+01
     -6.286  0.0000E+00  0.0000E+00  0.8000E+01  0.8000E+01
     -6.141  0.0000E+00  0.0000E+00  0.8000E+01  0.8000E+01
     -5.997  0.0000E+00  0.0000E+00  0.8000E+01  0.8000E+01
     -5.853  0.0000E+00  0.0000E+00  0.8000E+01  0.8000E+01
     -5.709  0.0000E+00  0.0000E+00  0.8000E+01  0.8000E+01
     -5.564  0.0000E+00  0.0000E+00  0.8000E+01  0.8000E+01
     -5.420  0.0000E+00  0.0000E+00  0.8000E+01  0.8000E+01
     -5.276  0.0000E+00  0.0000E+00  0.8000E+01  0.8000E+01
     -5.131  0.0000E+00  0.0000E+00  0.8000E+01  0.8000E+01
     -4.987  0.0000E+00  0.0000E+00  0.8000E+01  0.8000E+01
     -4.843  0.0000E+00  0.0000E+00  0.8000E+01  0.8000E+01
     -4.699  0.0000E+00  0.0000E+00  0.8000E+01  0.8000E+01
     -4.554  0.0000E+00  0.0000E+00  0.8000E+01  0.8000E+01
     -4.410  0.0000E+00  0.0000E+00  0.8000E+01  0.8000E+01
     -4.266  0.6211E-05  0.5646E-05  0.8000E+01  0.8000E+01
     -4.121  0.1371E-03  0.1246E-03  0.8000E+01  0.8000E+01
     -3.977  0.2401E-02  0.2187E-02  0.8000E+01  0.8000E+01
     -3.833  0.3338E-01  0.3096E-01  0.8005E+01  0.8005E+01
     -3.689  0.1682E+00  0.1626E+00  0.8029E+01  0.8028E+01
     -3.544  0.3206E+00  0.3168E+00  0.8076E+01  0.8074E+01
     -3.400  0.4407E+00  0.4368E+00  0.8139E+01  0.8137E+01
     -3.256  0.5172E+00  0.5153E+00  0.8214E+01  0.8211E+01
     -3.111  0.6320E+00  0.6273E+00  0.8305E+01  0.8302E+01
     -2.967  0.6705E+00  0.6711E+00  0.8402E+01  0.8399E+01
     -2.823  0.7980E+00  0.7915E+00  0.8517E+01  0.8513E+01
     -2.679  0.8543E+00  0.8554E+00  0.8641E+01  0.8637E+01
     -2.534  0.9390E+00  0.9345E+00  0.8776E+01  0.8772E+01
     -2.390  0.1057E+01  0.1052E+01  0.8929E+01  0.8924E+01
     -2.246  0.1200E+01  0.1201E+01  0.9103E+01  0.9097E+01
     -2.101  0.1194E+01  0.1189E+01  0.9275E+01  0.9269E+01
     -1.957  0.1357E+01  0.1360E+01  0.9471E+01  0.9466E+01
     -1.813  0.1158E+01  0.1165E+01  0.9639E+01  0.9634E+01
     -1.669  0.1088E+01  0.1082E+01  0.9796E+01  0.9791E+01
     -1.524  0.1317E+01  0.1312E+01  0.9986E+01  0.9980E+01
     -1.380  0.1574E+01  0.1564E+01  0.1021E+02  0.1021E+02
     -1.236  0.1664E+01  0.1667E+01  0.1045E+02  0.1045E+02
     -1.091  0.1431E+01  0.1437E+01  0.1066E+02  0.1065E+02
     -0.947  0.1455E+01  0.1449E+01  0.1087E+02  0.1086E+02
     -0.803  0.1595E+01  0.1596E+01  0.1110E+02  0.1110E+02
     -0.659  0.1512E+01  0.1514E+01  0.1132E+02  0.1131E+02
     -0.514  0.1569E+01  0.1564E+01  0.1155E+02  0.1154E+02
     -0.370  0.1903E+01  0.1895E+01  0.1182E+02  0.1181E+02
     -0.226  0.1610E+01  0.1627E+01  0.1206E+02  0.1205E+02
     -0.082  0.1660E+01  0.1645E+01  0.1230E+02  0.1229E+02
      0.063  0.1649E+01  0.1664E+01  0.1253E+02  0.1253E+02
      0.207  0.1401E+01  0.1400E+01  0.1274E+02  0.1273E+02
      0.351  0.1451E+01  0.1448E+01  0.1295E+02  0.1294E+02
      0.496  0.1322E+01  0.1334E+01  0.1314E+02  0.1313E+02
      0.640  0.1104E+01  0.1105E+01  0.1330E+02  0.1329E+02
      0.784  0.1205E+01  0.1200E+01  0.1347E+02  0.1347E+02
      0.928  0.1032E+01  0.1043E+01  0.1362E+02  0.1362E+02
      1.073  0.9160E+00  0.9124E+00  0.1375E+02  0.1375E+02
      1.217  0.1000E+01  0.9954E+00  0.1390E+02  0.1389E+02
      1.361  0.1033E+01  0.1031E+01  0.1405E+02  0.1404E+02
      1.506  0.1200E+01  0.1196E+01  0.1422E+02  0.1421E+02
      1.650  0.1349E+01  0.1338E+01  0.1442E+02  0.1441E+02
      1.794  0.1613E+01  0.1604E+01  0.1465E+02  0.1464E+02
      1.938  0.2159E+01  0.2136E+01  0.1496E+02  0.1495E+02
      2.083  0.2320E+01  0.2329E+01  0.1530E+02  0.1528E+02
      2.227  0.2186E+01  0.2187E+01  0.1561E+02  0.1560E+02
      2.371  0.2159E+01  0.2157E+01  0.1592E+02  0.1591E+02
      2.516  0.2279E+01  0.2270E+01  0.1625E+02  0.1624E+02
      2.660  0.2642E+01  0.2629E+01  0.1663E+02  0.1662E+02
      2.804  0.2905E+01  0.2904E+01  0.1705E+02  0.1704E+02
      2.948  0.2755E+01  0.2760E+01  0.1745E+02  0.1744E+02
      3.093  0.2672E+01  0.2677E+01  0.1784E+02  0.1783E+02
      3.237  0.2444E+01  0.2455E+01  0.1819E+02  0.1818E+02
      3.381  0.2208E+01  0.2207E+01  0.1851E+02  0.1850E+02
      3.526  0.2320E+01  0.2323E+01  0.1885E+02  0.1884E+02
      3.670  0.2265E+01  0.2257E+01  0.1917E+02  0.1916E+02
      3.814  0.2468E+01  0.2467E+01  0.1953E+02  0.1952E+02
      3.958  0.2656E+01  0.2643E+01  0.1992E+02  0.1990E+02
      4.103  0.2947E+01  0.2947E+01  0.2034E+02  0.2033E+02
      4.247  0.2546E+01  0.2567E+01  0.2071E+02  0.2070E+02
      4.391  0.2324E+01  0.2318E+01  0.2105E+02  0.2103E+02
      4.536  0.2595E+01  0.2590E+01  0.2142E+02  0.2141E+02
      4.680  0.2378E+01  0.2391E+01  0.2177E+02  0.2175E+02
      4.824  0.2141E+01  0.2150E+01  0.2207E+02  0.2206E+02
      4.968  0.2066E+01  0.2058E+01  0.2237E+02  0.2236E+02
      5.113  0.2333E+01  0.2324E+01  0.2271E+02  0.2270E+02
      5.257  0.2491E+01  0.2490E+01  0.2307E+02  0.2306E+02
      5.401  0.2420E+01  0.2429E+01  0.2342E+02  0.2341E+02
      5.545  0.2197E+01  0.2199E+01  0.2374E+02  0.2373E+02
      5.690  0.2305E+01  0.2305E+01  0.2407E+02  0.2406E+02
      5.834  0.2458E+01  0.2436E+01  0.2443E+02  0.2441E+02
      5.978  0.3588E+01  0.3539E+01  0.2495E+02  0.2492E+02
      6.123  0.4183E+01  0.4209E+01  0.2555E+02  0.2553E+02
      6.267  0.3640E+01  0.3666E+01  0.2608E+02  0.2606E+02
      6.411  0.3231E+01  0.3274E+01  0.2654E+02  0.2654E+02
      6.555  0.2700E+01  0.2712E+01  0.2693E+02  0.2693E+02
      6.700  0.2315E+01  0.2378E+01  0.2727E+02  0.2727E+02
      6.844  0.1724E+01  0.1643E+01  0.2752E+02  0.2751E+02
      6.988  0.1064E+01  0.1064E+01  0.2767E+02  0.2766E+02
      7.133  0.6218E+00  0.6640E+00  0.2776E+02  0.2776E+02
      7.277  0.5356E+00  0.5417E+00  0.2784E+02  0.2784E+02
      7.421  0.5585E+00  0.4964E+00  0.2792E+02  0.2791E+02
      7.565  0.3889E+00  0.3798E+00  0.2798E+02  0.2797E+02
      7.710  0.1372E+00  0.2076E+00  0.2800E+02  0.2800E+02
      7.854  0.1608E-01  0.2693E-01  0.2800E+02  0.2800E+02
      7.998  0.7102E-03  0.7559E-03  0.2800E+02  0.2800E+02
      8.143  0.0000E+00  0.0000E+00  0.2800E+02  0.2800E+02
      8.287  0.0000E+00  0.0000E+00  0.2800E+02  0.2800E+02
      8.431  0.0000E+00  0.0000E+00  0.2800E+02  0.2800E+02
      8.575  0.0000E+00  0.0000E+00  0.2800E+02  0.2800E+02
      8.720  0.0000E+00  0.0000E+00  0.2800E+02  0.2800E+02
      8.864  0.0000E+00  0.0000E+00  0.2800E+02  0.2800E+02
      9.008  0.0000E+00  0.0000E+00  0.2800E+02  0.2800E+02
      9.153  0.0000E+00  0.0000E+00  0.2800E+02  0.2800E+02
      9.297  0.0000E+00  0.0000E+00  0.2800E+02  0.2800E+02
      9.441  0.0000E+00  0.0000E+00  0.2800E+02  0.2800E+02
      9.585  0.0000E+00  0.0000E+00  0.2800E+02  0.2800E+02
      9.58540133    -33.69928793  301      3.59811625      1.00000000
    -33.699  0.0000E+00  0.0000E+00  0.0000E+00  0.0000E+00  0.0000E+00  0.0000E+00  0.0000E+00  0.0000E+00  0.0000E+00  0.0000E+00  0.0000E+00  0.0000E+00  0.0000E+00  0.0000E+00  0.0000E+00  0.0000E+00  0.0000E+00  0.0000E+00
    -33.555  0.0000E+00  0.0000E+00  0.0000E+00  0.0000E+00  0.0000E+00  0.0000E+00  0.0000E+00  0.0000E+00  0.0000E+00  0.0000E+00  0.0000E+00  0.0000E+00  0.0000E+00  0.0000E+00  0.0000E+00  0.0000E+00  0.0000E+00  0.0000E+00
    -33.411  0.0000E+00  0.0000E+00  0.0000E+00  0.0000E+00  0.0000E+00  0.0000E+00  0.0000E+00  0.0000E+00  0.0000E+00  0.0000E+00  0.0000E+00  0.0000E+00  0.0000E+00  0.0000E+00  0.0000E+00  0.0000E+00  0.0000E+00  0.0000E+00
    -33.266  0.0000E+00  0.0000E+00  0.0000E+00  0.0000E+00  0.0000E+00  0.0000E+00  0.0000E+00  0.0000E+00  0.0000E+00  0.0000E+00  0.0000E+00  0.0000E+00  0.0000E+00  0.0000E+00  0.0000E+00  0.0000E+00  0.0000E+00  0.0000E+00
    -33.122  0.0000E+00  0.0000E+00  0.0000E+00  0.0000E+00  0.0000E+00  0.0000E+00  0.0000E+00  0.0000E+00  0.0000E+00  0.0000E+00  0.0000E+00  0.0000E+00  0.0000E+00  0.0000E+00  0.0000E+00  0.0000E+00  0.0000E+00  0.0000E+00
    -32.978  0.0000E+00  0.0000E+00  0.0000E+00  0.0000E+00  0.0000E+00  0.0000E+00  0.0000E+00  0.0000E+00  0.0000E+00  0.0000E+00  0.0000E+00  0.0000E+00  0.0000E+00  0.0000E+00  0.0000E+00  0.0000E+00  0.0000E+00  0.0000E+00
    -32.834  0.0000E+00  0.0000E+00  0.0000E+00  0.0000E+00  0.0000E+00  0.0000E+00  0.0000E+00  0.0000E+00  0.0000E+00  0.0000E+00  0.0000E+00  0.0000E+00  0.0000E+00  0.0000E+00  0.0000E+00  0.0000E+00  0.0000E+00  0.0000E+00
    -32.689  0.0000E+00  0.0000E+00  0.0000E+00  0.0000E+00  0.0000E+00  0.0000E+00  0.0000E+00  0.0000E+00  0.0000E+00  0.0000E+00  0.0000E+00  0.0000E+00  0.0000E+00  0.0000E+00  0.0000E+00  0.0000E+00  0.0000E+00  0.0000E+00
    -32.545  0.0000E+00  0.0000E+00  0.0000E+00  0.0000E+00  0.0000E+00  0.0000E+00  0.0000E+00  0.0000E+00  0.0000E+00  0.0000E+00  0.0000E+00  0.0000E+00  0.0000E+00  0.0000E+00  0.0000E+00  0.0000E+00  0.0000E+00  0.0000E+00
    -32.401  0.0000E+00  0.0000E+00  0.0000E+00  0.0000E+00  0.0000E+00  0.0000E+00  0.0000E+00  0.0000E+00  0.0000E+00  0.0000E+00  0.0000E+00  0.0000E+00  0.0000E+00  0.0000E+00  0.0000E+00  0.0000E+00  0.0000E+00  0.0000E+00
    -32.256  0.1845E-03  0.1831E-03  0.1855E-12  0.1850E-12  0.1558E-14  0.4139E-14  0.1855E-12  0.1850E-12  0.4572E-15  0.6700E-15  0.1470E-14  0.5768E-15  0.1334E-09  0.1319E-09  0.1470E-14  0.5768E-15  0.1026E-12  0.9130E-13
    -32.112  0.3119E-02  0.3095E-02  0.3136E-11  0.3128E-11  0.2635E-13  0.6997E-13  0.3136E-11  0.3128E-11  0.7730E-14  0.1133E-13  0.2486E-13  0.9752E-14  0.2255E-08  0.2230E-08  0.2486E-13  0.9752E-14  0.1735E-11  0.1544E-11
    -31.968  0.5540E-01  0.5498E-01  0.5569E-10  0.5556E-10  0.4679E-12  0.1243E-11  0.5569E-10  0.5556E-10  0.1373E-12  0.2012E-12  0.4415E-12  0.1732E-12  0.4006E-07  0.3960E-07  0.4415E-12  0.1732E-12  0.3082E-10  0.2742E-10
    -31.824  0.8586E+00  0.8530E+00  0.8631E-09  0.8619E-09  0.7246E-11  0.1926E-10  0.8631E-09  0.8619E-09  0.2129E-11  0.3122E-11  0.6842E-11  0.2688E-11  0.6209E-06  0.6144E-06  0.6842E-11  0.2688E-11  0.4776E-09  0.4254E-09
    -31.679  0.4080E+01  0.4076E+01  0.4101E-08  0.4118E-08  0.3428E-10  0.9147E-10  0.4101E-08  0.4118E-08  0.1014E-10  0.1492E-10  0.3250E-10  0.1287E-10  0.2951E-05  0.2937E-05  0.3250E-10  0.1287E-10  0.2270E-08  0.2033E-08
    -31.535  0.1651E+01  0.1660E+01  0.1659E-08  0.1677E-08  0.1379E-10  0.3698E-10  0.1659E-08  0.1677E-08  0.4110E-11  0.6076E-11  0.1314E-10  0.5254E-11  0.1194E-05  0.1196E-05  0.1314E-10  0.5254E-11  0.9183E-09  0.8276E-09
    -31.391  0.1249E+00  0.1258E+00  0.1255E-09  0.1271E-09  0.1042E-11  0.2797E-11  0.1255E-09  0.1271E-09  0.3111E-12  0.4606E-12  0.9942E-12  0.3985E-12  0.9034E-07  0.9067E-07  0.9942E-12  0.3985E-12  0.6947E-10  0.6273E-10
    -31.246  0.0000E+00  0.0000E+00  0.0000E+00  0.0000E+00  0.0000E+00  0.0000E+00  0.0000E+00  0.0000E+00  0.0000E+00  0.0000E+00  0.0000E+00  0.0000E+00  0.0000E+00  0.0000E+00  0.0000E+00  0.0000E+00  0.0000E+00  0.0000E+00
    -31.102  0.0000E+00  0.0000E+00  0.0000E+00  0.0000E+00  0.0000E+00  0.0000E+00  0.0000E+00  0.0000E+00  0.0000E+00  0.0000E+00  0.0000E+00  0.0000E+00  0.0000E+00  0.0000E+00  0.0000E+00  0.0000E+00  0.0000E+00  0.0000E+00
    -30.958  0.0000E+00  0.0000E+00  0.0000E+00  0.0000E+00  0.0000E+00  0.0000E+00  0.0000E+00  0.0000E+00  0.0000E+00  0.0000E+00  0.0000E+00  0.0000E+00  0.0000E+00  0.0000E+00  0.0000E+00  0.0000E+00  0.0000E+00  0.0000E+00
    -30.814  0.0000E+00  0.0000E+00  0.0000E+00  0.0000E+00  0.0000E+00  0.0000E+00  0.0000E+00  0.0000E+00  0.0000E+00  0.0000E+00  0.0000E+00  0.0000E+00  0.0000E+00  0.0000E+00  0.0000E+00  0.0000E+00  0.0000E+00  0.0000E+00
    -30.669  0.0000E+00  0.0000E+00  0.0000E+00  0.0000E+00  0.0000E+00  0.0000E+00  0.0000E+00  0.0000E+00  0.0000E+00  0.0000E+00  0.0000E+00  0.0000E+00  0.0000E+00  0.0000E+00  0.0000E+00  0.0000E+00  0.0000E+00  0.0000E+00
    -30.525  0.0000E+00  0.0000E+00  0.0000E+00  0.0000E+00  0.0000E+00  0.0000E+00  0.0000E+00  0.0000E+00  0.0000E+00  0.0000E+00  0.0000E+00  0.0000E+00  0.0000E+00  0.0000E+00  0.0000E+00  0.0000E+00  0.0000E+00  0.0000E+00
    -30.381  0.0000E+00  0.0000E+00  0.0000E+00  0.0000E+00  0.0000E+00  0.0000E+00  0.0000E+00  0.0000E+00  0.0000E+00  0.0000E+00  0.0000E+00  0.0000E+00  0.0000E+00  0.0000E+00  0.0000E+00  0.0000E+00  0.0000E+00  0.0000E+00
    -30.237  0.0000E+00  0.0000E+00  0.0000E+00  0.0000E+00  0.0000E+00  0.0000E+00  0.0000E+00  0.0000E+00  0.0000E+00  0.0000E+00  0.0000E+00  0.0000E+00  0.0000E+00  0.0000E+00  0.0000E+00  0.0000E+00  0.0000E+00  0.0000E+00
    -30.092  0.0000E+00  0.0000E+00  0.0000E+00  0.0000E+00  0.0000E+00  0.0000E+00  0.0000E+00  0.0000E+00  0.0000E+00  0.0000E+00  0.0000E+00  0.0000E+00  0.0000E+00  0.0000E+00  0.0000E+00  0.0000E+00  0.0000E+00  0.0000E+00
    -29.948  0.0000E+00  0.0000E+00  0.0000E+00  0.0000E+00  0.0000E+00  0.0000E+00  0.0000E+00  0.0000E+00  0.0000E+00  0.0000E+00  0.0000E+00  0.0000E+00  0.0000E+00  0.0000E+00  0.0000E+00  0.0000E+00  0.0000E+00  0.0000E+00
    -29.804  0.0000E+00  0.0000E+00  0.0000E+00  0.0000E+00  0.0000E+00  0.0000E+00  0.0000E+00  0.0000E+00  0.0000E+00  0.0000E+00  0.0000E+00  0.0000E+00  0.0000E+00  0.0000E+00  0.0000E+00  0.0000E+00  0.0000E+00  0.0000E+00
    -29.659  0.0000E+00  0.0000E+00  0.0000E+00  0.0000E+00  0.0000E+00  0.0000E+00  0.0000E+00  0.0000E+00  0.0000E+00  0.0000E+00  0.0000E+00  0.0000E+00  0.0000E+00  0.0000E+00  0.0000E+00  0.0000E+00  0.0000E+00  0.0000E+00
    -29.515  0.0000E+00  0.0000E+00  0.0000E+00  0.0000E+00  0.0000E+00  0.0000E+00  0.0000E+00  0.0000E+00  0.0000E+00  0.0000E+00  0.0000E+00  0.0000E+00  0.0000E+00  0.0000E+00  0.0000E+00  0.0000E+00  0.0000E+00  0.0000E+00
    -29.371  0.0000E+00  0.0000E+00  0.0000E+00  0.0000E+00  0.0000E+00  0.0000E+00  0.0000E+00  0.0000E+00  0.0000E+00  0.0000E+00  0.0000E+00  0.0000E+00  0.0000E+00  0.0000E+00  0.0000E+00  0.0000E+00  0.0000E+00  0.0000E+00
    -29.227  0.0000E+00  0.0000E+00  0.0000E+00  0.0000E+00  0.0000E+00  0.0000E+00  0.0000E+00  0.0000E+00  0.0000E+00  0.0000E+00  0.0000E+00  0.0000E+00  0.0000E+00  0.0000E+00  0.0000E+00  0.0000E+00  0.0000E+00  0.0000E+00
    -29.082  0.0000E+00  0.0000E+00  0.0000E+00  0.0000E+00  0.0000E+00  0.0000E+00  0.0000E+00  0.0000E+00  0.0000E+00  0.0000E+00  0.0000E+00  0.0000E+00  0.0000E+00  0.0000E+00  0.0000E+00  0.0000E+00  0.0000E+00  0.0000E+00
    -28.938  0.0000E+00  0.0000E+00  0.0000E+00  0.0000E+00  0.0000E+00  0.0000E+00  0.0000E+00  0.0000E+00  0.0000E+00  0.0000E+00  0.0000E+00  0.0000E+00  0.0000E+00  0.0000E+00  0.0000E+00  0.0000E+00  0.0000E+00  0.0000E+00
    -28.794  0.0000E+00  0.0000E+00  0.0000E+00  0.0000E+00  0.0000E+00  0.0000E+00  0.0000E+00  0.0000E+00  0.0000E+00  0.0000E+00  0.0000E+00  0.0000E+00  0.0000E+00  0.0000E+00  0.0000E+00  0.0000E+00  0.0000E+00  0.0000E+00
    -28.649  0.0000E+00  0.0000E+00  0.0000E+00  0.0000E+00  0.0000E+00  0.0000E+00  0.0000E+00  0.0000E+00  0.0000E+00  0.0000E+00  0.0000E+00  0.0000E+00  0.0000E+00  0.0000E+00  0.0000E+00  0.0000E+00  0.0000E+00  0.0000E+00
    -28.505  0.0000E+00  0.0000E+00  0.0000E+00  0.0000E+00  0.0000E+00  0.0000E+00  0.0000E+00  0.0000E+00  0.0000E+00  0.0000E+00  0.0000E+00  0.0000E+00  0.0000E+00  0.0000E+00  0.0000E+00  0.0000E+00  0.0000E+00  0.0000E+00
    -28.361  0.0000E+00  0.0000E+00  0.0000E+00  0.0000E+00  0.0000E+00  0.0000E+00  0.0000E+00  0.0000E+00  0.0000E+00  0.0000E+00  0.0000E+00  0.0000E+00  0.0000E+00  0.0000E+00  0.0000E+00  0.0000E+00  0.0000E+00  0.0000E+00
    -28.217  0.0000E+00  0.0000E+00  0.0000E+00  0.0000E+00  0.0000E+00  0.0000E+00  0.0000E+00  0.0000E+00  0.0000E+00  0.0000E+00  0.0000E+00  0.0000E+00  0.0000E+00  0.0000E+00  0.0000E+00  0.0000E+00  0.0000E+00  0.0000E+00
    -28.072  0.0000E+00  0.0000E+00  0.0000E+00  0.0000E+00  0.0000E+00  0.0000E+00  0.0000E+00  0.0000E+00  0.0000E+00  0.0000E+00  0.0000E+00  0.0000E+00  0.0000E+00  0.0000E+00  0.0000E+00  0.0000E+00  0.0000E+00  0.0000E+00
    -27.928  0.0000E+00  0.0000E+00  0.0000E+00  0.0000E+00  0.0000E+00  0.0000E+00  0.0000E+00  0.0000E+00  0.0000E+00  0.0000E+00  0.0000E+00  0.0000E+00  0.0000E+00  0.0000E+00  0.0000E+00  0.0000E+00  0.0000E+00  0.0000E+00
    -27.784  0.0000E+00  0.0000E+00  0.0000E+00  0.0000E+00  0.0000E+00  0.0000E+00  0.0000E+00  0.0000E+00  0.0000E+00  0.0000E+00  0.0000E+00  0.0000E+00  0.0000E+00  0.0000E+00  0.0000E+00  0.0000E+00  0.0000E+00  0.0000E+00
    -27.639  0.0000E+00  0.0000E+00  0.0000E+00  0.0000E+00  0.0000E+00  0.0000E+00  0.0000E+00  0.0000E+00  0.0000E+00  0.0000E+00  0.0000E+00  0.0000E+00  0.0000E+00  0.0000E+00  0.0000E+00  0.0000E+00  0.0000E+00  0.0000E+00
    -27.495  0.0000E+00  0.0000E+00  0.0000E+00  0.0000E+00  0.0000E+00  0.0000E+00  0.0000E+00  0.0000E+00  0.0000E+00  0.0000E+00  0.0000E+00  0.0000E+00  0.0000E+00  0.0000E+00  0.0000E+00  0.0000E+00  0.0000E+00  0.0000E+00
    -27.351  0.0000E+00  0.0000E+00  0.0000E+00  0.0000E+00  0.0000E+00  0.0000E+00  0.0000E+00  0.0000E+00  0.0000E+00  0.0000E+00  0.0000E+00  0.0000E+00  0.0000E+00  0.0000E+00  0.0000E+00  0.0000E+00  0.0000E+00  0.0000E+00
    -27.207  0.0000E+00  0.0000E+00  0.0000E+00  0.0000E+00  0.0000E+00  0.0000E+00  0.0000E+00  0.0000E+00  0.0000E+00  0.0000E+00  0.0000E+00  0.0000E+00  0.0000E+00  0.0000E+00  0.0000E+00  0.0000E+00  0.0000E+00  0.0000E+00
    -27.062  0.0000E+00  0.0000E+00  0.0000E+00  0.0000E+00  0.0000E+00  0.0000E+00  0.0000E+00  0.0000E+00  0.0000E+00  0.0000E+00  0.0000E+00  0.0000E+00  0.0000E+00  0.0000E+00  0.0000E+00  0.0000E+00  0.0000E+00  0.0000E+00
    -26.918  0.0000E+00  0.0000E+00  0.0000E+00  0.0000E+00  0.0000E+00  0.0000E+00  0.0000E+00  0.0000E+00  0.0000E+00  0.0000E+00  0.0000E+00  0.0000E+00  0.0000E+00  0.0000E+00  0.0000E+00  0.0000E+00  0.0000E+00  0.0000E+00
    -26.774  0.0000E+00  0.0000E+00  0.0000E+00  0.0000E+00  0.0000E+00  0.0000E+00  0.0000E+00  0.0000E+00  0.0000E+00  0.0000E+00  0.0000E+00  0.0000E+00  0.0000E+00  0.0000E+00  0.0000E+00  0.0000E+00  0.0000E+00  0.0000E+00
    -26.629  0.0000E+00  0.0000E+00  0.0000E+00  0.0000E+00  0.0000E+00  0.0000E+00  0.0000E+00  0.0000E+00  0.0000E+00  0.0000E+00  0.0000E+00  0.0000E+00  0.0000E+00  0.0000E+00  0.0000E+00  0.0000E+00  0.0000E+00  0.0000E+00
    -26.485  0.0000E+00  0.0000E+00  0.0000E+00  0.0000E+00  0.0000E+00  0.0000E+00  0.0000E+00  0.0000E+00  0.0000E+00  0.0000E+00  0.0000E+00  0.0000E+00  0.0000E+00  0.0000E+00  0.0000E+00  0.0000E+00  0.0000E+00  0.0000E+00