   8   8   1   0
  0.2974151E+02  0.5005904E-09  0.5005904E-09  0.9494846E-09  0.5000000E-15
  1.000000000000000E-004
  CAR 
 unknown system                          
      9.21766431    -34.20250568  301      3.25517984      1.00000000
    -34.203  0.0000E+00  0.0000E+00  0.0000E+00  0.0000E+00
    -34.058  0.0000E+00  0.0000E+00  0.0000E+00  0.0000E+00
    -33.913  0.0000E+00  0.0000E+00  0.0000E+00  0.0000E+00
    -33.768  0.0000E+00  0.0000E+00  0.0000E+00  0.0000E+00
    -33.624  0.0000E+00  0.0000E+00  0.0000E+00  0.0000E+00
    -33.479  0.0000E+00  0.0000E+00  0.0000E+00  0.0000E+00
    -33.334  0.0000E+00  0.0000E+00  0.0000E+00  0.0000E+00
    -33.189  0.0000E+00  0.0000E+00  0.0000E+00  0.0000E+00
    -33.045  0.0000E+00  0.0000E+00  0.0000E+00  0.0000E+00
    -32.900  0.0000E+00  0.0000E+00  0.0000E+00  0.0000E+00
    -32.755  0.3658E-03  0.3635E-03  0.5294E-04  0.5261E-04
    -32.610  0.6244E-02  0.6204E-02  0.9567E-03  0.9506E-03
    -32.466  0.1119E+00  0.1112E+00  0.1715E-01  0.1705E-01
    -32.321  0.1750E+01  0.1741E+01  0.2705E+00  0.2690E+00
    -32.176  0.8339E+01  0.8332E+01  0.1477E+01  0.1475E+01
    -32.031  0.3345E+01  0.3361E+01  0.1962E+01  0.1961E+01
    -31.887  0.2502E+00  0.2518E+00  0.1998E+01  0.1998E+01
    -31.742  0.0000E+00  0.0000E+00  0.2000E+01  0.2000E+01
    -31.597  0.0000E+00  0.0000E+00  0.2000E+01  0.2000E+01
    -31.453  0.0000E+00  0.0000E+00  0.2000E+01  0.2000E+01
    -31.308  0.0000E+00  0.0000E+00  0.2000E+01  0.2000E+01
    -31.163  0.0000E+00  0.0000E+00  0.2000E+01  0.2000E+01
    -31.018  0.0000E+00  0.0000E+00  0.2000E+01  0.2000E+01
    -30.874  0.0000E+00  0.0000E+00  0.2000E+01  0.2000E+01
    -30.729  0.0000E+00  0.0000E+00  0.2000E+01  0.2000E+01
    -30.584  0.0000E+00  0.0000E+00  0.2000E+01  0.2000E+01
    -30.439  0.0000E+00  0.0000E+00  0.2000E+01  0.2000E+01
    -30.295  0.0000E+00  0.0000E+00  0.2000E+01  0.2000E+01
    -30.150  0.0000E+00  0.0000E+00  0.2000E+01  0.2000E+01
    -30.005  0.0000E+00  0.0000E+00  0.2000E+01  0.2000E+01
    -29.860  0.0000E+00  0.0000E+00  0.2000E+01  0.2000E+01
    -29.716  0.0000E+00  0.0000E+00  0.2000E+01  0.2000E+01
    -29.571  0.0000E+00  0.0000E+00  0.2000E+01  0.2000E+01
    -29.426  0.0000E+00  0.0000E+00  0.2000E+01  0.2000E+01
    -29.282  0.0000E+00  0.0000E+00  0.2000E+01  0.2000E+01
    -29.137  0.0000E+00  0.0000E+00  0.2000E+01  0.2000E+01
    -28.992  0.0000E+00  0.0000E+00  0.2000E+01  0.2000E+01
    -28.847  0.0000E+00  0.0000E+00  0.2000E+01  0.2000E+01
    -28.703  0.0000E+00  0.0000E+00  0.2000E+01  0.2000E+01
    -28.558  0.0000E+00  0.0000E+00  0.2000E+01  0.2000E+01
    -28.413  0.0000E+00  0.0000E+00  0.2000E+01  0.2000E+01
    -28.268  0.0000E+00  0.0000E+00  0.2000E+01  0.2000E+01
    -28.124  0.0000E+00  0.0000E+00  0.2000E+01  0.2000E+01
    -27.979  0.0000E+00  0.0000E+00  0.2000E+01  0.2000E+01
    -27.834  0.0000E+00  0.0000E+00  0.2000E+01  0.2000E+01
    -27.689  0.0000E+00  0.0000E+00  0.2000E+01  0.2000E+01
    -27.545  0.0000E+00  0.0000E+00  0.2000E+01  0.2000E+01
    -27.400  0.0000E+00  0.0000E+00  0.2000E+01  0.2000E+01
    -27.255  0.0000E+00  0.0000E+00  0.2000E+01  0.2000E+01
    -27.111  0.0000E+00  0.0000E+00  0.2000E+01  0.2000E+01
    -26.966  0.0000E+00  0.0000E+00  0.2000E+01  0.2000E+01
    -26.821  0.0000E+00  0.0000E+00  0.2000E+01  0.2000E+01
    -26.676  0.0000E+00  0.0000E+00  0.2000E+01  0.2000E+01
    -26.532  0.0000E+00  0.0000E+00  0.2000E+01  0.2000E+01
    -26.387  0.0000E+00  0.0000E+00  0.2000E+01  0.2000E+01
    -26.242  0.0000E+00  0.0000E+00  0.2000E+01  0.2000E+01
    -26.097  0.0000E+00  0.0000E+00  0.2000E+01  0.2000E+01
    -25.953  0.0000E+00  0.0000E+00  0.2000E+01  0.2000E+01
    -25.808  0.0000E+00  0.0000E+00  0.2000E+01  0.2000E+01
    -25.663  0.0000E+00  0.0000E+00  0.2000E+01  0.2000E+01
    -25.518  0.0000E+00  0.0000E+00  0.2000E+01  0.2000E+01
    -25.374  0.0000E+00  0.0000E+00  0.2000E+01  0.2000E+01
    -25.229  0.0000E+00  0.0000E+00  0.2000E+01  0.2000E+01
    -25.084  0.0000E+00  0.0000E+00  0.2000E+01  0.2000E+01
    -24.940  0.0000E+00  0.0000E+00  0.2000E+01  0.2000E+01
    -24.795  0.0000E+00  0.0000E+00  0.2000E+01  0.2000E+01
    -24.650  0.0000E+00  0.0000E+00  0.2000E+01  0.2000E+01
    -24.505  0.0000E+00  0.0000E+00  0.2000E+01  0.2000E+01
    -24.361  0.0000E+00  0.0000E+00  0.2000E+01  0.2000E+01
    -24.216  0.0000E+00  0.0000E+00  0.2000E+01  0.2000E+01
    -24.071  0.0000E+00  0.0000E+00  0.2000E+01  0.2000E+01
    -23.926  0.0000E+00  0.0000E+00  0.2000E+01  0.2000E+01
    -23.782  0.0000E+00  0.0000E+00  0.2000E+01  0.2000E+01
    -23.637  0.0000E+00  0.0000E+00  0.2000E+01  0.2000E+01
    -23.492  0.0000E+00  0.0000E+00  0.2000E+01  0.2000E+01
    -23.347  0.0000E+00  0.0000E+00  0.2000E+01  0.2000E+01
    -23.203  0.0000E+00  0.0000E+00  0.2000E+01  0.2000E+01
    -23.058  0.0000E+00  0.0000E+00  0.2000E+01  0.2000E+01
    -22.913  0.0000E+00  0.0000E+00  0.2000E+01  0.2000E+01
    -22.769  0.0000E+00  0.0000E+00  0.2000E+01  0.2000E+01
    -22.624  0.0000E+00  0.0000E+00  0.2000E+01  0.2000E+01
    -22.479  0.0000E+00  0.0000E+00  0.2000E+01  0.2000E+01
    -22.334  0.0000E+00  0.0000E+00  0.2000E+01  0.2000E+01
    -22.190  0.0000E+00  0.0000E+00  0.2000E+01  0.2000E+01
    -22.045  0.0000E+00  0.0000E+00  0.2000E+01  0.2000E+01
    -21.900  0.0000E+00  0.0000E+00  0.2000E+01  0.2000E+01
    -21.755  0.0000E+00  0.0000E+00  0.2000E+01  0.2000E+01
    -21.611  0.0000E+00  0.0000E+00  0.2000E+01  0.2000E+01
    -21.466  0.0000E+00  0.0000E+00  0.2000E+01  0.2000E+01
    -21.321  0.0000E+00  0.0000E+00  0.2000E+01  0.2000E+01
    -21.176  0.0000E+00  0.0000E+00  0.2000E+01  0.2000E+01
    -21.032  0.0000E+00  0.0000E+00  0.2000E+01  0.2000E+01
    -20.887  0.0000E+00  0.0000E+00  0.2000E+01  0.2000E+01
    -20.742  0.0000E+00  0.0000E+00  0.2000E+01  0.2000E+01
    -20.598  0.0000E+00  0.0000E+00  0.2000E+01  0.2000E+01
    -20.453  0.0000E+00  0.0000E+00  0.2000E+01  0.2000E+01
    -20.308  0.0000E+00  0.0000E+00  0.2000E+01  0.2000E+01
    -20.163  0.0000E+00  0.0000E+00  0.2000E+01  0.2000E+01
    -20.019  0.0000E+00  0.0000E+00  0.2000E+01  0.2000E+01
    -19.874  0.0000E+00  0.0000E+00  0.2000E+01  0.2000E+01
    -19.729  0.0000E+00  0.0000E+00  0.2000E+01  0.2000E+01
    -19.584  0.0000E+00  0.0000E+00  0.2000E+01  0.2000E+01
    -19.440  0.0000E+00  0.0000E+00  0.2000E+01  0.2000E+01
    -19.295  0.0000E+00  0.0000E+00  0.2000E+01  0.2000E+01
    -19.150  0.0000E+00  0.0000E+00  0.2000E+01  0.2000E+01
    -19.005  0.0000E+00  0.0000E+00  0.2000E+01  0.2000E+01
    -18.861  0.0000E+00  0.0000E+00  0.2000E+01  0.2000E+01
    -18.716  0.0000E+00  0.0000E+00  0.2000E+01  0.2000E+01
    -18.571  0.0000E+00  0.0000E+00  0.2000E+01  0.2000E+01
    -18.427  0.0000E+00  0.0000E+00  0.2000E+01  0.2000E+01
    -18.282  0.0000E+00  0.0000E+00  0.2000E+01  0.2000E+01
    -18.137  0.0000E+00  0.0000E+00  0.2000E+01  0.2000E+01
    -17.992  0.0000E+00  0.0000E+00  0.2000E+01  0.2000E+01
    -17.848  0.0000E+00  0.0000E+00  0.2000E+01  0.2000E+01
    -17.703  0.0000E+00  0.0000E+00  0.2000E+01  0.2000E+01
    -17.558  0.0000E+00  0.0000E+00  0.2000E+01  0.2000E+01
    -17.413  0.0000E+00  0.0000E+00  0.2000E+01  0.2000E+01
    -17.269  0.0000E+00  0.0000E+00  0.2000E+01  0.2000E+01
    -17.124  0.0000E+00  0.0000E+00  0.2000E+01  0.2000E+01
    -16.979  0.0000E+00  0.0000E+00  0.2000E+01  0.2000E+01
    -16.834  0.0000E+00  0.0000E+00  0.2000E+01  0.2000E+01
    -16.690  0.0000E+00  0.0000E+00  0.2000E+01  0.2000E+01
    -16.545  0.0000E+00  0.0000E+00  0.2000E+01  0.2000E+01
    -16.400  0.0000E+00  0.0000E+00  0.2000E+01  0.2000E+01
    -16.256  0.0000E+00  0.0000E+00  0.2000E+01  0.2000E+01
    -16.111  0.0000E+00  0.0000E+00  0.2000E+01  0.2000E+01
    -15.966  0.0000E+00  0.0000E+00  0.2000E+01  0.2000E+01
    -15.821  0.0000E+00  0.0000E+00  0.2000E+01  0.2000E+01
    -15.677  0.0000E+00  0.0000E+00  0.2000E+01  0.2000E+01
    -15.532  0.0000E+00  0.0000E+00  0.2000E+01  0.2000E+01
    -15.387  0.0000E+00  0.0000E+00  0.2000E+01  0.2000E+01
    -15.242  0.0000E+00  0.0000E+00  0.2000E+01  0.2000E+01
    -15.098  0.0000E+00  0.0000E+00  0.2000E+01  0.2000E+01
    -14.953  0.0000E+00  0.0000E+00  0.2000E+01  0.2000E+01
    -14.808  0.9576E-03  0.9355E-03  0.2000E+01  0.2000E+01
    -14.663  0.2039E-01  0.2017E-01  0.2003E+01  0.2003E+01
    -14.519  0.3602E+00  0.3562E+00  0.2055E+01  0.2055E+01
    -14.374  0.5387E+01  0.5338E+01  0.2835E+01  0.2827E+01
    -14.229  0.2383E+02  0.2379E+02  0.6283E+01  0.6271E+01
    -14.084  0.1091E+02  0.1098E+02  0.7862E+01  0.7861E+01
    -13.940  0.8985E+00  0.9075E+00  0.7992E+01  0.7992E+01
    -13.795  0.0000E+00  0.0000E+00  0.8000E+01  0.8000E+01
    -13.650  0.0000E+00  0.0000E+00  0.8000E+01  0.8000E+01
    -13.506  0.0000E+00  0.0000E+00  0.8000E+01  0.8000E+01
    -13.361  0.0000E+00  0.0000E+00  0.8000E+01  0.8000E+01
    -13.216  0.0000E+00  0.0000E+00  0.8000E+01  0.8000E+01
    -13.071  0.0000E+00  0.0000E+00  0.8000E+01  0.8000E+01
    -12.927  0.0000E+00  0.0000E+00  0.8000E+01  0.8000E+01
    -12.782  0.0000E+00  0.0000E+00  0.8000E+01  0.8000E+01
    -12.637  0.0000E+00  0.0000E+00  0.8000E+01  0.8000E+01
    -12.492  0.0000E+00  0.0000E+00  0.8000E+01  0.8000E+01
    -12.348  0.0000E+00  0.0000E+00  0.8000E+01  0.8000E+01
    -12.203  0.0000E+00  0.0000E+00  0.8000E+01  0.8000E+01
    -12.058  0.0000E+00  0.0000E+00  0.8000E+01  0.8000E+01
    -11.913  0.0000E+00  0.0000E+00  0.8000E+01  0.8000E+01
    -11.769  0.0000E+00  0.0000E+00  0.8000E+01  0.8000E+01
    -11.624  0.0000E+00  0.0000E+00  0.8000E+01  0.8000E+01
    -11.479  0.0000E+00  0.0000E+00  0.8000E+01  0.8000E+01
    -11.335  0.0000E+00  0.0000E+00  0.8000E+01  0.8000E+01
    -11.190  0.0000E+00  0.0000E+00  0.8000E+01  0.8000E+01
    -11.045  0.0000E+00  0.0000E+00  0.8000E+01  0.8000E+01
    -10.900  0.0000E+00  0.0000E+00  0.8000E+01  0.8000E+01
    -10.756  0.0000E+00  0.0000E+00  0.8000E+01  0.8000E+01
    -10.611  0.0000E+00  0.0000E+00  0.8000E+01  0.8000E+01
    -10.466  0.0000E+00  0.0000E+00  0.8000E+01  0.8000E+01
    -10.321  0.0000E+00  0.0000E+00  0.8000E+01  0.8000E+01
    -10.177  0.0000E+00  0.0000E+00  0.8000E+01  0.8000E+01
    -10.032  0.0000E+00  0.0000E+00  0.8000E+01  0.8000E+01
     -9.887  0.0000E+00  0.0000E+00  0.8000E+01  0.8000E+01
     -9.742  0.0000E+00  0.0000E+00  0.8000E+01  0.8000E+01
     -9.598  0.0000E+00  0.0000E+00  0.8000E+01  0.8000E+01
     -9.453  0.0000E+00  0.0000E+00  0.8000E+01  0.8000E+01
     -9.308  0.0000E+00  0.0000E+00  0.8000E+01  0.8000E+01
     -9.164  0.0000E+00  0.0000E+00  0.8000E+01  0.8000E+01
     -9.019  0.0000E+00  0.0000E+00  0.8000E+01  0.8000E+01
     -8.874  0.0000E+00  0.0000E+00  0.8000E+01  0.8000E+01
     -8.729  0.0000E+00  0.0000E+00  0.8000E+01  0.8000E+01
     -8.585  0.0000E+00  0.0000E+00  0.8000E+01  0.8000E+01
     -8.440  0.0000E+00  0.0000E+00  0.8000E+01  0.8000E+01
     -8.295  0.0000E+00  0.0000E+00  0.8000E+01  0.8000E+01
     -8.150  0.0000E+00  0.0000E+00  0.8000E+01  0.8000E+01
     -8.006  0.0000E+00  0.0000E+00  0.8000E+01  0.8000E+01
     -7.861  0.0000E+00  0.0000E+00  0.8000E+01  0.8000E+01
     -7.716  0.0000E+00  0.0000E+00  0.8000E+01  0.8000E+01
     -7.571  0.0000E+00  0.0000E+00  0.8000E+01  0.8000E+01
     -7.427  0.0000E+00  0.0000E+00  0.8000E+01  0.8000E+01
     -7.282  0.0000E+00  0.0000E+00  0.8000E+01  0.8000E+01
     -7.137  0.0000E+00  0.0000E+00  0.8000E+01  0.8000E+01
     -6.993  0.0000E+00  0.0000E+00  0.8000E+01  0.8000E+01
     -6.848  0.0000E+00  0.0000E+00  0.8000E+01  0.8000E+01
     -6.703  0.0000E+00  0.0000E+00  0.8000E+01  0.8000E+01
     -6.558  0.0000E+00  0.0000E+00  0.8000E+01  0.8000E+01
     -6.414  0.0000E+00  0.0000E+00  0.8000E+01  0.8000E+01
     -6.269  0.0000E+00  0.0000E+00  0.8000E+01  0.8000E+01
     -6.124  0.0000E+00  0.0000E+00  0.8000E+01  0.8000E+01
     -5.979  0.0000E+00  0.0000E+00  0.8000E+01  0.8000E+01
     -5.835  0.0000E+00  0.0000E+00  0.8000E+01  0.8000E+01
     -5.690  0.0000E+00  0.0000E+00  0.8000E+01  0.8000E+01
     -5.545  0.0000E+00  0.0000E+00  0.8000E+01  0.8000E+01
     -5.400  0.0000E+00  0.0000E+00  0.8000E+01  0.8000E+01
     -5.256  0.0000E+00  0.0000E+00  0.8000E+01  0.8000E+01
     -5.111  0.0000E+00  0.0000E+00  0.8000E+01  0.8000E+01
     -4.966  0.0000E+00  0.0000E+00  0.8000E+01  0.8000E+01
     -4.822  0.0000E+00  0.0000E+00  0.8000E+01  0.8000E+01
     -4.677  0.0000E+00  0.0000E+00  0.8000E+01  0.8000E+01
     -4.532  0.0000E+00  0.0000E+00  0.8000E+01  0.8000E+01
     -4.387  0.6011E-05  0.5657E-05  0.8000E+01  0.8000E+01
     -4.243  0.1379E-03  0.1298E-03  0.8000E+01  0.8000E+01
     -4.098  0.2446E-02  0.2304E-02  0.8000E+01  0.8000E+01
     -3.953  0.3468E-01  0.3305E-01  0.8005E+01  0.8005E+01
     -3.808  0.1800E+00  0.1761E+00  0.8031E+01  0.8031E+01
     -3.664  0.3460E+00  0.3433E+00  0.8082E+01  0.8080E+01
     -3.519  0.4777E+00  0.4754E+00  0.8151E+01  0.8149E+01
     -3.374  0.5604E+00  0.5586E+00  0.8232E+01  0.8230E+01
     -3.229  0.6920E+00  0.6899E+00  0.8332E+01  0.8330E+01
     -3.085  0.7202E+00  0.7186E+00  0.8436E+01  0.8434E+01
     -2.940  0.8886E+00  0.8864E+00  0.8565E+01  0.8563E+01
     -2.795  0.9113E+00  0.9096E+00  0.8697E+01  0.8694E+01
     -2.651  0.1041E+01  0.1039E+01  0.8848E+01  0.8845E+01
     -2.506  0.1218E+01  0.1214E+01  0.9025E+01  0.9021E+01
     -2.361  0.1227E+01  0.1228E+01  0.9203E+01  0.9199E+01
     -2.216  0.1394E+01  0.1391E+01  0.9405E+01  0.9401E+01
     -2.072  0.1277E+01  0.1283E+01  0.9590E+01  0.9587E+01
     -1.927  0.1076E+01  0.1076E+01  0.9746E+01  0.9743E+01
     -1.782  0.1287E+01  0.1282E+01  0.9933E+01  0.9929E+01
     -1.637  0.1547E+01  0.1541E+01  0.1016E+02  0.1015E+02
     -1.493  0.1749E+01  0.1749E+01  0.1041E+02  0.1041E+02
     -1.348  0.1545E+01  0.1549E+01  0.1063E+02  0.1063E+02
     -1.203  0.1548E+01  0.1544E+01  0.1086E+02  0.1085E+02
     -1.058  0.1692E+01  0.1692E+01  0.1110E+02  0.1110E+02
     -0.914  0.1604E+01  0.1606E+01  0.1134E+02  0.1133E+02
     -0.769  0.1630E+01  0.1626E+01  0.1157E+02  0.1157E+02
     -0.624  0.1971E+01  0.1968E+01  0.1186E+02  0.1185E+02
     -0.480  0.1638E+01  0.1645E+01  0.1210E+02  0.1209E+02
     -0.335  0.1811E+01  0.1805E+01  0.1236E+02  0.1235E+02
     -0.190  0.1597E+01  0.1605E+01  0.1259E+02  0.1259E+02
     -0.045  0.1507E+01  0.1506E+01  0.1281E+02  0.1280E+02
      0.099  0.1555E+01  0.1556E+01  0.1303E+02  0.1303E+02
      0.244  0.1247E+01  0.1252E+01  0.1322E+02  0.1321E+02
      0.389  0.1226E+01  0.1224E+01  0.1339E+02  0.1339E+02
      0.534  0.1243E+01  0.1248E+01  0.1357E+02  0.1357E+02
      0.678  0.9192E+00  0.9210E+00  0.1371E+02  0.1370E+02
      0.823  0.8520E+00  0.8525E+00  0.1383E+02  0.1383E+02
      0.968  0.7789E+00  0.7754E+00  0.1394E+02  0.1394E+02
      1.113  0.1026E+01  0.1020E+01  0.1409E+02  0.1409E+02
      1.257  0.1112E+01  0.1110E+01  0.1425E+02  0.1425E+02
      1.402  0.1297E+01  0.1289E+01  0.1444E+02  0.1444E+02
      1.547  0.1587E+01  0.1580E+01  0.1467E+02  0.1467E+02
      1.692  0.2257E+01  0.2241E+01  0.1500E+02  0.1499E+02
      1.836  0.2425E+01  0.2430E+01  0.1535E+02  0.1534E+02
      1.981  0.2329E+01  0.2332E+01  0.1569E+02  0.1568E+02
      2.126  0.2287E+01  0.2287E+01  0.1602E+02  0.1601E+02
      2.270  0.2433E+01  0.2426E+01  0.1637E+02  0.1636E+02
      2.415  0.2779E+01  0.2771E+01  0.1677E+02  0.1677E+02
      2.560  0.2950E+01  0.2952E+01  0.1720E+02  0.1719E+02
      2.705  0.2881E+01  0.2881E+01  0.1762E+02  0.1761E+02
      2.849  0.2823E+01  0.2827E+01  0.1803E+02  0.1802E+02
      2.994  0.2393E+01  0.2402E+01  0.1838E+02  0.1837E+02
      3.139  0.2397E+01  0.2392E+01  0.1872E+02  0.1872E+02
      3.284  0.2401E+01  0.2402E+01  0.1907E+02  0.1907E+02
      3.428  0.2533E+01  0.2531E+01  0.1944E+02  0.1943E+02
      3.573  0.2609E+01  0.2603E+01  0.1982E+02  0.1981E+02
      3.718  0.2968E+01  0.2963E+01  0.2025E+02  0.2024E+02
      3.863  0.2799E+01  0.2812E+01  0.2065E+02  0.2065E+02
      4.007  0.2433E+01  0.2431E+01  0.2101E+02  0.2100E+02
      4.152  0.2616E+01  0.2614E+01  0.2139E+02  0.2138E+02
      4.297  0.2572E+01  0.2578E+01  0.2176E+02  0.2175E+02
      4.441  0.2246E+01  0.2253E+01  0.2209E+02  0.2208E+02
      4.586  0.2166E+01  0.2162E+01  0.2240E+02  0.2239E+02
      4.731  0.2420E+01  0.2415E+01  0.2275E+02  0.2274E+02
      4.876  0.2601E+01  0.2599E+01  0.2313E+02  0.2312E+02
      5.020  0.2563E+01  0.2569E+01  0.2350E+02  0.2349E+02
      5.165  0.2299E+01  0.2299E+01  0.2383E+02  0.2383E+02
      5.310  0.2342E+01  0.2341E+01  0.2417E+02  0.2417E+02
      5.455  0.2812E+01  0.2791E+01  0.2458E+02  0.2457E+02
      5.599  0.4045E+01  0.4026E+01  0.2517E+02  0.2515E+02
      5.744  0.4192E+01  0.4234E+01  0.2577E+02  0.2577E+02
      5.889  0.3638E+01  0.3674E+01  0.2630E+02  0.2630E+02
      6.034  0.3026E+01  0.3010E+01  0.2674E+02  0.2674E+02
      6.178  0.2555E+01  0.2525E+01  0.2711E+02  0.2710E+02
      6.323  0.2124E+01  0.2139E+01  0.2742E+02  0.2741E+02
      6.468  0.1351E+01  0.1339E+01  0.2762E+02  0.2761E+02
      6.612  0.8111E+00  0.7249E+00  0.2774E+02  0.2771E+02
      6.757  0.5675E+00  0.6175E+00  0.2782E+02  0.2780E+02
      6.902  0.5629E+00  0.6016E+00  0.2790E+02  0.2789E+02
      7.047  0.4186E+00  0.4589E+00  0.2796E+02  0.2796E+02
      7.191  0.2089E+00  0.2421E+00  0.2799E+02  0.2799E+02
      7.336  0.5336E-01  0.4072E-01  0.2800E+02  0.2800E+02
      7.481  0.6616E-02  0.2157E-02  0.2800E+02  0.2800E+02
      7.626  0.3834E-03  0.0000E+00  0.2800E+02  0.2800E+02
      7.770  0.0000E+00  0.0000E+00  0.2800E+02  0.2800E+02
      7.915  0.0000E+00  0.0000E+00  0.2800E+02  0.2800E+02
      8.060  0.0000E+00  0.0000E+00  0.2800E+02  0.2800E+02
      8.205  0.0000E+00  0.0000E+00  0.2800E+02  0.2800E+02
      8.349  0.0000E+00  0.0000E+00  0.2800E+02  0.2800E+02
      8.494  0.0000E+00  0.0000E+00  0.2800E+02  0.2800E+02
      8.639  0.0000E+00  0.0000E+00  0.2800E+02  0.2800E+02
      8.783  0.0000E+00  0.0000E+00  0.2800E+02  0.2800E+02
      8.928  0.0000E+00  0.0000E+00  0.2800E+02  0.2800E+02
      9.073  0.0000E+00  0.0000E+00  0.2800E+02  0.2800E+02
      9.218  0.0000E+00  0.0000E+00  0.2800E+02  0.2800E+02
      9.21766431    -34.20250568  301      3.25517984      1.00000000
    -34.203  0.0000E+00  0.0000E+00  0.0000E+00  0.0000E+00  0.0000E+00  0.0000E+00  0.0000E+00  0.0000E+00  0.0000E+00  0.0000E+00  0.0000E+00  0.0000E+00  0.0000E+00  0.0000E+00  0.0000E+00  0.0000E+00  0.0000E+00  0.0000E+00
    -34.058  0.0000E+00  0.0000E+00  0.0000E+00  0.0000E+00  0.0000E+00  0.0000E+00  0.0000E+00  0.0000E+00  0.0000E+00  0.0000E+00  0.0000E+00  0.0000E+00  0.0000E+00  0.0000E+00  0.0000E+00  0.0000E+00  0.0000E+00  0.0000E+00
    -33.913  0.0000E+00  0.0000E+00  0.0000E+00  0.0000E+00  0.0000E+00  0.0000E+00  0.0000E+00  0.0000E+00  0.0000E+00  0.0000E+00  0.0000E+00  0.0000E+00  0.0000E+00  0.0000E+00  0.0000E+00  0.0000E+00  0.0000E+00  0.0000E+00
    -33.768  0.0000E+00  0.0000E+00  0.0000E+00  0.0000E+00  0.0000E+00  0.0000E+00  0.0000E+00  0.0000E+00  0.0000E+00  0.0000E+00  0.0000E+00  0.0000E+00  0.0000E+00  0.0000E+00  0.0000E+00  0.0000E+00  0.0000E+00  0.0000E+00
    -33.624  0.0000E+00  0.0000E+00  0.0000E+00  0.0000E+00  0.0000E+00  0.0000E+00  0.0000E+00  0.0000E+00  0.0000E+00  0.0000E+00  0.0000E+00  0.0000E+00  0.0000E+00  0.0000E+00  0.0000E+00  0.0000E+00  0.0000E+00  0.0000E+00
    -33.479  0.0000E+00  0.0000E+00  0.0000E+00  0.0000E+00  0.0000E+00  0.0000E+00  0.0000E+00  0.0000E+00  0.0000E+00  0.0000E+00  0.0000E+00  0.0000E+00  0.0000E+00  0.0000E+00  0.0000E+00  0.0000E+00  0.0000E+00  0.0000E+00
    -33.334  0.0000E+00  0.0000E+00  0.0000E+00  0.0000E+00  0.0000E+00  0.0000E+00  0.0000E+00  0.0000E+00  0.0000E+00  0.0000E+00  0.0000E+00  0.0000E+00  0.0000E+00  0.0000E+00  0.0000E+00  0.0000E+00  0.0000E+00  0.0000E+00
    -33.189  0.0000E+00  0.0000E+00  0.0000E+00  0.0000E+00  0.0000E+00  0.0000E+00  0.0000E+00  0.0000E+00  0.0000E+00  0.0000E+00  0.0000E+00  0.0000E+00  0.0000E+00  0.0000E+00  0.0000E+00  0.0000E+00  0.0000E+00  0.0000E+00
    -33.045  0.0000E+00  0.0000E+00  0.0000E+00  0.0000E+00  0.0000E+00  0.0000E+00  0.0000E+00  0.0000E+00  0.0000E+00  0.0000E+00  0.0000E+00  0.0000E+00  0.0000E+00  0.0000E+00  0.0000E+00  0.0000E+00  0.0000E+00  0.0000E+00
    -32.900  0.0000E+00  0.0000E+00  0.0000E+00  0.0000E+00  0.0000E+00  0.0000E+00  0.0000E+00  0.0000E+00  0.0000E+00  0.0000E+00  0.0000E+00  0.0000E+00  0.0000E+00  0.0000E+00  0.0000E+00  0.0000E+00  0.0000E+00  0.0000E+00
    -32.755  0.1790E-03  0.1778E-03  0.9885E-13  0.9849E-13  0.2965E-14  0.1753E-14  0.9885E-13  0.9849E-13  0.9779E-16  0.2161E-15  0.2687E-15  0.6417E-15  0.1050E-09  0.1035E-09  0.2687E-15  0.6417E-15  0.4456E-13  0.4766E-13
    -32.610  0.3055E-02  0.3036E-02  0.1687E-11  0.1681E-11  0.5061E-13  0.2992E-13  0.1687E-11  0.1681E-11  0.1669E-14  0.3689E-14  0.4586E-14  0.1095E-13  0.1792E-08  0.1767E-08  0.4586E-14  0.1095E-13  0.7607E-12  0.8135E-12
    -32.466  0.5476E-01  0.5441E-01  0.3024E-10  0.3013E-10  0.9071E-12  0.5363E-12  0.3024E-10  0.3013E-10  0.2992E-13  0.6612E-13  0.8219E-13  0.1963E-12  0.3212E-07  0.3166E-07  0.8219E-13  0.1963E-12  0.1363E-10  0.1458E-10
    -32.321  0.8565E+00  0.8518E+00  0.4730E-09  0.4717E-09  0.1418E-10  0.8388E-11  0.4730E-09  0.4717E-09  0.4682E-12  0.1035E-11  0.1286E-11  0.3073E-11  0.5024E-06  0.4957E-06  0.1286E-11  0.3073E-11  0.2132E-09  0.2283E-09
    -32.176  0.4080E+01  0.4077E+01  0.2253E-08  0.2258E-08  0.6723E-10  0.3997E-10  0.2253E-08  0.2258E-08  0.2238E-11  0.4967E-11  0.6130E-11  0.1469E-10  0.2394E-05  0.2373E-05  0.6130E-11  0.1469E-10  0.1016E-08  0.1093E-08
    -32.031  0.1637E+01  0.1644E+01  0.9039E-09  0.9105E-09  0.2683E-10  0.1604E-10  0.9039E-09  0.9105E-09  0.9010E-12  0.2008E-11  0.2461E-11  0.5920E-11  0.9603E-06  0.9571E-06  0.2461E-11  0.5920E-11  0.4076E-09  0.4407E-09
    -31.887  0.1224E+00  0.1232E+00  0.6761E-10  0.6821E-10  0.2003E-11  0.1200E-11  0.6761E-10  0.6821E-10  0.6747E-13  0.1506E-12  0.1842E-12  0.4434E-12  0.7184E-07  0.7171E-07  0.1842E-12  0.4434E-12  0.3049E-10  0.3302E-10
    -31.742  0.0000E+00  0.0000E+00  0.0000E+00  0.0000E+00  0.0000E+00  0.0000E+00  0.0000E+00  0.0000E+00  0.0000E+00  0.0000E+00  0.0000E+00  0.0000E+00  0.0000E+00  0.0000E+00  0.0000E+00  0.0000E+00  0.0000E+00  0.0000E+00
    -31.597  0.0000E+00  0.0000E+00  0.0000E+00  0.0000E+00  0.0000E+00  0.0000E+00  0.0000E+00  0.0000E+00  0.0000E+00  0.0000E+00  0.0000E+00  0.0000E+00  0.0000E+00  0.0000E+00  0.0000E+00  0.0000E+00  0.0000E+00  0.0000E+00
    -31.453  0.0000E+00  0.0000E+00  0.0000E+00  0.0000E+00  0.0000E+00  0.0000E+00  0.0000E+00  0.0000E+00  0.0000E+00  0.0000E+00  0.0000E+00  0.0000E+00  0.0000E+00  0.0000E+00  0.0000E+00  0.0000E+00  0.0000E+00  0.0000E+00
    -31.308  0.0000E+00  0.0000E+00  0.0000E+00  0.0000E+00  0.0000E+00  0.0000E+00  0.0000E+00  0.0000E+00  0.0000E+00  0.0000E+00  0.0000E+00  0.0000E+00  0.0000E+00  0.0000E+00  0.0000E+00  0.0000E+00  0.0000E+00  0.0000E+00
    -31.163  0.0000E+00  0.0000E+00  0.0000E+00  0.0000E+00  0.0000E+00  0.0000E+00  0.0000E+00  0.0000E+00  0.0000E+00  0.0000E+00  0.0000E+00  0.0000E+00  0.0000E+00  0.0000E+00  0.0000E+00  0.0000E+00  0.0000E+00  0.0000E+00
    -31.018  0.0000E+00  0.0000E+00  0.0000E+00  0.0000E+00  0.0000E+00  0.0000E+00  0.0000E+00  0.0000E+00  0.0000E+00  0.0000E+00  0.0000E+00  0.0000E+00  0.0000E+00  0.0000E+00  0.0000E+00  0.0000E+00  0.0000E+00  0.0000E+00
    -30.874  0.0000E+00  0.0000E+00  0.0000E+00  0.0000E+00  0.0000E+00  0.0000E+00  0.0000E+00  0.0000E+00  0.0000E+00  0.0000E+00  0.0000E+00  0.0000E+00  0.0000E+00  0.0000E+00  0.0000E+00  0.0000E+00  0.0000E+00  0.0000E+00
    -30.729  0.0000E+00  0.0000E+00  0.0000E+00  0.0000E+00  0.0000E+00  0.0000E+00  0.0000E+00  0.0000E+00  0.0000E+00  0.0000E+00  0.0000E+00  0.0000E+00  0.0000E+00  0.0000E+00  0.0000E+00  0.0000E+00  0.0000E+00  0.0000E+00
    -30.584  0.0000E+00  0.0000E+00  0.0000E+00  0.0000E+00  0.0000E+00  0.0000E+00  0.0000E+00  0.0000E+00  0.0000E+00  0.0000E+00  0.0000E+00  0.0000E+00  0.0000E+00  0.0000E+00  0.0000E+00  0.0000E+00  0.0000E+00  0.0000E+00
    -30.439  0.0000E+00  0.0000E+00  0.0000E+00  0.0000E+00  0.0000E+00  0.0000E+00  0.0000E+00  0.0000E+00  0.0000E+00  0.0000E+00  0.0000E+00  0.0000E+00  0.0000E+00  0.0000E+00  0.0000E+00  0.0000E+00  0.0000E+00  0.0000E+00
    -30.295  0.0000E+00  0.0000E+00  0.0000E+00  0.0000E+00  0.0000E+00  0.0000E+00  0.0000E+00  0.0000E+00  0.0000E+00  0.0000E+00  0.0000E+00  0.0000E+00  0.0000E+00  0.0000E+00  0.0000E+00  0.0000E+00  0.0000E+00  0.0000E+00
    -30.150  0.0000E+00  0.0000E+00  0.0000E+00  0.0000E+00  0.0000E+00  0.0000E+00  0.0000E+00  0.0000E+00  0.0000E+00  0.0000E+00  0.0000E+00  0.0000E+00  0.0000E+00  0.0000E+00  0.0000E+00  0.0000E+00  0.0000E+00  0.0000E+00
    -30.005  0.0000E+00  0.0000E+00  0.0000E+00  0.0000E+00  0.0000E+00  0.0000E+00  0.0000E+00  0.0000E+00  0.0000E+00  0.0000E+00  0.0000E+00  0.0000E+00  0.0000E+00  0.0000E+00  0.0000E+00  0.0000E+00  0.0000E+00  0.0000E+00
    -29.860  0.0000E+00  0.0000E+00  0.0000E+00  0.0000E+00  0.0000E+00  0.0000E+00  0.0000E+00  0.0000E+00  0.0000E+00  0.0000E+00  0.0000E+00  0.0000E+00  0.0000E+00  0.0000E+00  0.0000E+00  0.0000E+00  0.0000E+00  0.0000E+00
    -29.716  0.0000E+00  0.0000E+00  0.0000E+00  0.0000E+00  0.0000E+00  0.0000E+00  0.0000E+00  0.0000E+00  0.0000E+00  0.0000E+00  0.0000E+00  0.0000E+00  0.0000E+00  0.0000E+00  0.0000E+00  0.0000E+00  0.0000E+00  0.0000E+00
    -29.571  0.0000E+00  0.0000E+00  0.0000E+00  0.0000E+00  0.0000E+00  0.0000E+00  0.0000E+00  0.0000E+00  0.0000E+00  0.0000E+00  0.0000E+00  0.0000E+00  0.0000E+00  0.0000E+00  0.0000E+00  0.0000E+00  0.0000E+00  0.0000E+00
    -29.426  0.0000E+00  0.0000E+00  0.0000E+00  0.0000E+00  0.0000E+00  0.0000E+00  0.0000E+00  0.0000E+00  0.0000E+00  0.0000E+00  0.0000E+00  0.0000E+00  0.0000E+00  0.0000E+00  0.0000E+00  0.0000E+00  0.0000E+00  0.0000E+00
    -29.282  0.0000E+00  0.0000E+00  0.0000E+00  0.0000E+00  0.0000E+00  0.0000E+00  0.0000E+00  0.0000E+00  0.0000E+00  0.0000E+00  0.0000E+00  0.0000E+00  0.0000E+00  0.0000E+00  0.0000E+00  0.0000E+00  0.0000E+00  0.0000E+00
    -29.137  0.0000E+00  0.0000E+00  0.0000E+00  0.0000E+00  0.0000E+00  0.0000E+00  0.0000E+00  0.0000E+00  0.0000E+00  0.0000E+00  0.0000E+00  0.0000E+00  0.0000E+00  0.0000E+00  0.0000E+00  0.0000E+00  0.0000E+00  0.0000E+00
    -28.992  0.0000E+00  0.0000E+00  0.0000E+00  0.0000E+00  0.0000E+00  0.0000E+00  0.0000E+00  0.0000E+00  0.0000E+00  0.0000E+00  0.0000E+00  0.0000E+00  0.0000E+00  0.0000E+00  0.0000E+00  0.0000E+00  0.0000E+00  0.0000E+00
    -28.847  0.0000E+00  0.0000E+00  0.0000E+00  0.0000E+00  0.0000E+00  0.0000E+00  0.0000E+00  0.0000E+00  0.0000E+00  0.0000E+00  0.0000E+00  0.0000E+00  0.0000E+00  0.0000E+00  0.0000E+00  0.0000E+00  0.0000E+00  0.0000E+00
    -28.703  0.0000E+00  0.0000E+00  0.0000E+00  0.0000E+00  0.0000E+00  0.0000E+00  0.0000E+00  0.0000E+00  0.0000E+00  0.0000E+00  0.0000E+00  0.0000E+00  0.0000E+00  0.0000E+00  0.0000E+00  0.0000E+00  0.0000E+00  0.0000E+00
    -28.558  0.0000E+00  0.0000E+00  0.0000E+00  0.0000E+00  0.0000E+00  0.0000E+00  0.0000E+00  0.0000E+00  0.0000E+00  0.0000E+00  0.0000E+00  0.0000E+00  0.0000E+00  0.0000E+00  0.0000E+00  0.0000E+00  0.0000E+00  0.0000E+00
    -28.413  0.0000E+00  0.0000E+00  0.0000E+00  0.0000E+00  0.0000E+00  0.0000E+00  0.0000E+00  0.0000E+00  0.0000E+00  0.0000E+00  0.0000E+00  0.0000E+00  0.0000E+00  0.0000E+00  0.0000E+00  0.0000E+00  0.0000E+00  0.0000E+00
    -28.268  0.0000E+00  0.0000E+00  0.0000E+00  0.0000E+00  0.0000E+00  0.0000E+00  0.0000E+00  0.0000E+00  0.0000E+00  0.0000E+00  0.0000E+00  0.0000E+00  0.0000E+00  0.0000E+00  0.0000E+00  0.0000E+00  0.0000E+00  0.0000E+00
    -28.124  0.0000E+00  0.0000E+00  0.0000E+00  0.0000E+00  0.0000E+00  0.0000E+00  0.0000E+00  0.0000E+00  0.0000E+00  0.0000E+00  0.0000E+00  0.0000E+00  0.0000E+00  0.0000E+00  0.0000E+00  0.0000E+00  0.0000E+00  0.0000E+00
    -27.979  0.0000E+00  0.0000E+00  0.0000E+00  0.0000E+00  0.0000E+00  0.0000E+00  0.0000E+00  0.0000E+00  0.0000E+00  0.0000E+00  0.0000E+00  0.0000E+00  0.0000E+00  0.0000E+00  0.0000E+00  0.0000E+00  0.0000E+00  0.0000E+00
    -27.834  0.0000E+00  0.0000E+00  0.0000E+00  0.0000E+00  0.0000E+00  0.0000E+00  0.0000E+00  0.0000E+00  0.0000E+00  0.0000E+00  0.0000E+00  0.0000E+00  0.0000E+00  0.0000E+00  0.0000E+00  0.0000E+00  0.0000E+00  0.0000E+00
    -27.689  0.0000E+00  0.0000E+00  0.0000E+00  0.0000E+00  0.0000E+00  0.0000E+00  0.0000E+00  0.0000E+00  0.0000E+00  0.0000E+00  0.0000E+00  0.0000E+00  0.0000E+00  0.0000E+00  0.0000E+00  0.0000E+00  0.0000E+00  0.0000E+00
    -27.545  0.0000E+00  0.0000E+00  0.0000E+00  0.0000E+00  0.0000E+00  0.0000E+00  0.0000E+00  0.0000E+00  0.0000E+00  0.0000E+00  0.0000E+00  0.0000E+00  0.0000E+00  0.0000E+00  0.0000E+00  0.0000E+00  0.0000E+00  0.0000E+00
    -27.400  0.0000E+00  0.0000E+00  0.0000E+00  0.0000E+00  0.0000E+00  0.0000E+00  0.0000E+00  0.0000E+00  0.0000E+00  0.0000E+00  0.0000E+00  0.0000E+00  0.0000E+00  0.0000E+00  0.0000E+00  0.0000E+00  0.0000E+00  0.0000E+00
    -27.255  0.0000E+00  0.0000E+00  0.0000E+00  0.0000E+00  0.0000E+00  0.0000E+00  0.0000E+00  0.0000E+00  0.0000E+00  0.0000E+00  0.0000E+00  0.0000E+00  0.0000E+00  0.0000E+00  0.0000E+00  0.0000E+00  0.0000E+00  0.0000E+00
    -27.111  0.0000E+00  0.0000E+00  0.0000E+00  0.0000E+00  0.0000E+00  0.0000E+00  0.0000E+00  0.0000E+00  0.0000E+00  0.0000E+00  0.0000E+00  0.0000E+00  0.0000E+00  0.0000E+00  0.0000E+00  0.0000E+00  0.0000E+00  0.0000E+00
    -26.966  0.0000E+00  0.0000E+00  0.0000E+00  0.0000E+00  0.0000E+00  0.0000E+00  0.0000E+00  0.0000E+00  0.0000E+00  0.0000E+00  0.0000E+00  0.0000E+00  0.0000E+00  0.0000E+00  0.0000E+00  0.0000E+00  0.0000E+00  0.0000E+00