   8   8   1   0
  0.2658590E+02  0.4822201E-09  0.4822201E-09  0.9146412E-09  0.5000000E-15
  1.000000000000000E-004
  CAR 
 unknown system                          
     10.09509482    -33.17655067  301      3.96345201      1.00000000
    -33.177  0.0000E+00  0.0000E+00  0.0000E+00  0.0000E+00
    -33.032  0.0000E+00  0.0000E+00  0.0000E+00  0.0000E+00
    -32.888  0.0000E+00  0.0000E+00  0.0000E+00  0.0000E+00
    -32.744  0.0000E+00  0.0000E+00  0.0000E+00  0.0000E+00
    -32.600  0.0000E+00  0.0000E+00  0.0000E+00  0.0000E+00
    -32.455  0.0000E+00  0.0000E+00  0.0000E+00  0.0000E+00
    -32.311  0.0000E+00  0.0000E+00  0.0000E+00  0.0000E+00
    -32.167  0.0000E+00  0.0000E+00  0.0000E+00  0.0000E+00
    -32.023  0.0000E+00  0.0000E+00  0.0000E+00  0.0000E+00
    -31.878  0.0000E+00  0.0000E+00  0.0000E+00  0.0000E+00
    -31.734  0.3756E-03  0.3733E-03  0.5417E-04  0.5385E-04
    -31.590  0.6344E-02  0.6306E-02  0.9692E-03  0.9634E-03
    -31.446  0.1126E+00  0.1119E+00  0.1721E-01  0.1710E-01
    -31.301  0.1745E+01  0.1736E+01  0.2689E+00  0.2675E+00
    -31.157  0.8334E+01  0.8327E+01  0.1471E+01  0.1469E+01
    -31.013  0.3395E+01  0.3410E+01  0.1961E+01  0.1960E+01
    -30.869  0.2576E+00  0.2591E+00  0.1998E+01  0.1998E+01
    -30.724  0.0000E+00  0.0000E+00  0.2000E+01  0.2000E+01
    -30.580  0.0000E+00  0.0000E+00  0.2000E+01  0.2000E+01
    -30.436  0.0000E+00  0.0000E+00  0.2000E+01  0.2000E+01
    -30.292  0.0000E+00  0.0000E+00  0.2000E+01  0.2000E+01
    -30.148  0.0000E+00  0.0000E+00  0.2000E+01  0.2000E+01
    -30.003  0.0000E+00  0.0000E+00  0.2000E+01  0.2000E+01
    -29.859  0.0000E+00  0.0000E+00  0.2000E+01  0.2000E+01
    -29.715  0.0000E+00  0.0000E+00  0.2000E+01  0.2000E+01
    -29.571  0.0000E+00  0.0000E+00  0.2000E+01  0.2000E+01
    -29.426  0.0000E+00  0.0000E+00  0.2000E+01  0.2000E+01
    -29.282  0.0000E+00  0.0000E+00  0.2000E+01  0.2000E+01
    -29.138  0.0000E+00  0.0000E+00  0.2000E+01  0.2000E+01
    -28.994  0.0000E+00  0.0000E+00  0.2000E+01  0.2000E+01
    -28.849  0.0000E+00  0.0000E+00  0.2000E+01  0.2000E+01
    -28.705  0.0000E+00  0.0000E+00  0.2000E+01  0.2000E+01
    -28.561  0.0000E+00  0.0000E+00  0.2000E+01  0.2000E+01
    -28.417  0.0000E+00  0.0000E+00  0.2000E+01  0.2000E+01
    -28.272  0.0000E+00  0.0000E+00  0.2000E+01  0.2000E+01
    -28.128  0.0000E+00  0.0000E+00  0.2000E+01  0.2000E+01
    -27.984  0.0000E+00  0.0000E+00  0.2000E+01  0.2000E+01
    -27.840  0.0000E+00  0.0000E+00  0.2000E+01  0.2000E+01
    -27.695  0.0000E+00  0.0000E+00  0.2000E+01  0.2000E+01
    -27.551  0.0000E+00  0.0000E+00  0.2000E+01  0.2000E+01
    -27.407  0.0000E+00  0.0000E+00  0.2000E+01  0.2000E+01
    -27.263  0.0000E+00  0.0000E+00  0.2000E+01  0.2000E+01
    -27.119  0.0000E+00  0.0000E+00  0.2000E+01  0.2000E+01
    -26.974  0.0000E+00  0.0000E+00  0.2000E+01  0.2000E+01
    -26.830  0.0000E+00  0.0000E+00  0.2000E+01  0.2000E+01
    -26.686  0.0000E+00  0.0000E+00  0.2000E+01  0.2000E+01
    -26.542  0.0000E+00  0.0000E+00  0.2000E+01  0.2000E+01
    -26.397  0.0000E+00  0.0000E+00  0.2000E+01  0.2000E+01
    -26.253  0.0000E+00  0.0000E+00  0.2000E+01  0.2000E+01
    -26.109  0.0000E+00  0.0000E+00  0.2000E+01  0.2000E+01
    -25.965  0.0000E+00  0.0000E+00  0.2000E+01  0.2000E+01
    -25.820  0.0000E+00  0.0000E+00  0.2000E+01  0.2000E+01
    -25.676  0.0000E+00  0.0000E+00  0.2000E+01  0.2000E+01
    -25.532  0.0000E+00  0.0000E+00  0.2000E+01  0.2000E+01
    -25.388  0.0000E+00  0.0000E+00  0.2000E+01  0.2000E+01
    -25.243  0.0000E+00  0.0000E+00  0.2000E+01  0.2000E+01
    -25.099  0.0000E+00  0.0000E+00  0.2000E+01  0.2000E+01
    -24.955  0.0000E+00  0.0000E+00  0.2000E+01  0.2000E+01
    -24.811  0.0000E+00  0.0000E+00  0.2000E+01  0.2000E+01
    -24.666  0.0000E+00  0.0000E+00  0.2000E+01  0.2000E+01
    -24.522  0.0000E+00  0.0000E+00  0.2000E+01  0.2000E+01
    -24.378  0.0000E+00  0.0000E+00  0.2000E+01  0.2000E+01
    -24.234  0.0000E+00  0.0000E+00  0.2000E+01  0.2000E+01
    -24.090  0.0000E+00  0.0000E+00  0.2000E+01  0.2000E+01
    -23.945  0.0000E+00  0.0000E+00  0.2000E+01  0.2000E+01
    -23.801  0.0000E+00  0.0000E+00  0.2000E+01  0.2000E+01
    -23.657  0.0000E+00  0.0000E+00  0.2000E+01  0.2000E+01
    -23.513  0.0000E+00  0.0000E+00  0.2000E+01  0.2000E+01
    -23.368  0.0000E+00  0.0000E+00  0.2000E+01  0.2000E+01
    -23.224  0.0000E+00  0.0000E+00  0.2000E+01  0.2000E+01
    -23.080  0.0000E+00  0.0000E+00  0.2000E+01  0.2000E+01
    -22.936  0.0000E+00  0.0000E+00  0.2000E+01  0.2000E+01
    -22.791  0.0000E+00  0.0000E+00  0.2000E+01  0.2000E+01
    -22.647  0.0000E+00  0.0000E+00  0.2000E+01  0.2000E+01
    -22.503  0.0000E+00  0.0000E+00  0.2000E+01  0.2000E+01
    -22.359  0.0000E+00  0.0000E+00  0.2000E+01  0.2000E+01
    -22.214  0.0000E+00  0.0000E+00  0.2000E+01  0.2000E+01
    -22.070  0.0000E+00  0.0000E+00  0.2000E+01  0.2000E+01
    -21.926  0.0000E+00  0.0000E+00  0.2000E+01  0.2000E+01
    -21.782  0.0000E+00  0.0000E+00  0.2000E+01  0.2000E+01
    -21.637  0.0000E+00  0.0000E+00  0.2000E+01  0.2000E+01
    -21.493  0.0000E+00  0.0000E+00  0.2000E+01  0.2000E+01
    -21.349  0.0000E+00  0.0000E+00  0.2000E+01  0.2000E+01
    -21.205  0.0000E+00  0.0000E+00  0.2000E+01  0.2000E+01
    -21.060  0.0000E+00  0.0000E+00  0.2000E+01  0.2000E+01
    -20.916  0.0000E+00  0.0000E+00  0.2000E+01  0.2000E+01
    -20.772  0.0000E+00  0.0000E+00  0.2000E+01  0.2000E+01
    -20.628  0.0000E+00  0.0000E+00  0.2000E+01  0.2000E+01
    -20.484  0.0000E+00  0.0000E+00  0.2000E+01  0.2000E+01
    -20.339  0.0000E+00  0.0000E+00  0.2000E+01  0.2000E+01
    -20.195  0.0000E+00  0.0000E+00  0.2000E+01  0.2000E+01
    -20.051  0.0000E+00  0.0000E+00  0.2000E+01  0.2000E+01
    -19.907  0.0000E+00  0.0000E+00  0.2000E+01  0.2000E+01
    -19.762  0.0000E+00  0.0000E+00  0.2000E+01  0.2000E+01
    -19.618  0.0000E+00  0.0000E+00  0.2000E+01  0.2000E+01
    -19.474  0.0000E+00  0.0000E+00  0.2000E+01  0.2000E+01
    -19.330  0.0000E+00  0.0000E+00  0.2000E+01  0.2000E+01
    -19.185  0.0000E+00  0.0000E+00  0.2000E+01  0.2000E+01
    -19.041  0.0000E+00  0.0000E+00  0.2000E+01  0.2000E+01
    -18.897  0.0000E+00  0.0000E+00  0.2000E+01  0.2000E+01
    -18.753  0.0000E+00  0.0000E+00  0.2000E+01  0.2000E+01
    -18.608  0.0000E+00  0.0000E+00  0.2000E+01  0.2000E+01
    -18.464  0.0000E+00  0.0000E+00  0.2000E+01  0.2000E+01
    -18.320  0.0000E+00  0.0000E+00  0.2000E+01  0.2000E+01
    -18.176  0.0000E+00  0.0000E+00  0.2000E+01  0.2000E+01
    -18.031  0.0000E+00  0.0000E+00  0.2000E+01  0.2000E+01
    -17.887  0.0000E+00  0.0000E+00  0.2000E+01  0.2000E+01
    -17.743  0.0000E+00  0.0000E+00  0.2000E+01  0.2000E+01
    -17.599  0.0000E+00  0.0000E+00  0.2000E+01  0.2000E+01
    -17.455  0.0000E+00  0.0000E+00  0.2000E+01  0.2000E+01
    -17.310  0.0000E+00  0.0000E+00  0.2000E+01  0.2000E+01
    -17.166  0.0000E+00  0.0000E+00  0.2000E+01  0.2000E+01
    -17.022  0.0000E+00  0.0000E+00  0.2000E+01  0.2000E+01
    -16.878  0.0000E+00  0.0000E+00  0.2000E+01  0.2000E+01
    -16.733  0.0000E+00  0.0000E+00  0.2000E+01  0.2000E+01
    -16.589  0.0000E+00  0.0000E+00  0.2000E+01  0.2000E+01
    -16.445  0.0000E+00  0.0000E+00  0.2000E+01  0.2000E+01
    -16.301  0.0000E+00  0.0000E+00  0.2000E+01  0.2000E+01
    -16.156  0.0000E+00  0.0000E+00  0.2000E+01  0.2000E+01
    -16.012  0.0000E+00  0.0000E+00  0.2000E+01  0.2000E+01
    -15.868  0.0000E+00  0.0000E+00  0.2000E+01  0.2000E+01
    -15.724  0.0000E+00  0.0000E+00  0.2000E+01  0.2000E+01
    -15.579  0.0000E+00  0.0000E+00  0.2000E+01  0.2000E+01
    -15.435  0.0000E+00  0.0000E+00  0.2000E+01  0.2000E+01
    -15.291  0.0000E+00  0.0000E+00  0.2000E+01  0.2000E+01
    -15.147  0.0000E+00  0.0000E+00  0.2000E+01  0.2000E+01
    -15.002  0.0000E+00  0.0000E+00  0.2000E+01  0.2000E+01
    -14.858  0.0000E+00  0.0000E+00  0.2000E+01  0.2000E+01
    -14.714  0.0000E+00  0.0000E+00  0.2000E+01  0.2000E+01
    -14.570  0.0000E+00  0.0000E+00  0.2000E+01  0.2000E+01
    -14.426  0.0000E+00  0.0000E+00  0.2000E+01  0.2000E+01
    -14.281  0.0000E+00  0.0000E+00  0.2000E+01  0.2000E+01
    -14.137  0.0000E+00  0.0000E+00  0.2000E+01  0.2000E+01
    -13.993  0.0000E+00  0.0000E+00  0.2000E+01  0.2000E+01
    -13.849  0.9640E-03  0.9273E-03  0.2000E+01  0.2000E+01
    -13.704  0.2034E-01  0.1987E-01  0.2003E+01  0.2003E+01
    -13.560  0.3553E+00  0.3470E+00  0.2054E+01  0.2053E+01
    -13.416  0.5190E+01  0.5090E+01  0.2803E+01  0.2787E+01
    -13.272  0.2283E+02  0.2274E+02  0.6095E+01  0.6068E+01
    -13.127  0.1203E+02  0.1219E+02  0.7830E+01  0.7826E+01
    -12.983  0.1109E+01  0.1134E+01  0.7990E+01  0.7990E+01
    -12.839  0.0000E+00  0.0000E+00  0.8000E+01  0.8000E+01
    -12.695  0.0000E+00  0.0000E+00  0.8000E+01  0.8000E+01
    -12.550  0.0000E+00  0.0000E+00  0.8000E+01  0.8000E+01
    -12.406  0.0000E+00  0.0000E+00  0.8000E+01  0.8000E+01
    -12.262  0.0000E+00  0.0000E+00  0.8000E+01  0.8000E+01
    -12.118  0.0000E+00  0.0000E+00  0.8000E+01  0.8000E+01
    -11.973  0.0000E+00  0.0000E+00  0.8000E+01  0.8000E+01
    -11.829  0.0000E+00  0.0000E+00  0.8000E+01  0.8000E+01
    -11.685  0.0000E+00  0.0000E+00  0.8000E+01  0.8000E+01
    -11.541  0.0000E+00  0.0000E+00  0.8000E+01  0.8000E+01
    -11.396  0.0000E+00  0.0000E+00  0.8000E+01  0.8000E+01
    -11.252  0.0000E+00  0.0000E+00  0.8000E+01  0.8000E+01
    -11.108  0.0000E+00  0.0000E+00  0.8000E+01  0.8000E+01
    -10.964  0.0000E+00  0.0000E+00  0.8000E+01  0.8000E+01
    -10.820  0.0000E+00  0.0000E+00  0.8000E+01  0.8000E+01
    -10.675  0.0000E+00  0.0000E+00  0.8000E+01  0.8000E+01
    -10.531  0.0000E+00  0.0000E+00  0.8000E+01  0.8000E+01
    -10.387  0.0000E+00  0.0000E+00  0.8000E+01  0.8000E+01
    -10.243  0.0000E+00  0.0000E+00  0.8000E+01  0.8000E+01
    -10.098  0.0000E+00  0.0000E+00  0.8000E+01  0.8000E+01
     -9.954  0.0000E+00  0.0000E+00  0.8000E+01  0.8000E+01
     -9.810  0.0000E+00  0.0000E+00  0.8000E+01  0.8000E+01
     -9.666  0.0000E+00  0.0000E+00  0.8000E+01  0.8000E+01
     -9.521  0.0000E+00  0.0000E+00  0.8000E+01  0.8000E+01
     -9.377  0.0000E+00  0.0000E+00  0.8000E+01  0.8000E+01
     -9.233  0.0000E+00  0.0000E+00  0.8000E+01  0.8000E+01
     -9.089  0.0000E+00  0.0000E+00  0.8000E+01  0.8000E+01
     -8.944  0.0000E+00  0.0000E+00  0.8000E+01  0.8000E+01
     -8.800  0.0000E+00  0.0000E+00  0.8000E+01  0.8000E+01
     -8.656  0.0000E+00  0.0000E+00  0.8000E+01  0.8000E+01
     -8.512  0.0000E+00  0.0000E+00  0.8000E+01  0.8000E+01
     -8.367  0.0000E+00  0.0000E+00  0.8000E+01  0.8000E+01
     -8.223  0.0000E+00  0.0000E+00  0.8000E+01  0.8000E+01
     -8.079  0.0000E+00  0.0000E+00  0.8000E+01  0.8000E+01
     -7.935  0.0000E+00  0.0000E+00  0.8000E+01  0.8000E+01
     -7.791  0.0000E+00  0.0000E+00  0.8000E+01  0.8000E+01
     -7.646  0.0000E+00  0.0000E+00  0.8000E+01  0.8000E+01
     -7.502  0.0000E+00  0.0000E+00  0.8000E+01  0.8000E+01
     -7.358  0.0000E+00  0.0000E+00  0.8000E+01  0.8000E+01
     -7.214  0.0000E+00  0.0000E+00  0.8000E+01  0.8000E+01
     -7.069  0.0000E+00  0.0000E+00  0.8000E+01  0.8000E+01
     -6.925  0.0000E+00  0.0000E+00  0.8000E+01  0.8000E+01
     -6.781  0.0000E+00  0.0000E+00  0.8000E+01  0.8000E+01
     -6.637  0.0000E+00  0.0000E+00  0.8000E+01  0.8000E+01
     -6.492  0.0000E+00  0.0000E+00  0.8000E+01  0.8000E+01
     -6.348  0.0000E+00  0.0000E+00  0.8000E+01  0.8000E+01
     -6.204  0.0000E+00  0.0000E+00  0.8000E+01  0.8000E+01
     -6.060  0.0000E+00  0.0000E+00  0.8000E+01  0.8000E+01
     -5.915  0.0000E+00  0.0000E+00  0.8000E+01  0.8000E+01
     -5.771  0.0000E+00  0.0000E+00  0.8000E+01  0.8000E+01
     -5.627  0.0000E+00  0.0000E+00  0.8000E+01  0.8000E+01
     -5.483  0.0000E+00  0.0000E+00  0.8000E+01  0.8000E+01
     -5.338  0.0000E+00  0.0000E+00  0.8000E+01  0.8000E+01
     -5.194  0.0000E+00  0.0000E+00  0.8000E+01  0.8000E+01
     -5.050  0.0000E+00  0.0000E+00  0.8000E+01  0.8000E+01
     -4.906  0.0000E+00  0.0000E+00  0.8000E+01  0.8000E+01
     -4.762  0.0000E+00  0.0000E+00  0.8000E+01  0.8000E+01
     -4.617  0.0000E+00  0.0000E+00  0.8000E+01  0.8000E+01
     -4.473  0.0000E+00  0.0000E+00  0.8000E+01  0.8000E+01
     -4.329  0.0000E+00  0.0000E+00  0.8000E+01  0.8000E+01
     -4.185  0.1312E-05  0.1229E-05  0.8000E+01  0.8000E+01
     -4.040  0.4411E-04  0.4131E-04  0.8000E+01  0.8000E+01
     -3.896  0.8158E-03  0.7644E-03  0.8000E+01  0.8000E+01
     -3.752  0.1309E-01  0.1235E-01  0.8002E+01  0.8002E+01
     -3.608  0.1013E+00  0.9814E-01  0.8017E+01  0.8016E+01
     -3.463  0.2539E+00  0.2508E+00  0.8053E+01  0.8052E+01
     -3.319  0.3606E+00  0.3581E+00  0.8105E+01  0.8104E+01
     -3.175  0.4610E+00  0.4598E+00  0.8172E+01  0.8170E+01
     -3.031  0.5199E+00  0.5177E+00  0.8247E+01  0.8245E+01
     -2.886  0.6427E+00  0.6414E+00  0.8340E+01  0.8338E+01
     -2.742  0.6381E+00  0.6366E+00  0.8432E+01  0.8430E+01
     -2.598  0.8077E+00  0.8049E+00  0.8549E+01  0.8546E+01
     -2.454  0.8070E+00  0.8068E+00  0.8665E+01  0.8663E+01
     -2.309  0.9148E+00  0.9125E+00  0.8797E+01  0.8794E+01
     -2.165  0.1028E+01  0.1023E+01  0.8946E+01  0.8942E+01
     -2.021  0.1143E+01  0.1144E+01  0.9111E+01  0.9108E+01
     -1.877  0.1134E+01  0.1130E+01  0.9275E+01  0.9271E+01
     -1.732  0.1309E+01  0.1310E+01  0.9464E+01  0.9460E+01
     -1.588  0.1142E+01  0.1146E+01  0.9629E+01  0.9626E+01
     -1.444  0.1072E+01  0.1069E+01  0.9784E+01  0.9780E+01
     -1.300  0.1278E+01  0.1275E+01  0.9969E+01  0.9965E+01
     -1.156  0.1493E+01  0.1487E+01  0.1018E+02  0.1018E+02
     -1.011  0.1618E+01  0.1620E+01  0.1042E+02  0.1041E+02
     -0.867  0.1406E+01  0.1412E+01  0.1062E+02  0.1062E+02
     -0.723  0.1327E+01  0.1324E+01  0.1081E+02  0.1081E+02
     -0.579  0.1476E+01  0.1473E+01  0.1103E+02  0.1102E+02
     -0.434  0.1442E+01  0.1444E+01  0.1123E+02  0.1123E+02
     -0.290  0.1469E+01  0.1467E+01  0.1145E+02  0.1144E+02
     -0.146  0.1703E+01  0.1695E+01  0.1169E+02  0.1169E+02
     -0.002  0.1800E+01  0.1810E+01  0.1195E+02  0.1195E+02
      0.143  0.1399E+01  0.1396E+01  0.1216E+02  0.1215E+02
      0.287  0.1747E+01  0.1746E+01  0.1241E+02  0.1240E+02
      0.431  0.1415E+01  0.1423E+01  0.1261E+02  0.1261E+02
      0.575  0.1313E+01  0.1313E+01  0.1280E+02  0.1280E+02
      0.720  0.1412E+01  0.1410E+01  0.1301E+02  0.1300E+02
      0.864  0.1164E+01  0.1172E+01  0.1317E+02  0.1317E+02
      1.008  0.1026E+01  0.1026E+01  0.1332E+02  0.1332E+02
      1.152  0.1174E+01  0.1170E+01  0.1349E+02  0.1349E+02
      1.297  0.1013E+01  0.1021E+01  0.1364E+02  0.1364E+02
      1.441  0.9582E+00  0.9512E+00  0.1378E+02  0.1377E+02
      1.585  0.1220E+01  0.1218E+01  0.1395E+02  0.1395E+02
      1.729  0.1168E+01  0.1170E+01  0.1412E+02  0.1412E+02
      1.873  0.1282E+01  0.1272E+01  0.1431E+02  0.1430E+02
      2.018  0.1601E+01  0.1599E+01  0.1454E+02  0.1453E+02
      2.162  0.1883E+01  0.1869E+01  0.1481E+02  0.1480E+02
      2.306  0.2295E+01  0.2296E+01  0.1514E+02  0.1514E+02
      2.450  0.2086E+01  0.2091E+01  0.1544E+02  0.1544E+02
      2.595  0.2054E+01  0.2055E+01  0.1574E+02  0.1573E+02
      2.739  0.2088E+01  0.2084E+01  0.1604E+02  0.1604E+02
      2.883  0.2371E+01  0.2361E+01  0.1639E+02  0.1638E+02
      3.027  0.2755E+01  0.2747E+01  0.1678E+02  0.1677E+02
      3.172  0.2810E+01  0.2817E+01  0.1719E+02  0.1718E+02
      3.316  0.2587E+01  0.2588E+01  0.1756E+02  0.1755E+02
      3.460  0.2413E+01  0.2420E+01  0.1791E+02  0.1790E+02
      3.604  0.2202E+01  0.2202E+01  0.1823E+02  0.1822E+02
      3.749  0.2158E+01  0.2160E+01  0.1854E+02  0.1854E+02
      3.893  0.2186E+01  0.2188E+01  0.1886E+02  0.1885E+02
      4.037  0.2110E+01  0.2106E+01  0.1916E+02  0.1916E+02
      4.181  0.2406E+01  0.2402E+01  0.1951E+02  0.1950E+02
      4.326  0.2600E+01  0.2592E+01  0.1989E+02  0.1988E+02
      4.470  0.2875E+01  0.2876E+01  0.2030E+02  0.2029E+02
      4.614  0.2489E+01  0.2502E+01  0.2066E+02  0.2065E+02
      4.758  0.2207E+01  0.2206E+01  0.2098E+02  0.2097E+02
      4.902  0.2488E+01  0.2479E+01  0.2134E+02  0.2133E+02
      5.047  0.2344E+01  0.2356E+01  0.2168E+02  0.2167E+02
      5.191  0.2075E+01  0.2079E+01  0.2198E+02  0.2197E+02
      5.335  0.1909E+01  0.1905E+01  0.2226E+02  0.2225E+02
      5.479  0.2211E+01  0.2205E+01  0.2257E+02  0.2257E+02
      5.624  0.2393E+01  0.2392E+01  0.2292E+02  0.2291E+02
      5.768  0.2327E+01  0.2332E+01  0.2326E+02  0.2325E+02
      5.912  0.2137E+01  0.2138E+01  0.2357E+02  0.2356E+02
      6.056  0.2147E+01  0.2148E+01  0.2388E+02  0.2387E+02
      6.201  0.2230E+01  0.2226E+01  0.2420E+02  0.2419E+02
      6.345  0.2775E+01  0.2750E+01  0.2460E+02  0.2459E+02
      6.489  0.3865E+01  0.3857E+01  0.2516E+02  0.2514E+02
      6.633  0.3863E+01  0.3852E+01  0.2571E+02  0.2570E+02
      6.778  0.3386E+01  0.3386E+01  0.2620E+02  0.2619E+02
      6.922  0.2937E+01  0.3047E+01  0.2663E+02  0.2663E+02
      7.066  0.2674E+01  0.2607E+01  0.2702E+02  0.2701E+02
      7.210  0.2263E+01  0.2069E+01  0.2734E+02  0.2731E+02
      7.355  0.1434E+01  0.1551E+01  0.2755E+02  0.2753E+02
      7.499  0.9042E+00  0.1022E+01  0.2768E+02  0.2768E+02
      7.643  0.5458E+00  0.5795E+00  0.2776E+02  0.2776E+02
      7.787  0.5864E+00  0.5758E+00  0.2785E+02  0.2785E+02
      7.932  0.5360E+00  0.5180E+00  0.2792E+02  0.2792E+02
      8.076  0.3585E+00  0.3817E+00  0.2798E+02  0.2798E+02
      8.220  0.1483E+00  0.1328E+00  0.2800E+02  0.2800E+02
      8.364  0.1672E-01  0.1552E-01  0.2800E+02  0.2800E+02
      8.508  0.6033E-03  0.7301E-03  0.2800E+02  0.2800E+02
      8.653  0.0000E+00  0.0000E+00  0.2800E+02  0.2800E+02
      8.797  0.0000E+00  0.0000E+00  0.2800E+02  0.2800E+02
      8.941  0.0000E+00  0.0000E+00  0.2800E+02  0.2800E+02
      9.085  0.0000E+00  0.0000E+00  0.2800E+02  0.2800E+02
      9.230  0.0000E+00  0.0000E+00  0.2800E+02  0.2800E+02
      9.374  0.0000E+00  0.0000E+00  0.2800E+02  0.2800E+02
      9.518  0.0000E+00  0.0000E+00  0.2800E+02  0.2800E+02
      9.662  0.0000E+00  0.0000E+00  0.2800E+02  0.2800E+02
      9.807  0.0000E+00  0.0000E+00  0.2800E+02  0.2800E+02
      9.951  0.0000E+00  0.0000E+00  0.2800E+02  0.2800E+02
     10.095  0.0000E+00  0.0000E+00  0.2800E+02  0.2800E+02
     10.09509482    -33.17655067  301      3.96345201      1.00000000
    -33.177  0.0000E+00  0.0000E+00  0.0000E+00  0.0000E+00  0.0000E+00  0.0000E+00  0.0000E+00  0.0000E+00  0.0000E+00  0.0000E+00  0.0000E+00  0.0000E+00  0.0000E+00  0.0000E+00  0.0000E+00  0.0000E+00  0.0000E+00  0.0000E+00
    -33.032  0.0000E+00  0.0000E+00  0.0000E+00  0.0000E+00  0.0000E+00  0.0000E+00  0.0000E+00  0.0000E+00  0.0000E+00  0.0000E+00  0.0000E+00  0.0000E+00  0.0000E+00  0.0000E+00  0.0000E+00  0.0000E+00  0.0000E+00  0.0000E+00
    -32.888  0.0000E+00  0.0000E+00  0.0000E+00  0.0000E+00  0.0000E+00  0.0000E+00  0.0000E+00  0.0000E+00  0.0000E+00  0.0000E+00  0.0000E+00  0.0000E+00  0.0000E+00  0.0000E+00  0.0000E+00  0.0000E+00  0.0000E+00  0.0000E+00
    -32.744  0.0000E+00  0.0000E+00  0.0000E+00  0.0000E+00  0.0000E+00  0.0000E+00  0.0000E+00  0.0000E+00  0.0000E+00  0.0000E+00  0.0000E+00  0.0000E+00  0.0000E+00  0.0000E+00  0.0000E+00  0.0000E+00  0.0000E+00  0.0000E+00
    -32.600  0.0000E+00  0.0000E+00  0.0000E+00  0.0000E+00  0.0000E+00  0.0000E+00  0.0000E+00  0.0000E+00  0.0000E+00  0.0000E+00  0.0000E+00  0.0000E+00  0.0000E+00  0.0000E+00  0.0000E+00  0.0000E+00  0.0000E+00  0.0000E+00
    -32.455  0.0000E+00  0.0000E+00  0.0000E+00  0.0000E+00  0.0000E+00  0.0000E+00  0.0000E+00  0.0000E+00  0.0000E+00  0.0000E+00  0.0000E+00  0.0000E+00  0.0000E+00  0.0000E+00  0.0000E+00  0.0000E+00  0.0000E+00  0.0000E+00
    -32.311  0.0000E+00  0.0000E+00  0.0000E+00  0.0000E+00  0.0000E+00  0.0000E+00  0.0000E+00  0.0000E+00  0.0000E+00  0.0000E+00  0.0000E+00  0.0000E+00  0.0000E+00  0.0000E+00  0.0000E+00  0.0000E+00  0.0000E+00  0.0000E+00
    -32.167  0.0000E+00  0.0000E+00  0.0000E+00  0.0000E+00  0.0000E+00  0.0000E+00  0.0000E+00  0.0000E+00  0.0000E+00  0.0000E+00  0.0000E+00  0.0000E+00  0.0000E+00  0.0000E+00  0.0000E+00  0.0000E+00  0.0000E+00  0.0000E+00
    -32.023  0.0000E+00  0.0000E+00  0.0000E+00  0.0000E+00  0.0000E+00  0.0000E+00  0.0000E+00  0.0000E+00  0.0000E+00  0.0000E+00  0.0000E+00  0.0000E+00  0.0000E+00  0.0000E+00  0.0000E+00  0.0000E+00  0.0000E+00  0.0000E+00
    -31.878  0.0000E+00  0.0000E+00  0.0000E+00  0.0000E+00  0.0000E+00  0.0000E+00  0.0000E+00  0.0000E+00  0.0000E+00  0.0000E+00  0.0000E+00  0.0000E+00  0.0000E+00  0.0000E+00  0.0000E+00  0.0000E+00  0.0000E+00  0.0000E+00
    -31.734  0.1837E-03  0.1826E-03  0.3463E-12  0.3447E-12  0.5672E-14  0.1050E-13  0.3463E-12  0.3447E-12  0.3866E-15  0.7751E-15  0.1857E-14  0.8814E-15  0.1650E-09  0.1637E-09  0.1857E-14  0.8814E-15  0.2007E-12  0.1889E-12
    -31.590  0.3102E-02  0.3084E-02  0.5849E-11  0.5823E-11  0.9580E-13  0.1774E-12  0.5849E-11  0.5823E-11  0.6530E-14  0.1309E-13  0.3137E-13  0.1489E-13  0.2788E-08  0.2764E-08  0.3137E-13  0.1489E-13  0.3390E-11  0.3191E-11
    -31.446  0.5505E-01  0.5472E-01  0.1038E-09  0.1033E-09  0.1700E-11  0.3147E-11  0.1038E-09  0.1033E-09  0.1159E-12  0.2324E-12  0.5566E-12  0.2642E-12  0.4947E-07  0.4906E-07  0.5566E-12  0.2642E-12  0.6015E-10  0.5662E-10
    -31.301  0.8533E+00  0.8489E+00  0.1609E-08  0.1603E-08  0.2631E-10  0.4874E-10  0.1609E-08  0.1603E-08  0.1798E-11  0.3605E-11  0.8629E-11  0.4101E-11  0.7669E-06  0.7611E-06  0.8629E-11  0.4101E-11  0.9324E-09  0.8784E-09
    -31.157  0.4075E+01  0.4072E+01  0.7682E-08  0.7688E-08  0.1247E-09  0.2317E-09  0.7682E-08  0.7688E-08  0.8629E-11  0.1731E-10  0.4125E-10  0.1973E-10  0.3664E-05  0.3652E-05  0.4125E-10  0.1973E-10  0.4453E-08  0.4213E-08
    -31.013  0.1660E+01  0.1667E+01  0.3129E-08  0.3147E-08  0.5033E-10  0.9392E-10  0.3129E-08  0.3147E-08  0.3535E-11  0.7099E-11  0.1682E-10  0.8103E-11  0.1493E-05  0.1496E-05  0.1682E-10  0.8103E-11  0.1814E-08  0.1725E-08
    -30.869  0.1260E+00  0.1267E+00  0.2374E-09  0.2391E-09  0.3808E-11  0.7115E-11  0.2374E-09  0.2391E-09  0.2687E-12  0.5398E-12  0.1277E-11  0.6165E-12  0.1133E-06  0.1137E-06  0.1277E-11  0.6165E-12  0.1376E-09  0.1311E-09
    -30.724  0.0000E+00  0.0000E+00  0.0000E+00  0.0000E+00  0.0000E+00  0.0000E+00  0.0000E+00  0.0000E+00  0.0000E+00  0.0000E+00  0.0000E+00  0.0000E+00  0.0000E+00  0.0000E+00  0.0000E+00  0.0000E+00  0.0000E+00  0.0000E+00
    -30.580  0.0000E+00  0.0000E+00  0.0000E+00  0.0000E+00  0.0000E+00  0.0000E+00  0.0000E+00  0.0000E+00  0.0000E+00  0.0000E+00  0.0000E+00  0.0000E+00  0.0000E+00  0.0000E+00  0.0000E+00  0.0000E+00  0.0000E+00  0.0000E+00
    -30.436  0.0000E+00  0.0000E+00  0.0000E+00  0.0000E+00  0.0000E+00  0.0000E+00  0.0000E+00  0.0000E+00  0.0000E+00  0.0000E+00  0.0000E+00  0.0000E+00  0.0000E+00  0.0000E+00  0.0000E+00  0.0000E+00  0.0000E+00  0.0000E+00
    -30.292  0.0000E+00  0.0000E+00  0.0000E+00  0.0000E+00  0.0000E+00  0.0000E+00  0.0000E+00  0.0000E+00  0.0000E+00  0.0000E+00  0.0000E+00  0.0000E+00  0.0000E+00  0.0000E+00  0.0000E+00  0.0000E+00  0.0000E+00  0.0000E+00
    -30.148  0.0000E+00  0.0000E+00  0.0000E+00  0.0000E+00  0.0000E+00  0.0000E+00  0.0000E+00  0.0000E+00  0.0000E+00  0.0000E+00  0.0000E+00  0.0000E+00  0.0000E+00  0.0000E+00  0.0000E+00  0.0000E+00  0.0000E+00  0.0000E+00
    -30.003  0.0000E+00  0.0000E+00  0.0000E+00  0.0000E+00  0.0000E+00  0.0000E+00  0.0000E+00  0.0000E+00  0.0000E+00  0.0000E+00  0.0000E+00  0.0000E+00  0.0000E+00  0.0000E+00  0.0000E+00  0.0000E+00  0.0000E+00  0.0000E+00
    -29.859  0.0000E+00  0.0000E+00  0.0000E+00  0.0000E+00  0.0000E+00  0.0000E+00  0.0000E+00  0.0000E+00  0.0000E+00  0.0000E+00  0.0000E+00  0.0000E+00  0.0000E+00  0.0000E+00  0.0000E+00  0.0000E+00  0.0000E+00  0.0000E+00
    -29.715  0.0000E+00  0.0000E+00  0.0000E+00  0.0000E+00  0.0000E+00  0.0000E+00  0.0000E+00  0.0000E+00  0.0000E+00  0.0000E+00  0.0000E+00  0.0000E+00  0.0000E+00  0.0000E+00  0.0000E+00  0.0000E+00  0.0000E+00  0.0000E+00
    -29.571  0.0000E+00  0.0000E+00  0.0000E+00  0.0000E+00  0.0000E+00  0.0000E+00  0.0000E+00  0.0000E+00  0.0000E+00  0.0000E+00  0.0000E+00  0.0000E+00  0.0000E+00  0.0000E+00  0.0000E+00  0.0000E+00  0.0000E+00  0.0000E+00
    -29.426  0.0000E+00  0.0000E+00  0.0000E+00  0.0000E+00  0.0000E+00  0.0000E+00  0.0000E+00  0.0000E+00  0.0000E+00  0.0000E+00  0.0000E+00  0.0000E+00  0.0000E+00  0.0000E+00  0.0000E+00  0.0000E+00  0.0000E+00  0.0000E+00
    -29.282  0.0000E+00  0.0000E+00  0.0000E+00  0.0000E+00  0.0000E+00  0.0000E+00  0.0000E+00  0.0000E+00  0.0000E+00  0.0000E+00  0.0000E+00  0.0000E+00  0.0000E+00  0.0000E+00  0.0000E+00  0.0000E+00  0.0000E+00  0.0000E+00
    -29.138  0.0000E+00  0.0000E+00  0.0000E+00  0.0000E+00  0.0000E+00  0.0000E+00  0.0000E+00  0.0000E+00  0.0000E+00  0.0000E+00  0.0000E+00  0.0000E+00  0.0000E+00  0.0000E+00  0.0000E+00  0.0000E+00  0.0000E+00  0.0000E+00
    -28.994  0.0000E+00  0.0000E+00  0.0000E+00  0.0000E+00  0.0000E+00  0.0000E+00  0.0000E+00  0.0000E+00  0.0000E+00  0.0000E+00  0.0000E+00  0.0000E+00  0.0000E+00  0.0000E+00  0.0000E+00  0.0000E+00  0.0000E+00  0.0000E+00
    -28.849  0.0000E+00  0.0000E+00  0.0000E+00  0.0000E+00  0.0000E+00  0.0000E+00  0.0000E+00  0.0000E+00  0.0000E+00  0.0000E+00  0.0000E+00  0.0000E+00  0.0000E+00  0.0000E+00  0.0000E+00  0.0000E+00  0.0000E+00  0.0000E+00
    -28.705  0.0000E+00  0.0000E+00  0.0000E+00  0.0000E+00  0.0000E+00  0.0000E+00  0.0000E+00  0.0000E+00  0.0000E+00  0.0000E+00  0.0000E+00  0.0000E+00  0.0000E+00  0.0000E+00  0.0000E+00  0.0000E+00  0.0000E+00  0.0000E+00
    -28.561  0.0000E+00  0.0000E+00  0.0000E+00  0.0000E+00  0.0000E+00  0.0000E+00  0.0000E+00  0.0000E+00  0.0000E+00  0.0000E+00  0.0000E+00  0.0000E+00  0.0000E+00  0.0000E+00  0.0000E+00  0.0000E+00  0.0000E+00  0.0000E+00
    -28.417  0.0000E+00  0.0000E+00  0.0000E+00  0.0000E+00  0.0000E+00  0.0000E+00  0.0000E+00  0.0000E+00  0.0000E+00  0.0000E+00  0.0000E+00  0.0000E+00  0.0000E+00  0.0000E+00  0.0000E+00  0.0000E+00  0.0000E+00  0.0000E+00
    -28.272  0.0000E+00  0.0000E+00  0.0000E+00  0.0000E+00  0.0000E+00  0.0000E+00  0.0000E+00  0.0000E+00  0.0000E+00  0.0000E+00  0.0000E+00  0.0000E+00  0.0000E+00  0.0000E+00  0.0000E+00  0.0000E+00  0.0000E+00  0.0000E+00
    -28.128  0.0000E+00  0.0000E+00  0.0000E+00  0.0000E+00  0.0000E+00  0.0000E+00  0.0000E+00  0.0000E+00  0.0000E+00  0.0000E+00  0.0000E+00  0.0000E+00  0.0000E+00  0.0000E+00  0.0000E+00  0.0000E+00  0.0000E+00  0.0000E+00
    -27.984  0.0000E+00  0.0000E+00  0.0000E+00  0.0000E+00  0.0000E+00  0.0000E+00  0.0000E+00  0.0000E+00  0.0000E+00  0.0000E+00  0.0000E+00  0.0000E+00  0.0000E+00  0.0000E+00  0.0000E+00  0.0000E+00  0.0000E+00  0.0000E+00
    -27.840  0.0000E+00  0.0000E+00  0.0000E+00  0.0000E+00  0.0000E+00  0.0000E+00  0.0000E+00  0.0000E+00  0.0000E+00  0.0000E+00  0.0000E+00  0.0000E+00  0.0000E+00  0.0000E+00  0.0000E+00  0.0000E+00  0.0000E+00  0.0000E+00
    -27.695  0.0000E+00  0.0000E+00  0.0000E+00  0.0000E+00  0.0000E+00  0.0000E+00  0.0000E+00  0.0000E+00  0.0000E+00  0.0000E+00  0.0000E+00  0.0000E+00  0.0000E+00  0.0000E+00  0.0000E+00  0.0000E+00  0.0000E+00  0.0000E+00
    -27.551  0.0000E+00  0.0000E+00  0.0000E+00  0.0000E+00  0.0000E+00  0.0000E+00  0.0000E+00  0.0000E+00  0.0000E+00  0.0000E+00  0.0000E+00  0.0000E+00  0.0000E+00  0.0000E+00  0.0000E+00  0.0000E+00  0.0000E+00  0.0000E+00
    -27.407  0.0000E+00  0.0000E+00  0.0000E+00  0.0000E+00  0.0000E+00  0.0000E+00  0.0000E+00  0.0000E+00  0.0000E+00  0.0000E+00  0.0000E+00  0.0000E+00  0.0000E+00  0.0000E+00  0.0000E+00  0.0000E+00  0.0000E+00  0.0000E+00
    -27.263  0.0000E+00  0.0000E+00  0.0000E+00  0.0000E+00  0.0000E+00  0.0000E+00  0.0000E+00  0.0000E+00  0.0000E+00  0.0000E+00  0.0000E+00  0.0000E+00  0.0000E+00  0.0000E+00  0.0000E+00  0.0000E+00  0.0000E+00  0.0000E+00
    -27.119  0.0000E+00  0.0000E+00  0.0000E+00  0.0000E+00  0.0000E+00  0.0000E+00  0.0000E+00  0.0000E+00  0.0000E+00  0.0000E+00  0.0000E+00  0.0000E+00  0.0000E+00  0.0000E+00  0.0000E+00  0.0000E+00  0.0000E+00  0.0000E+00
    -26.974  0.0000E+00  0.0000E+00  0.0000E+00  0.0000E+00  0.0000E+00  0.0000E+00  0.0000E+00  0.0000E+00  0.0000E+00  0.0000E+00  0.0000E+00  0.0000E+00  0.0000E+00  0.0000E+00  0.0000E+00  0.0000E+00  0.0000E+00  0.0000E+00
    -26.830  0.0000E+00  0.0000E+00  0.0000E+00  0.0000E+00  0.0000E+00  0.0000E+00  0.0000E+00  0.0000E+00  0.0000E+00  0.0000E+00  0.0000E+00  0.0000E+00  0.0000E+00  0.0000E+00  0.0000E+00  0.0000E+00  0.0000E+00  0.0000E+00
    -26.686  0.0000E+00  0.0000E+00  0.0000E+00  0.0000E+00  0.0000E+00  0.0000E+00  0.0000E+00  0.0000E+00  0.0000E+00  0.0000E+00  0.0000E+00  0.0000E+00  0.0000E+00  0.0000E+00  0.0000E+00  0.0000E+00  0.0000E+00  0.0000E+00
    -26.542  0.0000E+00  0.0000E+00  0.0000E+00  0.0000E+00  0.0000E+00  0.0000E+00  0.0000E+00  0.0000E+00  0.0000E+00  0.0000E+00  0.0000E+00  0.0000E+00  0.0000E+00  0.0000E+00  0.0000E+00  0.0000E+00  0.0000E+00  0.0000E+00
    -26.397  0.0000E+00  0.0000E+00  0.0000E+00  0.0000E+00  0.0000E+00  0.0000E+00  0.0000E+00  0.0000E+00  0.0000E+00  0.0000E+00  0.0000E+00  0.0000E+00  0.0000E+00  0.0000E+00  0.0000E+00  0.0000E+00  0.0000E+00  0.0000E+00
    -26.253  0.0000E+00  0.0000E+00  0.0000E+00  0.0000E+00  0.0000E+00  0.0000E+00  0.0000E+00  0.0000E+00  0.0000E+00  0.0000E+00  0.0000E+00  0.0000E+00  0.0000E+00  0.0000E+00  0.0000E+00  0.0000E+00  0.0000E+00  0.0000E+00
    -26.109  0.0000E+00  0.0000E+00  0.0000E+00  0.0000E+00  0.0000E+00  0.0000E+00  0.0000E+00  0.0000E+00  0.0000E+00  0.0000E+00  0.0000E+00  0.0000E+00  0.0000E+00  0.0000E+00  0.0000E+00  0.0000E+00  0.0000E+00  0.0000E+00
    -25.965  0.0000E+00  0.0000E+00  0.0000E+00  0.0000E+00  0.0000E+00  0.0000E+00  0.0000E+00  0.0000E+00  0.0000E+00  0.0000E+00  0.0000E+00  0.0000E+00  0.0000E+00  0.0000E+00  0.0000E+00  0.0000E+00  0.0000E+00  0.0000E+00