   8   8   1   0
  0.3056761E+02  0.5051830E-09  0.5051830E-09  0.9581955E-09  0.5000000E-15
  1.000000000000000E-004
  CAR 
 unknown system                          
      8.90059915    -34.44172600  301      3.09263926      1.00000000
    -34.442  0.0000E+00  0.0000E+00  0.0000E+00  0.0000E+00
    -34.297  0.0000E+00  0.0000E+00  0.0000E+00  0.0000E+00
    -34.153  0.0000E+00  0.0000E+00  0.0000E+00  0.0000E+00
    -34.008  0.0000E+00  0.0000E+00  0.0000E+00  0.0000E+00
    -33.864  0.0000E+00  0.0000E+00  0.0000E+00  0.0000E+00
    -33.719  0.0000E+00  0.0000E+00  0.0000E+00  0.0000E+00
    -33.575  0.0000E+00  0.0000E+00  0.0000E+00  0.0000E+00
    -33.430  0.0000E+00  0.0000E+00  0.0000E+00  0.0000E+00
    -33.286  0.0000E+00  0.0000E+00  0.0000E+00  0.0000E+00
    -33.141  0.0000E+00  0.0000E+00  0.0000E+00  0.0000E+00
    -32.997  0.3742E-03  0.3712E-03  0.5407E-04  0.5363E-04
    -32.853  0.6353E-02  0.6302E-02  0.9719E-03  0.9641E-03
    -32.708  0.1133E+00  0.1124E+00  0.1734E-01  0.1720E-01
    -32.564  0.1761E+01  0.1749E+01  0.2718E+00  0.2699E+00
    -32.419  0.8346E+01  0.8337E+01  0.1478E+01  0.1474E+01
    -32.275  0.3350E+01  0.3369E+01  0.1961E+01  0.1961E+01
    -32.130  0.2518E+00  0.2538E+00  0.1998E+01  0.1998E+01
    -31.986  0.0000E+00  0.0000E+00  0.2000E+01  0.2000E+01
    -31.841  0.0000E+00  0.0000E+00  0.2000E+01  0.2000E+01
    -31.697  0.0000E+00  0.0000E+00  0.2000E+01  0.2000E+01
    -31.552  0.0000E+00  0.0000E+00  0.2000E+01  0.2000E+01
    -31.408  0.0000E+00  0.0000E+00  0.2000E+01  0.2000E+01
    -31.263  0.0000E+00  0.0000E+00  0.2000E+01  0.2000E+01
    -31.119  0.0000E+00  0.0000E+00  0.2000E+01  0.2000E+01
    -30.974  0.0000E+00  0.0000E+00  0.2000E+01  0.2000E+01
    -30.830  0.0000E+00  0.0000E+00  0.2000E+01  0.2000E+01
    -30.685  0.0000E+00  0.0000E+00  0.2000E+01  0.2000E+01
    -30.541  0.0000E+00  0.0000E+00  0.2000E+01  0.2000E+01
    -30.396  0.0000E+00  0.0000E+00  0.2000E+01  0.2000E+01
    -30.252  0.0000E+00  0.0000E+00  0.2000E+01  0.2000E+01
    -30.107  0.0000E+00  0.0000E+00  0.2000E+01  0.2000E+01
    -29.963  0.0000E+00  0.0000E+00  0.2000E+01  0.2000E+01
    -29.819  0.0000E+00  0.0000E+00  0.2000E+01  0.2000E+01
    -29.674  0.0000E+00  0.0000E+00  0.2000E+01  0.2000E+01
    -29.530  0.0000E+00  0.0000E+00  0.2000E+01  0.2000E+01
    -29.385  0.0000E+00  0.0000E+00  0.2000E+01  0.2000E+01
    -29.241  0.0000E+00  0.0000E+00  0.2000E+01  0.2000E+01
    -29.096  0.0000E+00  0.0000E+00  0.2000E+01  0.2000E+01
    -28.952  0.0000E+00  0.0000E+00  0.2000E+01  0.2000E+01
    -28.807  0.0000E+00  0.0000E+00  0.2000E+01  0.2000E+01
    -28.663  0.0000E+00  0.0000E+00  0.2000E+01  0.2000E+01
    -28.518  0.0000E+00  0.0000E+00  0.2000E+01  0.2000E+01
    -28.374  0.0000E+00  0.0000E+00  0.2000E+01  0.2000E+01
    -28.229  0.0000E+00  0.0000E+00  0.2000E+01  0.2000E+01
    -28.085  0.0000E+00  0.0000E+00  0.2000E+01  0.2000E+01
    -27.940  0.0000E+00  0.0000E+00  0.2000E+01  0.2000E+01
    -27.796  0.0000E+00  0.0000E+00  0.2000E+01  0.2000E+01
    -27.651  0.0000E+00  0.0000E+00  0.2000E+01  0.2000E+01
    -27.507  0.0000E+00  0.0000E+00  0.2000E+01  0.2000E+01
    -27.362  0.0000E+00  0.0000E+00  0.2000E+01  0.2000E+01
    -27.218  0.0000E+00  0.0000E+00  0.2000E+01  0.2000E+01
    -27.074  0.0000E+00  0.0000E+00  0.2000E+01  0.2000E+01
    -26.929  0.0000E+00  0.0000E+00  0.2000E+01  0.2000E+01
    -26.785  0.0000E+00  0.0000E+00  0.2000E+01  0.2000E+01
    -26.640  0.0000E+00  0.0000E+00  0.2000E+01  0.2000E+01
    -26.496  0.0000E+00  0.0000E+00  0.2000E+01  0.2000E+01
    -26.351  0.0000E+00  0.0000E+00  0.2000E+01  0.2000E+01
    -26.207  0.0000E+00  0.0000E+00  0.2000E+01  0.2000E+01
    -26.062  0.0000E+00  0.0000E+00  0.2000E+01  0.2000E+01
    -25.918  0.0000E+00  0.0000E+00  0.2000E+01  0.2000E+01
    -25.773  0.0000E+00  0.0000E+00  0.2000E+01  0.2000E+01
    -25.629  0.0000E+00  0.0000E+00  0.2000E+01  0.2000E+01
    -25.484  0.0000E+00  0.0000E+00  0.2000E+01  0.2000E+01
    -25.340  0.0000E+00  0.0000E+00  0.2000E+01  0.2000E+01
    -25.195  0.0000E+00  0.0000E+00  0.2000E+01  0.2000E+01
    -25.051  0.0000E+00  0.0000E+00  0.2000E+01  0.2000E+01
    -24.906  0.0000E+00  0.0000E+00  0.2000E+01  0.2000E+01
    -24.762  0.0000E+00  0.0000E+00  0.2000E+01  0.2000E+01
    -24.617  0.0000E+00  0.0000E+00  0.2000E+01  0.2000E+01
    -24.473  0.0000E+00  0.0000E+00  0.2000E+01  0.2000E+01
    -24.329  0.0000E+00  0.0000E+00  0.2000E+01  0.2000E+01
    -24.184  0.0000E+00  0.0000E+00  0.2000E+01  0.2000E+01
    -24.040  0.0000E+00  0.0000E+00  0.2000E+01  0.2000E+01
    -23.895  0.0000E+00  0.0000E+00  0.2000E+01  0.2000E+01
    -23.751  0.0000E+00  0.0000E+00  0.2000E+01  0.2000E+01
    -23.606  0.0000E+00  0.0000E+00  0.2000E+01  0.2000E+01
    -23.462  0.0000E+00  0.0000E+00  0.2000E+01  0.2000E+01
    -23.317  0.0000E+00  0.0000E+00  0.2000E+01  0.2000E+01
    -23.173  0.0000E+00  0.0000E+00  0.2000E+01  0.2000E+01
    -23.028  0.0000E+00  0.0000E+00  0.2000E+01  0.2000E+01
    -22.884  0.0000E+00  0.0000E+00  0.2000E+01  0.2000E+01
    -22.739  0.0000E+00  0.0000E+00  0.2000E+01  0.2000E+01
    -22.595  0.0000E+00  0.0000E+00  0.2000E+01  0.2000E+01
    -22.450  0.0000E+00  0.0000E+00  0.2000E+01  0.2000E+01
    -22.306  0.0000E+00  0.0000E+00  0.2000E+01  0.2000E+01
    -22.161  0.0000E+00  0.0000E+00  0.2000E+01  0.2000E+01
    -22.017  0.0000E+00  0.0000E+00  0.2000E+01  0.2000E+01
    -21.872  0.0000E+00  0.0000E+00  0.2000E+01  0.2000E+01
    -21.728  0.0000E+00  0.0000E+00  0.2000E+01  0.2000E+01
    -21.584  0.0000E+00  0.0000E+00  0.2000E+01  0.2000E+01
    -21.439  0.0000E+00  0.0000E+00  0.2000E+01  0.2000E+01
    -21.295  0.0000E+00  0.0000E+00  0.2000E+01  0.2000E+01
    -21.150  0.0000E+00  0.0000E+00  0.2000E+01  0.2000E+01
    -21.006  0.0000E+00  0.0000E+00  0.2000E+01  0.2000E+01
    -20.861  0.0000E+00  0.0000E+00  0.2000E+01  0.2000E+01
    -20.717  0.0000E+00  0.0000E+00  0.2000E+01  0.2000E+01
    -20.572  0.0000E+00  0.0000E+00  0.2000E+01  0.2000E+01
    -20.428  0.0000E+00  0.0000E+00  0.2000E+01  0.2000E+01
    -20.283  0.0000E+00  0.0000E+00  0.2000E+01  0.2000E+01
    -20.139  0.0000E+00  0.0000E+00  0.2000E+01  0.2000E+01
    -19.994  0.0000E+00  0.0000E+00  0.2000E+01  0.2000E+01
    -19.850  0.0000E+00  0.0000E+00  0.2000E+01  0.2000E+01
    -19.705  0.0000E+00  0.0000E+00  0.2000E+01  0.2000E+01
    -19.561  0.0000E+00  0.0000E+00  0.2000E+01  0.2000E+01
    -19.416  0.0000E+00  0.0000E+00  0.2000E+01  0.2000E+01
    -19.272  0.0000E+00  0.0000E+00  0.2000E+01  0.2000E+01
    -19.127  0.0000E+00  0.0000E+00  0.2000E+01  0.2000E+01
    -18.983  0.0000E+00  0.0000E+00  0.2000E+01  0.2000E+01
    -18.838  0.0000E+00  0.0000E+00  0.2000E+01  0.2000E+01
    -18.694  0.0000E+00  0.0000E+00  0.2000E+01  0.2000E+01
    -18.550  0.0000E+00  0.0000E+00  0.2000E+01  0.2000E+01
    -18.405  0.0000E+00  0.0000E+00  0.2000E+01  0.2000E+01
    -18.261  0.0000E+00  0.0000E+00  0.2000E+01  0.2000E+01
    -18.116  0.0000E+00  0.0000E+00  0.2000E+01  0.2000E+01
    -17.972  0.0000E+00  0.0000E+00  0.2000E+01  0.2000E+01
    -17.827  0.0000E+00  0.0000E+00  0.2000E+01  0.2000E+01
    -17.683  0.0000E+00  0.0000E+00  0.2000E+01  0.2000E+01
    -17.538  0.0000E+00  0.0000E+00  0.2000E+01  0.2000E+01
    -17.394  0.0000E+00  0.0000E+00  0.2000E+01  0.2000E+01
    -17.249  0.0000E+00  0.0000E+00  0.2000E+01  0.2000E+01
    -17.105  0.0000E+00  0.0000E+00  0.2000E+01  0.2000E+01
    -16.960  0.0000E+00  0.0000E+00  0.2000E+01  0.2000E+01
    -16.816  0.0000E+00  0.0000E+00  0.2000E+01  0.2000E+01
    -16.671  0.0000E+00  0.0000E+00  0.2000E+01  0.2000E+01
    -16.527  0.0000E+00  0.0000E+00  0.2000E+01  0.2000E+01
    -16.382  0.0000E+00  0.0000E+00  0.2000E+01  0.2000E+01
    -16.238  0.0000E+00  0.0000E+00  0.2000E+01  0.2000E+01
    -16.093  0.0000E+00  0.0000E+00  0.2000E+01  0.2000E+01
    -15.949  0.0000E+00  0.0000E+00  0.2000E+01  0.2000E+01
    -15.805  0.0000E+00  0.0000E+00  0.2000E+01  0.2000E+01
    -15.660  0.0000E+00  0.0000E+00  0.2000E+01  0.2000E+01
    -15.516  0.0000E+00  0.0000E+00  0.2000E+01  0.2000E+01
    -15.371  0.0000E+00  0.0000E+00  0.2000E+01  0.2000E+01
    -15.227  0.0000E+00  0.0000E+00  0.2000E+01  0.2000E+01
    -15.082  0.2809E-03  0.2672E-03  0.2000E+01  0.2000E+01
    -14.938  0.8603E-02  0.8484E-02  0.2001E+01  0.2001E+01
    -14.793  0.1502E+00  0.1479E+00  0.2023E+01  0.2023E+01
    -14.649  0.2487E+01  0.2453E+01  0.2382E+01  0.2377E+01
    -14.504  0.1901E+02  0.1890E+02  0.5128E+01  0.5108E+01
    -14.360  0.1768E+02  0.1779E+02  0.7683E+01  0.7678E+01
    -14.215  0.2067E+01  0.2094E+01  0.7981E+01  0.7981E+01
    -14.071  0.0000E+00  0.0000E+00  0.8000E+01  0.8000E+01
    -13.926  0.0000E+00  0.0000E+00  0.8000E+01  0.8000E+01
    -13.782  0.0000E+00  0.0000E+00  0.8000E+01  0.8000E+01
    -13.637  0.0000E+00  0.0000E+00  0.8000E+01  0.8000E+01
    -13.493  0.0000E+00  0.0000E+00  0.8000E+01  0.8000E+01
    -13.348  0.0000E+00  0.0000E+00  0.8000E+01  0.8000E+01
    -13.204  0.0000E+00  0.0000E+00  0.8000E+01  0.8000E+01
    -13.060  0.0000E+00  0.0000E+00  0.8000E+01  0.8000E+01
    -12.915  0.0000E+00  0.0000E+00  0.8000E+01  0.8000E+01
    -12.771  0.0000E+00  0.0000E+00  0.8000E+01  0.8000E+01
    -12.626  0.0000E+00  0.0000E+00  0.8000E+01  0.8000E+01
    -12.482  0.0000E+00  0.0000E+00  0.8000E+01  0.8000E+01
    -12.337  0.0000E+00  0.0000E+00  0.8000E+01  0.8000E+01
    -12.193  0.0000E+00  0.0000E+00  0.8000E+01  0.8000E+01
    -12.048  0.0000E+00  0.0000E+00  0.8000E+01  0.8000E+01
    -11.904  0.0000E+00  0.0000E+00  0.8000E+01  0.8000E+01
    -11.759  0.0000E+00  0.0000E+00  0.8000E+01  0.8000E+01
    -11.615  0.0000E+00  0.0000E+00  0.8000E+01  0.8000E+01
    -11.470  0.0000E+00  0.0000E+00  0.8000E+01  0.8000E+01
    -11.326  0.0000E+00  0.0000E+00  0.8000E+01  0.8000E+01
    -11.181  0.0000E+00  0.0000E+00  0.8000E+01  0.8000E+01
    -11.037  0.0000E+00  0.0000E+00  0.8000E+01  0.8000E+01
    -10.892  0.0000E+00  0.0000E+00  0.8000E+01  0.8000E+01
    -10.748  0.0000E+00  0.0000E+00  0.8000E+01  0.8000E+01
    -10.603  0.0000E+00  0.0000E+00  0.8000E+01  0.8000E+01
    -10.459  0.0000E+00  0.0000E+00  0.8000E+01  0.8000E+01
    -10.314  0.0000E+00  0.0000E+00  0.8000E+01  0.8000E+01
    -10.170  0.0000E+00  0.0000E+00  0.8000E+01  0.8000E+01
    -10.026  0.0000E+00  0.0000E+00  0.8000E+01  0.8000E+01
     -9.881  0.0000E+00  0.0000E+00  0.8000E+01  0.8000E+01
     -9.737  0.0000E+00  0.0000E+00  0.8000E+01  0.8000E+01
     -9.592  0.0000E+00  0.0000E+00  0.8000E+01  0.8000E+01
     -9.448  0.0000E+00  0.0000E+00  0.8000E+01  0.8000E+01
     -9.303  0.0000E+00  0.0000E+00  0.8000E+01  0.8000E+01
     -9.159  0.0000E+00  0.0000E+00  0.8000E+01  0.8000E+01
     -9.014  0.0000E+00  0.0000E+00  0.8000E+01  0.8000E+01
     -8.870  0.0000E+00  0.0000E+00  0.8000E+01  0.8000E+01
     -8.725  0.0000E+00  0.0000E+00  0.8000E+01  0.8000E+01
     -8.581  0.0000E+00  0.0000E+00  0.8000E+01  0.8000E+01
     -8.436  0.0000E+00  0.0000E+00  0.8000E+01  0.8000E+01
     -8.292  0.0000E+00  0.0000E+00  0.8000E+01  0.8000E+01
     -8.147  0.0000E+00  0.0000E+00  0.8000E+01  0.8000E+01
     -8.003  0.0000E+00  0.0000E+00  0.8000E+01  0.8000E+01
     -7.858  0.0000E+00  0.0000E+00  0.8000E+01  0.8000E+01
     -7.714  0.0000E+00  0.0000E+00  0.8000E+01  0.8000E+01
     -7.569  0.0000E+00  0.0000E+00  0.8000E+01  0.8000E+01
     -7.425  0.0000E+00  0.0000E+00  0.8000E+01  0.8000E+01
     -7.281  0.0000E+00  0.0000E+00  0.8000E+01  0.8000E+01
     -7.136  0.0000E+00  0.0000E+00  0.8000E+01  0.8000E+01
     -6.992  0.0000E+00  0.0000E+00  0.8000E+01  0.8000E+01
     -6.847  0.0000E+00  0.0000E+00  0.8000E+01  0.8000E+01
     -6.703  0.0000E+00  0.0000E+00  0.8000E+01  0.8000E+01
     -6.558  0.0000E+00  0.0000E+00  0.8000E+01  0.8000E+01
     -6.414  0.0000E+00  0.0000E+00  0.8000E+01  0.8000E+01
     -6.269  0.0000E+00  0.0000E+00  0.8000E+01  0.8000E+01
     -6.125  0.0000E+00  0.0000E+00  0.8000E+01  0.8000E+01
     -5.980  0.0000E+00  0.0000E+00  0.8000E+01  0.8000E+01
     -5.836  0.0000E+00  0.0000E+00  0.8000E+01  0.8000E+01
     -5.691  0.0000E+00  0.0000E+00  0.8000E+01  0.8000E+01
     -5.547  0.0000E+00  0.0000E+00  0.8000E+01  0.8000E+01
     -5.402  0.0000E+00  0.0000E+00  0.8000E+01  0.8000E+01
     -5.258  0.0000E+00  0.0000E+00  0.8000E+01  0.8000E+01
     -5.113  0.0000E+00  0.0000E+00  0.8000E+01  0.8000E+01
     -4.969  0.0000E+00  0.0000E+00  0.8000E+01  0.8000E+01
     -4.824  0.0000E+00  0.0000E+00  0.8000E+01  0.8000E+01
     -4.680  0.0000E+00  0.0000E+00  0.8000E+01  0.8000E+01
     -4.536  0.1404E-06  0.1308E-06  0.8000E+01  0.8000E+01
     -4.391  0.2043E-04  0.1903E-04  0.8000E+01  0.8000E+01
     -4.247  0.3980E-03  0.3709E-03  0.8000E+01  0.8000E+01
     -4.102  0.6854E-02  0.6406E-02  0.8001E+01  0.8001E+01
     -3.958  0.7467E-01  0.7136E-01  0.8012E+01  0.8011E+01
     -3.813  0.2561E+00  0.2515E+00  0.8049E+01  0.8048E+01
     -3.669  0.4091E+00  0.4058E+00  0.8108E+01  0.8106E+01
     -3.524  0.5310E+00  0.5290E+00  0.8185E+01  0.8183E+01
     -3.380  0.6303E+00  0.6268E+00  0.8276E+01  0.8273E+01
     -3.235  0.7281E+00  0.7281E+00  0.8381E+01  0.8379E+01
     -3.091  0.8202E+00  0.8152E+00  0.8500E+01  0.8497E+01
     -2.946  0.9232E+00  0.9234E+00  0.8634E+01  0.8630E+01
     -2.802  0.1009E+01  0.1006E+01  0.8779E+01  0.8776E+01
     -2.657  0.1156E+01  0.1152E+01  0.8947E+01  0.8942E+01
     -2.513  0.1282E+01  0.1283E+01  0.9132E+01  0.9128E+01
     -2.368  0.1346E+01  0.1341E+01  0.9327E+01  0.9322E+01
     -2.224  0.1391E+01  0.1395E+01  0.9528E+01  0.9524E+01
     -2.079  0.1132E+01  0.1136E+01  0.9692E+01  0.9689E+01
     -1.935  0.1201E+01  0.1194E+01  0.9866E+01  0.9862E+01
     -1.791  0.1463E+01  0.1456E+01  0.1008E+02  0.1007E+02
     -1.646  0.1769E+01  0.1766E+01  0.1033E+02  0.1033E+02
     -1.502  0.1659E+01  0.1665E+01  0.1057E+02  0.1057E+02
     -1.357  0.1563E+01  0.1559E+01  0.1080E+02  0.1079E+02
     -1.213  0.1730E+01  0.1729E+01  0.1105E+02  0.1104E+02
     -1.068  0.1675E+01  0.1678E+01  0.1129E+02  0.1129E+02
     -0.924  0.1630E+01  0.1628E+01  0.1153E+02  0.1152E+02
     -0.779  0.1946E+01  0.1939E+01  0.1181E+02  0.1180E+02
     -0.635  0.1763E+01  0.1774E+01  0.1207E+02  0.1206E+02
     -0.490  0.1799E+01  0.1790E+01  0.1233E+02  0.1232E+02
     -0.346  0.1684E+01  0.1695E+01  0.1257E+02  0.1257E+02
     -0.201  0.1551E+01  0.1550E+01  0.1279E+02  0.1279E+02
     -0.057  0.1605E+01  0.1607E+01  0.1303E+02  0.1302E+02
      0.088  0.1299E+01  0.1306E+01  0.1322E+02  0.1321E+02
      0.232  0.1281E+01  0.1278E+01  0.1340E+02  0.1340E+02
      0.377  0.1269E+01  0.1276E+01  0.1358E+02  0.1358E+02
      0.521  0.9460E+00  0.9492E+00  0.1372E+02  0.1372E+02
      0.666  0.7849E+00  0.7879E+00  0.1384E+02  0.1383E+02
      0.810  0.6838E+00  0.6796E+00  0.1393E+02  0.1393E+02
      0.955  0.9384E+00  0.9315E+00  0.1407E+02  0.1407E+02
      1.099  0.1034E+01  0.1030E+01  0.1422E+02  0.1422E+02
      1.243  0.1194E+01  0.1188E+01  0.1439E+02  0.1439E+02
      1.388  0.1478E+01  0.1469E+01  0.1461E+02  0.1460E+02
      1.532  0.2080E+01  0.2059E+01  0.1491E+02  0.1490E+02
      1.677  0.2539E+01  0.2543E+01  0.1527E+02  0.1527E+02
      1.821  0.2428E+01  0.2429E+01  0.1563E+02  0.1562E+02
      1.966  0.2350E+01  0.2352E+01  0.1597E+02  0.1596E+02
      2.110  0.2417E+01  0.2409E+01  0.1632E+02  0.1631E+02
      2.255  0.2748E+01  0.2737E+01  0.1671E+02  0.1670E+02
      2.399  0.2993E+01  0.2995E+01  0.1715E+02  0.1714E+02
      2.544  0.2957E+01  0.2957E+01  0.1757E+02  0.1756E+02
      2.688  0.2939E+01  0.2943E+01  0.1800E+02  0.1799E+02
      2.833  0.2503E+01  0.2518E+01  0.1836E+02  0.1835E+02
      2.977  0.2444E+01  0.2438E+01  0.1872E+02  0.1871E+02
      3.122  0.2486E+01  0.2488E+01  0.1908E+02  0.1907E+02
      3.266  0.2578E+01  0.2577E+01  0.1945E+02  0.1944E+02
      3.411  0.2640E+01  0.2634E+01  0.1983E+02  0.1982E+02
      3.555  0.3008E+01  0.3002E+01  0.2027E+02  0.2026E+02
      3.700  0.2830E+01  0.2844E+01  0.2068E+02  0.2067E+02
      3.844  0.2514E+01  0.2510E+01  0.2104E+02  0.2103E+02
      3.988  0.2636E+01  0.2635E+01  0.2142E+02  0.2141E+02
      4.133  0.2637E+01  0.2643E+01  0.2180E+02  0.2180E+02
      4.277  0.2266E+01  0.2273E+01  0.2213E+02  0.2212E+02
      4.422  0.2243E+01  0.2238E+01  0.2246E+02  0.2245E+02
      4.566  0.2499E+01  0.2493E+01  0.2282E+02  0.2281E+02
      4.711  0.2682E+01  0.2680E+01  0.2321E+02  0.2320E+02
      4.855  0.2577E+01  0.2588E+01  0.2358E+02  0.2357E+02
      5.000  0.2341E+01  0.2340E+01  0.2392E+02  0.2391E+02
      5.144  0.2405E+01  0.2398E+01  0.2427E+02  0.2426E+02
      5.289  0.3165E+01  0.3133E+01  0.2473E+02  0.2471E+02
      5.433  0.4310E+01  0.4272E+01  0.2535E+02  0.2533E+02
      5.578  0.4105E+01  0.4105E+01  0.2594E+02  0.2592E+02
      5.722  0.3582E+01  0.3617E+01  0.2646E+02  0.2645E+02
      5.867  0.2779E+01  0.2775E+01  0.2686E+02  0.2685E+02
      6.011  0.2433E+01  0.2446E+01  0.2722E+02  0.2720E+02
      6.156  0.1937E+01  0.1971E+01  0.2750E+02  0.2749E+02
      6.300  0.1198E+01  0.1211E+01  0.2767E+02  0.2766E+02
      6.445  0.6447E+00  0.7102E+00  0.2776E+02  0.2777E+02
      6.589  0.5685E+00  0.5377E+00  0.2785E+02  0.2785E+02
      6.733  0.5692E+00  0.5513E+00  0.2793E+02  0.2793E+02
      6.878  0.3411E+00  0.3875E+00  0.2798E+02  0.2798E+02
      7.022  0.1251E+00  0.1098E+00  0.2800E+02  0.2800E+02
      7.167  0.1487E-01  0.9728E-02  0.2800E+02  0.2800E+02
      7.311  0.3872E-03  0.2739E-03  0.2800E+02  0.2800E+02
      7.456  0.0000E+00  0.0000E+00  0.2800E+02  0.2800E+02
      7.600  0.0000E+00  0.0000E+00  0.2800E+02  0.2800E+02
      7.745  0.0000E+00  0.0000E+00  0.2800E+02  0.2800E+02
      7.889  0.0000E+00  0.0000E+00  0.2800E+02  0.2800E+02
      8.034  0.0000E+00  0.0000E+00  0.2800E+02  0.2800E+02
      8.178  0.0000E+00  0.0000E+00  0.2800E+02  0.2800E+02
      8.323  0.0000E+00  0.0000E+00  0.2800E+02  0.2800E+02
      8.467  0.0000E+00  0.0000E+00  0.2800E+02  0.2800E+02
      8.612  0.0000E+00  0.0000E+00  0.2800E+02  0.2800E+02
      8.756  0.0000E+00  0.0000E+00  0.2800E+02  0.2800E+02
      8.901  0.0000E+00  0.0000E+00  0.2800E+02  0.2800E+02
      8.90059915    -34.44172600  301      3.09263926      1.00000000
    -34.442  0.0000E+00  0.0000E+00  0.0000E+00  0.0000E+00  0.0000E+00  0.0000E+00  0.0000E+00  0.0000E+00  0.0000E+00  0.0000E+00  0.0000E+00  0.0000E+00  0.0000E+00  0.0000E+00  0.0000E+00  0.0000E+00  0.0000E+00  0.0000E+00
    -34.297  0.0000E+00  0.0000E+00  0.0000E+00  0.0000E+00  0.0000E+00  0.0000E+00  0.0000E+00  0.0000E+00  0.0000E+00  0.0000E+00  0.0000E+00  0.0000E+00  0.0000E+00  0.0000E+00  0.0000E+00  0.0000E+00  0.0000E+00  0.0000E+00
    -34.153  0.0000E+00  0.0000E+00  0.0000E+00  0.0000E+00  0.0000E+00  0.0000E+00  0.0000E+00  0.0000E+00  0.0000E+00  0.0000E+00  0.0000E+00  0.0000E+00  0.0000E+00  0.0000E+00  0.0000E+00  0.0000E+00  0.0000E+00  0.0000E+00
    -34.008  0.0000E+00  0.0000E+00  0.0000E+00  0.0000E+00  0.0000E+00  0.0000E+00  0.0000E+00  0.0000E+00  0.0000E+00  0.0000E+00  0.0000E+00  0.0000E+00  0.0000E+00  0.0000E+00  0.0000E+00  0.0000E+00  0.0000E+00  0.0000E+00
    -33.864  0.0000E+00  0.0000E+00  0.0000E+00  0.0000E+00  0.0000E+00  0.0000E+00  0.0000E+00  0.0000E+00  0.0000E+00  0.0000E+00  0.0000E+00  0.0000E+00  0.0000E+00  0.0000E+00  0.0000E+00  0.0000E+00  0.0000E+00  0.0000E+00
    -33.719  0.0000E+00  0.0000E+00  0.0000E+00  0.0000E+00  0.0000E+00  0.0000E+00  0.0000E+00  0.0000E+00  0.0000E+00  0.0000E+00  0.0000E+00  0.0000E+00  0.0000E+00  0.0000E+00  0.0000E+00  0.0000E+00  0.0000E+00  0.0000E+00
    -33.575  0.0000E+00  0.0000E+00  0.0000E+00  0.0000E+00  0.0000E+00  0.0000E+00  0.0000E+00  0.0000E+00  0.0000E+00  0.0000E+00  0.0000E+00  0.0000E+00  0.0000E+00  0.0000E+00  0.0000E+00  0.0000E+00  0.0000E+00  0.0000E+00
    -33.430  0.0000E+00  0.0000E+00  0.0000E+00  0.0000E+00  0.0000E+00  0.0000E+00  0.0000E+00  0.0000E+00  0.0000E+00  0.0000E+00  0.0000E+00  0.0000E+00  0.0000E+00  0.0000E+00  0.0000E+00  0.0000E+00  0.0000E+00  0.0000E+00
    -33.286  0.0000E+00  0.0000E+00  0.0000E+00  0.0000E+00  0.0000E+00  0.0000E+00  0.0000E+00  0.0000E+00  0.0000E+00  0.0000E+00  0.0000E+00  0.0000E+00  0.0000E+00  0.0000E+00  0.0000E+00  0.0000E+00  0.0000E+00  0.0000E+00
    -33.141  0.0000E+00  0.0000E+00  0.0000E+00  0.0000E+00  0.0000E+00  0.0000E+00  0.0000E+00  0.0000E+00  0.0000E+00  0.0000E+00  0.0000E+00  0.0000E+00  0.0000E+00  0.0000E+00  0.0000E+00  0.0000E+00  0.0000E+00  0.0000E+00
    -32.997  0.1831E-03  0.1817E-03  0.7225E-13  0.7182E-13  0.2792E-14  0.1825E-14  0.7225E-13  0.7182E-13  0.1109E-15  0.1650E-15  0.1934E-15  0.4585E-15  0.9651E-10  0.9491E-10  0.1934E-15  0.4585E-15  0.3129E-13  0.3429E-13
    -32.853  0.3109E-02  0.3084E-02  0.1227E-11  0.1219E-11  0.4740E-13  0.3098E-13  0.1227E-11  0.1219E-11  0.1882E-14  0.2800E-14  0.3283E-14  0.7784E-14  0.1638E-08  0.1611E-08  0.3283E-14  0.7784E-14  0.5311E-12  0.5821E-12
    -32.708  0.5543E-01  0.5498E-01  0.2187E-10  0.2174E-10  0.8450E-12  0.5523E-12  0.2187E-10  0.2174E-10  0.3356E-13  0.4993E-13  0.5853E-13  0.1388E-12  0.2921E-07  0.2873E-07  0.5853E-13  0.1388E-12  0.9469E-11  0.1038E-10
    -32.564  0.8618E+00  0.8558E+00  0.3400E-09  0.3383E-09  0.1313E-10  0.8590E-11  0.3400E-09  0.3383E-09  0.5220E-12  0.7774E-12  0.9101E-12  0.2160E-11  0.4541E-06  0.4471E-06  0.9101E-12  0.2160E-11  0.1472E-09  0.1615E-09
    -32.419  0.4084E+01  0.4080E+01  0.1611E-08  0.1613E-08  0.6198E-10  0.4080E-10  0.1611E-08  0.1613E-08  0.2479E-11  0.3713E-11  0.4317E-11  0.1029E-10  0.2152E-05  0.2132E-05  0.4317E-11  0.1029E-10  0.6978E-09  0.7701E-09
    -32.275  0.1639E+01  0.1649E+01  0.6466E-09  0.6516E-09  0.2477E-10  0.1641E-10  0.6466E-09  0.6516E-09  0.9976E-12  0.1503E-11  0.1735E-11  0.4155E-11  0.8639E-06  0.8615E-06  0.1735E-11  0.4155E-11  0.2801E-09  0.3112E-09
    -32.130  0.1232E+00  0.1242E+00  0.4861E-10  0.4910E-10  0.1860E-11  0.1235E-11  0.4861E-10  0.4910E-10  0.7507E-13  0.1133E-12  0.1305E-12  0.3130E-12  0.6496E-07  0.6491E-07  0.1305E-12  0.3130E-12  0.2106E-10  0.2345E-10
    -31.986  0.0000E+00  0.0000E+00  0.0000E+00  0.0000E+00  0.0000E+00  0.0000E+00  0.0000E+00  0.0000E+00  0.0000E+00  0.0000E+00  0.0000E+00  0.0000E+00  0.0000E+00  0.0000E+00  0.0000E+00  0.0000E+00  0.0000E+00  0.0000E+00
    -31.841  0.0000E+00  0.0000E+00  0.0000E+00  0.0000E+00  0.0000E+00  0.0000E+00  0.0000E+00  0.0000E+00  0.0000E+00  0.0000E+00  0.0000E+00  0.0000E+00  0.0000E+00  0.0000E+00  0.0000E+00  0.0000E+00  0.0000E+00  0.0000E+00
    -31.697  0.0000E+00  0.0000E+00  0.0000E+00  0.0000E+00  0.0000E+00  0.0000E+00  0.0000E+00  0.0000E+00  0.0000E+00  0.0000E+00  0.0000E+00  0.0000E+00  0.0000E+00  0.0000E+00  0.0000E+00  0.0000E+00  0.0000E+00  0.0000E+00
    -31.552  0.0000E+00  0.0000E+00  0.0000E+00  0.0000E+00  0.0000E+00  0.0000E+00  0.0000E+00  0.0000E+00  0.0000E+00  0.0000E+00  0.0000E+00  0.0000E+00  0.0000E+00  0.0000E+00  0.0000E+00  0.0000E+00  0.0000E+00  0.0000E+00
    -31.408  0.0000E+00  0.0000E+00  0.0000E+00  0.0000E+00  0.0000E+00  0.0000E+00  0.0000E+00  0.0000E+00  0.0000E+00  0.0000E+00  0.0000E+00  0.0000E+00  0.0000E+00  0.0000E+00  0.0000E+00  0.0000E+00  0.0000E+00  0.0000E+00
    -31.263  0.0000E+00  0.0000E+00  0.0000E+00  0.0000E+00  0.0000E+00  0.0000E+00  0.0000E+00  0.0000E+00  0.0000E+00  0.0000E+00  0.0000E+00  0.0000E+00  0.0000E+00  0.0000E+00  0.0000E+00  0.0000E+00  0.0000E+00  0.0000E+00
    -31.119  0.0000E+00  0.0000E+00  0.0000E+00  0.0000E+00  0.0000E+00  0.0000E+00  0.0000E+00  0.0000E+00  0.0000E+00  0.0000E+00  0.0000E+00  0.0000E+00  0.0000E+00  0.0000E+00  0.0000E+00  0.0000E+00  0.0000E+00  0.0000E+00
    -30.974  0.0000E+00  0.0000E+00  0.0000E+00  0.0000E+00  0.0000E+00  0.0000E+00  0.0000E+00  0.0000E+00  0.0000E+00  0.0000E+00  0.0000E+00  0.0000E+00  0.0000E+00  0.0000E+00  0.0000E+00  0.0000E+00  0.0000E+00  0.0000E+00
    -30.830  0.0000E+00  0.0000E+00  0.0000E+00  0.0000E+00  0.0000E+00  0.0000E+00  0.0000E+00  0.0000E+00  0.0000E+00  0.0000E+00  0.0000E+00  0.0000E+00  0.0000E+00  0.0000E+00  0.0000E+00  0.0000E+00  0.0000E+00  0.0000E+00
    -30.685  0.0000E+00  0.0000E+00  0.0000E+00  0.0000E+00  0.0000E+00  0.0000E+00  0.0000E+00  0.0000E+00  0.0000E+00  0.0000E+00  0.0000E+00  0.0000E+00  0.0000E+00  0.0000E+00  0.0000E+00  0.0000E+00  0.0000E+00  0.0000E+00
    -30.541  0.0000E+00  0.0000E+00  0.0000E+00  0.0000E+00  0.0000E+00  0.0000E+00  0.0000E+00  0.0000E+00  0.0000E+00  0.0000E+00  0.0000E+00  0.0000E+00  0.0000E+00  0.0000E+00  0.0000E+00  0.0000E+00  0.0000E+00  0.0000E+00
    -30.396  0.0000E+00  0.0000E+00  0.0000E+00  0.0000E+00  0.0000E+00  0.0000E+00  0.0000E+00  0.0000E+00  0.0000E+00  0.0000E+00  0.0000E+00  0.0000E+00  0.0000E+00  0.0000E+00  0.0000E+00  0.0000E+00  0.0000E+00  0.0000E+00
    -30.252  0.0000E+00  0.0000E+00  0.0000E+00  0.0000E+00  0.0000E+00  0.0000E+00  0.0000E+00  0.0000E+00  0.0000E+00  0.0000E+00  0.0000E+00  0.0000E+00  0.0000E+00  0.0000E+00  0.0000E+00  0.0000E+00  0.0000E+00  0.0000E+00
    -30.107  0.0000E+00  0.0000E+00  0.0000E+00  0.0000E+00  0.0000E+00  0.0000E+00  0.0000E+00  0.0000E+00  0.0000E+00  0.0000E+00  0.0000E+00  0.0000E+00  0.0000E+00  0.0000E+00  0.0000E+00  0.0000E+00  0.0000E+00  0.0000E+00
    -29.963  0.0000E+00  0.0000E+00  0.0000E+00  0.0000E+00  0.0000E+00  0.0000E+00  0.0000E+00  0.0000E+00  0.0000E+00  0.0000E+00  0.0000E+00  0.0000E+00  0.0000E+00  0.0000E+00  0.0000E+00  0.0000E+00  0.0000E+00  0.0000E+00
    -29.819  0.0000E+00  0.0000E+00  0.0000E+00  0.0000E+00  0.0000E+00  0.0000E+00  0.0000E+00  0.0000E+00  0.0000E+00  0.0000E+00  0.0000E+00  0.0000E+00  0.0000E+00  0.0000E+00  0.0000E+00  0.0000E+00  0.0000E+00  0.0000E+00
    -29.674  0.0000E+00  0.0000E+00  0.0000E+00  0.0000E+00  0.0000E+00  0.0000E+00  0.0000E+00  0.0000E+00  0.0000E+00  0.0000E+00  0.0000E+00  0.0000E+00  0.0000E+00  0.0000E+00  0.0000E+00  0.0000E+00  0.0000E+00  0.0000E+00
    -29.530  0.0000E+00  0.0000E+00  0.0000E+00  0.0000E+00  0.0000E+00  0.0000E+00  0.0000E+00  0.0000E+00  0.0000E+00  0.0000E+00  0.0000E+00  0.0000E+00  0.0000E+00  0.0000E+00  0.0000E+00  0.0000E+00  0.0000E+00  0.0000E+00
    -29.385  0.0000E+00  0.0000E+00  0.0000E+00  0.0000E+00  0.0000E+00  0.0000E+00  0.0000E+00  0.0000E+00  0.0000E+00  0.0000E+00  0.0000E+00  0.0000E+00  0.0000E+00  0.0000E+00  0.0000E+00  0.0000E+00  0.0000E+00  0.0000E+00
    -29.241  0.0000E+00  0.0000E+00  0.0000E+00  0.0000E+00  0.0000E+00  0.0000E+00  0.0000E+00  0.0000E+00  0.0000E+00  0.0000E+00  0.0000E+00  0.0000E+00  0.0000E+00  0.0000E+00  0.0000E+00  0.0000E+00  0.0000E+00  0.0000E+00
    -29.096  0.0000E+00  0.0000E+00  0.0000E+00  0.0000E+00  0.0000E+00  0.0000E+00  0.0000E+00  0.0000E+00  0.0000E+00  0.0000E+00  0.0000E+00  0.0000E+00  0.0000E+00  0.0000E+00  0.0000E+00  0.0000E+00  0.0000E+00  0.0000E+00
    -28.952  0.0000E+00  0.0000E+00  0.0000E+00  0.0000E+00  0.0000E+00  0.0000E+00  0.0000E+00  0.0000E+00  0.0000E+00  0.0000E+00  0.0000E+00  0.0000E+00  0.0000E+00  0.0000E+00  0.0000E+00  0.0000E+00  0.0000E+00  0.0000E+00
    -28.807  0.0000E+00  0.0000E+00  0.0000E+00  0.0000E+00  0.0000E+00  0.0000E+00  0.0000E+00  0.0000E+00  0.0000E+00  0.0000E+00  0.0000E+00  0.0000E+00  0.0000E+00  0.0000E+00  0.0000E+00  0.0000E+00  0.0000E+00  0.0000E+00
    -28.663  0.0000E+00  0.0000E+00  0.0000E+00  0.0000E+00  0.0000E+00  0.0000E+00  0.0000E+00  0.0000E+00  0.0000E+00  0.0000E+00  0.0000E+00  0.0000E+00  0.0000E+00  0.0000E+00  0.0000E+00  0.0000E+00  0.0000E+00  0.0000E+00
    -28.518  0.0000E+00  0.0000E+00  0.0000E+00  0.0000E+00  0.0000E+00  0.0000E+00  0.0000E+00  0.0000E+00  0.0000E+00  0.0000E+00  0.0000E+00  0.0000E+00  0.0000E+00  0.0000E+00  0.0000E+00  0.0000E+00  0.0000E+00  0.0000E+00
    -28.374  0.0000E+00  0.0000E+00  0.0000E+00  0.0000E+00  0.0000E+00  0.0000E+00  0.0000E+00  0.0000E+00  0.0000E+00  0.0000E+00  0.0000E+00  0.0000E+00  0.0000E+00  0.0000E+00  0.0000E+00  0.0000E+00  0.0000E+00  0.0000E+00
    -28.229  0.0000E+00  0.0000E+00  0.0000E+00  0.0000E+00  0.0000E+00  0.0000E+00  0.0000E+00  0.0000E+00  0.0000E+00  0.0000E+00  0.0000E+00  0.0000E+00  0.0000E+00  0.0000E+00  0.0000E+00  0.0000E+00  0.0000E+00  0.0000E+00
    -28.085  0.0000E+00  0.0000E+00  0.0000E+00  0.0000E+00  0.0000E+00  0.0000E+00  0.0000E+00  0.0000E+00  0.0000E+00  0.0000E+00  0.0000E+00  0.0000E+00  0.0000E+00  0.0000E+00  0.0000E+00  0.0000E+00  0.0000E+00  0.0000E+00
    -27.940  0.0000E+00  0.0000E+00  0.0000E+00  0.0000E+00  0.0000E+00  0.0000E+00  0.0000E+00  0.0000E+00  0.0000E+00  0.0000E+00  0.0000E+00  0.0000E+00  0.0000E+00  0.0000E+00  0.0000E+00  0.0000E+00  0.0000E+00  0.0000E+00
    -27.796  0.0000E+00  0.0000E+00  0.0000E+00  0.0000E+00  0.0000E+00  0.0000E+00  0.0000E+00  0.0000E+00  0.0000E+00  0.0000E+00  0.0000E+00  0.0000E+00  0.0000E+00  0.0000E+00  0.0000E+00  0.0000E+00  0.0000E+00  0.0000E+00
    -27.651  0.0000E+00  0.0000E+00  0.0000E+00  0.0000E+00  0.0000E+00  0.0000E+00  0.0000E+00  0.0000E+00  0.0000E+00  0.0000E+00  0.0000E+00  0.0000E+00  0.0000E+00  0.0000E+00  0.0000E+00  0.0000E+00  0.0000E+00  0.0000E+00
    -27.507  0.0000E+00  0.0000E+00  0.0000E+00  0.0000E+00  0.0000E+00  0.0000E+00  0.0000E+00  0.0000E+00  0.0000E+00  0.0000E+00  0.0000E+00  0.0000E+00  0.0000E+00  0.0000E+00  0.0000E+00  0.0000E+00  0.0000E+00  0.0000E+00
    -27.362  0.0000E+00  0.0000E+00  0.0000E+00  0.0000E+00  0.0000E+00  0.0000E+00  0.0000E+00  0.0000E+00  0.0000E+00  0.0000E+00  0.0000E+00  0.0000E+00  0.0000E+00  0.0000E+00  0.0000E+00  0.0000E+00  0.0000E+00  0.0000E+00
    -27.218  0.0000E+00  0.0000E+00  0.0000E+00  0.0000E+00  0.0000E+00  0.0000E+00  0.0000E+00  0.0000E+00  0.0000E+00  0.0000E+00  0.0000E+00  0.0000E+00  0.0000E+00  0.0000E+00  0.0000E+00  0.0000E+00  0.0000E+00  0.0000E+00