   8   8   1   0
  0.2096036E+02  0.4454795E-09  0.4454795E-09  0.8449542E-09  0.5000000E-15
  1.000000000000000E-004
  CAR 
 unknown system                          
     12.42821615    -30.87601985  301      5.69043458      1.00000000
    -30.876  0.0000E+00  0.0000E+00  0.0000E+00  0.0000E+00
    -30.732  0.0000E+00  0.0000E+00  0.0000E+00  0.0000E+00
    -30.587  0.0000E+00  0.0000E+00  0.0000E+00  0.0000E+00
    -30.443  0.0000E+00  0.0000E+00  0.0000E+00  0.0000E+00
    -30.299  0.0000E+00  0.0000E+00  0.0000E+00  0.0000E+00
    -30.154  0.0000E+00  0.0000E+00  0.0000E+00  0.0000E+00
    -30.010  0.0000E+00  0.0000E+00  0.0000E+00  0.0000E+00
    -29.866  0.0000E+00  0.0000E+00  0.0000E+00  0.0000E+00
    -29.721  0.0000E+00  0.0000E+00  0.0000E+00  0.0000E+00
    -29.577  0.0000E+00  0.0000E+00  0.0000E+00  0.0000E+00
    -29.433  0.3430E-03  0.3446E-03  0.4951E-04  0.4974E-04
    -29.288  0.5807E-02  0.5834E-02  0.8877E-03  0.8919E-03
    -29.144  0.1033E+00  0.1038E+00  0.1581E-01  0.1588E-01
    -29.000  0.1622E+01  0.1629E+01  0.2500E+00  0.2510E+00
    -28.855  0.8231E+01  0.8237E+01  0.1438E+01  0.1440E+01
    -28.711  0.3597E+01  0.3585E+01  0.1957E+01  0.1958E+01
    -28.566  0.2786E+00  0.2773E+00  0.1998E+01  0.1998E+01
    -28.422  0.0000E+00  0.0000E+00  0.2000E+01  0.2000E+01
    -28.278  0.0000E+00  0.0000E+00  0.2000E+01  0.2000E+01
    -28.133  0.0000E+00  0.0000E+00  0.2000E+01  0.2000E+01
    -27.989  0.0000E+00  0.0000E+00  0.2000E+01  0.2000E+01
    -27.845  0.0000E+00  0.0000E+00  0.2000E+01  0.2000E+01
    -27.700  0.0000E+00  0.0000E+00  0.2000E+01  0.2000E+01
    -27.556  0.0000E+00  0.0000E+00  0.2000E+01  0.2000E+01
    -27.412  0.0000E+00  0.0000E+00  0.2000E+01  0.2000E+01
    -27.267  0.0000E+00  0.0000E+00  0.2000E+01  0.2000E+01
    -27.123  0.0000E+00  0.0000E+00  0.2000E+01  0.2000E+01
    -26.979  0.0000E+00  0.0000E+00  0.2000E+01  0.2000E+01
    -26.834  0.0000E+00  0.0000E+00  0.2000E+01  0.2000E+01
    -26.690  0.0000E+00  0.0000E+00  0.2000E+01  0.2000E+01
    -26.546  0.0000E+00  0.0000E+00  0.2000E+01  0.2000E+01
    -26.401  0.0000E+00  0.0000E+00  0.2000E+01  0.2000E+01
    -26.257  0.0000E+00  0.0000E+00  0.2000E+01  0.2000E+01
    -26.113  0.0000E+00  0.0000E+00  0.2000E+01  0.2000E+01
    -25.968  0.0000E+00  0.0000E+00  0.2000E+01  0.2000E+01
    -25.824  0.0000E+00  0.0000E+00  0.2000E+01  0.2000E+01
    -25.680  0.0000E+00  0.0000E+00  0.2000E+01  0.2000E+01
    -25.535  0.0000E+00  0.0000E+00  0.2000E+01  0.2000E+01
    -25.391  0.0000E+00  0.0000E+00  0.2000E+01  0.2000E+01
    -25.246  0.0000E+00  0.0000E+00  0.2000E+01  0.2000E+01
    -25.102  0.0000E+00  0.0000E+00  0.2000E+01  0.2000E+01
    -24.958  0.0000E+00  0.0000E+00  0.2000E+01  0.2000E+01
    -24.813  0.0000E+00  0.0000E+00  0.2000E+01  0.2000E+01
    -24.669  0.0000E+00  0.0000E+00  0.2000E+01  0.2000E+01
    -24.525  0.0000E+00  0.0000E+00  0.2000E+01  0.2000E+01
    -24.380  0.0000E+00  0.0000E+00  0.2000E+01  0.2000E+01
    -24.236  0.0000E+00  0.0000E+00  0.2000E+01  0.2000E+01
    -24.092  0.0000E+00  0.0000E+00  0.2000E+01  0.2000E+01
    -23.947  0.0000E+00  0.0000E+00  0.2000E+01  0.2000E+01
    -23.803  0.0000E+00  0.0000E+00  0.2000E+01  0.2000E+01
    -23.659  0.0000E+00  0.0000E+00  0.2000E+01  0.2000E+01
    -23.514  0.0000E+00  0.0000E+00  0.2000E+01  0.2000E+01
    -23.370  0.0000E+00  0.0000E+00  0.2000E+01  0.2000E+01
    -23.226  0.0000E+00  0.0000E+00  0.2000E+01  0.2000E+01
    -23.081  0.0000E+00  0.0000E+00  0.2000E+01  0.2000E+01
    -22.937  0.0000E+00  0.0000E+00  0.2000E+01  0.2000E+01
    -22.793  0.0000E+00  0.0000E+00  0.2000E+01  0.2000E+01
    -22.648  0.0000E+00  0.0000E+00  0.2000E+01  0.2000E+01
    -22.504  0.0000E+00  0.0000E+00  0.2000E+01  0.2000E+01
    -22.360  0.0000E+00  0.0000E+00  0.2000E+01  0.2000E+01
    -22.215  0.0000E+00  0.0000E+00  0.2000E+01  0.2000E+01
    -22.071  0.0000E+00  0.0000E+00  0.2000E+01  0.2000E+01
    -21.926  0.0000E+00  0.0000E+00  0.2000E+01  0.2000E+01
    -21.782  0.0000E+00  0.0000E+00  0.2000E+01  0.2000E+01
    -21.638  0.0000E+00  0.0000E+00  0.2000E+01  0.2000E+01
    -21.493  0.0000E+00  0.0000E+00  0.2000E+01  0.2000E+01
    -21.349  0.0000E+00  0.0000E+00  0.2000E+01  0.2000E+01
    -21.205  0.0000E+00  0.0000E+00  0.2000E+01  0.2000E+01
    -21.060  0.0000E+00  0.0000E+00  0.2000E+01  0.2000E+01
    -20.916  0.0000E+00  0.0000E+00  0.2000E+01  0.2000E+01
    -20.772  0.0000E+00  0.0000E+00  0.2000E+01  0.2000E+01
    -20.627  0.0000E+00  0.0000E+00  0.2000E+01  0.2000E+01
    -20.483  0.0000E+00  0.0000E+00  0.2000E+01  0.2000E+01
    -20.339  0.0000E+00  0.0000E+00  0.2000E+01  0.2000E+01
    -20.194  0.0000E+00  0.0000E+00  0.2000E+01  0.2000E+01
    -20.050  0.0000E+00  0.0000E+00  0.2000E+01  0.2000E+01
    -19.906  0.0000E+00  0.0000E+00  0.2000E+01  0.2000E+01
    -19.761  0.0000E+00  0.0000E+00  0.2000E+01  0.2000E+01
    -19.617  0.0000E+00  0.0000E+00  0.2000E+01  0.2000E+01
    -19.473  0.0000E+00  0.0000E+00  0.2000E+01  0.2000E+01
    -19.328  0.0000E+00  0.0000E+00  0.2000E+01  0.2000E+01
    -19.184  0.0000E+00  0.0000E+00  0.2000E+01  0.2000E+01
    -19.040  0.0000E+00  0.0000E+00  0.2000E+01  0.2000E+01
    -18.895  0.0000E+00  0.0000E+00  0.2000E+01  0.2000E+01
    -18.751  0.0000E+00  0.0000E+00  0.2000E+01  0.2000E+01
    -18.606  0.0000E+00  0.0000E+00  0.2000E+01  0.2000E+01
    -18.462  0.0000E+00  0.0000E+00  0.2000E+01  0.2000E+01
    -18.318  0.0000E+00  0.0000E+00  0.2000E+01  0.2000E+01
    -18.173  0.0000E+00  0.0000E+00  0.2000E+01  0.2000E+01
    -18.029  0.0000E+00  0.0000E+00  0.2000E+01  0.2000E+01
    -17.885  0.0000E+00  0.0000E+00  0.2000E+01  0.2000E+01
    -17.740  0.0000E+00  0.0000E+00  0.2000E+01  0.2000E+01
    -17.596  0.0000E+00  0.0000E+00  0.2000E+01  0.2000E+01
    -17.452  0.0000E+00  0.0000E+00  0.2000E+01  0.2000E+01
    -17.307  0.0000E+00  0.0000E+00  0.2000E+01  0.2000E+01
    -17.163  0.0000E+00  0.0000E+00  0.2000E+01  0.2000E+01
    -17.019  0.0000E+00  0.0000E+00  0.2000E+01  0.2000E+01
    -16.874  0.0000E+00  0.0000E+00  0.2000E+01  0.2000E+01
    -16.730  0.0000E+00  0.0000E+00  0.2000E+01  0.2000E+01
    -16.586  0.0000E+00  0.0000E+00  0.2000E+01  0.2000E+01
    -16.441  0.0000E+00  0.0000E+00  0.2000E+01  0.2000E+01
    -16.297  0.0000E+00  0.0000E+00  0.2000E+01  0.2000E+01
    -16.153  0.0000E+00  0.0000E+00  0.2000E+01  0.2000E+01
    -16.008  0.0000E+00  0.0000E+00  0.2000E+01  0.2000E+01
    -15.864  0.0000E+00  0.0000E+00  0.2000E+01  0.2000E+01
    -15.720  0.0000E+00  0.0000E+00  0.2000E+01  0.2000E+01
    -15.575  0.0000E+00  0.0000E+00  0.2000E+01  0.2000E+01
    -15.431  0.0000E+00  0.0000E+00  0.2000E+01  0.2000E+01
    -15.286  0.0000E+00  0.0000E+00  0.2000E+01  0.2000E+01
    -15.142  0.0000E+00  0.0000E+00  0.2000E+01  0.2000E+01
    -14.998  0.0000E+00  0.0000E+00  0.2000E+01  0.2000E+01
    -14.853  0.0000E+00  0.0000E+00  0.2000E+01  0.2000E+01
    -14.709  0.0000E+00  0.0000E+00  0.2000E+01  0.2000E+01
    -14.565  0.0000E+00  0.0000E+00  0.2000E+01  0.2000E+01
    -14.420  0.0000E+00  0.0000E+00  0.2000E+01  0.2000E+01
    -14.276  0.0000E+00  0.0000E+00  0.2000E+01  0.2000E+01
    -14.132  0.0000E+00  0.0000E+00  0.2000E+01  0.2000E+01
    -13.987  0.0000E+00  0.0000E+00  0.2000E+01  0.2000E+01
    -13.843  0.0000E+00  0.0000E+00  0.2000E+01  0.2000E+01
    -13.699  0.0000E+00  0.0000E+00  0.2000E+01  0.2000E+01
    -13.554  0.0000E+00  0.0000E+00  0.2000E+01  0.2000E+01
    -13.410  0.0000E+00  0.0000E+00  0.2000E+01  0.2000E+01
    -13.266  0.0000E+00  0.0000E+00  0.2000E+01  0.2000E+01
    -13.121  0.0000E+00  0.0000E+00  0.2000E+01  0.2000E+01
    -12.977  0.0000E+00  0.0000E+00  0.2000E+01  0.2000E+01
    -12.833  0.0000E+00  0.0000E+00  0.2000E+01  0.2000E+01
    -12.688  0.0000E+00  0.0000E+00  0.2000E+01  0.2000E+01
    -12.544  0.0000E+00  0.0000E+00  0.2000E+01  0.2000E+01
    -12.400  0.0000E+00  0.0000E+00  0.2000E+01  0.2000E+01
    -12.255  0.0000E+00  0.0000E+00  0.2000E+01  0.2000E+01
    -12.111  0.0000E+00  0.0000E+00  0.2000E+01  0.2000E+01
    -11.967  0.0000E+00  0.0000E+00  0.2000E+01  0.2000E+01
    -11.822  0.3970E-04  0.3972E-04  0.2000E+01  0.2000E+01
    -11.678  0.3983E-02  0.3989E-02  0.2001E+01  0.2001E+01
    -11.533  0.6995E-01  0.7003E-01  0.2011E+01  0.2011E+01
    -11.389  0.1172E+01  0.1174E+01  0.2180E+01  0.2180E+01
    -11.245  0.1071E+02  0.1072E+02  0.3726E+01  0.3728E+01
    -11.100  0.2014E+02  0.2015E+02  0.6633E+01  0.6636E+01
    -10.956  0.8538E+01  0.8526E+01  0.7866E+01  0.7866E+01
    -10.812  0.8237E+00  0.8214E+00  0.7993E+01  0.7993E+01
    -10.667  0.0000E+00  0.0000E+00  0.8000E+01  0.8000E+01
    -10.523  0.0000E+00  0.0000E+00  0.8000E+01  0.8000E+01
    -10.379  0.0000E+00  0.0000E+00  0.8000E+01  0.8000E+01
    -10.234  0.0000E+00  0.0000E+00  0.8000E+01  0.8000E+01
    -10.090  0.0000E+00  0.0000E+00  0.8000E+01  0.8000E+01
     -9.946  0.0000E+00  0.0000E+00  0.8000E+01  0.8000E+01
     -9.801  0.0000E+00  0.0000E+00  0.8000E+01  0.8000E+01
     -9.657  0.0000E+00  0.0000E+00  0.8000E+01  0.8000E+01
     -9.513  0.0000E+00  0.0000E+00  0.8000E+01  0.8000E+01
     -9.368  0.0000E+00  0.0000E+00  0.8000E+01  0.8000E+01
     -9.224  0.0000E+00  0.0000E+00  0.8000E+01  0.8000E+01
     -9.080  0.0000E+00  0.0000E+00  0.8000E+01  0.8000E+01
     -8.935  0.0000E+00  0.0000E+00  0.8000E+01  0.8000E+01
     -8.791  0.0000E+00  0.0000E+00  0.8000E+01  0.8000E+01
     -8.647  0.0000E+00  0.0000E+00  0.8000E+01  0.8000E+01
     -8.502  0.0000E+00  0.0000E+00  0.8000E+01  0.8000E+01
     -8.358  0.0000E+00  0.0000E+00  0.8000E+01  0.8000E+01
     -8.213  0.0000E+00  0.0000E+00  0.8000E+01  0.8000E+01
     -8.069  0.0000E+00  0.0000E+00  0.8000E+01  0.8000E+01
     -7.925  0.0000E+00  0.0000E+00  0.8000E+01  0.8000E+01
     -7.780  0.0000E+00  0.0000E+00  0.8000E+01  0.8000E+01
     -7.636  0.0000E+00  0.0000E+00  0.8000E+01  0.8000E+01
     -7.492  0.0000E+00  0.0000E+00  0.8000E+01  0.8000E+01
     -7.347  0.0000E+00  0.0000E+00  0.8000E+01  0.8000E+01
     -7.203  0.0000E+00  0.0000E+00  0.8000E+01  0.8000E+01
     -7.059  0.0000E+00  0.0000E+00  0.8000E+01  0.8000E+01
     -6.914  0.0000E+00  0.0000E+00  0.8000E+01  0.8000E+01
     -6.770  0.0000E+00  0.0000E+00  0.8000E+01  0.8000E+01
     -6.626  0.0000E+00  0.0000E+00  0.8000E+01  0.8000E+01
     -6.481  0.0000E+00  0.0000E+00  0.8000E+01  0.8000E+01
     -6.337  0.0000E+00  0.0000E+00  0.8000E+01  0.8000E+01
     -6.193  0.0000E+00  0.0000E+00  0.8000E+01  0.8000E+01
     -6.048  0.0000E+00  0.0000E+00  0.8000E+01  0.8000E+01
     -5.904  0.0000E+00  0.0000E+00  0.8000E+01  0.8000E+01
     -5.760  0.0000E+00  0.0000E+00  0.8000E+01  0.8000E+01
     -5.615  0.0000E+00  0.0000E+00  0.8000E+01  0.8000E+01
     -5.471  0.0000E+00  0.0000E+00  0.8000E+01  0.8000E+01
     -5.327  0.0000E+00  0.0000E+00  0.8000E+01  0.8000E+01
     -5.182  0.0000E+00  0.0000E+00  0.8000E+01  0.8000E+01
     -5.038  0.0000E+00  0.0000E+00  0.8000E+01  0.8000E+01
     -4.893  0.0000E+00  0.0000E+00  0.8000E+01  0.8000E+01
     -4.749  0.0000E+00  0.0000E+00  0.8000E+01  0.8000E+01
     -4.605  0.0000E+00  0.0000E+00  0.8000E+01  0.8000E+01
     -4.460  0.0000E+00  0.0000E+00  0.8000E+01  0.8000E+01
     -4.316  0.0000E+00  0.0000E+00  0.8000E+01  0.8000E+01
     -4.172  0.0000E+00  0.0000E+00  0.8000E+01  0.8000E+01
     -4.027  0.0000E+00  0.0000E+00  0.8000E+01  0.8000E+01
     -3.883  0.0000E+00  0.0000E+00  0.8000E+01  0.8000E+01
     -3.739  0.0000E+00  0.0000E+00  0.8000E+01  0.8000E+01
     -3.594  0.0000E+00  0.0000E+00  0.8000E+01  0.8000E+01
     -3.450  0.2612E-05  0.2677E-05  0.8000E+01  0.8000E+01
     -3.306  0.7231E-04  0.7410E-04  0.8000E+01  0.8000E+01
     -3.161  0.1292E-02  0.1324E-02  0.8000E+01  0.8000E+01
     -3.017  0.1839E-01  0.1875E-01  0.8003E+01  0.8003E+01
     -2.873  0.9887E-01  0.9972E-01  0.8017E+01  0.8017E+01
     -2.728  0.1990E+00  0.1998E+00  0.8046E+01  0.8046E+01
     -2.584  0.2545E+00  0.2548E+00  0.8083E+01  0.8083E+01
     -2.440  0.3420E+00  0.3426E+00  0.8132E+01  0.8132E+01
     -2.295  0.3793E+00  0.3796E+00  0.8187E+01  0.8187E+01
     -2.151  0.4078E+00  0.4085E+00  0.8246E+01  0.8246E+01
     -2.007  0.5304E+00  0.5309E+00  0.8322E+01  0.8323E+01
     -1.862  0.4974E+00  0.4968E+00  0.8394E+01  0.8395E+01
     -1.718  0.5826E+00  0.5844E+00  0.8479E+01  0.8479E+01
     -1.573  0.6916E+00  0.6914E+00  0.8579E+01  0.8579E+01
     -1.429  0.6464E+00  0.6466E+00  0.8672E+01  0.8673E+01
     -1.285  0.7511E+00  0.7514E+00  0.8781E+01  0.8781E+01
     -1.140  0.8009E+00  0.8022E+00  0.8896E+01  0.8897E+01
     -0.996  0.9719E+00  0.9721E+00  0.9037E+01  0.9038E+01
     -0.852  0.8921E+00  0.8916E+00  0.9166E+01  0.9167E+01
     -0.707  0.9905E+00  0.9918E+00  0.9309E+01  0.9310E+01
     -0.563  0.1133E+01  0.1134E+01  0.9473E+01  0.9474E+01
     -0.419  0.1117E+01  0.1117E+01  0.9634E+01  0.9636E+01
     -0.274  0.1132E+01  0.1132E+01  0.9798E+01  0.9799E+01
     -0.130  0.1189E+01  0.1190E+01  0.9970E+01  0.9972E+01
      0.014  0.1415E+01  0.1418E+01  0.1017E+02  0.1018E+02
      0.159  0.1441E+01  0.1439E+01  0.1038E+02  0.1038E+02
      0.303  0.1252E+01  0.1250E+01  0.1056E+02  0.1057E+02
      0.447  0.1109E+01  0.1109E+01  0.1072E+02  0.1073E+02
      0.592  0.1145E+01  0.1145E+01  0.1089E+02  0.1089E+02
      0.736  0.1223E+01  0.1223E+01  0.1107E+02  0.1107E+02
      0.880  0.9662E+00  0.9650E+00  0.1121E+02  0.1121E+02
      1.025  0.1177E+01  0.1180E+01  0.1138E+02  0.1138E+02
      1.169  0.1478E+01  0.1480E+01  0.1159E+02  0.1159E+02
      1.313  0.1558E+01  0.1557E+01  0.1182E+02  0.1182E+02
      1.458  0.1403E+01  0.1402E+01  0.1202E+02  0.1202E+02
      1.602  0.1335E+01  0.1336E+01  0.1221E+02  0.1221E+02
      1.747  0.1570E+01  0.1571E+01  0.1244E+02  0.1244E+02
      1.891  0.1321E+01  0.1317E+01  0.1263E+02  0.1263E+02
      2.035  0.9686E+00  0.9692E+00  0.1277E+02  0.1277E+02
      2.180  0.1266E+01  0.1268E+01  0.1295E+02  0.1295E+02
      2.324  0.1239E+01  0.1237E+01  0.1313E+02  0.1313E+02
      2.468  0.9108E+00  0.9092E+00  0.1326E+02  0.1327E+02
      2.613  0.9756E+00  0.9788E+00  0.1341E+02  0.1341E+02
      2.757  0.1389E+01  0.1392E+01  0.1361E+02  0.1361E+02
      2.901  0.1211E+01  0.1208E+01  0.1378E+02  0.1378E+02
      3.046  0.1092E+01  0.1094E+01  0.1394E+02  0.1394E+02
      3.190  0.1426E+01  0.1428E+01  0.1415E+02  0.1415E+02
      3.334  0.1492E+01  0.1494E+01  0.1436E+02  0.1436E+02
      3.479  0.1771E+01  0.1772E+01  0.1462E+02  0.1462E+02
      3.623  0.1726E+01  0.1725E+01  0.1487E+02  0.1487E+02
      3.767  0.1769E+01  0.1770E+01  0.1512E+02  0.1512E+02
      3.912  0.1782E+01  0.1782E+01  0.1538E+02  0.1538E+02
      4.056  0.1846E+01  0.1846E+01  0.1565E+02  0.1565E+02
      4.200  0.1924E+01  0.1926E+01  0.1593E+02  0.1593E+02
      4.345  0.2218E+01  0.2220E+01  0.1625E+02  0.1625E+02
      4.489  0.2467E+01  0.2468E+01  0.1660E+02  0.1661E+02
      4.633  0.2705E+01  0.2705E+01  0.1699E+02  0.1700E+02
      4.778  0.2332E+01  0.2327E+01  0.1733E+02  0.1733E+02
      4.922  0.1923E+01  0.1921E+01  0.1761E+02  0.1761E+02
      5.066  0.1806E+01  0.1803E+01  0.1787E+02  0.1787E+02
      5.211  0.1686E+01  0.1687E+01  0.1811E+02  0.1812E+02
      5.355  0.1969E+01  0.1972E+01  0.1840E+02  0.1840E+02
      5.500  0.1943E+01  0.1939E+01  0.1868E+02  0.1868E+02
      5.644  0.1654E+01  0.1654E+01  0.1892E+02  0.1892E+02
      5.788  0.1722E+01  0.1723E+01  0.1917E+02  0.1917E+02
      5.933  0.1894E+01  0.1896E+01  0.1944E+02  0.1944E+02
      6.077  0.2263E+01  0.2266E+01  0.1977E+02  0.1977E+02
      6.221  0.2531E+01  0.2533E+01  0.2014E+02  0.2014E+02
      6.366  0.2281E+01  0.2277E+01  0.2047E+02  0.2047E+02
      6.510  0.2088E+01  0.2089E+01  0.2077E+02  0.2077E+02
      6.654  0.2137E+01  0.2135E+01  0.2108E+02  0.2108E+02
      6.799  0.2034E+01  0.2035E+01  0.2137E+02  0.2137E+02
      6.943  0.2012E+01  0.2009E+01  0.2166E+02  0.2166E+02
      7.087  0.1627E+01  0.1623E+01  0.2190E+02  0.2190E+02
      7.232  0.1368E+01  0.1369E+01  0.2210E+02  0.2210E+02
      7.376  0.1872E+01  0.1877E+01  0.2237E+02  0.2237E+02
      7.520  0.2272E+01  0.2271E+01  0.2269E+02  0.2270E+02
      7.665  0.1991E+01  0.1988E+01  0.2298E+02  0.2298E+02
      7.809  0.1753E+01  0.1753E+01  0.2324E+02  0.2324E+02
      7.953  0.1728E+01  0.1726E+01  0.2349E+02  0.2349E+02
      8.098  0.1718E+01  0.1720E+01  0.2373E+02  0.2374E+02
      8.242  0.2024E+01  0.2026E+01  0.2403E+02  0.2403E+02
      8.386  0.2187E+01  0.2188E+01  0.2434E+02  0.2435E+02
      8.531  0.2652E+01  0.2655E+01  0.2473E+02  0.2473E+02
      8.675  0.3173E+01  0.3166E+01  0.2519E+02  0.2519E+02
      8.820  0.3210E+01  0.3190E+01  0.2565E+02  0.2565E+02
      8.964  0.3101E+01  0.3088E+01  0.2610E+02  0.2609E+02
      9.108  0.2520E+01  0.2558E+01  0.2646E+02  0.2647E+02
      9.253  0.2279E+01  0.2297E+01  0.2679E+02  0.2680E+02
      9.397  0.2229E+01  0.2175E+01  0.2711E+02  0.2711E+02
      9.541  0.1605E+01  0.1607E+01  0.2735E+02  0.2734E+02
      9.686  0.1232E+01  0.1222E+01  0.2753E+02  0.2752E+02
      9.830  0.9065E+00  0.8678E+00  0.2766E+02  0.2765E+02
      9.974  0.6014E+00  0.6594E+00  0.2774E+02  0.2774E+02
     10.119  0.5890E+00  0.6440E+00  0.2783E+02  0.2784E+02
     10.263  0.6080E+00  0.5206E+00  0.2792E+02  0.2791E+02
     10.407  0.4133E+00  0.4009E+00  0.2798E+02  0.2797E+02
     10.552  0.1408E+00  0.1825E+00  0.2800E+02  0.2800E+02
     10.696  0.1422E-01  0.2277E-01  0.2800E+02  0.2800E+02
     10.840  0.3189E-03  0.9272E-03  0.2800E+02  0.2800E+02
     10.985  0.0000E+00  0.0000E+00  0.2800E+02  0.2800E+02
     11.129  0.0000E+00  0.0000E+00  0.2800E+02  0.2800E+02
     11.273  0.0000E+00  0.0000E+00  0.2800E+02  0.2800E+02
     11.418  0.0000E+00  0.0000E+00  0.2800E+02  0.2800E+02
     11.562  0.0000E+00  0.0000E+00  0.2800E+02  0.2800E+02
     11.706  0.0000E+00  0.0000E+00  0.2800E+02  0.2800E+02
     11.851  0.0000E+00  0.0000E+00  0.2800E+02  0.2800E+02
     11.995  0.0000E+00  0.0000E+00  0.2800E+02  0.2800E+02
     12.140  0.0000E+00  0.0000E+00  0.2800E+02  0.2800E+02
     12.284  0.0000E+00  0.0000E+00  0.2800E+02  0.2800E+02
     12.428  0.0000E+00  0.0000E+00  0.2800E+02  0.2800E+02
     12.42821615    -30.87601985  301      5.69043458      1.00000000
    -30.876  0.0000E+00  0.0000E+00  0.0000E+00  0.0000E+00  0.0000E+00  0.0000E+00  0.0000E+00  0.0000E+00  0.0000E+00  0.0000E+00  0.0000E+00  0.0000E+00  0.0000E+00  0.0000E+00  0.0000E+00  0.0000E+00  0.0000E+00  0.0000E+00
    -30.732  0.0000E+00  0.0000E+00  0.0000E+00  0.0000E+00  0.0000E+00  0.0000E+00  0.0000E+00  0.0000E+00  0.0000E+00  0.0000E+00  0.0000E+00  0.0000E+00  0.0000E+00  0.0000E+00  0.0000E+00  0.0000E+00  0.0000E+00  0.0000E+00
    -30.587  0.0000E+00  0.0000E+00  0.0000E+00  0.0000E+00  0.0000E+00  0.0000E+00  0.0000E+00  0.0000E+00  0.0000E+00  0.0000E+00  0.0000E+00  0.0000E+00  0.0000E+00  0.0000E+00  0.0000E+00  0.0000E+00  0.0000E+00  0.0000E+00
    -30.443  0.0000E+00  0.0000E+00  0.0000E+00  0.0000E+00  0.0000E+00  0.0000E+00  0.0000E+00  0.0000E+00  0.0000E+00  0.0000E+00  0.0000E+00  0.0000E+00  0.0000E+00  0.0000E+00  0.0000E+00  0.0000E+00  0.0000E+00  0.0000E+00
    -30.299  0.0000E+00  0.0000E+00  0.0000E+00  0.0000E+00  0.0000E+00  0.0000E+00  0.0000E+00  0.0000E+00  0.0000E+00  0.0000E+00  0.0000E+00  0.0000E+00  0.0000E+00  0.0000E+00  0.0000E+00  0.0000E+00  0.0000E+00  0.0000E+00
    -30.154  0.0000E+00  0.0000E+00  0.0000E+00  0.0000E+00  0.0000E+00  0.0000E+00  0.0000E+00  0.0000E+00  0.0000E+00  0.0000E+00  0.0000E+00  0.0000E+00  0.0000E+00  0.0000E+00  0.0000E+00  0.0000E+00  0.0000E+00  0.0000E+00
    -30.010  0.0000E+00  0.0000E+00  0.0000E+00  0.0000E+00  0.0000E+00  0.0000E+00  0.0000E+00  0.0000E+00  0.0000E+00  0.0000E+00  0.0000E+00  0.0000E+00  0.0000E+00  0.0000E+00  0.0000E+00  0.0000E+00  0.0000E+00  0.0000E+00
    -29.866  0.0000E+00  0.0000E+00  0.0000E+00  0.0000E+00  0.0000E+00  0.0000E+00  0.0000E+00  0.0000E+00  0.0000E+00  0.0000E+00  0.0000E+00  0.0000E+00  0.0000E+00  0.0000E+00  0.0000E+00  0.0000E+00  0.0000E+00  0.0000E+00
    -29.721  0.0000E+00  0.0000E+00  0.0000E+00  0.0000E+00  0.0000E+00  0.0000E+00  0.0000E+00  0.0000E+00  0.0000E+00  0.0000E+00  0.0000E+00  0.0000E+00  0.0000E+00  0.0000E+00  0.0000E+00  0.0000E+00  0.0000E+00  0.0000E+00
    -29.577  0.0000E+00  0.0000E+00  0.0000E+00  0.0000E+00  0.0000E+00  0.0000E+00  0.0000E+00  0.0000E+00  0.0000E+00  0.0000E+00  0.0000E+00  0.0000E+00  0.0000E+00  0.0000E+00  0.0000E+00  0.0000E+00  0.0000E+00  0.0000E+00
    -29.433  0.1674E-03  0.1682E-03  0.4672E-11  0.4723E-11  0.1689E-12  0.1853E-12  0.4672E-11  0.4723E-11  0.7001E-14  0.6495E-14  0.3143E-13  0.2748E-13  0.3683E-09  0.3679E-09  0.3143E-13  0.2748E-13  0.2428E-11  0.2450E-11
    -29.288  0.2834E-02  0.2848E-02  0.7911E-10  0.7997E-10  0.2859E-11  0.3138E-11  0.7911E-10  0.7997E-10  0.1185E-12  0.1100E-12  0.5321E-12  0.4653E-12  0.6235E-08  0.6229E-08  0.5321E-12  0.4653E-12  0.4111E-10  0.4148E-10
    -29.144  0.5044E-01  0.5068E-01  0.1408E-08  0.1423E-08  0.5086E-10  0.5582E-10  0.1408E-08  0.1423E-08  0.2110E-11  0.1958E-11  0.9470E-11  0.8281E-11  0.1110E-06  0.1109E-06  0.9470E-11  0.8281E-11  0.7316E-09  0.7383E-09
    -29.000  0.7919E+00  0.7952E+00  0.2210E-07  0.2233E-07  0.7942E-09  0.8710E-09  0.2210E-07  0.2233E-07  0.3328E-10  0.3084E-10  0.1487E-09  0.1300E-09  0.1743E-05  0.1740E-05  0.1487E-09  0.1300E-09  0.1149E-07  0.1159E-07
    -28.855  0.4018E+01  0.4021E+01  0.1120E-06  0.1128E-06  0.3909E-08  0.4270E-08  0.1120E-06  0.1128E-06  0.1733E-09  0.1596E-09  0.7563E-09  0.6600E-09  0.8863E-05  0.8819E-05  0.7563E-09  0.6600E-09  0.5834E-07  0.5864E-07
    -28.711  0.1756E+01  0.1750E+01  0.4887E-07  0.4902E-07  0.1646E-08  0.1790E-08  0.4887E-07  0.4902E-07  0.7805E-10  0.7138E-10  0.3311E-09  0.2883E-09  0.3883E-05  0.3848E-05  0.3311E-09  0.2883E-09  0.2549E-07  0.2552E-07
    -28.566  0.1360E+00  0.1354E+00  0.3783E-08  0.3790E-08  0.1260E-09  0.1368E-09  0.3783E-08  0.3790E-08  0.6107E-11  0.5572E-11  0.2566E-10  0.2233E-10  0.3011E-06  0.2980E-06  0.2566E-10  0.2233E-10  0.1974E-08  0.1973E-08
    -28.422  0.0000E+00  0.0000E+00  0.0000E+00  0.0000E+00  0.0000E+00  0.0000E+00  0.0000E+00  0.0000E+00  0.0000E+00  0.0000E+00  0.0000E+00  0.0000E+00  0.0000E+00  0.0000E+00  0.0000E+00  0.0000E+00  0.0000E+00  0.0000E+00
    -28.278  0.0000E+00  0.0000E+00  0.0000E+00  0.0000E+00  0.0000E+00  0.0000E+00  0.0000E+00  0.0000E+00  0.0000E+00  0.0000E+00  0.0000E+00  0.0000E+00  0.0000E+00  0.0000E+00  0.0000E+00  0.0000E+00  0.0000E+00  0.0000E+00
    -28.133  0.0000E+00  0.0000E+00  0.0000E+00  0.0000E+00  0.0000E+00  0.0000E+00  0.0000E+00  0.0000E+00  0.0000E+00  0.0000E+00  0.0000E+00  0.0000E+00  0.0000E+00  0.0000E+00  0.0000E+00  0.0000E+00  0.0000E+00  0.0000E+00
    -27.989  0.0000E+00  0.0000E+00  0.0000E+00  0.0000E+00  0.0000E+00  0.0000E+00  0.0000E+00  0.0000E+00  0.0000E+00  0.0000E+00  0.0000E+00  0.0000E+00  0.0000E+00  0.0000E+00  0.0000E+00  0.0000E+00  0.0000E+00  0.0000E+00
    -27.845  0.0000E+00  0.0000E+00  0.0000E+00  0.0000E+00  0.0000E+00  0.0000E+00  0.0000E+00  0.0000E+00  0.0000E+00  0.0000E+00  0.0000E+00  0.0000E+00  0.0000E+00  0.0000E+00  0.0000E+00  0.0000E+00  0.0000E+00  0.0000E+00
    -27.700  0.0000E+00  0.0000E+00  0.0000E+00  0.0000E+00  0.0000E+00  0.0000E+00  0.0000E+00  0.0000E+00  0.0000E+00  0.0000E+00  0.0000E+00  0.0000E+00  0.0000E+00  0.0000E+00  0.0000E+00  0.0000E+00  0.0000E+00  0.0000E+00
    -27.556  0.0000E+00  0.0000E+00  0.0000E+00  0.0000E+00  0.0000E+00  0.0000E+00  0.0000E+00  0.0000E+00  0.0000E+00  0.0000E+00  0.0000E+00  0.0000E+00  0.0000E+00  0.0000E+00  0.0000E+00  0.0000E+00  0.0000E+00  0.0000E+00
    -27.412  0.0000E+00  0.0000E+00  0.0000E+00  0.0000E+00  0.0000E+00  0.0000E+00  0.0000E+00  0.0000E+00  0.0000E+00  0.0000E+00  0.0000E+00  0.0000E+00  0.0000E+00  0.0000E+00  0.0000E+00  0.0000E+00  0.0000E+00  0.0000E+00
    -27.267  0.0000E+00  0.0000E+00  0.0000E+00  0.0000E+00  0.0000E+00  0.0000E+00  0.0000E+00  0.0000E+00  0.0000E+00  0.0000E+00  0.0000E+00  0.0000E+00  0.0000E+00  0.0000E+00  0.0000E+00  0.0000E+00  0.0000E+00  0.0000E+00
    -27.123  0.0000E+00  0.0000E+00  0.0000E+00  0.0000E+00  0.0000E+00  0.0000E+00  0.0000E+00  0.0000E+00  0.0000E+00  0.0000E+00  0.0000E+00  0.0000E+00  0.0000E+00  0.0000E+00  0.0000E+00  0.0000E+00  0.0000E+00  0.0000E+00
    -26.979  0.0000E+00  0.0000E+00  0.0000E+00  0.0000E+00  0.0000E+00  0.0000E+00  0.0000E+00  0.0000E+00  0.0000E+00  0.0000E+00  0.0000E+00  0.0000E+00  0.0000E+00  0.0000E+00  0.0000E+00  0.0000E+00  0.0000E+00  0.0000E+00
    -26.834  0.0000E+00  0.0000E+00  0.0000E+00  0.0000E+00  0.0000E+00  0.0000E+00  0.0000E+00  0.0000E+00  0.0000E+00  0.0000E+00  0.0000E+00  0.0000E+00  0.0000E+00  0.0000E+00  0.0000E+00  0.0000E+00  0.0000E+00  0.0000E+00
    -26.690  0.0000E+00  0.0000E+00  0.0000E+00  0.0000E+00  0.0000E+00  0.0000E+00  0.0000E+00  0.0000E+00  0.0000E+00  0.0000E+00  0.0000E+00  0.0000E+00  0.0000E+00  0.0000E+00  0.0000E+00  0.0000E+00  0.0000E+00  0.0000E+00
    -26.546  0.0000E+00  0.0000E+00  0.0000E+00  0.0000E+00  0.0000E+00  0.0000E+00  0.0000E+00  0.0000E+00  0.0000E+00  0.0000E+00  0.0000E+00  0.0000E+00  0.0000E+00  0.0000E+00  0.0000E+00  0.0000E+00  0.0000E+00  0.0000E+00
    -26.401  0.0000E+00  0.0000E+00  0.0000E+00  0.0000E+00  0.0000E+00  0.0000E+00  0.0000E+00  0.0000E+00  0.0000E+00  0.0000E+00  0.0000E+00  0.0000E+00  0.0000E+00  0.0000E+00  0.0000E+00  0.0000E+00  0.0000E+00  0.0000E+00
    -26.257  0.0000E+00  0.0000E+00  0.0000E+00  0.0000E+00  0.0000E+00  0.0000E+00  0.0000E+00  0.0000E+00  0.0000E+00  0.0000E+00  0.0000E+00  0.0000E+00  0.0000E+00  0.0000E+00  0.0000E+00  0.0000E+00  0.0000E+00  0.0000E+00
    -26.113  0.0000E+00  0.0000E+00  0.0000E+00  0.0000E+00  0.0000E+00  0.0000E+00  0.0000E+00  0.0000E+00  0.0000E+00  0.0000E+00  0.0000E+00  0.0000E+00  0.0000E+00  0.0000E+00  0.0000E+00  0.0000E+00  0.0000E+00  0.0000E+00
    -25.968  0.0000E+00  0.0000E+00  0.0000E+00  0.0000E+00  0.0000E+00  0.0000E+00  0.0000E+00  0.0000E+00  0.0000E+00  0.0000E+00  0.0000E+00  0.0000E+00  0.0000E+00  0.0000E+00  0.0000E+00  0.0000E+00  0.0000E+00  0.0000E+00
    -25.824  0.0000E+00  0.0000E+00  0.0000E+00  0.0000E+00  0.0000E+00  0.0000E+00  0.0000E+00  0.0000E+00  0.0000E+00  0.0000E+00  0.0000E+00  0.0000E+00  0.0000E+00  0.0000E+00  0.0000E+00  0.0000E+00  0.0000E+00  0.0000E+00
    -25.680  0.0000E+00  0.0000E+00  0.0000E+00  0.0000E+00  0.0000E+00  0.0000E+00  0.0000E+00  0.0000E+00  0.0000E+00  0.0000E+00  0.0000E+00  0.0000E+00  0.0000E+00  0.0000E+00  0.0000E+00  0.0000E+00  0.0000E+00  0.0000E+00
    -25.535  0.0000E+00  0.0000E+00  0.0000E+00  0.0000E+00  0.0000E+00  0.0000E+00  0.0000E+00  0.0000E+00  0.0000E+00  0.0000E+00  0.0000E+00  0.0000E+00  0.0000E+00  0.0000E+00  0.0000E+00  0.0000E+00  0.0000E+00  0.0000E+00
    -25.391  0.0000E+00  0.0000E+00  0.0000E+00  0.0000E+00  0.0000E+00  0.0000E+00  0.0000E+00  0.0000E+00  0.0000E+00  0.0000E+00  0.0000E+00  0.0000E+00  0.0000E+00  0.0000E+00  0.0000E+00  0.0000E+00  0.0000E+00  0.0000E+00
    -25.246  0.0000E+00  0.0000E+00  0.0000E+00  0.0000E+00  0.0000E+00  0.0000E+00  0.0000E+00  0.0000E+00  0.0000E+00  0.0000E+00  0.0000E+00  0.0000E+00  0.0000E+00  0.0000E+00  0.0000E+00  0.0000E+00  0.0000E+00  0.0000E+00
    -25.102  0.0000E+00  0.0000E+00  0.0000E+00  0.0000E+00  0.0000E+00  0.0000E+00  0.0000E+00  0.0000E+00  0.0000E+00  0.0000E+00  0.0000E+00  0.0000E+00  0.0000E+00  0.0000E+00  0.0000E+00  0.0000E+00  0.0000E+00  0.0000E+00
    -24.958  0.0000E+00  0.0000E+00  0.0000E+00  0.0000E+00  0.0000E+00  0.0000E+00  0.0000E+00  0.0000E+00  0.0000E+00  0.0000E+00  0.0000E+00  0.0000E+00  0.0000E+00  0.0000E+00  0.0000E+00  0.0000E+00  0.0000E+00  0.0000E+00
    -24.813  0.0000E+00  0.0000E+00  0.0000E+00  0.0000E+00  0.0000E+00  0.0000E+00  0.0000E+00  0.0000E+00  0.0000E+00  0.0000E+00  0.0000E+00  0.0000E+00  0.0000E+00  0.0000E+00  0.0000E+00  0.0000E+00  0.0000E+00  0.0000E+00
    -24.669  0.0000E+00  0.0000E+00  0.0000E+00  0.0000E+00  0.0000E+00  0.0000E+00  0.0000E+00  0.0000E+00  0.0000E+00  0.0000E+00  0.0000E+00  0.0000E+00  0.0000E+00  0.0000E+00  0.0000E+00  0.0000E+00  0.0000E+00  0.0000E+00
    -24.525  0.0000E+00  0.0000E+00  0.0000E+00  0.0000E+00  0.0000E+00  0.0000E+00  0.0000E+00  0.0000E+00  0.0000E+00  0.0000E+00  0.0000E+00  0.0000E+00  0.0000E+00  0.0000E+00  0.0000E+00  0.0000E+00  0.0000E+00  0.0000E+00
    -24.380  0.0000E+00  0.0000E+00  0.0000E+00  0.0000E+00  0.0000E+00  0.0000E+00  0.0000E+00  0.0000E+00  0.0000E+00  0.0000E+00  0.0000E+00  0.0000E+00  0.0000E+00  0.0000E+00  0.0000E+00  0.0000E+00  0.0000E+00  0.0000E+00
    -24.236  0.0000E+00  0.0000E+00  0.0000E+00  0.0000E+00  0.0000E+00  0.0000E+00  0.0000E+00  0.0000E+00  0.0000E+00  0.0000E+00  0.0000E+00  0.0000E+00  0.0000E+00  0.0000E+00  0.0000E+00  0.0000E+00  0.0000E+00  0.0000E+00
    -24.092  0.0000E+00  0.0000E+00  0.0000E+00  0.0000E+00  0.0000E+00  0.0000E+00  0.0000E+00  0.0000E+00  0.0000E+00  0.0000E+00  0.0000E+00  0.0000E+00  0.0000E+00  0.0000E+00  0.0000E+00  0.0000E+00  0.0000E+00  0.0000E+00
    -23.947  0.0000E+00  0.0000E+00  0.0000E+00  0.0000E+00  0.0000E+00  0.0000E+00  0.0000E+00  0.0000E+00  0.0000E+00  0.0000E+00  0.0000E+00  0.0000E+00  0.0000E+00  0.0000E+00  0.0000E+00  0.0000E+00  0.0000E+00  0.0000E+00
    -23.803  0.0000E+00  0.0000E+00  0.0000E+00  0.0000E+00  0.0000E+00  0.0000E+00  0.0000E+00  0.0000E+00  0.0000E+00  0.0000E+00  0.0000E+00  0.0000E+00  0.0000E+00  0.0000E+00  0.0000E+00  0.0000E+00  0.0000E+00  0.0000E+00
    -23.659  0.0000E+00  0.0000E+00  0.0000E+00  0.0000E+00  0.0000E+00  0.0000E+00  0.0000E+00  0.0000E+00  0.0000E+00  0.0000E+00  0.0000E+00  0.0000E+00  0.0000E+00  0.0000E+00  0.0000E+00  0.0000E+00  0.0000E+00  0.0000E+00